/*--------------------------------*- C++ -*----------------------------------*\
  =========                 |
  \\      /  F ield         | OpenFOAM: The Open Source CFD Toolbox
   \\    /   O peration     | Website:  https://openfoam.org
    \\  /    A nd           | Version:  10
     \\/     M anipulation  |
\*---------------------------------------------------------------------------*/
FoamFile
{
    format      ascii;
    class       surfaceScalarField;
    location    "0.901716";
    object      phi;
}
// * * * * * * * * * * * * * * * * * * * * * * * * * * * * * * * * * * * * * //

dimensions      [1 0 -1 0 0 0 0];

internalField   nonuniform List<scalar> 
32368
(
0.000277061
-8.89249e-05
0.000282446
-8.32043e-05
0.000286584
-7.73228e-05
0.000289743
-7.14331e-05
0.00029205
-6.56691e-05
0.000293674
-6.01302e-05
0.00029458
-5.49742e-05
0.000294674
-5.02249e-05
0.000294189
-4.60215e-05
0.000293059
-4.24137e-05
0.000291428
-3.94121e-05
0.000289358
-3.70769e-05
0.000286665
-3.53422e-05
0.000283503
-3.4155e-05
0.000279696
-3.40504e-05
0.000274576
-3.4832e-05
0.000267969
-3.63313e-05
0.000260172
-3.85649e-05
0.000251707
-4.14927e-05
0.000243294
-4.50238e-05
0.000235717
-4.90542e-05
0.000229389
-5.32967e-05
0.000224018
-5.72594e-05
0.000218807
-6.05064e-05
0.000214839
-6.26685e-05
0.000207551
-6.24531e-05
0.000196623
-5.91676e-05
0.000181244
-5.22667e-05
0.000161746
-4.06132e-05
0.000141782
-2.4288e-05
0.00012423
-3.30842e-06
0.000110737
2.17391e-05
4.98552e-05
0.00010246
0.000275032
-9.01611e-05
0.000279353
-8.35778e-05
0.000282976
-7.69445e-05
0.000285815
-7.03859e-05
0.00028785
-6.39705e-05
0.000289276
-5.78802e-05
0.000290124
-5.21676e-05
0.000290489
-4.69428e-05
0.00029047
-4.22786e-05
0.000289913
-3.82315e-05
0.000288834
-3.47939e-05
0.000287191
-3.19834e-05
0.000284584
-2.96473e-05
0.000281389
-2.82609e-05
0.000277708
-2.79509e-05
0.000272939
-2.83947e-05
0.000266718
-2.97303e-05
0.000258892
-3.1975e-05
0.000249692
-3.49816e-05
0.000240076
-3.86369e-05
0.00023132
-4.29314e-05
0.000224111
-4.75585e-05
0.000217723
-5.19534e-05
0.000212255
-5.57306e-05
0.000207784
-5.8302e-05
0.000199182
-5.83044e-05
0.000186638
-5.5103e-05
0.000169067
-4.81147e-05
0.000147227
-3.63852e-05
0.000125553
-2.00359e-05
0.000106531
6.40272e-07
9.20118e-05
2.48988e-05
5.14226e-05
8.2886e-05
0.000269785
-9.04008e-05
0.000273845
-8.30374e-05
0.000277351
-7.58091e-05
0.000280089
-6.86157e-05
0.000282205
-6.16553e-05
0.000283956
-5.5078e-05
0.000285221
-4.8887e-05
0.000285962
-4.32351e-05
0.000286288
-3.81355e-05
0.000285998
-3.36906e-05
0.000284947
-2.97774e-05
0.000282998
-2.64327e-05
0.000280504
-2.37297e-05
0.000277572
-2.21815e-05
0.000273782
-2.14243e-05
0.00026927
-2.15316e-05
0.00026352
-2.25264e-05
0.000255984
-2.47944e-05
0.000246172
-2.77829e-05
0.000235389
-3.13315e-05
0.00022554
-3.58732e-05
0.000217519
-4.08151e-05
0.000210132
-4.55394e-05
0.000204647
-4.97371e-05
0.000199213
-5.24547e-05
0.000189128
-5.24857e-05
0.000174879
-4.92577e-05
0.00015506
-4.20717e-05
0.000131599
-3.04443e-05
0.000109086
-1.44088e-05
8.94523e-05
5.55386e-06
7.44912e-05
2.84734e-05
5.31354e-05
6.52151e-05
0.000259537
-8.84291e-05
0.000263101
-8.08055e-05
0.000266383
-7.33801e-05
0.000269138
-6.59859e-05
0.000271649
-5.87896e-05
0.000273698
-5.17825e-05
0.000275135
-4.52281e-05
0.000276241
-3.9111e-05
0.000276847
-3.3591e-05
0.000276892
-2.86453e-05
0.000276396
-2.43584e-05
0.000275309
-2.04263e-05
0.000273729
-1.75686e-05
0.000271191
-1.56958e-05
0.000267645
-1.44548e-05
0.000263343
-1.40314e-05
0.000257903
-1.47652e-05
0.000251298
-1.64263e-05
0.000241436
-1.951e-05
0.000229073
-2.31831e-05
0.000218004
-2.77949e-05
0.000209188
-3.29873e-05
0.000200915
-3.79827e-05
0.000195521
-4.24815e-05
0.000188704
-4.50557e-05
0.00017719
-4.50075e-05
0.00016138
-4.16749e-05
0.00013967
-3.44122e-05
0.000115712
-2.31425e-05
9.30475e-05
-7.81679e-06
7.35665e-05
1.08628e-05
5.89599e-05
3.19889e-05
5.45268e-05
5.01611e-05
0.000246767
-8.88721e-05
0.000252055
-8.13872e-05
0.000256753
-7.36682e-05
0.000260771
-6.56782e-05
0.000263831
-5.7666e-05
0.00026614
-4.97659e-05
0.000267777
-4.23911e-05
0.000268404
-3.55632e-05
0.00026855
-2.92728e-05
0.000268316
-2.37429e-05
0.000267144
-1.86667e-05
0.000265649
-1.43687e-05
0.000264253
-1.11975e-05
0.000262137
-8.60307e-06
0.000258785
-6.73585e-06
0.000254039
-5.7436e-06
0.00024829
-5.89612e-06
0.000241393
-7.34086e-06
0.000231924
-1.01395e-05
0.000218723
-1.39579e-05
0.000207119
-1.87915e-05
0.000197918
-2.41763e-05
0.000189264
-2.94764e-05
0.000184115
-3.38845e-05
0.000175569
-3.64414e-05
0.000162907
-3.6236e-05
0.00014596
-3.28071e-05
0.000123388
-2.58504e-05
0.000100048
-1.51757e-05
7.8176e-05
-9.29629e-07
5.96399e-05
1.60239e-05
4.58732e-05
3.51122e-05
5.53829e-05
3.76092e-05
0.000240884
-9.17851e-05
0.000246832
-8.35792e-05
0.000251907
-7.47709e-05
0.000255893
-6.57171e-05
0.000258596
-5.65661e-05
0.000260435
-4.76462e-05
0.000261578
-3.93553e-05
0.000261595
-3.16877e-05
0.000260902
-2.46876e-05
0.000259922
-1.84493e-05
0.000258171
-1.26784e-05
0.000255817
-7.98677e-06
0.000253062
-3.99098e-06
0.000250059
-5.75216e-07
0.000246227
2.06565e-06
0.000241085
3.66533e-06
0.00023473
3.97242e-06
0.000227486
2.778e-06
0.000217867
1.3119e-07
0.000204237
-3.88703e-06
0.000192731
-9.01569e-06
0.000183455
-1.45575e-05
0.000175505
-2.02382e-05
0.000170284
-2.44503e-05
0.000160579
-2.69159e-05
0.000147365
-2.66975e-05
0.000129714
-2.34193e-05
0.000107629
-1.70444e-05
8.55746e-05
-7.22141e-06
6.51308e-05
5.58829e-06
4.78315e-05
2.06716e-05
3.50296e-05
3.76218e-05
5.53068e-05
2.72401e-05
0.000235313
-9.51583e-05
0.000241194
-8.59342e-05
0.000246089
-7.59185e-05
0.000249746
-6.55832e-05
0.000251958
-5.51394e-05
0.000253212
-4.50474e-05
0.000253624
-3.57263e-05
0.000252963
-2.7169e-05
0.000251503
-1.94909e-05
0.000249465
-1.22919e-05
0.000247018
-6.06095e-06
0.000243629
-7.59521e-07
0.000239657
4.11965e-06
0.000235778
8.28406e-06
0.000231586
1.15979e-05
0.000226246
1.38268e-05
0.00021949
1.46599e-05
0.000211803
1.38422e-05
0.000201685
1.13282e-05
0.000188095
6.77849e-06
0.000177262
1.27234e-06
0.000168177
-4.43019e-06
0.000161699
-1.04048e-05
0.000155991
-1.4478e-05
0.000145775
-1.70141e-05
0.000132418
-1.69038e-05
0.000114632
-1.3938e-05
9.4039e-05
-8.22264e-06
7.35146e-05
5.90565e-07
5.43954e-05
1.1743e-05
3.8184e-05
2.48365e-05
2.6094e-05
3.92406e-05
5.37933e-05
1.88391e-05
0.000227749
-9.85472e-05
0.000233357
-8.80952e-05
0.000237656
-7.65755e-05
0.00024058
-6.46291e-05
0.000242003
-5.26981e-05
0.000242334
-4.13403e-05
0.000242014
-3.09312e-05
0.000240684
-2.15649e-05
0.000238486
-1.30955e-05
0.000236043
-5.28677e-06
0.000233012
1.51358e-06
0.000228692
7.61137e-06
0.000223993
1.30505e-05
0.000219627
1.78278e-05
0.000215156
2.1799e-05
0.000209617
2.46444e-05
0.000202646
2.59282e-05
0.000194847
2.53812e-05
0.000184258
2.29681e-05
0.000171061
1.78268e-05
0.000161207
1.18735e-05
0.000152807
5.64311e-06
0.000148153
-3.96941e-08
0.000141742
-4.35652e-06
0.000131432
-6.96528e-06
0.000118147
-7.06469e-06
0.000100702
-4.53184e-06
8.18182e-05
4.52805e-07
6.29532e-05
7.89772e-06
4.53134e-05
1.72289e-05
3.02373e-05
2.80185e-05
1.92958e-05
3.97151e-05
5.14883e-05
1.3561e-05
0.0002163
-0.00010101
0.000220694
-8.89128e-05
0.00022342
-7.57587e-05
0.000224861
-6.22332e-05
0.000225159
-4.89627e-05
0.000224599
-3.63686e-05
0.000223762
-2.48869e-05
0.000222125
-1.47398e-05
0.000219661
-5.37656e-06
0.000217406
2.74833e-06
0.0002146
1.00635e-05
0.000210453
1.67441e-05
0.00020574
2.27473e-05
0.000201338
2.81041e-05
0.000196832
3.26882e-05
0.000191189
3.6054e-05
0.000184147
3.7644e-05
0.000176424
3.71766e-05
0.000165419
3.45479e-05
0.000153533
2.86699e-05
0.000144818
2.24639e-05
0.000137494
1.58266e-05
0.000134086
1.03977e-05
0.000127072
5.90803e-06
0.000116983
3.00515e-06
0.000104002
2.5869e-06
8.78177e-05
4.31788e-06
7.09156e-05
8.27783e-06
5.39543e-05
1.41479e-05
3.80659e-05
2.15157e-05
2.49925e-05
3.00924e-05
1.61111e-05
3.93314e-05
4.85462e-05
1.22163e-05
0.000198476
-0.000102243
0.000202074
-8.95502e-05
0.000204604
-7.60948e-05
0.000205833
-6.1634e-05
0.000205585
-4.68931e-05
0.000203884
-3.26839e-05
0.000201043
-1.95841e-05
0.000197924
-8.20062e-06
0.00019465
2.30161e-06
0.000193226
1.16455e-05
0.000191902
1.9331e-05
0.000188975
2.6359e-05
0.000185009
3.30514e-05
0.000181058
3.90432e-05
0.000176708
4.42444e-05
0.000171059
4.7977e-05
0.000164132
4.96215e-05
0.000156641
4.89768e-05
0.000145507
4.55294e-05
0.000135517
3.90771e-05
0.000128135
3.25864e-05
0.000123007
2.55654e-05
0.000119999
2.06185e-05
0.000112862
1.59098e-05
0.000103298
1.26444e-05
9.09763e-05
1.15494e-05
7.64961e-05
1.22389e-05
6.15954e-05
1.48372e-05
4.68729e-05
1.89925e-05
3.36423e-05
2.44291e-05
2.32025e-05
3.08277e-05
1.65948e-05
3.77249e-05
4.45372e-05
1.44585e-05
0.000180054
-0.000105488
0.000184609
-9.26187e-05
0.000188014
-7.83028e-05
0.000189474
-6.22742e-05
0.000188963
-4.56447e-05
0.0001865
-2.94935e-05
0.000182297
-1.47603e-05
0.000177013
-1.41992e-06
0.000170902
1.04171e-05
0.00016572
2.00561e-05
0.000163148
2.85708e-05
0.000162542
3.61627e-05
0.000160792
4.34773e-05
0.000158365
5.03822e-05
0.000154705
5.61496e-05
0.000149304
6.0081e-05
0.000142747
6.14856e-05
0.000135495
6.04204e-05
0.00012505
5.54702e-05
0.000117209
4.86455e-05
0.000111266
4.17941e-05
0.000108726
3.49829e-05
0.000105794
3.01079e-05
9.92096e-05
2.50722e-05
9.0546e-05
2.14318e-05
7.92109e-05
1.94612e-05
6.66279e-05
1.88619e-05
5.41805e-05
1.9904e-05
4.23635e-05
2.22653e-05
3.20369e-05
2.5751e-05
2.4228e-05
3.00792e-05
1.99887e-05
3.48259e-05
3.95977e-05
2.00792e-05
0.000160837
-0.000109289
0.000165802
-9.63466e-05
0.000169747
-8.17881e-05
0.000171062
-6.40412e-05
0.000170007
-4.51456e-05
0.000166548
-2.65531e-05
0.000160961
-9.4579e-06
0.000154374
5.94007e-06
0.000148038
1.86117e-05
0.000141358
2.90836e-05
0.000136175
3.79498e-05
0.000135122
4.58938e-05
0.000135146
5.39885e-05
0.000134211
6.1793e-05
0.000131261
6.80386e-05
0.000126268
7.18873e-05
0.000120379
7.27414e-05
0.000113251
7.09133e-05
0.000104518
6.39613e-05
9.88336e-05
5.70106e-05
9.48696e-05
4.97059e-05
9.43968e-05
4.38801e-05
9.15964e-05
3.84978e-05
8.59641e-05
3.31288e-05
7.85489e-05
2.89792e-05
6.8815e-05
2.59342e-05
5.86139e-05
2.39493e-05
4.88606e-05
2.33293e-05
3.99905e-05
2.39028e-05
3.28111e-05
2.54929e-05
2.83227e-05
2.78888e-05
2.75789e-05
3.07629e-05
3.34251e-05
3.11165e-05
0.000139409
-0.000113551
0.000146497
-0.00010242
0.000151449
-8.79508e-05
0.000152507
-6.80263e-05
0.000150488
-4.64037e-05
0.000144696
-2.45084e-05
0.000136681
-4.16205e-06
0.000128813
1.33077e-05
0.000121837
2.68944e-05
0.000115208
3.80051e-05
0.000109778
4.7036e-05
0.000109017
5.5206e-05
0.000109955
6.47537e-05
0.000109437
7.32489e-05
0.000106899
7.97199e-05
0.000102426
8.2895e-05
9.74758e-05
8.29091e-05
9.06219e-05
7.90445e-05
8.44848e-05
7.11855e-05
8.0909e-05
6.40523e-05
7.94203e-05
5.66451e-05
7.99397e-05
5.16746e-05
7.7576e-05
4.56272e-05
7.31643e-05
3.97462e-05
6.74323e-05
3.49587e-05
5.9875e-05
3.08598e-05
5.21963e-05
2.73467e-05
4.55173e-05
2.51174e-05
4.03838e-05
2.39948e-05
3.73321e-05
2.3671e-05
3.67798e-05
2.37895e-05
3.91422e-05
2.40919e-05
2.43002e-05
4.52318e-05
0.000118487
-0.000120453
0.00012759
-0.000111245
0.000131859
-9.42632e-05
0.000131834
-7.13751e-05
0.000127949
-4.64445e-05
0.000118851
-2.10601e-05
0.000108407
1.93742e-06
0.000100012
2.0361e-05
9.3554e-05
3.45999e-05
8.78388e-05
4.62395e-05
8.34562e-05
5.55939e-05
8.36081e-05
6.49329e-05
8.48005e-05
7.56243e-05
8.45003e-05
8.4634e-05
8.20438e-05
9.05188e-05
7.83441e-05
9.26758e-05
7.41965e-05
9.14701e-05
6.85881e-05
8.45546e-05
6.54809e-05
7.6887e-05
6.38536e-05
6.94897e-05
6.49544e-05
6.31516e-05
6.55734e-05
5.77585e-05
6.39214e-05
5.10949e-05
6.09401e-05
4.46449e-05
5.71485e-05
3.90199e-05
5.22911e-05
3.37826e-05
4.78823e-05
2.90948e-05
4.47425e-05
2.52994e-05
4.29839e-05
2.21324e-05
4.28181e-05
1.94636e-05
4.47133e-05
1.71751e-05
4.90792e-05
1.509e-05
1.31099e-05
5.61781e-05
9.5065e-05
-0.000127409
0.000100714
-0.00011598
0.000101931
-9.5416e-05
0.000100413
-7.04168e-05
9.48946e-05
-4.29473e-05
8.46211e-05
-1.54172e-05
7.5305e-05
8.31202e-06
6.88564e-05
2.65493e-05
6.4054e-05
4.13439e-05
5.99427e-05
5.32464e-05
5.77058e-05
6.34102e-05
5.91227e-05
7.53836e-05
6.02571e-05
8.67581e-05
5.94977e-05
9.51897e-05
5.72371e-05
9.98081e-05
5.46092e-05
0.000100598
5.12952e-05
9.69161e-05
4.83043e-05
8.83634e-05
4.76044e-05
8.08853e-05
4.8219e-05
7.34852e-05
5.07386e-05
6.84068e-05
5.16482e-05
6.2124e-05
5.09497e-05
5.47925e-05
4.94802e-05
4.77008e-05
4.75502e-05
4.11084e-05
4.53388e-05
3.46604e-05
4.38064e-05
2.86948e-05
4.32661e-05
2.32172e-05
4.38979e-05
1.81276e-05
4.59803e-05
1.34195e-05
4.98116e-05
9.07801e-06
5.5534e-05
5.0916e-06
1.83739e-06
6.28874e-05
6.50735e-05
-0.000130519
6.72045e-05
-0.000116747
6.66737e-05
-9.40242e-05
6.36572e-05
-6.70945e-05
5.67651e-05
-3.73381e-05
4.85922e-05
-9.04226e-06
4.26103e-05
1.40594e-05
3.87014e-05
3.19314e-05
3.57231e-05
4.69408e-05
3.37125e-05
5.94416e-05
3.38791e-05
7.24352e-05
3.53274e-05
8.61608e-05
3.55381e-05
9.6968e-05
3.45382e-05
0.00010401
3.30707e-05
0.000106875
3.18302e-05
0.00010587
2.9845e-05
9.83882e-05
2.98604e-05
9.06115e-05
3.10967e-05
8.32454e-05
3.3801e-05
7.67354e-05
3.67697e-05
7.1564e-05
3.82586e-05
6.44512e-05
3.87415e-05
5.65978e-05
3.88392e-05
4.88248e-05
3.87618e-05
4.12419e-05
3.87527e-05
3.36638e-05
3.94275e-05
2.63471e-05
4.09863e-05
1.93477e-05
4.36023e-05
1.26878e-05
4.74319e-05
6.44419e-06
5.22673e-05
9.46367e-07
5.77649e-05
-3.94937e-06
-6.89775e-06
6.23991e-05
3.19434e-05
-0.000129807
3.1819e-05
-0.000114834
3.01999e-05
-9.11243e-05
2.65099e-05
-6.26762e-05
2.11637e-05
-3.24637e-05
1.69033e-05
-4.05655e-06
1.39226e-05
1.86713e-05
1.16976e-05
3.67151e-05
1.02692e-05
5.25425e-05
1.00014e-05
6.79205e-05
1.07115e-05
8.35603e-05
1.08979e-05
9.60411e-05
1.06154e-05
0.000105174
1.02781e-05
0.000110032
1.04914e-05
0.000111141
1.04668e-05
0.000106439
1.13486e-05
9.86941e-05
1.34114e-05
9.15776e-05
1.61853e-05
8.40398e-05
1.98447e-05
7.83682e-05
2.30992e-05
7.23053e-05
2.55426e-05
6.47755e-05
2.73497e-05
5.63923e-05
2.89682e-05
4.78943e-05
3.05411e-05
3.94108e-05
3.23614e-05
3.0876e-05
3.48022e-05
2.24537e-05
3.8007e-05
1.42649e-05
4.19183e-05
6.55672e-06
4.56885e-05
6.23454e-08
4.90852e-05
-5.76374e-06
5.16383e-05
-9.46686e-06
-1.24385e-05
5.51033e-05
-1.26085e-06
-0.000125714
-3.09413e-06
-0.000110713
-5.21551e-06
-8.68463e-05
-7.7432e-06
-5.8249e-05
-1.01324e-05
-2.78671e-05
-1.11562e-05
3.28844e-07
-1.21722e-05
2.34399e-05
-1.30696e-05
4.33737e-05
-1.32734e-05
6.15217e-05
-1.34347e-05
7.84584e-05
-1.36501e-05
9.24671e-05
-1.3673e-05
0.000103099
-1.32502e-05
0.000110011
-1.20597e-05
0.000113258
-9.97259e-06
0.000111435
-7.78255e-06
0.000104422
-4.79891e-06
9.81032e-05
-1.16525e-06
9.11144e-05
2.65163e-06
8.37959e-05
6.56207e-06
7.80423e-05
1.03252e-05
7.11795e-05
1.35855e-05
6.27467e-05
1.64212e-05
5.36417e-05
1.91511e-05
4.45291e-05
2.21143e-05
3.54581e-05
2.54467e-05
2.62814e-05
2.90864e-05
1.72506e-05
3.26439e-05
8.7046e-06
3.51351e-05
1.45252e-06
3.74962e-05
-4.65473e-06
3.98942e-05
-9.67971e-06
4.36437e-05
-1.40488e-05
-1.77747e-05
4.8642e-05
-3.23185e-05
-0.000118327
-3.57045e-05
-0.000104615
-3.80451e-05
-8.15402e-05
-3.93773e-05
-5.3899e-05
-3.96386e-05
-2.44045e-05
-3.88632e-05
4.24111e-06
-3.89029e-05
2.9185e-05
-3.84695e-05
5.061e-05
-3.85342e-05
6.91001e-05
-3.84173e-05
8.50408e-05
-3.78589e-05
9.74361e-05
-3.66467e-05
0.000106441
-3.44609e-05
0.000111839
-3.09378e-05
0.000112322
-2.7424e-05
0.000107266
-2.33067e-05
0.000102258
-1.89609e-05
9.64884e-05
-1.45032e-05
8.9506e-05
-1.00491e-05
8.27448e-05
-5.61058e-06
7.58361e-05
-1.61674e-06
6.76204e-05
2.109e-06
5.87114e-05
5.9023e-06
4.94485e-05
9.76332e-06
3.99705e-05
1.36033e-05
3.03658e-05
1.72059e-05
2.09345e-05
1.99767e-05
1.21415e-05
2.20753e-05
4.44993e-06
2.44971e-05
-2.28243e-06
2.74217e-05
-8.23323e-06
3.12118e-05
-1.37593e-05
3.60062e-05
-1.87424e-05
-2.29597e-05
4.19885e-05
-5.93614e-05
-0.000107202
-6.45641e-05
-9.64857e-05
-6.72087e-05
-7.54345e-05
-6.83817e-05
-4.92335e-05
-6.81842e-05
-2.09441e-05
-6.66911e-05
6.96533e-06
-6.56916e-05
3.25344e-05
-6.44772e-05
5.4363e-05
-6.33361e-05
7.25632e-05
-6.16474e-05
8.75205e-05
-5.95763e-05
9.89415e-05
-5.65034e-05
0.000106599
-5.17693e-05
0.000109147
-4.68224e-05
0.000106622
-4.17718e-05
0.000103361
-3.67606e-05
9.9452e-05
-3.15408e-05
9.37226e-05
-2.65247e-05
8.70669e-05
-2.17527e-05
7.99583e-05
-1.71338e-05
7.21171e-05
-1.26094e-05
6.34147e-05
-8.17546e-06
5.41308e-05
-3.89379e-06
4.44552e-05
1.66562e-07
3.46148e-05
3.49851e-06
2.51391e-05
6.03598e-06
1.64833e-05
8.30503e-06
8.65177e-06
1.08433e-05
1.27516e-06
1.38557e-05
-5.59352e-06
1.75683e-05
-1.20344e-05
2.24576e-05
-1.81302e-05
2.82193e-05
-2.34115e-05
-2.73188e-05
3.43937e-05
-7.94409e-05
-9.46753e-05
-8.79935e-05
-8.55464e-05
-9.20942e-05
-6.80979e-05
-9.34664e-05
-4.4234e-05
-9.31234e-05
-1.77352e-05
-9.15944e-05
8.7617e-06
-8.92965e-05
3.34582e-05
-8.70814e-05
5.52144e-05
-8.46484e-05
7.30228e-05
-8.15296e-05
8.71293e-05
-7.7608e-05
9.72626e-05
-7.16396e-05
0.000101878
-6.54612e-05
0.000102143
-5.95744e-05
0.000101349
-5.41785e-05
9.95466e-05
-4.84892e-05
9.57184e-05
-4.29633e-05
9.0135e-05
-3.75881e-05
8.36552e-05
-3.24699e-05
7.60041e-05
-2.75472e-05
6.75773e-05
-2.27757e-05
5.84844e-05
-1.81104e-05
4.87089e-05
-1.41054e-05
3.88963e-05
-1.08743e-05
2.97152e-05
-8.15254e-06
2.13231e-05
-5.75052e-06
1.33889e-05
-3.25714e-06
5.80961e-06
-4.66747e-07
-1.68797e-06
3.10419e-06
-9.13712e-06
7.80752e-06
-1.61499e-05
1.3171e-05
-2.19796e-05
1.84459e-05
-2.56398e-05
-2.74931e-05
2.31242e-05
-9.17671e-05
-8.33335e-05
-0.000103781
-7.31476e-05
-0.000110671
-5.88128e-05
-0.00011338
-3.84686e-05
-0.000113376
-1.458e-05
-0.000111579
9.86987e-06
-0.000108805
3.31067e-05
-0.000105402
5.38613e-05
-0.000101582
7.07687e-05
-9.65388e-05
8.30792e-05
-8.94949e-05
9.02328e-05
-8.24288e-05
9.37617e-05
-7.62526e-05
9.60221e-05
-7.07096e-05
9.6634e-05
-6.49327e-05
9.49979e-05
-5.90487e-05
9.11878e-05
-5.32722e-05
8.58351e-05
-4.77867e-05
7.90582e-05
-4.24829e-05
7.1145e-05
-3.73066e-05
6.20996e-05
-3.24927e-05
5.25682e-05
-2.84957e-05
4.32712e-05
-2.51896e-05
3.46869e-05
-2.25858e-05
2.65201e-05
-2.03695e-05
1.8613e-05
-1.81205e-05
1.07917e-05
-1.56004e-05
3.00629e-06
-1.23692e-05
-4.80599e-06
-8.08323e-06
-1.24647e-05
-3.17145e-06
-1.83025e-05
1.97704e-06
-2.20763e-05
5.36337e-06
-2.50726e-05
-2.86994e-05
8.36757e-06
-9.94673e-05
-7.5121e-05
-0.000109223
-6.2112e-05
-0.000119663
-4.86675e-05
-0.000124949
-3.16643e-05
-0.000126331
-1.1421e-05
-0.000124961
1.00875e-05
-0.00012171
3.07966e-05
-0.00011665
4.91572e-05
-0.000110482
6.33161e-05
-0.00010358
7.44607e-05
-9.69856e-05
8.21659e-05
-9.1309e-05
8.75897e-05
-8.59244e-05
9.07277e-05
-8.02574e-05
9.14336e-05
-7.43747e-05
8.97435e-05
-6.84698e-05
8.60072e-05
-6.28084e-05
8.06412e-05
-5.7163e-05
7.34956e-05
-5.16382e-05
6.49566e-05
-4.6859e-05
5.61042e-05
-4.29666e-05
4.77985e-05
-4.00165e-05
3.98471e-05
-3.77254e-05
3.20296e-05
-3.57444e-05
2.41801e-05
-3.37195e-05
1.62518e-05
-3.11471e-05
8.0792e-06
-2.82154e-05
2.85219e-07
-2.38687e-05
-7.19689e-06
-1.87433e-05
-1.2967e-05
-1.53162e-05
-1.78481e-05
-1.27596e-05
-2.32684e-05
-9.46452e-06
-2.77399e-05
-3.22728e-05
-5.91395e-06
-0.000106801
-6.85968e-05
-0.00011172
-5.54274e-05
-0.000118561
-4.12589e-05
-0.000124919
-2.59723e-05
-0.000127601
-8.77025e-06
-0.000127239
9.48717e-06
-0.000124591
2.73223e-05
-0.000119726
4.34333e-05
-0.000114306
5.68893e-05
-0.00010915
6.8046e-05
-0.000104276
7.62708e-05
-9.94062e-05
8.20611e-05
-9.41094e-05
8.50317e-05
-8.84816e-05
8.553e-05
-8.27416e-05
8.38607e-05
-7.69986e-05
7.99828e-05
-7.10257e-05
7.40062e-05
-6.55755e-05
6.66476e-05
-6.10088e-05
5.9295e-05
-5.75602e-05
5.21938e-05
-5.5058e-05
4.50094e-05
-5.31008e-05
3.75968e-05
-5.13116e-05
3.00047e-05
-4.93032e-05
2.20474e-05
-4.68195e-05
1.38246e-05
-4.3306e-05
5.54057e-06
-3.87649e-05
-1.09673e-06
-3.45185e-05
-7.26874e-06
-3.27063e-05
-1.3575e-05
-3.07875e-05
-1.97781e-05
-2.89663e-05
-2.60268e-05
-2.69614e-05
-3.24823e-05
-3.84807e-05
-2.41917e-05
-0.000113753
-6.28952e-05
-0.000116886
-5.03499e-05
-0.00012004
-3.67755e-05
-0.000123469
-2.22699e-05
-0.000126144
-7.10853e-06
-0.000126532
8.75134e-06
-0.000124942
2.43237e-05
-0.000122114
3.88303e-05
-0.000118691
5.14972e-05
-0.000114734
6.19936e-05
-0.000110507
7.00601e-05
-0.000105771
7.56456e-05
-0.000100666
7.85407e-05
-9.52625e-05
7.87777e-05
-8.95505e-05
7.67432e-05
-8.39089e-05
7.26469e-05
-7.88914e-05
6.75235e-05
-7.49313e-05
6.19447e-05
-7.21187e-05
5.60483e-05
-6.99818e-05
4.97434e-05
-6.81674e-05
4.30419e-05
-6.64623e-05
3.57973e-05
-6.46253e-05
2.81915e-05
-6.17514e-05
1.98041e-05
-5.77989e-05
1.20958e-05
-5.33849e-05
5.24203e-06
-5.14942e-05
-1.76058e-06
-5.08183e-05
-8.19091e-06
-5.0977e-05
-1.53129e-05
-5.16392e-05
-2.30072e-05
-5.17406e-05
-3.04419e-05
-5.04719e-05
-3.77598e-05
-4.44633e-05
-4.80761e-05
-0.00012004
-5.67446e-05
-0.00012224
-4.59521e-05
-0.000123936
-3.34724e-05
-0.00012539
-2.01699e-05
-0.000126394
-6.29759e-06
-0.000126292
7.81604e-06
-0.000125154
2.16845e-05
-0.000123178
3.46565e-05
-0.000120444
4.62179e-05
-0.000117171
5.58595e-05
-0.000113506
6.33369e-05
-0.000109341
6.84811e-05
-0.000104725
7.12547e-05
-0.000100049
7.17235e-05
-9.54897e-05
7.02198e-05
-9.15007e-05
6.74249e-05
-8.84776e-05
6.36138e-05
-8.61146e-05
5.90255e-05
-8.42376e-05
5.38395e-05
-8.26512e-05
4.79315e-05
-8.10857e-05
4.14116e-05
-7.88003e-05
3.38204e-05
-7.5397e-05
2.61118e-05
-7.14478e-05
1.87288e-05
-6.99729e-05
1.15751e-05
-6.98517e-05
4.83186e-06
-7.10945e-05
-1.86213e-06
-7.42143e-05
-9.23434e-06
-7.70465e-05
-1.70866e-05
-7.81389e-05
-2.51922e-05
-7.83803e-05
-3.37091e-05
-7.7951e-05
-4.25046e-05
-5.19103e-05
-7.74707e-05
-0.000125054
-4.9465e-05
-0.000127594
-4.08427e-05
-0.000128689
-3.03566e-05
-0.000129034
-1.85648e-05
-0.000128751
-5.98972e-06
-0.000128051
6.76167e-06
-0.000126509
1.9266e-05
-0.000124381
3.10363e-05
-0.000121885
4.16142e-05
-0.000118981
5.0546e-05
-0.000115885
5.75878e-05
-0.00011261
6.26145e-05
-0.000109242
6.55972e-05
-0.000106034
6.66725e-05
-0.000103235
6.59698e-05
-0.00010085
6.39308e-05
-9.89534e-05
6.08757e-05
-9.74201e-05
5.68964e-05
-9.61072e-05
5.20821e-05
-9.43657e-05
4.60686e-05
-9.15898e-05
3.92184e-05
-8.83144e-05
3.23011e-05
-8.70497e-05
2.5591e-05
-8.75613e-05
1.90376e-05
-8.94296e-05
1.2685e-05
-9.37245e-05
5.85637e-06
-9.87521e-05
-1.04086e-06
-0.000101637
-9.02303e-06
-0.000103887
-1.76622e-05
-0.000106653
-2.73371e-05
-0.000111086
-3.91288e-05
-0.000116186
-5.1305e-05
-6.10848e-05
-0.000118121
-0.000125795
-4.10506e-05
-0.00013025
-3.4713e-05
-0.000132409
-2.64378e-05
-0.000132784
-1.66019e-05
-0.000132127
-5.75469e-06
-0.000130746
5.63291e-06
-0.000128973
1.69906e-05
-0.00012688
2.78145e-05
-0.000124498
3.76411e-05
-0.000122037
4.61098e-05
-0.000119617
5.29444e-05
-0.000117299
5.80073e-05
-0.000115139
6.12757e-05
-0.000113161
6.28574e-05
-0.00011146
6.27582e-05
-0.00011011
6.12551e-05
-0.000109023
5.87432e-05
-0.000107754
5.48922e-05
-0.000105753
4.98451e-05
-0.000103313
4.42571e-05
-0.000102096
3.86522e-05
-0.000102838
3.29772e-05
-0.000105024
2.73113e-05
-0.000109133
2.14503e-05
-0.000115178
1.51311e-05
-0.000120151
8.1343e-06
-0.000123943
2.89149e-07
-0.000128623
-8.71467e-06
-0.000136614
-1.91617e-05
-0.000148086
-3.31378e-05
-0.000155443
-4.4974e-05
-0.000154366
-5.4386e-05
-6.28519e-05
-0.000150375
-0.000121833
-3.23587e-05
-0.000128074
-2.78355e-05
-0.000131976
-2.16276e-05
-0.000133831
-1.40136e-05
-0.000133948
-4.99493e-06
-0.000132912
4.89155e-06
-0.000131233
1.50605e-05
-0.000129221
2.50051e-05
-0.00012715
3.42018e-05
-0.00012516
4.23012e-05
-0.000123378
4.90191e-05
-0.000121897
5.41954e-05
-0.00012071
5.77302e-05
-0.000119794
5.97426e-05
-0.000118965
6.0159e-05
-0.000118215
5.89409e-05
-0.000117053
5.63975e-05
-0.000115671
5.29642e-05
-0.000114883
4.91343e-05
-0.000115748
4.49017e-05
-0.000118026
4.03828e-05
-0.000121777
3.58459e-05
-0.00012776
3.07584e-05
-0.000133717
2.50643e-05
-0.000138956
1.82161e-05
-0.000144718
1.06099e-05
-0.00015357
1.92219e-06
-0.000167606
-1.00473e-05
-0.000183438
-2.31444e-05
-0.000187478
-3.38036e-05
-0.000187184
-4.44876e-05
-0.000183629
-5.43187e-05
-6.19372e-05
-0.000174527
-0.000114914
-2.35766e-05
-0.0001215
-2.07532e-05
-0.000126834
-1.65041e-05
-0.000130374
-1.06956e-05
-0.000131851
-3.59239e-06
-0.000131899
4.6988e-06
-0.000131066
1.36258e-05
-0.000129749
2.26682e-05
-0.000128284
3.1284e-05
-0.000127005
3.90777e-05
-0.000126049
4.57076e-05
-0.000125412
5.09881e-05
-0.000125041
5.4708e-05
-0.000124778
5.69404e-05
-0.000124447
5.76965e-05
-0.000124309
5.71902e-05
-0.000124637
5.56625e-05
-0.000125927
5.35752e-05
-0.000128341
5.07509e-05
-0.000132073
4.78368e-05
-0.000137613
4.43243e-05
-0.000143781
4.02188e-05
-0.000149589
3.4716e-05
-0.000155573
2.84976e-05
-0.000163475
2.13537e-05
-0.000176723
1.33353e-05
-0.000196465
1.50204e-06
-0.000210086
-9.70167e-06
-0.000214473
-2.11772e-05
-0.000214622
-3.25396e-05
-0.000210857
-4.34552e-05
-0.000200874
-5.27782e-05
-6.02218e-05
-0.000186322
-0.000106432
-1.47339e-05
-0.00011337
-1.33814e-05
-0.000118799
-1.09806e-05
-0.000122777
-6.92115e-06
-0.000125683
-1.50334e-06
-0.000127422
5.2696e-06
-0.000127916
1.29271e-05
-0.000127724
2.10003e-05
-0.000127258
2.89721e-05
-0.000126833
3.63804e-05
-0.000126666
4.28785e-05
-0.000126893
4.82942e-05
-0.000127521
5.24663e-05
-0.000128677
5.54292e-05
-0.000130365
5.72041e-05
-0.000132603
5.77767e-05
-0.000135616
5.72106e-05
-0.000139546
5.62731e-05
-0.000144873
5.46637e-05
-0.000151028
5.23573e-05
-0.000157005
4.8669e-05
-0.000162905
4.411e-05
-0.000169638
3.84321e-05
-0.000179213
3.19725e-05
-0.000194268
2.45742e-05
-0.000215725
1.45809e-05
-0.000229578
3.78994e-06
-0.000234246
-7.62955e-06
-0.000235592
-1.93464e-05
-0.000233402
-3.10298e-05
-0.000226752
-4.19757e-05
-0.000216261
-5.1789e-05
-6.03432e-05
-0.000202902
-9.67885e-05
-6.13685e-06
-0.000104245
-5.40839e-06
-0.00011035
-4.4341e-06
-0.000115059
-2.26723e-06
-0.000118487
1.54829e-06
-0.00012078
6.86522e-06
-0.000122361
1.32918e-05
-0.000123369
2.0459e-05
-0.000124145
2.78493e-05
-0.000125087
3.5042e-05
-0.000126481
4.16909e-05
-0.00012858
4.75279e-05
-0.000131386
5.23609e-05
-0.000134854
5.60508e-05
-0.000138856
5.86291e-05
-0.000143532
6.03171e-05
-0.000149101
6.09293e-05
-0.000155325
6.04982e-05
-0.000161511
5.89383e-05
-0.00016744
5.62669e-05
-0.000173559
5.24174e-05
-0.000180627
4.75388e-05
-0.00019012
4.16629e-05
-0.000203907
3.48576e-05
-0.000222882
2.65861e-05
-0.000238883
1.63057e-05
-0.000245201
5.64309e-06
-0.000247343
-5.78566e-06
-0.000247574
-1.7632e-05
-0.000244937
-2.9267e-05
-0.000239622
-4.04342e-05
-0.000231341
-5.09198e-05
-6.01869e-05
-0.00021924
-8.90026e-05
2.46637e-06
-9.61616e-05
2.59241e-06
-0.000102943
2.73933e-06
-0.000108359
3.55526e-06
-0.0001126
5.72147e-06
-0.000115813
9.64077e-06
-0.0001183
1.50158e-05
-0.000120511
2.14536e-05
-0.00012272
2.84902e-05
-0.000125305
3.55999e-05
-0.000128587
4.24485e-05
-0.000132661
4.86749e-05
-0.000137555
5.40791e-05
-0.000143272
5.85978e-05
-0.000149677
6.20627e-05
-0.000156246
6.43282e-05
-0.000162682
6.50611e-05
-0.000168896
6.44112e-05
-0.000175005
6.26813e-05
-0.000181135
5.9716e-05
-0.000187828
5.55361e-05
-0.00019611
5.02685e-05
-0.000207304
4.40999e-05
-0.00022205
3.68198e-05
-0.000237267
2.72247e-05
-0.000245479
1.74013e-05
-0.000248431
6.59072e-06
-0.000249561
-4.72698e-06
-0.000250275
-1.60304e-05
-0.000250307
-2.7708e-05
-0.00024907
-3.88259e-05
-0.000245326
-4.92522e-05
-5.87879e-05
-0.000237565
-8.71088e-05
1.03523e-05
-9.21205e-05
1.02656e-05
-9.8246e-05
9.70501e-06
-0.000103917
9.68758e-06
-0.00010871
1.07778e-05
-0.000112833
1.35651e-05
-0.000116422
1.80966e-05
-0.000119937
2.39899e-05
-0.000123694
3.08105e-05
-0.000127927
3.79354e-05
-0.000133039
4.50754e-05
-0.000139144
5.18294e-05
-0.000146073
5.77828e-05
-0.000153369
6.25895e-05
-0.000160487
6.6057e-05
-0.000167277
6.82166e-05
-0.000173881
6.89978e-05
-0.000180298
6.81847e-05
-0.000186475
6.60047e-05
-0.000192657
6.26098e-05
-0.000199725
5.80798e-05
-0.000208825
5.24754e-05
-0.00022032
4.58522e-05
-0.000232011
3.78101e-05
-0.000238871
2.82946e-05
-0.000242491
1.76874e-05
-0.00024494
6.53554e-06
-0.000247975
-5.02888e-06
-0.000252253
-1.66866e-05
-0.000254083
-2.79404e-05
-0.000254049
-3.86313e-05
-0.000253226
-4.84926e-05
-5.72003e-05
-0.000249983
-8.80801e-05
1.67677e-05
-9.21158e-05
1.77865e-05
-9.66327e-05
1.63686e-05
-0.00010202
1.59171e-05
-0.000107319
1.6515e-05
-0.000112286
1.86509e-05
-0.00011699
2.2618e-05
-0.000121897
2.81911e-05
-0.000127311
3.49877e-05
-0.000133374
4.23033e-05
-0.00014023
4.96163e-05
-0.00014752
5.63676e-05
-0.000154925
6.2152e-05
-0.000162405
6.68233e-05
-0.000169883
7.01486e-05
-0.000176999
7.20602e-05
-0.000183355
7.24244e-05
-0.000189598
7.11864e-05
-0.000195585
6.83729e-05
-0.000202045
6.4754e-05
-0.00021035
6.00029e-05
-0.000220376
5.43679e-05
-0.00023158
4.74586e-05
-0.000241943
3.89027e-05
-0.000248228
2.88877e-05
-0.000251913
1.77801e-05
-0.00025485
6.04403e-06
-0.000257905
-6.7007e-06
-0.000260476
-1.92462e-05
-0.000260831
-3.06077e-05
-0.000260013
-4.0785e-05
-0.000258856
-4.92371e-05
-5.60348e-05
-0.000256822
-9.13407e-05
2.19002e-05
-9.52634e-05
2.42749e-05
-9.80404e-05
2.34288e-05
-0.000102919
2.23135e-05
-0.000108497
2.26791e-05
-0.000114321
2.4701e-05
-0.000120233
2.84916e-05
-0.000126774
3.40934e-05
-0.000133826
4.0787e-05
-0.000140886
4.80239e-05
-0.000147949
5.504e-05
-0.000155285
6.14214e-05
-0.000162888
6.68921e-05
-0.00017053
7.11235e-05
-0.000177642
7.38425e-05
-0.000183985
7.51044e-05
-0.00018982
7.47314e-05
-0.000195819
7.32521e-05
-0.000202436
7.05325e-05
-0.000210676
6.66604e-05
-0.00022033
6.20616e-05
-0.00023201
5.62665e-05
-0.000244979
4.95871e-05
-0.000257702
4.08977e-05
-0.000269324
3.02676e-05
-0.000280337
1.75509e-05
-0.000287904
3.70268e-06
-0.00029005
-1.0433e-05
-0.000289013
-2.35557e-05
-0.00028561
-3.54191e-05
-0.000277765
-4.50992e-05
-0.000268485
-5.23541e-05
-5.73759e-05
-0.000261989