/*--------------------------------*- C++ -*----------------------------------*\
  =========                 |
  \\      /  F ield         | OpenFOAM: The Open Source CFD Toolbox
   \\    /   O peration     | Website:  https://openfoam.org
    \\  /    A nd           | Version:  10
     \\/     M anipulation  |
\*---------------------------------------------------------------------------*/
FoamFile
{
    format      ascii;
    class       volScalarField;
    location    "0.901716";
    object      rho;
}
// * * * * * * * * * * * * * * * * * * * * * * * * * * * * * * * * * * * * * //

dimensions      [1 -3 0 0 0 0 0];

internalField   nonuniform List<scalar> 
16320
(
0.675141
0.662629
0.649878
0.637469
0.626287
0.616128
0.607528
0.599858
0.592859
0.587646
0.5826
0.579513
0.576496
0.574335
0.572695
0.570524
0.566578
0.560762
0.553886
0.546956
0.541709
0.539735
0.542118
0.548417
0.562517
0.580035
0.597481
0.61718
0.634902
0.649373
0.667122
0.687673
0.709825
0.6606
0.645198
0.631205
0.619055
0.608058
0.598676
0.590967
0.584794
0.580399
0.577404
0.575471
0.574414
0.57388
0.573137
0.573004
0.572943
0.571683
0.568286
0.562438
0.554984
0.548712
0.546333
0.549116
0.555897
0.572892
0.591025
0.607903
0.626024
0.63918
0.650701
0.665455
0.683107
0.701266
0.640189
0.624136
0.610764
0.599298
0.58946
0.581895
0.576476
0.572875
0.570626
0.570218
0.570054
0.570446
0.570932
0.572177
0.573841
0.57538
0.576777
0.576247
0.571899
0.563832
0.556479
0.55374
0.556931
0.564795
0.584666
0.602253
0.618215
0.633777
0.641478
0.650396
0.663923
0.679374
0.694057
0.610189
0.592925
0.580502
0.569727
0.562224
0.557289
0.553844
0.552613
0.553146
0.554917
0.557455
0.561166
0.565545
0.570039
0.573989
0.577684
0.580863
0.58427
0.582953
0.574608
0.565074
0.561793
0.565255
0.574894
0.596789
0.613087
0.627819
0.639636
0.642517
0.6498
0.661765
0.675681
0.689201
0.572837
0.562066
0.554455
0.548725
0.544839
0.541679
0.541096
0.541201
0.542235
0.545043
0.549144
0.553036
0.558824
0.566372
0.573911
0.579721
0.58446
0.588567
0.590372
0.582464
0.571579
0.568692
0.572784
0.585663
0.608036
0.62194
0.634935
0.642207
0.642329
0.648742
0.660418
0.673706
0.685734
0.560777
0.553247
0.547205
0.542591
0.539035
0.536084
0.535969
0.536859
0.537856
0.541047
0.545756
0.550212
0.555964
0.563951
0.573125
0.581362
0.587475
0.592275
0.59488
0.587164
0.576077
0.574952
0.580271
0.598705
0.619281
0.630927
0.641451
0.643184
0.642689
0.649068
0.659718
0.670972
0.679023
0.557297
0.549587
0.542835
0.538144
0.534021
0.531346
0.531306
0.532482
0.53422
0.537776
0.543149
0.54872
0.554771
0.562922
0.573216
0.583232
0.590745
0.596024
0.598755
0.589649
0.579421
0.580342
0.588037
0.610953
0.628052
0.638086
0.6453
0.643832
0.644505
0.650062
0.657379
0.663219
0.662456
0.55394
0.545048
0.536521
0.529934
0.524599
0.521195
0.520904
0.522896
0.525934
0.530877
0.538289
0.545883
0.552819
0.561769
0.573447
0.585064
0.593687
0.599282
0.601462
0.590261
0.581885
0.584662
0.59647
0.621607
0.635153
0.643678
0.64745
0.644334
0.645246
0.647577
0.64849
0.645177
0.638582
0.546087
0.533173
0.52027
0.509374
0.501439
0.496978
0.496439
0.500072
0.505559
0.5142
0.526395
0.537961
0.547805
0.559347
0.573448
0.587
0.596415
0.602045
0.602706
0.589315
0.584172
0.588758
0.607151
0.630539
0.640848
0.647488
0.647153
0.644069
0.642174
0.638403
0.632626
0.62646
0.621386
0.526211
0.508431
0.494744
0.48388
0.475955
0.470333
0.46772
0.466968
0.472434
0.483114
0.503841
0.523147
0.539044
0.555384
0.573315
0.588881
0.598856
0.604264
0.602013
0.587631
0.586019
0.593163
0.618233
0.638435
0.646161
0.650348
0.646534
0.640868
0.633911
0.626529
0.620639
0.616998
0.615522
0.508509
0.495156
0.484509
0.474958
0.467029
0.460851
0.455736
0.453626
0.454451
0.459097
0.470608
0.496669
0.523215
0.54852
0.572804
0.59077
0.600904
0.605591
0.598497
0.585745
0.58742
0.599231
0.629313
0.645683
0.651853
0.652811
0.64427
0.635046
0.626852
0.620539
0.616173
0.614627
0.61707
0.502595
0.490566
0.483879
0.474912
0.466102
0.458588
0.451296
0.445924
0.445333
0.449295
0.457245
0.475899
0.508646
0.54464
0.573875
0.593401
0.602792
0.605433
0.591906
0.583615
0.588305
0.608667
0.63884
0.652121
0.65726
0.655318
0.643274
0.632885
0.62464
0.619967
0.620827
0.628663
0.643905
0.501674
0.497093
0.502604
0.494525
0.483946
0.471983
0.455263
0.443594
0.439473
0.442503
0.449372
0.466893
0.507418
0.547025
0.578403
0.596911
0.60437
0.602119
0.584063
0.581868
0.590649
0.620608
0.646335
0.656716
0.661417
0.658922
0.644728
0.634681
0.632184
0.638683
0.65207
0.66982
0.689962
0.513611
0.53445
0.54738
0.536932
0.52201
0.498607
0.465552
0.444267
0.437114
0.440122
0.448163
0.469622
0.513728
0.55618
0.586211
0.600577
0.604592
0.592071
0.577744
0.580749
0.597311
0.632243
0.651924
0.65983
0.664266
0.662962
0.6539
0.65227
0.659175
0.670431
0.684058
0.69944
0.714715
0.553064
0.578956
0.575193
0.559096
0.536623
0.500526
0.460736
0.440011
0.435318
0.439715
0.450803
0.482281
0.532494
0.572261
0.595063
0.603567
0.600819
0.578693
0.573026
0.580622
0.609624
0.641042
0.655824
0.661998
0.666105
0.665264
0.663741
0.667362
0.674603
0.684532
0.695771
0.70739
0.71746
0.584846
0.599085
0.586943
0.566208
0.532404
0.481167
0.449071
0.436155
0.436306
0.443471
0.465072
0.514782
0.559661
0.58926
0.602165
0.60292
0.585404
0.567879
0.57005
0.585016
0.622306
0.646433
0.657192
0.662593
0.666452
0.666671
0.668321
0.672841
0.67957
0.687835
0.696589
0.702319
0.698961
0.601129
0.610832
0.595698
0.570602
0.52165
0.471954
0.446934
0.440203
0.444812
0.463221
0.508868
0.553374
0.585632
0.601221
0.603425
0.593901
0.567442
0.561745
0.568918
0.59369
0.627638
0.647022
0.656259
0.661458
0.6652
0.666051
0.668429
0.672814
0.678556
0.682848
0.678152
0.658254
0.644241
0.611079
0.61983
0.608655
0.585516
0.540442
0.489139
0.466385
0.465061
0.484588
0.522353
0.559772
0.587031
0.601394
0.603761
0.598319
0.57007
0.55728
0.559806
0.570278
0.600677
0.627529
0.64326
0.648996
0.652362
0.65586
0.659588
0.662614
0.664128
0.657943
0.638336
0.622096
0.618606
0.624986
0.617077
0.628295
0.620149
0.606268
0.580199
0.547073
0.532494
0.536419
0.551923
0.576665
0.593393
0.603157
0.604841
0.600313
0.574159
0.555002
0.55395
0.560472
0.576757
0.602159
0.620063
0.627596
0.632126
0.637745
0.642565
0.643058
0.635999
0.619547
0.603592
0.598236
0.603695
0.612538
0.624417
0.607342
0.633991
0.63188
0.622381
0.611206
0.596506
0.589254
0.590939
0.596847
0.603926
0.607402
0.607583
0.601542
0.576784
0.554064
0.550758
0.554253
0.563262
0.582629
0.59977
0.609513
0.616856
0.621885
0.622702
0.615256
0.600502
0.587015
0.582071
0.585283
0.594352
0.607862
0.618
0.62099
0.579094
0.62805
0.639542
0.636405
0.629555
0.623273
0.618337
0.616128
0.615378
0.614368
0.611956
0.602717
0.576392
0.553617
0.548616
0.550721
0.556534
0.570032
0.584158
0.595701
0.602748
0.605377
0.600049
0.585721
0.573068
0.568576
0.57141
0.579425
0.593661
0.605228
0.60841
0.600482
0.574075
0.547327
0.601257
0.633475
0.641367
0.640041
0.635756
0.631372
0.627627
0.622926
0.615999
0.601567
0.571745
0.552606
0.547508
0.548687
0.553198
0.561978
0.573589
0.582903
0.588258
0.586692
0.573801
0.561683
0.557744
0.560277
0.567191
0.579026
0.591762
0.59724
0.590941
0.562863
0.518463
0.498898
0.534818
0.55198
0.60044
0.625339
0.633292
0.633756
0.630551
0.623568
0.607901
0.588063
0.564174
0.551764
0.547664
0.547955
0.550882
0.556441
0.564685
0.571745
0.573475
0.563545
0.552422
0.548775
0.550701
0.556305
0.565976
0.576702
0.584776
0.584216
0.556272
0.509227
0.49281
0.490255
0.493327
0.534512
0.534714
0.54826
0.576601
0.593039
0.597831
0.596655
0.590184
0.571839
0.562176
0.552756
0.549428
0.548693
0.549893
0.552893
0.557092
0.560558
0.555224
0.544965
0.540973
0.542479
0.547228
0.555127
0.563118
0.570357
0.570783
0.550996
0.505197
0.485879
0.485182
0.493256
0.512214
0.538421
0.539958
0.534596
0.53459
0.541993
0.555182
0.563297
0.564937
0.562621
0.558617
0.554629
0.551026
0.549176
0.548474
0.548727
0.549383
0.546348
0.539259
0.534879
0.53571
0.53941
0.54534
0.551256
0.557244
0.557896
0.544137
0.504831
0.482943
0.483112
0.492992
0.519215
0.551575
0.586555
0.609754
0.553011
0.541646
0.536392
0.534617
0.538516
0.542899
0.544538
0.545771
0.545144
0.543587
0.54214
0.54058
0.538687
0.53667
0.53383
0.531141
0.531283
0.533531
0.537574
0.541932
0.546536
0.547316
0.538288
0.508365
0.489939
0.48922
0.495604
0.518262
0.557767
0.583921
0.604708
0.626233
0.652324
0.566007
0.5579
0.547495
0.541833
0.538382
0.538518
0.539182
0.537942
0.537652
0.536156
0.534575
0.532902
0.5312
0.530115
0.530151
0.531075
0.533063
0.535472
0.538539
0.539304
0.533708
0.513077
0.496805
0.494864
0.499197
0.514763
0.551583
0.574415
0.591248
0.613144
0.64682
0.696901
0.75048
0.571376
0.567943
0.562475
0.555594
0.549743
0.545779
0.543074
0.541736
0.540028
0.538188
0.536415
0.534821
0.533446
0.532711
0.532794
0.533273
0.534171
0.534218
0.530193
0.51658
0.502235
0.498985
0.501631
0.509627
0.535525
0.559927
0.575542
0.593948
0.62584
0.683487
0.753397
0.785681
0.795981
0.568906
0.570293
0.568688
0.565789
0.561628
0.55716
0.553237
0.550178
0.54744
0.545022
0.542422
0.54001
0.537831
0.535986
0.534362
0.532788
0.528659
0.519077
0.508387
0.503039
0.50361
0.50776
0.52265
0.544781
0.558931
0.575567
0.599254
0.64783
0.726757
0.776999
0.794539
0.800653
0.791453
0.568533
0.565928
0.565179
0.567229
0.565938
0.563269
0.560024
0.557294
0.553995
0.550909
0.547747
0.544391
0.540168
0.535844
0.52942
0.522188
0.514465
0.509361
0.507372
0.509034
0.516616
0.533635
0.545034
0.558998
0.575552
0.608781
0.671064
0.747668
0.779752
0.793041
0.796883
0.781204
0.744753
0.57071
0.566509
0.563651
0.561557
0.561049
0.562523
0.561675
0.55964
0.556902
0.553206
0.548433
0.54285
0.535973
0.529098
0.522546
0.518193
0.514917
0.514196
0.516741
0.527937
0.535865
0.545987
0.556371
0.576001
0.610994
0.67417
0.742092
0.771497
0.784141
0.789884
0.781803
0.759937
0.729086
0.577464
0.570941
0.566341
0.562217
0.559861
0.557933
0.55696
0.555852
0.553147
0.549625
0.545068
0.540324
0.535203
0.530398
0.526051
0.52314
0.523329
0.52824
0.53285
0.538146
0.544228
0.554417
0.571622
0.602718
0.653088
0.714976
0.748174
0.763085
0.772308
0.774525
0.768859
0.755342
0.731098
0.592102
0.57709
0.571296
0.566595
0.562383
0.559957
0.557806
0.556282
0.554389
0.551481
0.548405
0.544916
0.541094
0.537395
0.535399
0.535674
0.536026
0.536563
0.538111
0.541749
0.548463
0.561134
0.583257
0.618987
0.666502
0.701883
0.718986
0.7294
0.738275
0.747507
0.755205
0.757144
0.74724
0.616341
0.589071
0.576869
0.571706
0.567144
0.56433
0.562367
0.560614
0.559908
0.557807
0.555822
0.553753
0.55223
0.55054
0.54706
0.54314
0.540579
0.539689
0.54025
0.543283
0.550407
0.564718
0.58971
0.623169
0.648935
0.66346
0.675237
0.689013
0.708946
0.728954
0.741023
0.750103
0.752643
0.628074
0.610119
0.585844
0.576768
0.572663
0.570146
0.5685
0.56723
0.56807
0.568134
0.568879
0.568147
0.564377
0.558999
0.553061
0.547707
0.54309
0.54017
0.539643
0.542023
0.551597
0.570312
0.596255
0.626163
0.64983
0.66573
0.680064
0.697989
0.719126
0.735208
0.746924
0.755539
0.758863
0.633136
0.625395
0.599826
0.582854
0.578338
0.576937
0.576262
0.577384
0.581277
0.58348
0.58175
0.577469
0.571755
0.565083
0.557393
0.548697
0.540038
0.535973
0.535698
0.543538
0.558148
0.581275
0.613092
0.649378
0.688045
0.729625
0.772194
0.799545
0.816805
0.828573
0.826559
0.806435
0.78678
0.636602
0.635246
0.615457
0.591171
0.584953
0.584261
0.585067
0.58979
0.594041
0.593127
0.589607
0.58444
0.577479
0.568
0.555333
0.542818
0.536214
0.53389
0.540356
0.553457
0.578777
0.623203
0.694013
0.761456
0.803351
0.834955
0.854967
0.868593
0.878859
0.883367
0.884321
0.884266
0.879508
0.642947
0.644494
0.630538
0.602117
0.591752
0.590897
0.592794
0.599702
0.601808
0.600062
0.595881
0.589007
0.578474
0.561895
0.548913
0.540945
0.537049
0.542096
0.555478
0.587744
0.656491
0.74065
0.774153
0.801039
0.813192
0.824669
0.828792
0.826772
0.835567
0.850317
0.878755
0.897868
0.91182
0.649043
0.651035
0.639604
0.612013
0.598465
0.597483
0.600174
0.606709
0.607797
0.605543
0.599368
0.588244
0.569303
0.556267
0.54808
0.54369
0.548102
0.563103
0.604428
0.690283
0.743683
0.775411
0.78229
0.78997
0.78041
0.751168
0.735761
0.740607
0.752171
0.772911
0.802563
0.845103
0.892763
0.652715
0.654238
0.642921
0.617055
0.604909
0.604507
0.607424
0.61206
0.61251
0.6083
0.597553
0.577851
0.563574
0.556052
0.551484
0.555868
0.571527
0.616033
0.705847
0.751895
0.766273
0.772103
0.768813
0.740789
0.70193
0.697358
0.703948
0.717287
0.737138
0.756345
0.770871
0.786956
0.816249
0.654738
0.656077
0.644594
0.619883
0.610092
0.610412
0.61315
0.615941
0.614981
0.606261
0.588484
0.570954
0.563627
0.559024
0.56276
0.579254
0.623653
0.710844
0.753187
0.764849
0.765808
0.755594
0.715865
0.679853
0.678052
0.685607
0.703858
0.725509
0.737643
0.746335
0.753471
0.764135
0.778593
0.653569
0.655158
0.644337
0.621878
0.614198
0.614987
0.617197
0.618765
0.614808
0.601548
0.580595
0.570359
0.566171
0.567706
0.582827
0.624251
0.708373
0.756356
0.766345
0.764917
0.751261
0.708109
0.670589
0.667644
0.674644
0.695321
0.712845
0.721966
0.723156
0.713415
0.709356
0.717064
0.729675
0.643161
0.646231
0.640035
0.623005
0.617547
0.618299
0.620036
0.619581
0.612733
0.595485
0.577987
0.5728
0.571949
0.582493
0.618258
0.692606
0.757168
0.772148
0.767939
0.754635
0.713245
0.670969
0.664032
0.668657
0.687594
0.700581
0.706514
0.700182
0.683062
0.67214
0.671513
0.672321
0.678725
0.628793
0.632255
0.630867
0.622334
0.620256
0.621336
0.622654
0.620823
0.611462
0.591599
0.580175
0.577593
0.581316
0.606426
0.664373
0.744886
0.775393
0.774495
0.762556
0.727656
0.678371
0.665313
0.666092
0.680776
0.69187
0.69604
0.688189
0.671458
0.663655
0.66445
0.663498
0.659911
0.660518
0.621024
0.624468
0.62539
0.622915
0.62322
0.624888
0.62558
0.622134
0.610518
0.591727
0.584702
0.583824
0.595638
0.634638
0.705402
0.766588
0.778705
0.770857
0.745856
0.693929
0.670238
0.667032
0.675605
0.686059
0.689054
0.682981
0.668603
0.663006
0.664558
0.663101
0.657601
0.655466
0.65691
0.621558
0.624507
0.625789
0.626037
0.626973
0.628812
0.629142
0.624874
0.61158
0.594844
0.590331
0.592293
0.610836
0.657163
0.730243
0.770801
0.772662
0.757274
0.715697
0.679737
0.670812
0.673516
0.68417
0.686506
0.683343
0.671763
0.666724
0.668284
0.667319
0.661407
0.657219
0.655448
0.655064
0.62551
0.627576
0.629542
0.630354
0.631676
0.633529
0.633391
0.628507
0.6147
0.599803
0.597066
0.600766
0.622513
0.672074
0.739415
0.762546
0.756784
0.732395
0.692771
0.678045
0.674444
0.684457
0.687855
0.686633
0.679106
0.674488
0.675701
0.677339
0.674728
0.669899
0.665395
0.661743
0.660475
0.636136
0.633887
0.635198
0.637096
0.639056
0.640564
0.639139
0.632909
0.618965
0.606447
0.60412
0.608426
0.630879
0.680027
0.732403
0.740642
0.731294
0.706037
0.685188
0.678177
0.684583
0.691828
0.690492
0.686766
0.681749
0.681426
0.683033
0.682752
0.680474
0.678763
0.677376
0.674568
0.671743
0.666693
0.651524
0.647025
0.647821
0.650103
0.651325
0.648153
0.639418
0.624859
0.614265
0.612341
0.616355
0.636365
0.679175
0.713027
0.714254
0.705352
0.689379
0.680685
0.683239
0.695329
0.695229
0.691683
0.685906
0.682798
0.682378
0.682379
0.681058
0.679848
0.679964
0.680316
0.680321
0.68136
0.701232
0.690747
0.675255
0.665734
0.661965
0.660328
0.657746
0.650112
0.634611
0.62329
0.620735
0.622865
0.637741
0.671357
0.692856
0.693066
0.686938
0.680085
0.681451
0.694284
0.699925
0.696598
0.691127
0.684524
0.681661
0.68019
0.677735
0.675066
0.67471
0.676108
0.677198
0.679108
0.68213
0.723908
0.724033
0.712551
0.695828
0.681679
0.672277
0.666288
0.65976
0.647399
0.633199
0.628619
0.628153
0.63615
0.655072
0.673455
0.677928
0.676549
0.678594
0.689228
0.701855
0.70092
0.69566
0.688267
0.680578
0.676399
0.67198
0.666159
0.662801
0.663523
0.665361
0.6678
0.672216
0.677058
0.73573
0.743304
0.74278
0.730214
0.711187
0.693038
0.679023
0.668308
0.657233
0.642856
0.635662
0.633301
0.63572
0.645164
0.658075
0.666315
0.672385
0.682688
0.698531
0.704387
0.700134
0.692989
0.682091
0.670798
0.662789
0.651699
0.641138
0.637814
0.638262
0.641053
0.646569
0.654027
0.662799
0.731943
0.750575
0.757724
0.75703
0.743898
0.723039
0.701506
0.682436
0.666356
0.650567
0.64155
0.638138
0.637247
0.642589
0.651583
0.661894
0.673731
0.689018
0.704035
0.703578
0.697422
0.686272
0.668797
0.649212
0.628655
0.600336
0.583604
0.578384
0.579006
0.584659
0.601375
0.615466
0.632076
0.691792
0.743095
0.76135
0.767792
0.767157
0.754171
0.73219
0.707507
0.683452
0.661303
0.64825
0.643083
0.640699
0.643337
0.651184
0.662093
0.676154
0.697658
0.70531
0.701068
0.691607
0.673307
0.64352
0.605247
0.558093
0.527333
0.515863
0.511329
0.511639
0.516577
0.531719
0.545908
0.568628
0.646021
0.692205
0.748337
0.768288
0.77405
0.773185
0.76071
0.738621
0.712101
0.68392
0.660879
0.651858
0.647568
0.647039
0.652975
0.664416
0.68285
0.702163
0.702923
0.69603
0.68123
0.649367
0.599118
0.542907
0.502778
0.485927
0.479612
0.478262
0.480947
0.493904
0.506084
0.521834
0.537882
0.637197
0.645256
0.685159
0.745903
0.770655
0.776624
0.774521
0.7631
0.74243
0.716227
0.688942
0.672186
0.664727
0.659928
0.661513
0.673214
0.693338
0.702779
0.698958
0.688786
0.663224
0.614133
0.548917
0.498871
0.472394
0.462302
0.459207
0.459461
0.469918
0.482858
0.497286
0.515831
0.532873
0.665699
0.641778
0.644603
0.673279
0.733267
0.767025
0.774533
0.771466
0.760983
0.743019
0.720065
0.7004
0.690327
0.684115
0.681407
0.686761
0.698239
0.700418
0.694152
0.678325
0.640442
0.573771
0.51247
0.471258
0.453985
0.447545
0.445988
0.451936
0.466701
0.48609
0.518622
0.550439
0.568724
0.71857
0.685618
0.648449
0.644585
0.66116
0.710027
0.754651
0.767078
0.764586
0.754276
0.739475
0.722702
0.710875
0.703095
0.697246
0.695946
0.699038
0.697279
0.687546
0.663273
0.607331
0.539953
0.486355
0.454533
0.442198
0.437855
0.43758
0.447314
0.463014
0.488834
0.533184
0.583661
0.629132
0.730336
0.729347
0.703114
0.657759
0.645615
0.651787
0.682815
0.729375
0.753041
0.753394
0.744146
0.731694
0.720685
0.712282
0.704923
0.699258
0.697595
0.69225
0.678083
0.639158
0.57723
0.516314
0.470288
0.444834
0.434764
0.430987
0.432785
0.442688
0.459035
0.490472
0.556912
0.620199
0.661638
0.733066
0.741365
0.737886
0.719899
0.669489
0.648259
0.645881
0.659114
0.694421
0.728291
0.736864
0.731523
0.722559
0.714287
0.706442
0.69944
0.694638
0.68575
0.661697
0.611357
0.553049
0.500098
0.460268
0.438432
0.429672
0.426485
0.429709
0.438187
0.454521
0.503646
0.590662
0.653795
0.693537
0.710843
0.734232
0.746153
0.746818
0.733056
0.686022
0.652258
0.642121
0.643089
0.660344
0.690169
0.710888
0.714156
0.710348
0.703952
0.696244
0.68746
0.671696
0.635605
0.586147
0.53455
0.489347
0.45522
0.43528
0.427369
0.425336
0.427885
0.435727
0.455521
0.533452
0.617582
0.673168
0.722611
0.667902
0.69105
0.733049
0.750081
0.753892
0.74278
0.704534
0.65836
0.640138
0.632454
0.63481
0.649673
0.670347
0.683941
0.686097
0.681159
0.668745
0.642514
0.605831
0.563093
0.519532
0.481524
0.452471
0.435188
0.428362
0.426777
0.428571
0.43647
0.466749
0.558664
0.629123
0.703231
0.798576
0.659928
0.66709
0.6798
0.72437
0.752303
0.756316
0.749517
0.720996
0.668697
0.638264
0.624687
0.616894
0.617992
0.625193
0.633699
0.635682
0.624544
0.604586
0.575354
0.541238
0.506392
0.475671
0.452194
0.437869
0.43163
0.430185
0.431711
0.440995
0.4914
0.568225
0.646263
0.78598
0.920774
0.670003
0.664291
0.666754
0.674742
0.709565
0.748153
0.756089
0.751902
0.732082
0.683454
0.637496
0.617376
0.603652
0.594622
0.590794
0.588588
0.581335
0.569077
0.548657
0.523298
0.49689
0.473083
0.454911
0.442644
0.436735
0.435532
0.43738
0.450692
0.51488
0.574743
0.689755
0.86786
0.991788
0.678532
0.67923
0.667156
0.666725
0.67234
0.696933
0.738926
0.753358
0.751152
0.736908
0.697275
0.640076
0.610155
0.592576
0.578112
0.566719
0.556689
0.545584
0.53052
0.512165
0.492448
0.474595
0.460283
0.44918
0.443827
0.443167
0.446137
0.468677
0.53048
0.590643
0.753639
0.938152
1.02693
0.678017
0.680863
0.672836
0.666822
0.665943
0.673015
0.689075
0.724773
0.74792
0.748725
0.738349
0.707971
0.650723
0.605581
0.582903
0.565993
0.550954
0.537413
0.523555
0.509021
0.494226
0.480107
0.467803
0.457931
0.453807
0.454233
0.459964
0.493278
0.540278
0.628881
0.817282
0.980422
1.04319
0.673331
0.675264
0.66852
0.663705
0.66264
0.665151
0.672021
0.684283
0.712879
0.742053
0.74576
0.73838
0.715069
0.66515
0.606675
0.576645
0.557265
0.541493
0.527028
0.513224
0.500189
0.488402
0.477648
0.469986
0.468608
0.470979
0.481432
0.518682
0.55906
0.673794
0.866796
1.00636
1.04758
0.665223
0.664586
0.659031
0.654868
0.654934
0.658186
0.663982
0.670365
0.680738
0.704337
0.737109
0.743799
0.738841
0.721006
0.681876
0.61938
0.576788
0.55334
0.537022
0.522899
0.511101
0.500241
0.491056
0.4874
0.488923
0.49345
0.509185
0.544596
0.58995
0.723455
0.90571
1.0246
1.02996
0.652144
0.64191
0.637666
0.634567
0.637276
0.64493
0.653556
0.66147
0.668614
0.678786
0.700268
0.734719
0.744296
0.741213
0.728413
0.697768
0.641887
0.586224
0.557883
0.540229
0.526823
0.516576
0.510451
0.5105
0.51407
0.521402
0.543756
0.575183
0.626211
0.767393
0.941034
1.01661
0.9927
0.627135
0.610506
0.609636
0.608212
0.612146
0.622921
0.634854
0.647768
0.659014
0.667611
0.679172
0.700491
0.735978
0.74796
0.746863
0.738698
0.716086
0.672198
0.614091
0.577485
0.556747
0.544562
0.540781
0.544597
0.550215
0.559921
0.584964
0.613525
0.665933
0.809802
0.967686
1.00169
0.968918
0.587952
0.575318
0.575259
0.575405
0.57953
0.591348
0.606111
0.625506
0.644638
0.659285
0.669858
0.683516
0.706176
0.742746
0.757384
0.757968
0.754111
0.739506
0.705902
0.657957
0.622385
0.599794
0.591906
0.594947
0.601678
0.611802
0.634747
0.660802
0.714976
0.855288
0.978894
1.001
0.971631
0.557911
0.552551
0.550999
0.548113
0.545585
0.554287
0.568632
0.590482
0.621282
0.646266
0.66366
0.677369
0.693073
0.717449
0.756858
0.774335
0.779154
0.779513
0.772988
0.75022
0.71264
0.682171
0.665221
0.663792
0.670208
0.678729
0.693754
0.715953
0.764531
0.893822
0.992302
1.01262
0.987591
0.547677
0.543371
0.540472
0.535158
0.528978
0.529245
0.538319
0.552884
0.580764
0.624059
0.6539
0.673893
0.690051
0.708862
0.736969
0.77968
0.801215
0.812747
0.817694
0.817396
0.803137
0.776179
0.752295
0.742451
0.746731
0.752221
0.761833
0.777472
0.814229
0.920785
1.00523
1.02963
1.00927
0.54625
0.542323
0.537122
0.527418
0.519859
0.518071
0.522982
0.533659
0.550482
0.585454
0.636056
0.668375
0.690956
0.710165
0.732439
0.764623
0.81252
0.837635
0.855627
0.864742
0.866396
0.855596
0.83964
0.828209
0.829044
0.831492
0.837512
0.844931
0.865382
0.937902
1.0103
1.03626
1.01972
0.562316
0.558213
0.540378
0.523391
0.513517
0.511434
0.515644
0.524438
0.538472
0.563575
0.61195
0.656137
0.687638
0.712451
0.735596
0.762008
0.797527
0.850363
0.878756
0.89874
0.909449
0.908031
0.900311
0.894275
0.894292
0.8945
0.896106
0.897717
0.90687
0.950029
0.999305
1.01374
0.994292
0.600759
0.572919
0.539
0.520871
0.510156
0.508835
0.513501
0.522376
0.537208
0.565167
0.612932
0.656071
0.689362
0.714964
0.739255
0.765263
0.794387
0.832777
0.884067
0.914356
0.932198
0.941216
0.94005
0.938879
0.939619
0.939672
0.939755
0.937533
0.938801
0.95733
0.977887
0.975352
0.952183
0.630322
0.573854
0.535841
0.520864
0.514625
0.515804
0.523302
0.534117
0.5547
0.585528
0.623911
0.662331
0.694238
0.720239
0.743897
0.766507
0.793174
0.823274
0.865158
0.909898
0.937687
0.953736
0.961757
0.966965
0.969631
0.970556
0.968836
0.964907
0.959518
0.959504
0.957122
0.944748
0.923086
0.64227
0.572257
0.54082
0.533288
0.534504
0.541849
0.564486
0.585281
0.60331
0.622795
0.648597
0.676323
0.701716
0.725644
0.747849
0.76932
0.792304
0.819689
0.851333
0.893863
0.931414
0.954943
0.968787
0.977876
0.98391
0.985869
0.985008
0.980546
0.971826
0.962597
0.949214
0.93381
0.912205
0.652336
0.589685
0.569742
0.565532
0.568316
0.583748
0.606223
0.620436
0.634623
0.648742
0.667372
0.688006
0.708863
0.730055
0.749625
0.769468
0.79016
0.812778
0.839359
0.870862
0.910276
0.942035
0.965937
0.98055
0.989718
0.993579
0.992849
0.987899
0.978313
0.965328
0.948611
0.932458
0.912916
0.689244
0.650852
0.614577
0.600554
0.599553
0.60519
0.61818
0.630508
0.644884
0.659768
0.675595
0.693422
0.712515
0.731414
0.750226
0.769439
0.789296
0.81039
0.834999
0.862187
0.89491
0.927553
0.952467
0.969619
0.978624
0.982026
0.979689
0.975587
0.969456
0.958702
0.952028
0.958672
0.963861
0.70833
0.689676
0.668858
0.643789
0.62624
0.621892
0.625856
0.634354
0.645946
0.661793
0.678227
0.694027
0.712044
0.729665
0.748
0.766726
0.785721
0.805061
0.825026
0.846269
0.870081
0.89432
0.917709
0.933576
0.948817
0.959432
0.968975
0.987649
0.985786
0.966963
0.93097
0.887361
0.834761
0.715999
0.704733
0.695652
0.687496
0.676996
0.663191
0.6533
0.645248
0.647333
0.657406
0.669927
0.687367
0.704129
0.722026
0.740817
0.759472
0.778564
0.797291
0.817625
0.838947
0.861699
0.889242
0.919524
0.959064
0.974176
0.969856
0.93153
0.879076
0.825625
0.788087
0.756872
0.728825
0.701183
0.695192
0.696086
0.69718
0.698733
0.699559
0.700653
0.702936
0.702742
0.700586
0.691677
0.69018
0.697319
0.71254
0.728384
0.745194
0.764547
0.786506
0.81275
0.843449
0.869581
0.894775
0.899076
0.877748
0.844365
0.788953
0.768932
0.762492
0.766856
0.776942
0.78011
0.777347
0.768175
0.747662
0.623672
0.624889
0.629822
0.64077
0.656021
0.674395
0.695397
0.716705
0.73834
0.758009
0.775825
0.786198
0.786492
0.793914
0.806697
0.818589
0.828849
0.830351
0.820355
0.79279
0.727388
0.709472
0.701014
0.71747
0.75702
0.807188
0.855919
0.891427
0.899699
0.889113
0.862289
0.822091
0.78257
0.589235
0.589922
0.589567
0.586072
0.583732
0.584697
0.587629
0.593382
0.601261
0.610325
0.621819
0.635568
0.65131
0.66364
0.671223
0.67567
0.674445
0.668689
0.658631
0.661459
0.680594
0.725948
0.789389
0.861239
0.910425
0.935829
0.942994
0.940216
0.922025
0.899163
0.860341
0.806427
0.757163
0.586507
0.59114
0.593905
0.592075
0.5902
0.589748
0.589339
0.58956
0.59055
0.591604
0.594144
0.598517
0.60357
0.610471
0.621904
0.635724
0.651044
0.672383
0.706969
0.759939
0.813251
0.858708
0.897626
0.924623
0.940595
0.946601
0.94223
0.932278
0.908118
0.885043
0.844649
0.769518
0.702964
0.58619
0.602069
0.624237
0.644467
0.655963
0.663395
0.669792
0.6733
0.674302
0.674675
0.673581
0.671912
0.669382
0.672623
0.68369
0.697889
0.720257
0.755415
0.797262
0.833055
0.867068
0.894257
0.912306
0.92462
0.92998
0.929122
0.9207
0.912042
0.900547
0.87418
0.827667
0.741926
0.655872
0.582226
0.601006
0.633563
0.664749
0.679125
0.686972
0.692445
0.692415
0.689572
0.687381
0.684111
0.680302
0.682171
0.69139
0.703663
0.722138
0.750062
0.786409
0.823474
0.851376
0.871566
0.886595
0.897748
0.905256
0.907218
0.905245
0.901678
0.893045
0.879983
0.859029
0.814038
0.722876
0.632974
0.573383
0.586951
0.618286
0.660608
0.681385
0.690678
0.696543
0.695506
0.690422
0.685484
0.679839
0.675896
0.680671
0.689602
0.702711
0.72283
0.74968
0.778719
0.809048
0.83286
0.849525
0.862276
0.871344
0.877411
0.878934
0.876555
0.86935
0.858593
0.847366
0.830705
0.802891
0.730085
0.624674
0.561308
0.569264
0.587428
0.628021
0.668882
0.685544
0.693203
0.691785
0.68049
0.666794
0.656544
0.657895
0.664509
0.674863
0.689998
0.706256
0.729314
0.753006
0.778943
0.802234
0.819683
0.832722
0.841323
0.845749
0.845643
0.842108
0.834505
0.823984
0.811088
0.800249
0.787994
0.751112
0.64428
0.543349
0.553557
0.561336
0.577178
0.615496
0.657616
0.673746
0.677586
0.664464
0.647529
0.632638
0.630478
0.635097
0.644485
0.660373
0.672859
0.690279
0.708832
0.728521
0.751385
0.773557
0.791783
0.804641
0.811224
0.8121
0.808677
0.800836
0.790389
0.779728
0.769555
0.766708
0.756531
0.678943
0.539699
0.53984
0.544996
0.551421
0.561868
0.584263
0.623143
0.643176
0.645279
0.636243
0.621119
0.61035
0.609501
0.612782
0.617749
0.626549
0.63809
0.653359
0.669248
0.688671
0.711414
0.733342
0.751782
0.764911
0.771996
0.772909
0.76877
0.760534
0.750216
0.744073
0.745428
0.742045
0.709478
0.568075
0.546521
0.539793
0.540531
0.544382
0.550428
0.559812
0.578361
0.596337
0.603858
0.606419
0.599364
0.594696
0.592221
0.590337
0.590397
0.592484
0.600086
0.61296
0.629063
0.648301
0.670187
0.691649
0.711011
0.725217
0.733325
0.732727
0.728126
0.72004
0.716916
0.72484
0.731006
0.720591
0.611266
0.5922
0.565239
0.547977
0.542058
0.54232
0.545014
0.549061
0.555194
0.562398
0.568272
0.57288
0.5758
0.576813
0.576699
0.574749
0.572045
0.571723
0.573821
0.580227
0.59114
0.607853
0.631109
0.655879
0.677784
0.694637
0.703121
0.703343
0.697228
0.69497
0.70396
0.720378
0.717648
0.621494
0.617619
0.609527
0.590833
0.567398
0.552383
0.545957
0.544794
0.546103
0.548196
0.550347
0.551917
0.55345
0.555916
0.558546
0.560194
0.560525
0.559343
0.55809
0.557544
0.559166
0.564516
0.577207
0.600119
0.626854
0.651319
0.669838
0.678155
0.678715
0.67746
0.688503
0.712055
0.708878
0.625753
0.621617
0.620349
0.617941
0.610419
0.592197
0.571367
0.557674
0.550372
0.547198
0.546198
0.546048
0.545933
0.545746
0.545376
0.544797
0.545175
0.546285
0.547128
0.547451
0.548179
0.550607
0.555761
0.565807
0.583057
0.609159
0.63543
0.653854
0.65959
0.665014
0.677349
0.708982
0.696281
0.647165
0.628861
0.622259
0.621656
0.622581
0.621209
0.612207
0.593416
0.575419
0.562101
0.553337
0.548077
0.544936
0.542923
0.541568
0.540742
0.540459
0.541092
0.542434
0.543733
0.545295
0.548025
0.551952
0.557939
0.568153
0.583564
0.605718
0.630184
0.645381
0.654572
0.673414
0.70884
0.685662
0.728861
0.745758
0.754269
0.751387
0.728596
0.680067
0.646193
0.634464
0.718068
0.732846
0.739099
0.732264
0.702595
0.660073
0.636842
0.629908
0.708021
0.719109
0.721727
0.707464
0.67638
0.643596
0.630399
0.626262
0.701876
0.707757
0.70126
0.680147
0.654314
0.631964
0.625869
0.623698
0.693741
0.691244
0.676737
0.656589
0.636504
0.625163
0.622934
0.623158
0.678341
0.667954
0.652069
0.636997
0.624745
0.622217
0.622146
0.625937
0.654058
0.642626
0.631791
0.623877
0.620693
0.621424
0.624635
0.638082
0.630821
0.624637
0.621028
0.619562
0.620789
0.624609
0.637695
0.671202
0.618917
0.618056
0.61824
0.621154
0.627651
0.644421
0.680666
0.710387
0.615531
0.618268
0.624852
0.636631
0.663454
0.699137
0.725512
0.7422
0.624556
0.637302
0.660537
0.693264
0.721687
0.740904
0.752958
0.755572
0.665027
0.693318
0.719426
0.738589
0.751146
0.757247
0.755832
0.746427
0.71278
0.730501
0.743822
0.752214
0.754537