/*--------------------------------*- C++ -*----------------------------------*\
  =========                 |
  \\      /  F ield         | OpenFOAM: The Open Source CFD Toolbox
   \\    /   O peration     | Website:  https://openfoam.org
    \\  /    A nd           | Version:  10
     \\/     M anipulation  |
\*---------------------------------------------------------------------------*/
FoamFile
{
    format      ascii;
    class       volScalarField;
    location    "0.251614";
    object      p;
}
// * * * * * * * * * * * * * * * * * * * * * * * * * * * * * * * * * * * * * //

dimensions      [1 -1 -2 0 0 0 0];

internalField   nonuniform List<scalar> 
15708
(
2.57126
2.58329
2.59259
2.59888
2.60215
2.60254
2.60054
2.59608
2.58963
2.58159
2.57245
2.56257
2.55224
2.54174
2.53126
2.52096
2.51097
2.50138
2.49225
2.48364
2.47563
2.46828
2.46166
2.45588
2.45104
2.44726
2.44468
2.44339
2.44349
2.4449
2.44775
2.45178
2.4568
2.46255
2.46875
2.4751
2.48129
2.48706
2.49222
2.49663
2.50028
2.5032
2.50549
2.50732
2.50884
2.51025
2.51172
2.51347
2.51562
2.51824
2.52137
2.55455
2.56661
2.57658
2.5841
2.589
2.59129
2.59117
2.58899
2.58473
2.57881
2.57163
2.56354
2.55482
2.54569
2.53633
2.5269
2.51748
2.50817
2.49901
2.49008
2.48144
2.47317
2.46536
2.45813
2.45163
2.44601
2.44145
2.43809
2.4361
2.43555
2.43642
2.43874
2.44244
2.44726
2.45297
2.4593
2.46596
2.47267
2.4792
2.48537
2.49108
2.49632
2.5011
2.50554
2.50972
2.51378
2.51783
2.52199
2.52631
2.53082
2.53549
2.53761
2.5494
2.55977
2.56827
2.57463
2.57875
2.58064
2.58049
2.57854
2.57484
2.56973
2.56352
2.55647
2.54879
2.54061
2.53206
2.52325
2.51423
2.50506
2.49582
2.48658
2.47744
2.46851
2.45992
2.45186
2.44451
2.43807
2.43275
2.42875
2.42622
2.42528
2.42589
2.4281
2.43186
2.43694
2.4431
2.45009
2.45762
2.46544
2.47334
2.48115
2.48878
2.49619
2.50338
2.5104
2.51727
2.52404
2.53073
2.53731
2.54375
2.54995
2.52072
2.53196
2.54244
2.55167
2.55929
2.56507
2.56893
2.57089
2.57103
2.56965
2.56668
2.56242
2.55711
2.55091
2.54394
2.53632
2.52812
2.51941
2.51026
2.50075
2.49096
2.48102
2.47105
2.46122
2.45173
2.44279
2.43463
2.42749
2.4216
2.4172
2.41444
2.41347
2.41421
2.41673
2.42102
2.42688
2.43403
2.44223
2.45122
2.46077
2.47064
2.48069
2.49079
2.50085
2.51081
2.52061
2.53019
2.53948
2.54836
2.55673
2.56442
2.5041
2.51455
2.52487
2.53456
2.5432
2.55046
2.55615
2.56016
2.56248
2.56318
2.5624
2.56016
2.55663
2.55194
2.54621
2.53952
2.53196
2.52359
2.51449
2.50476
2.4945
2.48385
2.47296
2.46203
2.45126
2.4409
2.43119
2.4224
2.4148
2.40866
2.4042
2.40161
2.40102
2.40228
2.40562
2.41099
2.41816
2.42686
2.43687
2.44793
2.45979
2.47222
2.48501
2.49796
2.51091
2.52369
2.53613
2.54803
2.5592
2.56946
2.5786
2.48792
2.4974
2.50731
2.51719
2.52659
2.53512
2.54247
2.54841
2.55282
2.55565
2.5569
2.55662
2.55494
2.55179
2.5473
2.54157
2.53466
2.52667
2.51768
2.50779
2.49715
2.48591
2.47424
2.46236
2.45049
2.43889
2.42782
2.41758
2.40846
2.40075
2.39472
2.39062
2.38865
2.38885
2.39112
2.39584
2.40283
2.41187
2.42273
2.43515
2.44885
2.46356
2.47897
2.49479
2.51072
2.52646
2.54172
2.55619
2.56959
2.58167
2.59219
2.47234
2.48069
2.48999
2.49982
2.50972
2.51926
2.52805
2.53575
2.54212
2.547
2.55028
2.55191
2.55187
2.55035
2.54712
2.54237
2.53616
2.52859
2.51977
2.50982
2.4989
2.48719
2.4749
2.46224
2.44946
2.43682
2.4246
2.41312
2.40267
2.39358
2.38615
2.38067
2.37739
2.3765
2.37785
2.38181
2.38844
2.39762
2.40914
2.42274
2.43812
2.45495
2.47285
2.49143
2.51024
2.52885
2.54684
2.56378
2.57931
2.5931
2.60491
2.45742
2.46455
2.47308
2.48263
2.49278
2.50308
2.51307
2.52233
2.53049
2.53728
2.54249
2.54597
2.54763
2.54746
2.54561
2.54186
2.53639
2.52929
2.52072
2.51082
2.49975
2.48773
2.47497
2.46171
2.44821
2.43474
2.42159
2.40908
2.39752
2.38725
2.3786
2.37189
2.36741
2.36545
2.366
2.36914
2.37529
2.38445
2.39645
2.41104
2.42789
2.44665
2.46687
2.48802
2.50955
2.53087
2.55141
2.57066
2.58817
2.60355
2.61654
2.44331
2.44911
2.45672
2.46579
2.47598
2.48679
2.49773
2.5083
2.51805
2.52659
2.53359
2.53882
2.54211
2.54337
2.54265
2.53998
2.53529
2.52878
2.52053
2.51079
2.49971
2.48754
2.47449
2.46082
2.44679
2.4327
2.41883
2.40551
2.39305
2.38181
2.37213
2.36437
2.35884
2.35587
2.35568
2.35803
2.36369
2.37268
2.38499
2.40036
2.41847
2.43894
2.46124
2.48474
2.50875
2.53253
2.5554
2.57675
2.59604
2.61285
2.62692
2.42997
2.43447
2.44104
2.44947
2.45947
2.47055
2.48219
2.49383
2.50493
2.51501
2.52363
2.53048
2.53531
2.53797
2.53836
2.53676
2.53287
2.52702
2.51923
2.50976
2.49883
2.48665
2.47349
2.4596
2.44525
2.43074
2.41636
2.40243
2.3893
2.3773
2.3668
2.35815
2.35172
2.34787
2.34693
2.34868
2.35377
2.36254
2.37499
2.39097
2.41014
2.43208
2.4562
2.48176
2.50794
2.53389
2.55881
2.58199
2.60285
2.62093
2.63596
2.41752
2.42071
2.42614
2.4338
2.4434
2.45453
2.46661
2.47907
2.49127
2.50266
2.51272
2.52104
2.52729
2.53127
2.53284
2.53213
2.52921
2.52401
2.51682
2.50777
2.49713
2.48512
2.47201
2.45808
2.44361
2.42889
2.4142
2.39989
2.38628
2.37373
2.36258
2.35323
2.34606
2.34147
2.33984
2.34108
2.34569
2.35416
2.36668
2.38311
2.40314
2.42631
2.45195
2.47925
2.50726
2.53504
2.56168
2.58641
2.60858
2.62775
2.64364
2.40591
2.40777
2.4121
2.41885
2.4279
2.43886
2.45116
2.46416
2.47722
2.48968
2.50096
2.51057
2.51811
2.52333
2.52606
2.52625
2.52427
2.51987
2.51332
2.50483
2.49464
2.48297
2.4701
2.45633
2.44192
2.42717
2.41239
2.39788
2.384
2.37107
2.35947
2.34959
2.34184
2.33665
2.33444
2.33526
2.33942
2.3476
2.36014
2.37691
2.39763
2.42179
2.44867
2.47736
2.50684
2.53608
2.56409
2.59004
2.61328
2.63335
2.64997
2.39494
2.39578
2.39892
2.40467
2.41303
2.42364
2.43593
2.44925
2.4629
2.47619
2.48848
2.49919
2.50788
2.51423
2.51805
2.51926
2.51811
2.51457
2.50879
2.50098
2.49138
2.48021
2.46777
2.45433
2.44017
2.42559
2.41089
2.39638
2.3824
2.36928
2.35741
2.34717
2.339
2.33334
2.33067
2.33117
2.33495
2.34288
2.35539
2.37244
2.3937
2.41863
2.44646
2.47622
2.50681
2.53712
2.56614
2.593
2.61705
2.63782
2.65508
2.3847
2.38456
2.38655
2.39131
2.39883
2.40893
2.42103
2.43444
2.44845
2.46233
2.47539
2.48702
2.4967
2.50408
2.50892
2.51114
2.5108
2.50825
2.50329
2.49627
2.48738
2.47688
2.46502
2.45209
2.43835
2.42412
2.40968
2.39535
2.38144
2.36831
2.35633
2.34589
2.33744
2.33146
2.32844
2.32869
2.33217
2.3399
2.35237
2.36965
2.39131
2.41684
2.44538
2.47588
2.50721
2.53826
2.56795
2.59542
2.62002
2.64132
2.6591
2.37521
2.37398
2.37502
2.37869
2.38529
2.39474
2.40648
2.41978
2.43393
2.44818
2.46183
2.47419
2.4847
2.49298
2.49877
2.50196
2.50256
2.5009
2.49684
2.49074
2.48269
2.473
2.46187
2.44959
2.43645
2.42273
2.40873
2.39474
2.38108
2.36809
2.35615
2.34565
2.33706
2.33087
2.3276
2.32769
2.33089
2.33847
2.35094
2.36838
2.39037
2.41632
2.44534
2.47631
2.50811
2.53956
2.56961
2.59741
2.62234
2.64402
2.66221
2.36646
2.36406
2.36421
2.36674
2.37236
2.38103
2.39226
2.4053
2.41943
2.4339
2.44791
2.46081
2.472
2.48107
2.48773
2.49184
2.49339
2.49261
2.48958
2.48443
2.47736
2.46859
2.45833
2.44685
2.43446
2.42141
2.408
2.39451
2.38125
2.36855
2.35678
2.34635
2.33773
2.33142
2.32798
2.32791
2.33093
2.33836
2.35081
2.36839
2.39062
2.41687
2.44617
2.47744
2.50944
2.54103
2.57119
2.59911
2.6242
2.64611
2.66465
2.35839
2.3548
2.35387
2.3554
2.35991
2.3677
2.3783
2.39095
2.4049
2.41941
2.43367
2.44697
2.45872
2.46847
2.47591
2.48091
2.4834
2.48353
2.48156
2.47741
2.47142
2.46367
2.4544
2.44387
2.43236
2.42014
2.40746
2.39461
2.38188
2.36959
2.35812
2.34786
2.33929
2.33293
2.32935
2.32907
2.33194
2.33924
2.35161
2.36931
2.39172
2.41816
2.44767
2.47902
2.51108
2.54264
2.57274
2.60063
2.62576
2.64782
2.66664
2.35091
2.34607
2.34389
2.34446
2.34781
2.35454
2.36444
2.3766
2.3903
2.40475
2.41914
2.43275
2.44496
2.45529
2.46346
2.46928
2.47271
2.47379
2.47283
2.46979
2.46492
2.45828
2.45011
2.44064
2.43015
2.41887
2.40705
2.39497
2.3829
2.37114
2.36006
2.35005
2.34158
2.33518
2.33144
2.33099
2.3336
2.34067
2.35291
2.37066
2.39317
2.41976
2.44936
2.4808
2.51281
2.54428
2.57426
2.60205
2.62716
2.64931
2.66838
2.34395
2.33773
2.33418
2.33357
2.33578
2.34135
2.35041
2.36204
2.37545
2.38982
2.40431
2.41817
2.43078
2.44166
2.45049
2.45711
2.46145
2.46353
2.46353
2.46168
2.45793
2.45248
2.44549
2.43718
2.42779
2.41757
2.40674
2.39553
2.38422
2.37309
2.36248
2.35275
2.34441
2.33792
2.33397
2.33313
2.33544
2.34216
2.35417
2.37179
2.39436
2.42108
2.45081
2.48232
2.51436
2.54577
2.57566
2.60338
2.6285
2.65076
2.67007
2.33737
2.32958
2.32447
2.32245
2.32349
2.32772
2.33586
2.34696
2.36012
2.37445
2.38907
2.40321
2.41622
2.42764
2.43714
2.44453
2.44976
2.45285
2.45387
2.45311
2.45056
2.44634
2.44059
2.43349
2.4253
2.41622
2.40646
2.39623
2.38576
2.37532
2.36528
2.3558
2.34758
2.34085
2.33659
2.3352
2.33697
2.34306
2.35454
2.37187
2.39447
2.42135
2.45133
2.48308
2.5153
2.54684
2.57681
2.60461
2.62983
2.65227
2.67188
2.331
2.32137
2.31443
2.31067
2.31035
2.31321
2.32027
2.33087
2.3439
2.35833
2.37321
2.38774
2.40126
2.41329
2.4235
2.4317
2.43782
2.44189
2.44398
2.44427
2.44292
2.43994
2.43545
2.42962
2.42267
2.41479
2.40617
2.39699
2.38746
2.37777
2.36817
2.35898
2.35067
2.34371
2.3388
2.33658
2.33761
2.34258
2.35326
2.36995
2.39266
2.41974
2.45013
2.48241
2.51513
2.54713
2.5775
2.60562
2.63115
2.65391
2.67388
2.32464
2.31281
2.30364
2.29775
2.29561
2.29724
2.30291
2.31311
2.3262
2.34099
2.3564
2.37158
2.38583
2.39863
2.40966
2.41873
2.42578
2.43084
2.43399
2.43536
2.43512
2.43338
2.43017
2.4256
2.41991
2.41327
2.40582
2.39774
2.38918
2.38017
2.37096
2.36192
2.3534
2.34589
2.34006
2.33665
2.33645
2.34
2.349
2.36498
2.38745
2.41498
2.4462
2.47949
2.51326
2.54621
2.5774
2.60624
2.63235
2.65563
2.67609
2.31804
2.3035
2.29156
2.283
2.27855
2.27866
2.28301
2.29273
2.30621
2.32178
2.33816
2.3544
2.36974
2.38362
2.39567
2.40574
2.41378
2.41986
2.42405
2.4265
2.42736
2.42674
2.42479
2.42149
2.41704
2.41162
2.40537
2.39836
2.39066
2.38229
2.37352
2.36445
2.35554
2.34707
2.33984
2.33459
2.3323
2.33387
2.34105
2.35514
2.37758
2.40572
2.43832
2.47334
2.50886
2.54349
2.57618
2.60622
2.63331
2.65735
2.67844
2.31108
2.29319
2.27773
2.26571
2.25821
2.25605
2.25934
2.26872
2.28301
2.29994
2.3179
2.33581
2.35277
2.36815
2.38156
2.39283
2.40198
2.4091
2.41433
2.41783
2.41975
2.42021
2.4194
2.41732
2.41407
2.40984
2.40475
2.39873
2.39182
2.38407
2.3756
2.36644
2.35685
2.34703
2.33806
2.33018
2.32401
2.32305
2.32712
2.33834
2.36079
2.39028
2.42521
2.46278
2.50085
2.53811
2.57319
2.60517
2.63371
2.65883
2.68072
2.30407
2.28235
2.26281
2.24595
2.23429
2.22863
2.23046
2.23966
2.25543
2.27451
2.29491
2.31531
2.33465
2.35213
2.36732
2.38006
2.39046
2.3987
2.40497
2.40947
2.41238
2.41387
2.41407
2.41313
2.41103
2.40793
2.40387
2.39875
2.39258
2.38539
2.37722
2.36791
2.3578
2.34629
2.33526
2.32548
2.31366
2.30869
2.3088
2.31648
2.338
2.3651
2.40611
2.44826
2.48967
2.53015
2.56825
2.6028
2.63325
2.65974
2.68259
2.29819
2.2716
2.24782
2.22462
2.20754
2.19673
2.19566
2.20619
2.22305
2.24531
2.26886
2.29254
2.3151
2.33543
2.35293
2.36748
2.37932
2.38874
2.39605
2.40151
2.40535
2.40778
2.40894
2.40894
2.40792
2.40583
2.40267
2.39835
2.39289
2.38627
2.37866
2.36946
2.35919
2.34701
2.33219
2.31758
2.30276
2.29148
2.2878
2.29668
2.30292
2.33952
2.38257
2.4282
2.47392
2.51876
2.56084
2.59861
2.63147
2.65956
2.68352
2.29032
2.25891
2.22951
2.20468
2.18204
2.16044
2.15432
2.16892
2.18511
2.21183
2.23969
2.26769
2.29433
2.31818
2.33845
2.35515
2.3686
2.37928
2.38761
2.39398
2.39868
2.40195
2.40397
2.40486
2.40471
2.40352
2.40111
2.39751
2.39286
2.38696
2.38015
2.37172
2.36021
2.34667
2.3305
2.31227
2.29159
2.27119
2.25635
2.25252
2.26439
2.29948
2.3453
2.40346
2.45497
2.50491
2.55152
2.59272
2.62804
2.65789
2.68298
2.28693
2.2539
2.21936
2.18583
2.1551
2.12878
2.11486
2.11832
2.13593
2.17532
2.20944
2.2421
2.27325
2.30091
2.32419
2.34316
2.35833
2.37029
2.37965
2.38688
2.39236
2.39639
2.39917
2.40083
2.40144
2.40093
2.39922
2.39641
2.39275
2.38775
2.37997
2.37559
2.36303
2.34715
2.32724
2.30333
2.27671
2.24993
2.22673
2.2148
2.22307
2.25698
2.31205
2.37626
2.43627
2.49099
2.54117
2.58526
2.62273
2.65414
2.6804
2.28257
2.24449
2.20511
2.16626
2.13021
2.09901
2.07754
2.0773
2.09815
2.13311
2.17783
2.21715
2.2528
2.2843
2.31057
2.33177
2.34857
2.36176
2.37207
2.3801
2.3863
2.39101
2.39448
2.39684
2.39813
2.39808
2.39683
2.39493
2.39227
2.38811
2.38291
2.37607
2.36248
2.34355
2.31957
2.29103
2.25913
2.22641
2.19651
2.17819
2.18316
2.22147
2.28363
2.35091
2.41713
2.47685
2.5302
2.57638
2.61541
2.64802
2.67519
2.27631
2.23493
2.19246
2.14996
2.11026
2.07455
2.04847
2.04324
2.0665
2.10404
2.1525
2.19611
2.23543
2.26981
2.2983
2.32123
2.33939
2.35363
2.36478
2.37353
2.38039
2.38573
2.38979
2.39278
2.39529
2.39597
2.39418
2.39103
2.39204
2.39282
2.38443
2.37283
2.35715
2.33607
2.30886
2.27621
2.23978
2.20255
2.17058
2.14833
2.15281
2.19596
2.26229
2.33607
2.40231
2.46412
2.51896
2.56613
2.60597
2.6393
2.66717
2.27062
2.22589
2.18116
2.13628
2.09494
2.05857
2.03078
2.02389
2.04728
2.08695
2.13539
2.18124
2.22258
2.2582
2.2878
2.31176
2.33082
2.34583
2.35765
2.36701
2.37449
2.38042
2.38499
2.38799
2.38887
2.38953
2.39706
2.39682
2.38624
2.38367
2.37926
2.3678
2.35036
2.32667
2.29666
2.26125
2.2227
2.18517
2.15468
2.13507
2.1428
2.18811
2.25339
2.32482
2.39316
2.4537
2.50776
2.55458
2.5944
2.62796
2.65624
2.2652
2.21979
2.1735
2.12826
2.08737
2.05257
2.02335
2.01917
2.04632
2.08452
2.12985
2.17419
2.21461
2.24979
2.27929
2.30343
2.32285
2.33829
2.35054
2.36038
2.36845
2.37501
2.38045
2.38432
2.3905
2.39071
2.38222
2.38503
2.38414
2.3807
2.37373
2.36123
2.34248
2.31705
2.28548
2.2498
2.21343
2.18001
2.15117
2.13891
2.15188
2.19536
2.25727
2.3232
2.38601
2.44396
2.49602
2.54163
2.58076
2.61405
2.64236
2.26195
2.21665
2.1704
2.12625
2.08727
2.05387
2.03165
2.0308
2.05404
2.09064
2.13224
2.17327
2.21102
2.24436
2.27279
2.29637
2.31543
2.33088
2.34331
2.35344
2.3621
2.36914
2.37667
2.3801
2.37818
2.38163
2.38013
2.37951
2.37848
2.37488
2.36726
2.3542
2.33482
2.30895
2.27802
2.2448
2.21302
2.18485
2.16106
2.15505
2.17127
2.21021
2.2646
2.32295
2.38053
2.43454
2.48375
2.52729
2.56515
2.59769
2.62518
2.26073
2.21658
2.1721
2.13096
2.09634
2.06545
2.04956
2.05035
2.07025
2.10238
2.13887
2.17556
2.21023
2.24117
2.26794
2.2904
2.30881
2.3238
2.33607
2.34593
2.35567
2.36143
2.36717
2.37051
2.37121
2.37274
2.37346
2.3733
2.37199
2.36824
2.36061
2.3477
2.32867
2.3039
2.27519
2.24608
2.2208
2.19479
2.17803
2.17654
2.19262
2.2263
2.27361
2.32413
2.37547
2.42517
2.47052
2.51128
2.5469
2.57793
2.60339
2.26194
2.22
2.17792
2.13982
2.10886
2.08326
2.07102
2.07283
2.08959
2.11666
2.14805
2.18031
2.2112
2.23938
2.26412
2.28515
2.30264
2.31693
2.3284
2.33773
2.34678
2.35376
2.3575
2.36054
2.36265
2.36423
2.36545
2.36612
2.36517
2.36168
2.35458
2.34262
2.32505
2.30244
2.27697
2.25256
2.23161
2.2079
2.19881
2.19955
2.21429
2.24361
2.28104
2.32613
2.37165
2.4159
2.45721
2.49403
2.52631
2.55633
2.57857
2.26616
2.22776
2.18935
2.1547
2.12672
2.10376
2.09277
2.09505
2.10925
2.13187
2.15836
2.18622
2.21331
2.23841
2.26086
2.28022
2.29639
2.30986
2.32006
2.331
2.33652
2.34197
2.34681
2.35051
2.35336
2.3558
2.35779
2.35906
2.35877
2.35596
2.34989
2.3396
2.32423
2.30453
2.28294
2.26388
2.2482
2.22086
2.21904
2.22149
2.23448
2.25783
2.29025
2.32704
2.36614
2.40431
2.44031
2.47435
2.50355
2.5401
2.55289
2.27281
2.23851
2.20402
2.17314
2.15088
2.12421
2.11422
2.11567
2.12775
2.14663
2.16889
2.19253
2.21587
2.23771
2.25747
2.2748
2.28963
2.30484
2.31338
2.3203
2.32638
2.33213
2.33713
2.34141
2.3449
2.34819
2.35093
2.35304
2.35372
2.35217
2.34754
2.33938
2.32704
2.31096
2.29334
2.277
2.26557
2.24085
2.23574
2.24435
2.25415
2.27046
2.29733
2.32718
2.36002
2.39217
2.42562
2.46588
2.47187
2.50195
2.52204
2.28107
2.25123
2.22069
2.19168
2.16664
2.15084
2.14181
2.13505
2.14545
2.16018
2.17894
2.1986
2.21825
2.23675
2.25414
2.27068
2.28562
2.29584
2.30317
2.31113
2.31808
2.32412
2.32943
2.33405
2.33822
2.34217
2.34577
2.34889
2.35085
2.35107
2.34855
2.34275
2.33348
2.3209
2.30606
2.29096
2.27727
2.27187
2.25564
2.25919
2.27231
2.2829
2.30168
2.32474
2.35654
2.38882
2.41342
2.43729
2.46239
2.47151
2.49249
2.29017
2.26494
2.23838
2.21179
2.18731
2.16891
2.15721
2.16069
2.16387
2.17128
2.18667
2.20343
2.21968
2.23666
2.2549
2.27023
2.27891
2.28794
2.29734
2.30488
2.31221
2.31839
2.32401
2.32912
2.33394
2.33868
2.34322
2.34749
2.35104
2.35309
2.3532
2.3505
2.34463
2.33564
2.32387
2.30998
2.29598
2.28892
2.28518
2.27514
2.28897
2.29852
2.31441
2.33557
2.35181
2.37505
2.39265
2.41488
2.43471
2.44816
2.46377
2.29889
2.27785
2.25569
2.23292
2.21055
2.19102
2.17896
2.17799
2.18256
2.1839
2.19642
2.21191
2.22795
2.24368
2.2531
2.26514
2.27498
2.28454
2.29402
2.30168
2.30897
2.31543
2.32145
2.32719
2.3328
2.33842
2.34402
2.34951
2.35459
2.35885
2.3615
2.36193
2.35965
2.3543
2.3457
2.33409
2.32116
2.31134
2.2987
2.29614
2.29933
2.30515
2.3163
2.33111
2.34577
2.36441
2.37842
2.39694
2.41378
2.42624
2.43814
2.30648
2.28878
2.27032
2.2511
2.2317
2.2135
2.19983
2.19384
2.19496
2.19691
2.2046
2.21653
2.22898
2.24329
2.25258
2.26373
2.27482
2.28414
2.29336
2.3013
2.30868
2.31563
2.32218
2.32863
2.33508
2.34171
2.34855
2.35555
2.36239
2.36868
2.37385
2.37701
2.37766
2.37556
2.37005
2.36099
2.34948
2.33609
2.32655
2.31797
2.31518
2.31584
2.32119
2.33352
2.343
2.3571
2.37192
2.38557
2.39851
2.40843
2.41696
2.312
2.29713
2.28134
2.26461
2.24793
2.23222
2.21931
2.2122
2.20816
2.20933
2.21498
2.22339
2.23336
2.24439
2.25548
2.26617
2.2767
2.28616
2.29521
2.3036
2.31145
2.31899
2.32628
2.33371
2.34137
2.3493
2.35762
2.36621
2.3748
2.38301
2.39037
2.39619
2.39928
2.39965
2.39669
2.3898
2.37944
2.36705
2.35345
2.34181
2.33457
2.33188
2.33272
2.33835
2.34732
2.35763
2.36953
2.38017
2.38955
2.39634
2.40168
2.31573
2.3024
2.2883
2.27357
2.25901
2.24489
2.2329
2.22485
2.22065
2.22075
2.22458
2.23099
2.23967
2.24959
2.25979
2.27049
2.28078
2.29068
2.3001
2.30906
2.31765
2.32609
2.33452
2.34316
2.35207
2.36139
2.37116
2.38128
2.39155
2.40158
2.4109
2.41887
2.42427
2.42637
2.42543
2.42014
2.41069
2.39754
2.38269
2.36833
2.35719
2.35055
2.34869
2.34979
2.35498
2.3634
2.37263
2.38113
2.38774
2.39168
2.39333
2.3173
2.30496
2.29203
2.27864
2.26523
2.25227
2.24095
2.23314
2.22961
2.22932
2.23246
2.23832
2.24644
2.25589
2.26618
2.27686
2.28753
2.29795
2.30814
2.31804
2.32772
2.33728
2.34687
2.35672
2.36685
2.3775
2.38865
2.40022
2.41202
2.42367
2.43467
2.44438
2.45169
2.45521
2.45564
2.45163
2.44256
2.42939
2.41348
2.39707
2.38274
2.37279
2.36764
2.36633
2.36859
2.37428
2.38135
2.38801
2.39253
2.39419
2.39306
2.31682
2.30503
2.29274
2.28011
2.26746
2.25545
2.24502
2.23829
2.23561
2.23563
2.23906
2.24522
2.25354
2.26338
2.27416
2.28543
2.29695
2.30842
2.31969
2.33069
2.34147
2.35215
2.36287
2.37387
2.38515
2.39697
2.40933
2.42213
2.4352
2.44814
2.46046
2.4715
2.48026
2.48508
2.48645
2.48315
2.47482
2.46179
2.44536
2.4276
2.41092
2.39766
2.38898
2.38576
2.38592
2.38974
2.3962
2.40224
2.40489
2.4046
2.4003
2.31432
2.30275
2.29078
2.27862
2.26674
2.25577
2.24668
2.24146
2.2398
2.24099
2.24541
2.25246
2.2617
2.2725
2.28435
2.29681
2.30949
2.32213
2.33455
2.34669
2.35858
2.37032
2.38206
2.39401
2.40623
2.41895
2.43219
2.44586
2.45979
2.47359
2.48679
2.49871
2.50843
2.51429
2.51627
2.51387
2.50633
2.49376
2.47732
2.45887
2.44049
2.42415
2.41254
2.40572
2.40398
2.40641
2.41328
2.42102
2.42441
2.42387
2.41691
2.30997
2.2984
2.28664
2.27504
2.2641
2.25446
2.24712
2.24384
2.24356
2.24649
2.25249
2.26113
2.27184
2.2841
2.29736
2.31118
2.32518
2.33906
2.35266
2.36588
2.37874
2.39135
2.40385
2.41645
2.42924
2.44246
2.45612
2.47019
2.48447
2.49863
2.51217
2.52446
2.53464
2.54118
2.54362
2.54205
2.53544
2.52379
2.50795
2.48941
2.46997
2.45139
2.43548
2.42443
2.42024
2.42057
2.4279
2.43991
2.44774
2.44955
2.44221
2.30396
2.29243
2.28105
2.27024
2.26048
2.25252
2.24772
2.24633
2.24814
2.25325
2.26132
2.2719
2.28446
2.29845
2.31335
2.32868
2.34405
2.35917
2.37383
2.38794
2.40153
2.41469
2.42757
2.44042
2.45333
2.46654
2.48012
2.49403
2.50812
2.52206
2.53539
2.54751
2.55767
2.56453
2.56728
2.56645
2.56088
2.55042
2.53559
2.51742
2.49728
2.47663
2.45695
2.44003
2.43016
2.42744
2.43373
2.45126
2.47093
2.47941
2.47558
2.29672
2.28543
2.27471
2.26501
2.25679
2.25123
2.2491
2.24995
2.25435
2.26196
2.27242
2.28525
2.2999
2.31581
2.33244
2.34931
2.366
2.38219
2.3977
2.41242
2.42637
2.43968
2.45252
2.46514
2.47768
2.49039
2.50337
2.5166
2.52994
2.54313
2.55573
2.56718
2.57689
2.58375
2.58672
2.58655
2.58201
2.5729
2.55934
2.54182
2.52116
2.49844
2.47479
2.4516
2.43264
2.42504
2.42775
2.44935
2.48744
2.51381
2.51886
2.28876
2.27802
2.26829
2.26012
2.25406
2.25139
2.2516
2.25541
2.26265
2.27301
2.28608
2.30133
2.31821
2.3361
2.35446
2.37277
2.3906
2.40764
2.42369
2.43866
2.4526
2.46564
2.478
2.48994
2.50167
2.51342
2.52533
2.53741
2.54957
2.56157
2.57303
2.58346
2.59234
2.59902
2.60215
2.60242
2.59891
2.59112
2.5788
2.56184
2.54042
2.51505
2.48651
2.4556
2.42491
2.404
2.39744
2.41312
2.46529
2.53624
2.56732
2.28061
2.27078
2.26243
2.25619
2.25303
2.25279
2.25607
2.26293
2.27316
2.28641
2.3022
2.31995
2.33905
2.35888
2.37884
2.39842
2.41716
2.43475
2.451
2.46587
2.47941
2.49181
2.50331
2.5142
2.52477
2.53521
2.54572
2.55634
2.567
2.57753
2.58761
2.59686
2.6048
2.61098
2.6144
2.61506
2.61254
2.60602
2.59482
2.57827
2.55583
2.52709
2.49207
2.45145
2.40462
2.36123
2.34129
2.34547
2.42097
2.56446
2.65868
2.52498
2.52899
2.53327
2.53768
2.54206
2.54627
2.55018
2.55368
2.55667
2.5591
2.56091
2.56212
2.56271
2.56275
2.56236
2.56151
2.5603
2.55883
2.55715
2.55536
2.55353
2.55176
2.55011
2.54866
2.54745
2.54653
2.54024
2.54496
2.54951
2.55376
2.55758
2.56086
2.56354
2.56556
2.56691
2.56756
2.56753
2.56695
2.56581
2.56429
2.56247
2.56043
2.55827
2.55608
2.55396
2.55199
2.55024
2.54879
2.54769
2.54701
2.54676
2.54692
2.55579
2.56116
2.5659
2.56991
2.5731
2.57542
2.57686
2.57743
2.57718
2.57613
2.57432
2.572
2.56926
2.56627
2.56314
2.56001
2.55698
2.55417
2.55168
2.5496
2.54799
2.54694
2.54648
2.54661
2.54732
2.54862
2.57131
2.57725
2.58213
2.58585
2.58838
2.58973
2.58997
2.58923
2.5874
2.58468
2.58126
2.57736
2.57315
2.5688
2.56449
2.56037
2.55657
2.55321
2.55043
2.5483
2.54691
2.54632
2.54649
2.54744
2.54917
2.55162
2.58647
2.59293
2.59789
2.6013
2.60317
2.60361
2.60283
2.60074
2.59747
2.59326
2.58839
2.58307
2.57754
2.57197
2.5666
2.5616
2.55712
2.55331
2.55029
2.54818
2.54705
2.54694
2.54771
2.54957
2.55228
2.55587
2.60097
2.6079
2.61291
2.61602
2.6173
2.61698
2.6152
2.61191
2.60736
2.60187
2.59572
2.58916
2.58245
2.57584
2.56954
2.56377
2.55871
2.55451
2.55133
2.54928
2.54846
2.54877
2.55023
2.5529
2.5566
2.56124
2.61453
2.6219
2.62698
2.62984
2.6306
2.62967
2.627
2.6227
2.61708
2.6105
2.60326
2.59565
2.58795
2.58043
2.57335
2.56692
2.56137
2.55686
2.55356
2.5516
2.55111
2.55182
2.55393
2.55737
2.562
2.56759
2.62696
2.63474
2.63992
2.64261
2.64298
2.64157
2.63821
2.63308
2.62661
2.61915
2.61103
2.60256
2.59404
2.58577
2.57803
2.57106
2.56509
2.56033
2.55696
2.55512
2.55492
2.55599
2.55873
2.56289
2.56835
2.57477
2.63808
2.64628
2.65162
2.65425
2.65437
2.65264
2.64877
2.64306
2.63596
2.62784
2.61903
2.60989
2.60073
2.59186
2.58358
2.57616
2.56985
2.56489
2.56146
2.55973
2.55979
2.56125
2.56448
2.56931
2.57549
2.58262
2.64781
2.65646
2.66201
2.6647
2.6648
2.66284
2.65868
2.65265
2.64512
2.63657
2.62726
2.61765
2.60799
2.59867
2.58996
2.58217
2.57558
2.57043
2.56696
2.56533
2.56555
2.5674
2.57107
2.57647
2.58324
2.59096
2.65613
2.66525
2.67111
2.67398
2.67417
2.67226
2.668
2.66183
2.65412
2.64531
2.63575
2.62582
2.61584
2.60616
2.59711
2.58901
2.58217
2.57685
2.5733
2.57177
2.5721
2.5742
2.57829
2.58417
2.59143
2.59963
2.66307
2.67269
2.67895
2.68213
2.6826
2.68085
2.67676
2.67067
2.66298
2.65413
2.64448
2.63439
2.6242
2.61427
2.60494
2.59657
2.58947
2.58396
2.58033
2.57878
2.57916
2.58151
2.5859
2.59219
2.59986
2.60842
2.66874
2.67888
2.68563
2.68927
2.69013
2.68872
2.68503
2.67921
2.67173
2.66301
2.65343
2.64331
2.63302
2.6229
2.61333
2.60469
2.59732
2.59159
2.58777
2.58615
2.58656
2.58902
2.59369
2.60028
2.6083
2.61714
2.67329
2.68396
2.69129
2.69549
2.69691
2.69599
2.69282
2.68749
2.68039
2.67198
2.66259
2.65254
2.6422
2.63194
2.62215
2.61321
2.60552
2.59947
2.59542
2.5936
2.59397
2.59641
2.60131
2.60819
2.61651
2.62561
2.6769
2.68813
2.69608
2.70094
2.70304
2.70272
2.70027
2.69556
2.68901
2.68102
2.6719
2.662
2.65167
2.64127
2.63125
2.62193
2.61379
2.6073
2.60285
2.60076
2.60097
2.6034
2.60839
2.61559
2.62423
2.63362
2.67979
2.69159
2.7002
2.70581
2.70868
2.7091
2.70741
2.7035
2.6976
2.6901
2.68132
2.6716
2.66129
2.65063
2.64047
2.63058
2.62183
2.61473
2.60973
2.60718
2.60717
2.60949
2.61459
2.62213
2.63118
2.64093
2.68219
2.69456
2.70385
2.71026
2.71397
2.71523
2.71434
2.71135
2.70616
2.69917
2.69078
2.68126
2.67093
2.66012
2.64931
2.63884
2.6293
2.62136
2.61556
2.61236
2.61197
2.6141
2.61941
2.62739
2.637
2.64733
2.68434
2.69726
2.70726
2.71447
2.71906
2.72124
2.72118
2.71907
2.71462
2.70821
2.70019
2.69084
2.68039
2.66923
2.65771
2.64643
2.63568
2.62661
2.6197
2.61561
2.61468
2.61667
2.62216
2.63087
2.64132
2.65251
2.68644
2.69992
2.7106
2.71862
2.7241
2.72719
2.728
2.72666
2.723
2.71712
2.70944
2.70015
2.68947
2.6777
2.66526
2.65266
2.64054
2.62981
2.62137
2.61605
2.61437
2.61623
2.62222
2.63191
2.64364
2.65616
2.68866
2.70268
2.71404
2.72284
2.72917
2.73316
2.73481
2.73414
2.73121
2.7258
2.71837
2.70898
2.69787
2.68524
2.67145
2.65711
2.64294
2.63004
2.6195
2.61248
2.60988
2.61186
2.61853
2.62981
2.64338
2.65785
2.6911
2.70567
2.71768
2.72721
2.73435
2.73916
2.74156
2.74146
2.73912
2.73409
2.72673
2.71708
2.70533
2.69147
2.67585
2.65922
2.64226
2.62626
2.6127
2.6033
2.59968
2.60201
2.61014
2.62366
2.63995
2.65716
2.69381
2.70893
2.72154
2.73175
2.73963
2.74515
2.74816
2.74857
2.74659
2.74179
2.73431
2.72419
2.71154
2.69624
2.6783
2.65918
2.63853
2.61843
2.60054
2.58726
2.58177
2.58532
2.59516
2.61224
2.63242
2.65358
2.69672
2.71239
2.72556
2.73638
2.74489
2.751
2.75449
2.75527
2.75344
2.74865
2.7409
2.73035
2.71678
2.69982
2.67956
2.65692
2.63282
2.60624
2.58298
2.56425
2.55767
2.56142
2.57407
2.59548
2.62052
2.64683
2.69964
2.71585
2.72955
2.74087
2.74992
2.7565
2.76032
2.76127
2.75939
2.75448
2.74647
2.73568
2.72143
2.70194
2.67775
2.64943
2.62078
2.59439
2.56632
2.537
2.52312
2.53256
2.54666
2.573
2.60465
2.63711
2.70221
2.71897
2.73314
2.74491
2.75436
2.7613
2.7653
2.76625
2.76428
2.75935
2.75124
2.73921
2.72273
2.70135
2.67984
2.65171
2.61844
2.58294
2.54724
2.51544
2.49389
2.49584
2.50945
2.54044
2.58595
2.62591
2.70392
2.72124
2.73585
2.74799
2.75772
2.76493
2.76899
2.76999
2.76819
2.76339
2.75372
2.74077
2.72677
2.70508
2.67755
2.64384
2.60468
2.56333
2.52245
2.48605
2.45956
2.45527
2.47435
2.51473
2.56787
2.61548
2.70414
2.72202
2.73706
2.74955
2.75961
2.76677
2.77092
2.7723
2.77068
2.76443
2.75793
2.74489
2.7258
2.70031
2.66841
2.63085
2.58859
2.54368
2.49937
2.46014
2.43112
2.42611
2.45024
2.49941
2.55381
2.60831
2.70235
2.72075
2.73613
2.74882
2.75891
2.76628
2.77064
2.77166
2.7687
2.765
2.75603
2.7406
2.719
2.69087
2.6562
2.61558
2.57053
2.52312
2.47862
2.44033
2.41235
2.40959
2.43959
2.49222
2.5499
2.6064
2.69789
2.71686
2.73257
2.74526
2.75505
2.76264
2.76626
2.76906
2.76642
2.75979
2.74856
2.73168
2.70842
2.67832
2.64166
2.59952
2.55401
2.50871
2.46796
2.43197
2.4103
2.41213
2.44458
2.49698
2.55507
2.61083
2.69055
2.71013
2.72628
2.73906
2.74805
2.7534
2.76056
2.76065
2.75685
2.74929
2.73698
2.71904
2.69473
2.66382
2.62686
2.58545
2.54242
2.50335
2.46676
2.43755
2.42279
2.43085
2.46202
2.51101
2.56562
2.6186
2.68021
2.70053
2.71735
2.72994
2.73717
2.7461
2.74636
2.74574
2.74197
2.73408
2.7214
2.70317
2.67891
2.64856
2.61303
2.57452
2.53688
2.50408
2.47291
2.44871
2.44202
2.45415
2.48448
2.52864
2.57823
2.62728
2.66687
2.68808
2.70511
2.7164
2.72193
2.72543
2.72706
2.72645
2.72259
2.7148
2.70242
2.68483
2.66163
2.63301
2.60009
2.56525
2.53209
2.50282
2.48097
2.46494
2.46308
2.47678
2.50587
2.5459
2.5904
2.63506
2.64881
2.66999
2.68645
2.69515
2.69983
2.70276
2.70405
2.70315
2.69934
2.692
2.68056
2.6646
2.6439
2.61868
2.59004
2.56007
2.53217
2.50984
2.49125
2.47932
2.47981
2.4959
2.52361
2.56012
2.60023
2.64034
2.62657
2.64566
2.6592
2.66722
2.67243
2.67562
2.67671
2.6759
2.67252
2.66605
2.65613
2.64253
2.62516
2.60423
2.58053
2.55593
2.5331
2.51095
2.50256
2.49694
2.49191
2.51053
2.53665
2.56997
2.60617
2.64241
2.60176
2.61735
2.62775
2.63616
2.6417
2.64487
2.64594
2.64538
2.64269
2.63747
2.62955
2.61883
2.60528
2.58909
2.57098
2.55175
2.53243
2.51544
2.50243
2.50282
2.50904
2.52458
2.54546
2.57489
2.60839
2.64088
2.56796
2.58464
2.59463
2.60269
2.60807
2.61129
2.6125
2.61239
2.61065
2.60703
2.60141
2.59376
2.58411
2.57258
2.5595
2.54536
2.53067
2.51677
2.50879
2.50448
2.51359
2.53015
2.54225
2.5711
2.60191
2.63117
2.53703
2.55108
2.56044
2.56767
2.57258
2.57584
2.57744
2.57785
2.57729
2.57548
2.57227
2.56762
2.56158
2.55418
2.54536
2.53504
2.52332
2.51252
2.50708
2.50689
2.51302
2.52172
2.54099
2.56531
2.59212
2.61912
2.50542
2.51724
2.52568
2.53208
2.53655
2.53973
2.54172
2.5428
2.54338
2.54343
2.54263
2.54072
2.53788
2.53384
2.5283
2.52106
2.51194
2.50271
2.49772
2.49666
2.5015
2.51178
2.52907
2.55138
2.57637
2.60253
2.47496
2.48457
2.49166
2.49703
2.50105
2.50404
2.50633
2.50809
2.50965
2.51133
2.51261
2.51295
2.51259
2.51116
2.50799
2.50278
2.49543
2.48735
2.4825
2.48158
2.48566
2.49602
2.51235
2.53388
2.55852
2.58488
2.4471
2.45444
2.45985
2.46391
2.46718
2.46978
2.47217
2.47447
2.47655
2.47928
2.48222
2.48406
2.48539
2.48545
2.48355
2.47921
2.47233
2.46446
2.46001
2.45921
2.4632
2.47368
2.4904
2.51227
2.53815
2.5658
2.42333
2.42812
2.43152
2.43394
2.43601
2.43793
2.44002
2.44243
2.44478
2.44787
2.45128
2.45401
2.45599
2.45655
2.45487
2.45038
2.44316
2.43529
2.43052
2.42971
2.43424
2.44551
2.46353
2.48754
2.51576
2.54587
2.40507
2.40692
2.40782
2.4082
2.40862
2.40941
2.41061
2.41246
2.4148
2.41759
2.42044
2.42278
2.42431
2.42447
2.42199
2.41635
2.40792
2.3998
2.39485
2.39407
2.39942
2.41193
2.43235
2.45946
2.49122
2.52515
2.39339
2.39193
2.38978
2.38752
2.38582
2.38491
2.38466
2.38535
2.38677
2.38857
2.39021
2.39088
2.39104
2.38944
2.3853
2.37778
2.36757
2.35865
2.35349
2.35284
2.35885
2.3733
2.39666
2.42767