/*--------------------------------*- C++ -*----------------------------------*\
  =========                 |
  \\      /  F ield         | OpenFOAM: The Open Source CFD Toolbox
   \\    /   O peration     | Website:  https://openfoam.org
    \\  /    A nd           | Version:  10
     \\/     M anipulation  |
\*---------------------------------------------------------------------------*/
FoamFile
{
    format      ascii;
    class       volScalarField;
    location    "0.251614";
    object      rho;
}
// * * * * * * * * * * * * * * * * * * * * * * * * * * * * * * * * * * * * * //

dimensions      [1 -3 0 0 0 0 0];

internalField   nonuniform List<scalar> 
15708
(
1.02005
1.02341
1.02598
1.02775
1.02866
1.02883
1.02827
1.02704
1.02523
1.02297
1.02037
1.01761
1.01472
1.01168
1.00877
1.00585
1.00298
1.00029
0.997622
0.995224
0.992884
0.990768
0.988885
0.987222
0.985835
0.984737
0.984003
0.983626
0.983624
0.98404
0.984848
0.986043
0.987449
0.989068
0.990857
0.992641
0.994424
0.996028
0.997505
0.998763
0.999811
1.00065
1.00132
1.00185
1.00227
1.00272
1.00313
1.00362
1.00427
1.00498
1.00591
1.01542
1.01878
1.02153
1.02364
1.02501
1.0257
1.02569
1.02506
1.02387
1.02217
1.02018
1.01786
1.01544
1.01289
1.01017
1.00756
1.00484
1.00223
0.999578
0.997058
0.994558
0.992217
0.989962
0.98788
0.986029
0.984406
0.983101
0.982132
0.981557
0.981375
0.981626
0.982246
0.983397
0.984734
0.986355
0.988156
0.990026
0.991961
0.993795
0.995578
0.997181
0.998673
1.00009
1.00128
1.00259
1.00363
1.00493
1.00601
1.00731
1.00859
1.00989
1.01065
1.01394
1.01678
1.01918
1.02094
1.02216
1.0227
1.02268
1.02213
1.02107
1.01964
1.01787
1.01591
1.01375
1.0114
1.00902
1.00652
1.00395
1.00133
0.998717
0.996064
0.993453
0.990898
0.988438
0.986126
0.984017
0.982155
0.980636
0.979474
0.978748
0.978454
0.978628
0.979265
0.980299
0.981812
0.983518
0.985522
0.987691
0.989868
0.992134
0.994408
0.996499
0.998686
1.00071
1.00274
1.00468
1.0066
1.00856
1.01037
1.01226
1.01397
1.00586
1.00901
1.01191
1.01447
1.01661
1.01827
1.01938
1.01994
1.02
1.01961
1.01876
1.01756
1.01607
1.0143
1.01239
1.01022
1.00789
1.00544
1.00283
1.00013
0.997339
0.994501
0.991655
0.98884
0.986117
0.983547
0.981197
0.979127
0.977453
0.976165
0.975362
0.975069
0.975262
0.97596
0.977243
0.978879
0.980911
0.983288
0.985763
0.988604
0.991285
0.994303
0.997075
0.999993
1.00279
1.00568
1.00829
1.01115
1.01338
1.01602
1.01796
1.00118
1.00406
1.00692
1.00964
1.0121
1.01415
1.01577
1.01689
1.01754
1.01776
1.01753
1.01689
1.01595
1.01461
1.01297
1.01114
1.00898
1.00663
1.00404
1.00129
0.99835
0.99533
0.992205
0.98909
0.986011
0.98302
0.980227
0.977685
0.975505
0.973713
0.972422
0.97167
0.971457
0.971802
0.972767
0.974319
0.976329
0.978889
0.981633
0.984873
0.988297
0.991654
0.99556
0.999074
1.00279
1.00656
1.00998
1.01336
1.01664
1.0194
1.02218
0.996469
0.999175
1.00193
1.00478
1.00732
1.0098
1.01186
1.01353
1.0148
1.01559
1.01597
1.01589
1.01543
1.01454
1.01333
1.01167
1.00976
1.00749
1.00497
1.00214
0.999144
0.995913
0.992587
0.989209
0.98579
0.982455
0.979284
0.976305
0.973678
0.971451
0.969677
0.968468
0.967888
0.967917
0.968571
0.969945
0.971874
0.974591
0.977548
0.981178
0.985056
0.98937
0.993633
0.998183
1.00282
1.00713
1.01158
1.01572
1.01941
1.02295
1.02585
0.992022
0.994456
0.997075
0.999751
1.00257
1.00529
1.00773
1.00994
1.01172
1.01313
1.01405
1.01452
1.01456
1.01412
1.01326
1.01192
1.0101
1.0081
1.00549
1.00279
0.999582
0.996323
0.992777
0.989178
0.985462
0.981952
0.978289
0.975047
0.97201
0.969367
0.96722
0.965579
0.964675
0.964288
0.964754
0.965772
0.967742
0.970439
0.973654
0.977592
0.981998
0.986718
0.991948
0.997237
1.00254
1.00784
1.013
1.01771
1.02223
1.02611
1.02939
0.987816
0.98974
0.992231
0.99489
0.997801
1.0006
1.00354
1.00607
1.00846
1.01029
1.01184
1.0128
1.0133
1.01331
1.01277
1.01169
1.01026
1.00815
1.00589
1.00298
0.999929
0.996402
0.992869
0.98902
0.985114
0.981349
0.977413
0.973904
0.970481
0.967555
0.964997
0.963052
0.961737
0.961128
0.96127
0.962135
0.96392
0.966522
0.970056
0.9742
0.978911
0.984471
0.990126
0.996209
1.00223
1.00849
1.01417
1.01969
1.02471
1.02889
1.03285
0.983659
0.985412
0.987463
0.990136
0.992941
0.995991
0.999138
1.0021
1.00487
1.00725
1.00933
1.01069
1.0117
1.0121
1.01189
1.01121
1.00985
1.00809
1.00571
1.00305
0.999863
0.996321
0.992746
0.988734
0.984802
0.980676
0.976694
0.972794
0.969295
0.965864
0.963208
0.960824
0.95922
0.958395
0.958185
0.958951
0.960448
0.963233
0.966596
0.971034
0.976351
0.98214
0.988421
0.995238
1.00206
1.00884
1.01529
1.02141
1.02676
1.03167
1.03551
0.979878
0.981161
0.983034
0.985427
0.988231
0.991338
0.994654
0.997938
1.0011
1.00397
1.00635
1.00842
1.00966
1.01061
1.01064
1.01022
1.00925
1.00747
1.00541
1.0027
0.999543
0.996239
0.992299
0.988467
0.984281
0.980176
0.975921
0.971947
0.968136
0.96465
0.961592
0.958976
0.957261
0.955908
0.955775
0.956108
0.957655
0.960163
0.963741
0.968361
0.973816
0.980214
0.986929
0.99438
1.00184
1.00907
1.01632
1.02273
1.02873
1.03381
1.03809
0.976318
0.977146
0.978733
0.980939
0.983559
0.986862
0.990042
0.993814
0.997152
1.00041
1.00325
1.00565
1.00743
1.00857
1.00907
1.00894
1.00808
1.00673
1.00465
1.00212
0.999005
0.995802
0.991856
0.988117
0.983749
0.979629
0.975357
0.971238
0.967185
0.963739
0.960178
0.95781
0.955393
0.954209
0.953598
0.953951
0.955308
0.957672
0.961376
0.965933
0.97196
0.978465
0.985642
0.99374
1.00147
1.00945
1.01695
1.02405
1.03019
1.03575
1.04022
0.972926
0.973427
0.974708
0.976592
0.979197
0.98217
0.985717
0.989462
0.993108
0.996656
0.999882
1.0026
1.00481
1.00624
1.0072
1.00713
1.00674
1.00549
1.00363
1.00121
0.99842
0.995084
0.991423
0.987421
0.983361
0.979178
0.974794
0.970625
0.966664
0.962789
0.959573
0.956453
0.954397
0.952713
0.952102
0.952265
0.953381
0.955881
0.959334
0.964284
0.970141
0.977138
0.98461
0.993138
1.0013
1.00967
1.01761
1.02497
1.03159
1.03726
1.04186
0.969738
0.969974
0.970875
0.972464
0.974896
0.977859
0.981259
0.985185
0.988922
0.992794
0.996277
0.999344
1.00181
1.0037
1.00476
1.00523
1.00486
1.00395
1.0024
1.00012
0.997425
0.994328
0.990699
0.986966
0.982812
0.978723
0.974384
0.970277
0.966097
0.962421
0.958821
0.955911
0.953494
0.951819
0.950991
0.951084
0.952104
0.954382
0.958017
0.96284
0.968973
0.976207
0.98403
0.992601
1.00132
1.00984
1.01818
1.02576
1.03259
1.03846
1.04343
0.966843
0.966664
0.967274
0.968601
0.97075
0.973636
0.976906
0.980896
0.984759
0.988772
0.992454
0.995863
0.998509
1.00084
1.00204
1.00293
1.00278
1.00216
1.00069
0.99888
0.996244
0.993358
0.989893
0.986343
0.98235
0.978219
0.974186
0.969846
0.965998
0.962024
0.958644
0.955498
0.953111
0.951244
0.950372
0.950363
0.951275
0.953482
0.95724
0.961808
0.968565
0.97538
0.98374
0.992501
1.00115
1.01028
1.01854
1.02646
1.03331
1.03954
1.0444
0.96406
0.963639
0.963936
0.964963
0.966787
0.969477
0.972742
0.97654
0.980603
0.984538
0.988608
0.992042
0.995152
0.997443
0.999324
1.00013
1.00048
1
0.99894
0.99717
0.99497
0.992139
0.989182
0.985483
0.981848
0.977953
0.973703
0.969927
0.965697
0.96216
0.958479
0.955578
0.952895
0.951148
0.950107
0.950059
0.950898
0.953187
0.956508
0.96174
0.967996
0.975062
0.983945
0.992321
1.00151
1.01054
1.01898
1.02698
1.03396
1.04015
1.04539
0.961544
0.960775
0.960766
0.961492
0.963058
0.965334
0.968777
0.972152
0.976337
0.980462
0.984457
0.988168
0.991406
0.994082
0.996015
0.997284
0.997791
0.997581
0.996877
0.995394
0.993369
0.991018
0.988025
0.984814
0.981335
0.977433
0.973743
0.969603
0.966047
0.962168
0.958786
0.955778
0.953087
0.9514
0.95021
0.950138
0.951021
0.952882
0.956678
0.961548
0.967852
0.975551
0.983703
0.992792
1.00176
1.01082
1.01931
1.02738
1.03443
1.04077
1.04594
0.959252
0.958132
0.957787
0.958137
0.959511
0.961329
0.964749
0.967949
0.972021
0.976175
0.980305
0.98408
0.987614
0.990404
0.992602
0.99412
0.994875
0.995043
0.994482
0.993383
0.991715
0.989522
0.986892
0.98411
0.98057
0.977275
0.973465
0.969854
0.966102
0.962568
0.95922
0.95621
0.953673
0.951778
0.950691
0.950495
0.951158
0.953314
0.956713
0.961627
0.968446
0.975455
0.984318
0.992733
1.00228
1.011
1.0197
1.02761
1.03482
1.04113
1.0465
0.957093
0.955654
0.954855
0.955024
0.955788
0.9579
0.960226
0.963823
0.967625
0.971895
0.975981
0.980006
0.983456
0.986529
0.989061
0.990661
0.991818
0.99219
0.991939
0.991219
0.989855
0.987955
0.985799
0.983013
0.980074
0.976928
0.973336
0.969967
0.966491
0.962979
0.959868
0.956919
0.954296
0.952638
0.951141
0.951097
0.951686
0.953452
0.957285
0.962015
0.968306
0.976043
0.984205
0.993488
1.00217
1.01146
1.01994
1.02795
1.03506
1.04148
1.04702
0.95515
0.953179
0.952184
0.951849
0.95227
0.953836
0.956199
0.959392
0.963273
0.967241
0.971604
0.975606
0.979242
0.982579
0.985133
0.987197
0.988508
0.989214
0.989328
0.988817
0.98788
0.986294
0.984473
0.982165
0.97935
0.976532
0.973367
0.970118
0.96702
0.963487
0.96081
0.9575
0.955423
0.953182
0.952264
0.951576
0.952018
0.953972
0.957104
0.962314
0.968147
0.976209
0.984472
0.993461
1.00263
1.01156
1.02015
1.02802
1.03538
1.04181
1.04732
0.953217
0.950993
0.949291
0.948516
0.948597
0.949865
0.951831
0.954762
0.958638
0.962736
0.96713
0.971116
0.975027
0.978376
0.981196
0.983507
0.985104
0.986148
0.986544
0.986372
0.985698
0.984586
0.983132
0.981102
0.978702
0.976188
0.973349
0.97022
0.967844
0.963701
0.96222
0.958108
0.956486
0.953641
0.952806
0.952182
0.952611
0.953931
0.956902
0.962162
0.968057
0.975699
0.984358
0.993149
1.00247
1.01153
1.02023
1.02829
1.0355
1.04215
1.04784
0.951579
0.948491
0.946445
0.94509
0.944722
0.945683
0.94688
0.950064
0.953528
0.957784
0.962004
0.966442
0.970458
0.974064
0.977243
0.979693
0.981657
0.982939
0.98361
0.983826
0.983573
0.982802
0.98166
0.979981
0.978007
0.975788
0.973305
0.970703
0.967931
0.965182
0.962144
0.959733
0.957032
0.954845
0.95333
0.952368
0.952286
0.953887
0.955282
0.962102
0.966405
0.974701
0.983475
0.992653
1.00208
1.01131
1.01999
1.02835
1.03585
1.04251
1.04839
0.949564
0.946044
0.94321
0.94118
0.940205
0.940137
0.942319
0.944076
0.948143
0.95241
0.9568
0.961404
0.965798
0.96968
0.973119
0.975879
0.978184
0.97976
0.98084
0.981257
0.981316
0.98095
0.980178
0.978881
0.977308
0.975269
0.973594
0.970462
0.968972
0.965134
0.963263
0.960571
0.957721
0.955261
0.953264
0.952033
0.951804
0.951825
0.954925
0.958177
0.964467
0.972299
0.981192
0.99086
1.00075
1.01037
1.01945
1.02796
1.03583
1.04275
1.04892
0.947426
0.943177
0.939434
0.936703
0.934847
0.934528
0.935425
0.937943
0.94177
0.946428
0.951221
0.956106
0.96083
0.965104
0.968946
0.972026
0.974651
0.976488
0.977956
0.978709
0.979117
0.97911
0.978679
0.977686
0.97653
0.974963
0.9733
0.970849
0.969279
0.966009
0.964094
0.960367
0.958325
0.95476
0.952947
0.952076
0.950777
0.951281
0.950977
0.958141
0.960628
0.968596
0.977895
0.987868
0.998718
1.0091
1.01891
1.02787
1.0361
1.04333
1.04975
0.946059
0.941934
0.937054
0.934911
0.931789
0.929778
0.930038
0.93058
0.934113
0.938931
0.944528
0.950192
0.955519
0.960373
0.964658
0.968235
0.971223
0.973388
0.97521
0.976219
0.977035
0.977282
0.977096
0.976528
0.975789
0.974287
0.973271
0.970921
0.969314
0.966217
0.964103
0.960545
0.959162
0.955464
0.957791
0.955745
0.956415
0.959239
0.961318
0.958376
0.970194
0.967871
0.973695
0.983614
0.994438
1.00578
1.01688
1.02687
1.03581
1.04353
1.05033
0.950271
0.946883
0.945581
0.95159
0.947608
0.942273
0.935187
0.930197
0.929166
0.932053
0.937276
0.943636
0.949973
0.955637
0.960466
0.964549
0.96798
0.970367
0.972541
0.973816
0.974938
0.975463
0.975572
0.975356
0.974852
0.973865
0.972744
0.970849
0.968765
0.966227
0.96453
0.961539
0.965602
0.962843
0.98972
0.987399
1.02511
1.07635
1.06558
1.06557
1.02444
0.993416
0.992041
0.990705
0.99575
1.00486
1.01543
1.0259
1.03549
1.04372
1.05092
0.969102
1.00412
1.01969
1.07231
1.07183
1.06353
1.01337
0.967255
0.941268
0.930827
0.930399
0.935785
0.942891
0.949663
0.95567
0.960478
0.964597
0.967441
0.970059
0.971608
0.973023
0.973812
0.974094
0.974143
0.97384
0.973169
0.971981
0.970239
0.96842
0.966623
0.969917
0.96878
0.992034
1.03382
1.13716
1.30399
1.45659
1.5604
1.53938
1.53502
1.38108
1.21895
1.03319
0.988836
0.989247
0.999965
1.0123
1.02416
1.0348
1.04371
1.05128
1.14728
1.25453
1.37838
1.47711
1.48006
1.41705
1.40688
1.19145
1.01515
0.954365
0.934893
0.933374
0.938808
0.945786
0.951918
0.957147
0.961506
0.964854
0.967475
0.969584
0.971073
0.972172
0.972704
0.972905
0.972812
0.972122
0.971038
0.969675
0.970495
0.972019
0.994659
1.02784
1.18044
1.44964
1.65873
1.772
1.80987
1.79963
1.78201
1.7349
1.72691
1.52512
1.32434
1.0723
1.00856
1.00049
1.00974
1.02221
1.03372
1.04334
1.0512
1.59016
1.69217
1.72706
1.71899
1.68789
1.62882
1.61264
1.48553
1.34355
1.04939
0.946746
0.926915
0.930497
0.938719
0.946936
0.953481
0.958451
0.962327
0.965167
0.96757
0.969134
0.970439
0.971101
0.971536
0.971444
0.970841
0.970696
0.971904
0.986955
1.01363
1.11941
1.42278
1.70455
1.83868
1.87291
1.85802
1.83228
1.79519
1.73347
1.69309
1.68584
1.60783
1.50214
1.20722
1.04585
1.00428
1.00679
1.01954
1.03192
1.04227
1.05054
1.82418
1.81078
1.77601
1.73499
1.67571
1.62508
1.58195
1.56303
1.4387
1.24252
1.02869
0.945465
0.929594
0.934589
0.942544
0.94979
0.955485
0.959714
0.962966
0.965469
0.967583
0.968751
0.969591
0.970007
0.970061
0.970431
0.974275
0.997088
1.06191
1.28259
1.63294
1.84947
1.90676
1.90023
1.8773
1.84234
1.78974
1.71547
1.58195
1.5202
1.56595
1.58042
1.44047
1.19807
1.04435
1.00379
1.00485
1.01727
1.02995
1.04056
1.04902
1.84553
1.80563
1.75267
1.67863
1.58983
1.45591
1.44429
1.45344
1.42559
1.23122
1.03944
0.955505
0.930947
0.931561
0.93915
0.946657
0.952677
0.957381
0.960822
0.96375
0.965574
0.967012
0.967853
0.968379
0.96961
0.974762
1.00669
1.13671
1.48668
1.81974
1.92985
1.92629
1.91241
1.8901
1.85495
1.8008
1.71377
1.59092
1.4212
1.24589
1.38773
1.46046
1.4225
1.14967
1.03285
0.996163
1.00164
1.01483
1.02775
1.03845
1.0468
1.83067
1.77004
1.68831
1.57761
1.44003
1.29144
1.24508
1.3143
1.30165
1.18226
1.01598
0.944911
0.926193
0.928592
0.936448
0.94395
0.950131
0.955047
0.958593
0.961583
0.963653
0.965138
0.966015
0.967395
0.972561
1.00491
1.27961
1.79908
1.91651
1.92908
1.92926
1.92028
1.90312
1.87313
1.82125
1.73483
1.59773
1.41614
1.22683
1.12917
1.23033
1.32191
1.22987
1.06564
0.994548
0.988937
0.998394
1.01237
1.02501
1.03568
1.0437
1.80441
1.72712
1.61614
1.46795
1.30893
1.14899
1.08106
1.12564
1.16329
1.06913
0.976888
0.932265
0.921155
0.925882
0.9341
0.941704
0.947867
0.952931
0.95645
0.959326
0.961702
0.963193
0.965285
0.971198
1.03437
1.66985
1.86335
1.91712
1.93207
1.93046
1.92465
1.91338
1.88948
1.84434
1.76293
1.62922
1.44278
1.22438
1.06966
1.04885
1.10745
1.14786
1.06239
0.995657
0.972078
0.981943
0.994798
1.00971
1.02188
1.03085
1.03902
1.78015
1.67948
1.53478
1.35327
1.17026
1.03262
0.979312
0.996963
1.02541
0.975501
0.933819
0.916643
0.916565
0.923896
0.932455
0.939793
0.945765
0.950476
0.953787
0.957049
0.959711
0.962422
0.981823
1.26501
1.67026
1.88565
1.92198
1.92881
1.93021
1.92761
1.9211
1.90455
1.87109
1.80478
1.68756
1.50956
1.29362
1.08767
0.991963
0.982256
1.00543
1.01778
0.979704
0.956065
0.966394
0.977403
0.99276
1.00546
1.01647
1.02788
1.03932
1.76428
1.64808
1.48011
1.27188
1.06408
0.954917
0.924881
0.931164
0.946107
0.92241
0.90899
0.907452
0.91382
0.922465
0.930899
0.937852
0.943314
0.947924
0.951581
0.955169
0.964733
1.03158
1.38483
1.73703
1.87918
1.91845
1.92539
1.92688
1.92683
1.92352
1.91489
1.89315
1.84705
1.75708
1.60573
1.39793
1.17584
1.00732
0.941446
0.945376
0.943731
0.961414
0.934155
0.957365
0.957205
0.975681
0.987281
1.00046
1.01229
1.02942
1.08015
1.76014
1.63911
1.46308
1.24474
1.02839
0.919394
0.896216
0.898347
0.89914
0.901088
0.898354
0.904581
0.912451
0.921642
0.929288
0.935801
0.941466
0.947022
0.957765
0.993534
1.12786
1.47077
1.76565
1.87769
1.9124
1.9192
1.92171
1.92396
1.92364
1.91982
1.9092
1.88287
1.82559
1.71582
1.53905
1.31356
1.09364
0.961923
0.92491
0.928823
0.925309
0.934009
0.935278
0.940927
0.959469
0.971603
0.989114
1.0047
1.04134
1.11923
1.37106
1.77975
1.66657
1.49017
1.25725
1.02014
0.920027
0.887052
0.89042
0.88722
0.895243
0.896278
0.905099
0.912603
0.920952
0.928474
0.935411
0.945119
0.96923
1.05023
1.31765
1.59567
1.78816
1.87211
1.90587
1.91257
1.91589
1.91895
1.9206
1.92062
1.91692
1.90521
1.87699
1.81496
1.69704
1.50942
1.27669
1.06466
0.92569
0.937443
0.92103
0.925624
0.926296
0.932552
0.946651
0.956157
0.972908
0.988156
1.03707
1.11945
1.51049
1.86773
1.80718
1.72104
1.58019
1.37309
1.12397
0.956117
0.889197
0.89601
0.893985
0.893877
0.89866
0.906066
0.91391
0.921822
0.930116
0.946689
0.996288
1.16368
1.45628
1.70211
1.80592
1.87594
1.89523
1.90563
1.90859
1.91293
1.91568
1.91758
1.91818
1.91578
1.90628
1.88279
1.83049
1.72833
1.55725
1.32681
1.08992
0.996752
0.913762
0.936125
0.934726
0.926782
0.93999
0.94978
0.980874
1.00799
1.10649
1.28237
1.68745
1.79608
1.97797
1.83311
1.76901
1.66247
1.49596
1.27537
1.04569
0.947609
0.890575
0.906526
0.901345
0.905898
0.911194
0.919569
0.9332
0.964019
1.04843
1.30135
1.56954
1.76195
1.82785
1.87304
1.88944
1.89808
1.90273
1.90661
1.91007
1.91292
1.91555
1.91687
1.91587
1.9092
1.89167
1.85317
1.77814
1.64854
1.46055
1.24171
1.04265
0.994958
0.940622
0.956085
0.960903
0.973218
1.01609
1.06308
1.25476
1.46263
1.6974
1.92404
1.91185
1.98464
1.85911
1.82258
1.76306
1.66165
1.50013
1.29245
1.08878
0.94544
0.941945
0.920494
0.928163
0.936301
0.956912
1.01134
1.15471
1.43508
1.68845
1.77404
1.84815
1.86665
1.88412
1.89131
1.89673
1.90083
1.90502
1.90832
1.9116
1.91482
1.91714
1.91751
1.91415
1.90357
1.87972
1.8334
1.7523
1.62731
1.46625
1.30035
1.18403
1.09125
1.11055
1.10438
1.16858
1.29715
1.49257
1.63253
1.77961
1.87301
1.94338
1.94946
1.9758
1.8737
1.85172
1.81978
1.76918
1.68789
1.56386
1.40627
1.24508
1.13616
1.0834
1.09149
1.09919
1.19008
1.37486
1.58478
1.72143
1.81913
1.83962
1.86871
1.8773
1.88596
1.89125
1.89642
1.90068
1.90463
1.90819
1.91202
1.91576
1.91913
1.92099
1.92025
1.91505
1.9021
1.87625
1.8316
1.76124
1.66628
1.56145
1.48445
1.44339
1.44125
1.45622
1.53118
1.65532
1.75417
1.8253
1.90149
1.91477
1.94371
1.95345
1.96491
1.88253
1.86795
1.85019
1.82605
1.79091
1.74019
1.66634
1.58226
1.50035
1.47621
1.46666
1.48383
1.57168
1.69206
1.79822
1.81465
1.85274
1.86175
1.87501
1.88143
1.88777
1.89254
1.89754
1.90186
1.90586
1.91008
1.9146
1.91907
1.92343
1.92652
1.92813
1.92657
1.92023
1.90738
1.88475
1.84996
1.80292
1.75287
1.7067
1.70034
1.69413
1.71807
1.76543
1.81808
1.87045
1.88705
1.91759
1.92701
1.94027
1.94742
1.95365
1.88737
1.87697
1.86485
1.8507
1.83384
1.81233
1.78656
1.75482
1.72765
1.7099
1.71379
1.72624
1.77028
1.81981
1.83674
1.8525
1.86309
1.87143
1.87923
1.88486
1.89036
1.89515
1.90032
1.90503
1.90944
1.91442
1.91979
1.92498
1.93024
1.93447
1.93774
1.93915
1.93676
1.93071
1.91995
1.90268
1.88027
1.85597
1.84132
1.82983
1.8281
1.84224
1.86313
1.88409
1.89703
1.91005
1.92121
1.92962
1.93719
1.9413
1.94492
1.89019
1.88124
1.87143
1.8619
1.85085
1.83934
1.82661
1.81781
1.80886
1.80499
1.80801
1.81565
1.83161
1.84559
1.85387
1.86307
1.87033
1.87743
1.88368
1.88912
1.89466
1.89983
1.90536
1.9105
1.91551
1.92132
1.92742
1.93335
1.93944
1.94502
1.94955
1.95272
1.95345
1.95072
1.94529
1.93687
1.92528
1.91307
1.90078
1.89268
1.88996
1.89331
1.89797
1.90613
1.90982
1.91803
1.92563
1.93138
1.93608
1.9391
1.94029
1.89159
1.88354
1.87504
1.86682
1.85729
1.84921
1.84266
1.83609
1.83374
1.83346
1.83614
1.84131
1.84815
1.85567
1.8618
1.86906
1.87592
1.88271
1.88914
1.89507
1.90078
1.9066
1.91256
1.91821
1.92396
1.93054
1.93731
1.94385
1.95094
1.95742
1.96312
1.96754
1.97005
1.96964
1.96697
1.96129
1.95352
1.94381
1.93411
1.92504
1.91888
1.91584
1.91596
1.91779
1.92082
1.92544
1.93118
1.93569
1.939
1.94051
1.94012
1.89171
1.88421
1.87627
1.86853
1.86082
1.85295
1.84818
1.84281
1.8426
1.84257
1.84558
1.84999
1.85543
1.8618
1.86826
1.87528
1.88249
1.88931
1.89614
1.90261
1.90906
1.91533
1.92169
1.92791
1.93436
1.94171
1.94876
1.95614
1.96406
1.97105
1.9778
1.98304
1.98681
1.98766
1.98677
1.98355
1.97709
1.9682
1.95859
1.94863
1.94053
1.93452
1.93187
1.93071
1.93228
1.93438
1.93962
1.94421
1.94646
1.94672
1.94461
1.89069
1.88332
1.87576
1.86864
1.86129
1.85472
1.85002
1.84637
1.84629
1.8473
1.85073
1.85527
1.86118
1.86797
1.87513
1.88251
1.89014
1.89749
1.90486
1.91207
1.91903
1.92587
1.9326
1.93913
1.94643
1.95414
1.96161
1.96953
1.97779
1.98536
1.99262
1.99863
2.00326
2.00544
2.00516
2.00258
1.9971
1.98951
1.98032
1.97016
1.96032
1.95169
1.94479
1.94232
1.94198
1.94516
1.94817
1.95496
1.95737
1.95797
1.95422
1.88826
1.88132
1.87368
1.86754
1.8604
1.85476
1.85086
1.84866
1.84893
1.85135
1.85541
1.86076
1.86742
1.87487
1.88292
1.89091
1.89933
1.90731
1.91536
1.92298
1.93045
1.93775
1.94505
1.95208
1.95955
1.96751
1.9751
1.98336
1.99156
1.99952
2.00711
2.0136
2.01885
2.02142
2.02187
2.02006
2.01539
2.00832
1.9989
1.98785
1.9766
1.96545
1.95665
1.95129
1.95025
1.95184
1.95632
1.9657
1.97147
1.97296
1.96979
1.88519
1.87801
1.8708
1.86505
1.85879
1.85409
1.85179
1.85058
1.85225
1.85551
1.86076
1.86725
1.87483
1.88323
1.8921
1.90102
1.91018
1.91886
1.92739
1.93553
1.94338
1.95107
1.95841
1.96553
1.97317
1.98093
1.98853
1.99659
2.00463
2.0128
2.02019
2.02685
2.032
2.03487
2.03559
2.03432
2.03024
2.02364
2.01489
2.00435
1.99321
1.98149
1.97013
1.96074
1.95467
1.95453
1.95945
1.96893
1.9849
1.99033
1.9888
1.88105
1.87401
1.86762
1.8623
1.85718
1.85377
1.85252
1.85329
1.85624
1.86085
1.86743
1.87511
1.88379
1.89333
1.90303
1.91295
1.92264
1.932
1.94095
1.94944
1.95757
1.96524
1.97247
1.97959
1.98679
1.99406
2.00157
2.00916
2.01688
2.02466
2.03174
2.03794
2.04326
2.04659
2.04735
2.04693
2.04326
2.03753
2.02927
2.01875
2.00637
1.99214
1.97732
1.96328
1.95245
1.94935
1.95389
1.96787
1.99614
2.01289
2.01638
1.8765
1.87016
1.86386
1.85973
1.85577
1.85418
1.85434
1.85699
1.86128
1.86754
1.8754
1.88449
1.89435
1.90505
1.91563
1.92649
1.93663
1.94647
1.95569
1.96438
1.9725
1.97989
1.98683
1.99353
2.0002
2.00701
2.01393
2.02081
2.02791
2.0349
2.04144
2.04739
2.05219
2.05566
2.05671
2.05636
2.05354
2.04815
2.04021
2.02949
2.01649
2.00115
1.98443
1.96508
1.94559
1.93479
1.93174
1.94292
1.97763
2.03059
2.04964
1.87185
1.86584
1.86111
1.85737
1.85538
1.85521
1.85745
1.86147
1.86748
1.87553
1.88484
1.89523
1.90652
1.91816
1.9297
1.94109
1.95174
1.96183
1.97129
1.97986
1.98757
1.9945
2.0009
2.00711
2.0133
2.01917
2.02534
2.03125
2.03753
2.04363
2.04946
2.05473
2.05918
2.06255
2.06378
2.06354
2.06134
2.05687
2.05007
2.04022
2.02672
2.00915
1.98639
1.95876
1.92894
1.89239
1.88274
1.87996
1.92299
2.00854
2.06453
1.00688
1.00805
1.00922
1.01048
1.01169
1.01291
1.01395
1.01499
1.01579
1.01651
1.01702
1.01739
1.01756
1.01759
1.01752
1.01726
1.01703
1.01657
1.01613
1.01563
1.01513
1.01464
1.01423
1.01381
1.01351
1.01326
1.01125
1.01256
1.01386
1.01507
1.01612
1.01706
1.01783
1.0184
1.01877
1.01898
1.01898
1.01881
1.01855
1.01804
1.01769
1.01697
1.01642
1.01584
1.01524
1.01469
1.01421
1.01382
1.01353
1.01336
1.0133
1.01335
1.01569
1.01717
1.0185
1.01966
1.02055
1.0212
1.02164
1.02181
1.02174
1.02144
1.02096
1.02029
1.01954
1.01864
1.01786
1.01699
1.0161
1.01529
1.01458
1.014
1.01356
1.01329
1.01317
1.01321
1.01343
1.01382
1.02011
1.02168
1.02311
1.02418
1.02487
1.02528
1.02538
1.02515
1.02466
1.0239
1.02296
1.02183
1.02067
1.01947
1.01817
1.0171
1.01601
1.01506
1.01422
1.01364
1.01322
1.01309
1.01311
1.01342
1.01392
1.0146
1.02423
1.0262
1.02751
1.02852
1.02908
1.02921
1.02899
1.02846
1.0275
1.02642
1.02489
1.02362
1.02172
1.02052
1.01878
1.01738
1.0162
1.01507
1.01422
1.01359
1.01327
1.01319
1.01346
1.01397
1.01472
1.01578
1.02836
1.03034
1.03179
1.03262
1.03308
1.03298
1.0325
1.03159
1.03035
1.02876
1.02711
1.02525
1.02331
1.02151
1.01957
1.01817
1.0165
1.01539
1.01456
1.01384
1.01365
1.01368
1.01413
1.01486
1.01594
1.01724
1.03226
1.03422
1.03578
1.03654
1.03679
1.03655
1.03584
1.03466
1.03309
1.03126
1.02917
1.02712
1.02487
1.02277
1.02077
1.01889
1.01738
1.01605
1.01516
1.01444
1.0144
1.01452
1.0151
1.01613
1.01733
1.01901
1.03554
1.03788
1.03934
1.04014
1.04027
1.03993
1.03894
1.03762
1.03577
1.03372
1.03141
1.02906
1.02663
1.02428
1.02213
1.02003
1.01846
1.01699
1.01605
1.01547
1.01538
1.01566
1.01651
1.01752
1.01916
1.02098
1.03875
1.04109
1.04255
1.04345
1.04346
1.04306
1.04189
1.04051
1.03838
1.0362
1.03363
1.03118
1.02852
1.02598
1.02371
1.02147
1.01986
1.0182
1.01739
1.01669
1.01673
1.01708
1.01803
1.01935
1.02105
1.0232
1.04139
1.04399
1.04548
1.04633
1.0464
1.04593
1.04483
1.04292
1.0413
1.03827
1.03637
1.03305
1.03074
1.02792
1.02558
1.02312
1.0215
1.01975
1.01889
1.01829
1.01836
1.01874
1.01978
1.02142
1.02316
1.0254
1.04379
1.04629
1.04818
1.04883
1.04909
1.04853
1.04748
1.04562
1.0436
1.04121
1.03832
1.03574
1.03276
1.03018
1.0274
1.02534
1.02307
1.02179
1.0205
1.02015
1.02009
1.02069
1.02177
1.02341
1.02555
1.02773
1.04592
1.04824
1.0504
1.05118
1.05145
1.05099
1.04989
1.04828
1.04601
1.04364
1.04103
1.03799
1.03532
1.03228
1.02988
1.02727
1.02526
1.02373
1.02253
1.02206
1.02208
1.02265
1.02406
1.02547
1.02781
1.03013
1.04727
1.0503
1.05201
1.05329
1.05354
1.05324
1.05218
1.0507
1.0486
1.04619
1.04343
1.04072
1.0377
1.03492
1.03212
1.02965
1.02753
1.0258
1.02471
1.02405
1.0241
1.02473
1.02603
1.02784
1.03007
1.03247
1.04868
1.05153
1.05379
1.05494
1.05553
1.05528
1.05449
1.05299
1.05109
1.0487
1.04615
1.04329
1.04041
1.03742
1.03475
1.03201
1.02986
1.02809
1.0267
1.02616
1.02608
1.02682
1.02794
1.03004
1.03219
1.03486
1.0495
1.05282
1.05505
1.05656
1.05721
1.05722
1.05659
1.05539
1.0535
1.05142
1.04863
1.04613
1.04297
1.04024
1.0372
1.03464
1.03212
1.03025
1.02884
1.02803
1.02801
1.02856
1.03006
1.03169
1.03449
1.03684
1.0504
1.05374
1.05625
1.05788
1.05881
1.05904
1.05864
1.05764
1.05599
1.05394
1.0516
1.04841
1.0465
1.04203
1.04059
1.03627
1.03463
1.03236
1.03088
1.02981
1.02971
1.03012
1.03157
1.03353
1.03609
1.03879
1.05102
1.05457
1.05732
1.05913
1.06035
1.06082
1.06063
1.05993
1.05833
1.05667
1.05404
1.05161
1.04856
1.04566
1.04238
1.03958
1.0365
1.03424
1.03231
1.03112
1.03082
1.03137
1.03252
1.03474
1.0374
1.04043
1.05152
1.05538
1.0582
1.06045
1.06174
1.06259
1.06266
1.06208
1.06096
1.05894
1.057
1.05409
1.05187
1.04738
1.04563
1.04102
1.0389
1.0352
1.03321
1.03196
1.03146
1.03164
1.03344
1.03522
1.03848
1.04147
1.05221
1.056
1.05927
1.06159
1.06325
1.06427
1.06461
1.06429
1.06318
1.0618
1.05942
1.05711
1.05371
1.05083
1.04672
1.04342
1.03958
1.03627
1.03357
1.03169
1.03082
1.03138
1.03242
1.03528
1.03849
1.04213
1.05281
1.05686
1.06028
1.06282
1.06477
1.06605
1.06653
1.06643
1.06544
1.06449
1.06167
1.05972
1.0563
1.05238
1.04854
1.04419
1.04005
1.03581
1.03276
1.03001
1.02889
1.02892
1.03128
1.03396
1.03789
1.04211
1.05351
1.05774
1.06138
1.06408
1.06632
1.06777
1.06845
1.06847
1.06813
1.06619
1.06495
1.06105
1.05816
1.05383
1.04935
1.04496
1.04013
1.03638
1.03277
1.02906
1.02594
1.02676
1.02754
1.03118
1.03597
1.04121
1.05413
1.05874
1.06242
1.06549
1.06784
1.06947
1.0703
1.0705
1.07014
1.06835
1.06637
1.06266
1.06055
1.05437
1.05305
1.0522
1.05074
1.05595
1.05273
1.04421
1.03684
1.03056
1.02691
1.02896
1.03358
1.03954
1.05512
1.05985
1.06367
1.06697
1.06931
1.07107
1.0721
1.07241
1.07173
1.06996
1.06805
1.06575
1.06496
1.06448
1.08415
1.10864
1.13694
1.18645
1.18533
1.17363
1.13167
1.08427
1.05075
1.03601
1.03411
1.03833
1.05588
1.061
1.06477
1.06848
1.07063
1.07252
1.07379
1.07367
1.07307
1.07243
1.07081
1.0814
1.08958
1.14813
1.25738
1.40049
1.53725
1.6271
1.61856
1.55838
1.5533
1.33547
1.1731
1.08361
1.04808
1.04123
1.05663
1.06191
1.06575
1.06962
1.07171
1.07385
1.07472
1.07487
1.07527
1.08211
1.09521
1.15111
1.28321
1.53172
1.7711
1.88694
1.92549
1.91289
1.8652
1.82999
1.72481
1.73254
1.47997
1.23031
1.10265
1.05602
1.05735
1.06249
1.06695
1.07022
1.07257
1.07451
1.07533
1.07804
1.09162
1.13529
1.2412
1.49759
1.82923
1.98731
2.03616
2.02592
1.98841
1.93944
1.86824
1.79069
1.72813
1.71718
1.64114
1.42851
1.17991
1.08288
1.05762
1.06275
1.06748
1.07041
1.07294
1.07417
1.07869
1.10368
1.19109
1.41639
1.75657
1.99392
2.08513
2.08877
2.06225
2.02117
1.95676
1.85919
1.73461
1.53948
1.53482
1.60124
1.6113
1.50328
1.24729
1.10737
1.05715
1.0623
1.06704
1.06949
1.07145
1.07605
1.1127
1.27732
1.65885
1.94594
2.0887
2.12123
2.10948
2.08373
2.03986
1.96783
1.85308
1.69401
1.47958
1.28464
1.24346
1.40529
1.50831
1.42792
1.20762
1.09454
1.05575
1.06102
1.06533
1.06807
1.0692
1.11076
1.37329
1.85227
2.06839
2.12691
2.13241
2.12015
2.09679
2.05663
1.98912
1.88258
1.72745
1.52207
1.28238
1.11474
1.10755
1.27657
1.35648
1.27497
1.12988
1.06993
1.05362
1.05861
1.06244
1.06634
1.10598
1.43863
1.95542
2.1156
2.13786
2.13622
2.12647
2.10805
2.07618
2.02223
1.93427
1.7975
1.60809
1.37735
1.1428
1.06892
1.05804
1.12431
1.16276
1.11109
1.06301
1.04651
1.04993
1.0555
1.06379
1.11855
1.48735
2.00167
2.12255
2.13489
2.13419
2.12761
2.1153
2.09342
2.0547
1.98828
1.87798
1.70992
1.49006
1.26607
1.0883
1.00742
1.01559
1.03034
1.05005
1.03735
1.02915
1.03661
1.04767
1.06686
1.17194
1.65396
2.03425
2.11478
2.12542
2.12645
2.12339
2.11632
2.10304
2.07879
2.03713
1.96648
1.84799
1.66962
1.44359
1.21501
1.03854
1.00612
0.995867
1.00061
1.00413
1.01785
1.02186
1.03544
1.07401
1.22137
1.71444
2.01535
2.09821
2.11133
2.11419
2.11354
2.11044
2.10318
2.08998
2.06639
2.02583
1.95525
1.83771
1.65863
1.42894
1.19608
1.0498
0.999583
1.00303
0.993991
1.00566
1.00994
1.02403
1.03294
1.29044
1.74183
2.00263
2.07658
2.09405
2.09855
2.09966
2.09919
2.09607
2.0903
2.08026
2.06378
2.03696
1.99013
1.90537
1.75824
1.54002
1.29411
1.08487
1.05142
0.992303
1.01399
1.00443
1.01408
1.02379
1.03643
1.73269
2.01429
2.04366
2.07417
2.07938
2.08243
2.08321
2.08264
2.08022
2.07555
2.0677
2.05591
2.039
2.01392
1.9743
1.90764
1.79237
1.59888
1.35145
1.14682
1.09645
1.06583
1.05814
1.06315
1.07508
1.11438
1.9385
2.03621
2.04524
2.0579
2.06185
2.06424
2.06515
2.06451
2.0626
2.05936
2.05339
2.04533
2.03443
2.02008
2.00092
1.9723
1.92633
1.85792
1.76839
1.64753
1.51542
1.49148
1.45971
1.48674
1.53557
1.64905
1.98954
2.02584
2.03336
2.03983
2.04245
2.04435
2.04554
2.04532
2.04392
2.04213
2.03858
2.03421
2.02844
2.02107
2.01265
2.00159
1.98687
1.97297
1.9537
1.939
1.92496
1.90704
1.93299
1.94592
1.97931
2.01893