/*--------------------------------*- C++ -*----------------------------------*\
  =========                 |
  \\      /  F ield         | OpenFOAM: The Open Source CFD Toolbox
   \\    /   O peration     | Website:  https://openfoam.org
    \\  /    A nd           | Version:  10
     \\/     M anipulation  |
\*---------------------------------------------------------------------------*/
FoamFile
{
    format      ascii;
    class       volScalarField;
    location    "0.251614";
    object      T;
}
// * * * * * * * * * * * * * * * * * * * * * * * * * * * * * * * * * * * * * //

dimensions      [0 0 0 1 0 0 0];

internalField   nonuniform List<scalar> 
15708
(
0.00878292
0.00879507
0.00880457
0.00881078
0.00881405
0.00881392
0.00881195
0.00880738
0.00880097
0.00879299
0.00878423
0.00877417
0.00876374
0.00875386
0.00874298
0.00873271
0.00872293
0.00871302
0.0087044
0.00869526
0.00868764
0.00868033
0.00867355
0.00866774
0.00866283
0.00865913
0.00865643
0.00865521
0.00865558
0.00865691
0.00865987
0.00866361
0.008669
0.00867506
0.0086812
0.00868789
0.00869401
0.0087002
0.00870531
0.00870976
0.00871334
0.0087162
0.00871839
0.00872005
0.00872172
0.0087227
0.00872428
0.00872604
0.00872788
0.00873077
0.00873361
0.00876564
0.00877798
0.00878838
0.00879581
0.00880071
0.0088026
0.0088023
0.00880026
0.008796
0.00879041
0.00878307
0.00877534
0.0087664
0.00875702
0.00874834
0.00873836
0.00872935
0.0087197
0.00871095
0.00870176
0.00869336
0.00868482
0.00867711
0.00866993
0.00866322
0.00865762
0.00865292
0.00864957
0.00864755
0.00864721
0.00864807
0.00865086
0.00865384
0.00865914
0.00866509
0.00867162
0.00867867
0.00868531
0.00869217
0.0086982
0.00870418
0.00870943
0.00871378
0.00871888
0.00872198
0.00872705
0.00872983
0.00873483
0.0087385
0.008743
0.00874788
0.00874862
0.00876075
0.00877176
0.00878015
0.00878674
0.00879031
0.00879214
0.0087918
0.00878989
0.00878635
0.00878125
0.00877525
0.00876801
0.00876026
0.00875239
0.0087436
0.00873478
0.00872579
0.00871674
0.00870734
0.0086982
0.008689
0.00867998
0.00867134
0.00866319
0.00865572
0.00864929
0.00864379
0.0086398
0.00863721
0.00863646
0.0086371
0.00863934
0.00864357
0.0086483
0.00865513
0.00866222
0.00866976
0.00867822
0.00868613
0.00869365
0.00870208
0.00870888
0.0087163
0.00872304
0.00873006
0.00873679
0.00874292
0.00874998
0.00875577
0.00876232
0.0087317
0.00874333
0.00875435
0.00876389
0.00877158
0.0087771
0.00878072
0.0087826
0.00878256
0.00878124
0.00877838
0.0087741
0.0087688
0.00876279
0.00875539
0.00874784
0.00873969
0.00873081
0.00872182
0.00871221
0.00870238
0.00869238
0.0086823
0.0086724
0.0086628
0.00865375
0.0086455
0.00863836
0.00863219
0.00862785
0.00862512
0.00862423
0.00862518
0.00862798
0.00863198
0.00863839
0.00864589
0.00865406
0.00866411
0.00867285
0.00868411
0.00869298
0.00870409
0.00871374
0.00872402
0.00873296
0.00874345
0.00875072
0.00876201
0.00876789
0.00877753
0.0087147
0.00872601
0.00873688
0.00874679
0.00875529
0.00876258
0.0087681
0.00877215
0.00877448
0.00877501
0.00877437
0.00877219
0.00876824
0.00876363
0.00875814
0.00875092
0.00874352
0.00873503
0.00872593
0.00871602
0.00870591
0.00869504
0.00868421
0.00867304
0.00866207
0.00865169
0.00864182
0.00863297
0.00862513
0.00861902
0.00861448
0.00861186
0.00861165
0.00861311
0.00861654
0.00862201
0.00862982
0.00863825
0.00864962
0.0086603
0.00867211
0.00868643
0.00869709
0.00871168
0.00872435
0.00873599
0.00874932
0.00876104
0.00877107
0.00878238
0.00878962
0.00869936
0.00870884
0.00871935
0.0087289
0.00873945
0.00874737
0.00875484
0.00876089
0.00876507
0.00876789
0.00876892
0.00876869
0.00876689
0.00876376
0.00875877
0.00875336
0.00874615
0.0087382
0.00872894
0.00871923
0.00870825
0.00869715
0.00868534
0.00867315
0.00866128
0.00864953
0.00863817
0.00862799
0.00861863
0.00861072
0.00860481
0.0086008
0.00859885
0.00859934
0.0086017
0.00860647
0.00861443
0.00862274
0.00863535
0.00864751
0.00866195
0.00867598
0.00869278
0.00870837
0.00872351
0.00874059
0.00875472
0.00876861
0.00878269
0.00879345
0.00880433
0.0086836
0.00869161
0.0087013
0.00871224
0.00872216
0.00873165
0.00874085
0.00874835
0.00875488
0.00875945
0.00876276
0.00876432
0.00876381
0.00876246
0.00875881
0.00875402
0.00874831
0.00873951
0.00873161
0.00872057
0.00871053
0.00869808
0.00868599
0.008673
0.00866051
0.00864662
0.0086355
0.00862317
0.00861267
0.00860348
0.00859581
0.00859063
0.00858683
0.00858708
0.0085878
0.00859302
0.00859939
0.00860845
0.00862126
0.00863501
0.00865083
0.00866888
0.00868607
0.00870489
0.00872423
0.00874272
0.00876
0.0087775
0.00879164
0.00880516
0.00881713
0.00866798
0.00867622
0.00868438
0.00869462
0.00870471
0.00871627
0.00872542
0.00873551
0.00874296
0.00875057
0.0087551
0.00875875
0.00876014
0.00875953
0.00875777
0.00875423
0.0087478
0.00874149
0.00873149
0.00872243
0.00871046
0.00869926
0.00868544
0.00867253
0.00865916
0.00864456
0.0086325
0.00861884
0.00860774
0.00859678
0.00858833
0.0085814
0.00857693
0.00857523
0.00857597
0.00857963
0.00858599
0.00859589
0.00860766
0.00862323
0.00864171
0.00865932
0.00868099
0.00870197
0.00872451
0.00874406
0.00876561
0.00878395
0.00880044
0.00881681
0.00882684
0.00865461
0.00865972
0.00866859
0.00867713
0.00868835
0.00869956
0.00871032
0.00872137
0.00873111
0.00874
0.00874613
0.00875238
0.00875498
0.00875586
0.00875525
0.00875189
0.00874749
0.00874031
0.00873242
0.00872168
0.00871092
0.0086993
0.00868482
0.00867189
0.0086569
0.00864325
0.00862901
0.00861588
0.00860222
0.00859222
0.0085809
0.00857402
0.00856828
0.00856488
0.00856604
0.00856774
0.00857492
0.00858265
0.00859716
0.00861302
0.00863077
0.0086525
0.00867613
0.00869898
0.00872324
0.00874674
0.00876971
0.00878991
0.00880963
0.00882444
0.00883907
0.00864059
0.00864525
0.00865207
0.00866089
0.00867155
0.00868333
0.00869514
0.00870717
0.00871828
0.00872833
0.00873754
0.00874335
0.00874928
0.00875013
0.00875123
0.00874938
0.00874439
0.00873957
0.00873051
0.00872121
0.00871062
0.0086969
0.00868522
0.00866992
0.00865601
0.00864067
0.00862702
0.00861238
0.00859901
0.00858674
0.00857599
0.00856795
0.00855989
0.00855798
0.00855577
0.00855915
0.00856384
0.00857329
0.0085865
0.00860302
0.00862343
0.00864513
0.00867144
0.00869603
0.00872235
0.00874949
0.00877245
0.00879651
0.00881576
0.00883345
0.0088475
0.00862766
0.00863171
0.00863707
0.00864484
0.00865583
0.00866613
0.00868084
0.00869154
0.0087051
0.00871643
0.00872665
0.00873468
0.00874083
0.00874475
0.00874581
0.00874446
0.00874187
0.00873564
0.00872877
0.0087193
0.00870938
0.00869537
0.00868392
0.00866767
0.00865489
0.00863891
0.00862431
0.00860954
0.00859659
0.00858193
0.00857333
0.0085605
0.008556
0.00854984
0.00854937
0.00855075
0.00855542
0.00856511
0.00857748
0.0085963
0.00861478
0.00864
0.00866775
0.00869283
0.00872318
0.00875014
0.00877689
0.00880018
0.00882267
0.00883982
0.00885507
0.00861616
0.00861838
0.00862254
0.00862999
0.00863921
0.00865195
0.00866429
0.00867728
0.00869123
0.00870386
0.00871509
0.00872483
0.00873187
0.00873752
0.00873857
0.00873986
0.00873645
0.00873199
0.00872548
0.00871701
0.00870579
0.00869411
0.008681
0.00866758
0.00865233
0.0086368
0.00862279
0.00860776
0.00859298
0.00858078
0.00856742
0.00855939
0.00854953
0.00854564
0.00854305
0.00854459
0.00854981
0.00855727
0.00857198
0.00858859
0.00861116
0.00863565
0.00866522
0.00869149
0.00872326
0.00875183
0.00877944
0.00880459
0.00882662
0.00884575
0.00886232
0.00860507
0.00860599
0.00860926
0.0086158
0.00862419
0.00863586
0.00864959
0.00866223
0.00867759
0.00869039
0.00870297
0.0087136
0.00872242
0.00872805
0.00873203
0.00873221
0.00873139
0.008727
0.0087204
0.00871311
0.00870307
0.00869106
0.00867914
0.00866453
0.00865096
0.00863519
0.00862106
0.00860545
0.00859226
0.0085776
0.00856665
0.00855542
0.00854724
0.00854158
0.00853922
0.00854023
0.00854491
0.00855347
0.00856648
0.00858529
0.00860741
0.0086326
0.00866252
0.00869217
0.00872293
0.0087539
0.00878155
0.00880792
0.00883075
0.00885051
0.00886602
0.00859392
0.00859502
0.00859675
0.0086021
0.00861005
0.00862067
0.00863496
0.00864749
0.00866312
0.00867687
0.00869057
0.0087015
0.00871222
0.00871761
0.00872399
0.00872396
0.00872407
0.00872065
0.00871618
0.00870749
0.00869941
0.00868787
0.00867654
0.00866207
0.00864856
0.00863439
0.00861848
0.00860557
0.0085897
0.00857762
0.0085643
0.00855444
0.00854499
0.00853985
0.00853661
0.00853761
0.00854217
0.00855064
0.00856246
0.00858441
0.00860245
0.00863353
0.00866122
0.00869186
0.00872585
0.00875402
0.00878464
0.00881007
0.00883457
0.00885308
0.00887121
0.00858444
0.00858374
0.00858487
0.00858899
0.00859657
0.00860665
0.00861981
0.00863376
0.00864827
0.00866412
0.00867658
0.00868994
0.00869959
0.00870854
0.00871234
0.00871638
0.0087155
0.00871381
0.00870892
0.0087031
0.00869415
0.00868491
0.00867168
0.00866082
0.00864625
0.0086318
0.00861935
0.00860266
0.00859107
0.00857561
0.00856512
0.00855285
0.00854554
0.00853855
0.00853592
0.00853665
0.00854088
0.00854806
0.00856379
0.00858041
0.00860411
0.00863447
0.00865929
0.00869494
0.00872578
0.00875629
0.00878648
0.00881238
0.00883692
0.00885694
0.00887317
0.0085752
0.00857336
0.00857398
0.00857667
0.00858307
0.00859411
0.00860395
0.00862082
0.00863429
0.00864939
0.00866389
0.00867682
0.00868783
0.00869622
0.00870264
0.00870595
0.00870693
0.00870605
0.00870157
0.00869653
0.00868944
0.00867923
0.00866933
0.00865701
0.00864369
0.00863169
0.00861641
0.00860472
0.00858856
0.00857719
0.00856467
0.00855361
0.00854625
0.00853831
0.00853636
0.00853676
0.0085399
0.0085504
0.0085618
0.00858216
0.00860628
0.00863211
0.00866435
0.00869477
0.00872822
0.00875892
0.00878906
0.00881468
0.00883918
0.00885865
0.00887663
0.00856635
0.00856331
0.00856302
0.00856546
0.00856959
0.00858159
0.00858945
0.00860661
0.00862055
0.00863567
0.00864995
0.00866387
0.00867433
0.00868418
0.00869109
0.00869532
0.00869747
0.00869642
0.00869445
0.00868951
0.00868308
0.00867501
0.00866542
0.00865264
0.00864298
0.00862854
0.00861694
0.00860285
0.00859035
0.00857742
0.00856567
0.00855526
0.00854671
0.00854043
0.00853707
0.00853782
0.00854237
0.00854973
0.00856443
0.0085848
0.00860495
0.00863758
0.00866425
0.00870086
0.00872943
0.0087629
0.00879095
0.00881787
0.00884107
0.00886132
0.00887848
0.00855848
0.00855369
0.00855292
0.00855348
0.00855883
0.00856445
0.00857962
0.00859157
0.00860714
0.00862112
0.00863641
0.00864933
0.00866224
0.00867177
0.00867833
0.00868479
0.00868671
0.00868726
0.00868608
0.00868171
0.00867651
0.00866977
0.00865986
0.00865085
0.00863948
0.00862706
0.00861662
0.00860314
0.00859055
0.00857935
0.00856691
0.00855688
0.00854949
0.00854095
0.00854069
0.00853945
0.0085437
0.00855373
0.00856404
0.00858622
0.00861142
0.00863809
0.00867123
0.00870049
0.00873639
0.00876453
0.00879408
0.00881977
0.00884372
0.00886334
0.00887989
0.00855049
0.00854542
0.00854138
0.00854213
0.00854646
0.00855277
0.00856463
0.00857836
0.00859233
0.00860882
0.00862214
0.00863628
0.00864906
0.00865826
0.00866707
0.0086723
0.00867609
0.00867725
0.00867623
0.00867421
0.00866919
0.00866389
0.00865518
0.00864602
0.00863748
0.00862594
0.00861521
0.00860383
0.00859062
0.00858187
0.00856732
0.00856153
0.0085497
0.00854609
0.00853988
0.00854297
0.00854746
0.0085545
0.00857023
0.00858762
0.00861714
0.00864131
0.008674
0.00870603
0.00873773
0.00876883
0.00879711
0.00882373
0.00884551
0.00886533
0.00888293
0.00854377
0.00853519
0.00853176
0.0085313
0.00853438
0.00853852
0.00855069
0.00856495
0.00857816
0.00859349
0.00860712
0.00862251
0.00863443
0.00864555
0.00865442
0.00866029
0.00866475
0.00866647
0.00866661
0.00866544
0.00866233
0.00865721
0.00864961
0.0086423
0.00863432
0.00862417
0.00861437
0.00860542
0.00858886
0.00858802
0.0085649
0.00856717
0.00855178
0.00855269
0.0085446
0.0085451
0.00854775
0.00855817
0.00857338
0.00858928
0.00861833
0.00864679
0.00867686
0.00871146
0.00874238
0.00877279
0.00880029
0.00882552
0.00884892
0.00886753
0.00888452
0.00853516
0.00852757
0.00852046
0.0085188
0.00852096
0.00852283
0.00853802
0.00854828
0.00856485
0.00857928
0.00859553
0.00860844
0.00862138
0.0086325
0.0086408
0.00864835
0.00865278
0.00865592
0.00865744
0.00865656
0.008654
0.00865021
0.00864437
0.00863843
0.0086311
0.0086226
0.00861373
0.00860388
0.00859422
0.00858369
0.00857603
0.00856421
0.00855813
0.00855234
0.00854797
0.0085485
0.00855299
0.0085568
0.00858326
0.00858286
0.00862651
0.0086499
0.00868041
0.00871344
0.00874522
0.00877569
0.00880472
0.00882842
0.00885037
0.00886992
0.00888655
0.00852993
0.00851808
0.0085098
0.00850637
0.00850726
0.00851393
0.00851515
0.00853697
0.00854846
0.00856426
0.00858108
0.00859499
0.00860729
0.00861885
0.00862788
0.00863584
0.00864061
0.0086447
0.00864639
0.00864757
0.0086462
0.00864325
0.00863863
0.00863384
0.00862743
0.00862174
0.00860993
0.00860868
0.00859114
0.0085928
0.00857619
0.00856742
0.00856191
0.00855657
0.00855318
0.00855177
0.00855309
0.00856591
0.00857094
0.00859995
0.00862502
0.00865423
0.00868664
0.00871894
0.00875031
0.00878062
0.00880903
0.0088339
0.00885456
0.00887361
0.00888943
0.00852491
0.00850961
0.00849923
0.00849216
0.00849243
0.00849573
0.0085038
0.00851706
0.00853234
0.00854765
0.0085646
0.00858002
0.00859347
0.0086055
0.00861474
0.00862352
0.00862905
0.00863449
0.00863648
0.00863855
0.00863801
0.00863587
0.00863273
0.00862972
0.00862406
0.00861856
0.00861091
0.00860748
0.00859375
0.00859267
0.00857804
0.00857843
0.0085643
0.00856535
0.00855521
0.00854382
0.00854712
0.00854834
0.0085774
0.00856449
0.00862369
0.00865399
0.00868783
0.00872367
0.00875279
0.00878234
0.00880954
0.00883463
0.00885549
0.00887445
0.00889014
0.0085116
0.0084827
0.00846938
0.00844401
0.00844426
0.00845441
0.00846437
0.00849456
0.00851576
0.00853486
0.00855055
0.00856524
0.00857936
0.0085918
0.00860204
0.00861083
0.00861715
0.00862348
0.00862607
0.00862963
0.00862927
0.00862872
0.00862747
0.00862509
0.00862
0.00861817
0.00860895
0.00860818
0.00859762
0.00859722
0.00858546
0.00858405
0.00856159
0.00855892
0.00850548
0.00849497
0.00846654
0.00843811
0.00843463
0.00850131
0.00847838
0.00860491
0.0086784
0.00872399
0.00876243
0.00879264
0.00881687
0.00883968
0.0088593
0.00887767
0.00889285
0.00844815
0.00839848
0.00833802
0.00822365
0.00821535
0.0082409
0.00831018
0.00838921
0.00845767
0.00850278
0.00853122
0.00854906
0.00856296
0.00857596
0.00858793
0.00859762
0.00860459
0.00861298
0.00861618
0.008621
0.00862151
0.00862218
0.00862195
0.00862048
0.00861743
0.00861508
0.00861046
0.00860888
0.00860523
0.00860189
0.00858751
0.0085805
0.0085079
0.00849062
0.00822124
0.00820605
0.007864
0.00747356
0.00754946
0.00757466
0.0079519
0.00829531
0.00845083
0.00861048
0.00871175
0.00877317
0.00881257
0.00883996
0.00886057
0.00887906
0.00889403
0.00826285
0.00788242
0.00768083
0.00722857
0.00717625
0.00719686
0.0075494
0.00794725
0.00822906
0.00840469
0.00849673
0.008536
0.00855504
0.00856863
0.00857856
0.00858841
0.00859451
0.00860317
0.00860619
0.00861205
0.00861329
0.00861499
0.00861666
0.00861623
0.00861525
0.00861371
0.00861292
0.00861288
0.00860938
0.00860154
0.00854498
0.00852193
0.00828609
0.00791017
0.00714589
0.00619264
0.00550841
0.00511674
0.0051783
0.00521314
0.00580997
0.00668736
0.00803486
0.00855607
0.00871355
0.00877639
0.00881433
0.00884073
0.00886044
0.00887862
0.00889403
0.0069557
0.00627385
0.0056358
0.0052005
0.00513685
0.00531215
0.00533542
0.00634283
0.00749994
0.00807516
0.00834718
0.00846531
0.00851515
0.00854019
0.00855938
0.0085734
0.00858328
0.00859206
0.00859881
0.00860299
0.00860666
0.00860866
0.00861119
0.00861258
0.00861285
0.00861472
0.00861569
0.00861486
0.00859089
0.00855627
0.00833765
0.00803993
0.00696658
0.00564033
0.0048954
0.00454661
0.00441166
0.00439728
0.00441176
0.00452384
0.00456873
0.0052534
0.00617039
0.00780973
0.00848123
0.00872355
0.00880446
0.00883753
0.0088581
0.00887616
0.00889292
0.00501102
0.00464093
0.00447748
0.00443054
0.00444872
0.00455377
0.00456938
0.00496848
0.00553922
0.00722267
0.00813136
0.00842809
0.00851228
0.00854039
0.00855195
0.00856258
0.0085733
0.0085821
0.00859062
0.00859531
0.00860115
0.00860405
0.00860816
0.00861027
0.00861328
0.00861678
0.00861192
0.00859116
0.00844722
0.00820776
0.00740792
0.00581765
0.0048303
0.00444783
0.0043295
0.00431937
0.00432942
0.0043669
0.00447575
0.00455792
0.00459464
0.00489106
0.00536294
0.00685839
0.00811657
0.00864235
0.00879447
0.00883518
0.00885568
0.00887274
0.00888997
0.00435983
0.00431882
0.00432613
0.00435039
0.00442932
0.00450042
0.00457584
0.00463067
0.00508134
0.00598169
0.00737654
0.00817078
0.00844391
0.00851621
0.00854146
0.00855405
0.00856433
0.00857449
0.00858285
0.00858956
0.00859312
0.00859971
0.0086047
0.00860951
0.00861366
0.0086102
0.00857175
0.00836899
0.0078494
0.00648757
0.00508454
0.00447637
0.00431703
0.00429717
0.00430515
0.00433285
0.0043981
0.00452206
0.00483786
0.0049924
0.00485761
0.0048976
0.00552378
0.00683703
0.00806428
0.00859748
0.00877337
0.00882441
0.00884785
0.0088668
0.00888554
0.00429758
0.00431272
0.0043586
0.00446262
0.00462486
0.00496481
0.00494185
0.00489819
0.00505075
0.0059543
0.00721535
0.00800821
0.00836661
0.00848968
0.00852678
0.00854358
0.00855599
0.00856579
0.00857555
0.00858112
0.00858966
0.00859613
0.00860329
0.00860938
0.00860745
0.00856438
0.00828653
0.00732906
0.00560617
0.00458156
0.00430503
0.00429198
0.00429459
0.00430639
0.0043369
0.00440414
0.00455374
0.00482382
0.00532149
0.00600807
0.00540523
0.00523899
0.00554125
0.00707989
0.00810409
0.00861875
0.00876242
0.00881047
0.00883474
0.00885557
0.00887771
0.00432165
0.00438163
0.0045014
0.00471816
0.00506891
0.00555397
0.00568302
0.00536546
0.00548023
0.00615051
0.00732328
0.00804316
0.00836121
0.00847326
0.00851234
0.00853313
0.0085475
0.00855827
0.00856957
0.00857684
0.00858545
0.00859364
0.00860233
0.00860087
0.00855834
0.00828513
0.00652703
0.00464192
0.00433829
0.00430536
0.00429699
0.00429631
0.00430311
0.00432794
0.00439379
0.00454159
0.00484719
0.00537639
0.00611943
0.00658822
0.00606839
0.00576743
0.00638396
0.00760138
0.00838417
0.00864502
0.00875179
0.00879215
0.00881906
0.00884112
0.00886758
0.00437406
0.0044782
0.00468592
0.00505158
0.00555643
0.00622437
0.00652129
0.00625013
0.00612915
0.00679343
0.00759657
0.00812591
0.00837682
0.00846642
0.00850199
0.00852266
0.00853863
0.00854968
0.00856288
0.00857296
0.00858099
0.00859144
0.00859247
0.00855401
0.00805243
0.00498841
0.00445453
0.0043347
0.00429954
0.00429692
0.00429727
0.00429983
0.00431964
0.00437734
0.00451707
0.00481148
0.00534539
0.00620376
0.00700715
0.00710545
0.0067703
0.00666396
0.00740308
0.00813
0.00855233
0.00867206
0.00874233
0.00877063
0.00879959
0.00883552
0.00886099
0.00442732
0.00459872
0.00492726
0.00547449
0.00621455
0.00693024
0.00722839
0.00709744
0.00697952
0.00746733
0.00795587
0.00826089
0.0084051
0.00846417
0.00849268
0.00851379
0.00853025
0.00854463
0.00856036
0.00856808
0.00857574
0.00857709
0.00843432
0.00655564
0.00496105
0.00440075
0.00431485
0.00429846
0.00429348
0.00429275
0.00429349
0.00430691
0.00434782
0.00445763
0.00470342
0.00518134
0.00596064
0.00699907
0.00759078
0.00764445
0.00752449
0.00756648
0.00805397
0.00846578
0.00858289
0.00867876
0.00871722
0.00875796
0.00879289
0.0088056
0.00880084
0.00446472
0.00468618
0.00511328
0.00583769
0.00686437
0.00753638
0.00772125
0.00767212
0.00762424
0.00794148
0.00819858
0.00835337
0.00842734
0.00846524
0.00848872
0.00850925
0.00852796
0.00854161
0.00855369
0.00855752
0.00850788
0.00797604
0.00595589
0.00475499
0.00439658
0.00430937
0.00429512
0.00429152
0.00428928
0.00428985
0.00429531
0.00432086
0.00439282
0.00456863
0.00493694
0.00559825
0.00658075
0.00759168
0.00806087
0.00802188
0.00809523
0.00806838
0.00848031
0.00845856
0.00864687
0.00866061
0.00871888
0.00874597
0.00876644
0.00872558
0.00839792
0.00447763
0.00471909
0.00518668
0.00598981
0.00714502
0.00789506
0.00805168
0.00803957
0.00809743
0.0081846
0.00833127
0.00839816
0.0084437
0.00846601
0.00848911
0.00850836
0.00852189
0.00852444
0.00847058
0.00819833
0.0072499
0.00557612
0.00465221
0.00438028
0.00430464
0.00429224
0.00428883
0.00428505
0.00428403
0.00428622
0.00429709
0.00433507
0.00443755
0.00467553
0.00515488
0.00597507
0.00710983
0.00799748
0.00828326
0.00825117
0.00833799
0.00836969
0.00849781
0.00861373
0.00861259
0.00866371
0.00865587
0.00864921
0.00845291
0.00795816
0.00655293
0.00443656
0.00465757
0.00511909
0.00597143
0.00726381
0.00796729
0.00822026
0.00819811
0.00828344
0.00829723
0.00839065
0.00841612
0.00845034
0.00846869
0.00848433
0.00849351
0.00846589
0.00830372
0.0076971
0.00616389
0.00510202
0.00456341
0.00436778
0.00429718
0.00428731
0.00428431
0.0042811
0.00427972
0.00427916
0.00428231
0.00429753
0.00434304
0.00446197
0.00473155
0.00526984
0.00617849
0.00735764
0.00835929
0.0082477
0.00840398
0.00841116
0.00849287
0.00855705
0.008565
0.00862235
0.00861058
0.00860465
0.0083132
0.00779233
0.00585934
0.00476245
0.00438204
0.0045319
0.00485982
0.00551447
0.00666769
0.00774106
0.0082845
0.00822715
0.00829286
0.00836747
0.00840924
0.00843138
0.00844801
0.00845807
0.00845668
0.00837238
0.00800744
0.00690115
0.005535
0.00474975
0.00448845
0.00433158
0.0042967
0.00428108
0.0042808
0.00427709
0.00427592
0.00427554
0.00427542
0.00427795
0.00429082
0.00432926
0.00442946
0.00465887
0.00513128
0.00597953
0.00724267
0.0078332
0.00852516
0.00835353
0.00840259
0.00853591
0.00851559
0.00853729
0.00838333
0.00826897
0.00763814
0.00669996
0.00510398
0.00485363
0.00444269
0.00433574
0.00443408
0.00465423
0.00510471
0.00591923
0.00716672
0.00787529
0.00835317
0.00824617
0.0083505
0.00838071
0.00840716
0.00840503
0.00835135
0.00814722
0.00754625
0.00611964
0.00509664
0.00455457
0.00440553
0.00431218
0.00428588
0.00427613
0.00427412
0.00427305
0.00427251
0.00427268
0.00427252
0.00427311
0.00427576
0.00428609
0.00431513
0.00438736
0.00454784
0.004874
0.0054653
0.00639012
0.00759205
0.00789913
0.00836857
0.00828104
0.00827791
0.00824042
0.0079718
0.00772364
0.00663342
0.00574926
0.00500305
0.00445919
0.00450424
0.0043759
0.00429218
0.00432996
0.00442366
0.00463786
0.00508038
0.00584711
0.00690342
0.00796292
0.00800424
0.00821879
0.00820866
0.0081997
0.00808225
0.0077058
0.00680407
0.00551197
0.00470276
0.00449363
0.00433115
0.00430229
0.00427597
0.00427108
0.0042692
0.00426936
0.00426877
0.00427006
0.00427102
0.0042716
0.00427286
0.00427577
0.00428347
0.00430235
0.00434605
0.00443876
0.0046208
0.00494598
0.00545597
0.00613313
0.00672466
0.00726437
0.0071815
0.00725173
0.00690076
0.00627362
0.0054901
0.00506905
0.00468456
0.00449229
0.00436519
0.00437562
0.00434483
0.00427497
0.00428612
0.00431891
0.0043976
0.0045632
0.00488158
0.00539879
0.00609498
0.0066933
0.00702361
0.00701146
0.00701147
0.00652293
0.00568611
0.00495365
0.0045848
0.0043574
0.00432697
0.0042773
0.00427193
0.00426577
0.00426576
0.00426518
0.00426617
0.00426758
0.00426987
0.00427152
0.00427317
0.00427489
0.00427848
0.00428493
0.00429735
0.00432244
0.00437205
0.00446228
0.00461757
0.00485368
0.00515764
0.00539549
0.00554279
0.00555873
0.00551552
0.00527088
0.00490678
0.00465938
0.00451339
0.00435821
0.0043617
0.00432692
0.00432758
0.00432344
0.00426896
0.00426928
0.00427549
0.00429532
0.00434187
0.00443197
0.0045998
0.00483104
0.00509739
0.00518534
0.00523736
0.00520481
0.00494148
0.00461938
0.00436467
0.00434657
0.00427804
0.0042748
0.00426168
0.00426186
0.00426117
0.00426322
0.00426402
0.00426616
0.00426899
0.00427164
0.00427403
0.00427677
0.00427947
0.00428396
0.00428974
0.00429893
0.00431431
0.00433954
0.00438144
0.00444679
0.00454055
0.00464359
0.00474973
0.00474991
0.0047616
0.00469657
0.00458114
0.00447212
0.00436457
0.00435219
0.00430979
0.00431342
0.00430719
0.00430911
0.00431058
0.00426821
0.00426424
0.00426246
0.00426355
0.00427106
0.00429153
0.00432828
0.00439244
0.00445337
0.00450199
0.00450327
0.00448775
0.00439572
0.00429722
0.00427864
0.00426235
0.00425781
0.00425645
0.00425555
0.00425835
0.00426044
0.00426352
0.00426529
0.00426834
0.00427247
0.00427579
0.00427893
0.00428293
0.00428678
0.00429218
0.00429816
0.00430551
0.00431638
0.00433059
0.00434947
0.00437631
0.00440929
0.00444375
0.00445338
0.00445917
0.00444962
0.00441037
0.00436249
0.00432435
0.00431133
0.00430077
0.00429736
0.00429782
0.00429792
0.00430101
0.00430256
0.00426871
0.00426432
0.00426044
0.00425467
0.00425267
0.00425251
0.0042593
0.00426449
0.00427749
0.00428687
0.00428708
0.00428134
0.00426053
0.00424699
0.00424721
0.00424624
0.00424893
0.00425123
0.00425455
0.00425882
0.00426219
0.00426605
0.00426909
0.00427334
0.00427837
0.00428234
0.00428645
0.00429157
0.00429653
0.00430217
0.00430883
0.00431606
0.00432408
0.00433388
0.0043443
0.00435366
0.00436276
0.00436667
0.00436766
0.00435994
0.00434565
0.00432575
0.00431173
0.00429525
0.00429644
0.00429336
0.0042931
0.00429565
0.00429712
0.0042975
0.00429784
0.00426844
0.00426387
0.00425914
0.00425293
0.00424959
0.00424374
0.00423743
0.00423774
0.00423649
0.00423657
0.00423634
0.00423554
0.00423517
0.00423577
0.00424108
0.0042445
0.00424881
0.00425277
0.00425708
0.00426196
0.0042669
0.00427134
0.0042755
0.00428082
0.00428636
0.00429098
0.00429603
0.00430233
0.00430775
0.00431422
0.00432122
0.00432871
0.00433614
0.00434327
0.00434992
0.00435538
0.00435653
0.00435469
0.00434788
0.00433865
0.00432657
0.00431532
0.0043057
0.00429921
0.00429654
0.00429651
0.00429649
0.00429848
0.00429926
0.00429889
0.00429772
0.00426727
0.00426248
0.00425769
0.00425178
0.0042457
0.00424115
0.00423243
0.00423205
0.00422746
0.00422757
0.00422713
0.00422866
0.0042319
0.00423583
0.00424129
0.00424636
0.0042514
0.00425722
0.00426257
0.00426824
0.00427348
0.00427894
0.00428421
0.00429025
0.00429627
0.00430123
0.00430777
0.00431431
0.00432009
0.00432765
0.00433458
0.00434253
0.00434966
0.00435623
0.0043606
0.00436188
0.00436146
0.00435808
0.00435024
0.00434072
0.00432888
0.00431846
0.00430873
0.0043055
0.00430229
0.0043045
0.00430446
0.00430512
0.00430491
0.00430383
0.00430078
0.00426498
0.00426026
0.00425519
0.00424873
0.00424328
0.00423771
0.00423134
0.00422986
0.00422691
0.00422686
0.00422732
0.00423023
0.00423409
0.00423884
0.00424467
0.00425112
0.00425732
0.00426405
0.00427026
0.00427628
0.00428235
0.00428838
0.0042946
0.00430162
0.00430738
0.00431306
0.00432014
0.00432697
0.00433343
0.00434114
0.0043484
0.0043561
0.00436292
0.00436837
0.00437243
0.00437387
0.00437272
0.00436739
0.00435874
0.00434857
0.00433776
0.00432774
0.00432231
0.00431556
0.0043132
0.00431049
0.00431614
0.00431494
0.00431566
0.00431338
0.00430925
0.00426243
0.00425673
0.00425222
0.00424458
0.00424036
0.00423514
0.00423026
0.00422911
0.00422796
0.00422795
0.00422995
0.00423398
0.00423886
0.00424481
0.0042512
0.0042587
0.00426549
0.00427302
0.00427979
0.00428678
0.00429341
0.00429991
0.00430617
0.00431314
0.00431946
0.00432538
0.00433287
0.00433953
0.00434665
0.00435403
0.00436106
0.00436828
0.00437448
0.00438018
0.00438343
0.00438462
0.00438338
0.00437858
0.00437161
0.0043634
0.00435399
0.00434574
0.00433696
0.00432914
0.00432396
0.00432102
0.0043242
0.00432483
0.00432602
0.00432596
0.00431993
0.00425828
0.00425318
0.00424836
0.00424126
0.00423725
0.00423302
0.00422926
0.00422941
0.004229
0.00423117
0.00423433
0.00423935
0.00424557
0.00425251
0.00426002
0.00426812
0.00427569
0.0042838
0.00429135
0.00429872
0.0043057
0.00431223
0.00431901
0.00432611
0.00433217
0.00433843
0.00434565
0.00435238
0.00435941
0.00436586
0.00437286
0.00437933
0.00438565
0.00439121
0.00439438
0.0043957
0.00439497
0.00439129
0.00438473
0.0043762
0.00436544
0.00435495
0.00434525
0.00433599
0.00433187
0.00432732
0.00432765
0.00433784
0.00433747
0.00434048
0.00433711
0.00425424
0.00424924
0.00424376
0.00423774
0.00423401
0.00423134
0.00423018
0.00423004
0.00423156
0.00423534
0.00423994
0.0042464
0.00425394
0.00426178
0.00427051
0.00427907
0.00428775
0.0042962
0.00430421
0.00431179
0.00431872
0.00432546
0.00433229
0.00433891
0.00434518
0.00435155
0.00435779
0.00436429
0.00437064
0.00437653
0.00438289
0.00438912
0.00439425
0.00439881
0.00440221
0.00440284
0.004403
0.00439981
0.00439442
0.00438709
0.00437829
0.00436981
0.00436088
0.00435092
0.00434121
0.00433453
0.0043293
0.0043368
0.00434185
0.00435139
0.00435257
0.00424976
0.00424416
0.00424032
0.00423444
0.00423208
0.00423069
0.00423073
0.00423185
0.00423563
0.00424076
0.00424729
0.00425501
0.0042639
0.00427267
0.00428247
0.00429144
0.00430104
0.00430982
0.00431807
0.00432553
0.00433235
0.00433914
0.00434564
0.0043519
0.00435783
0.00436345
0.00436905
0.00437503
0.0043806
0.0043861
0.00439159
0.00439659
0.00440138
0.00440526
0.0044083
0.00440952
0.00440963
0.00440798
0.00440409
0.00439823
0.0043896
0.00437906
0.00436585
0.00435404
0.00434268
0.00432927
0.00432427
0.00432751
0.00434347
0.00435194
0.00436432
0.00424516
0.00424047
0.00423562
0.00423244
0.00423105
0.00423099
0.00423204
0.00423574
0.00424119
0.0042476
0.0042558
0.0042651
0.00427475
0.00428485
0.00429527
0.00430521
0.00431515
0.00432422
0.00433218
0.0043396
0.0043465
0.00435306
0.00435918
0.00436458
0.00436946
0.00437478
0.00437951
0.004385
0.00438972
0.00439456
0.0043992
0.0044036
0.0044075
0.00441074
0.0044139
0.00441552
0.00441596
0.00441452
0.00441013
0.00440317
0.00439391
0.0043825
0.00437128
0.0043607
0.00434353
0.00434754
0.0043329
0.00434706
0.00438657
0.00444867
0.00448703
0.0087376
0.00874134
0.00874596
0.00875028
0.00875494
0.00875882
0.00876332
0.00876637
0.00876974
0.00877185
0.00877361
0.00877456
0.00877512
0.00877506
0.00877425
0.00877359
0.0087714
0.00877038
0.00876842
0.00876661
0.00876465
0.00876274
0.00876067
0.00875925
0.00875771
0.0087567
0.00875243
0.00875735
0.00876182
0.0087659
0.00876999
0.0087731
0.00877568
0.00877768
0.00877905
0.0087795
0.00877941
0.00877886
0.00877721
0.00877638
0.00877318
0.00877239
0.00876977
0.00876722
0.00876516
0.00876313
0.00876129
0.00875964
0.0087584
0.00875753
0.00875716
0.00875729
0.00876756
0.00877314
0.00877794
0.00878169
0.00878489
0.00878723
0.00878832
0.00878881
0.00878854
0.00878757
0.00878558
0.00878339
0.00878045
0.00877798
0.008774
0.00877081
0.00876808
0.00876544
0.00876298
0.00876085
0.00875916
0.0087579
0.00875733
0.00875746
0.00875799
0.00875904
0.00878257
0.00878938
0.00879368
0.00879709
0.00879983
0.00880086
0.00880086
0.00880027
0.00879832
0.00879557
0.00879201
0.00878838
0.00878406