/*--------------------------------*- C++ -*----------------------------------*\
  =========                 |
  \\      /  F ield         | OpenFOAM: The Open Source CFD Toolbox
   \\    /   O peration     | Website:  https://openfoam.org
    \\  /    A nd           | Version:  10
     \\/     M anipulation  |
\*---------------------------------------------------------------------------*/
FoamFile
{
    format      ascii;
    class       volVectorField;
    location    "0.251614";
    object      U;
}
// * * * * * * * * * * * * * * * * * * * * * * * * * * * * * * * * * * * * * //

dimensions      [0 1 -1 0 0 0 0];

internalField   nonuniform List<vector> 
15708
(
(0.398179 -0.049183 0)
(0.391979 -0.0400499 0)
(0.38711 -0.0313345 0)
(0.38363 -0.0233368 0)
(0.381474 -0.0162729 0)
(0.380452 -0.0102156 0)
(0.380452 -0.00526908 0)
(0.381349 -0.00149048 0)
(0.382946 0.00113123 0)
(0.385054 0.0026183 0)
(0.387451 0.00307282 0)
(0.389969 0.00258292 0)
(0.392478 0.00123553 0)
(0.39489 -0.00084226 0)
(0.397127 -0.00349993 0)
(0.399146 -0.00659433 0)
(0.40093 -0.00997675 0)
(0.402475 -0.0134799 0)
(0.403797 -0.0169333 0)
(0.404911 -0.0201612 0)
(0.405844 -0.0229969 0)
(0.406616 -0.0252757 0)
(0.407245 -0.0268456 0)
(0.407746 -0.0275697 0)
(0.408117 -0.0273311 0)
(0.408351 -0.0260299 0)
(0.40844 -0.0235944 0)
(0.408373 -0.019998 0)
(0.40818 -0.0152459 0)
(0.40787 -0.00931695 0)
(0.407431 -0.00228357 0)
(0.406948 0.00574213 0)
(0.406573 0.0145508 0)
(0.406426 0.0239093 0)
(0.406594 0.0336189 0)
(0.407191 0.0434438 0)
(0.408332 0.053139 0)
(0.410106 0.0624655 0)
(0.412569 0.0711978 0)
(0.41574 0.0791361 0)
(0.419605 0.0861096 0)
(0.424113 0.0919752 0)
(0.429187 0.0966155 0)
(0.434733 0.0999495 0)
(0.440639 0.101906 0)
(0.446796 0.102463 0)
(0.453065 0.101625 0)
(0.459329 0.0994344 0)
(0.465492 0.0959732 0)
(0.471459 0.0913437 0)
(0.477167 0.0857102 0)
(0.407494 -0.0504611 0)
(0.401045 -0.0412269 0)
(0.395624 -0.0322988 0)
(0.39136 -0.023994 0)
(0.388246 -0.0165589 0)
(0.3862 -0.0101545 0)
(0.385076 -0.00482284 0)
(0.384786 -0.000672122 0)
(0.385224 0.00227346 0)
(0.38622 0.00402725 0)
(0.387603 0.00466572 0)
(0.3892 0.00429796 0)
(0.3909 0.00302463 0)
(0.392632 0.000972243 0)
(0.394346 -0.00170997 0)
(0.395991 -0.00485738 0)
(0.39756 -0.00831856 0)
(0.399061 -0.0119155 0)
(0.40051 -0.0154735 0)
(0.40192 -0.0188181 0)
(0.40331 -0.0217808 0)
(0.404695 -0.0242012 0)
(0.406083 -0.0259312 0)
(0.407467 -0.0268369 0)
(0.408832 -0.0268037 0)
(0.41015 -0.025733 0)
(0.411383 -0.0235531 0)
(0.41249 -0.0202195 0)
(0.413441 -0.0157122 0)
(0.414237 -0.0100813 0)
(0.414886 -0.00337163 0)
(0.415372 0.00436191 0)
(0.415721 0.0129771 0)
(0.41606 0.022246 0)
(0.416501 0.0319404 0)
(0.417129 0.0418186 0)
(0.418055 0.0516419 0)
(0.41937 0.061148 0)
(0.421146 0.070097 0)
(0.42343 0.0782636 0)
(0.426235 0.0854484 0)
(0.429545 0.0914855 0)
(0.433314 0.0962409 0)
(0.437476 0.0996171 0)
(0.44196 0.101552 0)
(0.446679 0.10202 0)
(0.451547 0.101028 0)
(0.456483 0.0986448 0)
(0.461422 0.0949613 0)
(0.466307 0.0901161 0)
(0.471107 0.0842748 0)
(0.416763 -0.0517422 0)
(0.410192 -0.0425478 0)
(0.404334 -0.033533 0)
(0.399372 -0.0250287 0)
(0.39535 -0.0173071 0)
(0.392257 -0.0105684 0)
(0.39003 -0.00493108 0)
(0.388563 -0.000439164 0)
(0.387783 0.00284447 0)
(0.387603 0.00488978 0)
(0.387897 0.00576983 0)
(0.388522 0.0055771 0)
(0.389364 0.00443494 0)
(0.390379 0.00248227 0)
(0.391532 -0.000135692 0)
(0.392778 -0.00326457 0)
(0.394111 -0.00672081 0)
(0.395554 -0.010328 0)
(0.397115 -0.0139086 0)
(0.398808 -0.0172907 0)
(0.400643 -0.0203068 0)
(0.402624 -0.0227993 0)
(0.404745 -0.0246262 0)
(0.406986 -0.0256594 0)
(0.409315 -0.0257864 0)
(0.411682 -0.0249146 0)
(0.414028 -0.0229725 0)
(0.416288 -0.0199099 0)
(0.418401 -0.0157019 0)
(0.420306 -0.0103578 0)
(0.421983 -0.00393883 0)
(0.423427 0.00345831 0)
(0.424612 0.011754 0)
(0.425565 0.0208129 0)
(0.426358 0.0303952 0)
(0.427096 0.0402453 0)
(0.427873 0.0501094 0)
(0.428776 0.0597229 0)
(0.429896 0.0688293 0)
(0.431297 0.0771829 0)
(0.433023 0.0845553 0)
(0.43509 0.0907607 0)
(0.437492 0.0956403 0)
(0.440205 0.0990855 0)
(0.443195 0.101028 0)
(0.446419 0.101442 0)
(0.449835 0.100351 0)
(0.453408 0.0978319 0)
(0.45711 0.0939941 0)
(0.460926 0.0889989 0)
(0.464851 0.0830322 0)
(0.425861 -0.0529999 0)
(0.419295 -0.0439695 0)
(0.413125 -0.0349889 0)
(0.407567 -0.026393 0)
(0.402713 -0.0184741 0)
(0.39861 -0.0114623 0)
(0.395261 -0.00551827 0)
(0.392635 -0.000734081 0)
(0.39064 0.00285924 0)
(0.389245 0.00523433 0)
(0.388402 0.00640574 0)
(0.387992 0.00646056 0)
(0.387945 0.00552339 0)
(0.388214 0.00372969 0)
(0.388758 0.00124772 0)
(0.389571 -0.00176491 0)
(0.390661 -0.00512699 0)
(0.392033 -0.00865577 0)
(0.393695 -0.01218 0)
(0.395653 -0.0155232 0)
(0.397912 -0.0185218 0)
(0.400463 -0.0210237 0)
(0.403284 -0.0228931 0)
(0.406345 -0.0240071 0)
(0.409595 -0.0242592 0)
(0.412967 -0.0235598 0)
(0.416382 -0.021838 0)
(0.419754 -0.0190411 0)
(0.422992 -0.0151422 0)
(0.426012 -0.0101418 0)
(0.42873 -0.00406532 0)
(0.431111 0.003003 0)
(0.433143 0.0109498 0)
(0.434792 0.019701 0)
(0.436047 0.0290554 0)
(0.436973 0.0387842 0)
(0.437672 0.0485998 0)
(0.43823 0.0582409 0)
(0.438743 0.0674341 0)
(0.439288 0.0759183 0)
(0.439931 0.0834422 0)
(0.440735 0.0897927 0)
(0.441726 0.0947964 0)
(0.442937 0.0983217 0)
(0.444375 0.100297 0)
(0.446051 0.100696 0)
(0.447977 0.0995519 0)
(0.450167 0.0969544 0)
(0.452626 0.0930303 0)
(0.455387 0.0879586 0)
(0.458464 0.0819382 0)
(0.434678 -0.0542138 0)
(0.428239 -0.045445 0)
(0.421886 -0.036611 0)
(0.415851 -0.0280263 0)
(0.41026 -0.0199966 0)
(0.405213 -0.0127741 0)
(0.400774 -0.00655405 0)
(0.396968 -0.00146195 0)
(0.393786 0.00242782 0)
(0.391191 0.00512997 0)
(0.389173 0.0066287 0)
(0.387699 0.00699822 0)
(0.386701 0.00633585 0)
(0.386182 0.00479022 0)
(0.386123 0.00253106 0)
(0.386493 -0.000286558 0)
(0.387312 -0.00346335 0)
(0.388587 -0.00683465 0)
(0.390323 -0.0102234 0)
(0.392525 -0.0134578 0)
(0.39518 -0.0163785 0)
(0.398266 -0.0188426 0)
(0.401749 -0.0207078 0)
(0.405583 -0.0218638 0)
(0.409702 -0.022211 0)
(0.414026 -0.02166 0)
(0.418458 -0.0201432 0)
(0.422891 -0.0176057 0)
(0.427209 -0.014015 0)
(0.4313 -0.0093624 0)
(0.435058 -0.00366479 0)
(0.43839 0.00303696 0)
(0.441275 0.0106266 0)
(0.443655 0.018979 0)
(0.445448 0.0280139 0)
(0.446664 0.0374993 0)
(0.447366 0.0471818 0)
(0.447652 0.0567673 0)
(0.447615 0.0659681 0)
(0.447342 0.0745196 0)
(0.446922 0.0821453 0)
(0.446453 0.0886094 0)
(0.446016 0.0937158 0)
(0.445682 0.0973261 0)
(0.445532 0.099348 0)
(0.445626 0.0997672 0)
(0.446033 0.0986205 0)
(0.446822 0.096 0)
(0.448049 0.0920589 0)
(0.449768 0.0869808 0)
(0.452031 0.0809848 0)
(0.443131 -0.0553756 0)
(0.436931 -0.04695 0)
(0.430517 -0.0383536 0)
(0.424135 -0.0298704 0)
(0.41792 -0.0218066 0)
(0.412018 -0.0144403 0)
(0.406548 -0.00798135 0)
(0.401599 -0.00258727 0)
(0.397217 0.00164321 0)
(0.393434 0.00467357 0)
(0.390264 0.00653082 0)
(0.387697 0.00725948 0)
(0.385743 0.0069669 0)
(0.384422 0.00574912 0)
(0.383702 0.00380829 0)
(0.383601 0.00126816 0)
(0.384139 -0.00165683 0)
(0.385295 -0.00479645 0)
(0.387082 -0.00798519 0)
(0.389492 -0.0110444 0)
(0.392499 -0.0138391 0)
(0.396079 -0.0162122 0)
(0.40018 -0.0180421 0)
(0.404731 -0.0192131 0)
(0.409663 -0.0196346 0)
(0.414879 -0.0192194 0)
(0.420265 -0.0178968 0)
(0.425701 -0.0156096 0)
(0.431052 -0.0123242 0)
(0.436183 -0.00802268 0)
(0.44096 -0.00271311 0)
(0.445248 0.00357293 0)
(0.448946 0.0107684 0)
(0.452059 0.0187124 0)
(0.454463 0.0273529 0)
(0.456054 0.036494 0)
(0.456868 0.0459469 0)
(0.456952 0.0553826 0)
(0.456434 0.0645162 0)
(0.455402 0.0730564 0)
(0.453949 0.0807217 0)
(0.452223 0.0872559 0)
(0.450347 0.0924453 0)
(0.448458 0.0961284 0)
(0.446693 0.098212 0)
(0.445185 0.0986779 0)
(0.444066 0.0975676 0)
(0.443454 0.0949869 0)
(0.443455 0.0910933 0)
(0.444159 0.086082 0)
(0.445628 0.0801711 0)
(0.451153 -0.0564972 0)
(0.445295 -0.0484854 0)
(0.43894 -0.0401769 0)
(0.432338 -0.0318661 0)
(0.425623 -0.0238371 0)
(0.418976 -0.0163745 0)
(0.412569 -0.00970674 0)
(0.406538 -0.00402281 0)
(0.400992 0.000559014 0)
(0.396024 0.00397445 0)
(0.391704 0.00622553 0)
(0.388082 0.00736146 0)
(0.385144 0.0074841 0)
(0.382982 0.00670136 0)
(0.381608 0.00511525 0)
(0.381 0.00297412 0)
(0.381219 0.000375988 0)
(0.382227 -0.00247428 0)
(0.384034 -0.00539474 0)
(0.386612 -0.00824418 0)
(0.38993 -0.0108593 0)
(0.393951 -0.0131163 0)
(0.398605 -0.0148854 0)
(0.403816 -0.0160609 0)
(0.409493 -0.0165411 0)
(0.415534 -0.0162528 0)
(0.42182 -0.0151236 0)
(0.428201 -0.0130967 0)
(0.434527 -0.0101304 0)
(0.440644 -0.00619107 0)
(0.446393 -0.00128215 0)
(0.451622 0.0045723 0)
(0.456181 0.0113307 0)
(0.460022 0.0188889 0)
(0.463028 0.0270829 0)
(0.465072 0.0358484 0)
(0.466085 0.044963 0)
(0.466061 0.0541782 0)
(0.465134 0.0631708 0)
(0.463394 0.0716238 0)
(0.460965 0.079269 0)
(0.458014 0.0858234 0)
(0.454714 0.091054 0)
(0.451269 0.0947977 0)
(0.447888 0.0969522 0)
(0.444778 0.097484 0)
(0.442136 0.0964478 0)
(0.440136 0.093958 0)
(0.438932 0.09017 0)
(0.438634 0.0852819 0)
(0.439333 0.0795143 0)
(0.458705 -0.0576087 0)
(0.453285 -0.0500389 0)
(0.447106 -0.0420699 0)
(0.440405 -0.0339591 0)
(0.433329 -0.0260106 0)
(0.426061 -0.0184786 0)
(0.418815 -0.0116281 0)
(0.41178 -0.00565676 0)
(0.40513 -0.000713754 0)
(0.399013 0.00312342 0)
(0.39356 0.00582991 0)
(0.388866 0.00743281 0)
(0.384997 0.00800839 0)
(0.381973 0.00771532 0)
(0.379902 0.00659954 0)
(0.378795 0.00488005 0)
(0.378625 0.00269253 0)
(0.379456 0.000197235 0)
(0.381234 -0.00242498 0)
(0.383931 -0.00502007 0)
(0.387505 -0.0074421 0)
(0.391901 -0.00956205 0)
(0.39705 -0.0112574 0)
(0.402855 -0.0124305 0)
(0.409218 -0.0129672 0)
(0.416014 -0.0127996 0)
(0.423118 -0.011857 0)
(0.430374 -0.0100849 0)
(0.43763 -0.00743095 0)
(0.444701 -0.00386011 0)
(0.451399 0.000642077 0)
(0.457545 0.00606052 0)
(0.46296 0.012366 0)
(0.467522 0.0194812 0)
(0.471147 0.0272296 0)
(0.473674 0.0355965 0)
(0.474954 0.0443169 0)
(0.474927 0.0532444 0)
(0.473656 0.0620089 0)
(0.47128 0.0703311 0)
(0.467926 0.0778911 0)
(0.463787 0.0844059 0)
(0.459097 0.0896522 0)
(0.454124 0.0934382 0)
(0.449141 0.0956488 0)
(0.444447 0.0962686 0)
(0.4403 0.0953443 0)
(0.436937 0.0929827 0)
(0.434543 0.0893436 0)
(0.433267 0.0846246 0)
(0.433208 0.079038 0)
(0.465755 -0.0587119 0)
(0.46086 -0.051608 0)
(0.454986 -0.0440038 0)
(0.44832 -0.0361169 0)
(0.441002 -0.0282479 0)
(0.433252 -0.0206675 0)
(0.425286 -0.0136374 0)
(0.417348 -0.00737382 0)
(0.409668 -0.00204302 0)
(0.402457 0.00225302 0)
(0.395901 0.00546535 0)
(0.390145 0.00760223 0)
(0.385314 0.00871689 0)
(0.381467 0.00891528 0)
(0.378674 0.00836411 0)
(0.377001 0.00708429 0)
(0.376451 0.00537337 0)
(0.377021 0.00326071 0)
(0.378716 0.000980747 0)
(0.381475 -0.00135104 0)
(0.385243 -0.00357406 0)
(0.389961 -0.00553756 0)
(0.395525 -0.00717576 0)
(0.401859 -0.0083417 0)
(0.408841 -0.00895697 0)
(0.416334 -0.00893551 0)
(0.424199 -0.00819861 0)
(0.432275 -0.00667575 0)
(0.44039 -0.00432671 0)
(0.448352 -0.0011263 0)
(0.455954 0.00296507 0)
(0.462996 0.00795179 0)
(0.469261 0.0137992 0)
(0.474559 0.0204552 0)
(0.47883 0.0277808 0)
(0.481861 0.0357114 0)
(0.483448 0.0440633 0)
(0.483481 0.0526176 0)
(0.481958 0.0611373 0)
(0.479018 0.0692675 0)
(0.47479 0.0766969 0)
(0.469527 0.0831496 0)
(0.463493 0.0883742 0)
(0.457016 0.0921741 0)
(0.450474 0.0944404 0)
(0.444232 0.095161 0)
(0.438611 0.094368 0)
(0.433905 0.092161 0)
(0.430345 0.0887016 0)
(0.428106 0.0841729 0)
(0.427283 0.0787754 0)
(0.472334 -0.05986 0)
(0.468009 -0.0532152 0)
(0.462557 -0.0459388 0)
(0.456076 -0.0382818 0)
(0.448666 -0.0304863 0)
(0.440553 -0.0228442 0)
(0.43199 -0.0156218 0)
(0.423256 -0.00903507 0)
(0.414637 -0.00328871 0)
(0.406398 0.00150495 0)
(0.39878 0.00526907 0)
(0.391987 0.00798729 0)
(0.386184 0.00969756 0)
(0.381503 0.010472 0)
(0.377961 0.0104556 0)
(0.375703 0.00973388 0)
(0.374707 0.00845852 0)
(0.374967 0.00678973 0)
(0.37652 0.00485459 0)
(0.379254 0.00279993 0)
(0.383166 0.000781962 0)
(0.388114 -0.00108673 0)
(0.394028 -0.00267986 0)
(0.400819 -0.00386028 0)
(0.408337 -0.00457145 0)
(0.416457 -0.00470749 0)
(0.425038 -0.0041955 0)
(0.43389 -0.00295454 0)
(0.442814 -0.000942629 0)
(0.451628 0.00189509 0)
(0.460113 0.0055874 0)
(0.468023 0.0101452 0)
(0.475122 0.0155475 0)
(0.481177 0.0217636 0)
(0.486091 0.0286883 0)
(0.489654 0.0361929 0)
(0.491571 0.0441626 0)
(0.491725 0.0523784 0)
(0.490038 0.0606394 0)
(0.486581 0.068545 0)
(0.481558 0.0758352 0)
(0.475215 0.0821842 0)
(0.467878 0.0873641 0)
(0.459959 0.0911688 0)
(0.451905 0.0934977 0)
(0.444153 0.0943182 0)
(0.437095 0.0936604 0)
(0.431072 0.0916227 0)
(0.426368 0.0883468 0)
(0.423163 0.0840038 0)
(0.421572 0.0787794 0)
(0.478422 -0.0611364 0)
(0.474785 -0.0548319 0)
(0.469873 -0.0478836 0)
(0.463681 -0.040414 0)
(0.456321 -0.0326561 0)
(0.44799 -0.024918 0)
(0.438966 -0.0174504 0)
(0.429556 -0.0105113 0)
(0.42008 -0.00429697 0)
(0.410882 0.00103772 0)
(0.402249 0.00539855 0)
(0.394441 0.00874755 0)
(0.38767 0.0110944 0)
(0.382105 0.0124934 0)
(0.377826 0.0130306 0)
(0.374907 0.0128918 0)
(0.373416 0.0120452 0)
(0.373329 0.0108319 0)
(0.374629 0.00920849 0)
(0.377292 0.00742549 0)
(0.381229 0.00559225 0)
(0.386336 0.00380311 0)
(0.392548 0.00223902 0)
(0.399724 0.000982042 0)
(0.407721 0.000135348 0)
(0.41641 -0.00019893 0)
(0.425631 6.69471e-05 0)
(0.435195 0.00100036 0)
(0.4449 0.00266397 0)
(0.454538 0.00511339 0)
(0.463874 0.00838913 0)
(0.472637 0.0125148 0)
(0.480576 0.0174925 0)
(0.487411 0.0232872 0)
(0.492984 0.0298289 0)
(0.497068 0.0369586 0)
(0.499377 0.0445755 0)
(0.499712 0.0525285 0)
(0.497889 0.0605194 0)
(0.493983 0.0682541 0)
(0.488208 0.0753945 0)
(0.48084 0.0816614 0)
(0.472269 0.086797 0)
(0.462958 0.090614 0)
(0.453437 0.0930041 0)
(0.444225 0.0939243 0)
(0.435761 0.0934012 0)
(0.428453 0.0915225 0)
(0.422601 0.0884094 0)
(0.418426 0.084218 0)
(0.416035 0.0791171 0)
(0.484144 -0.0625437 0)
(0.481253 -0.0565566 0)
(0.476922 -0.0498416 0)
(0.471208 -0.0424838 0)
(0.464043 -0.0346908 0)
(0.455626 -0.0267749 0)
(0.446266 -0.0190018 0)
(0.436283 -0.0116449 0)
(0.426055 -0.0049076 0)
(0.415962 0.00102468 0)
(0.406356 0.00603237 0)
(0.397549 0.010052 0)
(0.389803 0.0130662 0)
(0.383321 0.0151057 0)
(0.378259 0.0162357 0)
(0.374629 0.0166022 0)
(0.372569 0.0162638 0)
(0.372058 0.0154015 0)
(0.373036 0.0141016 0)
(0.375546 0.0125345 0)
(0.379427 0.0108106 0)
(0.384618 0.00907516 0)
(0.391038 0.00747474 0)
(0.398519 0.00609699 0)
(0.406925 0.00506162 0)
(0.416127 0.0044767 0)
(0.425954 0.00443661 0)
(0.43619 0.00501516 0)
(0.446633 0.00629242 0)
(0.457073 0.00833369 0)
(0.467244 0.0111931 0)
(0.476872 0.0149069 0)
(0.485654 0.0194862 0)
(0.493287 0.0249035 0)
(0.499548 0.0311025 0)
(0.504197 0.0379233 0)
(0.506944 0.0453018 0)
(0.50748 0.0530294 0)
(0.50558 0.0608505 0)
(0.501279 0.0684566 0)
(0.494794 0.0755116 0)
(0.486451 0.0817316 0)
(0.476674 0.0868547 0)
(0.466027 0.0907099 0)
(0.455085 0.093172 0)
(0.444442 0.094193 0)
(0.434602 0.0937966 0)
(0.426012 0.0920467 0)
(0.419011 0.0890511 0)
(0.41383 0.0849426 0)
(0.410599 0.0798769 0)
(0.489522 -0.0641668 0)
(0.487466 -0.0584584 0)
(0.483888 -0.0518122 0)
(0.478735 -0.0444654 0)
(0.471908 -0.0365507 0)
(0.463547 -0.0283378 0)
(0.453967 -0.020162 0)
(0.443521 -0.0122809 0)
(0.43262 -0.004944 0)
(0.421695 0.00165329 0)
(0.411147 0.00735894 0)
(0.401345 0.0120797 0)
(0.392602 0.0157788 0)
(0.385168 0.0184623 0)
(0.379231 0.0201831 0)
(0.374862 0.0210233 0)
(0.372158 0.0211609 0)
(0.371116 0.020575 0)
(0.371712 0.0195498 0)
(0.373941 0.0181268 0)
(0.377688 0.0164366 0)
(0.382892 0.0146831 0)
(0.389429 0.0129529 0)
(0.397139 0.0113745 0)
(0.405902 0.0100752 0)
(0.415567 0.00917467 0)
(0.425945 0.00876586 0)
(0.436824 0.00894032 0)
(0.447994 0.00979374 0)
(0.459222 0.0113998 0)
(0.470242 0.0138266 0)
(0.480744 0.017127 0)
(0.490404 0.0213248 0)
(0.498877 0.0264117 0)
(0.505868 0.0323366 0)
(0.511143 0.0389532 0)
(0.514368 0.0461904 0)
(0.515153 0.0538222 0)
(0.513212 0.061603 0)
(0.508543 0.0691864 0)
(0.50138 0.0762805 0)
(0.492086 0.0825217 0)
(0.481157 0.0877413 0)
(0.46919 0.0916791 0)
(0.456856 0.0942594 0)
(0.444798 0.0953929 0)
(0.433588 0.0950862 0)
(0.423699 0.0934032 0)
(0.41551 0.0904356 0)
(0.409275 0.0863061 0)
(0.405139 0.0811521 0)
(0.494679 -0.0661628 0)
(0.493577 -0.0605286 0)
(0.490852 -0.0538868 0)
(0.486376 -0.0463793 0)
(0.480054 -0.0381803 0)
(0.471888 -0.0295325 0)
(0.462196 -0.0207963 0)
(0.451376 -0.0122705 0)
(0.439863 -0.0042199 0)
(0.428143 0.00312687 0)
(0.41666 0.00958674 0)
(0.40585 0.0150412 0)
(0.396072 0.0194302 0)
(0.38763 0.0227376 0)
(0.380743 0.0250038 0)
(0.375557 0.0262954 0)
(0.372087 0.0267679 0)
(0.370423 0.0264401 0)
(0.370565 0.0255824 0)
(0.3724 0.0241778 0)
(0.375934 0.0224661 0)
(0.381061 0.0205708 0)
(0.38763 0.018613 0)
(0.395513 0.0167281 0)
(0.404574 0.0150833 0)
(0.41465 0.0137656 0)
(0.425541 0.0129022 0)
(0.437045 0.0125956 0)
(0.448931 0.0129548 0)
(0.460965 0.0140772 0)
(0.472854 0.0160455 0)
(0.484275 0.0189309 0)
(0.494867 0.022776 0)
(0.504244 0.0275868 0)
(0.512046 0.0333226 0)
(0.518012 0.0398479 0)
(0.521774 0.0470963 0)
(0.522852 0.0547835 0)
(0.520905 0.0626806 0)
(0.51591 0.0704584 0)
(0.508087 0.0777286 0)
(0.497865 0.0842237 0)
(0.485794 0.0896396 0)
(0.472508 0.0937724 0)
(0.458773 0.0965127 0)
(0.445269 0.0977533 0)
(0.432628 0.0975022 0)
(0.421401 0.0958129 0)
(0.411968 0.0927679 0)
(0.404617 0.0884796 0)
(0.399494 0.0830772 0)
(0.49973 -0.068619 0)
(0.499701 -0.062924 0)
(0.497974 -0.0561367 0)
(0.494352 -0.0482496 0)
(0.488647 -0.0395553 0)
(0.480813 -0.0302773 0)
(0.471111 -0.0207795 0)
(0.459979 -0.0114525 0)
(0.447895 -0.0025405 0)
(0.435376 0.00564601 0)
(0.422938 0.0129282 0)
(0.411071 0.0191479 0)
(0.400197 0.0242109 0)
(0.390661 0.0281057 0)
(0.382733 0.0308562 0)
(0.376586 0.0325272 0)
(0.372276 0.0332183 0)
(0.369916 0.0330727 0)
(0.36944 0.032199 0)
(0.370814 0.0307258 0)
(0.374062 0.0288559 0)
(0.379002 0.0266812 0)
(0.385524 0.0243651 0)
(0.393525 0.0220769 0)
(0.402835 0.0199488 0)
(0.413274 0.0181091 0)
(0.424664 0.0166864 0)
(0.436772 0.0158072 0)
(0.449388 0.0156003 0)
(0.462246 0.0161786 0)
(0.475053 0.0176481 0)
(0.487456 0.0201011 0)
(0.499065 0.0236048 0)
(0.509447 0.0281897 0)
(0.518164 0.0338274 0)
(0.524953 0.0403982 0)
(0.529333 0.0478338 0)
(0.530759 0.055798 0)
(0.528896 0.0640872 0)
(0.523589 0.0722909 0)
(0.515131 0.080039 0)
(0.503968 0.0869823 0)
(0.490688 0.0927701 0)
(0.47604 0.0972319 0)
(0.460825 0.100177 0)
(0.445796 0.101545 0)
(0.431673 0.101327 0)
(0.419016 0.0995514 0)
(0.408244 0.0962982 0)
(0.399666 0.0916749 0)
(0.393453 0.0858145 0)
(0.504767 -0.0716727 0)
(0.506012 -0.065806 0)
(0.505465 -0.0586066 0)
(0.502878 -0.0501522 0)
(0.497933 -0.0406866 0)
(0.490559 -0.0305217 0)
(0.480913 -0.0200101 0)
(0.469502 -0.00964263 0)
(0.456848 0.000310921 0)
(0.443499 0.00948257 0)
(0.43005 0.0176561 0)
(0.417031 0.0246587 0)
(0.404944 0.0303945 0)
(0.394195 0.0348207 0)
(0.385093 0.0379549 0)
(0.377864 0.0398602 0)
(0.372606 0.0406494 0)
(0.3694 0.0404938 0)
(0.368229 0.0394357 0)
(0.369072 0.0377719 0)
(0.371896 0.0355459 0)
(0.376561 0.032938 0)
(0.382994 0.0301327 0)
(0.391044 0.0272963 0)
(0.400536 0.0245479 0)
(0.411308 0.0220603 0)
(0.42316 0.0199449 0)
(0.435891 0.0183694 0)
(0.449254 0.0174765 0)
(0.462992 0.0174101 0)
(0.476788 0.0183077 0)
(0.490273 0.0202878 0)
(0.503025 0.0234541 0)
(0.514555 0.0278627 0)
(0.524353 0.0335115 0)
(0.532117 0.0403223 0)
(0.53726 0.0481311 0)
(0.539176 0.0567003 0)
(0.537448 0.0656893 0)
(0.531891 0.074681 0)
(0.522781 0.0832325 0)
(0.510587 0.0908743 0)
(0.496017 0.0973265 0)
(0.479888 0.102291 0)
(0.463064 0.105584 0)
(0.4464 0.107132 0)
(0.430636 0.1069 0)
(0.416396 0.104921 0)
(0.404138 0.10128 0)
(0.394193 0.0960962 0)
(0.386756 0.0895225 0)
(0.509901 -0.0755225 0)
(0.512716 -0.0693361 0)
(0.513573 -0.0614654 0)
(0.512207 -0.0521773 0)
(0.5082 -0.0416185 0)
(0.501401 -0.0301936 0)
(0.491893 -0.0184068 0)
(0.480191 -0.00664129 0)
(0.466914 0.00455645 0)
(0.452618 0.0148831 0)
(0.438017 0.0240577 0)
(0.423703 0.0318871 0)
(0.410242 0.0382453 0)
(0.398111 0.043098 0)
(0.387687 0.0464737 0)
(0.379231 0.0484555 0)
(0.372893 0.0491622 0)
(0.368713 0.0487776 0)
(0.366743 0.047399 0)
(0.366951 0.0452903 0)
(0.369246 0.0425106 0)
(0.373589 0.0393013 0)
(0.379861 0.0358377 0)
(0.387895 0.0322437 0)
(0.397539 0.0287183 0)
(0.408603 0.0253955 0)
(0.420911 0.0224461 0)
(0.434262 0.0200334 0)
(0.448414 0.0183216 0)
(0.463098 0.0174948 0)
(0.477988 0.0177237 0)
(0.492697 0.0191705 0)
(0.506763 0.0219851 0)
(0.519647 0.0262648 0)
(0.530774 0.0320473 0)
(0.539717 0.0392639 0)
(0.545836 0.0477565 0)
(0.548414 0.0572641 0)
(0.546944 0.0673664 0)
(0.541163 0.0775677 0)
(0.531326 0.0873257 0)
(0.518035 0.0961456 0)
(0.502049 0.103586 0)
(0.484225 0.109315 0)
(0.465596 0.113124 0)
(0.44704 0.114883 0)
(0.429409 0.114571 0)
(0.413359 0.112237 0)
(0.39941 0.10799 0)
(0.387918 0.101979 0)
(0.379108 0.0943897 0)
(0.515276 -0.0804353 0)
(0.520019 -0.0737394 0)
(0.52258 -0.0649582 0)
(0.522675 -0.0544279 0)
(0.519856 -0.0424105 0)
(0.5137 -0.0293047 0)
(0.504377 -0.015774 0)
(0.492347 -0.00229678 0)
(0.478276 0.0104666 0)
(0.462896 0.0221834 0)
(0.446925 0.0324833 0)
(0.431079 0.0411412 0)
(0.41602 0.0480598 0)
(0.402307 0.0532178 0)
(0.390366 0.0566659 0)
(0.3805 0.0585151 0)
(0.37291 0.0589066 0)
(0.367644 0.0580341 0)
(0.364764 0.0561098 0)
(0.364211 0.0532675 0)
(0.365925 0.0497518 0)
(0.36989 0.0457204 0)
(0.375917 0.0413588 0)
(0.383882 0.036822 0)
(0.39363 0.0323095 0)
(0.404972 0.027972 0)
(0.417746 0.0240005 0)
(0.431735 0.0205694 0)
(0.44672 0.0178781 0)
(0.46244 0.0161331 0)
(0.478553 0.0155604 0)
(0.494664 0.0163789 0)
(0.510278 0.0187923 0)
(0.524795 0.0229814 0)
(0.537535 0.0290047 0)
(0.547998 0.0368881 0)
(0.5554 0.046382 0)
(0.55889 0.0572273 0)
(0.557812 0.068965 0)
(0.551858 0.0809617 0)
(0.541321 0.0924811 0)
(0.526766 0.103019 0)
(0.509068 0.111869 0)
(0.489286 0.118695 0)
(0.46847 0.123174 0)
(0.447695 0.125195 0)
(0.427851 0.124727 0)
(0.409695 0.121858 0)
(0.393787 0.116739 0)
(0.380526 0.10958 0)
(0.370163 0.100624 0)
(0.521034 -0.0867562 0)
(0.528144 -0.0793448 0)
(0.532849 -0.0693516 0)
(0.534723 -0.0571176 0)
(0.533282 -0.0431368 0)
(0.52798 -0.0278343 0)
(0.518818 -0.0119966 0)
(0.506328 0.0036238 0)
(0.491282 0.0183984 0)
(0.474497 0.0317472 0)
(0.456826 0.0432857 0)
(0.439129 0.052808 0)
(0.422173 0.0602191 0)
(0.406593 0.0655205 0)
(0.392883 0.0688122 0)
(0.381403 0.0702504 0)
(0.372379 0.070036 0)
(0.365911 0.0683875 0)
(0.361992 0.0655789 0)
(0.360612 0.0617582 0)
(0.361709 0.057226 0)
(0.36519 0.0521103 0)
(0.370932 0.0465987 0)
(0.37879 0.040904 0)
(0.388616 0.0351899 0)
(0.400219 0.0296371 0)
(0.413444 0.0244266 0)
(0.428106 0.0197635 0)
(0.443981 0.0158779 0)
(0.460835 0.0130158 0)
(0.478336 0.0114655 0)
(0.496076 0.0114973 0)
(0.513548 0.0134102 0)
(0.530061 0.017472 0)
(0.54488 0.0239081 0)
(0.557265 0.0326506 0)
(0.566309 0.0435446 0)
(0.571068 0.0562841 0)
(0.570687 0.0703058 0)
(0.564628 0.0848534 0)
(0.553254 0.0988582 0)
(0.537254 0.111731 0)
(0.517505 0.12256 0)
(0.495289 0.130838 0)
(0.471829 0.13622 0)
(0.448325 0.138544 0)
(0.425816 0.13782 0)
(0.405137 0.134182 0)
(0.386934 0.127867 0)
(0.37164 0.119175 0)
(0.359516 0.108431 0)
(0.527304 -0.0949337 0)
(0.537337 -0.0865928 0)
(0.544733 -0.075007 0)
(0.548824 -0.06055 0)
(0.549067 -0.0439193 0)
(0.544761 -0.0257443 0)
(0.535701 -0.00696016 0)
(0.522674 0.0115375 0)
(0.506287 0.028742 0)
(0.48766 0.0440239 0)
(0.467855 0.0569805 0)
(0.447866 0.0673921 0)
(0.428585 0.0751743 0)
(0.410759 0.0803948 0)
(0.394971 0.0832261 0)
(0.381633 0.08391 0)
(0.370991 0.0827242 0)
(0.363166 0.0799497 0)
(0.358133 0.0758807 0)
(0.355859 0.0707935 0)
(0.356269 0.0648931 0)
(0.359234 0.0584107 0)
(0.364654 0.0515087 0)
(0.372384 0.0443959 0)
(0.382258 0.0372396 0)
(0.394102 0.0302145 0)
(0.407782 0.0235224 0)
(0.423134 0.0173694 0)
(0.439963 0.0120249 0)
(0.458074 0.00779141 0)
(0.477136 0.005029 0)
(0.496747 0.004099 0)
(0.516432 0.00542316 0)
(0.53546 0.00934374 0)
(0.552858 0.0162016 0)
(0.567711 0.0260589 0)
(0.579021 0.0387962 0)
(0.585544 0.0540914 0)
(0.586176 0.0711495 0)
(0.580134 0.0891787 0)
(0.567853 0.106562 0)
(0.550061 0.12265 0)
(0.527748 0.136136 0)
(0.502485 0.146351 0)
(0.475723 0.152874 0)
(0.448848 0.155529 0)
(0.423069 0.154379 0)
(0.39936 0.149661 0)
(0.378447 0.141736 0)
(0.360812 0.131042 0)
(0.34672 0.11802 0)
(0.534083 -0.105544 0)
(0.54771 -0.0960561 0)
(0.558487 -0.0824463 0)
(0.565406 -0.065122 0)
(0.567715 -0.0449617 0)
(0.564613 -0.0230888 0)
(0.555696 -0.000387123 0)
(0.54174 0.021569 0)
(0.523539 0.0418796 0)
(0.502535 0.0595375 0)
(0.479998 0.0741363 0)
(0.457128 0.0854375 0)
(0.434985 0.0934251 0)
(0.414461 0.0982657 0)
(0.39624 0.100253 0)
(0.380776 0.099755 0)
(0.368334 0.0971529 0)
(0.359017 0.092821 0)
(0.352807 0.0870996 0)
(0.349601 0.0803301 0)
(0.349291 0.0727432 0)
(0.351747 0.0645708 0)
(0.356823 0.0559994 0)
(0.364393 0.047189 0)
(0.374287 0.0383137 0)
(0.386354 0.0295582 0)
(0.400476 0.0211254 0)
(0.416531 0.0132148 0)
(0.434376 0.00611328 0)
(0.45383 9.83536e-05 0)
(0.47465 -0.00424797 0)
(0.496454 -0.0065677 0)
(0.518737 -0.00613479 0)
(0.540695 -0.00238657 0)
(0.561243 0.00509904 0)
(0.579271 0.016473 0)
(0.593507 0.0315785 0)
(0.602385 0.0501179 0)
(0.604586 0.0713325 0)
(0.598801 0.093816 0)
(0.585474 0.116025 0)
(0.565601 0.136196 0)
(0.540075 0.153151 0)
(0.510998 0.165882 0)
(0.480078 0.173851 0)
(0.449002 0.176859 0)
(0.419213 0.175045 0)
(0.391865 0.16882 0)
(0.367785 0.158756 0)
(0.347487 0.145474 0)
(0.331224 0.129592 0)
(0.540918 -0.11923 0)
(0.558796 -0.108415 0)
(0.573697 -0.0923313 0)
(0.584258 -0.0713915 0)
(0.589244 -0.0466547 0)
(0.587818 -0.0198625 0)
(0.579345 0.00787358 0)
(0.564131 0.0344254 0)
(0.543658 0.0585317 0)
(0.519476 0.0790659 0)
(0.493407 0.0955175 0)
(0.466862 0.107667 0)
(0.441151 0.115601 0)
(0.417349 0.119648 0)
(0.396253 0.120285 0)
(0.378363 0.118056 0)
(0.363934 0.113494 0)
(0.353029 0.107091 0)
(0.345588 0.0992613 0)
(0.341455 0.0903784 0)
(0.340444 0.0807322 0)
(0.342391 0.0705521 0)
(0.347131 0.0599947 0)
(0.354523 0.0492011 0)
(0.364433 0.0383365 0)
(0.376726 0.0275763 0)
(0.39128 0.0170941 0)
(0.408014 0.00710704 0)
(0.426785 -0.00218371 0)
(0.447691 -0.0102446 0)
(0.47033 -0.01657 0)
(0.494302 -0.0205423 0)
(0.519264 -0.021387 0)
(0.544299 -0.0182941 0)
(0.568421 -0.0105118 0)
(0.59018 0.00276213 0)
(0.608003 0.0211288 0)
(0.620185 0.0438331 0)
(0.624564 0.0703084 0)
(0.619599 0.0989574 0)
(0.605353 0.127152 0)
(0.582798 0.152948 0)
(0.553669 0.174397 0)
(0.520065 0.190217 0)
(0.484178 0.199889 0)
(0.448034 0.203212 0)
(0.413441 0.200415 0)
(0.381823 0.192138 0)
(0.354138 0.179254 0)
(0.330912 0.162684 0)
(0.312359 0.143271 0)
(0.545976 -0.136557 0)
(0.568307 -0.124354 0)
(0.587799 -0.105479 0)
(0.602848 -0.0801837 0)
(0.611621 -0.0496602 0)
(0.612821 -0.0162282 0)
(0.605399 0.0177099 0)
(0.589105 0.0502745 0)
(0.56588 0.0792346 0)
(0.537969 0.103329 0)
(0.507563 0.121936 0)
(0.476504 0.134883 0)
(0.446454 0.142418 0)
(0.418751 0.145117 0)
(0.394334 0.143738 0)
(0.373742 0.13909 0)
(0.357189 0.131907 0)
(0.344661 0.122833 0)
(0.336007 0.112369 0)
(0.330993 0.100928 0)
(0.329368 0.0888184 0)
(0.330868 0.0762871 0)
(0.335279 0.0634596 0)
(0.342503 0.050396 0)
(0.352415 0.037269 0)
(0.364882 0.0242145 0)
(0.379821 0.011349 0)
(0.397116 -0.00114204 0)
(0.416849 -0.0128864 0)
(0.438912 -0.0233447 0)
(0.462964 -0.032095 0)
(0.488585 -0.0380652 0)
(0.515362 -0.0405853 0)
(0.542424 -0.0383599 0)
(0.569043 -0.0305643 0)
(0.594189 -0.0160525 0)
(0.616086 0.00642381 0)
(0.632171 0.034382 0)
(0.64027 0.0676481 0)
(0.637069 0.104693 0)
(0.622467 0.140725 0)
(0.597977 0.173323 0)
(0.564895 0.200743 0)
(0.526493 0.220485 0)
(0.485359 0.232167 0)
(0.443782 0.235614 0)
(0.403978 0.231285 0)
(0.36775 0.220189 0)
(0.336273 0.203605 0)
(0.310093 0.182867 0)
(0.289315 0.159129 0)
(0.544242 -0.157359 0)
(0.569782 -0.144081 0)
(0.593148 -0.122761 0)
(0.612985 -0.0930332 0)
(0.627175 -0.055852 0)
(0.633269 -0.0138216 0)
(0.628679 0.0285872 0)
(0.612813 0.0691297 0)
(0.587484 0.104514 0)
(0.555813 0.133119 0)
(0.520729 0.154276 0)
(0.48461 0.167921 0)
(0.449637 0.174576 0)
(0.417543 0.17519 0)
(0.389485 0.170949 0)
(0.366041 0.16303 0)
(0.347354 0.152446 0)
(0.333284 0.140018 0)
(0.323546 0.126346 0)
(0.317789 0.111883 0)
(0.31567 0.0969276 0)
(0.316845 0.0816948 0)
(0.320991 0.0663203 0)
(0.328041 0.050742 0)
(0.337959 0.0350893 0)
(0.350555 0.0194679 0)
(0.365735 0.00390889 0)
(0.383452 -0.0113184 0)
(0.403719 -0.0257757 0)
(0.426139 -0.0388322 0)
(0.450321 -0.0499969 0)
(0.475583 -0.0579775 0)
(0.501574 -0.0622858 0)
(0.527512 -0.0612413 0)
(0.553092 -0.0536923 0)
(0.578368 -0.038738 0)
(0.601694 -0.0140193 0)
(0.622514 0.0175188 0)
(0.636559 0.0584964 0)
(0.637595 0.105942 0)
(0.624305 0.151069 0)
(0.599709 0.196291 0)
(0.564895 0.230593 0)
(0.522828 0.254687 0)
(0.477387 0.269258 0)
(0.431077 0.27325 0)
(0.386711 0.267143 0)
(0.346489 0.252551 0)
(0.311807 0.231446 0)
(0.283258 0.205686 0)
(0.260819 0.176847 0)
(0.525367 -0.179634 0)
(0.54995 -0.164478 0)
(0.57379 -0.142586 0)
(0.596512 -0.109668 0)
(0.617072 -0.0669544 0)
(0.632186 -0.0159803 0)
(0.635394 0.0366207 0)
(0.62393 0.0873107 0)
(0.599297 0.132305 0)
(0.56596 0.167423 0)
(0.527498 0.192348 0)
(0.487068 0.207077 0)
(0.447585 0.212486 0)
(0.411371 0.2102 0)
(0.379925 0.202095 0)
(0.353914 0.189905 0)
(0.333408 0.17503 0)
(0.318123 0.158507 0)
(0.307616 0.141034 0)
(0.301395 0.123086 0)
(0.298998 0.10493 0)
(0.300023 0.0867136 0)
(0.304022 0.0684999 0)
(0.310929 0.0502403 0)
(0.320816 0.0318517 0)
(0.333442 0.0134093 0)
(0.348579 -0.00506665 0)
(0.366287 -0.023054 0)
(0.386052 -0.0400581 0)
(0.40698 -0.0551665 0)
(0.428443 -0.068031 0)
(0.44937 -0.0771581 0)
(0.469263 -0.0816047 0)
(0.487883 -0.0817932 0)
(0.505473 -0.0734473 0)
(0.522372 -0.0582862 0)
(0.539071 -0.0344113 0)
(0.560773 0.00116103 0)
(0.584544 0.0470348 0)
(0.593038 0.0986834 0)
(0.590091 0.156826 0)
(0.571662 0.213698 0)
(0.53556 0.25926 0)