/*--------------------------------*- C++ -*----------------------------------*\
  =========                 |
  \\      /  F ield         | OpenFOAM: The Open Source CFD Toolbox
   \\    /   O peration     | Website:  https://openfoam.org
    \\  /    A nd           | Version:  10
     \\/     M anipulation  |
\*---------------------------------------------------------------------------*/
FoamFile
{
    format      ascii;
    class       volScalarField;
    location    "0.151022";
    object      p;
}
// * * * * * * * * * * * * * * * * * * * * * * * * * * * * * * * * * * * * * //

dimensions      [1 -1 -2 0 0 0 0];

internalField   nonuniform List<scalar> 
15708
(
2.33588
2.33908
2.34339
2.34888
2.35558
2.36353
2.37273
2.38317
2.39479
2.40754
2.42134
2.43614
2.4519
2.46861
2.4863
2.50503
2.52484
2.54573
2.56759
2.59018
2.6131
2.63578
2.65751
2.67754
2.69521
2.70999
2.7215
2.72964
2.73441
2.73603
2.73505
2.7317
2.72635
2.71943
2.71151
2.70313
2.6947
2.68655
2.67896
2.67209
2.66604
2.66081
2.65634
2.6525
2.64916
2.64615
2.64336
2.64071
2.63819
2.63588
2.63392
2.34127
2.34467
2.34935
2.35541
2.36287
2.37171
2.38191
2.39335
2.40591
2.41942
2.4337
2.44859
2.46395
2.47972
2.49587
2.51245
2.52953
2.5472
2.5655
2.58435
2.60358
2.62285
2.6417
2.65954
2.67579
2.68995
2.70159
2.71052
2.71664
2.72005
2.721
2.71996
2.71708
2.71282
2.7076
2.70181
2.69591
2.69025
2.68502
2.68036
2.67629
2.67276
2.66962
2.6667
2.6638
2.66075
2.65738
2.65362
2.64948
2.64505
2.64053
2.34712
2.35077
2.35592
2.36262
2.37088
2.38067
2.39186
2.40429
2.41771
2.43186
2.44647
2.46127
2.47607
2.49073
2.50522
2.51958
2.53393
2.54841
2.56316
2.57827
2.59374
2.60942
2.62508
2.64033
2.6547
2.66773
2.67904
2.68836
2.69553
2.70053
2.70348
2.70464
2.70433
2.70287
2.70055
2.69773
2.69473
2.69185
2.68926
2.68702
2.68507
2.68328
2.68147
2.67941
2.67687
2.67364
2.6696
2.66466
2.65889
2.65242
2.64549
2.35349
2.35752
2.36325
2.3707
2.37985
2.39061
2.40278
2.4161
2.43024
2.44483
2.45952
2.47396
2.48793
2.50127
2.51394
2.52601
2.53763
2.54898
2.56031
2.5718
2.58357
2.59568
2.60805
2.62047
2.63264
2.64419
2.65477
2.66412
2.67201
2.67834
2.68314
2.68656
2.68883
2.69019
2.69091
2.69123
2.69138
2.6915
2.69173
2.692
2.69219
2.69207
2.69149
2.69016
2.68779
2.68424
2.67938
2.67321
2.66582
2.65741
2.64827
2.36054
2.36507
2.37155
2.37987
2.38998
2.40171
2.41478
2.42885
2.44347
2.45821
2.47264
2.4864
2.49923
2.51099
2.52167
2.53138
2.54028
2.54864
2.55673
2.56481
2.57312
2.58182
2.59097
2.60055
2.61039
2.62023
2.62979
2.63883
2.64712
2.65451
2.66097
2.66654
2.67134
2.67556
2.67934
2.68286
2.68621
2.68944
2.69248
2.69523
2.69745
2.69887
2.69918
2.69835
2.69599
2.69198
2.68616
2.67869
2.66974
2.65956
2.64847
2.3684
2.37365
2.38101
2.39032
2.40142
2.41407
2.42791
2.44248
2.45728
2.47179
2.48557
2.49826
2.50961
2.51954
2.52808
2.53537
2.54163
2.54716
2.55227
2.55726
2.56242
2.56802
2.57422
2.58111
2.58865
2.5967
2.60508
2.61359
2.62201
2.6302
2.63807
2.64559
2.6528
2.65977
2.66657
2.67322
2.67969
2.68588
2.69161
2.69662
2.70061
2.70325
2.70422
2.7035
2.70094
2.69628
2.68947
2.6807
2.67029
2.65857
2.64587
2.37728
2.38346
2.39184
2.4022
2.41428
2.42775
2.44213
2.45689
2.47146
2.48531
2.498
2.50921
2.51876
2.52663
2.5329
2.53777
2.54152
2.54445
2.54687
2.54913
2.55156
2.55447
2.55811
2.56262
2.56805
2.57439
2.58157
2.5894
2.59777
2.60653
2.61556
2.6248
2.6342
2.64374
2.65334
2.66291
2.67226
2.68113
2.68921
2.69611
2.70146
2.70491
2.70616
2.7053
2.7022
2.69677
2.68893
2.67899
2.66731
2.65429
2.64028
2.38735
2.39467
2.40417
2.41558
2.42856
2.44262
2.45723
2.47178
2.48567
2.49839
2.50956
2.51892
2.52639
2.53201
2.53597
2.53849
2.53989
2.54049
2.54055
2.5405
2.54068
2.54138
2.54288
2.54544
2.54912
2.55395
2.56001
2.56718
2.57539
2.58453
2.5945
2.6052
2.61652
2.62832
2.64041
2.65253
2.66434
2.67544
2.68537
2.69366
2.69987
2.70365
2.70477
2.70352
2.69965
2.69331
2.68445
2.67342
2.66068
2.64668
2.63179
2.39875
2.40737
2.41807
2.43045
2.44412
2.45849
2.47293
2.4868
2.49954
2.51067
2.5199
2.5271
2.53227
2.53555
2.53721
2.5375
2.53681
2.53532
2.5334
2.53146
2.52986
2.52889
2.52888
2.52987
2.53219
2.53588
2.54103
2.54763
2.55568
2.56508
2.5758
2.5877
2.60062
2.6143
2.62844
2.64261
2.65632
2.66902
2.68016
2.6892
2.69567
2.6993
2.69989
2.698
2.69317
2.68583
2.67599
2.66408
2.65059
2.63598
2.62062
2.41155
2.42144
2.4333
2.44659
2.4607
2.47499
2.48881
2.50153
2.51263
2.52176
2.52872
2.53352
2.53626
2.5372
2.5367
2.53496
2.53231
2.52906
2.52558
2.52224
2.51936
2.51722
2.5161
2.5162
2.51756
2.52048
2.52507
2.53125
2.53923
2.54888
2.56018
2.57302
2.58717
2.6023
2.61793
2.63353
2.64845
2.66204
2.67367
2.68276
2.6889
2.69183
2.69157
2.68876
2.68294
2.67457
2.66389
2.65132
2.63738
2.62251
2.60709
2.42577
2.43703
2.44989
2.46373
2.4779
2.49168
2.50439
2.51548
2.52452
2.5313
2.53576
2.53802
2.53829
2.53712
2.53449
2.53088
2.52659
2.52195
2.51734
2.51305
2.50938
2.50656
2.50483
2.50445
2.50538
2.50795
2.5123
2.51834
2.52639
2.53631
2.54808
2.56161
2.57663
2.59269
2.60921
2.62553
2.64091
2.65461
2.66596
2.67443
2.67964
2.68143
2.68019
2.67612
2.66926
2.65995
2.64857
2.63558
2.6215
2.60674
2.59165
2.44126
2.45372
2.46734
2.48141
2.49519
2.50798
2.51913
2.52817
2.53482
2.539
2.54083
2.54055
2.53864
2.5352
2.53073
2.52552
2.51992
2.51429
2.50894
2.50413
2.5001
2.49706
2.49521
2.49477
2.49574
2.49832
2.50276
2.509
2.51725
2.52748
2.53965
2.55365
2.56915
2.58561
2.60237
2.61867
2.63373
2.64677
2.65713
2.66434
2.66812
2.66844
2.66602
2.66054
2.65262
2.64249
2.6306
2.61746
2.60354
2.58923
2.57483
2.45775
2.47116
2.48519
2.49905
2.512
2.52333
2.53251
2.53917
2.54319
2.54467
2.54393
2.54128
2.53709
2.53173
2.52563
2.51914
2.51261
2.50637
2.50066
2.49572
2.49174
2.48889
2.48734
2.48725
2.4886
2.49162
2.49644
2.50309
2.51171
2.52227
2.53473
2.54895
2.56452
2.58087
2.59724
2.61283
2.62685
2.63851
2.64723
2.65265
2.65459
2.65342
2.64932
2.64261
2.63359
2.6228
2.61064
2.59761
2.58415
2.57059
2.55721
2.47488
2.48885
2.50286
2.51606
2.52771
2.53718
2.54405
2.5481
2.54939
2.54829
2.54507
2.5401
2.53388
2.52688
2.51949
2.51207
2.50498
2.49847
2.49276
2.48805
2.48447
2.48222
2.48131
2.4819
2.48392
2.48772
2.49321
2.50045
2.50953
2.52039
2.533
2.54714
2.56236
2.57805
2.59345
2.60772
2.62004
2.62972
2.6363
2.63952
2.63943
2.63655
2.63078
2.62275
2.61283
2.60156
2.58936
2.5767
2.56398
2.55145
2.53938
2.49215
2.50625
2.51976
2.53183
2.54176
2.54904
2.55335
2.55469
2.55345
2.54975
2.54419
2.53716
2.52925
2.52095
2.51262
2.50464
2.49732
2.49088
2.4855
2.48133
2.47852
2.47709
2.47718
2.4786
2.48174
2.48644
2.49276
2.50073
2.51029
2.52141
2.53399
2.54774
2.56222
2.57673
2.59054
2.60287
2.61298
2.62026
2.6243
2.62512
2.62302
2.61807
2.61078
2.60153
2.59093
2.57941
2.56742
2.5554
2.54365
2.53242
2.52191
2.50905
2.52279
2.5353
2.5458
2.55364
2.55847
2.56012
2.55895
2.55511
2.54906
2.54138
2.53267
2.52346
2.5142
2.50531
2.49713
2.48991
2.48386
2.47912
2.47579
2.47396
2.47368
2.4748
2.47751
2.48179
2.48758
2.49485
2.50353
2.51355
2.5248
2.5371
2.55015
2.56345
2.57631
2.58806
2.59798
2.60545
2.60989
2.61123
2.60968
2.60525
2.59845
2.58965
2.57947
2.5684
2.5569
2.5454
2.53425
2.52374
2.51404
2.50533
2.52509
2.53792
2.54896
2.55748
2.56295
2.56517
2.56434
2.56066
2.55442
2.54629
2.53688
2.52687
2.51673
2.50693
2.49785
2.4898
2.48301
2.47764
2.47379
2.47155
2.47095
2.47185
2.47437
2.47839
2.48399
2.49091
2.49912
2.50846
2.51879
2.52994
2.54169
2.55367
2.56538
2.57618
2.58541
2.59252
2.59698
2.59845
2.59709
2.59297
2.58633
2.57773
2.56773
2.55689
2.54566
2.53448
2.52374
2.51374
2.5047
2.49678
2.49008
2.53978
2.55118
2.56027
2.56656
2.56934
2.56907
2.56581
2.55973
2.5514
2.54152
2.53084
2.51992
2.50927
2.49932
2.49044
2.48288
2.47682
2.4724
2.46969
2.46873
2.46946
2.47177
2.47572
2.48123
2.48808
2.49614
2.50521
2.51505
2.5255
2.53629
2.54713
2.55764
2.56736
2.57567
2.58199
2.58596
2.5872
2.58568
2.58145
2.57475
2.56604
2.55599
2.54515
2.53399
2.52296
2.51246
2.50279
2.49423
2.48694
2.48101
2.47653
2.55276
2.56225
2.56903
2.57246
2.57281
2.57011
2.56438
2.5561
2.54599
2.53488
2.52335
2.51198
2.50126
2.49158
2.48325
2.47651
2.47148
2.46827
2.4669
2.46735
2.46947
2.47337
2.47889
2.4858
2.49391
2.50296
2.51273
2.5229
2.53319
2.54328
2.55285
2.56148
2.56882
2.57429
2.57717
2.57777
2.57579
2.57101
2.56377
2.55461
2.54419
2.53311
2.52184
2.51082
2.50043
2.491
2.4828
2.476
2.47072
2.46703
2.46499
2.56375
2.57089
2.57467
2.57548
2.57328
2.56789
2.55987
2.54964
2.53832
2.52639
2.5145
2.50317
2.49284
2.48385
2.47646
2.47085
2.46712
2.46532
2.46547
2.46732
2.4711
2.47663
2.48364
2.49192
2.50115
2.51108
2.52134
2.53158
2.5414
2.55046
2.55839
2.56475
2.56917
2.57135
2.57072
2.56769
2.56188
2.55358
2.54329
2.53215
2.52042
2.50878
2.49762
2.48727
2.47806
2.47021
2.46388
2.45921
2.45626
2.45506
2.4556
2.57252
2.5767
2.57755
2.57543
2.57022
2.56217
2.55199
2.54047
2.52827
2.51605
2.50433
2.49357
2.48411
2.47624
2.47017
2.466
2.46381
2.46364
2.46524
2.46884
2.4743
2.48138
2.48982
2.49934
2.50958
2.52018
2.5307
2.54071
2.54978
2.55746
2.56337
2.56707
2.56821
2.56664
2.56205
2.55453
2.54458
2.53261
2.51975
2.50663
2.49404
2.48245
2.47209
2.46314
2.45576
2.45005
2.44611
2.44397
2.44368
2.44507
2.44843
2.57894
2.57974
2.57735
2.57177
2.56337
2.55274
2.54076
2.52821
2.51572
2.50379
2.49284
2.48321
2.47515
2.46885
2.46446
2.46204
2.46162
2.46302
2.46641
2.47181
2.47888
2.48745
2.4972
2.50782
2.51888
2.52993
2.54047
2.55
2.55801
2.56402
2.56757
2.56817
2.56586
2.55985
2.55014
2.53767
2.5229
2.50699
2.4912
2.47672
2.464
2.45335
2.44473
2.43807
2.43334
2.43049
2.42948
2.43029
2.43285
2.4373
2.44368
2.58305
2.58005
2.57344
2.56392
2.55195
2.53895
2.52552
2.5125
2.50036
2.48943
2.47995
2.47209
2.466
2.46174
2.4594
2.459
2.46037
2.4637
2.46899
2.47602
2.48465
2.49461
2.50554
2.51708
2.52875
2.54002
2.55035
2.55916
2.56589
2.56999
2.57087
2.56838
2.56173
2.55035
2.5348
2.51624
2.49556
2.47493
2.45626
2.44087
2.42906
2.42052
2.41486
2.41164
2.4106
2.4114
2.41385
2.4181
2.42405
2.43176
2.44124
2.58486
2.57697
2.56511
2.55092
2.53538
2.51992
2.50549
2.49266
2.48171
2.47268
2.46552
2.46019
2.45668
2.45495
2.45502
2.45675
2.46031
2.46564
2.47268
2.48133
2.4914
2.50261
2.51454
2.5268
2.53887
2.55016
2.56007
2.56797
2.57329
2.57529
2.57373
2.56765
2.55625
2.53907
2.51637
2.49037
2.46157
2.43447
2.41236
2.39692
2.38756
2.38279
2.38171
2.38335
2.38719
2.39267
2.3994
2.40756
2.41714
2.42821
2.44091
2.58398
2.5697
2.55178
2.53178
2.51187
2.49412
2.47929
2.46767
2.4591
2.45314
2.44936
2.44743
2.44722
2.44845
2.45121
2.45557
2.46134
2.46863
2.47739
2.48753
2.49889
2.51117
2.5239
2.53667
2.54893
2.56004
2.56936
2.57624
2.58009
2.58029
2.57637
2.56667
2.55144
2.52796
2.49689
2.46228
2.4222
2.38593
2.35841
2.34372
2.33809
2.33891
2.34444
2.35306
2.36325
2.37426
2.38599
2.39852
2.41196
2.42655
2.44245
2.58086
2.55846
2.5328
2.50483
2.47924
2.45913
2.44499
2.43619
2.4316
2.43032
2.43123
2.4337
2.43748
2.44235
2.44825
2.45525
2.46331
2.47252
2.48289
2.49437
2.50682
2.51995
2.53326
2.54634
2.55859
2.56936
2.57797
2.58377
2.58647
2.58535
2.57953
2.56758
2.54883
2.52147
2.47683
2.4306
2.3774
2.32883
2.29547
2.27841
2.28008
2.28882
2.30377
2.32091
2.33875
2.35633
2.37362
2.39084
2.40835
2.4265
2.44558
2.57781
2.54536
2.50911
2.46997
2.43713
2.41308
2.401
2.39705
2.3984
2.40373
2.41101
2.41911
2.42768
2.43662
2.44594
2.45572
2.46607
2.47713
2.48895
2.50156
2.51486
2.52859
2.54227
2.55545
2.56752
2.57783
2.58565
2.59047
2.59229
2.59058
2.58379
2.57142
2.54586
2.51409
2.47056
2.41234
2.34529
2.27729
2.22722
2.20169
2.21444
2.23594
2.26111
2.2879
2.3143
2.33905
2.36226
2.38439
2.406
2.42762
2.4498
2.57683
2.53229
2.48413
2.43054
2.38496
2.35448
2.34638
2.34876
2.35914
2.3736
2.38877
2.40359
2.41776
2.43126
2.44423
2.45686
2.46946
2.4822
2.49526
2.50875
2.52264
2.53672
2.55053
2.56361
2.57537
2.5851
2.59215
2.59629
2.59778
2.59557
2.5868
2.57018
2.54757
2.50878
2.45556
2.38962
2.31473
2.23669
2.1678
2.13958
2.15239
2.18432
2.22164
2.25789
2.29179
2.32324
2.35219
2.3791
2.40464
2.42957
2.45453
2.58336
2.53825
2.47892
2.4126
2.34553
2.29764
2.28358
2.29513
2.31777
2.34215
2.36581
2.38787
2.40804
2.42634
2.44304
2.45854
2.47323
2.48746
2.50152
2.5156
2.52978
2.54393
2.55764
2.5705
2.58193
2.59093
2.59721
2.60064
2.6016
2.59723
2.58935
2.56978
2.53828
2.49341
2.43619
2.36767
2.29114
2.21329
2.13402
2.10553
2.11035
2.14705
2.19109
2.2331
2.27286
2.30987
2.34372
2.37483
2.40391
2.43179
2.45919
2.58602
2.53513
2.47113
2.39778
2.3247
2.25776
2.23049
2.24795
2.28006
2.31306
2.34436
2.37324
2.39911
2.42203
2.44234
2.46053
2.47713
2.49262
2.50738
2.52174
2.53588
2.54981
2.56323
2.57579
2.58723
2.59511
2.60048
2.60007
2.60124
2.59671
2.58208
2.55615
2.52098
2.47409
2.41565
2.3474
2.27292
2.19788
2.13032
2.08804
2.09126
2.12899
2.17191
2.21569
2.2588
2.29949
2.337
2.37147
2.40347
2.4338
2.4632
2.58223
2.52837
2.46288
2.39011
2.31641
2.24272
2.20906
2.22441
2.25544
2.29179
2.32778
2.36145
2.39189
2.41871
2.44214
2.46268
2.48091
2.49737
2.51254
2.52682
2.54059
2.55397
2.56704
2.57874
2.59035
2.59699
2.59989
2.59786
2.59756
2.58408
2.56616
2.53854
2.50088
2.45295
2.3953
2.3299
2.26037
2.19149
2.128
2.08664
2.09398
2.12186
2.16245
2.20529
2.24957
2.29221
2.33204
2.36884
2.40301
2.43519
2.46609
2.57409
2.51987
2.45566
2.38555
2.3143
2.24714
2.21232
2.21626
2.24351
2.27974
2.31723
2.35352
2.38688
2.41651
2.44235
2.46475
2.48426
2.50142
2.51668
2.53046
2.54316
2.55551
2.56871
2.57901
2.58954
2.59701
2.6014
2.5902
2.58378
2.57002
2.54807
2.51781
2.4787
2.43094
2.37576
2.3149
2.25211
2.19151
2.13726
2.10197
2.09592
2.12043
2.15797
2.19989
2.24466
2.28785
2.32873
2.36673
2.40225
2.43567
2.46756
2.56345
2.51007
2.44873
2.3834
2.31864
2.26089
2.22484
2.21835
2.23969
2.27497
2.31276
2.34979
2.38445
2.41558
2.44288
2.4665
2.48692
2.50455
2.51972
2.53296
2.54489
2.55359
2.56469
2.58154
2.59431
2.58499
2.58674
2.58063
2.56905
2.55149
2.52691
2.4948
2.45526
2.40887
2.35756
2.30266
2.24777
2.19559
2.15019
2.11897
2.10871
2.12669
2.15743
2.19853
2.24277
2.28586
2.32688
2.36502
2.40101
2.43506
2.46738
2.55062
2.4994
2.44218
2.38326
2.32671
2.27811
2.24455
2.23172
2.24631
2.27666
2.31309
2.34977
2.38448
2.41587
2.44366
2.4678
2.48873
2.50661
2.52114
2.53193
2.54397
2.55711
2.56397
2.56628
2.57712
2.57673
2.57266
2.56412
2.54998
2.52973
2.50314
2.47013
2.43126
2.38762
2.34144
2.2937
2.24721
2.20385
2.16603
2.13852
2.12799
2.13772
2.16184
2.20052
2.24281
2.28543
2.32589
2.36371
2.39919
2.43317
2.46626
2.53624
2.48847
2.43705
2.38586
2.33803
2.29737
2.26844
2.25634
2.26126
2.28386
2.31744
2.35286
2.38651
2.41736
2.44473
2.46872
2.48974
2.50797
2.52343
2.53423
2.53834
2.54126
2.55287
2.5593
2.56246
2.56146
2.55543
2.54438
2.52782
2.50536
2.47742
2.44448
2.40747
2.36789
2.32789
2.28848
2.2509
2.21646
2.186
2.16165
2.15075
2.15444
2.1697
2.20312
2.24371
2.2845
2.32387
2.36147
2.39604
2.42794
2.45882
2.52166
2.47828
2.43435
2.39181
2.3533
2.32021
2.29551
2.2841
2.28256
2.30057
2.32749
2.35923
2.39044
2.41955
2.44604
2.46926
2.4897
2.50656
2.51902
2.52845
2.53292
2.53654
2.54261
2.54604
2.54648
2.5428
2.53464
2.52143
2.50287
2.47899
2.45055
2.41875
2.38478
2.35036
2.31729
2.28671
2.25853
2.23324
2.21045
2.18992
2.17768
2.17564
2.18512
2.20919
2.24449
2.28062
2.31757
2.3556
2.3907
2.42144
2.44645
2.5081
2.47081
2.43517
2.40229
2.37341
2.34922
2.32919
2.3171
2.31304
2.31991
2.34443
2.3703
2.39233
2.42065
2.44608
2.46784
2.48553
2.50031
2.51178
2.51903
2.52207
2.5264
2.52894
2.52956
2.52738
2.52124
2.51088
2.49575
2.47581
2.45142
2.42356
2.39389
2.36402
2.33551
2.30972
2.28755
2.26833
2.2515
2.23641
2.22185
2.21047
2.20703
2.21828
2.22947
2.25298
2.28727
2.31968
2.34527
2.37356
2.40273
2.43005
2.49733
2.46726
2.43987
2.4166
2.39712
2.3814
2.36854
2.3584
2.3531
2.3533
2.36478
2.38794
2.4025
2.42165
2.44657
2.46752
2.48072
2.49339
2.50061
2.50685
2.50972
2.51169
2.51203
2.51021
2.50539
2.49692
2.48452
2.46789
2.44727
2.42334
2.39733
2.37081
2.34562
2.3234
2.30479
2.29009
2.27854
2.26899
2.26069
2.25262
2.24459
2.23962
2.24036
2.24547
2.2583
2.28183
2.30646
2.33183
2.35648
2.38356
2.41117
2.49074
2.46812
2.44907
2.43448
2.42307
2.41446
2.40748
2.40131
2.39628
2.394
2.39644
2.40563
2.41913
2.43077
2.44966
2.46593
2.47487
2.48317
2.49011
2.49369
2.49533
2.49502
2.49272
2.48821
2.48084
2.47018
2.45608
2.43855
2.4181
2.39569
2.37269
2.35055
2.33077
2.31484
2.30298
2.29525
2.29003
2.28637
2.28329
2.27935
2.27387
2.26745
2.26268
2.26197
2.26659
2.27956
2.29661
2.31748
2.33996
2.36466
2.39048
2.48869
2.47369
2.4626
2.45549
2.45065
2.44734
2.44448
2.44146
2.43776
2.43442
2.43344
2.43567
2.44026
2.44715
2.45721
2.46652
2.47124
2.47651
2.47939
2.48028
2.4793
2.47621
2.4711
2.46384
2.45403
2.44147
2.42617
2.40845
2.38909
2.36923
2.35022
2.33326
2.31938
2.30986
2.30437
2.30238
2.30231
2.3026
2.30245
2.30018
2.29501
2.28692
2.27795
2.2716
2.27061
2.27594
2.28682
2.30242
2.32177
2.34386
2.36773
2.49142
2.48377
2.47983
2.47871
2.47893
2.47927
2.47886
2.47715
2.47385
2.46942
2.46562
2.46299
2.46225
2.46309
2.46564
2.46794
2.46916
2.46982
2.46857
2.46589
2.46153
2.45534
2.44733
2.4374
2.4254
2.41137
2.39548
2.37835
2.36097
2.34451
2.3301
2.31851
2.3106
2.30695
2.30667
2.30928
2.31308
2.31579
2.31686
2.31472
2.30827
2.29798
2.2854
2.27343
2.26797
2.26768
2.27335
2.28464
2.30081
2.32046
2.34243
2.49885
2.49773
2.49948
2.50327
2.50727
2.50966
2.51024
2.50874
2.50454
2.4985
2.4918
2.48497
2.47923
2.47486
2.47157
2.46845
2.46527
2.46131
2.45628
2.44991
2.44204
2.43264
2.42175
2.40939
2.39559
2.38061
2.36483
2.34911
2.33456
2.32216
2.31267
2.30633
2.30407
2.30501
2.30925
2.31548
2.32162
2.32541
2.32659
2.32326
2.31477
2.30146
2.28547
2.26968
2.25804
2.25388
2.25524
2.263
2.27631
2.29382
2.31418
2.50976
2.51435
2.52094
2.52829
2.5346
2.53754
2.53826
2.53575
2.53008
2.52161
2.51161
2.50103
2.49104
2.48209
2.47411
2.46665
2.45915
2.45117
2.44231
2.43228
2.42099
2.4085
2.39495
2.38051
2.36541
2.35009
2.33511
2.32153
2.31045
2.30249
2.29774
2.29646
2.29856
2.3039
2.31162
2.32026
2.32747
2.33121
2.33144
2.32627
2.31507
2.29869
2.27908
2.25902
2.24201
2.23387
2.23209
2.23655
2.24738
2.2632
2.28247
2.52364
2.53286
2.54302
2.55271
2.55948
2.56228
2.56223
2.5581
2.5501
2.53871
2.52553
2.51157
2.498
2.4853
2.47348
2.46223
2.45094
2.43923
2.42675
2.41328
2.39881
2.38352
2.3677
2.35167
2.33583
2.32077
2.3072
2.29638
2.2891
2.28548
2.28492
2.28789
2.29412
2.30284
2.31298
2.32289
2.33
2.333
2.33156
2.32399
2.30957
2.28921
2.26556
2.24171
2.22068
2.20777
2.20324
2.20446
2.21315
2.22776
2.24667
2.53928
2.55196
2.56442
2.57497
2.58116
2.58324
2.58147
2.57504
2.5642
2.54996
2.53388
2.51707
2.50059
2.48489
2.46998
2.45538
2.44078
2.42575
2.41002
2.39347
2.37623
2.35859
2.34099
2.32392
2.3079
2.29363
2.28195
2.27427
2.27081
2.27045
2.27377
2.28047
2.28989
2.30104
2.31261
2.32274
2.32879
2.33052
2.32683
2.31574
2.29737
2.2733
2.24612
2.21884
2.19426
2.17585
2.16773
2.16637
2.17273
2.18658
2.20615
2.5554
2.57032
2.58388
2.59382
2.59857
2.59925
2.59515
2.58595
2.57232
2.55554
2.53706
2.51805
2.49938
2.48134
2.46379
2.44651
2.42911
2.41125
2.39276
2.37366
2.35419
2.33476
2.31596
2.2984
2.28268
2.26955
2.26021
2.25561
2.25469
2.25749
2.26396
2.27346
2.28509
2.29768
2.30974
2.31907
2.32343
2.32318
2.31609
2.30141
2.27957
2.25215
2.22175
2.19123
2.16293
2.13931
2.1256
2.12151
2.12499
2.13858
2.16017
2.57054
2.58648
2.59973
2.60793
2.61081
2.60936
2.60255
2.59064
2.57456
2.55581
2.53564
2.5151
2.49482
2.475
2.45555
2.43618
2.41657
2.39648
2.37585
2.35482
2.33374
2.31315
2.29371
2.27614
2.26109
2.24927
2.24228
2.2398
2.24101
2.24624
2.25491
2.26617
2.27897
2.29195
2.30344
2.31082
2.31329
2.31038
2.30008
2.28209
2.25706
2.2267
2.19348
2.15997
2.12793
2.09875
2.07802
2.06896
2.06864
2.08221
2.1078
2.58334
2.599
2.61045
2.61604
2.61706
2.613
2.60352
2.58929
2.57139
2.55133
2.53011
2.5087
2.48752
2.46667
2.44597
2.42517
2.404
2.38234
2.36025
2.33797
2.31594
2.29477
2.27518
2.25794
2.24369
2.2332
2.22798
2.22678
2.22954
2.23621
2.24603
2.258
2.27093
2.2833
2.29321
2.29833
2.29884
2.29292
2.27952
2.25862
2.23107
2.19844
2.16297
2.12677
2.09125
2.05691
2.02595
2.00759
2.00255
2.01472
2.04723
2.59234
2.60636
2.61497
2.61806
2.61677
2.61009
2.5983
2.58231
2.56332
2.54271
2.5213
2.49979
2.47843
2.4572
2.43591
2.41433
2.39228
2.36975
2.34688
2.324
2.30162
2.28038
2.26101
2.24425
2.23071
2.22122
2.21692
2.21636
2.21978
2.22688
2.23681
2.24846
2.26056
2.27149
2.27919
2.28215
2.28022
2.27149
2.25553
2.23252
2.20328
2.16927
2.13207
2.0934
2.05426
2.01431
1.973
1.93783
1.92338
1.92994
1.97429
2.59655
2.60774
2.61302
2.61396
2.61007
2.601
2.5875
2.5706
2.55148
2.53117
2.51033
2.4894
2.46848
2.44749
2.42622
2.4045
2.38223
2.35947
2.33645
2.31354
2.29127
2.2703
2.25132
2.23503
2.22201
2.21285
2.20863
2.20808
2.21123
2.21778
2.22683
2.23727
2.24773
2.25661
2.26181
2.26281
2.25838
2.24741
2.22971
2.20559
2.17575
2.14115
2.10299
2.06219
2.01929
1.9738
1.92355
1.86877
1.83261
1.82527
1.8789
2.59542
2.60283
2.60533
2.60386
2.59753
2.58679
2.57249
2.55558
2.53718
2.51791
2.49829
2.47852
2.45859
2.43837
2.41768
2.39637
2.37444
2.352
2.32932
2.30679
2.28494
2.2644
2.24581
2.22979
2.21689
2.20749
2.2026
2.20126
2.20338
2.20852
2.21588
2.22442
2.23274
2.2392
2.24214
2.24123
2.23486
2.22254
2.20419
2.18012
2.15085
2.11694
2.07867
2.03604
1.98885
1.93689
1.87808
1.80821
1.72778
1.68039
1.68666
2.63255
2.63204
2.63259
2.6343
2.63741
2.64163
2.64667
2.65197
2.65693
2.66089
2.66329
2.66368
2.66226
2.65854
2.65268
2.64491
2.63567
2.62539
2.6145
2.60341
2.59246
2.58192
2.57201
2.56285
2.55448
2.54689
2.63617
2.63228
2.62915
2.62706
2.62619
2.62656
2.62793
2.63021
2.63282
2.63526
2.637
2.63758
2.63692
2.63473
2.63093
2.62567
2.61925
2.61199
2.60426
2.59637
2.58862
2.58121
2.57428
2.56789
2.56202
2.55659
2.63838
2.63145
2.62504
2.61947
2.61503
2.61185
2.60995
2.60923
2.60941
2.61006
2.61085
2.61129
2.61112
2.6102
2.60829
2.60546
2.60188
2.59777
2.59336
2.5889
2.58456
2.58048
2.57671
2.5732
2.56987
2.56657
2.63872
2.62914
2.61988
2.61133
2.6038
2.59755
2.59269
2.58924
2.58708
2.58597
2.58563
2.58569
2.58585
2.58588
2.58564
2.58513
2.58433
2.58338
2.58236
2.58141
2.58059
2.57991
2.57931
2.57864
2.57774
2.57639
2.63685
2.62503
2.61344
2.60244
2.5924
2.58359
2.57625
2.57046
2.56624
2.56349
2.56203
2.56162
2.5619
2.56275
2.56395
2.56555
2.56742
2.56953
2.57186
2.57437
2.57701
2.57963
2.58204
2.58401
2.58527
2.58557
2.63253
2.61896
2.60556
2.5927
2.58074
2.56999
2.5607
2.55307
2.54718
2.54304
2.5406
2.53973
2.54012
2.54161
2.54408
2.5476
2.55197
2.55698
2.56247
2.56825
2.5741
2.57973
2.58483
2.58905
2.59208
2.59364
2.62569
2.61087
2.59622
2.58209
2.56883
2.55675
2.54612
2.53718
2.5301
2.52495
2.5218
2.52062
2.52114
2.52321
2.52684
2.5321
2.53874
2.5464
2.55475
2.56344
2.57209
2.58027
2.58754
2.59347
2.59772
2.60004
2.6164
2.60086
2.58551
2.57069
2.55674
2.54394
2.53259
2.52292
2.51516
2.50947
2.50595
2.5047
2.50544
2.50816
2.51287
2.51972
2.52837
2.53833
2.54913
2.56024
2.57112
2.58121
2.58998
2.59696
2.60181
2.60433
2.60489
2.58911
2.57359
2.55866
2.54459
2.53168
2.52019
2.51038
2.50248
2.49673
2.49326
2.49225
2.49336
2.49686
2.50265
2.51093
2.5213
2.53317
2.54588
2.55877
2.57117
2.58241
2.59191
2.59922
2.60402
2.60616
2.59146
2.57592
2.56075
2.54622
2.53259
2.52012
2.50906
2.49966
2.49216
2.48683
2.48385
2.48342
2.48511
2.48949
2.4964
2.50598
2.51777
2.53105
2.54506
2.559
2.57211
2.58368
2.59311
2.6
2.60412
2.60542
2.57654
2.56168
2.54731
2.53367
2.52098
2.50946
2.49934
2.49087
2.48428
2.47984
2.47777
2.47819
2.48074
2.48609
2.49416
2.50487
2.51771
2.53186
2.54646
2.56069
2.5737
2.58476
2.59336
2.59916
2.60206
2.60212
2.56062
2.54684
2.53369
2.52136
2.51004
2.49993
2.49122
2.48413
2.4789
2.47576
2.47498
2.47633
2.4802
2.48656
2.49572
2.50732
2.52078
2.53523
2.54978
2.56352
2.57561
2.5854
2.59247
2.5966
2.5978
2.59652
2.54424
2.53189
2.52031
2.50966
2.5001
2.49178
2.48487
2.47957
2.47608
2.47462
2.47526
2.47791
2.48306
2.49063
2.5007
2.5129
2.52653
2.54069
2.55447
2.56696
2.57742
2.58529
2.59028
2.59233
2.59167
2.58885
2.52795
2.51732
2.50762
2.49897
2.49148
2.48529
2.48051
2.47731
2.47584
2.47625
2.47838
2.48274
2.48915
2.49781
2.50855
2.52094
2.53421
2.54748
2.55984
2.57046
2.57871
2.58417
2.58673
2.58649
2.58405
2.57933
2.51228
2.50363
2.49607
2.48967
2.48453
2.48071
2.47832
2.47748
2.47813
2.48045
2.48449
2.49028
2.49795
2.50739
2.51845
2.53056
2.54296
2.55479
2.56519
2.57345
2.57907
2.58184
2.58178
2.5795
2.57484
2.56859
2.49771
2.49127
2.48607
2.48214
2.47956
2.47829
2.47852
2.47994
2.48293
2.48728
2.49303
2.5002
2.5088
2.5187
2.52963
2.54096
2.55197
2.56186
2.56986
2.57538
2.57814
2.5781
2.57577
2.57108
2.56461
2.55692
2.48468
2.48064
2.47798
2.47669
2.47682
2.47817
2.48101
2.48501
2.49017
2.49645
2.50374
2.51201
2.52119
2.53109
2.54135
2.55136
2.56045
2.56794
2.57317
2.57573
2.57557
2.57313
2.56825
2.56151
2.55354
2.54482
2.47355
2.47206
2.47215
2.47348
2.47641
2.48061
2.48604
2.49246
2.49972
2.50771
2.51629
2.52529
2.53457
2.54393
2.55292
2.56104
2.56773
2.57239
2.57459
2.5741
2.57137
2.56626
2.55923
2.55094
2.54189
2.53258
2.4646
2.46576
2.46856
2.47286
2.47862
2.48562
2.49355
2.50225
2.51143
2.52085
2.53031
2.53957
2.54842
2.55661
2.56374
2.56935
2.57309
2.57455
2.5736
2.5703
2.56474
2.55729
2.54871
2.53938
2.52983
2.5205
2.45784
2.46191
2.46762
2.47487
2.48348
2.49314
2.50348
2.51423
2.52504
2.53555
2.54546
2.55445
2.56225
2.56865
2.57332
2.57561
2.57591
2.57397
2.56969
2.56341
2.55514
2.54605
2.53647
2.52681
2.51747
2.5088
2.45365
2.46063
2.4693
2.47948
2.49087
2.50304
2.51562
2.52819
2.5403
2.5515
2.56138
2.56956
2.57571
2.57958
2.58098
2.57961
2.5758
2.56972
2.5616
2.55217
2.54209
2.53195
2.52222
2.5131
2.50484
2.49764
2.4519
2.46187
2.47348
2.48654
2.50061
2.51514
2.52973
2.54382
2.55688
2.56836
2.57777
2.58464
2.58849
2.58899
2.58654
2.58053
2.57154
2.56059
2.5483
2.536
2.5245
2.51429
2.5055
2.49805
2.49193
2.48714
2.4525
2.46546
2.48001
2.49584
2.51242
2.52912
2.54545
2.56075
2.57441
2.58582
2.59441
2.59948
2.60031
2.59712
2.58954
2.57735
2.56219
2.54537
2.5281
2.51293
2.50095
2.49203
2.48564
2.48132
2.47866
2.47741
2.45523
2.47119
2.48858
2.50702
2.5259
2.54455
2.56234
2.57855
2.59248
2.60352
2.61094
2.61414
2.61202
2.6038
2.59041
2.57093
2.54796
2.52344
2.49924
2.48075
2.46959
2.4639
2.46188
2.46263
2.46497
2.46859
2.45985
2.47867
2.49872
2.51958
2.54056
2.56092
2.57991
2.59672
2.6106
2.62115
2.62766
2.62915
2.62419
2.61056
2.59175
2.56446
2.53227
2.49693
2.46275
2.43866
2.42993
2.42922
2.43342
2.44164
2.45099
2.46079
2.46589
2.48738
2.50991
2.53297
2.55585
2.57765
2.59758
2.61458
2.62825
2.63858
2.64486
2.64516
2.63856
2.61854
2.5937
2.55939
2.51797
2.47021
2.42002
2.38703
2.38311
2.38844
2.40159
2.41923
2.4373
2.45455
2.4728
2.49674
2.52148
2.54653
2.57107
2.59412
2.61463
2.63165
2.64519
2.65561
2.66242
2.66117
2.65308
2.64111
2.61522
2.57686
2.5273
2.46917
2.40783
2.35313
2.33369
2.34739
2.37063
2.39839
2.42552
2.45077
2.47995
2.50604
2.53272
2.55951
2.58558
2.60966
2.63047
2.64726
2.66089
2.67197
2.67859
2.68404
2.67824
2.65856
2.62671
2.58314
2.52877
2.46417
2.39648
2.33433
2.30517
2.31384
2.34755
2.3844
2.41941
2.45134
2.48667
2.51455
2.54284
2.57113
2.59862
2.62386
2.64477
2.66102
2.67263
2.68523
2.69809
2.70209
2.68939
2.66548
2.63051
2.5844
2.52767
2.46234
2.39562
2.33408
2.29949
2.30618
2.34029
2.38145
2.42086
2.45716
2.49232
2.52159
2.55115
2.58069
2.60928
2.63564
2.65683
2.67361
2.68766
2.70552
2.70993
2.7074
2.69277
2.6666
2.6296
2.58229
2.52616
2.46404
2.40157
2.3447
2.31338
2.3222
2.35032
2.38969
2.43008
2.46909
2.49635
2.52656
2.55712
2.58818
2.61719
2.64441
2.66068
2.69661
2.70206
2.71241
2.71505
2.70838
2.69088
2.66262
2.62463
2.57776
2.52455
2.46805
2.41318
2.36616
2.34172
2.34167
2.36871
2.40697
2.4465
2.48598
2.49843
2.5291
2.55887
2.59058
2.62189
2.65962
2.67084
2.69085
2.70671
2.71392
2.71361
2.70376
2.68385
2.65425
2.61632
2.57175
2.52335
2.47437
2.42904
2.39227
2.37229
2.36964
2.39279
2.42672
2.46619
2.50634
2.49814
2.53023
2.56466
2.591
2.61878
2.65226
2.67496
2.69252
2.7042
2.70873
2.7057
2.69345
2.672
2.64214
2.60592
2.56548
2.52357
2.48323
2.44715
2.41918
2.40489
2.40279
2.41785
2.45011
2.48843
2.52897
2.49646
2.52344
2.55253
2.58763
2.61879
2.6466
2.66918
2.68589
2.69509
2.69739
2.69195
2.67799
2.65602
2.62738
2.59451
2.56008
2.52626
2.49526
2.46849
2.44896
2.44011
2.43927
2.4508
2.47286
2.51187
2.55276
2.48814
2.51562
2.54697
2.57969
2.60961
2.63582
2.6569
2.67204
2.67904
2.67975
2.67272
2.65812
2.63705
2.61137
2.58358
2.55689
2.53208
2.51108
2.49406
2.48182
2.47643
2.47651
2.48552
2.50495
2.53831
2.57712
2.47297
2.50449
2.53525
2.56603
2.59407
2.61883
2.63852
2.65183
2.65711
2.65668
2.64907
2.63525
2.61673
2.59581
2.57499
2.55651
2.54167
2.53066
2.52305
2.51842
2.51654
2.51707
2.5224
2.53907
2.56714
2.59637
2.45727
2.48789
2.51773
2.54671
2.5733
2.59633
2.61444
2.6261
2.63036
2.62949
2.6226
2.61116
2.59697
2.58244
2.56976
2.5604
2.55514
2.55343
2.55417
2.556
2.55853
2.56163
2.56745
2.5787
2.5969
2.62252
2.43899
2.46745
2.49586
2.52316
2.54796
2.56914
2.58563
2.5962
2.6002
2.59989
2.59521
2.5877
2.57948
2.57239
2.56854
2.56776
2.57088
2.57698
2.58436
2.5914
2.59756
2.60343
2.61117
2.62274
2.63993
2.663
2.41712
2.44407
2.47072
2.49609
2.51896
2.53837
2.5534
2.56344
2.5684
2.56978
2.5688
2.56669
2.56563
2.56649
2.57055
2.57807
2.58867
2.60097
2.61298
2.62295
2.63071
2.63772
2.64528
2.65641
2.67213
2.69283
2.39267
2.41797
2.44281
2.46626
2.48733
2.50529
2.51943
2.52969
2.53661
2.54111
2.545
2.54932
2.55541
2.5642
2.5759
2.59049
2.60699
2.62389
2.63837
2.64964
2.65764
2.6644
2.67129
2.68163
2.69624
2.71577
2.36572
2.38944
2.41266
2.43449
2.45418
2.47132
2.48547
2.49702
2.50676
2.51561
2.52515
2.53615
2.54943
2.56522
2.5835
2.60364
2.62427
2.64329
2.6584
2.66837
2.67493
2.67994
2.68567
2.69547
2.71034
2.7309
2.33616
2.35868
2.38078
2.40165
2.42076
2.43802
2.45332
2.46728
2.48079
2.49474
2.51019
2.52759
2.54722
2.56887
2.59212
2.61594
2.63851
2.65732
2.67009
2.67742
2.68141
2.68446
2.68899
2.6986
2.71443
2.73689
2.30376
2.32583
2.34768
2.36864
2.38836
2.40697
2.42471
2.44219
2.46024
2.47958
2.50073
2.52379
2.54845
2.57433
2.6006
2.62585
2.64802
2.66411
2.67319
2.67638
2.67652
2.67682
2.67947
2.68918
2.7073