/*--------------------------------*- C++ -*----------------------------------*\
  =========                 |
  \\      /  F ield         | OpenFOAM: The Open Source CFD Toolbox
   \\    /   O peration     | Website:  https://openfoam.org
    \\  /    A nd           | Version:  10
     \\/     M anipulation  |
\*---------------------------------------------------------------------------*/
FoamFile
{
    format      ascii;
    class       surfaceScalarField;
    location    "0.151022";
    object      phi;
}
// * * * * * * * * * * * * * * * * * * * * * * * * * * * * * * * * * * * * * //

dimensions      [1 0 -1 0 0 0 0];

internalField   nonuniform List<scalar> 
31108
(
0.000353
-4.91075e-05
0.00035262
-4.60996e-05
0.000352333
-4.33009e-05
0.000352112
-4.08268e-05
0.000351926
-3.87439e-05
0.000351752
-3.71002e-05
0.000351567
-3.59191e-05
0.000351355
-3.51972e-05
0.000351106
-3.48977e-05
0.000350806
-3.49488e-05
0.000350445
-3.52429e-05
0.000350005
-3.56387e-05
0.000349461
-3.59669e-05
0.000348783
-3.60386e-05
0.000347938
-3.56511e-05
0.000346899
-3.46051e-05
0.000345654
-3.27111e-05
0.000344219
-2.98117e-05
0.00034265
-2.57925e-05
0.000341043
-2.06e-05
0.000339534
-1.42537e-05
0.000338291
-6.85224e-06
0.00033751
1.42884e-06
0.00033735
1.03455e-05
0.000337947
1.96222e-05
0.000339385
2.89506e-05
0.000341696
3.80583e-05
0.00034486
4.67023e-05
0.000348815
5.46804e-05
0.00035345
6.18353e-05
0.000358615
6.81329e-05
0.000364239
7.34014e-05
0.000370199
7.76691e-05
0.000376346
8.08786e-05
0.000382568
8.30118e-05
0.000388773
8.41064e-05
0.000394851
8.42277e-05
0.000400746
8.33945e-05
0.000406408
8.16647e-05
0.000411801
7.90901e-05
0.000416912
7.57372e-05
0.000421732
7.1698e-05
0.000426255
6.70722e-05
0.000430485
6.19768e-05
0.00043441
5.65455e-05
0.000438007
5.09217e-05
0.000441252
4.52558e-05
0.000444095
3.97095e-05
0.000446469
3.44378e-05
0.000448309
2.9599e-05
2.53334e-05
0.000449513
0.000356651
-4.27671e-05
0.000356074
-3.99019e-05
0.000355531
-3.73161e-05
0.000355005
-3.51098e-05
0.000354484
-3.33482e-05
0.000353959
-3.2073e-05
0.000353431
-3.13024e-05
0.000352908
-3.10244e-05
0.000352401
-3.11872e-05
0.000351927
-3.17078e-05
0.000351497
-3.24648e-05
0.000351108
-3.33113e-05
0.000350754
-3.40761e-05
0.000350406
-3.45738e-05
0.000350032
-3.46136e-05
0.000349592
-3.40115e-05
0.000349051
-3.25963e-05
0.000348392
-3.02195e-05
0.000347624
-2.67724e-05
0.000346791
-2.2191e-05
0.000345974
-1.64705e-05
0.000345287
-9.67428e-06
0.000344871
-1.93529e-06
0.000344879
6.55024e-06
0.000345415
1.55565e-05
0.000346619
2.47467e-05
0.000348521
3.38915e-05
0.000351134
4.27278e-05
0.000354431
5.10198e-05
0.000358346
5.85818e-05
0.000362781
6.52932e-05
0.000367615
7.10477e-05
0.000372769
7.57619e-05
0.000378139
7.93923e-05
0.000383633
8.1894e-05
0.000389101
8.33004e-05
0.000394494
8.35997e-05
0.000399731
8.28627e-05
0.000404788
8.11363e-05
0.000409632
7.85096e-05
0.000414249
7.50613e-05
0.000418655
7.09044e-05
0.00042284
6.61652e-05
0.00042682
6.09748e-05
0.000430587
5.54938e-05
0.000434123
4.98694e-05
0.000437397
4.42582e-05
0.000440364
3.88154e-05
0.000442952
3.36916e-05
0.000445084
2.90221e-05
2.49297e-05
0.000446672
0.00036022
-3.63528e-05
0.000359395
-3.36753e-05
0.000358544
-3.13859e-05
0.000357668
-2.95253e-05
0.000356762
-2.81554e-05
0.00035584
-2.73152e-05
0.000354933
-2.70103e-05
0.000354066
-2.72117e-05
0.000353284
-2.78502e-05
0.000352624
-2.8828e-05
0.000352113
-3.00105e-05
0.000351773
-3.1244e-05
0.000351595
-3.23576e-05
0.00035156
-3.31749e-05
0.000351629
-3.35243e-05
0.000351749
-3.32407e-05
0.000351866
-3.21766e-05
0.000351937
-3.0205e-05
0.000351935
-2.7226e-05
0.000351858
-2.31781e-05
0.000351741
-1.80435e-05
0.000351649
-1.18583e-05
0.000351674
-4.71652e-06
0.000351929
3.23281e-06
0.000352559
1.17824e-05
0.000353634
2.06701e-05
0.000355215
2.96478e-05
0.000357357
3.84614e-05
0.000360056
4.68684e-05
0.000363277
5.46575e-05
0.000366959
6.16686e-05
0.000371025
6.77416e-05
0.000375399
7.28086e-05
0.000379927
7.67909e-05
0.000384574
7.964e-05
0.000389267
8.12993e-05
0.000393907
8.18174e-05
0.000398456
8.12061e-05
0.000402853
7.95605e-05
0.000407127
7.69511e-05
0.000411249
7.35179e-05
0.000415233
6.936e-05
0.000419108
6.46436e-05
0.00042288
5.95061e-05
0.000426536
5.4136e-05
0.000430054
4.86793e-05
0.000433407
4.32753e-05
0.000436539
3.80869e-05
0.000439369
3.3249e-05
0.000441813
2.88687e-05
2.50466e-05
0.000443781
0.000363592
-3.00571e-05
0.000362506
-2.7649e-05
0.000361316
-2.57101e-05
0.000360033
-2.42526e-05
0.000358698
-2.33375e-05
0.000357347
-2.2978e-05
0.000356037
-2.31675e-05
0.000354815
-2.38533e-05
0.000353754
-2.4947e-05
0.000352913
-2.63351e-05
0.000352332
-2.78716e-05
0.000352047
-2.94026e-05
0.000352051
-3.07585e-05
0.00035232
-3.17784e-05
0.000352808
-3.23136e-05
0.000353453
-3.22277e-05
0.000354181
-3.14007e-05
0.000354925
-2.97246e-05
0.000355633
-2.71228e-05
0.00035627
-2.3538e-05
0.000356833
-1.8948e-05
0.000357343
-1.33698e-05
0.000357852
-6.86724e-06
0.000358442
4.45451e-07
0.000359216
8.40449e-06
0.00036026
1.68013e-05
0.000361639
2.54045e-05
0.000363413
3.39722e-05
0.000365595
4.22821e-05
0.000368191
5.00799e-05
0.00037116
5.7204e-05
0.000374432
6.34767e-05
0.000377948
6.87727e-05
0.000381635
7.29993e-05
0.000385445
7.60863e-05
0.000389294
7.79868e-05
0.000393142
7.87009e-05
0.000396922
7.82753e-05
0.000400673
7.67541e-05
0.000404346
7.42733e-05
0.00040802
7.09409e-05
0.000411657
6.69378e-05
0.000415247
6.24344e-05
0.000418809
5.75643e-05
0.000422349
5.24914e-05
0.00042588
4.73439e-05
0.000429362
4.22924e-05
0.000432696
3.74997e-05
0.000435781
3.30805e-05
0.000438536
2.90918e-05
2.56174e-05
0.000440869
0.000366785
-2.40244e-05
0.000365347
-2.20226e-05
0.000363762
-2.04865e-05
0.000362051
-1.94851e-05
0.000360262
-1.90613e-05
0.000358464
-1.91991e-05
0.000356741
-1.98765e-05
0.000355173
-2.10162e-05
0.000353848
-2.25068e-05
0.000352846
-2.42232e-05
0.000352221
-2.60131e-05
0.000352008
-2.77262e-05
0.000352201
-2.91984e-05
0.000352774
-3.03071e-05
0.000353657
-3.09078e-05
0.000354784
-3.09108e-05
0.000356065
-3.0223e-05
0.000357419
-2.8755e-05
0.000358771
-2.64554e-05
0.000360063
-2.32775e-05
0.000361259
-1.91968e-05
0.00036235
-1.42212e-05
0.000363353
-8.39086e-06
0.000364313
-1.78995e-06
0.000365308
5.46017e-06
0.000366402
1.32022e-05
0.000367663
2.12408e-05
0.000369161
2.93437e-05
0.00037093
3.73113e-05
0.000372968
4.49099e-05
0.000375275
5.19377e-05
0.000377806
5.82175e-05
0.000380516
6.3596e-05
0.00038336
6.79524e-05
0.000386294
7.11988e-05
0.000389277
7.32797e-05
0.000392281
7.4188e-05
0.000395312
7.39567e-05
0.000398345
7.26665e-05
0.000401441
7.04114e-05
0.000404593
6.73611e-05
0.000407862
6.36672e-05
0.000411247
5.95154e-05
0.000414706
5.50843e-05
0.000418233
5.04826e-05
0.000421835
4.58538e-05
0.000425402
4.13533e-05
0.000428886
3.70979e-05
0.000432228
3.31562e-05
0.000435288
2.96282e-05
2.65578e-05
0.000437959
0.000369714
-1.85244e-05
0.000367882
-1.69558e-05
0.000365871
-1.59034e-05
0.000363703
-1.53928e-05
0.000361449
-1.547e-05
0.000359212
-1.60861e-05
0.000357074
-1.72015e-05
0.000355188
-1.87398e-05
0.000353627
-2.0515e-05
0.000352497
-2.24521e-05
0.000351866
-2.43669e-05
0.000351741
-2.61255e-05
0.000352134
-2.75967e-05
0.000352996
-2.86682e-05
0.000354253
-2.92372e-05
0.000355816
-2.92432e-05
0.000357589
-2.86122e-05
0.000359479
-2.72941e-05
0.000361398
-2.52467e-05
0.000363271
-2.24358e-05
0.000365034
-1.88374e-05
0.000366664
-1.44688e-05
0.000368131
-9.32832e-06
0.000369473
-3.50031e-06
0.000370726
2.94394e-06
0.000371928
9.90257e-06
0.000373173
1.7187e-05
0.000374489
2.46258e-05
0.00037593
3.20427e-05
0.000377517
3.92078e-05
0.000379229
4.5926e-05
0.000381068
5.20197e-05
0.000383011
5.73094e-05
0.000385026
6.16639e-05
0.000387103
6.49674e-05
0.000389227
6.71784e-05
0.000391404
6.82711e-05
0.000393659
6.82786e-05
0.000396025
6.72885e-05
0.000398532
6.54e-05
0.000401241
6.27778e-05
0.000404181
5.95837e-05
0.000407349
5.59955e-05
0.000410684
5.21478e-05
0.000414166
4.82192e-05
0.000417796
4.42675e-05
0.000421541
4.04266e-05
0.00042526
3.67954e-05
0.000428798
3.34471e-05
0.000432101
3.0431e-05
2.77804e-05
0.000435084
0.000372331
-1.3746e-05
0.000370117
-1.26615e-05
0.000367656
-1.21088e-05
0.00036501
-1.2112e-05
0.000362292
-1.2652e-05
0.000359615
-1.37022e-05
0.000357106
-1.51774e-05
0.000354917
-1.69816e-05
0.000353167
-1.89335e-05
0.000351959
-2.09404e-05
0.000351338
-2.28377e-05
0.000351344
-2.45107e-05
0.000351936
-2.5854e-05
0.000353072
-2.67875e-05
0.000354665
-2.72439e-05
0.000356606
-2.71828e-05
0.000358802
-2.65636e-05
0.000361149
-2.53583e-05
0.00036355
-2.35345e-05
0.000365949
-2.1091e-05
0.000368225
-1.79779e-05
0.000370306
-1.41775e-05
0.000372189
-9.75599e-06
0.000373894
-4.75002e-06
0.000375407
8.1711e-07
0.000376799
6.86165e-06
0.000378084
1.32478e-05
0.000379291
1.98682e-05
0.00038051
2.65228e-05
0.000381713
3.30544e-05
0.00038292
3.92618e-05
0.000384157
4.49636e-05
0.000385398
4.99935e-05
0.000386638
5.42038e-05
0.000387897
5.74788e-05
0.000389206
5.97659e-05
0.00039059
6.10428e-05
0.000392106
6.13399e-05
0.000393831
6.07374e-05
0.0003958
5.93626e-05
0.000398085
5.73331e-05
0.000400725
5.482e-05
0.000403692
5.19733e-05
0.000406939
4.88932e-05
0.000410377
4.57682e-05
0.000414056
4.26235e-05
0.000417887
3.95553e-05
0.000421733
3.66331e-05
0.000425498
3.39104e-05
0.000429019
3.14327e-05
2.921e-05
0.000432221
0.000374628
-9.86609e-06
0.000372003
-9.26744e-06
0.000369081
-9.23318e-06
0.000365985
-9.7092e-06
0.00036281
-1.0671e-05
0.00035973
-1.20604e-05
0.000356913
-1.3779e-05
0.000354476
-1.56917e-05
0.000352593
-1.76712e-05
0.00035134
-1.95855e-05
0.000350778
-2.1317e-05
0.000350905
-2.27697e-05
0.000351695
-2.38771e-05
0.000353067
-2.45871e-05
0.000354949
-2.48819e-05
0.000357197
-2.47065e-05
0.00035974
-2.40923e-05
0.000362491
-2.30126e-05
0.00036533
-2.14162e-05
0.000368091
-1.92725e-05
0.0003707
-1.66267e-05
0.000373209
-1.34781e-05
0.000375491
-9.84666e-06
0.00037753
-5.6524e-06
0.000379323
-1.01361e-06
0.000380943
4.00035e-06
0.0003823
9.41296e-06
0.000383508
1.50546e-05
0.000384579
2.07945e-05
0.000385513
2.65085e-05
0.000386315
3.20325e-05
0.000387026
3.71632e-05
0.000387653
4.17768e-05
0.000388212
4.57196e-05
0.000388723
4.88914e-05
0.000389276
5.12105e-05
0.000389942
5.26886e-05
0.000390785
5.33407e-05
0.00039191
5.32407e-05
0.000393411
5.24971e-05
0.00039531
5.12439e-05
0.000397665
4.9577e-05
0.000400444
4.76495e-05
0.000403562
4.54946e-05
0.000406947
4.32652e-05
0.000410634
4.10231e-05
0.000414533
3.87943e-05
0.000418474
3.66256e-05
0.000422354
3.45424e-05
0.000426012
3.25807e-05
3.07599e-05
0.0004294
0.000376513
-6.97142e-06
0.000373529
-6.9229e-06
0.000370203
-7.37662e-06
0.000366657
-8.22298e-06
0.000363102
-9.51571e-06
0.00035968
-1.11092e-05
0.000356585
-1.29074e-05
0.000353983
-1.47758e-05
0.00035201
-1.65928e-05
0.000350761
-1.82628e-05
0.000350257
-1.96768e-05
0.000350517
-2.07994e-05
0.000351467
-2.15817e-05
0.000353036
-2.20215e-05
0.000355134
-2.21195e-05
0.000357657
-2.18597e-05
0.000360486
-2.12454e-05
0.000363509
-2.02443e-05
0.000366593
-1.88732e-05
0.000369689
-1.71241e-05
0.000372668
-1.50093e-05
0.000375455
-1.25154e-05
0.000378035
-9.62623e-06
0.000380395
-6.38991e-06
0.000382502
-2.71096e-06
0.000384276
1.29652e-06
0.00038582
5.56354e-06
0.000387064
1.01769e-05
0.000388079
1.48556e-05
0.000388826
1.96425e-05
0.000389364
2.42969e-05
0.000389672
2.87456e-05
0.000389763
3.28238e-05
0.000389736
3.64057e-05
0.000389636
3.94028e-05
0.000389538
4.17647e-05
0.000389582
4.34748e-05
0.000389838
4.45651e-05
0.000390466
4.50897e-05
0.00039153
4.51301e-05
0.000393088
4.47793e-05
0.000395206
4.41261e-05
0.00039778
4.32251e-05
0.00040072
4.2129e-05
0.000404036
4.08771e-05
0.000407655
3.95761e-05
0.000411524
3.82129e-05
0.000415472
3.67854e-05
0.000419355
3.5322e-05
0.000423108
3.38381e-05
3.23579e-05
0.000426583
0.00037809
-5.20181e-06
0.000374701
-5.59667e-06
0.000371007
-6.46856e-06
0.000367125
-7.66152e-06
0.000363227
-9.12142e-06
0.000359563
-1.07558e-05
0.00035627
-1.24455e-05
0.000353559
-1.40789e-05
0.000351556
-1.55617e-05
0.000350322
-1.68183e-05
0.000349887
-1.78024e-05
0.000350233
-1.84965e-05
0.000351313
-1.88995e-05
0.000353024
-1.90833e-05
0.00035527
-1.89512e-05
0.000357925
-1.85982e-05
0.000360923
-1.79909e-05
0.000364125
-1.71387e-05
0.000367435
-1.60559e-05
0.000370745
-1.47512e-05
0.000373961
-1.32045e-05
0.000377048
-1.14147e-05
0.000379911
-9.35109e-06
0.000382444
-7.01976e-06
0.000384836
-4.39444e-06
0.000386839
-1.46788e-06
0.00038856
1.68099e-06
0.000389919
5.11843e-06
0.000390955
8.7217e-06
0.000391653
1.24328e-05
0.000392
1.61632e-05
0.00039201
1.98263e-05
0.000391754
2.32879e-05
0.000391278
2.64574e-05
0.000390689
2.92836e-05
0.000390103
3.17162e-05
0.000389614
3.37303e-05
0.000389446
3.53635e-05
0.000389636
3.66376e-05
0.000390331
3.76011e-05
0.000391606
3.82986e-05
0.000393451
3.87725e-05
0.000395826
3.8944e-05
0.000398534
3.90263e-05
0.000401651
3.88072e-05
0.00040514
3.84173e-05
0.000408888
3.79016e-05
0.000412725
3.71822e-05
0.000416546
3.62614e-05
0.000420249
3.51827e-05
3.39577e-05
0.000423742
0.000379278
-4.56007e-06
0.000375647
-5.37657e-06
0.000371638
-6.54227e-06
0.000367476
-7.90839e-06
0.00036336
-9.37659e-06
0.000359506
-1.0849e-05
0.000356109
-1.22293e-05
0.000353343
-1.34394e-05
0.000351335
-1.44109e-05
0.000350114
-1.51227e-05
0.000349724
-1.55712e-05
0.00035015
-1.57844e-05
0.000351283
-1.5844e-05
0.000353019
-1.56533e-05
0.000355297
-1.5362e-05
0.000358016
-1.49434e-05
0.000361099
-1.43995e-05
0.000364393
-1.37723e-05
0.000367814
-1.30544e-05
0.000371246
-1.22488e-05
0.000374644
-1.13381e-05
0.000377914
-1.0304e-05
0.000380962
-9.11439e-06
0.000383799
-7.75095e-06
0.000386344
-6.19352e-06
0.000388606
-4.4032e-06
0.000390555
-2.39225e-06
0.00039204
-1.69298e-07
0.000393207
2.29308e-06
0.000393924
4.91096e-06
0.00039422
7.66601e-06
0.000394111
1.04922e-05
0.000393649
1.33259e-05
0.000392873
1.61073e-05
0.000391982
1.8805e-05
0.000391039
2.13751e-05
0.000390219
2.38167e-05
0.0003897
2.61072e-05
0.000389575
2.8274e-05
0.00038999
3.02907e-05
0.000390966
3.21526e-05
0.000392548
3.38194e-05
0.000394582
3.51874e-05
0.000397063
3.6354e-05
0.000399906
3.72375e-05
0.000403113
3.77728e-05
0.000406621
3.79797e-05
0.000410225
3.78881e-05
0.000413879
3.7408e-05
0.000417414
3.66325e-05
3.55621e-05
0.000420805
0.000380206
-5.05289e-06
0.000376325
-6.17804e-06
0.000372185
-7.50634e-06
0.000367859
-8.85753e-06
0.000363591
-1.01146e-05
0.000359669
-1.12132e-05
0.000356224
-1.20777e-05
0.000353461
-1.26769e-05
0.000351445
-1.29864e-05
0.000350246
-1.30395e-05
0.000349877
-1.29064e-05
0.000350262
-1.26293e-05
0.000351318
-1.22374e-05
0.000353002
-1.17719e-05
0.00035524
-1.1352e-05
0.000357926
-1.09217e-05
0.000360964
-1.05336e-05
0.000364265
-1.02126e-05
0.000367684
-9.94459e-06
0.000371179
-9.71799e-06
0.000374659
-9.51323e-06
0.000378037
-9.29832e-06
0.000381279
-9.04612e-06
0.000384269
-8.69961e-06
0.000387055
-8.23498e-06
0.000389545
-7.63363e-06
0.000391697
-6.7988e-06
0.000393429
-5.77914e-06
0.000394803
-4.51454e-06
0.000395654
-2.97485e-06
0.000396041
-1.19031e-06
0.000395961
8.23182e-07
0.000395439
3.0805e-06
0.000394637
5.54197e-06
0.000393586
8.20859e-06
0.000392502
1.10598e-05
0.000391521
1.40577e-05
0.000390774
1.71813e-05
0.000390446
2.0375e-05
0.000390584
2.35795e-05
0.000391312
2.67023e-05
0.000392549
2.95483e-05
0.000394166
3.22657e-05
0.000396255
3.4467e-05
0.000398758
3.63384e-05
0.000401594
3.77437e-05
0.000404724
3.86259e-05
0.000407982
3.90019e-05
0.000411251
3.88588e-05
0.000414574
3.82319e-05
3.71803e-05
0.00041778
0.000380837
-6.63664e-06
0.000376989
-7.9303e-06
0.000372715
-9.23246e-06
0.000368367
-1.03323e-05
0.000364136
-1.11673e-05
0.00036018
-1.1657e-05
0.000356785
-1.1807e-05
0.000354014
-1.16233e-05
0.000352012
-1.1133e-05
0.000350793
-1.04865e-05
0.000350306
-9.70129e-06
0.000350544
-8.89392e-06
0.000351448
-8.07908e-06
0.000353002
-7.44294e-06
0.000355075
-6.90721e-06
0.0003576
-6.56509e-06
0.000360491
-6.43776e-06
0.000363651
-6.51921e-06
0.000367016
-6.79406e-06
0.00037048
-7.23915e-06
0.000373948
-7.81664e-06
0.000377416
-8.51406e-06
0.000380776
-9.25154e-06
0.000383882
-9.98335e-06
0.000386916
-1.06541e-05
0.000389619
-1.12699e-05
0.000392053
-1.16244e-05
0.00039407
-1.18595e-05
0.000395697
-1.17252e-05
0.000396846
-1.12839e-05
0.000397489
-1.04176e-05
0.000397609
-9.13227e-06
0.000397302
-7.35574e-06
0.000396593
-5.07952e-06
0.000395675
-2.28023e-06
0.000394614
1.0366e-06
0.000393614
4.77076e-06
0.00039283
8.89452e-06
0.00039233
1.33019e-05
0.000392283
1.781e-05
0.000392634
2.22506e-05
0.000393497
2.6441e-05
0.000394661
3.02617e-05
0.000396202
3.3686e-05
0.000398161
3.64178e-05
0.000400492
3.85304e-05
0.000403079
3.99584e-05
0.000405841
4.06634e-05
0.000408695
4.06889e-05
0.00041161
4.00693e-05
3.88583e-05
0.000414527
0.000381423
-9.21366e-06
0.000377559
-1.05125e-05
0.000373468
-1.15578e-05
0.00036924
-1.21917e-05
0.000365074
-1.23473e-05
0.000361226
-1.19806e-05
0.000357879
-1.12486e-05
0.000355148
-1.01083e-05
0.000353102
-8.78623e-06
0.000351721
-7.27878e-06
0.00035106
-5.8757e-06
0.000351021
-4.48927e-06
0.0003517
-3.3974e-06
0.000352944
-2.55199e-06
0.000354716
-2.04136e-06
0.000356957
-1.91287e-06
0.000359606
-2.14828e-06
0.000362547
-2.73809e-06
0.000365743
-3.65828e-06
0.00036908
-4.86894e-06
0.00037249
-6.35043e-06
0.000375977
-8.00292e-06
0.000379341
-9.82971e-06
0.000382696
-1.16557e-05
0.000385874
-1.36011e-05
0.000388832
-1.53724e-05
0.000391561
-1.70241e-05
0.000393954
-1.84588e-05
0.000395943
-1.94465e-05
0.000397513
-2.00527e-05
0.000398575
-2.00353e-05
0.000399149
-1.93503e-05
0.000399212
-1.79273e-05
0.000398939
-1.56492e-05
0.000398315
-1.25212e-05
0.000397547
-8.54503e-06
0.000396748
-3.8168e-06
0.000395975
1.53717e-06
0.000395396
7.3504e-06
0.000395062
1.32734e-05
0.000395162
1.90915e-05
0.000395351
2.4696e-05
0.000395921
2.97304e-05
0.000396893
3.40785e-05
0.000398156
3.76842e-05
0.000399774
4.04e-05
0.000401651
4.21574e-05
0.000403728
4.30348e-05
0.000406061
4.3033e-05
0.000408463
4.22188e-05
4.06776e-05
0.000410968
0.000381909
-1.27378e-05
0.000378419
-1.38102e-05
0.000374546
-1.43622e-05
0.000370539
-1.42397e-05
0.00036663
-1.34668e-05
0.000362963
-1.2069e-05
0.000359694
-1.0199e-05
0.000356928
-8.06788e-06
0.000354731
-5.65888e-06
0.000353099
-3.42064e-06
0.000352081
-1.23388e-06
0.000351739
5.45361e-07
0.000351958
1.9623e-06
0.000352774
2.8612e-06
0.000354128
3.21923e-06
0.000355969
3.04475e-06
0.000358228
2.32759e-06
0.000360868
1.10859e-06
0.00036378
-5.74321e-07
0.000366902
-2.67264e-06
0.000370243
-5.11418e-06
0.00037361
-7.86759e-06
0.000377052
-1.07696e-05
0.000380519
-1.3909e-05
0.000383871
-1.7032e-05
0.000387159
-2.01049e-05
0.000390218
-2.30686e-05
0.000393026
-2.56395e-05
0.000395574
-2.78198e-05
0.000397681
-2.93362e-05
0.000399406
-3.0103e-05
0.000400623
-2.9907e-05
0.000401401
-2.86255e-05
0.000401738
-2.61454e-05
0.000401736
-2.24445e-05
0.000401442
-1.75294e-05
0.000400946
-1.15519e-05
0.00040035
-4.72022e-06
0.000399707
2.67975e-06
0.000399235
1.02024e-05
0.000398574
1.76327e-05
0.000398273
2.45323e-05
0.000398123
3.07663e-05
0.000398144
3.61286e-05
0.000398565
4.03619e-05
0.000399302
4.348e-05
0.000400308
4.54373e-05
0.000401636
4.62646e-05
0.000403154
4.60244e-05
0.000404998
4.48097e-05
4.27169e-05
0.000407013
0.000382631
-1.70959e-05
0.00037955
-1.77211e-05
0.00037618
-1.75153e-05
0.000372621
-1.63816e-05
0.000368975
-1.44036e-05
0.000365511
-1.17074e-05
0.000362266
-8.61224e-06
0.000359397
-5.20583e-06
0.000356924
-1.82819e-06
0.000354928
1.39191e-06
0.00035349
4.16501e-06
0.000352535
6.42769e-06
0.000352225
7.98687e-06
0.000352466
8.83802e-06
0.000353226
8.95461e-06
0.000354495
8.32209e-06
0.00035628
6.99111e-06
0.000358475
5.0147e-06
0.000361042
2.44353e-06
0.000363923
-6.41918e-07
0.000367019
-4.18367e-06
0.000370312
-8.05048e-06
0.000373788
-1.22717e-05
0.000377317
-1.66353e-05
0.000380933
-2.11041e-05
0.000384486
-2.55485e-05
0.000387947
-2.97342e-05
0.000391339
-3.35823e-05
0.000394526
-3.68431e-05
0.000397443
-3.92781e-05
0.000399981
-4.071e-05
0.000402168
-4.08717e-05
0.000403893
-3.95764e-05
0.000405263
-3.66676e-05
0.00040609
-3.21037e-05
0.000406504
-2.59222e-05
0.000406579
-1.8378e-05
0.000406127
-9.76095e-06
0.000405514
-5.75042e-07
0.000404421
8.91851e-06
0.000403382
1.78918e-05
0.000402152
2.63302e-05
0.000400973
3.37616e-05
0.000400047
3.98965e-05
0.000399347
4.47079e-05
0.000398934
4.80578e-05
0.000398938
4.99777e-05
0.000399253
5.05271e-05
0.000399978
4.98159e-05
0.000401053
4.79578e-05
4.50768e-05
0.000402447
0.00038363
-2.23005e-05
0.000381327
-2.22078e-05
0.000378595
-2.0957e-05
0.000375557
-1.85532e-05
0.00037234
-1.50194e-05
0.000369009
-1.08712e-05
0.000365795
-6.25449e-06
0.000362628
-1.54067e-06
0.000359744
3.05479e-06
0.000357242
7.13177e-06
0.000355085
1.05778e-05
0.000353472
1.31487e-05
0.000352378
1.47978e-05
0.000351823
1.54809e-05
0.000351864
1.51776e-05
0.000352488
1.39589e-05
0.000353637
1.18663e-05
0.000355318
9.00032e-06
0.000357449
5.41214e-06
0.000359952
1.20404e-06
0.000362826
-3.51609e-06
0.000365993
-8.68338e-06
0.000369427
-1.41901e-05
0.000373082
-1.99713e-05
0.000376876
-2.58403e-05
0.000380754
-3.16316e-05
0.000384781
-3.72029e-05
0.000388831
-4.22944e-05
0.000392819
-4.66245e-05
0.000396723
-4.99904e-05
0.000400449
-5.19958e-05
0.00040385
-5.24208e-05
0.00040697
-5.09411e-05
0.000409594
-4.73794e-05
0.000411627
-4.16484e-05
0.000413049
-3.38566e-05
0.000413685
-2.43605e-05
0.000413628
-1.36071e-05
0.000412709
-2.16462e-06
0.000411315
9.37955e-06
0.000409295
2.03564e-05
0.000407036
3.03223e-05
0.000404658
3.88764e-05
0.000402336
4.58127e-05
0.000400261
5.09555e-05
0.000398599
5.43325e-05
0.000397306
5.59779e-05
0.00039651
5.5995e-05
0.000396231
5.45474e-05
0.000396461
5.1778e-05
4.78613e-05
0.000397181
0.000385273
-2.83777e-05
0.000383829
-2.73496e-05
0.000381915
-2.47013e-05
0.000379781
-2.05334e-05
0.000376826
-1.54265e-05
0.000373813
-9.40609e-06
0.000370225
-3.07529e-06
0.00036671
3.23943e-06
0.000363277
9.02243e-06
0.000359947
1.40789e-05
0.000356966
1.80607e-05
0.00035437
2.09099e-05
0.000352295
2.24972e-05
0.00035083
2.28558e-05
0.000349999
2.20055e-05
0.000349781
2.00326e-05
0.000350207
1.70196e-05
0.000351268
1.30972e-05
0.000352842
8.3504e-06
0.000354928
2.90408e-06
0.000357558
-3.09828e-06
0.000360513
-9.66539e-06
0.000363916
-1.66443e-05
0.00036762
-2.38712e-05
0.000371629
-3.12059e-05
0.000375996
-3.84884e-05
0.000380583
-4.54383e-05
0.000385395
-5.18066e-05
0.000390464
-5.73184e-05
0.000395576
-6.15635e-05
0.000400786
-6.4172e-05
0.000405797
-6.47862e-05
0.000410613
-6.30056e-05
0.000415043
-5.86215e-05
0.000418573
-5.13311e-05
0.000421235
-4.15926e-05
0.000422824
-2.96724e-05
0.000422863
-1.62483e-05
0.000421849
-2.06457e-06
0.000419581
1.203e-05
0.000416562
2.51336e-05
0.000412907
3.67562e-05
0.000408901
4.64928e-05
0.000404957
5.40409e-05
0.000401263
5.93988e-05
0.000397998
6.2555e-05
0.000395274
6.36459e-05
0.000393141
6.28432e-05
0.000391738
6.03605e-05
0.000391016
5.63986e-05
5.11464e-05
0.000390918
0.000387513
-3.54898e-05
0.0003875
-3.31911e-05
0.000386799
-2.87704e-05
0.000385079
-2.27856e-05
0.000382962
-1.53472e-05
0.000379624
-7.22509e-06
0.000375914
1.21679e-06
0.000371833
9.19013e-06
0.00036745
1.63951e-05
0.000363102
2.23397e-05
0.000358934
2.68952e-05
0.000355171
2.98515e-05
0.000351903
3.12638e-05
0.000349311
3.11263e-05
0.000347398
2.95326e-05
0.00034624
2.66132e-05
0.000345853
2.25214e-05
0.000346159
1.7376e-05
0.000347147
1.13229e-05
0.000348807
4.54147e-06
0.000351008
-2.94276e-06
0.000353805
-1.10383e-05
0.000357083
-1.9518e-05
0.000360906
-2.83235e-05
0.000365199
-3.72324e-05
0.000369954
-4.60212e-05
0.000375245
-5.44718e-05
0.000381042
-6.22445e-05
0.000387312
-6.89515e-05
0.000393933
-7.41947e-05
0.000400981
-7.74561e-05
0.000407969
-7.83238e-05
0.000415045
-7.61351e-05
0.000421809
-7.07447e-05
0.000427168
-6.17678e-05
0.000431768
-4.9532e-05
0.000434018
-3.45447e-05
0.000434505
-1.76322e-05
0.000432838
-5.40307e-08
0.000429727
1.69711e-05
0.000425146
3.25576e-05
0.000419654
4.6032e-05
0.00041371
5.69175e-05
0.000407702
6.50091e-05
0.00040205
7.03056e-05
0.000396937
7.29709e-05
0.000392499
7.31838e-05
0.000388947
7.12297e-05
0.000386258
6.73802e-05
0.000384412
6.18915e-05
5.50382e-05
0.000383453
0.000390886
-4.38718e-05
0.00039264
-3.99939e-05
0.000392985
-3.36257e-05
0.000392659
-2.50253e-05
0.000390525
-1.49911e-05
0.000387329
-4.03007e-06
0.00038302
6.66476e-06
0.000377887
1.67072e-05
0.000372354
2.53407e-05
0.000366603
3.22915e-05
0.000360986
3.72631e-05
0.000355711
4.02596e-05
0.000351063
4.12682e-05
0.000347113
4.04323e-05
0.000343955
3.79005e-05
0.000341725
3.38409e-05
0.000340367
2.84539e-05
0.000339878
2.1898e-05
0.000340218
1.44534e-05
0.000341327
6.0772e-06
0.000343175
-3.00644e-06
0.000345683
-1.26676e-05
0.00034891
-2.28238e-05
0.000352774
-3.32573e-05
0.000357315
-4.38165e-05
0.000362643
-5.42735e-05
0.0003687
-6.43175e-05
0.000375545
-7.35755e-05
0.000383252
-8.16598e-05
0.000391654
-8.80613e-05
0.000400922
-9.21408e-05
0.000410461
-9.34318e-05
0.000420213
-9.09671e-05
0.000429914
-8.45056e-05
0.000438043
-7.35192e-05
0.000444463
-5.80937e-05
0.000447986
-3.90779e-05
0.000448676
-1.79053e-05
0.000446405
3.97631e-06
0.000441774
2.45185e-05
0.000435166
4.30829e-05
0.000427345
5.85977e-05
0.000418909
7.06126e-05
0.000410408
7.90655e-05
0.000402383
8.40462e-05
0.000395117
8.58536e-05
0.000388808
8.48022e-05
0.000383561
8.13044e-05
0.000379435
7.57041e-05
0.000376432
6.84224e-05
5.96061e-05
0.000374462
0.000395583
-5.39576e-05
0.000399335
-4.82921e-05
0.000401609
-3.92575e-05
0.000401875
-2.76036e-05
0.000400287
-1.40466e-05
0.00039673
1.66197e-07
0.000391578
1.36926e-05
0.000385218
2.6003e-05
0.00037799
3.63216e-05
0.000370427
4.42116e-05
0.000362924
4.95525e-05
0.000355877
5.23606e-05
0.000349499
5.27742e-05
0.000343978
5.09863e-05
0.000339489
4.7244e-05
0.000336026
4.18139e-05
0.000333617
3.48939e-05
0.000332257
2.68417e-05
0.000331887
1.76772e-05
0.000332434
7.61599e-06
0.000333837
-3.15633e-06
0.000336092
-1.45528e-05
0.000339167
-2.6419e-05
0.000343117
-3.86259e-05
0.000347979
-5.09423e-05
0.000353823
-6.31475e-05
0.000360706
-7.49151e-05
0.000368769
-8.58625e-05
0.00037807
-9.55151e-05
0.000388504
-0.000103294
0.000400235
-0.000108542
0.000412841
-0.000110479
0.000426106
-0.000108206
0.000439274
-0.000100708
0.000450675
-8.71959e-05
0.000459788
-6.80078e-05
0.000465112
-4.39506e-05
0.000466072
-1.71534e-05
0.000462683
1.00607e-05
0.000455919
3.52798e-05
0.000446656
5.73027e-05
0.000435751
7.50431e-05
0.000424149
8.81666e-05
0.000412689
9.67064e-05
0.00040192
0.000100974
0.000392167
0.000101462
0.000383651
9.86961e-05
0.000376606
9.32029e-05
0.000370961
8.55164e-05
0.00036675
7.591e-05
6.48376e-05
0.000363808
0.000401755
-6.64229e-05
0.000408469
-5.85504e-05
0.000412485
-4.63158e-05
0.000414172
-3.04776e-05
0.000412769
-1.26109e-05
0.000408684
5.61273e-06
0.000402093
2.27129e-05
0.000393723
3.7704e-05
0.000384299
4.9795e-05
0.000374434
5.86127e-05
0.000364637
6.41452e-05
0.000355411
6.65214e-05
0.000347089
6.60295e-05
0.000339789
6.29911e-05
0.000333708
5.7741e-05
0.000328939
5.0644e-05
0.000325359
4.2052e-05
0.000323105
3.21216e-05
0.000322011
2.11208e-05
0.000321948
9.24823e-06
0.00032288
-3.34993e-06
0.000324835
-1.657e-05
0.000327792
-3.02751e-05
0.000331798
-4.43032e-05
0.000336947
-5.84964e-05
0.000343343
-7.25754e-05
0.000351152
-8.62387e-05
0.000360442
-9.90447e-05
0.00037133
-0.00011047
0.000383973
-0.000119949
0.000398279
-0.000126724
0.00041422
-0.000129858
0.000431381
-0.000128135
0.000448354
-0.000119675
0.000464123
-0.000103812
0.000476901
-8.04783e-05
0.000484638
-5.00782e-05
0.000486088
-1.58318e-05
0.000481565
1.8436e-05
0.000472292
4.96561e-05
0.000459466
7.5902e-05
0.00044468
9.61475e-05
0.000429273
0.000110243
0.000414141
0.00011848
0.000400057
0.000121492
0.000387553
0.0001201
0.000376708
0.000115076
0.000367714
0.000107058
0.00036048
9.66753e-05
0.000355016
8.44265e-05
7.07181e-05
0.000351062
0.00041011
-8.21187e-05
0.000419754
-7.16973e-05
0.000426762
-5.51409e-05
0.000429778
-3.4055e-05
0.00042847
-1.05772e-05
0.000423199
1.2826e-05
0.000414541
3.42937e-05
0.000403588
5.24283e-05
0.000391268
6.6442e-05
0.000378429
7.60974e-05
0.000365857
8.15352e-05
0.00035405
8.31244e-05
0.000343406
8.13268e-05
0.000334144
7.66525e-05
0.000326389
6.95485e-05
0.000320154
6.05254e-05
0.000315472
4.98583e-05
0.00031228
3.78678e-05
0.00031037
2.48641e-05
0.00030969
1.1027e-05
0.000310178
-3.507e-06
0.000311825
-1.8632e-05
0.000314615
-3.42481e-05
0.00031868
-5.02092e-05
0.000324116
-6.63647e-05
0.00033108
-8.244e-05
0.000339711
-9.81349e-05
0.000350095
-0.000112924
0.000362451
-0.000126305
0.000376858
-0.000137593
0.000393508
-0.000146335
0.000412115
-0.000151018
0.000432265
-0.000150146
0.000453278
-0.000141539
0.000473593
-0.000124008
0.000491398
-9.74148e-05
0.000502809
-5.95627e-05
0.000506071
-1.53937e-05
0.000500819
2.84072e-05
0.000488684
6.76756e-05
0.00047208
9.91908e-05
0.000452951
0.000122356
0.000433064
0.000137344
0.000413802
0.000144854
0.000396163
0.000145966
0.000380634
0.000141961
0.000367301
0.000133892
0.000356387
0.000122743
0.000347629
0.000109243
0.000340858
9.39527e-05
7.72677e-05
0.000335871
0.000418985
-0.00010189
0.000433319
-8.83824e-05
0.000444092
-6.70073e-05
0.000449066
-3.89759e-05
0.000447589
-7.83186e-06
0.00044071
2.22346e-05
0.000429379
4.91951e-05
0.000414879
7.10735e-05
0.0003987
8.71218e-05
0.000382166
9.73849e-05
0.000366172
0.000102289
0.000351385
0.00010258
0.000338213
9.8971e-05
0.000326768
9.21892e-05
0.000317087
8.28493e-05
0.000309519
7.14078e-05
0.000303685
5.83648e-05
0.000299485
4.4143e-05
0.000296806
2.89547e-05
0.000295534
1.30236e-05
0.000295568
-3.53788e-06
0.000296925
-2.06582e-05
0.000299572
-3.82527e-05
0.00030366
-5.62013e-05
0.000309315
-7.44019e-05
0.000316715
-9.25638e-05
0.000325973
-0.000110346
0.000337135
-0.000127054
0.000350222
-0.000142129
0.000365174
-0.000155099
0.000382279
-0.000165574
0.000401017
-0.000171126
0.000421665
-0.000172228
0.000444292
-0.000164103
0.000467921