/*--------------------------------*- C++ -*----------------------------------*\
  =========                 |
  \\      /  F ield         | OpenFOAM: The Open Source CFD Toolbox
   \\    /   O peration     | Website:  https://openfoam.org
    \\  /    A nd           | Version:  10
     \\/     M anipulation  |
\*---------------------------------------------------------------------------*/
FoamFile
{
    format      ascii;
    class       volVectorField;
    location    "0.151022";
    object      U;
}
// * * * * * * * * * * * * * * * * * * * * * * * * * * * * * * * * * * * * * //

dimensions      [0 1 -1 0 0 0 0];

internalField   nonuniform List<vector> 
15708
(
(0.474584 -0.0700924 0)
(0.473512 -0.0659276 0)
(0.472455 -0.0619949 0)
(0.471342 -0.0584517 0)
(0.470126 -0.0553856 0)
(0.46877 -0.0528595 0)
(0.467244 -0.0509062 0)
(0.465531 -0.0495218 0)
(0.463621 -0.0486607 0)
(0.461512 -0.0482314 0)
(0.459204 -0.0480968 0)
(0.456692 -0.0480759 0)
(0.453957 -0.047951 0)
(0.450973 -0.0474781 0)
(0.447702 -0.0464003 0)
(0.444107 -0.0444642 0)
(0.440167 -0.0414421 0)
(0.435897 -0.0371523 0)
(0.431362 -0.0314825 0)
(0.426694 -0.0244093 0)
(0.422089 -0.0160082 0)
(0.417803 -0.00645426 0)
(0.414109 0.00399134 0)
(0.411297 0.0150109 0)
(0.40961 0.0262632 0)
(0.409217 0.0374047 0)
(0.410208 0.0481488 0)
(0.4126 0.0582453 0)
(0.416336 0.0674987 0)
(0.421253 0.0757816 0)
(0.427207 0.0830513 0)
(0.434065 0.0891701 0)
(0.441635 0.0941218 0)
(0.449758 0.0978665 0)
(0.458216 0.10042 0)
(0.466786 0.101835 0)
(0.475307 0.102127 0)
(0.483644 0.10132 0)
(0.491697 0.0994509 0)
(0.49938 0.0965685 0)
(0.506641 0.0927426 0)
(0.513459 0.088062 0)
(0.519829 0.082637 0)
(0.52576 0.0765991 0)
(0.531261 0.0701043 0)
(0.536333 0.0633232 0)
(0.540961 0.0564422 0)
(0.545106 0.0496576 0)
(0.5487 0.0431666 0)
(0.551648 0.0371774 0)
(0.553826 0.0318617 0)
(0.478829 -0.0616326 0)
(0.477488 -0.0576318 0)
(0.476071 -0.0539461 0)
(0.474498 -0.0507161 0)
(0.472743 -0.0480309 0)
(0.4708 -0.0459517 0)
(0.468673 -0.0445054 0)
(0.466386 -0.0436782 0)
(0.463976 -0.0434114 0)
(0.461488 -0.0435996 0)
(0.458964 -0.0440922 0)
(0.456437 -0.0447003 0)
(0.453921 -0.0452063 0)
(0.451403 -0.0453708 0)
(0.44885 -0.0449485 0)
(0.44621 -0.0437003 0)
(0.44343 -0.0414103 0)
(0.440472 -0.0379001 0)
(0.437332 -0.0330458 0)
(0.434053 -0.026796 0)
(0.430738 -0.0191842 0)
(0.427548 -0.0103318 0)
(0.424693 -0.00044742 0)
(0.42239 0.010194 0)
(0.420873 0.0212636 0)
(0.420328 0.0324452 0)
(0.42089 0.0434248 0)
(0.422607 0.0539132 0)
(0.425473 0.0636743 0)
(0.429421 0.0725204 0)
(0.434291 0.0803582 0)
(0.439978 0.0870724 0)
(0.446349 0.092586 0)
(0.453203 0.0968479 0)
(0.460414 0.0997978 0)
(0.467791 0.101474 0)
(0.475142 0.101905 0)
(0.482345 0.101122 0)
(0.489306 0.099179 0)
(0.49597 0.0961421 0)
(0.502309 0.0921095 0)
(0.508319 0.0871975 0)
(0.514016 0.0815496 0)
(0.519431 0.0753226 0)
(0.524589 0.0686944 0)
(0.529501 0.0618488 0)
(0.534163 0.0549745 0)
(0.538536 0.0482651 0)
(0.54255 0.041909 0)
(0.546101 0.0360841 0)
(0.549059 0.030954 0)
(0.482907 -0.0529662 0)
(0.481215 -0.0491873 0)
(0.479355 -0.0458472 0)
(0.477251 -0.0430394 0)
(0.47489 -0.0408442 0)
(0.472299 -0.0393128 0)
(0.469522 -0.0384604 0)
(0.466629 -0.038255 0)
(0.463703 -0.0386185 0)
(0.460835 -0.0394264 0)
(0.458107 -0.0405153 0)
(0.455584 -0.041686 0)
(0.453298 -0.0427229 0)
(0.451248 -0.0433968 0)
(0.449397 -0.0434802 0)
(0.447679 -0.0427585 0)
(0.446011 -0.0410372 0)
(0.444315 -0.0381525 0)
(0.442529 -0.033986 0)
(0.440627 -0.0284735 0)
(0.438631 -0.021617 0)
(0.43662 -0.0134955 0)
(0.434725 -0.00426628 0)
(0.433099 0.00584543 0)
(0.431958 0.0165508 0)
(0.43148 0.0275542 0)
(0.431783 0.0385348 0)
(0.432961 0.0491895 0)
(0.43506 0.0592571 0)
(0.43806 0.0685117 0)
(0.441886 0.076778 0)
(0.446423 0.0839665 0)
(0.451541 0.0899307 0)
(0.457096 0.0946089 0)
(0.462961 0.0979422 0)
(0.469005 0.0998928 0)
(0.475061 0.100486 0)
(0.481018 0.0997694 0)
(0.486812 0.0978035 0)
(0.492402 0.0947008 0)
(0.497787 0.0905662 0)
(0.502989 0.0855605 0)
(0.508046 0.0798389 0)
(0.512999 0.0735822 0)
(0.517884 0.0669996 0)
(0.522711 0.0602752 0)
(0.527476 0.0535898 0)
(0.532138 0.0471338 0)
(0.536612 0.0410773 0)
(0.54078 0.0355675 0)
(0.544501 0.0307393 0)
(0.486718 -0.0443355 0)
(0.484622 -0.0408801 0)
(0.482215 -0.0379791 0)
(0.479498 -0.0356787 0)
(0.476468 -0.0340618 0)
(0.473182 -0.0331526 0)
(0.469728 -0.0329475 0)
(0.466224 -0.0333916 0)
(0.462799 -0.0343788 0)
(0.459585 -0.0357666 0)
(0.456699 -0.0373765 0)
(0.454227 -0.0390075 0)
(0.452212 -0.0404464 0)
(0.450654 -0.041485 0)
(0.449504 -0.0419199 0)
(0.448677 -0.0415649 0)
(0.448069 -0.0402555 0)
(0.447565 -0.0378524 0)
(0.44706 -0.0342507 0)
(0.446478 -0.0293856 0)
(0.445777 -0.0232411 0)
(0.444964 -0.0158621 0)
(0.444099 -0.00736024 0)
(0.443276 0.00209126 0)
(0.442653 0.0122556 0)
(0.442387 0.022846 0)
(0.442605 0.0335665 0)
(0.443415 0.0441303 0)
(0.444886 0.054261 0)
(0.447038 0.0637104 0)
(0.449846 0.0722659 0)
(0.453233 0.0797552 0)
(0.457092 0.0860478 0)
(0.461309 0.0910365 0)
(0.465785 0.0946537 0)
(0.470413 0.0968465 0)
(0.475087 0.0976094 0)
(0.479722 0.0969971 0)
(0.48429 0.0950926 0)
(0.488781 0.0920086 0)
(0.493214 0.0879062 0)
(0.497636 0.0829553 0)
(0.502083 0.0773651 0)
(0.506639 0.0713008 0)
(0.511333 0.0649815 0)
(0.516146 0.0585663 0)
(0.521078 0.0522437 0)
(0.52608 0.0462064 0)
(0.531039 0.0406045 0)
(0.535814 0.035539 0)
(0.540257 0.0311211 0)
(0.490116 -0.0359795 0)
(0.487584 -0.0329918 0)
(0.484563 -0.0306162 0)
(0.481167 -0.0288987 0)
(0.477411 -0.0279175 0)
(0.473403 -0.0276698 0)
(0.46927 -0.0281245 0)
(0.465182 -0.0291986 0)
(0.46131 -0.0307553 0)
(0.457819 -0.0326364 0)
(0.45485 -0.0346523 0)
(0.452501 -0.0366058 0)
(0.450813 -0.0383 0)
(0.449774 -0.0395486 0)
(0.449325 -0.0401802 0)
(0.449359 -0.0400433 0)
(0.449747 -0.0390045 0)
(0.45035 -0.036958 0)
(0.451032 -0.0338158 0)
(0.451676 -0.0295169 0)
(0.452196 -0.0240387 0)
(0.452544 -0.0174049 0)
(0.452715 -0.00968741 0)
(0.452759 -0.00102282 0)
(0.452757 0.00840666 0)
(0.452836 0.0183691 0)
(0.453112 0.0286004 0)
(0.453701 0.0388147 0)
(0.45469 0.0487439 0)
(0.456118 0.0581322 0)
(0.457987 0.0667355 0)
(0.460262 0.0743518 0)
(0.462877 0.0808148 0)
(0.465752 0.0859974 0)
(0.468815 0.0898094 0)
(0.471995 0.0921866 0)
(0.475235 0.0931222 0)
(0.478514 0.0926569 0)
(0.481827 0.0908969 0)
(0.485213 0.087964 0)
(0.488728 0.0840478 0)
(0.492441 0.0793436 0)
(0.496387 0.0740816 0)
(0.500615 0.0684447 0)
(0.505154 0.0626011 0)
(0.509982 0.0567065 0)
(0.515128 0.0509524 0)
(0.520514 0.04551 0)
(0.525962 0.0404802 0)
(0.531314 0.0359593 0)
(0.536417 0.0320194 0)
(0.493033 -0.0281949 0)
(0.489994 -0.0257674 0)
(0.486325 -0.0239963 0)
(0.482197 -0.0229223 0)
(0.477686 -0.0225983 0)
(0.472956 -0.0230064 0)
(0.468175 -0.0240831 0)
(0.463564 -0.0257077 0)
(0.459331 -0.0277352 0)
(0.455656 -0.0299843 0)
(0.452701 -0.032265 0)
(0.450555 -0.0343905 0)
(0.449252 -0.0361864 0)
(0.448765 -0.0374945 0)
(0.44901 -0.0381799 0)
(0.449862 -0.0381296 0)
(0.45117 -0.0372487 0)
(0.452774 -0.0354582 0)
(0.454524 -0.0326911 0)
(0.456278 -0.0288975 0)
(0.457911 -0.0240444 0)
(0.459335 -0.0181559 0)
(0.460497 -0.0112678 0)
(0.46139 -0.00348505 0)
(0.462057 0.00506284 0)
(0.462582 0.0142039 0)
(0.463051 0.0237017 0)
(0.463563 0.0332968 0)
(0.464208 0.0427627 0)
(0.465035 0.0518101 0)
(0.466072 0.0602045 0)
(0.467316 0.0677282 0)
(0.468739 0.0741814 0)
(0.470301 0.079412 0)
(0.471963 0.0833152 0)
(0.473706 0.0858229 0)
(0.475529 0.0869213 0)
(0.477459 0.0866647 0)
(0.479553 0.0851483 0)
(0.481883 0.0825377 0)
(0.484543 0.0790018 0)
(0.487621 0.0747688 0)
(0.49114 0.0700469 0)
(0.49512 0.0650269 0)
(0.499563 0.0598775 0)
(0.504472 0.0547221 0)
(0.509864 0.0497266 0)
(0.515597 0.0450105 0)
(0.521481 0.0406555 0)
(0.527347 0.0367498 0)
(0.533023 0.0333398 0)
(0.495402 -0.0212681 0)
(0.491788 -0.0194484 0)
(0.487438 -0.0183386 0)
(0.482573 -0.0179336 0)
(0.477315 -0.018255 0)
(0.471891 -0.0192743 0)
(0.466527 -0.0208868 0)
(0.461481 -0.0229472 0)
(0.456981 -0.0253016 0)
(0.453239 -0.0277548 0)
(0.4504 -0.0301268 0)
(0.448545 -0.0322517 0)
(0.447685 -0.0339851 0)
(0.447766 -0.0352075 0)
(0.448685 -0.0358264 0)
(0.450293 -0.0357635 0)
(0.452427 -0.0349605 0)
(0.454918 -0.0333594 0)
(0.457602 -0.0309067 0)
(0.46033 -0.0275829 0)
(0.462941 -0.0233481 0)
(0.465317 -0.0181958 0)
(0.467376 -0.0121672 0)
(0.469068 -0.00534532 0)
(0.470414 0.00219751 0)
(0.471444 0.0103507 0)
(0.472175 0.0188898 0)
(0.472724 0.0276293 0)
(0.473163 0.0363536 0)
(0.47352 0.0447968 0)
(0.473859 0.0527319 0)
(0.47419 0.0599264 0)
(0.474507 0.0661759 0)
(0.474826 0.0713037 0)
(0.475159 0.0751968 0)
(0.475528 0.0777849 0)
(0.475997 0.0790594 0)
(0.476657 0.0790734 0)
(0.477612 0.077937 0)
(0.478978 0.0758035 0)
(0.480874 0.0728657 0)
(0.483407 0.0693239 0)
(0.486574 0.0653772 0)
(0.490385 0.0611672 0)
(0.4948 0.0569087 0)
(0.499792 0.0526549 0)
(0.505386 0.0485396 0)
(0.511419 0.0446553 0)
(0.517682 0.0410724 0)
(0.523979 0.0378381 0)
(0.530134 0.0349916 0)
(0.497165 -0.0154025 0)
(0.492932 -0.0142479 0)
(0.487876 -0.0138203 0)
(0.482274 -0.0140882 0)
(0.476311 -0.0150185 0)
(0.470275 -0.0165619 0)
(0.464447 -0.0185753 0)
(0.45909 -0.0209097 0)
(0.454462 -0.0233867 0)
(0.450772 -0.0258393 0)
(0.448152 -0.0281044 0)
(0.446654 -0.0300521 0)
(0.446266 -0.0315748 0)
(0.446905 -0.0325918 0)
(0.448444 -0.0330497 0)
(0.450725 -0.0329032 0)
(0.453575 -0.0321325 0)
(0.456829 -0.030692 0)
(0.460298 -0.0285418 0)
(0.463828 -0.0256536 0)
(0.467282 -0.0220186 0)
(0.470491 -0.0176267 0)
(0.473314 -0.0125228 0)
(0.475709 -0.00669861 0)
(0.477705 -0.000247271 0)
(0.479224 0.00672712 0)
(0.480265 0.0141453 0)
(0.480954 0.0218388 0)
(0.481303 0.0295637 0)
(0.481332 0.0371681 0)
(0.481114 0.0444024 0)
(0.480669 0.0510375 0)
(0.480018 0.0568858 0)
(0.479215 0.0617688 0)
(0.478331 0.0655632 0)
(0.477449 0.0681991 0)
(0.476693 0.06968 0)
(0.476212 0.0700566 0)
(0.476161 0.0694412 0)
(0.476697 0.0679763 0)
(0.477959 0.065847 0)
(0.480041 0.0632225 0)
(0.482906 0.0602738 0)
(0.486589 0.0570891 0)
(0.491003 0.0538678 0)
(0.496069 0.0506595 0)
(0.50184 0.047538 0)
(0.508113 0.0445668 0)
(0.51465 0.0417809 0)
(0.521248 0.0392161 0)
(0.527729 0.0368954 0)
(0.498231 -0.0108228 0)
(0.493353 -0.0103443 0)
(0.487639 -0.0105921 0)
(0.481378 -0.0114667 0)
(0.474817 -0.0129051 0)
(0.468284 -0.0147948 0)
(0.462112 -0.0170203 0)
(0.456591 -0.0194127 0)
(0.451971 -0.0218053 0)
(0.448446 -0.0240507 0)
(0.446121 -0.0260322 0)
(0.445022 -0.0276525 0)
(0.445107 -0.0288444 0)
(0.446267 -0.0295693 0)
(0.44836 -0.0298225 0)
(0.451203 -0.0295671 0)
(0.454633 -0.02881 0)
(0.458501 -0.0275133 0)
(0.462627 -0.0256588 0)
(0.46683 -0.0232112 0)
(0.470935 -0.0201955 0)
(0.474769 -0.0166098 0)
(0.478251 -0.0124633 0)
(0.481281 -0.00773662 0)
(0.483774 -0.00244443 0)
(0.485759 0.00328008 0)
(0.487201 0.00940604 0)
(0.488054 0.0158846 0)
(0.488397 0.022423 0)
(0.488254 0.0289846 0)
(0.487616 0.035296 0)
(0.486551 0.0411843 0)
(0.485108 0.046468 0)
(0.483363 0.0509824 0)
(0.481441 0.054608 0)
(0.479491 0.0572928 0)
(0.477702 0.0590338 0)
(0.476268 0.059892 0)
(0.475391 0.0599576 0)
(0.475259 0.0593609 0)
(0.476011 0.0582484 0)
(0.477746 0.0567502 0)
(0.480375 0.0549891 0)
(0.483933 0.0530183 0)
(0.488343 0.0509493 0)
(0.49345 0.0488775 0)
(0.499291 0.0468086 0)
(0.505662 0.0447503 0)
(0.51233 0.0427397 0)
(0.519084 0.04079 0)
(0.525736 0.0389291 0)
(0.498638 -0.00771781 0)
(0.493154 -0.00786997 0)
(0.486811 -0.00871426 0)
(0.479971 -0.0100526 0)
(0.472946 -0.0118217 0)
(0.466093 -0.0138803 0)
(0.45974 -0.0160962 0)
(0.454206 -0.0183169 0)
(0.449724 -0.0204019 0)
(0.446452 -0.0222451 0)
(0.444471 -0.0237698 0)
(0.443778 -0.0249282 0)
(0.444304 -0.0256868 0)
(0.445898 -0.0260985 0)
(0.448429 -0.0261005 0)
(0.451726 -0.0257439 0)
(0.455617 -0.025001 0)
(0.459963 -0.0238551 0)
(0.464574 -0.022318 0)
(0.469255 -0.0203857 0)
(0.473835 -0.0180606 0)
(0.478164 -0.0153288 0)
(0.482119 -0.012165 0)
(0.485651 -0.00860162 0)
(0.488636 -0.00456748 0)
(0.490983 -0.000131019 0)
(0.492778 0.00459917 0)
(0.493873 0.009711 0)
(0.494297 0.0149486 0)
(0.494092 0.0202819 0)
(0.493189 0.025511 0)
(0.491705 0.0305181 0)
(0.489667 0.0351198 0)
(0.487197 0.0391889 0)
(0.484474 0.0426279 0)
(0.481706 0.0453943 0)
(0.479125 0.0474872 0)
(0.476975 0.0489574 0)
(0.475487 0.0498706 0)
(0.474862 0.0503297 0)
(0.475249 0.0504163 0)
(0.47671 0.0502307 0)
(0.479129 0.0497516 0)
(0.482531 0.049144 0)
(0.486865 0.0483078 0)
(0.491945 0.0473614 0)
(0.497737 0.046342 0)
(0.504066 0.0451767 0)
(0.510701 0.0438956 0)
(0.517438 0.042496 0)
(0.524107 0.0410187 0)
(0.49833 -0.00608459 0)
(0.492343 -0.0068529 0)
(0.485517 -0.00816219 0)
(0.478277 -0.00979871 0)
(0.470947 -0.0116753 0)
(0.463927 -0.0136549 0)
(0.457571 -0.0156097 0)
(0.452166 -0.0174185 0)
(0.447924 -0.0189809 0)
(0.444968 -0.0202382 0)
(0.443345 -0.0211626 0)
(0.443034 -0.0217555 0)
(0.443885 -0.0220712 0)
(0.445821 -0.0220952 0)
(0.448695 -0.0218642 0)
(0.452289 -0.0214097 0)
(0.456506 -0.020711 0)
(0.46116 -0.0197908 0)
(0.466061 -0.018659 0)
(0.471039 -0.0173204 0)
(0.47593 -0.0157514 0)
(0.480592 -0.0139413 0)
(0.484896 -0.0118459 0)
(0.48879 -0.00946206 0)
(0.492151 -0.00676277 0)
(0.494831 -0.00372615 0)
(0.496947 -0.000405428 0)
(0.498305 0.00322668 0)
(0.498866 0.00709265 0)
(0.498707 0.0110907 0)
(0.497732 0.015159 0)
(0.496026 0.0191873 0)
(0.493631 0.0230449 0)
(0.490712 0.0266507 0)
(0.487477 0.0299398 0)
(0.484181 0.0328742 0)
(0.481093 0.035456 0)
(0.478495 0.0376915 0)
(0.476622 0.0396366 0)
(0.47569 0.0413181 0)
(0.475829 0.0427709 0)
(0.477032 0.0440098 0)
(0.479272 0.0449224 0)
(0.482501 0.0457135 0)
(0.486595 0.0461736 0)
(0.491534 0.0463711 0)
(0.497157 0.0463184 0)
(0.503259 0.045974 0)
(0.509681 0.0453153 0)
(0.516219 0.0443731 0)
(0.522729 0.0431703 0)
(0.497404 -0.00593596 0)
(0.491054 -0.00717843 0)
(0.483929 -0.00877673 0)
(0.476463 -0.0105149 0)
(0.469036 -0.0122605 0)
(0.462061 -0.0139033 0)
(0.45585 -0.0153429 0)
(0.450696 -0.0165014 0)
(0.446764 -0.0173369 0)
(0.444144 -0.0178477 0)
(0.442847 -0.0180743 0)
(0.442788 -0.0180629 0)
(0.443908 -0.0178857 0)
(0.446069 -0.0175107 0)
(0.449093 -0.0170965 0)
(0.452863 -0.0165845 0)
(0.457216 -0.0160123 0)
(0.461985 -0.0154224 0)
(0.467 -0.0148004 0)
(0.472102 -0.0141389 0)
(0.477139 -0.0134163 0)
(0.481983 -0.0125995 0)
(0.486504 -0.011652 0)
(0.490638 -0.0105258 0)
(0.494274 -0.00919892 0)
(0.497245 -0.00763115 0)
(0.499633 -0.00577702 0)
(0.501276 -0.00367553 0)
(0.502065 -0.00127889 0)
(0.50206 0.00138362 0)
(0.501182 0.00427323 0)
(0.499475 0.00732205 0)
(0.496999 0.0104795 0)
(0.493944 0.0136934 0)
(0.490543 0.0169229 0)
(0.487055 0.0201547 0)
(0.483783 0.0233655 0)
(0.481003 0.0265556 0)
(0.478982 0.0297048 0)
(0.477893 0.0327835 0)
(0.477872 0.0357387 0)
(0.478831 0.038447 0)
(0.480836 0.0409326 0)
(0.48382 0.0430363 0)
(0.487584 0.0447714 0)
(0.492163 0.0460958 0)
(0.497418 0.0469271 0)
(0.503127 0.0472735 0)
(0.509142 0.0471169 0)
(0.515299 0.0464693 0)
(0.521446 0.0453668 0)
(0.495988 -0.00722933 0)
(0.489474 -0.00877232 0)
(0.482244 -0.0104543 0)
(0.474791 -0.0120271 0)
(0.467501 -0.0133614 0)
(0.460729 -0.0143873 0)
(0.454827 -0.015056 0)
(0.45001 -0.015344 0)
(0.446417 -0.0152707 0)
(0.444085 -0.0149348 0)
(0.44301 -0.01439 0)
(0.443132 -0.0137379 0)
(0.444375 -0.0130214 0)
(0.446571 -0.0123559 0)
(0.449594 -0.0117743 0)
(0.45335 -0.011301 0)
(0.457639 -0.0109803 0)
(0.46233 -0.0108262 0)
(0.467283 -0.0108257 0)
(0.472344 -0.0109521 0)
(0.477375 -0.0111715 0)
(0.482253 -0.0114538 0)
(0.486862 -0.0117329 0)
(0.491136 -0.0119447 0)
(0.494945 -0.0120383 0)
(0.49816 -0.0120029 0)
(0.500822 -0.0116598 0)
(0.502728 -0.011101 0)
(0.503844 -0.0101782 0)
(0.504163 -0.00887239 0)
(0.503555 -0.00716751 0)
(0.502111 -0.00507459 0)
(0.499887 -0.0025397 0)
(0.497042 0.000425366 0)
(0.493814 0.00381042 0)
(0.490485 0.00756389 0)
(0.487346 0.0116458 0)
(0.484693 0.0159955 0)
(0.482724 0.02055 0)
(0.481625 0.0251791 0)
(0.481427 0.0297384 0)
(0.482197 0.0340066 0)
(0.483873 0.0380231 0)
(0.486385 0.0414955 0)
(0.489725 0.0444037 0)
(0.493775 0.0467312 0)
(0.498421 0.048355 0)
(0.503512 0.0492331 0)
(0.508906 0.0493927 0)
(0.514468 0.0488402 0)
(0.52008 0.0476479 0)
(0.494223 -0.00985307 0)
(0.487791 -0.0115054 0)
(0.480739 -0.0130043 0)
(0.473554 -0.0141013 0)
(0.466602 -0.0147524 0)
(0.460239 -0.0148954 0)
(0.454724 -0.0145368 0)
(0.450298 -0.0137366 0)
(0.44699 -0.0126461 0)
(0.444861 -0.011329 0)
(0.44391 -0.00997833 0)
(0.444057 -0.00864336 0)
(0.445222 -0.00747067 0)
(0.447273 -0.00655145 0)
(0.450119 -0.00589727 0)
(0.453631 -0.00559716 0)
(0.457656 -0.0056589 0)
(0.462086 -0.00607236 0)
(0.466801 -0.00681441 0)
(0.47166 -0.0078524 0)
(0.476526 -0.00914486 0)
(0.481301 -0.0106227 0)
(0.485891 -0.0122327 0)
(0.490214 -0.0138371 0)
(0.49411 -0.0154725 0)
(0.497533 -0.0169608 0)
(0.50046 -0.0181801 0)
(0.502695 -0.0191855 0)
(0.504242 -0.019658 0)
(0.505028 -0.0196832 0)
(0.504939 -0.0190524 0)
(0.504041 -0.0177376 0)
(0.502395 -0.0156801 0)
(0.50014 -0.0128141 0)
(0.497495 -0.00913628 0)
(0.494717 -0.00468116 0)
(0.492078 0.00051677 0)
(0.489776 0.00630409 0)
(0.488042 0.0124801 0)
(0.486977 0.0188409 0)
(0.486624 0.0250969 0)
(0.487081 0.0311099 0)
(0.488331 0.0365696 0)
(0.490242 0.041399 0)
(0.492887 0.0454456 0)
(0.496195 0.0486067 0)
(0.499996 0.0507938 0)
(0.504223 0.0520132 0)
(0.508769 0.0522552 0)
(0.513531 0.0515839 0)
(0.518423 0.0500822 0)
(0.492335 -0.0137087 0)
(0.486286 -0.0152017 0)
(0.479702 -0.0162095 0)
(0.473032 -0.0165622 0)
(0.466625 -0.0161807 0)
(0.460797 -0.0151573 0)
(0.455797 -0.0135304 0)
(0.451692 -0.0115289 0)
(0.44862 -0.0092764 0)
(0.446569 -0.00694876 0)
(0.445547 -0.00471168 0)
(0.44553 -0.00273655 0)
(0.446395 -0.00114688 0)
(0.448101 -3.35519e-05 0)
(0.45052 0.000535569 0)
(0.45356 0.000524751 0)
(0.457123 -6.12423e-05 0)
(0.461112 -0.00119103 0)
(0.465417 -0.00282869 0)
(0.469904 -0.00491544 0)
(0.474475 -0.00740385 0)
(0.479026 -0.0101995 0)
(0.483509 -0.0132027 0)
(0.487768 -0.0163501 0)
(0.49171 -0.0195604 0)
(0.495365 -0.0225994 0)
(0.498532 -0.0254718 0)
(0.501203 -0.0279555 0)
(0.503311 -0.0298614 0)
(0.504736 -0.0311077 0)
(0.505461 -0.031468 0)
(0.50543 -0.0308007 0)
(0.50474 -0.029002 0)
(0.503502 -0.0259589 0)
(0.501849 -0.0216572 0)
(0.499996 -0.0161408 0)
(0.498132 -0.00955881 0)
(0.496452 -0.0021279 0)
(0.495073 0.00590361 0)
(0.494086 0.0141357 0)
(0.493582 0.0222815 0)
(0.4936 0.030013 0)
(0.49414 0.0369951 0)
(0.49528 0.0431048 0)
(0.496983 0.0481357 0)
(0.499192 0.0519479 0)
(0.501893 0.0545071 0)
(0.505017 0.055815 0)
(0.50849 0.0559015 0)
(0.512256 0.0548616 0)
(0.516221 0.0527668 0)
(0.490579 -0.018659 0)
(0.485243 -0.0197143 0)
(0.479428 -0.0199319 0)
(0.473566 -0.0191652 0)
(0.467909 -0.0174613 0)
(0.462725 -0.0149398 0)
(0.458139 -0.011887 0)
(0.454318 -0.00848275 0)
(0.451338 -0.0049555 0)
(0.449224 -0.00155926 0)
(0.447965 0.00155281 0)
(0.447506 0.00411918 0)
(0.447846 0.00604305 0)
(0.448905 0.00718987 0)
(0.450641 0.00753655 0)
(0.452997 0.00706623 0)
(0.455887 0.00579916 0)
(0.45924 0.00379068 0)
(0.462964 0.00110469 0)
(0.466948 -0.00219531 0)
(0.471085 -0.00600344 0)
(0.475338 -0.0102246 0)
(0.479581 -0.0147654 0)
(0.483714 -0.0195445 0)
(0.487746 -0.0243494 0)
(0.491536 -0.0290817 0)
(0.495048 -0.0335786 0)
(0.498275 -0.0375518 0)
(0.501076 -0.0408845 0)
(0.503412 -0.043252 0)
(0.505228 -0.0444833 0)
(0.506469 -0.044313 0)
(0.50717 -0.0425559 0)
(0.507382 -0.0390792 0)
(0.507174 -0.0338548 0)
(0.506642 -0.0269565 0)
(0.505903 -0.0186032 0)
(0.505035 -0.00911415 0)
(0.504079 0.00104308 0)
(0.503145 0.0114276 0)
(0.502325 0.0215959 0)
(0.50167 0.0311213 0)
(0.501351 0.0396908 0)
(0.501356 0.0469672 0)
(0.501747 0.0527905 0)
(0.502609 0.0570402 0)
(0.50391 0.0597259 0)
(0.505642 0.0608394 0)
(0.507802 0.0604988 0)
(0.510338 0.0587683 0)
(0.513207 0.055821 0)
(0.489223 -0.0246309 0)
(0.484979 -0.024939 0)
(0.480293 -0.0240241 0)
(0.475477 -0.021817 0)
(0.47074 -0.0184488 0)
(0.466182 -0.0142081 0)
(0.462014 -0.00944644 0)
(0.45836 -0.00444324 0)
(0.455297 0.000507763 0)
(0.452856 0.00509718 0)
(0.451036 0.00900959 0)
(0.449881 0.0120908 0)
(0.449375 0.0141799 0)
(0.449538 0.015214 0)
(0.450357 0.0151772 0)
(0.451779 0.0140664 0)
(0.453783 0.0119453 0)
(0.456318 0.00888255 0)
(0.459294 0.00497131 0)
(0.46263 0.000313471 0)
(0.466259 -0.00496941 0)
(0.470072 -0.0107451 0)
(0.474007 -0.0169634 0)
(0.478028 -0.0234146 0)
(0.482051 -0.0299717 0)
(0.486053 -0.0364365 0)
(0.490019 -0.042547 0)
(0.493888 -0.0480992 0)
(0.497619 -0.0527684 0)
(0.501151 -0.0562478 0)
(0.504403 -0.0582321 0)
(0.507335 -0.0583977 0)
(0.509911 -0.0565007 0)
(0.512097 -0.0523115 0)
(0.513817 -0.0458168 0)
(0.515047 -0.0371241 0)
(0.515734 -0.0265798 0)
(0.515825 -0.0146548 0)
(0.515339 -0.00197268 0)
(0.514365 0.0109023 0)
(0.513049 0.0233577 0)
(0.51152 0.0348859 0)
(0.509869 0.0449731 0)
(0.508326 0.0533227 0)
(0.507051 0.0597818 0)
(0.506155 0.0642512 0)
(0.505725 0.0667469 0)
(0.505802 0.0673716 0)
(0.506388 0.0662317 0)
(0.507487 0.063504 0)
(0.509064 0.059345 0)
(0.488577 -0.0316502 0)
(0.48582 -0.0308938 0)
(0.482581 -0.0284661 0)
(0.47911 -0.0243964 0)
(0.475395 -0.0190547 0)
(0.471522 -0.0128078 0)
(0.467639 -0.00604925 0)
(0.463985 0.000806839 0)
(0.46059 0.0073136 0)
(0.45747 0.0130647 0)
(0.45476 0.0177952 0)
(0.452535 0.0212894 0)
(0.450881 0.0234268 0)
(0.449849 0.0241802 0)
(0.449453 0.0235481 0)
(0.449716 0.021595 0)
(0.450626 0.0184152 0)
(0.452149 0.0141005 0)
(0.454234 0.0087901 0)
(0.456811 0.00261533 0)
(0.459812 -0.00426444 0)
(0.463122 -0.0117822 0)
(0.466707 -0.0197532 0)
(0.470533 -0.0280381 0)
(0.474595 -0.0364109 0)
(0.478886 -0.0446553 0)
(0.483362 -0.052486 0)
(0.488067 -0.0596066 0)
(0.492966 -0.0656393 0)
(0.497991 -0.0702237 0)
(0.503101 -0.0729183 0)
(0.508192 -0.0733172 0)
(0.51319 -0.0711125 0)
(0.517951 -0.0659746 0)
(0.522176 -0.0578114 0)
(0.52564 -0.0468906 0)
(0.528076 -0.0336524 0)
(0.529307 -0.0187111 0)
(0.529275 -0.0029092 0)
(0.528131 0.0129081 0)
(0.526 0.0280169 0)
(0.523037 0.0416035 0)
(0.519614 0.0532308 0)
(0.516066 0.0625633 0)
(0.512639 0.069442 0)
(0.509584 0.0738524 0)
(0.507049 0.0758585 0)
(0.505132 0.0756237 0)
(0.503894 0.0733334 0)
(0.503345 0.0692148 0)
(0.50346 0.0634907 0)
(0.488906 -0.0397806 0)
(0.488151 -0.0376775 0)
(0.486812 -0.0332675 0)
(0.484836 -0.0269923 0)
(0.482192 -0.0192384 0)
(0.478954 -0.010531 0)
(0.475322 -0.00142287 0)
(0.4714 0.00752744 0)
(0.46724 0.0156804 0)
(0.463061 0.0226576 0)
(0.459043 0.0281347 0)
(0.455359 0.0319265 0)
(0.452172 0.0339613 0)
(0.449608 0.0342203 0)
(0.447734 0.0327828 0)
(0.446595 0.0297603 0)
(0.446202 0.0252791 0)
(0.446556 0.0195061 0)
(0.44762 0.0126029 0)
(0.449344 0.00477256 0)
(0.451609 -0.00389766 0)
(0.454325 -0.0132854 0)
(0.457515 -0.0231581 0)
(0.461176 -0.0333615 0)
(0.465303 -0.0436401 0)
(0.469911 -0.053759 0)
(0.475064 -0.063379 0)
(0.480781 -0.0721417 0)
(0.487076 -0.0796307 0)
(0.493946 -0.0853543 0)
(0.501352 -0.0888074 0)
(0.509136 -0.0894383 0)
(0.517173 -0.0868203 0)
(0.525246 -0.0804844 0)
(0.532666 -0.0703562 0)
(0.538902 -0.0566668 0)
(0.543544 -0.0400235 0)
(0.546144 -0.0212818 0)
(0.546468 -0.00161865 0)
(0.544855 0.0177524 0)
(0.541351 0.0358354 0)
(0.536411 0.0517475 0)
(0.530583 0.0649584 0)
(0.524379 0.0751311 0)
(0.518263 0.0821896 0)
(0.512548 0.0861909 0)
(0.507499 0.08731 0)
(0.503263 0.0857988 0)
(0.499928 0.0819331 0)
(0.497524 0.0760234 0)
(0.496007 0.0683416 0)
(0.490525 -0.0493324 0)
(0.492348 -0.0454051 0)
(0.493301 -0.0387162 0)
(0.493095 -0.0296865 0)
(0.491697 -0.0189646 0)
(0.489069 -0.0072 0)
(0.485381 0.00470572 0)
(0.480731 0.0159668 0)
(0.475371 0.0259603 0)
(0.469622 0.0341922 0)
(0.463792 0.0403568 0)
(0.458201 0.0443098 0)
(0.453078 0.0460194 0)
(0.448621 0.0455581 0)
(0.444958 0.0430575 0)
(0.442159 0.0386966 0)
(0.44027 0.0326776 0)
(0.439308 0.0252114 0)
(0.439272 0.0165494 0)
(0.440031 0.00682836 0)
(0.441453 -0.00382777 0)
(0.443561 -0.0151987 0)
(0.44636 -0.0271018 0)
(0.449841 -0.0393197 0)
(0.454065 -0.0516208 0)
(0.459103 -0.063704 0)
(0.465016 -0.0752263 0)
(0.47191 -0.0857728 0)
(0.479875 -0.094839 0)
(0.488925 -0.101872 0)
(0.499071 -0.106241 0)
(0.510146 -0.107251 0)
(0.521974 -0.104239 0)
(0.534125 -0.0966152 0)
(0.545578 -0.0841756 0)
(0.555471 -0.0670079 0)
(0.562907 -0.0459511 0)
(0.56711 -0.0223659 0)
(0.567632 0.00204932 0)
(0.564973 0.0257886 0)
(0.559478 0.047414 0)
(0.551747 0.0659403 0)
(0.542693 0.0807364 0)
(0.533102 0.0915987 0)
(0.523604 0.0985032 0)
(0.514675 0.101665 0)
(0.506658 0.101414 0)
(0.499751 0.0981276 0)
(0.494065 0.092209 0)
(0.489619 0.0840691 0)
(0.486369 0.0740061 0)
(0.493779 -0.0606674 0)
(0.498811 -0.0546453 0)
(0.502557 -0.0451188 0)
(0.50453 -0.0326555 0)
(0.504514 -0.0181292 0)
(0.50228 -0.00275728 0)
(0.498126 0.0125148 0)
(0.492255 0.0265537 0)
(0.485082 0.0385826 0)
(0.477123 0.0481071 0)
(0.468903 0.0548632 0)
(0.460848 0.0587718 0)
(0.453324 0.0598943 0)
(0.4466 0.0584004 0)
(0.440843 0.0545253 0)
(0.436161 0.0485282 0)
(0.432607 0.040692 0)
(0.430238 0.0313277 0)
(0.428968 0.0206555 0)
(0.428639 0.00880817 0)
(0.429233 -0.00395598 0)
(0.430705 -0.0174464 0)
(0.433091 -0.0314781 0)
(0.436434 -0.0458385 0)
(0.440801 -0.0602543 0)
(0.446302 -0.0744453 0)
(0.453091 -0.0880172 0)
(0.461334 -0.10051 0)
(0.471164 -0.111391 0)
(0.48268 -0.120013 0)
(0.495965 -0.125626 0)
(0.510894 -0.12734 0)
(0.527226 -0.12426 0)
(0.544347 -0.115412 0)
(0.561009 -0.100141 0)
(0.575711 -0.0786238 0)
(0.586808 -0.0518848 0)
(0.592881 -0.0220146 0)
(0.593531 0.00848449 0)
(0.589244 0.0376344 0)
(0.580695 0.0635141 0)
(0.569107 0.0849513 0)
(0.555795 0.101369 0)
(0.541854 0.112616 0)
(0.528177 0.118918 0)
(0.515407 0.120691 0)
(0.503963 0.118479 0)
(0.494057 0.112842 0)
(0.485821 0.104335 0)
(0.479184 0.0934395 0)
(0.474053 0.0805499 0)
(0.498837 -0.0744651 0)
(0.507949 -0.0659769 0)
(0.515303 -0.0528886 0)
(0.52 -0.0359776 0)
(0.521374 -0.0166649 0)
(0.519405 0.00331851 0)
(0.514274 0.0226185 0)
(0.506364 0.0398639 0)
(0.49651 0.0541573 0)
(0.485543 0.0649776 0)
(0.474182 0.0721516 0)
(0.463052 0.0757335 0)
(0.452611 0.0759227 0)
(0.443215 0.0730272 0)
(0.43507 0.0674103 0)
(0.428278 0.0594295 0)
(0.422952 0.049493 0)
(0.419055 0.0379261 0)
(0.416439 0.0249483 0)
(0.415034 0.0108386 0)
(0.414787 -0.00418075 0)
(0.415636 -0.0199216 0)
(0.41763 -0.0361908 0)
(0.420836 -0.0527877 0)
(0.425369 -0.0694513 0)
(0.431397 -0.0858802 0)
(0.439138 -0.101676 0)
(0.448798 -0.116364 0)
(0.460599 -0.129363 0)
(0.474723 -0.139961 0)
(0.49132 -0.147306 0)
(0.510281 -0.150354 0)
(0.531532 -0.147756 0)
(0.554479 -0.137795 0)
(0.577421 -0.119432 0)
(0.598281 -0.0927629 0)
(0.61449 -0.0586982 0)
(0.623395 -0.0204684 0)
(0.624377 0.0181863 0)
(0.617849 0.0541413 0)
(0.605229 0.0851574 0)
(0.588494 0.109869 0)
(0.569593 0.127761 0)
(0.550162 0.138962 0)
(0.531404 0.144006 0)
(0.514107 0.143653 0)
(0.498763 0.138761 0)
(0.485594 0.13008 0)
(0.47461 0.118347 0)
(0.465686 0.104106 0)
(0.458658 0.0879137 0)
(0.505796 -0.0916619 0)
(0.520199 -0.0803186 0)
(0.532309 -0.0625958 0)
(0.540445 -0.0399224 0)
(0.543371 -0.0144056 0)
(0.541165 0.0115081 0)
(0.534196 0.0357391 0)
(0.523299 0.0567407 0)
(0.50973 0.0735147 0)
(0.494727 0.0855593 0)
(0.479362 0.0928723 0)
(0.464433 0.0957168 0)
(0.450533 0.0945053 0)
(0.438067 0.0897363 0)
(0.427248 0.0819269 0)
(0.418212 0.0715967 0)
(0.410981 0.0591913 0)
(0.40546 0.0450699 0)
(0.401525 0.0295903 0)
(0.399057 0.013032 0)
(0.398 -0.00439265 0)
(0.398244 -0.0224933 0)
(0.399864 -0.0411062 0)
(0.40296 -0.0600449 0)
(0.407685 -0.0790699 0)
(0.414245 -0.0978814 0)
(0.422923 -0.116096 0)
(0.433972 -0.133227 0)
(0.447634 -0.148652 0)
(0.464071 -0.161613 0)
(0.483388 -0.171353 0)
(0.505659 -0.176429 0)
(0.531244 -0.174928 0)
(0.559442 -0.1646 0)
(0.588404 -0.143577 0)
(0.616437 -0.111748 0)
(0.640186 -0.0684591 0)
(0.654651 -0.0188001 0)
(0.657305 0.0310313 0)
(0.648752 0.0761854 0)
(0.631456 0.113609 0)
(0.608502 0.142001 0)
(0.58288 0.161149 0)
(0.556891 0.171642 0)
(0.53219 0.174531 0)
(0.509829 0.171059 0)
(0.490255 0.162539 0)
(0.473583 0.149957 0)
(0.459778 0.134233 0)
(0.448598 0.116108 0)
(0.439753 0.096119 0)
(0.513706 -0.113555 0)
(0.534946 -0.0987403 0)
(0.553438 -0.0752883 0)
(0.566216 -0.0449902 0)
(0.571162 -0.0112547 0)
(0.568352 0.0222093 0)
(0.558557 0.0527274 0)
(0.543363 0.0782311 0)
(0.524704 0.0976682 0)
(0.504411 0.11074 0)
(0.483987 0.117732 0)
(0.464468 0.119247 0)
(0.446537 0.115996 0)
(0.430629 0.108767 0)
(0.416955 0.0982676 0)
(0.405529 0.0850852 0)
(0.396313 0.0697736 0)
(0.389199 0.0528264 0)
(0.383998 0.034621 0)
(0.380541 0.0154509 0)
(0.378733 -0.00449057 0)
(0.378431 -0.0250537 0)
(0.379715 -0.0460887 0)
(0.382712 -0.0674502 0)
(0.387618 -0.0889408 0)
(0.394686 -0.110287 0)
(0.404208 -0.131086 0)
(0.41636 -0.150777 0)
(0.431259 -0.168688 0)
(0.448658 -0.18417 0)
(0.468646 -0.196642 0)
(0.491581 -0.203811 0)
(0.51793 -0.204296 0)
(0.547352 -0.194822 0)
(0.578289 -0.172486 0)
(0.611746 -0.137591 0)
(0.645686 -0.0846666 0)
(0.67166 -0.020653 0)
(0.681138 0.0441585 0)
(0.673477 0.102436 0)
(0.652954 0.148729 0)
(0.624423 0.181962 0)
(0.592072 0.202235 0)
(0.559308 0.211114 0)
(0.528442 0.21068 0)
(0.500861 0.202964 0)
(0.47706 0.18971 0)
(0.457025 0.172325 0)
(0.4406 0.151903 0)
(0.427366 0.129296 0)
(0.416893 0.105101 0)
(0.518546 -0.141262 0)
(0.547263 -0.122913 0)
(0.573658 -0.0929573 0)
(0.593613 -0.0524904 0)
(0.602627 -0.00729798 0)
(0.599821 0.036318 0)
(0.586735 0.0750137 0)
(0.565975 0.105904 0)
(0.540743 0.128141 0)
(0.513797 0.141792 0)
(0.487233 0.147712 0)
(0.462332 0.147061 0)
(0.439893 0.140952 0)
(0.42031 0.130471 0)
(0.403595 0.116559 0)
(0.389724 0.0999628 0)
(0.378615 0.0813481 0)
(0.370037 0.0612586 0)
(0.363701 0.0401072 0)
(0.359364 0.0181646 0)
(0.3569 -0.0043943 0)
(0.35611 -0.0274791 0)
(0.357112 -0.0510018 0)
(0.360035 -0.0748548 0)
(0.365099 -0.0988902 0)
(0.372564 -0.122858 0)
(0.382641 -0.146231 0)
(0.395123 -0.168191 0)
(0.409534 -0.188075 0)
(0.424835 -0.205385 0)
(0.441175 -0.219406 0)
(0.458423 -0.228006 0)
(0.477453 -0.229053 0)