/*--------------------------------*- C++ -*----------------------------------*\
  =========                 |
  \\      /  F ield         | OpenFOAM: The Open Source CFD Toolbox
   \\    /   O peration     | Website:  https://openfoam.org
    \\  /    A nd           | Version:  10
     \\/     M anipulation  |
\*---------------------------------------------------------------------------*/
FoamFile
{
    format      ascii;
    class       surfaceScalarField;
    location    "1.000357";
    object      phi;
}
// * * * * * * * * * * * * * * * * * * * * * * * * * * * * * * * * * * * * * //

dimensions      [1 0 -1 0 0 0 0];

internalField   nonuniform List<scalar> 
31108
(
0.00059219
-0.000107992
0.000577616
-0.000106552
0.0005624
-0.000104372
0.000546706
-0.000101546
0.000530663
-9.8143e-05
0.000514388
-9.42388e-05
0.000497982
-8.99113e-05
0.000481539
-8.52407e-05
0.000465156
-8.03078e-05
0.000448921
-7.51913e-05
0.000432919
-6.99657e-05
0.000417222
-6.46991e-05
0.000401888
-5.94509e-05
0.000386968
-5.42709e-05
0.0003725
-4.92008e-05
0.000358518
-4.42724e-05
0.000345053
-3.95112e-05
0.000332132
-3.49355e-05
0.000319781
-3.05568e-05
0.000308017
-2.63817e-05
0.000296852
-2.24109e-05
0.000286294
-1.86436e-05
0.00027634
-1.50727e-05
0.000266989
-1.16912e-05
0.000258236
-8.49241e-06
0.000250077
-5.46704e-06
0.0002425
-2.6032e-06
0.0002355
1.00755e-07
0.000229073
2.65457e-06
0.000223205
5.06989e-06
0.000217886
7.34927e-06
0.000213112
9.49851e-06
0.000208875
1.15219e-05
0.000205165
1.34227e-05
0.000201973
1.52031e-05
0.00019929
1.68648e-05
0.000197105
1.84073e-05
0.000195408
1.98313e-05
0.000194187
2.11348e-05
0.000193429
2.23173e-05
0.000193117
2.33769e-05
0.000193238
2.4312e-05
0.000193771
2.51229e-05
0.000194688
2.5806e-05
0.00019598
2.63667e-05
0.000197605
2.68002e-05
0.000199561
2.7117e-05
0.000201808
2.73136e-05
0.00020432
2.73998e-05
0.000207072
2.73823e-05
2.72706e-05
0.000210034
0.000594424
-9.67536e-05
0.000580361
-9.47191e-05
0.000565637
-9.20237e-05
0.000550411
-8.87889e-05
0.000534793
-8.50679e-05
0.000518873
-8.09357e-05
0.000502745
-7.64668e-05
0.000486507
-7.17383e-05
0.000470259
-6.68265e-05
0.000454096
-6.18048e-05
0.00043811
-5.67415e-05
0.000422379
-5.16981e-05
0.000406967
-4.67274e-05
0.000391932
-4.18723e-05
0.000377319
-3.71692e-05
0.000363167
-3.2643e-05
0.000349517
-2.8314e-05
0.000336401
-2.41947e-05
0.000323849
-2.02916e-05
0.000311881
-1.66034e-05
0.000300513
-1.31291e-05
0.000289755
-9.86367e-06
0.000279609
-6.79599e-06
0.000270072
-3.9131e-06
0.000261138
-1.20971e-06
0.000252808
1.32287e-06
0.000245076
3.70106e-06
0.000237928
5.93486e-06
0.000231352
8.02928e-06
0.000225346
9.99315e-06
0.000219898
1.18326e-05
0.000215
1.3553e-05
0.000210642
1.51592e-05
0.000206813
1.66548e-05
0.000203508
1.80416e-05
0.000200712
1.93222e-05
0.000198415
2.04959e-05
0.000196609
2.15645e-05
0.000195276
2.2526e-05
0.000194406
2.33809e-05
0.00019398
2.41278e-05
0.000193987
2.47662e-05
0.000194405
2.52961e-05
0.000195211
2.57165e-05
0.000196389
2.60327e-05
0.000197909
2.62414e-05
0.000199756
2.63493e-05
0.0002019
2.63612e-05
0.000204317
2.62812e-05
0.00020698
2.61191e-05
2.58827e-05
0.000209864
0.000596652
-8.60776e-05
0.000583163
-8.33626e-05
0.000568987
-8.01141e-05
0.000554213
-7.6413e-05
0.000538944
-7.23151e-05
0.000523285
-6.78922e-05
0.000507348
-6.32201e-05
0.000491243
-5.83748e-05
0.000475075
-5.3428e-05
0.000458945
-4.84492e-05
0.00044294
-4.34999e-05
0.000427145
-3.86366e-05
0.000411624
-3.39043e-05
0.000396444
-2.93429e-05
0.000381659
-2.49819e-05
0.000367318
-2.08386e-05
0.000353464
-1.69277e-05
0.000340137
-1.32576e-05
0.000327374
-9.82935e-06
0.000315198
-6.62846e-06
0.000303626
-3.65343e-06
0.000292671
-8.94194e-07
0.00028234
1.66058e-06
0.00027263
4.03037e-06
0.000263538
6.22825e-06
0.000255048
8.26791e-06
0.00024716
1.01578e-05
0.000239865
1.19107e-05
0.000233157
1.35351e-05
0.000227025
1.50405e-05
0.000221458
1.64331e-05
0.000216446
1.77194e-05
0.000211978
1.89033e-05
0.000208045
1.99889e-05
0.000204635
2.09778e-05
0.000201737
2.18729e-05
0.000199342
2.26742e-05
0.000197436
2.33834e-05
0.000196005
2.39994e-05
0.000195037
2.4523e-05
0.000194514
2.49535e-05
0.000194422
2.52911e-05
0.00019474
2.55358e-05
0.000195452
2.56898e-05
0.000196533
2.57532e-05
0.000197962
2.57315e-05
0.00019972
2.56243e-05
0.000201782
2.5441e-05
0.000204123
2.51865e-05
0.000206719
2.48677e-05
2.44946e-05
0.000209544
0.000599433
-7.58124e-05
0.000586458
-7.24607e-05
0.000572682
-6.85688e-05
0.000558221
-6.43363e-05
0.000543192
-5.97944e-05
0.000527714
-5.50224e-05
0.000511908
-5.00927e-05
0.000495882
-4.50769e-05
0.000479744
-4.00436e-05
0.00046359
-3.50573e-05
0.000447513
-3.01778e-05
0.000431596
-2.54553e-05
0.000415914
-2.09282e-05
0.000400543
-1.66337e-05
0.000385553
-1.26005e-05
0.000370997
-8.82686e-06
0.000356919
-5.32473e-06
0.000343362
-2.09871e-06
0.000330368
8.5484e-07
0.000317972
3.55579e-06
0.000306197
6.01707e-06
0.00029505
8.25907e-06
0.000284534
1.02973e-05
0.000274648
1.21475e-05
0.000265393
1.38281e-05
0.00025676
1.53575e-05
0.000248741
1.67477e-05
0.000241325
1.8012e-05
0.0002345
1.91609e-05
0.000228256
2.02024e-05
0.000222582
2.11436e-05
0.000217467
2.19903e-05
0.000212901
2.27465e-05
0.000208872
2.34168e-05
0.000205368
2.40029e-05
0.000202381
2.45081e-05
0.000199896
2.49324e-05
0.000197902
2.52781e-05
0.000196385
2.55443e-05
0.00019533
2.57325e-05
0.000194722
2.58419e-05
0.000194544
2.5874e-05
0.00019478
2.58286e-05
0.00019541
2.57086e-05
0.000196415
2.55152e-05
0.000197766
2.52522e-05
0.000199455
2.49242e-05
0.000201451
2.45365e-05
0.000203736
2.40956e-05
0.000206282
2.36094e-05
2.30869e-05
0.000209067
0.000603001
-6.60387e-05
0.000590239
-6.17484e-05
0.000576684
-5.7252e-05
0.000562411
-5.24314e-05
0.000547533
-4.74059e-05
0.000532167
-4.22389e-05
0.000516425
-3.70013e-05
0.000500413
-3.17645e-05
0.000484232
-2.65963e-05
0.000467978
-2.15547e-05
0.000451754
-1.67038e-05
0.000435659
-1.20921e-05
0.000419774
-7.74076e-06
0.000404177
-3.69129e-06
0.000388944
3.34247e-08
0.000374149
3.42752e-06
0.000359844
6.50967e-06
0.000346072
9.27944e-06
0.000332863
1.17576e-05
0.000320255
1.39564e-05
0.000308272
1.59e-05
0.000296928
1.76132e-05
0.00028623
1.91185e-05
0.000276175
2.04377e-05
0.000266759
2.15918e-05
0.000257978
2.26009e-05
0.000249821
2.34804e-05
0.00024228
2.4245e-05
0.000235342
2.49058e-05
0.000228996
2.54724e-05
0.000223228
2.5952e-05
0.000218028
2.63508e-05
0.000213381
2.66729e-05
0.000209274
2.69225e-05
0.000205696
2.71016e-05
0.000202634
2.72131e-05
0.000200075
2.72571e-05
0.000198008
2.7236e-05
0.000196416
2.71488e-05
0.000195287
2.69975e-05
0.000194605
2.67814e-05
0.000194356
2.65024e-05
0.000194521
2.61614e-05
0.00019508
2.57598e-05
0.000196021
2.53037e-05
0.000197312
2.47918e-05
0.000198945
2.42324e-05
0.000200891
2.3631e-05
0.000203132
2.29931e-05
0.000205643
2.23279e-05
2.16431e-05
0.000208404
0.000606489
-5.63766e-05
0.00059405
-5.13345e-05
0.000580732
-4.61067e-05
0.000566653
-4.06554e-05
0.000551915
-3.50879e-05
0.000536624
-2.94714e-05
0.000520885
-2.38714e-05
0.000504808
-1.83617e-05
0.000488518
-1.30172e-05
0.000472116
-7.87802e-06
0.000455707
-3.01756e-06
0.000439396
1.51171e-06
0.000423283
5.69138e-06
0.000407454
9.49811e-06
0.000391968
1.29317e-05
0.000376894
1.59757e-05
0.000362304
1.86453e-05
0.000348248
2.09569e-05
0.000334781
2.29357e-05
0.000321938
2.46099e-05
0.000309743
2.60116e-05
0.00029821
2.71736e-05
0.00028734
2.81254e-05
0.000277128
2.88946e-05
0.00026757
2.95055e-05
0.00025866
2.99798e-05
0.000250387
3.03357e-05
0.000242742
3.05888e-05
0.000235711
3.07518e-05
0.000229281
3.08349e-05
0.000223434
3.08458e-05
0.000218157
3.07908e-05
0.000213437
3.0674e-05
0.00020926
3.04989e-05
0.000205615
3.02669e-05
0.000202489
2.99806e-05
0.000199868
2.96402e-05
0.00019774
2.92476e-05
0.000196089
2.88027e-05
0.0001949
2.83066e-05
0.000194159
2.77603e-05
0.000193851
2.71645e-05
0.000193959
2.65216e-05
0.000194464
2.58327e-05
0.000195352
2.51037e-05
0.000196596
2.43356e-05
0.000198185
2.35354e-05
0.000200095
2.27099e-05
0.000202307
2.18638e-05
0.000204798
2.10075e-05
2.01484e-05
0.000207547
0.00061035
-4.68729e-05
0.000598093
-4.10389e-05
0.000584955
-3.5053e-05
0.000571011
-2.89246e-05
0.000556344
-2.27681e-05
0.00054106
-1.66552e-05
0.000525281
-1.06482e-05
0.000509121
-4.81303e-06
0.000492694
7.62053e-07
0.000476129
6.01821e-06
0.000459517
1.09158e-05
0.00044294
1.54145e-05
0.000426508
1.94666e-05
0.000410326
2.30583e-05
0.0003945
2.61887e-05
0.00037911
2.88634e-05
0.000364223
3.11033e-05
0.000349889
3.29365e-05
0.000336154
3.43981e-05
0.000323058
3.55256e-05
0.000310635
3.63619e-05
0.000298896
3.6947e-05
0.000287847
3.73196e-05
0.000277485
3.75134e-05
0.000267801
3.75584e-05
0.000258786
3.74791e-05
0.000250424
3.72964e-05
0.000242699
3.70266e-05
0.000235594
3.66829e-05
0.000229093
3.62759e-05
0.000223183
3.58129e-05
0.00021785
3.52999e-05
0.000213079
3.47404e-05
0.000208853
3.41368e-05
0.000205158
3.34903e-05
0.000201979
3.28026e-05
0.000199303
3.2074e-05
0.000197119
3.13057e-05
0.000195412
3.04981e-05
0.00019417
2.96522e-05
0.000193378
2.8769e-05
0.000193021
2.78503e-05
0.000193083
2.68979e-05
0.000193545
2.59135e-05
0.000194393
2.49044e-05
0.000195605
2.38697e-05
0.000197165
2.28203e-05
0.000199054
2.17584e-05
0.000201251
2.06941e-05
0.000203736
1.96339e-05
1.85879e-05
0.000206489
0.000614238
-3.76652e-05
0.000602083
-3.08245e-05
0.000589049
-2.4062e-05
0.000575167
-1.72216e-05
0.000560501
-1.04145e-05
0.000545167
-3.73932e-06
0.000529311
2.71994e-06
0.000513046
8.91617e-06
0.000496446
1.47877e-05
0.000479613
2.02422e-05
0.000462669
2.52265e-05
0.000445749
2.96988e-05
0.000428977
3.3627e-05
0.000412465
3.69997e-05
0.000396317
3.98212e-05
0.000380617
4.211e-05
0.000365435
4.38965e-05
0.000350829
4.5223e-05
0.000336844
4.61364e-05
0.000323522
4.66884e-05
0.000310896
4.69314e-05
0.000298983
4.69157e-05
0.000287787
4.66873e-05
0.0002773
4.62861e-05
0.00026751
4.57471e-05
0.000258398
4.50985e-05
0.000249946
4.4363e-05
0.000242138
4.35579e-05
0.000234963
4.26968e-05
0.000228406
4.17906e-05
0.000222451
4.08459e-05
0.00021708
3.9868e-05
0.000212273
3.88597e-05
0.000208013
3.78227e-05
0.000204283
3.67576e-05
0.000201068
3.56651e-05
0.000198354
3.45451e-05
0.000196129
3.33979e-05
0.000194381
3.22236e-05
0.000193095
3.10234e-05
0.000192262
2.97977e-05
0.000191866
2.85497e-05
0.000191892
2.72803e-05
0.000192326
2.59927e-05
0.000193146
2.46939e-05
0.000194337
2.3384e-05
0.000195883
2.20731e-05
0.000197763
2.07653e-05
0.000199959
1.947e-05
0.000202451
1.81942e-05
1.69482e-05
0.00020522
0.000617441
-2.85568e-05
0.000605537
-2.06763e-05
0.00059243
-1.30073e-05
0.000578663
-5.51533e-06
0.000564036
1.99178e-06
0.000548673
9.2931e-06
0.00053269
1.62875e-05
0.000516197
2.29309e-05
0.000499345
2.91189e-05
0.000482252
3.47898e-05
0.000465051
3.98746e-05
0.000447862
4.43399e-05
0.000430797
4.8159e-05
0.000413974
5.13206e-05
0.000397503
5.38335e-05
0.000381476
5.5726e-05
0.000365976
5.7041e-05
0.000351076
5.7835e-05
0.000336834
5.81709e-05
0.000323292
5.81155e-05
0.000310481
5.77329e-05
0.000298408
5.70844e-05
0.000287072
5.62242e-05
0.000276465
5.52007e-05
0.000266576
5.40539e-05
0.000257389
5.28164e-05
0.000248885
5.15124e-05
0.000241041
5.01605e-05
0.000233837
4.87735e-05
0.000227255
4.7361e-05
0.000221275
4.59295e-05
0.000215877
4.44821e-05
0.000211042
4.30209e-05
0.000206753
4.15465e-05
0.000202993
4.0059e-05
0.00019975
3.85579e-05
0.000197009
3.70425e-05
0.000194757
3.55126e-05
0.000192982
3.39676e-05
0.00019167
3.24085e-05
0.000190811
3.08355e-05
0.000190391
2.92517e-05
0.000190394
2.76587e-05
0.000190809
2.60596e-05
0.000191613
2.44616e-05
0.000192795
2.28661e-05
0.000194336
2.12837e-05
0.00019622
1.97181e-05
0.000198427
1.81799e-05
0.000200938
1.66761e-05
1.52168e-05
0.000203737
0.000619019
-1.93473e-05
0.000607312
-1.08158e-05
0.00059462
-2.28659e-06
0.000580701
6.23572e-06
0.000566082
1.445e-05
0.000550654
2.24589e-05
0.0005346
2.99709e-05
0.000517994
3.71012e-05
0.000501001
4.36513e-05
0.000483735
4.95916e-05
0.000466335
5.48181e-05
0.000448916
5.93133e-05
0.0004316
6.3046e-05
0.000414501
6.60075e-05
0.000397734
6.82129e-05
0.000381408
6.96992e-05
0.000365623
7.05225e-05
0.000350465
7.07557e-05
0.000336005
7.04806e-05
0.00032228
6.97821e-05
0.00030931
6.87385e-05
0.000297103
6.74232e-05
0.000285659
6.59016e-05
0.000274973
6.42303e-05
0.00026503
6.24556e-05
0.000255806
6.06119e-05
0.000247278
5.87262e-05
0.00023942
5.68158e-05
0.000232207
5.48948e-05
0.000225617
5.29697e-05
0.000219625
5.10467e-05
0.000214211
4.91263e-05
0.000209358
4.72103e-05
0.000205049
4.52966e-05
0.000201272
4.3385e-05
0.00019801
4.14731e-05
0.000195253
3.95596e-05
0.000192985
3.76429e-05
0.000191197
3.57229e-05
0.000189873
3.37994e-05
0.000189003
3.18731e-05
0.000188574
2.99466e-05
0.00018857
2.80218e-05
0.000188979
2.61044e-05
0.000189783
2.41954e-05
0.000190968
2.23046e-05
0.000192519
2.04398e-05
0.000194419
1.86047e-05
0.000196651
1.6811e-05
0.000199195
1.50673e-05
1.33811e-05
0.000202035
0.000618585
-1.07185e-05
0.000606828
-1.00653e-06
0.000594017
8.48581e-06
0.000580359
1.77705e-05
0.000565701
2.68022e-05
0.000550314
3.55287e-05
0.000534363
4.35457e-05
0.000517818
5.12192e-05
0.000500837
5.81826e-05
0.00048353
6.44683e-05
0.000466031
6.99105e-05
0.000448466
7.44897e-05
0.000430975
7.81722e-05
0.000413694
8.09566e-05
0.000396739
8.28668e-05
0.000380214
8.39496e-05
0.000364225
8.42746e-05
0.000348873
8.39315e-05
0.000334239
8.30208e-05
0.000320373
8.1647e-05
0.000307293
7.99089e-05
0.000295005
7.78953e-05
0.000283507
7.56851e-05
0.000272791
7.3342e-05
0.000262835
7.09191e-05
0.000253613
6.84538e-05
0.000245092
6.59743e-05
0.000237244
6.34975e-05
0.000230041
6.10361e-05
0.000223458
5.85947e-05
0.000217474
5.61778e-05
0.000212069
5.3784e-05
0.000207225
5.14129e-05
0.000202923
4.90606e-05
0.00019915
4.67246e-05
0.000195891
4.44011e-05
0.000193132
4.20878e-05
0.000190861
3.97819e-05
0.000189067
3.74828e-05
0.000187738
3.51899e-05
0.000186863
3.29043e-05
0.000186429
3.06278e-05
0.000186424
2.83631e-05
0.000186832
2.61155e-05
0.000187645
2.38886e-05
0.000188845
2.16917e-05
0.000190419
1.95302e-05
0.000192349
1.74147e-05
0.00019462
1.53519e-05
0.000197213
1.33534e-05
1.14285e-05
0.000200108
0.000617702
-3.52952e-06
0.000604727
8.735e-06
0.000591746
1.89755e-05
0.000577537
2.86693e-05
0.000562921
3.93541e-05
0.000547419
4.79844e-05
0.000530976
5.72587e-05
0.000514713
6.48581e-05
0.000497669
7.2675e-05
0.000480513
7.91621e-05
0.000463148
8.48657e-05
0.000445701
8.95744e-05
0.000428288
9.32708e-05
0.000411035
9.59388e-05
0.000394077
9.75992e-05
0.000377534
9.83087e-05
0.000361516
9.81532e-05
0.00034612
9.72396e-05
0.000331428
9.56881e-05
0.000317502
9.36252e-05
0.000304377
9.11724e-05
0.000292069
8.84396e-05
0.000280573
8.55201e-05
0.000269874
8.2488e-05
0.000259947
7.94016e-05
0.000250761
7.63025e-05
0.000242283
7.32207e-05
0.000234481
7.01726e-05
0.000227324
6.71693e-05
0.000220784
6.42125e-05
0.000214838
6.13041e-05
0.000209466
5.84393e-05
0.000204649
5.56154e-05
0.00020037
5.28257e-05
0.000196615
5.00662e-05
0.000193368
4.73309e-05
0.000190619
4.46165e-05
0.000188353
4.19196e-05
0.000186562
3.92383e-05
0.000185236
3.65713e-05
0.000184366
3.39204e-05
0.00018394
3.12869e-05
0.000183946
2.86737e-05
0.000184368
2.60869e-05
0.000185202
2.3531e-05
0.000186428
2.1016e-05
0.000188035
1.85462e-05
0.000190009
1.61358e-05
0.00019233
1.37909e-05
0.000194985
1.15236e-05
9.34459e-06
0.000197955
0.000624604
5.9075e-06
0.000610446
1.66566e-05
0.000593264
2.93107e-05
0.000575226
4.05245e-05
0.000558726
5.07212e-05
0.000541934
6.10875e-05
0.0005249
7.03409e-05
0.000507482
7.90689e-05
0.000490895
8.65286e-05
0.000473844
9.34158e-05
0.000456839
9.93227e-05
0.000439809
0.00010423
0.000422792
0.000108024
0.000405882
0.000110662
0.000389203
0.000112151
0.000372891
0.000112547
0.000357064
0.000111951
0.000341823
0.000110493
0.000327257
0.000108318
0.000313434
0.000105576
0.000300403
0.000102413
0.000288186
9.89581e-05
0.000276782
9.53247e-05
0.000266175
9.15973e-05
0.000256338
8.78443e-05
0.000247243
8.41101e-05
0.000238856
8.04272e-05
0.00023114
7.68105e-05
0.000224062
7.32687e-05
0.000217596
6.98014e-05
0.000211717
6.64057e-05
0.000206401
6.30748e-05
0.000201631
5.98021e-05
0.00019739
5.65793e-05
0.000193662
5.33987e-05
0.000190436
5.02539e-05
0.000187703
4.71387e-05
0.000185453
4.40494e-05
0.000183675
4.09832e-05
0.000182362
3.79383e-05
0.000181506
3.49161e-05
0.000181096
3.19177e-05
0.000181124
2.89472e-05
0.00018157
2.60117e-05
0.000182436
2.31137e-05
0.000183703
2.0267e-05
0.000185359
1.7478e-05
0.000187391
1.47568e-05
0.000189779
1.21162e-05
0.00019251
9.56549e-06
7.11632e-06
0.000195564
0.000674642
1.23059e-05
0.000648746
2.73595e-05
0.000620182
4.23444e-05
0.000590341
5.5524e-05
0.000563564
6.56885e-05
0.000539942
7.553e-05
0.000519267
8.41771e-05
0.000500161
9.24138e-05
0.000481975
0.000100113
0.000464653
0.000107062
0.000447722
0.000113176
0.000431037
0.000118276
0.00041452
0.000122191
0.000398156
0.000124851
0.000382
0.00012624
0.000366154
0.000126402
0.000350732
0.000125439
0.000335851
0.000123494
0.0003216
0.000120737
0.000308055
0.000117349
0.000295266
0.000113495
0.000283267
0.000109336
0.000272065
0.000104998
0.000261647
0.000100588
0.00025199
9.61771e-05
0.000243059
9.18209e-05
0.000234821
8.75453e-05
0.000227239
8.3372e-05
0.000220282
7.93013e-05
0.000213918
7.53344e-05
0.000208123
7.1461e-05
0.000202878
6.76734e-05
0.000198166
6.39599e-05
0.000193974
6.03107e-05
0.000190288
5.67143e-05
0.000187098
5.31633e-05
0.000184393
4.96491e-05
0.000182166
4.61669e-05
0.000180411
4.27129e-05
0.000179122
3.92859e-05
0.000178287
3.58863e-05
0.000177901
3.25153e-05
0.000177958
2.91782e-05
0.000178437
2.58806e-05
0.000179347
2.26304e-05
0.000180666
1.9438e-05
0.000182383
1.63141e-05
0.000184482
1.32693e-05
0.00018695
1.03154e-05
0.00018977
7.4662e-06
4.73233e-06
0.000192926
0.000744231
2.05175e-05
0.000722971
3.76093e-05
0.000694262
5.6479e-05
0.000657109
7.23806e-05
0.000611469
8.45635e-05
0.000563541
9.73709e-05
0.000524376
0.000103951
0.00049499
0.000109658
0.000472046
0.000114878
0.000452722
0.000120588
0.000435333
0.000126241
0.000418896
0.000131304
0.000402958
0.000135337
0.000387337
0.000138117
0.000371991
0.000139522
0.000356936
0.000139558
0.000342243
0.000138324
0.000328002
0.00013598
0.000314315
0.000132713
0.000301258
0.000128737
0.0002889
0.000124246
0.000277277
0.000119424
0.000266409
0.000114423
0.000256289
0.000109359
0.000246896
0.000104322
0.0002382
9.93613e-05
0.000230166
9.45209e-05
0.000222764
8.98049e-05
0.00021596
8.52284e-05
0.000209731
8.07756e-05
0.000204051
7.64443e-05
0.000198904
7.22135e-05
0.000194273
6.80743e-05
0.000190147
6.40084e-05
0.000186513
6.00056e-05
0.000183364
5.60532e-05
0.000180693
5.21432e-05
0.000178494
4.82688e-05
0.000176764
4.44257e-05
0.0001755
4.0612e-05
0.000174693
3.68283e-05
0.000174338
3.30761e-05
0.000174432
2.9362e-05
0.000174954
2.5691e-05
0.000175915
2.20738e-05
0.000177295
1.85213e-05
0.000179085
1.50458e-05
0.000181268
1.1661e-05
0.000183831
8.37823e-06
0.000186758
5.21313e-06
2.1769e-06
0.000190031
0.000750798
3.04988e-05
0.000740302
5.00092e-05
0.00072471
6.6169e-05
0.000700514
8.69277e-05
0.000659753
0.000100682
0.00061075
0.000115438
0.000555146
0.000127095
0.000506481
0.000131031
0.00046929
0.000133199
0.00044205
0.000136083
0.000421319
0.000139853
0.000404086
0.000143869
0.000388595
0.000147535
0.000373855
0.000150268
0.000359486
0.000151709
0.000345406
0.000151705
0.000331637
0.000150306
0.00031825
0.000147663
0.000305328
0.000143992
0.000292967
0.000139514
0.000281222
0.000134469
0.000270151
0.000129052
0.000259761
0.00012345
0.000250064
0.000117788
0.000241033
0.000112168
0.000232651
0.000106652
0.000224884
0.000101281
0.000217709
9.60614e-05
0.000211102
9.10074e-05
0.00020504
8.60991e-05
0.000199504
8.13307e-05
0.000194478
7.66787e-05
0.000189945
7.21292e-05
0.000185898
6.76621e-05
0.000182329
6.32617e-05
0.00017923
5.89164e-05
0.000176601
5.46157e-05
0.000174438
5.03517e-05
0.00017274
4.61191e-05
0.000171505
4.19156e-05
0.000170729
3.77414e-05
0.000170409
3.3599e-05
0.000170544
2.94964e-05
0.000171115
2.54387e-05
0.000172136
2.1439e-05
0.000173585
1.75103e-05
0.000175457
1.36664e-05
0.000177735
9.92256e-06
0.000180405
6.29371e-06
0.000183453
2.79442e-06
-5.61719e-07
0.00018686
0.000718141
4.23811e-05
0.000711227
6.09848e-05
0.00069952
7.95494e-05
0.000685375
9.69968e-05
0.000673953
0.000118089
0.000636237
0.000129265
0.000584187
0.000144001
0.000525258
0.000154391
0.000475926
0.000153958
0.000437878
0.00015419
0.000409963
0.000154826
0.000389032
0.000156743
0.000372246
0.000159327
0.000357731
0.000161594
0.000344266
0.000162833
0.000331311
0.000162735
0.000318697
0.000161208
0.000306423
0.000158349
0.000294535
0.000154354
0.000283098
0.000149476
0.000272187
0.00014396
0.000261834
0.000138052
0.000252086
0.000131921
0.000242928
0.000125748
0.000234372
0.000119609
0.000226397
0.000113607
0.000218972
0.000107754
0.000212098
0.000102089
0.000205735
9.65932e-05
0.000199882
9.12769e-05
0.000194511
8.60956e-05
0.000189625
8.10559e-05
0.0001852
7.61106e-05
0.00018124
7.12636e-05
0.000177736
6.6481e-05
0.000174694
6.17532e-05
0.00017211
5.7069e-05
0.000169986
5.24175e-05
0.000168324
4.7793e-05
0.000167122
4.31963e-05
0.00016638
3.86249e-05
0.000166098
3.40836e-05
0.000166275
2.95799e-05
0.000166899
2.5121e-05
0.000167987
2.0722e-05
0.000169516
1.63987e-05
0.000171481
1.21675e-05
0.000173866
8.04522e-06
0.000176657
4.05067e-06
0.00017984
1.98205e-07
-3.49533e-06
0.000183394
0.000646458
5.08711e-05
0.000655131
7.03431e-05
0.000654393
8.96887e-05
0.000646566
0.000109502
0.000637297
0.000127942
0.000624348
0.000146302
0.000590394
0.000158988
0.000538159
0.000172049
0.000483217
0.000172947
0.00043497
0.000173943
0.000399202
0.000171521
0.000374111
0.000170395
0.000355676
0.00017091
0.000340749
0.000172104
0.000327675
0.000172896
0.000315584
0.000172614
0.000304059
0.000170944
0.000292926
0.000167904
0.000282163
0.000163659
0.000271789
0.000158462
0.000261851
0.000152582
0.000252382
0.00014626
0.000243398
0.000139723
0.000234925
0.000133103
0.000226942
0.000126561
0.000219466
0.000120124
0.000212465
0.000113889
0.000205938
0.000107818
0.000199879
0.000101956
0.000194261
9.62594e-05
0.000189095
9.07283e-05
0.000184355
8.53147e-05
0.00018006
8.00217e-05
0.000176191
7.48003e-05
0.000172771
6.96587e-05
0.000169787
6.45609e-05
0.000167247
5.95013e-05
0.000165151
5.44675e-05
0.000163513
4.94546e-05
0.000162337
4.44613e-05
0.000161628
3.94836e-05
0.000161388
3.45321e-05
0.000161611
2.96134e-05
0.000162293
2.47364e-05
0.000163452
1.99214e-05
0.000165069
1.51818e-05
0.000167137
1.05407e-05
0.000169643
6.01919e-06
0.000172568
1.63865e-06
0.000175896
-2.5852e-06
-6.63329e-06
0.000179613
0.000550191
5.97091e-05
0.000573091
7.9123e-05
0.00059182
9.68736e-05
0.000596464
0.000118624
0.000592428
0.000138537
0.000585339
0.000157533
0.000569343
0.000170563
0.000530924
0.000183211
0.000479015
0.000192896
0.000430438
0.000192497
0.000390031
0.000187239
0.000359279
0.000183793
0.000337226
0.000182297
0.000321247
0.000182044
0.000308675
0.000181992
0.000297707
0.000181247
0.000287507
0.000179352
0.000277743
0.000176141
0.00026829
0.000171729
0.00025915
0.000166311
0.000250329
0.000160179
0.000241878
0.000153561
0.000233791
0.000146714
0.000226096
0.000139778
0.0002188
0.000132906
0.000211891
0.000126155
0.000205384
0.00011959
0.000199258
0.000113219
0.000193536
0.000107035
0.000188202
0.000101038
0.000183251
9.5177e-05
0.00017869
8.94605e-05
0.000174519
8.38288e-05
0.000170757
7.82852e-05
0.000167399
7.27901e-05
0.000164473
6.73428e-05
0.000161969
6.19145e-05
0.000159921
5.65062e-05
0.000158322
5.11081e-05
0.000157166
4.57114e-05
0.000156476
4.03245e-05
0.000156262
3.49509e-05
0.000156532
2.96038e-05
0.000157279
2.42907e-05
0.000158512
1.90327e-05
0.00016022
1.38556e-05
0.000162396
8.78123e-06
0.000165029
3.83701e-06
0.000168099
-9.52935e-07
0.000171583
-5.56258e-06
-9.97702e-06
0.000175462
0.000480947
6.79251e-05
0.000491911
8.59166e-05
0.000515889
0.000105017
0.000533146
0.000126299
0.000539813
0.000147041
0.00053612
0.000166382
0.000523659
0.000181308
0.000509651
0.000199105
0.000466171
0.000207136
0.000412342
0.00020559
0.000371033
0.000200966
0.000340787
0.000195508
0.000318393
0.000192668
0.000301751
0.00019122
0.000288995
0.00019019
0.000278632
0.000188816
0.000269546
0.000186544
0.00026113
0.000183106
0.000253087
0.000178514
0.000245298
0.000172943
0.00023774
0.000166633
0.000230406
0.000159851
0.000223333
0.000152786
0.000216514
0.000145676
0.000209978
0.000138565
0.000203727
0.000131625
0.000197762
0.000124822
0.000192118
0.00011823
0.000186753
0.000111807
0.000181718
0.000105567
0.000176996
9.94486e-05
0.000172629
9.34551e-05
0.000168598
8.75492e-05
0.000164943
8.1699e-05
0.000161665
7.58942e-05
0.000158786
7.01039e-05
0.000156325
6.43291e-05
0.000154286
5.85454e-05
0.000152702
5.27589e-05
0.000151575
4.69608e-05
0.00015092
4.11568e-05
0.000150735
3.53499e-05
0.000151034
2.95545e-05
0.00015183
2.37844e-05
0.00015314
1.80628e-05
0.000154948
1.2419e-05
0.000157246
6.88369e-06
0.000160017
1.49202e-06
0.000163235
-3.72241e-06
0.000166872
-8.72855e-06
-1.35074e-05
0.000170897
0.000427689
7.29008e-05
0.000430014
9.27686e-05
0.00044813
0.000112494
0.000468791
0.000132547
0.000481684
0.000154358
0.000483562
0.000174266
0.000477464
0.000190807
0.000468343
0.000204159
0.000445387
0.000220076
0.0003928
0.000222574
0.000350542
0.000211536
0.000318862
0.000205277
0.000296174
0.000200986
0.000279899
0.000198612
0.000267873
0.000196944
0.000258481
0.000195069
0.000250602
0.000192417
0.000243525
0.000188735
0.000236881
0.000183967
0.000230471
0.000178296
0.000224223
0.000171879
0.000218097
0.000165038
0.000212113
0.000157883
0.00020626
0.000150692
0.000200546
0.000143502
0.000195021
0.000136443
0.000189651
0.000129547
0.000184497
0.000122802
0.000179562
0.000116249
0.000174851
0.000109816
0.000170394
0.000103525
0.000166205
9.73027e-05
0.000162339
9.11603e-05
0.000158784
8.50555e-05
0.000155572
7.89564e-05
0.000152735
7.28604e-05
0.000150298
6.6741e-05
0.000148279
6.06026e-05
0.000146688
5.44299e-05
0.000145564
4.82268e-05
0.000144916
4.19962e-05
0.000144747
3.57426e-05
0.000145068
2.9477e-05
0.000145917
2.32277e-05
0.000147301
1.70151e-05
0.000149203
1.08755e-05
0.000151615
4.85325e-06
0.000154512
-1.00436e-06
0.000157854
-6.64468e-06
0.0001616
-1.20333e-05
-1.71447e-05
0.000165697
0.00037166
7.48749e-05
0.000374442
9.60977e-05
0.000389312
0.000115949
0.000410978
0.00013773
0.000426112
0.000159819
0.000430827
0.000180077
0.000427304
0.000197024
0.00042086
0.000213502
0.000405401
0.000225268
0.000365521
0.000230309
0.000323965
0.000222678
0.000292281
0.000213805
0.000270498
0.000207705
0.000255615
0.0002042
0.000244987
0.000201945
0.000236975
0.000199702
0.000230525
0.00019676
0.000224929
0.000192884
0.000219776
0.000187999
0.000214809
0.000182281
0.000209936
0.000175874
0.000205084
0.000169036
0.00020023
0.000161959
0.000195414
0.000154772
0.000190599
0.000147646
0.000185831
0.000140586
0.000181122
0.000133694
0.00017649
0.000126923
0.000171977
0.000120307
0.0001676
0.000113792
0.000163418
0.000107369
0.000159433
0.000101011
0.000155703
9.46721e-05
0.000152254
8.83527e-05
0.000149103
8.19939e-05
0.000146303
7.5612e-05
0.000143868
6.91747e-05
0.000141853
6.26856e-05
0.000140265
5.61351e-05
0.000139121
4.95243e-05
0.00013845
4.28593e-05
0.000138273
3.61463e-05
0.000138611
2.93996e-05
0.000139485
2.26451e-05
0.00014091
1.59133e-05
0.000142871
9.25373e-06
0.000145356
2.72719e-06
0.00014832
-3.59154e-06
0.0001517
-9.62837e-06
0.000155416
-1.53359e-05
-2.06928e-05
0.000159393
0.000313795
7.40697e-05
0.000318212
9.70869e-05
0.000335936
0.000117844
0.000356964
0.000142201
0.000371837
0.000164425
0.000377871
0.000184473
0.000377318
0.000202244
0.00037431
0.000218437
0.000358902
0.000230961
0.000327804
0.000235529
0.000292108
0.000227983
0.000263259
0.000219408
0.00024278
0.000212508
0.000229345
0.000208073
0.000220495
0.000205156
0.000214266
0.000202543
0.000209504
0.000199411
0.000205531
0.00019543
0.000201934
0.000190533
0.000198484
0.000184836
0.000195007
0.000178561
0.000191483
0.000171828
0.000187835
0.00016494
0.000184067
0.000157909
0.000180196
0.000150935
0.000176224
0.000144029
0.000172195
0.000137232
0.000168127
0.00013056
0.000164073
0.000123974
0.000160054
0.000117485
0.000156128
0.000111013
0.000152351
0.000104575
0.000148745
9.8106e-05
0.000145378
9.16075e-05
0.00014226
8.50385e-05
0.000139471
7.83871e-05
0.000137039
7.1653e-05
0.000134983
6.48279e-05
0.000133347
5.78991e-05
0.000132169
5.08763e-05
0.000131471
4.37717e-05
0.00013127
3.6589e-05
0.000131589
2.93453e-05
0.000132453
2.207e-05
0.000133873
1.48056e-05
0.000135825
7.63048e-06
0.000138276
6.18543e-07
0.000141137
-6.09887e-06
0.00014431
-1.24358e-05
0.000147682
-1.83301e-05
-2.37822e-05
0.000151162
0.000263137
7.3361e-05
0.00026968
9.81291e-05
0.000288588
0.000123078
0.000307141
0.000146223
0.000320079
0.000168399
0.000325785
0.000188134
0.000326077
0.000205434
0.000324066
0.000222521
0.000309447
0.000234182
0.000281709
0.000233445
0.00025252
0.000228797
0.000229114
0.000221471
0.00021259
0.000214929
0.0002017
0.00021007
0.000194854
0.000206606
0.000190556
0.000203634
0.000187664
0.00020034
0.000185467
0.000196317
0.000183532
0.000191507
0.00018164
0.000185946
0.000179634
0.000179882
0.00017744
0.000173409
0.000175029
0.000166776
0.000172356
0.000160062
0.000169452
0.00015335
0.00016631
0.000146731
0.00016297
0.000140158
0.000159475
0.000133697
0.000155872
0.000127256
0.000152222
0.000120873
0.000148548
0.000114467
0.000144944
0.000108006
0.000141447
0.000101484
0.000138129
9.48565e-05
0.000135032
8.81232e-05
0.000132197
8.12434e-05
0.000129705
7.4216e-05
0.000127591
6.70607e-05
0.000125871
5.97651e-05
0.000124597
5.23319e-05
0.000123811
4.47781e-05
0.000123531
3.71209e-05
0.000123771
2.93766e-05
0.000124539
2.15892e-05
0.000125824
1.38266e-05
0.000127583
6.19142e-06
0.000129727
-1.19144e-06
0.000132137
-8.16479e-06
0.000134683
-1.46291e-05
0.000137239
-2.05252e-05
-2.58979e-05
0.000139721
0.000235705
7.57403e-05
0.000241769
0.000102533
0.000254015