/*--------------------------------*- C++ -*----------------------------------*\
  =========                 |
  \\      /  F ield         | OpenFOAM: The Open Source CFD Toolbox
   \\    /   O peration     | Website:  https://openfoam.org
    \\  /    A nd           | Version:  10
     \\/     M anipulation  |
\*---------------------------------------------------------------------------*/
FoamFile
{
    format      ascii;
    class       volScalarField;
    location    "1.000357";
    object      rho;
}
// * * * * * * * * * * * * * * * * * * * * * * * * * * * * * * * * * * * * * //

dimensions      [1 -3 0 0 0 0 0];

internalField   nonuniform List<scalar> 
15708
(
0.967065
0.971444
0.975884
0.980379
0.984888
0.989379
0.993775
0.998022
1.00207
1.00589
1.00949
1.01287
1.01603
1.01896
1.02167
1.02413
1.02636
1.02837
1.03019
1.03185
1.03337
1.03479
1.03609
1.0373
1.03843
1.03947
1.04044
1.04132
1.04213
1.04287
1.04355
1.04416
1.04471
1.04521
1.04563
1.04603
1.04633
1.04662
1.04684
1.04703
1.04717
1.04726
1.04733
1.0473
1.04728
1.04716
1.04703
1.04684
1.04661
1.04631
1.04599
0.967581
0.971676
0.975816
0.980115
0.984513
0.988923
0.993252
0.99743
1.00143
1.00521
1.00879
1.01216
1.01532
1.01827
1.02099
1.02347
1.02572
1.02776
1.02959
1.03128
1.03281
1.03424
1.03555
1.03677
1.03789
1.03892
1.03986
1.04075
1.04154
1.04228
1.04295
1.04354
1.04407
1.04456
1.04496
1.04535
1.04564
1.04593
1.04614
1.04632
1.04645
1.04652
1.04658
1.04658
1.04654
1.04644
1.04631
1.04613
1.04591
1.04563
1.04531
0.967417
0.971213
0.975377
0.979666
0.983996
0.9883
0.992517
0.996616
1.00056
1.00434
1.00793
1.01132
1.01451
1.01747
1.02021
1.02271
1.02498
1.02703
1.02889
1.03058
1.03213
1.03355
1.03489
1.03611
1.03725
1.03829
1.03923
1.04011
1.04088
1.04161
1.04224
1.04284
1.04334
1.04382
1.04421
1.04457
1.04486
1.04513
1.04533
1.04551
1.04564
1.04572
1.04575
1.04576
1.04571
1.04564
1.04549
1.04533
1.0451
1.04485
1.04455
0.96699
0.97089
0.975007
0.979168
0.983362
0.987549
0.991682
0.995738
0.999666
1.00346
1.00706
1.01048
1.01367
1.01664
1.01938
1.02189
1.02419
1.02625
1.02813
1.02982
1.03138
1.03282
1.03416
1.0354
1.03654
1.03758
1.03853
1.03938
1.04017
1.04087
1.04151
1.04209
1.04258
1.04305
1.04342
1.04377
1.04405
1.04431
1.0445
1.04467
1.04478
1.04486
1.04489
1.04489
1.04487
1.04476
1.04465
1.04447
1.04427
1.04403
1.04373
0.967637
0.970633
0.974502
0.978489
0.982548
0.986633
0.990714
0.994736
0.998658
1.00243
1.00602
1.00942
1.01262
1.01561
1.01838
1.02094
1.02326
1.02538
1.02729
1.02904
1.03063
1.0321
1.03345
1.03469
1.03581
1.03685
1.03778
1.03864
1.03941
1.0401
1.04073
1.04129
1.04178
1.04223
1.0426
1.04295
1.0432
1.04346
1.04363
1.0438
1.04389
1.04397
1.04399
1.04397
1.04395
1.04385
1.04374
1.04357
1.04338
1.04313
1.04286
0.966376
0.969849
0.973553
0.977449
0.981469
0.985541
0.989597
0.993585
0.997468
1.00123
1.00483
1.00826
1.0115
1.01452
1.01733
1.01994
1.02232
1.02449
1.02645
1.02824
1.02986
1.03136
1.03273
1.03398
1.0351
1.03611
1.03702
1.03786
1.03862
1.0393
1.03992
1.04046
1.04092
1.04134
1.04169
1.04202
1.04228
1.04253
1.04271
1.04287
1.04297
1.04303
1.04306
1.04305
1.04301
1.04292
1.0428
1.04263
1.04244
1.0422
1.04192
0.965387
0.968765
0.972424
0.97631
0.980317
0.984351
0.988373
0.992353
0.996279
1.00009
1.00377
1.00725
1.01054
1.0136
1.01644
1.01906
1.0215
1.02369
1.02568
1.02745
1.02907
1.03054
1.03189
1.03312
1.03423
1.03524
1.03616
1.03699
1.03773
1.0384
1.03899
1.03953
1.04002
1.04047
1.04084
1.04116
1.04141
1.04163
1.0418
1.04192
1.04201
1.04206
1.04208
1.04206
1.04201
1.04193
1.0418
1.04164
1.04145
1.04121
1.04095
0.964505
0.96762
0.971182
0.974978
0.978885
0.982835
0.986831
0.990844
0.994836
0.998719
1.00244
1.00596
1.00926
1.01237
1.01527
1.01797
1.02044
1.0227
1.02471
1.0265
1.0281
1.02957
1.03093
1.03217
1.03332
1.03435
1.03526
1.03606
1.03676
1.03741
1.03801
1.03856
1.03908
1.03953
1.03992
1.04025
1.04051
1.04071
1.04086
1.04097
1.04101
1.04106
1.04105
1.04102
1.04099
1.04089
1.04078
1.04061
1.04042
1.04019
1.03992
0.962163
0.967033
0.969447
0.973321
0.977278
0.981255
0.98529
0.98931
0.993291
0.997178
1.00094
1.00454
1.00794
1.01112
1.01408
1.01682
1.0193
1.02155
1.02357
1.0254
1.02706
1.02858
1.02996
1.0312
1.0323
1.03332
1.03423
1.03506
1.0358
1.03648
1.0371
1.03766
1.03815
1.0386
1.03897
1.03928
1.03953
1.03973
1.03987
1.03997
1.04002
1.04005
1.04004
1.04
1.03995
1.03985
1.03973
1.03956
1.03936
1.03913
1.03886
0.961627
0.9644
0.969366
0.971952
0.975785
0.979774
0.983754
0.987679
0.991591
0.995453
0.999244
1.00291
1.00641
1.00971
1.01275
1.01552
1.01803
1.02029
1.02235
1.02425
1.02596
1.0275
1.02888
1.03011
1.03125
1.03228
1.03323
1.03408
1.03486
1.03555
1.03619
1.03672
1.03719
1.03758
1.03792
1.0382
1.03844
1.03863
1.03877
1.03888
1.03894
1.03898
1.03898
1.03895
1.03889
1.0388
1.03866
1.03849
1.03829
1.03806
1.03778
0.962949
0.965666
0.969038
0.97192
0.97584
0.978928
0.982994
0.986536
0.990386
0.994123
0.997818
1.00142
1.00488
1.00818
1.0113
1.01415
1.01671
1.01899
1.02106
1.02297
1.02471
1.02628
1.02769
1.02896
1.03014
1.03122
1.03221
1.03309
1.03388
1.03455
1.03516
1.03568
1.03615
1.03655
1.0369
1.03719
1.03743
1.03761
1.03775
1.03785
1.03791
1.03794
1.03792
1.03787
1.0378
1.03769
1.03755
1.03739
1.03718
1.03696
1.03668
0.973133
0.97794
0.973689
0.981081
0.977048
0.985045
0.982492
0.987847
0.989598
0.992979
0.99642
0.999843
1.00322
1.0065
1.00963
1.01257
1.01525
1.01767
1.01982
1.02174
1.02347
1.02503
1.02646
1.02776
1.02897
1.03006
1.03107
1.03196
1.03278
1.03347
1.0341
1.03463
1.03511
1.0355
1.03586
1.03615
1.0364
1.03658
1.03672
1.0368
1.03685
1.03686
1.03686
1.0368
1.03672
1.0366
1.03646
1.03627
1.03607
1.03582
1.03556
1.01607
1.00864
1.01728
0.995325
1.00305
0.989648
0.996122
0.988602
0.991775
0.993122
0.99542
0.998251
1.00134
1.00451
1.00763
1.01061
1.01342
1.01598
1.01826
1.02028
1.02206
1.02368
1.02515
1.02649
1.0277
1.02882
1.02984
1.03077
1.0316
1.03233
1.03299
1.03355
1.03405
1.03447
1.03482
1.0351
1.03532
1.0355
1.03564
1.03571
1.03576
1.03577
1.03576
1.0357
1.03561
1.0355
1.03535
1.03518
1.03497
1.03473
1.03445
1.1618
1.14069
1.11067
1.08161
1.05033
1.0318
1.01605
1.00893
1.00203
0.999068
0.998184
0.998874
1.0007
1.00319
1.006
1.00885
1.01163
1.0142
1.01658
1.01866
1.02055
1.02219
1.02372
1.02508
1.02638
1.02754
1.02862
1.02959
1.03047
1.03124
1.03189
1.03246
1.03294
1.03337
1.03371
1.03401
1.03424
1.03441
1.03455
1.03464
1.0347
1.03469
1.03469
1.03462
1.03453
1.03441
1.03427
1.03409
1.03386
1.03361
1.0333
1.35677
1.33283
1.31831
1.27754
1.22381
1.14914
1.08782
1.04669
1.02406
1.01113
1.00445
1.00164
1.00122
1.00234
1.00443
1.00703
1.00975
1.01241
1.01483
1.01707
1.01896
1.02075
1.02226
1.02376
1.02503
1.02631
1.02737
1.02841
1.02927
1.03008
1.03076
1.03135
1.03186
1.03229
1.03265
1.03294
1.03316
1.03334
1.03345
1.03354
1.0336
1.0336
1.0336
1.03353
1.03343
1.03333
1.03317
1.033
1.03276
1.03251
1.0322
1.4368
1.44294
1.42722
1.45274
1.38243
1.3275
1.23603
1.14929
1.08267
1.04105
1.0185
1.00772
1.00352
1.00283
1.0039
1.00589
1.00831
1.0108
1.0132
1.01538
1.01743
1.01916
1.0209
1.0223
1.0238
1.02493
1.02618
1.02708
1.02807
1.02881
1.02957
1.03017
1.03073
1.03116
1.03156
1.03185
1.03209
1.03226
1.0324
1.03248
1.03255
1.03254
1.03255
1.03247
1.03237
1.03226
1.03209
1.03191
1.03167
1.03141
1.0311
1.43455
1.45268
1.46442
1.46497
1.47823
1.44917
1.3859
1.27783
1.17803
1.10199
1.0528
1.02447
1.00992
1.00419
1.00316
1.00429
1.00635
1.00875
1.01121
1.01351
1.01561
1.01756
1.01922
1.02091
1.0222
1.02367
1.02469
1.02588
1.02672
1.02767
1.02831
1.02906
1.02954
1.03007
1.0304
1.03072
1.03096
1.03116
1.03131
1.03143
1.03149
1.0315
1.03149
1.03141
1.03131
1.0312
1.03103
1.03085
1.03059
1.03033
1.03002
1.32292
1.39122
1.43393
1.46295
1.47485
1.48394
1.46453
1.40114
1.28677
1.17936
1.09912
1.04986
1.02392
1.01121
1.00581
1.00453
1.0054
1.00726
1.00941
1.01167
1.01374
1.01577
1.01755
1.01922
1.02076
1.02204
1.02343
1.0244
1.02554
1.02633
1.02723
1.02781
1.02849
1.02886
1.02936
1.02967
1.02995
1.03013
1.03023
1.03033
1.03039
1.03045
1.03046
1.03037
1.03028
1.03016
1.03
1.0298
1.02958
1.02927
1.02897
1.17726
1.2601
1.35256
1.42691
1.45868
1.48454
1.47704
1.48485
1.36851
1.25779
1.162
1.08852
1.04167
1.01722
1.00683
1.00374
1.00389
1.00548
1.00759
1.00975
1.01197
1.01387
1.01592
1.01746
1.01923
1.02049
1.02195
1.02305
1.02408
1.02515
1.02592
1.02674
1.02723
1.02783
1.02812
1.02855
1.02874
1.02899
1.02925
1.02936
1.02939
1.02937
1.02939
1.02935
1.02928
1.02916
1.02899
1.02876
1.02852
1.02821
1.02787
1.1309
1.17835
1.25775
1.35685
1.42654
1.47072
1.47577
1.49201
1.43642
1.3181
1.19951
1.11859
1.06417
1.03074
1.01284
1.00499
1.00296
1.0036
1.00553
1.00774
1.00999
1.01212
1.014
1.01592
1.01741
1.01911
1.02028
1.02175
1.02274
1.02387
1.0246
1.02544
1.0261
1.02653
1.02708
1.02733
1.02772
1.02786
1.02809
1.02825
1.02842
1.02848
1.02844
1.02837
1.02829
1.02821
1.02805
1.02785
1.0276
1.02728
1.02692
1.14478
1.16346
1.2102
1.30749
1.39443
1.45242
1.47611
1.47653
1.48667
1.38223
1.24887
1.14786
1.08163
1.04094
1.01825
1.00724
1.00313
1.00271
1.00395
1.00596
1.00806
1.01028
1.01215
1.01423
1.01574
1.01744
1.01892
1.0201
1.02147
1.02247
1.02351
1.02414
1.02493
1.02554
1.02593
1.02633
1.02657
1.02692
1.02704
1.02721
1.02741
1.02751
1.02745
1.0274
1.02737
1.0273
1.02715
1.02695
1.02666
1.02637
1.02599
1.15659
1.16586
1.20519
1.29323
1.3836
1.44757
1.47265
1.48697
1.4638
1.42333
1.28119
1.16646
1.0912
1.04662
1.02151
1.00858
1.00299
1.00171
1.00239
1.00427
1.00613
1.0085
1.01032
1.01237
1.01422
1.01579
1.01746
1.01872
1.02007
1.02101
1.02207
1.02291
1.02356
1.02432
1.02471
1.02524
1.02548
1.02578
1.02613
1.02632
1.02647
1.02652
1.02653
1.0265
1.02645
1.02633
1.02614
1.02591
1.02563
1.02534
1.02498
1.16863
1.17265
1.22131
1.30504
1.39078
1.44848
1.47856
1.4894
1.48108
1.42143
1.30019
1.18417
1.09992
1.04915
1.02192
1.00839
1.00231
1.00054
1.0009
1.00241
1.00446
1.00633
1.00877
1.01049
1.01256
1.01417
1.01584
1.01728
1.01856
1.01982
1.02064
1.02168
1.02231
1.02311
1.02356
1.02396
1.02446
1.02483
1.02502
1.02528
1.02554
1.0257
1.02576
1.02573
1.02567
1.02556
1.02538
1.02512
1.02485
1.02449
1.02411
1.20345
1.21928
1.25635
1.34075
1.41473
1.46347
1.48296
1.4967
1.47376
1.41239
1.2892
1.17926
1.09982
1.04927
1.02061
1.00636
1.00033
0.998609
0.999084
1.00047
1.00258
1.00454
1.00684
1.00887
1.01081
1.01274
1.01424
1.01587
1.01706
1.01845
1.01947
1.02033
1.02122
1.02181
1.02256
1.02296
1.02326
1.02378
1.02412
1.02424
1.02445
1.02464
1.02479
1.0248
1.02475
1.02465
1.0245
1.02434
1.02415
1.02394
1.02383
1.3623
1.3543
1.38153
1.42957
1.47169
1.49304
1.5048
1.49476
1.47859
1.37458
1.26586
1.1667
1.09272
1.0449
1.01769
1.00397
0.99809
0.996385
0.997035
0.998479
1.0006
1.0027
1.00492
1.00715
1.00908
1.01112
1.01269
1.01439
1.01567
1.01698
1.01824
1.0191
1.01991
1.02073
1.02143
1.02205
1.02231
1.02259
1.02305
1.02337
1.02354
1.02369
1.02383
1.02394
1.02393
1.02387
1.02379
1.02381
1.02419
1.02495
1.0259
1.43235
1.44609
1.46484
1.48524
1.49875
1.50741
1.50357
1.50019
1.42127
1.32207
1.22317
1.14158
1.0795
1.0379
1.01358
1.00109
0.995908
0.99444
0.995107
0.996653
0.998702
1.00095
1.00307
1.00546
1.00731
1.00944
1.01105
1.01284
1.01416
1.01552
1.01673
1.01782
1.01858
1.01958
1.0202
1.02097
1.02138
1.02171
1.02201
1.02246
1.02277
1.02287
1.02303
1.02322
1.02334
1.02353
1.02402
1.02533
1.02852
1.03276
1.03586
1.39491
1.43677
1.46459
1.48356
1.49468
1.49816
1.50039
1.44574
1.36056
1.2611
1.17755
1.11069
1.06111
1.02804
1.00828
0.997813
0.993398
0.992456
0.993209
0.994889
0.996897
0.999212
1.00132
1.00364
1.00563
1.00761
1.00937
1.01111
1.01249
1.01399
1.0151
1.01636
1.01708
1.01813
1.01878
1.01965
1.02019
1.02065
1.02107
1.0214
1.02175
1.02205
1.02235
1.02272
1.02339
1.02506
1.02874
1.03673
1.04974
1.06385
1.06288
1.24194
1.31954
1.38773
1.42593
1.44539
1.44935
1.41992
1.36508
1.27006
1.1901
1.12641
1.07724
1.04126
1.01687
1.00191
0.993977
0.990799
0.990266
0.991196
0.993014
0.995025
0.997374
0.999437
1.00189
1.00368
1.00598
1.00748
1.00951
1.01078
1.01245
1.01344
1.01474
1.01558
1.01652
1.01725
1.01815
1.01877
1.01937
1.01997
1.02041
1.02089
1.02147
1.02228
1.02393
1.02821
1.03992
1.05881
1.08918
1.12456
1.11444
1.08248
1.19309
1.19739
1.2206
1.25514
1.28036
1.28579
1.25789
1.2046
1.15389
1.10613
1.06734
1.03811
1.01678
1.00229
0.993597
0.989484
0.988169
0.988463
0.989593
0.991554
0.993608
0.996017
0.998111
1.00038
1.0023
1.00433
1.00604
1.00784
1.00922
1.0108
1.01188
1.01313
1.01407
1.01495
1.01576
1.01671
1.0174
1.01816
1.01896
1.01973
1.02072
1.02257
1.02742
1.04162
1.07094
1.11496
1.18322
1.23329
1.19653
1.11874
1.07782
1.20966
1.18193
1.16308
1.15109
1.14275
1.13351
1.11518
1.09114
1.06581
1.04157
1.02235
1.00885
0.999239
0.992827
0.988978
0.987125
0.986541
0.987474
0.989062
0.991356
0.993543
0.995974
0.997867
1.00012
1.00159
1.00361
1.00485
1.00671
1.00782
1.00945
1.01038
1.01162
1.01261
1.01344
1.01436
1.01535
1.01625
1.01729
1.0187
1.02129
1.02741
1.04355
1.08168
1.15864
1.24762
1.35493
1.38596
1.30218
1.15096
1.10134
1.151
1.24048
1.20539
1.16739
1.13776
1.11153
1.08972
1.06979
1.04974
1.03382
1.0188
1.0085
1.00115
0.995777
0.991663
0.988963
0.988113
0.988735
0.990867
0.993462
0.996651
0.999761
1.00285
1.00537
1.00685
1.0071
1.00733
1.0074
1.00791
1.00827
1.00937
1.00969
1.0104
1.0112
1.01208
1.0132
1.01448
1.01615
1.01921
1.02654
1.04562
1.09144
1.19704
1.32888
1.42597
1.50107
1.511
1.36937
1.15814
1.1307
1.25701
1.41799
1.2475
1.24194
1.21183
1.16849
1.13129
1.10226
1.07871
1.05646
1.04089
1.02716
1.01906
1.01218
1.00759
1.00584
1.00633
1.00897
1.01347
1.01992
1.02807
1.0374
1.04775
1.05678
1.06235
1.05888
1.04524
1.03326
1.02337
1.0169
1.01241
1.00995
1.00873
1.00926
1.01017
1.01144
1.01351
1.01731
1.02608
1.04736
1.09955
1.21792
1.37231
1.47715
1.55718
1.62362
1.58332
1.37639
1.20323
1.19766
1.38543
1.45286
1.35701
1.24327
1.25209
1.25315
1.24269
1.21961
1.19237
1.16776
1.14265
1.1251
1.10206
1.08976
1.08581
1.08505
1.09204
1.10462
1.12454
1.14821
1.17703
1.20988
1.23897
1.25427
1.2418
1.19289
1.13435
1.08631
1.05304
1.03162
1.01899
1.01217
1.0093
1.0085
1.00957
1.01189
1.01693
1.02803
1.05272
1.10926
1.23327
1.37821
1.46788
1.57422
1.66777
1.67039
1.57362
1.34999
1.26006
1.30654
1.42601
1.42007
1.23574
1.10117
1.20524
1.23872
1.25727
1.2651
1.26753
1.26238
1.25112
1.243
1.24407
1.25304
1.27639
1.29439
1.32591
1.35207
1.38337
1.40971
1.43069
1.44537
1.44716
1.4277
1.37605
1.2951
1.20757
1.13498
1.08352
1.05114
1.03072
1.01938
1.01381
1.01256
1.01568
1.02378
1.03938
1.07055
1.13812
1.25363
1.3756
1.45237
1.55488
1.65751
1.68899
1.66183
1.543
1.37548
1.3403
1.39373
1.41963
1.34502
1.16232
1.10442
1.09899
1.20588
1.24443
1.27008
1.29005
1.30876
1.33427
1.36048
1.38826
1.42208
1.45302
1.48624
1.50766
1.53061
1.54297
1.5502
1.54583
1.53311
1.5097
1.47437
1.42274
1.34853
1.25633
1.17811
1.12065
1.07982
1.05312
1.03947
1.03563
1.03926
1.05254
1.07929
1.12715
1.19768
1.28862
1.37783
1.4393
1.51662
1.6253
1.67938
1.69197
1.64724
1.49899
1.41078
1.3898
1.39227
1.3742
1.26041
1.15614
1.13384
1.14368
1.25395
1.29556
1.30962
1.33746
1.3614
1.39141
1.4216
1.45375
1.48368
1.50895
1.52941
1.54292
1.55109
1.55593
1.55236
1.54343
1.52388
1.49544
1.45341
1.40168
1.34154
1.27696
1.22588
1.1764
1.13623
1.11251
1.10835
1.12306
1.14626
1.17901
1.22405
1.27852
1.33109
1.38481
1.43316
1.47342
1.56495
1.64586
1.67293
1.67318
1.62547
1.49444
1.43356
1.40682
1.38433
1.32354
1.20917
1.17692
1.17194
1.23149
1.46576
1.66919
1.33167
1.34804
1.34945
1.38348
1.39447
1.42661
1.44584
1.46982
1.48504
1.49519
1.50145
1.49988
1.49255
1.47871
1.45881
1.43387
1.40684
1.37878
1.34306
1.30571
1.27708
1.25512
1.24184
1.23588
1.2375
1.24993
1.26983
1.29424
1.32176
1.34956
1.37792
1.41119
1.44053
1.49092
1.59133
1.63666
1.65319
1.64664
1.57562
1.48537
1.44262
1.40752
1.36547
1.26371
1.21674
1.20845
1.22225
1.34879
1.66802
1.77953
1.90334
1.42164
1.41341
1.41313
1.4116
1.41427
1.4221
1.42824
1.43543
1.43984
1.44197
1.44058
1.43394
1.4233
1.40885
1.39207
1.37286
1.35303
1.3289
1.3087
1.29031
1.28105
1.28045
1.28136
1.28107
1.28384
1.29311
1.3105
1.33013
1.34969
1.37281
1.4041
1.43674
1.51753
1.58987
1.61701
1.62789
1.61305
1.53984
1.48425
1.44289
1.39749
1.32423
1.2577
1.25286
1.24598
1.31784
1.53653
1.7882
1.8499
1.93954
1.95564
1.41366
1.41173
1.40799
1.40375
1.39404
1.38508
1.37683
1.36544
1.35721
1.34563
1.32924
1.30415
1.28171
1.26516
1.25678
1.25133
1.25123
1.25337
1.25531
1.25856
1.26545
1.26917
1.26975
1.26997
1.2734
1.2812
1.29832
1.32315
1.35033
1.38227
1.42749
1.52915
1.56676
1.59359
1.59932
1.57417
1.52046
1.47909
1.43562
1.38656
1.33406
1.3049
1.29375
1.33219
1.48775
1.68931
1.85194
1.90125
1.95927
1.95994
1.97931
1.12054
1.12956
1.13422
1.14241
1.14796
1.15194
1.1535
1.15149
1.15044
1.15232
1.15544
1.171
1.18785
1.20084
1.21716
1.23096
1.23943
1.24345
1.24616
1.24655
1.24327
1.2386
1.2373
1.24023
1.2486
1.26691
1.29562
1.32761
1.372
1.44254
1.51505
1.55504
1.56506
1.57168
1.55178
1.52556
1.49407
1.46514
1.42368
1.37593
1.36375
1.37664
1.4982
1.65172
1.80966
1.88593
1.94713
1.95186
1.96916
1.97873
1.97574
1.04764
1.04455
1.04666
1.04983
1.05967
1.06955
1.08624
1.10452
1.12271
1.1462
1.16469
1.19333
1.22261
1.24587
1.26265
1.2648
1.2681
1.26542
1.25711
1.2497
1.241
1.23194
1.23581
1.23967
1.25445
1.28338
1.32785
1.39042
1.45468
1.5064
1.54759
1.55101
1.56164
1.55719
1.54302
1.5104
1.49701
1.46851
1.45342
1.46224
1.55679
1.66084
1.78889
1.86587
1.91901
1.96068
1.95755
1.97223
1.97012
1.97328
1.97068
1.08183
1.07887
1.0837
1.09537
1.10764
1.12974
1.14885
1.17363
1.20229
1.2293
1.2633
1.29136
1.3095
1.32033
1.3209
1.32178
1.31574
1.30881
1.29293
1.27584
1.26202
1.26538
1.26924
1.28883
1.32064
1.371
1.42089
1.46804
1.50584
1.53375
1.55276
1.57061
1.56328
1.5664
1.55409
1.55344
1.55371
1.56595
1.63206
1.70242
1.80574
1.85406
1.9138
1.9417
1.95541
1.96554
1.96236
1.96718
1.96475
1.96511
1.96305
1.15786
1.15329
1.15902
1.16782
1.18898
1.20711
1.22925
1.25261
1.27241
1.29744
1.31434
1.33164
1.33836
1.34584
1.34516
1.34693
1.34214
1.33903
1.33093
1.32666
1.32502
1.32748
1.33937
1.36458
1.40223
1.44151
1.48389
1.5195
1.55175
1.58185
1.6064
1.61054
1.64093
1.63702
1.66068
1.70422
1.70668
1.79663
1.79522
1.89512
1.89116
1.94289
1.9424
1.95925
1.95743
1.96047
1.95792
1.95847
1.95638
1.95544
1.95411
1.26805
1.26876
1.25715
1.25322
1.25419
1.2671
1.28223
1.29756
1.31393
1.3265
1.34371
1.3513
1.36304
1.36449
1.36993
1.3699
1.37095
1.37034
1.37146
1.37547
1.38579
1.40833
1.44203
1.476
1.51908
1.56297
1.60004
1.63703
1.66992
1.69862
1.72101
1.7455
1.75736
1.78053
1.8027
1.83342
1.85353
1.8896
1.90638
1.93775
1.93402
1.95156
1.94881
1.9542
1.95143
1.95177
1.94924
1.94825
1.94658
1.94552
1.94437
1.49223
1.45907
1.43609
1.41369
1.39889
1.38886
1.38009
1.38054
1.38011
1.38409
1.39265
1.39849
1.40606
1.41386
1.41885
1.4284
1.43732
1.45371
1.47666
1.50257
1.53504
1.56957
1.60332
1.64065
1.67907
1.7103
1.74111
1.76881
1.79032
1.80951
1.83322
1.83277
1.86556
1.8625
1.89937
1.89542
1.9262
1.92364
1.9424
1.94045
1.94766
1.94557
1.94746
1.94475
1.94406
1.94145
1.93924
1.93719
1.93575
1.93381
1.9339
1.68192
1.66189
1.64217
1.62516
1.60893
1.59441
1.58195
1.5701
1.55798
1.55665
1.54922
1.55203
1.5551
1.56629
1.57721
1.59572
1.61368
1.6364
1.65804
1.68426
1.71022
1.73779
1.76265
1.78923
1.81125
1.82899
1.84746
1.86213
1.87268
1.89047
1.88934
1.90638
1.90859
1.92053
1.92542
1.93435
1.93572
1.94221
1.94043
1.94293
1.94018
1.93968
1.93701
1.93458
1.93192
1.92899
1.92633
1.92376
1.92218
1.92088
1.921
1.81808
1.80419
1.79173
1.78096
1.77158
1.76342
1.75618
1.74969
1.74464
1.73885
1.74045
1.74023
1.74267
1.74952
1.75839
1.76962
1.7828
1.79745
1.81277
1.82846
1.84415
1.85883
1.8723
1.8842
1.89418
1.90021
1.91432
1.91351
1.92181
1.92835
1.92501
1.93567
1.93136
1.9405
1.93609
1.94078
1.93674
1.93768
1.93408
1.93259
1.92936
1.92688
1.92396
1.92116
1.91828
1.91528
1.91267
1.90947
1.90858
1.90577
1.90859
1.89911
1.89033
1.88179
1.87548
1.87025
1.86584
1.86232
1.86065
1.85578
1.85842
1.85688
1.85947
1.86209
1.86705
1.87294
1.87977
1.88784
1.89578
1.90387
1.91151
1.91887
1.92539
1.93092
1.93652
1.93603
1.94356
1.94059
1.94583
1.94428
1.94598
1.94377
1.94266
1.94211
1.93777
1.93632
1.93175
1.92936
1.9251
1.92262
1.91912
1.91643
1.91338
1.91042
1.90745
1.90418
1.90107
1.89753
1.8935
1.89097
1.88848
1.89039
1.94661
1.93744
1.93207
1.92706
1.92388
1.92134
1.92012
1.91783
1.91936
1.91804
1.92063
1.92159
1.92462
1.92768
1.93153
1.9358
1.94006
1.94431
1.94797
1.9516
1.95422
1.95653
1.95736
1.9576
1.95967
1.95603
1.95746
1.95267
1.95245
1.94669
1.94513
1.93881
1.93558
1.93068
1.92604
1.92219
1.91669
1.91372
1.9091
1.90595
1.90244
1.89944
1.89633
1.89325
1.88974
1.88646
1.88246
1.8778
1.87374
1.87018
1.87291
1.97047
1.96597
1.95833
1.95537
1.95199
1.95035
1.94918
1.94846
1.94942
1.94889
1.95155
1.95303
1.95467
1.95783
1.96032
1.96303
1.9655
1.9676
1.96917
1.9703
1.97051
1.97063
1.96944
1.96844
1.96647
1.96223
1.96065
1.95478
1.9528
1.94465
1.9417
1.933
1.92965
1.92087
1.91654
1.90833
1.90355
1.89689
1.89208
1.8868
1.88317
1.87952
1.87658
1.87366
1.87068
1.86739
1.86359
1.85881
1.85246
1.84483
1.8434
1.98765
1.98151
1.97482
1.97209
1.96847
1.96713
1.96622
1.96515
1.96662
1.96615
1.96883
1.96896
1.97232
1.97277
1.97573
1.97666
1.97837
1.97936
1.97996
1.97998
1.97974
1.97862
1.97674
1.97454
1.97054
1.96689
1.96344
1.95615
1.94905
1.94328
1.93385
1.92563
1.91515
1.90607
1.89503
1.8876
1.87836
1.87254
1.86708
1.8629
1.85954
1.85647
1.85364
1.85062
1.84702
1.84347
1.8382
1.83204
1.82269
1.80986
1.8016
1.04562
1.04521
1.04477
1.04431
1.04381
1.04329
1.04276
1.04223
1.04167
1.04111
1.04055
1.03998
1.03943
1.03882
1.03828
1.03768
1.03711
1.03654
1.03594
1.03537
1.03474
1.03413
1.03354
1.03282
1.03223
1.03147
1.04497
1.04457
1.04415
1.0437
1.04322
1.0427
1.04221
1.04165
1.04112
1.04057
1.04
1.03946
1.03888
1.03831
1.03775
1.03717
1.03663
1.03604
1.03554
1.03488
1.03442
1.03371
1.03328
1.03247
1.03205
1.03116
1.04421
1.04385
1.04343
1.04299
1.04253
1.04203
1.04153
1.04102
1.04047
1.03994
1.0394
1.03885
1.0383
1.03774
1.03719
1.03663
1.03609
1.03555
1.03502
1.03446
1.03392
1.03339
1.03277
1.03234
1.03159
1.0312
1.0434
1.04304
1.04265
1.04221
1.04177
1.0413
1.04081
1.0403
1.03978
1.03924
1.03871
1.03818
1.03765
1.03711
1.03658
1.03604
1.0355
1.035
1.03446
1.03397
1.03345
1.03292
1.03245
1.03186
1.03143
1.03074
1.04253
1.04219
1.0418
1.0414
1.04095
1.0405
1.04002
1.03951
1.03901
1.03849
1.03797
1.03746
1.03692
1.03641
1.03588
1.03537
1.03487
1.03436
1.0339
1.03338
1.03295
1.03245
1.03197
1.03154
1.03101
1.0306
1.04161
1.04127
1.04089
1.0405
1.04006
1.03962
1.03915
1.03868
1.03818
1.03768
1.03717
1.03666
1.03614
1.03564
1.03514
1.03466
1.03416
1.03374
1.03321
1.03285
1.03231
1.032
1.03144
1.03116
1.03057
1.03019
1.04064
1.0403
1.03995
1.03955
1.03913
1.03869
1.03824
1.03776
1.03728
1.03678
1.03629
1.03579
1.03531
1.03481
1.03433
1.03387
1.03339
1.03297
1.03252
1.03214
1.0317
1.03137
1.03095
1.03063
1.03023
1.02992
1.03962
1.0393
1.03893
1.03855
1.03814
1.03771
1.03726
1.0368
1.03632
1.03584
1.03536
1.03488
1.03439
1.03392
1.03345
1.03301
1.03258
1.03216
1.03178
1.03138
1.03107
1.03069
1.03041
1.03007
1.02982
1.02949
1.03857
1.03824
1.03789
1.0375
1.03711
1.03667
1.03623
1.03578
1.03532
1.03484
1.03436
1.0339
1.03343
1.03298
1.03254
1.03212
1.03171
1.03132
1.03097
1.03063
1.03034
1.03002
1.0298
1.02952
1.02931
1.02908
1.0375
1.03716
1.0368
1.03643
1.03604
1.0356
1.03517
1.03472
1.03425
1.0338
1.03332
1.03286
1.03241
1.03198
1.03155
1.03116
1.03075
1.03044
1.0301
1.02982
1.02955
1.02934
1.02912
1.02897
1.0288
1.02868
1.03638
1.03607
1.03569
1.03533
1.03492
1.0345
1.03407
1.03361
1.03316
1.03271
1.03224
1.03179
1.03134
1.03093
1.03052
1.03015
1.02979
1.02948
1.02921
1.02896
1.02878
1.0286
1.02848
1.02837
1.02831
1.02826
1.03526
1.03494
1.03459
1.0342
1.0338
1.03337
1.03294
1.03249
1.03201
1.0316
1.03107
1.03073
1.03018
1.02989
1.02938
1.02915
1.02873
1.02853
1.02828
1.0281
1.02796
1.02785
1.0278
1.02778
1.02779
1.02783
1.03413
1.0338
1.03343
1.03305
1.03263
1.03222
1.03178
1.03132
1.03087
1.0304
1.02998
1.02952
1.02914
1.02868
1.02841
1.02799
1.02778
1.02748
1.02734
1.02718
1.02709
1.02706
1.02708
1.02714
1.02725
1.02741
1.033
1.03265
1.03228
1.03189
1.03148
1.03106
1.0306
1.03014
1.0297
1.02923
1.02878
1.02835
1.02795
1.02756
1.02721
1.02692
1.02667
1.02646
1.02631
1.02623
1.02622
1.02625
1.02636
1.02654
1.02676
1.02701
1.03187
1.03153
1.03113
1.03073
1.03031
1.02988
1.02942
1.02897
1.0285
1.02803
1.0276
1.02712
1.02679
1.02632
1.02606
1.02573
1.02553
1.02536
1.02525
1.02525
1.02526
1.02541
1.02562
1.02588
1.02621
1.02658
1.03077
1.0304
1.03001
1.02959
1.02917
1.02871
1.02824
1.0278
1.02725
1.02686
1.02631
1.02592
1.02551
1.02513
1.02479
1.02454
1.02433
1.02419
1.02413
1.02415
1.02428
1.02449
1.02479
1.02516
1.02559
1.0261
1.02967
1.02931
1.02889
1.02848
1.02803
1.02755
1.02708
1.02659
1.02608
1.02561
1.0251
1.02465
1.0242
1.02382
1.02347
1.02321
1.023
1.02292
1.02289
1.02299
1.0232
1.02351
1.02393
1.02444
1.02506
1.02572
1.02861
1.02823
1.0278
1.02737
1.0269
1.02641
1.0259
1.02537
1.02487
1.02433
1.02381
1.02334
1.02286
1.02248
1.02211
1.02182
1.02161
1.02158
1.02161
1.02184
1.02217
1.02269
1.02338
1.02421
1.02513
1.02616
1.0275
1.02712
1.0267
1.02625
1.02578
1.02524
1.02472
1.02417
1.02361
1.02302
1.0225
1.02192
1.0214
1.02095
1.02058
1.02036
1.02023
1.02039
1.02077
1.02141
1.02219
1.02354
1.02527
1.02697
1.02899
1.03125
1.02654
1.02611
1.02569
1.02518
1.02466
1.02409
1.02352
1.02291
1.02231
1.0216
1.021
1.02029
1.0199
1.01939
1.01956
1.01939
1.02053
1.02097
1.02429
1.02495
1.02898
1.03416
1.0396
1.04449
1.05066
1.05817
1.0256
1.02514
1.02467
1.02413
1.02354
1.0229
1.02226
1.02152
1.02085
1.02004
1.01952
1.01892
1.01955
1.01954
1.02234
1.02319
1.02914
1.03527
1.0465
1.05679
1.06868
1.08533
1.10155
1.11876
1.14095
1.16549
1.02458
1.02412
1.02362
1.02302
1.02238
1.02167
1.021
1.02018
1.01963
1.01906
1.01975
1.0205
1.02667
1.031
1.04146
1.06061
1.08322
1.10974
1.14406
1.18125
1.21915
1.25996
1.29703
1.3315
1.3687
1.40644
1.02371
1.02332
1.02282
1.02223
1.02157
1.02081
1.02025
1.01987
1.02058
1.02278
1.03067
1.04074
1.06784
1.10286
1.14863
1.20202
1.24478
1.27838
1.30983
1.33579
1.35778
1.38414
1.40937
1.43595
1.46743
1.50002
1.02376
1.02362
1.02319
1.0226
1.02193
1.02163
1.0222
1.0259
1.03407
1.05472
1.09403
1.15893
1.21917
1.26299
1.28928
1.30532
1.31594
1.32874
1.34415
1.35639
1.3676
1.38858
1.41054
1.43025
1.45301
1.48872
1.02661
1.02665
1.02592
1.02529
1.02545
1.02827
1.03901
1.06474
1.12126
1.20013
1.25658
1.28119
1.29486
1.30206
1.30399
1.3068
1.30838
1.30964
1.30806
1.29906
1.2919
1.28241
1.25927
1.24782
1.25072
1.25984
1.03636
1.03483
1.03241
1.03341
1.0423
1.06657
1.13957
1.23148
1.2774
1.2926
1.29289
1.28239
1.27282
1.27311
1.27711
1.28696
1.29717
1.30619
1.29944
1.28328
1.26704
1.2338
1.19516
1.17749
1.18133
1.20674
1.05675
1.04586
1.0483
1.06838
1.14127
1.23362
1.30283
1.30976
1.28892
1.25025
1.21436
1.22103
1.24821
1.29797
1.35032
1.39081
1.39594
1.37482
1.32805
1.29027
1.245
1.18307
1.17927
1.20751
1.2918
1.50007
1.06376
1.06995
1.1211
1.2462
1.32051
1.31955
1.29952
1.2211
1.15912
1.15924
1.20408
1.30097
1.39645
1.43365
1.44219
1.43856
1.40237
1.30324
1.24939
1.2458
1.27495
1.34918
1.48129
1.54995
1.57632
1.57888
1.09803
1.21116
1.34516
1.36818
1.31569
1.19495
1.12011
1.11295
1.1513
1.24318
1.34445
1.40829
1.43253
1.43728
1.43612
1.43394
1.4377
1.4511
1.47193
1.48063
1.48548
1.48868
1.47504
1.43505
1.41724
1.42183
1.33119
1.39757
1.37819
1.21552
1.09516
1.08272
1.10591
1.17147
1.24714
1.30812
1.34448
1.3607
1.3778
1.40203
1.41038
1.41154
1.40722
1.39037
1.38091
1.38347
1.39033
1.40548
1.43508
1.49882
1.62375
1.81406
1.42764
1.29073
1.09894
1.06626
1.07857
1.13345
1.18941
1.21546
1.236
1.26392
1.2813
1.28814
1.29542
1.30257
1.31823
1.33644
1.36584
1.40205
1.45619
1.52188
1.61436
1.72222
1.85407
1.97233
2.00604
2.03475
1.12799
1.06874
1.06567
1.09858
1.14568
1.18224
1.20926
1.24439
1.27713
1.30672
1.3512
1.40333
1.45724
1.52228
1.5884
1.66017
1.73722
1.81109
1.87966
1.93867
1.98715
2.00595
2.02237
2.03082
2.04041
2.04755
1.07421
1.08224
1.12967
1.20301
1.27957
1.35586
1.44531
1.53544
1.61895
1.69965
1.76831
1.82469
1.87328
1.91045
1.94131
1.96445
1.97829
1.99083
2.00138
2.01069
2.01766
2.02565
2.03213
2.03881
2.04488
2.05099
1.13292
1.24731
1.43807
1.59557
1.67779
1.76034
1.82158
1.88353
1.925
1.95047
1.96523
1.97781
1.98785
1.98772
1.99283
1.99616
2.00044
2.00544
2.01044
2.016
2.02169
2.02766
2.03358
2.03974
2.04654
2.05287
1.50687
1.67385
1.80916
1.82311
1.91775
1.92711
1.96897
1.97179
1.98448
1.98567
1.98842
1.99029
1.99042
1.99212
1.99444
1.99701
2.00036
2.0047
2.00958
2.01518
2.0214
2.02804
2.03462
2.0415
2.04826
2.05485
1.84657
1.8536
1.93768
1.94202
1.97735
1.97837
1.98775
1.98688
1.98742
1.98774
1.98663
1.98702
1.98765
1.98864
1.99088
1.99378
1.99768
2.00248
2.00826
2.01439
2.02115
2.02816
2.03547
2.04263
2.04986
2.05679
1.91618
1.96554
1.96887
1.98568
1.98358
1.98781
1.98478
1.98508
1.98291
1.98224
1.98175
1.9819
1.98263
1.98437
1.98689
1.99038
1.9949
2.00031
2.00642
2.01319
2.02036
2.02811
2.03568
2.04342
2.05107
2.0584
1.97247
1.98342
1.98281
1.98548
1.9822
1.9825
1.97965
1.97881
1.97698
1.97624
1.976
1.9765
1.9772
1.97971
1.98217
1.98643
1.99123
1.99727
2.00396
2.01132
2.01921
2.02753
2.03584
2.04414
2.05233
2.06015
1.98009
1.98156
1.98148
1.97866
1.97785
1.97539
1.97372
1.97214
1.97096
1.97042
1.97033
1.97103
1.97218
1.9747
1.97778
1.98224
1.98751
1.99397
2.00124
2.00919
2.01769
2.02672
2.03583
2.04482
2.05375
2.06223
1.97822
1.97549
1.97479
1.97213
1.97072
1.96869
1.96721
1.96573
1.96481
1.96438
1.96443
1.96504
1.96658
1.96887
1.97243
1.97686
1.9826
1.9894
1.99736
2.00588
2.01522
2.02505
2.03516
2.04497
2.05469
2.06397
1.97054
1.96827
1.96697
1.96504
1.96354
1.96183
1.96035
1.9591
1.95811
1.95766
1.95774
1.95825
1.95988
1.96206
1.9658
1.9703
1.97629
1.9835
1.99222
2.00169
2.01194
2.02269
2.03377
2.04476
2.05554
2.06586
1.9619
1.96032
1.95893
1.9576
1.95617
1.95473
1.95332
1.95209
1.9511
1.95049
1.95042
1.95075
1.95198
1.95409
1.95695
1.96172
1.96745
1.97505
1.98442
1.99507
2.00664
2.01885
2.03138
2.04367
2.05563
2.06714
1.9531
1.95212