/*--------------------------------*- C++ -*----------------------------------*\
  =========                 |
  \\      /  F ield         | OpenFOAM: The Open Source CFD Toolbox
   \\    /   O peration     | Website:  https://openfoam.org
    \\  /    A nd           | Version:  10
     \\/     M anipulation  |
\*---------------------------------------------------------------------------*/
FoamFile
{
    format      ascii;
    class       volVectorField;
    location    "1.000357";
    object      U;
}
// * * * * * * * * * * * * * * * * * * * * * * * * * * * * * * * * * * * * * //

dimensions      [0 1 -1 0 0 0 0];

internalField   nonuniform List<vector> 
15708
(
(0.793242 -0.150514 0)
(0.770917 -0.148302 0)
(0.747819 -0.145139 0)
(0.724157 -0.141048 0)
(0.700167 -0.13617 0)
(0.676047 -0.130629 0)
(0.651971 -0.124548 0)
(0.628097 -0.118046 0)
(0.604561 -0.111237 0)
(0.581476 -0.104226 0)
(0.558936 -0.0971109 0)
(0.537018 -0.0899769 0)
(0.515784 -0.082899 0)
(0.495282 -0.0759393 0)
(0.475551 -0.0691482 0)
(0.456618 -0.0625645 0)
(0.438503 -0.0562167 0)
(0.421217 -0.0501243 0)
(0.404768 -0.0442988 0)
(0.389158 -0.0387448 0)
(0.374382 -0.0334623 0)
(0.360437 -0.0284472 0)
(0.347314 -0.0236916 0)
(0.335 -0.0191854 0)
(0.323484 -0.0149185 0)
(0.312752 -0.0108809 0)
(0.302789 -0.00706334 0)
(0.293576 -0.00345624 0)
(0.285109 -2.72078e-05 0)
(0.27737 0.00322712 0)
(0.270334 0.00629096 0)
(0.263995 0.00918009 0)
(0.25834 0.0119071 0)
(0.253357 0.0144761 0)
(0.249033 0.0168894 0)
(0.245353 0.0191486 0)
(0.242305 0.0212546 0)
(0.239873 0.0232066 0)
(0.238042 0.0250038 0)
(0.236796 0.0266442 0)
(0.236116 0.028126 0)
(0.235983 0.0294471 0)
(0.236377 0.0306064 0)
(0.237265 0.0316016 0)
(0.238632 0.032435 0)
(0.240446 0.0331064 0)
(0.242674 0.0336203 0)
(0.245294 0.0339785 0)
(0.248267 0.0341901 0)
(0.251561 0.034263 0)
(0.255144 0.0342091 0)
(0.795421 -0.135224 0)
(0.774035 -0.132393 0)
(0.751799 -0.128645 0)
(0.728898 -0.12414 0)
(0.705552 -0.118976 0)
(0.681961 -0.113269 0)
(0.658304 -0.107132 0)
(0.63474 -0.100675 0)
(0.61141 -0.094002 0)
(0.588436 -0.0872113 0)
(0.565922 -0.0803911 0)
(0.543955 -0.0736188 0)
(0.52261 -0.0669606 0)
(0.501945 -0.0604709 0)
(0.482009 -0.0541923 0)
(0.462841 -0.0481557 0)
(0.444468 -0.0423832 0)
(0.426911 -0.0368884 0)
(0.410185 -0.0316771 0)
(0.394296 -0.026747 0)
(0.379246 -0.0220933 0)
(0.365033 -0.0177078 0)
(0.351652 -0.0135815 0)
(0.339092 -0.00970398 0)
(0.327339 -0.00606327 0)
(0.316384 -0.00263608 0)
(0.306216 0.000605763 0)
(0.296817 0.00366483 0)
(0.288161 0.00652666 0)
(0.280239 0.00920817 0)
(0.273036 0.0117265 0)
(0.26654 0.0140915 0)
(0.260735 0.0163092 0)
(0.255607 0.0183832 0)
(0.25114 0.0203167 0)
(0.247322 0.0221115 0)
(0.244136 0.0237689 0)
(0.241568 0.0252884 0)
(0.239601 0.0266701 0)
(0.238219 0.0279126 0)
(0.237403 0.0290149 0)
(0.237133 0.0299761 0)
(0.237388 0.0307956 0)
(0.238139 0.0314719 0)
(0.23937 0.0320108 0)
(0.241049 0.0324082 0)
(0.243144 0.032674 0)
(0.245634 0.0328097 0)
(0.248485 0.0328238 0)
(0.251666 0.0327266 0)
(0.255145 0.0325285 0)
(0.798265 -0.12077 0)
(0.777666 -0.117172 0)
(0.756211 -0.112806 0)
(0.733939 -0.10781 0)
(0.711131 -0.102274 0)
(0.687967 -0.0963083 0)
(0.664627 -0.0900233 0)
(0.641277 -0.0835228 0)
(0.618066 -0.0769046 0)
(0.595126 -0.0702588 0)
(0.57257 -0.0636665 0)
(0.550496 -0.0571974 0)
(0.528987 -0.0509086 0)
(0.508114 -0.0448469 0)
(0.487937 -0.0390475 0)
(0.468502 -0.0335317 0)
(0.449847 -0.028314 0)
(0.431999 -0.0234017 0)
(0.414982 -0.0187964 0)
(0.398809 -0.0144954 0)
(0.383482 -0.01049 0)
(0.369001 -0.00676632 0)
(0.355365 -0.00329064 0)
(0.342569 -3.21315e-05 0)
(0.3306 0.00301653 0)
(0.319439 0.00585653 0)
(0.309065 0.00848519 0)
(0.299471 0.0109281 0)
(0.29064 0.013205 0)
(0.282557 0.0153284 0)
(0.275204 0.0173065 0)
(0.268565 0.0191455 0)
(0.262622 0.0208508 0)
(0.257361 0.0224265 0)
(0.252766 0.0238762 0)
(0.248822 0.0252021 0)
(0.245514 0.0264061 0)
(0.242825 0.0274886 0)
(0.240738 0.02845 0)
(0.239236 0.0292899 0)
(0.2383 0.030008 0)
(0.23791 0.0306042 0)
(0.238045 0.0310783 0)
(0.238679 0.0314312 0)
(0.239792 0.0316669 0)
(0.241356 0.0317863 0)
(0.243342 0.0317939 0)
(0.245728 0.0316968 0)
(0.248481 0.0315017 0)
(0.251573 0.0312173 0)
(0.254974 0.0308555 0)
(0.801856 -0.106988 0)
(0.781998 -0.102613 0)
(0.761122 -0.097493 0)
(0.739376 -0.0919073 0)
(0.716987 -0.0859121 0)
(0.694135 -0.0796094 0)
(0.671007 -0.0731006 0)
(0.647774 -0.0664837 0)
(0.624595 -0.0598508 0)
(0.601607 -0.0532849 0)
(0.578935 -0.0468614 0)
(0.556686 -0.0406437 0)
(0.534955 -0.0346807 0)
(0.513821 -0.0290119 0)
(0.493358 -0.0236663 0)
(0.473622 -0.0186662 0)
(0.454656 -0.0140192 0)
(0.436494 -0.00972277 0)
(0.41916 -0.00575856 0)
(0.402683 -0.00207303 0)
(0.387072 0.00133808 0)
(0.37233 0.00448551 0)
(0.358444 0.00736667 0)
(0.345408 0.00998584 0)
(0.333214 0.0123747 0)
(0.321851 0.0145595 0)
(0.311302 0.0165632 0)
(0.301546 0.0184028 0)
(0.292563 0.0200911 0)
(0.284336 0.0216396 0)
(0.276844 0.0230575 0)
(0.270073 0.0243523 0)
(0.264004 0.0255302 0)
(0.258623 0.0265956 0)
(0.253912 0.0275523 0)
(0.249856 0.0284021 0)
(0.246438 0.0291469 0)
(0.243641 0.0297872 0)
(0.241448 0.0303235 0)
(0.239841 0.0307558 0)
(0.238801 0.0310846 0)
(0.238308 0.0313101 0)
(0.238341 0.031433 0)
(0.238874 0.0314558 0)
(0.239891 0.0313788 0)
(0.24136 0.031209 0)
(0.243256 0.0309478 0)
(0.24556 0.030605 0)
(0.248238 0.0301876 0)
(0.251263 0.0297049 0)
(0.25461 0.0291686 0)
(0.806159 -0.09374 0)
(0.786945 -0.0884202 0)
(0.76667 -0.0825723 0)
(0.745256 -0.0763268 0)
(0.723153 -0.0697936 0)
(0.700498 -0.063073 0)
(0.677477 -0.056262 0)
(0.654265 -0.049455 0)
(0.631028 -0.0427408 0)
(0.607909 -0.0361951 0)
(0.58504 -0.0298865 0)
(0.562543 -0.0238754 0)
(0.540523 -0.018214 0)
(0.519069 -0.0129396 0)
(0.498254 -0.00807423 0)
(0.478166 -0.003555 0)
(0.458862 0.000605006 0)
(0.440379 0.00440402 0)
(0.422741 0.00784246 0)
(0.405961 0.0108979 0)
(0.390057 0.0136119 0)
(0.375036 0.0160229 0)
(0.360898 0.0181692 0)
(0.347634 0.0200858 0)
(0.33523 0.0218017 0)
(0.32367 0.0233401 0)
(0.312938 0.0247199 0)
(0.303015 0.0259562 0)
(0.293881 0.0270606 0)
(0.285517 0.0280422 0)
(0.277903 0.0289085 0)
(0.271019 0.0296658 0)
(0.264847 0.03032 0)
(0.259366 0.0308757 0)
(0.25456 0.0313371 0)
(0.250411 0.0317068 0)
(0.246901 0.0319872 0)
(0.244013 0.0321793 0)
(0.24173 0.0322845 0)
(0.240033 0.0323029 0)
(0.238904 0.0322356 0)
(0.238324 0.032083 0)
(0.238271 0.0318469 0)
(0.23872 0.0315291 0)
(0.239656 0.0311337 0)
(0.241049 0.0306641 0)
(0.242875 0.0301263 0)
(0.245115 0.0295283 0)
(0.247736 0.0288757 0)
(0.250714 0.0281801 0)
(0.254024 0.0274508 0)
(0.811266 -0.0809772 0)
(0.792567 -0.074526 0)
(0.77257 -0.0678927 0)
(0.751502 -0.0609235 0)
(0.729594 -0.0537841 0)
(0.707041 -0.0465748 0)
(0.684033 -0.0393909 0)
(0.66075 -0.0323214 0)
(0.637364 -0.0254556 0)
(0.614034 -0.0188863 0)
(0.590895 -0.0126951 0)
(0.568076 -0.00691314 0)
(0.545716 -0.00149772 0)
(0.523911 0.00350514 0)
(0.502742 0.00807081 0)
(0.482262 0.0121233 0)
(0.462546 0.0156902 0)
(0.443655 0.0188111 0)
(0.425634 0.0215309 0)
(0.408511 0.023895 0)
(0.392301 0.0259408 0)
(0.377007 0.027702 0)
(0.362626 0.0292085 0)
(0.349146 0.0304875 0)
(0.336549 0.0315643 0)
(0.324818 0.0324623 0)
(0.313933 0.0332028 0)
(0.303872 0.0338049 0)
(0.294615 0.0342856 0)
(0.286139 0.0346587 0)
(0.278421 0.0349355 0)
(0.271441 0.0351245 0)
(0.265178 0.0352317 0)
(0.259611 0.0352612 0)
(0.254722 0.0352158 0)
(0.250492 0.0350973 0)
(0.246904 0.0349071 0)
(0.243939 0.0346458 0)
(0.241579 0.0343144 0)
(0.239807 0.0339133 0)
(0.238604 0.0334437 0)
(0.237951 0.0329066 0)
(0.237827 0.0323039 0)
(0.238209 0.0316375 0)
(0.239081 0.0309139 0)
(0.240414 0.0301338 0)
(0.242186 0.0293057 0)
(0.244379 0.0284377 0)
(0.246961 0.0275353 0)
(0.249911 0.0266109 0)
(0.253202 0.0256736 0)
(0.816952 -0.0683608 0)
(0.798712 -0.0609744 0)
(0.778908 -0.0533627 0)
(0.758026 -0.0455912 0)
(0.736215 -0.0377766 0)
(0.713679 -0.0300106 0)
(0.690613 -0.0223997 0)
(0.667195 -0.0150632 0)
(0.643588 -0.00808216 0)
(0.619985 -0.00140501 0)
(0.59653 0.00488475 0)
(0.573345 0.0106977 0)
(0.550537 0.0159125 0)
(0.528243 0.0205398 0)
(0.506581 0.0245983 0)
(0.485644 0.0281162 0)
(0.465504 0.031122 0)
(0.44622 0.0336489 0)
(0.427832 0.0357342 0)
(0.41037 0.0374197 0)
(0.39385 0.0387514 0)
(0.378279 0.0397764 0)
(0.363654 0.0405398 0)
(0.349963 0.0410822 0)
(0.337188 0.0414393 0)
(0.325306 0.041641 0)
(0.314293 0.0417118 0)
(0.304122 0.0416713 0)
(0.294765 0.0415346 0)
(0.286198 0.0413136 0)
(0.278396 0.041017 0)
(0.271337 0.0406507 0)
(0.264998 0.0402195 0)
(0.259359 0.0397266 0)
(0.254401 0.0391747 0)
(0.250104 0.0385654 0)
(0.246449 0.0379002 0)
(0.243419 0.0371799 0)
(0.240995 0.0364056 0)
(0.23916 0.0355781 0)
(0.237896 0.0346984 0)
(0.237183 0.0337683 0)
(0.237002 0.03279 0)
(0.237332 0.0317653 0)
(0.238155 0.0307017 0)
(0.239443 0.0295995 0)
(0.24118 0.0284698 0)
(0.243343 0.027318 0)
(0.245904 0.0261525 0)
(0.248843 0.0249845 0)
(0.252133 0.0238237 0)
(0.822898 -0.0560714 0)
(0.804821 -0.0475019 0)
(0.785264 -0.0389732 0)
(0.764504 -0.0302637 0)
(0.742738 -0.0217056 0)
(0.720162 -0.0133802 0)
(0.696972 -0.00529818 0)
(0.673366 0.00253975 0)
(0.6495 0.00999828 0)
(0.625505 0.0168607 0)
(0.601571 0.0230908 0)
(0.577876 0.0286697 0)
(0.554572 0.033592 0)
(0.531792 0.0378577 0)
(0.509652 0.0414778 0)
(0.488254 0.0444748 0)
(0.46768 0.0468874 0)
(0.447996 0.0487637 0)
(0.429247 0.0501588 0)
(0.411465 0.0511303 0)
(0.394663 0.0517362 0)
(0.378846 0.0520319 0)
(0.364006 0.0520687 0)
(0.350127 0.0518925 0)
(0.337189 0.0515425 0)
(0.325165 0.0510518 0)
(0.314029 0.050447 0)
(0.30375 0.0497494 0)
(0.294301 0.048975 0)
(0.285654 0.048136 0)
(0.277783 0.0472414 0)
(0.270663 0.0462977 0)
(0.264268 0.0453094 0)
(0.258578 0.0442795 0)
(0.253569 0.0432098 0)
(0.249223 0.0421012 0)
(0.245519 0.040954 0)
(0.24244 0.0397686 0)
(0.239968 0.0385452 0)
(0.238084 0.0372843 0)
(0.236773 0.0359873 0)
(0.236015 0.0346554 0)
(0.235791 0.0332917 0)
(0.236083 0.0318981 0)
(0.236872 0.0304831 0)
(0.238133 0.0290471 0)
(0.239849 0.0276022 0)
(0.241998 0.0261529 0)
(0.244555 0.0247097 0)
(0.247499 0.0232822 0)
(0.250805 0.0218817 0)
(0.828091 -0.0440088 0)
(0.810365 -0.0340714 0)
(0.790932 -0.0244515 0)
(0.770381 -0.0150411 0)
(0.748575 -0.00561878 0)
(0.725944 0.00358035 0)
(0.702584 0.012377 0)
(0.678664 0.0206228 0)
(0.654407 0.0282508 0)
(0.630019 0.0352223 0)
(0.60568 0.0414863 0)
(0.581557 0.0470084 0)
(0.557805 0.0517616 0)
(0.534562 0.055738 0)
(0.511955 0.0589524 0)
(0.490097 0.0614403 0)
(0.469082 0.0632544 0)
(0.448985 0.0644598 0)
(0.42986 0.0651288 0)
(0.411742 0.0653362 0)
(0.394651 0.0651552 0)
(0.378587 0.0646556 0)
(0.36354 0.0639006 0)
(0.349492 0.0629455 0)
(0.336415 0.0618365 0)
(0.324281 0.0606109 0)
(0.313055 0.0592979 0)
(0.302705 0.0579191 0)
(0.293199 0.0564906 0)
(0.284504 0.0550235 0)
(0.276591 0.0535255 0)
(0.269432 0.0520016 0)
(0.263002 0.0504548 0)
(0.257276 0.0488866 0)
(0.252232 0.0472974 0)
(0.24785 0.0456868 0)
(0.244111 0.0440541 0)
(0.240997 0.0423988 0)
(0.23849 0.0407206 0)
(0.236573 0.0390197 0)
(0.235229 0.0372974 0)
(0.234441 0.0355552 0)
(0.23419 0.0337963 0)
(0.234459 0.0320232 0)
(0.235228 0.0302447 0)
(0.236476 0.0284623 0)
(0.238187 0.026688 0)
(0.240338 0.0249269 0)
(0.242907 0.0231907 0)
(0.245873 0.0214881 0)
(0.249211 0.0198312 0)
(0.831156 -0.0318275 0)
(0.813904 -0.0208507 0)
(0.794373 -0.0100307 0)
(0.774029 0.000527569 0)
(0.752469 0.0109038 0)
(0.729688 0.0207965 0)
(0.706211 0.0300906 0)
(0.682187 0.038803 0)
(0.657765 0.0468372 0)
(0.633139 0.0541025 0)
(0.608489 0.0605126 0)
(0.584002 0.0660228 0)
(0.559841 0.0706057 0)
(0.536164 0.0742623 0)
(0.513115 0.0770232 0)
(0.490824 0.0789431 0)
(0.469398 0.0800954 0)
(0.448922 0.0805664 0)
(0.429458 0.0804492 0)
(0.411046 0.0798382 0)
(0.393705 0.0788245 0)
(0.377436 0.0774922 0)
(0.362224 0.0759156 0)
(0.348046 0.0741579 0)
(0.33487 0.0722703 0)
(0.322661 0.0702933 0)
(0.311381 0.0682575 0)
(0.300991 0.0661854 0)
(0.291456 0.0640924 0)
(0.282738 0.0619888 0)
(0.274807 0.0598804 0)
(0.26763 0.0577707 0)
(0.261182 0.0556605 0)
(0.255438 0.0535493 0)
(0.250375 0.0514355 0)
(0.245973 0.0493174 0)
(0.242213 0.0471933 0)
(0.239078 0.0450615 0)
(0.236551 0.0429214 0)
(0.234614 0.0407727 0)
(0.233252 0.0386165 0)
(0.232449 0.0364545 0)
(0.232184 0.03429 0)
(0.232445 0.0321274 0)
(0.233211 0.0299715 0)
(0.234461 0.0278296 0)
(0.236183 0.0257128 0)
(0.238353 0.023625 0)
(0.24095 0.0215799 0)
(0.243954 0.0195866 0)
(0.247343 0.0176568 0)
(0.829331 -0.0197075 0)
(0.812573 -0.00777354 0)
(0.793614 0.00407414 0)
(0.773479 0.0159948 0)
(0.752118 0.0270148 0)
(0.729687 0.0379502 0)
(0.706474 0.0478462 0)
(0.682674 0.0573558 0)
(0.658378 0.0657871 0)
(0.633769 0.0734334 0)
(0.609046 0.0799743 0)
(0.584404 0.0854575 0)
(0.560018 0.0898662 0)
(0.536065 0.0932079 0)
(0.512713 0.095521 0)
(0.490109 0.0968726 0)
(0.468376 0.0973533 0)
(0.447612 0.0970696 0)
(0.427889 0.0961362 0)
(0.409254 0.0946698 0)
(0.391727 0.0927822 0)
(0.375311 0.090575 0)
(0.359989 0.088136 0)
(0.345732 0.0855378 0)
(0.332504 0.0828385 0)
(0.320265 0.0800829 0)
(0.308971 0.0773032 0)
(0.298579 0.074522 0)
(0.289047 0.0717533 0)
(0.280337 0.0690053 0)
(0.272414 0.0662812 0)
(0.265245 0.0635815 0)
(0.258803 0.0609042 0)
(0.253063 0.0582466 0)
(0.248001 0.055605 0)
(0.243598 0.0529758 0)
(0.239834 0.0503559 0)
(0.236693 0.0477429 0)
(0.234159 0.0451349 0)
(0.232215 0.0425316 0)
(0.230847 0.0399335 0)
(0.230039 0.0373426 0)
(0.229773 0.0347621 0)
(0.230036 0.0321982 0)
(0.230811 0.0296527 0)
(0.23208 0.0271382 0)
(0.233827 0.024662 0)
(0.236031 0.0222326 0)
(0.238674 0.0198617 0)
(0.241734 0.0175607 0)
(0.24519 0.0153412 0)
(0.818919 -0.00947271 0)
(0.802257 0.005461 0)
(0.784484 0.0182896 0)
(0.765362 0.0303158 0)
(0.745118 0.0433602 0)
(0.723612 0.0544017 0)
(0.701251 0.0657162 0)
(0.678296 0.0753989 0)
(0.654568 0.0848912 0)
(0.630534 0.0927861 0)
(0.606105 0.0995798 0)
(0.581726 0.105133 0)
(0.557489 0.10944 0)
(0.533581 0.112512 0)
(0.510195 0.1144 0)
(0.487503 0.115184 0)
(0.465654 0.114976 0)
(0.444765 0.113909 0)
(0.424923 0.112122 0)
(0.406184 0.109759 0)
(0.388577 0.106956 0)
(0.372105 0.103833 0)
(0.356752 0.100495 0)
(0.342488 0.0970244 0)
(0.329272 0.0934881 0)
(0.317059 0.0899342 0)
(0.3058 0.0863961 0)
(0.295449 0.0828954 0)
(0.28596 0.079444 0)
(0.277293 0.076047 0)
(0.269409 0.0727043 0)
(0.262276 0.0694129 0)
(0.255864 0.0661675 0)
(0.250149 0.0629626 0)
(0.245106 0.0597918 0)
(0.240717 0.0566499 0)
(0.236964 0.0535317 0)
(0.233829 0.0504336 0)
(0.2313 0.047353 0)
(0.22936 0.0442886 0)
(0.227997 0.0412407 0)
(0.227196 0.0382115 0)
(0.226942 0.0352034 0)
(0.227221 0.0322241 0)
(0.228019 0.0292771 0)
(0.22932 0.0263748 0)
(0.231108 0.0235227 0)
(0.233363 0.0207361 0)
(0.236068 0.0180223 0)
(0.239202 0.0153954 0)
(0.242744 0.0128676 0)
(0.795505 0.00214293 0)
(0.781482 0.016184 0)
(0.762953 0.0306369 0)
(0.746827 0.0443762 0)
(0.728375 0.0578668 0)
(0.708436 0.0704784 0)
(0.688082 0.0824001 0)
(0.666757 0.0931058 0)
(0.644831 0.102816 0)
(0.621574 0.111247 0)
(0.598365 0.118472 0)
(0.574838 0.124318 0)
(0.551276 0.128724 0)
(0.527879 0.131688 0)
(0.504863 0.133266 0)
(0.482432 0.133559 0)
(0.460764 0.132706 0)
(0.440004 0.130873 0)
(0.42026 0.128234 0)
(0.401604 0.124964 0)
(0.384075 0.121227 0)
(0.367684 0.117169 0)
(0.352417 0.11291 0)
(0.338244 0.10855 0)
(0.325124 0.104162 0)
(0.313008 0.0997977 0)
(0.301847 0.095493 0)
(0.29159 0.0912677 0)
(0.28219 0.0871313 0)
(0.273604 0.083085 0)
(0.265793 0.0791248 0)
(0.258723 0.0752436 0)
(0.252365 0.0714324 0)
(0.246693 0.0676822 0)
(0.241687 0.0639839 0)
(0.237326 0.0603294 0)
(0.233595 0.0567119 0)
(0.230479 0.0531259 0)
(0.227965 0.0495677 0)
(0.22604 0.0460355 0)
(0.224693 0.0425292 0)
(0.22391 0.0390511 0)
(0.223679 0.0356038 0)
(0.223987 0.0321966 0)
(0.224821 0.0288324 0)
(0.226168 0.0255255 0)
(0.228011 0.0222829 0)
(0.230334 0.0191183 0)
(0.233118 0.0160441 0)
(0.236344 0.0130728 0)
(0.239992 0.0102182 0)
(0.756127 0.0107506 0)
(0.744561 0.0255486 0)
(0.731663 0.0413273 0)
(0.7171 0.0566669 0)
(0.701381 0.0700518 0)
(0.684229 0.084193 0)
(0.665976 0.096661 0)
(0.646914 0.108907 0)
(0.62689 0.119309 0)
(0.606265 0.128683 0)
(0.584881 0.136509 0)
(0.562965 0.142801 0)
(0.540711 0.147452 0)
(0.518374 0.150445 0)
(0.496207 0.15183 0)
(0.474456 0.151726 0)
(0.453335 0.150297 0)
(0.433021 0.147743 0)
(0.41365 0.14428 0)
(0.395313 0.140117 0)
(0.378065 0.135452 0)
(0.361927 0.130458 0)
(0.346892 0.125277 0)
(0.332935 0.120023 0)
(0.320016 0.11478 0)
(0.308087 0.109605 0)
(0.297097 0.104536 0)
(0.286996 0.0995904 0)
(0.277735 0.0947748 0)
(0.269272 0.0900864 0)
(0.261567 0.0855165 0)
(0.254588 0.081053 0)
(0.248306 0.0766829 0)
(0.242698 0.0723928 0)
(0.237743 0.0681706 0)
(0.233425 0.0640052 0)
(0.229728 0.0598879 0)
(0.226641 0.0558116 0)
(0.224152 0.0517714 0)
(0.222251 0.0477646 0)
(0.220929 0.0437913 0)
(0.220173 0.0398539 0)
(0.219976 0.0359554 0)
(0.220322 0.0321056 0)
(0.221205 0.0283087 0)
(0.222612 0.0245797 0)
(0.224525 0.0209289 0)
(0.226932 0.0173689 0)
(0.229812 0.0139146 0)
(0.233148 0.0105797 0)
(0.23692 0.00737832 0)
(0.714643 0.0146923 0)
(0.703882 0.0311968 0)
(0.691874 0.048528 0)
(0.679671 0.0642674 0)
(0.666731 0.0787175 0)
(0.652654 0.0957836 0)
(0.637298 0.109629 0)
(0.620833 0.122247 0)
(0.603203 0.133733 0)
(0.584594 0.144005 0)
(0.565444 0.152778 0)
(0.545625 0.159812 0)
(0.525232 0.164952 0)
(0.504506 0.168195 0)
(0.483712 0.169582 0)
(0.46312 0.169239 0)
(0.442979 0.167363 0)
(0.423497 0.164191 0)
(0.404834 0.159979 0)
(0.387107 0.154979 0)
(0.370389 0.149428 0)
(0.354716 0.143527 0)
(0.340093 0.137448 0)
(0.326502 0.131321 0)
(0.313909 0.125242 0)
(0.302269 0.119275 0)
(0.291535 0.113459 0)
(0.281657 0.107809 0)
(0.272591 0.102332 0)
(0.264296 0.0970165 0)
(0.256734 0.0918514 0)
(0.249876 0.0868181 0)
(0.243694 0.0819001 0)
(0.238168 0.0770789 0)
(0.23328 0.0723393 0)
(0.229016 0.0676674 0)
(0.225363 0.0630522 0)
(0.222312 0.0584848 0)
(0.219855 0.0539592 0)
(0.217985 0.0494719 0)
(0.216694 0.0450229 0)
(0.215973 0.0406149 0)
(0.215816 0.0362519 0)
(0.216211 0.0319429 0)
(0.217153 0.0276973 0)
(0.218631 0.0235273 0)
(0.220629 0.0194478 0)
(0.223134 0.0154732 0)
(0.226128 0.0116182 0)
(0.229593 0.00789819 0)
(0.233508 0.00432865 0)
(0.674811 0.0231288 0)
(0.664384 0.0391015 0)
(0.653729 0.0554445 0)
(0.64061 0.071866 0)
(0.631184 0.0866682 0)
(0.619222 0.103528 0)
(0.603183 0.120244 0)
(0.588712 0.134149 0)
(0.573611 0.146043 0)
(0.557877 0.157147 0)
(0.541127 0.166875 0)
(0.523512 0.174767 0)
(0.505214 0.180649 0)
(0.486449 0.184401 0)
(0.46741 0.186035 0)
(0.448371 0.185662 0)
(0.429595 0.18351 0)
(0.411306 0.179861 0)
(0.393684 0.175017 0)
(0.376867 0.169277 0)
(0.360946 0.162917 0)
(0.34597 0.156178 0)
(0.331958 0.149256 0)
(0.318901 0.142306 0)
(0.306773 0.135434 0)
(0.295537 0.128713 0)
(0.285151 0.122186 0)
(0.275573 0.115866 0)
(0.266762 0.109755 0)
(0.258682 0.103838 0)
(0.251301 0.0981009 0)
(0.244593 0.0925162 0)
(0.238535 0.0870673 0)
(0.233108 0.081728 0)
(0.228301 0.0764808 0)
(0.224101 0.0713092 0)
(0.2205 0.0661996 0)
(0.217492 0.0611413 0)
(0.215073 0.0561271 0)
(0.213237 0.0511536 0)
(0.211982 0.0462201 0)
(0.2113 0.0413297 0)
(0.211189 0.0364882 0)
(0.21164 0.0317043 0)
(0.212649 0.0269903 0)
(0.214209 0.02236 0)
(0.216305 0.0178307 0)
(0.218923 0.0134181 0)
(0.222045 0.00914011 0)
(0.225656 0.00501355 0)
(0.229733 0.00105237 0)
(0.643574 0.0319064 0)
(0.63052 0.048483 0)
(0.617713 0.063772 0)
(0.604348 0.0796176 0)
(0.593342 0.0958474 0)
(0.584173 0.109266 0)
(0.570491 0.126389 0)
(0.554927 0.14331 0)
(0.541025 0.156381 0)
(0.527507 0.168472 0)
(0.513009 0.179044 0)
(0.497629 0.187833 0)
(0.481519 0.194533 0)
(0.464791 0.198896 0)
(0.447661 0.200886 0)
(0.430391 0.200644 0)
(0.413251 0.19839 0)
(0.396454 0.194424 0)
(0.380176 0.18909 0)
(0.364557 0.182733 0)
(0.349697 0.175676 0)
(0.335655 0.168196 0)
(0.322459 0.160521 0)
(0.310112 0.152824 0)
(0.298595 0.145231 0)
(0.287888 0.137819 0)
(0.27795 0.130635 0)
(0.268752 0.123692 0)
(0.26026 0.11699 0)
(0.252446 0.11051 0)
(0.245285 0.104231 0)
(0.238756 0.0981247 0)
(0.232842 0.0921647 0)
(0.227529 0.0863276 0)
(0.222812 0.0805883 0)
(0.218683 0.0749267 0)
(0.215139 0.0693287 0)
(0.212177 0.0637815 0)
(0.209796 0.0582763 0)
(0.207997 0.0528101 0)
(0.206779 0.0473826 0)
(0.206139 0.0419969 0)
(0.206077 0.036661 0)
(0.206588 0.0313841 0)
(0.207672 0.0261809 0)
(0.209324 0.0210683 0)
(0.211528 0.0160656 0)
(0.214274 0.0111916 0)
(0.217542 0.00646667 0)
(0.221316 0.00190853 0)
(0.22557 -0.00246808 0)
(0.617909 0.0448846 0)
(0.601507 0.0603146 0)
(0.585837 0.0753904 0)
(0.570667 0.0904244 0)
(0.557483 0.105999 0)
(0.546998 0.119364 0)
(0.536849 0.133551 0)
(0.522152 0.150005 0)
(0.507203 0.163518 0)
(0.495172 0.178445 0)
(0.482356 0.189684 0)
(0.468935 0.199183 0)
(0.45481 0.206619 0)
(0.440077 0.211638 0)
(0.424939 0.214094 0)
(0.409607 0.214088 0)
(0.394284 0.21183 0)
(0.379178 0.207659 0)
(0.364464 0.201957 0)
(0.350275 0.195109 0)
(0.336704 0.187479 0)
(0.32381 0.179377 0)
(0.311625 0.17106 0)
(0.300157 0.162721 0)
(0.2894 0.154499 0)
(0.279339 0.146485 0)
(0.269951 0.138716 0)
(0.261213 0.13122 0)
(0.253107 0.123981 0)
(0.245609 0.116991 0)
(0.238705 0.11021 0)
(0.232382 0.103619 0)
(0.226632 0.0971783 0)
(0.221448 0.0908659 0)
(0.216826 0.0846519 0)
(0.212772 0.0785138 0)
(0.209286 0.0724363 0)
(0.206367 0.0664047 0)
(0.204022 0.0604091 0)
(0.202256 0.0544469 0)
(0.201072 0.0485155 0)
(0.200472 0.0426212 0)
(0.200459 0.036773 0)
(0.201033 0.0309821 0)
(0.202198 0.0252672 0)
(0.203948 0.0196463 0)
(0.206272 0.0141436 0)
(0.209158 0.00878173 0)
(0.212589 0.00358464 0)
(0.216538 -0.00143196 0)
(0.220994 -0.00624165 0)
(0.586634 0.0593018 0)
(0.569644 0.0754416 0)
(0.553097 0.0883963 0)
(0.536851 0.102677 0)
(0.521912 0.117163 0)
(0.51031 0.130804 0)
(0.500349 0.143375 0)
(0.486117 0.154991 0)
(0.474082 0.17098 0)
(0.463017 0.187465 0)
(0.449397 0.199069 0)
(0.437844 0.208987 0)
(0.425739 0.217113 0)
(0.412955 0.222789 0)
(0.399743 0.225708 0)
(0.386328 0.225911 0)
(0.372908 0.223685 0)
(0.359661 0.219379 0)
(0.346707 0.213411 0)
(0.334153 0.206194 0)
(0.322075 0.19812 0)
(0.310521 0.189532 0)
(0.299521 0.180703 0)
(0.289088 0.17185 0)
(0.279229 0.163116 0)
(0.269931 0.154599 0)
(0.261186 0.146347 0)
(0.252988 0.138377 0)
(0.245326 0.130683 0)
(0.238192 0.123238 0)
(0.231579 0.116019 0)
(0.225488 0.108981 0)
(0.219917 0.102102 0)
(0.214871 0.0953393 0)
(0.210353 0.0886745 0)
(0.206372 0.082076 0)
(0.202938 0.0755283 0)
(0.200058 0.0690155 0)
(0.197745 0.0625271 0)
(0.196006 0.056062 0)
(0.194849 0.049618 0)
(0.194285 0.0432025 0)
(0.194317 0.0368249 0)
(0.194953 0.0304974 0)
(0.196199 0.0242436 0)
(0.198054 0.0180875 0)
(0.200506 0.0120559 0)
(0.203545 0.00617807 0)
(0.207147 0.000479694 0)
(0.211293 -0.00501368 0)
(0.215957 -0.0102815 0)
(0.541257 0.0719459 0)
(0.525019 0.0892582 0)
(0.510464 0.102271 0)
(0.497593 0.115388 0)
(0.483372 0.128303 0)
(0.471123 0.141261 0)
(0.459145 0.152748 0)
(0.449131 0.164166 0)
(0.44163 0.179063 0)
(0.42843 0.192927 0)
(0.414234 0.207044 0)
(0.404522 0.217493 0)
(0.394558 0.226152 0)
(0.383719 0.232324 0)
(0.3724 0.2356 0)
(0.360953 0.236009 0)
(0.349534 0.233833 0)
(0.338242 0.229448 0)
(0.327177 0.223292 0)
(0.316404 0.215816 0)
(0.305973 0.207431 0)
(0.295914 0.198496 0)
(0.286248 0.189305 0)
(0.276988 0.180074 0)
(0.26814 0.170967 0)
(0.259711 0.162068 0)
(0.251702 0.153446 0)
(0.244115 0.1451 0)
(0.236955 0.137035 0)
(0.230226 0.129217 0)
(0.223936 0.121617 0)
(0.218094 0.114197 0)
(0.212716 0.106918 0)
(0.207813 0.0997491 0)
(0.2034 0.092656 0)
(0.19949 0.0856201 0)
(0.196104 0.0786136 0)
(0.193254 0.0716276 0)
(0.190959 0.0646494 0)
(0.189235 0.0576735 0)
(0.188098 0.0507038 0)
(0.187561 0.043748 0)
(0.187629 0.0368216 0)
(0.188319 0.0299339 0)
(0.189645 0.0231111 0)
(0.191606 0.0163862 0)
(0.194194 0.00979271 0)
(0.197395 0.00336681 0)
(0.201176 -0.00286003 0)
(0.205521 -0.00884983 0)
(0.210378 -0.0145858 0)
(0.480225 0.0794678 0)
(0.469371 0.0985888 0)
(0.459323 0.114943 0)
(0.449808 0.126735 0)
(0.438561 0.138502 0)
(0.427936 0.15029 0)
(0.41812 0.161706 0)
(0.409685 0.174213 0)
(0.402013 0.185979 0)
(0.39271 0.198922 0)
(0.380128 0.212152 0)
(0.369762 0.224204 0)
(0.361712 0.233623 0)
(0.352749 0.240267 0)
(0.343329 0.243833 0)
(0.333859 0.244395 0)
(0.324465 0.24223 0)
(0.315206 0.237775 0)
(0.306126 0.231494 0)
(0.297251 0.223856 0)
(0.288585 0.215285 0)
(0.280142 0.206147 0)
(0.271925 0.196741 0)
(0.263949 0.187286 0)
(0.256217 0.177946 0)
(0.248746 0.168812 0)
(0.241546 0.159937 0)
(0.234632 0.151338 0)
(0.228026 0.142993 0)
(0.221741 0.134892 0)
(0.215802 0.126984 0)
(0.210232 0.119243 0)
(0.205053 0.11162 0)
(0.200295 0.104081 0)
(0.19598 0.0966024 0)
(0.192133 0.089148 0)
(0.188781 0.0817042 0)
(0.185949 0.0742493 0)
(0.183658 0.0667829 0)
(0.181932 0.059296 0)
(0.180794 0.0517919 0)
(0.180267 0.0442808 0)
(0.180358 0.0367772 0)
(0.181089 0.0292998 0)
(0.182487 0.0218759 0)
(0.184551 0.0145462 0)
(0.187271 0.00735549 0)
(0.19062 0.00035042 0)
(0.194572 -0.00641793 0)
(0.19907 -0.0129113 0)
(0.204049 -0.0191026 0)
(0.412537 0.0826282 0)
(0.407516 0.104471 0)
(0.401438 0.121913 0)
(0.396012 0.134053 0)
(0.389356 0.145697 0)
(0.381576 0.157176 0)
(0.373776 0.168767 0)
(0.367183 0.180505 0)
(0.363055 0.192947 0)
(0.353816 0.205039 0)
(0.342339 0.217499 0)
(0.334893 0.230058 0)
(0.32761 0.239983 0)
(0.320242 0.246833 0)
(0.312685 0.250478 0)
(0.305239 0.251028 0)
(0.297948 0.248814 0)
(0.29081 0.244282 0)
(0.283805 0.237929 0)
(0.276911 0.230219 0)
(0.270101 0.221584 0)
(0.263364 0.212383 0)
(0.25669 0.202917 0)
(0.250084 0.193392 0)
(0.243552 0.183974 0)
(0.237112 0.174749 0)
(0.23079 0.165761 0)
(0.224603 0.157029 0)
(0.21859 0.148528 0)
(0.212782 0.140237 0)
(0.207211 0.132114 0)
(0.201921 0.124117 0)
(0.196945 0.116212 0)
(0.192327 0.108353 0)
(0.188099 0.10052 0)
(0.184298 0.0926766 0)
(0.180962 0.0848106 0)
(0.178124 0.0769024 0)
(0.175818 0.0689466 0)
(0.17407 0.0609448 0)
(0.172909 0.0528981 0)
(0.172365 0.0448157 0)
(0.172456 0.0367096 0)
(0.173208 0.0286111 0)
(0.17465 0.0205501 0)
(0.176786 0.0125787 0)
(0.179602 0.00475746 0)
(0.183047 -0.00284371 0)
(0.18708 -0.0101465 0)
(0.191591 -0.0171033 0)
(0.196486 -0.0236833 0)
(0.343412 0.0821149 0)
(0.342522 0.105647 0)
(0.340614 0.123008 0)
(0.339904 0.137539 0)
(0.337611 0.149485 0)
(0.333195 0.161251 0)
(0.328073 0.173315 0)
(0.324247 0.185663 0)
(0.32034 0.198396 0)
(0.313295 0.209766 0)
(0.304706 0.223332 0)
(0.29775 0.235422 0)
(0.292071 0.245239 0)
(0.286319 0.25197 0)
(0.280699 0.255465 0)
(0.275359 0.255859 0)
(0.270254 0.253517 0)
(0.26531 0.248907 0)
(0.26045 0.242523 0)
(0.255605 0.234833 0)
(0.25072 0.226251 0)
(0.245758 0.217135 0)
(0.240692 0.207751 0)
(0.235523 0.198325 0)
(0.230259 0.188984 0)
(0.224908 0.179821 0)
(0.21951 0.17087 0)
(0.214096 0.162136 0)
(0.208708 0.153604 0)
(0.203395 0.145231 0)
(0.198205 0.136988 0)
(0.193196 0.128821 0)
(0.188414 0.120698 0)
(0.183917 0.112577 0)
(0.179754 0.104429 0)
(0.175972 0.09623 0)
(0.172623 0.0879597 0)
(0.169749 0.0796104 0)
(0.167391 0.071175 0)
(0.165586 0.0626524 0)
(0.16437 0.0540501 0)
(0.163777 0.0453776 0)
(0.163834 0.036652 0)
(0.164565 0.0279045 0)
(0.166001 0.0191754 0)
(0.168139 0.0105347 0)
(0.17093 0.00207593 0)
(0.174305 -0.00608994 0)
(0.178161 -0.0138599 0)
(0.182344 -0.0211633 0)
(0.186724 -0.0279814 0)
(0.277725 0.0765915 0)
(0.279167 0.101099 0)
(0.281968 0.121124 0)
(0.285467 0.136983 0)
(0.285628 0.150263 0)
(0.28426 0.163019 0)
(0.281806 0.175791 0)
(0.27995 0.189053 0)
(0.277713 0.201657 0)
(0.271478 0.213794 0)
(0.264283 0.2275 0)
(0.259356 0.239933 0)
(0.255155 0.249459 0)
(0.251237 0.255717 0)
(0.247666 0.258759 0)
(0.24452 0.258816 0)
(0.241677 0.256269 0)
(0.238991 0.251577 0)
(0.236329 0.245219 0)
(0.233578 0.237642 0)
(0.230661 0.229238 0)
(0.22751 0.220341 0)
(0.224102 0.211201 0)
(0.220419 0.202026 0)
(0.216458 0.192926 0)
(0.212244 0.183981 0)
(0.207804 0.175223 0)
(0.203185 0.166634 0)
(0.198436 0.1582 0)
(0.193622 0.149869 0)
(0.188806 0.141606 0)
(0.184056 0.133365 0)
(0.179443 0.125097 0)
(0.175033 0.116776 0)
(0.170895 0.108362 0)
(0.16709 0.0998413 0)
(0.16368 0.0911967 0)
(0.16072 0.0824168 0)
(0.15826 0.0735042 0)
(0.156348 0.0644618 0)
(0.155025 0.0552962 0)
(0.154326 0.0460217 0)
(0.154279 0.0366581 0)
(0.1549 0.0272476 0)
(0.156199 0.0178495 0)
(0.158143 0.00856449 0)
(0.160622 -0.000466498 0)
(0.163527 -0.00907828 0)
(0.166695 -0.0171421 0)
(0.169951 -0.0245755 0)
(0.173151 -0.0313979 0)
(0.219632 0.0701659 0)
(0.224554 0.0947366 0)
(0.229279 0.11681 0)
(0.233435 0.133625 0)
(0.235662 0.14859 0)
(0.235962 0.162763 0)
(0.235559 0.176693 0)
(0.23527 0.190569 0)
(0.232331 0.203691 0)
(0.227972 0.217121 0)
(0.2238 0.231102 0)
(0.219794 0.243258 0)
(0.217105 0.252217 0)
(0.215102 0.257769 0)
(0.213811 0.260187 0)
(0.213047 0.259792 0)
(0.212567 0.256988 0)
(0.212184 0.252239 0)
(0.211741 0.245978 0)
(0.211096 0.238617 0)
(0.210154 0.230514 0)
(0.208836 0.221973 0)
(0.207101 0.213234 0)
(0.204921 0.204462 0)
(0.202286 0.195771 0)
(0.199221 0.18721 0)
(0.195745 0.178803 0)
(0.191915 0.170514 0)
(0.187789 0.162321 0)
(0.183443 0.154164 0)
(0.17896 0.145998 0)
(0.174422 0.137778 0)
(0.169916 0.129457 0)
(0.165531 0.120999 0)
(0.16135 0.112378 0)
(0.157451 0.103574 0)
(0.153909 0.0945796 0)
(0.150792 0.0853872 0)
(0.148166 0.0760005 0)
(0.146082 0.0664336 0)
(0.144584 0.0567017 0)
(0.143695 0.0468266 0)
(0.143427 0.0368347 0)
(0.143758 0.0267921 0)
(0.144635 0.0168058 0)
(0.145948 0.00701847 0)
(0.147513 -0.00237926 0)
(0.149218 -0.0111968 0)
(0.150917 -0.0192836 0)
(0.152461 -0.0265579 0)
(0.15373 -0.0331295 0)
(0.169905 0.0671811 0)
(0.174672 0.091087 0)
(0.179487 0.111913 0)
(0.183559 0.129977 0)
(0.186223 0.146204 0)
(0.187763 0.161648 0)
(0.188603 0.176719 0)
(0.188574 0.191249 0)
(0.18732 0.205457 0)
(0.183586 0.220201 0)
(0.180244 0.233432 0)
(0.178775 0.244745 0)
(0.178139 0.252803 0)
(0.178503 0.257613 0)
(0.179689 0.259425 0)
(0.181374 0.2586 0)
(0.183303 0.255596 0)
(0.18524 0.25086 0)