/*--------------------------------*- C++ -*----------------------------------*\
  =========                 |
  \\      /  F ield         | OpenFOAM: The Open Source CFD Toolbox
   \\    /   O peration     | Website:  https://openfoam.org
    \\  /    A nd           | Version:  10
     \\/     M anipulation  |
\*---------------------------------------------------------------------------*/
FoamFile
{
    format      ascii;
    class       volVectorField;
    location    "0.0489448";
    object      U;
}
// * * * * * * * * * * * * * * * * * * * * * * * * * * * * * * * * * * * * * //

dimensions      [0 1 -1 0 0 0 0];

internalField   nonuniform List<vector> 
15708
(
(0.499998 -9.63969e-06 0)
(0.499998 -9.54106e-06 0)
(0.499999 -9.22032e-06 0)
(0.499999 -8.66901e-06 0)
(0.5 -7.91202e-06 0)
(0.5 -6.91566e-06 0)
(0.500001 -5.73725e-06 0)
(0.500001 -4.43346e-06 0)
(0.500001 -3.05528e-06 0)
(0.500001 -1.66961e-06 0)
(0.500001 -3.41614e-07 0)
(0.500001 8.77536e-07 0)
(0.500001 1.93861e-06 0)
(0.500001 2.80307e-06 0)
(0.500001 3.44373e-06 0)
(0.5 3.84407e-06 0)
(0.5 3.99506e-06 0)
(0.5 3.91809e-06 0)
(0.499999 3.58332e-06 0)
(0.499999 2.98771e-06 0)
(0.499999 2.14336e-06 0)
(0.499998 1.04723e-06 0)
(0.499998 -3.0601e-07 0)
(0.499997 -1.91896e-06 0)
(0.499997 -3.78419e-06 0)
(0.499997 -5.87758e-06 0)
(0.499996 -8.14553e-06 0)
(0.499996 -1.04923e-05 0)
(0.499995 -1.27655e-05 0)
(0.499995 -1.47414e-05 0)
(0.499994 -1.61095e-05 0)
(0.499993 -1.64579e-05 0)
(0.499992 -1.52609e-05 0)
(0.49999 -1.18627e-05 0)
(0.499987 -5.47405e-06 0)
(0.499983 4.83071e-06 0)
(0.499977 2.0117e-05 0)
(0.499969 4.15352e-05 0)
(0.499959 7.0138e-05 0)
(0.499948 0.000106783 0)
(0.499935 0.000151908 0)
(0.499923 0.000205292 0)
(0.499912 0.000265763 0)
(0.499904 0.000330993 0)
(0.499902 0.000397489 0)
(0.499908 0.000460577 0)
(0.499921 0.000515068 0)
(0.499942 0.000555414 0)
(0.499971 0.000576644 0)
(0.500004 0.000576792 0)
(0.50004 0.000553736 0)
(0.499998 -1.27434e-05 0)
(0.499998 -1.32299e-05 0)
(0.499999 -1.32272e-05 0)
(0.5 -1.27565e-05 0)
(0.500001 -1.17932e-05 0)
(0.500002 -1.03262e-05 0)
(0.500002 -8.48538e-06 0)
(0.500003 -6.37465e-06 0)
(0.500003 -4.10077e-06 0)
(0.500003 -1.78428e-06 0)
(0.500003 4.41816e-07 0)
(0.500003 2.48328e-06 0)
(0.500002 4.24755e-06 0)
(0.500002 5.66451e-06 0)
(0.500001 6.68576e-06 0)
(0.500001 7.28262e-06 0)
(0.5 7.44281e-06 0)
(0.499999 7.20524e-06 0)
(0.499999 6.49281e-06 0)
(0.499998 5.32583e-06 0)
(0.499997 3.71081e-06 0)
(0.499997 1.63385e-06 0)
(0.499996 -9.23071e-07 0)
(0.499995 -3.97309e-06 0)
(0.499994 -7.51749e-06 0)
(0.499994 -1.15307e-05 0)
(0.499993 -1.59438e-05 0)
(0.499992 -2.06282e-05 0)
(0.499992 -2.53825e-05 0)
(0.499992 -2.99217e-05 0)
(0.499992 -3.3878e-05 0)
(0.499992 -3.68093e-05 0)
(0.499993 -3.82015e-05 0)
(0.499993 -3.7497e-05 0)
(0.499993 -3.4126e-05 0)
(0.499992 -2.75101e-05 0)
(0.499991 -1.7021e-05 0)
(0.499988 -1.97784e-06 0)
(0.499984 1.79615e-05 0)
(0.499979 4.30366e-05 0)
(0.499973 7.3273e-05 0)
(0.499966 0.000108348 0)
(0.499959 0.000147383 0)
(0.499954 0.000188843 0)
(0.499952 0.000230787 0)
(0.499952 0.000270557 0)
(0.499958 0.000305182 0)
(0.499967 0.000331571 0)
(0.499981 0.000346798 0)
(0.499997 0.00034913 0)
(0.500016 0.000338366 0)
(0.499997 -2.10543e-05 0)
(0.499998 -2.21598e-05 0)
(0.499999 -2.23183e-05 0)
(0.500001 -2.16087e-05 0)
(0.500002 -1.98595e-05 0)
(0.500004 -1.72335e-05 0)
(0.500005 -1.39187e-05 0)
(0.500005 -1.01096e-05 0)
(0.500006 -6.02465e-06 0)
(0.500006 -1.89143e-06 0)
(0.500006 2.053e-06 0)
(0.500005 5.63084e-06 0)
(0.500004 8.67977e-06 0)
(0.500003 1.10795e-05 0)
(0.500002 1.27501e-05 0)
(0.500001 1.36472e-05 0)
(0.5 1.37712e-05 0)
(0.499999 1.31668e-05 0)
(0.499998 1.16938e-05 0)
(0.499996 9.4223e-06 0)
(0.499995 6.34242e-06 0)
(0.499994 2.42239e-06 0)
(0.499992 -2.37562e-06 0)
(0.499991 -8.08102e-06 0)
(0.499989 -1.47031e-05 0)
(0.499988 -2.22007e-05 0)
(0.499987 -3.04551e-05 0)
(0.499986 -3.9245e-05 0)
(0.499986 -4.82302e-05 0)
(0.499986 -5.69408e-05 0)
(0.499987 -6.48086e-05 0)
(0.499989 -7.11811e-05 0)
(0.499991 -7.53674e-05 0)
(0.499994 -7.67024e-05 0)
(0.499997 -7.46725e-05 0)
(0.5 -6.90608e-05 0)
(0.500002 -5.89251e-05 0)
(0.500004 -4.43542e-05 0)
(0.500004 -2.55237e-05 0)
(0.500003 -2.75497e-06 0)
(0.5 2.34432e-05 0)
(0.499997 5.24512e-05 0)
(0.499992 8.32095e-05 0)
(0.499988 0.000114573 0)
(0.499984 0.000145138 0)
(0.499982 0.00017327 0)
(0.499982 0.000197215 0)
(0.499984 0.000215337 0)
(0.499989 0.000225923 0)
(0.499995 0.000227856 0)
(0.500003 0.000221188 0)
(0.499995 -3.77449e-05 0)
(0.499997 -3.95855e-05 0)
(0.5 -3.96975e-05 0)
(0.500002 -3.81584e-05 0)
(0.500005 -3.46656e-05 0)
(0.500007 -2.96622e-05 0)
(0.500009 -2.3447e-05 0)
(0.50001 -1.63981e-05 0)
(0.500011 -8.93213e-06 0)
(0.500011 -1.48723e-06 0)
(0.50001 5.56036e-06 0)
(0.500009 1.18608e-05 0)
(0.500008 1.71392e-05 0)
(0.500006 2.1198e-05 0)
(0.500004 2.39118e-05 0)
(0.500002 2.52148e-05 0)
(0.5 2.51719e-05 0)
(0.499997 2.37563e-05 0)
(0.499995 2.08072e-05 0)
(0.499993 1.64469e-05 0)
(0.49999 1.06366e-05 0)
(0.499988 3.31333e-06 0)
(0.499985 -5.59334e-06 0)
(0.499983 -1.61439e-05 0)
(0.49998 -2.83546e-05 0)
(0.499978 -4.2143e-05 0)
(0.499976 -5.72795e-05 0)
(0.499975 -7.33459e-05 0)
(0.499974 -8.97116e-05 0)
(0.499975 -0.000105523 0)
(0.499978 -0.000119789 0)
(0.499982 -0.000131394 0)
(0.499987 -0.000139227 0)
(0.499994 -0.000142284 0)
(0.500001 -0.000140262 0)
(0.500008 -0.000132593 0)
(0.500016 -0.000118236 0)
(0.500022 -9.81891e-05 0)
(0.500026 -7.31696e-05 0)
(0.500028 -4.41989e-05 0)
(0.500028 -1.25208e-05 0)
(0.500026 2.04862e-05 0)
(0.500022 5.33665e-05 0)
(0.500016 8.49242e-05 0)
(0.50001 0.000113753 0)
(0.500004 0.000138633 0)
(0.5 0.000158453 0)
(0.499996 0.000172245 0)
(0.499994 0.000179471 0)
(0.499993 0.000179523 0)
(0.499993 0.000172055 0)
(0.499991 -6.87895e-05 0)
(0.499996 -7.14689e-05 0)
(0.500001 -7.11047e-05 0)
(0.500006 -6.7542e-05 0)
(0.500011 -6.0567e-05 0)
(0.500015 -5.09605e-05 0)
(0.500018 -3.93053e-05 0)
(0.50002 -2.63089e-05 0)
(0.500021 -1.27357e-05 0)
(0.50002 5.99569e-07 0)
(0.500019 1.30503e-05 0)
(0.500017 2.40181e-05 0)
(0.500014 3.30426e-05 0)
(0.50001 3.98057e-05 0)
(0.500006 4.41191e-05 0)
(0.500002 4.58936e-05 0)
(0.499999 4.53407e-05 0)
(0.499994 4.22336e-05 0)
(0.49999 3.64844e-05 0)
(0.499986 2.82393e-05 0)
(0.499982 1.74232e-05 0)
(0.499977 3.90918e-06 0)
(0.499973 -1.24221e-05 0)
(0.499968 -3.16937e-05 0)
(0.499963 -5.39252e-05 0)
(0.499959 -7.89399e-05 0)
(0.499956 -0.000106281 0)
(0.499954 -0.00013514 0)
(0.499954 -0.000164323 0)
(0.499956 -0.00019225 0)
(0.499961 -0.000217128 0)
(0.499969 -0.000236978 0)
(0.49998 -0.000249918 0)
(0.499993 -0.000254344 0)
(0.500007 -0.000250332 0)
(0.500022 -0.000235977 0)
(0.500037 -0.000211128 0)
(0.500049 -0.000177511 0)
(0.500058 -0.000136865 0)
(0.500064 -9.13448e-05 0)
(0.500065 -4.3343e-05 0)
(0.500063 4.51047e-06 0)
(0.500057 5.01153e-05 0)
(0.500048 9.14984e-05 0)
(0.500038 0.000127044 0)
(0.500027 0.00015557 0)
(0.500015 0.000176267 0)
(0.500005 0.000188598 0)
(0.499996 0.00019288 0)
(0.499988 0.000189122 0)
(0.499981 0.00017673 0)
(0.499986 -0.000124591 0)
(0.499995 -0.000128071 0)
(0.500004 -0.00012619 0)
(0.500013 -0.000118249 0)
(0.500022 -0.000104567 0)
(0.500029 -8.63492e-05 0)
(0.500034 -6.47667e-05 0)
(0.500037 -4.11209e-05 0)
(0.500038 -1.67774e-05 0)
(0.500037 6.76751e-06 0)
(0.500034 2.84318e-05 0)
(0.500029 4.72221e-05 0)
(0.500024 6.23848e-05 0)
(0.500017 7.34245e-05 0)
(0.50001 8.00775e-05 0)
(0.500003 8.22434e-05 0)
(0.499996 8.04018e-05 0)
(0.499989 7.39193e-05 0)
(0.499981 6.29402e-05 0)
(0.499974 4.76049e-05 0)
(0.499966 2.77593e-05 0)
(0.499958 3.14578e-06 0)
(0.49995 -2.64052e-05 0)
(0.499941 -6.11577e-05 0)
(0.499933 -0.000101112 0)
(0.499926 -0.000145885 0)
(0.49992 -0.000194568 0)
(0.499917 -0.000245607 0)
(0.499917 -0.000296741 0)
(0.499923 -0.000345076 0)
(0.499933 -0.000387351 0)
(0.499949 -0.000420071 0)
(0.49997 -0.000440044 0)
(0.499993 -0.000444844 0)
(0.500019 -0.000434797 0)
(0.500047 -0.000406113 0)
(0.500074 -0.000360266 0)
(0.500096 -0.000300271 0)
(0.500112 -0.000229627 0)
(0.500122 -0.000152404 0)
(0.500124 -7.29596e-05 0)
(0.500119 4.17174e-06 0)
(0.500109 7.55476e-05 0)
(0.500093 0.000138054 0)
(0.500074 0.00018946 0)
(0.500054 0.000228382 0)
(0.500033 0.000254198 0)
(0.500013 0.000266889 0)
(0.499994 0.000267543 0)
(0.499977 0.000256412 0)
(0.49996 0.000233363 0)
(0.499979 -0.000222612 0)
(0.499995 -0.000226345 0)
(0.500011 -0.000220669 0)
(0.500028 -0.000203825 0)
(0.500043 -0.00017748 0)
(0.500055 -0.000143572 0)
(0.500063 -0.000104281 0)
(0.500068 -6.19824e-05 0)
(0.500069 -1.90873e-05 0)
(0.500066 2.17693e-05 0)
(0.500059 5.88408e-05 0)
(0.500051 9.04604e-05 0)
(0.50004 0.000115433 0)
(0.500028 0.000133025 0)
(0.500015 0.000142894 0)
(0.500003 0.000145043 0)
(0.49999 0.000140254 0)
(0.499977 0.000127258 0)
(0.499964 0.000106709 0)
(0.499951 7.86679e-05 0)
(0.499937 4.28045e-05 0)
(0.499923 -1.39645e-06 0)
(0.499909 -5.41544e-05 0)
(0.499893 -0.000115993 0)
(0.499879 -0.000186827 0)
(0.499866 -0.000265844 0)
(0.499856 -0.000351258 0)
(0.499852 -0.000440109 0)
(0.499854 -0.000528161 0)
(0.499865 -0.000610203 0)
(0.499886 -0.000680346 0)
(0.499917 -0.000732535 0)
(0.499955 -0.00076133 0)
(0.499998 -0.000764278 0)
(0.500045 -0.000739683 0)
(0.500096 -0.000682742 0)
(0.500142 -0.00059793 0)
(0.50018 -0.00049034 0)
(0.500206 -0.000366571 0)
(0.50022 -0.000233947 0)
(0.500222 -9.99994e-05 0)
(0.500211 2.74122e-05 0)
(0.500191 0.000142801 0)
(0.500162 0.00024145 0)
(0.500128 0.000320107 0)
(0.500091 0.000377053 0)
(0.500054 0.000411885 0)
(0.500018 0.000425177 0)
(0.499985 0.000419741 0)
(0.499953 0.000394798 0)
(0.499924 0.000351958 0)
(0.499968 -0.000391235 0)
(0.499998 -0.000393605 0)
(0.500026 -0.000379197 0)
(0.500056 -0.000345036 0)
(0.500082 -0.000295433 0)
(0.500102 -0.000233552 0)
(0.500116 -0.000163343 0)
(0.500122 -8.90792e-05 0)
(0.500122 -1.5221e-05 0)
(0.500115 5.46151e-05 0)
(0.500103 0.000116926 0)
(0.500086 0.000169095 0)
(0.500066 0.000209336 0)
(0.500044 0.000236612 0)
(0.500022 0.000250519 0)
(0.5 0.000251595 0)
(0.499978 0.000240449 0)
(0.499955 0.0002153 0)
(0.499932 0.000177643 0)
(0.49991 0.000127223 0)
(0.499886 6.34376e-05 0)
(0.499861 -1.45346e-05 0)
(0.499835 -0.000107586 0)
(0.499809 -0.000216152 0)
(0.499783 -0.000339951 0)
(0.499761 -0.00047734 0)
(0.499745 -0.000624858 0)
(0.49974 -0.000776945 0)
(0.499747 -0.000925803 0)
(0.49977 -0.00106219 0)
(0.499811 -0.00117567 0)
(0.499868 -0.00125602 0)
(0.499938 -0.00129431 0)
(0.500015 -0.00128904 0)
(0.5001 -0.00123349 0)
(0.500189 -0.00112381 0)
(0.500266 -0.000969153 0)
(0.500327 -0.000778867 0)
(0.500368 -0.000564719 0)
(0.500388 -0.000339491 0)
(0.500385 -0.000115866 0)
(0.500362 9.31739e-05 0)
(0.500323 0.000279225 0)
(0.50027 0.000435036 0)
(0.50021 0.000555992 0)
(0.500145 0.000640072 0)
(0.500081 0.000687377 0)
(0.50002 0.000699662 0)
(0.499964 0.000681912 0)
(0.499909 0.000631868 0)
(0.499859 0.000554162 0)
(0.499956 -0.000675318 0)
(0.500008 -0.00067249 0)
(0.50006 -0.000638894 0)
(0.500111 -0.000572744 0)
(0.500154 -0.000481395 0)
(0.500187 -0.000370743 0)
(0.500208 -0.000247728 0)
(0.500216 -0.000119742 0)
(0.500212 5.44658e-06 0)
(0.500198 0.000122066 0)
(0.500174 0.000224491 0)
(0.500143 0.000308673 0)
(0.500107 0.000371964 0)
(0.500069 0.000412974 0)
(0.50003 0.000431277 0)
(0.499993 0.000428774 0)
(0.499954 0.00040467 0)
(0.499914 0.00035779 0)
(0.499876 0.000290077 0)
(0.499837 0.000200918 0)
(0.499796 8.91817e-05 0)
(0.499752 -4.65832e-05 0)
(0.499707 -0.000208043 0)
(0.499661 -0.000395708 0)
(0.499618 -0.000608737 0)
(0.499581 -0.000843796 0)
(0.499556 -0.00109427 0)
(0.499551 -0.00134986 0)
(0.499569 -0.0015965 0)
(0.499616 -0.00181802 0)
(0.499692 -0.00199651 0)
(0.499798 -0.00211507 0)
(0.499922 -0.00216002 0)
(0.500059 -0.00213159 0)
(0.500211 -0.00201451 0)
(0.500361 -0.00180976 0)
(0.500487 -0.0015339 0)
(0.500584 -0.0012041 0)
(0.500645 -0.000840766 0)
(0.500669 -0.00046567 0)
(0.500654 -0.00010093 0)
(0.500606 0.00023718 0)
(0.500532 0.000532601 0)
(0.500439 0.000774862 0)
(0.500333 0.000957982 0)
(0.500223 0.00107992 0)
(0.500113 0.00114185 0)
(0.500013 0.00114838 0)
(0.499918 0.00110621 0)
(0.499826 0.00101152 0)
(0.499744 0.000874373 0)
(0.499945 -0.00114363 0)
(0.500035 -0.00112655 0)
(0.500127 -0.00105428 0)
(0.500214 -0.000930525 0)
(0.500284 -0.000766289 0)
(0.500336 -0.000572664 0)
(0.500367 -0.000361629 0)
(0.500375 -0.000145524 0)
(0.500364 6.24094e-05 0)
(0.500334 0.000252871 0)
(0.500289 0.000417535 0)
(0.500233 0.000550251 0)
(0.50017 0.000647234 0)
(0.500104 0.000706769 0)
(0.500038 0.000728641 0)
(0.499974 0.000717054 0)
(0.499907 0.00066835 0)
(0.49984 0.000583366 0)
(0.499776 0.000463978 0)
(0.499709 0.000309055 0)
(0.499639 0.000116444 0)
(0.499564 -0.000116473 0)
(0.499486 -0.000392051 0)
(0.499408 -0.000711183 0)
(0.499335 -0.00107171 0)
(0.499276 -0.00146692 0)
(0.499239 -0.00188436 0)
(0.499237 -0.00230525 0)
(0.499279 -0.00270485 0)
(0.49937 -0.00305539 0)
(0.499514 -0.00332687 0)
(0.499704 -0.00349213 0)
(0.499921 -0.00353387 0)
(0.50016 -0.00345049 0)
(0.500422 -0.00321708 0)
(0.50067 -0.0028463 0)
(0.500872 -0.00236665 0)
(0.50102 -0.00180823 0)
(0.501107 -0.00120559 0)
(0.501128 -0.000594241 0)
(0.501088 -9.94823e-06 0)
(0.500995 0.00052293 0)
(0.50086 0.000980719 0)
(0.500696 0.00134864 0)
(0.500515 0.00161911 0)
(0.500329 0.00179061 0)
(0.500149 0.00186633 0)
(0.499985 0.00185729 0)
(0.499827 0.00176761 0)
(0.499677 0.00159755 0)
(0.499545 0.00136108 0)
(0.499943 -0.00189767 0)
(0.500099 -0.00184713 0)
(0.500256 -0.00170183 0)
(0.5004 -0.00147652 0)
(0.500512 -0.0011887 0)
(0.500591 -0.00085768 0)
(0.500635 -0.000503871 0)
(0.50064 -0.000147557 0)
(0.500611 0.000189907 0)
(0.500553 0.000494554 0)
(0.500471 0.000753448 0)
(0.500373 0.00095766 0)
(0.500264 0.00110215 0)
(0.50015 0.00118515 0)
(0.50004 0.00120719 0)
(0.499932 0.00117575 0)
(0.49982 0.00108248 0)
(0.49971 0.000932056 0)
(0.499602 0.000725895 0)
(0.499489 0.000461588 0)
(0.49937 0.000135228 0)
(0.499244 -0.000257445 0)
(0.499112 -0.000720168 0)
(0.498981 -0.00125369 0)
(0.498862 -0.001853 0)
(0.498768 -0.00250496 0)
(0.498718 -0.00318654 0)
(0.49873 -0.00386399 0)
(0.498818 -0.00449541 0)
(0.498993 -0.00503354 0)
(0.499255 -0.00543025 0)
(0.499591 -0.00564344 0)
(0.499964 -0.0056591 0)
(0.500376 -0.00545538 0)
(0.500815 -0.0050125 0)
(0.501211 -0.00436269 0)
(0.501525 -0.00355088 0)
(0.501745 -0.00262949 0)
(0.501859 -0.00165481 0)
(0.501864 -0.000682791 0)
(0.501771 0.000231901 0)
(0.501597 0.00105026 0)
(0.501358 0.00174172 0)
(0.501077 0.00228605 0)
(0.500775 0.00267422 0)
(0.50047 0.00290648 0)
(0.50018 0.00298968 0)
(0.499914 0.00294527 0)
(0.499658 0.00276995 0)
(0.499419 0.00247553 0)
(0.499207 0.00207731 0)
(0.499967 -0.00308221 0)
(0.500234 -0.00295823 0)
(0.500498 -0.00268176 0)
(0.500727 -0.00228339 0)
(0.500903 -0.00179193 0)
(0.50102 -0.00123979 0)
(0.501077 -0.000660929 0)
(0.501069 -9.01452e-05 0)
(0.501006 0.000446832 0)
(0.500897 0.000923284 0)
(0.500752 0.0013206 0)
(0.500582 0.00162673 0)
(0.500398 0.00183543 0)
(0.500209 0.00194529 0)
(0.500028 0.00196007 0)
(0.499849 0.00188847 0)
(0.499663 0.00171746 0)
(0.499484 0.00145785 0)
(0.499305 0.00110916 0)
(0.499118 0.000666642 0)
(0.498919 0.000123415 0)
(0.498708 -0.000526841 0)
(0.49849 -0.00129 0)
(0.498275 -0.00216555 0)
(0.498083 -0.00314244 0)
(0.497942 -0.00419546 0)
(0.49788 -0.00528294 0)
(0.497928 -0.00634578 0)
(0.498109 -0.00731491 0)
(0.498435 -0.0081123 0)
(0.498903 -0.00866396 0)
(0.499475 -0.00890923 0)
(0.500109 -0.00884246 0)
(0.500807 -0.00840776 0)
(0.501515 -0.00760525 0)
(0.502131 -0.00650039 0)
(0.502605 -0.00516594 0)
(0.502916 -0.00368733 0)
(0.503053 -0.00215388 0)
(0.503014 -0.00065268 0)
(0.502821 0.000740839 0)
(0.502505 0.00196819 0)
(0.502096 0.00298631 0)
(0.501628 0.00376982 0)
(0.501135 0.00430981 0)
(0.500645 0.00461058 0)
(0.500188 0.00468595 0)
(0.499765 0.00456908 0)
(0.499357 0.00424952 0)
(0.498984 0.0037538 0)
(0.498649 0.00309946 0)
(0.500055 -0.00489053 0)
(0.500502 -0.00461929 0)
(0.500932 -0.004117 0)
(0.50129 -0.00343328 0)
(0.501556 -0.00261649 0)
(0.501722 -0.00171896 0)
(0.501784 -0.000794573 0)
(0.501748 0.000101604 0)
(0.501624 0.000931456 0)
(0.501426 0.00165628 0)
(0.501175 0.0022498 0)
(0.500887 0.00269587 0)
(0.500582 0.00298716 0)
(0.500275 0.00312299 0)
(0.499984 0.00311622 0)
(0.49969 0.00296788 0)
(0.49939 0.00266698 0)
(0.499101 0.00223005 0)
(0.49881 0.00165246 0)
(0.498503 0.000925833 0)
(0.498177 3.82449e-05 0)
(0.49783 -0.0010182 0)
(0.497473 -0.00225276 0)
(0.497128 -0.00366073 0)
(0.496831 -0.00521873 0)
(0.496626 -0.00687958 0)
(0.496566 -0.00856961 0)
(0.496696 -0.0101893 0)
(0.49705 -0.0116267 0)
(0.497643 -0.0127596 0)
(0.498457 -0.0134781 0)
(0.499411 -0.0137124 0)
(0.500464 -0.0134454 0)
(0.501612 -0.0125924 0)
(0.502721 -0.0112075 0)
(0.503649 -0.00939041 0)
(0.504337 -0.00726305 0)
(0.504756 -0.00495896 0)
(0.504893 -0.00261439 0)
(0.504758 -0.000363263 0)
(0.504391 0.00170324 0)
(0.503842 0.00349357 0)
(0.503159 0.00495095 0)
(0.5024 0.00604588 0)
(0.501615 0.00677168 0)
(0.500846 0.00713933 0)
(0.500138 0.00717797 0)
(0.499477 0.00692855 0)
(0.498842 0.00637315 0)
(0.498269 0.0055627 0)
(0.497745 0.00451268 0)
(0.500275 -0.00755621 0)
(0.50101 -0.0070185 0)
(0.501685 -0.0061415 0)
(0.502228 -0.0050049 0)
(0.502617 -0.0036858 0)
(0.502842 -0.00226688 0)
(0.502897 -0.000829868 0)
(0.502795 0.00054208 0)
(0.50256 0.00178973 0)
(0.502215 0.00286287 0)
(0.501792 0.00372529 0)
(0.501319 0.00435614 0)
(0.500825 0.0047476 0)
(0.500338 0.00490137 0)
(0.499873 0.00484363 0)
(0.4994 0.00456018 0)
(0.498925 0.00405073 0)
(0.498469 0.00333208 0)
(0.498001 0.00239557 0)
(0.497504 0.00122668 0)
(0.496975 -0.000193662 0)
(0.496417 -0.00187667 0)
(0.495846 -0.00383257 0)
(0.495308 -0.00604629 0)
(0.494863 -0.00847076 0)
(0.494588 -0.0110204 0)
(0.494567 -0.0135679 0)
(0.494867 -0.0159549 0)
(0.495535 -0.0180028 0)
(0.49658 -0.0195321 0)
(0.497947 -0.0203878 0)
(0.499505 -0.0205221 0)
(0.501227 -0.0198274 0)
(0.503043 -0.0182885 0)
(0.504715 -0.0159931 0)
(0.506073 -0.0131105 0)
(0.507034 -0.00982881 0)
(0.507562 -0.00634924 0)
(0.507646 -0.00286961 0)
(0.50733 0.000418912 0)
(0.506676 0.00338721 0)
(0.505752 0.00591985 0)
(0.504647 0.00794432 0)
(0.503448 0.00942723 0)
(0.502228 0.0103668 0)
(0.50105 0.0107851 0)
(0.499976 0.0107378 0)
(0.498959 0.0102579 0)
(0.49799 0.00933511 0)
(0.497123 0.00804656 0)
(0.496314 0.00640073 0)
(0.500747 -0.0113337 0)
(0.501919 -0.0103431 0)
(0.502947 -0.00887599 0)
(0.503745 -0.00704863 0)
(0.504293 -0.00498306 0)
(0.504577 -0.0028064 0)
(0.504592 -0.000644063 0)
(0.504366 0.00139804 0)
(0.503944 0.00322809 0)
(0.503362 0.00477557 0)
(0.502667 0.00599397 0)
(0.501909 0.0068587 0)
(0.501127 0.00736327 0)
(0.500371 0.00751418 0)
(0.499642 0.00735393 0)
(0.498896 0.00684687 0)
(0.498161 0.00600998 0)
(0.497446 0.00485624 0)
(0.496704 0.00337107 0)
(0.495913 0.0015308 0)
(0.495072 -0.000690092 0)
(0.494189 -0.00331651 0)
(0.493301 -0.00634479 0)
(0.492487 -0.00973794 0)
(0.491853 -0.0134062 0)
(0.491524 -0.0171998 0)
(0.491626 -0.0209079 0)
(0.492255 -0.0242891 0)
(0.493466 -0.0270719 0)
(0.495251 -0.02901 0)
(0.497461 -0.0299038 0)
(0.499966 -0.0297387 0)
(0.502693 -0.0283102 0)
(0.505441 -0.0256773 0)
(0.507894 -0.022036 0)
(0.509808 -0.0176314 0)
(0.511093 -0.0127427 0)
(0.511709 -0.00766002 0)
(0.511654 -0.00265872 0)
(0.511011 0.00200002 0)
(0.50989 0.00613754 0)
(0.508397 0.00961481 0)
(0.506665 0.0123432 0)
(0.504821 0.0142877 0)
(0.502972 0.015456 0)
(0.501216 0.0158861 0)
(0.49961 0.0156714 0)
(0.498074 0.0148145 0)
(0.496629 0.0133474 0)
(0.495333 0.0113493 0)
(0.494099 0.00882921 0)
(0.501677 -0.0164625 0)
(0.503465 -0.014751 0)
(0.504979 -0.0123897 0)
(0.50612 -0.00955185 0)
(0.506857 -0.00642043 0)
(0.507179 -0.00318175 0)
(0.507098 -2.07876e-05 0)
(0.506665 0.00292917 0)
(0.505936 0.00553393 0)
(0.50498 0.00770047 0)
(0.503874 0.00937073 0)
(0.502688 0.0105169 0)
(0.50148 0.0111361 0)
(0.500328 0.0112461 0)
(0.499205 0.0108988 0)
(0.498055 0.0100364 0)
(0.496934 0.00870002 0)
(0.495829 0.00689347 0)
(0.494674 0.00459098 0)
(0.493441 0.00175645 0)
(0.492125 -0.00164435 0)
(0.490758 -0.00563941 0)
(0.489419 -0.0102043 0)
(0.488239 -0.0152556 0)
(0.487392 -0.0206289 0)
(0.487076 -0.026071 0)
(0.487466 -0.031258 0)
(0.488691 -0.0358278 0)
(0.490802 -0.0394064 0)
(0.493736 -0.0416628 0)
(0.497208 -0.0424488 0)
(0.501088 -0.0415995 0)
(0.505277 -0.0389849 0)
(0.509305 -0.0347648 0)
(0.512748 -0.0292379 0)
(0.515354 -0.0227618 0)
(0.516992 -0.015736 0)
(0.517634 -0.00856526 0)
(0.517289 -0.00164955 0)
(0.516118 0.00476075 0)
(0.514286 0.0103721 0)
(0.511954 0.0150091 0)
(0.509318 0.018576 0)
(0.506559 0.0210431 0)
(0.503825 0.022433 0)
(0.501264 0.0228048 0)
(0.498903 0.0222947 0)
(0.496633 0.0208673 0)
(0.494522 0.018608 0)
(0.492601 0.0155894 0)
(0.49075 0.0118216 0)
(0.503338 -0.0230954 0)
(0.505981 -0.0202991 0)
(0.50814 -0.0166499 0)
(0.50971 -0.0123986 0)
(0.510658 -0.00780823 0)
(0.510971 -0.00314038 0)
(0.510699 0.00134984 0)
(0.509918 0.00547589 0)
(0.508713 0.00906927 0)
(0.507197 0.0120114 0)
(0.505482 0.0142308 0)
(0.503673 0.0156967 0)
(0.501855 0.0164106 0)
(0.500132 0.0164198 0)
(0.498431 0.0157543 0)
(0.496696 0.0143508 0)
(0.495016 0.0122772 0)
(0.493334 0.00951679 0)
(0.491564 0.00602943 0)
(0.489674 0.00176419 0)
(0.48767 -0.0033199 0)
(0.485621 -0.00923154 0)
(0.483674 -0.0159073 0)
(0.482049 -0.0231788 0)
(0.481022 -0.0307606 0)
(0.480878 -0.0382475 0)
(0.48185 -0.0451791 0)
(0.484086 -0.0510342 0)
(0.487611 -0.0553438 0)
(0.492188 -0.057721 0)
(0.497503 -0.0580788 0)
(0.503407 -0.0560431 0)
(0.509503 -0.0517004 0)
(0.515163 -0.0452996 0)
(0.51987 -0.0372646 0)
(0.523283 -0.0281041 0)
(0.525264 -0.0183602 0)
(0.525772 -0.00857681 0)
(0.524964 0.000732952 0)
(0.523022 0.00923784 0)
(0.520131 0.0165902 0)
(0.516597 0.0225773 0)
(0.512696 0.0270931 0)
(0.508676 0.0301158 0)
(0.504732 0.031686 0)
(0.501075 0.0318935 0)
(0.49767 0.0309013 0)
(0.494383 0.0286511 0)
(0.491346 0.0252685 0)
(0.488539 0.020827 0)
(0.485804 0.0153303 0)
(0.50612 -0.0311844 0)
(0.509884 -0.0268728 0)
(0.512864 -0.0214647 0)
(0.51495 -0.0153281 0)
(0.516105 -0.00883193 0)
(0.516323 -0.00233132 0)
(0.515708 0.00384518 0)
(0.51438 0.00944357 0)
(0.512468 0.0142541 0)
(0.510139 0.0181304 0)
(0.507557 0.0209876 0)
(0.504866 0.0227936 0)
(0.502201 0.0235553 0)
(0.499669 0.0233645 0)
(0.497134 0.0221934 0)
(0.494574 0.020003 0)
(0.492095 0.0168713 0)
(0.489575 0.0127568 0)
(0.486913 0.00760263 0)
(0.484085 0.001347 0)
(0.481117 -0.00604073 0)
(0.478154 -0.014529 0)
(0.475453 -0.0239643 0)
(0.473364 -0.0340395 0)
(0.4723 -0.0442872 0)
(0.472632 -0.0541271 0)
(0.474652 -0.0629086 0)
(0.478496 -0.0699848 0)
(0.484081 -0.0747846 0)
(0.490963 -0.0770303 0)
(0.498845 -0.0764055 0)
(0.507419 -0.0726432 0)
(0.515968 -0.065951 0)
(0.523689 -0.0567221 0)
(0.529891 -0.0455344 0)
(0.534207 -0.0330584 0)
(0.536473 -0.0200196 0)
(0.536677 -0.00710839 0)
(0.535089 0.0050547 0)
(0.531964 0.0159678 0)
(0.527619 0.0252878 0)
(0.522454 0.0327739 0)
(0.516855 0.0383089 0)
(0.511151 0.041877 0)
(0.505601 0.0435407 0)
(0.500477 0.043431 0)
(0.495656 0.0417189 0)
(0.490993 0.0383117 0)
(0.486687 0.0333938 0)
(0.482648 0.0270243 0)
(0.478682 0.0192079 0)
(0.5105 -0.0405061 0)
(0.515646 -0.034146 0)
(0.519653 -0.0264514 0)
(0.522319 -0.0179153 0)
(0.523634 -0.00904121 0)
(0.523623 -0.000312153 0)
(0.522461 0.00792141 0)
(0.520319 0.0152925 0)
(0.517395 0.0215401 0)
(0.513927 0.0264925 0)
(0.510143 0.0300538 0)
(0.506239 0.0321918 0)
(0.502423 0.0329202 0)
(0.498767 0.0323749 0)
(0.495065 0.0304542 0)
(0.491367 0.0271544 0)
(0.48776 0.0225491 0)
(0.484053 0.0165718 0)
(0.480138 0.00915107 0)
(0.476021 0.0002301 0)
(0.471771 -0.0101774 0)
(0.467668 -0.021951 0)
(0.464132 -0.0347795 0)
(0.461695 -0.0481491 0)
(0.460902 -0.0613623 0)
(0.462222 -0.073646 0)
(0.465955 -0.0841683 0)
(0.472165 -0.0922026 0)
(0.480509 -0.0971468 0)
(0.490501 -0.0988423 0)
(0.50181 -0.0966445 0)
(0.513767 -0.0905959 0)
(0.525328 -0.0809491 0)
(0.535484 -0.0682679 0)
(0.54344 -0.0532822 0)
(0.548709 -0.0368864 0)
(0.551135 -0.0200189 0)
(0.550743 -0.00360377 0)
(0.547997 0.0117665 0)
(0.543235 0.0254024 0)
(0.536931 0.0368822 0)
(0.529619 0.0459614 0)
(0.521804 0.0525292 0)
(0.513914 0.0565814 0)
(0.506289 0.0581984 0)
(0.499253 0.0575651 0)
(0.492545 0.0548229 0)
(0.486045 0.0498512 0)
(0.480038 0.042899 0)
(0.474324 0.0340014 0)
(0.468701 0.0231829 0)
(0.51699 -0.0505359 0)
(0.523848 -0.0415757 0)
(0.529035 -0.0310372 0)
(0.532314 -0.0195827 0)
(0.533667 -0.00785859 0)
(0.533268 0.00352613 0)
(0.531298 0.0141234 0)
(0.52799 0.0235053 0)
(0.523664 0.0313618 0)
(0.518651 0.0374913 0)
(0.513256 0.0417842 0)
(0.507731 0.0442046 0)
(0.502382 0.0447727 0)
(0.497199 0.0436615 0)
(0.491905 0.0406795 0)
(0.486656 0.0358658 0)
(0.481494 0.029273 0)
(0.476152 0.0208202 0)
(0.470541 0.0104363 0)
(0.464726 -0.00189514 0)
(0.458893 -0.0160604 0)
(0.453506 -0.0317685 0)
(0.449211 -0.0484743 0)
(0.446743 -0.0653898 0)
(0.446769 -0.0815979 0)
(0.44979 -0.0961257 0)
(0.456048 -0.108062 0)
(0.465451 -0.116618 0)
(0.477349 -0.121452 0)
(0.491347 -0.121935 0)
(0.506945 -0.117764 0)
(0.522953 -0.108934 0)
(0.538131 -0.0957838 0)
(0.551192 -0.0790927 0)
(0.561113 -0.0597094 0)
(0.567325 -0.0388055 0)
(0.569632 -0.0175907 0)
(0.568403 0.00279217 0)
(0.56405 0.0215774 0)
(0.557065 0.0380396 0)
(0.548183 0.0517216 0)
(0.538118 0.0623725 0)
(0.527498 0.0698937 0)
(0.516842 0.0742942 0)
(0.506601 0.0756545 0)
(0.49711 0.0742354 0)
(0.487938 0.0700589 0)
(0.479048 0.0630616 0)
(0.4708 0.0534948 0)
(0.462878 0.041404 0)
(0.455116 0.0268618 0)
(0.52615 -0.0605367 0)
(0.535007 -0.0484543 0)
(0.541544 -0.0345352 0)
(0.545417 -0.019665 0)
(0.546652 -0.00466806 0)
(0.545576 0.00973142 0)
(0.542423 0.0229354 0)
(0.53755 0.0344935 0)
(0.53138 0.0440602 0)
(0.524353 0.0514054 0)
(0.516862 0.0564007 0)
(0.509232 0.0590006 0)
(0.501881 0.0592329 0)
(0.49467 0.0572807 0)
(0.487256 0.0528472 0)
(0.479936 0.0460337 0)
(0.472679 0.0368558 0)
(0.465169 0.0252385 0)
(0.457368 0.0111526 0)
(0.449461 -0.00530427 0)
(0.441828 -0.0238599 0)
(0.435191 -0.0439424 0)
(0.430464 -0.0646988 0)
(0.428542 -0.0850671 0)
(0.430147 -0.10397 0)
(0.435732 -0.12031 0)
(0.44541 -0.13318 0)
(0.458681 -0.141901 0)
(0.475048 -0.146213 0)
(0.493989 -0.145166 0)
(0.514565 -0.138712 0)
(0.535475 -0.126788 0)
(0.554895 -0.109852 0)
(0.571291 -0.0886086 0)
(0.583466 -0.0641898 0)
(0.590592 -0.0381346 0)
(0.592474 -0.0120716 0)
(0.58986 0.0126578 0)
(0.583219 0.0349664 0)
(0.573389 0.0542092 0)
(0.561302 0.0699788 0)
(0.547847 0.0820409 0)
(0.533788 0.0903106 0)
(0.519731 0.0948158 0)
(0.506274 0.0956204 0)
(0.493684 0.0930625 0)
(0.481371 0.0870001 0)
(0.469447 0.0774507 0)
(0.458314 0.0646448 0)
(0.447595 0.0486865 0)
(0.43722 0.029768 0)
(0.538459 -0.0698244 0)
(0.54966 -0.0540655 0)
(0.557662 -0.0362429 0)
(0.562048 -0.0175075 0)
(0.562938 0.00104995 0)
(0.560798 0.0186825 0)
(0.556026 0.0346717 0)
(0.549107 0.0484985 0)
(0.540585 0.0597979 0)
(0.53101 0.0683171 0)
(0.520872 0.0739121 0)
(0.510581 0.0765139 0)
(0.500671 0.0761991 0)
(0.490812 0.073046 0)
(0.480637 0.0667033 0)
(0.470621 0.057335 0)
(0.460634 0.0449294 0)
(0.450363 0.0294519 0)
(0.439909 0.0109841 0)
(0.429607 -0.0101745 0)
(0.420155 -0.0334649 0)
(0.412597 -0.0579746 0)
(0.408058 -0.0825379 0)
(0.407482 -0.105935 0)
(0.41155 -0.126955 0)
(0.420585 -0.144576 0)
(0.43441 -0.157948 0)
(0.452287 -0.166761 0)
(0.473855 -0.170044 0)
(0.498509 -0.167556 0)
(0.524908 -0.158946 0)
(0.551358 -0.144012 0)
(0.575835 -0.123045 0)
(0.596386 -0.0966488 0)
(0.611138 -0.0663465 0)
(0.619044 -0.0343533 0)
(0.619973 -0.00303775 0)
(0.615206 0.0261944 0)
(0.605514 0.0520738 0)
(0.592096 0.0739806 0)
(0.576102 0.0915895 0)
(0.558573 0.104746 0)
(0.540407 0.113412 0)
(0.522277 0.117637 0)
(0.504946 0.117476 0)
(0.488551 0.113329 0)
(0.472335 0.104874 0)
(0.456638 0.0921976 0)
(0.441923 0.0755543 0)
(0.427836 0.0551665 0)
(0.414461 0.0314188 0)
(0.554449 -0.0778819 0)
(0.568338 -0.0578725 0)
(0.577848 -0.0355518 0)
(0.582473 -0.0124996 0)
(0.582762 0.00996836 0)
(0.579129 0.030899 0)
(0.572216 0.0496267 0)
(0.56269 0.0656358 0)
(0.551239 0.0785452 0)
(0.538521 0.0880789 0)
(0.525115 0.0940641 0)
(0.511565 0.0964025 0)
(0.498443 0.0952502 0)
(0.48518 0.0904426 0)
(0.471511 0.0816915 0)
(0.458088 0.0691931 0)
(0.444683 0.0529347 0)
(0.431076 0.0330153 0)
(0.417606 0.00969674 0)
(0.404854 -0.0164008 0)
(0.393906 -0.0443352 0)
(0.38607 -0.0728718 0)
(0.382541 -0.100636 0)
(0.384224 -0.126356 0)
(0.391623 -0.148882 0)
(0.404816 -0.167312 0)
(0.423198 -0.181031 0)
(0.446405 -0.189671 0)
(0.473872 -0.192361 0)
(0.504516 -0.189081 0)
(0.537343 -0.178859 0)
(0.570435 -0.161269 0)
(0.601267 -0.136072 0)
(0.627028 -0.103719 0)
(0.64487 -0.0661846 0)
(0.653139 -0.0270641 0)
(0.652739 0.0104402 0)
(0.644742 0.0442818 0)
(0.630955 0.0734733 0)
(0.612999 0.0976145 0)
(0.592263 0.116523 0)
(0.569917 0.130162 0)
(0.546942 0.138608 0)
(0.524037 0.141944 0)
(0.502158 0.140255 0)
(0.481207 0.133952 0)
(0.460265 0.122516 0)
(0.44004 0.106164 0)
(0.421095 0.085234 0)
(0.403189 0.0601433 0)
(0.386672 0.0314869 0)
(0.574541 -0.0847131 0)
(0.591637 -0.0596414 0)
(0.602628 -0.0320571 0)
(0.607093 -0.00420296 0)
(0.606138 0.0223905 0)
(0.60037 0.0465852 0)
(0.590759 0.0678563 0)
(0.578084 0.0858028 0)
(0.563128 0.100042 0)
(0.546651 0.110279 0)
(0.529318 0.116309 0)
(0.51187 0.118001 0)
(0.494782 0.11558 0)
(0.477274 0.108625 0)
(0.459337 0.0969438 0)
(0.441742 0.0807747 0)
(0.424266 0.0601979 0)
(0.406884 0.0354977 0)
(0.390297 0.0072687 0)
(0.375366 -0.0235027 0)
(0.363567 -0.0555084 0)
(0.356327 -0.0872777 0)
(0.354748 -0.11742 0)
(0.359507 -0.144721 0)
(0.370875 -0.168191 0)
(0.388628 -0.187176 0)
(0.412048 -0.201521 0)
(0.440653 -0.210298 0)
(0.473762 -0.213202 0)
(0.51089 -0.210351 0)
(0.550912 -0.199665 0)
(0.591695 -0.180064 0)
(0.630515 -0.150628 0)
(0.663379 -0.111058 0)
(0.685338 -0.064096 0)
(0.69357 -0.0160145 0)