/*--------------------------------*- C++ -*----------------------------------*\
  =========                 |
  \\      /  F ield         | OpenFOAM: The Open Source CFD Toolbox
   \\    /   O peration     | Website:  https://openfoam.org
    \\  /    A nd           | Version:  10
     \\/     M anipulation  |
\*---------------------------------------------------------------------------*/
FoamFile
{
    format      ascii;
    class       volScalarField;
    location    "0.649362";
    object      p;
}
// * * * * * * * * * * * * * * * * * * * * * * * * * * * * * * * * * * * * * //

dimensions      [1 -1 -2 0 0 0 0];

internalField   nonuniform List<scalar> 
16320
(
0.980796
0.976291
0.972136
0.968625
0.964722
0.964692
0.962635
0.961284
0.958187
0.954296
0.949195
0.940983
0.930905
0.919584
0.908498
0.898515
0.89025
0.883495
0.877609
0.872174
0.865832
0.858178
0.849071
0.838643
0.827391
0.815747
0.805822
0.796255
0.788001
0.780996
0.776205
0.771009
0.767368
0.988002
0.983282
0.979351
0.975688
0.97251
0.969881
0.970016
0.96827
0.967122
0.963876
0.961215
0.955627
0.949413
0.941031
0.932831
0.925387
0.918717
0.91279
0.906986
0.900978
0.893438
0.883989
0.872618
0.859569
0.844654
0.831315
0.81847
0.806488
0.79639
0.787324
0.780864
0.774165
0.769307
0.9973
0.993518
0.988965
0.985456
0.982826
0.980751
0.979068
0.980497
0.979458
0.978819
0.977301
0.974579
0.971018
0.965009
0.958711
0.952519
0.946583
0.940603
0.934181
0.926956
0.917845
0.906414
0.892716
0.877032
0.859899
0.844196
0.828876
0.815022
0.803134
0.793248
0.783965
0.776334
0.770391
1.00668
1.00325
0.999704
0.99618
0.993808
0.992559
0.992371
0.992488
0.995489
0.99633
0.99656
0.996248
0.993987
0.990569
0.984813
0.978872
0.972495
0.965754
0.958103
0.9491
0.938145
0.924791
0.909102
0.890886
0.872742
0.85445
0.837379
0.822202
0.808971
0.796801
0.78647
0.777891
0.770966
1.01216
1.01013
1.0078
1.00527
1.00367
1.0032
1.00421
1.00695
1.01022
1.01418
1.01678
1.01764
1.01667
1.01489
1.00978
1.00324
0.99558
0.987214
0.977878
0.967065
0.954286
0.939255
0.921698
0.902562
0.882431
0.863119
0.844596
0.828103
0.81297
0.799549
0.78826
0.778959
0.771621
1.01386
1.01318
1.01133
1.00952
1.00889
1.00976
1.01284
1.01798
1.0243
1.03051
1.0349
1.03731
1.03717
1.03574
1.03075
1.02335
1.01452
1.00435
0.99336
0.980899
0.966557
0.950165
0.931504
0.911216
0.890428
0.869825
0.85043
0.832181
0.815783
0.8015
0.789463
0.779621
0.772505
1.00835
1.00994
1.0103
1.00992
1.00956
1.01148
1.01659
1.02415
1.03316
1.04206
1.04898
1.05258
1.05306
1.05107
1.04675
1.03854
1.02861
1.01725
1.00461
0.990791
0.975236
0.957957
0.938444
0.91746
0.896244
0.875103
0.854444
0.83517
0.817909
0.802883
0.790446
0.781016
0.771778
0.99763
1.00023
1.00233
1.00358
1.00507
1.00908
1.01548
1.02546
1.03568
1.04701
1.05574
1.06094
1.06214
1.06028
1.05667
1.04854
1.03786
1.02566
1.01197
0.997189
0.980842
0.962764
0.942748
0.922356
0.90037
0.878535
0.857128
0.837312
0.819415
0.804119
0.792194
0.780827
0.772709
0.979452
0.982839
0.98613
0.989043
0.992626
0.997897
1.00611
1.01877
1.03324
1.04392
1.0556
1.06298
1.06567
1.06464
1.06084
1.05335
1.0424
1.02979
1.01574
1.00045
0.983731
0.965508
0.946043
0.924459
0.902747
0.880454
0.858914
0.838816
0.820838
0.806273
0.792537
0.782258
0.773703
0.958499
0.96104
0.9644
0.96833
0.973119
0.979722
0.989733
1.00331
1.02041
1.03765
1.04774
1.05787
1.06225
1.06219
1.05916
1.05272
1.0423
1.02996
1.01616
1.00088
0.984204
0.965991
0.946227
0.925377
0.903607
0.8814
0.860163
0.840345
0.82282
0.807017
0.794632
0.783754
0.774998
0.939135
0.93898
0.940119
0.942736
0.947571
0.954925
0.965858
0.980734
0.9987
1.01799
1.03266
1.04454
1.05157
1.05376
1.05229
1.04744
1.0385
1.02724
1.01417
0.999339
0.982966
0.96508
0.945642
0.925129
0.903668
0.882271
0.861856
0.841392
0.824414
0.809548
0.796905
0.78585
0.776096
0.921034
0.917635
0.914757
0.914795
0.917736
0.924586
0.935698
0.951153
0.969904
0.990477
1.00937
1.0223
1.03305
1.03838
1.03916
1.03659
1.03017
1.02054
1.0091
0.995354
0.979878
0.962804
0.94426
0.924404
0.903787
0.882313
0.862156
0.843685
0.826883
0.812161
0.79931
0.788184
0.776946
0.9047
0.896684
0.890207
0.886921
0.887274
0.891554
0.901103
0.91636
0.935585
0.956942
0.978837
0.995884
1.01009
1.01885
1.02274
1.02271
1.01884
1.01136
1.00097
0.988744
0.974606
0.958671
0.941146
0.922253
0.902663
0.883081
0.863655
0.846103
0.829375
0.814706
0.801827
0.790634
0.779031
0.88956
0.877918
0.868314
0.862269
0.85891
0.859658
0.866016
0.879881
0.898923
0.921337
0.945485
0.967606
0.984976
0.997704
1.00508
1.0082
1.00678
1.00192
0.993842
0.983307
0.970508
0.955741
0.939249
0.921455
0.902721
0.884266
0.865458
0.848108
0.832208
0.816396
0.804511
0.791873
0.779785
0.876649
0.8619
0.849253
0.837883
0.831519
0.830233
0.834129
0.84539
0.863984
0.887368
0.91367
0.939796
0.961097
0.977702
0.988836
0.995058
0.996294
0.993916
0.987968
0.978994
0.967473
0.953721
0.938108
0.921372
0.903307
0.88501
0.867848
0.850942
0.834449
0.819437
0.80465
0.792068
0.779809
0.867741
0.850083
0.832909
0.81916
0.809522
0.804739
0.806028
0.81602
0.834234
0.8587
0.886697
0.916024
0.94133
0.961372
0.975771
0.985106
0.989188
0.988709
0.984827
0.977202
0.966618
0.953536
0.938341
0.921911
0.904773
0.886906
0.869253
0.852748
0.836182
0.819414
0.805164
0.792115
0.780362
0.863877
0.843196
0.823603
0.806843
0.793426
0.785796
0.785078
0.7934
0.811781
0.838245
0.867712
0.899553
0.92798
0.950461
0.967638
0.979671
0.986374
0.987902
0.985299
0.978504
0.968324
0.95517
0.940306
0.924324
0.907003
0.888085
0.871101
0.852479
0.835154
0.819286
0.804309
0.791975
0.781243
0.862756
0.83992
0.820492
0.801964
0.785978
0.776014
0.773294
0.779754
0.798769
0.825939
0.857079
0.890419
0.92095
0.945511
0.964853
0.978987
0.987362
0.990205
0.988537
0.982702
0.972722
0.959678
0.944371
0.927719
0.908912
0.890929
0.870697
0.852025
0.834362
0.817792
0.804358
0.792494
0.781816
0.86517
0.84116
0.821479
0.802421
0.785558
0.775214
0.772361
0.778547
0.796944
0.823666
0.85526
0.889106
0.920333
0.945797
0.96601
0.981277
0.991453
0.996265
0.995846
0.990878
0.981038
0.967028
0.949991
0.93198
0.912049
0.890434
0.869898
0.850724
0.832139
0.817464
0.804439
0.792711
0.781961
0.870784
0.847306
0.829464
0.812768
0.797239
0.787899
0.785148
0.790524
0.805581
0.829778
0.85997
0.892573
0.9228
0.94867
0.970131
0.986889
0.998913
1.00552
1.00655
1.00242
0.992574
0.976619
0.959407
0.937377
0.914225
0.891181
0.869131
0.848072
0.831883
0.817191
0.804013
0.792333
0.781534
0.878205
0.859777
0.842939
0.830298
0.817882
0.810584
0.808586
0.812894
0.825395
0.84561
0.871695
0.901418
0.929106
0.9544
0.976257
0.993656
1.00662
1.01487
1.01787
1.01534
1.00635
0.991652
0.969729
0.944968
0.918997
0.891217
0.868197
0.848679
0.831378
0.816063
0.802645
0.790888
0.78019
0.887355
0.876716
0.861349
0.853115
0.846054
0.841023
0.839803
0.8425
0.852099
0.867757
0.888821
0.913132
0.9369
0.959962
0.98069
0.9986
1.01281
1.0229
1.02808
1.02905
1.02105
1.00597
0.983115
0.953848
0.922138
0.895337
0.870188
0.848155
0.82928
0.813301
0.799665
0.788322
0.777863
0.899894
0.8926
0.88548
0.87949
0.8762
0.874535
0.8738
0.875291
0.881583
0.891871
0.906868
0.925158
0.944679
0.964599
0.983649
1.00095
1.01598
1.02824
1.03685
1.0398
1.03563
1.02209
0.994852
0.963739
0.931019
0.899275
0.86983
0.845095
0.825823
0.809574
0.795925
0.783874
0.773623
0.913274
0.910568
0.908809
0.907274
0.907055
0.90661
0.906464
0.907114
0.910553
0.916274
0.92563
0.937994
0.952775
0.969008
0.985604
1.00221
1.01865
1.03231
1.04216
1.04786
1.04577
1.03209
1.00904
0.976529
0.938033
0.900174
0.868534
0.841443
0.81879
0.801707
0.788443
0.777443
0.767801
0.928108
0.929915
0.93278
0.93563
0.935423
0.937204
0.937957
0.937566
0.938292
0.940217
0.944643
0.951893
0.962387
0.975731
0.990495
1.0053
1.02041
1.03446
1.0459
1.05144
1.05145
1.04248
1.02052
0.985435
0.94468
0.901341
0.862192
0.831709
0.808716
0.791971
0.779405
0.769177
0.759979
0.943173
0.948559
0.9552
0.961577
0.964692
0.965491
0.966206
0.965116
0.963617
0.963509
0.965088
0.969068
0.975631
0.984811
0.996414
1.0096
1.02362
1.03642
1.04697
1.0545
1.05681
1.04962
1.03001
0.994971
0.946105
0.896061
0.852369
0.819668
0.796544
0.780245
0.76827
0.75854
0.749534
0.957302
0.966001
0.975085
0.983975
0.989098
0.991383
0.992144
0.99036
0.98731
0.985213
0.984501
0.985524
0.989205
0.995865
1.00491
1.01534
1.02704
1.03923
1.04957
1.05687
1.06017
1.05634
1.03691
0.998549
0.944559
0.887817
0.840089
0.805482
0.78217
0.766305
0.754751
0.745052
0.735786
0.970731
0.981316
0.992729
1.00318
1.00955
1.01197
1.01257
1.01088
1.0075
1.00416
1.00211
1.00135
1.00249
1.00649
1.0131
1.02204
1.03208
1.04252
1.05222
1.06034
1.06511
1.06174
1.04254
1.0007
0.940337
0.876928
0.825234
0.789007
0.765569
0.74973
0.738163
0.728364
0.718859
0.980953
0.994592
1.00709
1.0175
1.02449
1.02739
1.02808
1.02616
1.02256
1.01866
1.01552
1.01407
1.0141
1.01663
1.02155
1.02846
1.03698
1.04636
1.05603
1.06439
1.07024
1.06805
1.04798
1.00109
0.933176
0.86319
0.807516
0.770549
0.746334
0.730763
0.718776
0.708253
0.696582
0.989644
1.00448
1.01757
1.02815
1.03538
1.03844
1.03897
1.03678
1.03307
1.02901
1.02565
1.02388
1.0234
1.025
1.02889
1.03474
1.04251
1.05154
1.06143
1.07092
1.07784
1.07582
1.05294
1.00068
0.923783
0.847656
0.788476
0.750326
0.725958
0.709412
0.696246
0.683462
0.670321
0.995805
1.01095
1.02437
1.03491
1.04186
1.04543
1.04587
1.04361
1.03998
1.03619
1.03298
1.03124
1.03073
1.03193
1.03551
1.04109
1.04869
1.05831
1.06918
1.08001
1.08751
1.0858
1.05997
1.00021
0.914535
0.831899
0.769775
0.728954
0.703281
0.685469
0.670694
0.656436
0.642622
1.00025
1.01529
1.02826
1.03842
1.04519
1.04872
1.04914
1.04708
1.04427
1.04113
1.03831
1.03686
1.03659
1.03814
1.04192
1.04785
1.05612
1.06695
1.07929
1.09174
1.10032
1.09859
1.07003
1.00241
0.908288
0.817193
0.749677
0.705627
0.678584
0.65944
0.6436
0.629405
0.616968
1.00412
1.01873
1.03058
1.03965
1.04589
1.04897
1.05005
1.0489
1.04701
1.04445
1.04237
1.04157
1.04156
1.04395
1.04833
1.05496
1.06481
1.07701
1.09126
1.10575
1.11587
1.11468
1.08401
1.00999
0.904462
0.801263
0.727402
0.680363
0.651709
0.631667
0.616193
0.60388
0.594048
1.0077
1.02124
1.03221
1.04001
1.045
1.04813
1.04908
1.04893
1.04784
1.04643
1.04532
1.04521
1.04597
1.0492
1.05445
1.06239
1.07371
1.08753
1.10377
1.12052
1.13266
1.13446
1.10305
1.02411
0.903617
0.784918
0.704202
0.657068
0.627118
0.605406
0.589265
0.579116
0.57318
1.01076
1.02365
1.0337
1.03989
1.04449
1.0465
1.04789
1.04781
1.04732
1.04684
1.04667
1.04764
1.04931
1.05338
1.0594
1.0693
1.08153
1.09683
1.11471
1.13366
1.14889
1.15407
1.12717
1.04465
0.908905
0.772276
0.673681
0.618493
0.588609
0.569486
0.557958
0.552299
0.550216
1.01403
1.02629
1.03557
1.03977
1.04414
1.0458
1.04589
1.04661
1.04618
1.04614
1.0469
1.04834
1.05099
1.05585
1.06271
1.07385
1.08693
1.10324
1.12214
1.14248
1.16093
1.17065
1.15276
1.07716
0.919163
0.746155
0.635793
0.583492
0.555293
0.5416
0.534104
0.53158
0.531452
1.01748
1.02918
1.03739
1.04083
1.04428
1.04529
1.04469
1.04577
1.04488
1.04477
1.04604
1.04727
1.05072
1.05615
1.06352
1.075
1.08828
1.1047
1.12352
1.14418
1.16448
1.17911
1.17387
1.10423
0.934883
0.738156
0.621611
0.560562
0.535839
0.523561
0.517865
0.515949
0.517636
1.02188
1.03214
1.03954
1.0428
1.0451
1.0454
1.04426
1.04493
1.04363
1.04299
1.04424
1.04513
1.04894
1.05458
1.06207
1.07301
1.08584
1.10151
1.11911
1.13844
1.15802
1.17231
1.17014
1.11648
0.964794
0.763372
0.62696
0.55987
0.527325
0.51408
0.508725
0.507204
0.509588
1.02534
1.03426
1.04156
1.04502
1.04659
1.04626
1.04451
1.04379
1.04177
1.04063
1.04127
1.04184
1.04535
1.05038
1.05777
1.06706
1.07843
1.09185
1.10653
1.1223
1.13774
1.14862
1.1459
1.10397
0.989715
0.815119
0.6661
0.57876
0.535433
0.515876
0.507436
0.504738
0.505735
1.0278
1.03562
1.04354
1.04682
1.04788
1.04704
1.0449
1.04273
1.04016
1.03851
1.0376
1.03757
1.0396
1.04292
1.04877
1.05555
1.0641
1.07432
1.08448
1.09466
1.10319
1.10691
1.09865
1.06352
0.984624
0.861587
0.727677
0.622686
0.558649
0.52618
0.511582
0.506031
0.504923
1.02856
1.03618
1.04412
1.04704
1.04762
1.04638
1.04374
1.04051
1.037
1.0339
1.03166
1.03083
1.03101
1.0325
1.03512
1.03888
1.04382
1.04964
1.05526
1.05983
1.0619
1.05852
1.04466
1.01358
0.958542
0.87739
0.776938
0.675666
0.596858
0.548042
0.522756
0.511407
0.507489
1.02701
1.0346
1.04202
1.04442
1.04455
1.0429
1.03975
1.03529
1.0306
1.02628
1.02272
1.02038
1.01833
1.0168
1.01609
1.01634
1.01731
1.0188
1.0198
1.01962
1.01669
1.00869
0.992638
0.965836
0.92646
0.871908
0.800886
0.717686
0.638428
0.578631
0.542049
0.522533
0.513634
1.02288
1.03013
1.03623
1.03801
1.03747
1.03515
1.03139
1.02652
1.02103
1.0156
1.0102
1.00446
0.999418
0.994803
0.990712
0.987238
0.984367
0.981835
0.978973
0.975066
0.968966
0.958965
0.943671
0.922248
0.894563
0.858768
0.809449
0.745914
0.676056
0.614058
0.569574
0.541364
0.525209
1.01533
1.02302
1.02644
1.02726
1.02564
1.02223
1.01712
1.01073
1.00353
0.996099
0.988774
0.981075
0.973316
0.965835
0.958484
0.951537
0.945305
0.939657
0.933952
0.927606
0.920113
0.910183
0.89729
0.881763
0.863896
0.840107
0.806268
0.759132
0.70293
0.647869
0.60261
0.568216
0.54385
1.0064
1.01185
1.01285
1.01232
1.00916
1.00406
0.99698
0.988365
0.978379
0.969649
0.959887
0.949895
0.940006
0.930082
0.919915
0.909482
0.901104
0.893439
0.88607
0.879207
0.871663
0.863413
0.853605
0.841023
0.827106
0.810854
0.787631
0.754222
0.712374
0.669704
0.63021
0.59578
0.566811
0.995476
0.998774
0.996442
0.993995
0.989059
0.981626
0.972027
0.960713
0.948311
0.935517
0.923385
0.911736
0.900163
0.887904
0.876449
0.866856
0.857662
0.848709
0.841183
0.83342
0.825195
0.816036
0.806497
0.797401
0.787761
0.778242
0.762376
0.738717
0.709605
0.679188
0.649515
0.619411
0.590276
0.983193
0.98435
0.978341
0.973926
0.966848
0.956632
0.944099
0.930169
0.915211
0.899995
0.885262
0.87107
0.856327
0.841944
0.828521
0.816211
0.805027
0.795274
0.786862
0.779283
0.772755
0.76702
0.761158
0.75673
0.752813
0.747032
0.736033
0.719387
0.69941
0.678903
0.658387
0.636102
0.610239
0.970306
0.967319
0.96169
0.953652
0.943798
0.931159
0.91621
0.899407
0.881764
0.863929
0.846511
0.829967
0.814715
0.800417
0.785999
0.772634
0.760494
0.750075
0.741127
0.733642
0.728917
0.725977
0.724213
0.722751
0.720862
0.716605
0.708706
0.697596
0.684972
0.672075
0.658526
0.643012
0.623653
0.958074
0.951895
0.944608
0.933029
0.920908
0.906613
0.890077
0.87203
0.85321
0.834304
0.815886
0.79824
0.781134
0.764791
0.749267
0.735396
0.72325
0.713269
0.705814
0.700956
0.697379
0.69523
0.694062
0.69282
0.691314
0.687929
0.68262
0.675772
0.668476
0.661202
0.653132
0.642952
0.629152
0.946714
0.936858
0.926557
0.91437
0.899876
0.883684
0.866483
0.847643
0.828342
0.809069
0.790337
0.7724
0.755386
0.739159
0.724251
0.710938
0.699444
0.689522
0.68202
0.67653
0.672658
0.6702
0.668507
0.667012
0.665716
0.663283
0.659916
0.65608
0.652229
0.648558
0.644326
0.63817
0.628731
0.933933
0.922433
0.910071
0.896515
0.880693
0.863764
0.845652
0.826662
0.807394
0.788364
0.770019
0.752221
0.735755
0.720519
0.706212
0.693389
0.68225
0.672664
0.665004
0.6591
0.654771
0.65179
0.649511
0.647721
0.645775
0.644294
0.642142
0.639953
0.637851
0.636083
0.634076
0.630683
0.624732
0.920315
0.909189
0.894813
0.879706
0.863427
0.846657
0.828393
0.809011
0.790027
0.771304
0.753299
0.736269
0.720394
0.705804
0.692236
0.680111
0.669393
0.660168
0.652556
0.646501
0.641872
0.638451
0.635931
0.633917
0.632243
0.630806
0.629223
0.627708
0.626559
0.625543
0.624447
0.622221
0.618717
0.90672
0.894873
0.880616
0.864891
0.848251
0.830943
0.812662
0.793973
0.775396
0.75713
0.739539
0.72297
0.707783
0.693767
0.680926
0.669359
0.659084
0.650212
0.642774
0.63673
0.631975
0.628336
0.625595
0.623475
0.621854
0.620624
0.619368
0.618311
0.617452
0.616542
0.615353
0.614402
0.612199
0.891754
0.88108
0.868185
0.851825
0.835047
0.817266
0.799244
0.781101
0.762313
0.745037
0.728177
0.712116
0.697269
0.683697
0.671303
0.66017
0.650338
0.641833
0.634606
0.628638
0.623859
0.620131
0.617277
0.615099
0.613441
0.612149
0.611266
0.610415
0.609697
0.608973
0.608114
0.606869
0.60516
0.875492
0.866846
0.854329
0.840221
0.822989
0.805583
0.787839
0.769852
0.752382
0.734429
0.718198
0.702858
0.688505
0.675368
0.663414
0.652429
0.642926
0.634661
0.627607
0.621737
0.616994
0.613276
0.610407
0.608221
0.606578
0.605392
0.604525
0.603722
0.602995
0.602218
0.60125
0.599996
0.598541
0.858513
0.852046
0.842065
0.828786
0.812358
0.795498
0.777688
0.760112
0.742766
0.72603
0.709563
0.694471
0.680428
0.667653
0.656141
0.646009
0.636815
0.628743
0.621849
0.616109
0.611443
0.607744
0.604848
0.602641
0.600995
0.599814
0.598862
0.598051
0.597243
0.596305
0.595121
0.593811
0.592405
0.840624
0.836242
0.82911
0.81739
0.803642
0.786426
0.769045
0.751737
0.734504
0.717877
0.702224
0.687247
0.673522
0.661059
0.649853
0.639876
0.630994
0.623303
0.616743
0.611265
0.606773
0.603155
0.600286
0.598099
0.596486
0.595355
0.594353
0.59346
0.592442
0.591259
0.589814
0.588267
0.586804
0.821084
0.82011
0.815107
0.806196
0.793449
0.77868
0.761419
0.744026
0.727324
0.710872
0.695423
0.680915
0.667607
0.655499
0.644569
0.634806
0.626243
0.618866
0.612656
0.607496
0.603289
0.599876
0.597211
0.595197
0.593657
0.592541
0.59145
0.590423
0.588986
0.58717
0.585339
0.583213
0.581742
0.8002
0.802213
0.800452
0.794299
0.783987
0.770096
0.753981
0.737381
0.721
0.704941
0.68951
0.675077
0.662288
0.650638
0.640094
0.630695
0.622521
0.615522
0.609735
0.605019
0.601243
0.598253
0.595963
0.594239
0.592796
0.59168
0.590556
0.588809
0.586438
0.583629
0.581052
0.578373
0.576764
0.776801
0.782686
0.784049
0.780817
0.773237
0.76186
0.747421
0.731636
0.715687
0.699731
0.684485
0.670419
0.657567
0.646227
0.63613
0.627253
0.619627
0.6132
0.607931
0.603758
0.600522
0.598
0.596074
0.594789
0.593361
0.591619
0.589662
0.587053
0.583855
0.580368
0.577009
0.574383
0.572687
0.751314
0.760717
0.765525
0.765737
0.761113
0.752052
0.739246
0.726057
0.710333
0.694469
0.679789
0.666175
0.653723
0.642435
0.632802
0.624493
0.617497
0.611711
0.607065
0.603413
0.600633
0.598454
0.596597
0.594922
0.593014
0.590522
0.587588
0.584148
0.580275
0.576221
0.572575
0.569806
0.568529
0.724715
0.736626
0.744752
0.74815
0.746862
0.740678
0.730661
0.71833
0.704877
0.689703
0.675102
0.662411
0.650278
0.639532
0.630202
0.622422
0.61603
0.61083
0.606667
0.60342
0.600808
0.598486
0.596392
0.594067
0.591582
0.588132
0.584449
0.580313
0.575634
0.571246
0.56753
0.565911
0.565532
0.698411
0.71149
0.722074
0.728522
0.730393
0.727662
0.720919
0.710809
0.69855
0.68544
0.672063
0.659204
0.647612
0.637373
0.628547
0.621044
0.615138
0.610348
0.606447
0.603215
0.60034
0.597657
0.595266
0.592069
0.588606
0.584308
0.580418
0.574834
0.569299
0.565243
0.561844
0.562072
0.563359
0.673831
0.686823
0.698622
0.707533
0.712372
0.713105
0.709288
0.70199
0.691902
0.680624
0.668377
0.656436
0.645345
0.6358
0.627556
0.620581
0.614782
0.610083
0.606081
0.602497
0.599158
0.596
0.592589
0.588833
0.584325
0.57998
0.573235
0.566994
0.562101
0.559751
0.559298
0.559176
0.562401
0.652518
0.664102
0.675774
0.68588
0.692945
0.696203
0.695153
0.690907
0.683229
0.673577
0.663515
0.653248
0.643356
0.634537
0.627006
0.620426
0.614744
0.609821
0.605368
0.601162
0.597078
0.592906
0.588599
0.583857
0.578237
0.570626
0.563695
0.558624
0.555644
0.555091
0.556583
0.559929
0.562944
0.635065
0.644472
0.654812
0.6648
0.672662
0.677638
0.679403
0.677329
0.672318
0.665065
0.656894
0.648739
0.640549
0.632887
0.626079
0.619897
0.614305
0.608897
0.603757
0.59877
0.593599
0.588297
0.582637
0.576629
0.568455
0.561351
0.556067
0.553244
0.552583
0.553471
0.556701
0.561902
0.568536
0.621419
0.628298
0.636526
0.644866
0.652495
0.658182
0.661243
0.661315
0.658916
0.654176
0.648208
0.641934
0.635715
0.629514
0.623607
0.617905
0.612141
0.606453
0.600591
0.594566
0.58835
0.581861
0.575748
0.567375
0.559998
0.554142
0.551016
0.550894
0.552583
0.555906
0.560738
0.567179
0.574291
0.611203
0.615376
0.620874
0.627327
0.633786
0.639051
0.642584
0.643969
0.643151
0.640664
0.636816
0.632376
0.627889
0.623164
0.618279
0.613089
0.607465
0.601362
0.595099
0.588497
0.58156
0.574502
0.566918
0.559513
0.553656
0.549303
0.549554
0.551639
0.555864
0.561846
0.568625
0.576092
0.584268
0.604165
0.605508
0.608484
0.612397
0.616683
0.620681
0.623756
0.625576
0.625747
0.624687
0.62252
0.619593
0.616352
0.612916
0.609235
0.604852
0.599656
0.593751
0.587269
0.580548
0.573374
0.566239
0.559135
0.552161
0.549348
0.54793
0.550314
0.555599
0.562193
0.571504
0.579779
0.588494
0.597198
0.599795
0.598402
0.598707
0.599776
0.601619
0.603745
0.605625
0.606963
0.607525
0.607147
0.606042
0.604236
0.601928
0.599367
0.596653
0.593266
0.588943
0.583673
0.577657
0.571249
0.564793
0.558378
0.552295
0.548229
0.547672
0.54896
0.554263
0.562675
0.572368
0.583536
0.593651
0.603632
0.61272
0.59781
0.593793
0.591197
0.589553
0.588785
0.588651
0.588835
0.589161
0.589349
0.589212
0.588626
0.587624
0.586162
0.584312
0.58221
0.579777
0.576462
0.572207
0.567358
0.562194
0.55694
0.552575
0.548768
0.547605
0.548826
0.552914
0.561478
0.572349
0.584697
0.597969
0.610085
0.621116
0.630503
0.59737
0.591509
0.58591
0.581744
0.578378
0.575802
0.574011
0.572914
0.572339
0.572004
0.571693
0.571193
0.570497
0.569548
0.56831
0.566665
0.564556
0.56187
0.558667
0.555432
0.552522
0.550449
0.549579
0.550032
0.553006
0.559848
0.570389
0.583048
0.597414
0.612994
0.62715
0.639613
0.64957
0.59879
0.590912
0.583214
0.576175
0.570339
0.565474
0.561611
0.558917
0.557414
0.556713
0.55656
0.55655
0.556696
0.556757
0.55658
0.556098
0.555582
0.554785
0.553745
0.552931
0.552572
0.552417
0.553385
0.55578
0.560737
0.568623
0.579514
0.592713
0.607527
0.626203
0.64257
0.65698
0.668168
0.602003
0.591948
0.582412
0.573372
0.565017
0.557881
0.552085
0.547792
0.54528
0.544221
0.544277
0.544897
0.546032
0.547411
0.548826
0.550153
0.551605
0.553059
0.554349
0.555352
0.556633
0.55866
0.561716
0.565849
0.571248
0.57837
0.5877
0.599141
0.613022
0.633405
0.651778
0.668993
0.680754
0.606702
0.594767
0.583433
0.572699
0.562707
0.553496
0.545699
0.539887
0.536308
0.535071
0.535496
0.536963
0.539362
0.542339
0.545717
0.549295
0.552757
0.555908
0.559075
0.562587
0.566537
0.570751
0.575017
0.579126
0.583329
0.588021
0.593508
0.600782
0.614999
0.631222
0.651901
0.671592
0.683735
0.612535
0.59914
0.586338
0.574061
0.562539
0.551934
0.542578
0.535362
0.530956
0.529498
0.530416
0.532903
0.536717
0.541466
0.546655
0.551976
0.557577
0.563494
0.56954
0.575708
0.581539
0.58651
0.590411
0.593185
0.594961
0.595943
0.597172
0.601731
0.609039
0.621678
0.640227
0.659613
0.678824
0.619626
0.604878
0.590922
0.577383
0.564482
0.552445
0.541924
0.533649
0.528651
0.527133
0.528689
0.532222
0.53733
0.543594
0.550781
0.558638
0.566865
0.575217
0.583444
0.59095
0.597391
0.602176
0.60498
0.605656
0.604431
0.601121
0.5999
0.599464
0.601719
0.608261
0.62024
0.640841
0.662496
0.62742
0.611937
0.597112
0.582361
0.56815
0.554691
0.543037
0.533951
0.52861
0.527223
0.529286
0.533754
0.540201
0.548475
0.557637
0.567345
0.577264
0.587031
0.596304
0.604514
0.611153
0.615461
0.616898
0.615653
0.610516
0.6048
0.599026
0.595438
0.594355
0.595249
0.602454
0.617789
0.639791
0.63628
0.620043
0.603896
0.587729
0.572257
0.558001
0.545478
0.535647
0.530193
0.528918
0.531425
0.53689
0.544655
0.554203
0.564727
0.575612
0.586616
0.597
0.60682
0.615422
0.622142
0.625628
0.625425
0.621413
0.614031
0.605574
0.597444
0.591416
0.585351
0.58568
0.588826
0.597596
0.614984
0.646319
0.629156
0.611817
0.594397
0.57748
0.561839
0.548325
0.538129
0.532897
0.531858
0.534626
0.540793
0.549458
0.559865
0.57121
0.582929
0.594442
0.604938
0.615432
0.623674
0.630068
0.632718
0.629717
0.624478
0.61614
0.605631
0.595397
0.587442
0.580794
0.577786
0.578587
0.5827
0.593185
0.656086
0.63856
0.620326
0.601617
0.583181
0.566134
0.551651
0.54141
0.536555
0.535538
0.538473
0.545099
0.55431
0.565276
0.577188
0.589435
0.601464
0.612436
0.621851
0.628683
0.635007
0.634733
0.632586
0.626144
0.617035
0.605501
0.594845
0.585475
0.577581
0.572189
0.570393
0.572101
0.57803
0.666684
0.648518
0.629036
0.608825
0.588684
0.57019
0.554919
0.545093
0.540767
0.539898
0.54302
0.549782
0.559195
0.57037
0.5825
0.595054
0.607573
0.618854
0.628183
0.633566
0.637656
0.637507
0.63377
0.626069
0.616664
0.606252
0.595595
0.585157
0.575926
0.568936
0.564957
0.565044
0.567677
0.677422
0.658381
0.637358
0.615622
0.593425
0.573271
0.557484
0.548413
0.544618
0.543838
0.547099
0.554097
0.563893
0.575557
0.588188
0.600874
0.613713
0.625132
0.634435
0.638043
0.63793
0.637365
0.63267
0.625185
0.617507
0.607646
0.596709
0.58577
0.575824
0.567754
0.562341
0.560543
0.560793
0.687814
0.668078
0.645771
0.621249
0.597409
0.575439
0.559488
0.551179
0.548059
0.547672
0.551543
0.559289
0.569783
0.581954
0.595435
0.608763
0.621697
0.631506
0.636116
0.637101
0.635253
0.636164
0.632768
0.625122
0.614732
0.604109
0.593316
0.582543
0.572413
0.563812
0.558182
0.555483
0.555424
0.697493
0.677044
0.653132
0.626846
0.600732
0.578348
0.563335
0.555942
0.553384
0.553802
0.558602
0.566961
0.578342
0.591437
0.604544
0.615328
0.624093
0.631229
0.635522
0.636496
0.633771
0.631881
0.627962
0.622481
0.614045
0.603759
0.592935
0.581877
0.571322
0.562171
0.555469
0.552305
0.551234
0.706116
0.684793
0.659619
0.63109
0.603604
0.580967
0.56744
0.561049
0.558933
0.560077
0.565722
0.574255
0.584414
0.595164
0.605958
0.616167
0.624927
0.63011
0.632201
0.632916
0.631778
0.629338
0.62498
0.618924
0.610875
0.60095
0.5902
0.579214
0.568369
0.559431
0.552794
0.548785
0.547136
0.713154
0.690766
0.664444
0.634608
0.607235
0.585599
0.572457
0.566143
0.564179
0.564843
0.569481
0.577199
0.586841
0.597266
0.607196
0.615969
0.62235
0.627554
0.630004
0.630457
0.628494
0.625571
0.621922
0.615713
0.607806
0.598475
0.588264
0.577799
0.566678
0.556895
0.550038
0.545462
0.543373
0.717635
0.694391
0.667492
0.638305
0.611286
0.589713
0.576417
0.570005
0.567814
0.567814
0.572057
0.579175
0.588
0.597292
0.606281
0.614552
0.620369
0.624695
0.626028
0.62626
0.625304
0.621539
0.616615
0.610568
0.60326
0.594616
0.585215
0.57533
0.56577
0.556946
0.548208
0.542695
0.540378
0.719832
0.696701
0.669644
0.641493
0.615459
0.59466
0.580807
0.573548
0.570768
0.570522
0.573785
0.58005
0.588209
0.596447
0.603339
0.611157
0.616452
0.620426
0.622612
0.622438
0.620489
0.616874
0.61185
0.605557
0.598776
0.590743
0.581816
0.572713
0.564005
0.556157
0.549065
0.544544
0.541136
0.720693
0.697679
0.671854
0.64464
0.619713
0.599518
0.58491
0.576822
0.573476
0.57246
0.574773
0.579788
0.58653
0.594079
0.602093
0.609306
0.614025
0.617016
0.618217
0.617829
0.615501
0.611853
0.606877
0.600797
0.594206
0.586808
0.578704
0.570548
0.563091
0.55553
0.549105
0.54425
0.540689
0.720456
0.697981
0.673493
0.647385
0.623808
0.604123
0.589261
0.580074
0.575703
0.574218
0.575376
0.579359
0.585577
0.592198
0.598627
0.604725
0.609078
0.61153
0.612232
0.611649
0.609553
0.606457
0.601909
0.596139
0.589694
0.582853
0.575591
0.568305
0.560643
0.553979
0.549536
0.545171
0.541123
0.719436
0.697588
0.67457
0.6498
0.627611
0.608676
0.593877
0.583593
0.578046
0.57597
0.576613
0.579311
0.583891
0.58937
0.594881
0.599724
0.603392
0.605471
0.60651
0.605875
0.604059
0.601142
0.596982
0.591649
0.585338
0.57877
0.572117
0.565312
0.558697
0.55267
0.546727
0.541006
0.538071
0.717506
0.696927
0.674719
0.652062
0.631257
0.61318
0.598585
0.587667
0.58096
0.57835
0.577848
0.579363
0.582752
0.587023
0.591416
0.595288
0.598447
0.600083
0.60004
0.599866
0.59857
0.595726
0.591764
0.587039
0.581305
0.574769
0.568487
0.561961
0.555316
0.54888
0.542745
0.537693
0.534112
0.714997
0.695684
0.67492
0.65423
0.634782
0.617686
0.60349
0.592328
0.584762
0.580991
0.5799
0.580117
0.581935
0.585017
0.588291
0.591218
0.593356
0.594507
0.594793
0.594716
0.592993
0.589856
0.58678
0.582478
0.577471
0.571702
0.565349
0.558657
0.551763
0.544561
0.53832
0.532127
0.527919
0.713395
0.694146
0.675161
0.656247
0.638444
0.622364
0.608664
0.597574
0.589234
0.58434
0.582352
0.581394
0.581943
0.58389
0.586047
0.588031
0.589393
0.590258
0.590536
0.589813
0.587845
0.587179
0.58365
0.579828
0.575141
0.569649
0.563519
0.556715
0.549169
0.540857
0.532604
0.525122
0.52
0.711877
0.692843
0.675587
0.658515
0.642292
0.62728
0.614215
0.603339
0.594756
0.588808
0.58562
0.58353
0.583066
0.583858
0.585178
0.586569
0.587469
0.587675
0.587512
0.586505
0.586264
0.584044
0.581008
0.577489
0.573388
0.568521
0.562564
0.555356
0.546873
0.537168
0.527409
0.517643
0.509606
0.710721
0.693139
0.67619
0.661066
0.646443
0.632832
0.620433
0.609873
0.601231
0.594606
0.590222
0.587046
0.585681
0.585425
0.585927
0.586427
0.586993
0.586917
0.586566
0.585554
0.584967
0.582672
0.579996
0.576743
0.572888
0.56799
0.561832
0.554345
0.545966
0.535101
0.525403
0.514485
0.499777
0.764281
0.761766
0.758939
0.755487
0.752877
0.747654
0.739987
0.730601
0.765285
0.761484
0.758107
0.754477
0.750742
0.745862
0.738042
0.729094
0.766112
0.760836
0.757267
0.753361
0.748725
0.744603
0.736506
0.727707
0.766324
0.760344
0.756534
0.752106
0.747434
0.743109
0.735134
0.726493
0.765394
0.760386
0.755846
0.75084
0.74713
0.741018
0.733617
0.725211
0.764947
0.760218
0.755049
0.75026
0.745574
0.739019
0.731822
0.723577
0.76554
0.759639
0.75401
0.75011
0.743652
0.737039
0.729752
0.721503
0.765768
0.759243
0.754479
0.748312
0.74185
0.734989
0.727381
0.719021
0.766039
0.759902
0.75354
0.746979
0.740124
0.732774
0.724789
0.716181
0.767106
0.759669
0.752858
0.745716
0.738264
0.730531
0.721998
0.713117
0.768183
0.760413
0.752384
0.744525
0.736272
0.728616
0.71904
0.710111
0.770181
0.760921
0.75158
0.744358
0.73454
0.726488
0.717353
0.707755
0.769257
0.761213
0.750891
0.743099
0.734298
0.725321
0.715646
0.70537
0.770237
0.760268
0.751468
0.742667
0.733468
0.72386
0.713799
0.70328
0.770152
0.760752
0.751572
0.74242
0.733047
0.723165
0.712815
0.701781
0.770571
0.761217
0.752043
0.742656
0.733023
0.72272
0.711802
0.70037
0.771344
0.761942
0.752442
0.74286
0.732693
0.721856
0.710318
0.698169
0.771752
0.762257
0.752483
0.742455
0.731814
0.720499
0.708433
0.695638
0.771944
0.762045
0.752017
0.741653
0.730613
0.718845
0.706259
0.692935
0.77137
0.761358
0.751186
0.740562
0.729307
0.717088
0.703852
0.689778
0.770089
0.760145
0.74995
0.739161
0.727506
0.714601