/*--------------------------------*- C++ -*----------------------------------*\
  =========                 |
  \\      /  F ield         | OpenFOAM: The Open Source CFD Toolbox
   \\    /   O peration     | Website:  https://openfoam.org
    \\  /    A nd           | Version:  10
     \\/     M anipulation  |
\*---------------------------------------------------------------------------*/
FoamFile
{
    format      ascii;
    class       surfaceScalarField;
    location    "0.649362";
    object      phi;
}
// * * * * * * * * * * * * * * * * * * * * * * * * * * * * * * * * * * * * * //

dimensions      [1 0 -1 0 0 0 0];

internalField   nonuniform List<scalar> 
32368
(
0.000200172
-0.000210687
0.000192482
-0.000213857
0.000184439
-0.000216354
0.000178393
-0.000218483
0.000176207
-0.000220008
0.000183477
-0.000221116
0.000185314
-0.000226515
0.000184114
-0.000220787
0.000177647
-0.00020459
0.000175684
-0.00017781
0.000179128
-0.000151655
0.000186597
-0.000124378
0.000193631
-9.66547e-05
0.000198812
-6.56103e-05
0.000203265
-3.31224e-05
0.000206567
9.11203e-08
0.000208403
3.34582e-05
0.000208435
6.61169e-05
0.000206667
9.77523e-05
0.000202963
0.0001276
0.000196775
0.000154256
0.000188972
0.000176667
0.000180639
0.000193525
0.000171437
0.000201977
0.000157606
0.000195847
0.000147092
0.000178206
0.000144219
0.000163847
0.000145697
0.000148628
0.000151016
0.000130607
0.000162012
0.00011182
0.000182402
9.72037e-05
0.000199702
7.87585e-05
5.37376e-05
0.000208672
0.000219938
-0.000209321
0.000212449
-0.000210636
0.000203691
-0.000210236
0.000194696
-0.000209624
0.000186793
-0.000208507
0.000181725
-0.000206546
0.000183475
-0.000204707
0.000179835
-0.0002061
0.000172507
-0.0001966
0.000163716
-0.000177151
0.000161296
-0.00015248
0.0001634
-0.000127603
0.000167894
-0.000101932
0.000169977
-7.23803e-05
0.000171807
-4.02247e-05
0.000174118
-6.91849e-06
0.000176245
2.69989e-05
0.000177491
6.0857e-05
0.000177591
9.42123e-05
0.000176375
0.000126026
0.000172882
0.000154498
0.000167777
0.000178194
0.000162074
0.000195184
0.000154439
0.000200945
0.000142887
0.000189602
0.000137385
0.000174812
0.000138034
0.000162178
0.000142152
0.000146929
0.000149859
0.000129932
0.000165858
0.000113982
0.000187979
0.000101149
0.000205581
8.22124e-05
5.72136e-05
0.000215304
0.000244729
-0.000209657
0.00023964
-0.000208433
0.000230544
-0.000205849
0.00022001
-0.000201419
0.000209304
-0.00019661
0.000198042
-0.000192032
0.000189119
-0.000187006
0.000184024
-0.000183865
0.000173819
-0.000180996
0.000160906
-0.000168545
0.000151504
-0.000147644
0.000147418
-0.000125253
0.000149839
-0.00010066
0.000149042
-7.44229e-05
0.000147628
-4.2904e-05
0.000147631
-9.94888e-06
0.000149161
2.40981e-05
0.0001511
5.8928e-05
0.000152642
9.37591e-05
0.000153202
0.000126964
0.00015203
0.000156627
0.000149612
0.00018075
0.000146096
0.000195763
0.00013878
0.000195891
0.000131851
0.000183757
0.000130793
0.000171777
0.000134077
0.000159558
0.000140657
0.000144784
0.000152002
0.000129663
0.00017255
0.000118061
0.000195034
0.000104253
0.000212207
8.39497e-05
5.84576e-05
0.00022248
0.000266895
-0.000212063
0.000265873
-0.000208534
0.00026005
-0.000203368
0.000249544
-0.000195865
0.000236744
-0.000186526
0.000222667
-0.000177068
0.000206886
-0.000168718
0.000193497
-0.000161377
0.000181019
-0.000157659
0.000164944
-0.000150753
0.000148743
-0.000135977
0.000138142
-0.000115826
0.00013663
-9.23114e-05
0.000135658
-6.82572e-05
0.000131831
-3.95243e-05
0.000129218
-7.53101e-06
0.00012893
2.56948e-05
0.000130937
6.06403e-05
0.000133276
9.63475e-05
0.000134979
0.000130467
0.000135551
0.0001605
0.000135054
0.000183354
0.000132429
0.000194355
0.000127318
0.000190009
0.000125125
0.000179772
0.000127098
0.000168955
0.00013266
0.000157267
0.000142119
0.000144344
0.000159038
0.000132898
0.000181304
0.000121609
0.000202973
0.000105824
0.000218917
8.34995e-05
5.72553e-05
0.00022973
0.00028202
-0.000220613
0.00028553
-0.000214595
0.000284912
-0.000205582
0.000278803
-0.000194123
0.000266722
-0.000180564
0.000249797
-0.000165416
0.000230764
-0.000150638
0.000210128
-0.000139008
0.000192369
-0.000129871
0.000172944
-0.000125523
0.000152142
-0.000115802
0.000135294
-9.92835e-05
0.00012748
-7.76853e-05
0.000126103
-5.49945e-05
0.000120896
-2.78821e-05
0.000116964
1.20751e-06
0.000114525
3.26599e-05
0.000115162
6.65769e-05
0.00011778
0.000101433
0.00012053
0.000135365
0.000122645
0.000164765
0.000123817
0.000185304
0.000122383
0.000191896
0.000120876
0.000186208
0.000121661
0.000177036
0.00012675
0.000168513
0.000135095
0.000157999
0.000149192
0.00014755
0.000168798
0.000136956
0.000191182
0.000123824
0.000210748
0.000104784
0.000224853
8.02542e-05
5.44277e-05
0.000235828
0.000291315
-0.000237386
0.000299248
-0.000228256
0.000303178
-0.000215624
0.000302581
-0.000199179
0.000295391
-0.000179493
0.000279344
-0.000158329
0.000256887
-0.00013714
0.000232233
-0.000117497
0.000206882
-0.000103235
0.000183977
-9.30298e-05
0.000159844
-8.69649e-05
0.000137794
-7.54089e-05
0.000123551
-5.71041e-05
0.000119842
-3.42182e-05
0.000114308
-9.68706e-06
0.00010871
1.68101e-05
0.000105464
4.58207e-05
0.000104185
7.70751e-05
0.000106157
0.000109843
0.000109606
0.000141945
0.000113237
0.000169408
0.000116126
0.00018675
0.000116785
0.000189838
0.000117683
0.000183996
0.000122573
0.000178205
0.000130351
0.000170576
0.000142589
0.000161859
0.000159384
0.000151891
0.000180084
0.000139755
0.000200548
0.000122823
0.000216878
0.000100147
0.00022993
7.45718e-05
4.86724e-05
0.000238342
0.000297644
-0.000263804
0.000310461
-0.000250648
0.000319852
-0.000233054
0.000323901
-0.000210796
0.000320032
-0.000184692
0.000308766
-0.000155891
0.000286832
-0.000126787
0.000256275
-9.98508e-05
0.000225742
-7.63622e-05
0.000196802
-6.10106e-05
0.000169937
-5.08571e-05
0.000144224
-4.31089e-05
0.000124414
-2.96738e-05
0.000116806
-8.50071e-06
0.000111427
1.39614e-05
0.000104527
3.82379e-05
0.000100063
6.40371e-05
9.79205e-05
9.22694e-05
9.87244e-05
0.000121911
0.000102348
0.000150753
0.000107096
0.000174841
0.000111307
0.00018841
0.000113922
0.000189496
0.000119081
0.000186909
0.000127007
0.000182598
0.000138304
0.000175759
0.000153069
0.000166629
0.000171257
0.000154671
0.000190447
0.000138484
0.000207218
0.000117132
0.00022127
9.24046e-05
0.000232172
6.67778e-05
4.05887e-05
0.000238548
0.000291446
-0.000284594
0.000305045
-0.000267707
0.000317095
-0.000245952
0.000325873
-0.000218752
0.000329799
-0.000187064
0.000326876
-0.00015275
0.000313341
-0.000116863
0.000285878
-8.30252e-05
0.000247913
-5.38496e-05
0.000214416
-2.85805e-05
0.00018426
-1.37481e-05
0.000155882
-3.543e-06
0.000132004
5.69218e-06
0.000117481
2.06616e-05
0.000111934
4.28955e-05
0.000104469
6.49447e-05
9.82132e-05
8.69824e-05
9.5246e-05
0.000111149
9.52868e-05
0.000137069
9.87063e-05
0.000162068
0.000103967
0.000182083
0.000108961
0.00019208
0.000115535
0.000194746
0.000124323
0.000193853
0.000135282
0.000188807
0.000148737
0.000180425
0.00016456
0.000168397
0.000181418
0.000152152
0.000197178
0.000131525
0.000211317
0.000107834
0.000223099
8.23889e-05
0.00023051
5.61849e-05
3.40321e-05
0.000239906
0.000268353
-0.000302225
0.000282315
-0.000284628
0.000295753
-0.000260408
0.000307232
-0.000229119
0.000316475
-0.000191831
0.000320838
-0.000151268
0.000317249
-0.000108575
0.00030411
-6.61111e-05
0.000274404
-2.90401e-05
0.000233438
1.15404e-06
0.000200636
2.33187e-05
0.000170935
3.74853e-05
0.000143931
4.75939e-05
0.000122995
5.76804e-05
0.000113979
7.37418e-05
0.000106621
9.44531e-05
9.93636e-05
0.000113646
9.53397e-05
0.000132888
9.49753e-05
0.00015421
9.83299e-05
0.000174957
0.00010398
0.000191317
0.000111659
0.000199669
0.000121084
0.000202181
0.000131868
0.000199166
0.00014478
0.000191927
0.000158807
0.000179991
0.000173328
0.000163768
0.000187576
0.000143718
0.00020129
0.000121069
0.00021264
9.57732e-05
0.000220895
7.02551e-05
0.000230861
4.81982e-05
2.88435e-05
0.000240735
0.000234019
-0.000318392
0.000249272
-0.000302804
0.000263827
-0.000276498
0.000276781
-0.00024109
0.000288215
-0.000198698
0.000297402
-0.000151937
0.000300872
-0.000102627
0.000296365
-5.20969e-05
0.000281241
-4.99676e-06
0.000247457
3.33307e-05
0.000208538
6.04643e-05
0.0001793
7.8066e-05
0.00015245
8.95981e-05
0.00012965
9.79837e-05
0.000115427
0.000107485
0.000108718
0.000122839
0.000101734
0.000140983
9.72543e-05
0.000156241
9.68679e-05
0.000171987
0.000100551
0.00018751
0.000107322
0.000199491
0.000116514
0.000205336
0.000127182
0.000205091
0.00013955
0.000199373
0.000152611
0.000188542
0.000165742
0.000173127
0.000178823
0.000154126
0.00019189
0.0001322
0.000201571
0.000107265
0.000210172
8.31829e-05
0.000220041
6.15399e-05
0.000229384
4.25256e-05
2.72106e-05
0.000237957
0.000196153
-0.000340121
0.000211583
-0.000322673
0.000226128
-0.000291899
0.000239119
-0.000251753
0.000251023
-0.000204791
0.000262094
-0.000152821
0.00027016
-9.76831e-05
0.000271369
-3.99543e-05
0.000264812
1.68372e-05
0.000246192
6.54814e-05
0.000209751
9.78423e-05
0.000179541
0.000118624
0.00015522
0.000130509
0.000133539
0.000138133
0.000117124
0.000143771
0.000109282
0.000151526
0.000103819
0.000164222
0.000100099
0.000177723
0.00010003
0.000189084
0.000104155
0.00019884
0.000111657
0.000205496
0.000121603
0.000207208
0.000133124
0.00020343
0.000145646
0.00019454
0.000158427
0.000180815
0.000171116
0.000162983
0.000182606
0.000141291
0.00019079
0.000117858
0.000199298
9.53682e-05
0.000207502
7.42736e-05
0.000214683
5.5767e-05
0.000219845
4.03435e-05
2.83034e-05
0.000222883
0.000157135
-0.000361569
0.000171497
-0.000338059
0.000183518
-0.000301029
0.000194987
-0.000255801
0.000207104
-0.000206388
0.000219089
-0.000150961
0.000229839
-9.20895e-05
0.000235428
-2.86503e-05
0.00023446
3.59014e-05
0.000226406
9.36382e-05
0.000202678
0.000135858
0.000171528
0.000157254
0.000150396
0.000167997
0.000132075
0.00017561
0.000117399
0.000178815
0.000108397
0.000181421
0.000104239
0.000186346
0.000102458
0.000193295
0.000103948
0.000201265
0.000108892
0.000207285
0.000116972
0.000209268
0.000127345
0.000206665
0.000139227
0.000198937
0.000151567
0.000186367
0.000163371
0.000169386
0.000172545
0.000149081
0.000181153
0.000127996
0.000188565
0.000106864
0.00019409
8.64781e-05
0.00019652
6.8093e-05
0.000197165
5.35804e-05
0.000197656
4.17608e-05
3.60329e-05
0.000201944
0.000115301
-0.000373959
0.000126639
-0.000345101
0.000135709
-0.000298416
0.000145574
-0.00024836
0.000157124
-0.000199632
0.000170434
-0.000144797
0.00018345
-8.49596e-05
0.000192226
-1.80831e-05
0.000195521
5.2626e-05
0.000193693
0.000117506
0.000182203
0.000168045
0.00015638
0.000193856
0.000138304
0.000201475
0.000124597
0.000208108
0.000113416
0.000210137
0.000106388
0.000209095
0.000102759
0.000207783
0.000103055
0.000207299
0.000106386
0.000207777
0.000112597
0.000208075
0.000121363
0.000205944
0.00013196
0.000199706
0.000143247
0.000188943
0.000153731
0.000174434
0.000163417
0.000157195
0.000171513
0.000137835
0.000177017
0.000117656
0.000178605
9.764e-05
0.000176603
8.03795e-05
0.000175174
6.71751e-05
0.000173634
5.85741e-05
0.00017983
5.67613e-05
5.18031e-05
0.000182289
6.89697e-05
-0.000377997
7.75103e-05
-0.000339881
8.45202e-05
-0.00028464
9.42931e-05
-0.000233514
0.000105694
-0.000186475
0.000118999
-0.000135065
0.000133577
-7.7331e-05
0.000144872
-8.72137e-06
0.000151064
6.66662e-05
0.000153251
0.00013707
0.000150389
0.000193341
0.000133676
0.000225229
0.000119458
0.000230313
0.000110898
0.000234556
0.000104391
0.000235353
0.000101326
0.000231997
0.000100213
0.000226914
0.000102032
0.00022054
0.000106938
0.000215032
0.000114596
0.000210099
0.000124028
0.000203373
0.000134155
0.000193416
0.000144249
0.000180439
0.000153588
0.000165034
0.000160552
0.000147135
0.000163698
0.000127578
0.000160942
0.000108617
0.000157633
9.36668e-05
0.000154318
8.22675e-05
0.000152968
7.72575e-05
0.000154918
7.56219e-05
0.000153656
6.93733e-05
5.99128e-05
0.000150675
2.13777e-05
-0.000372938
2.97681e-05
-0.000327119
3.84305e-05
-0.000272509
4.69434e-05
-0.000225731
5.7237e-05
-0.000178172
6.94542e-05
-0.000126609
8.32817e-05
-7.01202e-05
9.48106e-05
-1.18768e-06
0.000102292
7.777e-05
0.000107155
0.000152174
0.000109462
0.000212634
0.000103011
0.000249202
9.42773e-05
0.000252576
9.12929e-05
0.000253564
9.02332e-05
0.00025369
9.18923e-05
0.000248629
9.48748e-05
0.000240837
9.97075e-05
0.000230783
0.000106685
0.000220703
0.000115269
0.000210395
0.000124559
0.000199383
0.000133886
0.000186937
0.000142126
0.000172382
0.000147297
0.000155218
0.000147124
0.000136802
0.000143946
0.000120783
0.000139833
0.000108676
0.000134459
0.000100031
0.00013273
9.84819e-05
0.000131858
9.47645e-05
0.000127945
8.57717e-05
0.000124706
7.35936e-05
5.78374e-05
0.00012045
-2.4572e-05
-0.000365143
-1.29985e-05
-0.000317645
-4.14796e-06
-0.000269589
5.12804e-06
-0.000226651
1.4013e-05
-0.000179221
2.29936e-05
-0.000127056
3.2524e-05
-6.75174e-05
4.23304e-05
2.83753e-06
4.95596e-05
8.57481e-05
5.64737e-05
0.000162045
6.28243e-05
0.000225281
6.51499e-05
0.000264096
6.38488e-05
0.000267008
6.68589e-05
0.000265002
7.13812e-05
0.000263989
7.81898e-05
0.000257566
8.58868e-05
0.000248103
9.45e-05
0.00023522
0.000103382
0.000220903
0.000112473
0.00020709
0.000121261
0.000193809
0.000128528
0.000179331
0.000131328
0.000163152
0.000130563
0.000147588
0.000127702
0.000134504
0.000122681
0.000124529
0.000116208
0.000119026
0.000113511
0.000119222
0.000109694
0.000113502
0.000105297
0.00010267
0.000101818
8.79731e-05
9.86317e-05
6.94915e-05
5.23924e-05
9.53713e-05
-6.83196e-05
-0.000360299
-5.54853e-05
-0.000310137
-4.61536e-05
-0.000270027
-3.76714e-05
-0.000229584
-3.02208e-05
-0.000182257
-2.38145e-05
-0.000129801
-1.84951e-05
-6.83171e-05
-1.26802e-05
3.77707e-06
-6.15361e-06
9.03866e-05
1.99985e-06
0.000167764
1.18833e-05
0.000230797
2.16558e-05
0.000270097
2.97277e-05
0.000273072
3.85168e-05
0.000268969
4.89711e-05
0.000266509
6.08388e-05
0.000258723
7.35244e-05
0.000247371
8.5296e-05
0.000231718
9.6302e-05
0.000216053
0.000105792
0.000201433
0.000112534
0.000186633
0.000115015
0.00017147
0.000114323
0.000158964
0.000111134
0.00014908
0.000105282
0.000141738
9.88038e-05
0.00013982
9.50481e-05
0.000139722
8.94414e-05
0.000131832
8.50939e-05
0.000119064
8.15966e-05
0.000101152
7.66715e-05
7.94226e-05
7.30324e-05
6.20504e-05
4.87592e-05
7.07784e-05
-0.000112842
-0.000356332
-0.00010015
-0.000308027
-9.22827e-05
-0.00027194
-8.51669e-05
-0.0002329
-8.02695e-05
-0.000187879
-7.77477e-05
-0.000135952
-7.66746e-05
-7.17277e-05
-7.73372e-05
4.62975e-06
-7.06029e-05
8.99541e-05
-5.8509e-05
0.00016633
-4.31509e-05
0.000228149
-2.54918e-05
0.000265771
-8.30909e-06
0.000268575
7.77381e-06
0.000264906
2.39799e-05
0.000261348
4.09799e-05
0.00025195
5.7557e-05
0.000238772
7.26179e-05
0.000223794
8.51248e-05
0.000208281
9.32199e-05
0.000192769
9.70881e-05
0.000179372
9.73939e-05
0.000169345
9.42284e-05
0.000162574
8.7393e-05
0.000158755
8.19506e-05
0.000160445
7.70344e-05
0.000159171
7.09757e-05
0.00015008
6.68264e-05
0.000135054
6.29695e-05
0.000113256
5.72232e-05
8.9136e-05
5.36548e-05
7.12493e-05
5.11607e-05
5.83467e-05
4.8919e-05
4.96024e-05
-0.000159142
-0.00035206
-0.00014677
-0.00030662
-0.000141536
-0.000272884
-0.000138507
-0.000235902
-0.00014004
-0.000194231
-0.000143689
-0.000144489
-0.000145397
-7.80892e-05
-0.000145531
2.19822e-06
-0.000136871
8.41078e-05
-0.000121206
0.000157923
-0.000100257
0.000217761
-7.37909e-05
0.000251345
-4.73465e-05
0.000254704
-2.45076e-05
0.000254064
-2.39242e-06
0.000250275
1.90887e-05
0.000240746
3.90564e-05
0.000227712
5.6278e-05
0.000212355
6.86066e-05
0.000196838
7.55792e-05
0.000184886
7.82072e-05
0.000177434
7.64958e-05
0.000173522
6.98764e-05
0.000173702
6.54695e-05
0.000178019
5.94917e-05
0.000175485
5.40746e-05
0.000165892
5.04486e-05
0.00014917
4.64783e-05
0.000122459
4.01074e-05
9.67127e-05
3.66238e-05
7.91873e-05
3.4022e-05
6.70267e-05
3.18617e-05
5.82898e-05
5.16495e-05
3.03319e-05
-0.00020662
-0.00034828
-0.000195101
-0.00030619
-0.000193224
-0.000271536
-0.000194256
-0.000235199
-0.000202544
-0.00019527
-0.000212296
-0.000147787
-0.000213802
-8.15819e-05
-0.000209592
-3.80752e-06
-0.000199125
7.32612e-05
-0.000180759
0.000142795
-0.00015349
0.000198745
-0.000118318
0.000228155
-8.57118e-05
0.00023557
-5.77362e-05
0.000238659
-3.11575e-05
0.000235414
-5.76279e-06
0.000226272
1.7267e-05
0.000212737
3.5324e-05
0.000198332
4.78399e-05
0.000187612
5.46453e-05
0.000182183
5.58587e-05
0.000180701
5.23162e-05
0.000185822
4.92985e-05
0.000190695
4.36051e-05
0.000188392
3.92209e-05
0.000178617
3.69148e-05
0.000158383
3.12032e-05
0.000127775
2.51524e-05
0.000103148
2.17635e-05
8.74647e-05
1.86398e-05
7.63644e-05
1.57643e-05
6.80417e-05
1.35464e-05
6.12801e-05
5.53544e-05
1.17981e-05
-0.000258047
-0.000344214
-0.000242648
-0.000306273
-0.000242812
-0.000267685
-0.000246777
-0.00023099
-0.000260121
-0.000191258
-0.000274499
-0.000145877
-0.000274128
-8.3996e-05
-0.000265945
-1.15101e-05
-0.000251104
6.02501e-05
-0.000229192
0.000125029
-0.000197494
0.000175011
-0.000158223
0.000202941
-0.000123124
0.000213973
-9.13038e-05
0.000219346
-6.07126e-05
0.000217033
-3.25427e-05
0.000208322
-8.57234e-06
0.000197514
1.01286e-05
0.000188521
2.31263e-05
0.000183652
2.91226e-05
0.000184434
3.23004e-05
0.000192408
3.24936e-05
0.000197073
2.99639e-05
0.000194766
2.78346e-05
0.000185433
2.59185e-05
0.000161745
1.90335e-05
0.0001323
1.35772e-05
0.000111469
8.9617e-06
9.76234e-05
4.64442e-06
8.72913e-05
5.188e-07
7.87583e-05
-3.14851e-06
7.16395e-05
-5.93232e-06
6.57215e-05
6.00092e-05
-7.95884e-06
-0.000307467
-0.00033586
-0.000289641
-0.000305411
-0.000285833
-0.000264571
-0.000288449
-0.000225329
-0.000298606
-0.000183075
-0.000316966
-0.000137766
-0.000320756
-8.28469e-05
-0.000312558
-1.92556e-05
-0.000295484
4.54341e-05
-0.000270118
0.000104113
-0.00023399
0.000147616
-0.000192752
0.000174322
-0.000155999
0.000189225
-0.000122111
0.000196774
-9.05871e-05
0.000197033
-6.21643e-05
0.000192722
-3.83754e-05
0.000187251
-1.96212e-05
0.00018388
-6.82733e-06
0.000186545
4.47824e-06
0.000193515
1.21367e-05
0.000196582
1.67842e-05
0.00019513
1.96455e-05
0.000183688
1.69028e-05
0.000159952
1.08692e-05
0.000136698
4.39526e-06
0.000121507
-2.47617e-06
0.000109884
-9.4551e-06
0.000100123
-1.63701e-05
9.21113e-05
-2.26519e-05
8.68595e-05
-2.78623e-05
8.23808e-05
-3.20364e-05
7.69822e-05
7.0038e-05
-3.56369e-05
-0.000349144
-0.000322265
-0.000337894
-0.000301555
-0.000323927
-0.000263114
-0.000324096
-0.000220407
-0.000326462
-0.000178219
-0.000334338
-0.00013117
-0.000341635
-8.10704e-05
-0.000335853
-2.63226e-05
-0.000317957
2.95563e-05
-0.000289512
7.97949e-05
-0.000252022
0.000118895
-0.0002169
0.000146969
-0.000183935
0.000165854
-0.000152338
0.000176412
-0.000122476
0.000180712
-9.52568e-05
0.000181416
-7.27278e-05
0.000183093
-5.26168e-05
0.000187423
-3.30443e-05
0.000191962
-1.56933e-05
0.000193408
-3.28068e-07
0.000190576
1.04904e-05
0.000177271
1.19274e-05
0.00015696
7.4371e-06
0.000142132
-1.55212e-06
0.000131683
-1.21035e-05
0.000123044
-2.39443e-05
0.000116975
-3.52389e-05
0.000113349
-4.45629e-05
0.000110415
-5.30515e-05
0.0001047
-6.00307e-05
9.68239e-05
-6.56313e-05
8.76588e-05
7.84557e-05
-7.00201e-05
-0.000378124
-0.000304743
-0.000378932
-0.000288716
-0.000365419
-0.000261475
-0.000354478
-0.000220041
-0.000352694
-0.000174876
-0.000350652
-0.000129729
-0.000347455
-8.32022e-05
-0.000338454
-3.40576e-05
-0.000321521
1.45876e-05
-0.000298571
5.95101e-05
-0.000271176
9.69017e-05
-0.000242822
0.000125571
-0.000213347
0.000145813
-0.00018377
0.000158965
-0.000156493
0.000168755
-0.000130926
0.000176696
-0.000104959
0.000183033
-7.92328e-05
0.000186497
-5.25427e-05
0.000186665
-2.47894e-05
0.000181732
-4.32857e-06
0.000168379
5.51167e-06
0.000154644
6.11421e-06
0.000146006
-2.66358e-06
0.000140882
-1.90984e-05
0.000139144
-3.66072e-05
0.00014058
-5.29393e-05
0.000140608
-6.76843e-05
0.000135337
-8.01006e-05
0.000126627
-8.91523e-05
0.000116643
-9.62514e-05
0.000106246
-0.000102076
9.55988e-05
8.48359e-05
-0.000106985
-0.000394335
-0.000284804
-0.000402655
-0.000270575
-0.000401788
-0.000248738
-0.000389819
-0.000216904
-0.000379673
-0.000176336
-0.000371048
-0.000130471
-0.000363697
-8.57374e-05
-0.00035352
-4.04327e-05
-0.000338263
2.899e-06
-0.000318534
4.358e-05
-0.00029494
7.87167e-05
-0.00026951
0.000107384
-0.000243475
0.000130418
-0.000217099
0.000148372
-0.00018933
0.00016132
-0.000159186
0.000169366
-0.000126715
0.000174123
-9.25247e-05
0.000174845
-5.77138e-05
0.000169072
-2.92426e-05
0.000159992
-8.08771e-06
0.000152099
8.93487e-07
0.000147823
-4.26681e-06
0.000148716
-2.09252e-05
0.000156808
-4.3165e-05
0.000164973
-6.75258e-05
0.000164976
-8.84066e-05
0.000158256
-0.000104458
0.00014838
-0.000116803
0.000137011
-0.000126375
0.000125414
-0.000134237
0.00011368
-0.000140519
0.000101388
8.82606e-05
-0.000144777
-0.000395206
-0.000264649
-0.000408648
-0.000249507
-0.000416575
-0.000229122
-0.000416106
-0.000203194
-0.000410388
-0.000169009
-0.00040074
-0.000129642
-0.000389282
-8.80992e-05
-0.000376543
-4.66005e-05
-0.000361303
-5.89312e-06
-0.000343293
3.20459e-05
-0.00032308
6.58814e-05
-0.000299174
9.42509e-05
-0.000272234
0.000116718
-0.00024171
0.000133443
-0.000207329
0.000145791
-0.000170844
0.00015292
-0.000131443
0.000155075
-9.32162e-05
0.000152545
-5.97865e-05
0.000148673
-3.20321e-05
0.000147001
-1.41629e-05
0.000147688
-1.09447e-05
0.000154638
-2.06723e-05
0.000169468
-4.39318e-05
0.000181619
-7.32997e-05
0.000185036
-0.000101448
0.00017989
-0.000124573
0.000169899
-0.0001419
0.000157777
-0.000154901
0.000145115
-0.000164372
0.000132081
-0.000170499
0.000118372
-0.000174067
0.000103479
8.72938e-05
-0.000175596
-0.000384856
-0.000249451
-0.000395998
-0.000229381
-0.000407915
-0.000208059
-0.000415005
-0.000182953
-0.000415042
-0.000154479
-0.000411011
-0.000119804
-0.000404256
-8.35329e-05
-0.000394515
-4.68361e-05
-0.000380133
-1.12129e-05
-0.000361227
2.23627e-05
-0.000338082
5.21864e-05
-0.000310494
7.78767e-05
-0.000279307
9.84931e-05
-0.000244806
0.000113886
-0.000206078
0.000123783
-0.000165863
0.000128731
-0.000127073
0.000131886
-9.08885e-05
0.000134222
-6.03119e-05
0.000136995
-3.83828e-05
0.000142956
-2.65588e-05
0.000155713
-2.67693e-05
0.000174069
-4.24757e-05
0.000190059
-7.07561e-05
0.000199756
-0.000104666
0.000200036
-0.00013621
0.000191752
-0.000160792
0.000179116
-0.000178156
0.000165187
-0.000189379
0.000150479
-0.000196074
0.000135152
-0.000199341
0.000118581
-0.000200387
0.000100753
8.30009e-05
-0.000202222
-0.000370841
-0.000238669
-0.000374556
-0.00021567
-0.000381673
-0.000189114
-0.0003903
-0.000162399
-0.00039615
-0.00013491
-0.000396466
-0.000105215
-0.000391148
-7.47597e-05
-0.0003823
-4.37356e-05
-0.000369226
-1.34367e-05
-0.000350745
1.47817e-05
-0.000327379
4.00161e-05
-0.00029916
6.11711e-05
-0.000266302
7.81457e-05
-0.000229822
9.10782e-05
-0.000192055
0.000100726
-0.000154891
0.0001085
-0.000120153
0.000115355
-8.89024e-05
0.000122773
-6.50048e-05
0.000133317
-4.90814e-05
0.000150144
-4.24288e-05
0.000171245
-4.73651e-05
0.000191298
-6.68465e-05
0.000208296
-9.91825e-05
0.000216673
-0.000136826
0.000213642
-0.000169897
0.000201839
-0.000193488
0.000185754
-0.000208429
0.000168792
-0.000215885
0.000151085
-0.000218999
0.000132482
-0.000220335
0.000114346
-0.000224317
9.65959e-05
8.01955e-05
-0.000233504
-0.000358498
-0.000228771
-0.000351276
-0.00020657
-0.000349194
-0.000177183
-0.000353228
-0.000145847
-0.000357063
-0.000117964
-0.00035905
-9.01912e-05
-0.000356537
-6.2797e-05
-0.000349621
-3.67889e-05
-0.000337302
-1.21549e-05
-0.000320665
1.03945e-05
-0.000298548
3.04602e-05
-0.000272101
4.76408e-05
-0.000241868
6.20201e-05
-0.00020934
7.38716e-05
-0.000176076
8.41531e-05
-0.000143946
9.40063e-05
-0.000114502
0.000104948
-9.04711e-05
0.000119197
-7.31723e-05
0.000138693
-6.41377e-05
0.000161905
-6.17591e-05
0.000186707
-7.01442e-05
0.000208896
-9.25591e-05
0.000225874
-0.00012795
0.000231562
-0.000166795
0.000224796
-0.000198584
0.000207413
-0.000218596
0.000186953
-0.000228408
0.000166086
-0.000232557
0.000145647
-0.000235193
0.000127519
-0.000240756
0.000109939
-0.000250373
9.33832e-05
7.54361e-05
-0.000265123
-0.000338121
-0.000217508
-0.000331697
-0.000198345
-0.000319702
-0.000169762
-0.000312896
-0.000136094
-0.00031371
-0.000102642
-0.00031529
-7.45094e-05
-0.000314266
-4.96211e-05
-0.00030959
-2.74372e-05
-0.000300135
-7.42183e-06
-0.000285857
1.0243e-05
-0.000266842
2.58675e-05
-0.000243429
3.93611e-05
-0.000216675
5.11135e-05
-0.000188355
6.21298e-05
-0.000160451
7.35232e-05
-0.000134558
8.6524e-05
-0.000112859
0.000102776
-9.72142e-05
0.00012414
-8.70855e-05
0.000149677
-8.22496e-05
0.000177271
-8.28073e-05
0.000202928
-9.31091e-05
0.000226026
-0.000116875
0.000240663
-0.000152255
0.00024313
-0.000189855
0.000228961
-0.000216626
0.000205897
-0.0002323
0.000181373
-0.000240146
0.000159947
-0.000245212
0.000140295
-0.00025053
0.000122083
-0.000257329
0.000104313
-0.000266621
8.61647e-05
6.67239e-05
-0.000276937
-0.000310605
-0.000207012
-0.00030416
-0.000190594
-0.000292857
-0.000163256
-0.000278153
-0.000129131
-0.00026799
-9.25659e-05
-0.000265399
-6.07433e-05
-0.000265192
-3.43222e-05
-0.000263016
-1.4261e-05
-0.000256999
1.77947e-06
-0.000246347
1.51637e-05
-0.000230947
2.68054e-05
-0.00021148
3.6983e-05
-0.000189155
4.6564e-05
-0.000167284
5.73406e-05
-0.000147044
7.06535e-05
-0.000129875
8.75307e-05
-0.000117607
0.000109578
-0.00010937
0.000136287
-0.000103789
0.000165554
-0.000101459
0.000193689
-0.000103088
0.000218894
-0.000112875
0.00023987
-0.000134861
0.000250582
-0.000167701
0.000245167
-0.000201618
0.000225552
-0.000226335
0.000200275
-0.000242104
0.000176321
-0.0002513
0.00015421
-0.000256559
0.000133926
-0.000260902
0.000114839
-0.000265
9.59693e-05
-0.000268422
7.60941e-05
5.62002e-05
-0.000271823
-0.000282833
-0.000196357
-0.000274989
-0.000183263
-0.000262324
-0.000158128
-0.000247683
-0.000123728
-0.000232679
-8.54551e-05
-0.000219385
-4.91431e-05
-0.000214447
-2.0625e-05
-0.00021311
1.32783e-06
-0.000209985
1.53634e-05
-0.000204094
2.61338e-05
-0.000193848
3.43581e-05
-0.000179718
4.17124e-05
-0.000164045
5.00917e-05
-0.000150638
6.14821e-05
-0.000139354
7.71031e-05
-0.000131998
9.7805e-05
-0.00012799
0.000123921
-0.000124183
0.000153794
-0.000120828
0.00018333
-0.000118828
0.000209429
-0.000118768
0.000231887
-0.000125048
0.000247081
-0.000142558
0.000251081
-0.000173579
0.000241135
-0.000208028
0.000221485
-0.000235474
0.000196221
-0.000252094
0.00017056
-0.000261611
0.000147897
-0.000267331
0.000128028
-0.000271463
0.000108659
-0.000273256
8.81539e-05
-0.000273666
6.79857e-05
4.8362e-05
-0.000273825
-0.000254588
-0.000186858
-0.000246511
-0.000174629
-0.000234087
-0.000151875
-0.000219861
-0.000119137
-0.000205109
-8.00997e-05
-0.000190541
-4.15498e-05
-0.000176263
-7.62642e-06
-0.000169669
1.64952e-05
-0.000167739
3.24837e-05
-0.000165612
4.25189e-05
-0.000160892
4.88405e-05
-0.000153193
5.44937e-05
-0.000145743
6.24211e-05
-0.000140983
7.47026e-05
-0.000138199
9.21622e-05
-0.000139573
0.000115564
-0.000139595
0.000144047
-0.000137849
0.000173521
-0.000134517
0.000200542
-0.00013083
0.000222514
-0.000126676
0.00023798
-0.00012734
0.00024599
-0.000142987
0.000246067
-0.000174708
0.00023639
-0.000213108
0.000217959
-0.000244115
0.000191899
-0.00026347
0.00016655
-0.000277541
0.00014741
-0.000287997
0.000129628
-0.000294641
0.000110767
-0.000297497
9.00957e-05
-0.000296298
6.82242e-05
4.79645e-05
-0.000292994
-0.000233643
-0.000178666
-0.000222218
-0.000167238
-0.000207467
-0.000145029
-0.000194897
-0.00011176
-0.000185928
-7.43222e-05
-0.00017488
-3.44049e-05
-0.000162565
1.63814e-06
-0.000150769
3.13775e-05
-0.000141443
5.13484e-05
-0.000138758
6.18948e-05
-0.00013782
6.86788e-05
-0.000136104
7.45957e-05
-0.000136192
8.26709e-05
-0.000138376
9.55593e-05
-0.000142333
0.000113764
-0.00014873
0.000138632
-0.000150009
0.00016663
-0.000148465
0.000193428
-0.000143414
0.000215474
-0.000135872
0.000230678
-0.000127404
0.000238201
-0.000124431
0.000242235
-0.000138814
0.000239363
-0.000174076
0.000231594
-0.00022076
0.000215348
-0.000265934
0.000200522
-0.000306864
0.000187193
-0.000339472
0.000168439
-0.00035906
0.000144562
-0.000368024
0.00011877
-0.000369679
9.34433e-05
-0.000365564
7.0516e-05
5.09279e-05
-0.000358274
-0.00022039
-0.000170317
-0.000208261
-0.000159386
-0.00019084
-0.000137961
-0.000176946
-0.000104843
-0.000167456
-6.65069e-05
-0.000166594
-2.78342e-05
-0.000159924
1.14658e-05
-0.000149555
4.33632e-05
-0.000139438
6.86372e-05
-0.000131456
8.49026e-05
-0.00012917
9.24571e-05
-0.000130001
9.8873e-05
-0.00013478
0.00010808
-0.000141168
0.000121165
-0.000149644
0.000139341
-0.000157159
0.00016424
-0.000158093
0.000189549
-0.000154559
0.000212139
-0.000146611
0.000227096
-0.000135852
0.000235885
-0.0001247
0.00023842
-0.000120931
0.000237248
-0.000135421
0.000232351
-0.000181524
0.000232385
-0.000254414
0.000238469
-0.000328276
0.000228515
-0.000377684
0.000201084
-0.000397015
0.000166891
-0.000401869
0.000137501
-0.000400008
0.000109432
-0.000394963
8.58303e-05
-0.000390335
6.56584e-05
4.83086e-05
-0.000385628
-0.000212414
-0.000161655
-0.000201444
-0.000148821
-0.00018515
-0.000128405
-0.000172036
-9.63469e-05
-0.00016265
-5.9103e-05
-0.000160604
-2.01476e-05
-0.000165974
1.87573e-05
-0.000159687
5.50813e-05
-0.000151272
8.32527e-05
-0.000143903
0.000105852
-0.000137674
0.000118812
-0.00013555
0.000125575
-0.00014108
0.000135236
-0.000148378
0.000148352
-0.00015827
0.000166181
-0.000163802
0.000189471
-0.000163104
0.000211246
-0.00015675
0.000228507
-0.000146024
0.000237409
-0.000134464
0.000241335
-0.000123683
0.000240562
-0.000121274
0.000234902
-0.000141372
0.0002354
-0.000201184
0.000245621
-0.000293331
0.000243099
-0.000360979
0.000215667
-0.000386013
0.000174703
-0.000391138
0.000145945
-0.000385009
0.000116322
-0.000377205
9.35959e-05
-0.000369829
7.39986e-05
-0.000364425
5.75176e-05
4.32974e-05
-0.000360342
-0.000208573
-0.000153674
-0.000198431
-0.000134981
-0.000186351
-0.000115088
-0.000176895
-8.5113e-05
-0.0001704
-4.96605e-05
-0.000168776
-1.17141e-05
-0.000177141
2.69996e-05