/*--------------------------------*- C++ -*----------------------------------*\
  =========                 |
  \\      /  F ield         | OpenFOAM: The Open Source CFD Toolbox
   \\    /   O peration     | Website:  https://openfoam.org
    \\  /    A nd           | Version:  10
     \\/     M anipulation  |
\*---------------------------------------------------------------------------*/
FoamFile
{
    format      ascii;
    class       volScalarField;
    location    "0.649362";
    object      T;
}
// * * * * * * * * * * * * * * * * * * * * * * * * * * * * * * * * * * * * * //

dimensions      [0 0 0 1 0 0 0];

internalField   nonuniform List<scalar> 
16320
(
0.00371238
0.00386248
0.00400581
0.0040934
0.00409373
0.00394988
0.00376977
0.00375764
0.00384272
0.00398311
0.00401554
0.00398683
0.00392698
0.00390222
0.00389404
0.00388931
0.00388692
0.00388766
0.00388577
0.00387676
0.00387082
0.00386764
0.00386931
0.0038921
0.00401323
0.0042972
0.00445089
0.00446129
0.00442454
0.00430798
0.00396793
0.00359186
0.00340779
0.00369965
0.00385209
0.00400728
0.00412044
0.00417365
0.00416639
0.00402982
0.0038872
0.00389457
0.00399984
0.00406868
0.00404519
0.0039563
0.00390574
0.00389652
0.0038929
0.00389198
0.00389561
0.00389436
0.00388431
0.00387561
0.0038746
0.00388065
0.00392583
0.00412082
0.00438953
0.00446961
0.00445977
0.00440983
0.0042314
0.00383612
0.00351074
0.00336866
0.00369451
0.00382941
0.00397537
0.00410542
0.00418628
0.00421284
0.00419553
0.004055
0.00397238
0.00400821
0.00409553
0.0040893
0.00397544
0.00384638
0.00383604
0.0038444
0.00385309
0.00386244
0.00386504
0.00386224
0.0038605
0.00386342
0.00388395
0.00398953
0.00425233
0.00443437
0.00446555
0.00444609
0.00434698
0.00408125
0.00368604
0.00342893
0.00333268
0.00372946
0.00383294
0.00393395
0.00404911
0.00415511
0.0042149
0.00422956
0.0041991
0.00406141
0.00403312
0.00409551
0.00412104
0.00401931
0.00378405
0.00370257
0.00371582
0.00376189
0.00378076
0.00378901
0.00379943
0.00381223
0.00383316
0.0038974
0.00408736
0.00431636
0.00442894
0.00443401
0.00437842
0.00421031
0.00385973
0.00353556
0.00335523
0.00330676
0.00378189
0.00385205
0.00391889
0.00397914
0.0040566
0.00414814
0.00421692
0.00423193
0.00418486
0.004076
0.00409234
0.00413618
0.00406389
0.00380143
0.00363075
0.00361546
0.00364987
0.00371373
0.00373317
0.00374696
0.00376701
0.00381109
0.00392835
0.00413845
0.00431255
0.00436847
0.00433772
0.0042177
0.00395684
0.00363858
0.00340287
0.00330477
0.00329759
0.00379129
0.00383531
0.00386964
0.00390217
0.0039297
0.00398486
0.00409408
0.00419989
0.00422256
0.00416288
0.00410663
0.00413665
0.00410874
0.0038665
0.00362994
0.00355836
0.00356646
0.00362853
0.00368585
0.00370732
0.00373338
0.00379295
0.00393526
0.00413446
0.00424253
0.00422731
0.00413846
0.00394886
0.00368697
0.0034471
0.00331748
0.0032905
0.00331325
0.00371123
0.00371519
0.003716
0.00372148
0.00374163
0.00378457
0.00385812
0.00402039
0.00418405
0.00421235
0.00415989
0.00414077
0.00413377
0.0039885
0.0036632
0.00353724
0.00352464
0.00355073
0.00362111
0.00366783
0.00370218
0.00377355
0.00392595
0.00406399
0.00406637
0.00400357
0.00386179
0.0036641
0.00346306
0.00333414
0.00329616
0.00330791
0.00338684
0.0036415
0.00365325
0.00365115
0.00364253
0.00363389
0.00363101
0.00365552
0.00373274
0.00395887
0.00417986
0.00420428
0.00416798
0.00414743
0.00408578
0.00377776
0.00354999
0.00349484
0.00350375
0.00354611
0.0035993
0.003652
0.00373722
0.00384973
0.00386627
0.00382517
0.00373019
0.0035925
0.00344901
0.00334888
0.003313
0.00332071
0.00339139
0.00345933
0.00365148
0.00365962
0.0036505
0.00363512
0.00361552
0.00358012
0.0035663
0.00357566
0.00365724
0.00393369
0.00416473
0.0041892
0.00416723
0.00412088
0.00395756
0.00360859
0.00349484
0.00347292
0.00348734
0.00352014
0.00356328
0.00363333
0.00366002
0.0036438
0.00359157
0.00351042
0.00342493
0.00336392
0.00333844
0.00334739
0.00341388
0.00347046
0.00347537
0.00371569
0.00368472
0.00365804
0.00363689
0.00361565
0.00357406
0.00352573
0.00351135
0.00352464
0.00363786
0.00398223
0.00415133
0.00415949
0.00413363
0.00404739
0.00377232
0.0035308
0.00347195
0.00345828
0.00346414
0.00348317
0.00350881
0.00351052
0.00349286
0.00345452
0.00341436
0.00338441
0.00337109
0.00338802
0.00345336
0.00349171
0.00349236
0.00347527
0.00372951
0.00367367
0.00365406
0.00363817
0.00361893
0.00357981
0.00351596
0.00347227
0.00346485
0.00349739
0.00371035
0.00405633
0.00413759
0.00412805
0.00407649
0.00392785
0.0036545
0.00350381
0.0034626
0.00345224
0.00345501
0.00345933
0.00345596
0.00344382
0.0034272
0.00341397
0.00341382
0.00344552
0.00350018
0.00352693
0.00353836
0.00353783
0.00353262
0.00366307
0.00364743
0.00365426
0.00366718
0.00365315
0.0036121
0.00352395
0.00344985
0.0034221
0.00342881
0.00352351
0.0038822
0.00409413
0.004112
0.00408151
0.00399301
0.00380726
0.00362195
0.00351247
0.00347338
0.00346557
0.00346553
0.00346334
0.00345838
0.0034583
0.003475
0.00351486
0.0035416
0.00356887
0.00362058
0.00367569
0.00368102
0.00360928
0.00363646
0.00365242
0.0037373
0.00381427
0.00379045
0.00372216
0.00357237
0.00344534
0.00338827
0.0033782
0.00342384
0.00369717
0.00402729
0.00409393
0.00407619
0.00401079
0.00389986
0.00377395
0.00365917
0.00358433
0.0035527
0.00353444
0.0035307
0.00353944
0.00355926
0.00357641
0.00360075
0.00365436
0.00376388
0.00383776
0.00381198
0.00361161
0.00331962
0.00365381
0.00375069
0.00399224
0.0041376
0.00408244
0.00395031
0.0036957
0.00346496
0.0033632
0.00333377
0.00335798
0.00354151
0.00394529
0.00407276
0.00406885
0.00401493
0.00393282
0.00385126
0.00378091
0.00371196
0.0036611
0.00364449
0.0036466
0.00364745
0.00365331
0.00369192
0.00380068
0.00393019
0.0039534
0.00386344
0.00358749
0.0033686
0.00331511
0.00375268
0.00398121
0.00434139
0.0044741
0.00441998
0.00424681
0.00387702
0.00351407
0.00335322
0.00329831
0.00331056
0.00344971
0.00386611
0.00405524
0.0040697
0.00402247
0.00394789
0.00388765
0.0038278
0.00377764
0.00375609
0.00374994
0.00374848
0.00376653
0.00384575
0.00397996
0.00405453
0.00403288
0.00387973
0.00358461
0.0034364
0.00341734
0.00347756
0.00390506
0.0042232
0.00450008
0.00459532
0.00455462
0.00438379
0.00403649
0.00357457
0.00334976
0.00327484
0.00327762
0.00338726
0.00380158
0.00405641
0.00408025
0.00404184
0.00396873
0.00391361
0.00387699
0.00387162
0.00386865
0.00387047
0.00391594
0.00402209
0.00412234
0.00414118
0.00407734
0.00386341
0.00359955
0.00351142
0.00350163
0.00357539
0.00375934
0.00401166
0.00436921
0.00458206
0.00461921
0.0045728
0.00438978
0.00406948
0.00363429
0.00334599
0.0032636
0.00326699
0.00338035
0.00377997
0.00406759
0.00410464
0.00407541
0.0040043
0.00397548
0.0039756
0.00397506
0.00399066
0.0040672
0.00416098
0.00421739
0.00420339
0.00410028
0.003844
0.00363304
0.00357463
0.00359293
0.00374107
0.00400267
0.00426468
0.00407617
0.00446172
0.00459049
0.00460864
0.00451523
0.00428556
0.00397855
0.0036164
0.00334131
0.00326849
0.00327598
0.00340368
0.00380627
0.00409855
0.00415122
0.00413432
0.00409691
0.00408391
0.00407925
0.00410951
0.00419366
0.00427317
0.00428914
0.00424696
0.00410718
0.00383325
0.00368128
0.00363952
0.00368783
0.00389723
0.00421291
0.0044476
0.00456497
0.00410993
0.00446629
0.00458045
0.0045546
0.00436409
0.00405249
0.00376741
0.00353459
0.00334864
0.00329602
0.00330882
0.00347206
0.00387949
0.00414328
0.00421548
0.00421951
0.00419244
0.0041753
0.00421747
0.00430591
0.00435838
0.00434967
0.00428068
0.00409566
0.00384929
0.00373909
0.00371573
0.00382088
0.00414477
0.0045177
0.00475157
0.00484013
0.00479158
0.00411638
0.00445862
0.00454789
0.00451526
0.0042823
0.00389883
0.00365133
0.00352746
0.0034157
0.00337906
0.00339195
0.00362307
0.00402283
0.00420729
0.00426403
0.0042675
0.00426059
0.00431702
0.0044019
0.00443153
0.00439839
0.00429966
0.00408093
0.00389374
0.0038166
0.00381618
0.00401462
0.00448873
0.0048582
0.00503982
0.00506401
0.00497027
0.00480673
0.00404026
0.00438227
0.00451819
0.00450658
0.00426914
0.00386538
0.00365892
0.00358202
0.00353922
0.00352645
0.00358616
0.0038358
0.00412782
0.00425087
0.00430619
0.00433839
0.00441066
0.00447722
0.00448267
0.0044328
0.00429969
0.004079
0.00395834
0.00390524
0.00396208
0.00428519
0.00479734
0.00508873
0.00519033
0.00517593
0.00508046
0.00493049
0.00474371
0.00397415
0.00424234
0.00449516
0.00453003
0.00444367
0.00408554
0.00379641
0.00370114
0.00366387
0.00366064
0.00376055
0.00399707
0.0042362
0.00434334
0.0044175
0.00448068
0.00450477
0.00449789
0.00444786
0.00428039
0.00409899
0.00402428
0.00400816
0.0041488
0.00457758
0.0049755
0.00515671
0.00520544
0.00517983
0.00506792
0.00486826
0.00462555
0.00441613
0.00394438
0.00406032
0.00439615
0.00452108
0.00453061
0.00443395
0.00417547
0.00400004
0.00394813
0.0039516
0.0041268
0.00432619
0.00442036
0.00446944
0.00449019
0.00449649
0.00448494
0.00440849
0.00423784
0.00412641
0.00408647
0.00411951
0.00437369
0.00476017
0.00500912
0.00511221
0.00511975
0.00502773
0.00479444
0.00450402
0.00428267
0.00414554
0.00404278
0.00394335
0.00397468
0.00411639
0.00443735
0.00452075
0.0045435
0.00449957
0.00442452
0.0043833
0.00437743
0.00442916
0.0044653
0.00447461
0.0044773
0.00446916
0.00441669
0.00429
0.00418228
0.00414301
0.0041423
0.00423944
0.00453215
0.00480819
0.00494257
0.00498731
0.0049181
0.00466404
0.00440339
0.00420583
0.00409178
0.00401809
0.00396777
0.00391222
0.00397225
0.00396045
0.00399997
0.00413046
0.00435187
0.00450743
0.00450703
0.00452127
0.00449422
0.00447262
0.00446565
0.00445665
0.00442833
0.00437387
0.00426284
0.00418179
0.0041502
0.00415615
0.00420262
0.00436186
0.00460792
0.00476161
0.00483374
0.00481176
0.00460054
0.00436352
0.00418785
0.0040835
0.00402178
0.0039838
0.00393443
0.00387782
0.00381692
0.00403555
0.00399447
0.00397814
0.00400491
0.00408399
0.00418674
0.00430488
0.00433207
0.00435552
0.00435632
0.0043045
0.00425508
0.00419415
0.00414526
0.00413145
0.00414728
0.00417647
0.00426756
0.00446556
0.00459751
0.00467357
0.00471991
0.00460996
0.00439622
0.00423727
0.0041312
0.0040559
0.00400746
0.00396223
0.00391504
0.00387793
0.0038496
0.00381569
0.00405615
0.00408018
0.00405483
0.00402005
0.00402083
0.00407895
0.00410261
0.00412053
0.00412687
0.00413211
0.00413091
0.00412643
0.00412828
0.00414195
0.00416419
0.00424732
0.00437087
0.00449193
0.00456565
0.00460174
0.00459819
0.00445129
0.00432067
0.00423183
0.00415952
0.00409193
0.00403224
0.0039803
0.00393899
0.00391292
0.00388966
0.00387755
0.00385871
0.0039805
0.00409937
0.00414533
0.00414534
0.0040975
0.00408501
0.00409493
0.0041162
0.00412441
0.00413075
0.00414813
0.0041622
0.0041996
0.00425911
0.00434684
0.00443768
0.00448742
0.00452154
0.00454352
0.00449692
0.00436417
0.00430205
0.00426469
0.00422443
0.00416492
0.00409544
0.00403402
0.00398519
0.00396181
0.00396018
0.00396755
0.00394082
0.00379765
0.00380983
0.00398064
0.0041435
0.00421362
0.00422161
0.00422159
0.00420948
0.00420957
0.00422729
0.00425015
0.00426175
0.0043035
0.00434299
0.00439263
0.00443941
0.00447086
0.00448467
0.00449105
0.00444051
0.00434245
0.00428701
0.00429074
0.00427323
0.00424962
0.00417812
0.00411578
0.0040622
0.00404361
0.00406581
0.00407118
0.00400841
0.00386169
0.00362338
0.00376269
0.00378817
0.00394927
0.0041617
0.00424347
0.00426194
0.00426845
0.00427192
0.00428025
0.00429797
0.00431494
0.00434179
0.0043777
0.00441593
0.00444011
0.0044509
0.00445261
0.00440782
0.00431164
0.00427429
0.00428883
0.00430358
0.00431874
0.00427775
0.0042324
0.00418476
0.00418578
0.00418614
0.00417015
0.004085
0.00396546
0.0037735
0.00358286
0.00376504
0.00375447
0.00379139
0.00390392
0.0041434
0.00424106
0.00426534
0.00427102
0.00427413
0.00428238
0.00430111
0.00433169
0.00437509
0.00441481
0.00442556
0.00442349
0.00439151
0.00429694
0.00425777
0.00425704
0.00430554
0.00434577
0.00436475
0.00436862
0.00435536
0.00435489
0.00431037
0.00424434
0.00416718
0.00406735
0.0039314
0.00379533
0.00368379
0.0038576
0.00379011
0.00377701
0.00379703
0.00387315
0.00405697
0.0042107
0.00424133
0.00424769
0.0042517
0.00426642
0.00430538
0.00437367
0.00441053
0.00441673
0.00439662
0.00429203
0.0042187
0.00420925
0.00426781
0.00433966
0.00440513
0.00449341
0.00454089
0.00452739
0.00443633
0.00432371
0.00422592
0.00411145
0.00397966
0.00384665
0.0037573
0.003673
0.00401454
0.00393398
0.00388417
0.00383336
0.00381028
0.00381947
0.00395219
0.00414974
0.0042036
0.00421984
0.00423566
0.00429335
0.00437614
0.00440776
0.00440546
0.00434029
0.00420876
0.00418051
0.00421151
0.00429837
0.00440722
0.00455924
0.00466284
0.00469457
0.00458778
0.00442754
0.0042612
0.00407928
0.00387613
0.00368486
0.00354046
0.00343904
0.00339619
0.00407003
0.00408393
0.0040963
0.00407402
0.00394128
0.00380327
0.00377398
0.00383555
0.00404054
0.00416501
0.0042126
0.00427665
0.00437306
0.00440036
0.00438256
0.00426546
0.00416656
0.00416159
0.00423138
0.00436275
0.00454741
0.00470828
0.00479466
0.00474061
0.00455437
0.00426664
0.00387779
0.00340063
0.00308393
0.00287567
0.00275978
0.00270376
0.00268352
0.00409383
0.00414409
0.00422634
0.00430478
0.00429085
0.00405128
0.0037838
0.00373477
0.00377731
0.00395339
0.00415027
0.00426398
0.00436188
0.00438437
0.00434715
0.00419467
0.00413713
0.00416421
0.00428715
0.00446804
0.00467185
0.00478668
0.0048115
0.00466863
0.00425468
0.00355861
0.00298119
0.00268808
0.00253725
0.0024466
0.00239894
0.00237152
0.00235652
0.0040942
0.00418839
0.00428396
0.00444286
0.0044764
0.00436737
0.00398486
0.00373608
0.00370017
0.00375017
0.00394511
0.00420349
0.00433046
0.00435096
0.00429633
0.00415247
0.00411907
0.00417857
0.00435693
0.00454229
0.00469493
0.00476769
0.00470238
0.00426202
0.00354694
0.00295539
0.00261702
0.00247744
0.00239428
0.00236586
0.00234029
0.00232997
0.00231521
0.00407165
0.00426019
0.00436546
0.00451522
0.0045528
0.00447608
0.00416404
0.00380028
0.00371238
0.0037271
0.00387468
0.00415783
0.00428384
0.00429934
0.00423265
0.00412048
0.00410804
0.00420283
0.00438999
0.00455287
0.00465046
0.004644
0.00432111
0.0038211
0.00327937
0.00283734
0.00259899
0.00247016
0.00243845
0.00242309
0.00243297
0.00245304
0.00245761
0.00395533
0.00431923
0.00446224
0.00456871
0.00458771
0.00450821
0.00422188
0.00387598
0.00377292
0.00376903
0.00390295
0.00416156
0.00424899
0.00425407
0.00417991
0.00408658
0.00408822
0.00420602
0.0043906
0.00450743
0.00453361
0.00438461
0.00410373
0.00374126
0.00329316
0.00292386
0.0027283
0.00267132
0.00268022
0.00275316
0.00279525
0.00281134
0.00281267
0.00389118
0.00434238
0.00451858
0.00458976
0.00460482
0.00454267
0.00432544
0.00406604
0.00396962
0.00395175
0.0040371
0.00419452
0.00422594
0.00420184
0.00408238
0.00403699
0.00406325
0.00420279
0.00435451
0.00439984
0.00440439
0.00425805
0.00404849
0.00376461
0.00346722
0.00328275
0.00316027
0.00308811
0.00306101
0.00305092
0.00303742
0.00300042
0.00294231
0.0038559
0.00434292
0.00453248
0.0045903
0.00459833
0.00454967
0.0044123
0.00427113
0.00420787
0.00418382
0.00418587
0.0041983
0.00418305
0.00409141
0.00399465
0.00398127
0.00402715
0.00416965
0.00427057
0.00430584
0.00431066
0.00419915
0.00406387
0.00390805
0.00380171
0.00368403
0.00352096
0.0033711
0.00326484
0.00318551
0.00311199
0.00304283
0.00296573
0.00384727
0.00434248
0.00452449
0.00456478
0.00456692
0.00452007
0.0044067
0.00432242
0.00428365
0.00423843
0.0041887
0.00415655
0.00405512
0.00393747
0.0039079
0.0039133
0.00397671
0.00410848
0.00419422
0.00423173
0.00424315
0.00417244
0.0040988
0.00403583
0.00394676
0.00384287
0.00369234
0.0035194
0.00335379
0.00321356
0.0030899
0.00296431
0.0028454
0.00380895
0.00429855
0.0044864
0.00451847
0.00451347
0.00445093
0.00434788
0.00428698
0.00425298
0.00419443
0.00410851
0.0039917
0.00386625
0.00382625
0.00382038
0.00383916
0.00391901
0.00404171
0.00411425
0.00415986
0.0041736
0.00412972
0.00408404
0.00404032
0.0039698
0.00387123
0.00373079
0.0035482
0.00333682
0.00311092
0.00290295
0.00280129
0.00276599
0.00377797
0.0042532
0.00444151
0.00446823
0.00444767
0.00434642
0.00421227
0.00413503
0.00409122
0.00399983
0.0038542
0.00375016
0.00371027
0.00369922
0.00370025
0.00374355
0.00385481
0.00396353
0.00403809
0.0040865
0.00409669
0.00407827
0.00403436
0.00400267
0.00392313
0.00380595
0.00362049
0.00336316
0.00310201
0.0029318
0.00285347
0.00282212
0.00281284
0.00371083
0.00418024
0.00440684
0.00443703
0.00440476
0.00426836
0.00408209
0.0039279
0.00380982
0.00368547
0.00360329
0.00357485
0.00356837
0.00357479
0.00360866
0.00368051
0.00377825
0.00386865
0.0039598
0.00400824
0.00401753
0.00400111
0.00394299
0.00387279
0.0036978
0.00347078
0.00324085
0.00310326
0.00302953
0.00299449
0.00298105
0.00299639
0.00302709
0.00364817
0.00406759
0.00435584
0.004399
0.00437133
0.00422481
0.00400129
0.00378222
0.00359339
0.00342975
0.00336536
0.00335683
0.00336321
0.0033864
0.00344545
0.00354783
0.0036526
0.00373609
0.00381195
0.00383788
0.00382605
0.00376481
0.0035777
0.00335523
0.00317779
0.00312162
0.00312157
0.00316434
0.00320277
0.00321778
0.00320549
0.00317381
0.00314655
0.0035838
0.00394119
0.00430091
0.00436811
0.00435571
0.00423058
0.00400696
0.0037672
0.00355412
0.00337004
0.00323122
0.00316704
0.00314649
0.00314518
0.00316158
0.00320717
0.00327041
0.00330822
0.00331654
0.00327999
0.0032121
0.00313116
0.00309146
0.00308774
0.00314652
0.0032571
0.00333155
0.00334739
0.00332909
0.00329211
0.00325307
0.00322172
0.00318863
0.00351463
0.0037776
0.00421737
0.00434451
0.00435086
0.00426474
0.00406505
0.00382456
0.00360433
0.00341921
0.00326526
0.00317172
0.00311326
0.00306926
0.00304786
0.00304082
0.00304033
0.00303977
0.00304122
0.0030477
0.00307421
0.00312647
0.00318447
0.00330638
0.00338951
0.00341305
0.00339594
0.00336386
0.00331754
0.00328307
0.00325114
0.00322683
0.00319553
0.00346305
0.00361724
0.00406348
0.0043097
0.00434235
0.00431321
0.00418614
0.00398737
0.00378429
0.00361968
0.00346907
0.00333652
0.00323235
0.00314782
0.00311232
0.00309734
0.00309461
0.00309959
0.00313006
0.00318875
0.00327846
0.0033756
0.00345104
0.00347253
0.00346908
0.00346154
0.00339357
0.0033565
0.00330193
0.00326275
0.00323259
0.00320601
0.00318395
0.00342872
0.00349592
0.00382659
0.00423025
0.00432482
0.00433047
0.00427706
0.00414082
0.00396816
0.00381532
0.00368692
0.00357461
0.00348074
0.00339091
0.00334787
0.00333591
0.00333716
0.00336093
0.0034133
0.00347277
0.0035178
0.0035624
0.0035858
0.00359095
0.00358573
0.00354027
0.00350358
0.00341295
0.00334443
0.00326667
0.00322836
0.00319884
0.0031804
0.00341114
0.00341302
0.00358445
0.00403718
0.00427157
0.00433035
0.00434365
0.00431523
0.00423559
0.00415816
0.00408955
0.00402231
0.00395666
0.00388788
0.00384139
0.00381822
0.0037922
0.00378549
0.00379795
0.00382665
0.00385801
0.00389247
0.00391179
0.00392404
0.00390054
0.0038586
0.00374955
0.00364054
0.00349392
0.00337415
0.00327511
0.0032183
0.00318461
0.00341578
0.00337271
0.00342875
0.00374577
0.00413805
0.00427404
0.00433733
0.00438477
0.00439405
0.00439534
0.00442759
0.00445489
0.00446038
0.00445133
0.00442871
0.00441248
0.00440417
0.00440322
0.00441816
0.00443871
0.00446332
0.00448986
0.00449719
0.00448771
0.00445245
0.00437179
0.00425826
0.00407489
0.00388289
0.00365275
0.00345423
0.00330349
0.00322568
0.00344393
0.00335702
0.00334256
0.00349748
0.00391496
0.00413306
0.00424163
0.00437101
0.00441792
0.00444841
0.00451436
0.00461414
0.00469023
0.00476306
0.00481169
0.00482814
0.0048358
0.00484541
0.00485503
0.00487197
0.00489091
0.00491315
0.00493144
0.00494189
0.00493482
0.00489869
0.00482702
0.0047003
0.00449422
0.00421293
0.00387909
0.00357217
0.00334434
0.00346929
0.00337888
0.00329979
0.00333416
0.00363523
0.00395928
0.00407233
0.0042628
0.00439422
0.00444104
0.00450404
0.00461129
0.00470998
0.00480566
0.00490034
0.00496243
0.00499109
0.00502014
0.00504079
0.00506141
0.00508137
0.00509458
0.00510408
0.00511049
0.00510708
0.00508483
0.00504602
0.00498397
0.00489183
0.00475207
0.00452636
0.0041404
0.00369468
0.00347963
0.00344608
0.00330472
0.00325485
0.0033682
0.00373418
0.00390071
0.00402804
0.00428677
0.00440029
0.00445473
0.00455114
0.00467291
0.00477369
0.00487331
0.0049562
0.00499697
0.00503515
0.00506401
0.00508793
0.00510665
0.0051226
0.00513772
0.00514903
0.0051492
0.00513217
0.00510033
0.00505407
0.00499623
0.00492104
0.00481385
0.00464716
0.00434743
0.00347401
0.00348221
0.00338864
0.00324301
0.00323191
0.00347684
0.00373547
0.00381524
0.00401268
0.00427976
0.00436735
0.00440889
0.00453593
0.00464387
0.00473095
0.00485999
0.00494415
0.00499692
0.00503331
0.00506155
0.00507782
0.00508965
0.00509845
0.00510133
0.00509735
0.00509174
0.00507583
0.00505076
0.00500464
0.00494841
0.00487318
0.00478284
0.00465635
0.00343238
0.00348613
0.00347034
0.00330013
0.00318956
0.00324782
0.00355939
0.00365106
0.00373773
0.00398143
0.0042344
0.00430461
0.00434761
0.00444666
0.00455406
0.00463037
0.00474649
0.0048501
0.00492132
0.00495979
0.00496202
0.00495495
0.00494521
0.00492584
0.00492033
0.00490848
0.00489231
0.00487431
0.00485826
0.0048526
0.00483695
0.00479226
0.00471545
0.00334247
0.0034656
0.00350032
0.00344448
0.00322289
0.00315092
0.00331717
0.00354536
0.00356483
0.00366937
0.00394553
0.00418026
0.00423911
0.00426397
0.00433931
0.00442338
0.00450268
0.00459465
0.00470155
0.00478962
0.00483754
0.00484527
0.00482786
0.00479647
0.00474424
0.00469374
0.00463367
0.00458335
0.00455406
0.00455342
0.00457655
0.00463035
0.00466015
0.00327781
0.00338145
0.00349276
0.0035097
0.00338423
0.00315417
0.00312276
0.0033974
0.00348354
0.00348238
0.00360454
0.00390469
0.00409971
0.00415864
0.00417387
0.00419523
0.00423731
0.00430308
0.00440914
0.00449854
0.00457567
0.0046274
0.00465028
0.00464545
0.00461688
0.00455616
0.004452
0.00432002
0.00419889
0.00414513
0.00415253
0.00422987
0.00436294
0.00325466
0.00329442
0.00342652
0.0035167
0.00351217
0.00330355
0.00309982
0.00314069
0.00340782
0.00341995
0.00339111
0.00354026
0.00382098
0.00400313
0.00406939
0.00408334
0.00408479
0.00410195
0.00414159
0.00419845
0.00426513
0.0043219
0.00435003
0.00434372
0.00429687
0.00414417
0.0039048
0.00370919
0.00360369
0.00358214
0.00361355
0.00370049
0.00385829
0.0032534
0.0032679
0.00333491
0.00347339
0.00352878
0.00349974
0.00320979
0.00304728
0.00319313
0.0033858
0.00333295
0.00331343
0.00346863
0.00370348
0.0038631
0.00393871
0.00397874
0.00399274
0.00402282
0.00405473
0.00407312
0.00407454
0.00403164
0.00386332
0.00359441
0.00337284
0.00324537
0.00319542
0.00317909
0.00317944
0.0031978
0.00323822
0.00332811
0.0032636
0.00326655
0.00329946
0.00338553
0.00349192
0.00353531
0.00348115
0.00309909
0.00305102
0.00326605
0.00331765
0.00325506
0.003256
0.00338842
0.00356204
0.00369056
0.00376375
0.00380477
0.00382577
0.00381946
0.00378738
0.00368727
0.00349181
0.00328023
0.00314606
0.00310145
0.00310318
0.00310135
0.00308737
0.00307753
0.00307713
0.00308325
0.00309841
0.00328959
0.00328129
0.0032966
0.00335736
0.00343658
0.00351175
0.00354228
0.00335155
0.00306369
0.00309893
0.00327102
0.00324847
0.00319806
0.00320678
0.00329243
0.00340985
0.00349301
0.00354271
0.0035402
0.00350864
0.00341801
0.00327762
0.00316654
0.00312324
0.00312954
0.0031523
0.00314021
0.00306668
0.00298193
0.0029551
0.00298057
0.00302654
0.00303609
0.00332849
0.00332274
0.00331128
0.00335568
0.00341511
0.0034707
0.0035139
0.00350703
0.0032398
0.00309661
0.00313966
0.00322989
0.00320066
0.00315531
0.00315241
0.00319852
0.00325891
0.00329162
0.00328142
0.00324282
0.00317473
0.00313364
0.00314015
0.00317713
0.00318825
0.00311733
0.00283569
0.00256445
0.00244613
0.00245261
0.00261708
0.00287643
0.0029897
0.00336904
0.00336123
0.00336348
0.00337217
0.00341965
0.00345051
0.00348466
0.00353
0.00345842
0.00318123
0.00312149
0.0031598
0.00319534
0.00316437
0.00311914
0.00310365
0.00311878
0.00313279
0.0031284
0.00311441
0.00310732
0.00312801
0.00316791
0.00315892
0.00293669
0.00242549
0.00216161
0.00207176
0.00204909
0.00206397
0.00215489
0.00243625
0.00281197
0.00341939
0.00341536
0.00341476
0.00342867
0.00345629
0.00345945
0.00348105
0.00350215
0.00349959
0.00340336
0.00316731
0.00313614
0.0031635
0.00316425
0.00313227
0.00309314
0.00307777
0.00307648
0.00307582
0.0030818
0.00310671
0.00314149
0.00313666
0.00288252
0.00231831
0.0020747
0.00200266
0.00198344
0.00197934
0.00198701
0.0020182
0.00211817
0.00241549
0.00346736
0.0034695
0.00347194
0.00347988
0.0035189
0.00351129
0.00349243
0.00348781
0.00350022
0.00347898
0.00334016
0.00316387
0.00314562
0.00315636
0.00314796
0.00310963
0.00307862
0.00306875
0.00306737
0.00307833
0.00310766
0.00311471
0.00291689
0.00238179
0.00213359
0.0020587
0.0020455
0.00203072
0.00200545
0.00199101
0.00200169
0.00205094
0.00217296
0.00351535
0.00352611
0.00353543
0.00353737
0.00355039
0.00355408
0.00353827
0.00350315
0.00350065
0.00349388
0.00345294
0.00328361
0.00316257
0.0031495
0.00314789
0.00313782
0.00310161
0.0030742
0.00306781
0.0030721
0.0030749
0.00297338
0.00256472
0.0022493
0.00215079
0.00218011
0.00228188
0.00229222
0.00220706
0.00210248
0.00206219
0.00206594
0.00212608
0.00355915
0.00357967
0.00357242
0.00355837
0.00355882
0.00356098
0.00355729
0.00353236
0.0035084
0.00349837
0.00348155
0.00341815
0.00322831
0.00315631
0.00314639
0.0031409
0.00312899
0.00310002
0.00307588
0.00306124
0.00301185
0.00282577
0.00245951
0.00226678
0.00228556
0.00250091
0.00269388
0.00271182
0.00257823
0.00231599
0.00218555
0.00215401
0.00216702
0.00359878
0.00360688
0.00358079
0.00355808
0.00355113
0.00355121
0.00355059
0.0035391
0.00351961
0.0034993
0.00348748
0.003461
0.00337378
0.0031956
0.00314883
0.00313661
0.00312946
0.00311786
0.00309534
0.00306461
0.00299901
0.00280547
0.00246864
0.00237363
0.00244093
0.0026884
0.0028725
0.00290149
0.00283713
0.00257236
0.00234609
0.0022655
0.00226438
0.00362586
0.00361365
0.00357503
0.00354625
0.00353288
0.00352866
0.00353065
0.00352615
0.00351538
0.00349733
0.00348596
0.0034712
0.00343396
0.00331011
0.00317117
0.00313376
0.00312343
0.00311514
0.00310289
0.00307597
0.00301353
0.00282262
0.00254108
0.00250628
0.00255281
0.00273951
0.00293965
0.00299559
0.00296752
0.00276794
0.00249049
0.0023744
0.00236526
0.0036373
0.00361391
0.00355879
0.00352441
0.00350308
0.00349199
0.00349601
0.00349928
0.00349778
0.00348913
0.00347923
0.00346812
0.00344876
0.00339573
0.00324278
0.00314646
0.00311548
0.00310609
0.00309995
0.00308467
0.00304928
0.002901
0.00270753
0.00268347
0.00271279
0.00283008
0.00300204
0.00306542
0.00305217
0.00290164
0.00261819
0.00247843
0.00246359
0.00364137
0.00359433
0.00353785
0.00350407
0.00348078
0.0034632
0.00345375
0.00345768
0.0034706
0.00347131
0.00346667
0.00346079
0.00344918
0.0034239
0.00335431
0.00319323
0.00312497
0.00310171
0.00309253
0.00308715
0.0030721
0.00301353
0.00288886
0.00287122
0.0028901
0.00296096
0.00307627
0.00312083
0.00310614
0.00296563
0.00268315
0.00256294
0.0025533
0.00364373
0.00356981
0.00352872
0.0034981
0.0034749
0.00345551
0.00343496
0.00342407
0.00342713
0.00343799
0.00344738
0.0034505
0.00344637
0.00343314
0.0033993
0.00331228
0.00316494
0.00311342
0.00309653
0.00309083
0.0030872
0.0030677
0.00301453
0.00300962
0.00302362
0.00307226
0.00313515
0.00314781
0.00311753
0.00292365
0.00269033
0.00261499
0.00262621
0.00362522
0.00356038
0.00352925
0.00350816
0.00348802
0.00346049
0.003432
0.00341279
0.00340338
0.00340477
0.00341896
0.0034362
0.00344336
0.00343825
0.00342288
0.00338368
0.00327202
0.00315665
0.00311636
0.00310402
0.00310155
0.00309163
0.00307813
0.00308109
0.00309617
0.00312758
0.0031455
0.00313563
0.0030426
0.00278306
0.00265775
0.00264741
0.00270593
0.00361397
0.00356612
0.00356677
0.0035684
0.00355292
0.00350976
0.00345648
0.00341756
0.00339698
0.00339082
0.00339838
0.00342364
0.00343888
0.00344659
0.00344159
0.00342463
0.00337594
0.0032533
0.00316446
0.0031327
0.00312804
0.00311973
0.00311899
0.00312168
0.00312625
0.00313032
0.00312153
0.00305665
0.00281546
0.00265378
0.00263989
0.00268685
0.00289896
0.00361348
0.00362333
0.00366951
0.00369552
0.00366913
0.00359456
0.0035092
0.00344664
0.00341195
0.00339413
0.00339833
0.00341946
0.00343781
0.00345442
0.00346139
0.0034562
0.00343424
0.00337288
0.00324542
0.00318504
0.00315909
0.003149
0.00314234
0.00313346
0.00312483
0.00310515
0.00303452
0.00279638
0.00261335
0.00259847
0.00264012
0.00284322
0.00314357
0.00367153
0.00373721
0.00385594
0.00388482
0.00382813
0.0037072
0.00358283
0.00348842
0.00343651
0.00340981
0.00340622
0.00342429
0.00344195
0.00346094
0.00348178
0.00348672
0.00348228
0.00345752
0.00336861
0.00326217
0.00321274
0.00317403
0.00314145
0.00312196
0.00309001
0.00300541
0.0027534
0.00257401
0.00255342
0.00259479
0.00278492
0.00307839
0.00323809
0.00377818
0.00394748
0.00410488
0.00411607
0.004023
0.00387277
0.00371189
0.00356136
0.0034697
0.00343589
0.00342652
0.00343759
0.00345171
0.00347091
0.00350137
0.00352219
0.00352209
0.00350586
0.00345777
0.00335623
0.00325204
0.0031715
0.00312923
0.0030832
0.00296247
0.00267953
0.00253354
0.00252469
0.00257424
0.00279281
0.00304327
0.00316964
0.00322689
0.00396422
0.00422664
0.00433115
0.00431336
0.00424756
0.00414247
0.00397752
0.0037475
0.00355865
0.00348961
0.00346759
0.00346431
0.00347204
0.00349346
0.00352763
0.00354981
0.0035536
0.00355677
0.00350719
0.00335815
0.003227
0.00314855
0.0030743
0.00287185
0.00260331
0.00250872
0.002519
0.0025998
0.00285837
0.00307488
0.00316103
0.0031791
0.00321333
0.0042303
0.0044091
0.00442053
0.0043773
0.00432705
0.00427712
0.00419849
0.00406383
0.00386233
0.00365906
0.00357609
0.00354654
0.003541
0.00356584
0.0036155
0.0036388
0.00362519
0.00356747
0.00346704
0.00329087
0.00315434
0.00299806
0.00271036
0.00253137
0.00251201
0.00255297
0.0027047
0.0030071
0.00316188
0.00320546
0.00321574
0.00321477
0.00321901
0.00441796
0.00446632
0.00443747
0.00437971
0.00432979
0.00428881
0.00423032
0.00414532
0.00404241
0.00392708
0.00383051
0.00378417
0.00374861
0.0037318
0.00369267
0.00364681
0.00358542
0.0034828
0.00329015
0.00304078
0.00277249
0.00255452
0.00251925
0.00255998
0.00268162
0.00297459
0.00322524
0.00330443
0.00332118
0.00333455
0.00334847
0.0033612
0.0033689
0.00447666
0.00447459
0.00438721
0.00426577
0.00419707
0.00416458
0.00412411
0.00406556
0.00399527
0.00392981
0.00386046
0.00380225
0.00374449
0.00368084
0.00359124
0.00346332
0.00326275
0.00296426
0.00270971
0.00256731
0.00252969
0.00260004