/*--------------------------------*- C++ -*----------------------------------*\
  =========                 |
  \\      /  F ield         | OpenFOAM: The Open Source CFD Toolbox
   \\    /   O peration     | Website:  https://openfoam.org
    \\  /    A nd           | Version:  11
     \\/     M anipulation  |
\*---------------------------------------------------------------------------*/
FoamFile
{
    format      ascii;
    class       volScalarField;
    location    "6.5";
    object      mag(U);
}
// * * * * * * * * * * * * * * * * * * * * * * * * * * * * * * * * * * * * * //

dimensions      [0 1 -1 0 0 0 0];

internalField   nonuniform List<scalar> 
9600
(
0.993683
0.993035
0.992134
0.991486
0.991352
0.991479
0.99177
0.992296
0.99317
0.994403
0.995961
0.997789
0.999687
1.00174
1.00401
1.00636
1.00928
1.0137
1.01521
1.01363
1.00427
0.985452
0.972262
0.966279
0.965773
0.971355
0.986704
1.00263
1.01724
1.03096
1.04444
1.05659
1.06521
1.06918
1.0695
1.06812
1.0653
1.06152
1.05758
1.05207
0.994192
0.994146
0.994231
0.994498
0.995103
0.99586
0.996582
0.997511
0.999214
1.0007
1.00223
1.0049
1.008
1.01075
1.01346
1.01629
1.01876
1.02126
1.02409
1.02715
1.02984
1.03131
1.03109
1.02851
1.027
1.02806
1.0309
1.03639
1.04387
1.05174
1.06014
1.06691
1.07258
1.0755
1.07681
1.07534
1.0732
1.0672
1.0628
1.04966
0.994286
0.994302
0.994453
0.994719
0.995375
0.996003
0.996674
0.997759
0.999337
1.00105
1.00272
1.0053
1.00847
1.01159
1.01377
1.01544
1.018
1.02287
1.02821
1.03196
1.03303
1.03196
1.02931
1.02333
1.0198
1.0206
1.02509
1.03178
1.0407
1.05038
1.05982
1.06812
1.07575
1.08225
1.08648
1.08778
1.08745
1.08603
1.08329
1.074
0.994352
0.994413
0.994596
0.995012
0.995603
0.996316
0.997199
0.998188
0.999579
1.00162
1.00388
1.00537
1.00813
1.01162
1.01496
1.01658
1.0188
1.02215
1.02701
1.03025
1.03252
1.03364
1.03505
1.03616
1.03944
1.0425
1.04755
1.05115
1.05687
1.06172
1.06837
1.07282
1.07876
1.08132
1.08421
1.08266
1.08091
1.07454
1.06966
1.05735
0.994398
0.994478
0.994707
0.995172
0.995855
0.996602
0.997246
0.998408
0.999876
1.00175
1.00384
1.00635
1.00855
1.01134
1.01451
1.01834
1.02132
1.02291
1.02421
1.02709
1.03333
1.03864
1.04245
1.04358
1.04309
1.04187
1.04271
1.04409
1.04872
1.05454
1.06242
1.06928
1.07598
1.081
1.08562
1.08796
1.08889
1.08765
1.08629
1.07928
0.994365
0.994459
0.994764
0.995284
0.996017
0.996694
0.997473
0.998404
1.00031
1.00242
1.00443
1.00591
1.00892
1.0121
1.0158
1.01801
1.02029
1.02225
1.02579
1.02937
1.03317
1.03603
1.03934
1.04084
1.04496
1.0481
1.05283
1.05578
1.06143
1.06566
1.07256
1.07663
1.08367
1.08669
1.09165
1.09125
1.09119
1.08472
1.08013
1.06698
0.994403
0.994512
0.994854
0.995385
0.996295
0.996822
0.997731
0.998539
1.00063
1.00272
1.00488
1.00626
1.00905
1.01277
1.01675
1.01846
1.02087
1.02299
1.02659
1.0287
1.0327
1.03525
1.03974
1.04318
1.0469
1.04845
1.05109
1.05219
1.05584
1.05915
1.06561
1.07135
1.07861
1.08305
1.08777
1.08959
1.09207
1.09117
1.0908
1.08467
0.994312
0.994369
0.994841
0.99529
0.99627
0.996875
0.997735
0.99872
1.00098
1.00282
1.00501
1.00699
1.00971
1.01257
1.01633
1.01939
1.02237
1.02395
1.02619
1.02853
1.03302
1.03637
1.0404
1.04131
1.04349
1.04519
1.05041
1.05348
1.06004
1.06454
1.07272
1.07756
1.08587
1.08987
1.09689
1.09809
1.10133
1.0963
1.09305
1.08013
0.994387
0.994436
0.994939
0.995463
0.996424
0.997047
0.998023
0.99904
1.00082
1.0035
1.00555
1.00771
1.00957
1.01304
1.01712
1.02057
1.02319
1.02468
1.02723
1.02899
1.03318
1.0352
1.03881
1.04088
1.04428
1.04554
1.04885
1.05087
1.05631
1.06032
1.06711
1.0726
1.08092
1.08658
1.09297
1.09482
1.09756
1.0964
1.09735
1.09111
0.994253
0.994277
0.994794
0.995389
0.996379
0.997055
0.998072
0.998945
1.00103
1.00356
1.00598
1.00792
1.0102
1.01344
1.01734
1.02077
1.02399
1.02593
1.02815
1.02928
1.0323
1.03476
1.03915
1.04095
1.04356
1.04335
1.04622
1.04714
1.0533
1.05774
1.06715
1.07334
1.08397
1.08983
1.0995
1.10261
1.10906
1.10714
1.10713
1.09572
0.994451
0.994452
0.994943
0.995482
0.99649
0.99722
0.998253
0.999464
1.00109
1.00379
1.00639
1.00907
1.0108
1.01368
1.01752
1.02181
1.02537
1.0272
1.02895
1.02976
1.0327
1.03492
1.03872
1.04002
1.04267
1.04328
1.04594
1.04572
1.04938
1.05296
1.06063
1.06708
1.07792
1.08571
1.09625
1.10111
1.10696
1.10561
1.108
1.09978
0.994196
0.994192
0.994811
0.995197
0.996307
0.99691
0.998191
0.999331
1.00114
1.00362
1.00681
1.00922
1.01114
1.01401
1.01806
1.02194
1.02591
1.02798
1.02995
1.03102
1.03306
1.03451
1.03793
1.03982
1.04261
1.0429
1.04452
1.04344
1.0458
1.04748
1.05492
1.0612
1.07426
1.08281
1.09703
1.10364
1.11448
1.11573
1.12077
1.11066
0.994304
0.994316
0.994987
0.995418
0.996383
0.997091
0.998435
0.999776
1.00142
1.00417
1.00687
1.00997
1.01215
1.01508
1.01889
1.02264
1.02672
1.02915
1.03169
1.03261
1.03444
1.03525
1.03813
1.03928
1.04128
1.04123
1.04298
1.04234
1.0437
1.04357
1.04923
1.05412
1.06543
1.07455
1.0898
1.09932
1.1131
1.11571
1.12276
1.11389
0.993876
0.993789
0.994596
0.994922
0.996077
0.996887
0.997991
0.999569
1.0017
1.00398
1.00706
1.00995
1.01294
1.01537
1.01928
1.02275
1.02717
1.03014
1.03267
1.03377
1.03558
1.03641
1.03789
1.03856
1.03999
1.04008
1.04112
1.04036
1.04141
1.04061
1.04451
1.04755
1.05825
1.0666
1.08336
1.09411
1.11283
1.11841
1.13248
1.12567
0.99368
0.994101
0.994755
0.995126
0.996166
0.997049
0.998408
0.999917
1.00173
1.00468
1.00769
1.01086
1.01385
1.0166
1.02028
1.02408
1.02865
1.03146
1.03455
1.03581
1.03797
1.03865
1.03914
1.03908
1.03898
1.03856
1.03917
1.03791
1.03927
1.03796
1.0411
1.04265
1.05156
1.05904
1.07449
1.08575
1.10612
1.11457
1.13392
1.12964
0.992931
0.993352
0.994087
0.994559
0.995259
0.99648
0.997901
0.999445
1.00172
1.00406
1.00791
1.01061
1.01442
1.01725
1.02108
1.02455
1.02886
1.03212
1.03565
1.0371
1.03893
1.03956
1.04009
1.03957
1.03859
1.03701
1.03654
1.03469
1.03564
1.03384
1.03783
1.0375
1.04596
1.05149
1.06692
1.07717
1.09965
1.10879
1.13439
1.13526
0.992449
0.993071
0.994082
0.994787
0.995665
0.996719
0.99827
1.00033
1.00238
1.00496
1.00806
1.01169
1.01545
1.01919
1.02303
1.02602
1.03055
1.03395
1.03769
1.03981
1.04132
1.04203
1.04226
1.04124
1.03975
1.03675
1.03528
1.0318
1.0322
1.02911
1.03251
1.03175
1.03985
1.04383
1.05903
1.06902
1.09166
1.10231
1.12882
1.13509
0.991273
0.992111
0.992693
0.993817
0.994825
0.995905
0.997473
0.999639
1.00213
1.00466
1.00784
1.0114
1.0156
1.01944
1.0238
1.02713
1.03147
1.03488
1.03839
1.04088
1.04265
1.04315
1.04303
1.04177
1.04016
1.03658
1.03426
1.02942
1.02907
1.02336
1.02597
1.02357
1.03124
1.03403
1.04887
1.05878
1.08189
1.09472
1.12362
1.1359
0.991315
0.992093
0.992596
0.993695
0.994921
0.996304
0.998056
1.00001
1.00308
1.00601
1.00936
1.01293
1.01679
1.0207
1.02589
1.02964
1.03426
1.03791
1.04103
1.04332
1.04556
1.04619
1.04617
1.04407
1.04232
1.03758
1.03477
1.02836
1.02701
1.01999
1.02071
1.01538
1.0209
1.02209
1.03527
1.0445
1.06791
1.08308
1.11561
1.13164
0.98951
0.990626
0.991366
0.992164
0.993723
0.994964
0.997203
0.999193
1.00215
1.00565
1.00928
1.01333
1.01737
1.02114
1.0263
1.0304
1.03534
1.03944
1.04313
1.04518
1.0472
1.04754
1.04776
1.04515
1.04328
1.03785
1.03452
1.02695
1.02448
1.01638
1.01564
1.0084
1.01081
1.00929
1.01918
1.02594
1.04701
1.064
1.09558
1.12326
0.989692
0.990781
0.991641
0.992211
0.994125
0.995087
0.997893
0.999902
1.00313
1.00675
1.01068
1.01504
1.01986
1.02389
1.02902
1.03337
1.03816
1.04245
1.04689
1.04915
1.05163
1.05151
1.05154
1.04851
1.04675
1.04095
1.03708
1.02853
1.0246
1.01438
1.01159
1.00268
1.00264
0.997745
1.00399
1.0083
1.02255
1.04078
1.06556
1.10285
0.988402
0.988747
0.990129
0.990266
0.99247
0.993609
0.996348
0.998816
1.00227
1.00614
1.01047
1.01488
1.02014
1.02482
1.0303
1.03514
1.04017
1.04424
1.04885
1.05114
1.05401
1.05409
1.05449
1.05075
1.04883
1.04246
1.03824
1.02898
1.02408
1.01268
1.0079
0.996626
0.994114
0.987512
0.987594
0.991326
0.995782
1.01545
1.02791
1.07276
0.988909
0.98907
0.990753
0.990757
0.993124
0.994248
0.997177
0.999837
1.00347
1.00753
1.01255
1.01711
1.02272
1.02777
1.03361
1.03881
1.04476
1.04891
1.05407
1.05641
1.05919
1.05893
1.0602
1.05633
1.05418
1.0474
1.04281
1.03301
1.02709
1.01483
1.00762
0.995538
0.987491
0.980697
0.972241
0.975837
0.969947
0.98822
0.99017
1.03312
0.986598
0.987076
0.988969
0.988965
0.991343
0.992692
0.995597
0.998475
1.00235
1.00671
1.01202
1.01715
1.02344
1.02875
1.0353
1.04045
1.04696
1.05133
1.05693
1.05962
1.06337
1.06241
1.06391
1.06013
1.05809
1.05082
1.04612
1.03586
1.02903
1.01667
1.00621
0.99523
0.981415
0.974549
0.959013
0.961106
0.94643
0.960828
0.953187
0.988921
0.98679
0.987303
0.989471
0.98986
0.992347
0.9942
0.997441
1.00044
1.00477
1.00921
1.01495
1.02011
1.02701
1.03257
1.0401
1.04546
1.05267
1.05743
1.06354
1.06577
1.07068
1.07
1.07172
1.06809
1.06624
1.05894
1.05359
1.04409
1.03456
1.02445
1.00968
0.999616
0.981396
0.973945
0.953111
0.951184
0.929966
0.937143
0.920394
0.947792
0.983301
0.983837
0.986176
0.98685
0.989781
0.991947
0.995605
0.999298
1.00412
1.00874
1.01541
1.02065
1.02839
1.03408
1.04207
1.0478
1.05574
1.06045
1.06795
1.07013
1.07538
1.07517
1.07694
1.07418
1.07189
1.06617
1.05862
1.05164
1.03903
1.03067
1.01343
1.00356
0.982782
0.973733
0.950022
0.943844
0.918373
0.918772
0.894152
0.911361
0.983775
0.984447
0.987241
0.988148
0.991049
0.993926
0.997798
1.00187
1.00749
1.01239
1.01993
1.02581
1.03407
1.04057
1.04916
1.05519
1.06385
1.06871
1.07617
1.07969
1.0841
1.08597
1.08627
1.08605
1.08143
1.07887
1.06923
1.06426
1.0503
1.04243
1.0248
1.01435
0.992782
0.981493
0.956068
0.945879
0.917603
0.91149
0.881127
0.886172
0.978716
0.980449
0.9823
0.98472
0.987342
0.990665
0.995342
0.999788
1.00588
1.01212
1.01933
1.02703
1.03543
1.04341
1.05204
1.05998
1.068
1.07535
1.08123
1.08753
1.09008
1.09441
1.09294
1.09521
1.0892
1.08861
1.0781
1.07397
1.06017
1.05222
1.03486
1.02413
1.00265
0.990101
0.964353
0.95139
0.922295
0.910842
0.878433
0.870927
0.977801
0.981286
0.983186
0.986102
0.989573
0.993455
0.998074
1.0047
1.00984
1.01845
1.02524
1.03481
1.04251
1.05307
1.06062
1.07122
1.07788
1.08792
1.09247
1.10138
1.10243
1.10953
1.10676
1.11065
1.10444
1.10462
1.09493
1.09101
1.07785
1.07042
1.05346
1.04282
1.02189
1.00847
0.983786
0.968397
0.940193
0.923816
0.893182
0.875991
0.971614
0.974654
0.97739
0.98105
0.983704
0.990221
0.993607
1.00209
1.00777
1.01775
1.0247
1.03667
1.04425
1.05698
1.06437
1.07742
1.08309
1.09605
1.09925
1.11057
1.11121
1.11945
1.11714
1.12185
1.11633
1.11744
1.10853
1.10558
1.09313
1.0865
1.07061
1.05999
1.0408
1.0264
1.00359
0.985893
0.960321
0.939994
0.913221
0.890514
0.973701
0.97826
0.979962
0.985504
0.988006
0.995185
0.999099
1.00842
1.01401
1.02585
1.03276
1.04651
1.05395
1.06895
1.0758
1.09136
1.09675
1.11136
1.11499
1.12731
1.12833
1.13758
1.1358
1.14138
1.13639
1.13834
1.13048
1.12818
1.11781
1.11157
1.09877
1.08785
1.07217
1.05713
1.0379
1.01922
0.996681
0.975104
0.952147
0.928093
0.963751
0.970596
0.972417
0.979736
0.982694
0.992166
0.99679
1.00805
1.01437
1.02791
1.03559
1.05156
1.05948
1.07661
1.08355
1.10055
1.10653
1.12164
1.12585
1.13841
1.14018
1.14963
1.14861
1.15454
1.15102
1.15286
1.14785
1.14523
1.1388
1.13156
1.12241
1.11093
1.0998
1.08326
1.06975
1.04812
1.0321
1.00577
0.990672
0.957665
0.967596
0.974536
0.977805
0.983968
0.989146
0.99796
1.00559
1.01756
1.02679
1.04151
1.05147
1.06896
1.07802
1.09657
1.10486
1.12276
1.12924
1.14568
1.15007
1.16317
1.16614
1.17467
1.17592
1.18033
1.17913
1.1807
1.17633
1.17566
1.16838
1.165
1.15652
1.14941
1.1403
1.12683
1.11778
1.09569
1.08816
1.06158
1.04819
1.0239
0.956256
0.964264
0.970464
0.978012
0.985572
0.996198
1.00502
1.01952
1.02906
1.04675
1.05653
1.07676
1.08622
1.10681
1.117
1.13465
1.14447
1.1586
1.16719
1.17717
1.18438
1.19012
1.19571
1.19736
1.20141
1.19939
1.20305
1.19677
1.20059
1.19132
1.1941
1.18155
1.18322
1.16533
1.16476
1.1442
1.1398
1.11348
1.10757
1.07846
0.960615
0.967424
0.974381
0.983223
0.992129
1.00732
1.01818
1.03772
1.05047
1.07029
1.08613
1.10442
1.12169
1.13864
1.15668
1.16911
1.18803
1.19449
1.2126
1.21477
1.22915
1.22882
1.23985
1.23544
1.24642
1.2378
1.24829
1.23876
1.24753
1.23793
1.24482
1.23384
1.24064
1.22602
1.23241
1.21568
1.21849
1.20062
1.19953
1.17774
0.947291
0.964942
0.973187
0.988387
0.999067
1.01465
1.03119
1.04585
1.06617
1.08237
1.10439
1.12178
1.14307
1.16033
1.17986
1.19347
1.21239
1.21968
1.23726
1.23896
1.25348
1.25183
1.2626
1.25807
1.26768
1.26074
1.27016
1.26319
1.27303
1.26564
1.27734
1.26918
1.28181
1.2723
1.28291
1.27165
1.28008
1.26792
1.27312
1.25757
0.947236
0.96281
0.977093
0.997038
1.01951
1.04075
1.06723
1.08898
1.11431
1.13618
1.15786
1.18085
1.19956
1.22092
1.23676
1.25462
1.26722
1.28099
1.28891
1.29856
1.30195
1.30781
1.30752
1.31044
1.3081
1.31028
1.30761
1.31086
1.3104
1.31493
1.31794
1.32329
1.32889
1.33426
1.34072
1.347
1.35407
1.35825
1.36512
1.36834
0.957992
0.983822
1.00507
1.02629
1.04987
1.07019
1.09639
1.11934
1.14587
1.17139
1.19668
1.22201
1.24377
1.26675
1.28372
1.30336
1.31447
1.32939
1.33424
1.34435
1.34345
1.34892
1.3434
1.34564
1.3374
1.33872
1.33088
1.33399
1.32881
1.33547
1.33329
1.34311
1.34419
1.3536
1.35701
1.37461
1.37307
1.39036
1.3835
1.3978
0.992774
1.03073
1.07384
1.10804
1.15404
1.18499
1.2255
1.25712
1.29322
1.32335
1.35348
1.37968
1.40334
1.42532
1.44144
1.45899
1.46705
1.4786
1.47818
1.48198
1.47306
1.4678
1.45386
1.44127
1.42189
1.4043
1.3835
1.36444
1.34447
1.32702
1.30949
1.29615
1.2822
1.27206
1.25837
1.23743
1.20247
1.15636
1.07207
1.04434
1.16006
1.19601
1.23227
1.26935
1.30581
1.34032
1.37155
1.39893
1.42421
1.43882
1.45849
1.46654
1.48078
1.48592
1.4941
1.49214
1.4895
1.47849
1.46396
1.44396
1.41815
1.38941
1.35214
1.31271
1.26329
1.21427
1.15521
1.09918
1.03481
0.97537
0.910821
0.851618
0.788657
0.730974
0.66551
0.588671
0.444324
0.147933
0.118049
0.166132
1.05606
1.05619
1.05425
1.05442
1.05285
1.04004
1.02272
0.987977
0.937461
0.914989
0.882533
0.846093
0.949237
0.995508
0.992788
0.992409
0.997836
1.00012
1.00419
1.00605
1.00829
1.00989
1.0106
1.01152
1.01166
1.0122
1.01211
1.01222
1.01206
1.01205
1.01189
1.01188
1.01159
1.01145
1.01098
1.01081
1.01028
1.01018
1.01044
1.0124
1.05898
1.05952
1.05849
1.06
1.05803
1.0459
1.02717
0.988209
0.936068
0.912057
0.87939
0.826293
0.926886
0.986636
0.989727
0.989211
0.996423
0.999093
1.00374
1.006
1.00833
1.00999
1.01093
1.01188
1.012
1.01258
1.01254
1.01266
1.01255
1.01245
1.0123
1.01227
1.01203
1.01187
1.01141
1.01123
1.01071
1.0105
1.00994
1.00774
1.06458
1.06443
1.06453
1.0671
1.06707
1.05588
1.03576
0.992452
0.937534
0.911058
0.876841
0.81291
0.908935
0.975493
0.9833
0.985313
0.994563
0.998175
1.0037
1.00629
1.00879
1.01063
1.01152
1.01254
1.01262
1.01311
1.01313
1.0132
1.01308
1.01292
1.01278
1.01267
1.0125
1.01236
1.01187
1.01164
1.01119
1.0111
1.01131
1.01328
1.06605
1.06797
1.07078
1.07471
1.07522
1.06467
1.04237
0.993175
0.936131
0.905982
0.870497
0.790399
0.885388
0.964077
0.978143
0.981436
0.992508
0.996713
1.00285
1.00598
1.00854
1.01075
1.01175
1.01289
1.01291
1.01352
1.01354
1.01369
1.01359
1.01335
1.01324
1.01312
1.01297
1.01288
1.01242
1.01202
1.01146
1.01117
1.01055
1.0085
1.07237
1.0742
1.07872
1.08439
1.08736
1.07742
1.05329
0.997189
0.937018
0.901105
0.858977
0.774533
0.866369
0.951234
0.970132
0.977217
0.990168
0.995519
1.00243
1.00611
1.00893
1.01146
1.0124
1.01373
1.01372
1.01429
1.01422
1.01435
1.01418
1.01391
1.01368
1.01353
1.01337
1.01328
1.0129
1.01257
1.0122
1.01193
1.01194
1.01309
1.07477
1.07874
1.08631
1.09409
1.09889
1.08983
1.06331
0.998968
0.933198
0.891497
0.843392
0.748474
0.843677
0.938789
0.963417
0.973324
0.987704
0.99395
1.00129
1.00567
1.00879
1.01175
1.01263
1.01419
1.0141
1.01478
1.01469
1.01487
1.0147
1.01451
1.01412
1.01382
1.01357
1.01342
1.01317
1.01274
1.01244
1.01206
1.01157
1.00984
1.08197
1.08748
1.09639
1.10623
1.11407
1.10733
1.07766
1.00368
0.929543
0.8785
0.817614
0.728704
0.827188
0.925878
0.954777
0.969691
0.985232
0.993053
1.0008
1.00587
1.00916
1.01241
1.01338
1.01503
1.01498
1.01569
1.01552
1.0158
1.01551
1.01532
1.01483
1.01438
1.01411
1.01387
1.01387
1.01348
1.01327
1.01283
1.01278
1.01318
1.08532
1.09389
1.10671
1.11951
1.13006
1.12788
1.0936
1.00518
0.917712
0.857635
0.78702
0.701147
0.808635
0.913689
0.947764
0.966587
0.982751
0.99187
0.999654
1.00536
1.00883
1.0124
1.01358
1.01549
1.01553
1.01644
1.01629
1.01658
1.01634
1.0162
1.01578
1.01526
1.01489
1.01439
1.01432
1.01368
1.01358
1.01299
1.01277
1.0114
1.09353
1.10609
1.11979
1.13524
1.15134
1.15729
1.11505
1.0058
0.901175
0.826715
0.745826
0.680406
0.798726
0.902018
0.939977
0.964333
0.980799
0.991669
0.999479
1.00573
1.00912
1.013
1.01419
1.01618
1.01632
1.01717
1.01701
1.01741
1.01718
1.01707
1.01674
1.01612
1.01585
1.01517
1.01508
1.01447
1.0144
1.0138
1.01371
1.01353
1.09998
1.11352
1.13051
1.15192
1.17708
1.1931
1.13665
0.995339
0.869268
0.782746
0.700413
0.657673
0.789984
0.892258
0.934324
0.963115
0.979197
0.991579
0.999212
1.00578
1.00918
1.01316
1.01451
1.01654
1.01672
1.01761
1.01747
1.01785
1.01765
1.01752
1.01719
1.01657
1.01621
1.01542
1.01528
1.0146
1.01466
1.01409
1.01406
1.01302
1.10892
1.12951
1.14404
1.17279
1.21548
1.24395
1.14519
0.971554
0.823255
0.724307
0.653263
0.647558
0.789995
0.884756
0.9296
0.96289
0.978861
0.99287
1.00014
1.00708
1.0103
1.01422
1.01551
1.0175
1.01778
1.01857
1.01833
1.01863
1.01836
1.01822
1.01783
1.01746
1.01711
1.01655
1.0163
1.01571
1.01566
1.01493
1.01482
1.01442
1.11736
1.1393
1.15547
1.19962
1.26603
1.2808
1.1423
0.922312
0.755186
0.655333
0.61383
0.6429
0.793335
0.88115
0.928043
0.963086
0.979392
0.994242
1.00128
1.00851
1.01155
1.01544
1.01677
1.01871
1.01899
1.01973
1.0195
1.01975
1.01944
1.01937
1.01886
1.0187
1.01794
1.01768
1.01698
1.01646
1.01617
1.01557
1.01539
1.01478
1.12712
1.15555
1.17303
1.24028
1.33553
1.30533
1.116
0.846885
0.671446
0.587589
0.593393
0.656463
0.802833
0.881118
0.929011
0.965226
0.981506
0.996609
1.00338
1.01049
1.01344
1.01711
1.01832
1.02016
1.02043
1.02102
1.02075
1.02094
1.02062
1.02077
1.02017
1.02032
1.01924
1.01915
1.01812
1.01786
1.01701
1.01644
1.016
1.01571
1.13844
1.16342
1.19052
1.29452
1.39085
1.31343
1.05045
0.741694
0.581812
0.547936
0.595139
0.681082
0.815855
0.886122
0.934353
0.969148
0.984819
0.999477
1.00568
1.01266
1.01523
1.01866
1.01956
1.02111
1.02137
1.02174
1.02152
1.02155
1.02118
1.02139
1.02053
1.02084
1.01951
1.01955
1.01829
1.01841
1.0173
1.01715
1.01654
1.01642
1.14666
1.17678
1.21907
1.36297
1.42048
1.29492
0.944655
0.630769
0.524438
0.559338
0.626909
0.718369
0.832367
0.896219
0.944513
0.976011
0.991096
1.00433
1.00976
1.01599
1.01796
1.02109
1.02167
1.02271
1.02301
1.02289
1.02276
1.02236
1.02198
1.02214
1.02147
1.02174
1.02064
1.02073
1.01955
1.01955
1.0182
1.01822
1.01723
1.01708
1.15668
1.18605
1.2514
1.42353
1.42957
1.24644
0.82584
0.565582
0.55033
0.612375
0.677994
0.760542
0.855801
0.912875
0.959436
0.985582
1.00002
1.01051
1.01538
1.02018
1.02184
1.02433
1.02499
1.02527
1.02588
1.02481
1.02497
1.02376
1.02344
1.02298
1.02252
1.0224
1.0217
1.02158
1.0208
1.02058
1.01956
1.01933
1.01817
1.01789
1.15898
1.1994
1.28974
1.45854
1.42637
1.18864
0.783266
0.629246
0.648941
0.692648
0.733866
0.807449
0.883756
0.935141
0.979237
0.999414
1.01245
1.01914
1.02335
1.02565
1.02718
1.0284
1.02942
1.02841
1.02977
1.02745
1.02827
1.02593
1.02619
1.02485
1.02485
1.02394
1.02381
1.0231
1.02271
1.022
1.02123
1.0208
1.01977
1.01923
1.16309
1.20632
1.31567
1.43315
1.37853
1.15543
0.880047
0.784602
0.765845
0.769848
0.78695
0.857583
0.916525
0.965703
1.00267
1.01811
1.02708
1.02964
1.03275
1.03194
1.03305
1.03236
1.03364
1.03124
1.0333
1.03
1.03137
1.02792
1.02864
1.02609
1.02662
1.02478
1.02516
1.02373
1.02383
1.02264
1.02218
1.02135
1.02079
1.02034
1.15791
1.20791
1.31719
1.35131
1.29596
1.15273
0.969359
0.894861
0.831432
0.822576
0.84007
0.910534
0.95151
1.00316
1.02888
1.04328
1.04438
1.04457
1.04383
1.04062
1.0397
1.03756
1.03821
1.0348
1.03636
1.03293
1.03409
1.03083
1.03131
1.02842
1.02885
1.02648
1.02687
1.02492
1.02522
1.02376
1.02376
1.02258
1.02226
1.0216
1.14621
1.19512
1.25098
1.23701
1.22573
1.11754
0.982502
0.922991
0.852464
0.860629
0.903219
0.963388
0.992753
1.04567
1.05876
1.07458
1.06397
1.06382
1.05613
1.0526
1.04747
1.04507
1.04305
1.03961
1.03906
1.03649
1.03602
1.03361
1.03299
1.0305
1.03032
1.02793
1.02797
1.026
1.02613
1.02454
1.02468
1.02329
1.02334
1.02255
1.11565
1.15865
1.13934
1.12998
1.12161
1.04532
0.956704
0.907647
0.841853
0.880138
0.92902
1.01342
1.04503
1.08971
1.095
1.11008
1.08874
1.08786
1.07219
1.06851
1.0571
1.05535
1.0495
1.04694
1.04315
1.04223
1.03916
1.0384
1.03618
1.03487
1.03353
1.03161
1.03079
1.02897
1.02861
1.02693
1.02663
1.02512
1.02484
1.02401
1.07615
1.08118
1.00825
1.00318
0.996538
0.943947
0.889479
0.843816
0.814567
0.879296
0.932854
1.03362
1.09253
1.13743
1.13755
1.14798
1.12011
1.11341
1.09243
1.08658
1.06998
1.06787
1.05862
1.05639
1.04927
1.04948
1.04361
1.04396
1.03988
1.03958
1.03681
1.03593
1.03356
1.0325
1.03065
1.02969
1.02851
1.0274
1.02669
1.02568
1.02608
0.987236
0.893747
0.864449
0.856624
0.820836
0.791821
0.76148
0.769132
0.845542
0.914573
1.03572
1.11837
1.19455
1.18373
1.19106
1.15688
1.14071
1.11612
1.1058
1.086
1.08036
1.07008
1.06596
1.05778
1.05672
1.05005
1.04953
1.04471
1.04432
1.04053
1.04006
1.03671
1.03623
1.03324
1.03283
1.03044
1.03008
1.0285
1.02804
0.968342
0.902525
0.787387
0.732116
0.716795
0.695699
0.685054
0.672248
0.69125
0.76652
0.863439
1.0123
1.12685
1.22494
1.23652
1.23525
1.1985
1.16797
1.14216
1.12471
1.10396
1.09125
1.08224
1.07279
1.06636
1.0614
1.05557
1.05275
1.04891
1.0468
1.04375
1.04238
1.03965
1.03887
1.03611
1.03556
1.03291
1.03243
1.03042
1.03016
0.908178
0.843875
0.723947
0.645446
0.607495
0.598304
0.595642
0.58145
0.589277
0.651459
0.770289
0.933756
1.09991
1.24005
1.28716
1.28161
1.24739
1.20057
1.17127
1.14743
1.12564
1.10584
1.09746
1.08249
1.07799
1.06904
1.06479
1.05851
1.05633
1.05118
1.04957
1.04597
1.0443
1.04164
1.03984
1.03831
1.03619
1.03526
1.03354
1.03323
0.862756
0.808747
0.703099
0.623304
0.569231
0.562526
0.554423
0.530877
0.512301
0.54675
0.646029
0.800935
1.0175
1.21587
1.31282
1.33258
1.30082
1.24137
1.20271
1.17685
1.15119
1.12798
1.11579
1.09905
1.09212
1.08161
1.07622
1.06814
1.06531
1.05875
1.05708
1.05164
1.05025
1.04606
1.04464
1.04191
1.04013
1.038
1.03677
1.03548
0.837788
0.787483
0.718831
0.660886
0.609196
0.60417
0.597766
0.57406
0.547113
0.54869
0.580665
0.67675
0.880046
1.136
1.30411
1.35884
1.35202
1.28706
1.23072
1.20448
1.17457
1.15177
1.13394
1.11921
1.10664
1.09813
1.08879
1.08188
1.07603
1.07003
1.06622
1.06097
1.05768
1.05402
1.0511
1.04824
1.04589
1.04363
1.04161
1.04021
0.832402
0.786741
0.751346
0.716222
0.679591
0.673293
0.685718
0.68881
0.688156
0.697139
0.704598
0.721163
0.795542
0.991484
1.22712
1.34804
1.37713
1.32961
1.25725
1.22148
1.19194
1.16682
1.14732
1.13317
1.1183
1.1103
1.09972
1.09361
1.08639
1.08095
1.07542
1.07156
1.06596
1.06321
1.05793
1.05588
1.05132
1.04934
1.04631
1.04534
0.843992
0.807646
0.781836
0.767997
0.752902
0.746514
0.763729
0.784036
0.804444
0.83156
0.86735
0.895386
0.899299
0.921361
1.02623
1.24017
1.34387
1.35611
1.28533
1.23436
1.20823
1.17903
1.16019
1.14367
1.12997
1.11853
1.11021
1.10141
1.09552
1.08917
1.08388
1.07968
1.07435
1.07121
1.06622
1.06344
1.059
1.05681
1.05339
1.0519
0.862542
0.844826
0.834576
0.819328
0.818238
0.820552
0.839503
0.862253
0.884291
0.909041
0.937802
0.95789
0.959147
0.949399
0.932432
0.983743
1.19153
1.29734
1.29993
1.2448
1.21768
1.19343
1.17162
1.15529
1.1413
1.12814
1.11969
1.10995
1.10378
1.09616
1.09148
1.08505
1.0812
1.0757
1.07238
1.06812
1.0651
1.0621
1.05988
1.05796
0.904271
0.892261
0.887443
0.88425
0.891852
0.902186
0.920621
0.944511
0.96225
0.981653
0.98524
0.970057
0.947343
0.933465
0.899808
0.85804
0.89295
1.11792
1.2269
1.23061
1.20695
1.19912
1.18079
1.16763
1.15589
1.14263
1.13377
1.12394
1.11578
1.10846
1.10173
1.09552
1.09035
1.08498
1.08147
1.07634
1.07363
1.06914
1.06698
1.06407
0.946024
0.941271
0.946375
0.960341
0.979229
1.00307
1.01936
1.03715
1.05779
1.04561
1.00116
0.965644
0.910234
0.859119
0.817523
0.756464
0.711409
0.807627
1.04196
1.14131
1.15663
1.16527
1.17136
1.1624
1.16256
1.15288
1.14767
1.13994
1.13347
1.12592
1.11929
1.11146
1.10465
1.09806
1.09339
1.08834
1.08487
1.08042
1.07814
1.07522
1.01011
1.01965
1.02875
1.03867
1.06121
1.0983
1.12332
1.13558
1.11635
1.06093
0.998954
0.922237
0.846432
0.756726
0.682298
0.620281
0.552254
0.529246
0.756037
0.967361
1.05102
1.08322
1.12015
1.12662
1.13913
1.14262
1.14207
1.14244
1.13863
1.13527
1.13134
1.12727
1.12258
1.11544
1.1094
1.10226
1.09705
1.09132
1.08825
1.08584
1.07986
1.08592
1.10911
1.13575
1.17312
1.20078
1.21276
1.17946
1.12691
1.04905
0.959548
0.839656
0.721107
0.61184
0.503274
0.431642
0.373211
0.326529
0.440805
0.743258
0.885688
0.961848
1.02492
1.05948
1.08274
1.10457
1.11239
1.12362
1.12614
1.1282
1.12835
1.12824
1.12659
1.12464
1.12208
1.11882
1.11379
1.10907
1.10488
1.10207
1.18809
1.20685
1.23684
1.25366
1.27677
1.27807
1.25207
1.18919
1.09841
0.978366
0.845891
0.708509
0.545727
0.402099
0.275522
0.186595
0.153084
0.165442
0.225493
0.513894
0.712746
0.810398
0.91119
0.967624
1.00924
1.0477
1.06759
1.09209
1.10389
1.11163
1.11827
1.12132
1.12407
1.12464
1.12453
1.12454
1.12284
1.12043
1.11712
1.11363
1.27675
1.2994
1.32023
1.3363
1.32792
1.28942
1.22013
1.12173
0.99368
0.8332
0.646567
0.471144
0.299162
0.143532
0.0321526
0.0944799
0.195449
0.276106
0.291609
0.415073
0.587444
0.6756
0.789274
0.870717
0.918893
0.979657
1.00693
1.04316
1.06626
1.08497
1.09611
1.10663
1.11276
1.1183
1.12174
1.12369
1.1239
1.12417
1.12403
1.12444
1.37944
1.38321
1.37836
1.35412
1.29911
1.2182
1.09322
0.927804
0.737139
0.534844
0.32175
0.093016
0.0962934
0.241651
0.382756
0.452665
0.514454
0.532179
0.469009
0.413174
0.489681
0.571417
0.660097
0.760429
0.808042
0.875246
0.912479
0.942515
0.988953
1.01549
1.0435
1.06493
1.07814
1.09416
1.10216
1.11484
1.12082
1.1263
1.12767
1.13287
1.37966
1.3365
1.25977
1.1787
1.01797
0.817164
0.637419
0.487646
0.374092
0.344004
0.38555
0.460157
0.546821
0.605168
0.663005
0.706446
0.731762
0.719665
0.630214
0.520944
0.503111
0.519175
0.577786
0.658574
0.72388
0.788501
0.854201
0.886833
0.929213
0.954643
0.986399
1.00901
1.03094
1.05083
1.06318
1.07949
1.08595
1.1018
1.10986
1.12235
0.916376
0.747748
0.553386
0.302657
0.160653
0.214197
0.344589
0.439593
0.494762
0.542895
0.603394
0.652755
0.703504
0.747667
0.779944
0.807205
0.813617
0.804612
0.717694
0.511279
0.368873
0.397342
0.470367
0.593296
0.703429
0.809468
0.881464
0.927534
0.959815
0.993721
1.01725
1.04066
1.05653
1.08264
1.09811
1.12341
1.13615
1.1555
1.16284
1.17484
0.30589
0.391556
0.456727
0.503018
0.536208
0.565718
0.598787
0.636006
0.667545
0.693526
0.711423
0.722411
0.734531
0.733347
0.725975
0.721473
0.709869
0.700562
0.671886
0.623203
0.561491
0.537644
0.549274
0.585103
0.626073
0.649135
0.448739
0.267204
0.553159
0.606387
0.631533
0.680935
0.712914
0.764813
0.803858
0.850889
0.890475
0.938492
0.99117
1.04801
1.01901
1.01917
1.01977
1.01936
1.01967
1.01883
1.0183
1.01658
1.01483
1.01155
1.00784
1.00233
0.996082
0.988513
0.982429
0.97921
0.980972
0.986935
0.99764
1.00777
1.01332
1.0131
1.01214
1.01125
1.01075
1.0104
1.01009
1.00978
1.00945
1.00908
1.00869
1.00828
1.00785
1.00738
1.0069
1.00645
1.00605
1.00565
1.00526
1.00501
1.00122
1.00214
1.00157
1.00251
1.00239
1.00365
1.00413
1.00609
1.00751
1.01064
1.01338
1.01752
1.02093
1.02515
1.02665
1.02745
1.02703
1.02396
1.01785
1.01284
1.0112
1.01127
1.01156
1.01185
1.01192
1.01178
1.01149
1.01112
1.01067
1.01013
1.00963
1.00922
1.00871
1.00805
1.00744
1.00687
1.00637
1.00602
1.00563
1.00524
1.01825
1.01852
1.01883
1.01839
1.0183
1.01721
1.01651
1.01446
1.01275
1.00977
1.00716
1.0037
1.00183
1.00171
1.00429
1.00633
1.00898
1.01018
1.0109
1.011
1.01106
1.01144
1.01168
1.01189
1.0119
1.01181
1.01154
1.01129
1.01091
1.01051
1.01004
1.00966
1.00913
1.00857
1.00795
1.00739
1.00701
1.00665
1.00625
1.00596
1.00416
1.00505
1.0055
1.00669
1.00752
1.00938
1.01077
1.01352
1.01574
1.01918
1.02178
1.02507
1.02651
1.0274
1.0276
1.02704
1.02477
1.0215
1.01826
1.01536
1.01377
1.01333
1.01329
1.01312
1.01278
1.01232
1.01189
1.01153
1.01117
1.01083
1.01038
1.00991
1.00939
1.00872
1.00812
1.00755
1.00712
1.00679
1.00632
1.00602
1.01647
1.01669
1.01653
1.01611
1.01551
1.01447
1.01337
1.01177
1.0103
1.00869
1.00779
1.00745
1.0085
1.00961
1.01103
1.01146
1.01191
1.01232
1.0125
1.01253
1.01247
1.0125
1.01253
1.0126
1.01256
1.01241
1.01203
1.01172
1.01143
1.0112
1.01081
1.01041
1.00988
1.00925
1.00871
1.00819
1.00769
1.00735
1.00697
1.00658
1.00712
1.00851
1.00933
1.01075
1.01184
1.01352
1.01491
1.01693
1.01842
1.02041
1.02168
1.02306
1.02349
1.02377
1.02361
1.02277
1.02143
1.02002
1.01866
1.01727
1.01593
1.01487
1.01435
1.01411
1.01376
1.01316
1.01256
1.01202
1.01166
1.01141
1.01091
1.01045
1.00998
1.00939
1.00879
1.00821
1.00778
1.00734
1.00691
1.00659
1.01511
1.01514
1.01479
1.01442
1.01374
1.01303
1.01218
1.01137
1.01075
1.01037
1.01049
1.01117
1.01196
1.01267
1.0131
1.01336
1.01358
1.014
1.0141
1.0141
1.01371
1.0135
1.01341
1.01348
1.01342
1.01321
1.01277
1.01248
1.01221
1.0119
1.01151
1.01105
1.01047
1.00999
1.00939
1.00885
1.00849
1.00802
1.00752
1.00721
1.01007
1.01161
1.01235
1.01374
1.0146
1.01589
1.0168
1.01797
1.01869
1.01975
1.02024
1.02093
1.0212
1.02127
1.02092
1.02028
1.01958
1.01895
1.01829
1.01767
1.01661
1.01567
1.01529
1.01501
1.01441
1.01381
1.01327
1.0128
1.01239
1.01205
1.01174
1.01128
1.01061
1.01002
1.00947
1.00898
1.00855
1.00801
1.00759
1.00721
1.01433
1.0143
1.01404
1.01393
1.01363
1.01354
1.01337
1.01342
1.01346
1.01377
1.01405
1.01448
1.01461
1.01482
1.01492
1.01511
1.01521
1.01545
1.01553
1.01532
1.0149
1.01471
1.01467
1.0146
1.0144
1.01409
1.0137
1.01344
1.01305
1.01272
1.01242
1.01196
1.01141
1.01077
1.01022
1.00976
1.00925
1.00886
1.00838
1.00794
1.01244
1.01388
1.01447
1.01565
1.01623
1.01719
1.0177
1.0185
1.01892
1.01942
1.01967
1.01992
1.01996
1.01985
1.01956
1.01922
1.01908
1.01891
1.01849
1.0178
1.01686
1.01643
1.01624
1.01574
1.01509
1.01471
1.01412
1.01366
1.01331
1.013
1.01265
1.01212
1.01159
1.011
1.01047
1.00993
1.00941
1.00895
1.00847
1.00804
1.01452
1.01472