/*--------------------------------*- C++ -*----------------------------------*\
| =========                 |                                                 |
| \\      /  F ield         | OpenFOAM: The Open Source CFD Toolbox           |
|  \\    /   O peration     | Version:  2406                                  |
|   \\  /    A nd           | Website:  www.openfoam.com                      |
|    \\/     M anipulation  |                                                 |
\*---------------------------------------------------------------------------*/
FoamFile
{
    version     2.0;
    format      ascii;
    arch        "LSB;label=32;scalar=64";
    class       volScalarField;
    location    "5826";
    object      p;
}
// * * * * * * * * * * * * * * * * * * * * * * * * * * * * * * * * * * * * * //

dimensions      [0 2 -2 0 0 0 0];

internalField   nonuniform List<scalar> 
16384
(
1.814026e-11
4.871191e-10
9.495134e-10
1.15539e-09
9.861017e-10
3.864911e-10
-6.593829e-10
-2.142782e-09
-4.040933e-09
-6.323913e-09
-8.9591e-09
-1.191414e-08
-1.515893e-08
-1.866686e-08
-2.241555e-08
-2.638719e-08
-3.056852e-08
-3.495061e-08
-3.952846e-08
-4.430041e-08
-4.926749e-08
-5.44327e-08
-5.980024e-08
-6.537482e-08
-7.116087e-08
-7.716195e-08
-8.338013e-08
-8.98155e-08
-9.646563e-08
-1.033252e-07
-1.103857e-07
-1.17635e-07
-1.250574e-07
-1.326333e-07
-1.403386e-07
-1.481455e-07
-1.560216e-07
-1.6393e-07
-1.718296e-07
-1.79675e-07
-1.874163e-07
-1.949998e-07
-2.02368e-07
-2.094599e-07
-2.162115e-07
-2.225566e-07
-2.28427e-07
-2.337539e-07
-2.384681e-07
-2.425015e-07
-2.45788e-07
-2.482644e-07
-2.498721e-07
-2.505578e-07
-2.502754e-07
-2.489866e-07
-2.466628e-07
-2.432859e-07
-2.388495e-07
-2.333603e-07
-2.268383e-07
-2.193181e-07
-2.108493e-07
-2.014967e-07
-1.913401e-07
-1.804745e-07
-1.690091e-07
-1.570668e-07
-1.447829e-07
-1.323039e-07
-1.197851e-07
-1.073889e-07
-9.528235e-08
-8.363438e-08
-7.261311e-08
-6.238287e-08
-5.310112e-08
-4.49155e-08
-3.796083e-08
-3.235633e-08
-2.820308e-08
-2.558179e-08
-2.455097e-08
-2.514557e-08
-2.737609e-08
-3.122833e-08
-3.666363e-08
-4.361975e-08
-5.201232e-08
-6.173666e-08
-7.267004e-08
-8.467517e-08
-9.760317e-08
-1.112963e-07
-1.255916e-07
-1.403244e-07
-1.553316e-07
-1.70455e-07
-1.855435e-07
-2.004563e-07
-2.150644e-07
-2.292524e-07
-2.429197e-07
-2.559808e-07
-2.683659e-07
-2.800205e-07
-2.909045e-07
-3.009916e-07
-3.102677e-07
-3.1873e-07
-3.263848e-07
-3.332458e-07
-3.393327e-07
-3.446689e-07
-3.492799e-07
-3.531922e-07
-3.564311e-07
-3.590207e-07
-3.609836e-07
-3.623413e-07
-3.631171e-07
-3.633395e-07
-3.630499e-07
-3.62313e-07
-3.612321e-07
-3.599731e-07
-3.588028e-07
-3.580623e-07
-4.280642e-10
3.225091e-11
4.057331e-10
5.018454e-10
2.529973e-10
-3.826858e-10
-1.421431e-09
-2.859439e-09
-4.680505e-09
-6.861404e-09
-9.375625e-09
-1.219606e-08
-1.529693e-08
-1.865502e-08
-2.225051e-08
-2.60674e-08
-3.009356e-08
-3.432063e-08
-3.874371e-08
-4.336089e-08
-4.817269e-08
-5.318141e-08
-5.83905e-08
-6.380388e-08
-6.942534e-08
-7.525786e-08
-8.130312e-08
-8.756097e-08
-9.4029e-08
-1.007022e-07
-1.075726e-07
-1.146288e-07
-1.218562e-07
-1.292362e-07
-1.367464e-07
-1.443605e-07
-1.520478e-07
-1.597734e-07
-1.674984e-07
-1.751794e-07
-1.827689e-07
-1.902156e-07
-1.974643e-07
-2.044564e-07
-2.111302e-07
-2.174219e-07
-2.232656e-07
-2.285943e-07
-2.333409e-07
-2.374391e-07
-2.408241e-07
-2.43434e-07
-2.452111e-07
-2.461028e-07
-2.46063e-07
-2.450535e-07
-2.430451e-07
-2.400188e-07
-2.35967e-07
-2.308944e-07
-2.248191e-07
-2.177732e-07
-2.098033e-07
-2.009709e-07
-1.913522e-07
-1.810384e-07
-1.701343e-07
-1.587583e-07
-1.470412e-07
-1.351246e-07
-1.231588e-07
-1.113014e-07
-9.971431e-08
-8.85616e-08
-7.80066e-08
-6.8209e-08
-5.932192e-08
-5.148895e-08
-4.484124e-08
-3.949476e-08
-3.554785e-08
-3.307899e-08
-3.214507e-08
-3.278001e-08
-3.499395e-08
-3.877301e-08
-4.407953e-08
-5.085296e-08
-5.90113e-08
-6.845306e-08
-7.905962e-08
-9.069739e-08
-1.032217e-07
-1.1648e-07
-1.303151e-07
-1.445681e-07
-1.590818e-07
-1.737039e-07
-1.882894e-07
-2.027032e-07
-2.168218e-07
-2.305348e-07
-2.437461e-07
-2.563743e-07
-2.683529e-07
-2.796301e-07
-2.90168e-07
-2.999416e-07
-3.089377e-07
-3.171537e-07
-3.245956e-07
-3.312768e-07
-3.37216e-07
-3.424362e-07
-3.469623e-07
-3.508205e-07
-3.540368e-07
-3.566366e-07
-3.586444e-07
-3.60085e-07
-3.609848e-07
-3.613759e-07
-3.61301e-07
-3.608209e-07
-3.600258e-07
-3.590467e-07
-3.580623e-07
-3.573201e-07
-8.870256e-10
-3.399169e-10
3.301088e-11
7.444397e-11
-2.240714e-10
-8.838068e-10
-1.915591e-09
-3.315909e-09
-5.071583e-09
-7.163544e-09
-9.569626e-09
-1.226677e-08
-1.523273e-08
-1.844725e-08
-2.189288e-08
-2.555539e-08
-2.942394e-08
-3.3491e-08
-3.775214e-08
-4.22056e-08
-4.685185e-08
-5.169297e-08
-5.673214e-08
-6.1973e-08
-6.741904e-08
-7.307313e-08
-7.893693e-08
-8.50105e-08
-9.129184e-08
-9.777649e-08
-1.044573e-07
-1.11324e-07
-1.183632e-07
-1.255577e-07
-1.328868e-07
-1.403261e-07
-1.478467e-07
-1.55416e-07
-1.629971e-07
-1.70549e-07
-1.780264e-07
-1.853801e-07
-1.925573e-07
-1.995014e-07
-2.061529e-07
-2.124496e-07
-2.183274e-07
-2.237208e-07
-2.285639e-07
-2.327911e-07
-2.363384e-07
-2.391441e-07
-2.411504e-07
-2.423043e-07
-2.42559e-07
-2.418751e-07
-2.402219e-07
-2.375786e-07
-2.339354e-07
-2.292945e-07
-2.236715e-07
-2.170953e-07
-2.096094e-07
-2.012718e-07
-1.921553e-07
-1.823473e-07
-1.719489e-07
-1.610748e-07
-1.498521e-07
-1.384185e-07
-1.269209e-07
-1.155132e-07
-1.043538e-07
-9.360372e-08
-8.342313e-08
-7.396893e-08
-6.539167e-08
-5.783262e-08
-5.142091e-08
-4.627078e-08
-4.247914e-08
-4.012337e-08
-3.925957e-08
-3.992122e-08
-4.211835e-08
-4.583733e-08
-5.104109e-08
-5.767006e-08
-6.564355e-08
-7.48617e-08
-8.520794e-08
-9.655154e-08
-1.087507e-07
-1.21656e-07
-1.351137e-07
-1.489686e-07
-1.630677e-07
-1.772628e-07
-1.914136e-07
-2.053893e-07
-2.190709e-07
-2.323525e-07
-2.451421e-07
-2.573622e-07
-2.689499e-07
-2.798566e-07
-2.900471e-07
-2.994988e-07
-3.082003e-07
-3.161504e-07
-3.233561e-07
-3.298314e-07
-3.355957e-07
-3.40672e-07
-3.450861e-07
-3.488645e-07
-3.520341e-07
-3.546216e-07
-3.56653e-07
-3.581545e-07
-3.591536e-07
-3.596816e-07
-3.597771e-07
-3.594905e-07
-3.588902e-07
-3.580611e-07
-3.570786e-07
-3.561477e-07
-1.093835e-09
-4.365504e-10
-1.282535e-11
2.31664e-11
-2.933548e-10
-9.64267e-10
-1.991849e-09
-3.368819e-09
-5.081217e-09
-7.110916e-09
-9.437546e-09
-1.204018e-08
-1.489871e-08
-1.799491e-08
-2.131315e-08
-2.484074e-08
-2.856813e-08
-3.248886e-08
-3.659936e-08
-4.089854e-08
-4.538742e-08
-5.006854e-08
-5.494546e-08
-6.002219e-08
-6.530262e-08
-7.07901e-08
-7.648688e-08
-8.23937e-08
-8.85094e-08
-9.483055e-08
-1.013511e-07
-1.080623e-07
-1.14952e-07
-1.220049e-07
-1.292021e-07
-1.365208e-07
-1.439344e-07
-1.514121e-07
-1.589191e-07
-1.664163e-07
-1.738603e-07
-1.812037e-07
-1.883953e-07
-1.953798e-07
-2.02099e-07
-2.084916e-07
-2.144939e-07
-2.200408e-07
-2.250663e-07
-2.295045e-07
-2.332904e-07
-2.363614e-07
-2.386581e-07
-2.401258e-07
-2.407157e-07
-2.40386e-07
-2.391035e-07
-2.368446e-07
-2.335966e-07
-2.29359e-07
-2.241439e-07
-2.179773e-07
-2.108997e-07
-2.029662e-07
-1.942466e-07
-1.848255e-07
-1.748013e-07
-1.642865e-07
-1.534062e-07
-1.42296e-07
-1.311013e-07
-1.199744e-07
-1.09073e-07
-9.855685e-08
-8.85858e-08
-7.931634e-08
-7.089889e-08
-6.347478e-08
-5.717333e-08
-5.210913e-08
-4.837948e-08
-4.606222e-08
-4.521388e-08
-4.586838e-08
-4.803613e-08
-5.170381e-08
-5.683461e-08
-6.336915e-08
-7.122687e-08
-8.030805e-08
-9.049618e-08
-1.016608e-07
-1.136604e-07
-1.263461e-07
-1.395649e-07
-1.531632e-07
-1.66989e-07
-1.808959e-07
-1.947452e-07
-2.084086e-07
-2.217697e-07
-2.347253e-07
-2.471865e-07
-2.59079e-07
-2.703429e-07
-2.809327e-07
-2.908167e-07
-2.999751e-07
-3.083993e-07
-3.160906e-07
-3.230583e-07
-3.293186e-07
-3.348925e-07
-3.398051e-07
-3.440833e-07
-3.477551e-07
-3.508489e-07
-3.533921e-07
-3.554113e-07
-3.569323e-07
-3.57981e-07
-3.585843e-07
-3.58772e-07
-3.585798e-07
-3.580527e-07
-3.57233e-07
-3.561111e-07
-3.549001e-07
-9.222189e-10
-1.86506e-10
2.784261e-10
3.145525e-10
-1.528116e-11
-6.983413e-10
-1.728767e-09
-3.094546e-09
-4.779472e-09
-6.764844e-09
-9.030734e-09
-1.155724e-08
-1.43256e-08
-1.731906e-08
-2.052346e-08
-2.392754e-08
-2.752312e-08
-3.130501e-08
-3.527084e-08
-3.942063e-08
-4.375642e-08
-4.828172e-08
-5.300103e-08
-5.791929e-08
-6.304142e-08
-6.837177e-08
-7.391367e-08
-7.966909e-08
-8.563816e-08
-9.181889e-08
-9.820684e-08
-1.047948e-07
-1.115727e-07
-1.185269e-07
-1.256406e-07
-1.32893e-07
-1.402595e-07
-1.477113e-07
-1.552154e-07
-1.627343e-07
-1.702264e-07
-1.776455e-07
-1.849412e-07
-1.92059e-07
-1.989411e-07
-2.055259e-07
-2.117495e-07
-2.175459e-07
-2.228477e-07
-2.275874e-07
-2.316981e-07
-2.351148e-07
-2.377755e-07
-2.396226e-07
-2.406041e-07
-2.406751e-07
-2.397989e-07
-2.379486e-07
-2.351081e-07
-2.312734e-07
-2.264535e-07
-2.206713e-07
-2.139643e-07
-2.063851e-07
-1.98001e-07
-1.888943e-07
-1.791619e-07
-1.689151e-07
-1.582775e-07
-1.473843e-07
-1.363803e-07
-1.25418e-07
-1.146552e-07
-1.042526e-07
-9.437087e-08
-8.516775e-08
-7.679512e-08
-6.939594e-08
-6.310127e-08
-5.802748e-08
-5.427366e-08
-5.191931e-08
-5.102251e-08
-5.161851e-08
-5.371879e-08
-5.731078e-08
-6.235813e-08
-6.880155e-08
-7.656027e-08
-8.553404e-08
-9.560559e-08
-1.066435e-07
-1.185053e-07
-1.310411e-07
-1.440964e-07
-1.575166e-07
-1.711498e-07
-1.848491e-07
-1.98476e-07
-2.119026e-07
-2.250136e-07
-2.377074e-07
-2.498969e-07
-2.615102e-07
-2.724902e-07
-2.827943e-07
-2.923938e-07
-3.012723e-07
-3.094248e-07
-3.168556e-07
-3.235772e-07
-3.296088e-07
-3.349744e-07
-3.397014e-07
-3.43819e-07
-3.473576e-07
-3.503467e-07
-3.528149e-07
-3.547889e-07
-3.562935e-07
-3.573515e-07
-3.579841e-07
-3.582114e-07
-3.580542e-07
-3.575359e-07
-3.566641e-07
-3.55363e-07
-3.538707e-07
-3.083584e-10
4.585464e-10
9.332455e-10
9.552801e-10
6.026492e-10
-1.020889e-10
-1.146499e-09
-2.514168e-09
-4.186302e-09
-6.14299e-09
-8.364052e-09
-1.082999e-08
-1.35229e-08
-1.642717e-08
-1.95299e-08
-2.282122e-08
-2.629442e-08
-2.994583e-08
-3.377456e-08
-3.778212e-08
-4.197201e-08
-4.634922e-08
-5.091973e-08
-5.569001e-08
-6.066648e-08
-6.585507e-08
-7.126077e-08
-7.688725e-08
-8.273645e-08
-8.880831e-08
-9.510036e-08
-1.016075e-07
-1.083217e-07
-1.152316e-07
-1.223225e-07
-1.295757e-07
-1.369686e-07
-1.444742e-07
-1.520611e-07
-1.596933e-07
-1.673301e-07
-1.749258e-07
-1.824305e-07
-1.897894e-07
-1.969438e-07
-2.038313e-07
-2.103862e-07
-2.165404e-07
-2.222241e-07
-2.273669e-07
-2.318987e-07
-2.35751e-07
-2.388581e-07
-2.411584e-07
-2.425961e-07
-2.431222e-07
-2.426961e-07
-2.412869e-07
-2.38875e-07
-2.354526e-07
-2.310257e-07
-2.256142e-07
-2.192528e-07
-2.119918e-07
-2.038966e-07
-1.95048e-07
-1.855421e-07
-1.754891e-07
-1.650125e-07
-1.542476e-07
-1.433397e-07
-1.324423e-07
-1.217146e-07
-1.113189e-07
-1.01418e-07
-9.217203e-08
-8.373547e-08
-7.625413e-08
-6.9862e-08
-6.467844e-08
-6.08055e-08
-5.832552e-08
-5.729919e-08
-5.776408e-08
-5.973359e-08
-6.319667e-08
-6.811793e-08
-7.443858e-08
-8.207775e-08
-9.093462e-08
-1.008908e-07
-1.118134e-07
-1.235582e-07
-1.35973e-07
-1.489017e-07
-1.621868e-07
-1.756742e-07
-1.892158e-07
-2.026717e-07
-2.15913e-07
-2.288239e-07
-2.413029e-07
-2.532638e-07
-2.646362e-07
-2.753648e-07
-2.854094e-07
-2.94744e-07
-3.033557e-07
-3.112428e-07
-3.184134e-07
-3.248836e-07
-3.306762e-07
-3.358185e-07
-3.403412e-07
-3.442767e-07
-3.476575e-07
-3.505153e-07
-3.528798e-07
-3.547779e-07
-3.562332e-07
-3.572652e-07
-3.578897e-07
-3.581177e-07
-3.579566e-07
-3.574125e-07
-3.56466e-07
-3.549924e-07
-3.532564e-07
7.764087e-10
1.525212e-09
1.971094e-09
1.955659e-09
1.563088e-09
8.219057e-10
-2.50586e-10
-1.634386e-09
-3.308332e-09
-5.251183e-09
-7.442249e-09
-9.862165e-09
-1.249366e-08
-1.532205e-08
-1.833565e-08
-2.152608e-08
-2.488823e-08
-2.842013e-08
-3.212269e-08
-3.599928e-08
-4.005534e-08
-4.429784e-08
-4.873478e-08
-5.337465e-08
-5.822598e-08
-6.329686e-08
-6.859447e-08
-7.412477e-08
-7.989202e-08
-8.589855e-08
-9.214435e-08
-9.862675e-08
-1.053402e-07
-1.122756e-07
-1.194207e-07
-1.267587e-07
-1.34269e-07
-1.419262e-07
-1.497e-07
-1.575553e-07
-1.654515e-07
-1.73343e-07
-1.811789e-07
-1.889033e-07
-1.964557e-07
-2.037711e-07
-2.107812e-07
-2.174143e-07
-2.235972e-07
-2.292551e-07
-2.343137e-07
-2.386999e-07
-2.423434e-07
-2.451779e-07
-2.47143e-07
-2.48185e-07
-2.482591e-07
-2.473303e-07
-2.45375e-07
-2.423822e-07
-2.383544e-07
-2.333087e-07
-2.272776e-07
-2.203091e-07
-2.124675e-07
-2.038322e-07
-1.944988e-07
-1.845774e-07
-1.741915e-07
-1.63477e-07
-1.525804e-07
-1.416568e-07
-1.308672e-07
-1.203766e-07
-1.103505e-07
-1.009522e-07
-9.233988e-08
-8.466307e-08
-7.80598e-08
-7.265353e-08
-6.855042e-08
-6.583682e-08
-6.457723e-08
-6.481269e-08
-6.655967e-08
-6.980963e-08
-7.452911e-08
-8.066053e-08
-8.812359e-08
-9.681726e-08
-1.066223e-07
-1.174042e-07
-1.290168e-07
-1.413052e-07
-1.541104e-07
-1.672722e-07
-1.806331e-07
-1.940414e-07
-2.073551e-07
-2.204432e-07
-2.331878e-07
-2.454864e-07
-2.572522e-07
-2.68415e-07
-2.789206e-07
-2.887304e-07
-2.978205e-07
-3.061805e-07
-3.138124e-07
-3.207277e-07
-3.269464e-07
-3.324951e-07
-3.37405e-07
-3.417104e-07
-3.45447e-07
-3.486504e-07
-3.513545e-07
-3.535906e-07
-3.553861e-07
-3.567636e-07
-3.577403e-07
-3.58327e-07
-3.585272e-07
-3.58338e-07
-3.577515e-07
-3.567291e-07
-3.551121e-07
-3.531873e-07
2.339086e-09
3.022612e-09
3.39947e-09
3.318996e-09
2.865275e-09
2.069946e-09
9.536536e-10
-4.609902e-10
-2.150989e-09
-4.094005e-09
-6.268908e-09
-8.656497e-09
-1.124007e-08
-1.40059e-08
-1.694364e-08
-2.004646e-08
-2.331104e-08
-2.673739e-08
-3.032855e-08
-3.409019e-08
-3.803009e-08
-4.21577e-08
-4.648356e-08
-5.101877e-08
-5.577454e-08
-6.076169e-08
-6.599021e-08
-7.146887e-08
-7.720483e-08
-8.320328e-08
-8.946707e-08
-9.599636e-08
-1.027882e-07
-1.098363e-07
-1.171302e-07
-1.246555e-07
-1.323929e-07
-1.403183e-07
-1.48402e-07
-1.566087e-07
-1.648975e-07
-1.732215e-07
-1.815279e-07
-1.897583e-07
-1.97849e-07
-2.057316e-07
-2.133334e-07
-2.205783e-07
-2.273878e-07
-2.336824e-07
-2.393821e-07
-2.444085e-07
-2.48686e-07
-2.521429e-07
-2.547137e-07
-2.5634e-07
-2.569724e-07
-2.565716e-07
-2.551101e-07
-2.525736e-07
-2.489614e-07
-2.44288e-07
-2.385836e-07
-2.318942e-07
-2.242833e-07
-2.158293e-07
-2.066272e-07
-1.967869e-07
-1.864324e-07
-1.757005e-07
-1.64739e-07
-1.537046e-07
-1.42761e-07
-1.320759e-07
-1.218181e-07
-1.121549e-07
-1.032487e-07
-9.525367e-08
-8.831282e-08
-8.255482e-08
-7.809113e-08
-7.501342e-08
-7.339131e-08
-7.32707e-08
-7.46725e-08
-7.759204e-08
-8.199906e-08
-8.783841e-08
-9.503136e-08
-1.034775e-07
-1.130575e-07
-1.236358e-07
-1.35064e-07
-1.471851e-07
-1.598365e-07
-1.728546e-07
-1.860782e-07
-1.993518e-07
-2.12529e-07
-2.254752e-07
-2.380701e-07
-2.502085e-07
-2.618018e-07
-2.727786e-07
-2.830845e-07
-2.926816e-07
-3.015472e-07
-3.096729e-07
-3.17063e-07
-3.237328e-07
-3.297056e-07
-3.350119e-07
-3.396868e-07
-3.437685e-07
-3.472963e-07
-3.50309e-07
-3.528433e-07
-3.549325e-07
-3.566049e-07
-3.57883e-07
-3.587822e-07
-3.5931e-07
-3.594642e-07
-3.592341e-07
-3.586021e-07
-3.575164e-07
-3.557965e-07
-3.537442e-07
4.37368e-09
4.948277e-09
5.217073e-09
5.04295e-09
4.505423e-09
3.637191e-09
2.460968e-09
1.000972e-09
-7.186709e-10
-2.674994e-09
-4.846753e-09
-7.215134e-09
-9.764155e-09
-1.248123e-08
-1.53575e-08
-1.838791e-08
-2.15712e-08
-2.490967e-08
-2.840886e-08
-3.207709e-08
-3.592501e-08
-3.996502e-08
-4.421074e-08
-4.867648e-08
-5.33767e-08
-5.832556e-08
-6.353643e-08
-6.902149e-08
-7.479128e-08
-8.085434e-08
-8.721677e-08
-9.38818e-08
-1.008493e-07
-1.081155e-07
-1.156722e-07
-1.235065e-07
-1.316004e-07
-1.3993e-07
-1.484655e-07
-1.571708e-07
-1.660032e-07
-1.749134e-07
-1.838454e-07
-1.927371e-07
-2.015204e-07
-2.101218e-07
-2.184632e-07
-2.264628e-07
-2.340362e-07
-2.410975e-07
-2.475607e-07
-2.533415e-07
-2.583581e-07
-2.625334e-07
-2.657965e-07
-2.680839e-07
-2.693415e-07
-2.695261e-07
-2.686062e-07
-2.66564e-07
-2.633959e-07
-2.591138e-07
-2.537454e-07
-2.47335e-07
-2.399449e-07
-2.316528e-07
-2.225529e-07
-2.127547e-07
-2.023827e-07
-1.915741e-07
-1.804782e-07
-1.692536e-07
-1.580663e-07
-1.47087e-07
-1.364883e-07
-1.264417e-07
-1.171145e-07
-1.086663e-07
-1.012461e-07
-9.498886e-08
-9.001255e-08
-8.641554e-08
-8.427415e-08
-8.364071e-08
-8.454224e-08
-8.69796e-08
-9.092738e-08
-9.633441e-08
-1.03125e-07
-1.112008e-07
-1.204432e-07
-1.307165e-07
-1.418713e-07
-1.53748e-07
-1.661812e-07
-1.790034e-07
-1.920491e-07
-2.051584e-07
-2.181802e-07
-2.309754e-07
-2.43419e-07
-2.554023e-07
-2.668336e-07
-2.776391e-07
-2.877628e-07
-2.971659e-07
-3.058263e-07
-3.137361e-07
-3.209015e-07
-3.2734e-07
-3.330785e-07
-3.381507e-07
-3.425954e-07
-3.464547e-07
-3.497715e-07
-3.525881e-07
-3.549443e-07
-3.568756e-07
-3.584122e-07
-3.59577e-07
-3.603848e-07
-3.60841e-07
-3.609401e-07
-3.606659e-07
-3.599944e-07
-3.588658e-07
-3.570879e-07
-3.549692e-07
6.866007e-09
7.291696e-09
7.415781e-09
7.120221e-09
6.476555e-09
5.517004e-09
4.265262e-09
2.746175e-09
9.841908e-10
-9.977451e-10
-3.178821e-09
-5.540889e-09
-8.069024e-09
-1.07521e-08
-1.358303e-08
-1.655885e-08
-1.968064e-08
-2.295335e-08
-2.63854e-08
-2.998825e-08
-3.377585e-08
-3.776409e-08
-4.197027e-08
-4.641243e-08
-5.110893e-08
-5.607785e-08
-6.133651e-08
-6.690103e-08
-7.278583e-08
-7.90032e-08
-8.556275e-08
-9.247095e-08
-9.973057e-08
-1.073401e-07
-1.152932e-07
-1.235782e-07
-1.321773e-07
-1.410663e-07
-1.502143e-07
-1.59583e-07
-1.691268e-07
-1.787926e-07
-1.8852e-07
-1.982417e-07
-2.078838e-07
-2.173667e-07
-2.266056e-07
-2.355121e-07
-2.439947e-07
-2.51961e-07
-2.593181e-07
-2.659751e-07
-2.718442e-07
-2.768425e-07
-2.808934e-07
-2.839285e-07
-2.858892e-07
-2.867278e-07
-2.864093e-07
-2.849121e-07
-2.822299e-07
-2.783716e-07
-2.733624e-07
-2.672446e-07
-2.600794e-07
-2.519428e-07
-2.42928e-07
-2.33144e-07
-2.227148e-07
-2.117783e-07
-2.004846e-07
-1.889939e-07
-1.774745e-07
-1.661e-07
-1.550469e-07
-1.444914e-07
-1.346059e-07
-1.255564e-07
-1.174986e-07
-1.105749e-07
-1.049111e-07
-1.006139e-07
-9.776797e-08
-9.643387e-08
-9.664665e-08
-9.841473e-08
-1.017195e-07
-1.065158e-07
-1.127328e-07
-1.202759e-07
-1.290289e-07
-1.388572e-07
-1.496111e-07
-1.611298e-07
-1.732452e-07
-1.857863e-07
-1.985831e-07
-2.114707e-07
-2.242927e-07
-2.369045e-07
-2.49176e-07
-2.609931e-07
-2.722598e-07
-2.828985e-07
-2.9285e-07
-3.020736e-07
-3.105457e-07
-3.182586e-07
-3.252185e-07
-3.314445e-07
-3.369657e-07
-3.418186e-07
-3.460455e-07
-3.496917e-07
-3.528038e-07
-3.554275e-07
-3.576059e-07
-3.593772e-07
-3.607737e-07
-3.618198e-07
-3.625306e-07
-3.629109e-07
-3.629533e-07
-3.62639e-07
-3.619402e-07
-3.607931e-07
-3.590021e-07
-3.568745e-07
9.79595e-09
1.003604e-08
9.981508e-09
9.538521e-09
8.767793e-09
7.699784e-09
6.358171e-09
4.767422e-09
2.951393e-09
9.322447e-10
-1.270169e-09
-3.638895e-09
-6.160582e-09
-8.825938e-09
-1.163e-08
-1.457223e-08
-1.765649e-08
-2.089075e-08
-2.428676e-08
-2.785957e-08
-3.162697e-08
-3.56089e-08
-3.982685e-08
-4.430326e-08
-4.906091e-08
-5.412239e-08
-5.950954e-08
-6.524289e-08
-7.134115e-08
-7.78206e-08
-8.469457e-08
-9.197273e-08
-9.966054e-08
-1.077585e-07
-1.162615e-07
-1.251582e-07
-1.344304e-07
-1.440524e-07
-1.539908e-07
-1.64204e-07
-1.74642e-07
-1.852467e-07
-1.959518e-07
-2.066836e-07
-2.173612e-07
-2.278977e-07
-2.382008e-07
-2.481745e-07
-2.5772e-07
-2.667373e-07
-2.751266e-07
-2.827903e-07
-2.896342e-07
-2.955695e-07
-3.005142e-07
-3.043948e-07
-3.071482e-07
-3.087223e-07
-3.090782e-07
-3.08191e-07
-3.060507e-07
-3.026635e-07
-2.980513e-07
-2.922543e-07
-2.853317e-07
-2.773574e-07
-2.684229e-07
-2.58636e-07
-2.481198e-07
-2.370121e-07
-2.254632e-07
-2.136344e-07
-2.01696e-07
-1.898243e-07
-1.781997e-07
-1.67003e-07
-1.564124e-07
-1.466006e-07
-1.37731e-07
-1.299545e-07
-1.234063e-07
-1.182028e-07
-1.144388e-07
-1.121853e-07
-1.114876e-07
-1.123639e-07
-1.148047e-07
-1.187731e-07
-1.242057e-07
-1.310135e-07
-1.390848e-07
-1.48288e-07
-1.584746e-07
-1.694836e-07
-1.811452e-07
-1.932853e-07
-2.057297e-07
-2.183084e-07
-2.308593e-07
-2.432316e-07
-2.552886e-07
-2.669102e-07
-2.779945e-07
-2.884586e-07
-2.982389e-07
-3.072911e-07
-3.155885e-07
-3.231218e-07
-3.298964e-07
-3.359315e-07
-3.41257e-07
-3.459117e-07
-3.4994e-07
-3.533903e-07
-3.563124e-07
-3.587552e-07
-3.60765e-07
-3.62383e-07
-3.636441e-07
-3.645745e-07
-3.651909e-07
-3.654985e-07
-3.6549e-07
-3.651453e-07
-3.644353e-07
-3.632957e-07
-3.615337e-07
-3.59449e-07
1.313823e-08
1.31588e-08
1.289447e-08
1.228035e-08
1.136367e-08
1.017191e-08
8.727698e-09
7.054092e-09
5.173365e-09
3.106072e-09
8.704441e-10
-1.518453e-09
-4.049354e-09
-6.715275e-09
-9.513831e-09
-1.244737e-08
-1.552293e-08
-1.875198e-08
-2.215009e-08
-2.57364e-08
-2.953307e-08
-3.356466e-08
-3.785745e-08
-4.243881e-08
-4.733656e-08
-5.257832e-08
-5.819091e-08
-6.419967e-08
-7.062785e-08
-7.749591e-08
-8.48208e-08
-9.261525e-08
-1.00887e-07
-1.096378e-07
-1.188632e-07
-1.285512e-07
-1.38682e-07
-1.492271e-07
-1.601494e-07
-1.714024e-07
-1.829306e-07
-1.946693e-07
-2.065452e-07
-2.184768e-07
-2.303753e-07
-2.421456e-07
-2.536873e-07
-2.648962e-07
-2.756655e-07
-2.858877e-07
-2.954559e-07
-3.042655e-07
-3.122161e-07
-3.192129e-07
-3.251686e-07
-3.300046e-07
-3.33653e-07
-3.360576e-07
-3.371752e-07
-3.369771e-07
-3.354497e-07
-3.325955e-07
-3.284331e-07
-3.229995e-07
-3.163513e-07
-3.085595e-07
-2.99713e-07
-2.899176e-07
-2.792947e-07
-2.679811e-07
-2.561265e-07
-2.438929e-07
-2.314516e-07
-2.189817e-07
-2.066666e-07
-1.94692e-07
-1.832422e-07
-1.724968e-07
-1.626278e-07
-1.537957e-07
-1.461462e-07
-1.398071e-07
-1.348855e-07
-1.314649e-07
-1.296029e-07
-1.293304e-07
-1.306496e-07
-1.335348e-07
-1.379322e-07
-1.437615e-07
-1.509179e-07
-1.592748e-07
-1.686871e-07
-1.78995e-07
-1.900284e-07
-2.016111e-07
-2.135653e-07
-2.257159e-07
-2.378949e-07
-2.499447e-07
-2.617215e-07
-2.730979e-07
-2.839647e-07
-2.942322e-07
-3.038305e-07
-3.127102e-07
-3.208406e-07
-3.282084e-07
-3.348171e-07
-3.40684e-07
-3.458386e-07
-3.503204e-07
-3.541755e-07
-3.574541e-07
-3.602086e-07
-3.624908e-07
-3.643499e-07
-3.658301e-07
-3.66969e-07
-3.677953e-07
-3.683278e-07
-3.685731e-07
-3.68525e-07
-3.681642e-07
-3.67462e-07
-3.663557e-07
-3.646608e-07
-3.626633e-07
1.686228e-08
1.663176e-08
1.612905e-08
1.532257e-08
1.424341e-08
1.291472e-08
1.1357e-08
9.590752e-09
7.63562e-09
5.509725e-09
3.228791e-09
8.052959e-10
-1.752186e-09
-4.439536e-09
-7.257463e-09
-1.021169e-08
-1.331292e-08
-1.657665e-08
-2.002277e-08
-2.367508e-08
-2.756066e-08
-3.170924e-08
-3.615248e-08
-4.092325e-08
-4.605491e-08
-5.158058e-08
-5.753242e-08
-6.394085e-08
-7.083376e-08
-7.823571e-08
-8.616708e-08
-9.464318e-08
-1.036733e-07
-1.1326e-07
-1.233979e-07
-1.340736e-07
-1.45264e-07
-1.569369e-07
-1.690497e-07
-1.815499e-07
-1.943749e-07
-2.074523e-07
-2.207005e-07
-2.340295e-07
-2.473416e-07
-2.605329e-07
-2.734943e-07
-2.861131e-07
-2.982745e-07
-3.098632e-07
-3.207651e-07
-3.308688e-07
-3.400677e-07
-3.482611e-07
-3.553562e-07
-3.612694e-07
-3.659279e-07
-3.692709e-07
-3.71251e-07
-3.71835e-07
-3.710054e-07
-3.687605e-07
-3.651147e-07
-3.601012e-07
-3.537728e-07
-3.461968e-07
-3.374587e-07
-3.27661e-07
-3.169228e-07
-3.053785e-07
-2.931768e-07
-2.804789e-07
-2.674568e-07
-2.542911e-07
-2.411686e-07
-2.28279e-07
-2.158126e-07
-2.039565e-07
-1.928916e-07
-1.827888e-07
-1.738057e-07
-1.660831e-07
-1.59742e-07
-1.548807e-07
-1.51572e-07
-1.498618e-07
-1.497674e-07
-1.512769e-07
-1.543496e-07
-1.589168e-07
-1.648836e-07
-1.721311e-07
-1.805201e-07
-1.898944e-07
-2.000852e-07
-2.109154e-07
-2.222046e-07
-2.337733e-07
-2.454476e-07
-2.570627e-07
-2.684672e-07
-2.795252e-07
-2.901191e-07
-3.001508e-07
-3.09543e-07
-3.182384e-07
-3.262004e-07
-3.33411e-07
-3.398696e-07
-3.455899e-07
-3.505997e-07
-3.549371e-07
-3.586485e-07
-3.617852e-07
-3.644012e-07
-3.665505e-07
-3.682846e-07
-3.696505e-07
-3.706885e-07
-3.714301e-07
-3.718962e-07
-3.72096e-07
-3.720251e-07
-3.716661e-07
-3.70992e-07
-3.699438e-07
-3.68349e-07
-3.664756e-07
2.09317e-08
2.042055e-08
1.965336e-08
1.863582e-08
1.738005e-08
1.590343e-08
1.422311e-08
1.235575e-08
1.031735e-08
8.122542e-09
5.783622e-09
3.309726e-09
7.06068e-10
-2.026709e-09
-4.89298e-09
-7.902388e-09
-1.106987e-08
-1.441547e-08
-1.796397e-08
-2.174439e-08
-2.578933e-08
-3.013425e-08
-3.481674e-08
-3.987567e-08
-4.535039e-08
-5.127986e-08
-5.770182e-08
-6.465184e-08
-7.216236e-08
-8.02618e-08
-8.897344e-08
-9.831446e-08
-1.08295e-07
-1.189169e-07
-1.301733e-07
-1.420473e-07
-1.545119e-07
-1.675291e-07
-1.810498e-07
-1.95014e-07
-2.093507e-07
-2.239789e-07
-2.388077e-07
-2.537376e-07
-2.686616e-07
-2.834666e-07
-2.980344e-07
-3.122438e-07
-3.259718e-07
-3.390954e-07
-3.514933e-07
-3.630475e-07
-3.736449e-07
-3.831792e-07
-3.915521e-07
-3.986747e-07
-4.044693e-07
-4.088702e-07
-4.118252e-07
-4.132964e-07
-4.132617e-07
-4.117146e-07
-4.086649e-07
-4.041405e-07
-3.981901e-07
-3.908758e-07
-3.822789e-07
-3.724978e-07
-3.616477e-07
-3.498598e-07
-3.372804e-07
-3.240692e-07
-3.103977e-07
-2.964473e-07
-2.824068e-07
-2.684699e-07
-2.548324e-07
-2.416887e-07
-2.292289e-07
-2.176347e-07
-2.070767e-07
-1.977101e-07
-1.896715e-07
-1.830762e-07
-1.780146e-07
-1.745507e-07
-1.727196e-07
-1.725272e-07
-1.73949e-07
-1.769317e-07
-1.813934e-07
-1.872267e-07
-1.943011e-07
-2.024667e-07
-2.115583e-07
-2.214002e-07
-2.318106e-07
-2.426064e-07
-2.536082e-07
-2.646444e-07
-2.755549e-07
-2.861949e-07
-2.964372e-07
-3.06174e-07
-3.153183e-07
-3.23804e-07
-3.315862e-07
-3.386396e-07
-3.449574e-07
-3.505493e-07
-3.554388e-07
-3.596612e-07
-3.632612e-07
-3.662898e-07
-3.688015e-07
-3.708514e-07
-3.724929e-07
-3.73775e-07
-3.747405e-07
-3.754234e-07
-3.758473e-07
-3.760238e-07
-3.759512e-07
-3.756147e-07
-3.749899e-07
-3.740229e-07
-3.725559e-07
-3.708355e-07
2.530347e-08
2.4484e-08
2.342853e-08
2.21837e-08
2.073962e-08
1.910621e-08
1.729586e-08
1.532012e-08
1.319011e-08
1.091581e-08
8.505182e-09
5.963215e-09
3.291031e-09
4.851395e-10
-2.463119e-09
-5.567907e-09
-8.848973e-09
-1.233151e-08
-1.604579e-08
-2.002663e-08
-2.431271e-08
-2.894579e-08
-3.396988e-08
-3.943027e-08
-4.537263e-08
-5.1842e-08
-5.888172e-08
-6.653238e-08
-7.483071e-08
-8.380838e-08
-9.349088e-08
-1.038964e-07
-1.150345e-07
-1.269055e-07
-1.394993e-07
-1.527945e-07
-1.667582e-07
-1.813455e-07
-1.964993e-07
-2.12151e-07
-2.282203e-07
-2.446162e-07
-2.612381e-07
-2.779764e-07
-2.947146e-07
-3.113297e-07
-3.276948e-07
-3.436797e-07
-3.591534e-07
-3.739853e-07
-3.88047e-07
-4.012139e-07
-4.133666e-07
-4.24393e-07
-4.341891e-07
-4.426609e-07
-4.497253e-07
-4.553115e-07
-4.593622e-07
-4.618344e-07
-4.627006e-07
-4.619495e-07
-4.59585e-07
-4.556293e-07
-4.501257e-07
-4.431307e-07
-4.347199e-07
-4.249866e-07
-4.140412e-07
-4.020104e-07
-3.890367e-07
-3.752772e-07
-3.609014e-07
-3.460905e-07
-3.310342e-07
-3.159293e-07
-3.009762e-07
-2.863761e-07
-2.723279e-07
-2.590248e-07
-2.466503e-07
-2.353752e-07
-2.253533e-07
-2.167186e-07
-2.095818e-07
-2.040275e-07
-2.001122e-07
-1.978627e-07
-1.972752e-07
-1.983151e-07
-2.00918e-07
-2.049916e-07
-2.104179e-07
-2.170568e-07
-2.247499e-07
-2.333251e-07
-2.426012e-07
-2.523933e-07
-2.625173e-07
-2.727948e-07
-2.830575e-07
-2.931506e-07
-3.029361e-07
-3.122954e-07
-3.211301e-07
-3.293635e-07
-3.369402e-07
-3.438257e-07
-3.500049e-07
-3.554803e-07
-3.6027e-07
-3.644051e-07
-3.679264e-07
-3.708827e-07
-3.733276e-07
-3.753162e-07
-3.769025e-07
-3.781371e-07
-3.790642e-07
-3.797202e-07
-3.801312e-07
-3.803113e-07
-3.802617e-07
-3.799706e-07
-3.794167e-07
-3.785519e-07
-3.772348e-07
-3.756887e-07
2.992699e-08
2.877332e-08
2.740808e-08
2.592216e-08
2.428037e-08
2.248325e-08
2.053694e-08
1.844643e-08
1.621652e-08
1.385147e-08
1.135391e-08
8.723828e-09
5.957488e-09
3.046575e-09
-2.251537e-11
-3.269098e-09
-6.718362e-09
-1.040127e-08
-1.435417e-08
-1.861828e-08
-2.323892e-08
-2.826464e-08
-3.374627e-08
-3.973589e-08
-4.628566e-08
-5.344669e-08
-6.126781e-08
-6.979428e-08
-7.90665e-08
-8.911866e-08
-9.997746e-08
-1.116608e-07
-1.241768e-07
-1.375224e-07
-1.516828e-07
-1.666307e-07
-1.823259e-07
-1.987152e-07
-2.157326e-07
-2.332993e-07
-2.513248e-07
-2.697079e-07
-2.883373e-07
-3.070934e-07
-3.258492e-07
-3.444725e-07
-3.628269e-07
-3.807739e-07
-3.981743e-07
-4.148899e-07
-4.307854e-07
-4.457294e-07
-4.595965e-07
-4.722686e-07
-4.836362e-07
-4.935996e-07
-5.020705e-07
-5.089728e-07
-5.142437e-07
-5.178347e-07
-5.197129e-07
-5.198611e-07
-5.182774e-07
-5.149773e-07
-5.099982e-07
-5.033895e-07
-4.95221e-07
-4.855793e-07
-4.74569e-07
-4.62311e-07
-4.48943e-07
-4.346174e-07
-4.19501e-07
-4.037727e-07
-3.876222e-07
-3.712475e-07
-3.548524e-07
-3.386441e-07
-3.228297e-07
-3.076129e-07
-2.931907e-07
-2.797494e-07
-2.674612e-07
-2.564803e-07
-2.469396e-07
-2.389472e-07
-2.32584e-07
-2.279015e-07
-2.249201e-07
-2.236287e-07
-2.239849e-07
-2.259158e-07
-2.293205e-07
-2.340727e-07
-2.400246e-07
-2.47011e-07
-2.548544e-07
-2.633699e-07
-2.723702e-07
-2.816713e-07
-2.910965e-07
-3.004808e-07
-3.09675e-07
-3.185477e-07
-3.26988e-07
-3.349063e-07
-3.42235e-07
-3.48928e-07
-3.549595e-07
-3.603228e-07
-3.650278e-07
-3.690987e-07
-3.725718e-07
-3.754917e-07
-3.779088e-07
-3.798766e-07
-3.814488e-07
-3.826759e-07
-3.836034e-07
-3.842689e-07
-3.847005e-07
-3.849148e-07
-3.849155e-07
-3.84694e-07
-3.842325e-07
-3.834886e-07
-3.823383e-07
-3.809804e-07
3.474326e-08
3.323145e-08
3.153726e-08
2.979877e-08
2.795199e-08
2.598601e-08
2.389899e-08
2.168771e-08
1.93493e-08
1.688108e-08
1.427937e-08
1.153824e-08
8.648344e-09
5.595792e-09
2.361361e-09
-1.080085e-09
-4.759825e-09
-8.715209e-09
-1.29893e-08
-1.763026e-08
-2.269055e-08
-2.822595e-08
-3.429445e-08
-4.095504e-08
-4.826641e-08
-5.628559e-08
-6.506648e-08
-7.465843e-08
-8.510467e-08
-9.644089e-08
-1.086938e-07
-1.218797e-07
-1.360036e-07
-1.510576e-07
-1.670209e-07
-1.838587e-07
-2.015222e-07
-2.199486e-07
-2.390614e-07
-2.587715e-07
-2.789773e-07
-2.995664e-07
-3.204168e-07
-3.413982e-07
-3.623736e-07
-3.83201e-07
-4.03735e-07
-4.238284e-07
-4.43334e-07
-4.621062e-07
-4.800026e-07
-4.968853e-07
-5.126229e-07
-5.270913e-07
-5.401752e-07
-5.517697e-07
-5.61781e-07
-5.701274e-07