/*--------------------------------*- C++ -*----------------------------------*\
| =========                 |                                                 |
| \\      /  F ield         | OpenFOAM: The Open Source CFD Toolbox           |
|  \\    /   O peration     | Version:  2406                                  |
|   \\  /    A nd           | Website:  www.openfoam.com                      |
|    \\/     M anipulation  |                                                 |
\*---------------------------------------------------------------------------*/
FoamFile
{
    version     2.0;
    format      ascii;
    arch        "LSB;label=32;scalar=64";
    class       surfaceScalarField;
    location    "5826";
    object      phi;
}
// * * * * * * * * * * * * * * * * * * * * * * * * * * * * * * * * * * * * * //

dimensions      [0 3 -1 0 0 0 0];

oriented        oriented;

internalField   nonuniform List<scalar> 
32512
(
3.007173e-11
-4.558413e-11
7.03802e-10
-6.74181e-10
1.987917e-09
-1.283913e-09
3.703207e-09
-1.715297e-09
5.66982e-09
-1.96667e-09
7.735335e-09
-2.065507e-09
9.77905e-09
-2.043684e-09
1.170946e-08
-1.930382e-09
1.345961e-08
-1.750147e-09
1.498253e-08
-1.522928e-09
1.624715e-08
-1.264631e-09
1.723484e-08
-9.877102e-10
1.793652e-08
-7.016812e-10
1.835006e-08
-4.135402e-10
1.84782e-08
-1.281261e-10
1.832664e-08
1.515645e-10
1.790257e-08
4.240859e-10
1.72133e-08
6.892645e-10
1.626535e-08
9.479502e-10
1.506357e-08
1.201767e-09
1.361069e-08
1.452876e-09
1.190692e-08
1.703757e-09
9.949913e-09
1.957007e-09
7.734746e-09
2.215167e-09
5.254178e-09
2.480568e-09
2.49896e-09
2.755217e-09
-5.417655e-10
3.040722e-09
-3.880029e-09
3.338259e-09
-7.528509e-09
3.648474e-09
-1.15e-08
3.971489e-09
-1.580696e-08
4.306955e-09
-2.0461e-08
4.654036e-09
-2.547244e-08
5.011442e-09
-3.084989e-08
5.377452e-09
-3.659983e-08
5.749942e-09
-4.272623e-08
6.12641e-09
-4.923023e-08
6.503997e-09
-5.610974e-08
6.879507e-09
-6.335917e-08
7.249426e-09
-7.096911e-08
7.60994e-09
-7.892607e-08
7.956958e-09
-8.721221e-08
8.286138e-09
-9.580512e-08
8.592916e-09
-1.046777e-07
8.872545e-09
-1.137978e-07
9.120137e-09
-1.231285e-07
9.330719e-09
-1.326278e-07
9.499281e-09
-1.422487e-07
9.620846e-09
-1.519392e-07
9.690531e-09
-1.616428e-07
9.70362e-09
-1.712985e-07
9.655643e-09
-1.808409e-07
9.54245e-09
-1.902012e-07
9.360293e-09
-1.993071e-07
9.105902e-09
-2.080837e-07
8.776572e-09
-2.164539e-07
8.370235e-09
-2.243395e-07
7.885535e-09
-2.316614e-07
7.3219e-09
-2.38341e-07
6.679613e-09
-2.443008e-07
5.95987e-09
-2.494657e-07
5.164833e-09
-2.537633e-07
4.297672e-09
-2.57126e-07
3.3626e-09
-2.594908e-07
2.364891e-09
-2.608017e-07
1.310882e-09
-2.610097e-07
2.079429e-10
-2.600741e-07
-9.355655e-10
-2.579639e-07
-2.110262e-09
-2.546581e-07
-3.305782e-09
-2.501471e-07
-4.510959e-09
-2.444332e-07
-5.71391e-09
-2.375311e-07
-6.902168e-09
-2.294682e-07
-8.06283e-09
-2.202855e-07
-9.182738e-09
-2.100369e-07
-1.024867e-08
-1.987893e-07
-1.124757e-08
-1.866225e-07
-1.216678e-08
-1.736282e-07
-1.299426e-08
-1.599094e-07
-1.371887e-08
-1.455788e-07
-1.433058e-08
-1.307581e-07
-1.482073e-08
-1.155759e-07
-1.518225e-08
-1.00166e-07
-1.540986e-08
-8.466577e-08
-1.550023e-08
-6.921368e-08
-1.545209e-08
-5.394732e-08
-1.526636e-08
-3.900121e-08
-1.494612e-08
-2.450461e-08
-1.449661e-08
-1.057945e-08
-1.392516e-08
2.661584e-09
-1.324103e-08
1.511702e-08
-1.245544e-08
2.669805e-08
-1.158103e-08
3.732947e-08
-1.063142e-08
4.695078e-08
-9.621316e-09
5.551685e-08
-8.566067e-09
6.299809e-08
-7.481246e-09
6.938039e-08
-6.382297e-09
7.466459e-08
-5.2842e-09
7.886575e-08
-4.201158e-09
8.201205e-08
-3.146306e-09
8.414353e-08
-2.131473e-09
8.531051e-08
-1.16698e-09
8.557201e-08
-2.615038e-10
8.499401e-08
5.780104e-10
8.364753e-08
1.346484e-09
8.160696e-08
2.040564e-09
7.894836e-08
2.658607e-09
7.574782e-08
3.200548e-09
7.208008e-08
3.66774e-09
6.801734e-08
4.062743e-09
6.362828e-08
4.389064e-09
5.897744e-08
4.650844e-09
5.412494e-08
4.852498e-09
4.912666e-08
4.998282e-09
4.403486e-08
5.091804e-09
3.889941e-08
5.135455e-09
3.376964e-08
5.129767e-09
2.869694e-08
5.072702e-09
2.373805e-08
4.958891e-09
1.895918e-08
4.778874e-09
1.44407e-08
4.518473e-09
1.028214e-08
4.158566e-09
6.60623e-09
3.675905e-09
3.559697e-09
3.046529e-09
1.304765e-09
2.254928e-09
-1.015411e-11
1.314921e-09
-3.361023e-10
3.259598e-10
-3.360883e-10
6.66888e-10
-7.129233e-10
2.740275e-09
-2.747461e-09
6.039028e-09
-4.582755e-09
1.022162e-08
-5.898e-09
1.492686e-08
-6.671882e-09
1.982781e-08
-6.966437e-09
2.464954e-08
-6.86543e-09
2.917158e-08
-6.452435e-09
3.322382e-08
-5.802398e-09
3.668008e-08
-4.979197e-09
3.945108e-08
-4.035636e-09
4.147761e-08
-3.014251e-09
4.272426e-08
-1.948337e-09
4.317371e-08
-8.629714e-10
4.282161e-08
2.239955e-10
4.167218e-08
1.301016e-09
3.973438e-08
2.361887e-09
3.701875e-08
3.404882e-09
3.353481e-08
4.431876e-09
2.928906e-08
5.447499e-09
2.428361e-08
6.458317e-09
1.85153e-08
7.472059e-09
1.197539e-08
8.496916e-09
4.64966e-09
9.540902e-09
-3.481132e-09
1.061136e-08
-1.244045e-08
1.171453e-08
-2.22549e-08
1.285517e-08
-3.295303e-08
1.403637e-08
-4.456403e-08
1.525946e-08
-5.711644e-08
1.652389e-08
-7.063678e-08
1.782729e-08
-8.514824e-08
1.91655e-08
-1.006695e-07
2.053267e-08
-1.172134e-07
2.192135e-08
-1.34786e-07
2.33226e-08
-1.533857e-07
2.472607e-08
-1.730018e-07
2.612014e-08
-1.936143e-07
2.749197e-08
-2.151925e-07
2.882766e-08
-2.376949e-07
3.011229e-08
-2.61068e-07
3.133009e-08
-2.852464e-07
3.246454e-08
-3.10152e-07
3.349852e-08
-3.35694e-07
3.441452e-08
-3.617687e-07
3.519477e-08
-3.882595e-07
3.58215e-08
-4.150373e-07
3.627713e-08
-4.41961e-07
3.654455e-08
-4.688778e-07
3.660731e-08
-4.956242e-07
3.644996e-08
-5.220268e-07
3.605825e-08
-5.479038e-07
3.541943e-08
-5.73066e-07
3.45225e-08
-5.973185e-07
3.335847e-08
-6.204626e-07
3.19206e-08
-6.42297e-07
3.020463e-08
-6.626204e-07
2.820899e-08
-6.812336e-07
2.593502e-08
-6.97941e-07
2.338709e-08
-7.125539e-07
2.057276e-08
-7.24892e-07
1.750294e-08
-7.347863e-07
1.41919e-08
-7.42081e-07
1.065732e-08
-7.466364e-07
6.920329e-09
-7.483309e-07
3.005365e-09
-7.470631e-07
-1.059836e-09
-7.427542e-07
-5.244546e-09
-7.353496e-07
-9.514884e-09
-7.24821e-07
-1.383433e-08
-7.111679e-07
-1.816404e-08
-6.944186e-07
-2.246325e-08
-6.746311e-07
-2.668967e-08
-6.518939e-07
-3.079999e-08
-6.263262e-07
-3.475047e-08
-5.980774e-07
-3.849751e-08
-5.673265e-07
-4.199839e-08
-5.342814e-07
-4.52119e-08
-4.991766e-07
-4.809909e-08
-4.622714e-07
-5.062403e-08
-4.238475e-07
-5.275453e-08
-3.842053e-07
-5.446284e-08
-3.436613e-07
-5.572631e-08
-3.025432e-07
-5.652797e-08
-2.611864e-07
-5.685706e-08
-2.199291e-07
-5.67094e-08
-1.791077e-07
-5.608767e-08
-1.390524e-07
-5.50015e-08
-1.000815e-07
-5.346746e-08
-6.249784e-08
-5.150884e-08
-2.658359e-08
-4.915529e-08
7.403171e-09
-4.644221e-08
3.923223e-08
-4.341009e-08
6.87051e-08
-4.010429e-08
9.565693e-08
-3.657316e-08
1.19958e-07
-3.286715e-08
1.41515e-07
-2.903826e-08
1.602713e-07
-2.513861e-08
1.762065e-07
-2.121937e-08
1.89335e-07
-1.732972e-08
1.997046e-07
-1.351589e-08
2.073934e-07
-9.820222e-09
2.125069e-07
-6.280525e-09
2.151748e-07
-2.929433e-09
2.155469e-07
2.059703e-10
2.137889e-07
3.104484e-09
2.100785e-07
5.750882e-09
2.046015e-07
8.135634e-09
1.975474e-07
1.025469e-08
1.891061e-07
1.210897e-08
1.794652e-07
1.37037e-08
1.688067e-07
1.504755e-08
1.573059e-07
1.615162e-08
1.451302e-07
1.70282e-08
1.324392e-07
1.768928e-08
1.193861e-07
1.814494e-08
1.0612e-07
1.840147e-08
9.279047e-08
1.845934e-08
7.955211e-08
1.831106e-08
6.657191e-08
1.793909e-08
5.403673e-08
1.731405e-08
4.216135e-08
1.639384e-08
3.119537e-08
1.512455e-08
2.142602e-08
1.344525e-08
1.317184e-08
1.130071e-08
6.757265e-09
8.669488e-09
2.451418e-09
5.620744e-09
3.358364e-10
2.441513e-09
-2.440972e-13
1.285801e-09
-1.998522e-09
4.591558e-09
-6.053308e-09
9.447256e-09
-9.438544e-09
1.537759e-08
-1.182831e-08
2.191616e-08
-1.321038e-08
2.863721e-08
-1.368744e-08
3.517287e-08
-1.340108e-08
4.121859e-08
-1.249817e-08
4.653144e-08
-1.111527e-08
5.092463e-08
-9.372403e-09
5.426023e-08
-7.371249e-09
5.644135e-08
-5.195373e-09
5.740434e-08
-2.91132e-09
5.711145e-08
-5.700607e-10
5.554402e-08
1.791444e-09
5.269646e-08
4.148584e-09
4.857098e-08
6.487373e-09
4.317305e-08
8.802797e-09
3.650781e-08
1.10971e-08
2.857718e-08
1.337811e-08
1.937792e-08
1.565757e-08
8.900365e-09
1.794961e-08
-2.872028e-09
2.026931e-08
-1.596257e-08
2.263145e-08
-3.040055e-08
2.504933e-08
-4.621995e-08
2.753393e-08
-6.345802e-08
3.009322e-08
-8.215335e-08
3.27317e-08
-1.02344e-07
3.545009e-08
-1.240653e-07
3.824521e-08
-1.47348e-07
4.111001e-08
-1.722162e-07
4.403367e-08
-1.986853e-07
4.700176e-08
-2.267604e-07
4.999646e-08
-2.564346e-07
5.299682e-08
-2.876875e-07
5.597899e-08
-3.204839e-07
5.891646e-08
-3.547722e-07
6.178034e-08
-3.904842e-07
6.453963e-08
-4.275334e-07
6.716148e-08
-4.658148e-07
6.961152e-08
-5.052045e-07
7.18542e-08
-5.455591e-07
7.385316e-08
-5.867163e-07
7.557165e-08
-6.284945e-07
7.697297e-08
-6.706939e-07
7.802096e-08
-7.130973e-07
7.868047e-08
-7.554707e-07
7.891793e-08
-7.975652e-07
7.870183e-08
-8.391185e-07
7.800326e-08
-8.798567e-07
7.679645e-08
-9.194965e-07
7.505926e-08
-9.577477e-07
7.277369e-08
-9.943155e-07
6.992628e-08
-1.028903e-06
6.650856e-08
-1.061216e-06
6.251743e-08
-1.090963e-06
5.795548e-08
-1.117859e-06
5.283123e-08
-1.141631e-06
4.715942e-08
-1.16202e-06
4.096109e-08
-1.17878e-06
3.426376e-08
-1.19169e-06
2.710139e-08
-1.200547e-06
1.951438e-08
-1.205176e-06
1.154942e-08
-1.20543e-06
3.259256e-09
-1.201193e-06
-5.297375e-09
-1.19238e-06
-1.405656e-08
-1.178946e-06
-2.294892e-08
-1.16088e-06
-3.190084e-08
-1.138209e-06
-4.083488e-08
-1.111002e-06
-4.967057e-08
-1.079366e-06
-5.832518e-08
-1.043452e-06
-6.671468e-08
-1.003447e-06
-7.475477e-08
-9.595829e-07
-8.236199e-08
-9.121264e-07
-8.945488e-08
-8.61383e-07
-9.595526e-08
-8.076926e-07
-1.017895e-07
-7.514269e-07
-1.068898e-07
-6.929861e-07
-1.111954e-07
-6.327948e-07
-1.146541e-07
-5.71298e-07
-1.172231e-07
-5.089557e-07
-1.188702e-07
-4.46238e-07
-1.195747e-07
-3.836192e-07
-1.193282e-07
-3.21572e-07
-1.181349e-07
-2.605615e-07
-1.16012e-07
-2.010392e-07
-1.129898e-07
-1.434367e-07
-1.091113e-07
-8.816037e-08
-1.044316e-07
-3.558559e-08
-9.901699e-08
1.394813e-08
-9.294382e-08
6.014099e-08
-8.629715e-08
1.027377e-07
-7.916985e-08
1.415302e-07
-7.165964e-08
1.76359e-07
-6.386715e-08
2.071149e-07
-5.589446e-08
2.337384e-07
-4.784287e-08
2.562195e-07
-3.981082e-08
2.745956e-07
-3.189199e-08
2.889489e-07
-2.417356e-08
2.99403e-07
-1.673465e-08
3.061186e-07
-9.644994e-09
3.092886e-07
-2.964037e-09
3.091334e-07
3.25971e-09
3.058948e-07
8.989439e-09
2.998311e-07
1.419937e-08
2.912111e-07
1.887471e-08
2.803094e-07
2.301066e-08
2.674018e-07
2.661129e-08
2.527614e-07
2.968793e-08
2.366559e-07
3.225719e-08
2.193455e-07
3.433853e-08
2.010833e-07
3.595149e-08
1.821158e-07
3.711246e-08
1.626861e-07
3.783115e-08
1.430386e-07
3.810681e-08
1.234253e-07
3.792445e-08
1.04113e-07
3.725137e-08
8.539233e-08
3.603468e-08
6.75853e-08
3.420087e-08
5.105063e-08
3.165922e-08
3.618345e-08
2.831242e-08
2.340401e-08
2.408016e-08
1.312816e-08
1.894535e-08
5.710828e-09
1.303808e-08
1.354891e-09
6.797433e-09
1.354646e-09
1.729191e-09
-3.727719e-09
5.937013e-09
-1.026124e-08
1.188483e-08
-1.538633e-08
1.895586e-08
-1.889931e-08
2.659671e-08
-2.085122e-08
3.431519e-08
-2.140591e-08
4.168534e-08
-2.077122e-08
4.834953e-08
-1.916237e-08
5.401664e-08
-1.67824e-08
5.845706e-08
-1.381284e-08
6.149577e-08
-1.040997e-08
6.300448e-08
-6.704081e-09
6.289347e-08
-2.800292e-09
6.110358e-08
1.219844e-09
5.759868e-08
5.296357e-09
5.235885e-08
9.388426e-09
4.537424e-08
1.347198e-08
3.66399e-08
1.753712e-08
2.61515e-08
2.158549e-08
1.390203e-08
2.562756e-08
-1.204967e-10
2.968009e-08
-1.593453e-08
3.376365e-08
-3.356541e-08
3.790018e-08
-5.304492e-08
4.211096e-08
-7.441041e-08
4.641482e-08
-9.770317e-08
5.082667e-08
-1.229663e-07
5.535635e-08
-1.502425e-07
6.000787e-08
-1.795713e-07
6.477887e-08
-2.109866e-07
6.966049e-08
-2.445139e-07
7.463732e-08
-2.801678e-07
7.968763e-08
-3.179497e-07
8.478365e-08
-3.578452e-07
8.989198e-08
-3.998224e-07
9.497404e-08
-4.4383e-07
9.998653e-08
-4.897955e-07
1.048819e-07
-5.376242e-07
1.096091e-07
-5.871981e-07
1.141135e-07
-6.383751e-07
1.183384e-07
-6.909883e-07
1.222248e-07
-7.448467e-07
1.257125e-07
-7.997344e-07
1.287409e-07
-8.554121e-07
1.312494e-07
-9.116177e-07
1.331785e-07
-9.680673e-07
1.344705e-07
-1.024457e-06
1.350706e-07
-1.080467e-06
1.349274e-07
-1.135759e-06
1.339939e-07
-1.189984e-06
1.322283e-07
-1.242783e-06
1.29595e-07
-1.293788e-06
1.26065e-07
-1.342631e-06
1.216167e-07
-1.388942e-06
1.162367e-07
-1.432353e-06
1.099198e-07
-1.472506e-06
1.026701e-07
-1.509051e-06
9.450076e-08
-1.541654e-06
8.543456e-08
-1.569999e-06
7.550401e-08
-1.593789e-06
6.475141e-08
-1.612754e-06
5.322877e-08
-1.626651e-06
4.099778e-08
-1.635266e-06
2.812952e-08
-1.63842e-06
1.470413e-08
-1.635972e-06
8.104333e-10
-1.627814e-06
-1.345443e-08
-1.613885e-06
-2.798599e-08
-1.594161e-06
-4.267286e-08
-1.568664e-06
-5.739799e-08
-1.537459e-06
-7.203947e-08
-1.500658e-06
-8.647161e-08
-1.458417e-06
-1.005662e-07
-1.410938e-06
-1.141937e-07
-1.358468e-06
-1.272251e-07
-1.301297e-06
-1.395329e-07
-1.239759e-06
-1.509934e-07
-1.174226e-06
-1.614879e-07
-1.10511e-06
-1.70905e-07
-1.032858e-06
-1.79142e-07
-9.579466e-07
-1.86107e-07
-8.8088e-07
-1.917207e-07
-8.021854e-07
-1.959177e-07
-7.22407e-07
-1.986486e-07
-6.421011e-07
-1.998807e-07
-5.618296e-07
-1.995996e-07
-4.821545e-07
-1.9781e-07
-4.036309e-07
-1.945357e-07
-3.268005e-07
-1.898202e-07
-2.521854e-07
-1.837264e-07
-1.802813e-07
-1.763356e-07
-1.115517e-07
-1.677466e-07
-4.642138e-08
-1.580741e-07
1.47283e-08
-1.474468e-07
7.156369e-08
-1.360052e-07
1.238037e-07
-1.238996e-07
1.712228e-07
-1.112862e-07
2.136526e-07
-9.832425e-08
2.50983e-07
-8.517333e-08
2.831625e-07
-7.199031e-08
3.101967e-07
-5.892617e-08
3.321464e-07
-4.612327e-08
3.491245e-07
-3.371279e-08
3.612921e-07
-2.181254e-08
3.688532e-07
-1.052516e-08
3.720498e-07
6.309658e-11
3.711559e-07
9.883361e-09
3.664708e-07
1.888442e-08
3.583135e-07
2.703206e-08
3.470159e-07
3.430819e-08
3.329181e-07
4.070914e-08
3.163627e-07
4.624334e-08
2.976915e-07
5.092835e-08
2.772428e-07
5.478719e-08
2.553502e-07
5.784407e-08
2.323432e-07
6.011946e-08
2.085496e-07
6.162477e-08
1.842997e-07
6.235673e-08
1.599322e-07
6.229197e-08
1.358012e-07
6.138236e-08
1.122838e-07
5.955203e-08
8.978688e-08
5.669781e-08
6.875071e-08
5.269539e-08
4.964796e-08
4.741516e-08
3.297411e-08
4.0754e-08
1.922721e-08
3.269225e-08
8.877713e-09
2.338758e-08
2.340203e-09
1.333494e-08
3.694847e-09
1.99643e-09
-5.724205e-09
6.748652e-09
-1.501344e-08
1.332002e-08
-2.195762e-08
2.096864e-08
-2.654792e-08
2.906472e-08
-2.894731e-08
3.706516e-08
-2.940635e-08
4.450509e-08
-2.821115e-08
5.099346e-08
-2.565075e-08
5.620854e-08
-2.19975e-08
5.989218e-08
-1.74965e-08
6.184285e-08
-1.236064e-08
6.190783e-08
-6.769053e-09
5.997517e-08
-8.676122e-10
5.596556e-08
5.229475e-09
4.982472e-08
1.143721e-08
4.15163e-08
1.769685e-08
3.101552e-08
2.397275e-08
1.830374e-08
3.024888e-08
3.363987e-09
3.652522e-08
-1.382254e-08
4.281408e-08
-3.327882e-08
4.913637e-08
-5.503322e-08
5.551804e-08
-7.911986e-08
6.198683e-08
-1.055781e-07
6.856919e-08
-1.34451e-07
7.528777e-08
-1.657836e-07
8.215926e-08
-1.9962e-07
8.919275e-08
-2.360008e-07
9.638863e-08
-2.749598e-07
1.037379e-07
-3.165211e-07
1.112217e-07
-3.606955e-07
1.188118e-07
-4.074784e-07
1.264705e-07
-4.568459e-07
1.341512e-07
-5.087533e-07
1.417993e-07
-5.63132e-07
1.493527e-07
-6.198882e-07
1.567428e-07
-6.789013e-07
1.63895e-07
-7.400222e-07
1.7073e-07
-8.030735e-07
1.771648e-07
-8.678481e-07
1.831131e-07
-9.341103e-07
1.884869e-07
-1.001596e-06
1.931978e-07
-1.070012e-06
1.971574e-07
-1.139042e-06
2.002792e-07
-1.208343e-06
2.024795e-07
-1.277551e-06
2.03679e-07
-1.346284e-06
2.038035e-07
-1.414142e-06
2.027856e-07
-1.480714e-06
2.005655e-07
-1.545578e-06
1.970924e-07
-1.608308e-06
1.923252e-07
-1.668477e-06
1.862333e-07
-1.725658e-06
1.787977e-07
-1.779432e-06
1.700113e-07
-1.829392e-06
1.598794e-07
-1.875142e-06
1.484204e-07
-1.916307e-06
1.356656e-07
-1.952532e-06
1.216592e-07
-1.983487e-06
1.064589e-07
-2.00887e-06
9.013518e-08
-2.028413e-06
7.277128e-08
-2.041878e-06
5.446279e-08
-2.049066e-06
3.531717e-08
-2.049815e-06
1.545319e-08
-2.044005e-06
-4.999383e-09
-2.031558e-06
-2.590133e-08
-2.01244e-06
-4.710422e-08
-1.986661e-06
-6.845201e-08
-1.954276e-06
-8.978205e-08
-1.91539e-06
-1.109262e-07
-1.870149e-06
-1.317123e-07
-1.81875e-06
-1.519656e-07
-1.761433e-06
-1.715104e-07
-1.698486e-06
-1.901723e-07
-1.630239e-06
-2.077795e-07
-1.557067e-06
-2.241652e-07
-1.479385e-06
-2.391701e-07
-1.397646e-06
-2.526439e-07
-1.31234e-06
-2.644485e-07
-1.223987e-06
-2.744596e-07
-1.133139e-06
-2.825692e-07
-1.040368e-06
-2.886881e-07
-9.462696e-07
-2.927473e-07
-8.5145e-07
-2.947003e-07
-7.565251e-07
-2.945246e-07
-6.621127e-07
-2.922224e-07
-5.688264e-07
-2.878219e-07
-4.772691e-07
-2.813776e-07
-3.880259e-07
-2.729696e-07
-3.016579e-07
-2.627036e-07
-2.186953e-07
-2.507093e-07
-1.39631e-07
-2.371384e-07
-6.491486e-08
-2.22163e-07
5.051792e-09
-2.059719e-07
6.992047e-08
-1.887683e-07
1.294003e-07
-1.70766e-07
1.83261e-07
-1.52185e-07
2.313349e-07
-1.332473e-07
2.735178e-07
-1.141732e-07
3.097691e-07
-9.517739e-08
3.401103e-07
-7.646449e-08
3.646233e-07
-5.822576e-08
3.834465e-07
-4.063577e-08
3.967709e-07
-2.384963e-08
4.048349e-07
-8.00086e-09
4.079185e-07
6.799795e-09
4.063368e-07
2.046607e-08
4.00434e-07
3.293487e-08
3.905763e-07
4.416587e-08
3.771461e-07
5.413939e-08
3.60536e-07
6.285344e-08
3.411445e-07
7.031985e-08
3.193722e-07
7.655948e-08
2.956198e-07
8.159641e-08
2.702878e-07
8.545147e-08
2.437776e-07
8.813503e-08
2.164946e-07
8.963971e-08
1.888532e-07
8.993334e-08
1.612824e-07
8.895315e-08
1.34232e-07
8.66024e-08
1.081785e-07
8.27514e-08
8.362833e-08
7.724552e-08
6.111937e-08
6.992412e-08
4.121734e-08
6.065603e-08
2.451112e-08
4.939846e-08
1.161199e-08
3.628672e-08
3.175459e-09
2.177147e-08
6.870303e-09
2.111608e-09
-7.835805e-09
7.073536e-09
-1.997535e-08
1.382206e-08
-2.87061e-08
2.152096e-08
-3.424681e-08
2.947946e-08
-3.690581e-08
3.711575e-08
-3.704265e-08
4.39387e-08
-3.503412e-08
4.953683e-08
-3.12489e-08
5.357025e-08
-2.603093e-08
5.576313e-08
-1.968939e-08
5.589617e-08
-1.249367e-08
5.37987e-08
-4.671569e-09
4.934078e-08
3.59033e-09
4.242524e-08
1.214503e-08
3.298039e-08
2.088207e-08
2.095299e-08
2.972424e-08
6.3021e-09
3.862362e-08
-1.100629e-08
4.755726e-08
-3.10036e-08
5.652252e-08
-5.372181e-08
6.553228e-08
-7.919562e-08
7.461018e-08
-1.074635e-07
8.378595e-08
-1.385678e-07
9.309106e-08
-1.725533e-07
1.025547e-07
-2.094662e-07
1.122006e-07
-2.493507e-07
1.220438e-07
-2.922467e-07
1.320888e-07
-3.381862e-07
1.423282e-07
-3.871898e-07
1.527414e-07
-4.392631e-07
1.63295e-07
-4.943932e-07
1.739419e-07
-5.525457e-07
1.84623e-07
-6.136617e-07
1.952671e-07
-6.776548e-07
2.057925e-07
-7.444097e-07
2.161076e-07
-8.137798e-07
2.261128e-07
-8.855862e-07
2.357014e-07
-9.596173e-07
2.447611e-07
-1.035628e-06
2.531756e-07
-1.113341e-06
2.608262e-07
-1.192447e-06
2.675931e-07
-1.272607e-06
2.733574e-07
-1.353452e-06
2.780027e-07
-1.43459e-06
2.814168e-07
-1.515604e-06
2.834932e-07
-1.596058e-06
2.841334e-07
-1.675502e-06
2.832475e-07
-1.753473e-06
2.807566e-07
-1.829501e-06
2.765936e-07
-1.903113e-06
2.707045e-07
-1.973838e-06
2.630495e-07
-2.041208e-06
2.53604e-07
-2.104769e-06
2.423587e-07
-2.164079e-06
2.293206e-07
-2.218712e-06
2.14513e-07
-2.268268e-06
1.979758e-07
-2.312367e-06
1.797652e-07
-2.350662e-06
1.599536e-07
-2.382832e-06
1.386296e-07
-2.408594e-06
1.15897e-07
-2.427697e-06
9.187455e-08
-2.43993e-06
6.669538e-08
-2.445119e-06
4.050613e-08
-2.443132e-06
1.346627e-08
-2.433879e-06
-1.42521e-08
-2.417313e-06
-4.246723e-08
-2.393431e-06
-7.098703e-08
-2.362271e-06
-9.961142e-08
-2.32392e-06
-1.281332e-07
-2.278507e-06
-1.563393e-07
-2.226207e-06
-1.840126e-07
-2.167239e-06
-2.109336e-07
-2.101867e-06
-2.368822e-07
-2.0304e-06
-2.616397e-07
-1.953188e-06
-2.849914e-07
-1.870624e-06
-3.067286e-07
-1.783143e-06
-3.266516e-07
-1.691215e-06
-3.445719e-07
-1.595348e-06
-3.60315e-07
-1.496084e-06
-3.737236e-07
-1.393994e-06
-3.846599e-07
-1.289673e-06
-3.930084e-07
-1.183742e-06
-3.986788e-07
-1.076834e-06
-4.016077e-07
-9.69598e-07
-4.01761e-07
-8.626851e-07
-3.991353e-07
-7.567476e-07
-3.937594e-07
-6.524306e-07
-3.856946e-07
-5.503653e-07
-3.750349e-07
-4.511626e-07
-3.619063e-07
-3.55406e-07
-3.464659e-07
-2.636451e-07
-3.288994e-07
-1.763889e-07
-3.094191e-07
-9.410016e-08
-2.882607e-07
-1.71895e-08
-2.65679e-07
5.398872e-08
-2.419443e-07
1.191413e-07
-2.173376e-07
1.78039e-07
-1.92145e-07
2.305188e-07
-1.66653e-07
2.764848e-07
-1.411434e-07
3.15908e-07
-1.158877e-07
3.488253e-07
-9.114307e-08
3.75337e-07
-6.714752e-08
3.956036e-07
-4.411621e-08
4.098411e-07
-2.223831e-08
4.183157e-07
-1.674842e-09
4.213389e-07
1.74429e-08
4.192598e-07
3.501393e-08
4.124595e-07
5.096619e-08
4.01344e-07
6.525488e-08
3.863385e-07
7.785898e-08
3.678817e-07
8.877665e-08
3.464217e-07
9.801947e-08
3.224128e-07
1.056053e-07
2.963137e-07
1.115505e-07
2.685881e-07
1.158606e-07
2.397058e-07
1.185221e-07
2.10146e-07
1.194931e-07
1.804022e-07
1.18697e-07
1.509867e-07
1.160179e-07
1.224361e-07
1.113019e-07
9.531638e-08
1.043653e-07
7.022658e-08
9.501392e-08
4.780478e-08
8.307783e-08
2.873787e-08
6.846536e-08
1.378439e-08
5.12402e-08
3.827143e-09
3.172871e-08
1.069745e-08
2.100528e-09
-9.936301e-09
6.974079e-09
-2.484892e-08
1.348829e-08
-3.522031e-08
2.074717e-08
-4.150569e-08
2.801885e-08
-4.41775e-08
3.469624e-08
-4.372005e-08
4.027285e-08
-4.061076e-08
4.432692e-08
-3.530299e-08
4.650972e-08
-2.821375e-08
4.653619e-08
-1.971585e-08
4.41763e-08
-1.013377e-08
3.924702e-08
2.577239e-10
3.160437e-08
1.123301e-08
2.113605e-08
2.261336e-08
7.754383e-09
3.426373e-08
-8.610233e-09
4.608885e-08
-2.801511e-08
5.802848e-08
-5.051006e-08
7.005218e-08
-7.614123e-08
8.215368e-08
-1.04954e-07
9.434507e-08
-1.369947e-07
1.066508e-07
-1.723109e-07
1.191021e-07
-2.109511e-07
1.317313e-07
-2.529633e-07
1.445669e-07
-2.983924e-07
1.576296e-07
-3.472772e-07
1.709286e-07
-3.996475e-07
1.84459e-07
-4.555195e-07
1.982002e-07
-5.148926e-07
2.121145e-07
-5.777453e-07
2.261477e-07
-6.440317e-07
2.402283e-07
-7.136781e-07
2.542694e-07
-7.865804e-07
2.681695e-07
-8.626015e-07
2.818136e-07
-9.415695e-07
2.950757e-07
-1.023277e-06
3.078201e-07
-1.107479e-06
3.199036e-07
-1.193896e-06
3.311777e-07
-1.28221e-06
3.414903e-07
-1.372072e-06
3.506885e-07
-1.4631e-06
3.586203e-07
-1.554879e-06
3.651373e-07
-1.646974e-06
3.700968e-07
-1.738921e-06
3.733639e-07
-1.830241e-06
3.748138e-07
-1.920441e-06
3.743335e-07
-2.009018e-06
3.718239e-07
-2.095462e-06
3.672012e-07
-2.179267e-06
3.603985e-07
-2.259929e-06
3.513665e-07
-2.336955e-06
3.400748e-07
-2.409863e-06
3.265123e-07
-2.478192e-06
3.106876e-07
-2.5415e-06
2.926291e-07
-2.599372e-06
2.723848e-07
-2.651419e-06
2.500222e-07
-2.697281e-06
2.25628e-07
-2.736635e-06
1.993071e-07
-2.769188e-06
1.711822e-07
-2.794684e-06
1.413932e-07
-2.812905e-06
1.100958e-07
-2.823671e-06
7.746125e-08
-2.82684e-06
4.367525e-08
-2.822311e-06
8.936918e-09
-2.810022e-06
-2.654108e-08
-2.789952e-06
-6.253683e-08
-2.762122e-06
-9.881754e-08
-2.726591e-06
-1.351421e-07
-2.683462e-06
-1.712619e-07
-2.632879e-06
-2.069224e-07
-2.575027e-06
-2.418646e-07
-2.510134e-06
-2.758271e-07
-2.438468e-06
-3.085478e-07
-2.360341e-06
-3.397666e-07
-2.276105e-06
-3.692272e-07
-2.186154e-06
-3.966803e-07
-2.090919e-06
-4.218863e-07
-1.990873e-06
-4.446181e-07
-1.886523e-06
-4.646647e-07
-1.778413e-06
-4.818339e-07
-1.667117e-06
-4.95956e-07
-1.553238e-06
-5.06887e-07
-1.437405e-06
-5.145115e-07
-1.320267e-06
-5.187457e-07
-1.202489e-06
-5.195397e-07
-1.084744e-06
-5.168802e-07
-9.677115e-07
-5.107916e-07
-8.520686e-07
-5.013375e-07
-7.384829e-07
-4.886206e-07
-6.276066e-07
-4.727827e-07
-5.200689e-07
-4.540035e-07
-4.164695e-07
-4.324987e-07
-3.173715e-07
-4.085172e-07
-2.232945e-07
-3.823376e-07
-1.347092e-07
-3.542643e-07
-5.203114e-08
-3.246223e-07
2.438331e-08
-2.93752e-07
9.424201e-08
-2.620037e-07
1.573198e-07
-2.297308e-07
2.134603e-07
-1.972839e-07
2.625773e-07
-1.650047e-07
3.046544e-07
-1.332202e-07
3.397438e-07
-1.022369e-07
3.679637e-07
-7.23361e-08
3.894949e-07
-4.376955e-08
4.045765e-07
-1.67564e-08
4.135006e-07
8.51878e-09
4.166065e-07
3.190805e-08
4.142742e-07
5.329847e-08
4.069182e-07
7.261086e-08
3.949811e-07
8.979615e-08
3.789274e-07
1.048303e-07
3.592391e-07
1.177078e-07
3.364111e-07
1.284333e-07
3.109487e-07
1.370128e-07
2.833665e-07
1.434429e-07
2.541882e-07
1.477003e-07
2.239489e-07
1.497325e-07
1.931976e-07
1.494482e-07
1.625021e-07
1.467134e-07
1.324538e-07
1.413502e-07
1.036741e-07
1.33145e-07
7.682324e-08
1.218648e-07
5.261278e-08
1.072883e-07
3.182745e-08
8.925069e-08
1.536291e-08
6.770474e-08
4.293083e-09
4.279854e-08
1.499053e-08
1.984735e-09
-1.192101e-08
6.507936e-09
-2.937214e-08
1.241379e-08
-4.112617e-08
1.877946e-08
-4.787137e-08
2.485402e-08
-5.025207e-08
3.002009e-08
-4.888614e-08
3.376716e-08
-4.435785e-08
3.567233e-08
-3.720818e-08
3.538606e-08
-2.792748e-08
3.262086e-08
-1.695063e-08
2.714181e-08
-4.654705e-09
1.875815e-08
8.641411e-09
7.315523e-09
2.267565e-08
-7.310917e-09
3.723981e-08
-2.522318e-08
5.217599e-08
-4.650615e-08
6.73718e-08
-7.123267e-08
8.275499e-08
-9.946778e-08
9.828728e-08
-1.312719e-07
1.139578e-07
-1.66703e-07
1.297762e-07
-2.058175e-07
1.457653e-07
-2.486701e-07
1.619548e-07
-2.953129e-07
1.78374e-07
-3.457927e-07
1.950468e-07
-4.001488e-07
2.119858e-07
-4.584091e-07
2.291889e-07
-5.205861e-07
2.46636e-07
-5.86673e-07
2.642871e-07
-6.5664e-07
2.820815e-07
-7.304296e-07
2.999373e-07
-8.079539e-07
3.177526e-07
-8.890911e-07
3.354067e-07
-9.736831e-07
3.527615e-07
-1.061534e-06
3.696643e-07
-1.152408e-06
3.859497e-07
-1.24603e-06
4.014425e-07
-1.342087e-06
4.159604e-07
-1.440226e-06
4.293167e-07
-1.540059e-06
4.413235e-07
-1.641165e-06
4.517943e-07
-1.743092e-06
4.605472e-07
-1.845363e-06
4.674076e-07
-1.947477e-06
4.72211e-07
-2.048919e-06
4.748056e-07
-2.149159e-06
4.750545e-07
-2.247664e-06
4.728382e-07
-2.343896e-06
4.680561e-07
-2.437323e-06
4.60628e-07
-2.52742e-06
4.504955e-07
-2.613676e-06
4.376227e-07
-2.695598e-06
4.219965e-07
-2.772713e-06
4.036271e-07
-2.844573e-06
3.825476e-07
-2.910758e-06
3.58814e-07
-2.970877e-06
3.325042e-07
-3.024572e-06
3.037173e-07
-3.071517e-06
2.725731e-07
-3.111421e-06
2.392109e-07
-3.144027e-06
2.037885e-07
-3.169115e-06
1.66481e-07
-3.1865e-06
1.274802e-07
-3.196032e-06
8.699323e-08
-3.197598e-06
4.524173e-08
-3.191122e-06
2.461216e-09
-3.176564e-06
-4.109962e-08
-3.153918e-06
-8.518277e-08
-3.123216e-06
-1.295194e-07
-3.084526e-06
-1.738317e-07
-3.037954e-06
-2.178342e-07
-2.983642e-06
-2.612347e-07
-2.92177e-06
-3.037363e-07
-2.852558e-06
-3.450389e-07
-2.776265e-06
-3.848413e-07
-2.693188e-06
-4.228438e-07
-2.603665e-06
-4.587502e-07
-2.508074e-06
-4.922712e-07
-2.406833e-06
-5.231273e-07
-2.300399e-06
-5.510522e-07
-2.189267e-06
-5.757963e-07
-2.07397e-06
-5.971306e-07
-1.955076e-06
-6.148506e-07
-1.833183e-06
-6.287797e-07
-1.708921e-06
-6.387735e-07
-1.582944e-06
-6.447229e-07
-1.455926e-06
-6.465575e-07
-1.328558e-06
-6.442484e-07
-1.201539e-06
-6.378103e-07
-1.075573e-06
-6.273033e-07
-9.513605e-07
-6.128333e-07
-8.295906e-07
-5.945526e-07
-7.109355e-07
-5.726586e-07
-5.960425e-07
-5.473917e-07
-4.855263e-07
-5.190334e-07
-3.799622e-07
-4.879018e-07
-2.798793e-07
-4.543472e-07
-1.857546e-07
-4.187471e-07
-9.800663e-08
-3.815e-07
-1.699161e-08
-3.430187e-07
5.700135e-08
-3.037237e-07
1.237535e-07
-2.64036e-07
1.831175e-07
-2.243687e-07
2.350191e-07
-1.851217e-07
2.794561e-07
-1.46674e-07
3.164977e-07
-1.093777e-07
3.462814e-07
-7.355325e-08
3.690095e-07
-3.948454e-08
3.849446e-07
-7.416335e-09
3.944051e-07
2.244758e-08
3.977582e-07
4.994535e-08
3.954147e-07
7.495435e-08
3.878222e-07
9.738865e-08
3.754592e-07
1.171934e-07
3.588292e-07
1.343377e-07
3.384567e-07
1.488059e-07
3.148825e-07
1.60587e-07
2.88662e-07
1.696633e-07
2.603639e-07
1.759985e-07
2.305705e-07
1.795259e-07
1.998798e-07
1.801389e-07
1.689094e-07
1.776838e-07
1.383016e-07
1.71958e-07
1.087316e-07
1.627149e-07
8.091943e-08
1.49677e-07
5.564803e-08
1.325597e-07
3.379237e-08
1.111063e-07
1.636455e-08
8.513257e-08
4.584449e-09
5.457864e-08
1.957497e-08
1.780228e-09
-1.370123e-08
5.721524e-09
-3.331345e-08
1.067945e-08
-4.608412e-08
1.573381e-08
-5.292576e-08
2.013672e-08
-5.4655e-08
2.327667e-08
-5.202611e-08
2.465107e-08
-4.573226e-08
2.384516e-08
-3.640227e-08
2.051592e-08
-2.459824e-08
1.43795e-08
-1.081419e-08
5.201051e-09
4.523769e-09
-7.214078e-09
2.105656e-08
-2.302743e-08
3.8489e-08
-4.237406e-08
5.658643e-08
-6.536829e-08
7.517021e-08
-9.21088e-08
9.411229e-08
-1.226828e-07
1.133289e-07
-1.571693e-07
1.327737e-07
-1.956414e-07
1.5243e-07
-2.381679e-07
1.723026e-07
-2.848129e-07
1.924103e-07
-3.356351e-07
2.12777e-07
-3.906861e-07
2.334251e-07
-4.500073e-07
2.54368e-07
-5.136265e-07
2.756049e-07
-5.815539e-07
2.971163e-07
-6.53778e-07
3.188601e-07
-7.302614e-07
3.407704e-07
-8.109363e-07
3.627564e-07
-8.957014e-07
3.847024e-07
-9.844185e-07
4.064697e-07
-1.07691e-06
4.278979e-07
-1.172956e-06
4.488079e-07
-1.272296e-06
4.690046e-07
-1.374627e-06
4.882805e-07
-1.479604e-06
5.064188e-07
-1.58684e-06
5.231973e-07
-1.695916e-06
5.383921e-07
-1.806373e-06
5.517812e-07
-1.917727e-06
5.631482e-07
-2.029466e-06
5.722859e-07
-2.141058e-06
5.789992e-07
-2.251956e-06
5.831091e-07
-2.361605e-06
5.844544e-07
-2.469445e-06
5.828951e-07
-2.57492e-06
5.783135e-07
-2.677481e-06
5.706168e-07
-2.77659e-06
5.597373e-07
-2.871729e-06
5.456338e-07
-2.962397e-06
5.282913e-07
-3.048122e-06
5.077216e-07
-3.128457e-06
4.839621e-07
-3.202985e-06
4.570757e-07
-3.271321e-06
4.271496e-07
-3.333111e-06
3.942942e-07
-3.388036e-06
3.586418e-07
-3.435808e-06
3.203455e-07
-3.476175e-06
2.795778e-07
-3.508916e-06
2.365296e-07
-3.533844e-06
1.914086e-07
-3.550802e-06
1.444387e-07
-3.559668e-06
9.585867e-08
-3.560347e-06
4.592125e-08
-3.552779e-06
-5.106751e-09
-3.536932e-06
-5.694652e-08