/*--------------------------------*- C++ -*----------------------------------*\
| =========                 |                                                 |
| \\      /  F ield         | OpenFOAM: The Open Source CFD Toolbox           |
|  \\    /   O peration     | Version:  2406                                  |
|   \\  /    A nd           | Website:  www.openfoam.com                      |
|    \\/     M anipulation  |                                                 |
\*---------------------------------------------------------------------------*/
FoamFile
{
    version     2.0;
    format      ascii;
    arch        "LSB;label=32;scalar=64";
    class       volVectorField;
    location    "5826";
    object      U;
}
// * * * * * * * * * * * * * * * * * * * * * * * * * * * * * * * * * * * * * //

dimensions      [0 1 -1 0 0 0 0];

internalField   nonuniform List<vector> 
16384
(
(-2.612491e-08 2.325999e-08 0)
(7.434784e-08 -2.141027e-08 0)
(3.943073e-07 -6.655438e-08 0)
(8.86607e-07 -9.637824e-08 0)
(1.487462e-06 -1.128528e-07 0)
(2.14238e-06 -1.191835e-07 0)
(2.807593e-06 -1.182734e-07 0)
(3.449335e-06 -1.124171e-07 0)
(4.042533e-06 -1.033192e-07 0)
(4.56924e-06 -9.223111e-08 0)
(5.017224e-06 -8.007172e-08 0)
(5.378758e-06 -6.751112e-08 0)
(5.649604e-06 -5.502858e-08 0)
(5.828138e-06 -4.295209e-08 0)
(5.914604e-06 -3.148689e-08 0)
(5.910478e-06 -2.07382e-08 0)
(5.817925e-06 -1.07303e-08 0)
(5.639353e-06 -1.421777e-09 0)
(5.377041e-06 7.280034e-09 0)
(5.032858e-06 1.550531e-08 0)
(4.608048e-06 2.340934e-08 0)
(4.1031e-06 3.116071e-08 0)
(3.517674e-06 3.893173e-08 0)
(2.850596e-06 4.688974e-08 0)
(2.099902e-06 5.51914e-08 0)
(1.262926e-06 6.397593e-08 0)
(3.364164e-07 7.335707e-08 0)
(-6.833241e-07 8.342195e-08 0)
(-1.800286e-06 9.423825e-08 0)
(-3.018585e-06 1.05855e-07 0)
(-4.342297e-06 1.182968e-07 0)
(-5.77531e-06 1.315661e-07 0)
(-7.321167e-06 1.456454e-07 0)
(-8.98293e-06 1.604986e-07 0)
(-1.076304e-05 1.760723e-07 0)
(-1.26632e-05 1.922964e-07 0)
(-1.468426e-05 2.090842e-07 0)
(-1.682608e-05 2.263326e-07 0)
(-1.908746e-05 2.439214e-07 0)
(-2.146602e-05 2.617131e-07 0)
(-2.395811e-05 2.795521e-07 0)
(-2.655874e-05 2.97265e-07 0)
(-2.926148e-05 3.146603e-07 0)
(-3.205841e-05 3.315287e-07 0)
(-3.494008e-05 3.476446e-07 0)
(-3.789542e-05 3.627671e-07 0)
(-4.09118e-05 3.766422e-07 0)
(-4.397496e-05 3.890041e-07 0)
(-4.706907e-05 3.995787e-07 0)
(-5.017676e-05 4.080869e-07 0)
(-5.327916e-05 4.142479e-07 0)
(-5.635605e-05 4.17784e-07 0)
(-5.938592e-05 4.184242e-07 0)
(-6.234614e-05 4.1591e-07 0)
(-6.521311e-05 4.100008e-07 0)
(-6.796247e-05 4.004788e-07 0)
(-7.05693e-05 3.871541e-07 0)
(-7.300837e-05 3.698709e-07 0)
(-7.52544e-05 3.485138e-07 0)
(-7.728234e-05 3.230131e-07 0)
(-7.906769e-05 2.933504e-07 0)
(-8.058677e-05 2.595626e-07 0)
(-8.181712e-05 2.217476e-07 0)
(-8.273775e-05 1.800685e-07 0)
(-8.332958e-05 1.347561e-07 0)
(-8.35757e-05 8.610636e-08 0)
(-8.346169e-05 3.448282e-08 0)
(-8.297604e-05 -1.967484e-08 0)
(-8.211035e-05 -7.585411e-08 0)
(-8.085969e-05 -1.334814e-07 0)
(-7.922283e-05 -1.919245e-07 0)
(-7.720245e-05 -2.504989e-07 0)
(-7.480529e-05 -3.084769e-07 0)
(-7.204229e-05 -3.650978e-07 0)
(-6.89286e-05 -4.19581e-07 0)
(-6.548362e-05 -4.711404e-07 0)
(-6.173085e-05 -5.190011e-07 0)
(-5.769778e-05 -5.62416e-07 0)
(-5.341563e-05 -6.006831e-07 0)
(-4.8919e-05 -6.33163e-07 0)
(-4.424551e-05 -6.592974e-07 0)
(-3.943533e-05 -6.786253e-07 0)
(-3.453057e-05 -6.907978e-07 0)
(-2.957478e-05 -6.955905e-07 0)
(-2.461222e-05 -6.929124e-07 0)
(-1.968722e-05 -6.828116e-07 0)
(-1.484347e-05 -6.654776e-07 0)
(-1.012333e-05 -6.412381e-07 0)
(-5.567137e-06 -6.105493e-07 0)
(-1.212578e-06 -5.739596e-07 0)
(2.905979e-06 -5.321018e-07 0)
(6.758019e-06 -4.858107e-07 0)
(1.031721e-05 -4.360255e-07 0)
(1.356177e-05 -3.836526e-07 0)
(1.647475e-05 -3.296047e-07 0)
(1.904418e-05 -2.747873e-07 0)
(2.126309e-05 -2.200745e-07 0)
(2.31294e-05 -1.662883e-07 0)
(2.464571e-05 -1.141818e-07 0)
(2.581902e-05 -6.442338e-08 0)
(2.666033e-05 -1.758484e-08 0)
(2.718422e-05 2.58669e-08 0)
(2.740831e-05 6.557389e-08 0)
(2.735272e-05 1.012877e-07 0)
(2.703949e-05 1.328686e-07 0)
(2.649202e-05 1.602863e-07 0)
(2.573451e-05 1.836033e-07 0)
(2.479141e-05 2.029657e-07 0)
(2.368696e-05 2.185925e-07 0)
(2.244474e-05 2.307623e-07 0)
(2.108735e-05 2.397975e-07 0)
(1.963615e-05 2.460469e-07 0)
(1.811109e-05 2.498656e-07 0)
(1.653071e-05 2.515914e-07 0)
(1.491224e-05 2.515171e-07 0)
(1.327191e-05 2.498567e-07 0)
(1.162544e-05 2.467038e-07 0)
(9.988744e-06 2.419808e-07 0)
(8.378858e-06 2.35376e-07 0)
(6.81516e-06 2.262666e-07 0)
(5.32079e-06 2.136292e-07 0)
(3.924256e-06 1.95944e-07 0)
(2.661009e-06 1.711298e-07 0)
(1.57451e-06 1.366264e-07 0)
(7.157799e-07 8.983854e-08 0)
(1.387188e-07 2.918016e-08 0)
(-1.203436e-07 -4.031611e-08 0)
(-8.110621e-08 -8.125664e-08 0)
(1.992052e-08 -7.861676e-08 0)
(4.48363e-07 -4.507671e-07 0)
(1.322766e-06 -8.103772e-07 0)
(2.548356e-06 -1.069646e-06 0)
(3.997278e-06 -1.222555e-06 0)
(5.557374e-06 -1.283186e-06 0)
(7.132065e-06 -1.269577e-06 0)
(8.642156e-06 -1.198896e-06 0)
(1.002553e-05 -1.085952e-06 0)
(1.12353e-05 -9.429789e-07 0)
(1.223749e-05 -7.798443e-07 0)
(1.300885e-05 -6.0434e-07 0)
(1.353471e-05 -4.224603e-07 0)
(1.380702e-05 -2.386437e-07 0)
(1.38227e-05 -5.598502e-08 0)
(1.358203e-05 1.235716e-07 0)
(1.30874e-05 2.990547e-07 0)
(1.234216e-05 4.702959e-07 0)
(1.134968e-05 6.377714e-07 0)
(1.011266e-05 8.02447e-07 0)
(8.632561e-06 9.656307e-07 0)
(6.90927e-06 1.128833e-06 0)
(4.940889e-06 1.293645e-06 0)
(2.723716e-06 1.461623e-06 0)
(2.523455e-07 1.634199e-06 0)
(-2.480125e-06 1.812608e-06 0)
(-5.481793e-06 1.997822e-06 0)
(-8.761581e-06 2.190524e-06 0)
(-1.232883e-05 2.391085e-06 0)
(-1.619289e-05 2.599561e-06 0)
(-2.036267e-05 2.815691e-06 0)
(-2.484622e-05 3.038904e-06 0)
(-2.965034e-05 3.268341e-06 0)
(-3.478016e-05 3.502869e-06 0)
(-4.023879e-05 3.741094e-06 0)
(-4.602702e-05 3.981384e-06 0)
(-5.214295e-05 4.221879e-06 0)
(-5.858173e-05 4.460505e-06 0)
(-6.53353e-05 4.694988e-06 0)
(-7.239216e-05 4.922866e-06 0)
(-7.973715e-05 5.141507e-06 0)
(-8.735128e-05 5.348126e-06 0)
(-9.521161e-05 5.539802e-06 0)
(-0.0001032911 5.713512e-06 0)
(-0.0001115587 5.86615e-06 0)
(-0.000119979 5.994569e-06 0)
(-0.0001285128 6.095613e-06 0)
(-0.0001371169 6.166158e-06 0)
(-0.0001457439 6.203155e-06 0)
(-0.0001543434 6.203677e-06 0)
(-0.0001628613 6.164965e-06 0)
(-0.0001712407 6.084482e-06 0)
(-0.0001794221 5.959953e-06 0)
(-0.000187344 5.789425e-06 0)
(-0.0001949431 5.571308e-06 0)
(-0.0002021553 5.304429e-06 0)
(-0.0002089162 4.988071e-06 0)
(-0.0002151614 4.622017e-06 0)
(-0.0002208276 4.206593e-06 0)
(-0.0002258531 3.742699e-06 0)
(-0.0002301786 3.231843e-06 0)
(-0.0002337482 2.676157e-06 0)
(-0.0002365097 2.078422e-06 0)
(-0.0002384156 1.442072e-06 0)
(-0.0002394239 7.711892e-07 0)
(-0.0002394989 7.048111e-08 0)
(-0.0002386114 -6.547331e-07 0)
(-0.0002367401 -1.398493e-06 0)
(-0.0002338715 -2.154283e-06 0)
(-0.000230001 -2.915106e-06 0)
(-0.0002251329 -3.673543e-06 0)
(-0.000219281 -4.421831e-06 0)
(-0.0002124687 -5.151963e-06 0)
(-0.0002047292 -5.855793e-06 0)
(-0.0001961056 -6.525157e-06 0)
(-0.0001866505 -7.152005e-06 0)
(-0.0001764258 -7.72854e-06 0)
(-0.0001655026 -8.247366e-06 0)
(-0.00015396 -8.701636e-06 0)
(-0.0001418848 -9.085196e-06 0)
(-0.0001293703 -9.392733e-06 0)
(-0.0001165157 -9.619905e-06 0)
(-0.0001034241 -9.763459e-06 0)
(-9.020215e-05 -9.821336e-06 0)
(-7.695788e-05 -9.792743e-06 0)
(-6.379961e-05 -9.678208e-06 0)
(-5.083432e-05 -9.479594e-06 0)
(-3.816614e-05 -9.200094e-06 0)
(-2.589479e-05 -8.844175e-06 0)
(-1.411421e-05 -8.417483e-06 0)
(-2.911164e-06 -7.926724e-06 0)
(7.636025e-06 -7.379639e-06 0)
(1.745861e-05 -6.784847e-06 0)
(2.649828e-05 -6.151493e-06 0)
(3.470773e-05 -5.48907e-06 0)
(4.205119e-05 -4.807236e-06 0)
(4.850469e-05 -4.115596e-06 0)
(5.405593e-05 -3.423492e-06 0)
(5.870409e-05 -2.73981e-06 0)
(6.245928e-05 -2.072805e-06 0)
(6.534181e-05 -1.429943e-06 0)
(6.738134e-05 -8.177788e-07 0)
(6.861579e-05 -2.418591e-07 0)
(6.909015e-05 2.933329e-07 0)
(6.88552e-05 7.844437e-07 0)
(6.796626e-05 1.229214e-06 0)
(6.648175e-05 1.626451e-06 0)
(6.4462e-05 1.975946e-06 0)
(6.196802e-05 2.278379e-06 0)
(5.90604e-05 2.535192e-06 0)
(5.579845e-05 2.748423e-06 0)
(5.223946e-05 2.92052e-06 0)
(4.84383e-05 3.054103e-06 0)
(4.444722e-05 3.151707e-06 0)
(4.031615e-05 3.215464e-06 0)
(3.609322e-05 3.246762e-06 0)
(3.182584e-05 3.245843e-06 0)
(2.756222e-05 3.211382e-06 0)
(2.33533e-05 3.140033e-06 0)
(1.925508e-05 3.026013e-06 0)
(1.533127e-05 2.86078e-06 0)
(1.165581e-05 2.633024e-06 0)
(8.314725e-06 2.329352e-06 0)
(5.406093e-06 1.936608e-06 0)
(3.035774e-06 1.447683e-06 0)
(1.305159e-06 8.745279e-07 0)
(2.862913e-07 2.807645e-07 0)
(-3.930387e-08 -1.20104e-07 0)
(6.647106e-08 -3.96968e-07 0)
(8.121955e-07 -1.325171e-06 0)
(2.140715e-06 -2.136764e-06 0)
(3.90628e-06 -2.718704e-06 0)
(5.937296e-06 -3.061225e-06 0)
(8.090015e-06 -3.189174e-06 0)
(1.023746e-05 -3.137893e-06 0)
(1.227196e-05 -2.943646e-06 0)
(1.410619e-05 -2.639615e-06 0)
(1.567191e-05 -2.254509e-06 0)
(1.691776e-05 -1.812326e-06 0)
(1.780677e-05 -1.332562e-06 0)
(1.831386e-05 -8.305856e-07 0)
(1.842334e-05 -3.180502e-07 0)
(1.81267e-05 1.966863e-07 0)
(1.742049e-05 7.08153e-07 0)
(1.630456e-05 1.213341e-06 0)
(1.478046e-05 1.711309e-06 0)
(1.285014e-05 2.202786e-06 0)
(1.051491e-05 2.689778e-06 0)
(7.77469e-06 3.175193e-06 0)
(4.62748e-06 3.662485e-06 0)
(1.069094e-06 4.155326e-06 0)
(-2.906881e-06 4.657313e-06 0)
(-7.308931e-06 5.171725e-06 0)
(-1.214729e-05 5.701321e-06 0)
(-1.74335e-05 6.248191e-06 0)
(-2.317984e-05 6.813648e-06 0)
(-2.939874e-05 7.398168e-06 0)
(-3.610209e-05 8.001357e-06 0)
(-4.330065e-05 8.621963e-06 0)
(-5.100333e-05 9.257896e-06 0)
(-5.92166e-05 9.906264e-06 0)
(-6.794387e-05 1.056343e-05 0)
(-7.7185e-05 1.122504e-05 0)
(-8.693572e-05 1.188609e-05 0)
(-9.718722e-05 1.2541e-05 0)
(-0.0001079257 1.318359e-05 0)
(-0.0001191321 1.38072e-05 0)
(-0.0001307817 1.440474e-05 0)
(-0.0001428439 1.49687e-05 0)
(-0.0001552821 1.549125e-05 0)
(-0.0001680536 1.596433e-05 0)
(-0.0001811093 1.637971e-05 0)
(-0.0001943943 1.672908e-05 0)
(-0.0002078475 1.700418e-05 0)
(-0.0002214021 1.719687e-05 0)
(-0.0002349857 1.729927e-05 0)
(-0.000248521 1.730388e-05 0)
(-0.000261926 1.72037e-05 0)
(-0.0002751148 1.699233e-05 0)
(-0.0002879981 1.666412e-05 0)
(-0.0003004839 1.62143e-05 0)
(-0.0003124784 1.563903e-05 0)
(-0.0003238867 1.493559e-05 0)
(-0.0003346139 1.410242e-05 0)
(-0.0003445661 1.313923e-05 0)
(-0.0003536508 1.204711e-05 0)
(-0.0003617787 1.082853e-05 0)
(-0.000368864 9.487478e-06 0)
(-0.0003748261 8.02943e-06 0)
(-0.0003795898 6.461422e-06 0)
(-0.000383087 4.792033e-06 0)
(-0.0003852571 3.031379e-06 0)
(-0.0003860484 1.191068e-06 0)
(-0.0003854184 -7.158596e-07 0)
(-0.0003833352 -2.674982e-06 0)
(-0.0003797778 -4.670503e-06 0)
(-0.0003747366 -6.685516e-06 0)
(-0.0003682144 -8.702118e-06 0)
(-0.0003602266 -1.070158e-05 0)
(-0.0003508013 -1.266456e-05 0)
(-0.0003399797 -1.457129e-05 0)
(-0.0003278159 -1.640187e-05 0)
(-0.0003143771 -1.813654e-05 0)
(-0.0002997431 -1.975593e-05 0)
(-0.0002840056 -2.124143e-05 0)
(-0.0002672682 -2.257546e-05 0)
(-0.0002496449 -2.374182e-05 0)
(-0.0002312595 -2.472603e-05 0)
(-0.0002122444 -2.551559e-05 0)
(-0.0001927389 -2.610028e-05 0)
(-0.0001728883 -2.647248e-05 0)
(-0.0001528418 -2.662732e-05 0)
(-0.000132751 -2.656286e-05 0)
(-0.0001127679 -2.628028e-05 0)
(-9.304284e-05 -2.578384e-05 0)
(-7.372307e-05 -2.508094e-05 0)
(-5.495031e-05 -2.418201e-05 0)
(-3.685907e-05 -2.310035e-05 0)
(-1.957486e-05 -2.185191e-05 0)
(-3.212432e-06 -2.045494e-05 0)
(1.212569e-05 -1.892978e-05 0)
(2.635047e-05 -1.729842e-05 0)
(3.938755e-05 -1.558388e-05 0)
(5.117794e-05 -1.380982e-05 0)
(6.167856e-05 -1.200007e-05 0)
(7.086242e-05 -1.017813e-05 0)
(7.871852e-05 -8.366654e-06 0)
(8.525138e-05 -6.587054e-06 0)
(9.04804e-05 -4.859051e-06 0)
(9.443877e-05 -3.20035e-06 0)
(9.717231e-05 -1.626356e-06 0)
(9.873801e-05 -1.499757e-07 0)
(9.920241e-05 1.218516e-06 0)
(9.863985e-05 2.471585e-06 0)
(9.713082e-05 3.604316e-06 0)
(9.476005e-05 4.614313e-06 0)
(9.161488e-05 5.501474e-06 0)
(8.778371e-05 6.267702e-06 0)
(8.335463e-05 6.91652e-06 0)
(7.841433e-05 7.452597e-06 0)
(7.30474e-05 7.881181e-06 0)
(6.733593e-05 8.207436e-06 0)
(6.135969e-05 8.435689e-06 0)
(5.519674e-05 8.568582e-06 0)
(4.892467e-05 8.606164e-06 0)
(4.262232e-05 8.54495e-06 0)
(3.637211e-05 8.377028e-06 0)
(3.02626e-05 8.089358e-06 0)
(2.439125e-05 7.663505e-06 0)
(1.886676e-05 7.076282e-06 0)
(1.381016e-05 6.302178e-06 0)
(9.353428e-06 5.319251e-06 0)
(5.6328e-06 4.121448e-06 0)
(2.776079e-06 2.742466e-06 0)
(8.975018e-07 1.305433e-06 0)
(3.280157e-08 1.458207e-07 0)
(9.746937e-08 -8.912888e-07 0)
(1.078395e-06 -2.555415e-06 0)
(2.735305e-06 -3.904814e-06 0)
(4.86776e-06 -4.848343e-06 0)
(7.264135e-06 -5.387892e-06 0)
(9.757946e-06 -5.564007e-06 0)
(1.22031e-05 -5.431632e-06 0)
(1.447424e-05 -5.048215e-06 0)
(1.646781e-05 -4.467768e-06 0)
(1.810099e-05 -3.738238e-06 0)
(1.930963e-05 -2.900594e-06 0)
(2.004584e-05 -1.988745e-06 0)
(2.027538e-05 -1.02986e-06 0)
(1.997503e-05 -4.487014e-08 0)
(1.913011e-05 9.509475e-07 0)
(1.773218e-05 1.947319e-06 0)
(1.57769e-05 2.93831e-06 0)
(1.326229e-05 3.921649e-06 0)
(1.018716e-05 4.898039e-06 0)
(6.549905e-06 5.870473e-06 0)
(2.347639e-06 6.843557e-06 0)
(-2.424441e-06 7.822873e-06 0)
(-7.773326e-06 8.814394e-06 0)
(-1.370821e-05 9.823947e-06 0)
(-2.024027e-05 1.085676e-05 0)
(-2.738223e-05 1.19171e-05 0)
(-3.514777e-05 1.300798e-05 0)
(-4.355082e-05 1.413096e-05 0)
(-5.260473e-05 1.528602e-05 0)
(-6.232148e-05 1.647153e-05 0)
(-7.271077e-05 1.768423e-05 0)
(-8.377923e-05 1.891928e-05 0)
(-9.552959e-05 2.017034e-05 0)
(-0.0001079599 2.142966e-05 0)
(-0.000121063 2.268818e-05 0)
(-0.0001348257 2.393562e-05 0)
(-0.0001492282 2.516065e-05 0)
(-0.000164244 2.635091e-05 0)
(-0.0001798389 2.749324e-05 0)
(-0.0001959716 2.857371e-05 0)
(-0.0002125925 2.957784e-05 0)
(-0.0002296444 3.049068e-05 0)
(-0.0002470621 3.129705e-05 0)
(-0.0002647728 3.198165e-05 0)
(-0.0002826961 3.252929e-05 0)
(-0.0003007445 3.292512e-05 0)
(-0.0003188239 3.315478e-05 0)
(-0.0003368342 3.320465e-05 0)
(-0.0003546699 3.30621e-05 0)
(-0.000372221 3.271564e-05 0)
(-0.0003893737 3.215518e-05 0)
(-0.0004060117 3.137224e-05 0)
(-0.000422017 3.036007e-05 0)
(-0.0004372708 2.911392e-05 0)
(-0.000451655 2.763114e-05 0)
(-0.0004650533 2.59113e-05 0)
(-0.000477352 2.395638e-05 0)
(-0.0004884414 2.177078e-05 0)
(-0.0004982172 1.936146e-05 0)
(-0.000506581 1.673794e-05 0)
(-0.0005134419 1.391236e-05 0)
(-0.0005187175 1.089942e-05 0)
(-0.0005223345 7.716401e-06 0)
(-0.00052423 4.383064e-06 0)
(-0.0005243523 9.215388e-07 0)
(-0.0005226616 -2.643761e-06 0)
(-0.0005191307 -6.286232e-06 0)
(-0.0005137457 -9.977338e-06 0)
(-0.0005065065 -1.36869e-05 0)
(-0.0004974268 -1.738333e-05 0)
(-0.0004865349 -2.10339e-05 0)
(-0.0004738737 -2.460509e-05 0)
(-0.0004595004 -2.806295e-05 0)
(-0.000443487 -3.137351e-05 0)
(-0.0004259196 -3.45032e-05 0)
(-0.000406898 -3.741932e-05 0)
(-0.0003865356 -4.009055e-05 0)
(-0.000364958 -4.248739e-05 0)
(-0.0003423028 -4.458272e-05 0)
(-0.0003187179 -4.635227e-05 0)
(-0.0002943608 -4.77751e-05 0)
(-0.000269397 -4.883409e-05 0)
(-0.0002439981 -4.95163e-05 0)
(-0.0002183407 -4.981337e-05 0)
(-0.0001926043 -4.972179e-05 0)
(-0.000166969 -4.924311e-05 0)
(-0.0001416142 -4.838406e-05 0)
(-0.0001167158 -4.715656e-05 0)
(-9.244453e-05 -4.557759e-05 0)
(-6.896373e-05 -4.366906e-05 0)
(-4.642733e-05 -4.145737e-05 0)
(-2.49779e-05 -3.897307e-05 0)
(-4.744848e-06 -3.625026e-05 0)
(1.415719e-05 -3.332605e-05 0)
(3.16296e-05 -3.023988e-05 0)
(4.759107e-05 -2.70325e-05 0)
(6.197838e-05 -2.374527e-05 0)
(7.474691e-05 -2.041944e-05 0)
(8.587083e-05 -1.709532e-05 0)
(9.534288e-05 -1.381142e-05 0)
(0.0001031739 -1.060377e-05 0)
(0.0001093919 -7.505282e-06 0)
(0.0001140412 -4.545182e-06 0)
(0.0001171804 -1.748608e-06 0)
(0.0001188816 8.636822e-07 0)
(0.0001192275 3.275575e-06 0)
(0.0001183105 5.475499e-06 0)
(0.00011623 7.456348e-06 0)
(0.0001130907 9.21513e-06 0)
(0.0001090003 1.07525e-05 0)
(0.0001040686 1.207216e-05 0)
(9.84053e-05 1.318001e-05 0)
(9.211938e-05 1.408323e-05 0)
(8.531835e-05 1.478912e-05 0)
(7.810821e-05 1.530383e-05 0)
(7.059387e-05 1.56309e-05 0)
(6.288024e-05 1.57698e-05 0)
(5.507385e-05 1.571445e-05 0)
(4.728496e-05 1.545187e-05 0)
(3.963001e-05 1.496135e-05 0)
(3.223398e-05 1.421442e-05 0)
(2.523224e-05 1.317644e-05 0)
(1.877135e-05 1.181093e-05 0)
(1.300736e-05 1.008882e-05 0)
(8.099868e-06 8.005598e-06 0)
(4.204622e-06 5.611149e-06 0)
(1.49647e-06 3.063435e-06 0)
(9.765362e-08 7.425614e-07 0)
(1.155862e-07 -1.499099e-06 0)
(1.2404e-06 -4.016167e-06 0)
(3.093083e-06 -5.944826e-06 0)
(5.425985e-06 -7.247801e-06 0)
(7.992759e-06 -7.956183e-06 0)
(1.060811e-05 -8.13429e-06 0)
(1.311249e-05 -7.860094e-06 0)
(1.536929e-05 -7.213766e-06 0)
(1.726482e-05 -6.271141e-06 0)
(1.870683e-05 -5.100366e-06 0)
(1.962236e-05 -3.760433e-06 0)
(1.995537e-05 -2.300776e-06 0)
(1.966414e-05 -7.614695e-07 0)
(1.871869e-05 8.262461e-07 0)
(1.709825e-05 2.43927e-06 0)
(1.478883e-05 4.061761e-06 0)
(1.178113e-05 5.684251e-06 0)
(8.068592e-06 7.30268e-06 0)
(3.645818e-06 8.917388e-06 0)
(-1.492686e-06 1.05321e-05 0)
(-7.353451e-06 1.215294e-05 0)
(-1.394463e-05 1.378744e-05 0)
(-2.127623e-05 1.544368e-05 0)
(-2.936009e-05 1.712946e-05 0)
(-3.820955e-05 1.88516e-05 0)
(-4.783887e-05 2.061536e-05 0)
(-5.826254e-05 2.242405e-05 0)
(-6.949434e-05 2.427866e-05 0)
(-8.154643e-05 2.617771e-05 0)
(-9.442832e-05 2.811715e-05 0)
(-0.0001081459 3.009038e-05 0)
(-0.0001227003 3.208833e-05 0)
(-0.0001380872 3.409957e-05 0)
(-0.0001542958 3.611048e-05 0)
(-0.0001713082 3.810541e-05 0)
(-0.0001890985 4.006692e-05 0)
(-0.0002076325 4.197596e-05 0)
(-0.0002268672 4.381205e-05 0)
(-0.0002467503 4.555359e-05 0)
(-0.0002672203 4.717804e-05 0)
(-0.0002882064 4.866219e-05 0)
(-0.0003096284 4.998245e-05 0)
(-0.0003313972 5.111516e-05 0)
(-0.0003534152 5.203687e-05 0)
(-0.0003755765 5.272465e-05 0)
(-0.000397768 5.315649e-05 0)
(-0.00041987 5.331158e-05 0)
(-0.0004417571 5.317064e-05 0)
(-0.0004632993 5.271626e-05 0)
(-0.0004843629 5.193324e-05 0)
(-0.0005048121 5.080881e-05 0)
(-0.00052451 4.933295e-05 0)
(-0.0005433195 4.749861e-05 0)
(-0.0005611053 4.53019e-05 0)
(-0.0005777347 4.274229e-05 0)
(-0.0005930788 3.982273e-05 0)
(-0.0006070142 3.654975e-05 0)
(-0.0006194235 3.293354e-05 0)
(-0.000630197 2.898796e-05 0)
(-0.0006392336 2.473057e-05 0)
(-0.0006464416 2.018255e-05 0)
(-0.0006517397 1.536868e-05 0)
(-0.0006550581 1.031716e-05 0)
(-0.0006563387 5.059538e-06 0)
(-0.0006555363 -3.695243e-07 0)
(-0.0006526192 -5.932391e-06 0)
(-0.0006475692 -1.158863e-05 0)
(-0.0006403825 -1.729554e-05 0)
(-0.0006310697 -2.300841e-05 0)
(-0.000619656 -2.868082e-05 0)
(-0.0006061816 -3.426511e-05 0)
(-0.0005907015 -3.971275e-05 0)
(-0.0005732857 -4.497488e-05 0)
(-0.0005540187 -5.000285e-05 0)
(-0.0005329996 -5.474877e-05 0)
(-0.0005103413 -5.916611e-05 0)
(-0.0004861702 -6.321036e-05 0)
(-0.0004606255 -6.683969e-05 0)
(-0.0004338583 -7.001558e-05 0)
(-0.0004060305 -7.270352e-05 0)
(-0.0003773141 -7.487364e-05 0)
(-0.0003478891 -7.650133e-05 0)
(-0.0003179429 -7.75678e-05 0)
(-0.0002876679 -7.806059e-05 0)
(-0.0002572603 -7.7974e-05 0)
(-0.0002269179 -7.730934e-05 0)
(-0.0001968383 -7.607523e-05 0)
(-0.0001672166 -7.428755e-05 0)
(-0.0001382434 -7.196944e-05 0)
(-0.0001101026 -6.915105e-05 0)
(-8.296928e-05 -6.586912e-05 0)
(-5.700765e-05 -6.216649e-05 0)
(-3.2369e-05 -5.809136e-05 0)
(-9.189956e-06 -5.369654e-05 0)
(1.240929e-05 -4.903852e-05 0)
(3.232611e-05 -4.417658e-05 0)
(5.047692e-05 -3.917122e-05 0)
(6.679782e-05 -3.408325e-05 0)
(8.124523e-05 -2.897272e-05 0)
(9.379602e-05 -2.389773e-05 0)
(0.0001044473 -1.891336e-05 0)
(0.0001132157 -1.407067e-05 0)
(0.0001201369 -9.415827e-06 0)
(0.0001252639 -4.989411e-06 0)
(0.0001286658 -8.258722e-07 0)
(0.0001304261 3.046773e-06 0)
(0.0001306404 6.607268e-06 0)
(0.0001294148 9.840813e-06 0)
(0.0001268634 1.27388e-05 0)
(0.0001231065 1.529819e-05 0)
(0.0001182686 1.752065e-05 0)
(0.0001124765 1.941148e-05 0)
(0.0001058583 2.097821e-05 0)
(9.854239e-05 2.2229e-05 0)
(9.065687e-05 2.317081e-05 0)
(8.232987e-05 2.380737e-05 0)
(7.36902e-05 2.413713e-05 0)
(6.486861e-05 2.415124e-05 0)
(5.599955e-05 2.383188e-05 0)
(4.722314e-05 2.31513e-05 0)
(3.868718e-05 2.207202e-05 0)
(3.054876e-05 2.054925e-05 0)
(2.297515e-05 1.853667e-05 0)
(1.61433e-05 1.599755e-05 0)
(1.023641e-05 1.292396e-05 0)
(5.443742e-06 9.366987e-06 0)
(2.00952e-06 5.485268e-06 0)
(1.489266e-07 1.63647e-06 0)
(1.239892e-07 -2.166476e-06 0)
(1.309915e-06 -5.59484e-06 0)
(3.231699e-06 -8.109802e-06 0)
(5.607296e-06 -9.743783e-06 0)
(8.164047e-06 -1.057031e-05 0)
(1.070166e-05 -1.068552e-05 0)
(1.305092e-05 -1.019452e-05 0)
(1.506814e-05 -9.202093e-06 0)
(1.663363e-05 -7.806652e-06 0)
(1.76495e-05 -6.096866e-06 0)
(1.803714e-05 -4.149954e-06 0)
(1.773479e-05 -2.031095e-06 0)
(1.669497e-05 2.064574e-07 0)
(1.488196e-05 2.520861e-06 0)
(1.22693e-05 4.880823e-06 0)
(8.837539e-06 7.264601e-06 0)
(4.572046e-06 9.658857e-06 0)
(-5.387872e-07 1.20574e-05 0)
(-6.505127e-06 1.445989e-05 0)
(-1.33369e-05 1.687044e-05 0)
(-2.104465e-05 1.929632e-05 0)
(-2.964006e-05 2.17466e-05 0)
(-3.913607e-05 2.423095e-05 0)
(-4.954678e-05 2.675851e-05 0)
(-6.088689e-05 2.933695e-05 0)
(-7.317108e-05 3.197168e-05 0)
(-8.64131e-05 3.466524e-05 0)
(-0.0001006247 3.741686e-05 0)
(-0.0001158146 4.022224e-05 0)
(-0.0001319872 4.307344e-05 0)
(-0.0001491417 4.59589e-05 0)
(-0.0001672707 4.886358e-05 0)
(-0.0001863596 5.176913e-05 0)
(-0.0002063852 5.465418e-05 0)
(-0.0002273155 5.749463e-05 0)
(-0.0002491087 6.026395e-05 0)
(-0.0002717127 6.293355e-05 0)
(-0.0002950652 6.547311e-05 0)
(-0.000319093 6.7851e-05 0)
(-0.0003437125 7.003461e-05 0)
(-0.0003688297 7.199087e-05 0)
(-0.0003943407 7.36866e-05 0)
(-0.0004201322 7.508901e-05 0)
(-0.000446082 7.616615e-05 0)
(-0.0004720605 7.688741e-05 0)
(-0.000497931 7.722395e-05 0)
(-0.0005235514 7.714918e-05 0)
(-0.0005487752 7.66392e-05 0)
(-0.0005734529 7.567319e-05 0)
(-0.0005974331 7.423382e-05 0)
(-0.0006205644 7.230752e-05 0)
(-0.0006426964 6.988485e-05 0)
(-0.0006636813 6.696066e-05 0)
(-0.0006833751 6.353432e-05 0)
(-0.0007016388 5.960983e-05 0)
(-0.0007183399 5.519593e-05 0)
(-0.0007333535 5.030613e-05 0)
(-0.0007465629 4.49587e-05 0)
(-0.000757861 3.917659e-05 0)
(-0.0007671512 3.298741e-05 0)
(-0.0007743476 2.642323e-05 0)
(-0.0007793762 1.952048e-05 0)
(-0.0007821753 1.231972e-05 0)
(-0.000782696 4.865416e-06 0)
(-0.0007809025 -2.794253e-06 0)
(-0.000776773 -1.060771e-05 0)
(-0.0007702992 -1.852033e-05 0)
(-0.000761487 -2.647497e-05 0)
(-0.0007503563 -3.441228e-05 0)
(-0.0007369415 -4.227107e-05 0)
(-0.0007212913 -4.998886e-05 0)
(-0.0007034688 -5.750237e-05 0)
(-0.0006835515 -6.474809e-05 0)
(-0.0006616308 -7.166297e-05 0)
(-0.0006378125 -7.818503e-05 0)
(-0.0006122156 -8.425414e-05 0)
(-0.0005849724 -8.981274e-05 0)
(-0.0005562281 -9.480667e-05 0)
(-0.0005261395 -9.918593e-05 0)
(-0.0004948748 -0.0001029055 0)
(-0.000462612 -0.0001059263 0)
(-0.0004295384 -0.0001082158 0)
(-0.0003958487 -0.0001097485 0)
(-0.000361744 -0.0001105072 0)
(-0.0003274299 -0.0001104832 0)
(-0.0002931147 -0.0001096766 0)
(-0.0002590076 -0.0001080967 0)
(-0.0002253166 -0.0001057626 0)
(-0.0001922465 -0.0001027023 0)
(-0.0001599965 -9.895333e-05 0)
(-0.0001287582 -9.456182e-05 0)
(-9.871346e-05 -8.958211e-05 0)
(-7.003212e-05 -8.40759e-05 0)
(-4.287012e-05 -7.811135e-05 0)
(-1.736763e-05 -7.176186e-05 0)
(6.352681e-06 -6.510492e-05 0)
(2.818686e-05 -5.822085e-05 0)
(4.805111e-05 -5.119094e-05 0)
(6.588246e-05 -4.409612e-05 0)
(8.16394e-05 -3.701551e-05 0)
(9.530197e-05 -3.002505e-05 0)
(0.0001068716 -2.31961e-05 0)
(0.0001163704 -1.659421e-05 0)
(0.0001238405 -1.02781e-05 0)
(0.0001293423 -4.298792e-06 0)
(0.0001329537 1.300891e-06 0)
(0.0001347673 6.486833e-06 0)
(0.0001348895 1.123348e-05 0)
(0.0001334376 1.552361e-05 0)
(0.000130538 1.934764e-05 0)
(0.0001263242 2.27026e-05 0)
(0.0001209348 2.559074e-05 0)
(0.0001145121 2.801785e-05 0)
(0.0001072006 2.999117e-05 0)
(9.914639e-05 3.151704e-05 0)
(9.049711e-05 3.259838e-05 0)
(8.140183e-05 3.323201e-05 0)
(7.201214e-05 3.340619e-05 0)
(6.248328e-05 3.30986e-05 0)
(5.297575e-05 3.227514e-05 0)
(4.3657e-05 3.089033e-05 0)
(3.470304e-05 2.889006e-05 0)
(2.630002e-05 2.621794e-05 0)
(1.864543e-05 2.28268e-05 0)
(1.194781e-05 1.869723e-05 0)
(6.433018e-06 1.386467e-05 0)
(2.412942e-06 8.458712e-06 0)
(1.867557e-07 2.770002e-06 0)
(1.252437e-07 -2.848944e-06 0)
(1.301206e-06 -7.190197e-06 0)
(3.176556e-06 -1.026277e-05 0)
(5.448265e-06 -1.217446e-05 0)
(7.827308e-06 -1.304931e-05 0)
(1.010317e-05 -1.302143e-05 0)
(1.21006e-05 -1.222682e-05 0)
(1.367211e-05 -1.079668e-05 0)
(1.46952e-05 -8.852658e-06 0)
(1.506916e-05 -6.503941e-06 0)
(1.471226e-05 -3.845694e-06 0)
(1.355903e-05 -9.584909e-07 0)
(1.155774e-05 2.091535e-06 0)
(8.667994e-06 5.252141e-06 0)
(4.858316e-06 8.483948e-06 0)
(1.040207e-07 1.17593e-05 0)
(-5.614775e-06 1.506088e-05 0)
(-1.231486e-05 1.838016e-05 0)
(-2.001132e-05 2.17158e-05 0)
(-2.871863e-05 2.507192e-05 0)
(-3.845137e-05 2.84564e-05 0)
(-4.922457e-05 3.187918e-05 0)
(-6.10537e-05 3.535074e-05 0)
(-7.395434e-05 3.888064e-05 0)
(-8.794155e-05 4.24763e-05 0)
(-0.000103029 4.614203e-05 0)
(-0.000119228 4.987818e-05 0)
(-0.0001365461 5.368072e-05 0)
(-0.0001549863 5.754085e-05 0)
(-0.0001745451 6.144496e-05 0)
(-0.0001952122 6.537466e-05 0)
(-0.0002169687 6.930704e-05 0)
(-0.0002397862 7.321492e-05 0)
(-0.0002636264 7.70673e-05 0)
(-0.00028844 8.082976e-05 0)
(-0.0003141663 8.446499e-05 0)
(-0.000340733 8.793328e-05 0)
(-0.0003680561 9.119311e-05 0)
(-0.00039604 9.420166e-05 0)
(-0.0004245778 9.691547e-05 0)
(-0.0004535522 9.929103e-05 0)
(-0.0004828356 0.0001012854 0)
(-0.0005122916 0.0001028568 0)
(-0.0005417761 0.0001039654 0)
(-0.0005711381 0.0001045738 0)
(-0.0006002215 0.0001046475 0)
(-0.0006288663 0.0001041557 0)
(-0.0006569105 0.0001030719 0)
(-0.0006841909 0.0001013739 0)
(-0.0007105456 9.904459e-05 0)
(-0.0007358145 9.607199e-05 0)
(-0.0007598415 9.244976e-05 0)
(-0.0007824755 8.817721e-05 0)
(-0.0008035716 8.325945e-05 0)
(-0.0008229924 7.770742e-05 0)
(-0.0008406089 7.153789e-05 0)
(-0.0008563014 6.477336e-05 0)
(-0.0008699604 5.7442e-05 0)
(-0.0008814868 4.95774e-05 0)
(-0.0008907931 4.121846e-05 0)
(-0.0008978033 3.240915e-05 0)
(-0.0009024536 2.31982e-05 0)
(-0.0009046923 1.363891e-05 0)
(-0.0009044806 3.788858e-06 0)
(-0.0009017923 -6.290397e-06 0)
(-0.0008966145 -1.653369e-05 0)
(-0.0008889467 -2.687279e-05 0)
(-0.000878802 -3.723679e-05 0)
(-0.0008662062 -4.755245e-05 0)
(-0.0008511988 -5.774467e-05 0)
(-0.0008338324 -6.773697e-05 0)
(-0.000814173 -7.745215e-05 0)
(-0.0007923002 -8.681285e-05 0)
(-0.0007683069 -9.574226e-05 0)
(-0.0007422991 -0.0001041649 0)
(-0.0007143962 -0.0001120075 0)
(-0.0006847305 -0.0001191996 0)
(-0.0006534468 -0.0001256749 0)
(-0.0006207019 -0.0001313717 0)
(-0.0005866642 -0.0001362342 0)
(-0.0005515127 -0.0001402136 0)
(-0.0005154362 -0.0001432684 0)
(-0.0004786321 -0.0001453662 0)
(-0.0004413051 -0.0001464836 0)
(-0.0004036657 -0.0001466076 0)
(-0.0003659287 -0.000145736 0)
(-0.0003283109 -0.0001438775 0)
(-0.0002910299 -0.0001410528 0)
(-0.0002543013 -0.0001372935 0)
(-0.0002183367 -0.0001326429 0)
(-0.0001833419 -0.0001271554 0)
(-0.0001495139 -0.0001208955 0)
(-0.0001170392 -0.0001139373 0)
(-8.609176e-05 -0.0001063633 0)
(-5.683033e-05 -9.826328e-05 0)
(-2.939717e-05 -8.973256e-05 0)
(-3.916127e-06 -8.087066e-05 0)
(1.950879e-05 -7.177947e-05 0)
(4.079449e-05 -6.25615e-05 0)
(5.987978e-05 -5.331775e-05 0)
(7.672577e-05 -4.414612e-05 0)
(9.131609e-05 -3.513977e-05 0)
(0.0001036566 -2.638547e-05 0)
(0.0001137747 -1.796225e-05 0)
(0.0001217187 -9.940145e-06 0)
(0.000127556 -2.379412e-06 0)
(0.0001313722 4.670015e-06 0)
(0.0001332685 1.116896e-05 0)
(0.0001333608 1.708855e-05 0)
(0.0001317765 2.240965e-05 0)
(0.0001286535 2.712177e-05 0)
(0.0001241371 3.122146e-05 0)
(0.0001183794 3.471031e-05 0)
(0.0001115367 3.759252e-05 0)
(0.0001037694 3.98721e-05 0)
(9.524068e-05 4.154982e-05 0)
(8.611655e-05 4.262007e-05 0)
(7.656625e-05 4.306789e-05 0)
(6.676295e-05 4.286651e-05 0)
(5.688496e-05 4.197596e-05 0)
(4.711728e-05 4.034321e-05 0)
(3.765338e-05 3.790482e-05 0)
(2.869767e-05 3.459301e-05 0)
(2.04684e-05 3.034615e-05 0)
(1.320019e-05 2.512496e-05 0)
(7.154877e-06 1.893468e-05 0)
(2.703273e-06 1.185436e-05 0)
(2.124512e-07 4.082232e-06 0)
(1.212007e-07 -3.509847e-06 0)
(1.226709e-06 -8.712871e-06 0)
(2.95201e-06 -1.227809e-05 0)
(4.985144e-06 -1.438895e-05 0)
(7.03082e-06 -1.522393e-05 0)
(8.873871e-06 -1.495896e-05 0)
(1.033694e-05 -1.376359e-05 0)
(1.127197e-05 -1.179679e-05 0)
(1.155631e-05 -9.20376e-06 0)
(1.108887e-05 -6.113909e-06 0)
(9.786761e-06 -2.639708e-06 0)
(7.582498e-06 1.123599e-06 0)
(4.421465e-06 5.097752e-06 0)
(2.595195e-07 9.220629e-06 0)
(-4.939154e-06 1.34452e-05 0)
(-1.120402e-05 1.773813e-05 0)
(-1.855996e-05 2.207819e-05 0)
(-2.702873e-05 2.645441e-05 0)
(-3.66302e-05 3.086414e-05 0)
(-4.738319e-05 3.531099e-05 0)
(-5.930597e-05 3.980278e-05 0)
(-7.241637e-05 4.434947e-05 0)
(-8.673161e-05 4.896129e-05 0)
(-0.0001022677 5.364697e-05 0)
(-0.0001190388 5.84123e-05 0)
(-0.0001370557 6.325886e-05 0)
(-0.0001563254 6.818314e-05 0)
(-0.0001768491 7.317597e-05 0)
(-0.0001986213 7.822214e-05 0)
(-0.0002216282 8.330037e-05 0)
(-0.0002458469 8.838346e-05 0)
(-0.000271244 9.343862e-05 0)
(-0.000297775 9.842797e-05 0)
(-0.0003253832 0.0001033091 0)
(-0.0003539998 0.0001080355 0)
(-0.000383543 0.0001125579 0)
(-0.0004139185 0.0001168243 0)
(-0.0004450197 0.000120781 0)
(-0.0004767279 0.0001243735 0)
(-0.0005089134 0.0001275475 0)
(-0.0005414361 0.0001302491 0)
(-0.000574147 0.0001324265 0)
(-0.0006068895 0.0001340298 0)
(-0.0006395005 0.0001350128 0)
(-0.0006718124 0.0001353328 0)
(-0.0007036548 0.0001349521 0)
(-0.0007348557 0.000133838 0)
(-0.0007652436 0.0001319636 0)
(-0.0007946489 0.0001293081 0)
(-0.0008229056 0.0001258572 0)