/*--------------------------------*- C++ -*----------------------------------*\
  =========                 |
  \\      /  F ield         | OpenFOAM: The Open Source CFD Toolbox
   \\    /   O peration     | Website:  https://openfoam.org
    \\  /    A nd           | Version:  11
     \\/     M anipulation  |
\*---------------------------------------------------------------------------*/
FoamFile
{
    format      ascii;
    class       volScalarField;
    location    "5";
    object      Ccx;
}
// * * * * * * * * * * * * * * * * * * * * * * * * * * * * * * * * * * * * * //

dimensions      [0 1 0 0 0 0 0];

internalField   nonuniform List<scalar> 
9600
(
-3.2950632
-3.0475548
-2.8000464
-2.552538
-2.3050296
-2.0575212
-1.8100127
-1.5625043
-1.3149959
-1.0674875
-0.81997908
-0.57247066
-0.32496224
-0.077453825
0.17005459
0.41756301
0.66507143
0.91257985
1.1600883
1.4075967
1.6551051
1.9026135
2.1501219
2.3976304
2.6451388
2.8926472
3.1401556
3.387664
3.6351724
3.8826809
4.1301893
4.3776977
4.6252061
4.8727145
5.120223
5.3677314
5.6152398
5.8627482
6.1102566
6.357765
-3.1975666
-2.955058
-2.7125494
-2.4700409
-2.2275323
-1.9850237
-1.7425151
-1.5000065
-1.2574979
-1.0149893
-0.77248073
-0.52997213
-0.28746354
-0.044954953
0.19755364
0.44006223
0.68257082
0.92507942
1.167588
1.4100966
1.6526052
1.8951138
2.1376224
2.380131
2.6226396
2.8651482
3.1076567
3.3501653
3.5926739
3.8351825
4.0776911
4.3201997
4.5627083
4.8052169
5.0477255
5.2902341
5.5327427
5.7752512
6.0177598
6.2602684
-3.1000702
-2.8625614
-2.6250526
-2.3875438
-2.1500351
-1.9125263
-1.6750175
-1.4375087
-1.2
-0.96249121
-0.72498244
-0.48747367
-0.2499649
-0.012456128
0.22505264
0.46256142
0.70007019
0.93757897
1.1750877
1.4125965
1.6501053
1.8876141
2.1251228
2.3626316
2.6001404
2.8376491
3.0751579
3.3126667
3.5501755
3.7876842
4.025193
4.2627018
4.5002105
4.7377193
4.9752281
5.2127369
5.4502456
5.6877544
5.9252632
6.162772
-3.0025738
-2.7700649
-2.5375559
-2.3050469
-2.072538
-1.840029
-1.6075201
-1.3750111
-1.1425021
-0.90999319
-0.67748424
-0.44497527
-0.21246632
0.020042646
0.25255161
0.48506057
0.71756953
0.95007849
1.1825875
1.4150964
1.6476054
1.8801143
2.1126233
2.3451323
2.5776412
2.8101502
3.0426591
3.2751681
3.5076771
3.740186
3.972695
4.2052039
4.4377129
4.6702219
4.9027308
5.1352398
5.3677487
5.6002577
5.8327667
6.0652756
-2.9050777
-2.6775685
-2.4500594
-2.2225502
-1.995041
-1.7675319
-1.5400227
-1.3125136
-1.0850044
-0.85749526
-0.62998611
-0.40247695
-0.17496779
0.052541365
0.28005052
0.50755968
0.73506884
0.962578
1.1900872
1.4175963
1.6451055
1.8726146
2.1001238
2.327633
2.5551421
2.7826513
3.0101604
3.2376696
3.4651787
3.6926879
3.9201971
4.1477062
4.3752154
4.6027245
4.8302337
5.0577428
5.285252
5.5127612
5.7402703
5.9677795
-2.8075817
-2.5850723
-2.362563
-2.1400536
-1.9175442
-1.6950349
-1.4725255
-1.2500161
-1.0275068
-0.80499742
-0.58248806
-0.3599787
-0.13746934
0.085040027
0.30754939
0.53005876
0.75256812
0.97507749
1.1975869
1.4200962
1.6426056
1.8651149
2.0876243
2.3101337
2.532643
2.7551524
2.9776618
3.2001711
3.4226805
3.6451899
3.8676992
4.0902086
4.3127179
4.5352273
4.7577367
4.980246
5.2027554
5.4252648
5.6477741
5.8702835
-2.7100859
-2.4925763
-2.2750667
-2.0575571
-1.8400476
-1.622538
-1.4050284
-1.1875188
-0.97000926
-0.75249968
-0.53499011
-0.31748053
-0.099970951
0.11753863
0.33504821
0.55255779
0.77006737
0.98757695
1.2050865
1.4225961
1.6401057
1.8576153
2.0751248
2.2926344
2.510144
2.7276536
2.9451632
3.1626727
3.3801823
3.5976919
3.8152015
4.0327111
4.2502206
4.4677302
4.6852398
4.9027494
5.1202589
5.3377685
5.5552781
5.7727877
-2.6125903
-2.4000805
-2.1875707
-1.9750609
-1.7625511
-1.5500413
-1.3375315
-1.1250217
-0.91251185
-0.70000205
-0.48749225
-0.27498244
-0.062472641
0.15003716
0.36254697
0.57505677
0.78756658
1.0000764
1.2125862
1.425096
1.6376058
1.8501156
2.0626254
2.2751352
2.487645
2.7001548
2.9126646
3.1251744
3.3376842
3.550194
3.7627038
3.9752136
4.1877234
4.4002333
4.6127431
4.8252529
5.0377627
5.2502725
5.4627823
5.6752921
-2.5150949
-2.3075848
-2.1000748
-1.8925648
-1.6850547
-1.4775447
-1.2700346
-1.0625246
-0.85501457
-0.64750453
-0.43999449
-0.23248445
-0.024974413
0.18253563
0.39004567
0.59755571
0.80506575
1.0125758
1.2200858
1.4275959
1.6351059
1.842616
2.050126
2.257636
2.4651461
2.6726561
2.8801662
3.0876762
3.2951862
3.5026963
3.7102063
3.9177164
4.1252264
4.3327364
4.5402465
4.7477565
4.9552666
5.1627766
5.3702866
5.5777967
-2.4175997
-2.2150894
-2.0125791
-1.8100689
-1.6075586
-1.4050483
-1.202538
-1.0000277
-0.79751742
-0.59500713
-0.39249685
-0.18998656
0.012523728
0.21503402
0.41754431
0.62005459
0.82256488
1.0250752
1.2275855
1.4300958
1.632606
1.8351163
2.0376266
2.2401369
2.4426472
2.6451575
2.8476678
3.0501781
3.2526883
3.4551986
3.6577089
3.8602192
4.0627295
4.2652398
4.4677501
4.6702604
4.8727707
5.0752809
5.2777912
5.4803015
-2.3201048
-2.1225942
-1.9250837
-1.7275732
-1.5300626
-1.3325521
-1.1350415
-0.93753096
-0.74002042
-0.54250987
-0.34499932
-0.14748877
0.050021775
0.24753232
0.44504287
0.64255342
0.84006397
1.0375745
1.2350851
1.4325956
1.6301062
1.8276167
2.0251273
2.2226378
2.4201484
2.6176589
2.8151695
3.01268
3.2101906
3.4077011
3.6052117
3.8027222
4.0002328
4.1977433
4.3952539
4.5927644
4.790275
4.9877855
5.185296
5.3828066
-2.2226101
-2.0300993
-1.8375885
-1.6450777
-1.4525668
-1.260056
-1.0675452
-0.87503439
-0.68252357
-0.49001275
-0.29750192
-0.1049911
0.08751972
0.28003054
0.47254137
0.66505219
0.85756301
1.0500738
1.2425847
1.4350955
1.6276063
1.8201171
2.012628
2.2051388
2.3976496
2.5901604
2.7826712
2.9751821
3.1676929
3.3602037
3.5527145
3.7452254
3.9377362
4.130247
4.3227578
4.5152686
4.7077795
4.9002903
5.0928011
5.2853119
-2.1251158
-1.9376047
-1.7500935
-1.5625824
-1.3750713
-1.1875602
-1.0000491
-0.812538
-0.62502689
-0.43751578
-0.25000467
-0.062493556
0.12501756
0.31252867
0.50003978
0.68755089
0.875062
1.0625731
1.2500842
1.4375953
1.6251065
1.8126176
2.0001287
2.1876398
2.3751509
2.562662
2.7501731
2.9376842
3.1251953
3.3127065
3.5002176
3.6877287
3.8752398
4.0627509
4.250262
4.4377731
4.6252842
4.8127953
5.0003065
5.1878176
-2.0276217
-1.8451103
-1.6625989
-1.4800875
-1.297576
-1.1150646
-0.93255322
-0.7500418
-0.56753039
-0.38501897
-0.20250756
-0.019996144
0.16251527
0.34502669
0.5275381
0.71004952
0.89256094
1.0750724
1.2575838
1.4400952
1.6226066
1.805118
1.9876294
2.1701409
2.3526523
2.5351637
2.7176751
2.9001865
3.0826979
3.2652093
3.4477208
3.6302322
3.8127436
3.995255
4.1777664
4.3602778
4.5427893
4.7253007
4.9078121
5.0903235
-1.930128
-1.7526162
-1.5751045
-1.3975928
-1.220081
-1.0425693
-0.86505756
-0.68754582
-0.51003409
-0.33252235
-0.15501061
0.022501123
0.20001286
0.3775246
0.55503634
0.73254807
0.91005981
1.0875716
1.2650833
1.442595
1.6201068
1.7976185
1.9751302
2.152642
2.3301537
2.5076655
2.6851772
2.8626889
3.0402007
3.2177124
3.3952241
3.5727359
3.7502476
3.9277594
4.1052711
4.2827828
4.4602946
4.6378063
4.815318
4.9928298
-1.8326346
-1.6601225
-1.4876105
-1.3150984
-1.1425863
-0.97007423
-0.79756215
-0.62505008
-0.452538
-0.28002592
-0.10751385
0.064998232
0.23751031
0.41002239
0.58253446
0.75504654
0.92755862
1.1000707
1.2725828
1.4450949
1.6176069
1.790119
1.9626311
2.1351432
2.3076552
2.4801673
2.6526794
2.8251915
2.9977036
3.1702156
3.3427277
3.5152398
3.6877519
3.8602639
4.032776
4.2052881
4.3778002
4.5503123
4.7228243
4.8953364
-1.7351416
-1.5676292
-1.4001168
-1.2326043
-1.0650919
-0.89757946
-0.73006702
-0.56255458
-0.39504214
-0.22752971
-0.060017271
0.10749517
0.27500761
0.44252004
0.61003248
0.77754492
0.94505736
1.1125698
1.2800822
1.4475947
1.6151071
1.7826196
1.950132
2.1176444
2.2851569
2.4526693
2.6201817
2.7876942
2.9552066
3.1227191
3.2902315
3.4577439
3.6252564
3.7927688
3.9602812
4.1277937
4.2953061
4.4628186
4.630331
4.7978434
-1.6376491
-1.4751363
-1.3126235
-1.1501106
-0.98759782
-0.82508501
-0.66257219
-0.50005937
-0.33754655
-0.17503373
-0.012520907
0.14999191
0.31250474
0.47501756
0.63753038
0.8000432
0.96255602
1.1250688
1.2875817
1.4500945
1.6126073
1.7751201
1.937633
2.1001458
2.2626586
2.4251714
2.5876842
2.7501971
2.9127099
3.0752227
3.2377355
3.4002483
3.5627612
3.725274
3.8877868
4.0502996
4.2128124
4.3753253
4.5378381
4.7003509
-1.540157
-1.3826438
-1.2251306
-1.0676174
-0.91010413
-0.75259091
-0.59507768
-0.43756445
-0.28005123
-0.122538
0.034975226
0.19248846
0.35000168
0.50751491
0.66502814
0.82254137
0.9800546
1.1375678
1.2950811
1.4525943
1.6101075
1.7676207
1.925134
2.0826472
2.2401604
2.3976737
2.5551869
2.7127001
2.8702133
3.0277266
3.1852398
3.342753
3.5002662
3.6577795
3.8152927
3.9728059
4.1303192
4.2878324
4.4453456
4.6028588
-1.4426655
-1.2901518
-1.1376382
-0.98512451
-0.83261086
-0.6800972
-0.52758354
-0.37506988
-0.22255621
-0.070042554
0.082471107
0.23498477
0.38749843
0.54001209
0.69252575
0.84503941
0.99755308
1.1500667
1.3025804
1.4550941
1.6076077
1.7601214
1.9126351
2.0651487
2.2176624
2.370176
2.5226897
2.6752034
2.827717
2.9802307
3.1327443
3.285258
3.4377717
3.5902853
3.742799
3.8953126
4.0478263
4.20034
4.3528536
4.5053673
-1.3451745
-1.1976604
-1.0501463
-0.90263216
-0.75511804
-0.60760391
-0.46008979
-0.31257566
-0.16506154
-0.017547417
0.12996671
0.27748083
0.42499496
0.57250908
0.72002321
0.86753733
1.0150515
1.1625656
1.3100797
1.4575938
1.605108
1.7526221
1.9001362
2.0476503
2.1951645
2.3426786
2.4901927
2.6377068
2.785221
2.9327351
3.0802492
3.2277633
3.3752775
3.5227916
3.6703057
3.8178198
3.965334
4.1128481
4.2603622
4.4078763
-1.2476842
-1.1051696
-0.96265495
-0.82014034
-0.67762572
-0.5351111
-0.39259648
-0.25008186
-0.10756724
0.034947379
0.177462
0.31997662
0.46249124
0.60500586
0.74752048
0.8900351
1.0325497
1.1750644
1.317579
1.4600936
1.6026082
1.7451228
1.8876374
2.0301521
2.1726667
2.3151813
2.4576959
2.6002105
2.7427252
2.8852398
3.0277544
3.170269
3.3127836
3.4552983
3.5978129
3.7403275
3.8828421
4.0253567
4.1678714
4.310386
-1.1501946
-1.0126794
-0.87516426
-0.73764911
-0.60013396
-0.46261881
-0.32510366
-0.1875885
-0.050073355
0.087441798
0.22495695
0.3624721
0.49998725
0.63750241
0.77501756
0.91253271
1.0500479
1.187563
1.3250782
1.4625933
1.6001085
1.7376236
1.8751388
2.0126539
2.1501691
2.2876842
2.4251994
2.5627145
2.7002297
2.8377448
2.97526
3.1127751
3.2502903
3.3878054
3.5253206
3.6628357
3.8003509
3.9378661
4.0753812
4.2128964
-1.0527057
-0.92018999
-0.78767427
-0.65515854
-0.52264282
-0.3901271
-0.25761137
-0.12509565
0.0074200702
0.13993579
0.27245152
0.40496724
0.53748297
0.66999869
0.80251441
0.93503014
1.0675459
1.2000616
1.3325773
1.465093
1.5976088
1.7301245
1.8626402
1.9951559
2.1276717
2.2601874
2.3927031
2.5252188
2.6577345
2.7902503
2.922766
3.0552817
3.1877974
3.3203132
3.4528289
3.5853446
3.7178603
3.8503761
3.9828918
4.1154075
-0.95521773
-0.8277014
-0.70018506
-0.57266872
-0.44515238
-0.31763604
-0.1901197
-0.06260336
0.06491298
0.19242932
0.31994566
0.447462
0.57497834
0.70249468
0.83001102
0.95752737
1.0850437
1.2125601
1.3400764
1.4675927
1.5951091
1.7226254
1.8501417
1.9776581
2.1051744
2.2326908
2.3602071
2.4877234
2.6152398
2.7427561
2.8702725
2.9977888
3.1253051
3.2528215
3.3803378
3.5078542
3.6353705
3.7628868
3.8904032
4.0179195
-0.85773074
-0.73521374
-0.61269673
-0.49017972
-0.36766272
-0.24514571
-0.1226287
-0.00011169803
0.12240531
0.24492232
0.36743933
0.48995633
0.61247334
0.73499035
0.85750735
0.98002436
1.1025414
1.2250584
1.3475754
1.4700924
1.5926094
1.7151264
1.8376434
1.9601604
2.0826774
2.2051944
2.3277114
2.4502285
2.5727455
2.6952625
2.8177795
2.9402965
3.0628135
3.1853305
3.3078475
3.4303645
3.5528815
3.6753985
3.7979155
3.9204325
-0.76024485
-0.64272712
-0.52520939
-0.40769166
-0.29017393
-0.1726562
-0.055138474
0.062379257
0.17989699
0.29741472
0.41493245
0.53245018
0.64996791
0.76748564
0.88500337
1.0025211
1.1200388
1.2375566
1.3550743
1.472592
1.5901098
1.7076275
1.8251452
1.942663
2.0601807
2.1776984
2.2952161
2.4127339
2.5302516
2.6477693
2.7652871
2.8828048
3.0003225
3.1178403
3.235358
3.3528757
3.4703935
3.5879112
3.7054289
3.8229466
-0.66276022
-0.5502417
-0.43772318
-0.32520467
-0.21268615
-0.10016763
0.012350888
0.12486941
0.23738793
0.34990645
0.46242496
0.57494348
0.687462
0.79998052
0.91249904
1.0250176
1.1375361
1.2500546
1.3625731
1.4750916
1.5876102
1.7001287
1.8126472
1.9251657
2.0376842
2.1502028
2.2627213
2.3752398
2.4877583
2.6002768
2.7127953
2.8253139
2.9378324
3.0503509
3.1628694
3.2753879
3.3879065
3.500425
3.6129435
3.725462
-0.56527702
-0.45775764
-0.35023826
-0.24271888
-0.1351995
-0.02768012
0.079839261
0.18735864
0.29487802
0.4023974
0.50991678
0.61743616
0.72495554
0.83247492
0.9399943
1.0475137
1.1550331
1.2625525
1.3700718
1.4775912
1.5851106
1.69263
1.8001493
1.9076687
2.0151881
2.1227075
2.2302269
2.3377462
2.4452656
2.552785
2.6603044
2.7678238
2.8753431
2.9828625
3.0903819
3.1979013
3.3054207
3.41294
3.5204594
3.6279788
-0.46779545
-0.36527513
-0.2627548
-0.16023448
-0.057714153
0.044806172
0.1473265
0.24984682
0.35236715
0.45488748
0.5574078
0.65992813
0.76244845
0.86496878
0.96748911
1.0700094
1.1725298
1.2750501
1.3775704
1.4800907
1.5826111
1.6851314
1.7876517
1.890172
1.9926924
2.0952127
2.197733
2.3002533
2.4027737
2.505294
2.6078143
2.7103346
2.812855
2.9153753
3.0178956
3.1204159
3.2229363
3.3254566
3.4279769
3.5304972
-0.37031578
-0.27279441
-0.17527304
-0.077751676
0.019769691
0.11729106
0.21481243
0.3123338
0.40985516
0.50737653
0.6048979
0.70241927
0.79994063
0.897462
0.99498337
1.0925047
1.1900261
1.2875475
1.3850688
1.4825902
1.5801116
1.677633
1.7751543
1.8726757
1.9701971
2.0677184
2.1652398
2.2627612
2.3602825
2.4578039
2.5553253
2.6528466
2.750368
2.8478894
2.9454107
3.0429321
3.1404535
3.2379748
3.3354962
3.4330176
-0.2728383
-0.18031578
-0.087793256
0.0047292654
0.097251789
0.18977431
0.28229684
0.37481936
0.46734188
0.5598644
0.65238693
0.74490945
0.83743197
0.92995449
1.022477
1.1149995
1.2075221
1.3000446
1.3925671
1.4850896
1.5776122
1.6701347
1.7626572
1.8551797
1.9477023
2.0402248
2.1327473
2.2252698
2.3177923
2.4103149
2.5028374
2.5953599
2.6878824
2.780405
2.8729275
2.96545
3.0579725
3.150495
3.2430176
3.3355401
-0.1753634
-0.087839588
-0.00031577963
0.087208031
0.17473184
0.26225565
0.34977946
0.43730327
0.52482708
0.61235089
0.6998747
0.78739851
0.87492232
0.96244613
1.0499699
1.1374938
1.2250176
1.3125414
1.4000652
1.487589
1.5751128
1.6626366
1.7501604
1.8376842
1.925208
2.0127319
2.1002557
2.1877795
2.2753033
2.3628271
2.4503509
2.5378747
2.6253985
2.7129223
2.8004461
2.8879699
2.9754938
3.0630176
3.1505414
3.2380652
-0.077891536
0.0046337153
0.087158969
0.16968422
0.25220948
0.33473473
0.41725998
0.49978523
0.58231049
0.66483574
0.74736099
0.82988624
0.9124115
0.99493675
1.077462
1.1599873
1.2425125
1.3250378
1.407563
1.4900883
1.5726135
1.6551388
1.737664
1.8201893
1.9027145
1.9852398
2.067765
2.1502903
2.2328155
2.3153408
2.3978661
2.4803913
2.5629166
2.6454418
2.7279671
2.8104923
2.8930176
2.9755428
3.0580681
3.1405933
0.019576695
0.097103577
0.17463046
0.25215734
0.32968422
0.40721111
0.48473799
0.56226487
0.63979175
0.71731863
0.79484551
0.8723724
0.94989928
1.0274262
1.1049531
1.1824799
1.2600068
1.3375337
1.4150606
1.4925875
1.5701143
1.6476412
1.7251681
1.802695
1.8802219
1.9577487
2.0352756
2.1128025
2.1903294
2.2678563
2.3453832
2.42291
2.5004369
2.5779638
2.6554907
2.7330176
2.8105444
2.8880713
2.9655982
3.0431251
0.11704054
0.18956928
0.26209802
0.33462675
0.40715549
0.47968422
0.55221296
0.62474169
0.69727043
0.76979917
0.8423279
0.91485664
0.98738538
1.0599141
1.1324429
1.2049716
1.2775003
1.3500291
1.4225578
1.4950865
1.5676153
1.640144
1.7126727
1.7852015
1.8577302
1.9302589
2.0027877
2.0753164
2.1478452
2.2203739
2.2929026
2.3654314
2.4379601
2.5104888
2.5830176
2.6555463
2.728075
2.8006038
2.8731325
2.9456612
0.21449904
0.2820299
0.34956077
0.41709163
0.48462249
0.55215336
0.61968422
0.68721509
0.75474595
0.82227682
0.88980768
0.95733855
1.0248694
1.0924003
1.1599311
1.227462
1.2949929
1.3625237
1.4300546
1.4975855
1.5651163
1.6326472
1.7001781
1.7677089
1.8352398
1.9027707
1.9703015
2.0378324
2.1053632
2.1728941
2.240425
2.3079558
2.3754867
2.4430176
2.5105484
2.5780793
2.6456102
2.713141
2.7806719
2.8482028
0.31195089
0.37448422
0.43701756
0.49955089
0.56208422
0.62461756
0.68715089
0.74968422
0.81221756
0.87475089
0.93728422
0.99981756
1.0623509
1.1248842
1.1874176
1.2499509
1.3124842
1.3750176
1.4375509
1.5000842
1.5626176
1.6251509
1.6876842
1.7502176
1.8127509
1.8752842
1.9378176
2.0003509
2.0628842
2.1254176
2.1879509
2.2504842
2.3130176
2.3755509
2.4380842
2.5006176
2.5631509
2.6256842
2.6882176
2.7507509
0.40939437
0.4669306
0.52446683
0.58200306
0.6395393
0.69707553
0.75461176
0.81214799
0.86968422
0.92722046
0.98475669
1.0422929
1.0998292
1.1573654
1.2149016
1.2724379
1.3299741
1.3875103
1.4450466
1.5025828
1.560119
1.6176552
1.6751915
1.7327277
1.7902639
1.8478002
1.9053364
1.9628726
2.0204089
2.0779451
2.1354813
2.1930176
2.2505538
2.30809
2.3656263
2.4231625
2.4806987
2.538235
2.5957712
2.6533074
0.50682708
0.55936676
0.61190645
0.66444613
0.71698581
0.76952549
0.82206518
0.87460486
0.92714454
0.97968423
1.0322239
1.0847636
1.1373033
1.189843
1.2423826
1.2949223
1.347462
1.4000017
1.4525414
1.5050811
1.5576207
1.6101604
1.6627001
1.7152398
1.7677795
1.8203192
1.8728588
1.9253985
1.9779382
2.0304779
2.0830176
2.1355572
2.1880969
2.2406366
2.2931763
2.345716
2.3982557
2.4507953
2.503335
2.5558747
6.4815476
6.4815476
6.4815476
6.4815476
6.4815476
6.4815476
6.4815476
6.4815476
6.4815476
6.4815476
6.4815476
6.4815476
6.4815476
6.4815476
6.4815476
6.4815476
6.4815476
6.4815476
6.4815476
6.4815476
6.4815476
6.4815476
6.4815476
6.4815476
6.4815476
6.4815476
6.4815476
6.4815476
6.4815476
6.4815476
6.4815476
6.4815476
6.4815476
6.4815476
6.4815476
6.4815476
6.4815476
6.4815476
6.4815476
6.4815476
6.3815524
6.3815524
6.3815524
6.3815524
6.3815524
6.3815524
6.3815524
6.3815524
6.3815524
6.3815524
6.3815524
6.3815524
6.3815524
6.3815524
6.3815524
6.3815524
6.3815524
6.3815524
6.3815524
6.3815524
6.3815524
6.3815524
6.3815524
6.3815524
6.3815524
6.3815524
6.3815524
6.3815524
6.3815524
6.3815524
6.3815524
6.3815524
6.3815524
6.3815524
6.3815524
6.3815524
6.3815524
6.3815524
6.3815524
6.3815524
6.2815574
6.2815574
6.2815574
6.2815574
6.2815574
6.2815574
6.2815574
6.2815574
6.2815574
6.2815574
6.2815574
6.2815574
6.2815574
6.2815574
6.2815574
6.2815574
6.2815574
6.2815574
6.2815574
6.2815574
6.2815574
6.2815574
6.2815574
6.2815574
6.2815574
6.2815574
6.2815574
6.2815574
6.2815574
6.2815574
6.2815574
6.2815574
6.2815574
6.2815574
6.2815574
6.2815574
6.2815574
6.2815574
6.2815574
6.2815574
6.1815626
6.1815626
6.1815626
6.1815626
6.1815626
6.1815626
6.1815626
6.1815626
6.1815626
6.1815626
6.1815626
6.1815626
6.1815626
6.1815626
6.1815626
6.1815626
6.1815626
6.1815626
6.1815626
6.1815626
6.1815626
6.1815626
6.1815626
6.1815626
6.1815626
6.1815626
6.1815626
6.1815626
6.1815626
6.1815626
6.1815626
6.1815626
6.1815626
6.1815626
6.1815626
6.1815626
6.1815626
6.1815626
6.1815626
6.1815626
6.0815682
6.0815682
6.0815682
6.0815682
6.0815682
6.0815682
6.0815682
6.0815682
6.0815682
6.0815682
6.0815682
6.0815682
6.0815682
6.0815682
6.0815682
6.0815682
6.0815682
6.0815682
6.0815682
6.0815682
6.0815682
6.0815682
6.0815682
6.0815682
6.0815682
6.0815682
6.0815682
6.0815682
6.0815682
6.0815682
6.0815682
6.0815682
6.0815682
6.0815682
6.0815682
6.0815682
6.0815682
6.0815682
6.0815682
6.0815682
5.981574
5.981574
5.981574
5.981574
5.981574
5.981574
5.981574
5.981574
5.981574
5.981574
5.981574
5.981574
5.981574
5.981574
5.981574
5.981574
5.981574
5.981574
5.981574
5.981574
5.981574
5.981574
5.981574
5.981574
5.981574
5.981574
5.981574
5.981574
5.981574
5.981574
5.981574
5.981574
5.981574
5.981574
5.981574
5.981574
5.981574
5.981574
5.981574
5.981574
5.8815801
5.8815801
5.8815801
5.8815801
5.8815801
5.8815801
5.8815801
5.8815801
5.8815801
5.8815801
5.8815801
5.8815801
5.8815801
5.8815801
5.8815801
5.8815801
5.8815801
5.8815801
5.8815801
5.8815801
5.8815801
5.8815801
5.8815801
5.8815801
5.8815801
5.8815801
5.8815801
5.8815801
5.8815801
5.8815801
5.8815801
5.8815801
5.8815801
5.8815801
5.8815801
5.8815801
5.8815801
5.8815801
5.8815801
5.8815801
5.7815866
5.7815866
5.7815866
5.7815866
5.7815866
5.7815866
5.7815866
5.7815866
5.7815866
5.7815866
5.7815866
5.7815866
5.7815866
5.7815866
5.7815866
5.7815866
5.7815866
5.7815866
5.7815866
5.7815866
5.7815866
5.7815866
5.7815866
5.7815866
5.7815866
5.7815866
5.7815866
5.7815866
5.7815866
5.7815866
5.7815866
5.7815866
5.7815866
5.7815866
5.7815866
5.7815866
5.7815866
5.7815866
5.7815866
5.7815866
5.6815935
5.6815935
5.6815935
5.6815935
5.6815935
5.6815935
5.6815935
5.6815935
5.6815935
5.6815935
5.6815935
5.6815935
5.6815935
5.6815935
5.6815935
5.6815935
5.6815935
5.6815935
5.6815935
5.6815935
5.6815934
5.6815934
5.6815935
5.6815935
5.6815935
5.6815935
5.6815935
5.6815935
5.6815935
5.6815935
5.6815935
5.6815935
5.6815935
5.6815935
5.6815935
5.6815935
5.6815935
5.6815935
5.6815935
5.6815935
5.5816007
5.5816007
5.5816007
5.5816007
5.5816007
5.5816007
5.5816007
5.5816007
5.5816007
5.5816007
5.5816007
5.5816007
5.5816007
5.5816007
5.5816007
5.5816007
5.5816007
5.5816007
5.5816007
5.5816007
5.5816007
5.5816007
5.5816007
5.5816007
5.5816007
5.5816007
5.5816007
5.5816007
5.5816007
5.5816007
5.5816007
5.5816007
5.5816007
5.5816007
5.5816007
5.5816007
5.5816007
5.5816007
5.5816007
5.5816007
5.4816084
5.4816084
5.4816084
5.4816084
5.4816084
5.4816084
5.4816084
5.4816084
5.4816084
5.4816084
5.4816084
5.4816084
5.4816084
5.4816084
5.4816084
5.4816084
5.4816084
5.4816084
5.4816084
5.4816084
5.4816084
5.4816084
5.4816084
5.4816084
5.4816084
5.4816084
5.4816084
5.4816084
5.4816084
5.4816084
5.4816084
5.4816084
5.4816084
5.4816084
5.4816084
5.4816084
5.4816084
5.4816084
5.4816084
5.4816084
5.3816167
5.3816167
5.3816167
5.3816167
5.3816167
5.3816167
5.3816167
5.3816167
5.3816167
5.3816167
5.3816167
5.3816167
5.3816167
5.3816167
5.3816167
5.3816167
5.3816167
5.3816167
5.3816167
5.3816167
5.3816167
5.3816167
5.3816167
5.3816167
5.3816167
5.3816167
5.3816167
5.3816167
5.3816167
5.3816167
5.3816167
5.3816167
5.3816167
5.3816167
5.3816167
5.3816167
5.3816167
5.3816167
5.3816167
5.3816167
5.2816254
5.2816254
5.2816254
5.2816254
5.2816254
5.2816254
5.2816254
5.2816254
5.2816254
5.2816254
5.2816254
5.2816254
5.2816254
5.2816254
5.2816254
5.2816254
5.2816254
5.2816254
5.2816254
5.2816254
5.2816254
5.2816254
5.2816254
5.2816254
5.2816254
5.2816254
5.2816254
5.2816254
5.2816254
5.2816254
5.2816254
5.2816254
5.2816254
5.2816254
5.2816254
5.2816254
5.2816254
5.2816254
5.2816254
5.2816254
5.1816348
5.1816348
5.1816348
5.1816348
5.1816348
5.1816348
5.1816348
5.1816348
5.1816348
5.1816348
5.1816348
5.1816348
5.1816348
5.1816348
5.1816348
5.1816348
5.1816348
5.1816348
5.1816348
5.1816348
5.1816348
5.1816348
5.1816348
5.1816348
5.1816348
5.1816348
5.1816348
5.1816348
5.1816348
5.1816348
5.1816348
5.1816348
5.1816348
5.1816348
5.1816348
5.1816348
5.1816348
5.1816348
5.1816348
5.1816348
5.0816448
5.0816448
5.0816448
5.0816448
5.0816448
5.0816448
5.0816448
5.0816448
5.0816448
5.0816448
5.0816448
5.0816448
5.0816448
5.0816448
5.0816448
5.0816448
5.0816448
5.0816448
5.0816448
5.0816448
5.0816448
5.0816448
5.0816448
5.0816448
5.0816448
5.0816448
5.0816448
5.0816448
5.0816448
5.0816448
5.0816448
5.0816448
5.0816448
5.0816448
5.0816448
5.0816448
5.0816448
5.0816448
5.0816448
5.0816448
4.9816555
4.9816555
4.9816555
4.9816555
4.9816555
4.9816555
4.9816555
4.9816555
4.9816555
4.9816555
4.9816555
4.9816555
4.9816555
4.9816555
4.9816555
4.9816555
4.9816555
4.9816555
4.9816555
4.9816555
4.9816555
4.9816555
4.9816555
4.9816555
4.9816555
4.9816555
4.9816555
4.9816555
4.9816555
4.9816555
4.9816555
4.9816555
4.9816555
4.9816555
4.9816555
4.9816555
4.9816555
4.9816555
4.9816555
4.9816555
4.8816671
4.8816671
4.8816671
4.8816671
4.8816671
4.8816671
4.8816671
4.8816671
4.8816671
4.8816671
4.8816671
4.8816671
4.8816671
4.8816671
4.8816671
4.8816671
4.8816671
4.8816671
4.8816671
4.8816671
4.8816671
4.8816671
4.8816671
4.8816671
4.8816671
4.8816671
4.8816671
4.8816671
4.8816671
4.8816671
4.8816671
4.8816671
4.8816671
4.8816671
4.8816671
4.8816671
4.8816671
4.8816671
4.8816671
4.8816671
4.7816795
4.7816795
4.7816795
4.7816795
4.7816795
4.7816795
4.7816795
4.7816795
4.7816795
4.7816795
4.7816795
4.7816795
4.7816795
4.7816795
4.7816795
4.7816795
4.7816795
4.7816795
4.7816795
4.7816795
4.7816795
4.7816795
4.7816795
4.7816795
4.7816795
4.7816795
4.7816795
4.7816795
4.7816795
4.7816795
4.7816795
4.7816795
4.7816795
4.7816795
4.7816795
4.7816795
4.7816795
4.7816795
4.7816795
4.7816795
4.681693
4.681693
4.681693
4.681693
4.681693
4.681693
4.681693
4.681693
4.681693
4.681693
4.681693
4.681693
4.681693
4.681693
4.681693
4.681693
4.681693
4.681693
4.681693
4.681693
4.681693
4.681693
4.681693
4.681693
4.681693
4.681693
4.681693
4.681693
4.681693
4.681693
4.681693
4.681693
4.681693
4.681693
4.681693
4.681693
4.681693
4.681693
4.681693
4.681693
4.5817077
4.5817077
4.5817077
4.5817077
4.5817077
4.5817077
4.5817077
4.5817077
4.5817077
4.5817077
4.5817077
4.5817077
4.5817077
4.5817077
4.5817077
4.5817077
4.5817077
4.5817077
4.5817077
4.5817077
4.5817077
4.5817077
4.5817077
4.5817077
4.5817077
4.5817077
4.5817077
4.5817077
4.5817077
4.5817077
4.5817077
4.5817077
4.5817077
4.5817077
4.5817077
4.5817077
4.5817077
4.5817077
4.5817077
4.5817077
4.4817236
4.4817236
4.4817236
4.4817236
4.4817236
4.4817236
4.4817236
4.4817236
4.4817236
4.4817236
4.4817236
4.4817236
4.4817236
4.4817236
4.4817236
4.4817236
4.4817236
4.4817236
4.4817236
4.4817236
4.4817236
4.4817236
4.4817236
4.4817236
4.4817236
4.4817236
4.4817236
4.4817236
4.4817236
4.4817236
4.4817236
4.4817236
4.4817236
4.4817236
4.4817236
4.4817236
4.4817236
4.4817236
4.4817236
4.4817236
4.3817411
4.3817411
4.3817411
4.3817411
4.3817411
4.3817411
4.3817411
4.3817411
4.3817411
4.3817411
4.3817411
4.3817411
4.3817411
4.3817411
4.3817411
4.3817411
4.3817411
4.3817411
4.3817411
4.3817411
4.3817411
4.3817411
4.3817411
4.3817411
4.3817411
4.3817411
4.3817411
4.3817411
4.3817411
4.3817411
4.3817411
4.3817411
4.3817411
4.3817411
4.3817411
4.3817411
4.3817411
4.3817411
4.3817411
4.3817411
4.2817603
4.2817603
4.2817603
4.2817603
4.2817603
4.2817603
4.2817603
4.2817603
4.2817603
4.2817603
4.2817603
4.2817603
4.2817603
4.2817603
4.2817603
4.2817603
4.2817603
4.2817603
4.2817603
4.2817603
4.2817603
4.2817603
4.2817603
4.2817603
4.2817603
4.2817603
4.2817603
4.2817603
4.2817603
4.2817603
4.2817603
4.2817603
4.2817603
4.2817603
4.2817603
4.2817603
4.2817603
4.2817603
4.2817603
4.2817603
4.1817814
4.1817814
4.1817814
4.1817814
4.1817814
4.1817814
4.1817814
4.1817814
4.1817814
4.1817814
4.1817814
4.1817814
4.1817814
4.1817814
4.1817814
4.1817814
4.1817814
4.1817814
4.1817814
4.1817814
4.1817814
4.1817814
4.1817814
4.1817814
4.1817814
4.1817814
4.1817814
4.1817814
4.1817814
4.1817814
4.1817814
4.1817814
4.1817814
4.1817814
4.1817814
4.1817814
4.1817814
4.1817814
4.1817814
4.1817814
4.0818049
4.0818049
4.0818049
4.0818049
4.0818049
4.0818049
4.0818049
4.0818049
4.0818049
4.0818049
4.0818049
4.0818049
4.0818049
4.0818049
4.0818049
4.0818049
4.0818049
4.0818049
4.0818049
4.0818049
4.0818049
4.0818049
4.0818049
4.0818049
4.0818049
4.0818049
4.0818049
4.0818049
4.0818049
4.0818049
4.0818049
4.0818049
4.0818049
4.0818049
4.0818049
4.0818049
4.0818049
4.0818049
4.0818049
4.0818049
3.981831
3.981831
3.981831
3.981831
3.981831
3.981831
3.981831
3.981831
3.981831
3.981831
3.981831
3.981831
3.981831
3.981831
3.981831
3.981831
3.981831
3.981831
3.981831
3.981831
3.981831
3.981831
3.981831
3.981831
3.981831
3.981831
3.981831
3.981831
3.981831
3.981831
3.981831
3.981831
3.981831
3.981831
3.981831
3.981831
3.981831
3.981831
3.981831
3.981831
3.8818604
3.8818604
3.8818604
3.8818604
3.8818604
3.8818604
3.8818604
3.8818604
3.8818604
3.8818604
3.8818604
3.8818604
3.8818604
3.8818604
3.8818604
3.8818604
3.8818604
3.8818604
3.8818604
3.8818604
3.8818604
3.8818604
3.8818604
3.8818604
3.8818604
3.8818604
3.8818604
3.8818604
3.8818604
3.8818604
3.8818604
3.8818604
3.8818604
3.8818604
3.8818604
3.8818604
3.8818604
3.8818604
3.8818604
3.8818604
3.7818935
3.7818935
3.7818935
3.7818935
3.7818935
3.7818935
3.7818935
3.7818935
3.7818935
3.7818935
3.7818935
3.7818935
3.7818935
3.7818935
3.7818935
3.7818935
3.7818935
3.7818935
3.7818935
3.7818935
3.7818935
3.7818935
3.7818935
3.7818935
3.7818935
3.7818935
3.7818935
3.7818935
3.7818935
3.7818935
3.7818935
3.7818935
3.7818935
3.7818935
3.7818935
3.7818935
3.7818935
3.7818935
3.7818935
3.7818935
3.6819313
3.6819313
3.6819313
3.6819313
3.6819313
3.6819313
3.6819313
3.6819313
3.6819313
3.6819313
3.6819313
3.6819313
3.6819313
3.6819313
3.6819313
3.6819313
3.6819313
3.6819313
3.6819313
3.6819313
3.6819313
3.6819313
3.6819313
3.6819313
3.6819313
3.6819313
3.6819313
3.6819313
3.6819313
3.6819313
3.6819313
3.6819313
3.6819313
3.6819313
3.6819313
3.6819313
3.6819313
3.6819313
3.6819313
3.6819313
3.5819748
3.5819748
3.5819748
3.5819748
3.5819748
3.5819748
3.5819748
3.5819748
3.5819748
3.5819748
3.5819748
3.5819748
3.5819748
3.5819748
3.5819748
3.5819748
3.5819748
3.5819748
3.5819748
3.5819748
3.5819748
3.5819748
3.5819748
3.5819748
3.5819748
3.5819748
3.5819748
3.5819748
3.5819748
3.5819748
3.5819748
3.5819748
3.5819748
3.5819748
3.5819748
3.5819748
3.5819748
3.5819748
3.5819748
3.5819748
3.4820253
3.4820253
3.4820253
3.4820253
3.4820253
3.4820253
3.4820253
3.4820253
3.4820253
3.4820253
3.4820253
3.4820253
3.4820253
3.4820253
3.4820253
3.4820253
3.4820253
3.4820253
3.4820253
3.4820253
3.4820253
3.4820253
3.4820253
3.4820253
3.4820253
3.4820253
3.4820253
3.4820253
3.4820253
3.4820253
3.4820253
3.4820253
3.4820253
3.4820253
3.4820253
3.4820253
3.4820253
3.4820253
3.4820253
3.4820253
3.3820847
3.3820847
3.3820847
3.3820847
3.3820847
3.3820847
3.3820847
3.3820847
3.3820847
3.3820847
3.3820847
3.3820847
3.3820847
3.3820847
3.3820847
3.3820847
3.3820847
3.3820847
3.3820847
3.3820847
3.3820847
3.3820847
3.3820847
3.3820847
3.3820847
3.3820847
3.3820847
3.3820847
3.3820847
3.3820847
3.3820847
3.3820847
3.3820847
3.3820847
3.3820847
3.3820847