/*--------------------------------*- C++ -*----------------------------------*\
  =========                 |
  \\      /  F ield         | OpenFOAM: The Open Source CFD Toolbox
   \\    /   O peration     | Website:  https://openfoam.org
    \\  /    A nd           | Version:  11
     \\/     M anipulation  |
\*---------------------------------------------------------------------------*/
FoamFile
{
    format      ascii;
    class       volScalarField;
    location    "5";
    object      p;
}
// * * * * * * * * * * * * * * * * * * * * * * * * * * * * * * * * * * * * * //

dimensions      [0 2 -2 0 0 0 0];

internalField   nonuniform List<scalar> 
9600
(
0.00023784186
9.4021886e-05
8.2168927e-05
0.00010034776
7.9956618e-05
5.5243163e-05
4.6931727e-05
4.2430431e-05
3.6463434e-05
3.0789487e-05
2.5560388e-05
2.0408229e-05
1.5251294e-05
1.013922e-05
5.131522e-06
2.8015318e-07
-4.3821399e-06
-8.8106123e-06
-1.294454e-05
-1.6720692e-05
-2.0084673e-05
-2.2988619e-05
-2.5398343e-05
-2.7302303e-05
-2.8702753e-05
-2.9626405e-05
-3.0101974e-05
-3.0146459e-05
-2.974514e-05
-2.8920693e-05
-2.740158e-05
-2.5499265e-05
-2.2284737e-05
-1.9328784e-05
-1.748033e-05
-1.4178652e-05
-2.1270821e-05
-2.241779e-05
4.5557273e-06
-0.00024026459
-5.601824e-06
1.137645e-05
1.5172716e-05
2.7723334e-05
3.4573728e-05
2.2383285e-05
2.2393428e-05
2.2477077e-05
2.0124855e-05
1.7313446e-05
1.4270363e-05
1.079236e-05
7.0714088e-06
3.2764701e-06
-5.2303967e-07
-4.2726263e-06
-7.8943067e-06
-1.1316048e-05
-1.4466178e-05
-1.7273647e-05
-1.9659403e-05
-2.1570978e-05
-2.2988594e-05
-2.3909737e-05
-2.4359348e-05
-2.4347943e-05
-2.3884091e-05
-2.2987742e-05
-2.1683479e-05
-2.0077044e-05
-1.8025456e-05
-1.5594215e-05
-1.1762992e-05
-7.0365647e-06
-1.3758835e-07
8.7926156e-06
1.7339517e-05
3.8063856e-05
5.7394296e-05
0.00010745269
0.00022080488
0.00015614518
0.00011598708
0.00011087176
0.00010310994
8.0280277e-05
6.628666e-05
5.9825192e-05
5.142717e-05
4.3366889e-05
3.6191896e-05
2.9322919e-05
2.2661764e-05
1.6256487e-05
1.0095997e-05
4.1695323e-06
-1.5117717e-06
-6.9185806e-06
-1.2015779e-05
-1.6765904e-05
-2.1102638e-05
-2.5040062e-05
-2.8493784e-05
-3.1503458e-05
-3.4042955e-05
-3.6158665e-05
-3.7894675e-05
-3.9282315e-05
-4.0299638e-05
-4.1057198e-05
-4.1248694e-05
-4.1656702e-05
-4.0757372e-05
-4.1032017e-05
-4.1002208e-05
-3.9784984e-05
-4.3649823e-05
-4.2214726e-05
-5.4075857e-05
-7.0392064e-05
-5.5168001e-05
-4.3701466e-05
-2.363306e-05
-5.6489003e-06
-3.4325965e-06
-1.1245993e-05
-4.6829526e-06
-3.733677e-07
-2.968116e-07
-7.1580475e-07
-1.469434e-06
-2.848134e-06
-4.6945098e-06
-6.8853782e-06
-9.2887415e-06
-1.1761735e-05
-1.419891e-05
-1.6519694e-05
-1.8641495e-05
-2.0502253e-05
-2.2053714e-05
-2.313618e-05
-2.3788911e-05
-2.3994072e-05
-2.3776394e-05
-2.309638e-05
-2.1937592e-05
-2.0317417e-05
-1.8194512e-05
-1.5622457e-05
-1.2325604e-05
-8.7213118e-06
-3.6994482e-06
1.5675495e-06
8.8297833e-06
1.8502552e-05
2.9724776e-05
4.6485255e-05
3.4018555e-05
4.3654495e-05
0.00018421091
0.00015987885
0.00013163754
0.00012383394
0.00011329689
9.2969302e-05
8.2345383e-05
7.4200518e-05
6.4016524e-05
5.4601676e-05
4.6067837e-05
3.7937706e-05
3.0129679e-05
2.2623319e-05
1.5348434e-05
8.3021549e-06
1.5162699e-06
-4.9831178e-06
-1.1186706e-05
-1.7050836e-05
-2.2518344e-05
-2.761796e-05
-3.2337295e-05
-3.6608536e-05
-4.0415724e-05
-4.3791329e-05
-4.6719572e-05
-4.9179702e-05
-5.1110174e-05
-5.2638528e-05
-5.3411646e-05
-5.423201e-05
-5.3656224e-05
-5.3728503e-05
-5.2416459e-05
-5.1177035e-05
-5.2174514e-05
-5.038682e-05
-5.856784e-05
-6.1227381e-05
-1.8784126e-05
-3.2924345e-05
-2.4264121e-05
-1.5921539e-05
-1.748101e-05
-2.5828784e-05
-2.2076597e-05
-1.7329123e-05
-1.680527e-05
-1.6506849e-05
-1.6275995e-05
-1.6564761e-05
-1.7274732e-05
-1.8278795e-05
-1.9496188e-05
-2.0852534e-05
-2.2284377e-05
-2.3700475e-05
-2.4998607e-05
-2.6129746e-05
-2.7049435e-05
-2.7603433e-05
-2.7712627e-05
-2.7405706e-05
-2.6646843e-05
-2.5353796e-05
-2.3500305e-05
-2.111081e-05
-1.8140499e-05
-1.4735665e-05
-1.0636804e-05
-6.4096316e-06
-1.2013552e-06
4.403053e-06
1.0678161e-05
1.9151215e-05
2.8860441e-05
3.8423625e-05
2.735419e-05
2.8845629e-05
0.00014858498
0.00013970395
0.00012069407
0.00011802683
0.00011045425
9.4266855e-05
8.6005805e-05
7.871972e-05
6.8388012e-05
5.9246224e-05
5.1003872e-05
4.2644185e-05
3.4339515e-05
2.626083e-05
1.8382863e-05
1.0633691e-05
3.0094768e-06
-4.4263655e-06
-1.1633422e-05
-1.8544988e-05
-2.5145975e-05
-3.1432061e-05
-3.7284941e-05
-4.2630245e-05
-4.7436996e-05
-5.1663822e-05
-5.524987e-05
-5.8155035e-05
-6.0321164e-05
-6.186619e-05
-6.2484096e-05
-6.2796818e-05
-6.1800372e-05
-6.0731945e-05
-5.8357036e-05
-5.5798353e-05
-5.5662603e-05
-5.1566985e-05
-5.6534306e-05
-5.4592618e-05
1.3248178e-05
-6.4504697e-06
-1.303841e-05
-1.1745159e-05
-1.5893535e-05
-2.6647471e-05
-2.7142081e-05
-2.5591734e-05
-2.6748517e-05
-2.7171396e-05
-2.7337974e-05
-2.7754801e-05
-2.830927e-05
-2.8960256e-05
-2.9698843e-05
-3.0489477e-05
-3.1344238e-05
-3.2247981e-05
-3.3096227e-05
-3.3835764e-05
-3.4417923e-05
-3.4674052e-05
-3.4523454e-05
-3.3895766e-05
-3.2707825e-05
-3.0894326e-05
-2.8476538e-05
-2.5512465e-05
-2.1992957e-05
-1.811602e-05
-1.3719455e-05
-9.2009636e-06
-4.1014074e-06
1.6622197e-06
7.8821355e-06
1.4261675e-05
1.9402336e-05
2.5241213e-05
1.9130391e-05
1.6666941e-05
0.00011580737
0.00011188131
9.9499766e-05
0.00010018863
9.6894925e-05
8.4512424e-05
7.7292301e-05
7.316616e-05
6.4911832e-05
5.6105184e-05
4.8643297e-05
4.1014416e-05
3.3119578e-05
2.5169072e-05
1.7223906e-05
9.2799055e-06
1.2978706e-06
-6.6887995e-06
-1.4584956e-05
-2.2297679e-05
-2.9777709e-05
-3.6939711e-05
-4.3596349e-05
-4.9608203e-05
-5.4916953e-05
-5.9471786e-05
-6.3188064e-05
-6.6029672e-05
-6.7955433e-05
-6.9082677e-05
-6.9143157e-05
-6.8641442e-05
-6.678378e-05
-6.4488438e-05
-6.0511115e-05
-5.6012488e-05
-5.4259239e-05
-4.845254e-05
-4.9356331e-05
-4.4911803e-05
3.5739231e-05
1.7301076e-05
2.0496281e-06
-1.2624688e-06
-6.6719962e-06
-1.882923e-05
-2.4543227e-05
-2.6882423e-05
-3.012048e-05
-3.2416859e-05
-3.3979769e-05
-3.5433831e-05
-3.6717219e-05
-3.783195e-05
-3.8827998e-05
-3.9755856e-05
-4.0679447e-05
-4.1616971e-05
-4.2494682e-05
-4.3271651e-05
-4.388569e-05
-4.4140025e-05
-4.3972399e-05
-4.3257861e-05
-4.1847391e-05
-3.9757076e-05
-3.7058559e-05
-3.3846561e-05
-3.0160973e-05
-2.6195313e-05
-2.1884727e-05
-1.7503625e-05
-1.2783896e-05
-7.0908099e-06
-7.0666586e-07
4.3322904e-06
7.1046251e-06
1.1032638e-05
7.7865272e-06
4.0590159e-06
8.7529062e-05
8.4636483e-05
7.6261102e-05
7.7801157e-05
7.8158106e-05
6.8765376e-05
6.2143218e-05
5.9803658e-05
5.3481199e-05
4.5227018e-05
3.8811255e-05
3.2521613e-05
2.5583484e-05
1.827674e-05
1.0772227e-05
3.080488e-06
-4.8564599e-06
-1.2981391e-05
-2.1148958e-05
-2.9245422e-05
-3.7213186e-05
-4.486811e-05
-5.1857923e-05
-5.8000917e-05
-6.3307029e-05
-6.7697478e-05
-7.1101493e-05
-7.3514657e-05
-7.4890385e-05
-7.5326539e-05
-7.4618182e-05
-7.3172315e-05
-7.0379167e-05
-6.68062e-05
-6.1508828e-05
-5.5456403e-05
-5.1997299e-05
-4.4706551e-05
-4.2292701e-05
-3.6373796e-05
4.9011793e-05
3.3039874e-05
1.5788205e-05
1.0759963e-05
4.9487726e-06
-8.7142668e-06
-1.9063406e-05
-2.4393565e-05
-2.9615074e-05
-3.3879972e-05
-3.707384e-05
-3.994544e-05
-4.2506768e-05
-4.4714334e-05
-4.6612631e-05
-4.8315199e-05
-4.999446e-05
-5.1591967e-05
-5.2983592e-05
-5.4201082e-05
-5.5234489e-05
-5.5808501e-05
-5.5886751e-05
-5.5365965e-05
-5.4043832e-05
-5.2001565e-05
-4.9362015e-05
-4.6263179e-05
-4.2807609e-05
-3.894265e-05
-3.4690788e-05
-3.0255045e-05
-2.5424614e-05
-2.0530991e-05
-1.4927029e-05
-1.0258367e-05
-8.1970761e-06
-4.5772522e-06
-6.2768348e-06
-8.0851292e-06
6.6737336e-05
6.3159542e-05
5.5278422e-05
5.6283596e-05
5.7848135e-05
4.9836483e-05
4.3106879e-05
4.1321725e-05
3.6465454e-05
2.9352164e-05
2.3678621e-05
1.8310862e-05
1.2227558e-05
5.6510009e-06
-1.2445825e-06
-8.5074821e-06
-1.6199492e-05
-2.4166068e-05
-3.2219807e-05
-4.0283484e-05
-4.8300413e-05
-5.6020278e-05
-6.2887151e-05
-6.8633144e-05
-7.344684e-05
-7.7255192e-05
-8.0001314e-05
-8.1704714e-05
-8.2345893e-05
-8.2004155e-05
-8.0558377e-05
-7.8188398e-05
-7.4730794e-05
-7.0036861e-05
-6.37375e-05
-5.6623261e-05
-5.182732e-05
-4.3954244e-05
-3.9933967e-05
-3.3736349e-05
5.1653441e-05
3.9252745e-05
2.349275e-05
1.8427954e-05
1.3095721e-05
-8.647894e-07
-1.3246861e-05
-2.0129387e-05
-2.6960468e-05
-3.3119046e-05
-3.8073083e-05
-4.2565005e-05
-4.6686583e-05
-5.0344075e-05
-5.3609185e-05
-5.6688436e-05
-5.9634592e-05
-6.231996e-05
-6.4677858e-05
-6.6727186e-05
-6.8423995e-05
-6.9675428e-05
-7.0254105e-05
-7.0300291e-05
-6.9381473e-05
-6.7649283e-05
-6.5261269e-05
-6.2352188e-05
-5.8996381e-05
-5.5368745e-05
-5.141189e-05
-4.7437668e-05
-4.3174416e-05
-3.8750815e-05
-3.3426088e-05
-2.8378254e-05
-2.596955e-05
-2.1671015e-05
-2.1942026e-05
-2.085417e-05
5.3707217e-05
4.8622915e-05
3.9302033e-05
3.8583993e-05
3.8974075e-05
3.0319771e-05
2.2054005e-05
2.0248039e-05
1.6663667e-05
1.0366178e-05
4.6213468e-06
-4.8953631e-07
-6.0942628e-06
-1.2171131e-05
-1.8703988e-05
-2.5764977e-05
-3.3193144e-05
-4.0798038e-05
-4.8483786e-05
-5.6250196e-05
-6.405737e-05
-7.1368104e-05
-7.7715927e-05
-8.2570871e-05
-8.649181e-05
-8.9402942e-05
-9.1248867e-05
-9.206296e-05
-9.1837332e-05
-9.0672392e-05
-8.8447209e-05
-8.5407621e-05
-8.1224399e-05
-7.6102201e-05
-6.9264878e-05
-6.1629346e-05
-5.5678721e-05
-4.7986025e-05
-4.3776537e-05
-3.7454981e-05
5.0313611e-05
4.1537058e-05
2.7328186e-05
2.140369e-05
1.6630896e-05
2.8270902e-06
-1.0579517e-05
-1.6878605e-05
-2.4200123e-05
-3.2404491e-05
-3.9202674e-05
-4.5243011e-05
-5.091752e-05
-5.6278734e-05
-6.1454354e-05
-6.6368945e-05
-7.0878682e-05
-7.4912392e-05
-7.8496562e-05
-8.1687943e-05
-8.4448717e-05
-8.6598676e-05
-8.7947939e-05
-8.867085e-05
-8.8340922e-05
-8.7126846e-05
-8.5201135e-05
-8.2699414e-05
-7.9696571e-05
-7.6373705e-05
-7.2666859e-05
-6.8892334e-05
-6.4727504e-05
-6.0440811e-05
-5.535133e-05
-4.9867022e-05
-4.6183887e-05
-4.1705061e-05
-4.1762673e-05
-4.0382438e-05
4.7147194e-05
3.9883748e-05
2.7746317e-05
2.4134649e-05
2.2186185e-05
1.1981456e-05
2.1698364e-06
-5.2756914e-07
-4.834494e-06
-1.1367719e-05
-1.7315708e-05
-2.2703632e-05
-2.855903e-05
-3.5002674e-05
-4.1808153e-05
-4.8798562e-05
-5.5874009e-05
-6.2991163e-05
-7.0139063e-05
-7.7344446e-05
-8.4546967e-05
-9.1176128e-05
-9.6629935e-05
-0.00010061497
-0.00010353686
-0.00010542094
-0.00010624802
-0.00010607302
-0.00010490628
-0.0001028757
-9.986557e-05
-9.6162498e-05
-9.1438249e-05
-8.5947291e-05
-7.9062757e-05
-7.1283808e-05
-6.4628355e-05
-5.7602488e-05
-5.4750928e-05
-5.0095785e-05
4.2910515e-05
3.6035301e-05
2.3583844e-05
1.7569511e-05
1.4091688e-05
1.6018625e-06
-1.1527994e-05
-1.8792147e-05
-2.604311e-05
-3.4809604e-05
-4.3039768e-05
-5.0718128e-05
-5.8327592e-05
-6.5724024e-05
-7.2722573e-05
-7.9247012e-05
-8.5262697e-05
-9.0746987e-05
-9.5718157e-05
-0.00010023195
-0.0001042591
-0.00010751047
-0.00010978974
-0.00011116887
-0.00011148543
-0.00011086281
-0.00010944676
-0.00010736522
-0.00010467804
-0.00010156532
-9.7931681e-05
-9.4107527e-05
-8.9724705e-05
-8.5071943e-05
-7.9567401e-05
-7.3202782e-05
-6.7717029e-05
-6.211109e-05
-6.1011797e-05
-5.7828965e-05
3.8376805e-05
3.1783288e-05
2.0080556e-05
1.2473541e-05
9.153356e-06
-2.5707218e-06
-1.4602059e-05
-2.103953e-05
-2.627715e-05
-3.3452116e-05
-4.0869357e-05
-4.8026537e-05
-5.5251484e-05
-6.2511881e-05
-6.9714716e-05
-7.6826354e-05
-8.3811842e-05
-9.0648216e-05
-9.7368761e-05
-0.00010405971
-0.00011066672
-0.00011657676
-0.00012115849
-0.00012422551
-0.00012610772
-0.00012692643
-0.00012671217
-0.00012554842
-0.00012345414
-0.00012059066
-0.00011683186
-0.00011253234
-0.00010733376
-0.00010154924
-9.4765832e-05
-8.6966202e-05
-7.962298e-05
-7.2721693e-05
-7.0767906e-05
-6.7028784e-05
3.520697e-05
2.8061688e-05
1.6127497e-05
7.5085781e-06
3.673756e-06
-7.8928838e-06
-2.0521663e-05
-2.856292e-05
-3.5390027e-05
-4.4578301e-05
-5.4153044e-05
-6.3406371e-05
-7.2480388e-05
-8.1295462e-05
-8.9730266e-05
-9.7683414e-05
-0.00010508869
-0.00011193072
-0.00011824994
-0.00012410875
-0.00012943588
-0.0001337877
-0.00013689224
-0.00013885574
-0.00013972181
-0.00013955886
-0.00013848155
-0.00013661517
-0.00013399441
-0.00013080266
-0.00012689302
-0.00012262417
-0.00011757894
-0.00011204111
-0.00010560446
-9.803986e-05
-9.0504225e-05
-8.3416912e-05
-8.0383284e-05
-7.7195833e-05
3.30241e-05
2.5089638e-05
1.2203426e-05
1.8850227e-06
-2.5805475e-06
-1.4059325e-05
-2.7484888e-05
-3.666724e-05
-4.4465432e-05
-5.4523644e-05
-6.4708924e-05
-7.4294601e-05
-8.3518165e-05
-9.2399483e-05
-0.00010085991
-0.00010886963
-0.00011643766
-0.00012357753
-0.00013034923
-0.00013688319
-0.00014317258
-0.00014862079
-0.00015255942
-0.00015493573
-0.00015599511
-0.00015594884
-0.00015488068
-0.00015290393
-0.00015004679
-0.00014652217
-0.00014218448
-0.00013746211
-0.0001319516
-0.00012595784
-0.00011919006
-0.00011129811
-0.0001031961
-9.5570857e-05
-9.1401773e-05
-8.8469851e-05
2.987294e-05
2.1266898e-05
7.2591803e-06
-4.5909751e-06
-1.0025601e-05
-2.1499761e-05
-3.5662525e-05
-4.6071396e-05
-5.4903497e-05
-6.5950304e-05
-7.7089478e-05
-8.7594774e-05
-9.7713572e-05
-0.00010748837
-0.00011684967
-0.00012573616
-0.00013410977
-0.0001419715
-0.00014934372
-0.00015627057
-0.00016263521
-0.00016784236
-0.00017149824
-0.00017365537
-0.00017450729
-0.00017421782
-0.00017287516
-0.00017060443
-0.00016742438
-0.00016356493
-0.00015885065
-0.00015374072
-0.00014781617
-0.00014137791
-0.00013426045
-0.00012601157
-0.0001173092
-0.00010895321
-0.00010394471
-0.00010084416
2.4960532e-05
1.5930421e-05
9.7018125e-07
-1.2338063e-05
-1.9237862e-05
-3.0429244e-05
-4.5210152e-05
-5.7069763e-05
-6.7034057e-05
-7.9171342e-05
-9.1413642e-05
-0.00010294468
-0.00011404558
-0.00012473611
-0.00013490615
-0.00014448784
-0.00015344854
-0.00016177224
-0.00016949011
-0.00017670228
-0.00018337619
-0.00018889561
-0.00019268553
-0.00019480797
-0.00019552982
-0.00019503581
-0.00019341856
-0.00019081697
-0.00018724383
-0.0001829627
-0.00017776931
-0.00017216209
-0.00016571818
-0.00015871338
-0.00015113307
-0.00014241606
-0.00013299972
-0.0001237068
-0.00011790644
-0.0001143532
1.9341211e-05
9.5912284e-06
-6.4971367e-06
-2.1378824e-05
-3.0362467e-05
-4.1170903e-05
-5.6434701e-05
-7.0005237e-05
-8.1254554e-05
-9.4536818e-05
-0.00010801682
-0.00012070567
-0.00013289126
-0.00014460794
-0.00015571414
-0.00016611586
-0.00017577131
-0.0001846885
-0.00019292542
-0.00020058569
-0.00020759675
-0.00021329338
-0.00021712329
-0.00021916037
-0.00021969234
-0.00021892293
-0.00021694984
-0.00021392463
-0.0002098436
-0.00020501391
-0.00019920702
-0.000192977
-0.00018591671
-0.00017823261
-0.00017008945
-0.00016077612
-0.00015049301
-0.00014005092
-0.00013322952
-0.00012907656
1.269389e-05
1.8846163e-06
-1.5480034e-05
-3.2075363e-05
-4.2391335e-05
-5.3945213e-05
-7.0440955e-05
-8.5567432e-05
-9.8120833e-05
-0.00011261611
-0.00012752647
-0.00014155667
-0.00015491814
-0.0001677231
-0.00017984224
-0.00019114714
-0.00020159827
-0.00021120516
-0.00022001138
-0.00022812575
-0.00023548994
-0.00024141197
-0.00024529356
-0.00024723246
-0.0002475467
-0.00024646013
-0.00024406886
-0.00024053296
-0.00023584692
-0.00023035379
-0.00022380773
-0.00021672924
-0.00020887111
-0.0002002568
-0.00019141187
-0.00018149223
-0.00017018094
-0.00015825812
-0.00015006714
-0.00014515555
3.9124747e-06
-7.9820806e-06
-2.6489713e-05
-4.4867757e-05
-5.666085e-05
-6.9108505e-05
-8.7119898e-05
-0.00010410757
-0.00011823765
-0.00013406549
-0.00015050124
-0.00016605531
-0.000180833
-0.00019490565
-0.00020813749
-0.00022045293
-0.00023181793
-0.00024222122
-0.00025169563
-0.00026034319
-0.00026809198
-0.00027422091
-0.00027813073
-0.00027992475
-0.00027995534
-0.00027846706
-0.00027553684
-0.00027136154
-0.00026592898
-0.00025962836
-0.0002521678
-0.00024413075
-0.0002353107
-0.0002256235
-0.00021559399
-0.00020483749
-0.00019266843
-0.00017899502
-0.00016882745
-0.00016278746
-7.6983171e-06
-2.0493336e-05
-3.9759014e-05
-5.9986361e-05
-7.348445e-05
-8.6996923e-05
-0.00010664881
-0.00012579269
-0.0001420516
-0.00015972892
-0.00017798563
-0.00019518856
-0.00021144937
-0.00022693735
-0.00024150971
-0.00025503309
-0.00026744698
-0.00027873719
-0.00028893428
-0.00029813682
-0.00030627214
-0.00031263776
-0.00031658281
-0.00031822533
-0.0003179371
-0.00031595233
-0.00031237455
-0.00030744583
-0.00030108747
-0.00029377983
-0.00028515993
-0.00027592074
-0.00026575889
-0.00025484158
-0.00024354577
-0.00023139073
-0.00021785268
-0.00020244464
-0.00019015663
-0.0001826085
-1.8349936e-05
-3.3057113e-05
-5.4358312e-05
-7.72752e-05
-9.2964997e-05
-0.0001080615
-0.00012985207
-0.0001516243
-0.00017043939
-0.00019014482
-0.00021043513
-0.00022968911
-0.00024787548
-0.00026513287
-0.00028130292
-0.000296248
-0.00030993389
-0.00032237199
-0.00033357592
-0.00034357019
-0.00035219922
-0.00035869497
-0.00036252857
-0.0003638563
-0.00036306762
-0.00036042953
-0.00035601546
-0.0003500798
-0.00034255165
-0.00033393977
-0.00032389114
-0.00031314483
-0.00030135741
-0.00028880278
-0.00027582721
-0.00026182618
-0.0002465564
-0.00022922847
-0.00021479825
-0.00020519388
-3.0546152e-05
-4.7655888e-05
-7.1737796e-05
-9.8049539e-05
-0.00011640267
-0.000133506
-0.00015775681
-0.00018249707
-0.00020440453
-0.00022681902
-0.0002497537
-0.0002715541
-0.00029204619
-0.00031129713
-0.00032907227
-0.00034516694
-0.00035954816
-0.00037232478
-0.00038369959
-0.00039396128
-0.00040317633
-0.0004105493
-0.00041507088
-0.00041675102
-0.00041592139
-0.00041284104
-0.00040762027
-0.00040058556
-0.00039169756
-0.00038154268
-0.0003697652
-0.00035714337
-0.00034336786
-0.00032873157
-0.00031359407
-0.00029739543
-0.00028008569
-0.00026041538
-0.00024321777
-0.00023096174
-4.4027069e-05
-6.380018e-05
-9.1521954e-05
-0.00012239947
-0.00014455519
-0.00016422904
-0.00019159006
-0.00022027808
-0.00024604834
-0.00027175725
-0.00029798017
-0.00032311061
-0.0003468839
-0.00036950179
-0.00039085272
-0.00041071472
-0.00042885626
-0.000445032
-0.00045901598
-0.00047066283
-0.000479763
-0.00048570219
-0.00048829754
-0.00048783222
-0.00048477688
-0.00047952822
-0.00047218351
-0.00046303832
-0.00045195024
-0.00043951676
-0.00042532923
-0.00041019348
-0.00039380774
-0.00037647098
-0.00035859998
-0.00033958658
-0.00031977506
-0.00029728774
-0.00027653163
-0.00026089467
-6.3222616e-05
-8.6393953e-05
-0.00011768375
-0.00015378517
-0.00018039691
-0.00020232889
-0.00023247213
-0.00026482243
-0.00029326467
-0.00032039585
-0.00034778114
-0.00037387047
-0.00039813414
-0.0004207785
-0.00044176858
-0.00046097555
-0.00047838155
-0.00049409329
-0.00050829034
-0.00052124146
-0.00053293558
-0.00054239535
-0.00054824217
-0.00055043076
-0.00054946363
-0.00054574437
-0.00053931499
-0.00053049948
-0.00051909194
-0.00050574638
-0.00048999794
-0.00047272694
-0.00045374395
-0.00043340181
-0.0004123707
-0.00038987993
-0.00036709352
-0.00034124686
-0.00031594948
-0.00029623162
-9.0385917e-05
-0.00011661572
-0.00015203111
-0.00019642527
-0.00023287286
-0.00026265421
-0.00030112559
-0.00034417844
-0.00038305528
-0.00041945133
-0.00045632902
-0.00049210239
-0.00052554891
-0.00055664192
-0.00058523227
-0.00061095726
-0.00063351293
-0.00065267983
-0.00066828517
-0.00068019815
-0.00068826924
-0.00069213446
-0.0006920511
-0.00068833858
-0.00068123347
-0.00067105242
-0.00065785791
-0.00064214042
-0.00062375661
-0.00060361453
-0.00058130857
-0.00055784926
-0.00053305007
-0.00050705336
-0.00048078405
-0.00045281979
-0.00042536536
-0.00039525993
-0.00036400314
-0.00033852377
-0.00011712063
-0.00014022802
-0.00016962644
-0.00021303102
-0.00025237206
-0.00028156492
-0.00031813304
-0.00036190913
-0.00040008894
-0.00043295149
-0.00046736337
-0.00050202666
-0.00053432574
-0.00056420332
-0.00059205457
-0.0006178229
-0.00064143547
-0.00066297916
-0.00068259883
-0.00070048441
-0.00071651389
-0.00072959287
-0.00073791087
-0.00074122358
-0.00074017038
-0.00073538013
-0.0007268477
-0.00071506834
-0.00069971632
-0.00068175553
-0.00066063269
-0.00063735002
-0.00061189165
-0.00058399014
-0.00055530111
-0.0005233612
-0.00049138927
-0.00045769563
-0.00042039434
-0.00038717293
-0.00020151859
-0.00024722207
-0.00029363381
-0.00035903935
-0.00042497677
-0.00047689699
-0.00053286155
-0.00059804039
-0.00065616861
-0.00070530028
-0.00075327417
-0.00080141778
-0.00084635529
-0.00088682285
-0.00092279385
-0.00095402231
-0.00098023801
-0.0010012902
-0.0010171
-0.0010276131
-0.0010326959
-0.0010323293
-0.001027453
-0.0010185502
-0.0010054681
-0.00098834357
-0.0009670326
-0.00094222845
-0.00091343976
-0.00088180589
-0.00084665597
-0.00080899942
-0.00076926406
-0.00072659232
-0.00068417889
-0.00063861624
-0.00059349123
-0.00054879956
-0.00050025223
-0.00045308005
-0.00010853671
-0.00013648578
-0.00019717855
-0.00026390649
-0.00032949617
-0.00037990985
-0.00043317683
-0.00049621184
-0.00055411986
-0.00060462541
-0.00065409771
-0.00070291602
-0.0007484473
-0.00079018926
-0.00082909485
-0.00086548601
-0.00089908231
-0.00092977604
-0.00095773579
-0.00098307252
-0.0010054898
-0.0010237909
-0.0010359626
-0.0010414558
-0.0010407954
-0.0010349805
-0.0010238025
-0.0010080195
-0.00098675911
-0.00096132312
-0.00093091143
-0.00089616575
-0.00085833827
-0.00081516661
-0.00077155913
-0.00072342753
-0.00067355501
-0.00062495417
-0.00057489495
-0.00052255453
-0.0004845721
-0.00057897897
-0.00065077186
-0.00074085889
-0.00084853196
-0.00094302977
-0.0010274017
-0.0011136528
-0.0011943764
-0.0012650537
-0.0013297096
-0.0013890597
-0.0014410991
-0.0014853209
-0.0015222692
-0.0015522601
-0.0015754061
-0.0015919085
-0.0016018196
-0.0016051767
-0.0016022861
-0.0015937731
-0.0015811738
-0.0015651832
-0.0015451101
-0.0015207731
-0.001491398
-0.0014578143
-0.0014188536
-0.0013755445
-0.0013274138
-0.0012735358
-0.0012169745
-0.0011527054
-0.0010859692
-0.0010148407
-0.00093695592
-0.00085571147
-0.00077233327
-0.00068323658
0.00019290107
2.4676624e-05
-0.00018553326
-0.00032846274
-0.00042959176
-0.00052238196
-0.00062092486
-0.00072717667
-0.00082975188
-0.00092169282
-0.0010060538
-0.0010845798
-0.0011561088
-0.0012200932
-0.0012771329
-0.0013279682
-0.0013732802
-0.0014137623
-0.001450076
-0.0014826719
-0.0015110578
-0.0015339252
-0.0015498863
-0.0015586979
-0.0015601339
-0.0015557332
-0.0015443418
-0.0015277972
-0.001503229
-0.0014724153
-0.0014340696
-0.0013872517
-0.0013353555
-0.0012743614
-0.0012077255
-0.0011366217
-0.0010623108
-0.00098598694
-0.00090611615
-0.0008186511
-0.0016223688
-0.0016847968
-0.0017662007
-0.0018976175
-0.0020577429
-0.0022042283
-0.0023090872
-0.0023905003
-0.0024610692
-0.0025170824
-0.0025555805
-0.0025806571
-0.0025960318
-0.002602864
-0.0026019757
-0.0025944539
-0.0025814848
-0.0025640518
-0.0025426979
-0.0025197884
-0.0024960617
-0.0024729459
-0.0024508868
-0.00242996
-0.0024094913
-0.0023884813
-0.0023652109
-0.0023400727
-0.0023108204
-0.0022765672
-0.0022381109
-0.0021907675
-0.0021352859
-0.002070415
-0.0019910522
-0.0018987358
-0.0017911271
-0.0016676467
-0.0015318767
-0.0013926413
0.001316366
0.00045625463
-0.00018456977
-0.00051747274
-0.00078103769
-0.0010429545
-0.0013051211
-0.0015436039
-0.0017471321
-0.0019060855
-0.0020262724
-0.0021221057
-0.0021979639
-0.0022527664
-0.0022898857
-0.0023165188
-0.0023365729
-0.0023525283
-0.0023667029
-0.0023794193
-0.0023913817
-0.002403645
-0.0024158405
-0.0024288359
-0.0024403843
-0.0024515199
-0.0024603151
-0.0024628796
-0.0024622902
-0.0024483982
-0.0024201898
-0.0023768813
-0.0023108165
-0.0022175766
-0.0020862705
-0.0019076977
-0.0016661924
-0.0013501552
-0.0009524938
-0.00054309812
-0.015067915
-0.0098158271
-0.0076550182
-0.007733121
-0.0073867439
-0.0067335745
-0.0061705373
-0.005728544
-0.0053875325
-0.0051068689
-0.0048599026
-0.0046279107
-0.0044070328
-0.0042056231
-0.0040276238
-0.0038706221
-0.0037339696
-0.0036188117
-0.0035260893
-0.0034542429
-0.0034035261
-0.0033711611
-0.0033593619
-0.0033655478
-0.0033897416
-0.0034380894
-0.0035004505
-0.003586513
-0.0037062182
-0.0038555452
-0.0040323253
-0.004247202
-0.0045108693
-0.0048277975
-0.0052068356
-0.0056654251
-0.0062238514
-0.0068812372
-0.0076540985
-0.0082708767
-7.6804722e-05
-1.0275878e-05
-1.4808448e-05
-2.4334655e-06
-6.3610347e-06
-4.4001719e-06
-3.5508921e-06
-2.6362633e-06
-1.2495942e-06
1.3868212e-06
2.9176738e-06
4.8758082e-07
-3.8559191e-06
-8.7699256e-06
-1.2767576e-05
-1.5346145e-05
-1.6721651e-05
-1.6843691e-05
-1.5922069e-05
-1.2255944e-05
-5.5305943e-06
4.3474011e-06
1.6972702e-05
3.1270969e-05
4.6294391e-05
6.0705444e-05
7.2938428e-05
8.1425383e-05
8.4351787e-05
8.1194443e-05
7.454518e-05
5.9603254e-05
5.110215e-05
2.6742243e-05
3.4922306e-05
-2.1971466e-05
3.3025989e-05
-8.7754462e-05
2.007552e-05
-0.00013493347
-5.8804502e-07
-3.1540205e-06
-4.6986651e-06
-4.9892641e-06
-6.7355627e-06
-5.6363046e-06
-4.7001202e-06
-3.9028347e-06
-3.1430977e-06
-2.2352161e-06
-1.7029254e-06
-5.0039714e-06
-1.0010392e-05
-1.3649831e-05
-1.5952345e-05
-1.7171319e-05
-1.8240012e-05
-1.9113196e-05
-1.9025024e-05
-1.5611878e-05
-8.3461434e-06
2.4089003e-06
1.591327e-05
3.1164501e-05
4.7312753e-05
6.2901995e-05
7.6252623e-05
8.5480195e-05
8.9069973e-05
8.7425545e-05
8.0347525e-05
6.6503146e-05
5.4588791e-05
3.4789213e-05
3.1824421e-05
-1.0194185e-05
2.2837637e-05
-6.6056283e-05
1.2878216e-05
-0.00010523584
-2.19012e-05
-7.5334019e-06
-4.6455324e-06
-6.1125374e-06
-6.2901819e-06
-5.4109116e-06
-5.6818829e-06
-5.2289978e-06
-4.805359e-06
-5.1098721e-06
-5.6088848e-06
-9.4728901e-06
-1.5102172e-05
-1.9232639e-05
-2.1362619e-05
-2.2442977e-05
-2.3252264e-05
-2.3820128e-05
-2.2955026e-05
-1.9053219e-05
-1.088996e-05
9.9854063e-07
1.5621273e-05
3.203542e-05
4.9360602e-05
6.61786e-05
8.0539394e-05
9.0556515e-05
9.4863685e-05
9.3635754e-05
8.6146444e-05
7.2841932e-05
5.8767305e-05
4.1484948e-05
3.0355107e-05
-1.5098424e-06
1.4358131e-05
-4.7897922e-05
1.1773857e-05
-4.5563058e-05
5.0987954e-06
-4.5782212e-06
-3.98461e-06
-5.4692308e-06
-5.7866674e-06
-5.4639304e-06
-7.0571179e-06
-8.0209362e-06
-8.0022596e-06
-8.6126336e-06
-1.0504264e-05
-1.4787261e-05
-2.0237161e-05
-2.4365776e-05
-2.6886994e-05
-2.8602264e-05
-2.9413035e-05
-2.9056754e-05
-2.6616996e-05
-2.1565715e-05
-1.2325533e-05
8.4287869e-07
1.6735594e-05
3.4401929e-05
5.2904402e-05
7.0859438e-05
8.6082368e-05
9.6754549e-05
0.00010153639
0.00010026771
9.2442583e-05
7.9036379e-05
6.3316017e-05
4.6785392e-05
2.9815778e-05
4.4029731e-06
8.290314e-06
-3.39063e-05
3.6152885e-06
-5.5274488e-05
-2.4203856e-05
-1.1547411e-05
-5.2853318e-06
-4.7952203e-06
-5.3912116e-06
-6.0329237e-06
-8.0670624e-06
-1.0688951e-05
-1.186655e-05
-1.2140838e-05
-1.4939998e-05
-1.9658182e-05
-2.4913718e-05
-2.9007923e-05
-3.2081217e-05
-3.4361516e-05
-3.4993089e-05
-3.3624903e-05
-2.9828623e-05
-2.3452098e-05
-1.3071009e-05
1.2232956e-06
1.8223421e-05
3.7063416e-05
5.6837518e-05
7.6005713e-05
9.2342787e-05
0.00010377717
0.00010887025
0.0001072479
9.8860705e-05
8.5061382e-05
6.8100554e-05
5.1589199e-05
3.1485963e-05
8.2788129e-06
4.4547938e-06
-2.5055786e-05
3.1696726e-06
-3.2043675e-05
4.6857354e-06
-5.3526803e-06
-4.1258277e-06
-4.3817454e-06
-5.718795e-06
-7.7073436e-06
-1.0496115e-05
-1.4073626e-05
-1.6136143e-05
-1.5978803e-05
-1.894329e-05
-2.4283499e-05
-2.9315831e-05
-3.3477791e-05
-3.6929722e-05
-3.9303951e-05
-3.9571462e-05
-3.7430627e-05
-3.2697488e-05
-2.5062961e-05
-1.3419948e-05
2.0518759e-06
2.0227868e-05
4.0331148e-05
6.141976e-05
8.1840089e-05
9.916087e-05
0.00011131826
0.00011679848
0.00011493426
0.00010610207
9.1703826e-05
7.3654715e-05
5.6830334e-05
3.5350954e-05
1.1458251e-05
1.6705693e-06
-1.9012383e-05
-1.8452672e-06
-3.5626666e-05
-2.158418e-05
-1.1464009e-05
-5.6530561e-06
-4.0227827e-06
-5.7182915e-06
-8.9738394e-06
-1.3829092e-05
-1.8624988e-05
-2.143588e-05
-2.1283592e-05
-2.2946033e-05
-2.8926915e-05
-3.4151654e-05
-3.846065e-05
-4.2055293e-05
-4.4107179e-05
-4.3901778e-05
-4.1157251e-05
-3.54082e-05
-2.6229616e-05
-1.3200473e-05
3.4572696e-06
2.2882632e-05
4.4357213e-05
6.6863633e-05
8.8596611e-05
0.0001069823
0.00011983753
0.00012553431
0.00012332508
0.00011388826
9.8616326e-05
7.9345457e-05
6.1854213e-05
3.877116e-05
1.4597871e-05
4.5067072e-07
-1.4813399e-05
-4.3845655e-06
-3.0938042e-05
1.4676725e-06
-5.7715881e-06
-5.3528738e-06
-4.0801311e-06
-5.9594179e-06
-9.9996634e-06
-1.6988384e-05
-2.3318784e-05
-2.7043703e-05
-2.8084641e-05
-2.7483999e-05
-3.3192985e-05
-3.9138957e-05
-4.3559483e-05
-4.70882e-05
-4.8783869e-05
-4.8050401e-05
-4.4555404e-05
-3.7818068e-05
-2.7211326e-05
-1.2812652e-05
5.0370636e-06
2.577664e-05
4.86862e-05
7.2705643e-05
9.5856552e-05
0.00011542382
0.00012905173
0.0001349771
0.00013245806
0.00012232916
0.00010606282
8.5580426e-05
6.7003999e-05
4.1059112e-05
1.772438e-05
4.5268332e-07
-1.2258981e-05
-8.9186094e-06
-2.9779424e-05
-1.7574704e-05
-1.079098e-05
-7.3831591e-06
-5.5682827e-06
-7.6171035e-06
-1.2649742e-05
-2.0860384e-05
-2.8895527e-05
-3.340126e-05
-3.5682866e-05
-3.3915709e-05
-3.7363968e-05
-4.4348035e-05
-4.9135901e-05
-5.2274261e-05
-5.3453822e-05
-5.2091324e-05
-4.7719628e-05
-3.977298e-05
-2.7756399e-05
-1.1986745e-05
7.2260691e-06
2.943104e-05
5.3947987e-05
7.9627126e-05
0.00010425384
0.00012495841
0.00013925423
0.00014535606
0.00014250963
0.00013163815
0.00011419806
9.2427636e-05
7.2017989e-05
4.3031769e-05
2.0269083e-05
8.3901206e-07
-9.8580109e-06
-1.1296665e-05
-3.3965204e-05
-1.9434502e-06
-6.787927e-06
-8.3696048e-06
-8.2881354e-06
-1.1287226e-05
-1.7179671e-05
-2.5171922e-05
-3.4627417e-05
-4.0279995e-05
-4.2656995e-05
-4.1874953e-05
-4.2356785e-05
-4.9617145e-05
-5.5074096e-05
-5.7779073e-05
-5.8337478e-05
-5.6176716e-05
-5.0803458e-05
-4.1601202e-05
-2.8174276e-05
-1.0981098e-05
9.7286394e-06
3.351241e-05
5.9742119e-05
8.7210186e-05
0.00011343148
0.00013542148
0.00015045094
0.00015670392
0.00015343491
0.00014169761
0.00012294483
9.9745242e-05
7.6962762e-05
4.6513972e-05
2.2920924e-05
1.6567913e-06
-8.8947281e-06
-1.4604256e-05
-3.1112483e-05
-1.4945911e-05
-1.1671906e-05
-1.2060263e-05
-1.2718633e-05
-1.62278e-05
-2.3042746e-05
-3.0074959e-05
-3.8739287e-05