/*--------------------------------*- C++ -*----------------------------------*\
  =========                 |
  \\      /  F ield         | OpenFOAM: The Open Source CFD Toolbox
   \\    /   O peration     | Website:  https://openfoam.org
    \\  /    A nd           | Version:  11
     \\/     M anipulation  |
\*---------------------------------------------------------------------------*/
FoamFile
{
    format      ascii;
    class       surfaceScalarField;
    location    "5";
    object      phi;
}
// * * * * * * * * * * * * * * * * * * * * * * * * * * * * * * * * * * * * * //

dimensions      [0 3 -1 0 0 0 0];

internalField   nonuniform List<scalar> 
18960
(
0.02492144
0.00024113916
-0.025162579
0.024881264
4.0176193e-05
0.025206165
-0.0003249017
0.025568783
-0.00036261761
0.025838961
-0.00027017784
0.025988815
-0.00014985397
0.026059333
-7.0518438e-05
0.026092983
-3.3649412e-05
0.026109511
-1.6528824e-05
0.026117395
-7.8835045e-06
0.026121056
-3.6608177e-06
0.026122687
-1.6316026e-06
0.02612334
-6.5306851e-07
0.026123564
-2.2332784e-07
0.02612365
-8.6182369e-08
0.026123739
-8.8795706e-08
0.026123882
-1.4354494e-07
0.026124098
-2.1631161e-07
0.026124384
-2.859211e-07
0.026124683
-2.9875922e-07
0.02612499
-3.0710394e-07
0.026125295
-3.049833e-07
0.026125601
-3.0604094e-07
0.026125906
-3.0454466e-07
0.026126243
-3.3753169e-07
0.026126651
-4.0735517e-07
0.026127163
-5.1180486e-07
0.02612783
-6.6701955e-07
0.026128637
-8.0744061e-07
0.026129558
-9.2076649e-07
0.026130151
-5.9341082e-07
0.0261305
-3.4921301e-07
0.026127955
2.5449872e-06
0.026127145
8.1035124e-07
0.026110386
1.675934e-05
0.026104655
5.7309504e-06
0.02604827
5.6384954e-05
0.026010943
3.7326729e-05
0.025678412
0.00033253116
0.00043061725
0.025247795
0.026178456
1.6403838e-05
-0.02595372
0.02630444
-8.580797e-05
0.026162199
-0.00018266038
0.025933532
-0.00013395152
0.025736739
-7.3384423e-05
0.025630639
-4.3753629e-05
0.025585617
-2.5496252e-05
0.025574222
-2.225487e-05
0.025578874
-2.1180787e-05
0.025590137
-1.9146461e-05
0.02560343
-1.6953432e-05
0.025616716
-1.4917946e-05
0.025629119
-1.3056088e-05
0.025640238
-1.1342899e-05
0.025649901
-9.748492e-06
0.025658063
-8.2514577e-06
0.025664745
-6.8248307e-06
0.025669966
-5.4374481e-06
0.025673763
-4.0831659e-06
0.025676126
-2.6619351e-06
0.025676964
-1.1452017e-06
0.025676449
2.1048955e-07
0.025674392
1.7512588e-06
0.02567071
3.3767137e-06
0.025665278
5.0944614e-06
0.025657966
6.9050551e-06
0.025648633
8.8208032e-06
0.025637134
1.0832726e-05
0.02562335
1.2975714e-05
0.025607247
1.5182285e-05
0.025589166
1.7488217e-05
0.025569522
1.9294385e-05
0.025548829
2.3237883e-05
0.025529232
2.0407878e-05
0.025508354
3.763726e-05
0.025500157
1.3928084e-05
0.025508846
4.7695666e-05
0.02552894
1.7232962e-05
0.025711367
0.00015010433
5.9842148e-05
0.026082142
0.02567922
-1.6251643e-05
-0.025646565
0.025658759
-6.5346961e-05
0.025650134
-0.00017403508
0.025697323
-0.00018114046
0.025779292
-0.00015535351
0.025872522
-0.0001369836
0.025951052
-0.00010402601
0.026007763
-7.8966404e-05
0.026047123
-6.0540538e-05
0.026074262
-4.6285508e-05
0.026092867
-3.5558826e-05
0.026105625
-2.7675454e-05
0.026114466
-2.1897077e-05
0.026120709
-1.7585892e-05
0.026125193
-1.4232533e-05
0.026128447
-1.150563e-05
0.026130835
-9.2129443e-06
0.026132598
-7.200576e-06
0.026133886
-5.3712203e-06
0.026134863
-3.6388326e-06
0.026135692
-1.9740455e-06
0.026136007
-1.0421448e-07
0.026135989
1.7691048e-06
0.026135623
3.742912e-06
0.026134827
5.8905014e-06
0.026133473
8.2586094e-06
0.026131428
1.086622e-05
0.026128539
1.3721681e-05
0.026124634
1.6880797e-05
0.026119525
2.0290802e-05
0.02611276
2.4253475e-05
0.02610418
2.7873996e-05
0.026092482
3.4936149e-05
0.026076928
3.5962413e-05
0.02605733
5.7235288e-05
0.026023887
4.7370545e-05
0.02597605
9.5533226e-05
0.025900805
9.2477977e-05
0.02588407
0.00016683848
0.00019101785
0.025752895
0.026178804
-7.4098394e-05
-0.026120957
0.026193838
-8.0381359e-05
0.026126837
-0.00010703417
0.026031988
-8.6291613e-05
0.025930061
-5.3426694e-05
0.025848772
-5.5694725e-05
0.025788425
-4.3678282e-05
0.025747257
-3.7799064e-05
0.025721409
-3.4691928e-05
0.025706696
-3.1572729e-05
0.025699619
-2.8482142e-05
0.025697424
-2.5479868e-05
0.025698081
-2.2554262e-05
0.025700265
-1.9769879e-05
0.025703157
-1.7124545e-05
0.025706224
-1.4572555e-05
0.025709074
-1.2063423e-05
0.025711421
-9.5477175e-06
0.025713048
-6.9980017e-06
0.025713814
-4.4047619e-06
0.025713527
-1.6864846e-06
0.025712252
1.1703367e-06
0.025709819
4.202684e-06
0.025706173
7.3887246e-06
0.025701337
1.0726146e-05
0.0256954
1.4196113e-05
0.025688509
1.7756818e-05
0.025680912
2.1318852e-05
0.025672991
2.4801729e-05
0.025665258
2.802317e-05
0.025658304
3.1207821e-05
0.025653122
3.3056033e-05
0.02565084
3.721849e-05
0.025653529
3.3272942e-05
0.025666105
4.4660001e-05
0.025685377
2.8097628e-05
0.025736658
4.4252278e-05
0.025805496
2.3640562e-05
0.025913137
5.9196812e-05
5.2749935e-05
0.026051405
0.0257539
-6.7058467e-05
-0.02576094
0.025740162
-6.6642501e-05
0.02572484
-9.1712383e-05
0.0257323
-9.3751847e-05
0.025773704
-9.4830702e-05
0.02582366
-0.00010565083
0.025878947
-9.8964945e-05
0.025927896
-8.6747866e-05
0.025968059
-7.4854992e-05
0.026000219
-6.3733164e-05
0.026025822
-5.4085078e-05
0.026045938
-4.5596245e-05
0.026061513
-3.8129029e-05
0.026073446
-3.1702325e-05
0.026082567
-2.624604e-05
0.026089541
-2.1546747e-05
0.026094839
-1.7360766e-05
0.026098788
-1.3497126e-05
0.026101623
-9.833349e-06
0.026103503
-6.2840605e-06
0.026104487
-2.670517e-06
0.026104574
1.0831105e-06
0.02610389
4.886768e-06
0.026102411
8.8672765e-06
0.026100046
1.3091605e-05
0.026096714
1.7527649e-05
0.026092329
2.2142335e-05
0.026086745
2.6902329e-05
0.026079676
3.187116e-05
0.026070757
3.69422e-05
0.026059363
4.2601663e-05
0.02604483
4.7589126e-05
0.026026103
5.5945891e-05
0.026000919
5.8456989e-05
0.025972761
7.2817482e-05
0.025926544
7.4314275e-05
0.025874165
9.6631677e-05
0.025812662
8.5143576e-05
0.025758778
0.00011308034
0.00010947292
0.025702055
0.026063935
-8.3819237e-05
-0.026047175
0.026057567
-6.0274136e-05
0.026035742
-6.9887741e-05
0.025998638
-5.6647125e-05
0.025959506
-5.5698707e-05
0.025920274
-6.6418963e-05
0.025882681
-6.1372551e-05
0.025849053
-5.311893e-05
0.025822164
-4.7966437e-05
0.025801661
-4.3230198e-05
0.025786824
-3.9248449e-05
0.025776649
-3.5420629e-05
0.025770032
-3.1512173e-05
0.025765945
-2.7615295e-05
0.025763565
-2.3865746e-05
0.025762288
-2.0270293e-05
0.025761653
-1.6725879e-05
0.02576126
-1.3103635e-05
0.025760811
-9.3849925e-06
0.025760072
-5.5449868e-06
0.025758873
-1.4713079e-06
0.025757218
2.73866e-06
0.025754953
7.1510074e-06
0.025752091
1.1729707e-05
0.025748744
1.6438277e-05
0.025745111
2.1160395e-05
0.025741439
2.5814959e-05
0.025738081
3.0260618e-05
0.025735507
3.4444289e-05
0.025734324
3.8125173e-05
0.025735141
4.1784624e-05
0.025738933
4.3797807e-05
0.025746634
4.8244489e-05
0.025759241
4.5850507e-05
0.025780036
5.2022346e-05
0.025809383
4.4967337e-05
0.02585134
5.4674501e-05
0.025899064
3.7419833e-05
0.025951753
6.0390782e-05
6.0288252e-05
0.026000938
0.025777809
-6.5312676e-05
-0.025796315
0.025773307
-5.5772246e-05
0.02577057
-6.7150422e-05
0.025782849
-6.8926219e-05
0.025805311
-7.8160759e-05
0.025831191
-9.2299432e-05
0.025862837
-9.3017867e-05
0.025894935
-8.5217735e-05
0.025926407
-7.943768e-05
0.025955055
-7.18782e-05
0.025979912
-6.4106247e-05
0.026001069
-5.6577177e-05
0.026018819
-4.9262299e-05
0.026033467
-4.226305e-05
0.026045282
-3.5680974e-05
0.026054649
-2.9637049e-05
0.026061966
-2.404325e-05
0.026067558
-1.8695708e-05
0.026071626
-1.3452226e-05
0.026074286
-8.2058488e-06
0.026075747
-2.9322556e-06
0.026075885
2.6006758e-06
0.026074897
8.1391882e-06
0.02607268
1.3947082e-05
0.026069298
1.9820396e-05
0.026064689
2.5769225e-05
0.026058715
3.1788756e-05
0.026051201
3.7774263e-05
0.026041883
4.376307e-05
0.026030321
4.9686737e-05
0.026015992
5.6113418e-05
0.025998228
6.1561597e-05
0.02597673
6.9742975e-05
0.025950301
7.2279571e-05
0.025919343
8.2980698e-05
0.025880407
8.3903204e-05
0.025840522
9.4558849e-05
0.025797779
8.0163515e-05
0.025758107
0.00010006232
8.9580482e-05
0.025728815
0.025985862
-7.9481679e-05
-0.025971693
0.025988713
-5.862392e-05
0.025985285
-6.3721676e-05
0.025974053
-5.7693997e-05
0.025960442
-6.4550518e-05
0.025942714
-7.4571532e-05
0.025924478
-7.4781561e-05
0.025904512
-6.5251192e-05
0.025885809
-6.0735332e-05
0.025869599
-5.5667841e-05
0.025855954
-5.0461569e-05
0.025844889
-4.5511713e-05
0.02583621
-4.0583648e-05
0.025829627
-3.5680208e-05
0.025824738
-3.0792043e-05
0.025821071
-2.596951e-05
0.025818244
-2.1216492e-05
0.025815978
-1.6429639e-05
0.025814033
-1.1507235e-05
0.025812212
-6.3845813e-06
0.025810306
-1.0263579e-06
0.025808802
4.1047133e-06
0.025806858
1.0082451e-05
0.025804834
1.5971613e-05
0.025802862
2.1792582e-05
0.025801109
2.7521698e-05
0.025799888
3.300955e-05
0.025799519
3.8143414e-05
0.02580028
4.3002598e-05
0.02580261
4.7356654e-05
0.02580702
5.1703032e-05
0.02581404
5.4541624e-05
0.025824473
5.9310277e-05
0.025837776
5.8975974e-05
0.025855845
6.4912535e-05
0.025876738
6.3010296e-05
0.025900233
7.1063378e-05
0.025922946
5.7450497e-05
0.025944545
7.8463615e-05
7.5528976e-05
0.025958596
0.025819945
-7.1063515e-05
-0.025828363
0.025820276
-5.8954695e-05
0.025823536
-6.6981793e-05
0.025832273
-6.6430692e-05
0.025843131
-7.5408988e-05
0.025857337
-8.8777836e-05
0.025874822
-9.2266005e-05
0.025895901
-8.6330657e-05
0.025917849
-8.2683333e-05
0.025939119
-7.6937457e-05
0.025958961
-7.0304049e-05
0.025977023
-6.3573163e-05
0.025993104
-5.6664521e-05
0.026007091
-4.9667611e-05
0.026019064
-4.2764916e-05
0.026029079
-3.5984205e-05
0.026037182
-2.9320191e-05
0.026043487
-2.2734652e-05
0.026048145
-1.6164999e-05
0.026051302
-9.5417112e-06
0.026053086
-2.8099913e-06
0.026052755
4.4351005e-06
0.026051553
1.1285019e-05
0.026049116
1.8408566e-05
0.026045345
2.5563915e-05
0.02604022
3.2646003e-05
0.02603364
3.9589986e-05
0.026025356
4.6427625e-05
0.026015149
5.3208815e-05
0.026002826
5.9680551e-05
0.025988198
6.6330777e-05
0.025970945
7.1794075e-05
0.025951295
7.8960962e-05
0.025928038
8.2232698e-05
0.025903252
8.9698627e-05
0.025875829
9.0433331e-05
0.025849446
9.7445749e-05
0.025821727
8.5170399e-05
0.02579811
0.00010207979
9.2307596e-05
0.025781332
0.025946214
-8.6152911e-05
-0.025931124
0.025955313
-6.8053922e-05
0.025959014
-7.0682555e-05
0.025959483
-6.6899627e-05
0.025958074
-7.400025e-05
0.025952843
-8.3546737e-05
0.025945853
-8.5276097e-05
0.02593718
-7.7657256e-05
0.025927296
-7.2799863e-05
0.025917694
-6.7335238e-05
0.025908581
-6.1191404e-05
0.025900354
-5.534587e-05
0.025893229
-4.9539211e-05
0.025887224
-4.3663527e-05
0.025882258
-3.779882e-05
0.025878213
-3.1938972e-05
0.025874898
-2.6004605e-05
0.025872083
-1.9920166e-05
0.025869596
-1.3678392e-05
0.02586732
-7.2654621e-06
0.025865064
-5.5416545e-07
0.025863821
5.6786413e-06
0.025862226
1.2879475e-05
0.02586076
1.9875306e-05
0.025859581
2.6742631e-05
0.025858843
3.3383831e-05
0.025858695
3.9737736e-05
0.02585935
4.5773453e-05
0.02586107
5.1488695e-05
0.025864095
5.6655725e-05
0.025868636
6.1789228e-05
0.025874795
6.5635626e-05
0.025882983
7.0772274e-05
0.025892198
7.3017775e-05
0.025903011
7.8886148e-05
0.025913565
7.9878688e-05
0.0259237
8.7311363e-05
0.025931233
7.7636603e-05
0.025937055
9.625826e-05
9.2936572e-05
0.025936426
0.025864554
-8.3586354e-05
-0.02586712
0.025866387
-6.9886933e-05
0.025871264
-7.5559555e-05
0.025878314
-7.3949779e-05
0.025885618
-8.1305054e-05
0.025894994
-9.2922668e-05
0.025904836
-9.5117799e-05
0.025917237
-9.0058629e-05
0.025930371
-8.5933777e-05
0.025944503
-8.1466958e-05
0.025958793
-7.5481458e-05
0.025972565
-6.9117271e-05
0.025985455
-6.2429359e-05
0.025997236
-5.5445068e-05
0.026007731
-4.8293988e-05
0.026016779
-4.0986268e-05
0.026024363
-3.3588957e-05
0.026030428
-2.59853e-05
0.026034983
-1.8232923e-05
0.026038124
-1.0406344e-05
0.026040046
-2.4763592e-06
0.026039542
6.1825618e-06
0.026038158
1.4263276e-05
0.026035582
2.2451851e-05
0.026031731
3.0592761e-05
0.026026536
3.8579132e-05
0.026019925
4.6349243e-05
0.026011846
5.3852156e-05
0.026002223
6.1111934e-05
0.025990962
6.7916662e-05
0.025978104
7.4646737e-05
0.025963526
8.0214227e-05
0.02594762
8.6677938e-05
0.025930716
8.9921253e-05
0.025912948
9.6654314e-05
0.025895293
9.7533946e-05
0.025879123
0.00010348136
0.025862395
9.4365091e-05
0.025849866
0.00010878648
0.00010317621
0.025839627
0.025935156
-9.6384495e-05
-0.025922358
0.025945607
-8.0338132e-05
0.025952956
-8.2908489e-05
0.025958151
-7.9145339e-05
0.025962173
-8.5326227e-05
0.025962795
-9.354491e-05
0.025962207
-9.4529943e-05
0.025960785
-8.8636732e-05
0.025958263
-8.3411511e-05
0.025954733
-7.7937045e-05
0.025950672
-7.1420797e-05
0.025946502
-6.4946571e-05
0.02594251
-5.8437402e-05
0.025938843
-5.1778766e-05
0.025935582
-4.5032858e-05
0.025932682
-3.8086551e-05
0.025930052
-3.0958161e-05
0.025927666
-2.3599719e-05
0.025925472
-1.6038859e-05
0.025923353
-8.2877682e-06
0.02592101
-1.3336411e-07
0.025920007
7.1861165e-06
0.025918766
1.5504058e-05
0.025917531
2.3687374e-05
0.025916518
3.1605629e-05
0.025915847
3.9250172e-05
0.025915627
4.6568936e-05
0.025915969
5.3510475e-05
0.025916986
6.0094975e-05
0.025918737
6.6165375e-05
0.025921243
7.2140475e-05
0.02592443
7.7027082e-05
0.025927949
8.31592e-05
0.025931888
8.5981927e-05
0.025936074
9.2468817e-05
0.025938737
9.4871169e-05
0.025940574
0.00010164441
0.025940287
9.4651687e-05
0.025939442
0.00010963161
0.00010894158
0.025933677
0.025906909
-0.00010052877
-0.025902765
0.025911952
-8.5381263e-05
0.025916953
-8.7909837e-05
0.025922634
-8.4825473e-05
0.025927644
-9.0336983e-05
0.025933514
-9.9414228e-05
0.025939668
-0.00010068481
0.025947106
-9.6074504e-05
0.025955652
-9.1957612e-05
0.025965097
-8.738169e-05
0.025975025
-8.134842e-05
0.025984973
-7.4895121e-05
0.025994664
-6.8128693e-05
0.026003868
-6.0982655e-05
0.026012331
-5.349551e-05
0.026019822
-4.5577522e-05
0.026026135
-3.7270786e-05
0.026031246
-2.8711334e-05
0.026035161
-1.9953395e-05
0.026037893
-1.1020207e-05
0.026039733
-1.9730412e-06
0.026039
7.9186651e-06
0.026037335
1.7169041e-05
0.026034767
2.6255565e-05
0.026031079
3.5294125e-05
0.026026236
4.4092478e-05
0.026020221
5.2584691e-05
0.026013032
6.069895e-05
0.026004689
6.8437776e-05
0.02599525
7.5604781e-05
0.025984815
8.2575291e-05
0.025973602
8.8240625e-05
0.025961668
9.5092516e-05
0.025949782
9.7868226e-05
0.025937553
0.00010469734
0.025926486
0.00010593842
0.025916179
0.00011195119
0.025905733
0.00010509768
0.025898612
0.00011675322
0.00011578899
0.025891764
0.025944217
-0.00011201385
-0.025932732
0.025955221
-9.6384548e-05
0.025963514
-9.620319e-05
0.025970175
-9.1486545e-05
0.025975804
-9.5966106e-05
0.025979279
-0.00010288922
0.025982574
-0.00010397965
0.025985338
-9.8838024e-05
0.025987613
-9.4233414e-05
0.025988701
-8.8469266e-05
0.025988942
-8.1589874e-05
0.025988703
-7.4655373e-05
0.025988188
-6.7613955e-05
0.025987535
-6.0329254e-05
0.0259867
-5.2660918e-05
0.025985644
-4.4521156e-05
0.025984402
-3.602901e-05
0.025982995
-2.7304671e-05
0.025981429
-1.8387501e-05
0.025979692
-9.2828489e-06
0.025977516
2.0272675e-07
0.025976635
8.7996435e-06
0.025975656
1.8148009e-05
0.025974276
2.7635707e-05
0.025972905
3.6665199e-05
0.025971624
4.5373549e-05
0.025970487
5.3721999e-05
0.025969528
6.16577e-05
0.025968758
6.9207866e-05
0.025968161
7.6201204e-05
0.025967671
8.3065812e-05
0.025967252
8.8659572e-05
0.025966623
9.5721462e-05
0.02596598
9.8511272e-05
0.025964985
0.00010569173
0.025962582
0.00010834234
0.025959657
0.00011487548
0.025955346
0.00010940869
0.02595144
0.00012065931
0.00012227623
0.025944953
0.025947584
-0.00011899585
-0.025940602
0.025953966
-0.00010276668
0.025959778
-0.00010201591
0.025965509
-9.7217125e-05
0.025970199
-0.0001006566
0.025974672
-0.00010736189
0.025979445
-0.00010875213
0.025985035
-0.00010442809
0.02599106
-0.00010025851
0.025997725
-9.5134084e-05
0.026004955
-8.8820571e-05
0.026012419
-8.2119556e-05
0.026019872
-7.5066138e-05
0.026026992
-6.7449175e-05
0.026033452
-5.9121102e-05
0.026039129
-5.0198669e-05
0.026043962
-4.0862144e-05
0.0260479
-3.1242326e-05
0.02605091
-2.1397018e-05
0.026053002
-1.1375511e-05
0.026054485
-1.280239e-06
0.026053534
9.7507679e-06
0.026051418
2.0264037e-05
0.026048899
3.0154618e-05
0.026045454
4.0109929e-05
0.026041068
4.9759723e-05
0.026035756
5.9033791e-05
0.02602956
6.7853811e-05
0.026022556
7.6212348e-05
0.026014825
8.3932343e-05
0.026006541
9.1349491e-05
0.025997753
9.7447677e-05
0.025988949
0.00010452579
0.025979702
0.00010775782
0.025971053
0.00011434044
0.025963236
0.00011615958
0.025955646
0.0001224656
0.025947614
0.00011744099
0.025941793
0.00012648015
0.00012799571
0.025936073
0.025965567
-0.00012923
-0.025955333
0.025975473
-0.00011267261
0.025984251
-0.00011079312
0.025992804
-0.00010577048
0.025999803
-0.00010765525
0.026005838
-0.00011339719
0.026011507
-0.00011442087
0.026016969
-0.00010989018
0.026021928
-0.00010521785
0.026026169
-9.9375495e-05
0.026029874
-9.2525051e-05
0.026033059
-8.5304513e-05
0.026035637
-7.7644683e-05
0.026037475
-6.928633e-05
0.02603863
-6.0276044e-05
0.026039235
-5.0803986e-05
0.026039378
-4.1005169e-05
0.026039084
-3.09486e-05
0.026038351
-2.0664283e-05
0.026037154
-1.0177755e-05
0.026035272
6.0127731e-07
0.026034394
1.0628831e-05
0.026033569
2.1089581e-05
0.026031803
3.1920202e-05
0.026029769
4.2144323e-05
0.026027528
5.1999881e-05
0.026025114
6.1448363e-05
0.026022536
7.0431239e-05
0.026019787
7.896179e-05
0.026016836
8.6882835e-05
0.02601364
9.4546387e-05
0.026010144
0.00010094315
0.026006237
0.00010843264
0.026001939
0.00011205594
0.025997079
0.00011920067
0.025991431
0.0001218075
0.025985058
0.00012883908
0.025977992
0.00012450648
0.025971811
0.00013266151
0.0001337171
0.025966089
0.025982689
-0.00013913631
-0.025972783
0.025990999
-0.00012098234
0.025998885
-0.00011867933
0.026006489
-0.000113375
0.026013124
-0.00011428945
0.026018797
-0.0001190709
0.026024069
-0.0001196926
0.026029938
-0.00011575954
0.026036035
-0.00011131482
0.026042436
-0.00010577579
0.026048985
-9.9073953e-05
0.026055304
-9.1623833e-05
0.026061136
-8.3476764e-05
0.02606641
-7.4560214e-05
0.026071146
-6.5012204e-05
0.026075317
-5.4974676e-05
0.02607885
-4.4538546e-05
0.026081677
-3.3775537e-05
0.026083771
-2.2758455e-05
0.026085165
-1.1571338e-05
0.026086125
-3.593584e-07
0.026084901
1.1853584e-05
0.02608243
2.3559791e-05
0.026079819
3.4532003e-05
0.026076459
4.5503737e-05
0.026072332
5.6127442e-05
0.026067462
6.6317549e-05
0.026061901
7.5992496e-05
0.026055722
8.514056e-05
0.026049018
9.3587558e-05
0.026041907
0.00010165665
0.026034471
0.0001083799
0.026026978
0.00011592507
0.026019159
0.00011987561
0.026011658
0.00012670126
0.026004464
0.00012900112
0.025997138
0.00013616496
0.025988986
0.000132659
0.025981908
0.00013973924
0.00014107597
0.025974549
0.026004248
-0.00014794497
-0.025995439
0.026013224
-0.0001299586
0.026021808
-0.00012726327
0.02603069
-0.00012225676
0.026038482
-0.00012208148
0.026045876
-0.00012646529
0.026053414
-0.00012723032
0.026061344
-0.00012368968
0.026068427
-0.00011839833
0.026074693
-0.00011204156
0.026080284
-0.00010466522
0.026085084
-9.6422919e-05
0.026089067
-8.7460494e-05
0.026092349
-7.7842177e-05
0.026094983
-6.7645817e-05
0.026096978
-5.6969559e-05
0.026098324
-4.5884789e-05
0.026099026
-3.4477779e-05
0.026099078
-2.280989e-05
0.026098424
-1.0917484e-05
0.02609684
1.2245896e-06
0.026095849
1.2843968e-05
0.026094712
2.4696966e-05
0.026092464
3.6780361e-05
0.026089649
4.8318555e-05
0.026086348
5.9428698e-05
0.026082594
7.007098e-05
0.026078402
8.0184904e-05
0.026073774
8.9768367e-05
0.026068714
9.8647789e-05
0.026063205
0.00010716587
0.026057245
0.00011434014
0.02605084
0.00012232931
0.026043913
0.00012680291
0.026036489
0.00013412484
0.026029081
0.0001364098
0.026020688
0.00014455761
0.026011748
0.00014159882
0.026003668
0.00014781935
0.00014895753
0.025995787
0.02602612
-0.00015573205
-0.026018333
0.026036194
-0.00014003177
0.026046072
-0.000137142
0.026055379
-0.00013156372
0.026063934
-0.00013063631
0.026071422
-0.0001339534
0.026079367
-0.00013517512
0.026086882
-0.00013120478
0.026094062
-0.000125578
0.026100604
-0.00011858408
0.02610655
-0.00011061097
0.02611199
-0.0001018627
0.026116977
-9.2447671e-05
0.026121498
-8.2362925e-05
0.026125501
-7.1649437e-05
0.026128921
-6.0389343e-05
0.026131718
-4.868129e-05
0.026133852
-3.6611978e-05
0.026135302
-2.4260305e-05
0.026136105
-1.1720589e-05
0.026136376
9.5357358e-07
0.026134914
1.4306203e-05
0.02613235
2.7261411e-05
0.02612947
3.9660469e-05
0.026125908
5.1880149e-05
0.026121637
6.3700116e-05
0.02611668
7.502727e-05
0.026111092
8.57729e-05
0.026104936
9.5924686e-05
0.026098291
0.00010529331
0.026091232
0.0001142244
0.026083831
0.00012174117
0.026076228
0.00012993243
0.026068285
0.00013474595
0.026060186
0.00014222378
0.026052254
0.00014434132
0.02604377
0.00015304165
0.026034418
0.00015095084
0.026025714
0.00015652319
0.00015775563
0.026016916
0.026047881
-0.00016356187
-0.026040051
0.026059193
-0.00015134361
0.026070572
-0.00014852116
0.026081103
-0.00014209464
0.026090654
-0.00014018811
0.026099348
-0.00014264729
0.02610858
-0.00014440638
0.026117308
-0.00013993276
0.02612519
-0.00013346066
0.02613256
-0.00012595403
0.026139337
-0.000117388
0.026145501
-0.00010802697
0.026151014
-9.7960047e-05
0.026155813
-8.7161694e-05
0.026159863
-7.5699861e-05
0.026163139
-6.3665133e-05
0.026165612
-5.1154166e-05
0.026167252
-3.8252574e-05
0.026168016
-2.5024151e-05
0.026167839
-1.1543217e-05
0.026166651
2.1414446e-06
0.026165393
1.5563889e-05
0.026163579
2.9075571e-05
0.02616076
4.2479362e-05
0.026157112
5.5528328e-05
0.026152737
6.8075539e-05
0.026147681
8.0082726e-05
0.026141984
9.1470115e-05
0.026135679
0.00010222981
0.026128812
0.00011215963
0.026121429
0.00012160739
0.026113581
0.00012958928
0.026105375
0.00013813851
0.026096758
0.00014336299
0.026087738
0.00015124369
0.026079014
0.00015306559
0.026069713
0.00016234286
0.026059874
0.0001607893
0.026050428
0.00016596945
0.00016705332
0.02604113
0.026072482
-0.00017375353
-0.026062291
0.026084747
-0.00016360866
0.026097384
-0.00016115761
0.026109588
-0.00015429867
0.026120331
-0.00015093097
0.026130402
-0.00015271919
0.026140975
-0.00015497912
0.026150537
-0.00014949473
0.026159177
-0.00014210005
0.026167238
-0.00013401593
0.026174705
-0.00012485477
0.026181513
-0.00011483477
0.026187579
-0.00010402595
0.0261929
-9.2482508e-05
0.026197445
-8.0245427e-05
0.026201191
-6.7410381e-05
0.026204107
-5.4070693e-05
0.026206176
-4.0321005e-05
0.026207413
-2.6261787e-05
0.026207857
-1.1987533e-05
0.026207541
2.4580827e-06
0.026205911
1.7193262e-05
0.026203343
3.1643591e-05
0.026199997
4.582612e-05
0.026195885
5.9639957e-05
0.026190987
7.2973428e-05
0.02618533
8.5740118e-05
0.026178956
9.7843769e-05
0.026171915
0.00010927084
0.026164268
0.00011980679
0.026156059
0.00012981657
0.026147343
0.0001383053
0.026138209
0.00014727229
0.026128687
0.00015288487
0.026118639
0.00016129127
0.026108965
0.00016274016
0.026098763
0.00017254526
0.026088207
0.00017134523
0.026077667
0.00017650922
0.00017712808
0.026067592
0.026101519
-0.00018637032
-0.026088902
0.026114762
-0.00017685245
0.026128431
-0.00017482639
0.026141927
-0.00016779498
0.026153799
-0.00016280266
0.026165243
-0.00016416289
0.026176904
-0.00016664078
0.026187549
-0.00016013882
0.026197131
-0.00015168222
0.026206176
-0.00014306158
0.026214612
-0.00013329083
0.026222333
-0.0001225553
0.026229311
-0.00011100415
0.026235469
-9.8640177e-05
0.026240771
-8.5547315e-05
0.026245155
-7.1794227e-05
0.026248567
-5.7482746e-05
0.026250998
-4.275238e-05
0.026252397
-2.7660599e-05
0.026252707
-1.2297408e-05
0.026251881
3.2833894e-06
0.026250252
1.8822639e-05
0.026247624
3.4271412e-05
0.026244019
4.9431674e-05
0.026239475
6.4183636e-05
0.02623403
7.8418185e-05
0.026227729
9.2041784e-05
0.026220622
0.00010495004
0.026212761
0.00011713207
0.026204218
0.00012834995
0.026195052
0.00013898254
0.026185351
0.00014800609
0.026175186
0.00015743781
0.026164693
0.0001633775
0.026153488
0.00017249634
0.026142723
0.00017350539
0.026131459
0.00018380902
0.026119854
0.00018295056
0.026108106
0.00018825718
0.00018809925
0.026097134
0.026136067
-0.00020066683
-0.02612177
0.026150339
-0.00019112497
0.026164968
-0.00018945488
0.026179777
-0.00018260434
0.026192655
-0.00017568026
0.026205096
-0.00017660382
0.02621757
-0.00017911446
0.026229364
-0.00017193319
0.026240389
-0.00016270775
0.026250804
-0.00015347638
0.026260528
-0.00014301417
0.026269402
-0.00013142964
0.026277352
-0.00011895471
0.026284352
-0.00010563962
0.026290343
-9.1537994e-05
0.026295304
-7.6756111e-05
0.026299216
-6.1394657e-05
0.026301982
-4.5517921e-05
0.026303583
-2.9261352e-05
0.026304029
-1.2743268e-05
0.026303355
3.9564749e-06
0.026301522
2.0656469e-05
0.026298565
3.7228346e-05
0.026294522
5.3474688e-05
0.026289427
6.9278794e-05
0.026283327
8.45178e-05
0.026276267
9.9101251e-05
0.026268305
0.00011291226
0.026259506
0.0001259311
0.026249959
0.00013789763
0.026239692
0.00014924903
0.026228825
0.0001588728
0.026217336
0.00016892723
0.026205604
0.00017510933
0.026192928
0.00018517291
0.026180816
0.00018561685
0.026168254
0.00019637132
0.026155344
0.00019586009
0.026142092
0.00020150957
0.00020018103
0.02613001
0.026174494
-0.00021623247
-0.026158928
0.026189921
-0.0002065517
0.026205539
-0.00020507309
0.026222074
-0.00019913929
0.026236669
-0.00019027593
0.026250286
-0.00019022062
0.026264
-0.00019282852
0.026277612
-0.00018554536
0.026290292
-0.000175387
0.0263021
-0.00016528459
0.026313092
-0.00015400579
0.026323218
-0.0001415562
0.026332404
-0.00012814084
0.026340526
-0.00011376136
0.026347499
-9.8511199e-05
0.026353261
-8.2517469e-05
0.026357749
-6.5882926e-05
0.026360947
-4.8715855e-05
0.026362842
-3.1156555e-05
0.026363418
-1.3318906e-05
0.02636268
4.6937254e-06
0.026360666
2.2670862e-05
0.026357396
4.0498763e-05
0.026352886
5.7984161e-05
0.026347179
7.498611e-05
0.026340316
9.1380249e-05
0.026332343
0.00010707491
0.026323328
0.00012192693
0.026313338
0.00013592076
0.026302493
0.00014874327
0.026290857
0.00016088432
0.026278631
0.00017109902
0.026265681
0.00018187709
0.026252674
0.00018811699
0.026238194
0.0001996526
0.026224457
0.00019935424
0.026210331
0.0002104964
0.026195831
0.0002103605
0.026180652
0.0002166887
0.00021383742
0.026166996
0.026218179
-0.00023429226
-0.02620012
0.026235359
-0.00022373144
0.026252349
-0.00022206325
0.026270711
-0.00021750144
0.026287452
-0.00020701691
0.02630265
-0.0002054184
0.026317812
-0.0002079908
0.026333323
-0.00020105625
0.026348088
-0.00019015163
0.026361926
-0.00017912289
0.02637473
-0.00016680998
0.026386341
-0.00015316695
0.026396857
-0.00013865684
0.02640611
-0.00012301444
0.026414065
-0.00010646551
0.026420648
-8.9100867e-05
0.026425804
-7.1038924e-05
0.026429507
-5.2418715e-05
0.026431721
-3.3370982e-05
0.026432434
-1.4031968e-05
0.026431657
5.4708264e-06
0.026429409
2.4918724e-05
0.026425716
4.4191787e-05
0.026420617
6.3083575e-05
0.026414162
8.1441447e-05
0.026406403
9.9139276e-05
0.026397387
0.00011609041
0.026387219
0.00013209494
0.026375946
0.00014719391
0.026363679
0.0001610106
0.026350302
0.00017426101
0.026336434
0.00018496707
0.026321137
0.00019717434
0.026306881
0.00020237245
0.026290183
0.00021635028
0.026274163
0.00021537461
0.026258066
0.00022659384
0.026242107
0.00022631946
0.026225041
0.00023375472
0.0002292532
0.026209625
0.026268733
-0.00025437667
-0.026248648
0.02628836
-0.00024335912
0.026307528
-0.0002412311
0.02632825
-0.000238223
0.026347625
-0.00022639164
0.026365001
-0.00022279467
0.026382166
-0.00022515644
0.026399751
-0.00021864068
0.0264164
-0.00020680066
0.026431971
-0.00019469353
0.026446527
-0.0001813665
0.026459982
-0.00016662232
0.026472035
-0.00015070937
0.026482704
-0.00013368361
0.026491872
-0.00011563313
0.026499465
-9.6694532e-05
0.026505437
-7.7010794e-05
0.026509739
-5.6720634e-05
0.02651234
-3.5971507e-05
0.026513209
-1.4901044e-05
0.02651235
6.3291942e-06
0.026509828
2.7441028e-05
0.026505647
4.8373142e-05
0.02649985
6.8880014e-05
0.026492487
8.8804454e-05
0.02648359
0.00010803626
0.026473234
0.0001264468
0.026461573
0.00014375585
0.026448586
0.00016018137
0.026434545
0.00017505085
0.026419327
0.00018947944
0.026403734
0.00020055956
0.026386278
0.00021463041
0.026369301
0.00021934932
0.026350491
0.00023516109
0.026331989
0.00023387594
0.026314073
0.00024450989
0.026296089
0.00024430346
0.026276435
0.00025340853
0.00024663472
0.026259054
0.026328079
-0.00027727804
-0.026305178
0.026351106
-0.00026638585
0.02637308
-0.00026320553
0.026396551
-0.00026169432
0.026418819
-0.00024865903
0.026438661
-0.00024263716
0.026458028
-0.00024452318
0.026477895
-0.0002385076
0.026497265
-0.00022617085
0.026515353
-0.00021278177
0.026532142
-0.00019815528
0.026547502
-0.00018198161
0.02656131
-0.00016451826
0.026573508
-0.00014588087
0.026584013
-0.00012613877
0.026592736
-0.00010541677
0.026599599
-8.387462e-05
0.026604544
-6.1665356e-05
0.026607534
-3.8961542e-05
0.026608561
-1.5927789e-05
0.026607653
7.2370755e-06
0.026604778
3.0316246e-05
0.026599988
5.3162605e-05
0.026593324
7.5544627e-05
0.026584828
9.7299994e-05
0.026574589
0.00011827581
0.02656272
0.00013831539
0.026549331
0.00015714459
0.026534446
0.00017506643
0.02651838
0.00019111713
0.02650093
0.00020692924
0.026482695
0.00021879508
0.026463149
0.0002341761
0.026443305
0.00023919306
0.026422784
0.00025568238
0.026401178
0.00025548156
0.026379607
0.00026608161
0.026358719
0.00026519093
0.026335832
0.00027629598
0.00026667541
0.026315791
0.026397922
-0.00030340955
-0.026371791
0.026424218
-0.00029268095
0.026449409
-0.00028839715
0.026476155
-0.00028843968
0.026502229
-0.00027473364
0.026525909
-0.00026631669
0.026548561
-0.00026717544
0.026571299
-0.00026124577
0.026593393
-0.00024826474
0.026614113
-0.00023350197
0.026633347
-0.00021738945
0.026651022
-0.00019965652
0.026667
-0.00018049636
0.026681143
-0.00016002299
0.026693331
-0.00013832764
0.026703476
-0.00011556179
0.026711502
-9.1900118e-05
0.026717336
-6.7499364e-05
0.026720879
-4.2504749e-05
0.026722004
-1.7052246e-05
0.026720748