/*--------------------------------*- C++ -*----------------------------------*\
| =========                 |                                                 |
| \\      /  F ield         | OpenFOAM: The Open Source CFD Toolbox           |
|  \\    /   O peration     | Version:  2406                                  |
|   \\  /    A nd           | Website:  www.openfoam.com                      |
|    \\/     M anipulation  |                                                 |
\*---------------------------------------------------------------------------*/
FoamFile
{
    version     2.0;
    format      ascii;
    arch        "LSB;label=32;scalar=64";
    class       volScalarField;
    location    "200";
    object      p;
}
// * * * * * * * * * * * * * * * * * * * * * * * * * * * * * * * * * * * * * //

dimensions      [0 2 -2 0 0 0 0];

internalField   nonuniform List<scalar> 
16384
(
5.667715e-09
9.981063e-09
1.1419e-08
1.210101e-08
1.239299e-08
1.241463e-08
1.229547e-08
1.214375e-08
1.198698e-08
1.185182e-08
1.175642e-08
1.170735e-08
1.171067e-08
1.177556e-08
1.190465e-08
1.209297e-08
1.233806e-08
1.26406e-08
1.300184e-08
1.342168e-08
1.389959e-08
1.443299e-08
1.501797e-08
1.565622e-08
1.635183e-08
1.710217e-08
1.790201e-08
1.875081e-08
1.96512e-08
2.060492e-08
2.161201e-08
2.2671e-08
2.377925e-08
2.493521e-08
2.614025e-08
2.739732e-08
2.870785e-08
3.007039e-08
3.148207e-08
3.294078e-08
3.444637e-08
3.600048e-08
3.760515e-08
3.926113e-08
4.096693e-08
4.271985e-08
4.451774e-08
4.635977e-08
4.824608e-08
5.01769e-08
5.215171e-08
5.416894e-08
5.622613e-08
5.832057e-08
6.044965e-08
6.26109e-08
6.480205e-08
6.702112e-08
6.926599e-08
7.153402e-08
7.382185e-08
7.612546e-08
7.844046e-08
8.07623e-08
8.308635e-08
8.540805e-08
8.772291e-08
9.002641e-08
9.231378e-08
9.457988e-08
9.681911e-08
9.902561e-08
1.011934e-07
1.033167e-07
1.053899e-07
1.074076e-07
1.093643e-07
1.112548e-07
1.13074e-07
1.14817e-07
1.164793e-07
1.180567e-07
1.195451e-07
1.209405e-07
1.222399e-07
1.234403e-07
1.245393e-07
1.255349e-07
1.264259e-07
1.272114e-07
1.278911e-07
1.284651e-07
1.289343e-07
1.292999e-07
1.295635e-07
1.297269e-07
1.297928e-07
1.297641e-07
1.29644e-07
1.294363e-07
1.291453e-07
1.287758e-07
1.283329e-07
1.278221e-07
1.272493e-07
1.266212e-07
1.259445e-07
1.252266e-07
1.24475e-07
1.236975e-07
1.229021e-07
1.220969e-07
1.212904e-07
1.204912e-07
1.19708e-07
1.189497e-07
1.182251e-07
1.175429e-07
1.169113e-07
1.163386e-07
1.158335e-07
1.154039e-07
1.150573e-07
1.148004e-07
1.146392e-07
1.14576e-07
1.14604e-07
1.146789e-07
1.013922e-08
1.127562e-08
1.200524e-08
1.2464e-08
1.268059e-08
1.267972e-08
1.259151e-08
1.247956e-08
1.236656e-08
1.227805e-08
1.2227e-08
1.2216e-08
1.224768e-08
1.232993e-08
1.247092e-08
1.267138e-08
1.292806e-08
1.323861e-08
1.360522e-08
1.403017e-08
1.451083e-08
1.504359e-08
1.5628e-08
1.626702e-08
1.696243e-08
1.771042e-08
1.850646e-08
1.935084e-08
2.024708e-08
2.119738e-08
2.220089e-08
2.325476e-08
2.435608e-08
2.550456e-08
2.670275e-08
2.795362e-08
2.925763e-08
3.061229e-08
3.201438e-08
3.34623e-08
3.495696e-08
3.65006e-08
3.809474e-08
3.9739e-08
4.14313e-08
4.316917e-08
4.495112e-08
4.677682e-08
4.864645e-08
5.055979e-08
5.25159e-08
5.451307e-08
5.654898e-08
5.862088e-08
6.072614e-08
6.286241e-08
6.50277e-08
6.72201e-08
6.943739e-08
7.167672e-08
7.393464e-08
7.620718e-08
7.848999e-08
8.077862e-08
8.30686e-08
8.535554e-08
8.763512e-08
8.990293e-08
9.215427e-08
9.438401e-08
9.658662e-08
9.875632e-08
1.008874e-07
1.029742e-07
1.050113e-07
1.069934e-07
1.089152e-07
1.107717e-07
1.125579e-07
1.142693e-07
1.159013e-07
1.174497e-07
1.189107e-07
1.202805e-07
1.21556e-07
1.227346e-07
1.238138e-07
1.24792e-07
1.256678e-07
1.264405e-07
1.2711e-07
1.276765e-07
1.281408e-07
1.285041e-07
1.287683e-07
1.289351e-07
1.29007e-07
1.289868e-07
1.288782e-07
1.286847e-07
1.284107e-07
1.280609e-07
1.276402e-07
1.271543e-07
1.266092e-07
1.260113e-07
1.253672e-07
1.246843e-07
1.239698e-07
1.232314e-07
1.224767e-07
1.217138e-07
1.209508e-07
1.20196e-07
1.194578e-07
1.187443e-07
1.18064e-07
1.174254e-07
1.168357e-07
1.163019e-07
1.158315e-07
1.154325e-07
1.151108e-07
1.148692e-07
1.147078e-07
1.146284e-07
1.146396e-07
1.147247e-07
1.198354e-08
1.235969e-08
1.268369e-08
1.292968e-08
1.302458e-08
1.300313e-08
1.29355e-08
1.284863e-08
1.276575e-08
1.270626e-08
1.268089e-08
1.269651e-08
1.275683e-08
1.286504e-08
1.302458e-08
1.323677e-08
1.350226e-08
1.382207e-08
1.419775e-08
1.462906e-08
1.511214e-08
1.564478e-08
1.622966e-08
1.687067e-08
1.756674e-08
1.83119e-08
1.910329e-08
1.994397e-08
2.083788e-08
2.178569e-08
2.278499e-08
2.383242e-08
2.492589e-08
2.606662e-08
2.725815e-08
2.850284e-08
2.979941e-08
3.114431e-08
3.253497e-08
3.397137e-08
3.545521e-08
3.69883e-08
3.85712e-08
4.020283e-08
4.188104e-08
4.360386e-08
4.537026e-08
4.717996e-08
4.903288e-08
5.092877e-08
5.286669e-08
5.484473e-08
5.68602e-08
5.89103e-08
6.099257e-08
6.310493e-08
6.524547e-08
6.741226e-08
6.960296e-08
7.18146e-08
7.404364e-08
7.62861e-08
7.853777e-08
8.079437e-08
8.305158e-08
8.530518e-08
8.755097e-08
8.978467e-08
9.20016e-08
9.419662e-08
9.636427e-08
9.849892e-08
1.00595e-07
1.02647e-07
1.046497e-07
1.065978e-07
1.084864e-07
1.103105e-07
1.120653e-07
1.137463e-07
1.153492e-07
1.1687e-07
1.183047e-07
1.1965e-07
1.209027e-07
1.220604e-07
1.231207e-07
1.24082e-07
1.249431e-07
1.257034e-07
1.263627e-07
1.269212e-07
1.273798e-07
1.277398e-07
1.280028e-07
1.281707e-07
1.28246e-07
1.282317e-07
1.281313e-07
1.279485e-07
1.276878e-07
1.273538e-07
1.269518e-07
1.264873e-07
1.259663e-07
1.253951e-07
1.247805e-07
1.241295e-07
1.234492e-07
1.227469e-07
1.220303e-07
1.21307e-07
1.205847e-07
1.198714e-07
1.19175e-07
1.18503e-07
1.178632e-07
1.172633e-07
1.167101e-07
1.162097e-07
1.157685e-07
1.153935e-07
1.150925e-07
1.148693e-07
1.147218e-07
1.146459e-07
1.146502e-07
1.147324e-07
1.325965e-08
1.331283e-08
1.337915e-08
1.340041e-08
1.338399e-08
1.332646e-08
1.324758e-08
1.317322e-08
1.311447e-08
1.307758e-08
1.306924e-08
1.310111e-08
1.318038e-08
1.33083e-08
1.348535e-08
1.371029e-08
1.398444e-08
1.43137e-08
1.469963e-08
1.513652e-08
1.562079e-08
1.615576e-08
1.674518e-08
1.73891e-08
1.808434e-08
1.882642e-08
1.961466e-08
2.045324e-08
2.134574e-08
2.229119e-08
2.328547e-08
2.432533e-08
2.541081e-08
2.654502e-08
2.773116e-08
2.896959e-08
3.02577e-08
3.15923e-08
3.297209e-08
3.439811e-08
3.587229e-08
3.739562e-08
3.896777e-08
4.058746e-08
4.225297e-08
4.39627e-08
4.571558e-08
4.751127e-08
4.934982e-08
5.123092e-08
5.315339e-08
5.511508e-08
5.711318e-08
5.914496e-08
6.12081e-08
6.330064e-08
6.542076e-08
6.756644e-08
6.973513e-08
7.192374e-08
7.412872e-08
7.63462e-08
7.857209e-08
8.080219e-08
8.303235e-08
8.525853e-08
8.747667e-08
8.96825e-08
9.187137e-08
9.403815e-08
9.617742e-08
9.828369e-08
1.003515e-07
1.023755e-07
1.043506e-07
1.062716e-07
1.081337e-07
1.099319e-07
1.116617e-07
1.133185e-07
1.148982e-07
1.163968e-07
1.178106e-07
1.191361e-07
1.203704e-07
1.215111e-07
1.225559e-07
1.235032e-07
1.243518e-07
1.251012e-07
1.257511e-07
1.263018e-07
1.26754e-07
1.271092e-07
1.273688e-07
1.275349e-07
1.276099e-07
1.27597e-07
1.274999e-07
1.273226e-07
1.270693e-07
1.267449e-07
1.263547e-07
1.259044e-07
1.254001e-07
1.248481e-07
1.242552e-07
1.23628e-07
1.229736e-07
1.22299e-07
1.216117e-07
1.209189e-07
1.20228e-07
1.195464e-07
1.188815e-07
1.182408e-07
1.176312e-07
1.170593e-07
1.165321e-07
1.16056e-07
1.15636e-07
1.152774e-07
1.149864e-07
1.147696e-07
1.146305e-07
1.145672e-07
1.145798e-07
1.146602e-07
1.425436e-08
1.410667e-08
1.397451e-08
1.385644e-08
1.375461e-08
1.365185e-08
1.355108e-08
1.34729e-08
1.342399e-08
1.340168e-08
1.340892e-08
1.345566e-08
1.355035e-08
1.369372e-08
1.388316e-08
1.41188e-08
1.440548e-08
1.47468e-08
1.514003e-08
1.557995e-08
1.60673e-08
1.660749e-08
1.720206e-08
1.784802e-08
1.854172e-08
1.928076e-08
2.006694e-08
2.090503e-08
2.179675e-08
2.273868e-08
2.37263e-08
2.475827e-08
2.583681e-08
2.696536e-08
2.814579e-08
2.93769e-08
3.065557e-08
3.197955e-08
3.334898e-08
3.476548e-08
3.623045e-08
3.774414e-08
3.930587e-08
4.091435e-08
4.256804e-08
4.42655e-08
4.600592e-08
4.778904e-08
4.961484e-08
5.148284e-08
5.339163e-08
5.533882e-08
5.732157e-08
5.933726e-08
6.13838e-08
6.345938e-08
6.556208e-08
6.768971e-08
6.983955e-08
7.200843e-08
7.419285e-08
7.6389e-08
7.859287e-08
8.080041e-08
8.300765e-08
8.52107e-08
8.74056e-08
8.958805e-08
9.175338e-08
9.389651e-08
9.601209e-08
9.80947e-08
1.00139e-07
1.021398e-07
1.04092e-07
1.059907e-07
1.078309e-07
1.096078e-07
1.11317e-07
1.12954e-07
1.145145e-07
1.159948e-07
1.173911e-07
1.187e-07
1.199188e-07
1.210449e-07
1.220761e-07
1.23011e-07
1.238482e-07
1.245872e-07
1.252277e-07
1.257699e-07
1.262147e-07
1.265632e-07
1.268172e-07
1.269785e-07
1.2705e-07
1.270348e-07
1.269369e-07
1.267603e-07
1.265095e-07
1.261896e-07
1.258061e-07
1.253647e-07
1.248717e-07
1.243333e-07
1.237562e-07
1.23147e-07
1.225126e-07
1.218597e-07
1.211953e-07
1.205266e-07
1.198605e-07
1.19204e-07
1.18564e-07
1.179477e-07
1.173614e-07
1.168111e-07
1.163034e-07
1.158453e-07
1.154426e-07
1.150993e-07
1.148182e-07
1.146036e-07
1.144636e-07
1.144042e-07
1.144226e-07
1.144998e-07
1.50095e-08
1.471611e-08
1.446851e-08
1.426672e-08
1.409941e-08
1.395609e-08
1.383912e-08
1.375242e-08
1.369799e-08
1.367817e-08
1.369813e-08
1.37605e-08
1.386785e-08
1.402117e-08
1.422013e-08
1.446732e-08
1.476735e-08
1.511914e-08
1.551733e-08
1.596036e-08
1.645322e-08
1.700046e-08
1.759955e-08
1.82457e-08
1.893711e-08
1.967435e-08
2.046036e-08
2.12985e-08
2.21882e-08
2.312497e-08
2.410538e-08
2.513018e-08
2.620288e-08
2.732627e-08
2.850042e-08
2.972321e-08
3.099201e-08
3.230573e-08
3.366539e-08
3.507275e-08
3.652884e-08
3.803332e-08
3.958513e-08
4.118301e-08
4.282564e-08
4.451176e-08
4.624068e-08
4.801231e-08
4.982664e-08
5.168294e-08
5.357946e-08
5.551367e-08
5.748278e-08
5.948438e-08
6.151659e-08
6.357761e-08
6.566541e-08
6.777763e-08
6.991144e-08
7.206364e-08
7.42307e-08
7.640886e-08
7.859425e-08
8.078297e-08
8.297119e-08
8.515515e-08
8.733093e-08
8.949426e-08
9.164043e-08
9.376431e-08
9.586062e-08
9.792406e-08
9.994942e-08
1.019316e-07
1.038655e-07
1.057463e-07
1.07569e-07
1.09329e-07
1.110217e-07
1.126427e-07
1.141878e-07
1.156532e-07
1.170351e-07
1.183303e-07
1.195359e-07
1.206494e-07
1.216689e-07
1.225925e-07
1.234191e-07
1.24148e-07
1.247788e-07
1.253119e-07
1.25748e-07
1.260882e-07
1.263343e-07
1.264885e-07
1.265535e-07
1.265329e-07
1.264306e-07
1.26251e-07
1.259987e-07
1.256791e-07
1.252976e-07
1.248605e-07
1.243738e-07
1.238441e-07
1.232777e-07
1.226812e-07
1.220612e-07
1.214242e-07
1.207768e-07
1.20126e-07
1.194786e-07
1.188412e-07
1.182204e-07
1.176226e-07
1.170542e-07
1.165207e-07
1.160275e-07
1.155815e-07
1.151895e-07
1.148566e-07
1.145847e-07
1.14375e-07
1.14233e-07
1.141697e-07
1.141845e-07
1.142542e-07
1.559592e-08
1.522068e-08
1.489384e-08
1.462163e-08
1.439904e-08
1.422503e-08
1.409178e-08
1.399162e-08
1.392812e-08
1.390852e-08
1.393534e-08
1.400801e-08
1.41248e-08
1.42855e-08
1.44939e-08
1.475403e-08
1.50655e-08
1.542337e-08
1.582512e-08
1.627397e-08
1.677481e-08
1.732832e-08
1.792945e-08
1.857455e-08
1.926458e-08
2.000179e-08
2.078858e-08
2.162627e-08
2.251252e-08
2.344305e-08
2.441646e-08
2.543523e-08
2.650282e-08
2.76208e-08
2.878809e-08
3.000223e-08
3.126129e-08
3.256524e-08
3.39158e-08
3.531471e-08
3.676235e-08
3.825796e-08
3.980037e-08
4.138839e-08
4.302075e-08
4.469644e-08
4.641498e-08
4.817637e-08
4.998044e-08
5.182623e-08
5.371175e-08
5.563439e-08
5.759156e-08
5.958108e-08
6.160113e-08
6.36499e-08
6.572527e-08
6.782474e-08
6.994536e-08
7.208387e-08
7.423679e-08
7.640046e-08
7.857106e-08
8.074476e-08
8.291793e-08
8.508696e-08
8.724793e-08
8.939649e-08
9.152787e-08
9.363696e-08
9.571853e-08
9.776736e-08
9.977835e-08
1.017464e-07
1.036665e-07
1.055339e-07
1.073434e-07
1.090906e-07
1.107708e-07
1.123796e-07
1.139128e-07
1.153665e-07
1.16737e-07
1.180211e-07
1.192158e-07
1.203187e-07
1.213278e-07
1.222412e-07
1.230577e-07
1.237765e-07
1.243974e-07
1.249206e-07
1.253466e-07
1.256769e-07
1.259132e-07
1.260578e-07
1.261137e-07
1.260847e-07
1.259749e-07
1.257889e-07
1.255315e-07
1.252083e-07
1.24825e-07
1.243878e-07
1.239031e-07
1.233773e-07
1.228167e-07
1.222277e-07
1.216168e-07
1.209903e-07
1.203546e-07
1.197161e-07
1.190815e-07
1.184574e-07
1.178499e-07
1.172648e-07
1.167085e-07
1.161871e-07
1.157056e-07
1.152693e-07
1.148843e-07
1.145565e-07
1.142893e-07
1.140838e-07
1.139412e-07
1.138704e-07
1.138736e-07
1.139304e-07
1.608941e-08
1.564531e-08
1.524601e-08
1.492165e-08
1.465366e-08
1.444648e-08
1.428967e-08
1.417542e-08
1.410604e-08
1.408659e-08
1.411612e-08
1.419258e-08
1.431438e-08
1.448317e-08
1.47032e-08
1.497434e-08
1.529225e-08
1.565391e-08
1.606129e-08
1.65183e-08
1.702659e-08
1.758395e-08
1.81854e-08
1.882955e-08
1.951955e-08
2.025799e-08
2.104554e-08
2.188144e-08
2.2763e-08
2.368725e-08
2.465447e-08
2.566806e-08
2.673094e-08
2.784337e-08
2.900336e-08
3.020862e-08
3.145827e-08
3.27533e-08
3.409563e-08
3.54867e-08
3.692646e-08
3.841378e-08
3.994736e-08
4.152611e-08
4.314898e-08
4.481519e-08
4.652447e-08
4.827681e-08
5.007177e-08
5.190811e-08
5.378376e-08
5.569624e-08
5.76431e-08
5.962233e-08
6.163226e-08
6.367105e-08
6.57364e-08
6.782566e-08
6.993583e-08
7.206369e-08
7.420577e-08
7.635839e-08
7.85178e-08
8.068035e-08
8.284253e-08
8.500081e-08
8.715125e-08
8.928938e-08
9.141037e-08
9.350911e-08
9.558043e-08
9.761919e-08
9.962032e-08
1.015788e-07
1.034895e-07
1.053475e-07
1.071481e-07
1.088864e-07
1.105578e-07
1.121579e-07
1.136825e-07
1.151276e-07
1.164895e-07
1.177649e-07
1.189508e-07
1.200448e-07
1.210448e-07
1.219488e-07
1.227556e-07
1.234644e-07
1.240749e-07
1.245873e-07
1.250022e-07
1.253209e-07
1.255455e-07
1.256786e-07
1.257233e-07
1.256833e-07
1.255632e-07
1.253677e-07
1.251021e-07
1.24772e-07
1.243832e-07
1.239422e-07
1.234553e-07
1.22929e-07
1.223696e-07
1.217833e-07
1.211763e-07
1.205551e-07
1.199258e-07
1.192945e-07
1.186673e-07
1.180507e-07
1.174508e-07
1.168732e-07
1.163239e-07
1.158098e-07
1.153366e-07
1.149087e-07
1.145303e-07
1.142053e-07
1.139389e-07
1.137339e-07
1.135893e-07
1.135086e-07
1.13496e-07
1.135355e-07
1.64915e-08
1.598323e-08
1.552121e-08
1.515577e-08
1.485239e-08
1.460958e-08
1.442529e-08
1.429772e-08
1.422436e-08
1.420282e-08
1.423101e-08
1.430811e-08
1.443457e-08
1.46125e-08
1.484243e-08
1.512e-08
1.544156e-08
1.580804e-08
1.622308e-08
1.668815e-08
1.720173e-08
1.77608e-08
1.836203e-08
1.900626e-08
1.969746e-08
2.043732e-08
2.12247e-08
2.20576e-08
2.293376e-08
2.3852e-08
2.481405e-08
2.582337e-08
2.688177e-08
2.798829e-08
2.914068e-08
3.03373e-08
3.157826e-08
3.286525e-08
3.420026e-08
3.558423e-08
3.701667e-08
3.849625e-08
4.002162e-08
4.159177e-08
4.320597e-08
4.486374e-08
4.656487e-08
4.830918e-08
5.009605e-08
5.192403e-08
5.379098e-08
5.569458e-08
5.763268e-08
5.960349e-08
6.160533e-08
6.363624e-08
6.569383e-08
6.77754e-08
6.987794e-08
7.199815e-08
7.413258e-08
7.627758e-08
7.842947e-08
8.058472e-08
8.273993e-08
8.489164e-08
8.703579e-08
8.916779e-08
9.128273e-08
9.337552e-08
9.544104e-08
9.747418e-08
9.946984e-08
1.014229e-07
1.033284e-07
1.051812e-07
1.069767e-07
1.087098e-07
1.10376e-07
1.119708e-07
1.134899e-07
1.149292e-07
1.16285e-07
1.17554e-07
1.18733e-07
1.198196e-07
1.208116e-07
1.217069e-07
1.225044e-07
1.232031e-07
1.238028e-07
1.243035e-07
1.247061e-07
1.250121e-07
1.252235e-07
1.253433e-07
1.253748e-07
1.253219e-07
1.251892e-07
1.249818e-07
1.247051e-07
1.243651e-07
1.239678e-07
1.235194e-07
1.230264e-07
1.224954e-07
1.219326e-07
1.213442e-07
1.207363e-07
1.201151e-07
1.194868e-07
1.188574e-07
1.182326e-07
1.176186e-07
1.170216e-07
1.164474e-07
1.159017e-07
1.153911e-07
1.149222e-07
1.144995e-07
1.141262e-07
1.138039e-07
1.135367e-07
1.133285e-07
1.131783e-07
1.130857e-07
1.130561e-07
1.130754e-07
1.680242e-08
1.62386e-08
1.571796e-08
1.531123e-08
1.497489e-08
1.470174e-08
1.449536e-08
1.435467e-08
1.427372e-08
1.424697e-08
1.427234e-08
1.435036e-08
1.448242e-08
1.466804e-08
1.490358e-08
1.518424e-08
1.550973e-08
1.588301e-08
1.630596e-08
1.677703e-08
1.729346e-08
1.785313e-08
1.845448e-08
1.909973e-08
1.979288e-08
2.053385e-08
2.131974e-08
2.214839e-08
2.301898e-08
2.393206e-08
2.489001e-08
2.589557e-08
2.69494e-08
2.804973e-08
2.919445e-08
3.038296e-08
3.161628e-08
3.289636e-08
3.422493e-08
3.560253e-08
3.702829e-08
3.850066e-08
4.001842e-08
4.158081e-08
4.318733e-08
4.483771e-08
4.653178e-08
4.826917e-08
5.004897e-08
5.186957e-08
5.372897e-08
5.562513e-08
5.755616e-08
5.952035e-08
6.151603e-08
6.354117e-08
6.559333e-08
6.766976e-08
6.976742e-08
7.1883e-08
7.401299e-08
7.615377e-08
7.830176e-08
8.045351e-08
8.260575e-08
8.475497e-08
8.689694e-08
8.902696e-08
9.11401e-08
9.323124e-08
9.529526e-08
9.732701e-08
9.932136e-08
1.012732e-07
1.031773e-07
1.050288e-07
1.068228e-07
1.085542e-07
1.102186e-07
1.118112e-07
1.133276e-07
1.147638e-07
1.16116e-07
1.173806e-07
1.185545e-07
1.196351e-07
1.206201e-07
1.215075e-07
1.222958e-07
1.229843e-07
1.235727e-07
1.240611e-07
1.244506e-07
1.247426e-07
1.249397e-07
1.250448e-07
1.250614e-07
1.249938e-07
1.248466e-07
1.246252e-07
1.243353e-07
1.239828e-07
1.235739e-07
1.231148e-07
1.226121e-07
1.220723e-07
1.215017e-07
1.209064e-07
1.202926e-07
1.196664e-07
1.190339e-07
1.184013e-07
1.177744e-07
1.171587e-07
1.165604e-07
1.159862e-07
1.154417e-07
1.149327e-07
1.14465e-07
1.140437e-07
1.136716e-07
1.133501e-07
1.130812e-07
1.128679e-07
1.127089e-07
1.126033e-07
1.125572e-07
1.125555e-07
1.701682e-08
1.640722e-08
1.583091e-08
1.538006e-08
1.501174e-08
1.471561e-08
1.449178e-08
1.433709e-08
1.424518e-08
1.421145e-08
1.423457e-08
1.431518e-08
1.445226e-08
1.464169e-08
1.487913e-08
1.516254e-08
1.549358e-08
1.587408e-08
1.630339e-08
1.677822e-08
1.72958e-08
1.785558e-08
1.845778e-08
1.910505e-08
1.980012e-08
2.054102e-08
2.132398e-08
2.214776e-08
2.301325e-08
2.392222e-08
2.487699e-08
2.58791e-08
2.692802e-08
2.802188e-08
2.91593e-08
3.03406e-08
3.156743e-08
3.284176e-08
3.416482e-08
3.55367e-08
3.695634e-08
3.842218e-08
3.993305e-08
4.148848e-08
4.308834e-08
4.473252e-08
4.642068e-08
4.815215e-08
4.992582e-08
5.174016e-08
5.359336e-08
5.548362e-08
5.740927e-08
5.93687e-08
6.136022e-08
6.338173e-08
6.54308e-08
6.750466e-08
6.960024e-08
7.171415e-08
7.384284e-08
7.598277e-08
7.813046e-08
8.028248e-08
8.243559e-08
8.458621e-08
8.672996e-08
8.886204e-08
9.097746e-08
9.307109e-08
9.513771e-08
9.717211e-08
9.916911e-08
1.011235e-07
1.030301e-07
1.048839e-07
1.066799e-07
1.084131e-07
1.100786e-07
1.11672e-07
1.131886e-07
1.146243e-07
1.159751e-07
1.172374e-07
1.184078e-07
1.194837e-07
1.204627e-07
1.213426e-07
1.221222e-07
1.228004e-07
1.233772e-07
1.238528e-07
1.242284e-07
1.245057e-07
1.246874e-07
1.247766e-07
1.247772e-07
1.246934e-07
1.245302e-07
1.24293e-07
1.239878e-07
1.236204e-07
1.231971e-07
1.227242e-07
1.222082e-07
1.216557e-07
1.210728e-07
1.204659e-07
1.198413e-07
1.192051e-07
1.185636e-07
1.17923e-07
1.172894e-07
1.166684e-07
1.160659e-07
1.154885e-07
1.149426e-07
1.144332e-07
1.139648e-07
1.135418e-07
1.13167e-07
1.128431e-07
1.125705e-07
1.123506e-07
1.121813e-07
1.120636e-07
1.120019e-07
1.119808e-07
1.712375e-08
1.64745e-08
1.585117e-08
1.535934e-08
1.496072e-08
1.464427e-08
1.440436e-08
1.42347e-08
1.413077e-08
1.40908e-08
1.411342e-08
1.419656e-08
1.433553e-08
1.452535e-08
1.476391e-08
1.505124e-08
1.53885e-08
1.57752e-08
1.620861e-08
1.668501e-08
1.720286e-08
1.776327e-08
1.836735e-08
1.901702e-08
1.971314e-08
2.045241e-08
2.123131e-08
2.205021e-08
2.291163e-08
2.381766e-08
2.476972e-08
2.576819e-08
2.68119e-08
2.789928e-08
2.903005e-08
3.020536e-08
3.142697e-08
3.26965e-08
3.401484e-08
3.538176e-08
3.679595e-08
3.825585e-08
3.97606e-08
4.131013e-08
4.290454e-08
4.454368e-08
4.622701e-08
4.795362e-08
4.972232e-08
5.153167e-08
5.338012e-08
5.526618e-08
5.71883e-08
5.914493e-08
6.113434e-08
6.315449e-08
6.520293e-08
6.727689e-08
6.937318e-08
7.148835e-08
7.36189e-08
7.576136e-08
7.791228e-08
8.006818e-08
8.222582e-08
8.438158e-08
8.653089e-08
8.866887e-08
9.079046e-08
9.289043e-08
9.49635e-08
9.700436e-08
9.900775e-08
1.009684e-07
1.028811e-07
1.047406e-07
1.065419e-07
1.082799e-07
1.099498e-07
1.115468e-07
1.130663e-07
1.145039e-07
1.158555e-07
1.171173e-07
1.182859e-07
1.193583e-07
1.203321e-07
1.212053e-07
1.219763e-07
1.226443e-07
1.232093e-07
1.236717e-07
1.240328e-07
1.242947e-07
1.244602e-07
1.245327e-07
1.24516e-07
1.244147e-07
1.24234e-07
1.239794e-07
1.236568e-07
1.232722e-07
1.228317e-07
1.223417e-07
1.21809e-07
1.212399e-07
1.206408e-07
1.20018e-07
1.19378e-07
1.187273e-07
1.180721e-07
1.174191e-07
1.167746e-07
1.161449e-07
1.155356e-07
1.149528e-07
1.144029e-07
1.138904e-07
1.134194e-07
1.129924e-07
1.126125e-07
1.122829e-07
1.120039e-07
1.117756e-07
1.115961e-07
1.114684e-07
1.113922e-07
1.113554e-07
1.712069e-08
1.64306e-08
1.576956e-08
1.524399e-08
1.481792e-08
1.44802e-08
1.422279e-08
1.403827e-08
1.392474e-08
1.388107e-08
1.390328e-08
1.398603e-08
1.412357e-08
1.431282e-08
1.455381e-08
1.484618e-08
1.518894e-08
1.557969e-08
1.601489e-08
1.649139e-08
1.700943e-08
1.757141e-08
1.817813e-08
1.882973e-08
1.95253e-08
2.026139e-08
2.103585e-08
2.185067e-08
2.270921e-08
2.361317e-08
2.456262e-08
2.555696e-08
2.65952e-08
2.767668e-08
2.880195e-08
2.99725e-08
3.119002e-08
3.245578e-08
3.377021e-08
3.513277e-08
3.65421e-08
3.799683e-08
3.949646e-08
4.104121e-08
4.263134e-08
4.426663e-08
4.594627e-08
4.766918e-08
4.943417e-08
5.124001e-08
5.308545e-08
5.496918e-08
5.688977e-08
5.884568e-08
6.083525e-08
6.285644e-08
6.490683e-08
6.698355e-08
6.908334e-08
7.120273e-08
7.333828e-08
7.548655e-08
7.764406e-08
7.980726e-08
8.197289e-08
8.41373e-08
8.629577e-08
8.844328e-08
9.05747e-08
9.26847e-08
9.476788e-08
9.681886e-08
9.883225e-08
1.008027e-07
1.027249e-07
1.045935e-07
1.064033e-07
1.081493e-07
1.098264e-07
1.114298e-07
1.129547e-07
1.143965e-07
1.157509e-07
1.170141e-07
1.181822e-07
1.192523e-07
1.202218e-07
1.210886e-07
1.218514e-07
1.225092e-07
1.230622e-07
1.23511e-07
1.238573e-07
1.241032e-07
1.242518e-07
1.243065e-07
1.242716e-07
1.241517e-07
1.23952e-07
1.236783e-07
1.233363e-07
1.22932e-07
1.224715e-07
1.219614e-07
1.214085e-07
1.208191e-07
1.201998e-07
1.19557e-07
1.188976e-07
1.182284e-07
1.175557e-07
1.168863e-07
1.162272e-07
1.155852e-07
1.149663e-07
1.143761e-07
1.1382e-07
1.133024e-07
1.128263e-07
1.123935e-07
1.12007e-07
1.116697e-07
1.113819e-07
1.111436e-07
1.109547e-07
1.108185e-07
1.107297e-07
1.106815e-07
1.701054e-08
1.627523e-08
1.558028e-08
1.502638e-08
1.457519e-08
1.421463e-08
1.393862e-08
1.374205e-08
1.362283e-08
1.357642e-08
1.359557e-08
1.367457e-08
1.380989e-08
1.400005e-08
1.42447e-08
1.45417e-08
1.488806e-08
1.528041e-08
1.571556e-08
1.619187e-08
1.67111e-08
1.727574e-08
1.788488e-08
1.853686e-08
1.923013e-08
1.996218e-08
2.073265e-08
2.154475e-08
2.240157e-08
2.330361e-08
2.424999e-08
2.523989e-08
2.62729e-08
2.73493e-08
2.847025e-08
2.963732e-08
3.085184e-08
3.211464e-08
3.342581e-08
3.478462e-08
3.618976e-08
3.764015e-08
3.913568e-08
4.067688e-08
4.2264e-08
4.389663e-08
4.557377e-08
4.729423e-08
4.905699e-08
5.086106e-08
5.270541e-08
5.458886e-08
5.651007e-08
5.846756e-08
6.04597e-08
6.24845e-08
6.453947e-08
6.662168e-08
6.872784e-08
7.085446e-08
7.299813e-08
7.515543e-08
7.732278e-08
7.949656e-08
8.167353e-08
8.384996e-08
8.602098e-08
8.818149e-08
9.032621e-08
9.244972e-08
9.454652e-08
9.66111e-08
9.863797e-08
1.006217e-07
1.025566e-07
1.044376e-07
1.062591e-07
1.080161e-07
1.097033e-07
1.113159e-07
1.128487e-07
1.142969e-07
1.156561e-07
1.169222e-07
1.180912e-07
1.1916e-07
1.201259e-07
1.209868e-07
1.217415e-07
1.223891e-07
1.2293e-07
1.23365e-07
1.236958e-07
1.239251e-07
1.24056e-07
1.240922e-07
1.240378e-07
1.238979e-07
1.236777e-07
1.233828e-07
1.230191e-07
1.225925e-07
1.221092e-07
1.215758e-07
1.209991e-07
1.203859e-07
1.197427e-07
1.190766e-07
1.183943e-07
1.17703e-07
1.170098e-07
1.163215e-07
1.156452e-07
1.14988e-07
1.143564e-07
1.137562e-07
1.131913e-07
1.126658e-07
1.121824e-07
1.117423e-07
1.113485e-07
1.110026e-07
1.107051e-07
1.104567e-07
1.102594e-07
1.101152e-07
1.100161e-07
1.099596e-07
1.678762e-08
1.600774e-08
1.527772e-08
1.469745e-08
1.422205e-08
1.383955e-08
1.35481e-08
1.334357e-08
1.321933e-08
1.31674e-08
1.318073e-08
1.325576e-08
1.339057e-08
1.358318e-08
1.383143e-08
1.413136e-08
1.447883e-08
1.48707e-08
1.530519e-08
1.578222e-08
1.630382e-08
1.687116e-08
1.748138e-08
1.813173e-08
1.882145e-08
1.954972e-08
2.031742e-08
2.112789e-08
2.198342e-08
2.288337e-08
2.382628e-08
2.48117e-08
2.584014e-08
2.691263e-08
2.803054e-08
2.919525e-08
3.04077e-08
3.166832e-08
3.297687e-08
3.433252e-08
3.573417e-08
3.718119e-08
3.867383e-08
4.021275e-08
4.179811e-08
4.342931e-08
4.510523e-08
4.682475e-08
4.858702e-08
5.039126e-08
5.223663e-08
5.412205e-08
5.604625e-08
5.80078e-08
6.000512e-08
6.203618e-08
6.409845e-08
6.618895e-08
6.830433e-08
7.044114e-08
7.259596e-08
7.476536e-08
7.694566e-08
7.913313e-08
8.132459e-08
8.351626e-08
8.57031e-08
8.78799e-08
9.00413e-08
9.218173e-08
9.429559e-08
9.63772e-08
9.842095e-08
1.004212e-07
1.023723e-07
1.042688e-07
1.061052e-07
1.078761e-07
1.095762e-07
1.112004e-07
1.127434e-07
1.142001e-07
1.155658e-07
1.168361e-07
1.180071e-07
1.190754e-07
1.200383e-07
1.208938e-07
1.216405e-07
1.222779e-07
1.228064e-07
1.232271e-07
1.235421e-07
1.237541e-07
1.238664e-07
1.238829e-07
1.23808e-07
1.236465e-07
1.234038e-07
1.230857e-07
1.226977e-07
1.22246e-07
1.21737e-07
1.211772e-07
1.205736e-07
1.19933e-07
1.192626e-07
1.185699e-07
1.17862e-07
1.171462e-07
1.164299e-07
1.157207e-07
1.150257e-07
1.143516e-07
1.13705e-07
1.130915e-07
1.125147e-07
1.119783e-07
1.114846e-07
1.110357e-07
1.106338e-07
1.102794e-07
1.099733e-07
1.097166e-07
1.095126e-07
1.093605e-07
1.09254e-07
1.091904e-07
1.644063e-08
1.562245e-08
1.485635e-08
1.424864e-08
1.375059e-08
1.33513e-08
1.304928e-08
1.28371e-08
1.270465e-08
1.264467e-08
1.265255e-08
1.272593e-08
1.286207e-08
1.30572e-08
1.330745e-08
1.360783e-08
1.395429e-08
1.434487e-08
1.477947e-08
1.525858e-08
1.578295e-08
1.635165e-08
1.696077e-08
1.760803e-08
1.829405e-08
1.901949e-08
1.978574e-08
2.059541e-08
2.144961e-08
2.234696e-08
2.328617e-08
2.426758e-08
2.529248e-08
2.636228e-08
2.747833e-08
2.864169e-08
2.985289e-08
3.111191e-08
3.241831e-08
3.377136e-08
3.517036e-08
3.66151e-08
3.81061e-08
3.964402e-08
4.122889e-08
4.285999e-08
4.453616e-08
4.625642e-08
4.802013e-08
4.982671e-08
5.167541e-08
5.356523e-08
5.549495e-08
5.746319e-08
5.946836e-08
6.150842e-08
6.358076e-08
6.568232e-08
6.780976e-08
6.995965e-08
7.21286e-08
7.431309e-08
7.650933e-08
7.871355e-08
8.09226e-08
8.313268e-08
8.533859e-08
8.7535e-08
8.971643e-08
9.187718e-08
9.401151e-08
9.61136e-08
9.817763e-08
1.001978e-07
1.021684e-07
1.040836e-07
1.059379e-07
1.077257e-07
1.094414e-07
1.110796e-07
1.126349e-07
1.141019e-07
1.154756e-07
1.167514e-07
1.179253e-07
1.189937e-07
1.19954e-07
1.208041e-07
1.21543e-07
1.2217e-07
1.226859e-07
1.23092e-07
1.233906e-07
1.235846e-07
1.236773e-07
1.236729e-07
1.235759e-07
1.233911e-07
1.23124e-07
1.2278e-07
1.22365e-07
1.218853e-07
1.213474e-07
1.207581e-07
1.201244e-07
1.194534e-07
1.18753e-07
1.180309e-07
1.172949e-07
1.165526e-07
1.15812e-07
1.150806e-07
1.143656e-07
1.136733e-07
1.1301e-07
1.123806e-07
1.11789e-07
1.112385e-07
1.107317e-07
1.102717e-07
1.098603e-07
1.094979e-07
1.091852e-07
1.089235e-07
1.087148e-07
1.08556e-07
1.084454e-07
1.083759e-07
1.59609e-08
1.511033e-08
1.431005e-08
1.367558e-08
1.315895e-08
1.274746e-08
1.243534e-08
1.221222e-08
1.206946e-08
1.200268e-08
1.200807e-08
1.208188e-08
1.221949e-08
1.241555e-08
1.266541e-08
1.296405e-08
1.330866e-08
1.369893e-08
1.41352e-08
1.461681e-08
1.514273e-08
1.571072e-08
1.631698e-08
1.696058e-08
1.764371e-08
1.836768e-08
1.91334e-08
1.994236e-08
2.079474e-08
2.168913e-08
2.262487e-08
2.360309e-08
2.46256e-08
2.569394e-08
2.680922e-08
2.797209e-08
2.918261e-08
3.044044e-08
3.174514e-08
3.30963e-08
3.449365e-08
3.59373e-08
3.742793e-08
3.896613e-08
4.055182e-08
4.218422e-08
4.386226e-08
4.558515e-08
4.735243e-08
4.916367e-08
5.101817e-08
5.291497e-08
5.485288e-08
5.683055e-08
5.884638e-08
6.089822e-08
6.298338e-08
6.509879e-08
6.724112e-08
6.940699e-08
7.159299e-08
7.379551e-08
7.601066e-08
7.823462e-08
8.046437e-08
8.269604e-08
8.492425e-08
8.714357e-08
8.934839e-08
9.153287e-08
9.369111e-08
9.581713e-08
9.790489e-08
9.994843e-08
1.019417e-07
1.038789e-07
1.057541e-07
1.075616e-07
1.092954e-07
1.109499e-07
1.125194e-07
1.139982e-07
1.153812e-07
1.166635e-07
1.17841e-07
1.189101e-07
1.198681e-07
1.207131e-07
1.214441e-07
1.220607e-07
1.225636e-07
1.229546e-07
1.23236e-07
1.234109e-07
1.234829e-07
1.234561e-07
1.233351e-07
1.231249e-07
1.228308e-07
1.224584e-07
1.220135e-07
1.215027e-07
1.209329e-07
1.203112e-07
1.196446e-07
1.189409e-07
1.182081e-07
1.174546e-07
1.166886e-07
1.159185e-07
1.151521e-07
1.143972e-07
1.136609e-07
1.129493e-07
1.122678e-07
1.116207e-07
1.11012e-07
1.104451e-07
1.099233e-07
1.094503e-07
1.090278e-07
1.086575e-07
1.083394e-07
1.080754e-07
1.078645e-07
1.077025e-07
1.075907e-07
1.075187e-07
1.53442e-08
1.446357e-08
1.363396e-08
1.297761e-08
1.244551e-08
1.2021e-08
1.169547e-08
1.146014e-08
1.130942e-08
1.123936e-08
1.124437e-08
1.131858e-08
1.145614e-08
1.165079e-08
1.189816e-08
1.219446e-08
1.253825e-08
1.292971e-08
1.336827e-08
1.385138e-08
1.437664e-08
1.494186e-08
1.554447e-08
1.618506e-08
1.686663e-08
1.75902e-08
1.835563e-08
1.916343e-08
2.001352e-08
2.090498e-08
2.183791e-08
2.281402e-08
2.383535e-08
2.490332e-08
2.601869e-08
2.718165e-08
2.839185e-08
2.964887e-08
3.095245e-08
3.230257e-08
3.369937e-08
3.51432e-08
3.663477e-08
3.817458e-08
3.976247e-08
4.139775e-08
4.307952e-08
4.480714e-08
4.658033e-08
4.83987e-08
5.026156e-08
5.216801e-08
5.411688e-08
5.61068e-08
5.813607e-08
6.020244e-08
6.230316e-08
6.443516e-08
6.659519e-08
6.877988e-08
7.098582e-08
7.32093e-08
7.544631e-08
7.769306e-08
7.994665e-08
8.220312e-08
8.445693e-08
8.670253e-08
8.893418e-08
9.114586e-08
9.33315e-08
9.548492e-08
9.759984e-08
9.967008e-08
1.016894e-07
1.036516e-07
1.055507e-07
1.073805e-07
1.091348e-07
1.108077e-07
1.123931e-07
1.138852e-07
1.152785e-07
1.165681e-07