/*--------------------------------*- C++ -*----------------------------------*\
| =========                 |                                                 |
| \\      /  F ield         | OpenFOAM: The Open Source CFD Toolbox           |
|  \\    /   O peration     | Version:  2406                                  |
|   \\  /    A nd           | Website:  www.openfoam.com                      |
|    \\/     M anipulation  |                                                 |
\*---------------------------------------------------------------------------*/
FoamFile
{
    version     2.0;
    format      ascii;
    arch        "LSB;label=32;scalar=64";
    class       surfaceScalarField;
    location    "200";
    object      phi;
}
// * * * * * * * * * * * * * * * * * * * * * * * * * * * * * * * * * * * * * //

dimensions      [0 3 -1 0 0 0 0];

oriented        oriented;

internalField   nonuniform List<scalar> 
32512
(
-3.816137e-09
-4.022778e-09
-1.913521e-09
-1.92792e-09
-1.009717e-09
-8.25939e-10
-7.556985e-10
-3.170209e-10
-8.160614e-10
5.799628e-11
-1.107128e-09
3.409179e-10
-1.602179e-09
5.132499e-10
-2.216466e-09
6.492164e-10
-2.960433e-09
7.558295e-10
-3.800654e-09
8.384161e-10
-4.702891e-09
9.030034e-10
-5.654674e-09
9.582438e-10
-6.65638e-09
1.00207e-09
-7.701733e-09
1.033725e-09
-8.768886e-09
1.060123e-09
-9.845355e-09
1.083595e-09
-1.09365e-08
1.101864e-09
-1.204274e-08
1.111694e-09
-1.315702e-08
1.112986e-09
-1.427262e-08
1.11198e-09
-1.538513e-08
1.114498e-09
-1.649562e-08
1.117741e-09
-1.760815e-08
1.115467e-09
-1.872078e-08
1.108062e-09
-1.982553e-08
1.100787e-09
-2.091987e-08
1.096168e-09
-2.200822e-08
1.09244e-09
-2.309387e-08
1.086795e-09
-2.417516e-08
1.078515e-09
-2.524758e-08
1.068785e-09
-2.630898e-08
1.058979e-09
-2.736014e-08
1.05e-09
-2.840176e-08
1.041753e-09
-2.943412e-08
1.032938e-09
-3.045727e-08
1.022101e-09
-3.146987e-08
1.008931e-09
-3.246914e-08
9.945242e-10
-3.345225e-08
9.803258e-10
-3.441825e-08
9.667002e-10
-3.536811e-08
9.526252e-10
-3.630273e-08
9.366265e-10
-3.722116e-08
9.179126e-10
-3.812049e-08
8.969069e-10
-3.899705e-08
8.74666e-10
-3.984809e-08
8.517272e-10
-4.067257e-08
8.277524e-10
-4.147037e-08
8.020876e-10
-4.224089e-08
7.741876e-10
-4.298255e-08
7.436779e-10
-4.369287e-08
7.10504e-10
-4.43686e-08
6.749875e-10
-4.500643e-08
6.375487e-10
-4.560386e-08
5.984441e-10
-4.615934e-08
5.57717e-10
-4.66718e-08
5.151753e-10
-4.714005e-08
4.703844e-10
-4.75624e-08
4.229232e-10
-4.793646e-08
3.727728e-10
-4.82593e-08
3.203236e-10
-4.852806e-08
2.660067e-10
-4.874047e-08
2.100398e-10
-4.889478e-08
1.524523e-10
-4.89894e-08
9.321218e-11
-4.902286e-08
3.230983e-11
-4.899372e-08
-3.024778e-11
-4.89006e-08
-9.443384e-11
-4.874218e-08
-1.601338e-10
-4.851707e-08
-2.271587e-10
-4.82239e-08
-2.953131e-10
-4.786151e-08
-3.643561e-10
-4.742899e-08
-4.339584e-10
-4.692583e-08
-5.037558e-10
-4.635205e-08
-5.734156e-10
-4.570812e-08
-6.426692e-10
-4.499495e-08
-7.112332e-10
-4.421361e-08
-7.78793e-10
-4.336544e-08
-8.450658e-10
-4.245217e-08
-9.097234e-10
-4.147571e-08
-9.724616e-10
-4.043832e-08
-1.03305e-09
-3.934262e-08
-1.091151e-09
-3.819128e-08
-1.146388e-09
-3.698733e-08
-1.198521e-09
-3.573438e-08
-1.247314e-09
-3.443621e-08
-1.292454e-09
-3.309679e-08
-1.333682e-09
-3.172053e-08
-1.370799e-09
-3.031208e-08
-1.403537e-09
-2.887616e-08
-1.43161e-09
-2.741769e-08
-1.454846e-09
-2.594188e-08
-1.473139e-09
-2.445411e-08
-1.486301e-09
-2.295967e-08
-1.494087e-09
-2.146387e-08
-1.496339e-09
-1.997223e-08
-1.492991e-09
-1.849033e-08
-1.483972e-09
-1.702368e-08
-1.469219e-09
-1.557765e-08
-1.448749e-09
-1.415764e-08
-1.422663e-09
-1.276896e-08
-1.391079e-09
-1.141681e-08
-1.354116e-09
-1.010624e-08
-1.311896e-09
-8.842218e-09
-1.264533e-09
-7.629627e-09
-1.212193e-09
-6.473295e-09
-1.155092e-09
-5.377985e-09
-1.093408e-09
-4.348264e-09
-1.027286e-09
-3.388432e-09
-9.569738e-10
-2.502564e-09
-8.82863e-10
-1.694514e-09
-8.053859e-10
-9.677256e-10
-7.249526e-10
-3.251269e-10
-6.419993e-10
2.308645e-10
-5.569657e-10
6.984449e-10
-4.70196e-10
1.076353e-09
-3.819213e-10
1.3639e-09
-2.924351e-10
1.561377e-09
-2.024853e-10
1.670166e-09
-1.133036e-10
1.69281e-09
-2.60661e-11
1.633742e-09
5.790238e-11
1.500042e-09
1.357957e-10
1.301367e-09
2.030919e-10
1.050139e-09
2.551764e-10
7.639137e-10
2.88399e-10
4.69622e-10
2.991605e-10
2.079524e-10
2.793277e-10
3.463647e-11
2.088211e-10
6.828623e-11
-1.736699e-09
-2.315394e-09
-1.75268e-09
-1.891634e-09
-1.670958e-09
-8.962408e-10
-1.9994e-09
1.48336e-12
-2.743146e-09
7.846122e-10
-3.932771e-09
1.438082e-09
-5.464325e-09
2.000531e-09
-7.296583e-09
2.47957e-09
-9.420498e-09
2.860301e-09
-1.177823e-08
3.175371e-09
-1.43102e-08
3.444227e-09
-1.699456e-08
3.662062e-09
-1.981279e-08
3.826724e-09
-2.273533e-08
3.950488e-09
-2.572989e-08
4.051492e-09
-2.877543e-08
4.136117e-09
-3.186881e-08
4.19825e-09
-3.500008e-08
4.236651e-09
-3.81499e-08
4.260067e-09
-4.130596e-08
4.275736e-09
-4.446594e-08
4.284189e-09
-4.763002e-08
4.283983e-09
-5.079443e-08
4.27505e-09
-5.395073e-08
4.259682e-09
-5.708972e-08
4.241634e-09
-6.021015e-08
4.222711e-09
-6.331672e-08
4.201766e-09
-6.641007e-08
4.176672e-09
-6.948549e-08
4.146735e-09
-7.253675e-08
4.113677e-09
-7.55603e-08
4.079868e-09
-7.855592e-08
4.046031e-09
-8.152418e-08
4.010656e-09
-8.446501e-08
3.971284e-09
-8.737647e-08
3.926681e-09
-9.025363e-08
3.8778e-09
-9.309029e-08
3.826488e-09
-9.588216e-08
3.773533e-09
-9.862797e-08
3.717795e-09
-1.013278e-07
3.657028e-09
-1.039802e-07
3.589675e-09
-1.065802e-07
3.515743e-09
-1.091209e-07
3.43606e-09
-1.115956e-07
3.351233e-09
-1.139993e-07
3.261181e-09
-1.163288e-07
3.165104e-09
-1.185814e-07
3.061898e-09
-1.207535e-07
2.950815e-09
-1.228397e-07
2.831665e-09
-1.248335e-07
2.704481e-09
-1.267275e-07
2.569346e-09
-1.28515e-07
2.426502e-09
-1.3019e-07
2.276242e-09
-1.317474e-07
2.118526e-09
-1.33183e-07
1.952882e-09
-1.344921e-07
1.778832e-09
-1.356692e-07
1.596277e-09
-1.367078e-07
1.405495e-09
-1.376013e-07
1.206946e-09
-1.383433e-07
1.001102e-09
-1.38928e-07
7.883354e-10
-1.393505e-07
5.689045e-10
-1.396062e-07
3.429999e-10
-1.396909e-07
1.108305e-10
-1.396007e-07
-1.272788e-10
-1.393317e-07
-3.708997e-10
-1.388806e-07
-6.195437e-10
-1.38244e-07
-8.725875e-10
-1.37419e-07
-1.129212e-09
-1.364029e-07
-1.38847e-09
-1.351943e-07
-1.649375e-09
-1.337922e-07
-1.910969e-09
-1.32197e-07
-2.172277e-09
-1.304097e-07
-2.432261e-09
-1.284321e-07
-2.689831e-09
-1.262671e-07
-2.943831e-09
-1.239178e-07
-3.19314e-09
-1.213889e-07
-3.436689e-09
-1.186853e-07
-3.673284e-09
-1.15813e-07
-3.901695e-09
-1.127789e-07
-4.120815e-09
-1.095905e-07
-4.329543e-09
-1.062564e-07
-4.526752e-09
-1.027861e-07
-4.711402e-09
-9.918978e-08
-4.882505e-09
-9.547848e-08
-5.039034e-09
-9.166384e-08
-5.179999e-09
-8.775829e-08
-5.304546e-09
-8.377474e-08
-5.411907e-09
-7.972658e-08
-5.501321e-09
-7.562765e-08
-5.572046e-09
-7.149216e-08
-5.623424e-09
-6.733448e-08
-5.654881e-09
-6.316913e-08
-5.665952e-09
-5.901084e-08
-5.656275e-09
-5.487455e-08
-5.625584e-09
-5.077523e-08
-5.57375e-09
-4.67277e-08
-5.50084e-09
-4.274669e-08
-5.407071e-09
-3.884688e-08
-5.2927e-09
-3.504268e-08
-5.158046e-09
-3.134825e-08
-5.0036e-09
-2.777755e-08
-4.83001e-09
-2.434418e-08
-4.637998e-09
-2.10613e-08
-4.428345e-09
-1.794166e-08
-4.201859e-09
-1.499752e-08
-3.959384e-09
-1.224057e-08
-3.701884e-09
-9.681714e-09
-3.430467e-09
-7.331139e-09
-3.146321e-09
-5.198149e-09
-2.850647e-09
-3.290931e-09
-2.544638e-09
-1.616364e-09
-2.229572e-09
-1.79764e-10
-1.906959e-09
1.01505e-09
-1.578637e-09
1.965867e-09
-1.246772e-09
2.673327e-09
-9.141212e-10
3.141911e-09
-5.846369e-10
3.379396e-09
-2.63671e-10
3.397109e-09
4.240438e-11
3.213124e-09
3.255783e-10
2.855202e-09
5.735253e-10
2.36066e-09
7.675461e-10
1.776909e-09
8.849514e-10
1.162519e-09
9.047101e-10
5.881343e-10
8.111935e-10
1.438673e-10
5.927512e-10
2.345999e-10
-8.247803e-10
-1.411392e-09
-1.529504e-09
-1.278287e-09
-2.226034e-09
-1.585378e-10
-3.32047e-09
1.163592e-09
-4.916605e-09
2.416212e-09
-7.036748e-09
3.565661e-09
-9.629862e-09
4.612487e-09
-1.267319e-08
5.515495e-09
-1.609968e-08
6.28286e-09
-1.985686e-08
6.937151e-09
-2.389857e-08
7.488614e-09
-2.81848e-08
7.939175e-09
-3.266761e-08
8.299985e-09
-3.729984e-08
8.589092e-09
-4.205086e-08
8.818426e-09
-4.690161e-08
8.995537e-09
-5.183373e-08
9.126519e-09
-5.681978e-08
9.218285e-09
-6.183688e-08
9.280211e-09
-6.687406e-08
9.320444e-09
-7.192475e-08
9.341312e-09
-7.698277e-08
9.342311e-09
-8.203926e-08
9.325981e-09
-8.708232e-08
9.298324e-09
-9.210214e-08
9.264641e-09
-9.709755e-08
9.225449e-09
-1.020717e-07
9.178015e-09
-1.070222e-07
9.12124e-09
-1.119405e-07
9.056938e-09
-1.168188e-07
8.987932e-09
-1.216537e-07
8.915881e-09
-1.264451e-07
8.840061e-09
-1.311925e-07
8.757975e-09
-1.358935e-07
8.667361e-09
-1.405427e-07
8.567952e-09
-1.451325e-07
8.461318e-09
-1.496558e-07
8.348718e-09
-1.541082e-07
8.229408e-09
-1.584876e-07
8.101196e-09
-1.627914e-07
7.961898e-09
-1.670143e-07
7.810258e-09
-1.711482e-07
7.64622e-09
-1.751839e-07
7.47037e-09
-1.791129e-07
7.282745e-09
-1.829282e-07
7.082335e-09
-1.866246e-07
6.867781e-09
-1.901962e-07
6.638093e-09
-1.936359e-07
6.392607e-09
-1.969352e-07
6.13081e-09
-2.000842e-07
5.852465e-09
-2.030727e-07
5.55766e-09
-2.058907e-07
5.246506e-09
-2.085294e-07
4.918859e-09
-2.109814e-07
4.574377e-09
-2.132389e-07
4.212708e-09
-2.152939e-07
3.833642e-09
-2.171375e-07
3.43727e-09
-2.1876e-07
3.024039e-09
-2.201517e-07
2.594606e-09
-2.213036e-07
2.149623e-09
-2.222074e-07
1.689611e-09
-2.228554e-07
1.215062e-09
-2.232406e-07
7.266232e-10
-2.233565e-07
2.250822e-10
-2.23197e-07
-2.88751e-10
-2.227566e-07
-8.13981e-10
-2.2203e-07
-1.349473e-09
-2.210125e-07
-1.893789e-09
-2.196997e-07
-2.445223e-09
-2.180885e-07
-3.001935e-09
-2.161769e-07
-3.562033e-09
-2.13964e-07
-4.123546e-09
-2.114505e-07
-4.684391e-09
-2.086379e-07
-5.242328e-09
-2.055292e-07
-5.79507e-09
-2.021286e-07
-6.34032e-09
-1.984414e-07
-6.875645e-09
-1.944743e-07
-7.398564e-09
-1.902353e-07
-7.906611e-09
-1.857335e-07
-8.397285e-09
-1.809795e-07
-8.868135e-09
-1.759851e-07
-9.316823e-09
-1.707634e-07
-9.741037e-09
-1.653288e-07
-1.013847e-08
-1.596972e-07
-1.05069e-08
-1.538851e-07
-1.084422e-08
-1.479105e-07
-1.114846e-08
-1.417924e-07
-1.141777e-08
-1.355502e-07
-1.165045e-08
-1.292045e-07
-1.184491e-08
-1.227764e-07
-1.199967e-08
-1.162875e-07
-1.21134e-08
-1.0976e-07
-1.218498e-08
-1.032161e-07
-1.22135e-08
-9.667847e-08
-1.219823e-08
-9.017008e-08
-1.21387e-08
-8.371404e-08
-1.203471e-08
-7.733331e-08
-1.188633e-08
-7.105065e-08
-1.169387e-08
-6.488874e-08
-1.145779e-08
-5.887007e-08
-1.117874e-08
-5.301677e-08
-1.085764e-08
-4.735054e-08
-1.049567e-08
-4.189253e-08
-1.009421e-08
-3.666318e-08
-9.654752e-09
-3.168221e-08
-9.178983e-09
-2.696866e-08
-8.668755e-09
-2.254063e-08
-8.126067e-09
-1.841505e-08
-7.553003e-09
-1.460758e-08
-6.951789e-09
-1.113248e-08
-6.324947e-09
-8.002354e-09
-5.675256e-09
-5.227951e-09
-5.005692e-09
-2.817601e-09
-4.319753e-09
-7.7701e-10
-3.621949e-09
8.908485e-10
-2.917862e-09
2.187013e-09
-2.213996e-09
3.118226e-09
-1.518571e-09
3.69721e-09
-8.430866e-10
3.942323e-09
-2.022994e-10
3.879398e-09
3.872044e-10
3.545917e-09
9.05388e-10
2.995318e-09
1.32409e-09
2.299875e-09
1.604119e-09
1.547692e-09
1.69639e-09
8.329928e-10
1.554473e-09
2.413431e-10
1.152921e-09
4.81535e-10
-6.038436e-10
-8.124893e-10
-1.594911e-09
-3.419201e-10
-2.923952e-09
1.170903e-09
-4.827423e-09
3.005913e-09
-7.288594e-09
4.877847e-09
-1.034616e-08
6.651645e-09
-1.400997e-08
8.264255e-09
-1.8212e-08
9.697392e-09
-2.287079e-08
1.095453e-08
-2.79447e-08
1.20318e-08
-3.339063e-08
1.293628e-08
-3.914999e-08
1.368465e-08
-4.515797e-08
1.429829e-08
-5.136459e-08
1.479892e-08
-5.773474e-08
1.519973e-08
-6.424171e-08
1.550835e-08
-7.085773e-08
1.573668e-08
-7.754626e-08
1.590257e-08
-8.428024e-08
1.602099e-08
-9.104878e-08
1.609881e-08
-9.784229e-08
1.613782e-08
-1.046469e-07
1.614187e-08
-1.114471e-07
1.611991e-08
-1.18229e-07
1.608072e-08
-1.249845e-07
1.602759e-08
-1.317129e-07
1.595955e-08
-1.384132e-07
1.587553e-08
-1.450777e-07
1.577722e-08
-1.516957e-07
1.566806e-08
-1.582588e-07
1.555072e-08
-1.647644e-07
1.542549e-08
-1.712119e-07
1.529035e-08
-1.775991e-07
1.514262e-08
-1.839197e-07
1.498114e-08
-1.901653e-07
1.480659e-08
-1.963269e-07
1.462007e-08
-2.023975e-07
1.442154e-08
-2.083725e-07
1.420915e-08
-2.142476e-07
1.397992e-08
-2.200173e-07
1.373147e-08
-2.256731e-07
1.346303e-08
-2.312043e-07
1.317466e-08
-2.366e-07
1.286607e-08
-2.418504e-07
1.253631e-08
-2.469467e-07
1.218397e-08
-2.518808e-07
1.18074e-08
-2.566442e-07
1.140515e-08
-2.61227e-07
1.097623e-08
-2.656177e-07
1.05201e-08
-2.698036e-07
1.003649e-08
-2.737718e-07
9.525203e-09
-2.775102e-07
8.986071e-09
-2.810075e-07
8.418809e-09
-2.842534e-07
7.822936e-09
-2.872378e-07
7.197985e-09
-2.899495e-07
6.543837e-09
-2.923767e-07
5.8609e-09
-2.945071e-07
5.149967e-09
-2.963287e-07
4.411895e-09
-2.978303e-07
3.64749e-09
-2.990014e-07
2.857637e-09
-2.998322e-07
2.043392e-09
-3.003138e-07
1.205951e-09
-3.004378e-07
3.466248e-10
-3.001965e-07
-5.331621e-10
-2.995828e-07
-1.431738e-09
-2.985903e-07
-2.347009e-09
-2.972128e-07
-3.276491e-09
-2.954455e-07
-4.217432e-09
-2.932847e-07
-5.166871e-09
-2.907282e-07
-6.121651e-09
-2.877755e-07
-7.078401e-09
-2.844275e-07
-8.033598e-09
-2.806866e-07
-8.983592e-09
-2.765568e-07
-9.924556e-09
-2.720439e-07
-1.085255e-08
-2.671548e-07
-1.176353e-08
-2.618985e-07
-1.265331e-08
-2.562854e-07
-1.351772e-08
-2.503277e-07
-1.435265e-08
-2.440391e-07
-1.515403e-08
-2.374352e-07
-1.591785e-08
-2.305327e-07
-1.664016e-08
-2.233507e-07
-1.73171e-08
-2.159094e-07
-1.794496e-08
-2.082304e-07
-1.852026e-08
-2.003368e-07
-1.903971e-08
-1.922529e-07
-1.950019e-08
-1.840041e-07
-1.989879e-08
-1.756167e-07
-2.023287e-08
-1.671179e-07
-2.050004e-08
-1.585357e-07
-2.069816e-08
-1.498988e-07
-2.082539e-08
-1.41236e-07
-2.088023e-08
-1.325766e-07
-2.086152e-08
-1.239506e-07
-2.076854e-08
-1.153881e-07
-2.060093e-08
-1.069187e-07
-2.035874e-08
-9.857231e-08
-2.004235e-08
-9.03783e-08
-1.96525e-08
-8.236609e-08
-1.919026e-08
-7.456465e-08
-1.865709e-08
-6.700236e-08
-1.805483e-08
-5.970682e-08
-1.738567e-08
-5.27048e-08
-1.665201e-08
-4.602214e-08
-1.585648e-08
-3.968365e-08
-1.500201e-08
-3.371288e-08
-1.409184e-08
-2.813191e-08
-1.312946e-08
-2.296125e-08
-1.21186e-08
-1.82194e-08
-1.106355e-08
-1.392255e-08
-9.969319e-09
-1.008457e-08
-8.841556e-09
-6.716479e-09
-7.686678e-09
-3.825599e-09
-6.512546e-09
-1.41502e-09
-5.328909e-09
5.170096e-10
-4.14733e-09
1.97833e-09
-2.981816e-09
2.985e-09
-1.850748e-09
3.562512e-09
-7.784637e-10
3.744835e-09
2.052733e-10
3.57577e-09
1.066534e-09
3.114813e-09
1.76651e-09
2.443015e-09
2.256233e-09
1.668406e-09
2.470279e-09
9.166654e-10
2.331247e-09
2.849534e-10
1.775754e-09
7.64448e-10
-5.706927e-10
-2.151197e-10
-1.85541e-09
9.708376e-10
-3.785227e-09
3.098782e-09
-6.434284e-09
5.617794e-09
-9.756958e-09
8.209843e-09
-1.37738e-08
1.068163e-08
-1.847376e-08
1.294433e-08
-2.377813e-08
1.49901e-08
-2.961876e-08
1.680529e-08
-3.594497e-08
1.837088e-08
-4.270259e-08
1.969091e-08
-4.982388e-08
2.079475e-08
-5.723789e-08
2.171424e-08
-6.489664e-08
2.246886e-08
-7.276279e-08
2.307077e-08
-8.079723e-08
2.353683e-08
-8.895931e-08
2.38912e-08
-9.720951e-08
2.415679e-08
-1.055232e-07
2.434737e-08
-1.138887e-07
2.446984e-08
-1.222888e-07
2.453198e-08
-1.307e-07
2.454536e-08
-1.391037e-07
2.452242e-08
-1.474879e-07
2.447105e-08
-1.558459e-07
2.439311e-08
-1.641737e-07
2.42888e-08
-1.724649e-07
2.416045e-08
-1.80708e-07
2.401224e-08
-1.888909e-07
2.384808e-08
-1.970061e-07
2.366959e-08
-2.05051e-07
2.347578e-08
-2.130239e-07
2.32643e-08
-2.20919e-07
2.303312e-08
-2.287269e-07
2.278186e-08
-2.364369e-07
2.251161e-08
-2.440397e-07
2.222293e-08
-2.515283e-07
2.191417e-08
-2.588971e-07
2.158215e-08
-2.661397e-07
2.122378e-08
-2.732471e-07
2.083698e-08
-2.802081e-07
2.042073e-08
-2.870104e-07
1.997453e-08
-2.936417e-07
1.949757e-08
-3.000907e-07
1.898821e-08
-3.063467e-07
1.844427e-08
-3.123994e-07
1.786369e-08
-3.182376e-07
1.724485e-08
-3.238487e-07
1.658653e-08
-3.292187e-07
1.58878e-08
-3.343326e-07
1.514812e-08
-3.391753e-07
1.436724e-08
-3.437325e-07
1.354481e-08
-3.479912e-07
1.268024e-08
-3.519388e-07
1.177284e-08
-3.555624e-07
1.082225e-08
-3.588484e-07
9.828642e-09
-3.617824e-07
8.792669e-09
-3.643502e-07
7.715275e-09
-3.66538e-07
6.597582e-09
-3.683326e-07
5.440842e-09
-3.697217e-07
4.246477e-09
-3.706941e-07
3.016121e-09
-3.71239e-07
1.751577e-09
-3.713469e-07
4.548406e-10
-3.710087e-07
-8.717971e-10
-3.70216e-07
-2.225659e-09
-3.689614e-07
-3.603583e-09
-3.672382e-07
-5.001924e-09
-3.65041e-07
-6.41663e-09
-3.62366e-07
-7.843292e-09
-3.592111e-07
-9.277203e-09
-3.55576e-07
-1.07134e-08
-3.514623e-07
-1.214668e-08
-3.468733e-07
-1.357162e-08
-3.418141e-07
-1.498256e-08
-3.362917e-07
-1.637361e-08
-3.303149e-07
-1.773873e-08
-3.238948e-07
-1.907182e-08
-3.17044e-07
-2.03668e-08
-3.097773e-07
-2.161758e-08
-3.021115e-07
-2.281811e-08
-2.94065e-07
-2.396244e-08
-2.856584e-07
-2.504472e-08
-2.769142e-07
-2.605929e-08
-2.678567e-07
-2.700072e-08
-2.585117e-07
-2.786388e-08
-2.489068e-07
-2.864387e-08
-2.390708e-07
-2.93361e-08
-2.290341e-07
-2.993632e-08
-2.188278e-07
-3.044066e-08
-2.084845e-07
-3.084562e-08
-1.980375e-07
-3.11481e-08
-1.875209e-07
-3.134544e-08
-1.769692e-07
-3.143548e-08
-1.664175e-07
-3.14166e-08
-1.559017e-07
-3.128776e-08
-1.454575e-07
-3.104842e-08
-1.351207e-07
-3.069853e-08
-1.249267e-07
-3.023858e-08
-1.149111e-07
-2.966955e-08
-1.051089e-07
-2.899301e-08
-9.555501e-08
-2.821098e-08
-8.628349e-08
-2.732602e-08
-7.732738e-08
-2.634112e-08
-6.87188e-08
-2.525973e-08
-6.048877e-08
-2.408569e-08
-5.266704e-08
-2.282316e-08
-4.528176e-08
-2.147676e-08
-3.835926e-08
-2.005166e-08
-3.192416e-08
-1.85536e-08
-2.599872e-08
-1.698902e-08
-2.060207e-08
-1.536549e-08
-1.575046e-08
-1.369195e-08
-1.145703e-08
-1.197866e-08
-7.730505e-09
-1.023771e-08
-4.573952e-09
-8.483819e-09
-1.984692e-09
-6.734939e-09
4.586735e-11
-5.012591e-09
1.535002e-09
-3.34252e-09
2.512109e-09
-1.757177e-09
3.018494e-09
-2.985606e-10
3.106686e-09
9.825653e-10
2.841452e-09
2.029243e-09
2.303539e-09
2.776851e-09
1.603356e-09
3.149714e-09
8.891714e-10
3.05112e-09
2.84633e-10
2.378649e-09
1.045864e-09
-6.137368e-10
4.203825e-10
-2.254777e-09
2.576454e-09
-4.727667e-09
5.598265e-09
-8.07813e-09
8.97441e-09
-1.22513e-08
1.237881e-08
-1.721543e-08
1.562543e-08
-2.290495e-08
1.863553e-08
-2.926287e-08
2.136685e-08
-3.623651e-08
2.378272e-08
-4.375685e-08
2.587631e-08
-5.174575e-08
2.766714e-08
-6.013167e-08
2.918353e-08
-6.885276e-08
3.04499e-08
-7.786365e-08
3.148607e-08
-8.711592e-08
3.231539e-08
-9.655637e-08
3.296831e-08
-1.061397e-07
3.347516e-08
-1.1583e-07
3.385783e-08
-1.256037e-07
3.413046e-08
-1.354423e-07
3.430557e-08
-1.453197e-07
3.439917e-08
-1.552075e-07
3.442871e-08
-1.650873e-07
3.440721e-08
-1.749499e-07
3.434108e-08
-1.847864e-07
3.423316e-08
-1.945877e-07
3.408704e-08
-2.043426e-07
3.390822e-08
-2.140376e-07
3.37021e-08
-2.236608e-07
3.347225e-08
-2.33205e-07
3.321959e-08
-2.426667e-07
3.294247e-08
-2.52042e-07
3.263848e-08
-2.613218e-07
3.230672e-08
-2.704935e-07
3.194782e-08
-2.795453e-07
3.15623e-08
-2.884683e-07
3.114924e-08
-2.972551e-07
3.070597e-08
-3.058985e-07
3.022879e-08
-3.143892e-07
2.97143e-08
-3.227157e-07
2.916041e-08
-3.308644e-07
2.856607e-08
-3.388215e-07
2.793016e-08
-3.465737e-07
2.725081e-08
-3.541083e-07
2.652554e-08
-3.614128e-07
2.575184e-08
-3.684746e-07
2.492735e-08
-3.752802e-07
2.405003e-08
-3.818146e-07
2.311825e-08
-3.880615e-07
2.213097e-08
-3.940039e-07
2.108753e-08
-3.996249e-07
1.998736e-08
-4.049086e-07
1.88297e-08
-4.098401e-07
1.761372e-08
-4.144049e-07
1.63388e-08
-4.185876e-07
1.500475e-08
-4.223725e-07
1.361196e-08
-4.257433e-07
1.216131e-08
-4.28684e-07
1.065403e-08
-4.311794e-07
9.091631e-09
-4.332146e-07
7.475885e-09
-4.347761e-07
5.80878e-09
-4.358512e-07
4.092588e-09
-4.36428e-07
2.329917e-09
-4.364959e-07
5.236929e-10
-4.360446e-07
-1.322796e-09
-4.350652e-07
-3.205781e-09
-4.335493e-07
-5.120867e-09
-4.314899e-07
-7.06301e-09
-4.288813e-07
-9.026615e-09
-4.257199e-07
-1.100563e-08
-4.220038e-07
-1.299361e-08
-4.177333e-07
-1.498381e-08
-4.129107e-07
-1.696909e-08
-4.0754e-07
-1.894196e-08
-4.016276e-07
-2.089461e-08
-3.951818e-07
-2.2819e-08
-3.882133e-07
-2.470693e-08
-3.807348e-07
-2.655012e-08
-3.727613e-07
-2.834026e-08
-3.643098e-07
-3.006907e-08
-3.553999e-07
-3.172826e-08
-3.460529e-07
-3.330971e-08
-3.362922e-07
-3.480549e-08
-3.261437e-07
-3.620791e-08
-3.156353e-07
-3.750958e-08
-3.047964e-07
-3.870348e-08
-2.936584e-07
-3.978299e-08
-2.822542e-07
-4.074185e-08
-2.706184e-07
-4.157429e-08
-2.587863e-07
-4.22751e-08
-2.46795e-07
-4.283956e-08
-2.346824e-07
-4.326346e-08
-2.224873e-07
-4.354323e-08
-2.102491e-07
-4.367604e-08
-1.980077e-07
-4.365978e-08
-1.85804e-07
-4.349304e-08
-1.736786e-07
-4.3175e-08
-1.616723e-07
-4.270557e-08
-1.498257e-07
-4.208536e-08
-1.38179e-07
-4.131569e-08
-1.267725e-07
-4.039861e-08
-1.156458e-07
-3.93368e-08
-1.048378e-07
-3.813353e-08
-9.438625e-08
-3.679266e-08
-8.432765e-08
-3.531871e-08
-7.469726e-08
-3.371687e-08
-6.552892e-08
-3.199279e-08
-5.685467e-08
-3.015268e-08
-4.87044e-08
-2.820363e-08
-4.110597e-08
-2.615375e-08
-3.408477e-08
-2.40121e-08
-2.766257e-08
-2.178903e-08
-2.185753e-08
-1.949695e-08
-1.668417e-08
-1.715068e-08
-1.215232e-08
-1.476735e-08
-8.26541e-09
-1.236723e-08
-5.019957e-09
-9.975414e-09
-2.405628e-09
-7.622554e-09
-4.040671e-10
-5.34405e-09
1.014306e-09
-3.181281e-09
1.89372e-09
-1.185689e-09
2.294004e-09
5.790488e-10
2.287073e-09
2.03631e-09
1.957733e-09
3.101002e-09
1.409045e-09
3.67906e-09
7.933148e-10
3.659877e-09
2.581514e-10
2.911678e-09
1.301393e-09
-7.133663e-10
1.113125e-09
-2.688394e-09
4.511673e-09
-5.682722e-09
8.644155e-09
-9.721923e-09
1.30084e-08
-1.47149e-08
1.733962e-08
-2.057084e-08
2.147271e-08
-2.721389e-08
2.530567e-08
-3.459909e-08
2.876547e-08
-4.265644e-08
3.182737e-08
-5.129788e-08
3.450116e-08
-6.043999e-08
3.680844e-08
-7.001572e-08
3.877024e-08
-7.996606e-08
4.04086e-08
-9.023841e-08
4.175237e-08
-1.007722e-07
4.28382e-08
-1.115089e-07
4.370406e-08
-1.224066e-07
4.43811e-08
-1.334315e-07
4.48916e-08
-1.445557e-07
4.525485e-08
-1.557517e-07
4.549226e-08
-1.669871e-07
4.56266e-08
-1.782334e-07
4.567731e-08
-1.89475e-07
4.565691e-08
-2.00702e-07
4.557267e-08
-2.11901e-07
4.543076e-08
-2.230578e-07
4.523831e-08
-2.341583e-07
4.500294e-08
-2.451885e-07
4.473084e-08
-2.561367e-07
4.442495e-08
-2.669956e-07
4.408518e-08
-2.777604e-07
4.371007e-08
-2.884235e-07
4.32984e-08
-2.989728e-07
4.285006e-08
-3.09394e-07
4.236572e-08
-3.196749e-07
4.184528e-08
-3.298064e-07
4.128655e-08
-3.397806e-07
4.068557e-08
-3.495882e-07
4.003822e-08
-3.592172e-07
3.934139e-08
-3.686535e-07
3.859308e-08
-3.778818e-07
3.779158e-08
-3.868874e-07
3.693485e-08
-3.956558e-07
3.602023e-08
-4.041728e-07
3.504469e-08
-4.124242e-07
3.400513e-08
-4.203953e-07
3.28987e-08
-4.280706e-07
3.172302e-08
-4.354328e-07
3.04763e-08
-4.424636e-07
2.915733e-08
-4.491444e-07
2.776513e-08
-4.554568e-07
2.629876e-08
-4.613835e-07
2.47572e-08
-4.66908e-07
2.313948e-08
-4.720136e-07
2.1445e-08
-4.766832e-07
1.967374e-08
-4.808991e-07
1.782635e-08
-4.846435e-07
1.590403e-08
-4.87899e-07
1.390843e-08
-4.90649e-07
1.184148e-08
-4.928776e-07
9.705489e-09
-4.9457e-07
7.503131e-09
-4.957124e-07
5.23751e-09
-4.962921e-07
2.912158e-09
-4.962974e-07
5.310321e-10
-4.957176e-07
-1.901462e-09
-4.945429e-07
-4.380312e-09
-4.927647e-07
-6.899663e-09
-4.903755e-07
-9.452873e-09
-4.873698e-07
-1.203266e-08
-4.837443e-07
-1.463118e-08
-4.794975e-07
-1.724011e-08
-4.746302e-07
-1.985061e-08
-4.691455e-07
-2.245337e-08
-4.630484e-07
-2.503864e-08
-4.563465e-07
-2.759628e-08
-4.490495e-07
-3.01159e-08
-4.411695e-07
-3.258696e-08
-4.327214e-07
-3.499875e-08
-4.23722e-07
-3.734051e-08
-4.141906e-07
-3.960152e-08
-4.041491e-07
-4.177113e-08
-3.936213e-07
-4.383884e-08
-3.826337e-07
-4.579445e-08
-3.71215e-07
-4.762805e-08
-3.593961e-07
-4.933012e-08
-3.4721e-07
-5.08916e-08
-3.346911e-07
-5.230396e-08
-3.218761e-07
-5.355919e-08
-3.088031e-07
-5.464989e-08
-2.955113e-07
-5.556931e-08
-2.820416e-07
-5.631146e-08
-2.684359e-07
-5.687102e-08
-2.54737e-07
-5.724348e-08
-2.409887e-07
-5.742523e-08
-2.27235e-07
-5.741361e-08
-2.135209e-07
-5.720684e-08
-1.998915e-07
-5.680389e-08
-1.863916e-07
-5.620456e-08
-1.730661e-07
-5.540958e-08
-1.599596e-07
-5.442068e-08
-1.471164e-07
-5.324045e-08
-1.345802e-07
-5.187226e-08
-1.223939e-07
-5.032018e-08
-1.105991e-07
-4.858901e-08
-9.923614e-08
-4.668439e-08
-8.834362e-08
-4.461287e-08
-7.795862e-08
-4.238181e-08
-6.811642e-08
-3.999925e-08
-5.884988e-08
-3.747434e-08
-5.018936e-08
-3.481783e-08
-4.216246e-08
-3.204193e-08
-3.479331e-08
-2.916036e-08
-2.810189e-08
-2.618921e-08
-2.21036e-08
-2.314795e-08
-1.680876e-08
-2.005942e-08
-1.222173e-08
-1.695022e-08
-8.339191e-09
-1.385247e-08
-5.148662e-09
-1.080563e-08
-2.629206e-09
-7.856264e-09
-7.509527e-10
-5.057948e-09
5.300991e-10
-2.47267e-09
1.27461e-09
-1.745442e-10
1.560752e-09
1.745341e-09
1.479233e-09
3.181241e-09
1.130645e-09
4.017132e-09
6.581492e-10
4.124194e-09
2.189353e-10
3.347812e-09
1.518243e-09
-8.070809e-10
1.948794e-09
-3.107801e-09
6.778548e-09
-6.638763e-09
1.217651e-08
-1.132933e-08
1.769587e-08
-1.708129e-08
2.308482e-08
-2.378537e-08
2.818741e-08
-3.136244e-08
3.289015e-08
-3.973677e-08
3.712945e-08
-4.881674e-08
4.089466e-08
-5.851134e-08
4.419612e-08
-6.874277e-08
4.704999e-08
-7.944497e-08
4.947773e-08
-9.055096e-08
5.150989e-08
-1.019973e-07
5.31873e-08
-1.137182e-07
5.455465e-08
-1.256576e-07
5.565146e-08
-1.377773e-07
5.650939e-08
-1.500409e-07
5.715595e-08
-1.624127e-07
5.761918e-08
-1.748585e-07
5.792845e-08
-1.873443e-07
5.811015e-08
-1.998443e-07
5.818397e-08
-2.123434e-07
5.816318e-08
-2.248286e-07
5.805795e-08
-2.372819e-07
5.787858e-08
-2.496849e-07
5.763561e-08
-2.620224e-07
5.733784e-08
-2.742804e-07
5.699118e-08
-2.864478e-07
5.659828e-08
-2.98516e-07
5.61591e-08
-3.104776e-07
5.567258e-08
-3.223222e-07
5.513856e-08
-3.340348e-07
5.455794e-08
-3.456002e-07
5.393113e-08
-3.570064e-07
5.325665e-08
-3.682441e-07
5.2531e-08
-3.79304e-07
5.174971e-08
-3.901744e-07
5.090867e-08
-4.008407e-07
5.000475e-08
-4.112867e-07
4.90356e-08
-4.214963e-07
4.799887e-08
-4.314535e-07
4.689167e-08
-4.411427e-07
4.571056e-08
-4.505485e-07
4.445185e-08
-4.596548e-07
4.311192e-08
-4.684452e-07
4.168752e-08
-4.769019e-07
4.017596e-08
-4.850059e-07
3.857525e-08
-4.92737e-07
3.688387e-08
-5.000754e-07
3.510054e-08
-5.070015e-07
3.322399e-08
-5.134967e-07
3.125297e-08
-5.195428e-07
2.918639e-08
-5.251214e-07
2.702373e-08
-5.302136e-07
2.476521e-08
-5.348003e-07
2.241184e-08
-5.388623e-07
1.996515e-08
-5.423811e-07
1.742717e-08
-5.45339e-07
1.480037e-08
-5.477191e-07
1.208771e-08
-5.495056e-07
9.292724e-09
-5.506839e-07
6.419455e-09
-5.512406e-07
3.472422e-09
-5.511634e-07
4.566966e-10
-5.50441e-07
-2.622007e-09
-5.49063e-07
-5.757229e-09
-5.470207e-07
-8.94151e-09
-5.443066e-07
-1.21665e-08
-5.409154e-07
-1.542309e-08
-5.36844e-07
-1.870149e-08
-5.320917e-07
-2.199125e-08
-5.266599e-07
-2.528128e-08
-5.205523e-07
-2.855988e-08
-5.137751e-07
-3.181486e-08
-5.06337e-07
-3.503362e-08
-4.982492e-07
-3.820326e-08
-4.895254e-07
-4.131063e-08
-4.801821e-07
-4.434245e-08
-4.702381e-07
-4.728535e-08
-4.597148e-07
-5.0126e-08
-4.486362e-07
-5.285118e-08
-4.370287e-07
-5.544789e-08
-4.249213e-07
-5.790349e-08
-4.123454e-07
-6.020569e-08
-3.993349e-07
-6.23427e-08
-3.859254e-07
-6.430331e-08
-3.721547e-07
-6.607695e-08
-3.580625e-07
-6.765371e-08
-3.436902e-07
-6.902446e-08
-3.290805e-07
-7.018092e-08
-3.142776e-07
-7.11157e-08
-2.993268e-07
-7.182231e-08
-2.842748e-07
-7.22953e-08
-2.691688e-07
-7.253034e-08
-2.540569e-07
-7.252417e-08
-2.389872e-07
-7.227454e-08
-2.240086e-07
-7.178025e-08
-2.091698e-07
-7.104111e-08
-1.945192e-07
-7.005806e-08
-1.80105e-07
-6.883319e-08
-1.659751e-07
-6.736963e-08
-1.521765e-07
-6.567141e-08
-1.387552e-07
-6.374351e-08
-1.257562e-07
-6.159182e-08
-1.132228e-07
-5.92232e-08
-1.011964e-07
-5.66456e-08
-8.971673e-08
-5.386815e-08
-7.882142e-08
-5.090108e-08
-6.854594e-08
-4.775595e-08
-5.892265e-08
-4.444612e-08
-4.998057e-08
-4.098711e-08
-4.174545e-08
-3.739666e-08
-3.423905e-08
-3.369527e-08
-2.747756e-08
-2.990722e-08
-2.147135e-08
-2.606138e-08
-1.622536e-08
-2.21916e-08
-1.173718e-08
-1.833735e-08
-7.993585e-09
-1.454554e-08
-4.971141e-09
-1.087282e-08
-2.637321e-09
-7.385849e-09
-9.475732e-10
-4.159832e-09
1.559654e-10
-1.28262e-09
7.516948e-10
1.143625e-09
9.350216e-10
2.997448e-09
8.085931e-10
4.141705e-09
5.039183e-10
4.425562e-09
1.748787e-10
3.674311e-09
1.691756e-09
-9.126912e-10
2.893884e-09
-3.524325e-09
9.347575e-09
-7.555865e-09
1.618995e-08
-1.286169e-08
2.301679e-08
-1.933024e-08
2.957411e-08
-2.685185e-08
3.571535e-08
-3.532249e-08
4.134485e-08
-4.463039e-08
4.642248e-08
-5.467536e-08
5.09395e-08
-6.53697e-08
5.490088e-08
-7.663599e-08
5.832309e-08
-8.840164e-08
6.123715e-08
-1.005888e-07
6.368638e-08
-1.131275e-07
6.571994e-08
-1.25954e-07
6.738526e-08
-1.39016e-07
6.872308e-08
-1.522743e-07
6.976949e-08
-1.656864e-07
7.056049e-08
-1.792096e-07
7.113296e-08
-1.928076e-07
7.152147e-08
-2.064483e-07
7.175376e-08
-2.201073e-07
7.185008e-08
-2.337681e-07
7.182666e-08
-2.474131e-07
7.16983e-08
-2.610199e-07
7.147886e-08
-2.745688e-07
7.118079e-08
-2.880439e-07
7.081393e-08
-3.014317e-07
7.038414e-08
-3.147207e-07
6.989363e-08
-3.279008e-07
6.934275e-08
-3.409615e-07
6.87319e-08
-3.538891e-07
6.806213e-08
-3.666673e-07
6.733439e-08
-3.792808e-07
6.65482e-08
-3.917176e-07
6.570088e-08
-4.039679e-07
6.478807e-08
-4.160203e-07
6.380501e-08
-4.278607e-07
6.274764e-08
-4.394723e-07
6.161282e-08
-4.508375e-07
6.039769e-08
-4.619391e-07
5.909904e-08
-4.727603e-07
5.771311e-08
-4.832845e-07
5.623571e-08
-4.934947e-07
5.466257e-08
-5.033734e-07
5.298957e-08
-5.129021e-07
5.121309e-08
-5.220614e-07
4.933018e-08
-5.308303e-07
4.733856e-08
-5.391876e-07
4.523645e-08
-5.47112e-07
4.302222e-08
-5.545831e-07
4.069424e-08
-5.61581e-07
3.825098e-08