/*--------------------------------*- C++ -*----------------------------------*\
| =========                 |                                                 |
| \\      /  F ield         | OpenFOAM: The Open Source CFD Toolbox           |
|  \\    /   O peration     | Version:  2406                                  |
|   \\  /    A nd           | Website:  www.openfoam.com                      |
|    \\/     M anipulation  |                                                 |
\*---------------------------------------------------------------------------*/
FoamFile
{
    version     2.0;
    format      ascii;
    arch        "LSB;label=32;scalar=64";
    class       volVectorField;
    location    "200";
    object      U;
}
// * * * * * * * * * * * * * * * * * * * * * * * * * * * * * * * * * * * * * //

dimensions      [0 1 -1 0 0 0 0];

internalField   nonuniform List<vector> 
16384
(
(-4.122232e-07 -4.444636e-07 0)
(-6.65242e-07 -2.586813e-07 0)
(-3.778885e-07 -1.39418e-07 0)
(-2.920279e-07 -9.073129e-08 0)
(-2.930747e-07 -5.157642e-08 0)
(-3.535653e-07 -2.132396e-08 0)
(-4.759856e-07 -2.534483e-09 0)
(-6.513371e-07 1.124666e-08 0)
(-8.659522e-07 2.205592e-08 0)
(-1.11249e-06 2.872489e-08 0)
(-1.385508e-06 3.174647e-08 0)
(-1.680065e-06 3.349141e-08 0)
(-1.991669e-06 3.571946e-08 0)
(-2.316319e-06 3.834474e-08 0)
(-2.65048e-06 4.022076e-08 0)
(-2.99166e-06 4.10865e-08 0)
(-3.337946e-06 4.175304e-08 0)
(-3.687762e-06 4.253722e-08 0)
(-4.040284e-06 4.290941e-08 0)
(-4.39481e-06 4.267816e-08 0)
(-4.750027e-06 4.255692e-08 0)
(-5.104499e-06 4.289791e-08 0)
(-5.458093e-06 4.308816e-08 0)
(-5.81149e-06 4.272925e-08 0)
(-6.164166e-06 4.217102e-08 0)
(-6.514866e-06 4.180605e-08 0)
(-6.863326e-06 4.170405e-08 0)
(-7.20999e-06 4.172803e-08 0)
(-7.555005e-06 4.158491e-08 0)
(-7.898161e-06 4.106848e-08 0)
(-8.239037e-06 4.039487e-08 0)
(-8.57698e-06 3.996634e-08 0)
(-8.91161e-06 3.984491e-08 0)
(-9.24321e-06 3.97228e-08 0)
(-9.572173e-06 3.935104e-08 0)
(-9.898209e-06 3.878225e-08 0)
(-1.022038e-05 3.821598e-08 0)
(-1.053784e-05 3.777908e-08 0)
(-1.085023e-05 3.746102e-08 0)
(-1.115762e-05 3.715692e-08 0)
(-1.146004e-05 3.673704e-08 0)
(-1.175723e-05 3.614495e-08 0)
(-1.204856e-05 3.545804e-08 0)
(-1.233309e-05 3.478678e-08 0)
(-1.260996e-05 3.413164e-08 0)
(-1.287868e-05 3.339539e-08 0)
(-1.313901e-05 3.249485e-08 0)
(-1.339068e-05 3.14221e-08 0)
(-1.363322e-05 3.022344e-08 0)
(-1.386594e-05 2.89398e-08 0)
(-1.408805e-05 2.756715e-08 0)
(-1.429876e-05 2.606875e-08 0)
(-1.449733e-05 2.442815e-08 0)
(-1.468308e-05 2.26816e-08 0)
(-1.485531e-05 2.087235e-08 0)
(-1.501335e-05 1.899526e-08 0)
(-1.515664e-05 1.701555e-08 0)
(-1.528459e-05 1.491187e-08 0)
(-1.539657e-05 1.268951e-08 0)
(-1.549181e-05 1.037248e-08 0)
(-1.55695e-05 7.981834e-09 0)
(-1.562884e-05 5.524446e-09 0)
(-1.566917e-05 3.00214e-09 0)
(-1.568991e-05 4.121332e-10 0)
(-1.569059e-05 -2.257959e-09 0)
(-1.567081e-05 -5.01906e-09 0)
(-1.563019e-05 -7.866747e-09 0)
(-1.556836e-05 -1.078204e-08 0)
(-1.548492e-05 -1.374436e-08 0)
(-1.537956e-05 -1.6742e-08 0)
(-1.525205e-05 -1.976866e-08 0)
(-1.510229e-05 -2.281641e-08 0)
(-1.493026e-05 -2.587412e-08 0)
(-1.473603e-05 -2.89187e-08 0)
(-1.45197e-05 -3.191409e-08 0)
(-1.428145e-05 -3.483297e-08 0)
(-1.402155e-05 -3.766109e-08 0)
(-1.37404e-05 -4.038047e-08 0)
(-1.343854e-05 -4.296733e-08 0)
(-1.31166e-05 -4.540007e-08 0)
(-1.277532e-05 -4.766431e-08 0)
(-1.241556e-05 -4.975566e-08 0)
(-1.20383e-05 -5.168286e-08 0)
(-1.164465e-05 -5.346229e-08 0)
(-1.123583e-05 -5.510041e-08 0)
(-1.081315e-05 -5.659109e-08 0)
(-1.037798e-05 -5.79293e-08 0)
(-9.931783e-06 -5.910866e-08 0)
(-9.476101e-06 -6.011406e-08 0)
(-9.01253e-06 -6.093415e-08 0)
(-8.542705e-06 -6.156489e-08 0)
(-8.068308e-06 -6.198755e-08 0)
(-7.591027e-06 -6.216636e-08 0)
(-7.112524e-06 -6.20759e-08 0)
(-6.634473e-06 -6.170769e-08 0)
(-6.15859e-06 -6.104932e-08 0)
(-5.686608e-06 -6.008445e-08 0)
(-5.220244e-06 -5.881626e-08 0)
(-4.761216e-06 -5.726979e-08 0)
(-4.311265e-06 -5.546903e-08 0)
(-3.87213e-06 -5.342681e-08 0)
(-3.445523e-06 -5.115679e-08 0)
(-3.033123e-06 -4.868189e-08 0)
(-2.636568e-06 -4.602395e-08 0)
(-2.257435e-06 -4.318784e-08 0)
(-1.897217e-06 -4.016176e-08 0)
(-1.557298e-06 -3.694356e-08 0)
(-1.238967e-06 -3.354661e-08 0)
(-9.43441e-07 -2.99821e-08 0)
(-6.718644e-07 -2.626583e-08 0)
(-4.253128e-07 -2.243738e-08 0)
(-2.048107e-07 -1.855943e-08 0)
(-1.133719e-08 -1.469302e-08 0)
(1.542345e-07 -1.088232e-08 0)
(2.912179e-07 -7.145545e-09 0)
(3.991651e-07 -3.465333e-09 0)
(4.779458e-07 1.704062e-10 0)
(5.277889e-07 3.737903e-09 0)
(5.492402e-07 7.218145e-09 0)
(5.432238e-07 1.059896e-08 0)
(5.113331e-07 1.378511e-08 0)
(4.561791e-07 1.654275e-08 0)
(3.816055e-07 1.857395e-08 0)
(2.92889e-07 1.968184e-08 0)
(1.972912e-07 1.971342e-08 0)
(1.053459e-07 1.799865e-08 0)
(3.340718e-08 1.248788e-08 0)
(-5.439556e-10 2.097831e-09 0)
(-2.23279e-07 -7.77391e-07 0)
(-4.909033e-07 -5.887086e-07 0)
(-5.13914e-07 -3.43583e-07 0)
(-6.16918e-07 -1.400687e-07 0)
(-8.087719e-07 3.437912e-08 0)
(-1.109766e-06 1.766771e-07 0)
(-1.534801e-06 2.889645e-07 0)
(-2.071846e-06 3.821398e-07 0)
(-2.704476e-06 4.590884e-07 0)
(-3.417846e-06 5.201448e-07 0)
(-4.197568e-06 5.671705e-07 0)
(-5.031264e-06 6.036656e-07 0)
(-5.909466e-06 6.328979e-07 0)
(-6.824871e-06 6.565522e-07 0)
(-7.769827e-06 6.749554e-07 0)
(-8.736215e-06 6.886943e-07 0)
(-9.717475e-06 6.989792e-07 0)
(-1.071002e-05 7.063009e-07 0)
(-1.171188e-05 7.105702e-07 0)
(-1.271985e-05 7.124104e-07 0)
(-1.372997e-05 7.13297e-07 0)
(-1.473987e-05 7.137648e-07 0)
(-1.574915e-05 7.129098e-07 0)
(-1.67575e-05 7.102957e-07 0)
(-1.776305e-05 7.067915e-07 0)
(-1.876367e-05 7.033138e-07 0)
(-1.97588e-05 6.999239e-07 0)
(-2.074886e-05 6.961267e-07 0)
(-2.17338e-05 6.914518e-07 0)
(-2.271275e-05 6.858654e-07 0)
(-2.368438e-05 6.798907e-07 0)
(-2.464739e-05 6.740984e-07 0)
(-2.560134e-05 6.684479e-07 0)
(-2.654658e-05 6.623261e-07 0)
(-2.748311e-05 6.5523e-07 0)
(-2.84097e-05 6.472406e-07 0)
(-2.932435e-05 6.388008e-07 0)
(-3.022552e-05 6.302017e-07 0)
(-3.11125e-05 6.213102e-07 0)
(-3.198504e-05 6.117109e-07 0)
(-3.284258e-05 6.010443e-07 0)
(-3.368388e-05 5.892187e-07 0)
(-3.450712e-05 5.763814e-07 0)
(-3.531032e-05 5.626904e-07 0)
(-3.609178e-05 5.481026e-07 0)
(-3.685026e-05 5.324067e-07 0)
(-3.758467e-05 5.154147e-07 0)
(-3.829374e-05 4.97066e-07 0)
(-3.897589e-05 4.773748e-07 0)
(-3.96293e-05 4.56328e-07 0)
(-4.025204e-05 4.338666e-07 0)
(-4.08422e-05 4.099523e-07 0)
(-4.139782e-05 3.846149e-07 0)
(-4.191696e-05 3.579319e-07 0)
(-4.239775e-05 3.29957e-07 0)
(-4.283841e-05 3.00671e-07 0)
(-4.323727e-05 2.700161e-07 0)
(-4.359262e-05 2.379575e-07 0)
(-4.390264e-05 2.04511e-07 0)
(-4.416537e-05 1.697402e-07 0)
(-4.437882e-05 1.33728e-07 0)
(-4.454108e-05 9.654736e-08 0)
(-4.465042e-05 5.825473e-08 0)
(-4.470536e-05 1.8891e-08 0)
(-4.470461e-05 -2.151246e-08 0)
(-4.464701e-05 -6.291203e-08 0)
(-4.453148e-05 -1.052311e-07 0)
(-4.435697e-05 -1.483526e-07 0)
(-4.412253e-05 -1.921274e-07 0)
(-4.382741e-05 -2.363975e-07 0)
(-4.34711e-05 -2.810096e-07 0)
(-4.305336e-05 -3.25806e-07 0)
(-4.257418e-05 -3.706104e-07 0)
(-4.203368e-05 -4.152171e-07 0)
(-4.143221e-05 -4.593915e-07 0)
(-4.077031e-05 -5.028945e-07 0)
(-4.004881e-05 -5.455012e-07 0)
(-3.926887e-05 -5.869958e-07 0)
(-3.843194e-05 -6.271611e-07 0)
(-3.753976e-05 -6.657854e-07 0)
(-3.659434e-05 -7.026785e-07 0)
(-3.559803e-05 -7.376751e-07 0)
(-3.455349e-05 -7.706303e-07 0)
(-3.346367e-05 -8.014206e-07 0)
(-3.233179e-05 -8.2992e-07 0)
(-3.11613e-05 -8.559807e-07 0)
(-2.995585e-05 -8.794506e-07 0)
(-2.871932e-05 -9.00184e-07 0)
(-2.745582e-05 -9.180302e-07 0)
(-2.61696e-05 -9.328391e-07 0)
(-2.486505e-05 -9.444753e-07 0)
(-2.354665e-05 -9.528067e-07 0)
(-2.221894e-05 -9.576988e-07 0)
(-2.088651e-05 -9.590368e-07 0)
(-1.955396e-05 -9.567407e-07 0)
(-1.822599e-05 -9.50762e-07 0)
(-1.690732e-05 -9.410882e-07 0)
(-1.560272e-05 -9.277529e-07 0)
(-1.431692e-05 -9.108242e-07 0)
(-1.305465e-05 -8.903827e-07 0)
(-1.182062e-05 -8.66519e-07 0)
(-1.061953e-05 -8.393398e-07 0)
(-9.455975e-06 -8.089581e-07 0)
(-8.334417e-06 -7.754801e-07 0)
(-7.259142e-06 -7.390013e-07 0)
(-6.234257e-06 -6.996087e-07 0)
(-5.263651e-06 -6.574091e-07 0)
(-4.350969e-06 -6.125473e-07 0)
(-3.499652e-06 -5.651964e-07 0)
(-2.71296e-06 -5.155724e-07 0)
(-1.993953e-06 -4.639504e-07 0)
(-1.345464e-06 -4.106568e-07 0)
(-7.700796e-07 -3.560388e-07 0)
(-2.700341e-07 -3.004484e-07 0)
(1.52968e-07 -2.442407e-07 0)
(4.978546e-07 -1.877513e-07 0)
(7.643448e-07 -1.313624e-07 0)
(9.531721e-07 -7.563974e-08 0)
(1.066107e-06 -2.138257e-08 0)
(1.105985e-06 3.037144e-08 0)
(1.077274e-06 7.81921e-08 0)
(9.870606e-07 1.199294e-07 0)
(8.457838e-07 1.525527e-07 0)
(6.672976e-07 1.723961e-07 0)
(4.686443e-07 1.753288e-07 0)
(2.710634e-07 1.564199e-07 0)
(1.049856e-07 1.102595e-07 0)
(7.898269e-09 3.799651e-08 0)
(-1.199706e-07 -5.210748e-07 0)
(-3.828011e-07 -5.284373e-07 0)
(-6.017818e-07 -2.597486e-07 0)
(-9.150618e-07 7.328861e-08 0)
(-1.35207e-06 3.998194e-07 0)
(-1.939917e-06 6.893979e-07 0)
(-2.686968e-06 9.398791e-07 0)
(-3.583889e-06 1.154832e-06 0)
(-4.616537e-06 1.337163e-06 0)
(-5.767206e-06 1.489721e-06 0)
(-7.017053e-06 1.615649e-06 0)
(-8.348815e-06 1.718018e-06 0)
(-9.748545e-06 1.799701e-06 0)
(-1.120518e-05 1.863803e-06 0)
(-1.270772e-05 1.91381e-06 0)
(-1.424517e-05 1.952958e-06 0)
(-1.580874e-05 1.982974e-06 0)
(-1.739251e-05 2.003999e-06 0)
(-1.899163e-05 2.017037e-06 0)
(-2.060035e-05 2.024689e-06 0)
(-2.221353e-05 2.028908e-06 0)
(-2.382854e-05 2.029794e-06 0)
(-2.544407e-05 2.026901e-06 0)
(-2.705795e-05 2.020774e-06 0)
(-2.866685e-05 2.012736e-06 0)
(-3.026841e-05 2.003679e-06 0)
(-3.186221e-05 1.99352e-06 0)
(-3.344823e-05 1.981687e-06 0)
(-3.502545e-05 1.967927e-06 0)
(-3.659203e-05 1.952648e-06 0)
(-3.81461e-05 1.936592e-06 0)
(-3.968628e-05 1.920084e-06 0)
(-4.121214e-05 1.902656e-06 0)
(-4.272367e-05 1.883529e-06 0)
(-4.421997e-05 1.862376e-06 0)
(-4.569878e-05 1.839514e-06 0)
(-4.715752e-05 1.815381e-06 0)
(-4.859443e-05 1.789997e-06 0)
(-5.000864e-05 1.762904e-06 0)
(-5.139924e-05 1.733501e-06 0)
(-5.27647e-05 1.701439e-06 0)
(-5.410277e-05 1.666707e-06 0)
(-5.541083e-05 1.629391e-06 0)
(-5.668625e-05 1.589425e-06 0)
(-5.79267e-05 1.546544e-06 0)
(-5.913011e-05 1.50046e-06 0)
(-6.029446e-05 1.451008e-06 0)
(-6.141747e-05 1.398114e-06 0)
(-6.249665e-05 1.341675e-06 0)
(-6.352925e-05 1.281536e-06 0)
(-6.451236e-05 1.217566e-06 0)
(-6.544297e-05 1.149745e-06 0)
(-6.631808e-05 1.07815e-06 0)
(-6.713482e-05 1.002862e-06 0)
(-6.789034e-05 9.239023e-07 0)
(-6.858192e-05 8.412374e-07 0)
(-6.920688e-05 7.548246e-07 0)
(-6.976251e-05 6.646727e-07 0)
(-7.024597e-05 5.708578e-07 0)
(-7.065434e-05 4.735078e-07 0)
(-7.09847e-05 3.72776e-07 0)
(-7.123431e-05 2.688133e-07 0)
(-7.140064e-05 1.617599e-07 0)
(-7.148148e-05 5.175473e-08 0)
(-7.147485e-05 -6.10532e-08 0)
(-7.137893e-05 -1.764797e-07 0)
(-7.119204e-05 -2.942776e-07 0)
(-7.091263e-05 -4.141333e-07 0)
(-7.053932e-05 -5.356809e-07 0)
(-7.007105e-05 -6.585237e-07 0)
(-6.950715e-05 -7.822464e-07 0)
(-6.884728e-05 -9.064007e-07 0)
(-6.809143e-05 -1.030483e-06 0)
(-6.723987e-05 -1.153941e-06 0)
(-6.62932e-05 -1.276194e-06 0)
(-6.525237e-05 -1.396659e-06 0)
(-6.411877e-05 -1.514754e-06 0)
(-6.289427e-05 -1.629903e-06 0)
(-6.158113e-05 -1.741542e-06 0)
(-6.018208e-05 -1.849122e-06 0)
(-5.87003e-05 -1.952129e-06 0)
(-5.71394e-05 -2.050099e-06 0)
(-5.550345e-05 -2.142593e-06 0)
(-5.379696e-05 -2.229185e-06 0)
(-5.202478e-05 -2.309459e-06 0)
(-5.019214e-05 -2.382987e-06 0)
(-4.830458e-05 -2.44934e-06 0)
(-4.636801e-05 -2.508096e-06 0)
(-4.438863e-05 -2.558851e-06 0)
(-4.23729e-05 -2.601212e-06 0)
(-4.032749e-05 -2.63481e-06 0)
(-3.825926e-05 -2.659307e-06 0)
(-3.617517e-05 -2.674402e-06 0)
(-3.408228e-05 -2.679845e-06 0)
(-3.198775e-05 -2.675457e-06 0)
(-2.989884e-05 -2.661141e-06 0)
(-2.78229e-05 -2.636888e-06 0)
(-2.576728e-05 -2.60277e-06 0)
(-2.373929e-05 -2.55891e-06 0)
(-2.174625e-05 -2.505466e-06 0)
(-1.979545e-05 -2.442628e-06 0)
(-1.789411e-05 -2.370626e-06 0)
(-1.60493e-05 -2.289701e-06 0)
(-1.42679e-05 -2.200093e-06 0)
(-1.255657e-05 -2.102051e-06 0)
(-1.092173e-05 -1.995853e-06 0)
(-9.36947e-06 -1.881823e-06 0)
(-7.905576e-06 -1.760372e-06 0)
(-6.53552e-06 -1.632004e-06 0)
(-5.264463e-06 -1.497323e-06 0)
(-4.09721e-06 -1.357027e-06 0)
(-3.038144e-06 -1.211903e-06 0)
(-2.091183e-06 -1.062802e-06 0)
(-1.25963e-06 -9.10629e-07 0)
(-5.459207e-07 -7.563904e-07 0)
(4.853407e-08 -6.012082e-07 0)
(5.234728e-07 -4.46347e-07 0)
(8.800387e-07 -2.934758e-07 0)
(1.121025e-06 -1.449845e-07 0)
(1.251097e-06 -3.991791e-09 0)
(1.277263e-06 1.257152e-07 0)
(1.209805e-06 2.392424e-07 0)
(1.06347e-06 3.29842e-07 0)
(8.58016e-07 3.885306e-07 0)
(6.176991e-07 4.045667e-07 0)
(3.710954e-07 3.671642e-07 0)
(1.555243e-07 2.682206e-07 0)
(1.585694e-08 1.068103e-07 0)
(-9.243646e-08 -3.823424e-07 0)
(-3.661262e-07 -3.363152e-07 0)
(-7.306301e-07 4.646474e-08 0)
(-1.250214e-06 5.407246e-07 0)
(-1.94725e-06 1.04509e-06 0)
(-2.831465e-06 1.517308e-06 0)
(-3.905041e-06 1.943132e-06 0)
(-5.158111e-06 2.316272e-06 0)
(-6.574501e-06 2.637221e-06 0)
(-8.135515e-06 2.91037e-06 0)
(-9.821505e-06 3.140551e-06 0)
(-1.161368e-05 3.331572e-06 0)
(-1.349488e-05 3.486531e-06 0)
(-1.544977e-05 3.609861e-06 0)
(-1.746389e-05 3.707387e-06 0)
(-1.952465e-05 3.7839e-06 0)
(-2.16227e-05 3.841947e-06 0)
(-2.374995e-05 3.883353e-06 0)
(-2.589776e-05 3.911169e-06 0)
(-2.80584e-05 3.928982e-06 0)
(-3.022696e-05 3.938646e-06 0)
(-3.240025e-05 3.940513e-06 0)
(-3.457488e-05 3.935424e-06 0)
(-3.674684e-05 3.925148e-06 0)
(-3.891228e-05 3.911241e-06 0)
(-4.106883e-05 3.894279e-06 0)
(-4.321579e-05 3.874103e-06 0)
(-4.535232e-05 3.850484e-06 0)
(-4.747626e-05 3.823713e-06 0)
(-4.958482e-05 3.794596e-06 0)
(-5.167586e-05 3.763761e-06 0)
(-5.374824e-05 3.731031e-06 0)
(-5.580144e-05 3.695597e-06 0)
(-5.783456e-05 3.656829e-06 0)
(-5.984554e-05 3.614751e-06 0)
(-6.183137e-05 3.569762e-06 0)
(-6.378932e-05 3.522001e-06 0)
(-6.571756e-05 3.471046e-06 0)
(-6.761477e-05 3.416178e-06 0)
(-6.947925e-05 3.356808e-06 0)
(-7.13085e-05 3.292662e-06 0)
(-7.309945e-05 3.223667e-06 0)
(-7.484892e-05 3.149691e-06 0)
(-7.655378e-05 3.070412e-06 0)
(-7.821099e-05 2.98542e-06 0)
(-7.981766e-05 2.894373e-06 0)
(-8.137085e-05 2.797045e-06 0)
(-8.286755e-05 2.693226e-06 0)
(-8.430445e-05 2.582667e-06 0)
(-8.567793e-05 2.465137e-06 0)
(-8.698415e-05 2.340514e-06 0)
(-8.821918e-05 2.208787e-06 0)
(-8.937918e-05 2.070003e-06 0)
(-9.046044e-05 1.924191e-06 0)
(-9.145935e-05 1.771327e-06 0)
(-9.237235e-05 1.611379e-06 0)
(-9.31959e-05 1.444352e-06 0)
(-9.39264e-05 1.270335e-06 0)
(-9.456017e-05 1.089509e-06 0)
(-9.50935e-05 9.020999e-07 0)
(-9.552277e-05 7.083549e-07 0)
(-9.584457e-05 5.085322e-07 0)
(-9.605574e-05 3.029028e-07 0)
(-9.615348e-05 9.175826e-08 0)
(-9.613524e-05 -1.245735e-07 0)
(-9.599869e-05 -3.457011e-07 0)
(-9.574169e-05 -5.711325e-07 0)
(-9.536229e-05 -8.002739e-07 0)
(-9.485882e-05 -1.03246e-06 0)
(-9.423004e-05 -1.266964e-06 0)
(-9.347515e-05 -1.502998e-06 0)
(-9.25938e-05 -1.739698e-06 0)
(-9.158602e-05 -1.976124e-06 0)
(-9.045226e-05 -2.211269e-06 0)
(-8.919343e-05 -2.444089e-06 0)
(-8.781091e-05 -2.67353e-06 0)
(-8.630662e-05 -2.898534e-06 0)
(-8.468308e-05 -3.118045e-06 0)
(-8.294334e-05 -3.331018e-06 0)
(-8.109101e-05 -3.536443e-06 0)
(-7.913029e-05 -3.733356e-06 0)
(-7.706593e-05 -3.920842e-06 0)
(-7.490323e-05 -4.098036e-06 0)
(-7.264797e-05 -4.26409e-06 0)
(-7.030642e-05 -4.418161e-06 0)
(-6.78853e-05 -4.559411e-06 0)
(-6.539173e-05 -4.687023e-06 0)
(-6.283329e-05 -4.800202e-06 0)
(-6.021796e-05 -4.898183e-06 0)
(-5.755407e-05 -4.980249e-06 0)
(-5.485019e-05 -5.045742e-06 0)
(-5.211516e-05 -5.094064e-06 0)
(-4.935801e-05 -5.12469e-06 0)
(-4.658794e-05 -5.137195e-06 0)
(-4.381425e-05 -5.131287e-06 0)
(-4.104642e-05 -5.106809e-06 0)
(-3.829404e-05 -5.063729e-06 0)
(-3.556667e-05 -5.002133e-06 0)
(-3.287386e-05 -4.922197e-06 0)
(-3.022507e-05 -4.824168e-06 0)
(-2.762977e-05 -4.708349e-06 0)
(-2.509735e-05 -4.575095e-06 0)
(-2.263699e-05 -4.424816e-06 0)
(-2.025764e-05 -4.257946e-06 0)
(-1.7968e-05 -4.074955e-06 0)
(-1.577646e-05 -3.876386e-06 0)
(-1.369109e-05 -3.66289e-06 0)
(-1.171957e-05 -3.435283e-06 0)
(-9.869153e-06 -3.194535e-06 0)
(-8.146666e-06 -2.941751e-06 0)
(-6.558411e-06 -2.678192e-06 0)
(-5.110068e-06 -2.405281e-06 0)
(-3.806604e-06 -2.124583e-06 0)
(-2.652148e-06 -1.837781e-06 0)
(-1.649709e-06 -1.546788e-06 0)
(-8.009032e-07 -1.253867e-06 0)
(-1.058827e-07 -9.617063e-07 0)
(4.367926e-07 -6.736848e-07 0)
(8.30634e-07 -3.943044e-07 0)
(1.081841e-06 -1.294044e-07 0)
(1.199705e-06 1.139037e-07 0)
(1.197043e-06 3.270887e-07 0)
(1.091043e-06 4.994518e-07 0)
(9.041589e-07 6.170217e-07 0)
(6.648065e-07 6.622271e-07 0)
(4.078599e-07 6.162548e-07 0)
(1.768605e-07 4.638407e-07 0)
(1.973622e-08 1.954507e-07 0)
(-6.988266e-08 -2.340302e-07 0)
(-3.851697e-07 -4.015217e-11 0)
(-8.964006e-07 5.703066e-07 0)
(-1.626778e-06 1.261585e-06 0)
(-2.580712e-06 1.972919e-06 0)
(-3.757225e-06 2.65366e-06 0)
(-5.152185e-06 3.278699e-06 0)
(-6.752414e-06 3.836646e-06 0)
(-8.537899e-06 4.32413e-06 0)
(-1.048779e-05 4.743447e-06 0)
(-1.258247e-05 5.098981e-06 0)
(-1.480304e-05 5.396097e-06 0)
(-1.713014e-05 5.640361e-06 0)
(-1.954467e-05 5.838197e-06 0)
(-2.203002e-05 5.996547e-06 0)
(-2.457334e-05 6.120686e-06 0)
(-2.716375e-05 6.21459e-06 0)
(-2.979012e-05 6.283097e-06 0)
(-3.24417e-05 6.3314e-06 0)
(-3.511039e-05 6.363104e-06 0)
(-3.779095e-05 6.380092e-06 0)
(-4.04786e-05 6.384104e-06 0)
(-4.316792e-05 6.377606e-06 0)
(-4.58538e-05 6.363061e-06 0)
(-4.853222e-05 6.342017e-06 0)
(-5.120077e-05 6.31498e-06 0)
(-5.385815e-05 6.282027e-06 0)
(-5.650229e-05 6.24352e-06 0)
(-5.912975e-05 6.200366e-06 0)
(-6.173728e-05 6.153505e-06 0)
(-6.43229e-05 6.103148e-06 0)
(-6.688558e-05 6.048676e-06 0)
(-6.942414e-05 5.989305e-06 0)
(-7.193658e-05 5.924777e-06 0)
(-7.44199e-05 5.855322e-06 0)
(-7.687074e-05 5.78111e-06 0)
(-7.92863e-05 5.70184e-06 0)
(-8.166455e-05 5.616772e-06 0)
(-8.400358e-05 5.525086e-06 0)
(-8.630078e-05 5.426207e-06 0)
(-8.855285e-05 5.319825e-06 0)
(-9.075614e-05 5.205687e-06 0)
(-9.290698e-05 5.083416e-06 0)
(-9.500168e-05 4.952508e-06 0)
(-9.703653e-05 4.812458e-06 0)
(-9.900788e-05 4.662832e-06 0)
(-0.0001009121 4.503241e-06 0)
(-0.0001027454 4.333293e-06 0)
(-0.0001045039 4.152624e-06 0)
(-0.0001061829 3.960972e-06 0)
(-0.0001077779 3.758216e-06 0)
(-0.0001092842 3.544329e-06 0)
(-0.0001106973 3.319301e-06 0)
(-0.0001120127 3.083094e-06 0)
(-0.0001132261 2.83565e-06 0)
(-0.0001143333 2.576958e-06 0)
(-0.00011533 2.307105e-06 0)
(-0.0001162118 2.02629e-06 0)
(-0.0001169743 1.734799e-06 0)
(-0.0001176133 1.432979e-06 0)
(-0.0001181245 1.12121e-06 0)
(-0.0001185039 7.999056e-07 0)
(-0.000118748 4.695143e-07 0)
(-0.0001188535 1.305286e-07 0)
(-0.0001188173 -2.164872e-07 0)
(-0.0001186368 -5.708672e-07 0)
(-0.0001183094 -9.318143e-07 0)
(-0.0001178329 -1.298396e-06 0)
(-0.0001172056 -1.669567e-06 0)
(-0.0001164259 -2.044178e-06 0)
(-0.0001154931 -2.420977e-06 0)
(-0.0001144069 -2.798601e-06 0)
(-0.0001131673 -3.175585e-06 0)
(-0.0001117752 -3.550386e-06 0)
(-0.0001102316 -3.921406e-06 0)
(-0.0001085385 -4.287019e-06 0)
(-0.0001066982 -4.645587e-06 0)
(-0.0001047139 -4.995478e-06 0)
(-0.0001025894 -5.33507e-06 0)
(-0.0001003292 -5.662781e-06 0)
(-9.793822e-05 -5.977094e-06 0)
(-9.542237e-05 -6.276548e-06 0)
(-9.278798e-05 -6.559717e-06 0)
(-9.004196e-05 -6.825221e-06 0)
(-8.719176e-05 -7.071696e-06 0)
(-8.424537e-05 -7.297798e-06 0)
(-8.121128e-05 -7.502225e-06 0)
(-7.809849e-05 -7.683735e-06 0)
(-7.491648e-05 -7.841149e-06 0)
(-7.167514e-05 -7.97336e-06 0)
(-6.838469e-05 -8.079364e-06 0)
(-6.505565e-05 -8.158271e-06 0)
(-6.169881e-05 -8.209305e-06 0)
(-5.832515e-05 -8.23184e-06 0)
(-5.494588e-05 -8.22544e-06 0)
(-5.157236e-05 -8.189871e-06 0)
(-4.821606e-05 -8.125065e-06 0)
(-4.488842e-05 -8.031092e-06 0)
(-4.160085e-05 -7.90815e-06 0)
(-3.836469e-05 -7.756564e-06 0)
(-3.519123e-05 -7.576764e-06 0)
(-3.209167e-05 -7.369266e-06 0)
(-2.907698e-05 -7.134663e-06 0)
(-2.615785e-05 -6.873634e-06 0)
(-2.334472e-05 -6.586947e-06 0)
(-2.064772e-05 -6.275497e-06 0)
(-1.807661e-05 -5.940358e-06 0)
(-1.564072e-05 -5.582837e-06 0)
(-1.334881e-05 -5.204463e-06 0)
(-1.120909e-05 -4.806942e-06 0)
(-9.229119e-06 -4.392192e-06 0)
(-7.415656e-06 -3.962391e-06 0)
(-5.77449e-06 -3.519984e-06 0)
(-4.31035e-06 -3.067681e-06 0)
(-3.02667e-06 -2.608552e-06 0)
(-1.925264e-06 -2.146267e-06 0)
(-1.006202e-06 -1.685358e-06 0)
(-2.677587e-07 -1.231407e-06 0)
(2.940526e-07 -7.913448e-07 0)
(6.863902e-07 -3.739702e-07 0)
(9.202401e-07 9.774273e-09 0)
(1.010583e-06 3.467699e-07 0)
(9.764946e-07 6.214324e-07 0)
(8.415621e-07 8.148863e-07 0)
(6.3563e-07 9.041438e-07 0)
(3.974706e-07 8.628502e-07 0)
(1.757415e-07 6.654687e-07 0)
(2.040096e-08 2.889837e-07 0)
(-5.174913e-08 -4.438954e-08 0)
(-4.257824e-07 4.651764e-07 0)
(-1.086625e-06 1.285904e-06 0)
(-2.024685e-06 2.22447e-06 0)
(-3.229082e-06 3.17934e-06 0)
(-4.690672e-06 4.094583e-06 0)
(-6.397331e-06 4.940713e-06 0)
(-8.330703e-06 5.704148e-06 0)
(-1.046873e-05 6.378847e-06 0)
(-1.278921e-05 6.963885e-06 0)
(-1.527084e-05 7.462543e-06 0)
(-1.789274e-05 7.881414e-06 0)
(-2.063403e-05 8.229053e-06 0)
(-2.347442e-05 8.513952e-06 0)
(-2.63966e-05 8.743301e-06 0)
(-2.93867e-05 8.92338e-06 0)
(-3.243132e-05 9.060978e-06 0)
(-3.551694e-05 9.163481e-06 0)
(-3.863236e-05 9.23696e-06 0)
(-4.176965e-05 9.28531e-06 0)
(-4.492238e-05 9.311612e-06 0)
(-4.808363e-05 9.319394e-06 0)
(-5.124651e-05 9.312352e-06 0)
(-5.440559e-05 9.2933e-06 0)
(-5.75569e-05 9.263803e-06 0)
(-6.06976e-05 9.224613e-06 0)
(-6.382527e-05 9.176431e-06 0)
(-6.693655e-05 9.12037e-06 0)
(-7.002719e-05 9.0577e-06 0)
(-7.309387e-05 8.989134e-06 0)
(-7.613479e-05 8.914451e-06 0)
(-7.914856e-05 8.832938e-06 0)
(-8.213309e-05 8.744112e-06 0)
(-8.508531e-05 8.647973e-06 0)
(-8.800163e-05 8.54469e-06 0)
(-9.087856e-05 8.434099e-06 0)
(-9.371319e-05 8.315529e-06 0)
(-9.650308e-05 8.188044e-06 0)
(-9.924563e-05 8.050778e-06 0)
(-0.0001019375 7.903106e-06 0)
(-0.0001045746 7.744579e-06 0)
(-0.0001071529 7.574724e-06 0)
(-0.0001096682 7.39295e-06 0)
(-0.0001121163 7.198612e-06 0)
(-0.0001144928 6.991087e-06 0)
(-0.0001167934 6.769792e-06 0)
(-0.000119014 6.534155e-06 0)
(-0.00012115 6.283628e-06 0)
(-0.0001231968 6.017757e-06 0)
(-0.0001251492 5.736253e-06 0)
(-0.0001270017 5.43897e-06 0)
(-0.000128749 5.125828e-06 0)
(-0.000130386 4.796738e-06 0)
(-0.0001319079 4.45161e-06 0)
(-0.0001333095 4.090391e-06 0)
(-0.0001345861 3.713127e-06 0)
(-0.0001357326 3.319998e-06 0)
(-0.0001367441 2.911316e-06 0)
(-0.0001376156 2.487496e-06 0)
(-0.0001383424 2.049026e-06 0)
(-0.0001389198 1.596453e-06 0)
(-0.0001393433 1.130381e-06 0)
(-0.0001396091 6.514885e-07 0)
(-0.0001397134 1.605306e-07 0)
(-0.0001396529 -3.416401e-07 0)
(-0.0001394245 -8.54038e-07 0)
(-0.0001390256 -1.375501e-06 0)
(-0.0001384537 -1.904691e-06 0)
(-0.0001377069 -2.44011e-06 0)
(-0.0001367838 -2.980116e-06 0)
(-0.0001356836 -3.52292e-06 0)
(-0.0001344059 -4.066591e-06 0)
(-0.0001329511 -4.609067e-06 0)
(-0.0001313202 -5.148184e-06 0)
(-0.0001295148 -5.681716e-06 0)
(-0.0001275369 -6.207391e-06 0)
(-0.0001253898 -6.722909e-06 0)
(-0.000123077 -7.225966e-06 0)
(-0.000120603 -7.714287e-06 0)
(-0.0001179731 -8.185634e-06 0)
(-0.0001151932 -8.637838e-06 0)
(-0.00011227 -9.068796e-06 0)
(-0.0001092107 -9.476442e-06 0)
(-0.0001060233 -9.858754e-06 0)
(-0.0001027162 -1.021376e-05 0)
(-9.929862e-05 -1.053954e-05 0)
(-9.578013e-05 -1.083425e-05 0)
(-9.2171e-05 -1.109612e-05 0)
(-8.8482e-05 -1.132352e-05 0)
(-8.472437e-05 -1.151492e-05 0)
(-8.090973e-05 -1.166894e-05 0)
(-7.705006e-05 -1.178436e-05 0)
(-7.315763e-05 -1.186012e-05 0)
(-6.924501e-05 -1.18954e-05 0)
(-6.532501e-05 -1.188962e-05 0)
(-6.141061e-05 -1.184242e-05 0)
(-5.751485e-05 -1.175366e-05 0)
(-5.365078e-05 -1.162337e-05 0)
(-4.983137e-05 -1.145179e-05 0)
(-4.606954e-05 -1.123929e-05 0)
(-4.237814e-05 -1.098645e-05 0)
(-3.876988e-05 -1.069393e-05 0)
(-3.525722e-05 -1.036256e-05 0)
(-3.185237e-05 -9.993308e-06 0)
(-2.856721e-05 -9.587311e-06 0)
(-2.541335e-05 -9.145905e-06 0)
(-2.240198e-05 -8.67066e-06 0)
(-1.954383e-05 -8.163418e-06 0)
(-1.68489e-05 -7.626324e-06 0)
(-1.432652e-05 -7.06179e-06 0)
(-1.198525e-05 -6.472486e-06 0)
(-9.83271e-06 -5.86141e-06 0)
(-7.875354e-06 -5.231989e-06 0)
(-6.118333e-06 -4.588158e-06 0)
(-4.565358e-06 -3.934421e-06 0)
(-3.21847e-06 -3.276152e-06 0)
(-2.077773e-06 -2.620041e-06 0)
(-1.141224e-06 -1.974282e-06 0)
(-4.043646e-07 -1.348637e-06 0)
(1.40447e-07 -7.549765e-07 0)
(5.050003e-07 -2.07958e-07 0)
(7.055975e-07 2.745645e-07 0)
(7.628875e-07 6.713628e-07 0)
(7.0173e-07 9.578102e-07 0)
(5.524901e-07 1.105746e-06 0)
(3.55024e-07 1.082539e-06 0)
(1.601521e-07 8.523385e-07 0)
(1.911907e-08 3.776958e-07 0)
(-4.546702e-08 1.793388e-07 0)
(-4.841653e-07 1.040662e-06 0)
(-1.28587e-06 2.177071e-06 0)
(-2.423168e-06 3.412899e-06 0)
(-3.871072e-06 4.649307e-06 0)
(-5.608836e-06 5.828669e-06 0)
(-7.61487e-06 6.920363e-06 0)
(-9.866827e-06 7.908773e-06 0)
(-1.234147e-05 8.786351e-06 0)
(-1.501474e-05 9.55122e-06 0)
(-1.786273e-05 1.020705e-05 0)
(-2.0862e-05 1.076151e-05 0)
(-2.399026e-05 1.122461e-05 0)
(-2.722758e-05 1.160601e-05 0)
(-3.055652e-05 1.191407e-05 0)
(-3.396096e-05 1.215752e-05 0)
(-3.7425e-05 1.234592e-05 0)
(-4.09345e-05 1.248798e-05 0)
(-4.447868e-05 1.259018e-05 0)
(-4.804892e-05 1.265762e-05 0)
(-5.163689e-05 1.269538e-05 0)
(-5.523406e-05 1.270859e-05 0)
(-5.883297e-05 1.270165e-05 0)
(-6.24282e-05 1.267757e-05 0)
(-6.60155e-05 1.263825e-05 0)
(-6.959122e-05 1.258506e-05 0)
(-7.315167e-05 1.251954e-05 0)
(-7.669245e-05 1.24434e-05 0)
(-8.020896e-05 1.235795e-05 0)
(-8.369803e-05 1.226361e-05 0)
(-8.715777e-05 1.215997e-05 0)
(-9.058607e-05 1.204647e-05 0)
(-9.397981e-05 1.192293e-05 0)
(-9.733516e-05 1.178945e-05 0)
(-0.0001006482 1.164596e-05 0)
(-0.0001039153 1.149198e-05 0)
(-0.0001071333 1.132657e-05 0)
(-0.0001102994 1.114866e-05 0)
(-0.0001134102 1.09573e-05 0)
(-0.0001164616 1.075179e-05 0)
(-0.0001194492 1.05315e-05 0)
(-0.0001223682 1.029573e-05 0)
(-0.0001252142 1.004372e-05 0)
(-0.0001279822 9.774656e-06 0)
(-0.0001306675 9.487778e-06 0)
(-0.0001332652 9.18231e-06 0)
(-0.0001357705 8.857497e-06 0)
(-0.0001381784 8.512672e-06 0)
(-0.0001404835 8.147334e-06 0)
(-0.0001426798 7.761154e-06 0)
(-0.0001447614 7.353918e-06 0)
(-0.0001467224 6.925461e-06 0)
(-0.0001485573 6.475634e-06 0)
(-0.0001502606 6.004318e-06 0)
(-0.0001518267 5.511489e-06 0)
(-0.0001532502 4.99727e-06 0)
(-0.0001545256 4.46195e-06 0)
(-0.0001556473 3.905972e-06 0)
(-0.00015661 3.329893e-06 0)
(-0.0001574085 2.734368e-06 0)
(-0.0001580378 2.120142e-06 0)
(-0.0001584931 1.488064e-06 0)
(-0.0001587702 8.390813e-07 0)
(-0.000158865 1.742529e-07 0)
(-0.0001587741 -5.05232e-07 0)
(-0.0001584941 -1.198014e-06 0)
(-0.0001580221 -1.902507e-06 0)
(-0.0001573557 -2.616901e-06 0)
(-0.0001564928 -3.33919e-06 0)
(-0.000155432 -4.067179e-06 0)
(-0.0001541727 -4.798481e-06 0)
(-0.0001527146 -5.530527e-06 0)
(-0.0001510583 -6.260597e-06 0)
(-0.000149205 -6.985848e-06 0)
(-0.0001471567 -7.703348e-06 0)
(-0.0001449159 -8.410114e-06 0)
(-0.0001424863 -9.103117e-06 0)
(-0.0001398721 -9.779321e-06 0)
(-0.0001370784 -1.043572e-05 0)
(-0.0001341112 -1.106933e-05 0)
(-0.0001309771 -1.167728e-05 0)
(-0.0001276838 -1.22567e-05 0)
(-0.0001242392 -1.280484e-05 0)
(-0.0001206522 -1.331896e-05 0)
(-0.0001169323 -1.379639e-05 0)
(-0.0001130894 -1.423458e-05 0)
(-0.0001091343 -1.463109e-05 0)
(-0.0001050784 -1.498359e-05 0)
(-0.0001009335 -1.528997e-05 0)
(-9.671215e-05 -1.554824e-05 0)
(-9.242706e-05 -1.575661e-05 0)
(-8.809152e-05 -1.591352e-05 0)
(-8.371914e-05 -1.601764e-05 0)
(-7.932384e-05 -1.606793e-05 0)
(-7.49198e-05 -1.606363e-05 0)
(-7.052138e-05 -1.600427e-05 0)
(-6.614297e-05 -1.588959e-05 0)
(-6.179896e-05 -1.571958e-05 0)
(-5.750368e-05 -1.549447e-05 0)
(-5.327138e-05 -1.521475e-05 0)
(-4.911621e-05 -1.48811e-05 0)
(-4.505214e-05 -1.449439e-05 0)
(-4.109292e-05 -1.40557e-05 0)
(-3.725202e-05 -1.356634e-05 0)
(-3.354257e-05 -1.302786e-05 0)
(-2.997738e-05 -1.244211e-05 0)
(-2.656884e-05 -1.181123e-05 0)
(-2.332877e-05 -1.113764e-05 0)
(-2.026822e-05 -1.042411e-05 0)
(-1.739737e-05 -9.673818e-06 0)
(-1.472552e-05 -8.890285e-06 0)
(-1.226093e-05 -8.07742e-06 0)
(-1.001057e-05 -7.239722e-06 0)
(-7.979987e-06 -6.382479e-06 0)
(-6.173083e-06 -5.511914e-06 0)
(-4.592143e-06 -4.635435e-06 0)
(-3.237435e-06 -3.762074e-06 0)
(-2.106684e-06 -2.902834e-06 0)
(-1.194854e-06 -2.070734e-06 0)
(-4.937951e-07 -1.281033e-06 0)
(8.566672e-09 -5.520075e-07 0)
(3.288261e-07 9.425853e-08 0)
(4.883589e-07 6.311557e-07 0)
(5.133887e-07 1.027981e-06 0)
(4.351156e-07 1.25059e-06 0)
(2.928139e-07 1.260257e-06 0)
(1.363586e-07 1.012021e-06 0)
(1.695731e-08 4.560155e-07 0)
(-4.580457e-08 4.346608e-07 0)
(-5.495562e-07 1.723433e-06 0)
(-1.485694e-06 3.236982e-06 0)
(-2.813002e-06 4.815944e-06 0)
(-4.49258e-06 6.369436e-06 0)
(-6.493965e-06 7.842881e-06 0)
(-8.786766e-06 9.204249e-06 0)
(-1.134398e-05 1.043589e-05 0)
(-1.413993e-05 1.153035e-05 0)
(-1.714817e-05 1.248728e-05 0)
(-2.034208e-05 1.331178e-05 0)
(-2.369632e-05 1.401269e-05 0)
(-2.718811e-05 1.460045e-05 0)
(-3.079751e-05 1.50856e-05 0)
(-3.450567e-05 1.547904e-05 0)
(-3.829434e-05 1.579252e-05 0)
(-4.21468e-05 1.603731e-05 0)
(-4.604927e-05 1.622271e-05 0)
(-4.999066e-05 1.635633e-05 0)
(-5.396089e-05 1.644529e-05 0)
(-5.795008e-05 1.649656e-05 0)
(-6.194891e-05 1.651638e-05 0)
(-6.594981e-05 1.650964e-05 0)
(-6.994727e-05 1.64798e-05 0)
(-7.393651e-05 1.642938e-05 0)
(-7.791276e-05 1.636059e-05 0)
(-8.187118e-05 1.627577e-05 0)
(-8.580673e-05 1.617699e-05 0)
(-8.971487e-05 1.606544e-05 0)
(-9.359244e-05 1.594133e-05 0)
(-9.743714e-05 1.580432e-05 0)
(-0.000101246 1.565412e-05 0)
(-0.000105015 1.549076e-05 0)
(-0.0001087397 1.531427e-05 0)
(-0.0001124161 1.512437e-05 0)
(-0.0001160403 1.492024e-05 0)
(-0.0001196089 1.470073e-05 0)
(-0.0001231186 1.446465e-05 0)
(-0.0001265653 1.421101e-05 0)