/*--------------------------------*- C++ -*----------------------------------*\
  =========                 |
  \\      /  F ield         | OpenFOAM: The Open Source CFD Toolbox
   \\    /   O peration     | Website:  https://openfoam.org
    \\  /    A nd           | Version:  11
     \\/     M anipulation  |
\*---------------------------------------------------------------------------*/
FoamFile
{
    format      ascii;
    class       volScalarField;
    location    "1.5";
    object      mag(U);
}
// * * * * * * * * * * * * * * * * * * * * * * * * * * * * * * * * * * * * * //

dimensions      [0 1 -1 0 0 0 0];

internalField   nonuniform List<scalar> 
9600
(
0.994708
0.99525
0.987993
0.947126
0.908749
0.905185
0.924091
0.949985
0.97277
0.990618
1.00393
1.01395
1.02184
1.0286
1.03448
1.03947
1.04349
1.04645
1.04867
1.05034
1.05128
1.05119
1.04992
1.04784
1.04519
1.04218
1.03879
1.03488
1.03089
1.02676
1.02307
1.01927
1.0158
1.01236
1.00983
1.00727
1.00548
1.00318
1.0009
0.994404
0.996274
0.994506
0.989742
0.988789
0.991022
0.991962
0.995718
1.00012
1.00236
1.00397
1.00514
1.00734
1.01187
1.01644
1.02074
1.02441
1.02725
1.02935
1.03103
1.03243
1.03317
1.03273
1.03136
1.02953
1.02711
1.02441
1.02107
1.01734
1.01331
1.00897
1.00563
1.00071
0.998972
0.993923
0.992942
0.988664
0.98856
0.984745
0.9839
0.984308
0.997215
0.998483
0.995098
0.986694
0.973684
0.964271
0.962956
0.971194
0.984446
0.997239
1.00876
1.01857
1.02622
1.03246
1.03789
1.04256
1.04627
1.04897
1.05107
1.05272
1.05379
1.05423
1.05336
1.05124
1.04868
1.04569
1.04275
1.03887
1.03571
1.03133
1.02902
1.02452
1.02248
1.01781
1.0164
1.01176
1.01092
1.00636
1.00554
0.99599
0.998651
1.00014
1.00017
1.00007
1.00853
1.01692
1.02079
1.02455
1.02358
1.01941
1.01661
1.01609
1.01653
1.0194
1.02361
1.02692
1.02958
1.03163
1.03315
1.03452
1.03513
1.03431
1.03286
1.0315
1.02968
1.02717
1.02415
1.02019
1.01644
1.01125
1.00838
1.00274
1.00041
0.9973
0.994643
0.993068
0.991939
0.989013
0.991638
0.995546
1.00059
1.00507
1.00682
1.00787
1.00744
0.996731
0.984475
0.980599
0.986622
0.997418
1.00774
1.01723
1.02554
1.03237
1.03764
1.04197
1.04544
1.04783
1.0499
1.05141
1.05239
1.05333
1.05296
1.05083
1.04811
1.04513
1.04231
1.03874
1.03594
1.03199
1.02985
1.02599
1.02382
1.01915
1.01706
1.01262
1.00977
1.00591
1.00277
0.991726
1.00277
1.00767
1.00871
1.01099
1.01629
1.02067
1.02455
1.02788
1.0308
1.02976
1.02656
1.02444
1.02419
1.02459
1.02678
1.03008
1.03241
1.03463
1.03607
1.03748
1.03809
1.03711
1.03515
1.03385
1.03266
1.03049
1.02763
1.02343
1.0197
1.01428
1.01078
1.00548
1.00263
0.99994
0.998022
0.996806
0.996124
0.995091
0.998615
1.00072
1.00611
1.00975
1.01142
1.01436
1.01347
1.01114
1.00443
0.995621
0.994384
0.99978
1.00797
1.01654
1.02462
1.03178
1.0376
1.042
1.04521
1.04746
1.04933
1.05065
1.0515
1.05279
1.05294
1.05089
1.04802
1.04487
1.04218
1.03874
1.03611
1.03298
1.03036
1.02733
1.02486
1.02053
1.01681
1.01231
1.00866
1.0049
1.00013
0.98895
1.00923
1.01088
1.01259
1.01586
1.01874
1.01996
1.02319
1.02799
1.0313
1.03285
1.03186
1.03034
1.03001
1.03055
1.03141
1.0335
1.03571
1.03788
1.0394
1.04113
1.04119
1.04056
1.03855
1.03693
1.03584
1.03412
1.03144
1.02723
1.02335
1.01772
1.01363
1.0086
1.00507
1.0028
1.00192
1.00047
1.00016
1.00068
1.00234
1.00339
1.01033
1.01173
1.01421
1.01657
1.01689
1.01674
1.01551
1.01188
1.00753
1.00686
1.01072
1.01705
1.02428
1.03127
1.03745
1.04217
1.04562
1.04783
1.04941
1.05101
1.05139
1.05232
1.05325
1.05161
1.04841
1.045
1.04244
1.03908
1.03655
1.03332
1.03096
1.02818
1.02519
1.02122
1.01658
1.01151
1.00756
1.00363
0.996527
0.988343
1.01097
1.01289
1.01481
1.01543
1.01781
1.01967
1.02285
1.02757
1.03027
1.03148
1.03281
1.03348
1.03432
1.03527
1.03653
1.03768
1.0398
1.04141
1.04321
1.0451
1.04523
1.04438
1.04231
1.04074
1.03931
1.03764
1.03548
1.03137
1.0271
1.02128
1.01673
1.0116
1.00796
1.006
1.00503
1.00417
1.00421
1.00417
1.00443
1.00484
1.01164
1.01352
1.01451
1.01498
1.01691
1.01925
1.01963
1.01941
1.01837
1.01668
1.01701
1.02036
1.02577
1.03186
1.03774
1.04281
1.04642
1.04892
1.05065
1.05188
1.05211
1.05317
1.05437
1.05276
1.04976
1.04598
1.04309
1.03952
1.03701
1.03368
1.03138
1.02857
1.02558
1.02093
1.01612
1.01093
1.00652
1.00158
0.994778
0.991234
1.01163
1.01328
1.01384
1.01422
1.01588
1.01989
1.02286
1.02578
1.03001
1.03169
1.03247
1.03458
1.03677
1.03865
1.04033
1.0424
1.04398
1.046
1.04774
1.04899
1.05021
1.04935
1.04677
1.04484
1.04348
1.04182
1.03945
1.03545
1.03099
1.02498
1.02028
1.01506
1.0111
1.0089
1.00866
1.00759
1.00686
1.00595
1.00585
1.00535
1.01091
1.01212
1.01248
1.013
1.01476
1.01954
1.02288
1.02422
1.02448
1.02453
1.02459
1.02573
1.0291
1.03421
1.03961
1.04437
1.04835
1.05096
1.05263
1.0541
1.0542
1.05488
1.05612
1.05481
1.05201
1.04817
1.04449
1.04092
1.03774
1.03459
1.03175
1.02878
1.02581
1.02066
1.01577
1.01038
1.00525
1.00108
0.996333
0.99474
1.00976
1.01066
1.01092
1.0116
1.01358
1.01892
1.02344
1.02568
1.02897
1.03186
1.03357
1.03582
1.03857
1.04142
1.04394
1.04655
1.04873
1.05062
1.05256
1.05381
1.05526
1.0545
1.05181
1.04985
1.04837
1.0463
1.04353
1.03957
1.03526
1.02917
1.02425
1.0187
1.01432
1.0119
1.01172
1.01029
1.00893
1.00759
1.00662
1.00453
1.00863
1.00918
1.00944
1.01025
1.01244
1.01814
1.02319
1.02697
1.02963
1.03075
1.03095
1.03197
1.03421
1.03811
1.04276
1.04698
1.05105
1.05392
1.05585
1.0574
1.05771
1.05801
1.05882
1.05757
1.05515
1.05151
1.0473
1.04301
1.03943
1.0359
1.03269
1.02917
1.02614
1.02077
1.01549
1.01004
1.00566
1.0025
0.998993
0.997777
1.00747
1.00796
1.00837
1.00937
1.01174
1.01785
1.02395
1.02764
1.03104
1.03421
1.03595
1.03809
1.04073
1.04423
1.0474
1.05039
1.05342
1.05562
1.05787
1.05931
1.06056
1.06023
1.05783
1.05575
1.05414
1.05156
1.04832
1.04387
1.03961
1.03366
1.02845
1.02291
1.01807
1.01533
1.01425
1.01241
1.01052
1.00878
1.00626
1.00326
1.00685
1.00739
1.0079
1.00899
1.01119
1.01707
1.0236
1.02802
1.03241
1.03569
1.03671
1.03779
1.03963
1.04307
1.04726
1.05113
1.05542
1.05845
1.06046
1.06226
1.0626
1.06276
1.06334
1.06187
1.05957
1.056
1.05179
1.0466
1.04212
1.03792
1.03419
1.03007
1.0269
1.02167
1.01586
1.01107
1.00712
1.00474
1.00156
1.00067
1.00614
1.00692
1.00749
1.00867
1.01061
1.01557
1.02249
1.02797
1.03298
1.0368
1.03844
1.04043
1.04317
1.04701
1.05123
1.05458
1.05842
1.06125
1.0635
1.06545
1.06672
1.06675
1.06491
1.06251
1.06066
1.0578
1.0542
1.04894
1.04444
1.03843
1.03293
1.02726
1.02227
1.01865
1.01674
1.01447
1.0112
1.00907
1.00531
1.00294
1.00623
1.00686
1.0073
1.00836
1.01011
1.01422
1.02124
1.02723
1.03286
1.03789
1.04045
1.04266
1.04533
1.04858
1.05307
1.05657
1.06063
1.06424
1.06654
1.06846
1.06918
1.06953
1.06958
1.06757
1.06517
1.06176
1.05788
1.05235
1.04715
1.04153
1.03702
1.03186
1.0283
1.0231
1.01726
1.01311
1.00901
1.00718
1.00382
1.00231
1.00556
1.00637
1.00698
1.00806
1.00985
1.01347
1.02017
1.02653
1.03271
1.03892
1.04246
1.04498
1.04806
1.05157
1.05651
1.06038
1.06441
1.06807
1.07071
1.07261
1.07385
1.07433
1.0733
1.07062
1.06831
1.06511
1.06135
1.05561
1.05052
1.04408
1.03846
1.03211
1.02664
1.02216
1.01894
1.01606
1.01154
1.00924
1.00537
1.00305
1.00539
1.00666
1.00732
1.00832
1.01015
1.01313
1.01926
1.02589
1.03254
1.03975
1.04458
1.04791
1.05161
1.05506
1.05994
1.06407
1.06806
1.07198
1.07482
1.07686
1.07778
1.07804
1.07796
1.07565
1.07295
1.06933
1.0656
1.05963
1.05409
1.04733
1.04165
1.03543
1.03073
1.02551
1.01957
1.01585
1.01117
1.00906
1.00535
1.00315
1.00508
1.00658
1.0073
1.00816
1.01012
1.01297
1.01857
1.02514
1.03225
1.04056
1.04692
1.05109
1.05546
1.05915
1.0639
1.06843
1.07257
1.07654
1.07967
1.08187
1.08284
1.08314
1.08312
1.08061
1.07782
1.07391
1.07011
1.06411
1.05843
1.05118
1.04493
1.03809
1.03188
1.02656
1.0213
1.01799
1.01271
1.00996
1.00607
1.00368
1.00476
1.00651
1.00774
1.00855
1.01057
1.01344
1.01855
1.02465
1.03181
1.04096
1.04892
1.05421
1.05942
1.06397
1.06875
1.07343
1.07774
1.08156
1.08493
1.08761
1.08904
1.08895
1.08901
1.08693
1.08384
1.07953
1.07531
1.0692
1.06338
1.05573
1.049
1.04172
1.03525
1.02981
1.02307
1.0192
1.01371
1.01052
1.00636
1.00422
1.00382
1.0062
1.00821
1.00916
1.01112
1.014
1.01893
1.02444
1.03115
1.04064
1.0502
1.05721
1.06329
1.06897
1.07431
1.07914
1.08379
1.08773
1.09107
1.09381
1.09564
1.09573
1.09537
1.09361
1.09064
1.08603
1.08146
1.07491
1.06878
1.06088
1.05377
1.04643
1.03874
1.03298
1.02567
1.02141
1.01541
1.01176
1.00696
1.00482
1.00437
1.00647
1.00881
1.01004
1.01194
1.01486
1.0198
1.02489
1.0309
1.04024
1.0509
1.06006
1.06752
1.07442
1.08079
1.08589
1.0907
1.09504
1.09839
1.10095
1.10306
1.10336
1.10285
1.10083
1.09828
1.09343
1.08872
1.08165
1.075
1.06684
1.05909
1.05187
1.04326
1.03732
1.02915
1.02423
1.01756
1.01354
1.00803
1.00544
1.00263
1.00495
1.0084
1.01067
1.01296
1.01626
1.02132
1.02646
1.03156
1.04
1.05141
1.06231
1.07166
1.07994
1.08749
1.09363
1.09873
1.10322
1.10683
1.10943
1.11146
1.11183
1.11141
1.10924
1.10677
1.10177
1.0969
1.0897
1.08245
1.07416
1.06518
1.05795
1.04827
1.04202
1.03299
1.02764
1.0201
1.01605
1.0094
1.00657
1.00444
1.0062
1.00976
1.01271
1.01514
1.01835
1.02351
1.02916
1.03386
1.04088
1.0521
1.06434
1.07528
1.08518
1.09423
1.10186
1.1079
1.11281
1.11667
1.11936
1.12131
1.12154
1.12135
1.11902
1.11659
1.1114
1.10608
1.09891
1.09093
1.08286
1.07264
1.06519
1.05429
1.04751
1.03743
1.0316
1.02357
1.01875
1.01188
1.00801
1.00181
1.00418
1.00796
1.01218
1.01567
1.01933
1.02519
1.03241
1.03801
1.04395
1.05391
1.06644
1.07847
1.08978
1.10059
1.11011
1.11767
1.12338
1.12785
1.13066
1.13277
1.13277
1.13237
1.12997
1.12759
1.12265
1.11693
1.10998
1.10107
1.0935
1.08211
1.07491
1.06289
1.05608
1.04507
1.03829
1.02801
1.02304
1.01427
1.00962
1.00533
1.00776
1.01068
1.01485
1.01893
1.02278
1.02869
1.03704
1.04434
1.05007
1.05857
1.07033
1.08247
1.09432
1.10676
1.11859
1.12866
1.13599
1.14161
1.14481
1.14702
1.14695
1.14629
1.14305
1.13973
1.1351
1.12852
1.12224
1.11224
1.1052
1.09266
1.08493
1.07204
1.06359
1.05139
1.04355
1.03369
1.02753
1.01891
1.01315
0.999882
1.00331
1.00683
1.01189
1.018
1.02394
1.03077
1.04038
1.05028
1.0579
1.06617
1.07732
1.08917
1.10059
1.11296
1.12609
1.13869
1.14825
1.15615
1.16023
1.16337
1.16308
1.16238
1.16068
1.15715
1.15272
1.14488
1.13959
1.12811
1.12171
1.10831
1.10037
1.08718
1.07843
1.06546
1.0571
1.04322
1.03554
1.02387
1.01615
1.00304
1.00828
1.01304
1.01813
1.02405
1.03048
1.03766
1.04728
1.0586
1.06847
1.07749
1.08867
1.1013
1.11214
1.12328
1.13535
1.14888
1.16017
1.17033
1.17698
1.18166
1.18292
1.18139
1.17833
1.17113
1.16826
1.15935
1.15492
1.14302
1.13605
1.12287
1.11363
1.09989
1.08933
1.07648
1.0641
1.05468
1.04275
1.03504
1.02304
0.994707
1.00041
1.00692
1.01416
1.02181
1.03023
1.03906
1.04935
1.06284
1.07607
1.08757
1.09967
1.11491
1.12813
1.13981
1.1497
1.1619
1.17278
1.18251
1.19127
1.19634
1.20282
1.20243
1.20452
1.20054
1.19878
1.18716
1.18176
1.17009
1.16251
1.14884
1.13888
1.12428
1.11318
1.09826
1.0862
1.07088
1.0578
1.04434
1.03128
1.00153
1.00804
1.01473
1.02155
1.03006
1.04003
1.0507
1.06162
1.07586
1.09102
1.10552
1.11801
1.13352
1.15023
1.16455
1.17607
1.18556
1.19826
1.20549
1.21555
1.2176
1.22599
1.22397
1.22758
1.22007
1.2172
1.21019
1.2045
1.19524
1.18214
1.1729
1.15679
1.14672
1.12925
1.11885
1.10094
1.09103
1.074
1.06535
1.04586
0.991527
1.00051
1.00925
1.0185
1.02957
1.04095
1.05411
1.06728
1.08281
1.0994
1.11656
1.13289
1.14595
1.16566
1.18094
1.20036
1.20828
1.22399
1.23204
1.24434
1.24662
1.25219
1.2518
1.25531
1.25313
1.25271
1.2476
1.24081
1.23018
1.22205
1.21113
1.19952
1.18476
1.17055
1.156
1.14004
1.12441
1.1073
1.0923
1.07166
0.999902
1.00907
1.01726
1.02943
1.04139
1.05864
1.07319
1.09489
1.1099
1.13353
1.14944
1.17385
1.18629
1.20755
1.22185
1.24205
1.25441
1.26615
1.27562
1.28209
1.29036
1.28959
1.29245
1.28631
1.28619
1.27846
1.27629
1.26767
1.26816
1.2566
1.25229
1.2361
1.23027
1.2119
1.20384
1.18212
1.17197
1.14933
1.13681
1.11167
0.993335
1.01102
1.02183
1.04041
1.0519
1.07249
1.0864
1.11053
1.12656
1.15156
1.16994
1.19496
1.21416
1.23611
1.25271
1.27148
1.28687
1.30143
1.31075
1.319
1.32457
1.32944
1.33171
1.33086
1.3295
1.32433
1.32149
1.31256
1.30698
1.29484
1.28854
1.2766
1.27102
1.25663
1.24863
1.23156
1.22375
1.20506
1.1967
1.17303
1.00506
1.01916
1.03752
1.06233
1.08799
1.11469
1.14325
1.16736
1.19331
1.21576
1.24218
1.26235
1.28882
1.30437
1.32956
1.33958
1.36252
1.36806
1.38702
1.38641
1.39943
1.39357
1.40216
1.39331
1.39734
1.38595
1.38715
1.37753
1.37913
1.37026
1.37007
1.36009
1.35667
1.34416
1.33753
1.32323
1.31305
1.29549
1.28249
1.2612
1.02344
1.04774
1.07451
1.09663
1.12475
1.14628
1.17674
1.20053
1.2332
1.25745
1.2902
1.31245
1.34295
1.36096
1.38775
1.40024
1.42229
1.42849
1.44466
1.44449
1.45428
1.44848
1.45135
1.4424
1.43927
1.42916
1.42184
1.41349
1.40571
1.40105
1.39419
1.39446
1.38922
1.39379
1.38634
1.39251
1.37943
1.38497
1.3642
1.3657
1.08645
1.12086
1.17257
1.21061
1.25727
1.29248
1.33476
1.36823
1.40649
1.43819
1.47138
1.49963
1.52624
1.55056
1.57031
1.59078
1.60295
1.61824
1.62197
1.6306
1.62561
1.62603
1.61438
1.60826
1.59007
1.57882
1.5572
1.54249
1.52028
1.50421
1.48412
1.46857
1.45265
1.44023
1.4288
1.4213
1.4116
1.40739
1.38561
1.39709
1.26997
1.30559
1.34202
1.38038
1.41846
1.4545
1.48721
1.51514
1.54209
1.55797
1.57844
1.58926
1.60522
1.61414
1.62338
1.62539
1.62407
1.61735
1.60486
1.58965
1.56643
1.54319
1.50894
1.47592
1.42914
1.38567
1.32844
1.27785
1.21421
1.15901
1.09147
1.03478
0.965872
0.910189
0.844612
0.789783
0.73267
0.669628
0.625978
0.55262
0.988046
0.99118
0.999337
0.998142
0.997194
0.993412
0.992045
0.990944
0.990627
0.990378
0.990786
0.991632
0.99283
0.994285
0.99603
0.997802
0.999292
1.00056
1.00169
1.00245
1.00285
1.00336
1.00402
1.00494
1.0054
1.00546
1.00582
1.0061
1.00661
1.00689
1.00692
1.00643
1.00594
1.0053
1.00438
1.00408
1.00363
1.00317
1.00089
1.00355
0.988654
0.993023
0.9995
0.998379
0.99664
0.993069
0.991171
0.990112
0.989832
0.989717
0.990225
0.99114
0.992457
0.994065
0.995885
0.997765
0.999414
1.00075
1.00183
1.00258
1.00308
1.00352
1.00397
1.00476
1.00554
1.00566
1.00594
1.00627
1.00685
1.00719
1.00718
1.00686
1.00646
1.0059
1.00487
1.00433
1.00414
1.00365
1.00157
1.0003
0.99119
0.994328
0.998902
0.998588
0.996469
0.992929
0.990652
0.989372
0.989
0.988932
0.989557
0.990542
0.99196
0.993731
0.99578
0.997822
0.999654
1.00111
1.00232
1.00312
1.00369
1.00414
1.00455
1.00522
1.00605
1.00642
1.00658
1.00691
1.00734
1.00752
1.00739
1.00703
1.00667
1.00608
1.00514
1.00472
1.00449
1.00433
1.00372
1.00363
0.991021
0.994846
0.998723
0.998635
0.996377
0.992581
0.990309
0.988666
0.988201
0.988162
0.988774
0.989895
0.991473
0.993335
0.995364
0.997479
0.999368
1.00094
1.00227
1.00323
1.00397
1.00442
1.00473
1.00519
1.00574
1.00651
1.00678
1.00722
1.00757
1.00766
1.00748
1.0072
1.007
1.0063
1.00544
1.00508
1.00459
1.00436
1.00353
1.00326
0.99186
0.995792
0.998442
0.99857
0.996452
0.992466
0.990107
0.988003
0.987434
0.987329
0.98795
0.989026
0.990682
0.992789
0.995075
0.997332
0.999337
1.00102
1.0025
1.00366
1.00458
1.00496
1.0052
1.00567
1.00618
1.00705
1.00745
1.00756
1.0077
1.00773
1.0075
1.00728
1.00711
1.00637
1.00574
1.00541
1.00514
1.00494
1.00436
1.00289
0.993374
0.99605
0.997927
0.998395
0.996702
0.992442
0.989711
0.987258
0.986479
0.986456
0.987012
0.98818
0.989926
0.992036
0.994381
0.996722
0.998861
1.00071
1.00229
1.00361
1.00462
1.00518
1.00542
1.00576
1.00663
1.00725
1.0078
1.00776
1.00789
1.00796
1.00774
1.00754
1.0074
1.00665
1.00606
1.00569
1.00541
1.00515
1.00497
1.00524
0.99296
0.996406
0.997943
0.998185
0.996731
0.992217
0.989382
0.986746
0.98557
0.985439
0.985996
0.987195
0.989019
0.991396
0.993944
0.996369
0.99861
1.00059
1.00231
1.00369
1.0049
1.0057
1.00589
1.00622
1.00702
1.00756
1.00799
1.00826
1.00864
1.00852
1.0081
1.00787
1.00766
1.00675
1.00627
1.00594
1.00569
1.0055
1.00505
1.00352
0.99561
0.996553
0.997375
0.998006
0.996665
0.991833
0.988738
0.985991
0.984506
0.984337
0.984853
0.98604
0.987948
0.990363
0.99306
0.995679
0.9981
1.00018
1.00191
1.00348
1.00487
1.00563
1.00606
1.0065
1.00727
1.00803
1.0082
1.00881
1.00937
1.00889
1.00845
1.00825
1.00789
1.00701
1.00662
1.00634
1.00612
1.0058
1.00588
1.00619
0.994509
0.996721
0.997714
0.99776
0.996196
0.991466
0.987933
0.985148
0.983422
0.98313
0.983719
0.984948
0.98683
0.989496
0.992424
0.99511
0.997702
0.999955
1.00186
1.00356
1.0049
1.00569
1.00627
1.00702
1.00794
1.00855
1.00858
1.00918
1.00969
1.00913
1.0087
1.00852
1.00796
1.00717
1.00684
1.00663
1.00636
1.00608
1.00575
1.00457
0.997613
0.996921
0.997175
0.997046
0.995238
0.990743
0.987101
0.984233
0.982243
0.981739
0.982289
0.983532
0.985536
0.988314
0.991392
0.994384
0.997162
0.999489
1.00147
1.00317
1.00449
1.00559
1.00669
1.00765
1.00871
1.00927
1.00954
1.00987
1.01004
1.00934
1.00893
1.00871
1.00804
1.0075
1.00727
1.00712
1.00675
1.00651
1.00653
1.00666
0.996282
0.997002
0.997169
0.996225
0.994503
0.990842
0.98628
0.982981
0.980939
0.980328
0.980891
0.982128
0.984198
0.987248
0.990597
0.993614
0.996646
0.999134
1.00116
1.00285
1.00437
1.00579
1.00716
1.00851
1.00951
1.01012
1.01066
1.01075
1.01029
1.00953
1.00915
1.00899
1.00826
1.00774
1.00752
1.00742
1.00705
1.00673
1.00646
1.00577
0.998981
0.997162
0.996349
0.995222
0.994149
0.990985
0.985245
0.981502
0.979423
0.978626
0.979144
0.980424
0.982625
0.985843
0.989321
0.992697
0.995852
0.998437
1.00053
1.00235
1.00426
1.00627
1.00784
1.00899
1.00997
1.01064
1.01141
1.01143
1.0106
1.00994
1.00959
1.00932
1.00855
1.00822
1.00803
1.00787
1.00745
1.00721
1.00699
1.00695
0.997617
0.996743
0.995729
0.994496
0.993659
0.99052
0.984053
0.979992
0.977882
0.976938
0.977371
0.978598
0.980948
0.98441
0.988179
0.99153
0.995001
0.997825
1.00017
1.00228
1.00452
1.00682
1.00842
1.00942
1.01051
1.01131
1.01189
1.01185
1.0109
1.01016
1.00986
1.00938
1.00864
1.00842
1.00831
1.0082
1.00773
1.00744
1.00707
1.00685
0.999486
0.996744
0.99515
0.994072
0.99301
0.989143
0.982384
0.978504
0.976175
0.974933
0.97528
0.976588
0.978978
0.982554
0.986511
0.990318
0.994061
0.997265
0.999919
1.00227
1.0047
1.00723
1.00874
1.00977
1.01123
1.01167
1.01212
1.012
1.01115
1.01039
1.01006
1.0096
1.00906
1.00892
1.00887
1.00873
1.00826
1.00801
1.00772
1.00745
0.998517
0.996592
0.994643
0.993327
0.991946
0.987907
0.980651
0.976852
0.974344
0.972837
0.973013
0.97424
0.976782
0.98067
0.985061
0.989025
0.993215
0.996778
0.999909
1.00262
1.00521
1.00751
1.00889
1.01025
1.01157
1.01187
1.01218
1.01217
1.01137
1.0107
1.01041
1.00987
1.0093
1.00919
1.00917
1.00905
1.00854
1.00829
1.00798
1.0078
0.999899
0.996635
0.994024
0.992373
0.990843
0.986533
0.97875
0.974969
0.972142
0.970322
0.970333
0.971664
0.974365
0.978466
0.983233
0.987692
0.992185
0.996125
0.999724
1.00279
1.00532
1.0075
1.00924
1.01077
1.01204
1.01227
1.0127
1.0124
1.01163
1.0112
1.011
1.01055
1.01005
1.00995
1.00991
1.00969
1.00917
1.00893
1.0085
1.00829
0.999213
0.996336
0.992982
0.990621
0.989132
0.98486
0.976695
0.972754
0.969528
0.967478
0.967329
0.968767
0.971747
0.97615
0.981397
0.986174
0.991147
0.995423
0.99943
1.00286
1.00559
1.00786
1.00992
1.01164
1.01249
1.01271
1.01303
1.01247
1.01168
1.01145
1.01138
1.01094
1.01058
1.0105
1.01047
1.01018
1.00967
1.00942
1.00897
1.0088
1.00067
0.996768
0.992435
0.989248
0.987397
0.982992
0.974976
0.970298
0.966331
0.96406
0.963862
0.965574
0.96888
0.973483
0.979233
0.984628
0.989974
0.994489
0.998715
1.00249
1.00562
1.00804
1.01038
1.01233
1.01288
1.01276
1.01282
1.01248
1.01209
1.01225
1.01228
1.01168
1.01133
1.01124
1.01114
1.01078
1.0103
1.01004
1.00951
1.00935
0.999825
0.996229
0.991368
0.986986
0.984861
0.981101
0.973403
0.967411
0.962459
0.960094
0.959939
0.96182
0.965632
0.970618
0.977011
0.982983
0.988755
0.993496
0.998087
1.00221
1.00574
1.00838
1.0109
1.01271
1.0132
1.01301
1.01303
1.01302
1.01257
1.01275
1.01261
1.01205
1.01179
1.01182
1.01172
1.01133
1.01089
1.01062
1.01012
1.00996
1.00022
0.996562
0.991019
0.98521
0.982282
0.978863
0.971599
0.96392
0.957836
0.95543
0.955416
0.9575
0.961933
0.967411
0.974452
0.981098
0.987266
0.992374
0.997424
1.00176
1.00562
1.0089
1.01167
1.013
1.01324
1.0133
1.01342
1.01308
1.01289
1.01308
1.01301
1.01256
1.01235
1.01254
1.01241
1.01199
1.01157
1.01123
1.01076
1.01064
0.999591
0.995815
0.99037
0.983045
0.97889
0.976086
0.968625
0.959733
0.952832
0.950077
0.950229
0.952432
0.957565
0.96379
0.971544
0.978883
0.985572
0.991294
0.996902
1.00148
1.00574
1.00948
1.01236
1.01305
1.01309
1.01337
1.01355
1.01312
1.01352
1.01389
1.01375
1.01322
1.01313
1.01329
1.01322
1.01273
1.01236
1.01189
1.01148
1.01136
0.999521
0.995333
0.990084
0.98154
0.975447
0.972118
0.964053
0.954992
0.947778
0.94401
0.944141
0.946472
0.952308
0.959463
0.968164
0.976388
0.983686
0.990077
0.996146
1.00133
1.00602
1.00987
1.01249
1.01318
1.01325
1.01361
1.01413
1.01434
1.01471
1.01536
1.01485
1.01424
1.01415
1.01417
1.01405
1.01347
1.01312
1.01258
1.01224
1.01214
0.999575
0.994424
0.989234
0.979856
0.971606
0.967253
0.958964
0.949709
0.942066
0.937077
0.936732
0.939325
0.945867
0.954181
0.964347
0.973794
0.981851
0.988919
0.995308
1.00128
1.00655
1.01035
1.01229
1.01315
1.01377
1.01456
1.01537
1.01586
1.01613
1.01659
1.01596
1.01539
1.01511
1.01513
1.01484
1.01432
1.01388
1.0134
1.01308
1.01299
0.999943
0.993551
0.987987
0.978532
0.967933
0.961886
0.953921
0.943853
0.934699
0.9287
0.927546
0.930533
0.937873
0.947837
0.960112
0.971116
0.979994
0.987879
0.994564
1.00126
1.00722
1.01076
1.01223
1.01311
1.01436
1.01605
1.01668
1.0174
1.01782
1.01759
1.01709
1.01654
1.01624
1.01632
1.01593
1.01541
1.01494
1.01445
1.01409
1.01399
1.00057
0.992863
0.986197
0.97732
0.964169
0.955547
0.947822
0.936852
0.925551
0.918296
0.916213
0.919486
0.927923
0.940268
0.955088
0.968131
0.978098
0.986908
0.994102
1.00133
1.00724
1.01088
1.01257
1.01378
1.01529
1.0174
1.01813
1.01859
1.01897
1.01872
1.01842
1.01815
1.01793
1.01799
1.01746
1.01686
1.01629
1.01568
1.0153
1.01519
1.00144
0.992626
0.984345
0.976443
0.961142
0.949677
0.940268
0.927817
0.914952
0.905812
0.902116
0.905276
0.915087
0.93054
0.948518
0.964585
0.976003
0.985942
0.994025
1.0019
1.00741
1.01105
1.01326
1.01552
1.01708
1.01864
1.01962
1.02004
1.02075
1.02074
1.02018
1.01993
1.01979
1.01958
1.01896
1.01841
1.01767
1.0171
1.01671
1.01654
1.00242
0.992859
0.983007
0.974933
0.959329
0.944343
0.93137
0.917042
0.902716
0.891
0.884243
0.886515
0.897632
0.916742
0.939252
0.95997
0.973775
0.984873
0.99388
1.00258
1.0086
1.0129
1.01548
1.01812
1.01978
1.02078
1.02194
1.02279
1.02331
1.02302
1.02206
1.02166
1.0214
1.02095
1.02027
1.01993
1.01899
1.01852
1.0182
1.01798
1.00332
0.993432
0.982468
0.972893
0.958285
0.9391
0.922336
0.905534
0.888025
0.872498
0.861158
0.861262
0.873212
0.896561
0.925699
0.953347
0.971193
0.983973
0.994369
1.00346
1.00998
1.01576
1.01905
1.02118
1.02295
1.02397
1.02518
1.02571
1.02606
1.0252
1.02412
1.02386
1.02331
1.02279
1.022
1.02168
1.02049
1.02005
1.01966
1.01948
1.0054
0.995132
0.982974
0.971866
0.956923
0.935714
0.916353
0.894468
0.870808
0.849559
0.831575
0.827078
0.838863
0.867145
0.905636
0.943266
0.967499
0.983499
0.996306
1.00624
1.01314
1.01958
1.02385
1.02571
1.02739
1.0283
1.02947
1.02944
1.02933
1.02828
1.02721
1.02731
1.02629
1.0259
1.0251
1.02418
1.02325
1.02227
1.02201
1.02167
1.00796
0.997044
0.986007
0.972202
0.957174
0.93511
0.912465
0.88513
0.853204
0.823191
0.794852
0.781336
0.790843
0.824764
0.875986
0.927588
0.961151
0.981892
0.997678
1.00949
1.01778
1.02444
1.02851
1.03087
1.03321
1.0337
1.03483
1.03478
1.03343
1.03282
1.03202
1.03207
1.03122
1.03052
1.02984
1.02822
1.02732
1.02613
1.02562
1.02529
1.01402
1.00397
0.993428
0.976262
0.960209
0.938535
0.910808
0.878505
0.837312
0.79417
0.750729
0.721006
0.724283
0.764265
0.831867
0.902449
0.949618
0.977892
0.998706
1.01285
1.02241
1.03011
1.03481
1.03777
1.0402
1.04035
1.04046
1.04007
1.03859
1.03813
1.03778
1.03719
1.03667
1.03548
1.03475
1.03297
1.03209
1.03068
1.02988
1.02941
1.02418
1.00921
0.999067
0.984371
0.967003
0.945528
0.914944
0.876803
0.825041
0.764095
0.700654
0.646224
0.635212
0.679238
0.766036
0.860536
0.926433
0.967281
0.997303
1.01528
1.02678
1.03644
1.04241
1.04567
1.04726
1.04731
1.04715
1.04606
1.04462
1.04382
1.0432
1.04274
1.04184
1.04148
1.04013
1.03844
1.03693
1.03499
1.03388
1.03363
1.03583
1.02605
1.01491
1.00115
0.982965
0.958741
0.923927
0.878567
0.817721
0.737582
0.65016
0.563904
0.524262
0.563391
0.668138
0.79011
0.88117
0.941573
0.985588
1.01187
1.02918
1.04207
1.04846
1.05294
1.05609
1.05682
1.05739
1.05549
1.05431
1.05325
1.05245
1.05261
1.05167
1.05093
1.04823
1.04595
1.04345
1.04185
1.04072
1.04076
1.0664
1.04888
1.03654
1.02782
1.01561
0.987805
0.94401
0.887025
0.815097
0.717428
0.605673
0.485967
0.39964
0.412376
0.526126
0.676329
0.800708
0.888255
0.952552
0.993097
1.0199
1.03902
1.04925
1.059
1.06643
1.06868
1.07115
1.06954
1.06951
1.06842
1.06718
1.06646
1.06366
1.06165
1.05876
1.05784
1.05605
1.05543
1.05462
1.05308
1.09447
1.09428
1.09973
1.09765
1.07716
1.03957
0.978074
0.902795
0.813643
0.700221
0.568726
0.425413
0.288389
0.231451
0.32827
0.503118
0.667966
0.791884
0.88487
0.947733
0.990058
1.02002
1.03927
1.05458
1.06655
1.07176
1.07882
1.07959
1.08227
1.08114
1.08053
1.07916
1.07694
1.07614
1.07537
1.07521
1.07437
1.07257
1.07062
1.06947
1.17729
1.18133
1.17973
1.16153
1.12259
1.06493
0.99106
0.904241
0.80131
0.67595
0.532417
0.387921
0.246313
0.123621
0.0904724
0.272147
0.469928
0.634562
0.763738
0.857759
0.924219
0.97288
1.00695
1.02923
1.05154
1.06259
1.07621
1.08099
1.08836
1.09074
1.09526
1.09771
1.10011
1.10083
1.10162
1.10059
1.09808
1.09312
1.09
1.08565
1.25239
1.24577
1.22782
1.18835
1.13216
1.06472
0.973629
0.871383
0.747614
0.617365
0.467721
0.34365
0.251392
0.251797
0.232003
0.0969886
0.182912
0.386589
0.562685
0.697537
0.803848
0.886124
0.948111
0.990062
1.02734
1.04748
1.06944
1.07972
1.0924
1.09868
1.10738
1.11178
1.11863
1.1213
1.12427
1.1248
1.12613
1.12608
1.12532
1.12154
1.33468
1.29089
1.24108
1.1814
1.10325
1.01206
0.892024
0.770867
0.62467
0.478107
0.353003
0.264453
0.241829
0.281845
0.361714
0.370548
0.319957
0.0568284
0.25085
0.460788
0.601024
0.725471
0.817598
0.891555
0.955577
1.00248
1.04003
1.06541
1.08289
1.09272
1.09874
1.10097
1.10454
1.11183
1.11558
1.12121
1.12635
1.12977
1.13918
1.14455
1.33515
1.23281
1.11586
0.984416
0.844145
0.694268
0.53931
0.375574
0.216666
0.0681473
0.110126
0.240389
0.332793
0.385645
0.439201
0.509056
0.50907
0.477517
0.455481
0.441124
0.139845
0.227786
0.379778
0.515335
0.641475
0.751471
0.829906
0.889591
0.931424
0.976762
1.01176
1.04521
1.06956
1.08726
1.11226
1.12742
1.14851
1.15796
1.17188
1.17612
0.32107
0.212381
0.320438
0.411311
0.491042
0.563672
0.623502
0.66889
0.699854
0.714501
0.717458
0.695578
0.664589
0.624743
0.57495
0.523355
0.47096
0.426967
0.41984
0.420716
0.36385
0.342512
0.34592
0.340188
0.314707
0.249289
0.0541419
0.572097
0.629463
0.647912
0.69461
0.711218
0.756735
0.786464
0.83079
0.866761
0.909335
0.95383
1.00484
1.05834
1.00823
1.01315
1.01405
1.01545
1.0155
1.0166
1.0165
1.01737
1.01705
1.01763
1.0174
1.01764
1.01758
1.01766
1.01765
1.01766
1.01765
1.01761
1.01752
1.01735
1.01714
1.01686
1.0165
1.01603
1.01544
1.01464
1.01353
1.01186
1.00932
1.00556
1.00004
0.991514
0.97898
0.966141
0.962919
0.973439
0.983052
0.995126
1.00144
1.00025
0.998105
0.99471
0.99556
0.995344
0.996203
0.995846
0.996409
0.996357
0.996401
0.996533
0.996449
0.996529
0.996509
0.996546
0.996555
0.996581
0.996552
0.996458
0.996382
0.99632
0.996249
0.996144
0.996056
0.99601
0.996062
0.996258
0.996707
0.997549
0.99901
1.0016
1.00582
1.01095
1.01538
1.02109
1.02392
1.02312
1.01431
1.00646
1.00341
1.00271
1.00365
1.00907
1.0103
1.01322
1.01352
1.01517
1.01487
1.0162
1.01561
1.01645
1.01607
1.01637
1.01624
1.01635
1.0163
1.01627
1.01626
1.01628
1.01615
1.01588
1.01551
1.01503
1.01441
1.01358
1.01252
1.01117
1.00941
1.00711
1.00405
1.0004
0.996761
0.99271
0.988182
0.98845
0.994052
1.00037
1.00096
1.00071
1.00169
1.0027
1.00499
1.00249
1.00122
1.00033
0.999854
0.999751
0.999065
0.999352
0.998763
0.99906
0.998703
0.998877
0.998721
0.998752
0.998769
0.99879
0.998712
0.998555
0.998495
0.998603
0.998726
0.998898
0.999191
0.999634
1.00027
1.00123
1.00253
1.00423
1.00634
1.00913
1.01281
1.01604
1.01721
1.01938
1.02075
1.01994
1.01538
1.01048
1.00774
1.00542
1.00085
1.00575
1.00769
1.01025
1.01114
1.01272
1.01286
1.01387
1.0138
1.0143
1.01427
1.01447
1.01444
1.01448
1.01442
1.01437
1.01442
1.01449
1.0143
1.01389
1.0134
1.01276
1.01193
1.01091
1.00965
1.00817
1.00642
1.00435
1.00195
0.999754
0.998267
0.996696
0.995154
0.996579
1.00088
1.0042
1.00372
1.00394
1.00452
1.00504
1.00721
1.00541
1.00438
1.00391
1.00319
1.00298
1.00225
1.00228
1.0017
1.00184
1.00146
1.00153
1.00139
1.00141
1.00139
1.00137
1.00116
1.00094
1.00097
1.0012
1.00148
1.00185
1.00238
1.00307
1.00395
1.00504
1.00635
1.00774
1.0091
1.01078
1.01288
1.01359
1.01299
1.01407
1.01505
1.01431
1.01125
1.00935
1.00765
1.00618
1.00146
1.00449
1.00626
1.00825
1.00927
1.01057
1.01102
1.01186
1.01196
1.01247
1.01246
1.0127
1.01267
1.01272
1.01263
1.01268
1.01282
1.01284
1.01257
1.01207
1.01146
1.01074
1.00984
1.00876
1.00757
1.00631
1.00496
1.00347
1.00197
1.001
1.00071
0.999944
0.999169
1.00071
1.0035
1.00462
1.00453
1.0055
1.00586
1.00603
1.00774
1.0066
1.00603
1.00585
1.00574
1.00565
1.00517
1.00502
1.00469
1.00455
1.00435
1.00432
1.00418
1.00419
1.00411
1.00392
1.0036
1.00346
1.00356
1.00382
1.00414
1.0046
1.0052
1.00591
1.00669
1.00753
1.0084
1.00912
1.00967
1.0106
1.01144
1.01125
1.01058
1.0107
1.01083
1.00991
1.00816
1.00739
1.00673
1.00622
1.00317
1.00481
1.00608
1.00766
1.00842
1.00935
1.00975
1.01039
1.01063
1.01097
1.01109
1.01123
1.01126
1.01128
1.0113
1.01146
1.01161
1.01153
1.01118
1.01066
1.01005
1.0093
1.00842
1.00747
1.00657
1.00568
1.00487
1.00406
1.00342
1.00339
1.00377
1.00362
1.00338
1.00483
1.0061
1.00624
1.00607
1.00636
1.00648
1.0064
1.00747
1.00721
1.00717
1.00715
1.00708
1.00708
1.00721
1.00734
1.00719
1.00708
1.00695
1.00687
1.00679
1.00673
1.00653
1.00619
1.00591
1.00584
1.00595
1.00619
1.00645
1.0068
1.00736
1.00795
1.00842
1.0088
1.00906
1.00917
1.00933
1.00982
1.01002
1.00959
1.00902
1.00885
1.00864
1.00772
1.00691
1.00666
1.00658
1.00642
1.00515
1.00595