/*--------------------------------*- C++ -*----------------------------------*\
  =========                 |
  \\      /  F ield         | OpenFOAM: The Open Source CFD Toolbox
   \\    /   O peration     | Website:  https://openfoam.org
    \\  /    A nd           | Version:  11
     \\/     M anipulation  |
\*---------------------------------------------------------------------------*/
FoamFile
{
    format      ascii;
    class       surfaceScalarField;
    location    "1.5";
    object      phi;
}
// * * * * * * * * * * * * * * * * * * * * * * * * * * * * * * * * * * * * * //

dimensions      [0 3 -1 0 0 0 0];

internalField   nonuniform List<scalar> 
18960
(
0.0888203
0.000768618
-0.0895889
0.0873397
0.00148062
0.0843057
0.00303402
0.0811661
0.0031396
0.0805504
0.000615723
0.0822762
-0.0017258
0.0851421
-0.00286595
0.0874573
-0.00231519
0.0889029
-0.00144562
0.0897114
-0.000808514
0.0901392
-0.000427755
0.0903643
-0.000225069
0.0905143
-0.000150024
0.0906463
-0.000131992
0.0907506
-0.000104367
0.090807
-5.63393e-05
0.0908213
-1.43265e-05
0.0908117
9.57638e-06
0.0907889
2.28099e-05
0.0907496
3.93128e-05
0.090656
9.35708e-05
0.0905432
0.000112845
0.0904235
0.000119739
0.0903097
0.000113798
0.0901937
0.000115954
0.0900518
0.000141856
0.0899068
0.000145048
0.0898152
9.15882e-05
0.0897759
3.932e-05
0.089802
-2.60728e-05
0.0898783
-7.63516e-05
0.0900466
-0.000168268
0.0902189
-0.000172359
0.0904979
-0.000278933
0.0908549
-0.000357006
0.091289
-0.000434122
0.0918276
-0.000538649
0.0924833
-0.000655682
0.0933584
-0.000875037
0.000237164
0.0931212
0.088668
0.00138533
-0.0892847
0.0878922
0.00225642
0.0877192
0.00320703
0.0879599
0.00289893
0.0877664
0.000809205
0.087304
-0.00126346
0.0864024
-0.00196432
0.0854861
-0.0013989
0.0849815
-0.000941042
0.0848723
-0.000699283
0.0850613
-0.000616694
0.0854791
-0.000642914
0.0860977
-0.000768656
0.0867115
-0.000745791
0.0872828
-0.000675603
0.0878141
-0.000587632
0.0882705
-0.000470758
0.0886726
-0.00039257
0.0889733
-0.000277897
0.0891775
-0.000164866
0.0893027
-3.15958e-05
0.0893319
8.36325e-05
0.0892629
0.000188759
0.0891159
0.000260735
0.0888803
0.000351586
0.088591
0.000431174
0.0882537
0.000482306
0.0878744
0.000470922
0.0874854
0.000428366
0.0871348
0.000324455
0.0867323
0.000326169
0.086493
7.10703e-05
0.0861225
0.000198067
0.0858886
-4.49613e-05
0.0855575
-2.59442e-05
0.0852775
-0.000154067
0.0848642
-0.00012544
0.084539
-0.000330463
0.0840477
-0.000383718
-0.000984445
0.0852693
0.0888231
0.00198512
-0.0894229
0.0877695
0.00331001
0.0866176
0.00435897
0.0856193
0.00389727
0.0856504
0.000778049
0.0860163
-0.00162934
0.0870275
-0.00297551
0.0884081
-0.00277951
0.0894337
-0.00196665
0.0901344
-0.0014
0.0905708
-0.0010531
0.0908455
-0.000917567
0.0909325
-0.000855644
0.0909732
-0.00078651
0.0910051
-0.000707486
0.0910245
-0.000607023
0.0910504
-0.00049668
0.0910252
-0.000367357
0.0909986
-0.000251287
0.0909645
-0.000130824
0.0909126
2.03493e-05
0.0908266
0.000169664
0.0907287
0.000286615
0.0905791
0.000410364
0.0904442
0.000486412
0.0903529
0.000522481
0.0902966
0.000538649
0.0903101
0.000457382
0.0903285
0.000409966
0.0904441
0.000208856
0.0905617
0.000208633
0.0907156
-8.28393e-05
0.0909007
1.29166e-05
0.0912287
-0.000372918
0.0915205
-0.000317739
0.092066
-0.00069961
0.0925643
-0.000623765
0.0932391
-0.00100526
0.0937711
-0.000915632
-0.000274347
0.093061
0.0887081
0.00269652
-0.0894195
0.0880327
0.00398541
0.0881068
0.00428483
0.0890744
0.00292973
0.0902004
-0.000347993
0.0905944
-0.0020233
0.0899746
-0.00235576
0.0886938
-0.00149863
0.0874266
-0.000699477
0.0867198
-0.000693258
0.0864846
-0.000817842
0.0865099
-0.000942914
0.0867262
-0.0010719
0.087145
-0.00120529
0.0876386
-0.00120112
0.0881055
-0.00107395
0.0885155
-0.000906662
0.0888748
-0.000726704
0.0891651
-0.000541552
0.0893434
-0.000309134
0.0894413
-7.7544e-05
0.0894726
0.000138407
0.0894442
0.000314967
0.0893613
0.000493322
0.089184
0.000663635
0.088934
0.000772528
0.088621
0.000851613
0.0882649
0.000813544
0.0878485
0.000826308
0.0874949
0.000562489
0.0870528
0.000650724
0.0867671
0.000202845
0.0864607
0.000319313
0.0861852
-9.73726e-05
0.0858984
-3.10077e-05
0.0855991
-0.000400241
0.0852906
-0.000315251
0.0850389
-0.000753572
0.0851774
-0.00105412
-0.00153527
0.0864383
0.0889053
0.00322973
-0.0894385
0.0885943
0.00429643
0.0886211
0.00425806
0.0890208
0.00253006
0.0889381
-0.000265351
0.0881898
-0.00127494
0.0875618
-0.00172776
0.0879707
-0.00190755
0.0889048
-0.00163356
0.0897444
-0.00153294
0.0903369
-0.0014103
0.0906985
-0.00130447
0.0909338
-0.00130723
0.0910116
-0.00128316
0.0910072
-0.0011967
0.0909845
-0.00105126
0.0909588
-0.000880904
0.0909328
-0.000700769
0.09088
-0.000488734
0.0908525
-0.000281567
0.0908402
-6.53148e-05
0.0907879
0.000190755
0.090706
0.000396846
0.090587
0.000612356
0.0904768
0.000773765
0.0904094
0.000839989
0.0903909
0.000870103
0.0904464
0.00075799
0.0905375
0.000735243
0.0906826
0.000417393
0.090894
0.000439334
0.091028
6.88309e-05
0.0912575
8.98062e-05
0.0915354
-0.000375269
0.0918394
-0.00033505
0.0922464
-0.00080721
0.0927334
-0.000802251
0.0932536
-0.00127372
0.0932884
-0.00108897
-0.000727866
0.092481
0.0890175
0.003732
-0.0895198
0.0889534
0.00436052
0.0893607
0.00385073
0.0903289
0.00156194
0.0908934
-0.00082991
0.0910955
-0.00147705
0.0908329
-0.00146513
0.090135
-0.00120959
0.089184
-0.00068258
0.0883678
-0.000716756
0.0878753
-0.000917767
0.0876907
-0.00111995
0.0876868
-0.00130335
0.0878015
-0.00139778
0.0880948
-0.00148997
0.0884738
-0.00143026
0.0888462
-0.00125335
0.0891682
-0.00102279
0.0894332
-0.000753672
0.0895936
-0.000441991
0.0896669
-0.000138639
0.0897006
0.000157033
0.0896716
0.000425862
0.0896243
0.000659716
0.0895357
0.000862335
0.0893413
0.00103436
0.0890505
0.00116089
0.0887088
0.00109972
0.0883021
0.00114194
0.0879078
0.000811728
0.0874729
0.000874251
0.0871719
0.000369832
0.0868571
0.000404555
0.0866042
-0.000122385
0.0864066
-0.000137454
0.0861498
-0.00055041
0.0859716
-0.000623991
0.0859183
-0.00122049
0.0862452
-0.00141587
-0.00197465
0.087492
0.0892855
0.00410878
-0.0896623
0.089421
0.00422498
0.0900722
0.00319951
0.0906145
0.00101969
0.0903157
-0.000531092
0.0895689
-0.000730291
0.0886769
-0.000573118
0.0882575
-0.000790242
0.0886899
-0.00111491
0.089403
-0.00142989
0.0900254
-0.00154019
0.0904885
-0.00158303
0.0907786
-0.00159347
0.0909532
-0.00157236
0.0909986
-0.00153534
0.0909668
-0.0013985
0.090914
-0.00120052
0.090876
-0.000984794
0.0908037
-0.000681379
0.0907867
-0.000425016
0.0908037
-0.000155592
0.0907894
0.000171324
0.0907257
0.000489606
0.0906371
0.0007483
0.0905312
0.000968215
0.0904815
0.00108406
0.0904893
0.00115313
0.0905796
0.00100941
0.0907198
0.00100175
0.0909042
0.000627297
0.0911509
0.000627576
0.091309
0.00021166
0.0915498
0.000163764
0.0917248
-0.000297364
0.0919375
-0.000350143
0.0923205
-0.000933453
0.0926481
-0.000951518
0.0928994
-0.00147179
0.0927367
-0.00125324
-0.00114532
0.0919074
0.0895828
0.00429437
-0.0897684
0.0898878
0.00391991
0.0907043
0.00238303
0.0910937
0.000630339
0.0910131
-0.000450562
0.090913
-0.000630121
0.0908388
-0.0004989
0.0905876
-0.0005391
0.0901366
-0.000663898
0.0895538
-0.000847114
0.0890514
-0.00103774
0.0887216
-0.00125324
0.0885905
-0.00146242
0.088567
-0.00154884
0.0886729
-0.00164123
0.0889126
-0.00163818
0.0892112
-0.0014992
0.0895024
-0.00127594
0.0897535
-0.000932547
0.089888
-0.000559512
0.0899466
-0.000214175
0.0899767
0.000141211
0.0899702
0.000496122
0.0899356
0.000782887
0.0898993
0.00100451
0.089773
0.00121043
0.089536
0.00139012
0.0892208
0.00132458
0.0888302
0.00139233
0.0884164
0.00104115
0.0880003
0.00104366
0.0876865
0.000525427
0.0874001
0.00045018
0.087231
-0.000128235
0.0871429
-0.000262057
0.0869156
-0.000706213
0.0868924
-0.000928237
0.0869596
-0.00153902
0.0873733
-0.00166698
-0.00228532
0.0885133
0.0899877
0.00427028
-0.0899636
0.0904977
0.00340993
0.0911812
0.00169953
0.0912939
0.000517639
0.0909797
-0.000136307
0.0904555
-0.00010591
0.0898206
0.000135938
0.0893058
-2.42712e-05
0.0891294
-0.000487522
0.0894077
-0.00112536
0.0898478
-0.00147792
0.0902614
-0.00166684
0.0905971
-0.00179809
0.0908328
-0.00178458
0.0909448
-0.00175314
0.0909513
-0.00164473
0.0909269
-0.00147479
0.0908532
-0.00120225
0.0908132
-0.000892549
0.0907912
-0.000537522
0.0907991
-0.000222012
0.0908235
0.000116809
0.0908002
0.000519422
0.0907385
0.00084457
0.0906246
0.00111838
0.0905872
0.00124786
0.0906105
0.00136685
0.0907058
0.00122926
0.09089
0.00120816
0.091076
0.000855143
0.091346
0.000773611
0.0915261
0.000345309
0.091716
0.000260324
0.0918082
-0.000220476
0.0919769
-0.000430736
0.0922362
-0.000965552
0.0924109
-0.00110289
0.0924129
-0.00154098
0.0921563
-0.00141044
-0.00158457
0.0914556
0.0904444
0.00408159
-0.0902557
0.0910124
0.00284187
0.0913642
0.00134777
0.0913358
0.000545986
0.0911233
7.62205e-05
0.0908733
0.000144074
0.0907853
0.000223971
0.0906824
7.86281e-05
0.0904851
-0.000290212
0.0902134
-0.000853715
0.0898551
-0.00111956
0.0895611
-0.00137284
0.0893806
-0.00161763
0.0892794
-0.00168342
0.0892864
-0.00176007
0.0894309
-0.00178923
0.0896461
-0.00169004
0.0898858
-0.00144189
0.0901166
-0.00112341
0.0902469
-0.000667762
0.0902818
-0.000257009
0.0902806
0.000118026
0.0903132
0.000486833
0.0902855
0.000872282
0.0902589
0.00114503
0.0901979
0.00130887
0.0900363
0.00152837
0.0897651
0.00150047
0.0894056
0.00156772
0.0890033
0.00125736
0.0885824
0.00119452
0.088292
0.000635731
0.0880805
0.000471823
0.0879762
-0.000116114
0.0879437
-0.00039827
0.0878661
-0.000887961
0.0879349
-0.00117174
0.0880664
-0.00167245
0.0885642
-0.00190821
-0.00247479
0.0894544
0.090944
0.00380667
-0.0906691
0.0914145
0.00237139
0.091579
0.00118323
0.0914785
0.000646518
0.0911896
0.000365142
0.0908724
0.000461276
0.0905046
0.000591735
0.0901636
0.000419689
0.0899585
-8.51898e-05
0.0898013
-0.000696453
0.0899825
-0.00130079
0.0902544
-0.00164477
0.0905154
-0.00187859
0.0907308
-0.00189883
0.0908964
-0.00192566
0.0909605
-0.00185331
0.0909521
-0.00168168
0.090926
-0.00141573
0.0908644
-0.00106185
0.0908645
-0.000667822
0.0908882
-0.000280737
0.0909642
4.19803e-05
0.0909256
0.00052548
0.0908998
0.000898121
0.0908043
0.00124048
0.0907312
0.00138201
0.0907558
0.00150376
0.0908594
0.00139683
0.0910424
0.00138479
0.0912259
0.00107382
0.0915174
0.00090303
0.0916712
0.000481958
0.0918358
0.000307166
0.0918518
-0.000132069
0.0919325
-0.000478966
0.0920751
-0.00103056
0.0921004
-0.00119707
0.0919935
-0.00156553
0.0917599
-0.00167463
-0.00206342
0.0913485
0.0913376
0.003534
-0.0910649
0.0916591
0.00204994
0.0916117
0.00123059
0.0913847
0.000873523
0.0911475
0.000602381
0.0909931
0.000615608
0.0909013
0.000683585
0.0908743
0.000446654
0.0907133
7.57757e-05
0.0905829
-0.000566044
0.0903512
-0.00106908
0.0901376
-0.00143116
0.089986
-0.00172697
0.0898938
-0.00180664
0.0899087
-0.00194053
0.0900055
-0.00195011
0.0901476
-0.00182383
0.0903253
-0.0015934
0.0905181
-0.0012547
0.0906355
-0.00078521
0.0906762
-0.000321443
0.090631
8.71805e-05
0.090675
0.000481505
0.0906514
0.000921731
0.0906421
0.00124981
0.0906392
0.00138488
0.0905268
0.00161617
0.09031
0.00161357
0.0899948
0.00170004
0.0896465
0.00142206
0.0892633
0.00128628
0.0889947
0.000750591
0.0888322
0.000469619
0.0888129
-0.000112775
0.0888088
-0.000474877
0.0887999
-0.00102167
0.0889402
-0.00133733
0.0891661
-0.0017914
0.0896383
-0.00214688
-0.00274453
0.0903194
0.0916365
0.00325808
-0.0913605
0.0917693
0.00191711
0.0916487
0.0013512
0.0914386
0.0010836
0.0912375
0.0008035
0.0910919
0.000761197
0.0909483
0.000827184
0.0907073
0.000687699
0.0905378
0.000245277
0.0903947
-0.000422982
0.090348
-0.00102243
0.0904504
-0.00153349
0.0906199
-0.0018965
0.0908006
-0.0019873
0.0909582
-0.0020982
0.0910571
-0.00204902
0.0910756
-0.0018423
0.0910686
-0.00158643
0.0910313
-0.0012174
0.0910268
-0.000780636
0.0910665
-0.000361137
0.0911832
-2.95601e-05
0.0911525
0.000512229
0.0911465
0.00092767
0.0910761
0.00132027
0.0909821
0.00147889
0.0909947
0.00160352
0.0910739
0.00153435
0.0912283
0.00154571
0.0914242
0.00122612
0.0916441
0.00106642
0.0918191
0.00057559
0.091924
0.000364705
0.0918742
-6.29706e-05
0.0918859
-0.000486647
0.0918943
-0.00103
0.0918264
-0.00126951
0.0917533
-0.0017183
0.0916076
-0.00200113
-0.00251405
0.0913771
0.0918491
0.00307574
-0.0916668
0.0918141
0.00195211
0.0916332
0.0015321
0.091402
0.0013148
0.0912273
0.000978264
0.0911373
0.000851202
0.0910641
0.000900379
0.0909856
0.000766195
0.0908899
0.000340937
0.0907993
-0.000332385
0.090752
-0.00097515
0.0906496
-0.00143103
0.0905592
-0.00180613
0.0905195
-0.00194759
0.0905328
-0.00211154
0.0905832
-0.00209937
0.0906806
-0.00193971
0.0908002
-0.00170604
0.0909597
-0.00137685
0.0910718
-0.000892777
0.0911227
-0.000412035
0.0910305
6.26285e-05
0.0910859
0.000456823
0.0910771
0.000936442
0.0910902
0.00130716
0.091092
0.00147717
0.0910295
0.00166594
0.090906
0.00165791
0.0906622
0.00178949
0.0903538
0.00153455
0.090027
0.00139323
0.0897504
0.000852172
0.089603
0.000512029
0.0896558
-0.00011573
0.0896645
-0.000495378
0.0897095
-0.00107496
0.0898747
-0.0014347
0.0901307
-0.00197435
0.0905579
-0.0024283
-0.00297394
0.0910178
0.0919669
0.0030589
-0.0919501
0.0918008
0.00211822
0.0916099
0.00172303
0.0914167
0.00150795
0.0912554
0.0011396
0.0912033
0.000903314
0.0911748
0.0009289
0.0910978
0.00084318
0.0910188
0.000419886
0.0909465
-0.000260094
0.0908674
-0.000896058
0.0908471
-0.00141066
0.0909187
-0.00187776
0.0910329
-0.0020618
0.0911284
-0.00220699
0.0912309
-0.00220194
0.09128
-0.00198873
0.0913061
-0.0017322
0.0912998
-0.00137047
0.0913104
-0.000903376
0.0913409
-0.000442584
0.09148
-7.64399e-05
0.0914604
0.000476396
0.0914781
0.000918705
0.0914434
0.0013419
0.0913701
0.00155044
0.0913225
0.00171361
0.0913593
0.0016211
0.0914955
0.0016533
0.0916714
0.00135863
0.0918522
0.0012124
0.091988
0.000716414
0.0920513
0.000448704
0.091958
-2.23781e-05
0.0919049
-0.000442312
0.0918571
-0.00102715
0.0917664
-0.00134398
0.0917163
-0.00192432
0.0915796
-0.00229158
-0.00294844
0.0915541
0.0920584
0.00315195
-0.0921514
0.0918306
0.00234601
0.091655
0.00189859
0.0914925
0.0016705
0.0913778
0.00125423
0.0913628
0.000918349
0.0913918
0.000899947
0.0913824
0.000852523
0.0913426
0.000459742
0.0912856
-0.000203185
0.0912348
-0.000845229
0.091182
-0.00135781
0.0911217
-0.00181753
0.0911011
-0.00204119
0.0910999
-0.00220582
0.0911435
-0.00224544
0.0912072
-0.00205247
0.0913124
-0.00183744
0.0914483
-0.00150639
0.0915478
-0.0010028
0.0916093
-0.000504065
0.0915123
2.04754e-05
0.0915596
0.000429153
0.0915792
0.000899052
0.0916
0.00132109
0.0916024
0.0015481
0.0915664
0.00174959
0.0914871
0.0017004
0.0913284
0.00181202
0.0911181
0.00156886
0.0908434
0.00148713
0.090607
0.000952845
0.0904591
0.000596569
0.0905394
-0.000102645
0.0905672
-0.000470089
0.0906514
-0.00111136
0.0908258
-0.00151836
0.0910541
-0.00215264
0.0913088
-0.00254625
-0.00318639
0.0915467
0.0921588
0.00334307
-0.0923499
0.0919222
0.00258261
0.0917548
0.00206596
0.0916108
0.00181449
0.0915034
0.00136163
0.0914903
0.000931408
0.0915578
0.00083246
0.0915753
0.000835048
0.0915604
0.00047461
0.0914931
-0.000135874
0.0914258
-0.00077789
0.0913573
-0.00128938
0.0913493
-0.00180947
0.0914093
-0.00210121
0.091471
-0.00226753
0.0915615
-0.00233591
0.0916488
-0.00213979
0.091674
-0.00186259
0.0917068
-0.00153924
0.0917352
-0.00103116
0.0917543
-0.000523209
0.091893
-0.000118265
0.0919105
0.000411675
0.0919385
0.000871091
0.0919462
0.00131336
0.0918998
0.00159448
0.0918242
0.00182525
0.0918041
0.00172044
0.0918687
0.00174748
0.0919905
0.00144707
0.0921618
0.00131582
0.0922693
0.000845371
0.0923173
0.000548523
0.0921637
5.0997e-05
0.0920839
-0.000390323
0.092002
-0.00102944
0.0919238
-0.00144017
0.091893
-0.00212186
0.0918672
-0.00252045
-0.00324551
0.0919263
0.0922672
0.00352177
-0.0924459
0.0920354
0.00281439
0.0918797
0.00222171
0.0917549
0.00193928
0.09164
0.0014765
0.0916218
0.000949659
0.0917006
0.000753635
0.0917722
0.00076344
0.0917717
0.000475143
0.0917343
-9.85518e-05
0.0916836
-0.000727156
0.0916425
-0.00124829
0.091618
-0.00178492
0.0916439
-0.00212715
0.0916679
-0.00229153
0.091713
-0.002381
0.091785
-0.00221174
0.0918701
-0.00194775
0.0919761
-0.00164517
0.0920915
-0.00114656
0.0921715
-0.000603234
0.0921125
-5.92508e-05
0.0921413
0.000382875
0.0921756
0.000836801
0.0921971
0.00129179
0.0922069
0.00158467
0.092191
0.00184119
0.0921531
0.00175831
0.0920439
0.0018567
0.0918952
0.00159582
0.0917077
0.00150334
0.0915367
0.00101634
0.0914026
0.000682641
0.0914894
-3.58397e-05
0.0915121
-0.000412993
0.091594
-0.00111141
0.0917155
-0.00156158
0.0918407
-0.00224714
0.0919776
-0.00265726
-0.00337799
0.09211
0.0924506
0.00372947
-0.0926583
0.0922104
0.00305457
0.0920411
0.002391
0.0919205
0.00205982
0.0917854
0.00161164
0.0917407
0.000994389
0.0918183
0.000675965
0.0919206
0.000661184
0.09198
0.000415701
0.0919792
-9.77269e-05
0.0919519
-0.000699819
0.0919158
-0.00121218
0.0919075
-0.00177666
0.0919339
-0.00215356
0.0919745
-0.00233213
0.092035
-0.00244149
0.092127
-0.00230376
0.0921932
-0.00201395
0.0922372
-0.00168919
0.0922995
-0.00120882
0.0923398
-0.000643571
0.0924634
-0.000182841
0.0924919
0.000354359
0.0925317
0.000797012
0.0925475
0.00127605
0.0925726
0.0015595
0.0925583
0.00185554
0.092476
0.00184062
0.0924712
0.00186146
0.092513
0.00155403
0.0925927
0.00142361
0.0926663
0.000942778
0.0927103
0.000638615
0.0925733
0.000101188
0.0924838
-0.000323471
0.0924113
-0.00103898
0.0923412
-0.00149146
0.0923483
-0.00225427
0.0923913
-0.00270027
-0.00346195
0.0924753
0.0925555
0.00393174
-0.0927577
0.0923616
0.00324843
0.0921966
0.00255601
0.0920814
0.00217504
0.0919689
0.0017241
0.0918929
0.00107043
0.0919828
0.00058606
0.0921225
0.000521408
0.0922238
0.000314406
0.0922496
-0.000123493
0.0922658
-0.000716003
0.0922668
-0.00121314
0.0922491
-0.00175906
0.0922766
-0.00218102
0.0923257
-0.00238125
0.0923666
-0.00248239
0.0924525
-0.0023896
0.0925232
-0.00208465
0.0926049
-0.00177092
0.0926965
-0.00130041
0.0928091
-0.000756164
0.0928093
-0.000183049
0.0928572
0.000306483
0.0928882
0.000766025
0.0929263
0.00123787
0.0929554
0.00153048
0.0929537
0.00185721
0.0929475
0.00184682
0.0928973
0.00191161
0.0927774
0.00167392
0.0926598
0.00154127
0.0925231
0.00107942
0.0924115
0.00075024
0.0924601
5.25963e-05
0.0924798
-0.00034322
0.092513
-0.00107208
0.0925384
-0.00151687
0.0926041
-0.00232003
0.0926589
-0.00275507
-0.00357623
0.0927732
0.0928447
0.00407215
-0.0929851
0.0926404
0.00345268
0.0924564
0.00274005
0.092324
0.00230746
0.0921999
0.00184815
0.0921209
0.00114946
0.0921841
0.000522862
0.0923409
0.000364528
0.0924695
0.000185871
0.0925722
-0.000226193
0.0926174
-0.000761234
0.0926623
-0.00125805
0.0926475
-0.00174424
0.0926563
-0.00218979
0.0926953
-0.00242031
0.0927449
-0.00253194
0.0928144
-0.00245914
0.0929154
-0.00218557
0.0929701
-0.00182562
0.093043
-0.00137335
0.093092
-0.000805168
0.0932086
-0.000299694
0.0932552
0.000259882
0.0933084
0.000712913
0.0933389
0.00120728
0.0933885
0.00148088
0.0934131
0.00183265
0.0933981
0.00186184
0.0933242
0.00198551
0.0932995
0.00169858
0.0932894
0.00155141
0.0933165
0.00105227
0.0933156
0.000751224
0.0932148
0.000153393
0.0931415
-0.000269938
0.0931009
-0.00103151
0.0930684
-0.00148431
0.0930748
-0.00232652
0.0930838
-0.00276406
-0.00363697
0.0931446
0.0930707
0.00425103
-0.0932496
0.0928455
0.00367785
0.0926565
0.00292908
0.0925484
0.00241552
0.0924563
0.00194031
0.0923739
0.00123187
0.0924166
0.000480173
0.0925866
0.000194538
0.0927643
8.1404e-06
0.0929314
-0.00039329
0.0930356
-0.000865484
0.0930905
-0.00131297
0.0931156
-0.00176929
0.0931039
-0.00217811
0.0931469
-0.00246331
0.0931853
-0.00257035
0.0932402
-0.00251401
0.0933286
-0.00227397
0.0934068
-0.00190387
0.0934646
-0.00143116
0.0935712
-0.000911772
0.0936473
-0.000375786
0.0937208
0.000186427
0.0937851
0.000648642
0.093831
0.00116131
0.0938716
0.0014403
0.0939178
0.00178646
0.0939153
0.0018643
0.0938984
0.00200244
0.0938438
0.00175319
0.0937474
0.00164784
0.093642
0.0011576
0.0935303
0.000862914
0.0935371
0.000146626
0.0934931
-0.000225894
0.0935015
-0.00103998
0.0935087
-0.00149146
0.0935182
-0.00233608
0.0935194
-0.00276521
-0.00366125
0.0935436
0.093283
0.0044272
-0.0934591
0.0931365
0.00382429
0.0929888
0.00307682
0.09291
0.00249427
0.092831
0.00201936
0.0927405
0.00132235
0.0927454
0.000475327
0.0929012
3.86559e-05
0.093105
-0.000195603
0.0932968
-0.000585065
0.093464
-0.0010327
0.0935702
-0.00141919
0.0936117
-0.00181082
0.0936205
-0.00218691
0.0936377
-0.00248047
0.0936799
-0.00261259
0.0937134
-0.00254743
0.0938004
-0.00236103
0.0938833
-0.00198679
0.0939928
-0.00154059
0.0940689
-0.000987898
0.0941749
-0.000481791
0.0942667
9.46718e-05
0.0943426
0.000572701
0.0943845
0.00111938
0.0944241
0.00140073
0.0944581
0.0017525
0.0945041
0.00181827
0.0945043
0.00200222
0.0944463
0.00181117
0.0943839
0.00171026
0.0943412
0.00120029
0.0942915
0.000912692
0.0942195
0.000218577
0.0941583
-0.000164682
0.0941251
-0.00100677
0.0940868
-0.00145313
0.0940622
-0.00231148
0.0940398
-0.00274281
-0.00367012
0.0940486
0.0936199
0.0045058
-0.0936985
0.0935132
0.00393102
0.093372
0.00321796
0.0932805
0.00258585
0.0932322
0.00206765
0.093146
0.00140848
0.0931286
0.000492801
0.0932402
-7.29751e-05
0.0934375
-0.000392911
0.093673
-0.000820603
0.0938883
-0.00124795
0.0940537
-0.0015846
0.0941536
-0.00191076
0.0941872
-0.00222043
0.0942147
-0.00250805
0.0942432
-0.00264104
0.0942759
-0.00258013
0.0943369
-0.00242205
0.0944367
-0.0020866
0.0945302
-0.00163405
0.0946519
-0.00110957
0.0947415
-0.000571423
0.0948427
-6.58423e-06
0.0949489
0.000466512
0.0950244
0.00104387
0.0950634
0.00136175
0.0951005
0.00171543
0.0951371
0.00178164
0.0951668
0.00197254
0.0951698
0.00180813
0.0951243
0.00175582
0.0950546
0.00126996
0.0949643
0.00100299
0.0948877
0.000295147
0.0948368
-0.00011373
0.0947845
-0.000954506
0.0947245
-0.00139315
0.094668
-0.00225497
0.0946216
-0.00269639
-0.00364204
0.0945935
0.0940561
0.0046642
-0.0942145
0.0939234
0.00406375
0.0937802
0.00336114
0.0937013
0.0026648
0.0936992
0.00206972
0.0936532
0.00145447
0.0935914
0.000554624
0.093689
-0.000170549
0.0938649
-0.000568802
0.0940784
-0.0010341
0.0943439
-0.00151347
0.0945793
-0.00182004
0.094744
-0.00207544
0.0948373
-0.0023137
0.0948681
-0.0025389
0.0948963
-0.0026692
0.0949412
-0.00262505
0.094982
-0.00246287
0.0950537
-0.00215824
0.0951654
-0.0017458
0.0952719
-0.00121602
0.0953883
-0.000687822
0.0954936
-0.000111855
0.0955968
0.000363301
0.095695
0.00094561
0.0957897
0.00126712
0.0958324
0.00167273
0.0958719
0.00174212
0.0959168
0.00192758
0.095955
0.00177002
0.0959615
0.00174928
0.0959321
0.00129935
0.0958736
0.00106149
0.0958171
0.000351673
0.09575
-4.67033e-05
0.0956459
-0.000850396
0.0955486
-0.00129581
0.0954575
-0.00216386
0.0953545
-0.00259336
-0.00358735
0.0952998
0.0943205
0.00477612
-0.0944324
0.0942725
0.00411181
0.0942406
0.00339304
0.094226
0.00267939
0.0942537
0.00204197
0.0942531
0.00145504
0.0941837
0.00062407
0.0942252
-0.000212064
0.094373
-0.000716573
0.0945569
-0.00121806
0.0948273
-0.00178379
0.0951425
-0.00213527
0.0953833
-0.00231622
0.0955277
-0.00245815
0.0956116
-0.00262282
0.0956448
-0.00270235
0.0956727
-0.00265299
0.0957259
-0.00251606
0.0957905
-0.00222288
0.0958857
-0.00184099
0.0959929
-0.00132318
0.0961245
-0.000819446
0.0962251
-0.000212412
0.0963545
0.000233895
0.096484
0.000816039
0.0966138
0.00113732
0.096716
0.00157054
0.0967926
0.00166558
0.0968368
0.00188333
0.0968994
0.00170747
0.0969588
0.00168985
0.0969977
0.00126044
0.0969832
0.00107602
0.0969051
0.000429705
0.0967497
0.000108698
0.0965954
-0.000696077
0.0964302
-0.00113059
0.0963042
-0.00203783
0.0961834
-0.00247262
-0.00348929
0.0960854
0.0950289
0.0048745
-0.0951273
0.0949833
0.00415739
0.0949513
0.00342499
0.0949199
0.00271083
0.0949086
0.00205325
0.0949055
0.00145819
0.0948574
0.000672146
0.0948754
-0.000230044
0.0950032
-0.000844372
0.0951795
-0.00139433
0.0954023
-0.00200662
0.0957138
-0.00244682
0.0960119
-0.00261427
0.0962566
-0.00270289
0.0963946
-0.00276079
0.0964776
-0.00278534
0.0965248
-0.0027002
0.0965671
-0.00255835
0.0966217
-0.00227744
0.0967145
-0.00193383
0.0968204
-0.00142906
0.0969797
-0.000978742
0.0971178
-0.000350571
0.097283
6.87856e-05
0.097432
0.000667032
0.0976122
0.000957077
0.0977599
0.00142282
0.0979334
0.00149214
0.0980762
0.00174055
0.0981915
0.00159213
0.0982357
0.00164569
0.0982529
0.00124323
0.0982107
0.00111817
0.0981584
0.000481982
0.0981217
0.000145459
0.0980388
-0.000613191
0.0979092
-0.00100103
0.0977509
-0.00187945
0.0975524
-0.00227416
-0.00333449
0.0973976
0.0954306
0.00488014
-0.0954363
0.0954532
0.00413484
0.0954488
0.00342936
0.0954509
0.00270878
0.095491
0.00201311
0.0955684
0.00138078
0.0956048
0.00063578
0.0956358
-0.000261089
0.095794
-0.00100252
0.0959429
-0.00154328
0.0960976
-0.00216127
0.0963521
-0.00270135
0.0966764
-0.00293862
0.0969711
-0.00299757
0.0971889
-0.00297853
0.0973479
-0.00294439
0.0974555
-0.00280778
0.0975311
-0.00263395
0.097591
-0.00233739
0.0976927
-0.00203549
0.097802
-0.00153841
0.097962
-0.00113866
0.0981403
-0.00052895
0.0983489
-0.000139784
0.0985591
0.000456878
0.0987748
0.000741348
0.0989682
0.0012294
0.0991222
0.00133816
0.0992245
0.00163827
0.0993272
0.00148937
0.0993736
0.00159933
0.0993879
0.00122891
0.0993608
0.00114526
0.0992571
0.000585727
0.0990423
0.000360263
0.0988563
-0.000427215
0.0985949
-0.000739643
0.0984029
-0.00168741
0.0981952
-0.00206649
-0.00318013
0.0980408
0.0965673
0.00491357
-0.0966007
0.0964947
0.00420746
0.0964407
0.0034833
0.0964049
0.00274458
0.0964171
0.00200096
0.0964894
0.00130852
0.0965581
0.000567037
0.0966278
-0.000330814
0.0967281
-0.00110282
0.096845
-0.00166012
0.0969369
-0.00225318
0.0970876
-0.00285205
0.0973702
-0.00322126
0.0977143
-0.00334167
0.0980357
-0.00329992
0.098319
-0.00322773
0.0985316
-0.00302036
0.0987162
-0.00281851
0.0987992
-0.00242039
0.0989027
-0.00213894
0.0989863
-0.00162207
0.099167
-0.00131931
0.0993342
-0.000696168
0.0995542
-0.000359799
0.0997733
0.000237789
0.100043
0.000471629
0.100292
0.000980372
0.100572
0.0010583
0.100782
0.00142812
0.100966
0.00130509
0.101067
0.00149863
0.10116
0.00113622
0.10115
0.00115515
0.101206
0.000529673
0.101175
0.000391156
0.101146
-0.000398391
0.101075
-0.000668885
0.100998
-0.00161031
0.100859
-0.00192758
-0.00306139
0.100741
0.0968147
0.00492674
-0.0968278
0.0968383
0.00418382
0.0969159
0.00340566
0.0970683
0.00259223
0.0972831
0.00178612
0.0975341
0.0010576
0.0976949
0.000406235
0.0977809
-0.000416851
0.0979171
-0.00123906
0.0980929
-0.00183592
0.0981523
-0.0023125
0.0982227
-0.00292253
0.0983717
-0.00337021
0.0986448
-0.00361481
0.0989398
-0.00359489
0.0992988
-0.00358668
0.0996094
-0.00333098
0.0998922
-0.00310137
0.100091
-0.00261936
0.100304
-0.00235149
0.100425
-0.00174369
0.100595
-0.00148874
0.100762
-0.000863319
0.100989
-0.000586865
0.101199
2.79255e-05
0.10143
0.000240816
0.101618
0.000792075
0.101814
0.000862127
0.101971
0.00127167
0.102114
0.00116168
0.102208
0.0014043
0.10224
0.00110466
0.102241
0.00115426
0.102103
0.000667415
0.101952
0.000542053
0.101624
-7.00968e-05
0.101436
-0.000480642
0.101091
-0.00126592
0.100878
-0.00171442
-0.00272785
0.100545
0.0984717
0.004885
-0.0984299
0.0985554
0.00410009
0.0986255
0.00333552
0.0986815
0.00253623
0.0987377
0.00172994
0.0988538
0.000941522
0.0990431
0.000216922
0.0991646
-0.000538343
0.0992494
-0.0013239
0.0994103
-0.00199684
0.0995309
-0.00243304
0.0995844
-0.00297605
0.0996263
-0.00341214
0.0998221
-0.00381062
0.100047
-0.00382019
0.100365
-0.00390393
0.100672
-0.00363845
0.101096
-0.00352512
0.101429
-0.00295238
0.10173
-0.00265253
0.101992
-0.00200571
0.102209
-0.00170603
0.102362
-0.00101569
0.102557
-0.000782238
0.102788
-0.000202883
0.103079
-5.07106e-05
0.103408
0.000463496
0.103833
0.000437026
0.104162
0.000942444
0.104526
0.00079803
0.104794
0.00113588
0.105107
0.00079185
0.105304
0.000957758
0.105559
0.000411616
0.105758
0.00034389
0.105979
-0.000291146
0.106018
-0.000519662
0.106014
-0.00126274
0.105913
-0.00161302
-0.00256237
0.105748
0.0989698
0.0046434
-0.0987282
0.0992517
0.00381821
0.0995701
0.0030171
0.0998723
0.00223407
0.100129
0.00147333
0.100364
0.000706481
0.100521
6.01622e-05
0.100711
-0.000729009
0.100864
-0.00147654
0.101117
-0.00225002
0.101351
-0.00266736
0.10151
-0.00313469
0.101557
-0.00345902
0.101662
-0.0039154
0.101732
-0.00389014
0.10187
-0.00404226
0.10201
-0.00377882
0.102301
-0.00381554
0.102639
-0.0032905
0.103086
-0.00309933
0.103482
-0.00240212
0.103888
-0.0021119
0.10427
-0.00139775
0.104627
-0.00113949
0.104875
-0.000450755
0.105124
-0.000299677
0.105391
0.000197222
0.105491
0.000336613
0.105761
0.00067252
0.105922
0.000636547
0.106225
0.000833499
0.10632
0.000696934
0.106493
0.000784856
0.106451
0.000453281
0.106363
0.000431606
0.106101
-2.8874e-05
0.105858
-0.000277136
0.105595
-0.000999248
0.105318
-0.00133645
-0.00219846
0.104954
0.101444
0.00464345
-0.101444
0.101483
0.00377914
0.101527
0.00297363
0.101625
0.00213557
0.101759
0.00133908
0.102042
0.000424133
0.102372
-0.000269887
0.102681
-0.00103816
0.102803
-0.00159871
0.103016
-0.00246302
0.103225
-0.00287655
0.103534
-0.00344331
0.103689
-0.00361367
0.103859
-0.00408567
0.104005
-0.00403589
0.104153
-0.0041906
0.104262
-0.00388785
0.104374
-0.00392798
0.104586
-0.00350219
0.104883
-0.00339656
0.105296
-0.00281458
0.105764
-0.00257958
0.106263
-0.00189744
0.106764
-0.00163983
0.10728
-0.000967116
0.107788
-0.000807525
0.108256
-0.00027096
0.108827
-0.000234374
0.109409
9.08774e-05
0.110036
9.24295e-06
0.110553
0.000316079
0.111167
8.30956e-05
0.111731
0.000221454
0.112336
-0.000152212
0.112835
-6.70146e-05
0.113336
-0.000530447
0.113623
-0.000563997
0.113762
-0.00113813
0.113715
-0.00128961
-0.0020304
0.113547
0.103027
0.00413984
-0.102524
0.103551
0.00325533
0.103974
0.00255052
0.104418
0.00169195
0.104687
0.00107011
0.104895
0.000215629
0.104983
-0.000357846
0.105285
-0.00133975
0.105437
-0.00175085
0.105633
-0.00265943
0.105749
-0.00299179
0.105984
-0.00367915
0.106074
-0.00370348
0.106204
-0.00421542
0.106335
-0.0041669
0.106578
-0.00443383
0.106789
-0.00409829
0.106971
-0.00410983
0.107165
-0.00369657
0.107353