FoamFile
{
    version     2.0;
    format      ascii;
    class       volVectorField;
    object      U;
}
dimensions      [0 1 -1 0 0 0 0];

internalField   nonuniform List<vector>
16384
(
(-0.12582695249611905 -0.10530527782546223 0.0)
(0.07887579843709304 0.003621155306882056 0.0)
(0.06663476464804013 -0.1002932931198982 0.0)
(-0.023437704223524793 -0.08793108177465474 0.0)
(0.006821189324718541 -0.21686902282260817 0.0)
(0.08770447391929843 -0.17616334560879 0.0)
(-0.04735345864280209 -0.32497870483663854 0.0)
(0.02879026445389468 -0.056206153657277866 0.0)
(-0.0677206820301982 -0.33473949459429064 0.0)
(-0.05712347534530299 -0.19930359627711736 0.0)
(-0.03374749060721289 -0.2603795671807031 0.0)
(0.05297455554933956 0.046148321406536415 0.0)
(-0.18607561342449225 -0.028174352524144197 0.0)
(0.042322936916653855 -0.10306725027275355 0.0)
(0.09337354834700186 0.07252729461217451 0.0)
(0.08979269649728877 -0.19173064187474717 0.0)
(0.11830569114257262 -0.01297037412131516 0.0)
(0.07721751939585753 0.1795234980015904 0.0)
(-0.03872129635181472 0.14148237213608011 0.0)
(-0.10548231533159338 0.22852958074446467 0.0)
(-0.003942692417298533 -0.16643122621646567 0.0)
(-0.08278440355897887 0.5456125259839256 0.0)
(-0.098624644190635 -0.14299268383465658 0.0)
(0.12350053219095926 0.4106225001878348 0.0)
(-0.13791589882411195 0.27590820650133385 0.0)
(0.3225562461233715 0.5165232184903296 0.0)
(0.10043756383798082 0.5356290173672384 0.0)
(0.02245425062827724 0.6187674802084956 0.0)
(0.014744844294192415 0.8272600929088425 0.0)
(-0.09513520743457612 0.6119111606588561 0.0)
(-0.1913707033193464 0.8461887850478479 0.0)
(-0.24566146162250552 0.3067463001832233 0.0)
(0.0760638661742078 0.338015500343035 0.0)
(-0.160005342291933 0.20829514607502872 0.0)
(0.2862673136371051 0.16503446649811931 0.0)
(-0.16185627665609234 0.5969689938879901 0.0)
(0.07827500120177112 -0.06595978119595429 0.0)
(0.11886732789793653 0.7495737374463198 0.0)
(-0.17412370911635244 0.01526236051651961 0.0)
(0.15595293388527207 0.19342687256497268 0.0)
(-0.08925532221510775 0.3483407996338898 0.0)
(-0.020931249789280196 -0.30006641168065096 0.0)
(0.09286035729643861 0.12855407578077324 0.0)
(-0.19115903420850777 -0.2032871941484619 0.0)
(0.036315995246867204 0.0021127393366716877 0.0)
(-0.015410032742762914 0.0495112819072558 0.0)
(0.07134014808839391 -0.02834517387021141 0.0)
(-0.09324594504325692 0.30351450783856376 0.0)
(0.13026274022784692 -0.005246681369398633 0.0)
(0.07944444717515958 0.5256380713721811 0.0)
(0.1575153391001449 -0.34338745572839324 0.0)
(-0.005657589332277705 0.3080947975200021 0.0)
(-0.06957635181080438 -0.7074095505297477 0.0)
(-0.09209151205787673 -0.004220873610629471 0.0)
(-0.10851742937576195 -0.4941741851074239 0.0)
(0.044786827505257504 -0.10810063496434758 0.0)
(-0.018047445721837533 -0.43747988279333605 0.0)
(0.02510789649051465 -0.3879753485534468 0.0)
(0.0575669727646482 -0.3439318836902375 0.0)
(-0.05380052952641501 -0.26300892444594515 0.0)
(0.07744809225501462 -0.3518036337399543 0.0)
(-0.0032509211535982005 -0.12926579183737774 0.0)
(0.0677410479157556 -0.33623222924325447 0.0)
(0.008273235496075787 0.07736172185777264 0.0)
(-0.08080064290659612 -0.3471022585533926 0.0)
(0.08236808049253515 -0.003779679373343488 0.0)
(-0.04542012781977484 -0.4105957711765303 0.0)
(0.038478275757467775 -0.036176504579855856 0.0)
(0.025843974399719163 -0.40907913257534506 0.0)
(0.00011072987687073371 -0.03154246396035712 0.0)
(-0.04819838832399618 -0.30243864512124446 0.0)
(0.018975396869206313 -0.10406873466140737 0.0)
(0.05688573656114642 -0.20076739877378108 0.0)
(0.02842306581933452 0.05858521956390266 0.0)
(-0.020467071899360045 -0.18060774204066482 0.0)
(-0.04081283226218241 0.06430654115217276 0.0)
(-0.018406804882151472 -0.1693708553732025 0.0)
(-0.014494441716328266 0.09981086340860724 0.0)
(0.002634425691086963 -0.15397402127402857 0.0)
(0.020584212647315626 0.11847184178131041 0.0)
(0.007011064013010422 -0.08292766619628833 0.0)
(-0.002821483452637478 0.13054001982128066 0.0)
(-0.00753827497789859 -0.04971875284586034 0.0)
(0.007734547977657915 0.10978655197002199 0.0)
(-0.004499520712089655 -0.06749994894062478 0.0)
(0.010698377589207568 0.11671728348027231 0.0)
(0.016740775115330144 -0.0716439447888868 0.0)
(-0.011071493946094607 0.11350185760657103 0.0)
(0.008359735429638694 -0.055863479775999425 0.0)
(0.02187108468276118 0.1127858601571433 0.0)
(0.013158111883192264 0.012914321092722347 0.0)
(-0.020171715207912284 0.1476176048653848 0.0)
(-0.029751429158546876 -0.05145574063971452 0.0)
(-0.0023041440572169345 0.08404455383679114 0.0)
(-0.045928510388236206 -0.0779808936431206 0.0)
(-0.00011330485105501258 0.004662478922624868 0.0)
(0.006689125418050953 -0.0005535820786853907 0.0)
(-0.026186650714981254 0.024412561211174407 0.0)
(0.021730232197473096 -0.035698360190671456 0.0)
(0.004985948731455807 0.06397732514065262 0.0)
(-0.0035284493315407835 -0.0386162870184456 0.0)
(0.015151851036233645 0.04126485615733459 0.0)
(-0.005688006359014447 0.002539379164935281 0.0)
(-0.01321058305356213 0.0015248032801968181 0.0)
(-0.016580335356060898 0.007913089976569575 0.0)
(-0.023637801464250943 -0.004549859982383015 0.0)
(0.021047005828429013 -0.030111604635269098 0.0)
(0.005347859956216974 0.03464050150888472 0.0)
(-0.007298586859026545 -0.0002608678569031717 0.0)
(-0.007964161236023408 -0.006811413005782549 0.0)
(-0.025793331109817436 0.007687426185866726 0.0)
(0.01799131965796144 -0.023392329663838907 0.0)
(0.01567517277134902 0.0032081628896534105 0.0)
(-0.016864355347553664 -0.05065724599885341 0.0)
(0.02318824998287659 -0.03582167859444533 0.0)
(0.009075710348706809 -0.01456313151124308 0.0)
(0.02633347486404465 -0.030744754527102427 0.0)
(0.01915166643807204 0.04523844881795341 0.0)
(-0.043042521283860644 -0.011548565599479971 0.0)
(-0.03673886858044975 -0.003910918957360518 0.0)
(0.0028581931063609237 -0.005691851119461749 0.0)
(0.047687850104079006 0.0038216079018815532 0.0)
(-0.013346984912815371 0.15363991254297307 0.0)
(0.026443915087979268 0.023359062971750215 0.0)
(0.047165013412956446 0.2183580590617869 0.0)
(-0.01358330917941694 0.07177568822268894 0.0)
(-0.014955463529711461 0.12061481502544197 0.0)
(-0.05709917635226459 -0.04404561423059589 0.0)
(-0.29409671779588836 -0.03568616375849437 0.0)
(0.07500453658705791 0.006582772730514731 0.0)
(0.1373498014089592 -0.1000429969876098 0.0)
(0.06660550251992446 0.00988990156463958 0.0)
(0.07497187552775687 -0.16597780582457236 0.0)
(0.17120849721285025 -0.023057309397649176 0.0)
(-0.1400085101084807 -0.18858798286199122 0.0)
(0.036329507934239606 -0.008331448424055468 0.0)
(0.042807921506199303 -0.22939335349131176 0.0)
(-0.11455915543587246 0.039267513484287 0.0)
(-0.2233347900041605 -0.2569125475244274 0.0)
(-0.12638097757533526 0.03796056525222947 0.0)
(-0.07082136106575333 -0.23789358360202745 0.0)
(-0.03545911304885137 -0.03520346868292201 0.0)
(0.1618572380562855 -0.3438180377881296 0.0)
(0.1558311787910315 0.055525215491622724 0.0)
(-0.16845136675015077 -0.5009860010996762 0.0)
(-0.04208193168898394 0.16316362676295185 0.0)
(-0.0765736422162269 -0.423160148321714 0.0)
(0.13235044682467173 0.17917533317816198 0.0)
(-0.2488578670066356 -0.3948652434169911 0.0)
(-0.10088835643864306 0.2916400455681102 0.0)
(0.005641782723940853 -0.3097380298210993 0.0)
(-0.2000589219915669 0.22608868664869486 0.0)
(-0.2197137164033713 -0.43859376974606956 0.0)
(0.1219476397864105 0.21669712711905312 0.0)
(0.021463996872556648 -0.4911355894117092 0.0)
(-0.2028018751088168 0.3152780032109847 0.0)
(0.020040672167470446 -0.5496370480735633 0.0)
(-0.1097557476104952 0.36429869573649504 0.0)
(0.04433893103351046 -0.5101881130670411 0.0)
(0.1468520765973583 0.34381897643612996 0.0)
(0.15210763314098896 -0.46724525975800807 0.0)
(-0.02639462389527819 0.2523626252273089 0.0)
(-0.013944743569351565 -0.3190242596657304 0.0)
(0.016563904411678175 0.29969747643686434 0.0)
(-0.03959705080507406 -0.4789124048753 0.0)
(0.05613126682405071 0.27483864220312193 0.0)
(0.25544466898377766 -0.39217447896704316 0.0)
(-0.10131717569683876 0.28546004791864066 0.0)
(0.29191936940511104 -0.35641598950776754 0.0)
(0.1488322289883397 0.20501343231091687 0.0)
(0.01810799576335383 -0.38391575066711336 0.0)
(-0.09349562324476246 0.19877718500103597 0.0)
(-0.15894579296551004 -0.3305072101004833 0.0)
(0.008115688973544331 0.10142337128625772 0.0)
(-0.12485219009693706 -0.11492610060226885 0.0)
(-0.11108724306486688 -0.032992018177405665 0.0)
(-0.04130571578658062 0.016503129552454098 0.0)
(0.3406247094102171 -0.10810153908541605 0.0)
(0.325545974920074 -0.007146064256890545 0.0)
(0.27551342992680095 -0.06039787447480113 0.0)
(0.1716565756308741 0.0349988189826213 0.0)
(-0.25679471522633934 -0.12909000715225202 0.0)
(-0.02828060090480477 0.0608634979426699 0.0)
(0.0009960933836561969 -0.17221788615383146 0.0)
(0.1981280546351727 0.09249235544879483 0.0)
(-0.04714866879247735 -0.18691482523294584 0.0)
(-0.03895721447910323 0.1051057977288535 0.0)
(-0.04772038214953844 -0.15711314334952098 0.0)
(-0.025855233151575827 -0.029536994648801704 0.0)
(-0.015278289096804237 -0.1527748880299382 0.0)
(-0.0918582441666066 -0.06588108422587811 0.0)
(0.016669256683128804 -0.1281348446280146 0.0)
(-0.01812694585885883 -0.027110329604908532 0.0)
(0.13141053125456625 -0.0804281144307587 0.0)
(-0.020396788593500473 -0.0459090504018564 0.0)
(0.03730682263021834 -0.12807343272932736 0.0)
(0.022264636928504805 -0.08333184554881048 0.0)
(-0.08225848611293544 -0.13456399731426147 0.0)
(0.007820973542492074 -0.05270306615746485 0.0)
(-0.059555572467852765 -0.13060489955955165 0.0)
(-0.06874833551628236 -0.05875254051325482 0.0)
(0.012851727396438428 -0.09034637943871579 0.0)
(-0.024886226245913433 -0.07121627538278623 0.0)
(-0.04949221442801838 -0.08961206645338322 0.0)
(-0.04583037784519387 -0.07872189854271476 0.0)
(-0.026386971315088117 -0.07706959970067473 0.0)
(-0.011779332111960143 -0.08376973011744786 0.0)
(-0.03429206095566882 -0.08765524235114447 0.0)
(-0.0023104084156072143 -0.09346070395238418 0.0)
(-0.028472080349294653 -0.08581024647428513 0.0)
(0.00849172372886453 -0.10760329250222542 0.0)
(0.0214687610955147 -0.067703447845988 0.0)
(-0.00985282445595031 -0.11233192605996159 0.0)
(0.013899204003596108 -0.08912891879844484 0.0)
(0.019224373180315613 -0.10411191543843087 0.0)
(-0.023260340434868965 -0.08640299404691175 0.0)
(0.008912772554355953 -0.09499149532462202 0.0)
(-0.03125295544785042 -0.07763328760388959 0.0)
(-0.013745961528979762 -0.07823791088638708 0.0)
(0.029547782936714506 -0.06630588267655292 0.0)
(0.019352457145039657 -0.0803381667573507 0.0)
(0.018183909861709504 -0.06425779193988748 0.0)
(0.015386281305099314 -0.08030135451860486 0.0)
(-0.05991823543622317 -0.06690210048922803 0.0)
(-0.008565857306424849 -0.07399969309868608 0.0)
(0.0009592100019999274 -0.05242622118674737 0.0)
(-0.008829629853941137 -0.08378608226964993 0.0)
(0.007239758244684324 -0.046613233622997505 0.0)
(0.014014683750572297 -0.07513078220954635 0.0)
(-0.016636825459851803 -0.03722383959825829 0.0)
(0.02500724904566639 -0.06131690692464748 0.0)
(-0.01736124249893249 -0.04756976742665793 0.0)
(-0.011888259557400069 -0.054808871656409526 0.0)
(0.005732509551788247 -0.03185274219481441 0.0)
(-0.009223667416404208 -0.04332044791796545 0.0)
(-0.0177088780975205 -0.018332460901595942 0.0)
(0.024718912135613693 -0.010449786388376053 0.0)
(-0.01410343126740987 -0.01655969503573558 0.0)
(-0.012986214993583827 -0.028726344101395802 0.0)
(0.02145110697447955 -0.016012128683314034 0.0)
(0.03673462060545069 -0.03181912979918847 0.0)
(0.013282332087979134 -0.02215939258446971 0.0)
(-0.004690879071840114 -0.03232094880917935 0.0)
(0.005154289272618764 -0.026506775971728038 0.0)
(-0.01985732381162214 -0.022996512343018367 0.0)
(0.0043245114830553774 -0.00998973575547506 0.0)
(-0.005079501921353201 -0.026168910490772957 0.0)
(-0.041262600527969984 -0.03701670453665379 0.0)
(-0.003114418143095595 -0.03192011889102875 0.0)
(-0.07538015875884556 -0.04353040239515993 0.0)
(-0.028437734167255927 -0.04228380543945918 0.0)
(-0.023544444083414585 -0.028710636754196026 0.0)
(0.009767965087304525 -0.034172629928167 0.0)
(0.06191366736093598 -0.020672918213200994 0.0)
(0.07450502287421157 -0.06561822666926423 0.0)
(0.19726857432408995 -0.014968408521903735 0.0)
(-0.25642122273784657 -0.02886528848357828 0.0)
(0.17829435930874274 -0.1409619057585293 0.0)
(0.06152590560683606 -0.08552898699027962 0.0)
(0.07841851642955358 -0.13601501945437186 0.0)
(0.057718104760941434 -0.22243049960984076 0.0)
(0.12263271928697835 -0.09202152159689493 0.0)
(-0.07010199725374701 -0.24522084446217085 0.0)
(0.09182648019432366 -0.13443737520516152 0.0)
(-0.14125165076299456 -0.18698046559833148 0.0)
(-0.01461177099558846 -0.040324411608178484 0.0)
(-0.031728514441895235 -0.13352493222171302 0.0)
(0.023594023171320123 -0.0776419610836721 0.0)
(-0.07305167180974924 -0.21745119304604565 0.0)
(0.20595523931423426 -0.01025762659048695 0.0)
(-0.0467842990458201 -0.13730009739171814 0.0)
(0.3325860712417308 0.12637968835592656 0.0)
(-0.047974335486596235 -0.08011172211446423 0.0)
(-0.04300800901459643 0.08014415096566449 0.0)
(-0.063456211496449 -0.09414050282065481 0.0)
(-0.1491923393412133 0.17230619829103444 0.0)
(-0.17767839838106322 -0.20582393092121382 0.0)
(-0.21428908833094912 0.10270410375722294 0.0)
(0.0026392222856431663 -0.21678539857891835 0.0)
(0.32255712930140396 0.1245938290246581 0.0)
(-0.1234077994362291 -0.22661876990081373 0.0)
(0.4037229511123988 -0.02125634707729553 0.0)
(-0.051850364867813935 -0.13055189067142853 0.0)
(0.11282741750471348 -0.0138563008408298 0.0)
(-0.06098241665520176 -0.0257361666516188 0.0)
(-0.15607599879242914 0.020599617929920964 0.0)
(-0.15973359319851296 0.03925359433715426 0.0)
(-0.3119996647548336 0.041906302310636384 0.0)
(0.21734581501378591 0.11711392022103682 0.0)
(-0.38897743089159836 0.23431777624372277 0.0)
(0.21314434362436285 -0.011117245168903321 0.0)
(0.08513924036355767 0.14717581559883333 0.0)
(0.1166769765703708 -0.0974900338498164 0.0)
(-0.015125588380134967 -0.056189170574455743 0.0)
(-0.1905316772789789 -0.14949822769837623 0.0)
(0.10071314997096821 0.06136676898586264 0.0)
(0.035018765700958236 -0.2575238922062693 0.0)
(0.021550434619320765 0.11171256086383571 0.0)
(0.10249412424362216 -0.11829448667457874 0.0)
(-0.2736646513274573 0.032915562537257484 0.0)
(0.18670835561103732 -0.11749832128313434 0.0)
(-0.3484401490805831 -0.05336558428283707 0.0)
(0.27898530259599696 -0.1096007081747309 0.0)
(-0.29627807485507635 0.09300563440616302 0.0)
(0.24629207389392963 -0.14292568483082876 0.0)
(0.11597776766856273 -0.04816691556995018 0.0)
(0.08382262542967822 -0.10358401641456978 0.0)
(-0.07076308675256408 -0.0033446982906547977 0.0)
(0.03653938806228468 -0.08465390430669267 0.0)
(-0.13204731831174843 0.08386946379487839 0.0)
(-0.041893398194503016 -0.21693335269943412 0.0)
(-0.004073492953313878 -0.06635339876334005 0.0)
(0.004656414290386096 -0.22693578994779715 0.0)
(0.005622626376979474 -0.09205720293920172 0.0)
(0.011529276754080582 -0.24964259979035774 0.0)
(0.1541959174440505 -0.2011195209487421 0.0)
(0.07074634701793583 -0.24997158399943 0.0)
(0.052893498959176874 -0.14399741680152142 0.0)
(0.029677061048763814 -0.2095999698819121 0.0)
(-0.05161990148600994 -0.13645149414398614 0.0)
(-0.15449809230125527 -0.21316622124368562 0.0)
(0.1114083808629236 -0.11163049436646716 0.0)
(0.028182452354608287 -0.14634945077145733 0.0)
(0.09628908232806739 -0.07201423246079232 0.0)
(0.03587061116696636 -0.1639970476414062 0.0)
(-0.0472046679691068 0.005744717248578004 0.0)
(-0.054314410219016285 -0.16910208204184618 0.0)
(0.028320636594434092 -0.009509434369718113 0.0)
(-0.005305703452485638 -0.15724614112130464 0.0)
(0.04767706763454536 -0.035349614486013224 0.0)
(-0.021601440024205897 -0.11983821912258187 0.0)
(-0.029218131038328012 0.014566728122820284 0.0)
(-0.03778243186329173 -0.11505085818614619 0.0)
(-0.0066965417031964935 0.01884867950678393 0.0)
(0.018987147001419274 -0.10189002256673317 0.0)
(0.035554847835100226 0.021825660721264795 0.0)
(0.004160910801797099 -0.08930491614798763 0.0)
(0.019026014786119667 0.01984504458824306 0.0)
(-0.03550969263932045 -0.09636077829299396 0.0)
(0.015039350274655286 0.014429898784536961 0.0)
(0.028598588396344944 -0.07541187226980088 0.0)
(-0.0019999107717639255 -0.0005588664140672486 0.0)
(0.012529761268874704 -0.06972971915423255 0.0)
(-0.02516073663819009 0.01243920257950406 0.0)
(-0.005187724103184592 -0.06585647300206425 0.0)
(-0.004009885071627638 0.019895463571270453 0.0)
(-0.00434048523200521 -0.07327953570306026 0.0)
(-0.016927235862415683 0.008604827140197493 0.0)
(-0.032915323703341166 -0.07319776637400392 0.0)
(-0.00236101167507414 0.00133079169760828 0.0)
(-0.0418435774093229 -0.04675515515226877 0.0)
(-0.0098481236423763 -0.0026182080143464367 0.0)
(-0.01567324102221131 -0.06682157725913156 0.0)
(-0.011068617730925795 -0.00788209069114419 0.0)
(0.012750317727546144 -0.060212610258784646 0.0)
(-0.008384775599002822 0.001380252867084138 0.0)
(-0.01803320344324755 -0.05185768202866305 0.0)
(-0.006187850312896415 0.002259271022024325 0.0)
(0.010294403028961915 -0.03857353688034229 0.0)
(-0.023264208566283015 0.012243262119819564 0.0)
(-0.04086002643673351 -0.04199437115806079 0.0)
(-0.04138514075134137 0.007562520363430697 0.0)
(0.00016084904743380937 -0.050296564898589795 0.0)
(-0.04543080176781008 -0.0067555012233901195 0.0)
(-0.010037159009069601 -0.03962033693499662 0.0)
(0.020269500588934695 0.004038051000856211 0.0)
(-0.026639212673717327 -0.01594140900868578 0.0)
(0.022769061006177163 0.00018242379351893185 0.0)
(0.025171477976040954 0.0001883094754755962 0.0)
(-0.016089144367023956 -0.003551873267177899 0.0)
(0.029904096276615697 -0.0021550365869784168 0.0)
(-0.005328697200443156 -0.02422738275133535 0.0)
(0.0008179190828423037 0.03316204681198752 0.0)
(0.024052393253495296 -0.03187990937886524 0.0)
(-0.0012912074586150515 0.03867859520512989 0.0)
(-0.027854390682185197 -0.024634798623941086 0.0)
(0.01292056619951767 -0.021041276177235998 0.0)
(0.06369769319722383 0.026605292505417332 0.0)
(-0.0362405876361575 -0.03036237793422053 0.0)
(0.013913755416523984 0.05973942662299905 0.0)
(0.034748330211776424 -0.030609059487135708 0.0)
(0.03499390969367975 0.03510509402886774 0.0)
(-0.02376780117174722 -0.0095499567937311 0.0)
(-0.213587051095711 0.00489417207076395 0.0)
(0.052237426035598444 -0.006303730294564403 0.0)
(0.16253872800921598 0.0305576967688957 0.0)
(0.1297078418457203 -0.005275930753301803 0.0)
(0.278091224903655 0.049764384774645856 0.0)
(0.00701063465797399 -0.09434162405047411 0.0)
(0.20641506617066235 0.06899348121935708 0.0)
(-0.07448441713666128 -0.12528089589782251 0.0)
(-0.05364034236353794 0.05644992645839993 0.0)
(-0.10257796730638194 -0.2227260358971064 0.0)
(-0.19713736713889232 0.019978486000249634 0.0)
(-0.1656865671510866 -0.29814897062049456 0.0)
(0.0032684730244039654 -0.08342826943546605 0.0)
(-0.17491681176570395 -0.24027634466565898 0.0)
(-0.15927668116738597 -0.0955947401775035 0.0)
(-0.04922035124922997 -0.1311640960936345 0.0)
(0.0674864656754672 0.008911183439129652 0.0)
(-0.09702661885892548 -0.12136650394799561 0.0)
(-0.02041024402796874 0.17214294802898022 0.0)
(-0.21894575178621617 -0.31061463959210267 0.0)
(0.30487922330192513 0.16113742233809777 0.0)
(-0.14133641629184937 -0.47087365763786 0.0)
(-0.08395505992775917 0.07666534899020415 0.0)
(-0.028173507351265073 -0.5506279329959781 0.0)
(-0.18486831088957276 0.09148461379984664 0.0)
(0.00559591869490928 -0.24573329469877678 0.0)
(-0.02645666168713049 -0.06738020330193481 0.0)
(0.010032391084964013 -0.07821252239711016 0.0)
(-0.36472140899376143 -0.022473573696531596 0.0)
(-0.03318689801926083 -0.07257929705705801 0.0)
(-0.21015205651360655 -0.06591372128863611 0.0)
(0.01142432365163481 -0.15793087492627828 0.0)
(0.026573294065975302 0.014643947006923622 0.0)
(-0.1451299852097875 -0.22534279216789516 0.0)
(0.17169712926132075 0.16855812655787294 0.0)
(0.12067232635399278 -0.4359790500132836 0.0)
(0.14999275599231585 0.1905430688951668 0.0)
(0.2745615745121901 -0.4344753186550737 0.0)
(0.13647362561522874 0.24118493440182687 0.0)
(0.07384402540652188 -0.3853282007274975 0.0)
(0.06556108048372855 0.20086939984628022 0.0)
(0.2141450924043707 -0.579565730209645 0.0)
(-0.0662496268838628 0.07128760895667026 0.0)
(0.13983375170204254 -0.48774710888018585 0.0)
(-0.09472554108660874 -0.073119694242389 0.0)
(-0.02565850990931712 -0.4182164072379584 0.0)
(-0.004084559083461221 -0.19246074593401324 0.0)
(-0.3509667327948907 -0.250985631911835 0.0)
(-0.059606754451706 -0.19611956073365952 0.0)
(0.17677791339448692 -0.26292618599879947 0.0)
(0.2798496236891781 -0.15188336364261168 0.0)
(0.2563045266791444 -0.23558892518541524 0.0)
(0.24627015600429383 -0.06280191781791328 0.0)
(0.03692796878189972 -0.12364142986075341 0.0)
(-0.05244916663038404 -0.026697231942984435 0.0)
(0.20378396871732266 -0.02895796316695871 0.0)
(0.01644787785696917 -0.08437784572226023 0.0)
(0.2378353412102177 -0.06576414617074888 0.0)
(-0.012071144879876122 -0.10764346486152479 0.0)
(0.12952246604267462 -0.05447714103783004 0.0)
(-0.04721216670489369 -0.13461822949082913 0.0)
(-0.11409757049685022 -0.07669572594229992 0.0)
(-0.07764443693599576 -0.11422579454602841 0.0)
(-0.10351520013257441 -0.09197857268097125 0.0)
(0.022178408707931717 -0.08876260540945015 0.0)
(-0.056470474486058055 -0.09964474705267296 0.0)
(0.028191854555678963 -0.12197502658627496 0.0)
(-0.08159606686990122 -0.07704822842160224 0.0)
(0.06456886452415671 -0.09809034594146691 0.0)
(-0.09785753949174777 -0.02587516614114028 0.0)
(-0.07437221906363642 -0.13514684036529204 0.0)
(0.03138561656664341 -0.07574279905197265 0.0)
(-0.07787065301109941 -0.16349228394429793 0.0)
(-0.02883037512378672 -0.06940008830529806 0.0)
(-0.044936103105908703 -0.10598312635406842 0.0)
(-0.10199708918224135 -0.0647069994526823 0.0)
(-0.056887738893604795 -0.09430210686397505 0.0)
(-0.052445144653257426 -0.052368579830279455 0.0)
(-0.04671785572160123 -0.09654017016715284 0.0)
(-0.016378178469610406 -0.06398022614334109 0.0)
(-0.05373355777565521 -0.07440621811061902 0.0)
(0.0007492512305282111 -0.08245832140189673 0.0)
(-0.017572170814157295 -0.06866314023836734 0.0)
(0.01685705147577196 -0.08037518785085915 0.0)
(-0.010893149585308856 -0.07262302787856292 0.0)
(0.013301849112017266 -0.09401682399140303 0.0)
(0.005121402843134496 -0.04855757330985756 0.0)
(-0.0008550690267109644 -0.06965819195555432 0.0)
(-0.029243738607668074 -0.050269146146276006 0.0)
(-0.00260567389632288 -0.06190420988533823 0.0)
(-0.01978579378118265 -0.04865462547849603 0.0)
(0.0036958355418317806 -0.04698124193279295 0.0)
(0.029421465518495983 -0.03785288710933423 0.0)
(0.030589401213698776 -0.056160803830239595 0.0)
(-0.02266468727162671 -0.042988864694750564 0.0)
(0.021486703724073783 -0.056487324107187875 0.0)
(-0.028919587622010738 -0.06243817168997284 0.0)
(-0.00043420113152650133 -0.06315950010338058 0.0)
(-0.009250335046364211 -0.06290732116653669 0.0)
(-0.023138116158411094 -0.06893142141782264 0.0)
(-0.005666951099877139 -0.043666157649336346 0.0)
(0.012656774798882765 -0.05417608163306067 0.0)
(-0.03715819866593225 -0.04957280985764628 0.0)
(0.009583960221549597 -0.04390778276312077 0.0)
(-0.01207673106779325 -0.039378959070203154 0.0)
(-0.0046574406080691294 -0.037764675391661034 0.0)
(0.018557754554483618 -0.057071180280568574 0.0)
(0.01289484011834735 -0.04658039166954273 0.0)
(-0.0342015357753676 -0.03367365410175291 0.0)
(0.008045011712214745 -0.02217566838514621 0.0)
(-0.05068268508240832 -0.022962183174913664 0.0)
(-0.0070300346009533055 0.0068916657048975274 0.0)
(-0.0034661134433003446 -0.022153690498416777 0.0)
(0.04250336995208185 0.01943296348936425 0.0)
(0.016902337633062835 -0.011464939580292637 0.0)
(0.027248688104891994 0.001326179435993547 0.0)
(-0.04940360970306833 0.005362832004786077 0.0)
(-0.008035685825917028 -0.00010384027714989968 0.0)
(-0.004197463180808368 -0.005373675881379319 0.0)
(-0.0162717630763723 -0.00953069804204061 0.0)
(0.05099277268372458 -0.03041221597646673 0.0)
(-0.0822702103629704 -0.03783777569981411 0.0)
(-0.06098090267490315 -0.03258324966837074 0.0)
(-0.07962340885654298 -0.03817609896718723 0.0)
(-0.02316336994172864 -0.04070614175585183 0.0)
(0.047823129887335655 -0.0634738445821006 0.0)
(0.02938152465010757 -0.019262238400711198 0.0)
(0.12117491374636816 -0.028306961380328614 0.0)
(0.15264193772000387 -0.006384624580095019 0.0)
(-0.3703084308693538 0.004531155177103351 0.0)
(0.17670661258271764 -0.024123293868591536 0.0)
(0.0318553767005352 -0.0421775344913769 0.0)
(0.2160073722875924 -0.05207962128707185 0.0)
(0.028012959254644698 -0.0791310805490605 0.0)
(0.17042776648157135 -0.11041107578674969 0.0)
(-0.05072468951535271 -0.1174431885870115 0.0)
(0.24235992158003786 -0.10759735848819758 0.0)
(-0.08491049876198277 -0.10931460125019753 0.0)
(0.1019017249407418 -0.10639390760658146 0.0)
(0.12801444203991164 -0.17722888392310585 0.0)
(-0.06580772171891891 -0.09946350100715194 0.0)
(-0.05425688419560082 -0.11656219989588354 0.0)
(0.03739842596262922 -0.09670425199036876 0.0)
(-0.2082252526666982 -0.24779454887824856 0.0)
(0.3174507318806554 -0.21266938229518534 0.0)
(-0.3001350822139706 -0.17404745482973674 0.0)
(0.24934287820817547 -0.27025378375041875 0.0)
(-0.04645485405040706 -0.23724688478788428 0.0)
(0.09837610275554409 -0.16641214430094334 0.0)
(-0.04718577553565162 -0.22385995594640404 0.0)
(-0.09108452897612039 -0.25027082369599346 0.0)
(-0.020253606752501645 -0.2669511916422911 0.0)
(-0.1484446996586402 -0.3110811944209114 0.0)
(0.12200687833650498 -0.26843161886377526 0.0)
(0.1449365369480001 -0.22590292260733388 0.0)
(-0.12122221343393658 -0.14128245633150366 0.0)
(0.10412520006682495 -0.26283655533437256 0.0)
(0.00612400765072967 0.007499185362301617 0.0)
(-0.024224715655590204 -0.29900612611780675 0.0)
(-0.28417923552227137 0.09172559656849229 0.0)
(-0.20786160417157495 -0.25253153270967815 0.0)
(-0.0204211082625661 0.09435300464615368 0.0)
(-0.06358613098369152 -0.2965889630488553 0.0)
(0.17918196203484843 -0.05432577401630125 0.0)
(0.0828162732430568 -0.3144012560013948 0.0)
(0.03844532445343555 -0.13107804307928214 0.0)
(-0.09104815153599831 -0.3096858694634545 0.0)
(-0.12825216125595595 -0.17450039746034313 0.0)
(0.40077166247781704 -0.24728066662844939 0.0)
(0.2351969677506481 -0.23521597339823436 0.0)
(-0.12029114980568793 -0.13351704242388548 0.0)
(0.3255748064812831 -0.2940399602643671 0.0)
(-0.38107581416477015 -0.08550179357808597 0.0)
(0.3710666438731571 -0.25607603881713714 0.0)
(-0.6067785753543565 -0.3048954830329949 0.0)
(0.2846374467992664 -0.14807266709533978 0.0)
(-0.2778322837281281 -0.4108798359061525 0.0)
(0.17795591077711248 -0.3586113128543549 0.0)
(0.07374711410977261 -0.19120387053493237 0.0)
(-0.05379056496345431 -0.19542879229710194 0.0)
(-0.243699794790095 -0.13178354515076934 0.0)
(-0.019235200746794592 -0.09040482634923336 0.0)
(-0.27831452141547747 -0.08600489265662072 0.0)
(0.047211725914287204 -0.19615313084684283 0.0)
(0.05278476998184771 -0.06086664719729248 0.0)
(0.0405971878890342 -0.19180702546611558 0.0)
(-0.011813561057396204 -0.016413131635900337 0.0)
(0.05319994550419646 -0.21383060657545208 0.0)
(0.18851923052477582 -0.020047683470814127 0.0)
(0.03924407393897354 -0.19256367194273918 0.0)
(0.07650247026097333 -0.06889042076629019 0.0)
(-0.009658522946627095 -0.1963417122278686 0.0)
(-0.0397771804386216 -0.05415613532540378 0.0)
(-0.1031914796109154 -0.1872766923904905 0.0)
(0.07650123502787753 -0.0028922410256317717 0.0)
(-0.008714648659235363 -0.14942314827020203 0.0)
(0.017236836404052828 -0.015223642809061785 0.0)
(0.09311555566958515 -0.13004692710383384 0.0)
(0.029830948131216513 -0.01743455220538986 0.0)
(-0.010526313967282132 -0.1500449958218267 0.0)
(0.018522404723474755 -0.012033392011281636 0.0)
(-0.0941459617076868 -0.12668644371738705 0.0)
(0.04042717486700072 -0.027723309494761237 0.0)
(-0.03964630160222074 -0.11375002100198386 0.0)
(-0.04827854561657146 -0.03302428113550128 0.0)
(-0.03432506732906346 -0.09658487971182998 0.0)
(0.011241152056305026 0.002574194626321964 0.0)
(-0.015205425091564818 -0.093653336448855 0.0)
(0.06409984525153238 0.00673621005568923 0.0)
(-0.004711007041027549 -0.11527309375814389 0.0)
(0.01580798603367459 -0.020733826999667877 0.0)
(-0.029392450527668944 -0.10153477084123948 0.0)
(0.03611297625931594 -0.0005099820472622944 0.0)
(-0.008577772525968858 -0.06991192214746889 0.0)
(-0.03962917281429943 0.02356458796162308 0.0)
(0.015173802308276673 -0.07110117917285058 0.0)
(-0.037139103188654585 0.028545249157413216 0.0)
(-0.007681838764121691 -0.07814658385022094 0.0)
(-0.027062914926188612 0.019927264247354675 0.0)
(-0.021027031627956667 -0.08315200278924498 0.0)
(-0.0027466308281782173 0.006782121273760524 0.0)
(-0.024981255561838243 -0.05918511431525947 0.0)
(-0.0018566025175563666 0.005705116808922183 0.0)
(-0.011798250217227246 -0.06385850812686307 0.0)
(0.00045906678544208187 0.0003936361641834094 0.0)
(-0.014948498000322477 -0.06092150802580317 0.0)
(-0.0021521424826280665 -0.0029563735459208988 0.0)
(-0.016973469015750683 -0.051297725438532275 0.0)
(-0.031178853134650953 0.001486930152947999 0.0)
(-0.008908595648626309 -0.04168825873792916 0.0)
(-0.022050338335187224 0.010995137526029916 0.0)
(-0.005453077451004195 -0.03786461393643182 0.0)
(-0.032754092755833956 0.027715229722518935 0.0)
(-0.013529048775115859 -0.043946826699261476 0.0)
(-0.027766605136334367 0.030585162035958773 0.0)
(-0.035983694801908946 -0.030480530556705084 0.0)
(-0.08313126566055298 0.03536462608776841 0.0)
(-0.02658426008493636 -0.023338424162336096 0.0)
(-0.02463377352524611 0.023736712862837222 0.0)
(-0.02788817372943666 -0.03709700849565435 0.0)
(0.00339523984944546 0.005650682270106391 0.0)
(0.00865947481373073 -0.00966313053074775 0.0)