/*--------------------------------*- C++ -*----------------------------------*\
  =========                 |
  \\      /  F ield         | OpenFOAM: The Open Source CFD Toolbox
   \\    /   O peration     | Website:  https://openfoam.org
    \\  /    A nd           | Version:  10
     \\/     M anipulation  |
\*---------------------------------------------------------------------------*/
FoamFile
{
    format      ascii;
    class       volScalarField;
    location    "0.698552";
    object      rho;
}
// * * * * * * * * * * * * * * * * * * * * * * * * * * * * * * * * * * * * * //

dimensions      [1 -3 0 0 0 0 0];

internalField   nonuniform List<scalar> 
15984
(
0.996253
0.995757
0.995437
0.995333
0.99533
0.995509
0.995644
0.996178
0.996437
0.997175
0.997665
0.998356
0.999037
0.99977
1.00054
1.00135
1.00215
1.00298
1.0038
1.00462
1.00542
1.00623
1.00701
1.00777
1.00847
1.00916
1.00982
1.01045
1.01106
1.01163
1.01217
1.01268
1.01316
1.01359
1.014
1.01434
1.01472
1.01501
1.01529
1.01557
1.01582
1.01604
1.01625
1.01644
1.01661
1.01674
1.01691
1.01701
1.01717
1.01724
1.01736
1.01744
1.01748
1.01753
0.996375
0.995861
0.995602
0.995517
0.99551
0.995587
0.995882
0.996103
0.996671
0.997098
0.997618
0.998271
0.998969
0.999749
1.00059
1.00144
1.00233
1.0032
1.00411
1.00499
1.00588
1.00675
1.0076
1.0084
1.0092
1.00995
1.01067
1.01136
1.012
1.01262
1.01319
1.01373
1.01419
1.01462
1.015
1.01531
1.01564
1.01586
1.01607
1.01625
1.01638
1.01647
1.01652
1.01653
1.01654
1.01651
1.01649
1.01637
1.01635
1.01611
1.01608
1.01577
1.01562
1.01532
0.996652
0.996128
0.995751
0.995587
0.995617
0.995662
0.99591
0.996107
0.996455
0.996993
0.9975
0.998217
0.998956
0.999793
1.00067
1.00158
1.00252
1.00347
1.00441
1.00537
1.00633
1.00728
1.00819
1.00911
1.00996
1.01078
1.01156
1.0123
1.013
1.01366
1.01424
1.01479
1.01527
1.01571
1.01606
1.01635
1.01662
1.01679
1.01694
1.01701
1.01704
1.01703
1.01693
1.01682
1.01662
1.01645
1.0161
1.01596
1.01544
1.01525
1.01461
1.01441
1.01372
1.01323
0.996763
0.996446
0.995983
0.99563
0.995489
0.995501
0.995612
0.995928
0.996368
0.996879
0.997502
0.998179
0.998957
0.999772
1.00071
1.00163
1.00268
1.00365
1.0047
1.00573
1.00678
1.00779
1.00883
1.00977
1.01072
1.01161
1.01246
1.01326
1.014
1.0147
1.01532
1.0159
1.01638
1.01682
1.01716
1.01743
1.01765
1.01779
1.01788
1.01784
1.01779
1.01768
1.01738
1.01718
1.01685
1.01636
1.01602
1.0154
1.01494
1.01416
1.01368
1.01279
1.01212
1.01135
0.997175
0.996443
0.995992
0.995592
0.995447
0.995419
0.995531
0.995759
0.99617
0.996664
0.997265
0.998006
0.998801
0.999715
1.00067
1.00171
1.00276
1.00386
1.00495
1.00608
1.00719
1.00831
1.00941
1.01047
1.01146
1.01244
1.01334
1.01419
1.015
1.01573
1.01639
1.017
1.01752
1.01794
1.0183
1.01854
1.01874
1.01884
1.01887
1.01873
1.01861
1.01841
1.01793
1.01773
1.01693
1.0166
1.01588
1.01514
1.01434
1.01349
1.01252
1.01153
1.01056
1.00948
0.996999
0.996338
0.995832
0.995515
0.995327
0.995288
0.995379
0.995634
0.996002
0.996501
0.997133
0.997859
0.9987
0.99964
1.00065
1.00172
1.00285
1.004
1.00521
1.00639
1.00761
1.00881
1.00998
1.01112
1.01221
1.01326
1.01423
1.01514
1.016
1.01678
1.01749
1.01811
1.01866
1.0191
1.01947
1.0197
1.01987
1.01994
1.01992
1.01969
1.01952
1.01915
1.01871
1.01817
1.01747
1.01684
1.01584
1.01501
1.01392
1.0128
1.01163
1.01038
1.00904
1.00768
0.996957
0.996253
0.995731
0.995382
0.995165
0.995101
0.995158
0.995404
0.995721
0.996237
0.996865
0.997615
0.998509
0.999475
1.00055
1.0017
1.00289
1.00415
1.0054
1.00669
1.00798
1.00927
1.01054
1.01174
1.01293
1.01403
1.01509
1.01607
1.017
1.01784
1.01861
1.01928
1.01986
1.02031
1.02069
1.02091
1.02106
1.0211
1.02105
1.02076
1.02059
1.01993
1.01954
1.0188
1.01798
1.0172
1.016
1.01505
1.01356
1.01238
1.01082
1.00928
1.00768
1.00596
0.996842
0.996103
0.995603
0.995189
0.994991
0.994844
0.994863
0.995062
0.995355
0.995916
0.996526
0.997374
0.998277
0.999328
1.00045
1.00165
1.00293
1.00425
1.00559
1.00696
1.00834
1.00971
1.01105
1.01237
1.01363
1.01483
1.01597
1.01702
1.01801
1.01892
1.01973
1.02045
1.02105
1.02154
1.02191
1.02215
1.02229
1.02231
1.02221
1.02192
1.02156
1.02119
1.02024
1.01979
1.01835
1.01788
1.01594
1.01544
1.01309
1.01249
1.00979
1.00863
1.00648
1.00441
0.996617
0.995847
0.995226
0.994799
0.994534
0.994401
0.994458
0.994675
0.995047
0.995636
0.996291
0.997206
0.998108
0.999214
1.00035
1.00161
1.00294
1.00433
1.00576
1.00721
1.00869
1.01014
1.01158
1.01299
1.01433
1.01563
1.01684
1.01798
1.01904
1.02
1.02086
1.02162
1.02226
1.02279
1.02318
1.02345
1.02358
1.0236
1.02343
1.02327
1.02261
1.02227
1.02117
1.02071
1.01912
1.01859
1.01649
1.01574
1.01323
1.01219
1.00929
1.00805
1.00461
1.00317
0.996275
0.995434
0.994988
0.994501
0.994148
0.993998
0.994004
0.994178
0.994582
0.995155
0.995942
0.996791
0.99779
0.998903
1.00013
1.00149
1.0029
1.00437
1.00588
1.00742
1.00896
1.01051
1.01205
1.01356
1.01501
1.01639
1.01771
1.0189
1.02004
1.02107
1.02199
1.02281
1.02351
1.02407
1.0245
1.02478
1.02493
1.02494
1.02477
1.02454
1.02382
1.02348
1.02223
1.02179
1.02006
1.01932
1.01699
1.01617
1.01332
1.01221
1.00889
1.0076
1.0035
1.00257
0.995788
0.994972
0.994255
0.993879
0.99354
0.993476
0.993509
0.993744
0.994167
0.994736
0.995493
0.996316
0.997402
0.998597
1.00002
1.00149
1.00294
1.00446
1.00597
1.00757
1.00922
1.0109
1.01254
1.01415
1.01569
1.01716
1.01856
1.01983
1.02105
1.02215
1.02314
1.02402
1.02477
1.02538
1.02584
1.02616
1.02631
1.02633
1.0262
1.02572
1.02533
1.02466
1.0237
1.02266
1.02135
1.01994
1.01806
1.01647
1.01378
1.01223
1.00848
1.00702
1.00274
1.00157
0.99542
0.994213
0.99394
0.993213
0.993026
0.99286
0.99291
0.993143
0.993565
0.994159
0.994893
0.995912
0.996979
0.998409
0.999618
1.00109
1.00257
1.00422
1.00584
1.00765
1.00948
1.01133
1.0131
1.01479
1.01637
1.0179
1.01933
1.02071
1.02199
1.02318
1.02426
1.02522
1.02603
1.0267
1.02721
1.02757
1.02775
1.02778
1.02762
1.02731
1.02676
1.02608
1.02478
1.02432
1.02211
1.02137
1.01856
1.01774
1.01423
1.01266
1.0084
1.00703
1.00226
1.00311
0.994604
0.993725
0.993053
0.992596
0.9923
0.992248
0.992323
0.992546
0.992958
0.993583
0.99442
0.995399
0.996549
0.997797
0.999288
1.00061
1.00274
1.00382
1.00638
1.00738
1.00977
1.01149
1.01341
1.01528
1.017
1.01863
1.02014
1.0216
1.02296
1.02425
1.02541
1.02644
1.02735
1.02809
1.02867
1.02905
1.02928
1.02932
1.02921
1.02876
1.02844
1.02734
1.02684
1.02494
1.02431
1.02162
1.02077
1.01731
1.01582
1.01173
1.01114
1.00549
1.007
1.00815
0.9936
0.99293
0.992219
0.991921
0.991542
0.99155
0.991607
0.991892
0.992421
0.993046
0.993906
0.994909
0.996057
0.997398
0.998853
1.00042
1.00209
1.00398
1.00586
1.00789
1.00981
1.01174
1.01366
1.01554
1.01738
1.01918
1.02086
1.02248
1.02396
1.02535
1.02659
1.02769
1.02868
1.02949
1.03012
1.03055
1.03083
1.03087
1.03079
1.03038
1.02991
1.02924
1.02798
1.02718
1.02503
1.0238
1.02149
1.01876
1.01678
1.01286
1.01272
1.008
1.02435
1.015
0.992822
0.991985
0.991577
0.990997
0.99092
0.99081
0.9909
0.991178
0.991689
0.992361
0.993237
0.994303
0.9955
0.996896
0.998491
0.99991
1.00221
1.00329
1.00612
1.00736
1.01004
1.01186
1.01402
1.01605
1.01799
1.01983
1.02157
1.02324
1.02482
1.02633
1.02772
1.02894
1.03001
1.03089
1.03158
1.03207
1.0324
1.0325
1.03244
1.03224
1.03162
1.03084
1.03
1.02863
1.02725
1.02496
1.02277
1.02027
1.01819
1.01404
1.01992
1.01437
1.06461
1.04962
0.991413
0.990969
0.990313
0.990145
0.989875
0.989951
0.990095
0.990436
0.990948
0.991669
0.992552
0.99365
0.994876
0.996409
0.997721
0.999968
1.00113
1.00393
1.00499
1.00793
1.00967
1.01193
1.01418
1.01636
1.01842
1.02038
1.02225
1.02405
1.02572
1.02732
1.0288
1.03012
1.0313
1.03228
1.03307
1.03365
1.03409
1.03426
1.03429
1.03397
1.03365
1.03264
1.03218
1.03005
1.02921
1.02631
1.02533
1.02104
1.02118
1.01577
1.04112
1.03575
1.18542
1.50196
0.990265
0.989519
0.989354
0.988947
0.988897
0.988914
0.989146
0.98955
0.990161
0.990876
0.991811
0.992896
0.994188
0.995679
0.997282
0.999063
1.00101
1.00299
1.00512
1.00733
1.00962
1.01199
1.01432
1.01656
1.01877
1.02083
1.02285
1.02474
1.02656
1.02832
1.02994
1.0314
1.03269
1.03377
1.03464
1.03527
1.03576
1.03599
1.0361
1.03586
1.03552
1.03497
1.03348
1.033
1.0305
1.02977
1.02572
1.02359
1.02838
1.02455
1.10174
1.26387
1.55302
1.76404
0.988813
0.988407
0.987921
0.987876
0.987789
0.98792
0.988175
0.988601
0.989162
0.989918
0.990857
0.992081
0.993394
0.994821
0.996882
0.998091
1.00086
1.00214
1.0052
1.00662
1.0098
1.01176
1.0143
1.01673
1.01909
1.02135
1.02351
1.02555
1.0275
1.02938
1.03112
1.03264
1.03398
1.03512
1.03611
1.03687
1.03752
1.03781
1.03801
1.03788
1.03762
1.03673
1.03636
1.03446
1.03379
1.03042
1.02885
1.02682
1.05012
1.08824
1.3379
1.69593
1.89526
1.95957
0.988686
0.987604
0.987028
0.986754
0.986692
0.98681
0.987118
0.987591
0.988198
0.989007
0.989937
0.99111
0.992545
0.994031
0.995807
0.99791
0.999436
1.00233
1.00388
1.00714
1.00873
1.01203
1.01421
1.01674
1.01924
1.02167
1.02401
1.02621
1.02828
1.03023
1.03211
1.03382
1.03533
1.03659
1.03766
1.03854
1.03927
1.03972
1.04007
1.04003
1.03987
1.03951
1.03843
1.03768
1.03517
1.03351
1.03165
1.05598
1.09557
1.42928
1.75154
1.91812
1.96796
1.97567
0.992577
0.989261
0.987237
0.986256
0.985808
0.985838
0.98601
0.986457
0.987122
0.987945
0.989019
0.990189
0.991542
0.993359
0.994598
0.997379
0.998418
1.00162
1.00316
1.00662
1.00839
1.01134
1.01414
1.01677
1.01935
1.02187
1.02435
1.02677
1.02904
1.03118
1.0332
1.03505
1.03671
1.03814
1.03933
1.0403
1.04111
1.04167
1.04216
1.04229
1.04216
1.04173
1.04112
1.03969
1.03779
1.03686
1.04981
1.11224
1.44357
1.78486
1.95753
2.00003
1.99859
1.9864
1.00947
0.998514
0.991885
0.988191
0.986256
0.985372
0.985272
0.98546
0.985985
0.986808
0.987866
0.989008
0.990501
0.991931
0.994198
0.995492
0.998546
1.00001
1.0033
1.00495
1.00876
1.01062
1.01356
1.01646
1.01929
1.02205
1.02467
1.02719
1.02964
1.03194
1.03412
1.03618
1.03807
1.03968
1.04099
1.04208
1.04297
1.04367
1.0443
1.04458
1.04458
1.0443
1.04381
1.04212
1.04101
1.04821
1.10817
1.41644
1.82
1.98828
2.02022
2.01558
2.00333
1.98412
1.05816
1.02624
1.00734
0.996298
0.990185
0.986901
0.985381
0.984917
0.985122
0.985682
0.986591
0.987715
0.9891
0.990896
0.99234
0.994991
0.99649
0.999659
1.00135
1.00515
1.0068
1.01079
1.01306
1.016
1.01903
1.022
1.02481
1.02752
1.03009
1.03251
1.03473
1.03684
1.03892
1.04088
1.04251
1.04385
1.04486
1.04569
1.04647
1.04691
1.04706
1.04713
1.04611
1.04502
1.04836
1.08989
1.35774
1.82791
2.00683
2.03811
2.03336
2.0208
2.00246
1.98
1.18741
1.10137
1.04899
1.01873
1.00189
0.992738
0.987952
0.985642
0.984839
0.98492
0.985482
0.98645
0.987769
0.989271
0.991437
0.993042
0.996077
0.997489
1.00107
1.00296
1.00659
1.0094
1.01202
1.01619
1.01884
1.02204
1.02507
1.02799
1.03075
1.03335
1.03562
1.0378
1.03996
1.04199
1.04379
1.04538
1.04659
1.04769
1.04862
1.04928
1.04969
1.04968
1.04859
1.04908
1.07457
1.25748
1.80952
2.02245
2.05571
2.05089
2.03838
2.02146
1.99983
1.97199
1.38088
1.2326
1.12927
1.06443
1.02677
1.00594
0.994692
0.988757
0.985966
0.984847
0.984802
0.985392
0.986442
0.987784
0.989793
0.99148
0.99404
0.996465
0.998987
1.00256
1.00504
1.00975
1.01279
1.01588
1.02058
1.02356
1.02656
1.0295
1.03205
1.03451
1.03685
1.03872
1.04064
1.04278
1.04489
1.0468
1.0483
1.04976
1.05084
1.05171
1.0523
1.05188
1.05139
1.06294
1.18768
1.74949
2.03182
2.07204
2.06779
2.0557
2.04119
2.02104
1.99406
1.95585
1.51268
1.41069
1.25337
1.14401
1.07492
1.03381
1.0104
0.997207
0.989995
0.986555
0.985067
0.985023
0.985577
0.986578
0.988217
0.990085
0.992822
0.9954
0.999112
1.00277
1.00725
1.01108
1.01786
1.02309
1.02743
1.03214
1.03566
1.03689
1.03638
1.03733
1.03893
1.04044
1.0421
1.04407
1.04621
1.04821
1.05004
1.05172
1.05303
1.05412
1.0545
1.0538
1.05652
1.12596
1.6596
2.03812
2.08788
2.08338
2.07225
2.06042
2.04188
2.01686
1.98085
1.92746
1.56871
1.49936
1.34836
1.2115
1.11982
1.06228
1.02742
1.00745
0.995888
0.98969
0.986417
0.985264
0.98484
0.986146
0.987355
0.991165
0.993801
0.99987
1.00194
1.00997
1.02284
1.03615
1.05658
1.07007
1.07775
1.07848
1.08623
1.06753
1.05965
1.04943
1.04381
1.04265
1.04347
1.04509
1.04731
1.04956
1.05177
1.05367
1.05529
1.05622
1.05635
1.05612
1.08779
1.4503
2.02538
2.10179
2.09735
2.08779
2.07841
2.06243
2.04047
2.00851
1.9595
1.8869
1.56199
1.47965
1.32131
1.19286
1.10758
1.05428
1.02241
1.00398
0.99314
0.987672
0.985042
0.984993
0.985663
0.987901
0.992695
0.993458
1.00653
1.03172
1.06522
1.10909
1.15937
1.21762
1.28109
1.30867
1.31253
1.31982
1.27746
1.23384
1.12255
1.07647
1.05518
1.04707
1.0452
1.0462
1.04835
1.05083
1.05337
1.0556
1.05725
1.05804
1.05735
1.06692
1.30992
2.01184
2.10882
2.10882
2.10158
2.0944
2.08171
2.06306
2.03652
1.99441
1.92976
1.8339
1.50042
1.37125
1.23119
1.13066
1.06734
1.02739
1.00425
0.991974
0.987435
0.98571
0.986492
0.987245
0.998587
1.01036
1.07502
1.14332
1.23128
1.334
1.42909
1.51137
1.57326
1.61941
1.6517
1.66258
1.6637
1.63729
1.60845
1.50996
1.34553
1.15609
1.07936
1.05422
1.04748
1.04714
1.04926
1.0522
1.055
1.05732
1.05864
1.05853
1.06296
1.30114
1.95377
2.1087
2.11738
2.11318
2.10774
2.09883
2.08422
2.0631
2.02976
1.97638
1.89301
1.77075
1.25213
1.14012
1.06985
1.02549
1.00052
0.990852
0.988425
0.989831
0.994463
1.01364
1.06889
1.1965
1.32848
1.45479
1.57066
1.66039
1.71455
1.7575
1.79227
1.81768
1.83468
1.84674
1.85524
1.85718
1.85578
1.83062
1.80966
1.72319
1.57497
1.30484
1.13909
1.07001
1.05021
1.04793
1.05024
1.05338
1.05629
1.05833
1.0601
1.07894
1.28227
1.89832
2.09856
2.12258
2.12163
2.11785
2.11261
2.10241
2.08648
2.06177
2.02157
1.95608
1.85337
1.70601
1.01891
1.00033
0.991375
0.990095
0.996114
1.01759
1.08299
1.2433
1.42346
1.5748
1.69904
1.78681
1.82696
1.84687
1.85765
1.86296
1.866
1.86446
1.85815
1.85992
1.8675
1.87533
1.88535
1.89376
1.90206
1.90161
1.89214
1.84292
1.69914
1.37486
1.14902
1.06954
1.04971
1.04805
1.05089
1.05422
1.05708
1.06037
1.08291
1.25544
1.83461
2.07945
2.12379
2.12699
2.1253
2.12238
2.11637
2.10553
2.08817
2.06024
2.01387
1.93692
1.81721
1.64975
1.04566
1.08709
1.15862
1.28392
1.43865
1.6467
1.78985
1.86474
1.89054
1.89467
1.89092
1.87718
1.85978
1.82442
1.79833
1.77759
1.76655
1.75957
1.76363
1.77502
1.79433
1.82219
1.85062
1.87318
1.89316
1.90428
1.90659
1.86521
1.69275
1.35505
1.13777
1.06281
1.04686
1.04789
1.05099
1.05475
1.05876
1.08335
1.22692
1.77183
2.05373
2.12069
2.12958
2.13001
2.1286
2.12583
2.11933
2.10813
2.08928
2.05832
2.00644
1.92119
1.79081
1.61254
1.70762
1.80169
1.86628
1.89421
1.90731
1.90934
1.89783
1.87532
1.83949
1.78687
1.71132
1.658
1.55568
1.48388
1.42847
1.38404
1.36494
1.37629
1.40597
1.4558
1.51886
1.62027
1.70021
1.76524
1.83616
1.88791
1.89988
1.85669
1.67331
1.29583
1.10089
1.04978
1.04488
1.04768
1.05216
1.05731
1.08941
1.19288
1.71073
2.0194
2.11285
2.12883
2.13199
2.13177
2.13091
2.12802
2.12146
2.1094
2.08943
2.05653
2.00197
1.91377
1.78079
1.59985
1.90095
1.89821
1.88873
1.86914
1.83449
1.78357
1.71497
1.62732
1.52219
1.38648
1.26448
1.15205
1.09446
1.06566
1.0623
1.06687
1.07905
1.09693
1.12601
1.1692
1.22424
1.30365
1.40462
1.56636
1.75574
1.85967
1.87557
1.78514
1.50298
1.17132
1.06184
1.0423
1.04378
1.04766
1.05413
1.0868
1.15043
1.68311
1.95852
2.1023
2.12505
2.13124
2.13274
2.13344
2.1327
2.12963
2.12316
2.11154
2.09177
2.0588
2.00377
1.91528
1.78383
1.60923
1.81561
1.77911
1.7296
1.66326
1.57748
1.46938
1.33085
1.19223
1.08204
1.02781
1.00672
1.00486
1.0089
1.02199
1.04835
1.06819
1.09243
1.09456
1.09045
1.10454
1.13924
1.21239
1.3494
1.56464
1.76739
1.8545
1.85309
1.72302
1.2762
1.08099
1.04233
1.04044
1.04556
1.05631
1.08496
1.11868
1.68587
1.89884
2.08132
2.11867
2.12758
2.13135
2.13335
2.13444
2.13328
2.13053
2.1249
2.11474
2.09788
2.06994
2.02288
1.94512
1.8247
1.65726
1.6024
1.53077
1.44199
1.33272
1.20674
1.09082
1.01974
0.991695
0.985323
0.987384
1.00289
1.04076
1.11432
1.20863
1.24458
1.23261
1.20638
1.12563
1.09194
1.10297
1.14284
1.2295
1.39403
1.63764
1.75724
1.78129
1.68657
1.35388
1.11111
1.04431
1.03655
1.04093
1.04764
1.06848
1.09063
1.69663
1.85222
2.05154
2.10861
2.12145
2.128
2.13012
2.13332
2.13415
2.13365
2.13171
2.12784
2.12096
2.1089
2.08904
2.05602
2.00019
1.90872
1.77009
1.32565
1.2297
1.12728
1.04507
0.994926
0.977596
0.974442
0.976429
0.989578
1.02158
1.07628
1.15269
1.25758
1.31698
1.32691
1.31484
1.26783
1.17883
1.14166
1.14837
1.2229
1.37874
1.58662
1.6853
1.75686
1.72845
1.38122
1.12172
1.04924
1.03507
1.03906
1.04282
1.07305
1.06879
1.68904
1.80907
2.03047
2.09264
2.11364
2.12168
2.12524
2.12898
2.13194
2.13303
2.13306
2.13141
2.12826
2.12298
2.11376
2.09896
2.0759
2.03948
1.98035
1.88578
1.08464
1.02348
0.988368
0.96844
0.967828
0.967603
0.96978
0.98064
1.00314
1.0442
1.11058
1.20435
1.29882
1.34032
1.3486
1.34874
1.33384
1.30966
1.30408
1.33492
1.43835
1.53235
1.60247
1.63361
1.53347
1.33477
1.12525
1.04558
1.02944
1.03322
1.0353
1.077
1.07092
1.71533
1.77807
2.00484
2.07477
2.1038
2.1135
2.11919
2.12241
2.12721
2.12976
2.13138
2.13167
2.13033
2.12722
2.12296
2.11591
2.10508
2.08965
2.0667
2.03322
1.98203
0.982469
0.969779
0.962582
0.964798
0.963134
0.963912
0.968586
0.978693
0.998759
1.03139
1.08616
1.17053
1.27129
1.32177
1.35236
1.35593
1.36584
1.37439
1.39988
1.42923
1.48606
1.51741
1.52417
1.45846
1.25948
1.05751
1.05589
1.02549
1.03578
1.04464
1.05811
1.07072
1.73683
1.70932
1.98591
2.05733
2.09338
2.1048
2.11161
2.11608
2.12043
2.12461
2.12734
2.12916
2.12936
2.12841
2.12567
2.12098
2.11514
2.10731
2.09641
2.08019
2.05951
2.03072
0.964369
0.961234
0.962421
0.958625
0.96004
0.961087
0.965244
0.973123
0.986078
1.00738
1.042
1.09576
1.16977
1.24823
1.3117
1.32888
1.35887
1.36366
1.38854
1.40298
1.41141
1.36885
1.25559
1.13309
1.07138
1.0266
1.03805
1.03636
1.0407
1.04125
1.23676
1.75099
1.70711
1.97276
2.03997
2.08257
2.09553
2.10364
2.10775
2.11279
2.11669
2.12134
2.12327
2.12566
2.12565
2.12515
2.12275
2.11894
2.11331
2.10579
2.09617
2.08421
2.06951
2.05219
0.962211
0.958991
0.956202
0.957582
0.958093
0.959674
0.961591
0.965339
0.971681
0.982233
0.999674
1.02655
1.06427
1.11142
1.16291
1.20726
1.2397
1.24885
1.2567
1.22298
1.17836
1.11367
1.07313
1.02558
1.03174
1.02563
1.03269
1.02604
1.02866
1.50982
1.5035
1.8444
1.901
2.03278
2.0683
2.08677
2.09502
2.0999
2.10461
2.10968
2.11338
2.11681
2.11992
2.12135
2.12212
2.12138
2.11892
2.11546
2.10933
2.10186
2.09254
2.08153
2.06898
2.05437
0.956362
0.955772
0.95633
0.956637
0.957976
0.958997
0.960373
0.962219
0.964963
0.969397
0.976202
0.986468
1.00033
1.01793
1.03723
1.05946
1.06371
1.07179
1.06854
1.05301
1.03973
1.01714
1.02292
1.01967
1.02672
1.03099
1.05953
1.15745
1.57326
1.58425
1.78302
1.9654
1.98975
2.06499
2.07722
2.08766
2.09202
2.09733
2.10171
2.10577
2.10996
2.11286
2.1156
2.11698
2.11711
2.11656
2.11436
2.11047
2.10578
2.09823
2.08961
2.07822
2.066
2.05202
0.956735
0.954524
0.95622
0.956907
0.958113
0.959372
0.96056
0.961927
0.963518
0.96566
0.968678
0.972926
0.978549
0.98565
0.99292
1.00121
1.00544
1.01137
1.01397
1.01276
1.01834
1.02287
1.03411
1.04509
1.06983
1.13474
1.24514
1.49551
1.7542
1.75705
1.96623
2.01577
2.05811
2.07014
2.0805
2.08629
2.08967
2.0948
2.09828
2.10236
2.10572
2.10812
2.11082
2.11197
2.1124
2.11171
2.10931
2.10602
2.10063
2.09391
2.08474
2.07425
2.06157
2.04824
0.956353
0.954404
0.956472
0.957037
0.958791
0.960022
0.961643
0.963229
0.965027
0.967112
0.96962
0.97259
0.976102
0.980246
0.984905
0.989923
0.99533
1.00107
1.00673
1.01289
1.02095
1.02929
1.04836
1.08645
1.19954
1.37566
1.69203
1.69388
1.89569
1.91629
2.0343
2.05125
2.06949
2.07518
2.08159
2.08474
2.08854
2.09256
2.09542
2.09936
2.10157
2.10486
2.10652
2.10754
2.1074
2.10603
2.10335
2.10006
2.09458
2.08837
2.07943
2.06942
2.05723
2.04424
0.954635
0.956501
0.956989
0.958454
0.96002
0.961622
0.96357
0.965692
0.967924
0.970578
0.973509
0.976974
0.980972
0.985703
0.991141
0.997482
1.00485
1.01371
1.02495
1.04088
1.06664
1.114
1.19655
1.39067
1.54138
1.75094
1.80147
1.90498
1.99701
2.00455
2.05973
2.06678
2.07417
2.07804
2.08235
2.08437
2.08831
2.09052
2.09344
2.09543
2.09785
2.09962
2.10055
2.10062
2.10009
2.09849
2.09605
2.09247
2.08734
2.0807
2.07233
2.06252
2.05124
2.03861
0.961326
0.957547
0.959588
0.960469
0.962161
0.96447
0.966742
0.969645
0.972922
0.976664
0.980959
0.985877
0.991708
0.998773
1.00732
1.01816
1.03241
1.05236
1.08368
1.13917
1.24691
1.39999
1.57269
1.70852
1.8436
1.87253
1.97551
2.00012
2.04073
2.05629
2.06937
2.07518
2.07884
2.08143
2.08383
2.08544
2.08796
2.08934
2.09116
2.09262
2.09374
2.09436
2.09434
2.09393
2.09278
2.09067
2.08801
2.08351
2.07833
2.07125
2.06342
2.05391
2.04339
2.03126
0.978251
0.960161
0.965784
0.964405
0.96697
0.969015
0.972436
0.976589
0.982159
0.988593
0.99633
1.00597
1.01798
1.03354
1.05473
1.08567
1.13477
1.21837
1.33643
1.47743
1.61093
1.72576
1.85505
1.86629
1.96527
1.97637
2.0357
2.04786
2.06458
2.07533
2.0792
2.08267
2.08438
2.08546
2.0869
2.08735
2.0884
2.08897
2.08947
2.08939
2.08945
2.08912
2.08825
2.08699
2.08462
2.08171
2.07776
2.07253
2.06703
2.06014
2.05269
2.04358
2.03322
2.02121
1.0055
0.991409
0.984224
0.974594
0.98036
0.981235
0.985818
0.99136
1.00162
1.01347
1.02902
1.05008
1.0793
1.12173
1.18569
1.27794
1.39563
1.52193
1.65042
1.7653
1.83912
1.92025
1.93252
2.00222
2.01238
2.05185
2.06037
2.07535
2.08046
2.08628
2.0885
2.08999
2.09035
2.09105
2.09082
2.09011
2.08994
2.08923
2.08824
2.08692
2.08573
2.08386
2.08137
2.07857
2.07481
2.07065
2.0658
2.06005
2.0542
2.04666
2.03897
2.0296
2.01948
2.00739
1.09151
1.03852
1.056
1.01944
1.02709
1.02409
1.02734
1.03463
1.05103
1.07537
1.10834
1.1551
1.22463
1.31426
1.42116
1.5373
1.65591
1.77268
1.85673
1.92626
1.94067
1.99352
2.00571
2.04177
2.05504
2.07153
2.08343
2.08863
2.09468
2.09708
2.09761
2.09814
2.09778
2.09718
2.0957
2.09428
2.09244
2.09011
2.08739
2.08474
2.08154
2.07775
2.07363
2.06901
2.06386
2.0582
2.05138
2.04528
2.03721
2.03004
2.02084
2.0119
2.00111
1.98954
1.38133
1.29637
1.24216
1.20476
1.20477
1.197
1.19636
1.20325
1.22372
1.26443
1.31729
1.38331
1.46687
1.55971
1.65455
1.76051
1.84693
1.90894
1.9449
1.98445
1.99796
2.03158
2.04628
2.0668
2.07838
2.09014
2.09707
2.10326
2.10506
2.10674
2.1075
2.10722
2.10637
2.10436
2.10218
2.09918
2.09597
2.09173
2.08757
2.08246
2.07734
2.07135
2.06557
2.05884
2.05126
2.04337
2.03504
2.0248
2.01668
2.00708
2.00121
1.99112
1.98262
1.96939
1.68075
1.63483
1.59052
1.55671
1.52432
1.51127
1.49867
1.50809
1.51255
1.53516
1.57861
1.63287
1.69472
1.76248
1.83251
1.89535
1.9361
1.97261
1.9923
2.01783
2.03376
2.05529
2.07004
2.08413
2.09478
2.10401
2.10971
2.11316
2.11638
2.11777
2.11803
2.11744
2.11523
2.11268
2.10867
2.10448
2.09916
2.09352
2.08675
2.08041
2.07264
2.06569
2.05519
2.04564
2.0346
2.02369
2.01414
2.00544
1.99645
1.98983
1.98023
1.97255
1.96169
1.94724
1.81827
1.79855
1.77746
1.75967
1.74497
1.73418
1.73088
1.72968
1.74018
1.75135
1.77651
1.81142
1.85073
1.88725
1.92768
1.95836
1.9874
2.0024
2.02267
2.03893
2.05649
2.07191
2.08587
2.09787
2.10807
2.11434
2.12075
2.12459
2.12739
2.12857
2.12896
2.12731
2.12514
2.12098
2.11673
2.1105
2.10429
2.09641
2.08856
2.07861
2.06927
2.05511
2.0459
2.03127
2.01996
2.00757
1.99339
1.98213
1.9697
1.96023
1.94907
1.94155
1.93528
1.92737
1.87341
1.86802
1.86243
1.8571
1.85305
1.85008
1.84971
1.8551
1.86162
1.87278
1.88726
1.90594
1.92941
1.95033
1.97127
1.99032
2.00779
2.02383
2.04086
2.05523
2.07081
2.08459
2.09753
2.10914
2.11639
2.12505
2.13076
2.13533
2.13838
2.13972
2.13957
2.13864
2.1353
2.13125
2.12431
2.11781
2.10903
2.1
2.08801
2.07649
2.06203
2.05033
2.03376
2.01906
2.00281
1.98305
1.97252
1.95876
1.95212
1.94627
1.94476
1.94646
1.94881
1.94851
1.89239
1.89227
1.8931
1.89366
1.89554
1.89777
1.90153
1.90695
1.91412
1.92441
1.93525
1.94894
1.96194
1.97749
1.992
2.00809
2.02233
2.03761
2.05234
2.06691
2.0821
2.09474
2.10734
2.11568
2.12742
2.13415
2.14102
2.14564
2.14882
2.15007
2.14969
2.14785
2.14435
2.1385
2.13384
2.12492
2.11495
2.10248
2.08941
2.07511
2.06047
2.04181
2.02394
2.00341
1.98329
1.97098
1.95894
1.95407
1.95488
1.96677
1.986
1.99586
1.9983
1.99819
1.89757
1.89903
1.90201
1.90476
1.90885
1.91337
1.91981
1.92578
1.93413
1.94302
1.95298
1.9646
1.97642
1.98934
2.00341
2.01694
2.03244
2.04617
2.06166
2.07602
2.08972
2.10218
2.11332
2.12527
2.13491
2.14321
2.14981
2.15511
2.15861
2.16012
2.16007
2.15909
2.15538
2.15067
2.14156
2.13146
2.11952
2.10671
2.0916
2.07496
2.05505
2.03527
2.01159
1.99117
1.97597
1.96334
1.9571
1.96783
1.97807
1.98699
1.99393
2.00155
2.00135
1.9843
1.01752
1.01745
1.0173
1.0171
1.01682
1.01646
1.01599
1.01551
1.01486
1.01425
1.01346
1.01275
1.01188
1.01121
1.01024
1.0097
1.00898
1.00835
1.00801
1.00762
1.01513
1.01474
1.01431
1.01397
1.0136
1.01305
1.01255
1.01187
1.01124
1.01048
1.00981
1.00903
1.00841
1.00775
1.00708
1.00655
1.00608
1.00577
1.00562
1.00569
1.0127
1.01219
1.01167
1.01112
1.01048
1.00987
1.00913
1.00847
1.00757
1.00687
1.00603
1.00545
1.00467
1.00414
1.00366
1.00327
1.00306
1.00298
1.00319
1.0034
1.01061
1.00975
1.009
1.00805
1.0073
1.00643
1.00564
1.0046
1.00372
1.00283
1.00219
1.00136
1.00079
1.00028
0.99998
0.999845
0.999768
1.00025
1.00051
1.0012
1.00838
1.00733
1.00613
1.00515
1.00395
1.00303
1.00176
1.00096
0.999733
0.998919
0.997914
0.997208
0.99675
0.996364
0.996215
0.996139
0.996604
0.996802
0.998148
0.998515
1.00632
1.00488
1.00348
1.00204
1.00063
0.999485
0.997976
0.996832
0.995669
0.994522
0.993714
0.992955
0.992226
0.992071
0.992054
0.99206
0.993216
0.993275
0.995514
0.996367
1.00434
1.00242
1.00078
0.998937
0.997588
0.995592
0.994064
0.992426
0.991379
0.989716
0.989066
0.988026
0.987642
0.987427
0.987348
0.9884
0.988144
0.990824
0.990842
0.994013
1.00234
1.00008
0.997891
0.995943
0.993538
0.991803
0.989871
0.987957
0.986637
0.985036
0.983956
0.982986
0.98246
0.982292
0.982818
0.982705
0.98553
0.984522
0.98973
0.989725
1.00053
0.997628
0.995336
0.992626
0.990429
0.987799
0.985441
0.984148
0.981355
0.980578
0.978716
0.977422
0.97646
0.976526
0.976768
0.977769
0.978187
0.98361
0.982414
0.988496
0.997705
0.996001
0.993893
0.99044
0.989031
0.984887
0.986815
0.98245
0.982977
0.981134
0.978433
0.974699
0.975967
0.971561
0.970652
0.974078
0.973429
0.974941
0.979934
0.982337
0.996661
0.997396
0.991857
0.995655
0.986779
0.996397
1.0044
0.998812
1.01336
1.01316
1.0069
1.00685
0.986186
0.988967
0.976923
0.970248
0.973044
0.972824
0.973431
0.979382
0.997986
1.00273
0.995735
1.01304
1.03085
1.05521
1.09667
1.11962
1.15742
1.17277
1.17072
1.12249
1.13253
1.06275
1.03535
0.995573
0.994281
0.972295
0.976674
0.974301
1.0062
1.02308
1.05698
1.10629
1.19672
1.30945
1.41994
1.50135
1.56509
1.58495
1.56772
1.56141
1.43441
1.4881
1.28631
1.27654
1.03724
1.03231
1.00225
0.979442
1.06403
1.10774
1.26986
1.47131
1.6253
1.71861
1.77543
1.79605
1.8026
1.79062
1.78393
1.74868
1.75184
1.65023
1.67483
1.42242
1.58519
1.28889
1.02078
1.04235
1.25003
1.56459
1.73022
1.81635
1.85497
1.8712
1.86642
1.84883
1.83514
1.80882
1.80101
1.75878
1.74899
1.73428
1.68552
1.72472
1.55902
1.50388
1.72059
1.11511
1.68533
1.79258
1.86154
1.89374
1.89831
1.88389
1.86778
1.84056
1.82561
1.79089
1.75955
1.71679
1.67396
1.66045
1.66567
1.64877
1.66486
1.65155
1.48997
1.69724
1.89481
1.93897
1.93805
1.92183
1.90182
1.88295
1.84864
1.82964
1.78593
1.74298
1.68861
1.61844
1.54009
1.48942
1.48181
1.53273
1.58033
1.60471
1.58166
1.56581
1.96427
1.95259
1.93581
1.91491
1.89384
1.85667
1.8365
1.791
1.74128
1.68574
1.62671
1.55834
1.48213
1.39386
1.35029
1.34372
1.40431
1.50492
1.54415
1.53956
1.96679
1.95127
1.93007
1.90609
1.87388
1.845
1.79564
1.74855
1.6936
1.64274
1.59058
1.52225
1.43322
1.34706
1.2787
1.26002
1.2677
1.34342
1.46302
1.51817
1.96849
1.94588
1.91956
1.88671
1.8489
1.79311
1.74184
1.68203
1.62348
1.57742
1.54456
1.49044
1.40585
1.32452
1.24679
1.20791
1.20823
1.23313
1.32191
1.4506
1.96132
1.93408
1.89992
1.85492
1.79213
1.72934
1.65344
1.58046
1.5258
1.49035
1.47045
1.44645
1.3963
1.308
1.23791
1.19508
1.18032
1.1942
1.24214
1.3621
1.95205
1.91527
1.86357
1.79519
1.71624
1.62583
1.53258
1.44692
1.39713
1.3791
1.37698
1.39236
1.37033
1.28537
1.23254
1.1939
1.17577
1.18694
1.22565
1.32385
1.93375
1.87879
1.80561
1.71446
1.60558
1.49483
1.38438
1.28807
1.24433
1.23622
1.26171
1.34741
1.35548
1.26605
1.20791
1.20038
1.18604
1.19395
1.23136
1.32823
1.90039
1.82378
1.72366
1.60241
1.47092
1.34244
1.22484
1.12642
1.08577
1.08234
1.12626
1.29198
1.35173
1.25213
1.19827
1.23028
1.23412
1.23032
1.26341
1.34623
1.85086
1.74734
1.61793
1.47311
1.328
1.19361
1.08617
1.03698
1.0222
1.02291
1.06288
1.24438
1.3491
1.24955
1.16838
1.26276
1.29874
1.30132
1.33168
1.38344
1.78463
1.65086
1.49498
1.33405
1.19015
1.07637
1.03236
1.01479
1.01006
1.0164
1.05769
1.22783
1.33512
1.23627
1.18869
1.30311
1.33765
1.35232
1.37364
1.40065
1.7016
1.53838
1.3617
1.19832
1.07577
1.03792
1.02215
1.01323
1.01668
1.03148
1.08877
1.23231
1.28323
1.2337
1.21928
1.31519
1.35529
1.37207
1.39066
1.40342
1.60875
1.42081
1.23492
1.09332
1.05298
1.0323
1.02963
1.03856
1.05766
1.08034
1.15006
1.23243
1.24433
1.22198
1.21972
1.30842
1.35555
1.37371
1.38386
1.37101
1.51922
1.316
1.13935
1.06931
1.04316
1.04636
1.06993
1.09687
1.12946
1.14695
1.18724
1.20703
1.19969
1.18065
1.18953
1.26348
1.3154
1.33207
1.32245
1.25374
1.44576
1.23356
1.1083
1.06262
1.05392
1.07478
1.12723
1.19338
1.19037
1.19863
1.19601
1.18832
1.16036
1.12106
1.11926
1.15946
1.18474
1.19957
1.15901
1.08726
1.40465
1.20227
1.08115
1.06907
1.06199
1.09782
1.17352
1.2134
1.22756
1.21035
1.1974
1.16215
1.11768
1.06347
1.04406
1.05291
1.06405
1.06587
1.03959
0.994834
1.38859
1.18616
1.08468
1.06438
1.06826
1.10948
1.17983
1.24639
1.2246
1.22221
1.19202
1.14642
1.09243
1.02674
0.992698
0.986406
0.997999
0.978095
0.984274
0.969923
1.4081
1.21495
1.06944
1.06197
1.04882
1.09062
1.15098
1.23588
1.21215
1.21099
1.18019
1.13516
1.08158
1.01999
0.988261
0.957772
0.966821
0.958807
0.959121
0.96048
1.45495
1.24648
1.12204
1.0448
1.03441
1.03656
1.07206
1.13358
1.18519
1.15788
1.15622
1.11567
1.0744
1.01551
0.989689
0.949807
0.9575
0.952526
0.958888
0.955603
1.58413
1.37188
1.1731
1.08359
1.02376
1.02253
1.01459
1.02759
1.06608
1.0822
1.09278
1.07086
1.05155
1.00197
0.976647
0.955853
0.952636
0.948517
0.957193
0.962035
1.74317
1.55261
1.34263
1.14368
1.08867
0.996231
1.01519
0.992569
0.985557
0.984911
0.987588
0.989388
0.986752
0.97136