/*--------------------------------*- C++ -*----------------------------------*\
  =========                 |
  \\      /  F ield         | OpenFOAM: The Open Source CFD Toolbox
   \\    /   O peration     | Website:  https://openfoam.org
    \\  /    A nd           | Version:  10
     \\/     M anipulation  |
\*---------------------------------------------------------------------------*/
FoamFile
{
    format      ascii;
    class       volScalarField;
    location    "0.698552";
    object      T;
}
// * * * * * * * * * * * * * * * * * * * * * * * * * * * * * * * * * * * * * //

dimensions      [0 0 0 1 0 0 0];

internalField   nonuniform List<scalar> 
15984
(
0.00870394
0.0087035
0.00870323
0.00870273
0.00870289
0.00870283
0.00870477
0.00870456
0.0087078
0.00870791
0.00871107
0.00871321
0.00871604
0.00871891
0.00872187
0.00872465
0.0087278
0.00873068
0.00873366
0.00873657
0.00873942
0.00874196
0.00874458
0.00874699
0.0087496
0.00875193
0.00875418
0.00875622
0.00875806
0.00875984
0.0087614
0.00876288
0.00876417
0.00876547
0.00876661
0.00876791
0.00876859
0.00876961
0.00877047
0.00877094
0.00877148
0.00877188
0.00877217
0.00877248
0.00877265
0.00877306
0.00877292
0.00877328
0.00877295
0.00877324
0.00877296
0.00877281
0.00877268
0.00877225
0.00870679
0.00870586
0.00870443
0.00870317
0.00870287
0.00870321
0.00870325
0.00870549
0.00870586
0.0087086
0.0087115
0.0087141
0.00871704
0.00871988
0.0087227
0.00872577
0.00872871
0.008732
0.00873499
0.00873819
0.00874122
0.00874413
0.00874707
0.00874999
0.00875262
0.00875526
0.00875769
0.00875992
0.00876197
0.0087638
0.00876549
0.0087669
0.00876841
0.00876964
0.00877083
0.00877198
0.00877251
0.00877338
0.00877385
0.00877406
0.0087742
0.00877421
0.00877412
0.00877388
0.00877334
0.00877277
0.00877177
0.00877125
0.00876968
0.00876973
0.00876763
0.00876774
0.00876612
0.00876555
0.00870757
0.00870605
0.00870503
0.00870389
0.00870274
0.00870297
0.00870299
0.00870512
0.00870725
0.00870896
0.00871202
0.00871423
0.0087171
0.00871984
0.00872285
0.00872597
0.00872925
0.00873258
0.00873617
0.00873954
0.00874292
0.00874612
0.0087494
0.00875227
0.00875535
0.00875818
0.00876083
0.00876331
0.00876554
0.00876753
0.00876949
0.00877104
0.00877263
0.00877376
0.00877496
0.00877595
0.00877643
0.00877709
0.00877714
0.00877725
0.00877693
0.00877636
0.00877578
0.00877475
0.0087739
0.00877228
0.00877152
0.00876858
0.00876843
0.008765
0.00876503
0.00876102
0.00876078
0.00875866
0.00870904
0.00870505
0.00870417
0.00870412
0.00870399
0.00870413
0.00870494
0.00870572
0.00870694
0.00870885
0.008711
0.00871375
0.0087166
0.00871996
0.00872294
0.00872663
0.0087297
0.00873365
0.00873713
0.0087409
0.00874434
0.00874806
0.0087512
0.00875482
0.00875794
0.00876109
0.00876398
0.00876664
0.00876919
0.00877134
0.00877342
0.00877512
0.00877674
0.00877797
0.00877912
0.00878008
0.00878053
0.00878084
0.00878067
0.0087807
0.00877988
0.00877865
0.00877828
0.00877623
0.0087744
0.00877319
0.00877001
0.00876847
0.00876492
0.00876357
0.00875907
0.00875765
0.0087539
0.00875078
0.00870708
0.00870609
0.00870452
0.00870435
0.0087038
0.00870395
0.00870438
0.00870567
0.00870703
0.00870911
0.00871156
0.00871398
0.00871702
0.00871998
0.00872336
0.00872671
0.00873051
0.00873422
0.00873823
0.00874199
0.00874594
0.00874966
0.00875331
0.00875688
0.00876059
0.00876392
0.0087672
0.00877024
0.00877291
0.0087754
0.0087776
0.00877943
0.00878102
0.00878245
0.00878347
0.00878443
0.00878475
0.0087848
0.00878445
0.00878448
0.00878312
0.00878136
0.00878095
0.00877722
0.00877745
0.00877277
0.00877036
0.00876716
0.0087637
0.00875986
0.00875635
0.00875243
0.00874778
0.00874376
0.00870934
0.00870716
0.00870555
0.00870417
0.00870356
0.00870348
0.00870383
0.00870462
0.00870628
0.00870836
0.00871069
0.00871351
0.00871652
0.00871973
0.00872323
0.008727
0.00873082
0.00873498
0.0087389
0.00874325
0.0087472
0.0087513
0.00875531
0.00875921
0.00876306
0.00876671
0.00877031
0.00877362
0.00877662
0.0087793
0.0087817
0.00878379
0.00878543
0.00878695
0.00878788
0.00878886
0.00878911
0.00878904
0.00878848
0.00878846
0.00878654
0.00878504
0.0087829
0.00878034
0.00877785
0.00877356
0.00877121
0.00876631
0.00876243
0.00875789
0.00875284
0.00874765
0.00874254
0.00873708
0.00870949
0.00870717
0.0087052
0.00870368
0.00870294
0.00870278
0.00870323
0.00870389
0.00870595
0.00870795
0.0087105
0.0087134
0.00871635
0.00871983
0.00872337
0.00872714
0.00873132
0.00873537
0.00873984
0.00874421
0.00874864
0.00875291
0.00875719
0.00876155
0.00876561
0.00876978
0.00877354
0.00877714
0.00878029
0.00878316
0.00878566
0.00878786
0.00878962
0.00879125
0.00879231
0.00879333
0.00879357
0.00879346
0.0087927
0.00879248
0.00878964
0.00878954
0.00878563
0.00878323
0.00877997
0.00877493
0.008772
0.00876551
0.00876233
0.0087551
0.00875007
0.00874382
0.00873718
0.00873092
0.00870927
0.00870677
0.00870418
0.00870284
0.00870163
0.00870194
0.00870258
0.00870353
0.00870575
0.00870746
0.0087104
0.00871276
0.00871605
0.00871932
0.00872308
0.00872715
0.00873135
0.00873579
0.00874047
0.00874508
0.00874975
0.00875445
0.00875913
0.0087636
0.00876808
0.00877235
0.00877643
0.00878031
0.00878378
0.00878691
0.0087897
0.00879203
0.00879408
0.00879583
0.0087971
0.008798
0.00879831
0.00879813
0.00879743
0.00879653
0.00879455
0.00879101
0.00879063
0.00878432
0.00878465
0.00877514
0.0087762
0.00876348
0.0087649
0.00874942
0.00875098
0.00873765
0.00873186
0.00872438
0.00870882
0.0087062
0.00870431
0.0087028
0.00870193
0.00870195
0.00870214
0.00870288
0.00870442
0.00870602
0.0087088
0.00871093
0.00871468
0.00871804
0.00872234
0.00872664
0.00873119
0.0087359
0.00874077
0.00874575
0.00875068
0.00875569
0.00876064
0.00876539
0.00877025
0.0087748
0.00877923
0.00878334
0.00878714
0.00879059
0.0087937
0.00879635
0.00879862
0.00880043
0.00880185
0.00880276
0.00880313
0.00880284
0.00880252
0.0088
0.00879994
0.00879519
0.00879505
0.00878746
0.0087876
0.00877652
0.00877687
0.00876384
0.00876375
0.00874915
0.00874889
0.00873266
0.00873382
0.00871676
0.00870811
0.0087058
0.00870214
0.00870094
0.00870068
0.00870074
0.00870136
0.00870244
0.00870379
0.00870571
0.00870761
0.00871069
0.00871407
0.00871793
0.00872211
0.00872632
0.00873097
0.00873593
0.00874106
0.00874635
0.0087518
0.00875704
0.0087623
0.00876734
0.00877229
0.00877727
0.00878179
0.00878649
0.00879053
0.00879434
0.00879774
0.00880066
0.00880307
0.00880513
0.00880666
0.00880768
0.00880814
0.0088079
0.00880738
0.00880518
0.00880505
0.0087996
0.00879963
0.00879078
0.0087905
0.00877943
0.00877983
0.00876471
0.00876511
0.0087479
0.00874776
0.00872834
0.00873088
0.00870499
0.00870725
0.00870455
0.00870314
0.00870086
0.0087004
0.00869969
0.00870009
0.0087007
0.00870202
0.0087042
0.00870667
0.00871038
0.00871349
0.0087172
0.00872039
0.0087243
0.00872956
0.008735
0.00874112
0.00874688
0.00875253
0.00875781
0.00876328
0.00876858
0.00877397
0.00877926
0.0087843
0.00878934
0.00879378
0.00879793
0.00880162
0.00880482
0.00880757
0.00880985
0.0088116
0.00881281
0.00881347
0.00881328
0.00881238
0.00881216
0.00880872
0.00880548
0.00880227
0.00879734
0.00879208
0.00878513
0.00877961
0.00876881
0.00876496
0.00874871
0.00874871
0.00872702
0.00872695
0.00869808
0.00870378
0.00870443
0.00869922
0.0087
0.0086982
0.00869848
0.00869882
0.0086996
0.00870112
0.00870334
0.00870636
0.00870878
0.00871256
0.00871481
0.00872053
0.00872524
0.00873107
0.00873624
0.0087425
0.00874747
0.00875261
0.00875761
0.00876318
0.00876898
0.00877524
0.00878121
0.00878707
0.00879239
0.00879735
0.00880185
0.00880575
0.00880926
0.00881225
0.00881476
0.00881679
0.00881816
0.00881899
0.00881888
0.00881841
0.00881662
0.00881437
0.00881063
0.00880967
0.00879879
0.00879991
0.00878567
0.00878628
0.00876642
0.00876726
0.00874791
0.00874912
0.00872262
0.0087229
0.00867193
0.00870252
0.00870049
0.00869886
0.0086975
0.00869689
0.00869636
0.00869663
0.00869776
0.00869959
0.00870183
0.00870428
0.00870747
0.00871102
0.00871546
0.00871937
0.00872613
0.00872704
0.00873827
0.00873734
0.00875042
0.00875179
0.0087592
0.00876458
0.00877013
0.0087764
0.00878274
0.00878915
0.00879505
0.0088005
0.00880526
0.00880964
0.00881346
0.00881671
0.00881945
0.00882163
0.00882345
0.00882437
0.00882469
0.00882397
0.00882344
0.00881905
0.00881857
0.00881015
0.00881082
0.00879718
0.00879826
0.00878006
0.00878081
0.00876162
0.00876084
0.00872764
0.00873399
0.0086782
0.00861863
0.00870129
0.00869781
0.0086969
0.00869451
0.00869497
0.00869424
0.0086949
0.00869575
0.0086969
0.00869945
0.00870205
0.00870544
0.00870949
0.00871369
0.00871856
0.00872399
0.00872969
0.00873475
0.00874066
0.00874587
0.00875255
0.00875921
0.00876588
0.00877262
0.00877907
0.00878529
0.0087916
0.00879736
0.0088031
0.00880828
0.00881316
0.00881752
0.00882118
0.00882436
0.00882704
0.0088292
0.00883041
0.00883119
0.00883052
0.00882992
0.00882683
0.00882244
0.00882008
0.00881044
0.00880903
0.0087961
0.0087887
0.00878119
0.00876355
0.00875853
0.00871841
0.00871289
0.00852924
0.00855281
0.00869638
0.00869497
0.00869194
0.0086925
0.00869086
0.00869148
0.00869219
0.00869354
0.00869517
0.00869765
0.00870048
0.00870374
0.00870786
0.00871213
0.00871642
0.00872382
0.00872493
0.00873787
0.00873661
0.00874966
0.00875088
0.00875976
0.00876561
0.00877232
0.00877928
0.00878647
0.00879363
0.00880032
0.00880655
0.00881197
0.00881696
0.00882163
0.00882579
0.00882951
0.00883272
0.00883537
0.00883689
0.00883781
0.0088375
0.00883557
0.00883391
0.0088304
0.00882405
0.00881873
0.00880982
0.00880469
0.00879472
0.00878307
0.00876406
0.00875786
0.00866407
0.00866134
0.00820646
0.0082694
0.008695
0.00869097
0.00869091
0.00868856
0.00868917
0.00868872
0.00868943
0.00869069
0.00869272
0.00869512
0.00869825
0.00870163
0.00870595
0.00870954
0.00871691
0.00871774
0.00872961
0.00872835
0.0087435
0.00874301
0.00875354
0.00875982
0.0087662
0.00877303
0.00878041
0.00878798
0.00879549
0.00880255
0.00880942
0.00881549
0.0088211
0.00882628
0.00883084
0.00883501
0.00883858
0.0088415
0.0088431
0.00884429
0.00884381
0.00884337
0.00883948
0.00883801
0.00882827
0.008829
0.00881485
0.00881357
0.00879177
0.00879371
0.00875365
0.00875464
0.00849732
0.00848841
0.00735558
0.00577791
0.00868917
0.00868903
0.00868568
0.00868636
0.00868584
0.00868649
0.00868709
0.00868836
0.00868993
0.00869272
0.00869575
0.00869961
0.00870376
0.00870818
0.00871355
0.00871913
0.00872489
0.00873159
0.00873833
0.00874533
0.00875219
0.00875889
0.00876594
0.00877373
0.00878138
0.00878963
0.0087975
0.00880539
0.00881258
0.00881889
0.00882474
0.00883017
0.00883514
0.0088399
0.00884412
0.00884785
0.00885019
0.00885185
0.00885145
0.00885097
0.00884773
0.00884255
0.00884162
0.00882797
0.00882733
0.00880676
0.00880978
0.00879134
0.00871072
0.00869458
0.0080381
0.00696516
0.00562373
0.00491391
0.00868391
0.00868228
0.0086831
0.00868181
0.00868257
0.00868298
0.0086842
0.00868583
0.00868826
0.00869103
0.00869433
0.00869727
0.00870157
0.00870694
0.00870873
0.00871995
0.0087192
0.00873271
0.00873232
0.00874728
0.00874771
0.00875928
0.00876598
0.00877369
0.00878159
0.00878988
0.00879828
0.00880658
0.00881449
0.00882151
0.00882806
0.00883452
0.00884064
0.00884624
0.00885082
0.00885488
0.0088571
0.00885941
0.00885922
0.00885855
0.00885533
0.00885333
0.00884292
0.00884132
0.00882449
0.00882576
0.00880648
0.00878602
0.00854895
0.00820528
0.00662781
0.00519312
0.00461088
0.00442295
0.00866508
0.00867115
0.00867438
0.00867654
0.00867821
0.00867983
0.00868138
0.00868318
0.00868562
0.00868823
0.00869184
0.00869545
0.00869891
0.00870405
0.00870872
0.00871254
0.00872317
0.00872362
0.00873707
0.00873707
0.00875269
0.00875392
0.00876541
0.00877382
0.0087823
0.00879095
0.00879964
0.00880849
0.00881722
0.00882555
0.00883273
0.00883949
0.00884587
0.00885195
0.00885734
0.00886179
0.00886469
0.00886695
0.00886658
0.00886595
0.00886261
0.00885673
0.00885257
0.00884109
0.00883977
0.00882576
0.00880764
0.00856685
0.0082134
0.00626062
0.00507539
0.00459814
0.00444393
0.00438708
0.00860959
0.00863709
0.0086549
0.00866481
0.00867133
0.00867487
0.00867845
0.00868107
0.00868339
0.00868612
0.0086886
0.00869233
0.00869659
0.00869892
0.00870857
0.00870689
0.00872206
0.00872055
0.00873502
0.00873451
0.00874969
0.00875552
0.00876318
0.0087725
0.0087821
0.00879195
0.00880142
0.0088105
0.0088196
0.00882834
0.00883634
0.00884392
0.00885088
0.00885739
0.00886331
0.00886838
0.00887202
0.00887459
0.00887434
0.0088733
0.00887056
0.00886594
0.00885823
0.00885267
0.00884592
0.0088252
0.00868175
0.00815634
0.00625335
0.00502608
0.00454977
0.00441742
0.00438192
0.00436744
0.00844308
0.00853664
0.00859599
0.00863137
0.00865237
0.00866508
0.00867192
0.00867739
0.00868127
0.00868413
0.00868673
0.00869061
0.00869354
0.00869923
0.00869981
0.00871132
0.0087095
0.00872355
0.00872377
0.00874003
0.00873878
0.0087556
0.00876378
0.00877268
0.00878215
0.00879207
0.00880256
0.00881298
0.00882272
0.0088323
0.00884103
0.00884894
0.00885602
0.00886298
0.00886972
0.00887536
0.00887962
0.00888234
0.00888211
0.00888098
0.00887807
0.00887294
0.00886481
0.0088618
0.00884819
0.00875809
0.00825096
0.00642746
0.00497415
0.00452341
0.00441903
0.00439253
0.00437918
0.00437815
0.00803256
0.00828556
0.00844582
0.00854472
0.00860304
0.00863775
0.00865784
0.00866954
0.00867644
0.00868157
0.00868528
0.008689
0.00869253
0.00869467
0.00870235
0.00870199
0.00871394
0.00871378
0.00872886
0.00872746
0.00874619
0.00874612
0.00876195
0.00877257
0.00878253
0.00879291
0.00880409
0.00881526
0.00882638
0.00883721
0.008848
0.00885766
0.00886527
0.00887134
0.00887735
0.00888259
0.0088873
0.00889007
0.00888981
0.00888847
0.00888526
0.00887817
0.00887524
0.00886762
0.00881625
0.00845135
0.00676015
0.00499716
0.00452532
0.00442614
0.00440274
0.00439216
0.00439044
0.00439461
0.00713616
0.00770142
0.0080938
0.00834114
0.0084881
0.00857343
0.00862243
0.00865059
0.00866634
0.00867542
0.00868171
0.00868621
0.00868969
0.00869388
0.00869477
0.00870338
0.00870206
0.0087178
0.00871705
0.00873337
0.00873637
0.00874822
0.0087629
0.00876496
0.00878064
0.00879154
0.00880345
0.00881537
0.00882732
0.00883903
0.00885175
0.00886318
0.00887234
0.00888002
0.00888666
0.00889165
0.00889622
0.00889795
0.00889736
0.00889536
0.00889107
0.00888566
0.00888437
0.00886409
0.00863153
0.00735372
0.00509082
0.00453271
0.00443349
0.00441365
0.00440583
0.00440322
0.00440692
0.00442129
0.00611557
0.00686402
0.00750332
0.00796857
0.00826878
0.00844798
0.00855152
0.00861093
0.00864376
0.00866282
0.00867367
0.00868058
0.00868547
0.00869018
0.00869175
0.00869928
0.00870221
0.00870939
0.00871856
0.0087212
0.00873583
0.00873292
0.00874619
0.00875996
0.00876037
0.00877618
0.00879113
0.00880552
0.00882184
0.00883725
0.00885174
0.0088681
0.00888169
0.00889067
0.00889669
0.00890087
0.00890471
0.00890477
0.00890388
0.00890098
0.00889628
0.00889544
0.00889026
0.00877833
0.00783907
0.00530642
0.00455137
0.0044416
0.00442464
0.00441959
0.00441488
0.00441775
0.00443162
0.00446787
0.00557093
0.00598264
0.00674596
0.00740122
0.00788595
0.00820825
0.00840667
0.00852588
0.00859587
0.00863416
0.00865651
0.00866773
0.00867567
0.00868213
0.00868599
0.00869144
0.00869262
0.00869879
0.00869814
0.00870136
0.00870016
0.00870666
0.00869068
0.00868869
0.00869522
0.00869911
0.0087131
0.00874444
0.0087898
0.00882055
0.00884354
0.00886513
0.00888316
0.00889577
0.00890359
0.00890886
0.00891147
0.00891107
0.00890934
0.00890546
0.00890365
0.0089064
0.00887509
0.00831458
0.00563173
0.00457296
0.00444738
0.00443558
0.00443289
0.00442647
0.00442931
0.00444148
0.00447417
0.00454499
0.00536071
0.00561988
0.00625692
0.00697706
0.00755865
0.00797718
0.00825611
0.00842729
0.00853204
0.00859251
0.00862882
0.00864812
0.00866302
0.00866509
0.00867137
0.00865964
0.00866164
0.0086377
0.00865169
0.00861809
0.00854846
0.00847887
0.00835669
0.0082944
0.0082794
0.00831883
0.00830386
0.00849269
0.00860018
0.00872521
0.00881058
0.00885673
0.00888395
0.0089015
0.00891063
0.00891551
0.00891646
0.00891551
0.00891247
0.00891096
0.00891223
0.0089122
0.00864645
0.00647717
0.00463182
0.00445227
0.00444553
0.00444454
0.00443781
0.00443965
0.00444897
0.00447532
0.00453688
0.00465519
0.00537291
0.00568459
0.00637509
0.00707542
0.00763162
0.00802716
0.00828553
0.00844438
0.00854216
0.00859486
0.00862373
0.00863145
0.008635
0.00862681
0.00860097
0.00861335
0.00852582
0.00834519
0.00811219
0.00782319
0.00752148
0.00719792
0.00687824
0.00677113
0.00679013
0.00679399
0.00705678
0.00734924
0.00812206
0.00851186
0.00872342
0.0088286
0.00888007
0.00890462
0.00891591
0.00892034
0.00891991
0.00891757
0.00891557
0.00891616
0.00892553
0.00884416
0.00720241
0.00468538
0.00446449
0.00445443
0.00445434
0.00444865
0.00444896
0.00445618
0.00447479
0.00452313
0.00462174
0.00480351
0.00558461
0.00612379
0.00683416
0.00745531
0.00790959
0.00822694
0.00842409
0.00853386
0.00857707
0.00859554
0.00859219
0.00859038
0.00850008
0.00840854
0.00791536
0.00746168
0.00694764
0.00643373
0.00602804
0.00572427
0.00552188
0.00539208
0.00531645
0.00531374
0.00534338
0.00546447
0.00559865
0.00600383
0.00677742
0.00793031
0.00853409
0.00877636
0.00886979
0.00890683
0.00891969
0.00892148
0.00892011
0.00891831
0.00892043
0.00892953
0.00889755
0.00726478
0.00483972
0.00448428
0.00446168
0.00446138
0.00445835
0.00445695
0.00446167
0.00447412
0.00450726
0.00458115
0.00472722
0.00498975
0.00668276
0.00735746
0.00785751
0.00821187
0.00842861
0.00851995
0.00854715
0.0085382
0.0084997
0.00834013
0.00791065
0.00707177
0.00637368
0.00582503
0.00540185
0.00511434
0.00496282
0.00485556
0.00477864
0.00473236
0.00471154
0.00470717
0.0047142
0.00473981
0.00477639
0.00487623
0.0049691
0.0052561
0.00578993
0.00702771
0.00809141
0.00865283
0.00885329
0.00890747
0.00891957
0.00892055
0.0089194
0.00892125
0.00892127
0.00877527
0.00738692
0.00499554
0.00452078
0.00446866
0.0044669
0.00446658
0.00446407
0.00446624
0.00447429
0.00449467
0.00454302
0.00464574
0.00484489
0.00519557
0.00821027
0.00838099
0.00847225
0.008496
0.00845486
0.00828445
0.00779024
0.00679062
0.00593268
0.00536177
0.00496686
0.00471723
0.00461117
0.00456124
0.00453676
0.00452846
0.00453025
0.00454721
0.00458027
0.00459726
0.00460344
0.00461224
0.00461839
0.00463046
0.00464478
0.00468172
0.00474271
0.00490827
0.00536386
0.00666859
0.00802249
0.00865879
0.00886044
0.00890996
0.00891791
0.00891793
0.00891822
0.00891075
0.0087405
0.00754835
0.0051732
0.00456964
0.00447727
0.00447094
0.00447166
0.00447057
0.00447075
0.00447524
0.00448709
0.00451496
0.00457754
0.00470885
0.00495862
0.00539096
0.00799903
0.00771086
0.00724867
0.00655142
0.00585336
0.00511903
0.00470953
0.00451645
0.00444995
0.00443487
0.00443815
0.00446463
0.00450301
0.00458909
0.00465628
0.00471458
0.00475312
0.0047864
0.00479508
0.00478829
0.00476481
0.00472337
0.00468477
0.00466341
0.00465094
0.00466168
0.00469565
0.00484136
0.00537842
0.00676257
0.00809832
0.00871078
0.00888229
0.00890948
0.00891557
0.00891257
0.00890381
0.008722
0.0077163
0.00535363
0.00462741
0.00448807
0.0044736
0.00447402
0.00447515
0.0044749
0.00447731
0.00448367
0.00449967
0.00453498
0.00461095
0.0047644
0.00504916
0.005534
0.00490332
0.00465461
0.00449761
0.00443324
0.00440359
0.00439821
0.00442269
0.00447145
0.00455241
0.00467837
0.00487505
0.00502114
0.00534608
0.00560131
0.00581845
0.00601014
0.00610584
0.00607468
0.00597189
0.00579817
0.0055931
0.00528394
0.00507659
0.00492889
0.00477773
0.00468812
0.00470032
0.00485339
0.00543258
0.0070634
0.00836008
0.00881043
0.00889138
0.00890404
0.00889886
0.00888461
0.0086469
0.00791571
0.00553346
0.00469975
0.00450184
0.00447607
0.00447484
0.00447745
0.0044784
0.00447961
0.0044834
0.00449284
0.00451241
0.00455306
0.00463638
0.00479896
0.00509461
0.00559553
0.00438568
0.00439823
0.00442589
0.0044762
0.00456184
0.0046908
0.00487425
0.00513075
0.00547793
0.00600429
0.00657162
0.0072007
0.00756672
0.00776433
0.00778821
0.00776162
0.00768984
0.00758963
0.00742667
0.00719253
0.00691334
0.00653638
0.00611318
0.0055302
0.00497974
0.00474529
0.00474873
0.00503635
0.00604104
0.00780084
0.00865343
0.00886007
0.00888793
0.00889199
0.0088702
0.00863045
0.00817475
0.00560514
0.00483192
0.00451498
0.00447764
0.00447378
0.00447717
0.00447867
0.0044802
0.00448293
0.0044878
0.00449759
0.00451807
0.00456014
0.00464569
0.00481004
0.00510257
0.00558239
0.0045775
0.00467694
0.0048156
0.0050111
0.00528475
0.00567313
0.00625964
0.0069805
0.00768009
0.00807284
0.00822669
0.00822578
0.00817794
0.00806364
0.00785687
0.00771562
0.00755972
0.00757175
0.00763745
0.00758542
0.00740398
0.00700745
0.00634571
0.00551798
0.00493283
0.0047478
0.00479939
0.00521557
0.00708909
0.00843133
0.00879662
0.00885882
0.00885706
0.00880357
0.00859846
0.00836107
0.00556849
0.0049625
0.00454465
0.00447848
0.00447174
0.0044739
0.00447725
0.00447893
0.00448192
0.00448476
0.00448916
0.00449723
0.00451293
0.00454535
0.00461342
0.00474994
0.00500436
0.00543961
0.00516994
0.00541804
0.00575718
0.00623486
0.00688789
0.00761927
0.00814712
0.00837042
0.00841378
0.00838162
0.00823485
0.00791757
0.0073797
0.00679334
0.00659386
0.0066623
0.00682291
0.00734048
0.00760449
0.00757534
0.00736236
0.00689344
0.00612771
0.00526579
0.00495434
0.00493511
0.00526654
0.00661462
0.00812831
0.0087094
0.00882781
0.00883815
0.00882191
0.00867752
0.00851786
0.00549819
0.00505886
0.00458861
0.00448174
0.00446904
0.00446813
0.00447449
0.00447617
0.00447932
0.00448163
0.00448328
0.00448482
0.00448716
0.004494
0.00451032
0.00454782
0.00463035
0.00479771
0.00510854
0.00623275
0.00672814
0.00734672
0.00793074
0.0083349
0.00848453
0.00850991
0.00848557
0.00836141
0.0080847
0.00765698
0.00713253
0.00652395
0.00622049
0.00617073
0.0062341
0.00648262
0.00700112
0.0072653
0.00726944
0.00687833
0.00615055
0.005387
0.00511665
0.00496051
0.00509116
0.00641565
0.00798073
0.00859492
0.00877116
0.00879144
0.00880804
0.00859103
0.00864311
0.00547499
0.00514326
0.00460909
0.00449272
0.00446506
0.00446313
0.0044691
0.0044727
0.00447556
0.00447896
0.00448082
0.00448233
0.00448269
0.00448272
0.00448485
0.0044919
0.00450944
0.00454917
0.00463523
0.00480868
0.00760395
0.00806789
0.00836362
0.00854302
0.0085546
0.00855882
0.00853803
0.00843761
0.00823854
0.00790161
0.00741437
0.00682129
0.00631554
0.00611274
0.00607398
0.00608171
0.00616813
0.00630991
0.0063733
0.00626745
0.00585457
0.0055376
0.00533896
0.00528538
0.0056828
0.00658086
0.00787987
0.00855432
0.00875135
0.00877596
0.00880878
0.00849713
0.00854804
0.00535105
0.0051959
0.00463754
0.00450507
0.00446182
0.00445811
0.0044615
0.00446845
0.00447022
0.00447441
0.00447731
0.00447918
0.00448069
0.00448109
0.00447942
0.00447815
0.00447811
0.00448115
0.00449328
0.00452202
0.00458614
0.0083819
0.00850316
0.00857546
0.0085643
0.00858497
0.00858171
0.0085404
0.00844842
0.00827126
0.00799943
0.00758445
0.00702636
0.00645996
0.00620932
0.00607196
0.00606577
0.00604058
0.00602973
0.00595275
0.00586847
0.00568503
0.00561259
0.00563059
0.00593014
0.00691603
0.00832502
0.00840701
0.00871783
0.00869532
0.00866968
0.00859653
0.00854241
0.00524915
0.00537157
0.00464964
0.00451528
0.00445818
0.00445175
0.00445395
0.00445995
0.00446464
0.00446787
0.00447192
0.00447477
0.00447713
0.00447844
0.00447865
0.00447788
0.00447442
0.00446932
0.00446444
0.00446392
0.00446697
0.00448243
0.00852987
0.00856913
0.00856849
0.00860974
0.00860536
0.00860139
0.0085666
0.00849638
0.00838097
0.0081978
0.00791851
0.0075236
0.00704281
0.00659983
0.00628441
0.00621762
0.0061012
0.00610893
0.00603295
0.00601039
0.00601554
0.00624427
0.00685089
0.00765908
0.00816781
0.00859285
0.00856487
0.0086369
0.00865393
0.00865914
0.00734715
0.00520348
0.00535452
0.00464547
0.00452487
0.00445483
0.00444588
0.00444584
0.00445339
0.00445792
0.00446339
0.00446557
0.00447139
0.00447315
0.00447612
0.00447676
0.00447678
0.00447464
0.00447078
0.00446556
0.00445907
0.00445121
0.00444351
0.00443646
0.00854205
0.00858121
0.00861706
0.00861425
0.00861885
0.00861205
0.00860002
0.00856924
0.00851389
0.00842156
0.00827331
0.0080561
0.0077718
0.00744685
0.00712598
0.00687941
0.00672422
0.00670614
0.00669782
0.00692213
0.00723072
0.00770759
0.00806126
0.00849509
0.00850961
0.00862301
0.00862049
0.00872192
0.00875379
0.0059694
0.00602338
0.00493723
0.00480183
0.00451795
0.00446119
0.00444009
0.00443949
0.00444546
0.00445114
0.00445499
0.00446047
0.00446491
0.004468
0.00447173
0.004473
0.00447422
0.00447462
0.00447222
0.00446994
0.00446482
0.0044582
0.00444971
0.00443903
0.004428
0.00858846
0.00860521
0.00861164
0.00862004
0.00861877
0.00861917
0.00861492
0.00860488
0.00858562
0.00855086
0.00849589
0.00841319
0.00830438
0.0081721
0.00803656
0.00788897
0.00788987
0.00786829
0.00793362
0.00809643
0.00824883
0.00848995
0.00849832
0.00857857
0.00857551
0.00859442
0.00841175
0.00775154
0.00571758
0.0056968
0.00508536
0.00463275
0.0045932
0.00444849
0.00443892
0.00443285
0.00443915
0.00444313
0.00444844
0.00445357
0.00445728
0.00446225
0.00446563
0.00446901
0.0044714
0.00447205
0.00447196
0.0044707
0.00446588
0.00446151
0.00445379
0.0044468
0.00443677
0.00442606
0.008582
0.00861312
0.00861062
0.0086168
0.0086185
0.00861911
0.00861963
0.00861766
0.00861317
0.00860375
0.00858725
0.00856142
0.0085261
0.00848184
0.00844234
0.00839953
0.00839922
0.00839037
0.00841286
0.00847131
0.00847493
0.00848828
0.00844682
0.00840795
0.00826152
0.00783373
0.00716725
0.00600394
0.00513251
0.00514098
0.00462328
0.00452593
0.00444621
0.00443715
0.00442977
0.00443176
0.00443858
0.00444146
0.00444734
0.0044512
0.00445561
0.00446065
0.00446327
0.00446634
0.00446763
0.0044682
0.00446826
0.00446572
0.00446263
0.00445711
0.00445138
0.00444317
0.00443498
0.00442416
0.00858276
0.00861298
0.00860785
0.00861639
0.00861496
0.00861805
0.00861771
0.00861743
0.00861535
0.00861125
0.00860449
0.00859536
0.00858404
0.00857073
0.00855753
0.008546
0.00853657
0.0085289
0.00852553
0.00852051
0.0085004
0.00847949
0.00837512
0.0081279
0.00740716
0.0065037
0.00528787
0.00531253
0.00476493
0.00473017
0.0044792
0.00445489
0.0044287
0.0044288
0.00442762
0.00443304
0.00443707
0.00444042
0.00444586
0.0044484
0.00445379
0.00445563
0.00445915
0.00446128
0.00446301
0.00446428
0.00446448
0.00446173
0.00445898
0.00445284
0.00444745
0.0044393
0.00443107
0.0044205
0.00859728
0.00859371
0.00860332
0.00860532
0.00860721
0.00860937
0.0086089
0.00860719
0.00860516
0.00860039
0.00859466
0.00858626
0.00857585
0.00856242
0.00854683
0.00852768
0.00850398
0.0084709
0.00842092
0.00833618
0.0081789
0.00787754
0.00738604
0.00639199
0.00579549
0.00512246
0.00499675
0.00474642
0.00454537
0.00453991
0.00443632
0.00443186
0.0044264
0.00442801
0.00442866
0.00443426
0.00443567
0.00444055
0.00444369
0.0044483
0.00445127
0.00445452
0.00445783
0.00446038
0.00446184
0.00446253
0.00446151
0.00445899
0.00445548
0.00445068
0.00444491
0.00443754
0.00442871
0.00441857
0.00853802
0.00858312
0.00858082
0.00858912
0.00859177
0.0085898
0.00858904
0.00858348
0.0085757
0.00856529
0.00855193
0.0085355
0.00851398
0.00848511
0.00844732
0.00839434
0.00831769
0.00820017
0.00800463
0.00765971
0.0070433
0.00631463
0.00565298
0.00523622
0.00487304
0.00482138
0.0045848
0.00454794
0.00447212
0.0044491
0.00443215
0.00442807
0.00442792
0.00442944
0.00443135
0.00443493
0.00443677
0.00444079
0.00444363
0.00444683
0.00445009
0.0044534
0.00445633
0.00445811
0.00445922
0.00445958
0.00445801
0.0044569
0.00445348
0.00445013
0.00444419
0.00443753
0.00442859
0.00441881
0.00839245
0.00855716
0.00852678
0.00855555
0.00855246
0.00855507
0.00854659
0.00853288
0.00850843
0.00847857
0.00844009
0.00838848
0.00832088
0.00822901
0.00809883
0.0079052
0.00760262
0.00712152
0.00653262
0.00594662
0.0054893
0.00515669
0.00482519
0.00482163
0.00460582
0.00459827
0.00448366
0.00447103
0.00444702
0.00443267
0.00443185
0.00443024
0.00443149
0.00443338
0.00443422
0.00443708
0.00443875
0.00444149
0.00444399
0.00444741
0.00444996
0.00445218
0.00445424
0.00445545
0.004457
0.0044573
0.00445716
0.00445695
0.00445417
0.00445108
0.00444566
0.00443991
0.00443246
0.00442399
0.00816595
0.00829263
0.00837087
0.00846602
0.00843888
0.00845345
0.00843781
0.0084153
0.00835519
0.00828521
0.00818943
0.00805621
0.0078707
0.00760676
0.0072314
0.00674474
0.00621127
0.00573211
0.00532246
0.00501252
0.00484545
0.00466735
0.00466772
0.00453196
0.00453018
0.00446451
0.00446128
0.00444215
0.00444118
0.00443588
0.00443617
0.00443638
0.00443774
0.00443759
0.00443883
0.00444076
0.00444142
0.00444323
0.00444542
0.00444783
0.00444942
0.00445146
0.00445365
0.00445509
0.00445693
0.00445777
0.00445807
0.0044582
0.00445631
0.00445566
0.00445265
0.00444995
0.00444453
0.00443809
0.00752985
0.00791446
0.0077991
0.00809582
0.00805867
0.00810408
0.00810284
0.00807139
0.00797235
0.00782026
0.00761763
0.00734029
0.00695532
0.00651386
0.0060576
0.00563447
0.00526579
0.00495317
0.00476287
0.00462727
0.0046248
0.0045322
0.00453259
0.00447899
0.00447128
0.00445539
0.00444468
0.00444544
0.0044413
0.00444167
0.0044437
0.00444379
0.00444426
0.00444402
0.00444475
0.00444477
0.00444521
0.00444639
0.00444824
0.00444931
0.00445092
0.00445297
0.00445474
0.00445651
0.00445825
0.00445985
0.00446287
0.00446305
0.00446652
0.00446658
0.00446972
0.00446976
0.00446956
0.00446441
0.00594156
0.00634434
0.00662406
0.00685011
0.00687107
0.0069372
0.00696196
0.00694525
0.00685453
0.00666024
0.00642094
0.00614395
0.00582439
0.00550936
0.00522637
0.00494555
0.00474933
0.00462945
0.00457849
0.00452102
0.00452373
0.00448014
0.00447611
0.00445746
0.00445464
0.00444853
0.00444863
0.00444682
0.00445097
0.0044518
0.00445189
0.00445199
0.00445124
0.00445133
0.00445046
0.00445035
0.00444989
0.00445088
0.00445117
0.00445298
0.00445396
0.00445607
0.00445702
0.00445924
0.00446278
0.00446661
0.00447117
0.00448015
0.00448474
0.00449302
0.00449248
0.00450048
0.0045009
0.00450308
0.00487592
0.00502272
0.00517261
0.00529921
0.00543019
0.0054979
0.00555624
0.00554422
0.00555134
0.00549389
0.00536877
0.00521831
0.00505754
0.00489423
0.00473959
0.00461595
0.0045555
0.00450594
0.00449707
0.00447476
0.00447318
0.00445829
0.00445539
0.00445142
0.00445157
0.0044512
0.00445447
0.00445877
0.0044595
0.00446027
0.00446054
0.00445987
0.00446012
0.00445892
0.004459
0.00445798
0.00445805
0.0044577
0.00445882
0.00445823
0.00445987
0.00445895
0.00446521
0.00446914
0.00447644
0.00448427
0.00449036