/*--------------------------------*- C++ -*----------------------------------*\
  =========                 |
  \\      /  F ield         | OpenFOAM: The Open Source CFD Toolbox
   \\    /   O peration     | Website:  https://openfoam.org
    \\  /    A nd           | Version:  11
     \\/     M anipulation  |
\*---------------------------------------------------------------------------*/
FoamFile
{
    format      ascii;
    class       volScalarField;
    location    "7";
    object      mag(U);
}
// * * * * * * * * * * * * * * * * * * * * * * * * * * * * * * * * * * * * * //

dimensions      [0 1 -1 0 0 0 0];

internalField   nonuniform List<scalar> 
9600
(
0.966392
0.963548
0.960854
0.956228
0.949322
0.944511
0.94236
0.937899
0.930567
0.926799
0.926054
0.926951
0.929367
0.93261
0.937247
0.943972
0.955445
0.975089
0.988592
0.992005
0.989514
0.977473
0.953793
0.93008
0.908733
0.889022
0.869959
0.854647
0.845551
0.844258
0.854178
0.882638
0.923951
0.989086
1.08764
1.21315
1.30241
1.31806
1.30306
1.19278
0.969488
0.968279
0.965783
0.963447
0.960681
0.957443
0.954814
0.953872
0.952299
0.951671
0.952018
0.953338
0.956438
0.963385
0.970432
0.977469
0.991897
1.01105
1.02919
1.04494
1.05141
1.05111
1.04769
1.0384
1.01604
0.990048
0.964593
0.94177
0.924431
0.915003
0.913199
0.916706
0.935346
0.984846
1.06806
1.17826
1.30348
1.3849
1.39683
1.3381
0.968076
0.967074
0.964588
0.962269
0.960322
0.957286
0.954505
0.953396
0.952274
0.951765
0.952332
0.953917
0.956991
0.963838
0.972685
0.980985
0.992662
1.00813
1.02692
1.04772
1.06221
1.06605
1.06432
1.05644
1.03367
1.00584
0.979333
0.953796
0.931666
0.918121
0.915046
0.918949
0.937534
0.978144
1.03887
1.1245
1.24576
1.35077
1.38389
1.35441
0.967818
0.966686
0.963875
0.961616
0.959577
0.956369
0.953936
0.953015
0.951816
0.951117
0.951785
0.953727
0.957647
0.964399
0.973461
0.982099
0.99434
1.00942
1.02553
1.04527
1.06439
1.07437
1.07512
1.07022
1.05517
1.03215
1.00858
0.983461
0.960134
0.937291
0.924316
0.920641
0.93207
0.95837
1.02654
1.10235
1.20338
1.32455
1.4095
1.38414
0.966914
0.965719
0.96292
0.960636
0.958628
0.955831
0.954134
0.952984
0.951791
0.951444
0.952263
0.954297
0.958572
0.96457
0.972255
0.985021
0.997288
1.0111
1.02512
1.04144
1.06166
1.0785
1.08529
1.08363
1.07489
1.05383
1.02709
0.997408
0.970141
0.943678
0.928806
0.922428
0.929427
0.946812
1.00382
1.06337
1.1552
1.25754
1.4017
1.39226
0.966281
0.965003
0.962265
0.959644
0.957957
0.955719
0.953712
0.952521
0.951609
0.950886
0.951641
0.954138
0.958953
0.96501
0.972543
0.985622
0.998088
1.0113
1.02641
1.04262
1.06134
1.0787
1.08916
1.0897
1.08271
1.06493
1.04306
1.0144
0.989953
0.95975
0.938295
0.921729
0.926541
0.931615
0.977252
1.03281
1.13103
1.21163
1.37804
1.40098
0.965226
0.963951
0.96107
0.95866
0.957149
0.954961
0.953143
0.952063
0.951193
0.95101
0.952011
0.955002
0.958953
0.965444
0.973636
0.986402
0.998706
1.01267
1.02883
1.04418
1.0607
1.07755
1.09087
1.0941
1.09058
1.07622
1.05717
1.02629
1.00182
0.969074
0.947178
0.924263
0.92471
0.923716
0.957433
0.99475
1.09284
1.16393
1.33121
1.39621
0.964501
0.963193
0.96031
0.95799
0.956434
0.954389
0.952774
0.951785
0.951014
0.950934
0.951887
0.954671
0.959307
0.96605
0.974279
0.986239
0.999332
1.01379
1.03018
1.04503
1.06131
1.07704
1.09237
1.09745
1.09585
1.08251
1.06751
1.03627
1.01386
0.97908
0.957902
0.927687
0.923286
0.913946
0.937122
0.957998
1.04404
1.11215
1.2732
1.37717
0.963341
0.962002
0.959154
0.957011
0.955461
0.953661
0.952038
0.951379
0.95061
0.950771
0.951991
0.954956
0.959613
0.96672
0.975077
0.986962
1.00038
1.01464
1.03188
1.04733
1.06376
1.07667
1.09255
1.09926
1.10083
1.08881
1.07607
1.04622
1.0241
0.987234
0.966069
0.931224
0.922919
0.906695
0.923125
0.929262
0.99271
1.06189
1.20419
1.34527
0.96251
0.961148
0.958443
0.956238
0.954717
0.953034
0.951425
0.951053
0.950357
0.950655
0.951928
0.955311
0.95959
0.967175
0.975898
0.987143
1.0009
1.01577
1.03313
1.0489
1.06506
1.07712
1.09204
1.10051
1.10569
1.09555
1.08458
1.05617
1.03398
0.994678
0.973657
0.937241
0.925766
0.899482
0.905587
0.900183
0.937313
1.01438
1.11909
1.29834
0.961266
0.959879
0.957335
0.955314
0.953495
0.95218
0.950833
0.95029
0.950056
0.950747
0.951668
0.955575
0.960366
0.96754
0.976486
0.987213
1.00259
1.01741
1.0343
1.04895
1.06791
1.07924
1.09367
1.10098
1.10879
1.10058
1.0921
1.06606
1.04625
1.00538
0.983278
0.941534
0.926681
0.895142
0.890019
0.885542
0.892287
0.969824
1.03539
1.23192
0.960297
0.958906
0.956427
0.95436
0.952654
0.951353
0.9503
0.949613
0.949646
0.950706
0.951401
0.95554
0.960743
0.967638
0.977394
0.987809
1.00265
1.01793
1.03656
1.05085
1.06963
1.08091
1.09497
1.1012
1.11118
1.10543
1.09958
1.07623
1.05816
1.01782
0.993176
0.949203
0.929816
0.900674
0.872756
0.873739
0.859039
0.914955
0.954711
1.15751
0.95898
0.957616
0.955219
0.953149
0.951788
0.950406
0.949629
0.949365
0.948773
0.950405
0.952199
0.954851
0.960968
0.968203
0.978734
0.988044
1.00326
1.01844
1.03987
1.0527
1.07148
1.08212
1.09752
1.10291
1.11418
1.10961
1.1065
1.08518
1.06901
1.03094
1.00677
0.964111
0.930069
0.909257
0.863672
0.864319
0.841543
0.877472
0.90458
1.07921
0.957858
0.956509
0.954224
0.952141
0.950692
0.949692
0.948395
0.948364
0.948449
0.949455
0.95212
0.955127
0.960859
0.96827
0.979159
0.988511
1.00489
1.01884
1.04071
1.0545
1.07423
1.08455
1.10067
1.105
1.1167
1.11304
1.11281
1.09359
1.07973
1.04665
1.01811
0.983659
0.938408
0.916369
0.869813
0.858952
0.82919
0.839131
0.867158
0.968657
0.956465
0.955034
0.952939
0.950911
0.949365
0.949129
0.947476
0.947411
0.948067
0.949269
0.951663
0.955168
0.961573
0.967886
0.980087
0.989312
1.00653
1.01945
1.04233
1.05612
1.07749
1.08772
1.10388
1.107
1.11957
1.11688
1.11933
1.10185
1.08954
1.06432
1.02633
1.00183
0.955835
0.930886
0.87875
0.858899
0.828716
0.809414
0.844662
0.875885
0.95525
0.953799
0.951337
0.949913
0.947958
0.94762
0.946359
0.9463
0.946651
0.948722
0.951244
0.954693
0.961735
0.968224
0.980706
0.990165
1.00768
1.02025
1.04364
1.05793
1.07991
1.09006
1.10792
1.11019
1.12289
1.12049
1.12459
1.11281
1.09387
1.07931
1.04202
1.01715
0.970383
0.946757
0.898684
0.869293
0.840897
0.793098
0.795135
0.825622
0.953698
0.952377
0.949768
0.948942
0.946749
0.946717
0.944968
0.945639
0.946148
0.947792
0.951404
0.954211
0.962124
0.968261
0.982114
0.991233
1.00953
1.02199
1.04485
1.05928
1.08253
1.09283
1.1123
1.11504
1.12637
1.12682
1.12572
1.12619
1.10378
1.09144
1.0556
1.03445
0.989814
0.963824
0.91915
0.878586
0.857272
0.807663
0.767267
0.787052
0.952347
0.950833
0.948113
0.947119
0.94502
0.94505
0.943132
0.944043
0.944742
0.946414
0.951475
0.952949
0.962411
0.967803
0.982776
0.992065
1.0114
1.02425
1.04697
1.06029
1.08407
1.09593
1.11447
1.12251
1.12694
1.13626
1.1288
1.13321
1.11546
1.10513
1.07147
1.05056
1.00839
0.978221
0.941659
0.892836
0.870225
0.836365
0.772383
0.753575
0.950792
0.94944
0.946669
0.945706
0.943685
0.9432
0.942721
0.942159
0.944415
0.944685
0.951603
0.952946
0.963165
0.968318
0.98355
0.993202
1.01322
1.02672
1.04876
1.06513
1.08402
1.10155
1.11253
1.13113
1.13124
1.14274
1.13657
1.14153
1.12576
1.12013
1.09118
1.06568
1.03463
0.993198
0.965801
0.915504
0.885865
0.853571
0.8024
0.758112
0.948982
0.947419
0.944692
0.943126
0.941648
0.940547
0.94098
0.939958
0.94337
0.942511
0.94999
0.952049
0.963029
0.968466
0.983895
0.995069
1.01339
1.0312
1.04744
1.07162
1.083
1.10748
1.11496
1.13374
1.13675
1.14974
1.14454
1.1491
1.1391
1.12707
1.115
1.07981
1.05921
1.01532
0.985392
0.937354
0.90736
0.874539
0.830339
0.784708
0.947107
0.945356
0.943185
0.940567
0.940191
0.938755
0.939734
0.93802
0.942641
0.941932
0.949288
0.951525
0.962679
0.970582
0.983123
0.999917
1.01208
1.03741
1.04979
1.07491
1.08645
1.10952
1.1186
1.13827
1.14159
1.15572
1.15478
1.1564
1.15502
1.13829
1.13208
1.10294
1.07593
1.04457
1.01583
0.963051
0.931462
0.901604
0.86131
0.809431
0.944876
0.942499
0.940426
0.937503
0.937025
0.934967
0.937463
0.935022
0.939694
0.93994
0.946907
0.952042
0.959115
0.973422
0.981521
1.00202
1.01465
1.03853
1.05228
1.07839
1.09011
1.1133
1.12117
1.14182
1.14626
1.15982
1.16482
1.16381
1.16865
1.15341
1.14474
1.12972
1.09707
1.06461
1.04316
0.996129
0.956148
0.924368
0.893162
0.840475
0.942963
0.940335
0.938409
0.935268
0.935143
0.932385
0.935345
0.934309
0.936878
0.940699
0.943288
0.954605
0.958488
0.973989
0.983271
1.00441
1.01716
1.042
1.05621
1.082
1.09343
1.11778
1.12504
1.14577
1.15209
1.16412
1.17317
1.17287
1.17978
1.17419
1.15819
1.15172
1.12735
1.08828
1.06793
1.03221
0.98649
0.950116
0.925199
0.874731
0.939524
0.936476
0.935
0.931141
0.931521
0.929612
0.929053
0.932947
0.931649
0.93947
0.940265
0.951435
0.958001
0.9738
0.98327
1.0054
1.01872
1.04512
1.05841
1.08604
1.09653
1.1218
1.12886
1.1483
1.15783
1.1677
1.17926
1.18399
1.18654
1.19235
1.1782
1.16677
1.15803
1.11982
1.09156
1.0613
1.0277
0.979591
0.956688
0.909131
0.936886
0.934267
0.931904
0.930226
0.927456
0.929707
0.926871
0.930653
0.93152
0.936229
0.943325
0.949899
0.960765
0.973706
0.986955
1.00928
1.022
1.04926
1.0627
1.0908
1.10135
1.12402
1.13587
1.15146
1.16159
1.17491
1.18411
1.19296
1.19709
1.20301
1.20425
1.18679
1.18042
1.15877
1.12571
1.09129
1.06597
1.01704
0.993141
0.94351
0.93054
0.929835
0.925501
0.925627
0.922378
0.923163
0.924934
0.924472
0.930184
0.93156
0.941276
0.946314
0.961823
0.972335
0.988849
1.01123
1.02453
1.05343
1.06689
1.09394
1.10642
1.12792
1.13916
1.1544
1.16741
1.17775
1.18861
1.19925
1.20893
1.21131
1.21916
1.21465
1.20448
1.18753
1.16681
1.12738
1.10663
1.05794
1.03572
0.982286
0.926763
0.926543
0.922839
0.920328
0.922098
0.918968
0.923644
0.922564
0.930103
0.931766
0.942172
0.950664
0.960941
0.979473
0.990824
1.01659
1.03085
1.05928
1.07309
1.09811
1.1154
1.13083
1.14749
1.16015
1.17161
1.18306
1.19542
1.20403
1.21548
1.22703
1.2321
1.23476
1.23184
1.21765
1.21136
1.16984
1.15014
1.10271
1.08178
1.02903
0.920828
0.917186
0.916349
0.911639
0.914563
0.910546
0.916471
0.916775
0.921958
0.930368
0.935125
0.951608
0.959119
0.980806
0.99387
1.0196
1.03631
1.06143
1.08134
1.10109
1.12005
1.13664
1.14902
1.16557
1.17487
1.18843
1.19522
1.21216
1.22338
1.23464
1.24468
1.2481
1.26314
1.24656
1.24719
1.21488
1.20146
1.15302
1.13346
1.08052
0.918479
0.914002
0.91343
0.908455
0.910603
0.911254
0.910845
0.91871
0.918708
0.93179
0.936636
0.95228
0.963973
0.984258
0.999772
1.02315
1.0452
1.06798
1.08736
1.11056
1.12585
1.14307
1.1554
1.17216
1.17835
1.1901
1.20332
1.21388
1.22834
1.23594
1.26082
1.2631
1.28451
1.27394
1.28685
1.26016
1.25644
1.21279
1.19414
1.1388
0.908986
0.905449
0.901746
0.902411
0.898051
0.903431
0.902601
0.910322
0.914704
0.924143
0.935677
0.94754
0.965819
0.983127
1.00381
1.02666
1.04881
1.07242
1.09489
1.11367
1.13012
1.14712
1.16308
1.16949
1.18395
1.19177
1.20739
1.21131
1.23043
1.23772
1.26664
1.26953
1.30199
1.29731
1.32073
1.30308
1.31008
1.27638
1.26277
1.20934
0.900714
0.902281
0.897695
0.898227
0.898558
0.899846
0.905892
0.908476
0.918936
0.927785
0.941782
0.955816
0.974322
0.991124
1.01884
1.03689
1.06239
1.08323
1.10928
1.12007
1.14476
1.15372
1.17186
1.1747
1.19359
1.19568
1.21019
1.21418
1.23149
1.23902
1.2663
1.27335
1.3103
1.31432
1.35078
1.34399
1.36161
1.3401
1.33832
1.29237
0.886256
0.884012
0.883732
0.880419
0.885153
0.886374
0.893891
0.899127
0.913069
0.919981
0.941929
0.954021
0.978859
0.993428
1.02492
1.04056
1.07307
1.08764
1.11678
1.12569
1.15272
1.15738
1.17846
1.18054
1.19815
1.1998
1.21311
1.21667
1.22948
1.23824
1.25969
1.27154
1.30818
1.31803
1.36408
1.37245
1.41151
1.40114
1.41833
1.38153
0.882997
0.879997
0.88158
0.877039
0.885452
0.883842
0.897949
0.90075
0.919042
0.927564
0.950848
0.964675
0.992489
1.00896
1.04103
1.05666
1.08899
1.1041
1.13082
1.14153
1.16426
1.16972
1.18836
1.19133
1.20772
1.20913
1.22091
1.2233
1.23208
1.24018
1.25313
1.26654
1.29561
1.31355
1.36244
1.37575
1.43343
1.44553
1.49154
1.47894
0.86534
0.860102
0.865391
0.860685
0.87151
0.87307
0.887993
0.895802
0.91508
0.927999
0.954041
0.97124
0.997138
1.02086
1.04852
1.07239
1.09643
1.11865
1.13843
1.15378
1.1704
1.18156
1.1945
1.20176
1.2157
1.22047
1.23053
1.23363
1.23943
1.24359
1.24707
1.25618
1.26973
1.28758
1.32039
1.34546
1.39032
1.4271
1.46488
1.51926
0.852201
0.85218
0.857083
0.861877
0.867069
0.882285
0.891921
0.912497
0.926552
0.952791
0.970999
0.999731
1.0219
1.05176
1.07546
1.10359
1.12329
1.14916
1.16208
1.18261
1.19033
1.20664
1.21261
1.22581
1.23233
1.24233
1.24768
1.25208
1.24968
1.24741
1.23978
1.23638
1.2301
1.2321
1.22902
1.24119
1.24476
1.26298
1.26371
1.31197
0.821816
0.834055
0.834181
0.848045
0.854934
0.872266
0.888728
0.911003
0.932582
0.960258
0.984934
1.01424
1.04107
1.07002
1.09807
1.12254
1.14665
1.16625
1.18452
1.19867
1.2105
1.22019
1.22745
1.2349
1.24216
1.24868
1.25291
1.25314
1.24847
1.23905
1.21765
1.1971
1.15877
1.12325
1.07228
1.02415
0.953156
0.879009
0.762349
0.704137
0.816776
0.82765
0.842786
0.860325
0.881039
0.905052
0.930221
0.956226
0.984556
1.01173
1.04405
1.07093
1.10476
1.12991
1.16098
1.18137
1.20412
1.21693
1.22863
1.23149
1.2342
1.23315
1.23539
1.23427
1.24229
1.24022
1.24442
1.23438
1.22473
1.19628
1.15835
1.1039
1.02977
0.943873
0.826026
0.701236
0.50277
0.254358
0.127236
0.181911
0.783205
0.804319
0.822742
0.843758
0.867811
0.896708
0.929924
0.96458
1.00307
1.03729
1.07655
1.10668
1.14265
1.16614
1.19534
1.2097
1.2273
1.23066
1.23611
1.2295
1.22615
1.21742
1.21208
1.21458
1.21488
1.20643
1.19364
1.15485
1.11592
1.03524
0.96163
0.84576
0.718405
0.544463
0.361739
0.132077
0.111719
0.168888
0.128037
0.112102
0.838151
0.881195
0.923445
0.964273
1.00443
1.04045
1.07958
1.11106
1.14809
1.17268
1.20366
1.21907
1.24138
1.2463
1.26265
1.25863
1.26576
1.24909
1.24265
1.21283
1.19534
1.15593
1.1395
1.0998
1.07865
1.02066
0.963554
0.847216
0.681615
0.485871
0.294366
0.18285
0.111692
0.0850289
0.121533
0.164606
0.203442
0.226886
0.213954
0.216282
0.948912
0.985844
1.01877
1.05402
1.08788
1.11842
1.14549
1.16729
1.18359
1.19494
1.20465
1.20071
1.20491
1.19163
1.19057
1.16249
1.14942
1.10213
1.07238
1.00459
0.957326
0.866025
0.801609
0.688766
0.637553
0.416886
0.0694161
0.15809
0.106053
0.154909
0.198315
0.216333
0.219902
0.227724
0.227718
0.216493
0.209551
0.205133
0.201174
0.20583
1.26831
1.33488
1.23955
0.968888
0.780892
0.725161
0.749927
0.826474
0.943668
0.985588
0.993196
1.00214
1.00861
1.01185
1.01428
1.01626
1.01719
1.01778
1.01814
1.01817
1.01823
1.01788
1.01792
1.01724
1.01721
1.01658
1.01631
1.01582
1.01554
1.01521
1.01497
1.01461
1.01422
1.01395
1.01354
1.01335
1.01288
1.01291
1.01314
1.01513
1.34078
1.39102
1.24572
0.934249
0.734651
0.688299
0.728648
0.802077
0.926079
0.977083
0.990574
1.00062
1.00773
1.0117
1.01428
1.01667
1.01769
1.01837
1.01866
1.01866
1.01878
1.01833
1.01852
1.01779
1.01778
1.01708
1.01688
1.01629
1.01604
1.01563
1.01552
1.01516
1.01488
1.01454
1.01412
1.01389
1.01337
1.01319
1.0124
1.01003
1.38202
1.43977
1.25013
0.902721
0.687724
0.649183
0.707957
0.793908
0.917877
0.969408
0.988627
1.0003
1.00767
1.01251
1.01477
1.01751
1.01861
1.01921
1.0196
1.01934
1.01953
1.01902
1.01921
1.0185
1.01848
1.01764
1.01756
1.01684
1.0167
1.01612
1.01617
1.01572
1.01553
1.01507
1.01461
1.01427
1.01388
1.01383
1.01403
1.01593
1.46569
1.47654
1.23968
0.837988
0.621407
0.604602
0.685143
0.774842
0.905808
0.962619
0.986085
1.00018
1.0074
1.01298
1.01505
1.01805
1.01902
1.01982
1.0202
1.01993
1.02027
1.01955
1.0196
1.01896
1.01888
1.01819
1.01799
1.01732
1.01712
1.01655
1.01654
1.01617
1.01602
1.01555
1.01505
1.01452
1.01405
1.01388
1.01308
1.01133
1.52406
1.49901
1.2072
0.763808
0.555939
0.565361
0.667858
0.773093
0.901016
0.957136
0.984246
1.00124
1.00777
1.0143
1.01581
1.01909
1.02
1.02085
1.02128
1.02098
1.02118
1.02056
1.02038
1.01969
1.01942
1.01884
1.01858
1.01789
1.01757
1.01694
1.01684
1.01644
1.01633
1.01584
1.01553
1.01512
1.01477
1.01458
1.01452
1.01549
1.57085
1.5084
1.15566
0.672926
0.48758
0.533609
0.655462
0.764653
0.895612
0.95443
0.983615
1.00245
1.00821
1.01546
1.01656
1.01992
1.0203
1.02166
1.02181
1.02175
1.02172
1.02135
1.02094
1.02059
1.02003
1.01976
1.0192
1.01871
1.01818
1.0176
1.01732
1.01693
1.01677
1.01631
1.01603
1.01536
1.01506
1.01469
1.01415
1.01287
1.59387
1.51619
1.10448
0.608865
0.454874
0.526304
0.658564
0.776745
0.896659
0.953196
0.984317
1.00451
1.00962
1.01761
1.01786
1.02154
1.02132
1.02287
1.02238
1.02289
1.02233
1.02246
1.02167
1.02163
1.02079
1.02082
1.02008
1.01983
1.0191
1.01862
1.01805
1.01768
1.01747
1.01715
1.01688
1.01631
1.01592
1.01542
1.01526
1.01533
1.59594
1.52086
1.08505
0.599334
0.469264
0.545974
0.673657
0.785144
0.900804
0.955928
0.987559
1.00761
1.01183
1.01997
1.01951
1.02324
1.02208
1.02405
1.02277
1.0239
1.02266
1.0233
1.02208
1.02246
1.02125
1.02154
1.02059
1.02063
1.01971
1.01944
1.01872
1.01832
1.01798
1.01753
1.01718
1.01666
1.01628
1.01567
1.01544
1.01441
1.57904
1.52843
1.11106
0.675665
0.546659
0.595025
0.708785
0.812864
0.910314
0.961389
0.992534
1.01238
1.01535
1.02348
1.02194
1.02573
1.0239
1.02613
1.0239
1.02546
1.02345
1.02436
1.02268
1.02317
1.02182
1.02221
1.02102
1.0212
1.02007
1.01995
1.01898
1.01884
1.01839
1.01828
1.01793
1.01767
1.01716
1.01658
1.01625
1.01581
1.54016
1.51387
1.17026
0.788249
0.65057
0.661179
0.74994
0.836293
0.925775
0.972284
1.00043
1.01838
1.01944
1.02709
1.02467
1.02831
1.02572
1.02807
1.02526
1.02685
1.02456
1.02552
1.02367
1.02417
1.02272
1.02304
1.02178
1.02203
1.02079
1.02085
1.01965
1.01955
1.01866
1.01865
1.01818
1.01813
1.01761
1.01711
1.01685
1.01613
1.48944
1.47876
1.21569
0.901665
0.756846
0.732651
0.801281
0.871913
0.944137
0.986245
1.01038
1.02632
1.02515
1.03195
1.02813
1.03139
1.02822
1.03041
1.02722
1.02872
1.02622
1.02721
1.02528
1.02582
1.0242
1.02448
1.02317
1.02333
1.0221
1.02212
1.02092
1.02084
1.01979
1.01977
1.01907
1.01911
1.0185
1.01816
1.01732
1.01703
1.40914
1.40936
1.21956
0.982158
0.831028
0.796576
0.84441
0.903466
0.968841
1.00654
1.02405
1.0361
1.03227
1.03698
1.03177
1.03425
1.03033
1.03245
1.02903
1.03057
1.0279
1.02887
1.02672
1.02725
1.02539
1.02563
1.02416
1.02431
1.02301
1.02294
1.0217
1.02151
1.02033
1.0201
1.01931
1.01938
1.01872
1.01872
1.01806
1.01782
1.30849
1.33218
1.19372
1.01324
0.872578
0.848324
0.888592
0.942576
0.994874
1.03063
1.04068
1.04943
1.04198
1.04387
1.03685
1.03797
1.03332
1.03489
1.03113
1.03241
1.02948
1.03028
1.02789
1.02831
1.02624
1.0264
1.02474
1.02484
1.02356
1.02358
1.02244
1.02228
1.02112
1.02086
1.02
1.01991
1.01928
1.01941
1.01878
1.01839
1.19884
1.23676
1.14457
1.00997
0.888137
0.882191
0.928175
0.980865
1.02865
1.05936
1.06194
1.06518
1.0533
1.05217
1.04317
1.04215
1.03686
1.03737
1.0333
1.03408
1.03101
1.03153
1.02902
1.02933
1.02716
1.02729
1.02552
1.02559
1.02426
1.02421
1.02315
1.02284
1.02184
1.02149
1.02064
1.02039
1.01977
1.01968
1.0193
1.01923
1.08014
1.12357
1.07771
0.967669
0.889765
0.900049
0.956033
1.0182
1.06364
1.08891
1.08811
1.08377
1.06761
1.06349
1.05191
1.04805
1.04214
1.04116
1.03669
1.03681
1.03378
1.03379
1.03147
1.03146
1.02932
1.02922
1.02753
1.02733
1.02631
1.02595
1.02519
1.02449
1.02378
1.02315
1.02245
1.02179
1.02104
1.0205
1.01983
1.01975
0.939425
0.994915
0.993472
0.907735
0.874074
0.89773
0.959994
1.04346
1.10876
1.12246
1.11861
1.10413
1.08347
1.07535
1.06167
1.05422
1.04796
1.04555
1.04095
1.04017
1.03731
1.03654
1.03476
1.03402
1.03233
1.03145
1.03021
1.02904
1.02849
1.02725
1.02691
1.0256
1.02532
1.02425
1.02393
1.0229
1.02249
1.02148
1.02076
1.02035
0.809861
0.87887
0.903439
0.847772
0.835363
0.875841
0.951093
1.056
1.13771
1.16141
1.15072
1.12853
1.10007
1.08831
1.07218
1.06106
1.05421
1.04992
1.04531
1.043
1.0407
1.03849
1.03738
1.03546
1.03463
1.03259
1.03207
1.03008
1.02989
1.0283
1.02823
1.02681
1.02659
1.02523
1.02495
1.02379
1.02345
1.02253
1.02194
1.02124
0.722617
0.791029
0.820643
0.780248
0.771831
0.826788
0.916118
1.04911
1.15576
1.20343
1.18491
1.15717
1.11631
1.10246
1.08275
1.06827
1.05996
1.0537
1.04893
1.04501
1.04313
1.03946
1.03893
1.03589
1.03566
1.03304
1.03279
1.03061
1.03031
1.02869
1.02854
1.02717
1.02702
1.02579
1.0255
1.02441
1.02402
1.02312
1.02284
1.02228
0.705745
0.749681
0.751716
0.714386
0.701608
0.757569
0.855372
1.01047
1.15789
1.2347
1.22618
1.19013
1.13711
1.11906
1.09638
1.07848
1.068
1.05998
1.05385
1.04926
1.04659
1.04227
1.04141
1.03818
1.03776
1.03539
1.0348
1.03277
1.03204
1.03044
1.02977
1.02847
1.0278
1.02705
1.02634
1.02573
1.02487
1.02428
1.02374
1.02338
0.734781
0.752229
0.72855
0.675139
0.655327
0.697752
0.779618
0.935441
1.13123
1.24146
1.26767
1.22578
1.16313
1.13337
1.11236
1.08988
1.07782
1.06861
1.06024
1.05629
1.05162
1.04789
1.04575
1.04275
1.04125
1.03961
1.03804
1.03666
1.03504
1.03373
1.03227
1.03128
1.02986
1.02921
1.02785
1.02747
1.02614
1.02581
1.02472
1.02454
0.77868
0.778873
0.753508
0.704328
0.674742
0.696748
0.732674
0.859257
1.06644
1.22787
1.28198
1.26498
1.18844
1.14516
1.12636
1.10014
1.08668
1.07591
1.06608
1.06191
1.05607
1.05247
1.04954
1.04691
1.04438
1.043
1.04107
1.03986
1.03839
1.03687
1.03542
1.03432
1.03292
1.03192
1.03034
1.02952
1.02817
1.02744
1.02641
1.02608
0.817328
0.81102
0.795244
0.759308
0.755201
0.776403
0.78062
0.841856
0.97941
1.17484
1.26858
1.28654
1.21226
1.1578
1.13403
1.10922
1.09217
1.08106
1.0707
1.0646
1.05944
1.05439
1.05153
1.04861
1.0458
1.0443
1.04219
1.04111
1.03974
1.03824
1.03729
1.03574
1.035
1.03345
1.03262
1.03104
1.03002
1.02873
1.02791
1.02735
0.853427
0.844519
0.840659
0.816037
0.816057
0.842958
0.865774
0.890594
0.938096
1.0622
1.22178
1.27202
1.23809
1.16879
1.13893
1.12051
1.09865
1.08853
1.07747
1.06936
1.06439
1.0578
1.05483
1.05143
1.04831
1.04608
1.04391
1.04221
1.04126
1.0394
1.03895
1.03708
1.03673
1.03489
1.03442
1.03268
1.03214
1.0306
1.0301
1.0293
0.888859
0.877947
0.884102
0.869615
0.865917
0.883557
0.904514
0.918067
0.934856
0.975195
1.10066
1.21952
1.24028
1.17512
1.14026
1.12739
1.10772
1.09653
1.08683
1.07746
1.07217
1.06536
1.06053
1.05744
1.05324
1.05107
1.04764
1.04577
1.04385
1.04203
1.0411
1.03914
1.03859
1.03672
1.03627
1.03449
1.03403
1.03244
1.03196
1.031
0.931684
0.919179
0.927136
0.924791
0.912637
0.917749
0.923542
0.922949
0.92468
0.931877
0.959332
1.10883
1.19327
1.1725
1.13222
1.12282
1.11088
1.09799
1.0934
1.08319
1.07837
1.07285
1.06753
1.06465
1.0604
1.05836
1.05437
1.05225
1.04928
1.04693
1.0454
1.04304
1.04204
1.04001
1.03915
1.03733
1.03663
1.035
1.03439
1.03346
0.975637
0.969762
0.972632
0.980847
0.964857
0.95374
0.944136
0.920982
0.905313
0.886922
0.875082
0.950727
1.10346
1.14696
1.11301
1.10389
1.1033
1.09266
1.09082
1.08413
1.07938
1.07587
1.07051
1.06767
1.06355
1.06158
1.05895
1.05692
1.05481
1.05202
1.0505
1.0477
1.04648
1.04406
1.04279
1.04073
1.03942
1.03763
1.03654
1.0355
1.02166
1.02687
1.02932
1.03957
1.02689
1.00442
0.976864
0.924723
0.876091
0.842271
0.79222
0.798444
0.974989
1.07736
1.08269
1.07696
1.08804
1.08206
1.08192
1.08196
1.07681
1.07639
1.07148
1.06954
1.06528
1.06321
1.06085
1.05901
1.05771
1.05548
1.05423
1.05205
1.0505
1.04868
1.04671
1.04522
1.04324
1.04183
1.04025
1.03957
1.07615
1.08555
1.09944
1.10516
1.09763
1.07933
1.00935
0.926823
0.836079
0.780087
0.713758
0.666103
0.804642
0.977301
1.03505
1.04046
1.06236
1.06807
1.06986
1.07653
1.07335
1.07516
1.07288
1.07235
1.06946
1.0667
1.06383
1.06118
1.05972
1.05781
1.05678
1.05489
1.05312
1.05171
1.04934
1.04821
1.04584
1.04476
1.04285
1.04215
1.13886
1.1525
1.17783
1.18225
1.18337
1.12115
1.01234
0.900666
0.774529
0.68269
0.614505
0.546925
0.63459
0.857274
0.950479
0.987866
1.02342
1.04715
1.05292
1.06604
1.06726
1.0726
1.07214
1.07272
1.0723
1.07131
1.06988
1.06702
1.06462
1.06208
1.06072
1.05896
1.05722
1.05555
1.05377
1.05232
1.05045
1.04904
1.04754
1.04673
1.20896
1.23484
1.26353
1.27209
1.23145
1.12631
0.98222
0.818881
0.664299
0.5386
0.469245
0.413454
0.476601
0.721315
0.85236
0.919708
0.970849
1.00711
1.02597
1.04576
1.05375
1.06377
1.06806
1.07002
1.07178
1.07184
1.0717
1.07113
1.07022
1.06831
1.06551
1.06349
1.06156
1.05913
1.05751
1.05529
1.05354
1.05139
1.0502
1.04933
1.30353
1.33802
1.35821
1.35512
1.25416
1.08486
0.876146
0.657366
0.468881
0.331242
0.281535
0.295505
0.360772
0.603261
0.756186
0.832577
0.909207
0.952429
0.990088
1.01743
1.03246
1.04667
1.05673
1.06259
1.06737
1.06958
1.07099
1.07143
1.07165
1.0712
1.07052
1.06906
1.06771
1.06567
1.0637
1.06146
1.05914
1.05735
1.05562
1.05478
1.42067
1.45407
1.44911
1.36668
1.17738
0.914439
0.623348
0.372515
0.187914
0.133597
0.215967
0.301493
0.353425
0.530876
0.670573
0.753739
0.851938
0.895565
0.941453
0.979473
1.0003
1.02059
1.03478
1.04671
1.0546
1.06146
1.06569
1.06822
1.0705
1.07115
1.07196
1.07128
1.0705
1.06938
1.06742
1.06616
1.06393
1.06297
1.06134
1.06093
1.52949
1.51498
1.43707
1.24879
0.917858
0.582862
0.323364
0.252095
0.35657
0.413957
0.465313
0.463769
0.438796
0.535537
0.635743
0.706057
0.79801
0.849919
0.897693
0.939996
0.965779
0.994172
1.00863
1.02984
1.03897
1.04999
1.05852
1.06271
1.06811
1.07033
1.0737
1.07473
1.07564
1.07539
1.07432
1.07415
1.0726
1.07217
1.07045
1.07
1.5029
1.40828
1.16373
0.849883
0.643243
0.617898
0.697268
0.761355
0.791914
0.781761
0.740877
0.632516
0.578244
0.617135
0.658668
0.715897
0.780082
0.829034
0.878507
0.91564
0.949607
0.97903
0.998585
1.01833
1.03374
1.04381
1.05475
1.05999
1.06718
1.06988
1.07385
1.07635
1.07716
1.07924
1.07789
1.079
1.07713
1.07795
1.07674
1.07641
1.18322
0.884512
0.734125
0.787271
0.900249
0.991226
1.03603
1.04611
1.02251
0.934224
0.840909
0.761461
0.740242
0.747956
0.746653
0.788861
0.813845
0.856049
0.891218
0.922556
0.953478
0.972371
1.00158
1.01132
1.03286
1.0418
1.05248
1.06062
1.06631
1.07309
1.07457
1.08082
1.0801
1.08436
1.08286
1.08584
1.08427
1.08557
1.08439
1.08432
0.543497
0.607416
0.701101
0.840788
0.917825
0.972076
0.987509
0.981619
0.918333
0.871244
0.849429
0.80961
0.803038
0.808313
0.815672
0.845555
0.867383
0.893249
0.915501
0.939091
0.962944
0.977228
0.997888
1.00979
1.0251
1.03575
1.04685
1.05687
1.06322
1.07271
1.0759
1.08314
1.08486
1.09034
1.09067
1.09489
1.09484
1.09528
1.09316
1.09461
0.295064
0.417758
0.504955
0.611746
0.690522
0.743541
0.752937
0.751704
0.760855
0.78419
0.774372
0.764399
0.787018
0.802219
0.819463
0.850146
0.875642
0.904247
0.924963
0.950498
0.967604
0.990109
1.00353
1.02184
1.03672
1.04914
1.06363
1.07032
1.08108
1.08614
1.09619
1.10021
1.11098
1.11527
1.12221
1.12565
1.12773
1.13061
1.13241
1.13198
0.241759
0.315195
0.365677
0.371836
0.411482
0.43174
0.458832
0.491771
0.49023
0.49751
0.511385
0.53271
0.568884
0.61725
0.666657
0.720783
0.785399
0.836818
0.881787
0.928219
0.959449
0.994728
1.01729
1.04143
1.05844
1.07274
1.08735
1.09639
1.10904
1.11437
1.12206
1.12413
1.12827
1.128
1.12951
1.13095
1.13189
1.13741
1.14125
1.15489
0.236176
0.284073
0.279255
0.281586
0.285782
0.267296
0.224096
0.133012
0.151954
0.25847
0.262521
0.253692
0.280952
0.320004
0.385523
0.449648
0.519135
0.603137
0.691816
0.779768
0.855436
0.893751
0.947097
0.976603
1.01904
1.03941
1.07156
1.08843
1.11374
1.13276
1.15504
1.17375
1.19301
1.2093
1.22314
1.23639
1.2459
1.25467
1.25874
1.25995
0.228266
0.251508
0.261929
0.280292
0.317615
0.35556
0.395234
0.426393
0.45083
0.459554
0.452405
0.438156
0.42728
0.408035
0.38439
0.347776
0.303473
0.247705
0.179905
0.135378
0.302619
0.049415
0.498429
0.533331
0.579864
0.621222
0.653512
0.71104
0.741535
0.806406
0.839962
0.90593
0.940343
1.00049
1.03181
1.08534
1.11908
1.17908
1.22698
1.29636
1.0214
1.0213
1.02162
1.02081
1.02068
1.01895
1.01772
1.01481
1.01188
1.00704
1.00185
0.995178
0.990162
0.987073
0.988341
0.993084
1.0015
1.00949
1.01498
1.01501
1.01483
1.01439
1.01421
1.0141
1.01404
1.01396
1.01385
1.01371
1.01355
1.01336
1.01315
1.01293
1.01267
1.01237
1.01205
1.01173
1.01138
1.01099
1.01056
1.01029
1.00444
1.00537
1.00522
1.00662
1.00721
1.00943
1.01105
1.01448
1.01738
1.02173
1.0252
1.02907
1.03014
1.03053
1.02962
1.02659
1.02079
1.0161
1.01493
1.01495
1.01517
1.01538
1.0155
1.01553
1.01548
1.01528
1.01504
1.01481
1.01456
1.01432
1.0141
1.01386
1.01354
1.01319
1.01284
1.01243
1.01199
1.01154
1.01107
1.01086
1.01981
1.01964
1.0195
1.01862
1.01795
1.01616
1.01468
1.01202
1.00997
1.00709
1.00579
1.00572
1.00769
1.00931
1.01137
1.01238
1.01312
1.01337
1.01384
1.01442
1.01477
1.01504
1.0152
1.01529
1.0153
1.01527
1.01509
1.01492
1.01471
1.0146
1.01434
1.01408
1.01374
1.01344
1.01303
1.01273
1.01238
1.01199
1.01166
1.0115
1.00801
1.00947
1.01035
1.01204
1.01344
1.01574
1.0176
1.02046
1.02252
1.02532
1.02658
1.02739
1.02754
1.02728
1.02591
1.02376
1.02143
1.01909
1.01752
1.01689
1.01669
1.0166
1.01647
1.01635
1.01611
1.01579
1.01553
1.01528
1.01505
1.01489
1.01463
1.0144
1.01412
1.01376
1.01338
1.01295
1.01264
1.01218
1.01186
1.01174
1.01767
1.0174
1.01684
1.01597
1.01499
1.0137
1.01257
1.01121
1.01057
1.01023
1.01106
1.01174
1.01274
1.01332
1.01388
1.01425
1.01482
1.01504
1.01537
1.01545
1.01539
1.01552
1.01566
1.01587
1.01579
1.01563
1.01544
1.01539
1.01523
1.01504
1.01479
1.01463
1.01426
1.01395
1.01356
1.01329
1.01301
1.01269
1.01238
1.01226
1.01129
1.01299
1.01387
1.01551
1.0166
1.01817
1.01927
1.02078
1.02176
1.02308
1.02363
1.02412
1.02417
1.02379
1.023
1.02191
1.0207
1.01974
1.0191
1.01838
1.01774
1.01744
1.01725
1.01708
1.01665
1.01622
1.01592
1.01564
1.01547
1.01522
1.01499
1.01486
1.01452
1.01411
1.01367
1.01332
1.01309
1.01274
1.0125
1.01235
1.01624
1.01585
1.01527
1.01475
1.01415
1.01361
1.01319
1.01297
1.01308
1.01342
1.01414
1.01467
1.01511
1.01544
1.01565
1.01588
1.01611
1.01636
1.01637
1.01634
1.01625
1.01634
1.01647
1.01644
1.01633
1.01621
1.01602
1.01592
1.01573
1.01559
1.01532
1.01503
1.01474
1.01437
1.01398
1.01374
1.01352
1.0133
1.01298
1.01278
1.01385
1.01532
1.01596
1.01723
1.01783
1.01889
1.01945
1.02038
1.02091
1.02159
1.02184
1.02204
1.02185
1.02158
1.02106
1.02053
1.02013
1.01988
1.01953
1.01884
1.01826
1.01807
1.01797
1.01762
1.01705
1.01674
1.01642
1.01615
1.01594
1.0158
1.01569
1.01536
1.01493
1.01451
1.01404
1.01374
1.01352
1.01332
1.01306
1.01279
1.01587
1.01573
1.01556
1.01555
1.01556
1.01564
1.01567
1.01587
1.016
1.01625
1.01641
1.01665
1.01681
1.01704
1.01711
1.01725
1.01741
1.01753
1.0175
1.01739
1.01734
1.01732
1.0173
1.01724
1.0171
1.01692
1.01678
1.01664
1.01632
1.01608
1.01593
1.01569
1.01534
1.0149