/*--------------------------------*- C++ -*----------------------------------*\
  =========                 |
  \\      /  F ield         | OpenFOAM: The Open Source CFD Toolbox
   \\    /   O peration     | Website:  https://openfoam.org
    \\  /    A nd           | Version:  11
     \\/     M anipulation  |
\*---------------------------------------------------------------------------*/
FoamFile
{
    format      ascii;
    class       volScalarField;
    location    "7";
    object      p;
}
// * * * * * * * * * * * * * * * * * * * * * * * * * * * * * * * * * * * * * //

dimensions      [0 2 -2 0 0 0 0];

internalField   nonuniform List<scalar> 
9600
(
0.0798021
0.081486
0.0841838
0.0875944
0.0913813
0.0953656
0.0994212
0.103465
0.107319
0.110806
0.113922
0.116212
0.117107
0.116106
0.113007
0.107745
0.0997099
0.0887973
0.0756886
0.0611249
0.0460966
0.0334122
0.0232856
0.0159204
0.0133451
0.0146964
0.0186491
0.0251767
0.0331512
0.0433276
0.0541952
0.0649048
0.0726001
0.0751474
0.0682818
0.045048
0.0039458
-0.0343074
-0.0649886
-0.0679538
0.0806939
0.0830765
0.0863723
0.090071
0.093947
0.0978916
0.101822
0.105675
0.10927
0.112511
0.115232
0.11699
0.117173
0.115719
0.112323
0.106758
0.0985168
0.0876341
0.0747802
0.0607609
0.0462432
0.033688
0.0237289
0.01642
0.0133399
0.0140831
0.0171442
0.0227555
0.0298308
0.0382144
0.0491832
0.0604284
0.0700539
0.0757935
0.074959
0.0619578
0.029368
-0.0122947
-0.0548703
-0.0729852
0.0814487
0.0840581
0.0873997
0.0909315
0.0945967
0.0983596
0.102167
0.105909
0.109387
0.112461
0.11506
0.116706
0.116969
0.115502
0.112001
0.106383
0.098168
0.0873793
0.0746186
0.0606499
0.046475
0.0340144
0.0238441
0.0163381
0.0130635
0.0136534
0.0167147
0.0224403
0.0297386
0.038417
0.0477999
0.0592477
0.0683278
0.0742223
0.0751229
0.0649401
0.0360452
-0.000464956
-0.0425992
-0.0728041
0.082441
0.0853255
0.0889234
0.0926463
0.0964381
0.100285
0.104079
0.107719
0.111075
0.114029
0.116398
0.117634
0.117265
0.115381
0.111669
0.10583
0.0974488
0.0866343
0.0739122
0.0601923
0.046273
0.0340532
0.0239859
0.0163473
0.0127072
0.0129359
0.0153785
0.0202653
0.0266783
0.0345758
0.0436898
0.0552918
0.065809
0.0729765
0.0767961
0.0716306
0.0501309
0.0152415
-0.0269125
-0.0710169
0.0836095
0.0867006
0.0904536
0.0941728
0.0978263
0.101444
0.105001
0.108447
0.111587
0.114253
0.116299
0.117389
0.117087
0.115192
0.111322
0.105339
0.0969202
0.0861351
0.0735115
0.0599857
0.0462712
0.0340949
0.0240657
0.0163694
0.012187
0.0120279
0.0143895
0.0192858
0.02587
0.0337271
0.0418702
0.0520329
0.0629772
0.0712197
0.0764154
0.0745868
0.0598416
0.0274062
-0.0103709
-0.0628102
0.0849043
0.0881477
0.0920006
0.0957101
0.0992787
0.102834
0.106365
0.109749
0.112821
0.115444
0.117428
0.118233
0.117455
0.115178
0.111108
0.104962
0.0964293
0.0856162
0.0729846
0.0595409
0.0459436
0.033886
0.0238286
0.0162203
0.0116659
0.0111021
0.0130534
0.0173376
0.023292
0.0306012
0.0387963
0.0483651
0.0589885
0.0687961
0.0764092
0.0765173
0.068156
0.0409755
0.0045341
-0.0488863
0.0863074
0.0896601
0.0935831
0.0972677
0.100769
0.104264
0.10768
0.1109
0.113775
0.116109
0.117702
0.118239
0.117434
0.115092
0.110859
0.10457
0.0959454
0.0850757
0.0724305
0.0591096
0.0456575
0.0337005
0.0235813
0.0159223
0.01108
0.00998934
0.011575
0.0156507
0.0215984
0.0288803
0.036719
0.045429
0.0547666
0.0655087
0.0750939
0.0769164
0.0736687
0.0537881
0.0179749
-0.0287853
0.0878045
0.0912409
0.0951952
0.0988401
0.102293
0.105702
0.108982
0.11206
0.114782
0.116971
0.118452
0.118908
0.117804
0.115181
0.110735
0.104281
0.0955092
0.0845609
0.0719046
0.0586481
0.0452632
0.0333042
0.0231516
0.0154128
0.0104441
0.0088619
0.0100576
0.0136719
0.0192301
0.026019
0.0337147
0.0415472
0.0504868
0.0612581
0.0722473
0.0767556
0.077311
0.0655249
0.0323843
-0.00756572
0.0893867
0.0928785
0.0968326
0.100443
0.103838
0.10715
0.110311
0.113246
0.11583
0.117871
0.119141
0.119298
0.11803
0.115234
0.110594
0.103966
0.0950597
0.0840324
0.0713208
0.0580735
0.0447506
0.0328169
0.0226827
0.0147926
0.00970189
0.00759869
0.00828469
0.0114502
0.0169086
0.0234721
0.0311064
0.0388309
0.0470466
0.0566418
0.0677755
0.0752663
0.0776895
0.0741149
0.0463873
0.0132225
0.0910428
0.0945663
0.0985046
0.102079
0.105407
0.108621
0.111667
0.114474
0.116916
0.118785
0.119874
0.119835
0.118374
0.115381
0.11053
0.103724
0.0946666
0.0835074
0.0706999
0.0574377
0.0441855
0.0322526
0.0221266
0.0140462
0.00877768
0.0062887
0.00653766
0.00924441
0.0143405
0.020548
0.0280239
0.0356407
0.0435251
0.052209
0.0625413
0.0725599
0.0754353
0.0787757
0.05851
0.0331488
0.0927675
0.0963035
0.100223
0.103748
0.107001
0.11012
0.11306
0.115753
0.118054
0.119737
0.120645
0.120444
0.118771
0.115573
0.110508
0.103493
0.0942495
0.0829447
0.0700415
0.0567316
0.0435041
0.0315114
0.0214136
0.0131592
0.00774092
0.004883
0.00467743
0.0067772
0.0113911
0.0174092
0.0247913
0.0323702
0.0400801
0.048203
0.0573185
0.0679236
0.0714144
0.0790631
0.066876
0.0498485
0.0945605
0.0980952
0.101986
0.105457
0.10863
0.111654
0.114504
0.117088
0.119244
0.120769
0.121463
0.121117
0.119247
0.115827
0.110521
0.103268
0.093841
0.0823598
0.0693298
0.055925
0.0427312
0.0306904
0.0206146
0.0122482
0.00657415
0.00331493
0.0027249
0.00427961
0.00832295
0.0140424
0.0212621
0.0287229
0.036238
0.0441093
0.0521612
0.0616582
0.0669596
0.0760797
0.0718062
0.0604366
0.0964288
0.0999474
0.103795
0.107205
0.110302
0.113243
0.116008
0.118489
0.120507
0.121866
0.122367
0.121861
0.119768
0.116121
0.110578
0.103062
0.0934071
0.0817238
0.0685596
0.0550194
0.0418566
0.029736
0.0196588
0.0112053
0.00530686
0.00166899
0.000704075
0.00165065
0.00506083
0.0103147
0.0172806
0.0247822
0.0321154
0.0397253
0.0472421
0.0551355
0.062633
0.0707058
0.0731731
0.065728
0.098381
0.10186
0.105651
0.109002
0.112031
0.114894
0.117599
0.119977
0.121847
0.123057
0.123416
0.122665
0.120362
0.116467
0.110676
0.102852
0.0929413
0.0810343
0.0677194
0.0539982
0.0408634
0.0286565
0.0185693
0.0100645
0.00394592
-7.20066e-05
-0.00150657
-0.00115936
0.00168831
0.0063767
0.0129363
0.0204907
0.0276586
0.034991
0.0424642
0.0489674
0.0575912
0.064706
0.0710322
0.0680522
0.10041
0.10382
0.107561
0.11087
0.113837
0.116635
0.119278
0.121549
0.123286
0.124347
0.124489
0.12356
0.121025
0.116855
0.110789
0.102639
0.0924348
0.0802565
0.0667897
0.0528444
0.0397281
0.0274571
0.017343
0.00880707
0.00242998
-0.00191077
-0.00378325
-0.0040112
-0.00192921
0.00225763
0.00825898
0.0156413
0.0228614
0.0300905
0.037628
0.0437314
0.0517449
0.0581255
0.0653114
0.0669087
0.102511
0.105851
0.109549
0.11282
0.115737
0.118489
0.121064
0.123236
0.124834
0.125727
0.125683
0.124541
0.121751
0.117271
0.11093
0.102407
0.0918597
0.0794041
0.0657454
0.0515666
0.0384201
0.0261113
0.0159546
0.00743798
0.0008397
-0.00382959
-0.0061835
-0.00691986
-0.00567485
-0.0021461
0.00319047
0.0103629
0.017765
0.024932
0.0324016
0.0384087
0.0449087
0.0510676
0.0570955
0.0606506
0.104696
0.107972
0.111619
0.114863
0.117766
0.120467
0.122983
0.125049
0.126493
0.127235
0.126978
0.125589
0.122544
0.117736
0.111057
0.102129
0.0912333
0.0784415
0.0645346
0.050131
0.03693
0.024633
0.0144017
0.00590469
-0.000825501
-0.00574419
-0.00880099
-0.00991911
-0.0094799
-0.0068692
-0.00195299
0.00463755
0.0119053
0.019261
0.026851
0.0331479
0.0385183
0.0443841
0.0481344
0.050393
0.106991
0.110171
0.113788
0.117041
0.119951
0.122609
0.125045
0.126993
0.128293
0.128864
0.128388
0.126737
0.123401
0.118211
0.111159
0.101812
0.0905272
0.0773103
0.0631429
0.0485744
0.0352495
0.022977
0.0126288
0.00427262
-0.00266908
-0.00762772
-0.011425
-0.0131776
-0.0132193
-0.0116969
-0.00764847
-0.00150012
0.00559794
0.0130342
0.0207134
0.027379
0.032249
0.0376856
0.0407052
0.0405673
0.109378
0.112492
0.116113
0.119394
0.12232
0.124924
0.127257
0.129104
0.130237
0.130636
0.129912
0.127931
0.124308
0.118698
0.111241
0.101415
0.0896801
0.0760227
0.0615789
0.0468288
0.0332899
0.0212039
0.010603
0.00243942
-0.00447884
-0.00970989
-0.0138513
-0.0166237
-0.0171441
-0.0165244
-0.0137949
-0.0080021
-0.00133085
0.00600944
0.0139635
0.0210217
0.0260867
0.0312999
0.0349768
0.0339497
0.111894
0.114962
0.118626
0.121947
0.124891
0.127434
0.129652
0.131393
0.132338
0.132536
0.131613
0.129205
0.125239
0.1192
0.11124
0.100911
0.0886629
0.0745841
0.0597855
0.0448895
0.031028
0.0191606
0.00849804
0.000402887
-0.00634708
-0.012117
-0.0161843
-0.019856
-0.021397
-0.02132
-0.0200265
-0.0151807
-0.00884862
-0.00192176
0.00638647
0.0142287
0.0195198
0.024232
0.0291011
0.0303417
0.114597
0.117633
0.121368
0.124745
0.127675
0.130156
0.132239
0.133852
0.134698
0.134539
0.133386
0.130574
0.126168
0.119692
0.111139
0.100259
0.0874735
0.0729072
0.0576554
0.0427954
0.0284721
0.016812
0.00627247
-0.00202033
-0.00845758
-0.0143969
-0.0186427
-0.0228296
-0.0257146
-0.026179
-0.0262899
-0.0230254
-0.0167836
-0.0104892
-0.002777
0.00621802
0.012509
0.0167698
0.0223271
0.0257436
0.117527
0.120576
0.124381
0.127797
0.130724
0.133141
0.135086
0.136491
0.137234
0.13678
0.135224
0.132011
0.127071
0.120089
0.110927
0.0995169
0.0859236
0.0710425
0.0552093
0.0402926
0.0257213
0.0139949
0.00391748
-0.00468696
-0.0107519
-0.0166341
-0.0212942
-0.0255511
-0.0298347
-0.0313674
-0.0323392
-0.0311921
-0.0257863
-0.0194166
-0.0129734
-0.00364634
0.00462542
0.0093754
0.0141067
0.0181121
0.120779
0.123835
0.127702
0.131154
0.13407
0.136369
0.138207
0.139469
0.139871
0.139169
0.137122
0.133466
0.127938
0.120451
0.110438
0.0984954
0.0841592
0.0688889
0.0524364
0.0371859
0.0229333
0.0106436
0.00119006
-0.00734113
-0.0134961
-0.0188878
-0.0239127
-0.0282456
-0.0336877
-0.0365443
-0.0381274
-0.0393546
-0.0359933
-0.029227
-0.0232452
-0.0153904
-0.00547553
0.00104085
0.00546368
0.00921162
0.124411
0.127479
0.131385
0.134862
0.137724
0.139999
0.141576
0.142602
0.142758
0.141697
0.139147
0.134964
0.128695
0.120592
0.109771
0.0971423
0.0821033
0.0661206
0.0495036
0.033549
0.0196361
0.00715865
-0.00224086
-0.0101909
-0.0164162
-0.0212754
-0.0265681
-0.0306547
-0.0369919
-0.0418934
-0.0442267
-0.0464419
-0.0466912
-0.0412037
-0.0340758
-0.0276596
-0.0182458
-0.00952247
-0.00390464
-0.000560185
0.128436
0.131531
0.135438
0.138974
0.141795
0.143912
0.145299
0.14601
0.145822
0.144342
0.141219
0.136421
0.129346
0.120528
0.108834
0.0952082
0.0797886
0.0628293
0.0459627
0.0296293
0.015777
0.00333536
-0.00615864
-0.0134156
-0.0196763
-0.023864
-0.0288536
-0.0333601
-0.0380096
-0.045619
-0.0506869
-0.0537086
-0.056046
-0.0541887
-0.0477401
-0.0406901
-0.0323466
-0.0230731
-0.0156941
-0.0115814
0.132901
0.13604
0.140033
0.143541
0.146308
0.148271
0.1494
0.149753
0.149039
0.147088
0.143351
0.137716
0.129867
0.119983
0.107572
0.0928452
0.0767536
0.0589851
0.0418717
0.0252194
0.0111941
-0.000823203
-0.0106414
-0.017122
-0.0230382
-0.0270619
-0.0311432
-0.035857
-0.0409042
-0.047928
-0.0554335
-0.0612124
-0.0652239
-0.0668287
-0.063255
-0.0563245
-0.0483122
-0.0391627
-0.0304649
-0.0249946
0.13799
0.141105
0.145169
0.148691
0.15128
0.153001
0.153891
0.153745
0.152515
0.149846
0.145312
0.138857
0.130038
0.119022
0.105705
0.0899519
0.0729956
0.0543501
0.0370487
0.0204435
0.00568412
-0.0055586
-0.0155167
-0.0218137
-0.0267203
-0.0305778
-0.0337321
-0.0378877
-0.0431753
-0.0500412
-0.0585164
-0.0678942
-0.0740905
-0.0786592
-0.0794366
-0.0749523
-0.0670181
-0.0579594
-0.0486845
-0.0419397
0.143811
0.146906
0.150948
0.154384
0.156901
0.158245
0.15866
0.158013
0.156018
0.152689
0.147113
0.139603
0.129807
0.117528
0.103052
0.0861989
0.068356
0.0492135
0.0309936
0.0149388
-0.00028049
-0.0114941
-0.020632
-0.0274521
-0.0311571
-0.0344262
-0.0366759
-0.0400268
-0.0441225
-0.0516098
-0.0605836
-0.0718119
-0.0817295
-0.0900667
-0.0947857
-0.09497
-0.089843
-0.0811233
-0.071191
-0.0632701
0.150453
0.153432
0.157507
0.160826
0.162937
0.163992
0.163762
0.162556
0.159636
0.155271
0.148719
0.13978
0.12883
0.115232
0.0994332
0.0815942
0.0624128
0.0430585
0.02425
0.00802363
-0.006542
-0.0185083
-0.0266813
-0.0333606
-0.0364268
-0.0392851
-0.0399823
-0.0420045
-0.0451007
-0.0513838
-0.0603955
-0.0731181
-0.0865215
-0.0992603
-0.108902
-0.114514
-0.114748
-0.109551
-0.100277
-0.0907952
0.158141
0.161001
0.164787
0.167955
0.169723
0.170203
0.169249
0.16693
0.163147
0.1575
0.149666
0.13926
0.126763
0.111911
0.0944892
0.0754456
0.055624
0.0351798
0.0166442
-0.000204571
-0.0139167
-0.0262584
-0.033813
-0.0398444
-0.0429575
-0.044635
-0.0446141
-0.0444077
-0.0457439
-0.0499054
-0.0581627
-0.0707335
-0.0863288
-0.103831
-0.119847
-0.131925
-0.13966
-0.141126
-0.136486
-0.128118
0.16699
0.169654
0.173122
0.175792
0.177151
0.176814
0.175079
0.171752
0.166455
0.159263
0.149813
0.137609
0.123636
0.106746
0.0881792
0.0675457
0.0471014
0.0258738
0.00754901
-0.00947151
-0.0231433
-0.0344354
-0.0426106
-0.04742
-0.050747
-0.051481
-0.0506755
-0.047978
-0.0469193
-0.048146
-0.0537024
-0.0639327
-0.0797824
-0.100812
-0.123576
-0.145292
-0.162118
-0.173109
-0.177999
-0.176497
0.17715
0.179413
0.182582
0.184641
0.185004
0.183612
0.180563
0.175508
0.168918
0.15974
0.148394
0.134283
0.118364
0.0996943
0.0793963
0.0576504
0.0360732
0.0150691
-0.00391508
-0.0198123
-0.0338757
-0.0442385
-0.0523454
-0.0569678
-0.0603106
-0.0604461
-0.0585531
-0.0542408
-0.0503596
-0.0472914
-0.0482784
-0.0541534
-0.0670261
-0.08656
-0.112338
-0.14332
-0.173777
-0.200532
-0.219806
-0.231714
0.188904
0.190421
0.193171
0.194675
0.194091
0.191105
0.186356
0.17923
0.170281
0.159056
0.144982
0.12869
0.110395
0.0900755
0.0674347
0.0452893
0.0225739
0.00173364
-0.0170956
-0.0324003
-0.0458467
-0.055509
-0.0631279
-0.0683818
-0.0716354
-0.0719603
-0.0696775
-0.064758
-0.0581221
-0.0504876
-0.0452327
-0.0438898
-0.0501021
-0.0636381
-0.0862869
-0.117576
-0.156994
-0.200897
-0.243545
-0.279799
0.202244
0.202702
0.204189
0.204037
0.201766
0.196835
0.189594
0.180373
0.168584
0.154761
0.137813
0.11928
0.0985456
0.0759991
0.0519978
0.0288005
0.00603856
-0.014656
-0.0325136
-0.0470826
-0.0592247
-0.0683596
-0.0751943
-0.0804833
-0.0844809
-0.0860252
-0.0846349
-0.0799464
-0.0717034
-0.0605027
-0.0484722
-0.0384114
-0.0342041
-0.0363365
-0.0485768
-0.0709634
-0.105815
-0.151259
-0.206335
-0.264381
0.218954
0.218071
0.217752
0.215573
0.21086
0.203029
0.192332
0.17956
0.164114
0.146396
0.126662
0.105115
0.0818093
0.0572543
0.0322215
0.00818032
-0.0142265
-0.0343657
-0.0507593
-0.0639688
-0.0739625
-0.0818924
-0.0880609
-0.0935291
-0.0984685
-0.101955
-0.102759
-0.099855
-0.0920838
-0.0793757
-0.0628302
-0.0454437
-0.0291582
-0.016729
-0.0110966
-0.0148523
-0.0298584
-0.0570931
-0.0969858
-0.145522
0.232558
0.228451
0.225134
0.219889
0.212101
0.201296
0.18735
0.170974
0.15177
0.130328
0.107279
0.082774
0.0573877
0.0311998
0.00549201
-0.0184449
-0.0399141
-0.05837
-0.072694
-0.083473
-0.0907491
-0.0968378
-0.10226
-0.108124
-0.114367
-0.120347
-0.124675
-0.125922
-0.121906
-0.111275
-0.0952603
-0.0750007
-0.0506337
-0.0250174
-0.00146551
0.0172568
0.0290735
0.0313504
0.0233793
0.00234181
0.26043
0.252905
0.243641
0.231224
0.214976
0.195498
0.173646
0.150401
0.125562
0.099017
0.0715794
0.0434295
0.0153055
-0.0122521
-0.0381733
-0.061003
-0.0798812
-0.0943706
-0.104099
-0.10957
-0.112459
-0.115034
-0.118997
-0.125382
-0.134171
-0.143439
-0.151306
-0.156992
-0.159274
-0.156471
-0.147836
-0.131772
-0.108511
-0.0805966
-0.0511738
-0.0224226
0.00269696
0.0181913
0.0221238
0.0196512
0.241008
0.225842
0.211501
0.194671
0.175756
0.153953
0.128752
0.101056
0.0717762
0.0412329
0.0104885
-0.0200912
-0.0495105
-0.0771562
-0.101935
-0.122132
-0.136367
-0.144457
-0.146319
-0.143299
-0.138206
-0.134783
-0.136277
-0.143745
-0.156373
-0.171499
-0.182832
-0.186259
-0.191625
-0.203094
-0.214995
-0.214468
-0.200454
-0.178055
-0.155784
-0.135612
-0.118166
-0.105445
-0.0983857
-0.0903959
0.304617
0.275945
0.244057
0.213524
0.18259
0.150658
0.117586
0.0832424
0.0489546
0.0148359
-0.0174588
-0.0473484
-0.0738868
-0.0962192
-0.113798
-0.126649
-0.133294
-0.133101
-0.126026
-0.113906
-0.0985277
-0.0844963
-0.0765088
-0.0835611
-0.10859
-0.154025
-0.191536
-0.184893
-0.167173
-0.175123
-0.204693
-0.229517
-0.239876
-0.239171
-0.233894
-0.226317
-0.22173
-0.220611
-0.222598
-0.223304
0.0594596
0.0297938
-0.00381297
-0.0460944
-0.0911724
-0.135818
-0.1786
-0.220429
-0.258853
-0.291057
-0.314637
-0.331569
-0.344141
-0.353222
-0.356623
-0.352955
-0.341582
-0.321507
-0.294203
-0.260829
-0.223566
-0.183895
-0.148191
-0.124997
-0.126393
-0.16186
-0.179837
-0.180768
-0.186358
-0.190053
-0.19625
-0.20346
-0.209077
-0.213431
-0.215497
-0.214763
-0.212336
-0.210438
-0.211588
-0.215433
-0.0218076
-0.0721938
-0.129831
-0.147859
-0.0910382
-0.0407953
-0.00944668
0.00648229
0.0109229
0.00618533
0.00558429
0.00314494
0.00125513
0.000262233
-0.000976987
-0.00144574
-0.00205503
-0.00228827
-0.00247792
-0.00244373
-0.00238631
-0.00219934
-0.0019917
-0.0017256
-0.00147088
-0.00115952
-0.000792508
-0.00047928
-0.000138305
0.000129886
0.00041848
0.000599754
0.00080123
0.000928979
0.00111326
0.00124649
0.001381
0.00135293
0.00097734
0.00120085
-0.0364628
-0.0975245
-0.175294
-0.192698
-0.112312
-0.0473268
-0.00986759
0.00827398
0.0122132
0.00823863
0.00590792
0.00365085
0.00156253
0.000338012
-0.000979932
-0.00156492
-0.00221014
-0.00245276
-0.00261393
-0.00260327
-0.00254631
-0.00237305
-0.00221606
-0.00191627
-0.00168304
-0.00131047
-0.0010041
-0.000654636
-0.000345952
-2.96659e-05
0.000230248
0.000453124
0.000642875
0.000803025
0.000986177
0.00116805
0.00133992
0.00129805
0.000972375
0.00048803
-0.0530751
-0.128013
-0.236274
-0.24397
-0.135705
-0.0543155
-0.010347
0.00991535
0.0132164
0.0100155
0.00633701
0.00413842
0.00186864
0.000392306
-0.000967901
-0.00167758
-0.00238283
-0.00260444
-0.0027898
-0.00275432
-0.0027146
-0.00253321
-0.00239116
-0.00209542
-0.00186738
-0.00146608
-0.0012162
-0.000857804
-0.000589674
-0.000262697
-3.95625e-05
0.000213785
0.000404668
0.000620258
0.000856713
0.00110107
0.00130916
0.0013901
0.00144432
0.00165856
-0.0793358
-0.163121
-0.315273
-0.301678
-0.160018
-0.061344
-0.0111386
0.0112322
0.0139426
0.0113654
0.00708421
0.00453059
0.00208995
0.000462012
-0.000946099
-0.00176306
-0.0025473
-0.0027678
-0.00303993
-0.00299899
-0.00299934
-0.00273025
-0.00256269
-0.00223622
-0.00199652
-0.0016033
-0.00137592
-0.00101788
-0.000761009
-0.000432944
-0.000208603
6.42998e-05
0.000271029
0.000542987
0.000817073
0.00107148
0.00127951
0.00133219
0.00129115
0.0011469
-0.103888
-0.203033
-0.405704
-0.36054
-0.183011
-0.0682401
-0.0116703
0.012307
0.0145933
0.01212
0.00792186
0.00486456
0.00234563
0.000627895
-0.000880612
-0.00179974
-0.00265726
-0.00293647
-0.00334464
-0.00330386
-0.00332331
-0.00299078
-0.00278655
-0.00242417
-0.0021637
-0.00180066
-0.00155132
-0.0011822
-0.000906775
-0.000561717
-0.000314282
-1.73048e-05
0.000221413
0.00051967
0.000759735
0.00100161
0.00119103
0.00131123
0.00146954
0.00165495
-0.116682
-0.247977
-0.494088
-0.410032
-0.201523
-0.0738438
-0.0125077
0.0126144
0.0150633
0.0123048
0.00850374
0.00529645
0.00267981
0.000855067
-0.00076966
-0.00179343
-0.0026551
-0.00306818
-0.00355113
-0.00353143
-0.00358558
-0.00327554
-0.00306896
-0.00274195
-0.00246215
-0.00214348
-0.00185123
-0.00149326
-0.00119479
-0.000832847
-0.000551825
-0.000211631
5.33227e-05
0.000343594
0.000565041
0.000846913
0.00103763
0.00123316
0.00138093
0.00148181
-0.12036
-0.29367
-0.562377
-0.439143
-0.211672
-0.0775424
-0.0135501
0.0118622
0.0150463
0.0121788
0.00866295
0.00569404
0.00294474
0.00101149
-0.000668387
-0.00178906
-0.0026134
-0.00312813
-0.00359905
-0.00369533
-0.0037497
-0.00355416
-0.0033603
-0.00310712
-0.00279932
-0.00253038
-0.00221191
-0.0019006
-0.00158005
-0.00122701
-0.000910363
-0.000545993
-0.000265445
5.07109e-05
0.000332699
0.000646636
0.000866446
0.00112001
0.00129336
0.00144348
-0.11532
-0.325275
-0.590405
-0.438517
-0.213645
-0.0790932
-0.0150929
0.00962397
0.0143263
0.0116895
0.00840006
0.00570773
0.00298629
0.000981544
-0.000662293
-0.00185637
-0.00264146
-0.00324006
-0.00365374
-0.00389818
-0.00386396
-0.00381276
-0.00357425
-0.00337736
-0.003031
-0.00281077
-0.00246077
-0.00217304
-0.00182384
-0.00149319
-0.00115447
-0.000798713
-0.000505925
-0.000145039
0.000157474
0.000453695
0.00069095
0.00102604
0.00126024
0.0014859
-0.101049
-0.33184
-0.56119
-0.401848
-0.202873
-0.0786767
-0.0174853
0.005784
0.0122943
0.0104633
0.00788448
0.00528882
0.00289581
0.000823495
-0.000701567
-0.00202535
-0.00284348
-0.00353268
-0.00385571
-0.00416436
-0.00406085
-0.00405888
-0.00380654
-0.00360239
-0.00327775
-0.00304371
-0.00263875
-0.00234079
-0.00193614
-0.00162167
-0.00125621
-0.000964089
-0.000654645
-0.00030938
-3.70434e-05
0.000240798
0.000490744
0.000798836
0.000964484
0.00117888
-0.0789798
-0.296447
-0.475543
-0.339415
-0.184425
-0.076777
-0.0214819
0.000256537
0.00840817
0.00831122
0.00714285
0.00465564
0.00277994
0.000696255
-0.000785277
-0.00225582
-0.00311782
-0.00388387
-0.00419311
-0.00448963
-0.00445247
-0.00444356
-0.00427244
-0.00405999
-0.00379918
-0.00349492
-0.00308864
-0.00273031
-0.00229698
-0.0019556
-0.00156942
-0.00131296
-0.00093777
-0.000646624
-0.000340474
-7.72899e-05
0.000206193
0.000545124
0.000871884
0.00131436
-0.0533093
-0.233994
-0.361548
-0.267714
-0.161097
-0.0737165
-0.0278092
-0.00716682
0.00307097
0.00529916
0.0057507
0.00389297
0.00256142
0.000582044
-0.000825205
-0.00236597
-0.00328683
-0.00412507
-0.00453381
-0.0048858
-0.00499953
-0.00504732
-0.00497324
-0.004808
-0.00457033
-0.00422546
-0.00384263
-0.00341253
-0.0029587
-0.00253534
-0.00211659
-0.00177913
-0.00139471
-0.00106573
-0.000674892
-0.000396532
-3.61508e-05
0.000281063
0.000556975
0.000902318
-0.0213728
-0.165087
-0.254131
-0.203032
-0.133225
-0.071261
-0.0369437
-0.0169866
-0.00384495
0.00123424
0.00344803
0.00276389
0.00200465
0.000481563
-0.000776093
-0.0023596
-0.00327737
-0.0042208
-0.0047743
-0.00525641
-0.00546243
-0.0056006
-0.00556005
-0.00543
-0.00516965
-0.00482345
-0.00441492
-0.00394415
-0.00346165
-0.00297231
-0.00251932
-0.00212662
-0.00170087
-0.00127867
-0.000904478
-0.000585388
-0.000186632
0.000153343
0.000568404
0.00102524
0.00780644
-0.102572
-0.163193
-0.148374
-0.108868
-0.0720928
-0.0495413
-0.0294341
-0.0131172
-0.00453399
0.000102753
0.000976005
0.000941615
0.000215054
-0.000892121
-0.00241677
-0.00326698
-0.00427724
-0.00488816
-0.00543156
-0.00563877
-0.00583579
-0.00575413
-0.00564424
-0.00535984
-0.00503594
-0.00461407
-0.0041724
-0.00367424
-0.00321036
-0.00274999
-0.00232594
-0.00184411
-0.00146077
-0.00109998
-0.000752715
-0.000390764
-9.01874e-05
0.000250492
0.000548679
0.0310493
-0.0542386
-0.0956197
-0.106438
-0.0913474
-0.0780268
-0.0683796
-0.0452323
-0.0255133
-0.0121406
-0.00444383
-0.00151371
-0.000635546
-0.000583933
-0.0014793
-0.00281053
-0.00356758
-0.00453245
-0.00510539
-0.00564329
-0.00583056
-0.00607213
-0.00595057
-0.00590238
-0.00560236
-0.00535627
-0.0049454
-0.00458441
-0.00410668
-0.00372245
-0.00325682
-0.00282108
-0.00232509
-0.0019518
-0.0015527
-0.00121597
-0.000842661
-0.000482369
3.11842e-05
0.000549896
0.0486626
-0.0233306
-0.0548807
-0.0754612
-0.0817546
-0.0900437
-0.0880342
-0.0631314
-0.041925
-0.0221459
-0.0104558
-0.00472218
-0.0027265
-0.00190926
-0.002492
-0.00355646
-0.00427427
-0.00520663
-0.00579389
-0.00636129
-0.00661144
-0.00689653
-0.00680252
-0.0068273
-0.00651775
-0.00631713
-0.00590319
-0.00558159
-0.00513652
-0.00474161
-0.00424807
-0.00375551
-0.00325449
-0.0028307
-0.00238795
-0.00195581
-0.00149082
-0.00104518
-0.000506956
-6.10168e-05
0.057165
-0.0091288
-0.033949
-0.0551697
-0.0796971
-0.102274
-0.105809
-0.088613
-0.0645113
-0.0354475
-0.0181054
-0.00841273
-0.00488512
-0.00312668
-0.00332912
-0.00414678
-0.00501873
-0.00599494
-0.00677645
-0.00738218
-0.00780115
-0.00807956
-0.00808216
-0.0080575
-0.00775682
-0.00746815
-0.0070694
-0.00666267
-0.00622872
-0.0057042
-0.00520115
-0.00466674
-0.00419923
-0.0036932
-0.00320815
-0.00266694
-0.00217565
-0.00160531
-0.000973563
-0.000483208
0.0541852
-0.00831505
-0.0221254
-0.0449665
-0.0825957
-0.1149
-0.128348
-0.120799
-0.0878555
-0.0522841
-0.0270905
-0.0127447
-0.00653453
-0.00391058
-0.00348321
-0.0041507
-0.00518891
-0.00617631
-0.00725547
-0.00779461
-0.00847094
-0.00863957
-0.00877194
-0.00860087
-0.00835062
-0.00789212
-0.00754094
-0.00703514
-0.0066514
-0.00609286
-0.00564881
-0.00513572
-0.00468138
-0.00413226
-0.00365064
-0.00309003
-0.00258784
-0.00198092
-0.00143039
-0.00102329
0.0409637
-0.0067597
-0.0158726
-0.0394257
-0.085969
-0.128133
-0.15344
-0.154868
-0.114364
-0.0747902
-0.0382586
-0.0181728
-0.00811489
-0.00507122
-0.00351769
-0.00405983
-0.00498885
-0.00594886
-0.00720298
-0.00764064
-0.0085174
-0.00853525
-0.00880216
-0.00853139
-0.00834098
-0.00787204
-0.00758253
-0.00710461
-0.00675703
-0.00626474
-0.0058264
-0.00530221
-0.00481738
-0.00429775
-0.00384128
-0.00331795
-0.00283154
-0.00227788
-0.00183361
-0.00154643
0.0319552
-0.00467523
-0.0129302
-0.0359819
-0.0892846
-0.139477
-0.176651
-0.189289
-0.150782
-0.0987444
-0.0537245
-0.0247514
-0.0111385
-0.00725632
-0.00455018
-0.00480444
-0.00557235
-0.0065581
-0.00770381
-0.00821634
-0.00910901
-0.00915073
-0.0094385
-0.00923963
-0.00913127
-0.00878594
-0.00845799
-0.00800109
-0.00758795
-0.00708414
-0.00652273
-0.00595192
-0.00539221
-0.00491219
-0.00439576
-0.00388351
-0.00332448
-0.00280318
-0.00238753
-0.00212478
0.0285486
-0.00222242
-0.0160762
-0.0389578
-0.0901903
-0.145282
-0.191898
-0.219067
-0.191167
-0.123089
-0.0712679
-0.0326495
-0.0149024
-0.00875678
-0.00615729
-0.00576794
-0.00682974
-0.00789597
-0.00884032
-0.00979217
-0.0104961
-0.0109027
-0.0110994
-0.0111361
-0.0109877
-0.0107569
-0.0103611
-0.00990188
-0.0093992
-0.00882762
-0.0081138
-0.00750267
-0.0068242
-0.00623672
-0.00554999
-0.004963
-0.0042758
-0.00367724
-0.00309523
-0.0028705
0.0243612
0.000536438
-0.019875
-0.0471105
-0.0921449
-0.143512
-0.190238
-0.235024
-0.220821
-0.149921
-0.0840234
-0.0402116
-0.0152472
-0.00814096
-0.00614033
-0.00531752
-0.00686051
-0.00795927
-0.00920379
-0.0104987
-0.0111733
-0.011992
-0.0121281
-0.0124079
-0.0122695
-0.0122074
-0.0118439
-0.0114575
-0.0109857
-0.0103618
-0.00972005
-0.0091169
-0.00841521
-0.00772783
-0.00693192
-0.00620294
-0.00538881
-0.00465649
-0.00397316
-0.00370949
0.0181528
-0.00245582
-0.0229575
-0.0465523
-0.0897995
-0.14068
-0.180617
-0.213654
-0.209297
-0.161975
-0.0890644
-0.0437486
-0.0124579
-0.00600914
-0.00401134
-0.0034862
-0.00514835
-0.00676037
-0.00836514
-0.00978664
-0.0107666
-0.0115878
-0.0119854
-0.0122928
-0.0123353
-0.0122949
-0.0121093
-0.0118563
-0.0115288
-0.0110368
-0.010623
-0.0100483
-0.00948564
-0.00877047
-0.00803679
-0.00720397
-0.00635877
-0.00554495
-0.00492015
-0.0046756
0.0100092
-0.00734243
-0.0303824
-0.0501121
-0.0813024
-0.121287
-0.15269
-0.175451
-0.177286
-0.139495
-0.0838518
-0.0374823
-0.0103588
-0.0018192
-0.000974378
-0.00179222
-0.00397044
-0.00658105
-0.00841227
-0.010122
-0.0112143
-0.0120276
-0.0125538
-0.0127597
-0.0128131
-0.012683
-0.0125441
-0.012267
-0.012032
-0.0115952
-0.0112258
-0.0107449
-0.0102672
-0.00960516
-0.00891267
-0.00815083
-0.00739998
-0.0066116
-0.00595197
-0.00564595
-0.00033413
-0.0139693
-0.0385604
-0.0583343
-0.0817166
-0.109536
-0.131344
-0.139473
-0.132502
-0.101869
-0.06578
-0.0216035
-0.00504011
0.00613345
0.00391165
-3.93598e-06
-0.00332504
-0.00700284
-0.00961629
-0.0118216
-0.0133881
-0.0143974
-0.0149682
-0.0152422
-0.0152531
-0.0150809
-0.0146486
-0.0142615
-0.0138057
-0.0132248
-0.0126868
-0.0120979
-0.0114969
-0.0108337
-0.0101347
-0.00939807
-0.00867437
-0.00793877
-0.00723655
-0.00683655
-0.0122492
-0.0231892
-0.0479307
-0.0700163
-0.0879208
-0.108732
-0.121098
-0.120648
-0.104322
-0.0724027
-0.0275744
-0.00253556
0.0124616
0.0159161
0.0127146
0.00561554
0.000439846
-0.00489634
-0.00913705
-0.0122141
-0.0147881
-0.0163189
-0.0174538
-0.0181321
-0.0183648
-0.0182469
-0.0177912
-0.0174202
-0.0167876
-0.0160712
-0.0153333
-0.014566
-0.0137882
-0.0129798
-0.0121167
-0.0112548
-0.0104222
-0.0095659
-0.00876112
-0.00827867
-0.025916
-0.0370095
-0.0603764
-0.086034
-0.10141
-0.114472
-0.119476
-0.109017
-0.0851741
-0.0478194
-0.00126363
0.023307
0.0360395
0.0294971
0.0262276
0.0165743
0.00813086
0.000938672
-0.00500027
-0.00945771
-0.0130926
-0.0156728
-0.0175615
-0.0187309
-0.0195602
-0.0199956
-0.020095
-0.0198834
-0.0194541
-0.0188791
-0.0181694
-0.0173942
-0.0165728
-0.0156491
-0.0146447
-0.0136109
-0.0125687
-0.0115166
-0.0106208
-0.0101367
-0.0425875
-0.0569317
-0.0802778
-0.108561
-0.126959
-0.133023
-0.127403
-0.106452
-0.0743976
-0.0320319
0.0130682
0.0480638
0.0596812
0.0508774
0.0401619
0.0286667
0.0172947
0.00861314
0.000915314
-0.00528481
-0.0101016
-0.0135749
-0.016151
-0.0181888
-0.019497
-0.0204407
-0.0209958
-0.0212723
-0.0212153
-0.020911
-0.0204398
-0.0198709
-0.0191024
-0.0182027
-0.0171404
-0.0160678
-0.0149165
-0.0137878
-0.0127879
-0.0122765
-0.0641355
-0.0827429
-0.111729
-0.14259
-0.166541
-0.172874
-0.157922
-0.126479
-0.0774893
-0.0253758
0.0219607
0.0641796
0.0814182
0.0717923
0.0534079
0.0410407
0.027188
0.0157406
0.00608682
-0.00166732
-0.00747519
-0.0120852
-0.0157251
-0.0183443
-0.020148
-0.0215608
-0.0224766
-0.0229232
-0.0230423
-0.0229314
-0.0226446
-0.0221615
-0.0214641
-0.0206056
-0.0195666
-0.0185419
-0.0173944
-0.0162736
-0.015268
-0.0148441
-0.0909984
-0.114622
-0.15534
-0.194723
-0.226427
-0.234617
-0.215794
-0.168311
-0.101145
-0.0321205
0.0224441
0.0687168
0.0923575
0.0883983
0.0704995
0.05377
0.0363883
0.0219334
0.0108546
0.00159052
-0.00552014
-0.0114685
-0.0160534
-0.0193852
-0.0217208
-0.0232285
-0.0242341
-0.0250845
-0.0257259
-0.0258306
-0.0255928
-0.0250365
-0.0243473
-0.0234335
-0.0224691
-0.0214381
-0.0203077
-0.0191549
-0.0180844
-0.0176592
-0.129259
-0.159553
-0.214141
-0.268727
-0.313487
-0.328708
-0.302018
-0.235658
-0.147582
-0.0581037
0.0109291
0.0607474
0.0939988
0.100268
0.0825233
0.0638595
0.0460884
0.0296301
0.0168431
0.00577185
-0.00293596
-0.0102944
-0.0160062
-0.0201882
-0.0232049
-0.025304
-0.0267482
-0.0277303
-0.0284153
-0.028887
-0.0288178
-0.0284231
-0.0278485
-0.0269464
-0.025969
-0.024826
-0.0235413
-0.022253
-0.0212491
-0.0208772
-0.187976
-0.233471
-0.305581
-0.387298
-0.450175