/*--------------------------------*- C++ -*----------------------------------*\
  =========                 |
  \\      /  F ield         | OpenFOAM: The Open Source CFD Toolbox
   \\    /   O peration     | Website:  https://openfoam.org
    \\  /    A nd           | Version:  11
     \\/     M anipulation  |
\*---------------------------------------------------------------------------*/
FoamFile
{
    format      ascii;
    class       surfaceScalarField;
    location    "7";
    object      phi;
}
// * * * * * * * * * * * * * * * * * * * * * * * * * * * * * * * * * * * * * //

dimensions      [0 3 -1 0 0 0 0];

internalField   nonuniform List<scalar> 
18960
(
0.0474585
0.000495457
-0.047954
0.0469015
0.000557041
0.0463521
0.00054938
0.0457771
0.000575015
0.0452681
0.000508943
0.0448703
0.000397847
0.0444758
0.000394456
0.0440223
0.000453493
0.0436417
0.000380626
0.0434299
0.000211812
0.0433538
7.6149e-05
0.0433346
1.91783e-05
0.0433845
-4.99188e-05
0.0434834
-9.88742e-05
0.0436892
-0.000205833
0.0440951
-0.000405865
0.0447789
-0.000683843
0.0454752
-0.000696257
0.0458229
-0.000347748
0.0458353
-1.23491e-05
0.0454988
0.000336518
0.0447185
0.000780219
0.0436201
0.00109843
0.0426035
0.00101663
0.0416823
0.000921193
0.0408241
0.000858217
0.0400142
0.000809827
0.0394287
0.000585563
0.039048
0.000380716
0.0391552
-0.000107274
0.0398121
-0.000656865
0.0415366
-0.00172446
0.0442972
-0.00276068
0.049551
-0.00525377
0.0565218
-0.00697081
0.0644937
-0.00797187
0.0682894
-0.00379575
0.0689923
-0.000702839
0.0640196
0.00497264
0.00405056
0.0599691
0.0477579
0.000763667
-0.0480262
0.047475
0.000840024
0.0471348
0.00088956
0.0467878
0.000921956
0.0464517
0.000845106
0.0461062
0.000743309
0.0457864
0.000714244
0.0454943
0.00074565
0.0452354
0.000639446
0.0450585
0.000388777
0.0449039
0.00023076
0.0448326
9.04197e-05
0.044875
-9.23163e-05
0.0450828
-0.000306687
0.0453246
-0.000447608
0.0457804
-0.000861695
0.0464613
-0.00136474
0.0472579
-0.00149282
0.0479982
-0.00108803
0.0484781
-0.000492249
0.048618
0.000196623
0.0485866
0.000811638
0.0483372
0.00134776
0.0476626
0.00169125
0.046628
0.00195583
0.0456424
0.00184376
0.0447295
0.0017227
0.044098
0.00121716
0.0436946
0.000784083
0.0436211
-3.37605e-05
0.043645
-0.000680836
0.044048
-0.00212739
0.0445891
-0.00330181
0.0464856
-0.00715025
0.0494545
-0.00993976
0.0554042
-0.0139216
0.0615578
-0.00994929
0.0673424
-0.00648748
0.0694836
0.00283149
0.005113
0.0684211
0.0476376
0.00115632
-0.0480302
0.0472566
0.00122103
0.0468053
0.00134079
0.0463669
0.00136039
0.0459646
0.00124738
0.0455557
0.00115218
0.0452338
0.00103616
0.0450015
0.000978007
0.0448327
0.000808229
0.0447156
0.000505866
0.0446501
0.000296217
0.0446366
0.00010398
0.044797
-0.000252762
0.0451136
-0.000623291
0.0454837
-0.000817633
0.0459355
-0.00131355
0.046507
-0.00193626
0.0472182
-0.00220396
0.0480482
-0.00191803
0.0488036
-0.00124771
0.0492171
-0.000216809
0.0493266
0.000702138
0.0491957
0.00147865
0.0486236
0.00226335
0.0475891
0.00299027
0.0464731
0.00295976
0.045272
0.00292388
0.044176
0.00231308
0.0430959
0.00186425
0.042609
0.000453123
0.0423777
-0.000449551
0.042794
-0.00254372
0.0435335
-0.00404124
0.045517
-0.00913384
0.0481796
-0.0126023
0.0544191
-0.020161
0.0617445
-0.0172747
0.0689754
-0.0137184
0.0711671
0.000639771
0.00596419
0.0703159
0.0475531
0.00153693
-0.0479337
0.0471897
0.00158439
0.046802
0.00172851
0.0464463
0.00171611
0.0461077
0.00158595
0.0458049
0.00145497
0.0455406
0.00130047
0.0453219
0.00119676
0.045116
0.00101412
0.0449722
0.000649636
0.0449028
0.000365613
0.0449335
7.32553e-05
0.0450415
-0.000360704
0.0453234
-0.000905209
0.0456484
-0.00114258
0.0460963
-0.00176152
0.0466433
-0.00248325
0.0472706
-0.00283126
0.0479707
-0.00261812
0.0488155
-0.00209248
0.0494522
-0.000853567
0.0497923
0.000362059
0.0497869
0.00148404
0.0495048
0.0025455
0.0487945
0.00370052
0.0479614
0.00379294
0.0470351
0.00385018
0.0462228
0.00312533
0.0453106
0.00277642
0.0445373
0.0012265
0.043755
0.000332752
0.0436045
-0.00239322
0.0432996
-0.00373642
0.0437314
-0.00956564
0.0443176
-0.0131885
0.0472093
-0.0230528
0.0528401
-0.0229054
0.0631311
-0.0240094
0.0716871
-0.00791625
0.00439996
0.0732513
0.0475033
0.00193017
-0.0478965
0.0471234
0.00196426
0.0467217
0.00213027
0.0463486
0.00208915
0.0459781
0.00195645
0.0456352
0.00179792
0.0453443
0.00159132
0.0451136
0.00142752
0.0449348
0.00119285
0.044828
0.000756465
0.0447781
0.00041557
0.0447979
5.34369e-05
0.044997
-0.000559835
0.0452666
-0.00117479
0.0456816
-0.00155758
0.0462532
-0.00233316
0.0467857
-0.0030157
0.0473387
-0.00338432
0.0479182
-0.00319762
0.0486697
-0.00284392
0.0494809
-0.00166478
0.0501137
-0.000270735
0.0503456
0.00125215
0.0503398
0.00255122
0.0499021
0.00413823
0.0490872
0.00460785
0.0479044
0.00503301
0.0467102
0.00431951
0.0452648
0.00422182
0.0442094
0.00228189
0.0432943
0.00124787
0.0429758
-0.00207474
0.042622
-0.00338261
0.0427486
-0.00969224
0.0431546
-0.0135945
0.0452336
-0.0251318
0.0491396
-0.0268114
0.0574174
-0.0322872
0.0699975
-0.0204964
-0.000106525
0.074504
0.0473784
0.00232055
-0.0477687
0.0469958
0.00234682
0.0466071
0.00251895
0.0462607
0.00243561
0.0459046
0.00231249
0.0456299
0.0020726
0.0453777
0.00184356
0.0451673
0.00163794
0.045007
0.00135316
0.0449264
0.000837006
0.0449036
0.000438371
0.0450524
-9.53131e-05
0.0451947
-0.000702129
0.0454442
-0.00142435
0.0458443
-0.00195767
0.0464118
-0.00290067
0.0468828
-0.00348668
0.0474192
-0.00392072
0.0480081
-0.00378646
0.048716
-0.00355191
0.0494633
-0.00241206
0.0501699
-0.000977348
0.0505395
0.000882601
0.0506822
0.00240849
0.050375
0.0044454
0.0498408
0.00514205
0.0489512
0.0059227
0.0480776
0.00519303
0.0470016
0.00529782
0.0458725
0.00341103
0.0444744
0.00264598
0.0435686
-0.00116893
0.0428466
-0.00266061
0.0419243
-0.0087699
0.0410151
-0.0126853
0.041234
-0.0253507
0.0435656
-0.029143
0.0486382
-0.0373598
0.0638394
-0.0356976
-0.00991646
0.0736494
0.0473173
0.00271833
-0.0477151
0.0469416
0.00272249
0.0465733
0.00288731
0.0462101
0.00279877
0.0458924
0.00263024
0.0456036
0.00236137
0.0453383
0.00210886
0.0451446
0.00183168
0.0450127
0.00148506
0.0449442
0.000905441
0.0449332
0.000449351
0.0450116
-0.000173676
0.0451855
-0.000876051
0.0454969
-0.00173574
0.0459339
-0.00239466
0.0464683
-0.0034351
0.0469697
-0.00398803
0.0475312
-0.00448227
0.0481044
-0.00435958
0.0487358
-0.00418329
0.0494086
-0.00308492
0.0501741
-0.00174287
0.0506908
0.000365915
0.0509993
0.0021
0.0509524
0.00449236
0.0506327
0.00546168
0.0498058
0.00674964
0.0487841
0.00621469
0.0474995
0.00658243
0.0461929
0.00471761
0.0447963
0.00404258
0.0435428
8.45536e-05
0.0426068
-0.00172457
0.0413196
-0.00748268
0.0401637
-0.0115294
0.0391704
-0.0243575
0.0406793
-0.0306519
0.0418819
-0.0385624
0.0547075
-0.0485232
-0.0232885
0.0680796
0.0471815
0.00311026
-0.0475735
0.0468095
0.00309453
0.0464502
0.00324664
0.0461176
0.00313136
0.0458041
0.00294374
0.0455386
0.00262689
0.0452933
0.00235412
0.0451293
0.00199567
0.0450174
0.00159695
0.044972
0.00095088
0.0449769
0.000444464
0.0451389
-0.00033569
0.0453502
-0.0010874
0.0456513
-0.00203682
0.046073
-0.0028164
0.0465856
-0.00394762
0.0470779
-0.00448042
0.0476447
-0.00504905
0.0481804
-0.00489523
0.0487685
-0.00477141
0.0493779
-0.00369432
0.0501504
-0.0025154
0.0507438
-0.000227433
0.0511783
0.00166551
0.0512425
0.00442814
0.0510567
0.00564747
0.0504527
0.00735367
0.0495979
0.0070695
0.0486292
0.00755107
0.0474345
0.00591234
0.0460362
0.00544091
0.0443924
0.00172835
0.0431677
-0.000499933
0.0414767
-0.00579164
0.0395347
-0.00958747
0.0366073
-0.02143
0.0369672
-0.0310118
0.0362638
-0.037859
0.0448543
-0.0571137
-0.0376109
0.0591767
0.0471248
0.00350506
-0.0475196
0.0467535
0.00346582
0.0463894
0.0036107
0.0460834
0.00343736
0.0457921
0.00323503
0.0455291
0.00288997
0.0453012
0.00258201
0.0451502
0.00214661
0.0450489
0.00169825
0.0450282
0.000971604
0.0450695
0.000403188
0.0452119
-0.000478048
0.0454328
-0.00130837
0.045773
-0.00237697
0.0461895
-0.00323297
0.0466998
-0.00445786
0.0471796
-0.00496024
0.0477351
-0.00560452
0.0482882
-0.0054484
0.0488831
-0.00536623
0.049419
-0.00423023
0.0501291
-0.00322554
0.0507836
-0.000881884
0.0513496
0.00109951
0.0515814
0.00419628
0.0515707
0.00565817
0.0511666
0.00775782
0.0503534
0.00788262
0.0493709
0.00853357
0.0480646
0.0072187
0.0467233
0.00678217
0.0449165
0.00353519
0.043384
0.00103257
0.0414086
-0.00381631
0.0394527
-0.00763149
0.0353621
-0.0173395
0.0341034
-0.0297531
0.031779
-0.0355346
0.0351023
-0.060437
-0.0506389
0.0481303
0.0469806
0.00389068
-0.0473663
0.0466302
0.00381629
0.0462752
0.00396562
0.0459828
0.00372983
0.0457153
0.00350252
0.0454765
0.00312877
0.045275
0.00278353
0.0451431
0.0022785
0.0450758
0.00176555
0.0450591
0.000988304
0.0451411
0.000321103
0.0452952
-0.000632105
0.0455486
-0.00156172
0.0458897
-0.00271816
0.0463034
-0.00364666
0.0467915
-0.00494595
0.0472868
-0.00545552
0.0478291
-0.00614679
0.04837
-0.00598931
0.0489397
-0.00593592
0.049432
-0.00472256
0.0500591
-0.00385268
0.0507358
-0.00155861
0.0514219
0.000413506
0.0518575
0.00376063
0.0519532
0.00556252
0.0517364
0.00797454
0.0510444
0.00857469
0.0502
0.00937798
0.0489694
0.00844924
0.0477977
0.00795393
0.0460115
0.00532134
0.0443147
0.0027294
0.0420108
-0.00151244
0.039872
-0.00549263
0.0350684
-0.012536
0.0320108
-0.0266954
0.0286997
-0.0322235
0.0266097
-0.0583469
-0.0603016
0.0362724
0.0469261
0.00427523
-0.0473106
0.0465673
0.00417504
0.046253
0.00427994
0.0459627
0.00402013
0.0456878
0.00377743
0.0454747
0.00334184
0.0452869
0.00297138
0.0451825
0.00238289
0.0451431
0.00180496
0.0451488
0.000982557
0.0452481
0.000221809
0.0454336
-0.000817596
0.0456902
-0.00181828
0.046036
-0.00306398
0.046427
-0.00403764
0.0469217
-0.00544065
0.0474194
-0.00595319
0.0479447
-0.00667208
0.0484098
-0.00645447
0.0490133
-0.00653944
0.0495222
-0.00523137
0.0501285
-0.00445904
0.0507456
-0.00217574
0.0514569
-0.000297722
0.0520433
0.00317419
0.0523254
0.00528046
0.0523491
0.00795076
0.0518877
0.00903611
0.051154
0.0101117
0.0499292
0.00967411
0.0486818
0.0092013
0.0468393
0.00716384
0.0450055
0.0045632
0.0424541
0.00103894
0.040297
-0.00333549
0.0357747
-0.00801372
0.0310079
-0.0219286
0.0268094
-0.028025
0.020602
-0.0521395
-0.0638177
0.0241181
0.0467767
0.00464055
-0.047142
0.0464458
0.00450587
0.0461328
0.00459303
0.0458521
0.00430077
0.0456204
0.00400916
0.0454222
0.00354002
0.045266
0.00312761
0.0451954
0.00245347
0.0451755
0.00182488
0.0452099
0.000948171
0.0453124
0.000119243
0.0455392
-0.00104436
0.0458068
-0.00208593
0.0461545
-0.0034116
0.0465564
-0.00443957
0.0470225
-0.00590678
0.0475093
-0.00643996
0.0480504
-0.00721315
0.0485328
-0.00693693
0.0490827
-0.00708929
0.0495894
-0.0057381
0.0501452
-0.00501488
0.0507364
-0.00276691
0.0514394
-0.00100077
0.0521789
0.00243472
0.0526235
0.00483591
0.0528702
0.00770402
0.0526146
0.00929174
0.0520705
0.0106558
0.0509868
0.0107578
0.0497358
0.0104523
0.0479771
0.00892261
0.0462974
0.0062429
0.0435383
0.00379798
0.0411101
-0.000907258
0.0375763
-0.00447995
0.0318613
-0.0162136
0.0266913
-0.022855
0.0181785
-0.0436267
-0.061951
0.0163118
0.0467382
0.00499571
-0.0470934
0.0464049
0.0048392
0.0461116
0.00488637
0.0458516
0.00456076
0.0456175
0.0042432
0.0454448
0.00371274
0.0453364
0.00323601
0.0452534
0.00253652
0.0452459
0.00183237
0.0453218
0.000872209
0.0454498
-8.75527e-06
0.0456735
-0.00126802
0.0459589
-0.00237134
0.0463445
-0.00379713
0.0467079
-0.004803
0.0471504
-0.00634925
0.0476035
-0.00689306
0.0481869
-0.00779656
0.048675
-0.00742503
0.0491674
-0.00758168
0.0496475
-0.00621818
0.0501872
-0.00555465
0.0507821
-0.00336175
0.0514829
-0.00170159
0.0522882
0.00162939
0.0528706
0.00425357
0.0533157
0.0072589
0.0532985
0.00930892
0.053004
0.0109502
0.0521448
0.011617
0.0511143
0.0114828
0.0491658
0.0108712
0.0474259
0.00798271
0.0449827
0.00624123
0.042052
0.00202338
0.0389309
-0.00135876
0.033328
-0.0106108
0.0278283
-0.0173552
0.0181135
-0.0339119
-0.055953
0.0121154
0.0465785
0.00532803
-0.0469108
0.046269
0.00514871
0.0460003
0.00515509
0.045754
0.00480704
0.0455609
0.00443631
0.0453973
0.0038763
0.0453026
0.00333068
0.0452683
0.00257084
0.0452999
0.00180077
0.0453854
0.000786735
0.045557
-0.000180332
0.0457865
-0.00149754
0.0460856
-0.00267047
0.0464639
-0.00417537
0.0468357
-0.00517483
0.0472741
-0.00678764
0.0477351
-0.00735407
0.04825
-0.00831147
0.0487579
-0.00793292
0.0492509
-0.00807474
0.0497508
-0.00671806
0.0502455
-0.00604934
0.050857
-0.00397322
0.0514857
-0.00233027
0.0523497
0.000765394
0.0530437
0.00355957
0.0537045
0.00659805
0.0539131
0.00910035
0.0539222
0.0109411
0.0532415
0.0122977
0.0525144
0.0122098
0.0508435
0.0125421
0.0487937
0.0100325
0.0468368
0.00819816
0.0441271
0.004733
0.0410059
0.00176253
0.0359044
-0.00550937
0.0307575
-0.0122083
0.0205238
-0.0236782
-0.0462686
0.0108395
0.0465546
0.00565643
-0.046883
0.0462656
0.00543772
0.0460007
0.00541995
0.0457524
0.0050553
0.0455844
0.00460432
0.0454585
0.00400222
0.0453802
0.00340898
0.0453649
0.00258618
0.0454246
0.00174106
0.0455246
0.000686728
0.0457051
-0.000360793
0.045978
-0.0017705
0.046241
-0.00293348
0.0466314
-0.00456574
0.04701
-0.00555342
0.0474383
-0.00721597
0.0478604
-0.00777619
0.0483597
-0.00881073
0.0488577
-0.00843094
0.0493571
-0.00857408
0.0498758
-0.00723686
0.0503467
-0.00652017
0.0509127
-0.00453926
0.0515082
-0.00292573
0.0524182
-0.000144598
0.0532118
0.00276592
0.054026
0.00578382
0.0544087
0.00871773
0.0547974
0.0105524
0.0543107
0.0127844
0.0536634
0.0128572
0.0527223
0.0134832
0.0508013
0.0119536
0.0487313
0.0102681
0.0460428
0.0074215
0.0428654
0.00493996
0.0378914
-0.000535299
0.0330458
-0.00736269
0.0242596
-0.0148921
-0.0343555
0.0123466
0.0463757
0.00596294
-0.0466823
0.0460954
0.00571808
0.045872
0.00564333
0.0456752
0.00525207
0.0455205
0.00475901
0.0454179
0.00410487
0.0453718
0.00345509
0.0453856
0.00257242
0.045476
0.00165065
0.0456156
0.000547145
0.04582
-0.000565282
0.04611
-0.00206049
0.0464032
-0.00322663
0.0467944
-0.00495697
0.0471679
-0.00592689
0.0475868
-0.00763492
0.0479913
-0.00818065
0.048449
-0.00926842
0.0489553
-0.00893722
0.0494365
-0.00905536
0.0499627
-0.00776303
0.0504355
-0.00699298
0.0510325
-0.00513628
0.0515799
-0.00347313
0.052459
-0.00102361
0.0533172
0.00190766
0.054383
0.00471807
0.0548377
0.00826303
0.0553726
0.0100175
0.0555141
0.0126429
0.0549224
0.0134489
0.0542145
0.0141911
0.0527286
0.0134395
0.0510022
0.0119945
0.0488154
0.00960827
0.0460375
0.00771784
0.0413791
0.00412313
0.0359937
-0.00197734
0.0286095
-0.00750787
-0.0225661
0.0168201
0.0463869
0.00625587
-0.0466798
0.0461206
0.00598433
0.0458965
0.00586741
0.0457213
0.00542723
0.0455758
0.00490459
0.0455051
0.00417554
0.0454956
0.00346455
0.0455305
0.00253751
0.0456278
0.00155341
0.0457908
0.00038416
0.046019
-0.00079357
0.0463029
-0.00234434
0.0466003
-0.00352405
0.0469891
-0.00534573
0.0473698
-0.00630765
0.0477545
-0.0080196
0.0481539
-0.00858003
0.0485646
-0.00967914
0.0490435
-0.00941606
0.0495049
-0.00951674
0.0500585
-0.0083167
0.0505348
-0.00746921
0.0511559
-0.00575743
0.0516727
-0.00398991
0.0525576
-0.00190856
0.0533454
0.00111993
0.0545848
0.00347865
0.055467
0.00738082
0.0559412
0.00954325
0.0563952
0.0121889
0.0562513
0.0135928
0.0557713
0.0146711
0.0547484
0.0144624
0.0531215
0.0136214
0.0510505
0.0116793
0.0488417
0.0099266
0.045308
0.00765683
0.0398956
0.00343506
0.0329934
-0.000605662
-0.0123733
0.0228006
0.0461845
0.0065283
-0.046457
0.0459518
0.00621711
0.0457675
0.00605163
0.0456227
0.00557205
0.0455271
0.00500015
0.0454757
0.00422702
0.0454992
0.00344104
0.0455685
0.00246817
0.0457045
0.00141746
0.0459178
0.000170781
0.0461411
-0.00101679
0.0464436
-0.00264689
0.0467732
-0.00385359
0.04715
-0.00572254
0.0475465
-0.00670419
0.0479153
-0.00838843
0.0483411
-0.00900579
0.048695
-0.0100331
0.0491297
-0.00985082
0.0495391
-0.00992611
0.0501221
-0.00889967
0.0505811
-0.00792826
0.051305
-0.0064813
0.0517722
-0.00445712
0.0526596
-0.00279595
0.0535478
0.000231737
0.054584
0.00244247
0.0558784
0.0060864
0.0566869
0.00873479
0.0571971
0.0116787
0.0575124
0.0132774
0.0572524
0.0149311
0.0565673
0.0151475
0.0553298
0.0148589
0.0535077
0.0135014
0.0514734
0.0119609
0.0492025
0.00992775
0.0456838
0.00695378
0.0395112
0.0055669
-0.00387924
0.0310171
0.0461996
0.00679818
-0.0464695
0.0459824
0.00643437
0.0458307
0.00620331
0.0457108
0.00569192
0.0456312
0.00507977
0.0456063
0.00425191
0.0456468
0.00340058
0.0457521
0.00236279
0.0458922
0.0012774
0.0461261
-6.31722e-05
0.0463909
-0.00128157
0.0466918
-0.00294777
0.0470262
-0.00418799
0.0473535
-0.00604987
0.0477713
-0.00712196
0.0481075
-0.00872463
0.0485397
-0.009438
0.0488508
-0.0103441
0.049322
-0.0103221
0.0496269
-0.010231
0.0502157
-0.00948851
0.0506062
-0.00831876
0.0513364
-0.00721146
0.0520037
-0.00512441
0.0527383
-0.00353057
0.0537575
-0.000787455
0.0547814
0.00141861
0.056047
0.00482074
0.0573305
0.00745131
0.0581326
0.0108766
0.0586684
0.0127416
0.0588483
0.0147512
0.058334
0.0156618
0.0575718
0.0156211
0.0561625
0.0149107
0.0542419
0.0138814
0.051917
0.0122527
0.049676
0.00919474
0.0455935
0.00964943
0.00244464
0.0392696
0.0459897
0.00703695
-0.0462285
0.0458334
0.00659071
0.0457065
0.00633021
0.0456267
0.00577173
0.0455827
0.0051237
0.0456017
0.00423294
0.0456946
0.00330764
0.0458226
0.00223484
0.0459961
0.00110386
0.046239
-0.00030604
0.0465447
-0.00158725
0.0468467
-0.00324982
0.0472278
-0.0045691
0.0475483
-0.00637033
0.0479774
-0.00755103
0.0482775
-0.00902477
0.048727
-0.00988752
0.048973
-0.0105901
0.0494596
-0.0108087
0.0497419
-0.0105132
0.0502616
-0.0100083
0.0507693
-0.00882643
0.0512961
-0.00773822
0.0520935
-0.00592186
0.0528594
-0.00429645
0.0539164
-0.00184446
0.0550028
0.000332231
0.0562824
0.00354115
0.0576754
0.00605828
0.0589404
0.00961166
0.0596628
0.0120192
0.0604133
0.0140007
0.0602401
0.015835
0.0596911
0.0161702
0.0587284
0.0158734
0.0573363
0.0152736
0.0551223
0.0144667
0.0534272
0.0108899
0.0511977
0.0118789
0.00643692
0.0472054
0.0460678
0.00725186
-0.0462828
0.0459162
0.00674237
0.0458237
0.00642274
0.0457573
0.0058381
0.0457701
0.00511085
0.0457985
0.00420457
0.0459047
0.00320143
0.0460445
0.00209503
0.0462841
0.000864278
0.0464903
-0.000512236
0.0468372
-0.00193413
0.0471046
-0.00351719
0.0475475
-0.00501203
0.0477843
-0.00660712
0.0482658
-0.00803258
0.0484965
-0.00925545
0.0489602
-0.0103512
0.049225
-0.0108549
0.0495873
-0.0111709
0.0498997
-0.0108257
0.0502849
-0.0103935
0.050841
-0.00938249
0.0513454
-0.00824268
0.0521687
-0.00674514
0.052943
-0.00507071
0.0540384
-0.00293994
0.0552118
-0.000841166
0.0565733
0.00217967
0.0580007
0.00463096
0.0596213
0.007991
0.0606091
0.0110313
0.0616378
0.012972
0.0621337
0.0153391
0.0619629
0.016341
0.0613349
0.0165013
0.0605934
0.0160151
0.0586177
0.0164425
0.0567993
0.0127082
0.05489
0.0137883
0.00957321
0.0517537
0.0459107
0.00741884
-0.0460776
0.0457766
0.00687642
0.0457192
0.0064802
0.0456925
0.00586477
0.0457302
0.00507312
0.0457973
0.00413749
0.0459733
0.00302541
0.0461207
0.00194762
0.0464207
0.000564319
0.0466198
-0.000711324
0.0470496
-0.002364
0.0472606
-0.00372819
0.0477684
-0.00551976
0.0480216
-0.00686038
0.048442
-0.00845299
0.0487457
-0.00955907
0.0491065
-0.010712
0.049373
-0.0111214
0.0497058
-0.0115038
0.0500853
-0.0112051
0.0503625
-0.0106707
0.0509174
-0.00993733
0.051355
-0.00868026
0.0521644
-0.00755455
0.0529825
-0.00588887
0.054065
-0.00402241
0.05537
-0.00214616
0.0568161
0.000733596
0.0582861
0.00316096
0.0601383
0.00613874
0.0615857
0.00958402
0.0627641
0.0117936
0.0637294
0.0143738
0.0641625
0.0159079
0.0638132
0.0168506
0.0637234
0.0161049
0.062357
0.0178088
0.060581
0.0144841
0.0592387
0.0151306
0.0122784
0.0565335
0.0460652
0.00756283
-0.0462092
0.0459505
0.00699114
0.0459188
0.00651186
0.0459078
0.00587578
0.0459891
0.00499183
0.0460471
0.00407941
0.0462534
0.00281915
0.0464123
0.00178873
0.0467498
0.000226764
0.0469462
-0.000907643
0.0473911
-0.00280895
0.0476539
-0.00399095
0.0480629
-0.00592878
0.0483656
-0.00716307
0.048738
-0.00882545
0.0490545
-0.00987555
0.0493247
-0.0109821
0.0496566
-0.0114534
0.0498554
-0.0117025
0.0502379
-0.0115876
0.0504734
-0.0109063
0.0509772
-0.010441
0.0514655
-0.00916861
0.052128
-0.00821707
0.0530163
-0.0067772
0.0540801
-0.00508613
0.0553403
-0.00340639
0.0569964
-0.0009225
0.0586056
0.00155174
0.0605076
0.00423679
0.0622992
0.00779236
0.0638993
0.0101935
0.0651981
0.0130751
0.0661468
0.0149591
0.0661071
0.0168903
0.0663454
0.0158666
0.066098
0.0180562
0.0644672
0.016115
0.0632743
0.0163235
0.0143991
0.0611536
0.0458971
0.00765629
-0.0459906
0.0458308
0.00705738
0.0458479
0.00649484
0.0458828
0.00584086
0.0459763
0.00489833
0.046086
0.00396966
0.0463713
0.0025339
0.046575
0.00158499
0.0468895
-8.77e-05
0.0471693
-0.00118741
0.0475301
-0.00316974
0.0478822
-0.00434313
0.0482834
-0.00632991
0.0486278
-0.00750747
0.0489227
-0.00912043
0.0493098
-0.0102626
0.0494956
-0.011168
0.0498451
-0.0118029
0.0500162
-0.0118736
0.0503307
-0.0119021
0.0506372
-0.0112128
0.050993
-0.0107968
0.0514991
-0.00967479
0.0521365
-0.00885442
0.0529469
-0.00758764
0.0540175
-0.00615668
0.0553115
-0.00470039
0.057002
-0.00261304
0.0586547
-0.000100901
0.060863
0.00202851
0.0629577
0.00569766
0.0648003
0.00835088
0.0664905
0.0113848
0.0682544
0.0131952
0.0686694
0.0164753
0.0688088
0.0157271
0.0694828
0.0173823
0.0687593
0.0168385
0.0677514
0.0173314
0.0159125
0.066238
0.0461369
0.00775565
-0.0462362
0.0461121
0.00708216
0.0461403
0.00646665
0.0462144
0.00576669
0.0463928
0.00471996
0.0465455
0.00381698
0.0467121
0.00236731
0.0470041
0.00129301
0.0472797
-0.000363338
0.0476715
-0.00157925
0.0479638
-0.00346203
0.0483624
-0.00474173
0.0486613
-0.00662878
0.0490637
-0.00790982
0.0493186
-0.00937536
0.0496645
-0.0106085
0.0497987
-0.0113022
0.0500835
-0.0120877
0.0502529
-0.012043
0.0504813
-0.0121305
0.0507349
-0.0114664
0.0510522
-0.0111141
0.0515876
-0.0102102
0.0520569
-0.00932365
0.0528995
-0.00843025
0.0539791
-0.00723633
0.0550658
-0.00578708
0.0569135
-0.00446074
0.0587137
-0.00190111
0.0607786
-3.63375e-05
0.0633104
0.00316585
0.06579
0.00587122
0.0674994
0.00967548
0.0695933
0.0111013
0.0713431
0.0147256
0.0716517
0.0154184
0.0721363
0.0168977
0.0724309
0.0165439
0.0721721
0.0175902
0.0169426
0.071142
0.0459426
0.00774373
-0.0459307
0.0459789
0.00704588
0.0460752
0.00637034
0.0462291
0.00561287
0.0463685
0.00458053
0.0466406
0.00354483
0.0468745
0.00213347
0.0472335
0.000934011
0.0475047
-0.000634598
0.0479352
-0.00200969
0.048209
-0.00373588
0.0486737
-0.00520639
0.0489589
-0.00691396
0.0493418
-0.00829274
0.0496353
-0.00966891
0.0499078
-0.010881
0.0500792
-0.0114736
0.050285
-0.0122935
0.0504819
-0.0122398
0.0506052
-0.0122538
0.0509055
-0.0117667
0.0510917
-0.0113003
0.0515249
-0.0106434
0.052128
-0.00992674
0.0526954
-0.0089977
0.0538046
-0.0083455
0.0549451
-0.00692762
0.0565058
-0.00602139
0.0585129
-0.0039082
0.0608032
-0.00232671
0.0631694
0.000799643
0.0661916
0.0028491
0.0688499
0.00701717
0.0709466
0.00900454
0.0732022
0.01247
0.0747553
0.0138654
0.0756129
0.01604
0.0759724
0.0161844
0.0763996
0.017163
0.0173344
0.0760078
0.0463635
0.00771634
-0.0463361
0.0464453
0.00696412
0.0465568
0.00625881
0.0467569
0.0054128
0.0469261
0.00441128
0.0472271
0.00324385
0.0474606
0.00190002
0.0478091
0.000585473
0.0481298
-0.000955311
0.0485248
-0.00240469
0.0488797
-0.00409075
0.0492603
-0.005587
0.049551
-0.00720466
0.049908
-0.00864978
0.0501304
-0.00989129
0.0503647
-0.0111153
0.0505506
-0.0116595
0.0506011
-0.012344
0.050759
-0.0123978
0.0508547
-0.0123495
0.0510412
-0.0119532
0.0512918
-0.011551
0.0515733
-0.0109248
0.0521359
-0.0104893
0.0526664
-0.00952825
0.0535652
-0.00924428
0.054647
-0.00800947
0.0561717
-0.00754606
0.0580314
-0.00576787
0.0604363
-0.00473165
0.063011
-0.00177506
0.0659793
-0.000119179
0.0692028
0.00379368
0.0722121
0.00599521
0.0749361
0.00974612
0.0770405
0.011761
0.0788688
0.0142117
0.0797681
0.0152851
0.0806132
0.0163179
0.0172733
0.0806743
0.0461493
0.00767193
-0.0461049
0.0462834
0.00683002
0.0464512
0.00609098
0.0466841
0.00517988
0.0469536
0.00414181
0.0472684
0.002929
0.0476419
0.00152657
0.0479737
0.000253654
0.0484107
-0.00139233
0.0488381
-0.00283208
0.0492161
-0.00446879
0.0496522
-0.00602307
0.0499538
-0.00750628
0.0503143
-0.00901028
0.0505397
-0.0101166
0.0507304
-0.011306
0.0508498
-0.011779
0.0509036
-0.0123978
0.0509792
-0.0124733
0.0510502
-0.0124206
0.0511225
-0.0120254
0.05136
-0.0117885
0.0515517
-0.0111164
0.0520593
-0.010997
0.0525244
-0.00999333
0.0532976
-0.0100175
0.0543147
-0.00902655
0.0557054
-0.00893679
0.0575299
-0.00759236
0.0596626
-0.00686434
0.0624979
-0.00461039
0.0655394
-0.00316061
0.0692264
0.000106694
0.072619
0.00260261
0.0761921
0.00617298
0.0790659
0.0088872
0.0817304
0.0115472
0.0834785
0.0135369
0.0850499
0.0147465
0.0165728
0.0857505
0.046883
0.00760747
-0.0468185
0.0470082
0.00670479
0.0472279
0.00587129
0.047449
0.00495879
0.04779
0.00380078
0.0480782
0.00264081
0.0484043
0.00120053
0.048818
-0.000160062
0.0491896
-0.00176391
0.0496848
-0.00332728
0.049964
-0.00474806
0.0504125
-0.00647158
0.0507055
-0.00779926
0.0509496
-0.0092543
0.0511211
-0.0102882
0.0512616
-0.0114464
0.0513147
-0.0118321
0.0513105
-0.0123935
0.0512718
-0.0124347
0.0513835
-0.0125322
0.0512651
-0.011907
0.0514674
-0.0119907
0.0516502
-0.0112993
0.0519513
-0.0112982
0.0524162
-0.0104581
0.0529537
-0.010555
0.0539738
-0.0100467
0.0549485
-0.00991153
0.0566902
-0.0093341
0.0585671
-0.00874121
0.0615245
-0.00756782
0.0644593
-0.0060954
0.0684026
-0.00383659
0.0723019
-0.00129669
0.0766687
0.00180617
0.0804368
0.00511915
0.0840867
0.00789726
0.0867345
0.0108891
0.0890902
0.0123909
0.0151929
0.09047
0.0466953
0.00738926
-0.0464771
0.046928
0.00647205
0.0472043
0.00559507
0.0475629
0.00460012
0.0478783
0.00348542
0.0483509
0.00216825
0.048698
0.000853399
0.0492616
-0.000723731
0.0496227
-0.00212501
0.0501349
-0.00383947
0.0504806
-0.00509377
0.0508846
-0.00687558
0.0512087
-0.0081233
0.0514387
-0.00948437
0.051567
-0.0104165
0.0516593
-0.0115387
0.0516292
-0.0118021
0.0516017
-0.012366
0.0515357
-0.0123687
0.051429
-0.0124255
0.0514402
-0.0119183
0.0514433
-0.0119938
0.0516931
-0.0115491
0.0516918
-0.0112968
0.052313
-0.0110794
0.0526397
-0.0108817
0.0535406
-0.0109476
0.0542087
-0.0105796
0.0557151
-0.0108405
0.0572604
-0.0102865
0.0599211
-0.0102284
0.0627579
-0.00893223
0.066799
-0.00787769
0.0709049
-0.00540262
0.0759502
-0.00323912
0.0807749
0.00029445
0.0856696
0.00300253
0.0896833
0.00687538
0.0930962
0.00897795
0.0129726
0.0953166
0.0477155
0.00715281
-0.0474791
0.0480464
0.00614118
0.0483501
0.00529139
0.0487728
0.00417737
0.0490347
0.00322354
0.0495773
0.00162565
0.049932
0.00049867
0.0504325
-0.00122418
0.0508552
-0.00254772
0.0513184
-0.00430264
0.0516809
-0.00545634
0.0520485
-0.00724312
0.0522664
-0.00834122
0.0524161
-0.00963407
0.0525889
-0.0105893
0.0524035
-0.0113532
0.0523893
-0.0117879
0.0521733
-0.0121499
0.0520803
-0.0122758
0.0517191
-0.0120643
0.0518577
-0.0120568
0.0515698
-0.0117059
0.051791
-0.0117703
0.051783
-0.0112888
0.0522314
-0.0115278
0.052426
-0.0110763
0.0530362
-0.0115578
0.0536064
-0.0111498
0.0546354
-0.0118695
0.0558694
-0.0115205
0.0578851
-0.0122442
0.0603974
-0.0114445
0.0640555
-0.0115358
0.0682839
-0.00963106
0.0735537
-0.00850886
0.0790863
-0.00523818
0.0851588
-0.00306999
0.0909807
0.00105344
0.0962966
0.0036621
0.00915386
0.100115
0.0475414
0.00683373
-0.0472223
0.0479967
0.00568582
0.0484419
0.0048462
0.0489847
0.00363465
0.0495539
0.0026543
0.0501275
0.001052
0.0505782
4.80229e-05
0.05116
-0.00180603
0.0517093
-0.00309697
0.0520438
-0.00463713
0.0526088
-0.00602137
0.0527807
-0.00741504
0.0530749
-0.00863538
0.0530657
-0.00962491
0.0531877
-0.0107113
0.0529009
-0.0110664
0.0529001
-0.0117871
0.0524841
-0.011734
0.0523221
-0.0121138
0.0519654
-0.0117076
0.0518999
-0.0119914
0.0516929
-0.0114988
0.0517543
-0.0118317
0.0518206
-0.0113551
0.0520489
-0.0117562
0.0523241
-0.0113515
0.0526266
-0.0118603
0.0530851
-0.0116083
0.0536227
-0.012407
0.0545302
-0.0124281
0.0557761
-0.0134901
0.0577328
-0.0134012
0.0605375
-0.0143405
0.0642676
-0.0133611
0.0692976
-0.0135388
0.0752451
-0.0111857
0.082052
-0.00987689
0.0892469
-0.00614145
0.0967747
-0.00386567
0.00235221
0.103576
0.0492415
0.00650183
-0.0489096
0.0496459
0.00528139
0.0500882
0.00440391
0.0505469
0.00317595
0.051124
0.00207713
0.0515649
0.000611096
0.052318
-0.000705068
0.0526891
-0.00217712
0.0532978
-0.00370566
0.0536129
-0.0049522
0.0541093
-0.00651775
0.0542364
-0.0075422
0.0544601
-0.00885904
0.054373
-0.00953786
0.0542433
-0.0105816
0.0540208
-0.0108438
0.0536866
-0.0114529
0.0533206
-0.011368
0.0528906
-0.0116838
0.0525508
-0.0113678
0.0521572
-0.0115977
0.0520073
-0.0113489
0.05182
-0.0116444
0.0519236
-0.0114586
0.0519964
-0.011829
0.0522337
-0.0115888
0.0523989
-0.0120256
0.052668
-0.0118774
0.0528217
-0.0125607
0.0532729
-0.0128793
0.0537152
-0.0139323
0.0547848
-0.0144709
0.0563499
-0.0159056
0.0590587
-0.0160699
0.0627694
-0.0172495
0.0679195
-0.0163358
0.0746335
-0.0165909
0.0825675
-0.0140754
0.0914656
-0.0127637
-0.00773751
0.101555
0.0499835
0.00579923
-0.0492809
0.0506889
0.00457606
0.051425
0.00366778
0.052096
0.00250497
0.0528255
0.00134765
0.0532112
0.000225322
0.0539629
-0.00145673
0.0544464
-0.00266063
0.0549299
-0.0041892
0.0553376
-0.00535984
0.0555173
-0.00669752
0.0557081
-0.00773297
0.0556176
-0.00876855
0.0555571
-0.00947731
0.0551846
-0.0102092
0.0548932
-0.0105524
0.0543033
-0.0108631
0.0538866
-0.0109513
0.0532468
-0.011044
0.0528793
-0.0110003
0.0523406
-0.011059
0.0521898
-0.0111981
0.0519067
-0.0113613
0.0520279
-0.0115798
0.0520317
-0.0118328
0.052357
-0.0119141
0.0524414
-0.01211
0.052703
-0.012139
0.0526252
-0.0124829
0.0526633
-0.0129175
0.0524245
-0.0136935
0.0525007
-0.014547
0.0524574
-0.0158623
0.0533953
-0.0170078
0.0547166
-0.0185709
0.0577127
-0.019332
0.0615975
-0.0204756
0.0679787
-0.0204566
0.0756992
-0.0204843
-0.0193969
0.0873586
0.0517061
0.0052643
-0.0511711
0.0522412
0.0040409
0.0529621
0.00294689
0.0536962
0.00177091
0.0545224
0.000521456
0.0553893
-0.000641621
0.0560816
-0.00214898
0.0567067
-0.00328577
0.0571787