/*--------------------------------*- C++ -*----------------------------------*\
  =========                 |
  \\      /  F ield         | OpenFOAM: The Open Source CFD Toolbox
   \\    /   O peration     | Website:  https://openfoam.org
    \\  /    A nd           | Version:  11
     \\/     M anipulation  |
\*---------------------------------------------------------------------------*/
FoamFile
{
    format      ascii;
    class       volVectorField;
    location    "7";
    object      U;
}
// * * * * * * * * * * * * * * * * * * * * * * * * * * * * * * * * * * * * * //

dimensions      [0 1 -1 0 0 0 0];

internalField   nonuniform List<vector> 
9600
(
(0.96639 0.00175901 6.92601e-21)
(0.963545 0.00248997 0)
(0.960848 0.003408 0)
(0.956217 0.00452566 1.24837e-22)
(0.94931 0.00472786 0)
(0.944499 0.00480397 -1.37389e-22)
(0.942345 0.0052408 -4.64099e-21)
(0.937881 0.00577244 4.66481e-21)
(0.930552 0.0052193 -5.03882e-21)
(0.926789 0.00419632 5.06104e-21)
(0.926049 0.00310656 0)
(0.926948 0.00248906 -5.35566e-21)
(0.929365 0.00194953 5.45707e-21)
(0.932609 0.00106827 -8.40181e-23)
(0.937247 -6.57433e-05 2.6281e-21)
(0.943971 -0.00156237 -2.60301e-21)
(0.95544 -0.00305332 0)
(0.975082 -0.00364572 -9.74636e-22)
(0.988589 -0.00239729 9.75577e-22)
(0.992005 -0.000934179 -2.79727e-24)
(0.989514 4.47168e-06 2.10609e-24)
(0.97747 0.00244224 3.31056e-22)
(0.953784 0.00424094 -3.35952e-22)
(0.930071 0.00399235 0)
(0.908728 0.00298999 0)
(0.889021 0.00150017 3.8796e-22)
(0.869958 -0.00104489 1.23277e-22)
(0.854637 -0.00419943 -5.31599e-22)
(0.845512 -0.00816854 2.30068e-23)
(0.844184 -0.0111805 -2.957e-23)
(0.85404 -0.0153648 0)
(0.882415 -0.0198326 3.21996e-21)
(0.923745 -0.0194873 -3.15932e-21)
(0.989009 -0.0123322 -3.28088e-21)
(1.08764 -0.00243101 3.25942e-21)
(1.21306 0.0145142 7.55788e-23)
(1.3019 0.0366075 0)
(1.31737 0.0427014 -4.37286e-21)
(1.30244 0.0401097 4.37764e-21)
(1.19275 0.00808139 -9.53724e-23)
(0.969488 6.56381e-05 3.40727e-22)
(0.968279 0.000173121 0)
(0.965783 -0.000465455 0)
(0.963446 -0.00108176 -3.87438e-22)
(0.960679 -0.00174696 -8.86953e-21)
(0.957439 -0.00274201 1.39913e-20)
(0.954809 -0.00305374 -4.66991e-21)
(0.953868 -0.00290404 -1.55417e-22)
(0.952295 -0.00290421 -1.61441e-22)
(0.951665 -0.00341408 0)
(0.952011 -0.00354111 -1.68925e-22)
(0.953332 -0.00341758 -5.73618e-21)
(0.956432 -0.00333151 8.30612e-21)
(0.96338 -0.00301689 -2.80027e-21)
(0.970428 -0.00268863 -4.2497e-23)
(0.977464 -0.0029901 0)
(0.99189 -0.00379409 -1.05307e-21)
(1.01104 -0.00324187 1.12937e-21)
(1.02919 -0.00118687 -4.11586e-22)
(1.04494 0.000699492 4.14626e-22)
(1.05141 0.00270873 2.40206e-22)
(1.0511 0.00437811 -2.31367e-22)
(1.04767 0.00572294 0)
(1.03839 0.00545392 -3.58926e-22)
(1.01603 0.0053227 3.59367e-22)
(0.990032 0.00569144 5.42799e-24)
(0.964563 0.0076497 -4.67614e-22)
(0.941728 0.00889765 4.63012e-22)
(0.924362 0.0113335 -6.80843e-23)
(0.914939 0.0107951 -1.99549e-21)
(0.913147 0.00974286 2.12539e-21)
(0.916694 0.00478461 -3.08324e-21)
(0.935341 -0.00313124 3.0422e-21)
(0.98451 -0.0257173 -1.09366e-22)
(1.06708 -0.0456701 6.57404e-21)
(1.17638 -0.0666214 -6.39247e-21)
(1.30227 -0.0560706 0)
(1.38427 -0.0418456 -3.05896e-21)
(1.39681 0.00710276 3.05256e-21)
(1.33788 0.024449 2.97908e-22)
(0.968076 0.000461341 7.19733e-21)
(0.967073 0.00105892 -2.42388e-22)
(0.964586 0.00203055 0)
(0.962264 0.0030518 2.65532e-22)
(0.960317 0.00324862 0)
(0.957279 0.0036373 -5.05878e-21)
(0.954496 0.0040336 -1.80532e-22)
(0.953386 0.00429712 5.16234e-21)
(0.952266 0.00383527 1.65157e-22)
(0.951761 0.00279044 0)
(0.95233 0.00203669 5.28319e-22)
(0.953916 0.00129976 -5.7226e-21)
(0.956991 0.000124462 5.9206e-21)
(0.963837 -0.00144496 2.66821e-22)
(0.972682 -0.00248002 -1.72808e-22)
(0.980972 -0.00503055 8.21775e-23)
(0.992631 -0.00790105 -1.15216e-21)
(1.00809 -0.00912286 1.46348e-22)
(1.02689 -0.00756621 1.03672e-21)
(1.04771 -0.00463332 -5.87582e-24)
(1.06221 -0.000621479 4.50996e-24)
(1.06605 0.00310139 3.52058e-22)
(1.0643 0.0059771 -3.56791e-22)
(1.0564 0.00922828 -3.6241e-22)
(1.0336 0.0123243 3.6325e-22)
(1.00577 0.0121678 0)
(0.979281 0.0100577 -1.30477e-23)
(0.953783 0.00500012 6.75149e-23)
(0.931666 -0.000786785 4.55835e-23)
(0.918088 -0.00775554 -1.69703e-22)
(0.91498 -0.0109965 -2.11083e-22)
(0.918793 -0.0169472 3.2184e-21)
(0.937318 -0.0201246 3.5767e-22)
(0.977572 -0.033444 -3.29463e-21)
(1.03813 -0.0392196 -2.22862e-22)
(1.12315 -0.0550443 0)
(1.24536 -0.0314762 -1.26261e-22)
(1.35072 -0.0113288 -2.00385e-21)
(1.38368 0.0242493 1.92146e-21)
(1.3541 0.0290935 -2.04762e-22)
(0.967817 0.00102858 4.83125e-22)
(0.966685 0.00152805 -2.55412e-22)
(0.963872 0.00231631 0)
(0.961614 0.00207243 0)
(0.959576 0.00149719 -8.92336e-21)
(0.956369 0.000762546 9.26382e-21)
(0.953936 -9.42761e-05 4.86364e-21)
(0.953015 -0.000528315 -4.88011e-21)
(0.951815 -0.00110827 5.56966e-21)
(0.951114 -0.00242537 -5.24375e-21)
(0.951779 -0.00325714 -3.60993e-22)
(0.953719 -0.00398299 -1.84553e-22)
(0.957631 -0.00546934 -1.84317e-22)
(0.964376 -0.00672528 -1.82248e-22)
(0.973435 -0.00715147 3.10792e-21)
(0.982059 -0.00881126 -9.72045e-23)
(0.994278 -0.0111241 -3.83592e-21)
(1.00935 -0.0119384 1.17288e-21)
(1.02548 -0.0104303 -2.9603e-23)
(1.04525 -0.0068867 1.20144e-23)
(1.06439 -0.00119567 -2.60901e-22)
(1.07436 0.00336633 6.26339e-22)
(1.07509 0.00791608 -3.87628e-22)
(1.07015 0.0118012 -2.58549e-23)
(1.05506 0.0154475 0)
(1.03204 0.0153345 0)
(1.00844 0.0168302 -4.50273e-22)
(0.983321 0.0166085 4.77381e-22)
(0.959954 0.0185697 -1.53618e-21)
(0.937176 0.0147033 1.64386e-21)
(0.924255 0.0106276 1.42196e-22)
(0.920639 -0.00185274 -1.76157e-22)
(0.932026 -0.00904267 1.96336e-22)
(0.957676 -0.0364572 -3.65412e-21)
(1.02496 -0.0570225 1.08626e-20)
(1.09764 -0.101802 -1.30408e-20)
(1.19935 -0.098458 5.64285e-21)
(1.32151 -0.089696 -1.27288e-22)
(1.40948 -0.00652263 -2.12229e-22)
(1.3838 0.03063 3.88448e-22)
(0.966914 0.000883008 7.4446e-21)
(0.965718 0.00144066 -8.4457e-24)
(0.962917 0.00234611 0)
(0.960632 0.00261383 0)
(0.958625 0.00242295 -6.00843e-22)
(0.955828 0.0023264 9.50041e-22)
(0.954131 0.00231471 -5.02111e-21)
(0.952981 0.00239814 1.05871e-20)
(0.951789 0.00189167 -5.57741e-21)
(0.951444 0.000690688 -3.63567e-22)
(0.952263 -0.000158919 0)
(0.954296 -0.00112341 -1.20566e-20)
(0.958567 -0.00294142 1.21023e-20)
(0.964553 -0.00568619 -3.30606e-21)
(0.972232 -0.0066192 2.76068e-21)
(0.984975 -0.00947967 -3.42998e-22)
(0.997209 -0.0125775 -1.3517e-21)
(1.011 -0.014038 1.52914e-22)
(1.02504 -0.0129669 1.04397e-21)
(1.04138 -0.011131 -6.14425e-24)
(1.06165 -0.00559737 -2.63008e-22)
(1.0785 0.00122085 6.43274e-22)
(1.08527 0.00729849 -3.60429e-22)
(1.08355 0.0129947 2.66404e-23)
(1.0747 0.0199521 1.936e-23)
(1.0536 0.0221845 3.42808e-22)
(1.02684 0.022664 -2.97787e-22)
(0.997251 0.0176917 -4.73143e-24)
(0.970045 0.013678 -7.8964e-23)
(0.943671 0.00368512 0)
(0.928806 -0.00054895 -1.28445e-22)
(0.922361 -0.0111032 0)
(0.9293 -0.0153471 -5.7803e-22)
(0.945914 -0.0412178 0)
(1.00237 -0.0539862 0)
(1.059 -0.0963192 -6.65493e-21)
(1.15112 -0.0969498 6.94711e-21)
(1.25243 -0.11324 1.17287e-21)
(1.401 -0.0444195 -7.15004e-22)
(1.39205 0.024328 -3.97355e-22)
(0.96628 0.00159039 0)
(0.965001 0.00210423 -9.06358e-24)
(0.962259 0.00339803 0)
(0.959638 0.00338588 0)
(0.957952 0.00324555 -1.02476e-20)
(0.955715 0.00283265 4.32403e-21)
(0.95371 0.00197903 1.09209e-20)
(0.95252 0.00129713 -5.58422e-21)
(0.951609 0.000438384 0)
(0.950885 -0.00162742 0)
(0.951636 -0.00308946 0)
(0.954124 -0.00514748 -5.43503e-21)
(0.958922 -0.0077467 5.85211e-21)
(0.964959 -0.00992893 3.38913e-21)
(0.972474 -0.0116087 -3.38587e-21)
(0.985507 -0.0150784 -2.51531e-21)
(0.997936 -0.0174025 1.6394e-21)
(1.01113 -0.0187874 1.22073e-21)
(1.02626 -0.0177341 -4.44779e-22)
(1.0425 -0.0156332 4.45049e-22)
(1.0613 -0.00948216 9.61373e-24)
(1.0787 -0.00235115 2.83608e-23)
(1.08914 0.00592709 -3.97502e-23)
(1.08962 0.0129942 0)
(1.0825 0.0214691 -1.98852e-23)
(1.06466 0.0241368 -3.21701e-22)
(1.04269 0.0276008 2.34519e-22)
(1.01406 0.0261122 1.01543e-21)
(0.989518 0.0293287 -2.41062e-21)
(0.959484 0.0226045 1.31697e-21)
(0.938103 0.0190028 2.65556e-21)
(0.921729 0.000125759 -1.96009e-21)
(0.926521 -0.00601336 3.91306e-22)
(0.930976 -0.0345076 3.69504e-21)
(0.97576 -0.0539784 4.08562e-21)
(1.02642 -0.114748 -7.26674e-21)
(1.12402 -0.125722 0)
(1.201 -0.160115 2.35208e-21)
(1.37292 -0.118648 -4.37142e-21)
(1.40097 -0.00407249 2.38571e-21)
(0.965225 0.00154057 9.65246e-21)
(0.963949 0.00214008 -9.6954e-24)
(0.961064 0.00341037 0)
(0.958654 0.00348115 0)
(0.957143 0.0033449 9.99339e-21)
(0.954957 0.00259627 -1.00365e-20)
(0.953141 0.00186773 5.75634e-21)
(0.952062 0.00133773 9.00351e-22)
(0.951193 0.000301446 -5.99107e-21)
(0.951009 -0.0015443 6.2665e-21)
(0.952007 -0.00282173 -5.4967e-21)
(0.954991 -0.004607 -6.77045e-21)
(0.958929 -0.00684996 7.20431e-21)
(0.965389 -0.0102903 0)
(0.973554 -0.0126277 3.32855e-21)
(0.986263 -0.0165524 -6.06695e-21)
(0.998531 -0.0187044 1.51293e-21)
(1.01247 -0.0203297 1.61953e-22)
(1.02866 -0.0188455 5.70251e-22)
(1.04403 -0.0175404 4.53673e-22)
(1.06063 -0.0119605 2.63826e-22)
(1.07754 -0.00469794 1.21118e-22)
(1.09086 0.00507564 -3.53713e-22)
(1.09402 0.0132649 -3.71388e-22)
(1.09031 0.024434 3.70346e-22)
(1.07581 0.0296437 2.94937e-22)
(1.05659 0.0351391 -2.8911e-22)
(1.02581 0.0314673 -4.98068e-23)
(1.00134 0.0308597 0)
(0.968853 0.0206727 -1.85131e-21)
(0.947019 0.0173808 1.50462e-21)
(0.924263 0.000584455 2.35873e-21)
(0.924686 -0.00661985 -2.64068e-21)
(0.923084 -0.0341764 -4.08364e-21)
(0.956075 -0.0509725 3.18229e-21)
(0.988834 -0.10833 7.65342e-25)
(1.08525 -0.12859 0)
(1.15167 -0.1685 2.98479e-21)
(1.31735 -0.191618 -4.40535e-21)
(1.39497 -0.0588881 6.72447e-23)
(0.964498 0.00235073 7.81901e-21)
(0.963189 0.00291154 -6.0143e-22)
(0.960301 0.00422939 1.01639e-20)
(0.95798 0.00430005 -1.02573e-20)
(0.956425 0.00404931 6.76146e-22)
(0.954384 0.00316892 -7.0432e-22)
(0.952771 0.00245959 0)
(0.951784 0.00148405 4.6443e-21)
(0.951014 0.00033078 -6.20598e-21)
(0.950932 -0.00206097 0)
(0.951879 -0.0038958 4.92756e-21)
(0.954646 -0.00695151 -5.77056e-21)
(0.959253 -0.010147 1.03923e-24)
(0.965952 -0.0137948 0)
(0.974138 -0.0165793 3.02406e-21)
(0.986009 -0.021276 -2.66425e-21)
(0.99906 -0.0233351 -1.27273e-21)
(1.01348 -0.025205 1.67101e-22)
(1.0299 -0.0242093 7.10082e-22)
(1.04478 -0.0229017 4.88664e-22)
(1.06117 -0.0170376 0)
(1.07699 -0.0101725 3.41107e-22)
(1.09237 0.0017477 -3.59123e-22)
(1.09739 0.0113128 0)
(1.09558 0.0244851 -3.54696e-23)
(1.08209 0.0300496 0)
(1.06684 0.0377895 -2.62446e-22)
(1.03562 0.0367092 1.30059e-21)
(1.01303 0.0410049 -1.04043e-21)
(0.978485 0.0341264 3.60791e-22)
(0.957356 0.032333 1.84721e-21)
(0.927591 0.0133155 -4.85291e-21)
(0.92328 0.00344478 2.82783e-21)
(0.913677 -0.0221686 -3.5538e-21)
(0.936246 -0.0404987 1.15269e-20)
(0.952454 -0.102919 -8.41882e-21)
(1.03468 -0.139458 0)
(1.09846 -0.173948 5.52183e-21)
(1.24919 -0.246092 -3.62007e-21)
(1.37112 -0.12894 -1.03418e-21)
(0.963338 0.00229822 0)
(0.961998 0.00281085 1.21137e-21)
(0.959144 0.00428795 0)
(0.957001 0.00431623 1.37277e-21)
(0.955453 0.00386242 1.01018e-20)
(0.953656 0.00297336 -5.63243e-21)
(0.952036 0.00215821 -6.02997e-21)
(0.951379 0.000891939 7.86339e-22)
(0.95061 -0.000448919 0)
(0.950765 -0.00323637 0)
(0.951977 -0.00521139 7.62528e-21)
(0.954917 -0.00859018 -7.66614e-21)
(0.959543 -0.0115715 -1.27165e-21)
(0.966589 -0.0159082 -4.15466e-22)
(0.974886 -0.019275 3.10263e-21)
(0.986665 -0.0242117 -2.7351e-21)
(1.00005 -0.0258529 -1.30159e-21)
(1.01425 -0.0281161 1.72833e-22)
(1.03154 -0.0263698 6.60833e-22)
(1.04703 -0.0250712 4.71613e-22)
(1.0636 -0.0187088 2.0272e-23)
(1.0766 -0.0122272 4.34713e-22)
(1.09255 5.33379e-05 -4.45811e-22)
(1.09921 0.0104795 -2.61932e-23)
(1.10053 0.0258932 6.99794e-23)
(1.08829 0.0335435 0)
(1.07515 0.0443843 -3.16918e-22)
(1.04527 0.0445268 2.08704e-22)
(1.02301 0.0471332 1.29071e-22)
(0.98646 0.0390763 -3.32306e-22)
(0.965349 0.0372974 2.29114e-22)
(0.93101 0.0199768 2.69638e-21)
(0.922876 0.00890009 -3.05109e-21)
(0.906533 -0.0171175 7.82517e-22)
(0.922481 -0.0344716 4.78879e-22)
(0.925139 -0.0874367 -9.33679e-21)
(0.982744 -0.140315 8.29017e-21)
(1.04832 -0.169222 6.47284e-21)
(1.17051 -0.282791 -6.39694e-21)
(1.32993 -0.202596 0)
(0.962505 0.00318406 0)
(0.961141 0.00363759 0)
(0.958429 0.00521984 1.24223e-20)
(0.956225 0.00489079 -2.41246e-20)
(0.954706 0.00452505 1.16217e-20)
(0.953028 0.00342285 0)
(0.951422 0.00249524 6.4431e-21)
(0.951053 0.000932495 1.50572e-22)
(0.950357 -0.000825168 -5.83695e-21)
(0.950647 -0.00387195 0)
(0.951908 -0.00609667 -8.78932e-22)
(0.955259 -0.00997279 8.82656e-22)
(0.959489 -0.0138948 4.3246e-21)
(0.966997 -0.0185753 -3.039e-21)
(0.975644 -0.0222762 0)
(0.986749 -0.0278699 2.96063e-21)
(1.00046 -0.0297789 -4.6549e-21)
(1.01525 -0.0323854 2.64736e-21)
(1.03267 -0.0309906 -1.15734e-21)
(1.04848 -0.0297057 -3.15012e-25)
(1.06482 -0.022734 -3.28444e-22)
(1.07698 -0.0173456 2.86847e-22)
(1.09203 -0.00415468 -4.07925e-23)
(1.10049 0.00712187 2.69645e-23)
(1.10541 0.024888 -3.44743e-23)
(1.09501 0.0342484 0)
(1.08359 0.0462816 0)
(1.05504 0.0487682 7.62172e-23)
(1.0326 0.0534385 -1.0253e-21)
(0.99347 0.0490026 1.18083e-21)
(0.972493 0.0475957 0)
(0.936647 0.0333546 -2.53263e-21)
(0.925531 0.0208436 2.59511e-21)
(0.89948 -0.00187017 -3.65521e-21)
(0.905346 -0.0208942 3.23898e-21)
(0.897984 -0.0628801 -7.25122e-21)
(0.927816 -0.133094 8.23214e-21)
(1.00213 -0.15715 0)
(1.08043 -0.291607 0)
(1.27046 -0.267613 5.57368e-22)
(0.961261 0.0031142 -2.01042e-22)
(0.959873 0.00350742 1.18206e-20)
(0.957321 0.00514802 -1.40584e-21)
(0.955303 0.00462883 -1.49481e-21)
(0.953485 0.00426069 -1.25426e-20)
(0.952175 0.00298978 1.91083e-20)
(0.950831 0.00205444 -6.53812e-21)
(0.95029 -3.04981e-05 6.89834e-21)
(0.950054 -0.00185758 -8.70392e-21)
(0.950732 -0.00529241 -8.09032e-21)
(0.951633 -0.00811942 1.53831e-20)
(0.955494 -0.0124659 -1.54301e-20)
(0.960225 -0.0164286 7.27435e-21)
(0.967293 -0.0218522 0)
(0.976142 -0.0259218 0)
(0.986694 -0.031993 -3.8364e-21)
(1.00203 -0.033619 2.40918e-21)
(1.01676 -0.0364159 1.36733e-21)
(1.03373 -0.0343189 5.57522e-22)
(1.04842 -0.0332682 -5.18083e-22)
(1.0676 -0.0257049 2.12036e-23)
(1.07905 -0.02004 4.0929e-22)
(1.09365 -0.00668536 -3.6673e-22)
(1.10097 0.00458667 -3.22266e-22)
(1.10854 0.0237075 3.21434e-22)
(1.10002 0.0350176 0)
(1.09096 0.0499479 0)
(1.06461 0.0555577 4.19115e-23)
(1.04443 0.0617043 -8.70804e-22)
(1.0037 0.0580281 8.66109e-22)
(0.981682 0.0559944 1.88181e-21)
(0.940515 0.0437914 7.06999e-22)
(0.926175 0.0306104 -2.13805e-21)
(0.895089 0.00977095 -3.09114e-21)
(0.889947 -0.0113142 1.03471e-20)
(0.88461 -0.040608 -6.272e-21)
(0.884303 -0.119101 -9.83436e-22)
(0.958921 -0.145015 8.22503e-21)
(0.996971 -0.279438 -7.18628e-21)
(1.19182 -0.311756 1.88274e-22)
(0.960289 0.00403759 -1.08267e-20)
(0.958896 0.00435764 2.09603e-20)
(0.956409 0.005906 4.28051e-22)
(0.954345 0.00529779 -2.47959e-20)
(0.952642 0.00479911 1.59127e-20)
(0.951347 0.0032661 0)
(0.950298 0.00212351 0)
(0.949613 -0.0002774 1.78862e-21)
(0.949642 -0.00259998 9.07632e-22)
(0.950686 -0.00616527 -5.60125e-21)
(0.951353 -0.0095614 7.50556e-21)
(0.955433 -0.0142733 -7.49069e-21)
(0.960556 -0.0189445 1.12158e-20)
(0.967321 -0.0247587 -2.78744e-21)
(0.97696 -0.0291249 3.37837e-21)
(0.987158 -0.0358653 -6.10465e-21)
(1.00195 -0.0375407 1.35899e-21)
(1.01713 -0.0404043 3.0637e-23)
(1.03586 -0.0381567 7.78158e-22)
(1.05017 -0.0378483 4.99734e-22)
(1.06923 -0.0292578 0)
(1.08064 -0.0240003 3.48911e-22)
(1.09492 -0.0103402 -4.08584e-22)
(1.1012 0.000909344 0)
(1.11098 0.0211211 0)
(1.10488 0.0349406 -9.54512e-23)
(1.09838 0.0514118 2.05039e-22)
(1.07458 0.0596232 -1.75931e-22)
(1.05604 0.0669487 5.20326e-23)
(1.0156 0.0671779 0)
(0.991 0.065713 -1.71662e-21)
(0.947526 0.0564055 1.52903e-21)
(0.928789 0.0436934 -5.18929e-22)
(0.900248 0.0277143 0)
(0.872753 0.00239135 0)
(0.873581 -0.0166314 -8.54058e-21)
(0.854541 -0.0877912 8.50568e-21)
(0.907036 -0.120116 7.49915e-21)
(0.922891 -0.244428 -1.0521e-20)
(1.11131 -0.323756 -7.83635e-22)
(0.958972 0.00383762 -1.13287e-20)
(0.957607 0.00409713 1.29556e-20)
(0.955203 0.00558001 0)
(0.953137 0.00487958 3.24042e-21)
(0.951778 0.00428252 -3.3651e-21)
(0.950403 0.00254778 8.81064e-21)
(0.949628 0.00123246 -8.92409e-21)
(0.949364 -0.0015406 2.25954e-23)
(0.948764 -0.00408233 -7.64142e-21)
(0.95037 -0.00810985 1.35152e-20)
(0.952126 -0.0117525 -5.84232e-21)
(0.95469 -0.0175159 8.75209e-21)
(0.960713 -0.0221331 -3.99813e-21)
(0.967782 -0.0285508 -4.77191e-21)
(0.978172 -0.0331658 0)
(0.987223 -0.0402613 0)
(1.00238 -0.04205 0)
(1.01743 -0.0454179 -1.23546e-21)
(1.039 -0.0424877 9.54975e-22)
(1.05186 -0.0419311 0)
(1.07097 -0.033173 2.94889e-22)
(1.08177 -0.0276372 1.1405e-22)
(1.09744 -0.0134578 -1.13055e-22)
(1.10291 -0.00233705 -2.53227e-22)
(1.11403 0.0181855 0)
(1.1091 0.0335638 4.19422e-23)
(1.10529 0.0517593 -3.27666e-25)
(1.08334 0.0631483 -1.60471e-23)
(1.06649 0.0733562 -2.66329e-23)
(1.02813 0.0761298 0)
(1.00386 0.076539 -1.33539e-21)
(0.961551 0.0702167 1.32597e-21)
(0.928478 0.0543859 1.00195e-21)
(0.908148 0.044886 -2.11554e-21)
(0.863485 0.0179814 8.27219e-21)
(0.864318 -0.00160107 -6.2148e-21)
(0.839415 -0.0598048 0)
(0.872016 -0.0976964 9.69289e-21)
(0.881619 -0.202518 -8.4947e-21)
(1.03168 -0.316745 -9.76557e-22)
(0.957846 0.0047338 0)
(0.956496 0.00492002 1.25139e-20)
(0.954203 0.00628234 4.39488e-22)
(0.952125 0.00545849 -1.67515e-20)
(0.950681 0.00464516 1.42271e-20)
(0.949688 0.00263941 -1.43563e-20)
(0.948394 0.00100735 1.8688e-21)
(0.948362 -0.00200435 5.87852e-21)
(0.948435 -0.00510981 -9.8571e-21)
(0.949407 -0.00951297 1.00912e-20)
(0.952021 -0.0136952 -1.62293e-20)
(0.954925 -0.019661 7.15322e-21)
(0.960535 -0.0249656 3.95222e-21)
(0.967733 -0.0322334 -3.97185e-21)
(0.978478 -0.0365023 -4.52901e-21)
(0.987515 -0.0443627 6.91888e-21)
(1.00383 -0.0461395 -4.79355e-21)
(1.0176 -0.0503034 1.3066e-21)
(1.03966 -0.0467306 1.44923e-22)
(1.05349 -0.0462098 -2.84252e-23)
(1.07361 -0.0366078 2.95957e-22)
(1.08409 -0.0314581 -2.33642e-22)
(1.10053 -0.0172411 -2.46011e-24)
(1.10498 -0.00600783 -2.77549e-22)
(1.11661 0.0143139 2.36891e-22)
(1.11259 0.0318213 5.05003e-24)
(1.11164 0.0511006 2.22252e-23)
(1.09158 0.0662254 1.98651e-24)
(1.07692 0.0778881 -2.95235e-22)
(1.04324 0.0844683 -3.70698e-22)
(1.01456 0.0849752 6.32382e-22)
(0.979913 0.0857607 1.56527e-21)
(0.935885 0.0687628 -2.035e-21)
(0.91444 0.0594279 -2.55271e-21)
(0.868923 0.0393454 3.79791e-21)
(0.85869 0.0212055 0)
(0.828807 -0.0252075 0)
(0.836755 -0.0630965 9.3026e-21)
(0.855537 -0.141489 -7.17183e-21)
(0.92772 -0.278625 2.02e-21)
(0.956455 0.00427911 -2.16251e-22)
(0.955024 0.00435435 1.10865e-20)
(0.952922 0.00569982 1.7216e-21)
(0.950898 0.0049014 1.76245e-21)
(0.949358 0.00368987 1.86148e-20)
(0.949128 0.00164098 -9.24662e-21)
(0.947476 -0.000427158 -9.77121e-21)
(0.947403 -0.0037888 0)
(0.94804 -0.00709246 2.05758e-21)
(0.949193 -0.0119748 6.31497e-21)
(0.951517 -0.0166839 -1.05908e-20)
(0.954887 -0.023185 -8.38872e-21)
(0.961139 -0.0288943 9.48549e-21)
(0.967195 -0.0365604 0)
(0.979222 -0.0411579 4.68158e-21)
(0.988084 -0.0492825 -3.73103e-21)
(1.00522 -0.0512905 -1.51416e-21)
(1.01794 -0.0555484 5.77893e-22)
(1.04104 -0.0517654 1.82049e-21)
(1.05489 -0.0510419 -4.97426e-22)
(1.0767 -0.0411392 -2.15071e-23)
(1.08715 -0.0352744 0)
(1.10368 -0.0210814 -3.94404e-23)
(1.10696 -0.00949716 4.13418e-23)
(1.11952 0.0104276 -7.12295e-24)
(1.1165 0.0291417 -1.07818e-22)
(1.11822 0.0497426 2.10867e-22)
(1.09983 0.06666 -1.34447e-22)
(1.08656 0.0805002 0)
(1.06027 0.0927849 0)
(1.02217 0.0923658 -8.08148e-22)
(0.99699 0.0983651 8.01649e-22)
(0.951905 0.0865839 0)
(0.927774 0.0760507 -9.90112e-22)
(0.876934 0.0564651 -5.40005e-21)
(0.857952 0.0403315 -9.13952e-22)
(0.828715 0.001191 6.11923e-21)
(0.808394 -0.0406247 6.84524e-21)
(0.839526 -0.0930022 -7.7279e-21)
(0.848622 -0.21683 -5.73814e-23)
(0.955236 0.00516441 -1.31453e-20)
(0.953785 0.00510822 1.33501e-20)
(0.951316 0.00629927 -1.77395e-21)
(0.949899 0.00523475 0)
(0.94795 0.00384879 -1.75716e-20)
(0.947619 0.00135098 2.38995e-20)
(0.946359 -0.000855124 -6.11675e-21)
(0.946289 -0.00463948 0)
(0.946611 -0.00873183 1.95699e-20)
(0.948621 -0.013866 -9.85434e-21)
(0.951055 -0.0189645 -8.85928e-21)
(0.954328 -0.026409 -8.73857e-21)
(0.961207 -0.0318715 1.19744e-20)
(0.967363 -0.0408337 -3.23474e-21)
(0.979676 -0.0449257 4.84679e-21)
(0.988689 -0.0540528 -4.32393e-21)
(1.00615 -0.0555669 -1.55475e-21)
(1.01845 -0.0605332 2.35349e-22)
(1.04211 -0.0565216 9.35954e-22)
(1.05645 -0.0559298 5.06121e-22)
(1.07894 -0.0457095 4.37571e-23)
(1.08936 -0.0390413 3.83488e-22)
(1.10764 -0.0248971 -4.17371e-22)
(1.11012 -0.0126436 -1.5039e-22)
(1.12288 0.00557984 1.57283e-22)
(1.1202 0.0256134 1.80479e-22)
(1.12362 0.0465931 -1.12338e-22)
(1.1107 0.0685712 0)
(1.09089 0.080708 3.44862e-22)
(1.07472 0.0994696 -3.51592e-22)
(1.037 0.102164 -4.4733e-22)
(1.01145 0.107578 4.69826e-22)
(0.965011 0.101961 0)
(0.942186 0.0929262 -1.48479e-21)
(0.895324 0.0776439 1.34377e-21)
(0.866831 0.0653779 5.97472e-22)
(0.840086 0.0369179 -6.89264e-22)
(0.793076 -0.00589194 0)
(0.793932 -0.043729 0)
(0.811813 -0.150373 -1.89216e-21)
(0.953687 0.0044761 -1.38178e-20)
(0.952367 0.0044041 1.4039e-20)
(0.949753 0.0053021 0)
(0.948932 0.00428894 0)
(0.946745 0.00259953 0)
(0.946717 -0.000134168 0)
(0.944964 -0.00276307 0)
(0.945613 -0.00702917 0)
(0.946079 -0.0114316 -1.36509e-20)
(0.947641 -0.0169137 1.61116e-20)
(0.951131 -0.0227938 9.21416e-21)
(0.95372 -0.0306071 -1.32194e-21)
(0.961433 -0.0364543 -4.73357e-21)
(0.967178 -0.0457832 -5.56122e-21)
(0.980814 -0.0505231 -5.02202e-21)
(0.989454 -0.0593568 8.51928e-22)
(1.00768 -0.0611397 2.04355e-21)
(1.01984 -0.0662666 6.571e-23)
(1.04297 -0.0626616 5.04437e-22)
(1.0575 -0.061315 5.43359e-22)
(1.08135 -0.0506159 -9.38016e-25)
(1.09196 -0.0435758 4.25312e-22)
(1.11191 -0.0296177 -5.88132e-22)
(1.11492 -0.0164206 1.67305e-22)
(1.12637 0.00113612 0)
(1.12661 0.0219293 -6.25375e-23)
(1.12497 0.0410022 -6.97372e-23)
(1.12406 0.0692528 0)
(1.10077 0.0814821 5.30919e-22)
(1.08672 0.101358 -5.55099e-22)
(1.04974 0.111101 1.09297e-23)
(1.02785 0.11666 0)
(0.98301 0.115854 0)
(0.957589 0.109449 -1.62382e-21)
(0.914216 0.0951104 1.60775e-21)
(0.874525 0.0843716 -9.51961e-23)
(0.854641 0.0671062 1.07855e-22)
(0.807051 0.0314369 5.54223e-21)
(0.767254 -0.0043951 -6.14989e-21)
(0.782025 -0.0888141 9.05227e-22)
(0.952333 0.00521334 0)
(0.950821 0.00486416 0)
(0.948096 0.00569995 0)
(0.947109 0.00441068 0)
(0.945017 0.00251612 0)
(0.94505 -0.000658523 1.11709e-20)
(0.943124 -0.00397786 -9.0323e-21)
(0.944005 -0.00848577 -9.40401e-21)
(0.944648 -0.0133238 2.14256e-20)
(0.946209 -0.0197132 -4.80067e-21)
(0.95113 -0.025626 -1.0952e-20)
(0.952331 -0.0343029 2.4151e-21)
(0.961571 -0.0402047 1.18798e-21)
(0.966463 -0.0509178 -1.14258e-21)
(0.981239 -0.0549344 4.12964e-21)
(0.989976 -0.0643489 -4.64339e-21)
(1.00923 -0.0662357 -1.64039e-21)
(1.02176 -0.0713335 1.64478e-21)
(1.04478 -0.0676555 -2.38701e-22)
(1.05821 -0.066385 5.79101e-22)
(1.0826 -0.0565177 -1.11828e-24)
(1.09487 -0.0481732 -5.84295e-23)
(1.11394 -0.0344785 6.62086e-23)
(1.12234 -0.0193848 -2.29794e-23)
(1.12693 -0.00484703 3.1347e-23)
(1.1361 0.0192577 1.49025e-22)
(1.12825 0.0353611 -4.74649e-22)
(1.13138 0.0644308 4.71878e-22)
(1.11226 0.0844546 -1.44743e-22)
(1.10032 0.102944 0)
(1.06519 0.115867 3.43256e-22)
(1.04285 0.127073 -1.88862e-22)
(1.00022 0.128096 -1.50354e-22)
(0.970083 0.12592 0)
(0.934606 0.115037 0)
(0.886792 0.103715 -4.79443e-21)
(0.865452 0.0910175 5.34483e-21)
(0.833305 0.0714842 -5.35074e-21)
(0.770642 0.0518351 5.39046e-21)
(0.753259 -0.0218276 6.2628e-22)
(0.950783 0.00416018 0)
(0.949432 0.00378484 0)
(0.946659 0.00433015 1.69509e-20)
(0.945702 0.00288329 -1.93959e-20)
(0.943685 0.000767709 1.82688e-20)
(0.943195 -0.00293174 -2.31529e-20)
(0.942699 -0.00649264 -1.21157e-20)
(0.942089 -0.0114732 -2.60083e-21)
(0.944261 -0.0170437 1.25339e-20)
(0.944385 -0.0238148 0)
(0.951123 -0.0302089 2.55149e-21)
(0.952128 -0.0394778 -1.25098e-20)
(0.962078 -0.0457437 8.81622e-21)
(0.966681 -0.0562828 1.18743e-21)
(0.981627 -0.0614788 1.12122e-21)
(0.990689 -0.0706111 2.28411e-24)
(1.0106 -0.072761 -1.23099e-21)
(1.0238 -0.0773702 2.86396e-22)
(1.04614 -0.0740376 6.92397e-22)
(1.06268 -0.072192 5.54004e-22)
(1.0822 -0.0627341 -2.18893e-23)
(1.10028 -0.0529796 3.24849e-22)
(1.11175 -0.0415506 -3.24232e-22)
(1.1309 -0.0228185 1.70243e-23)
(1.1312 -0.00961859 0)
(1.14266 0.0136454 -8.73244e-23)
(1.13612 0.0320004 6.11007e-22)
(1.14005 0.0581105 -1.95284e-21)
(1.12287 0.0805777 1.54163e-22)
(1.11516 0.105399 2.32661e-21)
(1.08463 0.119397 -2.02929e-21)
(1.05715 0.134597 1.20155e-21)
(1.02532 0.13847 -4.54579e-22)
(0.983232 0.140349 0)
(0.956457 0.134024 0)
(0.907035 0.124239 0)
(0.878761 0.111967 -1.16187e-22)
(0.848643 0.0915866 5.39882e-21)
(0.797279 0.0905114 -4.70354e-21)
(0.757498 0.0304994 -1.20394e-21)
(0.948969 0.00487622 -1.64038e-20)
(0.947411 0.00386735 1.67025e-20)
(0.944682 0.00438143 0)
(0.943123 0.00248454 2.28184e-21)
(0.941648 0.000162113 0)
(0.940539 -0.00391937 4.94205e-21)
(0.940943 -0.00829079 -2.05209e-20)
(0.939858 -0.0136805 1.54563e-20)
(0.943168 -0.0195393 -5.35044e-21)
(0.942111 -0.0274624 8.00311e-21)
(0.949384 -0.0339298 1.77049e-23)
(0.951043 -0.0437609 1.31313e-20)
(0.961709 -0.0504132 -1.05514e-20)
(0.966496 -0.0617479 -1.24648e-21)
(0.981604 -0.0671088 -1.16735e-21)
(0.992169 -0.0759093 3.05087e-24)
(1.01031 -0.0788861 -4.71997e-22)
(1.02789 -0.0825025 -1.42668e-21)
(1.04433 -0.0807159 1.98613e-21)
(1.06887 -0.0766817 -5.57294e-22)
(1.08075 -0.0697658 -2.86901e-22)
(1.10602 -0.0568747 5.60977e-22)
(1.11397 -0.0468962 -1.99003e-22)
(1.13336 -0.0294581 -9.42148e-23)
(1.13666 -0.0144289 -3.90661e-23)
(1.14972 0.00751768 -7.3302e-22)
(1.14423 0.0267924 5.90512e-22)
(1.14784 0.0539036 2.21354e-22)
(1.13661 0.0752089 2.42494e-22)
(1.1222 0.104694 1.93233e-22)
(1.1084 0.121175 4.68141e-22)
(1.07072 0.139829 0)
(1.04835 0.151291 1.01363e-22)
(1.00379 0.152559 0)
(0.973573 0.152163 3.44172e-23)
(0.925966 0.145672 0)
(0.897055 0.136359 -7.33086e-22)
(0.867078 0.113993 3.97967e-21)
(0.821362 0.121769 -2.22276e-23)
(0.780822 0.0779948 -4.19094e-21)
(0.947101 0.00344894 1.49969e-20)
(0.945354 0.00201004 0)
(0.943182 0.00229514 2.37338e-21)
(0.940567 0.000210429 -2.22452e-20)
(0.940188 -0.00248963 2.0064e-20)
(0.938729 -0.00701839 -5.24174e-21)
(0.939657 -0.0120023 2.4349e-20)
(0.937856 -0.0175389 -2.74028e-20)
(0.942329 -0.0242631 2.77662e-21)
(0.941378 -0.0323093 2.81109e-21)
(0.948447 -0.0399528 -1.4079e-21)
(0.950224 -0.0497478 -1.39212e-21)
(0.960954 -0.0576088 5.31082e-21)
(0.96822 -0.0676648 -4.04962e-21)
(0.98026 -0.074971 0)
(0.996505 -0.0825376 3.8363e-24)
(1.00833 -0.0869956 -4.78457e-22)
(1.03359 -0.0889872 0)
(1.0461 -0.0878946 -5.56983e-22)
(1.07174 -0.0824557 5.57553e-22)
(1.08376 -0.0763613 2.06586e-23)
(1.10766 -0.0642308 0)
(1.11735 -0.0529567 0)
(1.1377 -0.036086 0)
(1.14141 -0.0202822 9.36224e-23)
(1.15572 0.00120569 1.45161e-22)
(1.1546 0.0202607 -9.02093e-22)
(1.15544 0.0471933 6.65041e-22)
(1.15292 0.0696137 -5.50363e-22)
(1.13397 0.0990538 3.05878e-22)
(1.12538 0.122989 1.58837e-21)
(1.09402 0.140006 -4.27943e-21)
(1.06401 0.159724 1.64127e-21)
(1.0315 0.164705 -5.41286e-22)
(1.00221 0.165778 2.24226e-22)
(0.948884 0.16458 2.71324e-22)
(0.917128 0.162781 3.13574e-22)
(0.891593 0.133984 3.26626e-21)
(0.849243 0.143672 1.16866e-21)
(0.802704 0.104142 -3.45906e-21)
(0.944869 0.00371967 2.25266e-21)
(0.942497 0.00194236 -2.4186e-21)
(0.940424 0.00178238 6.36234e-23)
(0.937503 -0.000306105 2.57233e-21)
(0.937016 -0.00400738 0)
(0.934928 -0.00857538 -5.65245e-21)
(0.937354 -0.0142848 1.13736e-20)
(0.934792 -0.0207393 1.46416e-20)
(0.939276 -0.0280366 -1.18774e-20)
(0.939248 -0.0360709 3.02773e-21)
(0.945826 -0.0452318 0)
(0.950496 -0.0542341 -1.01063e-20)
(0.956956 -0.0643157 1.86975e-20)
(0.970666 -0.0731988 -4.24921e-21)
(0.97808 -0.08211 -1.26345e-21)
(0.998134 -0.0881579 4.82949e-21)
(1.01024 -0.0945466 -3.78132e-21)
(1.03421 -0.0945742 0)
(1.04799 -0.0949427 0)
(1.07477 -0.0882707 0)
(1.08699 -0.0823692 -1.76615e-23)
(1.11108 -0.0702357 0)
(1.11968 -0.0578375 -8.83117e-24)
(1.14096 -0.0442753 3.65135e-22)
(1.14597 -0.0256648 -4.10007e-22)
(1.1598 -0.00739435 -2.03149e-22)
(1.16474 0.0134737 0)
(1.1631 0.0406938 0)
(1.16696 0.0627804 -4.45683e-23)
(1.14969 0.092622 -3.14178e-21)
(1.13819 0.122266 -7.65992e-22)
(1.12096 0.140418 2.58069e-21)
(1.0848 0.163637 6.63571e-22)
(1.04987 0.176522 1.89032e-21)
(1.0272 0.181754 -1.35446e-21)
(0.9799 0.179077 -1.9706e-22)
(0.937248 0.189168 0)
(0.910516 0.159424 -2.62008e-22)
(0.877251 0.167835 2.54168e-21)
(0.82882 0.139483 -2.31996e-21)
(0.942962 0.00158185 -2.1934e-20)
(0.940335 -0.000559905 2.51203e-21)
(0.938408 -0.00121075 -2.63093e-21)
(0.935261 -0.00352039 2.81848e-21)
(0.935111 -0.00778724 -2.92199e-21)
(0.932297 -0.012791 2.09901e-20)
(0.935142 -0.0195048 -2.42514e-20)
(0.933974 -0.0250159 0)
(0.93622 -0.0351029 3.20174e-21)
(0.939773 -0.0417244 9.50159e-21)
(0.941761 -0.0536429 -1.27963e-20)
(0.952681 -0.0605811 -1.37769e-20)
(0.955666 -0.0734951 1.66814e-20)
(0.970658 -0.0804846 -5.89955e-21)
(0.979054 -0.0909694 6.93019e-24)
(0.999758 -0.096557 0)
(1.01196 -0.102721 -2.35133e-21)
(1.03696 -0.102383 7.93787e-22)
(1.05117 -0.103044 1.4753e-21)
(1.0777 -0.0964141 0)
(1.08991 -0.0876925 1.85059e-23)
(1.11489 -0.080278 1.43986e-22)
(1.12328 -0.0628549 -1.40366e-22)
(1.14459 -0.0519967 -5.30654e-23)
(1.15157 -0.0347688 0)
(1.16404 -0.0140377 4.53057e-22)
(1.17317 0.0033996 0)
(1.17247 0.030601 0)
(1.17845 0.0559827 7.84726e-22)
(1.17125 0.0830868 0)
(1.15244 0.115291 8.07836e-22)
(1.14331 0.138936 -2.61451e-21)
(1.11517 0.165289 1.75479e-21)
(1.07294 0.182059 -5.38128e-22)
(1.05009 0.194369 3.3709e-21)
(1.01487 0.188384 -3.11851e-21)
(0.963855 0.21011 0)
(0.931678 0.186269 -8.92455e-23)
(0.90552 0.189809 -1.21697e-21)
(0.858187 0.169322 1.44204e-21)
(0.939523 0.00135321 -1.82824e-20)