/*--------------------------------*- C++ -*----------------------------------*\
  =========                 |
  \\      /  F ield         | OpenFOAM: The Open Source CFD Toolbox
   \\    /   O peration     | Website:  https://openfoam.org
    \\  /    A nd           | Version:  10
     \\/     M anipulation  |
\*---------------------------------------------------------------------------*/
FoamFile
{
    format      ascii;
    class       volScalarField;
    location    "0.799969";
    object      p;
}
// * * * * * * * * * * * * * * * * * * * * * * * * * * * * * * * * * * * * * //

dimensions      [1 -1 -2 0 0 0 0];

internalField   nonuniform List<scalar> 
16320
(
0.774567
0.75602
0.737831
0.719927
0.703057
0.687241
0.672625
0.659387
0.647602
0.637228
0.628262
0.620695
0.614187
0.608549
0.603571
0.599011
0.594958
0.59071
0.587327
0.583044
0.579061
0.575656
0.572634
0.570089
0.568552
0.567703
0.56773
0.568548
0.570446
0.5734
0.57745
0.582457
0.588333
0.769031
0.75022
0.731662
0.713665
0.696632
0.680771
0.66618
0.653067
0.64163
0.631623
0.623231
0.61628
0.610534
0.605754
0.601617
0.598024
0.59455
0.59072
0.588182
0.584116
0.580214
0.577056
0.573953
0.571436
0.569988
0.569092
0.569143
0.569911
0.571865
0.574838
0.578759
0.583656
0.58897
0.763274
0.744273
0.725486
0.707267
0.690045
0.674095
0.659596
0.646734
0.635615
0.626001
0.618317
0.612075
0.606863
0.603051
0.599866
0.597199
0.594474
0.59109
0.589277
0.585805
0.581928
0.57902
0.575933
0.573457
0.572124
0.571393
0.57152
0.572426
0.574502
0.577525
0.581476
0.586458
0.591367
0.75711
0.737909
0.718897
0.700444
0.683085
0.667116
0.652746
0.640139
0.629429
0.620455
0.613315
0.60775
0.603371
0.600298
0.598135
0.596405
0.594584
0.591748
0.590582
0.587836
0.584074
0.581339
0.578483
0.576019
0.574865
0.574367
0.574617
0.575724
0.577983
0.581153
0.585263
0.589819
0.59516
0.75042
0.731093
0.711875
0.693209
0.675728
0.659767
0.645582
0.633323
0.623041
0.614771
0.608297
0.603646
0.600407
0.597717
0.596581
0.595745
0.594629
0.592479
0.591874
0.589795
0.586353
0.583955
0.581254
0.579155
0.57817
0.577897
0.57831
0.579664
0.582097
0.585494
0.58952
0.594202
0.599373
0.742119
0.722931
0.703735
0.685111
0.667643
0.651826
0.63795
0.626177
0.616553
0.609086
0.603478
0.599678
0.597454
0.59647
0.595381
0.595576
0.595265
0.593881
0.593624
0.591929
0.58898
0.586809
0.584389
0.582673
0.58191
0.581852
0.582494
0.584155
0.586801
0.590197
0.59431
0.598923
0.603971
0.732562
0.713446
0.694268
0.675678
0.658396
0.642944
0.629641
0.618571
0.609779
0.603219
0.59862
0.595804
0.594751
0.594846
0.594621
0.595541
0.596214
0.595675
0.595824
0.594446
0.591972
0.590133
0.587896
0.586641
0.58607
0.586194
0.587092
0.589114
0.591803
0.595295
0.599355
0.603879
0.608841
0.720422
0.701424
0.68246
0.664262
0.647547
0.632853
0.620465
0.610337
0.602561
0.597046
0.593513
0.59185
0.59188
0.592725
0.593611
0.595532
0.597115
0.597248
0.597893
0.596904
0.595069
0.593637
0.591746
0.590868
0.590625
0.591003
0.592256
0.594269
0.597156
0.600625
0.604602
0.609031
0.613736
0.705008
0.686545
0.668158
0.650685
0.63493
0.621434
0.610192
0.601366
0.59485
0.590539
0.588229
0.587762
0.588501
0.590507
0.592863
0.595449
0.597929
0.598801
0.600064
0.599487
0.598361
0.597417
0.596028
0.595556
0.595639
0.596304
0.597733
0.599983
0.602839
0.606241
0.610059
0.614239
0.618737
0.687259
0.66949
0.651871
0.635346
0.620837
0.608785
0.599002
0.591734
0.586717
0.583813
0.582844
0.583379
0.58524
0.588537
0.592288
0.595385
0.598812
0.600546
0.602446
0.602398
0.602009
0.601639
0.600897
0.600817
0.601211
0.602182
0.603888
0.606185
0.608944
0.612178
0.615852
0.619719
0.623988
0.668571
0.65084
0.634106
0.618866
0.605857
0.595375
0.587352
0.581846
0.578482
0.577076
0.577398
0.579135
0.582424
0.586823
0.591708
0.595741
0.59999
0.602623
0.605136
0.605857
0.606206
0.606476
0.606583
0.606776
0.607593
0.608913
0.610687
0.612948
0.615571
0.61889
0.622257
0.626321
0.630072
0.64977
0.632672
0.616563
0.602159
0.590345
0.581436
0.57535
0.57158
0.570516
0.570531
0.572083
0.575475
0.579986
0.585531
0.591454
0.596573
0.601693
0.605202
0.608379
0.609968
0.61118
0.612167
0.612994
0.613775
0.614995
0.616493
0.618331
0.620826
0.62351
0.626555
0.629724
0.633205
0.636779
0.63315
0.615792
0.599553
0.585504
0.574702
0.567434
0.56331
0.561758
0.562438
0.564128
0.56746
0.572301
0.578124
0.584937
0.591739
0.59837
0.604138
0.608501
0.612423
0.614927
0.617033
0.618829
0.620422
0.621957
0.623571
0.625505
0.627669
0.629858
0.632441
0.635273
0.638184
0.64121
0.644187
0.618907
0.600769
0.583998
0.57003
0.560125
0.554427
0.552217
0.552689
0.555144
0.558703
0.563665
0.569932
0.577183
0.585249
0.592988
0.600784
0.607345
0.612591
0.617224
0.620701
0.623771
0.626435
0.628806
0.631003
0.633193
0.635409
0.637715
0.640079
0.642557
0.64508
0.647561
0.65002
0.652278
0.60725
0.587964
0.57059
0.556816
0.547779
0.54345
0.543088
0.545199
0.549385
0.554455
0.560982
0.568728
0.577395
0.586574
0.595496
0.604043
0.611344
0.617434
0.622768
0.627238
0.631272
0.634811
0.637966
0.640836
0.643574
0.646165
0.648672
0.651088
0.653401
0.655568
0.657585
0.659503
0.660737
0.598198
0.578363
0.560671
0.547251
0.538929
0.535785
0.536675
0.540145
0.545477
0.551851
0.559811
0.568925
0.578713
0.589136
0.598976
0.608039
0.615976
0.622839
0.628912
0.63426
0.639199
0.643605
0.647542
0.651089
0.654346
0.657333
0.660038
0.662464
0.664631
0.666483
0.667875
0.668874
0.669631
0.592961
0.572881
0.555302
0.541984
0.534174
0.531812
0.5334
0.537768
0.543701
0.551328
0.560413
0.570529
0.581597
0.592789
0.603166
0.612518
0.620971
0.628473
0.635216
0.641389
0.6471
0.652261
0.656925
0.661114
0.664884
0.668263
0.671182
0.673674
0.675717
0.677043
0.677851
0.678276
0.67851
0.591371
0.571365
0.553931
0.540585
0.53303
0.530895
0.532889
0.537674
0.544292
0.552698
0.562766
0.573985
0.585752
0.597147
0.607644
0.617176
0.625983
0.633956
0.641306
0.648149
0.654498
0.660304
0.665576
0.670352
0.674628
0.678376
0.681452
0.683892
0.685647
0.686861
0.687519
0.687507
0.687807
0.592201
0.573072
0.556071
0.542887
0.535524
0.533412
0.535159
0.539968
0.547091
0.556285
0.567021
0.578634
0.590502
0.601772
0.612114
0.621787
0.630798
0.63906
0.646828
0.654189
0.66103
0.667353
0.673148
0.678438
0.68304
0.686997
0.690276
0.69283
0.694713
0.695933
0.696815
0.697088
0.697367
0.595549
0.577625
0.561348
0.54843
0.54129
0.538964
0.540331
0.545005
0.55223
0.561486
0.572178
0.583504
0.594904
0.605889
0.616247
0.626028
0.63517
0.643685
0.651612
0.659274
0.666489
0.673231
0.679408
0.68498
0.689905
0.694132
0.697693
0.700549
0.702856
0.704594
0.705938
0.706685
0.707536
0.601021
0.583917
0.568956
0.55649
0.549318
0.546972
0.547635
0.551854
0.558689
0.567501
0.577628
0.588306
0.599128
0.609668
0.619875
0.629612
0.638791
0.647434
0.655615
0.663376
0.670769
0.677736
0.684192
0.690054
0.695294
0.699894
0.703925
0.707351
0.710267
0.712772
0.715044
0.717071
0.71721
0.607091
0.59173
0.577756
0.565976
0.558861
0.556271
0.556369
0.559745
0.565706
0.573443
0.5826
0.59272
0.602832
0.612916
0.622842
0.632436
0.641535
0.650224
0.658541
0.666349
0.673807
0.680917
0.687556
0.693779
0.699392
0.704523
0.709112
0.713218
0.716977
0.720778
0.723445
0.724686
0.724891
0.613613
0.599316
0.586715
0.575801
0.569287
0.565667
0.565307
0.567576
0.57236
0.579291
0.587589
0.596588
0.605998
0.61555
0.625086
0.634398
0.643317
0.651814
0.660088
0.668125
0.675751
0.682977
0.689729
0.696431
0.702466
0.708113
0.713357
0.718294
0.72296
0.72642
0.728899
0.73068
0.731951
0.620754
0.606923
0.594949
0.585061
0.577932
0.574519
0.573657
0.575098
0.57888
0.584622
0.5918
0.599856
0.608524
0.617439
0.626379
0.635214
0.643918
0.652523
0.660822
0.668846
0.676603
0.684125
0.691264
0.698132
0.704604
0.710789
0.71645
0.721773
0.726263
0.730183
0.733474
0.73631
0.738789
0.628208
0.614607
0.602985
0.593298
0.585913
0.582107
0.58089
0.581541
0.584446
0.589171
0.595316
0.602496
0.610366
0.618638
0.627088
0.635568
0.644013
0.652378
0.660632
0.668808
0.676767
0.684506
0.691964
0.699124
0.705842
0.71217
0.717687
0.723171
0.728209
0.732895
0.73715
0.7412
0.745463
0.6355
0.622332
0.610865
0.601042
0.593355
0.588909
0.587269
0.587194
0.589212
0.592997
0.59821
0.604486
0.611559
0.619176
0.627088
0.635166
0.643446
0.651789
0.660064
0.66828
0.676377
0.684293
0.691851
0.699108
0.706021
0.712399
0.718174
0.723655
0.72893
0.734338
0.740016
0.745559
0.751576
0.64235
0.62974
0.618294
0.608278
0.600253
0.594871
0.592641
0.592075
0.593239
0.596125
0.600423
0.605862
0.612196
0.619261
0.626773
0.634591
0.642631
0.650778
0.659091
0.66736
0.675447
0.683412
0.691167
0.698475
0.705368
0.711857
0.717926
0.723778
0.729539
0.735443
0.74181
0.748654
0.756014
0.648478
0.636253
0.624824
0.61478
0.606475
0.600402
0.597402
0.59646
0.596892
0.598991
0.602489
0.607164
0.612767
0.6191
0.626109
0.633613
0.641489
0.649504
0.657624
0.665888
0.674155
0.682106
0.689793
0.697174
0.70422
0.710801
0.717067
0.723134
0.729109
0.735348
0.742305
0.750044
0.759083
0.653353
0.641579
0.6304
0.620267
0.611814
0.605306
0.601593
0.600092
0.59988
0.601197
0.603958
0.607952
0.612991
0.618844
0.625392
0.632461
0.640024
0.648003
0.656219
0.664416
0.672564
0.680552
0.688366
0.695705
0.702697
0.709354
0.715684
0.721802
0.727867
0.7342
0.741269
0.749343
0.760313
0.65711
0.645742
0.634695
0.624586
0.616084
0.609451
0.605038
0.602924
0.602342
0.602992
0.605089
0.608431
0.61286
0.618255
0.624492
0.63146
0.638877
0.646694
0.654789
0.66299
0.67129
0.679236
0.686898
0.694227
0.701183
0.707724
0.713921
0.719902
0.725861
0.731941
0.738919
0.748448
0.760617
0.659649
0.648676
0.637824
0.627873
0.619435
0.612653
0.607802
0.605169
0.604206
0.604379
0.605966
0.608831
0.61284
0.617869
0.623785
0.630488
0.637803
0.645598
0.653819
0.661957
0.670113
0.678086
0.685761
0.692896
0.699749
0.70603
0.711975
0.717674
0.723256
0.728867
0.737376
0.747029
0.759915
0.661052
0.650513
0.640195
0.630521
0.621973
0.614997
0.609784
0.606728
0.605459
0.605264
0.606442
0.608936
0.612633
0.617417
0.623157
0.629845
0.637179
0.644905
0.652978
0.661164
0.669339
0.677299
0.6849
0.691772
0.698467
0.704477
0.710131
0.715484
0.720902
0.726791
0.735626
0.745658
0.759148
0.66193
0.651826
0.641815
0.632267
0.62365
0.616547
0.61125
0.60779
0.606254
0.605844
0.606724
0.60897
0.612478
0.617224
0.622884
0.629381
0.636667
0.64444
0.652534
0.660741
0.668872
0.676752
0.684122
0.690868
0.697288
0.703111
0.708563
0.713886
0.719375
0.725811
0.73427
0.744704
0.759109
0.662564
0.652561
0.642615
0.633187
0.624652
0.617516
0.612112
0.608639
0.60689
0.60638
0.607066
0.609151
0.612525
0.617069
0.622698
0.629233
0.636505
0.644281
0.652365
0.660513
0.668469
0.676245
0.683528
0.690342
0.696545
0.702312
0.707632
0.712893
0.718639
0.725435
0.734005
0.74489
0.758834
0.662204
0.653047
0.643023
0.633643
0.625301
0.618162
0.612751
0.609188
0.607426
0.606827
0.607362
0.609339
0.612664
0.617179
0.622795
0.629337
0.636541
0.644296
0.652346
0.660276
0.668068
0.67577
0.683093
0.689684
0.695682
0.701328
0.706631
0.712132
0.718041
0.725194
0.734188
0.745521
0.759999
0.661897
0.652772
0.64335
0.633924
0.625636
0.61882
0.613319
0.609795
0.608018
0.607355
0.607726
0.609876
0.613044
0.61749
0.623103
0.629531
0.63666
0.644304
0.652147
0.659979
0.667617
0.675176
0.68222
0.688596
0.694253
0.70045
0.7064
0.712256
0.718444
0.725818
0.73528
0.74703
0.761791
0.661522
0.652438
0.643802
0.634375
0.626071
0.61954
0.613755
0.610485
0.60875
0.608062
0.608386
0.610498
0.613598
0.618035
0.6235
0.629847
0.63677
0.644202
0.651759
0.659277
0.666711
0.673913
0.68088
0.688053
0.69461
0.699928
0.705491
0.711582
0.718345
0.726312
0.7363
0.748491
0.763373
0.661264
0.652419
0.644193
0.635114
0.626681
0.620045
0.61499
0.61145
0.609721
0.609017
0.609373
0.611341
0.614392
0.618716
0.624089
0.630301
0.63691
0.643842
0.650943
0.658214
0.665294
0.672416
0.680872
0.687092
0.693645
0.699891
0.706023
0.712758
0.72002
0.72864
0.739057
0.751601
0.766159
0.661434
0.652915
0.644989
0.636202
0.627944
0.621395
0.61656
0.612858
0.61104
0.610234
0.6109
0.612498
0.615523
0.619721
0.62496
0.63086
0.636804
0.643299
0.650229
0.657249
0.664229
0.671407
0.679706
0.687246
0.694106
0.701191
0.708064
0.714982
0.722857
0.732495
0.743385
0.756081
0.770663
0.662152
0.654083
0.64656
0.638172
0.630209
0.623799
0.618976
0.615097
0.613067
0.612171
0.612833
0.614189
0.616979
0.621143
0.626354
0.631134
0.636893
0.6432
0.64986
0.656724
0.663369
0.671643
0.680009
0.688294
0.69577
0.703319
0.710783
0.718079
0.726816
0.736824
0.748118
0.760955
0.775566
0.663453
0.655992
0.649145
0.641279
0.633728
0.627461
0.622546
0.618424
0.616089
0.615024
0.615404
0.616476
0.619109
0.622997
0.627606
0.632047
0.63759
0.643643
0.650065
0.655622
0.664317
0.673014
0.681404
0.689632
0.697936
0.706073
0.713141
0.72141
0.730758
0.741131
0.753028
0.766085
0.780574
0.665352
0.658835
0.652311
0.645246
0.638429
0.632444
0.627553
0.623258
0.62043
0.619043
0.618917
0.619743
0.622119
0.625903
0.629095
0.633652
0.639149
0.644977
0.650787
0.656217
0.666327
0.674826
0.683441
0.692221
0.701052
0.708089
0.716127
0.72509
0.73487
0.745935
0.757926
0.771031
0.785323
0.667787
0.662419
0.656562
0.650527
0.644603
0.638902
0.633932
0.629598
0.626292
0.62444
0.623836
0.624182
0.626069
0.629301
0.631763
0.636451
0.641491
0.6469
0.652188
0.659405
0.669115
0.677736
0.686885
0.696162
0.703202
0.711266
0.719912
0.72917
0.739646
0.750746
0.762823
0.775825
0.789604
0.670849
0.666525
0.661792
0.65682
0.651716
0.646559
0.641745
0.637441
0.633741
0.631384
0.630218
0.630093
0.63132
0.633806
0.636275
0.640471
0.645038
0.650206
0.655451
0.664344
0.673272
0.681887
0.691671
0.698943
0.706896
0.71549
0.724368
0.73437
0.744602
0.755658
0.767479
0.78013
0.793543
0.674478
0.671384
0.667809
0.663961
0.659702
0.655286
0.650868
0.646642
0.642856
0.640032
0.638276
0.637777
0.638615
0.639655
0.642125
0.645882
0.650218
0.655247
0.660643
0.670082
0.678128
0.687104
0.695827
0.703412
0.711756
0.720377
0.729895
0.739354
0.749531
0.760204
0.771757
0.784161
0.79726
0.678597
0.676713
0.674306
0.671781
0.668481
0.66493
0.661163
0.657438
0.653843
0.650615
0.648016
0.646924
0.647146
0.647327
0.649623
0.652891
0.656974
0.661782
0.667826
0.676527
0.684361
0.693053
0.700641
0.70877
0.717126
0.726237
0.735094
0.744374
0.753978
0.764422
0.775808
0.788054
0.800894
0.682731
0.68265
0.681616
0.680164
0.677877
0.675397
0.672411
0.669177
0.665791
0.662422
0.659721
0.658022
0.657363
0.657029
0.658646
0.661402
0.665042
0.669368
0.676375
0.683576
0.691239
0.698703
0.706572
0.714686
0.723307
0.731678
0.740111
0.748667
0.75802
0.768251
0.779493
0.791603
0.804217
0.687406
0.6892
0.68954
0.689091
0.688389
0.686848
0.68444
0.68172
0.678673
0.675373
0.672405
0.670076
0.668917
0.668231
0.669023
0.67123
0.674458
0.678473
0.684737
0.691127
0.69814
0.705319
0.712894
0.720949
0.728993
0.73672
0.744369
0.752553
0.761496
0.771487
0.782562
0.794501
0.806934
0.693081
0.695596
0.697877
0.698774
0.6988
0.698263
0.696871
0.694774
0.691943
0.689066
0.685993
0.683237
0.68142
0.680367
0.680431
0.681986
0.684586
0.688463
0.69349
0.69917
0.705371
0.712042
0.719524
0.7271
0.734232
0.741062
0.748146
0.755771
0.764282
0.773925
0.784718
0.796392
0.808541
0.698739
0.702302
0.706315
0.708568
0.70975
0.709948
0.709403
0.707921
0.705744
0.702867
0.699697
0.69686
0.694396
0.692821
0.692194
0.693114
0.69491
0.698185
0.702419
0.70729
0.712884
0.719477
0.726176
0.73256
0.738828
0.744682
0.751153
0.7582
0.766165
0.77531
0.785673
0.796973
0.808765
0.704623
0.709781
0.713964
0.718115
0.720508
0.721613
0.72176
0.720877
0.719026
0.716453
0.71351
0.709986
0.707437
0.705445
0.703754
0.704039
0.705119
0.70719
0.71058
0.715849
0.721053
0.726545
0.732119
0.737446
0.742647
0.747808
0.753571
0.759973
0.767251
0.775657
0.785349
0.795961
0.807128
0.710213
0.716867
0.722473
0.727159
0.730844
0.732949
0.733579
0.7333
0.73191
0.729519
0.726589
0.723546
0.720174
0.717933
0.716275
0.715622
0.716302
0.718119
0.720897
0.723867
0.72832
0.733048
0.737655
0.742054
0.746185
0.750534
0.755542
0.761094
0.767445
0.774785
0.783438
0.793045
0.803288
0.715671
0.723402
0.730179
0.735624
0.740197
0.743437
0.745029
0.745115
0.743977
0.74181
0.738957
0.735611
0.732232
0.729134
0.726956
0.725788
0.725732
0.726775
0.728849
0.731609
0.735329
0.739089
0.742767
0.746238
0.74961
0.75259
0.756292
0.760834
0.766234
0.772629
0.780304
0.788772
0.797854
0.722665
0.729819
0.737342
0.743771
0.748747
0.752339
0.755348
0.755872
0.755403
0.753528
0.750343
0.746895
0.743416
0.740156
0.737488
0.735749
0.734949
0.735322
0.736711
0.739203
0.741999
0.74474
0.74767
0.749552
0.751814
0.754721
0.757463
0.76096
0.765309
0.770782
0.777329
0.784579
0.79215
0.728257
0.737212
0.744263
0.75102
0.756707
0.760869
0.763035
0.765003
0.765382
0.763732
0.761119
0.757976
0.754087
0.750368
0.747345
0.745195
0.744243
0.744286
0.745016
0.746416
0.748423
0.749778
0.751194
0.753002
0.754545
0.75634
0.75837
0.761209
0.764856
0.769467
0.774992
0.781095
0.787319
0.733985
0.743327
0.751638
0.757828
0.763508
0.768059
0.771075
0.77225
0.772082
0.771486
0.770558
0.767339
0.763445
0.760017
0.757026
0.754628
0.753049
0.752343
0.752787
0.753523
0.753447
0.754804
0.755618
0.756413
0.757373
0.758404
0.760143
0.762591
0.765787
0.769729
0.774281
0.779302
0.784372
0.739646
0.749455
0.757733
0.764687
0.769564
0.77416
0.777326
0.779092
0.779421
0.778211
0.775191
0.772363
0.770291
0.768318
0.765543
0.763014
0.76104
0.75942
0.757998
0.758066
0.759108
0.75953
0.759755
0.76014
0.760758
0.761779
0.763504
0.765831
0.768713
0.772207
0.776093
0.78016
0.784055
0.744577
0.755327
0.763655
0.770116
0.775795
0.77936
0.782463
0.784118
0.784382
0.783525
0.781443
0.778806
0.775159
0.7713
0.768355
0.766105
0.764615
0.764055
0.764331
0.764132
0.764108
0.764011
0.764041
0.764377
0.765026
0.766324
0.768334
0.77085
0.774022
0.777526
0.781013
0.784298
0.786922
0.748715
0.75988
0.768936
0.775237
0.781094
0.785442
0.787223
0.788133
0.787915
0.786811
0.78482
0.78238
0.779611
0.776737
0.774244
0.772271
0.770808
0.76988
0.769282
0.76874
0.768454
0.768314
0.768436
0.76893
0.769924
0.7717
0.774119
0.77727
0.78095
0.78507
0.788881
0.791969
0.793058
0.751773
0.76339
0.772786
0.779967
0.786281
0.789898
0.792183
0.792321
0.790717
0.788767
0.786601
0.784188
0.781556
0.779032
0.776897
0.775233
0.774006
0.773186
0.772665
0.772311
0.772144
0.772171
0.772514
0.773365
0.774858
0.777208
0.780624
0.784617
0.78901
0.794099
0.798846
0.80191
0.801881
0.754303
0.765936
0.775615
0.784385
0.790337
0.79382
0.795061
0.794778
0.793591
0.790296
0.787626
0.784809
0.782104
0.779955
0.778053
0.776621
0.775584
0.775022
0.774762
0.774682
0.774758
0.775066
0.775686
0.77688
0.779093
0.782446
0.78686
0.791541
0.798697
0.804971
0.810156
0.812227
0.81015
0.756084
0.767911
0.777423
0.787673
0.793563
0.79665
0.797509
0.796786
0.794715
0.79248
0.789355
0.784942
0.782222
0.779844
0.777963
0.776715
0.775989
0.775664
0.775553
0.775535
0.775755
0.776318
0.777251
0.778969
0.781915
0.78624
0.791449
0.799702
0.807339
0.814992
0.8199
0.820784
0.817131
0.757377
0.769269
0.779331
0.789006
0.795069
0.798224
0.798633
0.797674
0.795158
0.791876
0.788471
0.785848
0.782687
0.779124
0.777648
0.776551
0.775825
0.775461
0.775325
0.775201
0.775361
0.776048
0.777348
0.779585
0.782912
0.787449
0.795033
0.803566
0.812819
0.820155
0.8259
0.826226
0.821376
0.75782
0.76996
0.780456
0.789268
0.795508
0.798303
0.798491
0.79717
0.79445
0.79102
0.787209
0.783925
0.781075
0.779315
0.777395
0.775081
0.774284
0.774064
0.773994
0.773835
0.773819
0.774071
0.775064
0.777235
0.780754
0.786579
0.794073
0.802875
0.812323
0.821601
0.826709
0.826792
0.821122
0.757513
0.769942
0.780246
0.788311
0.793849
0.796693
0.796778
0.795374
0.792248
0.788793
0.785081
0.781427
0.778354
0.776571
0.774961
0.774274
0.772971
0.772016
0.770867
0.770074
0.769394
0.769
0.769553
0.771375
0.775236
0.780978
0.787964
0.796503
0.807207
0.815328
0.819867
0.819091
0.812104
0.755919
0.768246
0.778189
0.785563
0.790532
0.79311
0.793161
0.791686
0.788453
0.784581
0.781077
0.777723
0.774689
0.7725
0.770838
0.769996
0.769025
0.767302
0.765535
0.763898
0.762376
0.761207
0.76119
0.762152
0.765311
0.769217
0.774953
0.7827
0.791158
0.797107
0.800325
0.798863
0.792207
0.752671
0.764523
0.773945
0.780676
0.7851
0.787317
0.787389
0.785938
0.782717
0.778992
0.775164
0.772061
0.769365
0.76714
0.765408
0.763685
0.762376
0.760483
0.758098
0.755674
0.753342
0.751203
0.750163
0.750661
0.751522
0.753678
0.756129
0.763085
0.766461
0.770486
0.771259
0.769881
0.765534
0.74744
0.758454
0.767178
0.773358
0.777246
0.779139
0.779165
0.777767
0.774857
0.771383
0.767782
0.764482
0.762017
0.759973
0.758234
0.756033
0.753891
0.75151
0.748551
0.745497
0.74246
0.739402
0.737142
0.736399
0.735125
0.735283
0.736228
0.738011
0.739188
0.741289
0.739625
0.740674
0.738382
0.74042
0.75019
0.75798
0.763454
0.766851
0.768437
0.768418
0.767203
0.764608
0.76159
0.758423
0.755333
0.752851
0.750833
0.74914
0.747008
0.744177
0.741068
0.737589
0.734019
0.730297
0.726487
0.723072
0.720679
0.717989
0.714644
0.714877
0.712441
0.709751
0.710543
0.710821
0.712421
0.71221
0.732065
0.740188
0.746701
0.751304
0.754127
0.755375
0.755293
0.754324
0.752182
0.749625
0.746994
0.744454
0.741887
0.740353
0.738773
0.736464
0.733574
0.729948
0.725951
0.72198
0.717669
0.713117
0.708892
0.704983
0.700893
0.695169
0.693533
0.687951
0.684608
0.683319
0.683012
0.68536
0.687819
0.723417
0.729409
0.734133
0.7375
0.73954
0.740362
0.740255
0.739574
0.737943
0.735975
0.733899
0.731981
0.730136
0.72841
0.726952
0.725355
0.722225
0.718602
0.714469
0.710127
0.705431
0.700506
0.695337
0.690283
0.685192
0.678222
0.673551
0.665913
0.661744
0.659855
0.658654
0.661123
0.665717
0.715746
0.718855
0.721313
0.723039
0.723985
0.72428
0.724051
0.723586
0.722521
0.721228
0.719906
0.718673
0.717605
0.716342
0.715436
0.713375
0.710773
0.707613
0.703647
0.699281
0.694409
0.689112
0.683429
0.677591
0.671585
0.663632
0.657528
0.648076
0.64272
0.639621
0.637926
0.640651
0.646599
0.709755
0.709565
0.70939
0.709149
0.70874
0.708285
0.707749
0.707451
0.706818
0.706276
0.705738
0.705262
0.705016
0.704635
0.703865
0.702509
0.700492
0.697759
0.694241
0.690115
0.685337
0.679973
0.673988
0.667595
0.66081
0.652726
0.644361
0.634389
0.62791
0.623574
0.621673
0.624525
0.631044
0.705422
0.702138
0.698961
0.696521
0.694713
0.693347
0.692457
0.692568
0.692123
0.69194
0.692198
0.692719
0.693306
0.693857
0.693915
0.693388
0.692419
0.689808
0.68675
0.683157
0.678756
0.673557
0.667495
0.660691
0.653321
0.645341
0.635079
0.625756
0.618329
0.613429
0.611685
0.613741
0.619378
0.702516
0.695939
0.690364
0.685927
0.682638
0.680334
0.679128
0.679187
0.678982
0.679319
0.680259
0.681818
0.683575
0.68506
0.686152
0.686424
0.686227
0.684643
0.682156
0.678949
0.674838
0.669774
0.663699
0.656611
0.648629
0.639878
0.630215
0.620841
0.612971
0.607437
0.605732
0.607277
0.612022
0.699797
0.691067
0.683394
0.677206
0.672625
0.66954
0.668002
0.667987
0.668093
0.668931
0.670798
0.673485
0.676421
0.679087
0.681147
0.6824
0.682737
0.682463
0.680669
0.677846
0.674022
0.669045
0.662827
0.655506
0.647043
0.63799
0.628182
0.618897
0.61099
0.605356
0.603557
0.604824
0.609124
0.697373
0.686917
0.67769
0.670402
0.665057
0.661494
0.65969
0.659624
0.660168
0.661757
0.664661
0.668475
0.672538
0.676309
0.679441
0.681597
0.682701
0.682728
0.681553
0.678961
0.675158
0.670129
0.663824
0.656293
0.647648
0.638293
0.628589
0.619553
0.611932
0.606645
0.605243
0.606279
0.610445
0.694646
0.683274
0.673634
0.666268
0.660768
0.657013
0.654987
0.654838
0.655987
0.658533
0.662545
0.667413
0.672444
0.676992
0.680703
0.683289
0.684708
0.684995
0.684258
0.681887
0.678211
0.673129
0.666673
0.658908
0.650009
0.640541
0.631239
0.622928
0.616014
0.611634
0.611238
0.612093
0.615971
0.692
0.6813
0.67224
0.665158
0.659849
0.656246
0.654285
0.654544
0.656377
0.659821
0.664593
0.669977
0.675506
0.680655
0.684963
0.688093
0.689889
0.69036
0.689723
0.687459
0.683653
0.678369
0.671576
0.663565
0.654889
0.645883
0.637319
0.630111
0.623813
0.621718
0.620893
0.621912
0.625467
0.690813
0.681403
0.673591
0.667249
0.662545
0.659526
0.658275
0.658696
0.661014
0.665404
0.670868
0.676936
0.683046
0.688635
0.693313
0.696752
0.698664
0.698967
0.697909
0.69527
0.691173
0.685646
0.678799
0.670904
0.662558
0.654287
0.646909
0.642166
0.637162
0.63457
0.633996
0.634544
0.63601
0.691885
0.684312
0.678162
0.672805
0.669007
0.666937
0.666418
0.667359
0.670274
0.675396
0.681418
0.687965
0.694331
0.700125
0.704928
0.708314
0.709975
0.710035
0.708546
0.705525
0.701284
0.695338
0.688117
0.680844
0.674168
0.668347
0.662541
0.65868
0.654638
0.651194
0.647937
0.643936
0.640167
0.696433
0.691166
0.685708
0.681233
0.678649
0.677779
0.678056
0.679898
0.683555
0.688891
0.695033
0.701851
0.708281
0.714259
0.719238
0.722537
0.723974
0.723378
0.721373
0.718295
0.715219
0.709779
0.703492
0.69752
0.69023
0.687537
0.682601
0.674932
0.665501
0.657494
0.652266
0.647927
0.643446
0.703487
0.700762
0.698062
0.695648
0.693581
0.692478
0.692377
0.694375
0.697974
0.702791
0.709718
0.718016
0.724198
0.730187
0.735913
0.740099
0.742018
0.741676
0.739843
0.736797
0.733526
0.727788
0.721479
0.718463
0.71226
0.701225
0.691011
0.682916
0.674886
0.666626
0.658792
0.651559
0.644719
0.710977
0.710166
0.709512
0.708929
0.708821
0.709572
0.711221
0.714134
0.718399
0.723676
0.729645
0.735297
0.742088
0.748127
0.755018
0.759827
0.761958
0.761302
0.759152
0.756395
0.754556
0.748934
0.741506
0.730703
0.722346
0.713835
0.704393
0.694403
0.683818
0.67281
0.662149
0.652181
0.643309
0.718077
0.719017
0.720257
0.721334
0.722688
0.724609
0.727145
0.7306
0.735217
0.740758
0.7473
0.754965
0.764494
0.77376
0.779449
0.782589
0.783632
0.782376
0.778696
0.7753
0.767503
0.760838
0.754051
0.745789
0.737399
0.728024
0.717038
0.704521
0.691082
0.677031
0.663475
0.651234
0.640605
0.721994
0.723063
0.72419
0.72598
0.728043
0.730378
0.733219
0.736534
0.740592
0.745325
0.751013
0.757768
0.765149
0.772382
0.778401
0.783207
0.786637
0.788413
0.788161
0.785812
0.780878
0.775661
0.769775
0.762365
0.753376
0.742326
0.728856
0.712994
0.696206
0.679284
0.663422
0.649235
0.637272
0.723104
0.724741
0.726332
0.728333
0.730719
0.733321
0.736038
0.73892
0.743065
0.747859
0.753679
0.760558
0.768409
0.775654
0.782388
0.788232
0.792942
0.79621
0.797461
0.797425
0.795371
0.792028
0.787104
0.779452
0.769695
0.75691
0.741317
0.723522
0.703529
0.683289
0.663923
0.647078
0.633789
0.722265
0.723993
0.725675
0.727635
0.729763
0.732175
0.734999
0.738444
0.74242
0.746946
0.752473
0.759093
0.766512
0.774192
0.78181
0.788977
0.795359
0.800558
0.804682
0.807575
0.808527
0.808414
0.806174
0.801016
0.790437
0.77473
0.754991
0.732729
0.709067
0.685463
0.663487
0.644891
0.630546
0.719761
0.721228
0.722716
0.724417
0.72635
0.728358
0.730747
0.733324
0.736605
0.740806
0.746072
0.752507
0.759989
0.768192
0.77671
0.78522
0.793201
0.800481
0.807252
0.813828
0.820186
0.8245
0.824968
0.820017
0.808224
0.790205
0.767342
0.741625
0.714865
0.688566
0.664357
0.644008
0.628547
0.715954
0.716952
0.717955
0.719024
0.720171
0.721463
0.723133
0.725063
0.727743
0.731418
0.736236
0.742326
0.74962
0.757936
0.767006
0.77653
0.786324
0.796202
0.805804
0.815188
0.824229
0.831938
0.836405
0.834133
0.823174
0.803926
0.778802
0.750418
0.72086
0.691972
0.666318
0.644633
0.628325
0.71123
0.711737
0.712149
0.712472
0.712725
0.71304
0.713686
0.714774
0.716661
0.719624
0.723822
0.729318
0.736095
0.744009
0.752921
0.762529
0.772984
0.783819
0.795039
0.807344
0.820205
0.832133
0.839863
0.840098
0.831253
0.813249
0.787725
0.758025
0.726996
0.696859
0.670438
0.648157
0.631018
0.705739
0.7061
0.705929
0.705504
0.704864
0.704116
0.703617
0.703691
0.704667
0.706818
0.710276
0.715006
0.720932
0.727922
0.736011
0.744853
0.754387
0.764802
0.776417
0.789653
0.804906
0.820591
0.833622
0.839498
0.834369
0.818383
0.794362
0.764782
0.733973
0.703804
0.677741
0.655517
0.637437
0.699993
0.700233
0.699638
0.698603
0.697171
0.695543
0.694132
0.693086
0.693108
0.694253
0.696751
0.700547
0.705404
0.711056
0.717813
0.725173
0.733207
0.742147
0.752289
0.764374
0.779249
0.797073
0.814871
0.827314
0.828949
0.818798
0.799027
0.772958
0.743256
0.714131
0.689098
0.667809
0.648355
0.693625
0.693969
0.693294
0.691674
0.689866
0.68772
0.685552
0.683809
0.682855
0.682965
0.684319
0.686945
0.690596
0.694908
0.700014
0.705768
0.711849
0.718542
0.7262
0.73565
0.748092
0.7645
0.784656
0.803363
0.814149
0.812889
0.800895
0.781183
0.755486
0.729483
0.706712
0.685874
0.664733
0.686773
0.68708
0.686615
0.685122
0.683011
0.680481
0.678016
0.675742
0.674015
0.673297
0.673649
0.675
0.677396
0.680541
0.684283
0.688253
0.69255
0.697636
0.702587
0.708937
0.717901
0.731065
0.749521
0.771852
0.791453
0.801279
0.799459
0.789446
0.772808
0.750989
0.731808
0.712666
0.687605
0.679979
0.680617
0.679636
0.678361
0.676377
0.673914
0.671141
0.668632
0.666599
0.66522
0.664744
0.665154
0.666403
0.66848
0.671125
0.674096
0.677285
0.680434
0.684219
0.687966
0.693608
0.70282
0.717428
0.738041
0.761821
0.781974
0.792053
0.792815
0.788329
0.779095
0.76331
0.749302
0.717808
0.673237
0.67342
0.673115
0.671486
0.669743
0.667493
0.664915
0.662404
0.660051
0.658346
0.657501
0.657278
0.65783
0.659128
0.660945
0.663233
0.665798
0.66821
0.670766
0.673885
0.677338
0.683099
0.693018
0.70892
0.730962
0.755273
0.77589
0.789108
0.794298
0.796695
0.792689
0.784396
0.7498
0.59435
0.602093
0.60985
0.618455
0.627468
0.639853
0.655941
0.675655
0.595448
0.602489
0.609835
0.618026
0.626817
0.639696
0.654207
0.67382
0.597659
0.604213
0.611282
0.619061
0.62773
0.640546
0.654409
0.673396
0.600979
0.607226
0.614174
0.621482
0.630249
0.642294
0.655624
0.673837
0.604979
0.61106
0.617669
0.624839
0.634137
0.644353
0.657462
0.674753
0.609447
0.615392
0.621514
0.628353
0.637719
0.647285
0.659792
0.675924
0.61409
0.619519
0.625469
0.6332
0.640886
0.650397
0.662282
0.677292
0.618623
0.623869
0.630423
0.63685
0.644466
0.653635
0.664802
0.679002
0.623159
0.629095
0.634533
0.640842
0.648221
0.656854
0.667531
0.680619
0.628952
0.63368
0.639021
0.645082
0.651948
0.660196
0.670009
0.682922
0.634343
0.638915
0.64385
0.649391
0.655891
0.663211
0.67307
0.685541
0.64063
0.644616
0.64892
0.654012
0.659536
0.666802
0.676404
0.68805
0.647482
0.650868
0.654108
0.65857
0.663742