/*--------------------------------*- C++ -*----------------------------------*\
  =========                 |
  \\      /  F ield         | OpenFOAM: The Open Source CFD Toolbox
   \\    /   O peration     | Website:  https://openfoam.org
    \\  /    A nd           | Version:  10
     \\/     M anipulation  |
\*---------------------------------------------------------------------------*/
FoamFile
{
    format      ascii;
    class       surfaceScalarField;
    location    "0.799969";
    object      phi;
}
// * * * * * * * * * * * * * * * * * * * * * * * * * * * * * * * * * * * * * //

dimensions      [1 0 -1 0 0 0 0];

internalField   nonuniform List<scalar> 
32368
(
0.000281065
-0.000118324
0.000292658
-0.000109879
0.000301013
-0.000101086
0.000306367
-9.22214e-05
0.000309626
-8.36506e-05
0.000310725
-7.55615e-05
0.00031002
-6.80697e-05
0.000307555
-6.15484e-05
0.000302522
-5.60786e-05
0.000294811
-5.15891e-05
0.000285046
-4.81027e-05
0.000274975
-4.5889e-05
0.000265851
-4.53449e-05
0.000257869
-4.65431e-05
0.00025078
-4.89798e-05
0.000244268
-5.19242e-05
0.000238868
-5.44687e-05
0.000236264
-5.62017e-05
0.000236655
-5.69664e-05
0.000235746
-5.4681e-05
0.000233092
-4.86899e-05
0.00022995
-3.96883e-05
0.000225832
-2.79766e-05
0.000221649
-1.44125e-05
0.000218476
2.61672e-07
0.000216413
1.52231e-05
0.000215638
2.98981e-05
0.000216362
4.39003e-05
0.000217215
5.67979e-05
0.000217944
6.80927e-05
0.000218659
7.74558e-05
0.000217835
8.41576e-05
8.70063e-05
0.00021154
0.000279155
-0.000115189
0.000289619
-0.00010567
0.000298172
-9.59609e-05
0.00030475
-8.62026e-05
0.000309242
-7.66519e-05
0.000311577
-6.7522e-05
0.000311389
-5.91222e-05
0.000309216
-5.15362e-05
0.000305179
-4.50824e-05
0.000298797
-3.97997e-05
0.000289268
-3.60327e-05
0.000277877
-3.33659e-05
0.000266454
-3.21755e-05
0.000255976
-3.29177e-05
0.000246587
-3.52307e-05
0.000238159
-3.85518e-05
0.000230785
-4.18003e-05
0.000227106
-4.42379e-05
0.000227416
-4.60812e-05
0.000225663
-4.49325e-05
0.000221659
-3.95485e-05
0.000217133
-3.08684e-05
0.000210834
-1.92612e-05
0.00020476
-5.72005e-06
0.000200364
8.56298e-06
0.000197737
2.2844e-05
0.000196363
3.67801e-05
0.000196238
4.98801e-05
0.000196925
6.17753e-05
0.000198181
7.20036e-05
0.000199566
8.00454e-05
0.000199328
8.51658e-05
8.56284e-05
0.000194365
0.000275442
-0.000112717
0.000286611
-0.000102142
0.00029571
-9.12678e-05
0.00030265
-8.02823e-05
0.000307437
-6.95263e-05
0.000309995
-5.9247e-05
0.000310226
-4.96791e-05
0.000308396
-4.10766e-05
0.000304558
-3.36152e-05
0.000298888
-2.74972e-05
0.000290993
-2.27813e-05
0.000279784
-1.96926e-05
0.000266624
-1.79908e-05
0.000253757
-1.81841e-05
0.000242014
-2.03065e-05
0.000231827
-2.38427e-05
0.00022277
-2.78029e-05
0.000217529
-3.09396e-05
0.000218034
-3.35729e-05
0.000215583
-3.34664e-05
0.000210323
-2.88136e-05
0.00020437
-2.05527e-05
0.000195813
-9.39165e-06
0.000188329
3.59862e-06
0.000183327
1.70051e-05
0.000180315
3.03721e-05
0.000178817
4.33663e-05
0.000178684
5.53869e-05
0.000179576
6.61597e-05
0.000181287
7.5064e-05
0.000183029
8.14896e-05
0.000182569
8.44809e-05
8.29533e-05
0.000179423
0.000269801
-0.000109896
0.000280554
-9.8065e-05
0.000289418
-8.59788e-05
0.000296326
-7.38501e-05
0.000301457
-6.19178e-05
0.000304597
-5.0506e-05
0.000305736
-3.98056e-05
0.000305152
-3.00573e-05
0.000302242
-2.16137e-05
0.000297051
-1.45267e-05
0.000289918
-8.90304e-06
0.000280198
-4.96765e-06
0.000266221
-3.03578e-06
0.000250917
-2.37813e-06
0.000236794
-4.2873e-06
0.000224841
-7.97823e-06
0.000214466
-1.25288e-05
0.000207581
-1.6589e-05
0.000207924
-1.97585e-05
0.000204896
-2.02861e-05
0.000198497
-1.63771e-05
0.000191343
-8.6983e-06
0.00018168
1.62295e-06
0.000173106
1.32733e-05
0.000167524
2.55149e-05
0.00016428
3.78105e-05
0.000162768
4.96021e-05
0.000162938
6.04184e-05
0.00016436
6.98092e-05
0.00016653
7.70703e-05
0.000168095
8.1321e-05
0.000167348
8.16796e-05
7.92318e-05
0.000166653
0.000257058
-0.000105545
0.000267773
-9.31167e-05
0.000277405
-8.02944e-05
0.000285175
-6.73404e-05
0.000291078
-5.42203e-05
0.000295088
-4.1582e-05
0.000296816
-2.97272e-05
0.000296897
-1.88397e-05
0.000295422
-9.29452e-06
0.000291339
-1.08559e-06
0.000284643
5.6976e-06
0.000275807
1.06086e-05
0.00026331
1.33903e-05
0.0002462
1.38614e-05
0.000229863
1.24376e-05
0.00021643
8.57351e-06
0.000205207
3.59476e-06
0.000197061
-1.27963e-06
0.000196672
-4.8543e-06
0.000192563
-5.54005e-06
0.000184899
-2.37946e-06
0.00017711
4.10016e-06
0.000167456
1.29381e-05
0.000159158
2.31509e-05
0.000153318
3.40873e-05
0.000149922
4.51437e-05
0.000148616
5.55861e-05
0.000149143
6.48651e-05
0.000150743
7.24497e-05
0.000152458
7.7368e-05
0.00015335
7.91032e-05
0.000154003
7.79083e-05
7.47023e-05
0.000156058
0.000242147
-0.000104447
0.000254346
-9.11825e-05
0.000264804
-7.68149e-05
0.000272818
-6.20287e-05
0.000278442
-4.71577e-05
0.00028249
-3.29606e-05
0.000284412
-1.98288e-05
0.000284434
-7.75379e-06
0.000283204
3.15899e-06
0.000280134
1.27646e-05
0.000274073
2.06486e-05
0.000265768
2.66233e-05
0.00025493
3.01891e-05
0.000238606
3.11048e-05
0.000220155
2.9776e-05
0.000205137
2.58809e-05
0.000193
2.04998e-05
0.000183645
1.4945e-05
0.000182518
1.10335e-05
0.000178003
9.84286e-06
0.000170439
1.16206e-05
0.000163108
1.65467e-05
0.000154001
2.3961e-05
0.000146325
3.2816e-05
0.000140921
4.25954e-05
0.000137687
5.23479e-05
0.000136522
6.1181e-05
0.000136898
6.85422e-05
0.000137867
7.35512e-05
0.000138989
7.5962e-05
0.000140516
7.58155e-05
0.000143228
7.36414e-05
6.99761e-05
0.000147925
0.000230084
-0.000106479
0.000242184
-9.10694e-05
0.00025211
-7.43823e-05
0.000259441
-5.73741e-05
0.000264275
-4.0574e-05
0.000267701
-2.4721e-05
0.000269377
-1.02226e-05
0.000268803
3.20698e-06
0.000267058
1.54882e-05
0.000264757
2.62029e-05
0.000260048
3.53098e-05
0.000252437
4.23444e-05
0.00024267
4.68694e-05
0.000228513
4.88032e-05
0.000208956
4.74779e-05
0.000193111
4.31012e-05
0.000180754
3.7348e-05
0.000170935
3.14441e-05
0.000169724
2.70503e-05
0.000165336
2.5112e-05
0.000157998
2.54062e-05
0.00015072
2.88395e-05
0.000141777
3.47807e-05
0.000134811
4.23638e-05
0.000129974
5.08284e-05
0.000126978
5.8946e-05
0.000125723
6.57555e-05
0.000125491
7.0704e-05
0.000125958
7.32394e-05
0.000127528
7.36983e-05
0.00013055
7.23273e-05
0.000135504
6.94628e-05
6.52836e-05
0.000142597
0.000217363
-0.000109591
0.000228606
-9.17242e-05
0.000237359
-7.24164e-05
0.000243607
-5.29851e-05
0.000247424
-3.42161e-05
0.00024992
-1.67572e-05
0.000251067
-9.03857e-07
0.000249966
1.39409e-05
0.000248068
2.71378e-05
0.000246316
3.89085e-05
0.000242877
4.9236e-05
0.000236244
5.74857e-05
0.000227174
6.33865e-05
0.000215074
6.60229e-05
0.000196057
6.48755e-05
0.000180061
5.97725e-05
0.000167884
5.37271e-05
0.000158417
4.73645e-05
0.000157526
4.24473e-05
0.000153465
3.9944e-05
0.000146321
3.89351e-05
0.000139085
4.08838e-05
0.000130551
4.52801e-05
0.000124306
5.14063e-05
0.000119921
5.83232e-05
0.000117145
6.44556e-05
0.000115712
6.9009e-05
0.000115213
7.14899e-05
0.000116296
7.22106e-05
0.000119133
7.1307e-05
0.000123951
6.89959e-05
0.000130748
6.53686e-05
6.0682e-05
0.000139452
0.000201598
-0.00011301
0.000211199
-9.24165e-05
0.000218142
-7.01216e-05
0.000223103
-4.82774e-05
0.000225945
-2.76859e-05
0.000227617
-8.93235e-06
0.000228558
8.1209e-06
0.00022794
2.38638e-05
0.000226465
3.78822e-05
0.000225294
5.06311e-05
0.000222989
6.22255e-05
0.000217357
7.204e-05
0.000209483
7.88475e-05
0.000199219
8.22209e-05
0.000181688
8.14148e-05
0.000165956
7.56825e-05
0.000154514
6.91053e-05
0.000145775
6.21773e-05
0.000145263
5.68781e-05
0.000141663
5.40261e-05
0.00013493
5.1939e-05
0.00012798
5.24191e-05
0.000119984
5.51639e-05
0.000114398
5.95954e-05
0.000110581
6.46296e-05
0.000108171
6.86126e-05
0.000106864
7.09052e-05
0.000107255
7.16122e-05
0.000109562
7.08901e-05
0.000113817
6.87939e-05
0.000119998
6.55511e-05
0.00012849
6.15772e-05
5.64169e-05
0.000139143
0.000180284
-0.000114927
0.000187208
-9.12653e-05
0.000191929
-6.67171e-05
0.000195329
-4.32049e-05
0.000197524
-2.11384e-05
0.000199331
-1.58117e-06
0.000200925
1.63131e-05
0.000201773
3.25817e-05
0.000201681
4.7394e-05
0.000201586
6.12479e-05
0.000200276
7.43767e-05
0.000196054
8.5491e-05
0.000189562
9.29116e-05
0.000180687
9.72369e-05
0.000164963
9.67065e-05
0.000150247
8.99929e-05
0.000140017
8.29205e-05
0.000132269
7.54585e-05
0.000132322
6.99376e-05
0.000129577
6.686e-05
0.000123669
6.39512e-05
0.00011753
6.31569e-05
0.000110289
6.41987e-05
0.000105237
6.67909e-05
0.000102115
6.95601e-05
0.000100312
7.13979e-05
0.000100092
7.19003e-05
0.000101705
7.10398e-05
0.000105193
6.90419e-05
0.000110883
6.62276e-05
0.000119343
6.28614e-05
0.000130202
5.87588e-05
5.4349e-05
0.000146275
0.000152718
-0.000115063
0.000157931
-9.12759e-05
0.000161844
-6.65037e-05
0.000164414
-4.14068e-05
0.000165666
-1.72394e-05
0.000166306
4.33131e-06
0.000168471
2.35248e-05
0.000171651
4.02035e-05
0.000174022
5.57249e-05
0.000175585
7.09162e-05
0.000175624
8.55038e-05
0.000172939
9.75033e-05
0.00016721
0.000106089
0.000159589
0.000110865
0.000145641
0.000110156
0.000132783
0.000102362
0.000124241
9.47457e-05
0.00011798
8.68599e-05
0.000118812
8.13163e-05
0.000116999
7.80312e-05
0.000112359
7.43147e-05
0.000107483
7.23951e-05
0.000101937
7.23386e-05
9.72395e-05
7.28075e-05
9.48768e-05
7.30311e-05
9.41679e-05
7.28956e-05
9.51898e-05
7.17934e-05
9.82516e-05
6.99713e-05
0.000103919
6.78028e-05
0.000112685
6.50497e-05
0.000124625
6.14045e-05
0.000140297
5.69254e-05
5.08029e-05
0.000157849
0.000126212
-0.000119502
0.000132048
-9.56158e-05
0.000136478
-6.93419e-05
0.000138936
-4.18349e-05
0.00013951
-1.51741e-05
0.000138507
8.7087e-06
0.000137421
2.94783e-05
0.000139541
4.69066e-05
0.000144204
6.31094e-05
0.00014788
7.97059e-05
0.000149649
9.53524e-05
0.000147709
0.000108735
0.00014312
0.000117846
0.000136814
0.00012286
0.000124756
0.000121431
0.000114186
0.000112538
0.000107594
0.000104395
0.000103117
9.61271e-05
0.000104836
9.06683e-05
0.000104089
8.71689e-05
0.000100882
8.2715e-05
9.74836e-05
7.96062e-05
9.42918e-05
7.83173e-05
9.08572e-05
7.73815e-05
8.9328e-05
7.56827e-05
8.99741e-05
7.38262e-05
9.3187e-05
7.20653e-05
9.96932e-05
7.02138e-05
0.000108646
6.73035e-05
0.000119999
6.32678e-05
0.000133869
5.82909e-05
0.000149471
5.20552e-05
4.43807e-05
0.000165625
9.96454e-05
-0.000124726
0.000105204
-0.000100967
0.000109623
-7.35544e-05
0.000111852
-4.35834e-05
0.000112203
-1.39634e-05
0.000111005
1.21574e-05
0.000109202
3.45912e-05
0.000109159
5.2887e-05
0.000114816
6.9602e-05
0.000119925
8.76541e-05
0.000122084
0.000104669
0.000120852
0.000118757
0.000117417
0.000127974
0.000112532
0.000132817
0.000102599
0.000129793
9.4851e-05
0.000120215
9.04352e-05
0.00011168
8.79407e-05
0.000102995
9.0678e-05
9.76901e-05
9.11171e-05
9.40762e-05
8.94024e-05
8.89175e-05
8.75787e-05
8.46519e-05
8.64836e-05
8.20098e-05
8.56038e-05
7.97779e-05
8.62863e-05
7.71244e-05
8.96498e-05
7.44556e-05
9.58022e-05
7.16525e-05
0.000104063
6.8155e-05
0.000114447
6.37747e-05
0.00012676
5.83703e-05
0.000140626
5.18903e-05
0.000155274
4.43917e-05
3.5986e-05
0.00017003
7.09509e-05
-0.000130565
7.62957e-05
-0.000108794
8.04847e-05
-8.02823e-05
8.23098e-05
-4.72259e-05
8.21669e-05
-1.40791e-05
8.11704e-05
1.47727e-05
7.9767e-05
3.86414e-05
8.0382e-05
5.75723e-05
8.60525e-05
7.5671e-05
9.09461e-05
9.50531e-05
9.33736e-05
0.000113149
9.28271e-05
0.000127312
9.07073e-05
0.000136354
8.72902e-05
0.00014031
7.98323e-05
0.00013508
7.50983e-05
0.000125266
7.304e-05
0.000116521
7.25178e-05
0.000107372
7.62744e-05
0.000101836
7.81733e-05
9.8359e-05
7.82227e-05
9.27323e-05
7.82118e-05
8.74544e-05
7.90509e-05
8.33707e-05
8.0705e-05
7.96589e-05
8.41606e-05
7.57703e-05
8.97765e-05
7.18971e-05
9.75401e-05
6.76607e-05
0.000107161
6.27428e-05
0.000118485
5.70233e-05
0.000131226
5.04858e-05
0.000144886
4.31968e-05
0.00015886
3.52418e-05
2.70111e-05
0.000171927
3.95314e-05
-0.000137685
4.34325e-05
-0.000118909
4.67685e-05
-8.88053e-05
4.84105e-05
-5.26097e-05
4.89476e-05
-1.57466e-05
4.88538e-05
1.62236e-05
4.88088e-05
4.14864e-05
5.10656e-05
6.08964e-05
5.67365e-05
8.14958e-05
6.14717e-05
0.000101951
6.37782e-05
0.000120329
6.38364e-05
0.000133935
6.34115e-05
0.000142501
6.14585e-05
0.000145299
5.71317e-05
0.000137412
5.54811e-05
0.000127884
5.57404e-05
0.000119119
5.70637e-05
0.000109684
6.17066e-05
0.000103562
6.52903e-05
9.97138e-05
6.7382e-05
9.38804e-05
6.9409e-05
8.78465e-05
7.23545e-05
8.24122e-05
7.61667e-05
7.73293e-05
8.17026e-05
7.20917e-05
8.91206e-05
6.67847e-05
9.83385e-05
6.11315e-05
0.000109161
5.49815e-05
0.000121325
4.82976e-05
0.000134403
4.10568e-05
0.000147393
3.34858e-05
0.00015853
2.55965e-05
1.80349e-05
0.000165535
2.92728e-06
-0.000143365
4.27634e-06
-0.000125002
6.46192e-06
-9.46301e-05
8.89015e-06
-5.73749e-05
1.23742e-05
-1.91501e-05
1.5969e-05
1.47872e-05
1.83031e-05
4.28271e-05
2.188e-05
6.4916e-05
2.70019e-05
8.70609e-05
3.0704e-05
0.000107806
3.297e-05
0.000125463
3.4675e-05
0.00013819
3.58273e-05
0.000146113
3.57445e-05
0.000146728
3.51082e-05
0.000137216
3.64378e-05
0.000128483
3.89475e-05
0.00011974
4.21376e-05
0.000110153
4.73653e-05
0.000103147
5.21801e-05
9.77958e-05
5.64181e-05
9.17287e-05
6.08273e-05
8.53386e-05
6.60543e-05
7.89214e-05
7.21993e-05
7.27225e-05
7.96607e-05
6.63669e-05
8.87094e-05
5.98295e-05
9.9219e-05
5.29966e-05
0.000110952
4.58405e-05
0.000123176
3.84085e-05
0.0001347
3.06934e-05
0.000142884
2.32011e-05
0.000149445
1.69174e-05
1.17936e-05
0.000156591
-3.56758e-05
-0.000145112
-3.62596e-05
-0.000127351
-3.45507e-05
-9.70579e-05
-3.1008e-05
-6.05946e-05
-2.52843e-05
-2.2696e-05
-1.89673e-05
1.23173e-05
-1.35538e-05
4.28726e-05
-9.18492e-06
6.88447e-05
-4.90052e-06
9.11886e-05
-9.2834e-07
0.000111316
2.30734e-06
0.000128419
5.26604e-06
0.00014033
8.61667e-06
0.000146898
1.14703e-05
0.000143494
1.44844e-05
0.000134969
1.84243e-05
0.000127224
2.29492e-05
0.00011853
2.77495e-05
0.000109032
3.35584e-05
0.000101466
3.95792e-05
9.46427e-05
4.57204e-05
8.75091e-05
5.21211e-05
8.0007e-05
5.93139e-05
7.26409e-05
6.75064e-05
6.55207e-05
7.68436e-05
5.83577e-05
8.73579e-05
5.10348e-05
9.86006e-05
4.3436e-05
0.000109768
3.54746e-05
0.000118731
2.77595e-05
0.000125811
2.10535e-05
0.000133109
1.55282e-05
0.000141344
1.10268e-05
7.32081e-06
0.000149368
-7.29481e-05
-0.000143271
-7.60266e-05
-0.000126587
-7.5432e-05
-9.77939e-05
-7.19792e-05
-6.30988e-05
-6.50934e-05
-2.66834e-05
-5.77075e-05
9.33295e-06
-5.09048e-05
4.13476e-05
-4.47916e-05
6.91284e-05
-3.94384e-05
9.21361e-05
-3.45092e-05
0.000111975
-2.93902e-05
0.000128499
-2.36006e-05
0.000139388
-1.68915e-05
0.00014368
-1.05412e-05
0.000137066
-4.51433e-06
0.000130974
1.65745e-06
0.000124389
7.88715e-06
0.000115996
1.42304e-05
0.000106781
2.11404e-05
9.87335e-05
2.82199e-05
9.04712e-05
3.55684e-05
8.22072e-05
4.34294e-05
7.39503e-05
5.21894e-05
6.59003e-05
6.1967e-05
5.78902e-05
7.26015e-05
4.97152e-05
8.3267e-05
4.13427e-05
9.23956e-05
3.31615e-05
0.000100268
2.59089e-05
0.00010802
1.97231e-05
0.000116479
1.45899e-05
0.000125216
1.02745e-05
0.000134484
6.91353e-06
3.91324e-06
0.000144554
-0.000107311
-0.00013762
-0.000112782
-0.000122937
-0.000113641
-9.68816e-05
-0.00011102
-6.44273e-05
-0.000105474
-2.9924e-05
-9.76173e-05
5.10847e-06
-8.95046e-05
3.77199e-05
-8.1703e-05
6.59956e-05
-7.44846e-05
8.96855e-05
-6.72259e-05
0.000109602
-5.9037e-05
0.000125402
-4.98123e-05
0.000135037
-3.9222e-05
0.000135458
-2.99851e-05
0.000130214
-2.18934e-05
0.000126313
-1.39152e-05
0.000120417
-6.03855e-06
0.000112308
1.7112e-06
0.000103583
9.65285e-06
9.47302e-05
1.7848e-05
8.5677e-05
2.64613e-05
7.67935e-05
3.56855e-05
6.78983e-05
4.55115e-05
5.89756e-05
5.55499e-05
4.99443e-05
6.46724e-05
4.10903e-05
7.31002e-05
3.30327e-05
8.12972e-05
2.59656e-05
8.98318e-05
1.98986e-05
9.87768e-05
1.46833e-05
0.000108018
1.03012e-05
0.000118624
6.47814e-06
0.000128969
2.60513e-06
-1.06614e-06
0.000138441
-0.000134678
-0.000127839
-0.000144525
-0.000114954
-0.000147263
-9.3767e-05
-0.000146032
-6.42961e-05
-0.000141615
-3.18187e-05
-0.000134199
1.41471e-06
-0.00012515
3.27937e-05
-0.00011583
6.09731e-05
-0.000106559
8.50874e-05
-9.66534e-05
0.000104919
-8.51944e-05
0.000119377
-7.13317e-05
0.000125777
-5.84135e-05
0.000124591
-4.77054e-05
0.000123312
-3.7847e-05
0.000120685
-2.83356e-05
0.000115253
-1.91465e-05
0.000107742
-9.9963e-06
9.92718e-05
-9.07201e-07
8.99885e-05
8.36129e-06
8.05603e-05
1.78671e-05
7.10785e-05
2.76005e-05
6.14599e-05
3.66829e-05
5.18755e-05
4.52338e-05
4.30225e-05
5.34554e-05
3.50915e-05
6.17833e-05
2.80987e-05
7.04873e-05
2.18919e-05
7.94589e-05
1.63854e-05
8.96953e-05
1.13879e-05
0.000100521
6.37912e-06
0.000111487
1.42914e-06
0.000122554
-3.41822e-06
-8.26257e-06
0.00013213
-0.000150814
-0.000117784
-0.000165356
-0.000103879
-0.000173098
-8.65127e-05
-0.000174053
-6.19687e-05
-0.000171008
-3.25189e-05
-0.000164351
-1.67797e-06
-0.00015536
2.80906e-05
-0.000145157
5.54486e-05
-0.000133923
7.89817e-05
-0.000120919
9.73663e-05
-0.000104802
0.000108319
-8.83754e-05
0.00011282
-7.4894e-05
0.000114851
-6.3369e-05
0.000115978
-5.23412e-05
0.000114119
-4.17001e-05
0.000109285
-3.13774e-05
0.000102474
-2.12471e-05
9.40083e-05
-1.11563e-05
8.45472e-05
-1.18306e-06
7.47217e-05
8.23966e-06
6.47831e-05
1.68288e-05
5.54291e-05
2.50054e-05
4.69059e-05
3.3034e-05
3.9206e-05
4.12264e-05
3.22357e-05
4.95792e-05
2.57907e-05
5.88605e-05
1.97889e-05
6.91852e-05
1.37573e-05
8.03713e-05
7.54781e-06
9.22403e-05
9.47003e-07
0.00010404
-5.36781e-06
0.000112975
-1.13458e-05
-1.51598e-05
0.000116175
-0.000162636
-0.000110075
-0.000173982
-9.29223e-05
-0.000186679
-7.62886e-05
-0.000192181
-5.59266e-05
-0.000191162
-3.17691e-05
-0.000186525
-3.54625e-06
-0.000178096
2.33021e-05
-0.000167058
4.85791e-05
-0.000152771
6.96755e-05
-0.000135158
8.46446e-05
-0.000117433
9.49527e-05
-0.000102251
0.000101977
-8.95886e-05
0.000106673
-7.7452e-05
0.000108514
-6.55748e-05
0.000107072
-5.40042e-05
0.000102806
-4.28281e-05
9.63364e-05
-3.183e-05
8.77256e-05
-2.13571e-05
7.81056e-05
-1.21744e-05
6.86756e-05
-3.71138e-06
6.01595e-05
4.13289e-06
5.23583e-05
1.17656e-05
4.50894e-05
1.94595e-05
3.80364e-05
2.75365e-05
3.14344e-05
3.66962e-05
2.47837e-05
4.70132e-05
1.77341e-05
5.85165e-05
1.00778e-05
7.10971e-05
2.08084e-06
8.2227e-05
-5.75803e-06
8.95928e-05
-1.23127e-05
9.56827e-05
-1.63419e-05
-1.9569e-05
0.000102182
-0.000173346
-0.0001038
-0.000178146
-8.60032e-05
-0.000186265
-6.7642e-05
-0.000194391
-4.90798e-05
-0.00019843
-2.69617e-05
-0.000194847
-5.10531e-06
-0.00018721
1.81277e-05
-0.000175345
3.98905e-05
-0.00015944
5.84948e-05
-0.000143605
7.32285e-05
-0.000129075
8.51099e-05
-0.000115526
9.32976e-05
-0.000102545
9.85923e-05
-8.98424e-05
0.000100646
-7.7379e-05
9.94666e-05
-6.5163e-05
9.54484e-05
-5.33214e-05
8.87697e-05
-4.26382e-05
8.05168e-05
-3.31816e-05
7.25962e-05
-2.47865e-05
6.53971e-05
-1.72739e-05
5.85836e-05
-1.00974e-05
5.18952e-05
-2.88508e-06
4.52326e-05
4.88398e-06
3.86186e-05
1.37091e-05
3.12277e-05
2.39063e-05
2.30747e-05
3.58262e-05
1.41742e-05
4.77815e-05
4.89884e-06
5.66944e-05
-3.35071e-06
6.51225e-05
-1.01607e-05
7.30884e-05
-1.60884e-05
8.16772e-05
-2.03967e-05
-2.31353e-05
8.96859e-05
-0.000183041
-9.81883e-05
-0.00018522
-8.03711e-05
-0.000187601
-6.24485e-05
-0.000190883
-4.37622e-05
-0.000191996
-2.45577e-05
-0.000190208
-4.91863e-06
-0.00018437
1.46638e-05
-0.000175215
3.35531e-05
-0.000163487
5.03629e-05
-0.000151332
6.45603e-05
-0.000138664
7.61901e-05
-0.000125733
8.4427e-05
-0.000112767
8.96387e-05
-9.97929e-05
9.16744e-05
-8.71921e-05
9.06606e-05
-7.52028e-05
8.7267e-05
-6.43338e-05
8.20869e-05
-5.47951e-05
7.63166e-05
-4.66707e-05
7.04581e-05
-3.94353e-05
6.4816e-05
-3.27687e-05
5.91825e-05
-2.57364e-05
5.31372e-05
-1.81162e-05
4.62169e-05
-9.35876e-06
3.85415e-05
9.54165e-07
2.96906e-05
1.21912e-05
1.97563e-05
2.19496e-05
1.03283e-05
3.06741e-05
1.99794e-06
3.939e-05
-5.63334e-06
4.81115e-05
-1.23174e-05
5.63405e-05
-1.79515e-05
6.42097e-05
-2.2323e-05
-2.56408e-05
7.30492e-05
-0.000191851
-9.12531e-05
-0.000192508
-7.53394e-05
-0.000192997
-5.80861e-05
-0.000192864
-4.01569e-05
-0.000191764
-2.24651e-05
-0.000188875
-4.69615e-06
-0.000183624
1.26292e-05
-0.000176038
2.94007e-05
-0.000166658
4.46715e-05
-0.000156214
5.78827e-05
-0.000144711
6.86815e-05
-0.000132561
7.66861e-05
-0.000120303
8.18944e-05
-0.000108202
8.43704e-05
-9.67468e-05
8.43561e-05
-8.62622e-05
8.23748e-05
-7.69085e-05
7.88761e-05
-6.88144e-05
7.47991e-05
-6.17378e-05
7.0527e-05
-5.49075e-05
6.60667e-05
-4.79579e-05
6.06565e-05
-4.03618e-05
5.41752e-05
-3.16013e-05
4.63217e-05
-2.18404e-05
3.70888e-05
-1.25663e-05
2.72841e-05
-3.82784e-06
1.80369e-05
4.65371e-06
9.55017e-06
1.26417e-05
2.01047e-06
1.95099e-05
-4.57866e-06
2.64218e-05
-1.15038e-05
3.41387e-05
-1.78463e-05
4.2595e-05
-2.33762e-05
-2.79145e-05
5.19116e-05
-0.000198684
-8.15166e-05
-0.000200857
-6.79068e-05
-0.00019994
-5.26907e-05
-0.000198465
-3.67155e-05
-0.000196255
-2.0057e-05
-0.000192416
-3.69373e-06
-0.00018726
1.19828e-05
-0.000180259
2.69992e-05
-0.000171687
4.0924e-05
-0.000161948
5.31389e-05
-0.00015132
6.32892e-05
-0.000140218
7.10677e-05
-0.000129026
7.64161e-05
-0.000118112
7.94214e-05
-0.000107918
8.03999e-05
-9.87612e-05
7.97063e-05
-9.05622e-05
7.78904e-05
-8.31775e-05
7.51897e-05
-7.61387e-05
7.15323e-05
-6.89149e-05
6.70912e-05
-6.09925e-05
6.1257e-05
-5.22543e-05
5.36732e-05
-4.36765e-05
4.49313e-05
-3.55624e-05
3.64122e-05
-2.80283e-05
2.82829e-05
-2.15296e-05
2.01811e-05
-1.6063e-05
1.26823e-05
-1.0998e-05
5.76054e-06
-6.48847e-06
-5.23734e-07
-1.04264e-06
-8.28065e-06
5.6177e-06
-1.57339e-05
1.45769e-05
-2.31805e-05
-2.96723e-05
2.53552e-05
-0.000197103
-6.94344e-05
-0.00020271
-5.79135e-05
-0.000205642
-4.49519e-05
-0.000205533
-3.10767e-05
-0.000202242
-1.65014e-05
-0.000197608
-1.70281e-06
-0.000191996
1.25803e-05
-0.000185196
2.60482e-05
-0.000177129
3.8749e-05
-0.000168019
5.00712e-05
-0.000158214
5.97051e-05
-0.000148116
6.74202e-05
-0.000138058
7.318e-05
-0.000128323
7.69362e-05
-0.00011922
7.87633e-05
-0.000110788
7.89193e-05
-0.000102845
7.77615e-05
-9.53732e-05
7.54865e-05
-8.78402e-05
7.20356e-05
-7.98853e-05
6.69935e-05
-7.18284e-05
6.04189e-05
-6.42607e-05
5.35651e-05
-5.76445e-05
4.68289e-05
-5.24123e-05
3.99907e-05
-4.83645e-05
3.33172e-05
-4.56755e-05
2.689e-05
-4.39872e-05
2.05169e-05
-4.21356e-05
1.33808e-05
-3.82803e-05
5.43359e-06
-3.30226e-05
-3.36834e-06
-2.52879e-05
-1.30563e-05
-1.53517e-05
-2.27055e-05
-3.07981e-05
-4.15494e-06
-0.000188123
-5.6308e-05
-0.000196507
-4.62134e-05
-0.0002021
-3.53451e-05
-0.000204755
-2.36426e-05
-0.000204676
-1.13001e-05
-0.000201759
1.59765e-06
-0.000196852
1.42963e-05
-0.000190549
2.6518e-05
-0.000182832
3.81679e-05
-0.000174125
4.87514e-05
-0.00016497
5.78591e-05
-0.000155492
6.53511e-05
-0.000145967
7.10368e-05
-0.000136725
7.49818e-05
-0.000127879
7.7319e-05
-0.000119618
7.8088e-05
-0.000111705
7.73015e-05
-0.000103996
7.49268e-05
-9.66168e-05
7.15083e-05
-8.9683e-05
6.73416e-05
-8.36805e-05
6.26887e-05
-7.92343e-05
5.77287e-05
-7.6058e-05
5.27997e-05
-7.45177e-05
4.8087e-05
-7.42377e-05
4.32238e-05
-7.46912e-05
3.73844e-05
-7.44942e-05
3.03431e-05
-7.28309e-05
2.19973e-05
-6.91727e-05
1.24338e-05
-6.36667e-05
2.01885e-06
-5.73157e-05
-8.81542e-06
-5.13899e-05
-1.94379e-05
-3.06212e-05
-4.58652e-05
-0.000174551
-4.31897e-05
-0.000182876
-3.40282e-05
-0.000189857
-2.47765e-05
-0.000195004
-1.50915e-05
-0.000197304
-4.849e-06
-0.000196655
5.86825e-06
-0.000193608
1.69322e-05
-0.000188708
2.77278e-05
-0.000182296
3.80727e-05
-0.000174798
4.7783e-05
-0.000166572
5.63324e-05
-0.000157963
6.35592e-05
-0.000149235
6.9272e-05
-0.000140764
7.33558e-05
-0.000132489
7.58023e-05
-0.000124626
7.67392e-05
-0.000117401
7.66397e-05
-0.000111261
7.56247e-05
-0.000106167
7.39913e-05
-0.000102172
7.15279e-05
-9.95034e-05
6.87639e-05
-9.8679e-05
6.61466e-05
-9.9188e-05
6.3375e-05
-0.000100708
5.96312e-05
-0.000102195
5.46119e-05
-0.00010319
4.82802e-05
-0.000103083
4.03983e-05
-0.000101577
3.09668e-05
-9.90627e-05
2.03294e-05
-9.70135e-05
9.10473e-06
-9.75919e-05
-2.00781e-06
-0.000100976
-1.50638e-05
-2.47096e-05
-9.75101e-05
-0.000159248
-3.06323e-05
-0.000167975
-2.14794e-05
-0.00017523
-1.35848e-05
-0.000180467
-5.76844e-06
-0.000183585
2.37896e-06
-0.000184797
1.10906e-05
-0.000183628
2.03005e-05
-0.000180491
2.95266e-05
-0.000175881
3.85104e-05
-0.000169948
4.71493e-05
-0.000163047
5.50131e-05
-0.000155665
6.18944e-05
-0.000148241
6.7579e-05
-0.000141056
7.21275e-05
-0.000134483
7.55046e-05
-0.000128779
7.78151e-05
-0.00012435
7.92197e-05
-0.000121034
7.97377e-05
-0.000118943
7.99103e-05
-0.00011851
7.97276e-05
-0.000119375
7.91957e-05
-0.000121463
7.77255e-05
-0.000123809
7.50671e-05
-0.000126066
7.12205e-05
-0.00012791
6.59099e-05
-0.000128967
5.89172e-05
-0.00012929
5.03645e-05
-0.000129686
4.04645e-05
-0.000132267
2.98376e-05
-0.000139398
1.87967e-05
-0.000147825
5.83402e-06
-0.000145576
-6.20783e-06
-1.77806e-05
-0.000135007
-0.000143042
-1.8222e-05
-0.000150793
-9.34999e-06
-0.000158714
-1.81003e-06
-0.000164902
4.55034e-06
-0.000168877
1.10565e-05
-0.000170733
1.79705e-05
-0.000170638
2.53937e-05
-0.00016873
3.30856e-05
-0.000165661
4.07749e-05
-0.000161533
4.84799e-05
-0.000156712
5.58511e-05
-0.000151565
6.26907e-05
-0.000146488
6.87063e-05
-0.000141946
7.3934e-05
-0.000138163
7.83438e-05
-0.000135342
8.18977e-05
-0.000133964
8.51163e-05
-0.000134012
8.78058e-05
-0.000135327
8.99424e-05
-0.000137637
9.08259e-05
-0.000140402
9.07276e-05
-0.000143259
8.9403e-05
-0.000145732
8.65835e-05
-0.000147966
8.23152e-05
-0.000149827
7.64523e-05
-0.00015112
6.87952e-05
-0.000152849
5.97737e-05
-0.000157138
5.01117e-05
-0.000165893
3.96873e-05
-0.00017708
2.80073e-05
-0.000180848
1.51572e-05
-0.000174064
1.55835e-06
-1.2001e-05
-0.000161139
-0.000128215
-7.81583e-06
-0.000132282
2.48172e-06
-0.000139581
9.83196e-06
-0.000147275
1.62544e-05
-0.000153294
2.16092e-05
-0.000156761
2.68324e-05
-0.000158065
3.23245e-05
-0.000157869
3.85014e-05
-0.000156574
4.51523e-05
-0.000154474
5.20629e-05
-0.000151937
5.91272e-05
-0.000149199
6.60207e-05
-0.000146753
7.25204e-05
-0.00014499
7.86616e-05
-0.000144403
8.453e-05
-0.000145052
9.00306e-05
-0.000146994
9.48364e-05
-0.000149666
9.85718e-05
-0.000152573
0.000101066
-0.000155752
0.000102246
-0.000159083
0.000102325
-0.000161992
0.000100714
-0.00016426
9.73956e-05
-0.000166284
9.23679e-05
-0.000167848
8.54683e-05
-0.000169269
7.70994e-05
-0.000172926
6.7961e-05
-0.000179955
5.82906e-05
-0.000187992
4.76169e-05
-0.00019539
3.51313e-05
-0.000195929
2.22735e-05
-0.000188339
8.41e-06
-6.42851e-06
-0.000175765
-0.000116924
6.96324e-07
-0.000121066
1.28642e-05
-0.000125053
2.21112e-05
-0.000131794
2.77272e-05
-0.0001387
3.28364e-05
-0.000143903
3.698e-05
-0.000146499
4.12235e-05
-0.000147922
4.58164e-05
-0.000148725
5.15253e-05
-0.000149
5.79154e-05
-0.000148927
6.49061e-05
-0.000148963
7.21915e-05
-0.000149772
7.96809e-05
-0.00015146
8.71935e-05
-0.000153967
9.42908e-05
-0.0001571
0.000100603
-0.00016059
0.000105905
-0.000164144
0.000109991
-0.000167781
0.000112481
-0.000171761
0.000113919
-0.000175162
0.000113572
-0.000177315
0.00011074
-0.000178531
0.000106115
-0.000179955
9.96856e-05
-0.000181139
9.22315e-05
-0.000183585
8.36883e-05
-0.000187712
7.46175e-05
-0.000192441
6.42312e-05
-0.000195587
5.22652e-05
-0.000195578
3.87658e-05
-0.000192085
2.52062e-05
-0.000186966
1.17172e-05
-1.84901e-06
-0.000179182
-0.000109711
7.9695e-06
-0.000114703
2.16149e-05
-0.000118727
3.25347e-05
-0.000121899
3.99293e-05
-0.000127409
4.36819e-05
-0.000133097
4.75078e-05
-0.000137586
5.10747e-05
-0.000140392
5.50714e-05
-0.000143357
6.00274e-05
-0.000146071
6.62168e-05
-0.000148872
7.34649e-05
-0.000152299
8.15417e-05
-0.000156174
8.98409e-05
-0.000160041
9.79927e-05
-0.000164197
0.000105598
-0.000168602
0.0001123
-0.000172829
0.000117742
-0.000177063
0.000121695
-0.000181355
0.000124137
-0.000185033
0.000124873
-0.000186883
0.000122735
-0.000187737
0.000118506
-0.000189315
0.00011316
-0.000191185
0.000106705
-0.000193616
9.87989e-05
-0.000196737
8.99474e-05
-0.000200304
8.01553e-05
-0.000202396
6.87716e-05
-0.000200742
5.56951e-05
-0.000195363
4.15239e-05
-0.000187934
2.74626e-05
-0.000179718
1.41208e-05
1.52567e-06
-0.000171697
-0.000104109
1.15953e-05
-0.000110421
2.86742e-05
-0.000115165
4.09936e-05
-0.000118771
5.04084e-05
-0.000121318
5.57379e-05
-0.000125695
5.79589e-05
-0.000130755
6.1354e-05
-0.000135567
6.52512e-05
-0.0001406
7.01342e-05
-0.000145711
7.63492e-05
-0.00015139
8.39909e-05
-0.00015756
9.26588e-05
-0.000163015
0.000101572
-0.000168369
0.000110123
-0.000173711
0.000117986
-0.000178608
0.000124664
-0.000183411
0.000129805
-0.00018798
0.000133336
-0.00019144
0.000134527
-0.000193195
0.000133361
-0.00019479
0.000130243
-0.000197496
0.00012637
-0.000200423
0.000120992
-0.000203612
0.000114026
-0.000207716
0.000106313
-0.000212477
9.71897e-05
-0.000217497
8.7652e-05
-0.000219547
7.53651e-05
-0.000217788
6.12035e-05
-0.000212119
4.58998e-05
-0.000202425
3.03038e-05
-0.000189742
1.56212e-05
2.40583e-06
-0.000175099
-0.000100863
1.46186e-05
-0.000109415
3.24866e-05
-0.000114358
4.7871e-05
-0.000118471
5.89367e-05
-0.000121009
6.66685e-05
-0.000122585
6.99277e-05
-0.000127124
7.18476e-05
-0.000133157
7.60463e-05
-0.000139669
8.12892e-05
-0.000146735
8.78032e-05
-0.000154894
9.60231e-05
-0.000162695
0.000105212
-0.000169416
0.000114377
-0.000175875
0.000123125
-0.000181563
0.000130886
-0.000186699
0.000137001
-0.0001913
0.000141389
-0.000194285
0.000143032
-0.000196139
0.000142924
-0.000199024
0.000141841
-0.00020336
0.000139353
-0.00020746
0.000135198
-0.00021186
0.000129586
-0.000217707
0.000123409
-0.000228498
0.000119924
-0.000243323
0.000115188
-0.000255381
0.00010714
-0.000261058
9.26783e-05
-0.000261237
7.52531e-05
-0.000255395
5.64753e-05
-0.000243872
3.76847e-05
-0.000226394
1.94184e-05
2.64505e-06
-0.000204229
-0.000102318
1.67608e-05
-0.000110918
3.53042e-05
-0.000116759
5.28816e-05
-0.000120757
6.60687e-05
-0.000123991
7.58355e-05
-0.000124659
8.14181e-05
-0.000126825
8.30559e-05
-0.000133274
8.72778e-05
-0.00014075
9.3052e-05
-0.000149312
0.000100029