/*--------------------------------*- C++ -*----------------------------------*\
  =========                 |
  \\      /  F ield         | OpenFOAM: The Open Source CFD Toolbox
   \\    /   O peration     | Website:  https://openfoam.org
    \\  /    A nd           | Version:  10
     \\/     M anipulation  |
\*---------------------------------------------------------------------------*/
FoamFile
{
    format      ascii;
    class       volScalarField;
    location    "0.799969";
    object      rho;
}
// * * * * * * * * * * * * * * * * * * * * * * * * * * * * * * * * * * * * * //

dimensions      [1 -3 0 0 0 0 0];

internalField   nonuniform List<scalar> 
16320
(
0.849504
0.828775
0.806421
0.781574
0.758512
0.736587
0.716278
0.698345
0.681246
0.661943
0.641757
0.621755
0.606509
0.596541
0.590377
0.58601
0.582916
0.582449
0.590244
0.597946
0.598957
0.595958
0.591618
0.585363
0.581141
0.579809
0.580585
0.584542
0.590621
0.5953
0.599156
0.601078
0.594235
0.821839
0.798313
0.776826
0.757222
0.739332
0.722592
0.706565
0.691017
0.677035
0.663578
0.648244
0.629684
0.612727
0.600217
0.591945
0.586834
0.583893
0.583936
0.596338
0.607848
0.609859
0.606744
0.600682
0.591131
0.584081
0.580631
0.580274
0.581427
0.584398
0.587519
0.590505
0.59062
0.580301
0.7974
0.778321
0.760255
0.743169
0.727419
0.712684
0.698801
0.68555
0.67359
0.661813
0.65206
0.638564
0.621637
0.606723
0.595534
0.589065
0.586289
0.586446
0.601957
0.618852
0.622459
0.619246
0.611153
0.597091
0.588417
0.583314
0.581588
0.581626
0.583097
0.58496
0.58604
0.582602
0.566712
0.780409
0.76146
0.743684
0.727334
0.713272
0.701197
0.690205
0.68094
0.673226
0.6644
0.655944
0.64752
0.63455
0.616299
0.601556
0.592715
0.589787
0.590065
0.607349
0.62925
0.634926
0.63204
0.623539
0.606726
0.594321
0.587715
0.584334
0.583442
0.584228
0.585192
0.583357
0.572797
0.554021
0.749728
0.731775
0.716929
0.705199
0.694511
0.686126
0.678771
0.671494
0.667644
0.664283
0.658533
0.652859
0.645121
0.628937
0.609089
0.596703
0.592906
0.593718
0.61236
0.637251
0.643956
0.641328
0.632495
0.616701
0.602311
0.593646
0.589079
0.587472
0.586835
0.583834
0.574866
0.55865
0.543547
0.715547
0.706
0.696582
0.688247
0.678592
0.671036
0.666122
0.660205
0.657631
0.6581
0.657531
0.654014
0.650016
0.640363
0.61824
0.601399
0.596195
0.597636
0.617816
0.64543
0.652928
0.65037
0.641392
0.625297
0.612002
0.602768
0.596994
0.592601
0.586871
0.576688
0.561762
0.547073
0.536043
0.701788
0.693825
0.684732
0.676075
0.666226
0.658304
0.65441
0.649897
0.647078
0.649168
0.653407
0.653721
0.652033
0.646931
0.627478
0.60604
0.599472
0.601637
0.623479
0.653296
0.66144
0.658941
0.648974
0.633701
0.622109
0.612854
0.604228
0.595227
0.581599
0.56615
0.551393
0.540263
0.535463
0.692194
0.683361
0.672597
0.66265
0.652599
0.644402
0.641137
0.638456
0.636052
0.639452
0.647278
0.652046
0.652509
0.650161
0.634397
0.609704
0.601975
0.60473
0.628052
0.66022
0.669354
0.666952
0.656107
0.642395
0.631715
0.620675
0.608435
0.592347
0.575076
0.559586
0.54793
0.541594
0.540589
0.677486
0.665602
0.65045
0.637978
0.628971
0.621533
0.620862
0.622351
0.623331
0.629117
0.640614
0.64978
0.652508
0.652412
0.640512
0.613513
0.604296
0.607486
0.631982
0.666566
0.677137
0.67503
0.663477
0.650105
0.639044
0.625848
0.608823
0.590219
0.573637
0.560602
0.552051
0.549213
0.552894
0.648838
0.629199
0.606577
0.59186
0.582301
0.579022
0.584302
0.594937
0.604481
0.616483
0.633213
0.646977
0.652619
0.654489
0.645154
0.616805
0.606311
0.609965
0.634885
0.672219
0.685176
0.684392
0.673811
0.658118
0.645387
0.629603
0.611062
0.59325
0.578433
0.567982
0.564644
0.568853
0.582976
0.59884
0.572953
0.552075
0.537653
0.527892
0.524152
0.529544
0.55238
0.576671
0.600546
0.625197
0.644245
0.653002
0.656199
0.647244
0.617576
0.607232
0.611884
0.63831
0.677661
0.692986
0.693996
0.688141
0.669923
0.653073
0.635637
0.617599
0.601747
0.591631
0.590594
0.597352
0.615268
0.639996
0.560937
0.543146
0.5277
0.514086
0.504048
0.497505
0.496993
0.508485
0.544455
0.582295
0.617671
0.642708
0.654302
0.658683
0.648832
0.617746
0.608212
0.613979
0.642425
0.682642
0.699512
0.702648
0.700346
0.687858
0.665387
0.647117
0.632848
0.627371
0.629753
0.636472
0.649004
0.665495
0.680882
0.543587
0.5284
0.514746
0.501535
0.489771
0.483404
0.481636
0.488926
0.520019
0.571445
0.614409
0.64302
0.655655
0.660804
0.648045
0.617061
0.6093
0.616281
0.646674
0.687983
0.705743
0.709968
0.710049
0.703702
0.687657
0.674183
0.669366
0.670188
0.673736
0.679316
0.687564
0.695553
0.701091
0.53649
0.529812
0.520848
0.504825
0.486174
0.475077
0.473691
0.481904
0.516437
0.570628
0.616233
0.646281
0.658987
0.663149
0.644816
0.615329
0.610371
0.618264
0.649703
0.692769
0.711797
0.7174
0.718775
0.714941
0.707282
0.701463
0.699607
0.70003
0.701644
0.704512
0.707308
0.709314
0.708902
0.545184
0.557849
0.550082
0.526474
0.495281
0.474603
0.471841
0.481902
0.523056
0.579882
0.627112
0.652258
0.663787
0.66457
0.638469
0.613425
0.611617
0.620397
0.650362
0.695404
0.716381
0.723809
0.726497
0.724931
0.719596
0.716731
0.715562
0.715495
0.716113
0.717029
0.71641
0.711436
0.694463
0.572404
0.596244
0.588458
0.557682
0.514354
0.485576
0.479536
0.496622
0.548771
0.601123
0.638903
0.659043
0.668612
0.663929
0.629096
0.611345
0.613601
0.62391
0.651562
0.690013
0.71375
0.726038
0.730624
0.731966
0.729283
0.727379
0.726286
0.725796
0.724702
0.719857
0.705394
0.681036
0.663844
0.588291
0.614003
0.607703
0.585695
0.543062
0.51539
0.508053
0.539647
0.587114
0.628109
0.653813
0.668308
0.671693
0.656721
0.621857
0.611378
0.616528
0.627348
0.650598
0.681535
0.704881
0.717828
0.723512
0.7273
0.729046
0.729839
0.72873
0.724392
0.711827
0.688011
0.666473
0.65737
0.657255
0.596023
0.624248
0.622479
0.60968
0.589093
0.568449
0.565901
0.601309
0.627102
0.649833
0.665998
0.672978
0.67176
0.638433
0.613049
0.610789
0.618491
0.631339
0.655135
0.678004
0.693327
0.701654
0.708006
0.714288
0.718665
0.718149
0.708183
0.687711
0.666967
0.65592
0.654398
0.657679
0.669895
0.598788
0.62955
0.633427
0.628224
0.62233
0.617875
0.619485
0.636398
0.649268
0.662412
0.672292
0.675239
0.66137
0.617676
0.608163
0.612982
0.622346
0.636848
0.656825
0.67163
0.68337
0.692679
0.699742
0.702105
0.694381
0.678786
0.662584
0.652268
0.650382
0.653506
0.663887
0.676412
0.682305
0.585715
0.627672
0.640471
0.640013
0.641183
0.642147
0.644366
0.651411
0.660269
0.669244
0.674985
0.667484
0.629835
0.608543
0.608551
0.615633
0.625711
0.641487
0.656345
0.669025
0.678777
0.683704
0.680247
0.668237
0.654834
0.645746
0.644181
0.647911
0.657234
0.670802
0.680393
0.682099
0.67733
0.559723
0.597422
0.633222
0.643476
0.647584
0.651116
0.653772
0.659212
0.666184
0.670205
0.66421
0.634839
0.604146
0.601172
0.607071
0.616024
0.629092
0.643788
0.655027
0.663001
0.663966
0.655536
0.644167
0.636707
0.635794
0.640357
0.649192
0.662628
0.674425
0.679762
0.678781
0.663378
0.61566
0.550711
0.560072
0.599836
0.62705
0.63885
0.647285
0.652339
0.657173
0.658332
0.647632
0.617996
0.595755
0.592461
0.598057
0.606764
0.617216
0.630061
0.64065
0.644908
0.639669
0.630565
0.625278
0.625707
0.631077
0.639483
0.651908
0.66497
0.67296
0.675028
0.665169
0.624979
0.571862
0.543277
0.551339
0.545114
0.551926
0.580086
0.603008
0.615911
0.620238
0.624719
0.614893
0.595702
0.588439
0.585202
0.589361
0.59636
0.604985
0.61442
0.622377
0.620849
0.614383
0.611737
0.614256
0.620172
0.628306
0.640072
0.652916
0.662287
0.666697
0.660833
0.628381
0.576597
0.546276
0.534792
0.533647
0.55996
0.546377
0.538978
0.539672
0.550765
0.562106
0.568284
0.571706
0.571858
0.568947
0.572581
0.575553
0.58164
0.587923
0.593023
0.596946
0.596601
0.596837
0.601108
0.607668
0.615936
0.627723
0.640472
0.64975
0.654998
0.651454
0.62535
0.581943
0.551416
0.539491
0.539455
0.544136
0.556269
0.580109
0.557389
0.544097
0.53551
0.532985
0.535308
0.539356
0.542341
0.545739
0.549591
0.555125
0.559887
0.565541
0.571293
0.57634
0.581931
0.587572
0.594391
0.602549
0.614591
0.627003
0.636494
0.641512
0.640324
0.620803
0.585981
0.559376
0.547525
0.546032
0.552904
0.57139
0.602542
0.630722
0.597467
0.583267
0.563979
0.548266
0.539489
0.535723
0.535738
0.537581
0.540295
0.544313
0.549314
0.554945
0.561045
0.56763
0.574481
0.58175
0.590139
0.601434
0.61263
0.621761
0.627224
0.628327
0.614858
0.590007
0.569301
0.558803
0.556865
0.561505
0.583729
0.61302
0.638009
0.65809
0.674771
0.605599
0.595491
0.585137
0.574586
0.561252
0.550462
0.546134
0.545076
0.54602
0.548868
0.553003
0.558279
0.564713
0.572252
0.580769
0.589911
0.598584
0.605936
0.611833
0.614839
0.60706
0.59077
0.577519
0.570861
0.569074
0.571577
0.591194
0.616217
0.636628
0.652913
0.667323
0.679845
0.695932
0.603795
0.599275
0.592735
0.585269
0.577826
0.571413
0.565516
0.563272
0.562318
0.563098
0.565766
0.57001
0.575191
0.580387
0.586004
0.591232
0.596352
0.598635
0.595445
0.588434
0.581012
0.577752
0.577314
0.580449
0.594401
0.612903
0.629196
0.642449
0.65441
0.665622
0.679732
0.703786
0.749412
0.60503
0.594225
0.586537
0.581688
0.578214
0.573829
0.570706
0.569143
0.567777
0.568414
0.569773
0.572442
0.575458
0.578745
0.581818
0.582791
0.581429
0.579157
0.579988
0.579771
0.580577
0.584596
0.595543
0.609473
0.620829
0.631975
0.641791
0.650576
0.660682
0.677958
0.716368
0.790894
0.88322
0.609382
0.59682
0.58648
0.577561
0.570723
0.567118
0.565231
0.564107
0.563811
0.564286
0.564839
0.565765
0.56666
0.567788
0.568749
0.570026
0.572742
0.575863
0.579714
0.584849
0.594316
0.605485
0.615013
0.623365
0.630613
0.637627
0.645147
0.655649
0.677552
0.727314
0.818803
0.889334
0.921201
0.625349
0.60366
0.591518
0.581813
0.573479
0.565576
0.560363
0.557566
0.555578
0.555329
0.555781
0.557308
0.558835
0.561533
0.564941
0.568787
0.57397
0.580652
0.591042
0.600642
0.608821
0.616127
0.620607
0.625077
0.630641
0.637052
0.647166
0.66746
0.712801
0.789524
0.863211
0.901628
0.922548
0.654176
0.619683
0.5987
0.587497
0.578794
0.570332
0.56217
0.557418
0.555058
0.553877
0.554424
0.556203
0.558325
0.562033
0.566965
0.574375
0.585347
0.594687
0.602936
0.607224
0.612581
0.616203
0.619302
0.622216
0.627221
0.634012
0.648822
0.684678
0.737994
0.797036
0.85492
0.885931
0.905369
0.666113
0.650454
0.61756
0.594963
0.583843
0.576132
0.567605
0.559287
0.556157
0.555187
0.555902
0.557955
0.561642
0.568939
0.578627
0.587133
0.594831
0.601034
0.603228
0.607405
0.611252
0.612684
0.611505
0.612061
0.616791
0.627107
0.652054
0.685986
0.727233
0.761622
0.792306
0.821584
0.86173
0.664055
0.662053
0.647184
0.61508
0.590911
0.57962
0.5726
0.564246
0.559635
0.558944
0.56048
0.565086
0.573489
0.581486
0.587888
0.59429
0.598151
0.600186
0.60205
0.604701
0.60392
0.597187
0.596342
0.600719
0.610504
0.62876
0.655216
0.687318
0.715858
0.734927
0.751173
0.77251
0.801207
0.636988
0.659822
0.655886
0.640432
0.609783
0.585385
0.574144
0.567455
0.564324
0.564103
0.567547
0.575361
0.58316
0.588501
0.593645
0.596241
0.596917
0.597367
0.596911
0.592822
0.583329
0.583534
0.588637
0.598144
0.613048
0.636638
0.668424
0.703216
0.731381
0.755072
0.77443
0.790751
0.806916
0.614446
0.647366
0.659312
0.651967
0.632832
0.599311
0.577425
0.569588
0.56711
0.567659
0.572913
0.582942
0.588728
0.593176
0.595535
0.594679
0.592649
0.588833
0.579089
0.571981
0.573771
0.5797
0.589335
0.604831
0.633041
0.681968
0.754976
0.805697
0.852197
0.884561
0.907825
0.924797
0.926582
0.605095
0.633419
0.659808
0.65901
0.648056
0.621156
0.586289
0.573528
0.570781
0.572267
0.580004
0.588562
0.592773
0.595498
0.59422
0.589928
0.582302
0.567427
0.56333
0.566302
0.572464
0.582686
0.603869
0.648105
0.749271
0.828576
0.883919
0.918366
0.941053
0.964218
0.98644
1.00587
1.02494
0.605289
0.632876
0.661659
0.664059
0.655713
0.635662
0.599048
0.57852
0.574333
0.575843
0.584775
0.591514
0.594866
0.595085
0.589764
0.578512
0.560509
0.556509
0.559497
0.565805
0.576734
0.604169
0.674548
0.792456
0.852169
0.89163
0.908671
0.920301
0.927788
0.922555
0.92702
0.940371
0.973766
0.6079
0.636232
0.663477
0.665446
0.657657
0.640143
0.605568
0.584175
0.579831
0.58158
0.589896
0.594037
0.595849
0.592322
0.579817
0.560296
0.552214
0.553999
0.559994
0.571844
0.604174
0.689183
0.794673
0.855004
0.877854
0.89182
0.897766
0.876918
0.8344
0.823414
0.828861
0.843577
0.879607
0.608935
0.637592
0.663765
0.665665
0.658279
0.641586
0.60803
0.588853
0.584892
0.586799
0.593253
0.595803
0.595699
0.586509
0.567931
0.551908
0.550371
0.555105
0.56557
0.596615
0.681714
0.788387
0.839438
0.864732
0.875991
0.873009
0.832363
0.77715
0.768008
0.77463
0.794957
0.830717
0.86251
0.606832
0.631742
0.657651
0.661164
0.655006
0.640734
0.609934
0.592512
0.58879
0.590546
0.595623
0.597321
0.594358
0.581069
0.558973
0.549951
0.55236
0.560096
0.586078
0.657336
0.761912
0.82164
0.846918
0.860085
0.853904
0.803792
0.745671
0.739003
0.746993
0.77574
0.818024
0.846183
0.865385
0.604556
0.619706
0.638927
0.643903
0.640165
0.631669
0.609848
0.597176
0.593952
0.595748
0.598988
0.599465
0.593568
0.575851
0.555362
0.553337
0.557607
0.577586
0.626971
0.711899
0.791126
0.82558
0.842258
0.840395
0.791962
0.730093
0.722828
0.731649
0.764912
0.811655
0.835361
0.848931
0.847207
0.607253
0.616322
0.626867
0.629474
0.626325
0.620659
0.609675
0.602494
0.599932
0.602954
0.604514
0.603303
0.594291
0.574073
0.55946
0.559681
0.570607
0.598882
0.655346
0.741024
0.795421
0.819352
0.824799
0.787337
0.722674
0.7134
0.722469
0.757433
0.803904
0.822552
0.821889
0.805623
0.794372
0.614249
0.620113
0.624715
0.625818
0.623588
0.619257
0.61375
0.609281
0.607655
0.61031
0.610841
0.608339
0.597075
0.57587
0.566767
0.569977
0.583346
0.615836
0.675819
0.748313
0.788182
0.800385
0.778128
0.719988
0.708437
0.716714
0.749407
0.793813
0.809553
0.805061
0.781632
0.777872
0.778793
0.629513
0.629834
0.629731
0.629672
0.627964
0.625622
0.622271
0.618839
0.618393
0.619906
0.619067
0.615158
0.602218
0.582366
0.576997
0.581007
0.595951
0.630135
0.684611
0.742395
0.763137
0.756502
0.717949
0.706014
0.712951
0.741015
0.782714
0.796797
0.789798
0.772551
0.774369
0.775398
0.774854
0.647651
0.647638
0.642896
0.639916
0.637514
0.635974
0.634746
0.635939
0.636545
0.634432
0.630685
0.624352
0.610085
0.592181
0.589908
0.594035
0.608241
0.636489
0.686593
0.717362
0.724568
0.711137
0.70315
0.709736
0.733985
0.773627
0.787379
0.782653
0.771532
0.774977
0.778889
0.780959
0.779189
0.664325
0.676877
0.675478
0.664873
0.657055
0.653839
0.653563
0.6573
0.656436
0.653391
0.648395
0.638457
0.621647
0.606034
0.603724
0.607225
0.61732
0.642841
0.677209
0.691143
0.695797
0.697102
0.706162
0.727407
0.766253
0.780993
0.781949
0.772977
0.777262
0.784195
0.791066
0.793888
0.791819
0.665162
0.70057
0.712516
0.711643
0.70195
0.690552
0.683084
0.67826
0.673896
0.670152
0.664992
0.654777
0.63763
0.6216
0.617347
0.618652
0.62716
0.644858
0.665973
0.67856
0.688079
0.701222
0.721429
0.758653
0.774856
0.780041
0.773119
0.777389
0.784947
0.793201
0.799331
0.804153
0.80609
0.658438
0.703085
0.737112
0.747473
0.747068
0.73868
0.725356
0.710546
0.696798
0.688161
0.68087
0.670054
0.653531
0.635906
0.629094
0.630777
0.635786
0.646879
0.663038
0.678702
0.695148
0.715236
0.751202
0.769149
0.777144
0.771117
0.773346
0.77919
0.786671
0.792712
0.798615
0.804225
0.809138
0.649075
0.688294
0.742458
0.769075
0.777614
0.777193
0.768789
0.753504
0.733628
0.713985
0.699644
0.686119
0.668534
0.649218
0.643435
0.642021
0.645507
0.65443
0.669664
0.687736
0.71035
0.745078
0.764272
0.773054
0.771719
0.767121
0.770514
0.776222
0.781006
0.784799
0.791172
0.798164
0.804752
0.642852
0.665793
0.723805
0.774272
0.794554
0.80088
0.799919
0.791058
0.775066
0.753669
0.729662
0.706817
0.68611
0.668468
0.655877
0.655746
0.657759
0.665845
0.682481
0.708508
0.741545
0.759861
0.768964
0.770999
0.761808
0.758502
0.760046
0.760274
0.75882
0.762074
0.769999
0.780924
0.791059
0.64246
0.649032
0.683258
0.752954
0.797444
0.813484
0.817341
0.815371
0.806428
0.790518
0.768812
0.743046
0.716364
0.692347
0.684278
0.681408
0.6839
0.694614
0.715581
0.740136
0.756486
0.765334
0.769222
0.762386
0.745653
0.737057
0.72687
0.710656
0.702282
0.704058
0.713342
0.736588
0.75733
0.654988
0.645379
0.654566
0.695209
0.766633
0.810079
0.825774
0.828331
0.824614
0.815119
0.799544
0.779003
0.756128
0.736143
0.727034
0.723535
0.72435
0.73137
0.743526
0.754548
0.762337
0.766024
0.758853
0.735983
0.711031
0.68266
0.640803
0.610643
0.601419
0.602401
0.613769
0.642025
0.678083
0.711934
0.656961
0.648428
0.657799
0.696811
0.761002
0.809011
0.828642
0.83271
0.827851
0.816742
0.801345
0.784117
0.768594
0.759323
0.753789
0.750968
0.751582
0.755508
0.760448
0.762195
0.754113
0.727323
0.681849
0.639458
0.596039
0.561767
0.549022
0.546407
0.548925
0.561341
0.57742
0.60002
0.766504
0.718988
0.661198
0.651479
0.658263
0.688178
0.737052
0.788805
0.816901
0.825828
0.822796
0.811927
0.797367
0.784042
0.774946
0.768247
0.762749
0.760299
0.760428
0.7573
0.746067
0.714473
0.660397
0.612957
0.573811
0.539049
0.523442
0.519478
0.52045
0.528797
0.541881
0.557259
0.57674
0.78528
0.781089
0.729905
0.666569
0.654344
0.656787
0.673854
0.703696
0.745527
0.781144
0.800331
0.803568
0.797335
0.788083
0.780302
0.773308
0.765634
0.75844
0.749771
0.731623
0.693443
0.643715
0.597592
0.559644
0.5296
0.510786
0.505417
0.505787
0.513615
0.526108
0.541573
0.558249
0.574092
0.782387
0.796598
0.795829
0.742075
0.672009
0.657496
0.65606
0.658862
0.673474
0.696053
0.721716
0.743373
0.757771
0.762312
0.760758
0.755288
0.743986
0.727875
0.703024
0.666592
0.626514
0.587244
0.552859
0.525898
0.507102
0.499661
0.499224
0.505363
0.517174
0.535544
0.562155
0.595685
0.616156
0.778607
0.78729
0.805991
0.807507
0.753302
0.679962
0.661926
0.653221
0.647681
0.648935
0.655812
0.665529
0.675349
0.683612
0.688651
0.687928
0.676878
0.65784
0.634143
0.605938
0.57636
0.548663
0.525473
0.508431
0.499134
0.497287
0.501206
0.510866
0.528887
0.555755
0.602002
0.653746
0.6927
0.791122
0.785707
0.78884
0.815368
0.812954
0.770024
0.695187
0.663491
0.649343
0.639055
0.630341
0.62544
0.623858
0.623057
0.621296
0.618165
0.610759
0.597842
0.581416
0.562265
0.542605
0.524914
0.510904
0.501785
0.498397
0.499941
0.506206
0.519441
0.543402
0.596792
0.677153
0.740005
0.77431
0.78973
0.80114
0.794035
0.795746
0.817977
0.817143
0.78755
0.717493
0.66607
0.644785
0.630143
0.616921
0.605318
0.595831
0.587832
0.580159
0.571848
0.561498
0.549678
0.536667
0.524037
0.513351
0.50565
0.501685
0.501416
0.50491
0.514583
0.532823
0.576915
0.679493
0.763335
0.808708
0.830279
0.763416
0.786233
0.802664
0.797182
0.802935
0.818236
0.819333
0.798589
0.740166
0.672337
0.641636
0.620965
0.605279
0.591311
0.579001
0.56771
0.557552
0.547213
0.537293
0.527477
0.51882
0.511916
0.506982
0.504786
0.506726
0.513788
0.52868
0.566905
0.671888
0.762853
0.814461
0.855474
0.879256
0.724124
0.748384
0.777828
0.798906
0.800235
0.805386
0.817197
0.81963
0.803871
0.760252
0.6895
0.644224
0.615201
0.595038
0.579831
0.567621
0.556691
0.546435
0.537067
0.527886
0.520034
0.514087
0.510742
0.511755
0.517761
0.529634
0.562228
0.656245
0.742079
0.797534
0.876483
0.968494
1.01138
0.71164
0.716447
0.734584
0.768511
0.792114
0.79745
0.802072
0.81471
0.817701
0.805574
0.772118
0.712182
0.658293
0.615945
0.590264
0.572364
0.560682
0.550051
0.541762
0.533381
0.526912
0.523881
0.52482
0.529802
0.539427
0.563973
0.636889
0.719855
0.772085
0.861189
1.04987
1.1685
1.19262
0.710551
0.708313
0.712774
0.726191
0.753887
0.781111
0.788461
0.795072
0.810864
0.814654
0.804935
0.778753
0.729639
0.679086
0.630686
0.593688
0.572192
0.560352
0.554137
0.549499
0.546424
0.546524
0.548924
0.555069
0.571031
0.62151
0.695274
0.744317
0.828131
1.03209
1.19882
1.25385
1.24579
0.712609
0.708388
0.706249
0.711291
0.719503
0.738565
0.767965
0.776855
0.786537
0.806482
0.810126
0.802467
0.782079
0.743699
0.69764
0.653711
0.613163
0.586948
0.574164
0.568765
0.567092
0.567488
0.570893
0.581014
0.613552
0.674545
0.720222
0.783113
0.965727
1.16703
1.24801
1.25103
1.22772
0.71687
0.713476
0.704299
0.704141
0.708515
0.714268
0.727234
0.754482
0.762326
0.778496
0.799882
0.80367
0.798126
0.783192
0.753536
0.714241
0.675576
0.638222
0.610653
0.59701
0.5934
0.593398
0.598172
0.615925
0.661325
0.703591
0.743246
0.86002
1.07009
1.18396
1.20286
1.17444
1.14055
0.71942
0.714334
0.702491
0.698951
0.700985
0.704356
0.70938
0.720886
0.741199
0.749074
0.771127
0.791905
0.795907
0.792545
0.782047
0.757527
0.72786
0.694393
0.660138
0.637899
0.630116
0.628778
0.633271
0.656206
0.694097
0.720618
0.772691
0.936424
1.08798
1.12901
1.08571
1.00191
0.982636
0.71841
0.709735
0.697151
0.693273
0.693878
0.696093
0.699931
0.704586
0.714544
0.727915
0.737067
0.763348
0.782912
0.787684
0.78663
0.77806
0.76045
0.736568
0.70704
0.683366
0.673243
0.670443
0.673139
0.691543
0.711775
0.733995
0.807723
0.969346
1.0471
1.02824
0.92034
0.85902
0.850104
0.714222
0.699326
0.687444
0.684062
0.685415
0.687631
0.691903
0.696141
0.698877
0.707642
0.716293
0.72643
0.757052
0.772575
0.778733
0.778755
0.772143
0.759786
0.739233
0.720947
0.710912
0.706765
0.706708
0.715357
0.725072
0.748182
0.843293
0.960632
0.980829
0.935214
0.841886
0.797578
0.789129
0.704036
0.682875
0.673421
0.670561
0.672204
0.674283
0.679105
0.68812
0.689386
0.692234
0.699225
0.706114
0.715353
0.752966
0.763774
0.769426
0.768924
0.763285
0.753372
0.74222
0.734847
0.730067
0.727704
0.728892
0.734657
0.759777
0.858462
0.931497
0.932947
0.895329
0.815551
0.770265
0.757151
0.685293
0.666164
0.656346
0.651915
0.653605
0.65588
0.661184
0.673589
0.681004
0.6815
0.684517
0.689499
0.696847
0.705028
0.745955
0.756836
0.759719
0.758735
0.753858
0.748677
0.744378
0.741106
0.737436
0.735125
0.737683
0.762216
0.847282
0.897614
0.895342
0.871444
0.810221
0.756569
0.735892
0.659798
0.646165
0.635665
0.625417
0.625443
0.628043
0.634895
0.65139
0.666396
0.671661
0.672813
0.6761
0.680958
0.686939
0.704769
0.73437
0.745239
0.748397
0.748137
0.746704
0.745226
0.742867
0.738768
0.734786
0.735138
0.754387
0.825388
0.860369
0.855711
0.837929
0.788959
0.737005
0.717162
0.641264
0.626356
0.608572
0.588431
0.58553
0.58867
0.599021
0.622381
0.646287
0.659888
0.662928
0.664592
0.668337
0.672384
0.680162
0.705419
0.729258
0.736848
0.738084
0.739077
0.739507
0.738092
0.733364
0.728629
0.726696
0.742973
0.79584
0.810504
0.801303
0.784114
0.744638
0.707917
0.699347
0.619112
0.594745
0.569701
0.553568
0.548867
0.549808
0.559286
0.588885
0.622114
0.64484
0.653691
0.655625
0.657868
0.661178
0.665955
0.678559
0.706864
0.722555
0.728356
0.730709
0.731803
0.730666
0.726043
0.720192
0.718397
0.729818
0.754604
0.753581
0.742083
0.725289
0.698887
0.684197
0.686996
0.590287
0.565973
0.549667
0.537788
0.532435
0.531568
0.538361
0.566895
0.604152
0.631091
0.644583
0.648963
0.650676
0.653081
0.656043
0.662969
0.68035
0.70818
0.718627
0.723113
0.725091
0.724377
0.71989
0.714009
0.70811
0.710896
0.718592
0.711326
0.700364
0.687186
0.675103
0.673071
0.681665
0.570108
0.555978
0.541828
0.529855
0.52358
0.522
0.529272
0.560875
0.597219
0.622647
0.637771
0.644095
0.646786
0.648655
0.651205
0.654967
0.664072
0.686337
0.708155
0.717004
0.720053
0.719243
0.714684
0.707638
0.700548
0.69687
0.694865
0.688075
0.678713
0.670513
0.66661
0.670718
0.695287
0.564888
0.553982
0.542099
0.528065
0.519415
0.517482
0.526678
0.564674
0.59857
0.620707
0.634889
0.641432
0.644889
0.646726
0.649017
0.652004
0.657278
0.669482
0.693481
0.708542
0.714429
0.714876
0.711202
0.705046
0.697704
0.690924
0.685069
0.678359
0.670601
0.665886
0.668428
0.690367
0.747043
0.572943
0.572584
0.557113
0.53484
0.52137
0.519371
0.531426
0.577902
0.608987
0.62486
0.634941
0.640363
0.64448
0.646727
0.649214
0.651717
0.654688
0.660925
0.676249
0.693677
0.706668
0.710781
0.708852
0.703246
0.695279
0.68831
0.682737
0.675991
0.671552
0.673993
0.703555
0.756352
0.784332
0.613275
0.611572
0.574576
0.540842
0.528042
0.528195
0.549222
0.596682
0.618838
0.629033
0.636759
0.641834
0.645915
0.648225
0.650839
0.65336
0.655925
0.659911
0.668521
0.683053
0.694083
0.70021
0.700204
0.695956
0.691291
0.687613
0.682992
0.68184
0.692846
0.741447
0.783643
0.793959
0.791281
0.673908
0.651088
0.591796
0.556442
0.546424
0.546409
0.569372
0.606438
0.624375
0.633268
0.640185
0.645266
0.649535
0.652263
0.655247
0.657925
0.660176
0.662099
0.665499
0.672591
0.679929
0.686626
0.690852
0.692952
0.693893
0.695329
0.708603
0.751784
0.796984
0.801
0.79005
0.758216
0.689102
0.733237
0.700428
0.633734
0.589342
0.573456
0.568886
0.580301
0.602887
0.622457
0.633328
0.640632
0.646667
0.651253
0.654499
0.657293
0.659744
0.661851
0.664415
0.66711
0.672494
0.681703
0.692155
0.70127
0.71501
0.743156
0.781395
0.816158
0.810422
0.778473
0.702822
0.607137
0.535986
0.498485
0.774664
0.763988
0.724918
0.664407
0.630746
0.612206
0.606028
0.609739
0.619562
0.62915
0.637467
0.64568
0.652185
0.65792
0.663911
0.668504
0.673277
0.677449
0.681916
0.692106
0.723789
0.756482
0.785596
0.809155
0.810702
0.78624
0.709578
0.592649
0.521325
0.488135
0.473019
0.46428
0.457746
0.795542
0.796508
0.791293
0.776408
0.758252
0.73837
0.708267
0.689875
0.678875
0.673403
0.674711
0.681051
0.688505
0.697645
0.71206
0.726811
0.743402
0.759918
0.772983
0.783169
0.780372
0.77361
0.752749
0.691568
0.591284
0.520079
0.492917
0.483237
0.477751
0.472915
0.46834
0.463419
0.458073
0.802679
0.808441
0.81046
0.81205
0.816114
0.822284
0.825246
0.828405
0.82878
0.826767
0.827708
0.82578
0.82506
0.822681
0.8182
0.812554
0.806765
0.795864
0.777003
0.733262
0.622082
0.565303
0.522394
0.500647
0.495987
0.495906
0.497789
0.498331
0.49706
0.494718
0.489045
0.483304
0.476952
0.764673
0.762364
0.750383
0.735311
0.722664
0.713801
0.707734
0.705754
0.707211
0.708231
0.707353
0.706667
0.702633
0.694851
0.679788
0.660158
0.634632
0.603921
0.570728
0.536188
0.519156
0.518439
0.525
0.535077
0.544582
0.549906
0.551563
0.548164
0.537712
0.524182
0.509081
0.494962
0.486066
0.678488
0.658043
0.641392
0.631218
0.625109
0.618252
0.610227
0.599433
0.588309
0.579715
0.571355
0.564327
0.560398
0.561322
0.564245
0.565527
0.566281
0.568761
0.571913
0.578204
0.587434
0.592885
0.598203
0.601877
0.604253
0.602533
0.595208
0.58362
0.565256
0.542554
0.519426
0.498656
0.487441
0.626624
0.618946
0.616848
0.618128
0.619464
0.617079
0.615087
0.615664
0.620415
0.628435
0.638596
0.649059
0.657979
0.663301
0.663262
0.658298
0.650128
0.644051
0.640783
0.64095
0.640934
0.643221
0.649916
0.660836
0.672911
0.673547
0.663328
0.643874
0.612258
0.579876
0.542485
0.506566
0.48635
0.60691
0.60568
0.608267
0.618451
0.634017
0.649193
0.666653
0.684968
0.696954
0.704016
0.708041
0.709355
0.707231
0.700731
0.68941
0.680039
0.67287
0.669975
0.673336
0.681634
0.696598
0.721222
0.744478
0.757089
0.755284
0.737259
0.707693
0.673705
0.632402
0.593178
0.550694
0.509055
0.482399
0.596364
0.596926
0.601204
0.617338
0.645505
0.678102
0.700245
0.70957
0.713405
0.713647
0.712372
0.709644
0.705132
0.697817
0.687781
0.682595
0.683754
0.695928
0.724563
0.756231
0.781927
0.800374
0.809421
0.808162
0.792815
0.765061
0.726929
0.685108
0.638823
0.594227
0.547773
0.505851
0.474894
0.583506
0.585815
0.589939
0.607671
0.639854
0.676649
0.699199
0.705814
0.706975
0.70339
0.696422
0.689142
0.683153
0.678785
0.680292
0.688657
0.704976
0.731664
0.769269
0.802542
0.822587
0.833197
0.837922
0.833811
0.814936
0.783368
0.740986
0.694367
0.643443
0.589631
0.534089
0.492996
0.467816
0.566876
0.574204
0.576752
0.587243
0.615337
0.655506
0.683701
0.689929
0.68513
0.67336
0.660746
0.650842
0.646771
0.651885
0.667474
0.68245
0.705228
0.733001
0.768808
0.804834
0.829885
0.8443
0.848996
0.845573
0.830013
0.802276
0.761112
0.711754
0.654601
0.592057
0.525225
0.478054
0.45921
0.548316
0.556867
0.563284
0.566157
0.579486
0.609075
0.643823
0.655289
0.649772
0.636324
0.621797
0.612194
0.612374
0.623517
0.644289
0.663512
0.687878
0.71531
0.749095
0.786247
0.816945
0.838922
0.851284
0.855366
0.848188
0.826552
0.793348
0.744494
0.682035
0.604991
0.525295
0.472547
0.452072
0.542923
0.541256
0.545257
0.55044
0.553562
0.562438
0.585485
0.605413
0.606145
0.600875
0.589888
0.583089
0.585097
0.592488
0.608196
0.629351
0.656481
0.68592
0.716965
0.754678
0.789005
0.818104
0.840315
0.850459
0.849697
0.835269
0.809562
0.773858
0.717358
0.635325
0.531971
0.471132
0.450284
0.55605
0.537969
0.533765
0.534116
0.536696
0.538079
0.541604
0.552832
0.562349
0.563393
0.562152
0.559575
0.560971
0.564315
0.570659
0.584442
0.610202
0.643057
0.673749
0.710689
0.751464
0.784177
0.811102
0.830412
0.83696
0.83213
0.816009
0.789288
0.746297
0.668494
0.552493
0.474195
0.452011
0.595706
0.558499
0.535314
0.5268
0.524299
0.52347
0.523106
0.524487
0.527257
0.531313
0.534292
0.537601
0.541666
0.543946
0.545867
0.549747
0.562215
0.591311
0.626907
0.660715
0.702186
0.743421
0.775119
0.799574
0.817228
0.822251
0.814871
0.800421
0.771306
0.713209
0.596213
0.489824
0.457305
0.615313
0.599323
0.563034
0.535167
0.521268
0.515405
0.51249
0.510896
0.509952
0.510432
0.513039
0.516921
0.522135
0.525456
0.527579
0.529612
0.533612
0.547195
0.578766
0.614301
0.652014
0.693209
0.73304
0.764676
0.787002
0.802442
0.807084
0.803105
0.790372
0.761631
0.68394
0.531816
0.472749
0.616988
0.612518
0.599281
0.567478
0.535953
0.517295
0.507611
0.502808
0.499868
0.498329
0.498155
0.498895
0.501159
0.505009
0.509933
0.51443
0.517627
0.522069
0.535917
0.567341
0.60502
0.646379
0.687412
0.723614
0.752615
0.773744
0.786765
0.794787
0.795101
0.784576
0.757584
0.663181
0.515773
0.571406
0.549665
0.538233
0.538656
0.547237
0.570058
0.617191
0.665527
0.558348
0.541453
0.534678
0.537976
0.547934
0.575942
0.62295
0.669821
0.547549
0.535617
0.533037
0.538655
0.551043
0.58525
0.632392
0.677552
0.539434
0.532223
0.533809
0.540946
0.558569
0.599409
0.645861
0.687653
0.533544
0.531895
0.536533
0.546411
0.57332
0.618959
0.663124
0.698631
0.532468
0.535057
0.541758
0.558293
0.598496
0.643907
0.681846
0.708073
0.536229
0.541264
0.553086
0.586278
0.631893
0.67067
0.697572
0.715192
0.544581
0.55483
0.584234
0.628374
0.665977
0.691673
0.706995
0.720619
0.563488
0.593501
0.634031
0.667649
0.690105
0.70284
0.713016
0.720194
0.613999
0.647346
0.674273
0.69175
0.701419
0.708771
0.711812
0.715623
0.664204
0.683179
0.695035
0.701703
0.706283
0.704165
0.70371
0.713831
0.692477
0.69922
0.703085
0.702547
0.693089
0.690668
0.69924
0.715946
0.704341
0.704461