/*--------------------------------*- C++ -*----------------------------------*\
  =========                 |
  \\      /  F ield         | OpenFOAM: The Open Source CFD Toolbox
   \\    /   O peration     | Website:  https://openfoam.org
    \\  /    A nd           | Version:  10
     \\/     M anipulation  |
\*---------------------------------------------------------------------------*/
FoamFile
{
    format      ascii;
    class       volVectorField;
    location    "0.799969";
    object      U;
}
// * * * * * * * * * * * * * * * * * * * * * * * * * * * * * * * * * * * * * //

dimensions      [0 1 -1 0 0 0 0];

internalField   nonuniform List<vector> 
16320
(
(0.412537 -0.180662 0)
(0.443013 -0.173467 0)
(0.471455 -0.165285 0)
(0.497273 -0.156566 0)
(0.519942 -0.147557 0)
(0.539299 -0.138465 0)
(0.554932 -0.129745 0)
(0.566654 -0.121885 0)
(0.574546 -0.115292 0)
(0.578781 -0.110166 0)
(0.579355 -0.107033 0)
(0.57642 -0.106513 0)
(0.570304 -0.108837 0)
(0.561542 -0.11384 0)
(0.551234 -0.120363 0)
(0.540387 -0.127254 0)
(0.529653 -0.132815 0)
(0.51965 -0.135615 0)
(0.512076 -0.134082 0)
(0.506633 -0.126341 0)
(0.501599 -0.112713 0)
(0.497412 -0.0936966 0)
(0.493544 -0.069185 0)
(0.489043 -0.0404499 0)
(0.484137 -0.00844938 0)
(0.479755 0.0251983 0)
(0.476311 0.0581721 0)
(0.47308 0.0891375 0)
(0.470074 0.11732 0)
(0.467826 0.141927 0)
(0.466575 0.162218 0)
(0.466415 0.177571 0)
(0.46561 0.18783 0)
(0.424733 -0.181506 0)
(0.455525 -0.172171 0)
(0.484017 -0.161694 0)
(0.509571 -0.150427 0)
(0.531741 -0.138618 0)
(0.550337 -0.126783 0)
(0.564989 -0.115397 0)
(0.575402 -0.104943 0)
(0.58168 -0.0958491 0)
(0.584009 -0.0884698 0)
(0.582514 -0.0832963 0)
(0.577313 -0.0807368 0)
(0.568608 -0.0811605 0)
(0.556863 -0.0850996 0)
(0.543077 -0.0915921 0)
(0.528323 -0.0992961 0)
(0.513175 -0.106192 0)
(0.498427 -0.110594 0)
(0.486969 -0.111032 0)
(0.478408 -0.105169 0)
(0.470193 -0.092797 0)
(0.463241 -0.0746078 0)
(0.456756 -0.0505233 0)
(0.449565 -0.0219538 0)
(0.442887 0.00979725 0)
(0.438314 0.0422573 0)
(0.434953 0.074005 0)
(0.432237 0.103752 0)
(0.430408 0.13046 0)
(0.430104 0.15336 0)
(0.4313 0.171684 0)
(0.433944 0.184787 0)
(0.436115 0.192079 0)
(0.431433 -0.18222 0)
(0.461901 -0.170565 0)
(0.490109 -0.157604 0)
(0.515344 -0.143544 0)
(0.537052 -0.128868 0)
(0.554943 -0.114098 0)
(0.568726 -0.0998648 0)
(0.578221 -0.0865927 0)
(0.583409 -0.0747889 0)
(0.584267 -0.0649808 0)
(0.580998 -0.0576574 0)
(0.574197 -0.0530651 0)
(0.563471 -0.0515355 0)
(0.549102 -0.0539085 0)
(0.532383 -0.0598917 0)
(0.514261 -0.0681126 0)
(0.495448 -0.0763814 0)
(0.47643 -0.0823462 0)
(0.461124 -0.0848391 0)
(0.449853 -0.0811876 0)
(0.438911 -0.0703842 0)
(0.429303 -0.053296 0)
(0.420235 -0.030177 0)
(0.410519 -0.00218148 0)
(0.403186 0.0281244 0)
(0.398462 0.0587951 0)
(0.395315 0.088711 0)
(0.393261 0.116457 0)
(0.392795 0.14108 0)
(0.394475 0.16167 0)
(0.398149 0.177356 0)
(0.40337 0.187744 0)
(0.408831 0.191702 0)
(0.431915 -0.183159 0)
(0.462271 -0.168944 0)
(0.49034 -0.15315 0)
(0.51532 -0.136121 0)
(0.536515 -0.11838 0)
(0.55362 -0.100559 0)
(0.566414 -0.0832982 0)
(0.574782 -0.0671485 0)
(0.57872 -0.0526584 0)
(0.578351 -0.0404215 0)
(0.573912 -0.0307945 0)
(0.565873 -0.0242842 0)
(0.553877 -0.0213178 0)
(0.53768 -0.0216365 0)
(0.518474 -0.0266016 0)
(0.497568 -0.0347727 0)
(0.475846 -0.0439207 0)
(0.453315 -0.0514512 0)
(0.434566 -0.0558949 0)
(0.421076 -0.0544325 0)
(0.407862 -0.045503 0)
(0.395513 -0.0297677 0)
(0.383943 -0.00780173 0)
(0.373096 0.0182657 0)
(0.365517 0.0462175 0)
(0.36086 0.0747009 0)
(0.358064 0.102288 0)
(0.356842 0.127547 0)
(0.357929 0.149563 0)
(0.361655 0.167316 0)
(0.367858 0.179983 0)
(0.3755 0.186954 0)
(0.384345 0.188042 0)
(0.428134 -0.183632 0)
(0.458446 -0.166555 0)
(0.486242 -0.147792 0)
(0.510674 -0.127759 0)
(0.531119 -0.10695 0)
(0.547227 -0.0860701 0)
(0.558894 -0.0658449 0)
(0.566098 -0.0469162 0)
(0.568717 -0.0299334 0)
(0.567005 -0.0154871 0)
(0.561016 -0.00349896 0)
(0.551201 0.00536496 0)
(0.538217 0.0103726 0)
(0.520946 0.0117861 0)
(0.499783 0.00840832 0)
(0.477282 -9.9909e-05 0)
(0.45393 -0.0109167 0)
(0.428954 -0.0206052 0)
(0.407471 -0.0268192 0)
(0.391905 -0.0268958 0)
(0.376368 -0.0192508 0)
(0.361629 -0.00441856 0)
(0.349127 0.0154009 0)
(0.338354 0.0384727 0)
(0.330845 0.0638253 0)
(0.326335 0.0898137 0)
(0.323936 0.114686 0)
(0.323764 0.137019 0)
(0.326573 0.155996 0)
(0.332401 0.170473 0)
(0.340722 0.17977 0)
(0.351087 0.183376 0)
(0.363512 0.181753 0)
(0.42063 -0.185196 0)
(0.450048 -0.16519 0)
(0.476922 -0.143105 0)
(0.500451 -0.119569 0)
(0.520017 -0.0952671 0)
(0.535139 -0.0710426 0)
(0.54568 -0.0477422 0)
(0.551748 -0.026037 0)
(0.552994 -0.00635599 0)
(0.549194 0.0113093 0)
(0.541215 0.0259314 0)
(0.529616 0.0369792 0)
(0.515237 0.0437244 0)
(0.497552 0.0459341 0)
(0.475429 0.0445908 0)
(0.450786 0.037695 0)
(0.425325 0.0269744 0)
(0.398108 0.0156289 0)
(0.37477 0.00733053 0)
(0.358066 0.00535224 0)
(0.342317 0.010288 0)
(0.328556 0.0214418 0)
(0.316963 0.0376693 0)
(0.306663 0.0579553 0)
(0.299506 0.080807 0)
(0.295259 0.104073 0)
(0.293447 0.125811 0)
(0.294615 0.14483 0)
(0.299222 0.160229 0)
(0.306901 0.171107 0)
(0.317432 0.176942 0)
(0.330574 0.17755 0)
(0.345906 0.172787 0)
(0.406833 -0.190847 0)
(0.435784 -0.167095 0)
(0.462093 -0.14073 0)
(0.484796 -0.11277 0)
(0.50329 -0.0842485 0)
(0.517117 -0.0562304 0)
(0.526245 -0.029641 0)
(0.530784 -0.00478876 0)
(0.530075 0.0182761 0)
(0.524941 0.0383218 0)
(0.515882 0.0548885 0)
(0.503256 0.0677055 0)
(0.487902 0.0759924 0)
(0.47035 0.0795581 0)
(0.448564 0.0790945 0)
(0.423025 0.0730053 0)
(0.396661 0.0620218 0)
(0.368726 0.0498225 0)
(0.345025 0.0398628 0)
(0.328673 0.0350735 0)
(0.313603 0.0365077 0)
(0.300269 0.0446456 0)
(0.288704 0.0584762 0)
(0.278507 0.0765102 0)
(0.271727 0.0967596 0)
(0.267926 0.11694 0)
(0.266997 0.135196 0)
(0.26956 0.150647 0)
(0.275772 0.162201 0)
(0.285371 0.169435 0)
(0.29814 0.171937 0)
(0.31364 0.16936 0)
(0.331289 0.161588 0)
(0.389456 -0.199459 0)
(0.417967 -0.171055 0)
(0.443502 -0.139782 0)
(0.465017 -0.106862 0)
(0.481873 -0.0736992 0)
(0.493796 -0.0416156 0)
(0.501073 -0.0114483 0)
(0.503098 0.0169966 0)
(0.501005 0.0426165 0)
(0.494921 0.0649671 0)
(0.485216 0.0835841 0)
(0.472084 0.0981669 0)
(0.456565 0.108479 0)
(0.439607 0.113586 0)
(0.418604 0.113844 0)
(0.393298 0.108299 0)
(0.367463 0.0971651 0)
(0.340425 0.0837689 0)
(0.317634 0.0713837 0)
(0.301993 0.0637132 0)
(0.287333 0.0621433 0)
(0.274315 0.0674752 0)
(0.262937 0.0786535 0)
(0.253109 0.0940838 0)
(0.246969 0.111306 0)
(0.243991 0.127963 0)
(0.244329 0.142525 0)
(0.248386 0.154098 0)
(0.256237 0.161981 0)
(0.267756 0.165717 0)
(0.28249 0.164866 0)
(0.299866 0.159086 0)
(0.319251 0.148572 0)
(0.36952 -0.210933 0)
(0.39746 -0.177942 0)
(0.422429 -0.141326 0)
(0.442768 -0.102772 0)
(0.457526 -0.0642963 0)
(0.466894 -0.0275151 0)
(0.470723 0.00706839 0)
(0.470366 0.0383994 0)
(0.466519 0.0663887 0)
(0.459346 0.0908417 0)
(0.44907 0.111305 0)
(0.436113 0.127721 0)
(0.420903 0.139808 0)
(0.404526 0.14605 0)
(0.384898 0.146905 0)
(0.360988 0.141881 0)
(0.336978 0.130581 0)
(0.311881 0.115869 0)
(0.290684 0.101259 0)
(0.276103 0.0909986 0)
(0.262055 0.0866545 0)
(0.249686 0.0891602 0)
(0.238961 0.097429 0)
(0.229992 0.109916 0)
(0.224868 0.123805 0)
(0.223135 0.13674 0)
(0.224952 0.147499 0)
(0.230704 0.155309 0)
(0.240384 0.159642 0)
(0.253634 0.159784 0)
(0.269888 0.155414 0)
(0.288713 0.146769 0)
(0.309416 0.133639 0)
(0.346353 -0.226393 0)
(0.37421 -0.188134 0)
(0.399209 -0.145124 0)
(0.418861 -0.0998943 0)
(0.431897 -0.0551609 0)
(0.438555 -0.0131982 0)
(0.438369 0.025286 0)
(0.434053 0.0594737 0)
(0.427262 0.0895464 0)
(0.418396 0.115728 0)
(0.407654 0.137904 0)
(0.395017 0.15595 0)
(0.38015 0.16885 0)
(0.364777 0.176088 0)
(0.347171 0.17754 0)
(0.32548 0.172731 0)
(0.304049 0.161154 0)
(0.281676 0.145046 0)
(0.262959 0.128499 0)
(0.250081 0.115901 0)
(0.237128 0.109117 0)
(0.225835 0.109 0)
(0.216372 0.114079 0)
(0.20882 0.123441 0)
(0.20504 0.133666 0)
(0.204867 0.142814 0)
(0.208568 0.149857 0)
(0.216253 0.153974 0)
(0.227575 0.154461 0)
(0.242184 0.150924 0)
(0.260034 0.14362 0)
(0.280072 0.132791 0)
(0.302267 0.11909 0)
(0.318287 -0.24404 0)
(0.345929 -0.200681 0)
(0.36997 -0.15126 0)
(0.388647 -0.0983007 0)
(0.40071 -0.0453515 0)
(0.405614 0.00392639 0)
(0.402566 0.0467759 0)
(0.394284 0.0827696 0)
(0.383896 0.113319 0)
(0.372981 0.140249 0)
(0.361612 0.163462 0)
(0.348835 0.18197 0)
(0.334641 0.195436 0)
(0.321155 0.20349 0)
(0.305799 0.205286 0)
(0.286838 0.200199 0)
(0.268713 0.188021 0)
(0.249687 0.170521 0)
(0.234162 0.152391 0)
(0.223628 0.137696 0)
(0.212426 0.128641 0)
(0.202612 0.126015 0)
(0.195063 0.12815 0)
(0.189546 0.133897 0)
(0.187322 0.140193 0)
(0.18918 0.145543 0)
(0.194935 0.148759 0)
(0.204363 0.148951 0)
(0.217313 0.146135 0)
(0.233824 0.140247 0)
(0.253403 0.131353 0)
(0.275407 0.119531 0)
(0.298844 0.105535 0)
(0.279288 -0.265092 0)
(0.303631 -0.218555 0)
(0.325442 -0.163772 0)
(0.343057 -0.103227 0)
(0.354726 -0.0414818 0)
(0.35898 0.01673 0)
(0.355038 0.0670458 0)
(0.345106 0.107329 0)
(0.333425 0.138464 0)
(0.322177 0.164829 0)
(0.310371 0.187269 0)
(0.298007 0.205597 0)
(0.28557 0.219535 0)
(0.274356 0.227829 0)
(0.261459 0.229493 0)
(0.245668 0.223712 0)
(0.231443 0.210541 0)
(0.216404 0.191621 0)
(0.204642 0.172193 0)
(0.196848 0.155752 0)
(0.187979 0.144595 0)
(0.180315 0.139451 0)
(0.175064 0.138806 0)
(0.171909 0.140838 0)
(0.171874 0.143246 0)
(0.175936 0.144727 0)
(0.183729 0.144478 0)
(0.195539 0.142034 0)
(0.211017 0.136875 0)
(0.229335 0.12905 0)
(0.250142 0.118574 0)
(0.272844 0.105674 0)
(0.296768 0.0902684 0)
(0.226435 -0.287121 0)
(0.247086 -0.237107 0)
(0.266416 -0.176728 0)
(0.282734 -0.108864 0)
(0.293942 -0.0389682 0)
(0.297741 0.0267294 0)
(0.293625 0.0837536 0)
(0.28401 0.129127 0)
(0.273504 0.161877 0)
(0.263791 0.187084 0)
(0.253676 0.208414 0)
(0.243533 0.226697 0)
(0.233502 0.240486 0)
(0.225096 0.248465 0)
(0.214962 0.249503 0)
(0.202825 0.242725 0)
(0.193034 0.228202 0)
(0.182463 0.207879 0)
(0.174876 0.187421 0)
(0.170104 0.169617 0)
(0.164006 0.156616 0)
(0.159018 0.149002 0)
(0.156433 0.145514 0)
(0.156101 0.144159 0)
(0.158739 0.143239 0)
(0.165484 0.141473 0)
(0.176192 0.13833 0)
(0.190151 0.133281 0)
(0.207076 0.12568 0)
(0.226817 0.115659 0)
(0.248817 0.103512 0)
(0.272434 0.0894135 0)
(0.297105 0.0737011 0)
(0.161795 -0.303424 0)
(0.176562 -0.25106 0)
(0.191591 -0.187547 0)
(0.205964 -0.114597 0)
(0.217477 -0.0373174 0)
(0.222664 0.0358093 0)
(0.219856 0.0980671 0)
(0.212082 0.14647 0)
(0.204776 0.179981 0)
(0.199319 0.204843 0)
(0.192997 0.22614 0)
(0.185968 0.244236 0)
(0.179084 0.257523 0)
(0.17412 0.264971 0)
(0.167167 0.264792 0)
(0.159214 0.256823 0)
(0.154183 0.240704 0)
(0.148448 0.219018 0)
(0.145238 0.197673 0)
(0.143715 0.178913 0)
(0.140849 0.16442 0)
(0.139042 0.154577 0)
(0.139506 0.148263 0)
(0.14231 0.143698 0)
(0.148116 0.139593 0)
(0.157623 0.134904 0)
(0.170567 0.128801 0)
(0.18655 0.120845 0)
(0.205324 0.111101 0)
(0.226548 0.0995908 0)
(0.249649 0.086522 0)
(0.27402 0.0722747 0)
(0.298931 0.0575151 0)
(0.0869678 -0.314119 0)
(0.0938249 -0.262311 0)
(0.103099 -0.198401 0)
(0.114037 -0.123008 0)
(0.125391 -0.0398476 0)
(0.135425 0.0407063 0)
(0.136145 0.107921 0)
(0.132636 0.157267 0)
(0.131547 0.191654 0)
(0.131788 0.217292 0)
(0.129735 0.239123 0)
(0.126295 0.257249 0)
(0.12352 0.270458 0)
(0.122298 0.277128 0)
(0.118847 0.275218 0)
(0.115893 0.265776 0)
(0.115706 0.248015 0)
(0.114791 0.225108 0)
(0.115964 0.203072 0)
(0.117985 0.183827 0)
(0.118771 0.168221 0)
(0.120538 0.156316 0)
(0.124366 0.147255 0)
(0.130471 0.139631 0)
(0.139435 0.13238 0)
(0.15171 0.124662 0)
(0.167005 0.115889 0)
(0.185072 0.105845 0)
(0.205549 0.0945881 0)
(0.227964 0.0822771 0)
(0.251626 0.0694424 0)
(0.275862 0.0558244 0)
(0.298931 0.041658 0)
(0.00580846 -0.319884 0)
(0.00601258 -0.269123 0)
(0.0105227 -0.206226 0)
(0.0163548 -0.130384 0)
(0.0239619 -0.0442199 0)
(0.0409038 0.0449915 0)
(0.0494907 0.114792 0)
(0.0523776 0.162074 0)
(0.0586576 0.19703 0)
(0.0633172 0.224125 0)
(0.0652744 0.247537 0)
(0.0663898 0.266386 0)
(0.0683465 0.279079 0)
(0.0704011 0.284428 0)
(0.0710216 0.280832 0)
(0.0738353 0.269753 0)
(0.0783718 0.250442 0)
(0.0822147 0.226712 0)
(0.0876465 0.204258 0)
(0.0931641 0.1844 0)
(0.0976595 0.167885 0)
(0.1032 0.1544 0)
(0.110702 0.143058 0)
(0.120388 0.132849 0)
(0.132538 0.122882 0)
(0.147487 0.1125 0)
(0.165017 0.101484 0)
(0.18483 0.0898697 0)
(0.206416 0.0779384 0)
(0.229313 0.0654867 0)
(0.252175 0.0524148 0)
(0.273969 0.0393868 0)
(0.294134 0.0273149 0)
(-0.0744263 -0.317909 0)
(-0.0780326 -0.266796 0)
(-0.0770847 -0.20459 0)
(-0.0761627 -0.131058 0)
(-0.0716614 -0.0511968 0)
(-0.0545891 0.0310083 0)
(-0.0351483 0.105817 0)
(-0.0250271 0.158033 0)
(-0.0136759 0.196144 0)
(-0.00478191 0.226692 0)
(0.00200052 0.252508 0)
(0.00757784 0.271166 0)
(0.0140205 0.282412 0)
(0.0196885 0.286188 0)
(0.0254505 0.281857 0)
(0.0340634 0.269145 0)
(0.0429743 0.248654 0)
(0.0513532 0.224606 0)
(0.0605141 0.201839 0)
(0.0693138 0.181366 0)
(0.0777304 0.163964 0)
(0.0871316 0.148956 0)
(0.0982309 0.13557 0)
(0.111273 0.123057 0)
(0.126321 0.110844 0)
(0.143577 0.0986665 0)
(0.162849 0.0865028 0)
(0.183812 0.0739873 0)
(0.205476 0.0610419 0)
(0.226901 0.0480512 0)
(0.247649 0.0357864 0)
(0.266906 0.0255738 0)
(0.28326 0.0173412 0)
(-0.14986 -0.311192 0)
(-0.156084 -0.261131 0)
(-0.15806 -0.200285 0)
(-0.159655 -0.129223 0)
(-0.155878 -0.0528648 0)
(-0.138955 0.0254945 0)
(-0.116507 0.0963076 0)
(-0.0991722 0.150792 0)
(-0.0840645 0.19183 0)
(-0.0714805 0.224662 0)
(-0.0605494 0.250707 0)
(-0.0499303 0.268951 0)
(-0.0384692 0.27997 0)
(-0.0283244 0.283162 0)
(-0.0162789 0.278704 0)
(-0.00272618 0.264457 0)
(0.0101513 0.243308 0)
(0.0225984 0.219496 0)
(0.035143 0.196776 0)
(0.0470608 0.175877 0)
(0.0590364 0.15745 0)
(0.07193 0.140843 0)
(0.0862352 0.125631 0)
(0.102083 0.111312 0)
(0.119558 0.0977003 0)
(0.138638 0.0842512 0)
(0.158553 0.0706769 0)
(0.178767 0.0571092 0)
(0.199063 0.044125 0)
(0.21866 0.0329297 0)
(0.236635 0.0236536 0)
(0.252538 0.0165463 0)
(0.267027 0.010808 0)
(-0.218909 -0.302254 0)
(-0.227272 -0.254161 0)
(-0.231241 -0.196497 0)
(-0.233714 -0.129549 0)
(-0.229284 -0.0576613 0)
(-0.212002 0.0154338 0)
(-0.189775 0.0839133 0)
(-0.170293 0.139195 0)
(-0.152364 0.182406 0)
(-0.135747 0.21674 0)
(-0.119502 0.243519 0)
(-0.103389 0.262564 0)
(-0.0873092 0.273877 0)
(-0.0720993 0.276854 0)
(-0.0543097 0.271352 0)
(-0.0369038 0.256607 0)
(-0.0201825 0.235702 0)
(-0.00389819 0.212153 0)
(0.0116949 0.189397 0)
(0.0265314 0.168373 0)
(0.0416434 0.149311 0)
(0.0574042 0.131764 0)
(0.074119 0.115521 0)
(0.0919058 0.0999822 0)
(0.110413 0.0847877 0)
(0.12938 0.0699008 0)
(0.148634 0.0556334 0)
(0.167637 0.0429882 0)
(0.185825 0.0320843 0)
(0.202622 0.0231654 0)
(0.218718 0.0159002 0)
(0.234691 0.00965286 0)
(0.250716 0.00394358 0)
(-0.278425 -0.291704 0)
(-0.288765 -0.24533 0)
(-0.294758 -0.191178 0)
(-0.297759 -0.128537 0)
(-0.293596 -0.0612653 0)
(-0.277663 0.00631593 0)
(-0.255978 0.0706025 0)
(-0.235291 0.12553 0)
(-0.214328 0.170398 0)
(-0.193495 0.206483 0)
(-0.172512 0.23434 0)
(-0.151867 0.253825 0)
(-0.131912 0.264895 0)
(-0.111334 0.267527 0)
(-0.089185 0.260904 0)
(-0.0681725 0.246077 0)
(-0.0478433 0.225812 0)
(-0.0285225 0.203303 0)
(-0.0102777 0.180805 0)
(0.00745791 0.159829 0)
(0.0248023 0.140773 0)
(0.0423995 0.122836 0)
(0.0601453 0.105581 0)
(0.0780149 0.0889956 0)
(0.0960881 0.0731643 0)
(0.114084 0.0587017 0)
(0.131673 0.0457459 0)
(0.148459 0.034484 0)
(0.164987 0.0248777 0)
(0.181871 0.0163819 0)
(0.199583 0.00860139 0)
(0.218824 0.0007425 0)
(0.239948 -0.00653193 0)
(-0.328179 -0.27899 0)
(-0.33916 -0.235102 0)
(-0.346953 -0.183859 0)
(-0.350674 -0.126064 0)
(-0.347414 -0.0634886 0)
(-0.333093 -0.000347036 0)
(-0.312279 0.0602153 0)
(-0.29083 0.11401 0)
(-0.267547 0.159353 0)
(-0.243606 0.196106 0)
(-0.219424 0.22387 0)
(-0.195553 0.242638 0)
(-0.171744 0.253198 0)
(-0.146461 0.255125 0)
(-0.121005 0.248037 0)
(-0.0967344 0.233692 0)
(-0.073371 0.214592 0)
(-0.0516021 0.193195 0)
(-0.0312309 0.171849 0)
(-0.0117559 0.151713 0)
(0.00676273 0.132412 0)
(0.0241991 0.114278 0)
(0.0413709 0.0968782 0)
(0.0584046 0.0807366 0)
(0.075116 0.0659607 0)
(0.0912749 0.0524921 0)
(0.107347 0.0404365 0)
(0.124086 0.0294135 0)
(0.142084 0.0189752 0)
(0.161979 0.0086724 0)
(0.184032 -0.00149373 0)
(0.208797 -0.012359 0)
(0.235279 -0.0234653 0)
(-0.368677 -0.263777 0)
(-0.379707 -0.22265 0)
(-0.387941 -0.174644 0)
(-0.392955 -0.121585 0)
(-0.390425 -0.0645178 0)
(-0.37748 -0.00436437 0)
(-0.357854 0.0521474 0)
(-0.336209 0.103831 0)
(-0.312052 0.147887 0)
(-0.286978 0.183383 0)
(-0.261407 0.210425 0)
(-0.234484 0.228944 0)
(-0.20638 0.239061 0)
(-0.177823 0.240524 0)
(-0.149795 0.233744 0)
(-0.12292 0.220565 0)
(-0.0975165 0.203108 0)
(-0.0742435 0.183429 0)
(-0.0527577 0.163344 0)
(-0.0334807 0.143858 0)
(-0.0159445 0.12545 0)
(0.000862457 0.108123 0)
(0.0168318 0.0921394 0)
(0.0323235 0.0769947 0)
(0.0476335 0.0630487 0)
(0.0635515 0.0498539 0)
(0.0808306 0.0370788 0)
(0.0999831 0.0244932 0)
(0.121769 0.0119768 0)
(0.146227 -0.00214013 0)
(0.173176 -0.0173718 0)
(0.202343 -0.0315729 0)
(0.230335 -0.0417773 0)
(-0.397657 -0.247442 0)
(-0.411067 -0.208739 0)
(-0.419909 -0.164502 0)
(-0.425703 -0.11544 0)
(-0.422965 -0.0622603 0)
(-0.411409 -0.00844634 0)
(-0.394696 0.0438988 0)
(-0.373744 0.0922684 0)
(-0.35023 0.134271 0)
(-0.324338 0.168756 0)
(-0.296198 0.195452 0)
(-0.266484 0.213987 0)
(-0.23599 0.223735 0)
(-0.205522 0.225402 0)
(-0.175894 0.219691 0)
(-0.147655 0.208058 0)
(-0.121628 0.192075 0)
(-0.0987223 0.173814 0)
(-0.0783489 0.15552 0)
(-0.0599246 0.138107 0)
(-0.0430602 0.121836 0)
(-0.0277194 0.106253 0)
(-0.0131638 0.0912601 0)
(0.00218667 0.0766974 0)
(0.0184981 0.0624089 0)
(0.0361459 0.0483039 0)
(0.0563511 0.034198 0)
(0.0792468 0.0183078 0)
(0.103586 -0.000206748 0)
(0.130917 -0.0192933 0)
(0.159045 -0.034843 0)
(0.18406 -0.0459619 0)
(0.205536 -0.0529875 0)
(-0.415287 -0.229822 0)
(-0.431219 -0.194325 0)
(-0.442678 -0.153687 0)
(-0.449113 -0.108812 0)
(-0.448871 -0.0598401 0)
(-0.43988 -0.0119733 0)
(-0.423621 0.0361761 0)
(-0.403449 0.08143 0)
(-0.379912 0.121329 0)
(-0.353254 0.154907 0)
(-0.323996 0.180795 0)
(-0.293155 0.198503 0)
(-0.261739 0.208146 0)
(-0.230704 0.210273 0)
(-0.201036 0.205668 0)
(-0.17348 0.195564 0)
(-0.148717 0.181537 0)
(-0.126637 0.165804 0)
(-0.106949 0.15033 0)
(-0.0897019 0.135629 0)
(-0.0740674 0.121413 0)
(-0.058919 0.107114 0)
(-0.0436289 0.0924917 0)
(-0.0273205 0.0781633 0)
(-0.00894096 0.0630597 0)
(0.011656 0.0462368 0)
(0.0325279 0.0273343 0)
(0.0547871 0.00625994 0)
(0.0792256 -0.0134554 0)
(0.103091 -0.0291575 0)
(0.123755 -0.0424702 0)
(0.141498 -0.0516137 0)
(0.15719 -0.0562195 0)
(-0.422975 -0.209361 0)
(-0.440485 -0.177735 0)
(-0.454058 -0.141039 0)
(-0.462514 -0.0999988 0)
(-0.464732 -0.056306 0)
(-0.458428 -0.0117836 0)
(-0.444009 0.0316566 0)
(-0.424923 0.0731849 0)
(-0.402117 0.110229 0)
(-0.375733 0.141568 0)
(-0.346777 0.166063 0)
(-0.316304 0.183125 0)
(-0.285406 0.192843 0)
(-0.255145 0.19565 0)
(-0.226484 0.192421 0)
(-0.200122 0.184425 0)
(-0.176531 0.173285 0)
(-0.155745 0.160919 0)
(-0.1374 0.148358 0)
(-0.120624 0.135898 0)
(-0.104636 0.123104 0)
(-0.0885339 0.109552 0)
(-0.0718692 0.0949098 0)
(-0.0542245 0.07866 0)
(-0.0367122 0.0601524 0)
(-0.0187723 0.0398746 0)
(0.00056907 0.0194934 0)
(0.0202678 0.00133718 0)
(0.0383411 -0.0144556 0)
(0.0536972 -0.0289967 0)
(0.0681129 -0.0402587 0)
(0.0821226 -0.0478212 0)
(0.0964572 -0.0527799 0)
(-0.421022 -0.18583 0)
(-0.440479 -0.158166 0)
(-0.455658 -0.125848 0)
(-0.466162 -0.0895746 0)
(-0.470904 -0.0506294 0)
(-0.4674 -0.0106714 0)
(-0.455469 0.0284845 0)
(-0.438189 0.0660767 0)
(-0.417093 0.100188 0)
(-0.392216 0.129226 0)
(-0.364667 0.152321 0)
(-0.335652 0.168899 0)
(-0.306316 0.178952 0)
(-0.277667 0.182915 0)
(-0.250702 0.181701 0)
(-0.226111 0.176458 0)
(-0.203928 0.168506 0)
(-0.183916 0.159059 0)
(-0.165847 0.148802 0)
(-0.149049 0.137963 0)
(-0.132689 0.125803 0)
(-0.116264 0.111508 0)
(-0.101043 0.0951425 0)
(-0.0865165 0.0774294 0)
(-0.0715197 0.0588578 0)
(-0.0563446 0.0403982 0)
(-0.0425031 0.0231029 0)
(-0.0304724 0.00747579 0)
(-0.0185324 -0.00698151 0)
(-0.00779116 -0.0198062 0)
(0.00464841 -0.0325104 0)
(0.0198711 -0.0439942 0)
(0.0381248 -0.0537728 0)
(-0.409342 -0.160282 0)
(-0.430839 -0.135751 0)
(-0.448099 -0.107368 0)
(-0.460625 -0.0759172 0)
(-0.467684 -0.0419216 0)
(-0.467374 -0.00675495 0)
(-0.458515 0.027837 0)
(-0.443677 0.0609638 0)
(-0.424942 0.0918274 0)
(-0.402471 0.11866 0)
(-0.377269 0.140567 0)
(-0.350575 0.156952 0)
(-0.323473 0.167808 0)
(-0.296896 0.173405 0)
(-0.271741 0.174377 0)
(-0.248651 0.171792 0)
(-0.227717 0.16667 0)
(-0.208787 0.159624 0)
(-0.191347 0.150883 0)
(-0.175161 0.1403 0)
(-0.160603 0.127746 0)
(-0.147147 0.113425 0)
(-0.134429 0.0978925 0)
(-0.122628 0.0822898 0)
(-0.112395 0.0669823 0)
(-0.103788 0.0520512 0)
(-0.0959649 0.0371118 0)
(-0.0889064 0.0215013 0)
(-0.0806465 0.00517167 0)
(-0.0690389 -0.0110392 0)
(-0.0559108 -0.026932 0)
(-0.0386296 -0.0430069 0)
(-0.017817 -0.0569264 0)
(-0.388452 -0.133323 0)
(-0.412265 -0.111938 0)
(-0.432022 -0.0875491 0)
(-0.446786 -0.0605186 0)
(-0.455945 -0.031215 0)
(-0.458441 -0.000397394 0)
(-0.453098 0.0301962 0)
(-0.441384 0.0594602 0)
(-0.425351 0.0871896 0)
(-0.405755 0.11188 0)
(-0.38338 0.132601 0)
(-0.359422 0.148826 0)
(-0.33497 0.160427 0)
(-0.311048 0.167563 0)
(-0.288298 0.17057 0)
(-0.267173 0.170145 0)
(-0.247914 0.166833 0)
(-0.230687 0.161066 0)
(-0.215546 0.153288 0)
(-0.202137 0.143577 0)
(-0.190079 0.132273 0)
(-0.179598 0.120292 0)
(-0.171167 0.108096 0)
(-0.164551 0.0957953 0)
(-0.159286 0.082797 0)
(-0.155381 0.0686954 0)
(-0.151818 0.0531919 0)
(-0.146872 0.036245 0)
(-0.138882 0.0181047 0)
(-0.126926 -0.00137404 0)
(-0.112146 -0.0210547 0)
(-0.0964907 -0.0394692 0)
(-0.0802296 -0.0536173 0)
(-0.359542 -0.105091 0)
(-0.385387 -0.0865973 0)
(-0.407572 -0.0660641 0)
(-0.425034 -0.043325 0)
(-0.436776 -0.018653 0)
(-0.441867 0.00772232 0)
(-0.439999 0.034575 0)
(-0.431548 0.0607483 0)
(-0.418639 0.0857755 0)
(-0.402408 0.108617 0)
(-0.383389 0.128238 0)
(-0.362669 0.144165 0)
(-0.341294 0.156104 0)
(-0.320254 0.164113 0)
(-0.3003 0.168505 0)
(-0.282068 0.169625 0)
(-0.265896 0.168022 0)
(-0.251664 0.163943 0)
(-0.239269 0.157972 0)
(-0.229109 0.150735 0)
(-0.22124 0.142543 0)
(-0.215608 0.13384 0)
(-0.211833 0.124428 0)
(-0.209838 0.113866 0)
(-0.20914 0.101655 0)
(-0.208346 0.0873321 0)
(-0.206173 0.0708825 0)
(-0.20154 0.0521018 0)
(-0.193804 0.0311889 0)
(-0.183149 0.00949294 0)
(-0.169701 -0.0107612 0)
(-0.157887 -0.0277552 0)
(-0.143514 -0.0381025 0)
(-0.323972 -0.07603 0)
(-0.351096 -0.0591039 0)
(-0.375575 -0.0419678 0)
(-0.395593 -0.0237293 0)
(-0.409749 -0.00365328 0)
(-0.417547 0.0182977 0)
(-0.419368 0.0412557 0)
(-0.41473 0.0641263 0)
(-0.405354 0.0862849 0)
(-0.392729 0.107141 0)
(-0.377478 0.125652 0)
(-0.360536 0.141258 0)
(-0.342974 0.153599 0)
(-0.325674 0.162595 0)
(-0.309403 0.16843 0)
(-0.294681 0.171359 0)
(-0.282044 0.171946 0)
(-0.271823 0.170536 0)
(-0.263939 0.167633 0)
(-0.258571 0.163636 0)
(-0.255348 0.158535 0)
(-0.254327 0.152261 0)
(-0.255143 0.144479 0)
(-0.256714 0.134653 0)
(-0.258102 0.122527 0)
(-0.258262 0.107609 0)
(-0.25644 0.0898043 0)
(-0.252145 0.0692997 0)
(-0.24491 0.0472117 0)
(-0.23525 0.0254052 0)
(-0.22459 0.00426819 0)
(-0.210854 -0.0142152 0)
(-0.193769 -0.029189 0)
(-0.285048 -0.0481451 0)
(-0.309907 -0.0316626 0)
(-0.335641 -0.0169816 0)
(-0.35721 -0.00209033 0)
(-0.373838 0.014274 0)
(-0.385714 0.0319081 0)
(-0.391601 0.0510135 0)
(-0.391316 0.0705162 0)
(-0.38604 0.0898307 0)
(-0.377497 0.108623 0)
(-0.366534 0.125967 0)
(-0.35399 0.141263 0)
(-0.340901 0.154172 0)
(-0.328166 0.16451 0)
(-0.316624 0.172281 0)
(-0.30685 0.177652 0)
(-0.299307 0.181061 0)
(-0.294099 0.182794 0)
(-0.291034 0.182998 0)
(-0.290463 0.181706 0)
(-0.292006 0.178791 0)
(-0.29485 0.173838 0)
(-0.298111 0.166772 0)
(-0.300875 0.157221 0)
(-0.302596 0.144464 0)
(-0.302524 0.128226 0)
(-0.300135 0.108709 0)
(-0.295008 0.0865205 0)
(-0.286946 0.0626991 0)
(-0.277933 0.0387162 0)
(-0.267078 0.015622 0)
(-0.251156 -0.00396067 0)
(-0.230952 -0.0215143 0)
(-0.247626 -0.0240818 0)
(-0.266613 -0.00569156 0)
(-0.288933 0.00967188 0)
(-0.312827 0.02291 0)
(-0.333695 0.035606 0)
(-0.349545 0.0494404 0)
(-0.359778 0.0646805 0)
(-0.364202 0.0810334 0)
(-0.36354 0.0977573 0)
(-0.359674 0.114653 0)
(-0.353727 0.131059 0)
(-0.346398 0.14632 0)
(-0.338741 0.159994 0)
(-0.331615 0.171766 0)
(-0.325725 0.181745 0)
(-0.32133 0.189824 0)
(-0.318881 0.195977 0)
(-0.318823 0.200435 0)
(-0.320829 0.202984 0)
(-0.32453 0.203394 0)
(-0.329069 0.201659 0)
(-0.333637 0.197453 0)
(-0.337436 0.190485 0)
(-0.340165 0.180075 0)
(-0.341371 0.165591 0)
(-0.340045 0.147441 0)
(-0.335657 0.125973 0)
(-0.328257 0.102131 0)
(-0.318447 0.0770007 0)
(-0.307574 0.0517143 0)
(-0.294082 0.0286676 0)
(-0.276486 0.00742857 0)
(-0.255272 -0.0133173 0)
(-0.22086 -0.00621567 0)
(-0.234603 0.0165567 0)
(-0.252893 0.0343311 0)
(-0.27475 0.048281 0)
(-0.296912 0.0599444 0)
(-0.315353 0.0705226 0)
(-0.329017 0.0821067 0)
(-0.337779 0.0953089 0)
(-0.342157 0.109887 0)
(-0.34346 0.125269 0)
(-0.342974 0.141164 0)
(-0.341439 0.156793 0)
(-0.339665 0.171539 0)
(-0.338104 0.185044 0)
(-0.337535 0.197096 0)
(-0.338696 0.207486 0)
(-0.341528 0.2158 0)
(-0.345943 0.222076 0)
(-0.351628 0.226099 0)
(-0.357778 0.227637 0)
(-0.363674 0.226381 0)
(-0.368751 0.221818 0)
(-0.372561 0.213541 0)
(-0.374898 0.200941 0)
(-0.374701 0.184353 0)
(-0.370999 0.164067 0)
(-0.363931 0.14078 0)
(-0.354101 0.115285 0)
(-0.342313 0.0888182 0)
(-0.328862 0.0624898 0)
(-0.312394 0.0380788 0)
(-0.292398 0.0151603 0)
(-0.269556 -0.00617984 0)
(-0.207255 0.00892184 0)
(-0.217409 0.034 0)
(-0.23162 0.0552959 0)
(-0.248779 0.0714251 0)
(-0.268456 0.0835261 0)
(-0.28781 0.0934486 0)
(-0.303718 0.102863 0)
(-0.315937 0.113674 0)
(-0.324932 0.126494 0)
(-0.331543 0.140964 0)
(-0.336528 0.156765 0)
(-0.340604 0.172906 0)
(-0.344235 0.188565 0)
(-0.348013 0.203584 0)
(-0.352643 0.217234 0)
(-0.35843 0.229181 0)
(-0.365267 0.23917 0)
(-0.372904 0.246724 0)
(-0.380831 0.251599 0)
(-0.388373 0.253399 0)
(-0.395223 0.251479 0)
(-0.400809 0.245253 0)
(-0.404389 0.234642 0)
(-0.405381 0.219619 0)
(-0.403006 0.200536 0)
(-0.39699 0.177632 0)
(-0.387704 0.151933 0)
(-0.375863 0.124482 0)
(-0.361725 0.0968069 0)
(-0.345108 0.0698543 0)
(-0.325242 0.0446375 0)
(-0.301989 0.0213066 0)
(-0.276739 7.95514e-05 0)
(-0.200954 0.0201469 0)
(-0.210221 0.0491988 0)
(-0.220644 0.072357 0)
(-0.234595 0.0913914 0)
(-0.250744 0.10512 0)
(-0.268433 0.11572 0)
(-0.28574 0.125332 0)
(-0.300679 0.135279 0)
(-0.313556 0.147021 0)
(-0.324705 0.161065 0)
(-0.334687 0.176927 0)
(-0.343911 0.193347 0)
(-0.3522 0.209874 0)
(-0.360276 0.226023 0)
(-0.368965 0.240955 0)
(-0.378229 0.254236 0)
(-0.387998 0.265265 0)
(-0.397903 0.27345 0)
(-0.407371 0.278339 0)
(-0.416251 0.279396 0)
(-0.424231 0.275957 0)
(-0.429925 0.267657 0)
(-0.432617 0.254404 0)
(-0.432337 0.236241 0)
(-0.428935 0.213255 0)
(-0.422003 0.185831 0)
(-0.411946 0.15674 0)
(-0.399137 0.127597 0)
(-0.383563 0.0991314 0)
(-0.364841 0.0720177 0)
(-0.342171 0.0469028 0)
(-0.315847 0.0244909 0)
(-0.286928 0.00509713 0)
(-0.201877 0.0273537 0)
(-0.209665 0.0606511 0)
(-0.218684 0.0865656 0)
(-0.229141 0.107993 0)
(-0.243106 0.124727 0)
(-0.25825 0.136912 0)
(-0.27498 0.147841 0)
(-0.292191 0.158618 0)
(-0.307983 0.170455 0)
(-0.322594 0.184497 0)
(-0.336655 0.200449 0)
(-0.349664 0.217073 0)
(-0.36133 0.234532 0)
(-0.372803 0.251552 0)
(-0.384459 0.267452 0)
(-0.396328 0.281575 0)
(-0.408337 0.293164 0)
(-0.420013 0.301449 0)
(-0.430953 0.305814 0)
(-0.440745 0.305548 0)
(-0.448708 0.300012 0)
(-0.453601 0.28871 0)
(-0.455114 0.271298 0)
(-0.453504 0.248003 0)
(-0.448795 0.220932 0)
(-0.439491 0.192634 0)
(-0.426067 0.163158 0)
(-0.410939 0.133337 0)
(-0.394085 0.103834 0)
(-0.374751 0.075545 0)
(-0.351991 0.048907 0)
(-0.325685 0.0244943 0)
(-0.296534 0.00319679 0)
(-0.209613 0.0332069 0)
(-0.215391 0.0684302 0)
(-0.223155 0.0980087 0)
(-0.23108 0.121926 0)
(-0.242794 0.141648 0)
(-0.256316 0.156916 0)
(-0.27142 0.169501 0)
(-0.289153 0.18247 0)
(-0.306958 0.195487 0)
(-0.323868 0.210035 0)
(-0.340663 0.226253 0)
(-0.356059 0.243369 0)
(-0.370041 0.261431 0)
(-0.383918 0.279069 0)
(-0.397718 0.29563 0)
(-0.41145 0.310228 0)
(-0.425052 0.32205 0)
(-0.438066 0.330313 0)
(-0.449499 0.333723 0)
(-0.459005 0.331238 0)
(-0.465938 0.3223 0)
(-0.469334 0.306282 0)
(-0.468576 0.28314 0)
(-0.462532 0.258017 0)
(-0.451471 0.230111 0)
(-0.439 0.201329 0)
(-0.425488 0.170988 0)
(-0.409645 0.139703 0)
(-0.390888 0.108646 0)
(-0.368682 0.0785034 0)
(-0.343289 0.0500306 0)
(-0.315334 0.0239335 0)
(-0.286203 0.00162715 0)
(-0.222546 0.0370845 0)
(-0.226676 0.0737851 0)
(-0.232736 0.106163 0)
(-0.238617 0.133142 0)
(-0.248082 0.155848 0)
(-0.260272 0.174552 0)
(-0.27358 0.190161 0)
(-0.290367 0.205696 0)
(-0.309089 0.220625 0)
(-0.327063 0.236246 0)
(-0.345101 0.252927 0)
(-0.361718 0.270858 0)
(-0.377099 0.289337 0)
(-0.392492 0.307462 0)
(-0.407622 0.324401 0)
(-0.422489 0.339397 0)
(-0.436746 0.351573 0)
(-0.44974 0.358905 0)
(-0.460842 0.359964 0)
(-0.469136 0.354042 0)
(-0.474073 0.34093 0)
(-0.474643 0.320757 0)
(-0.466781 0.294837 0)
(-0.455662 0.268415 0)
(-0.444518 0.239184 0)
(-0.430427 0.207617 0)
(-0.414134 0.175775 0)
(-0.394243 0.143919 0)
(-0.370709 0.112376 0)
(-0.344126 0.0815075 0)
(-0.314893 0.0528643 0)
(-0.284277 0.0271052 0)
(-0.254737 0.00492238 0)
(-0.238783 0.0395833 0)
(-0.241561 0.0772803 0)
(-0.245765 0.111665 0)
(-0.24974 0.141546 0)
(-0.257192 0.167405 0)
(-0.267587 0.189645 0)
(-0.279099 0.209064 0)
(-0.294535 0.227385 0)
(-0.312818 0.244662 0)
(-0.3308 0.261818 0)
(-0.348746 0.27936 0)
(-0.365563 0.29819 0)
(-0.381658 0.317127 0)
(-0.397705 0.335561 0)
(-0.413252 0.352886 0)
(-0.427935 0.368741 0)