/*--------------------------------*- C++ -*----------------------------------*\
  =========                 |
  \\      /  F ield         | OpenFOAM: The Open Source CFD Toolbox
   \\    /   O peration     | Website:  https://openfoam.org
    \\  /    A nd           | Version:  11
     \\/     M anipulation  |
\*---------------------------------------------------------------------------*/
FoamFile
{
    format      ascii;
    class       volScalarField;
    location    "7.5";
    object      mag(U);
}
// * * * * * * * * * * * * * * * * * * * * * * * * * * * * * * * * * * * * * //

dimensions      [0 1 -1 0 0 0 0];

internalField   nonuniform List<scalar> 
9600
(
0.991621
0.991026
0.990202
0.989475
0.988539
0.988114
0.988213
0.988551
0.989168
0.990159
0.991609
0.993449
0.995452
0.997691
1.00026
1.00328
1.00708
1.00971
1.01223
1.01621
1.01989
1.02106
1.02045
1.01716
1.00519
0.985942
0.973169
0.967335
0.966756
0.9735
0.988927
1.00522
1.02166
1.03851
1.05463
1.06843
1.0769
1.07915
1.07871
1.0694
0.992414
0.992318
0.991885
0.991684
0.991849
0.992259
0.99303
0.994226
0.995129
0.996458
0.998805
1.00131
1.00357
1.00642
1.01
1.01402
1.01792
1.02178
1.02514
1.02743
1.02903
1.0315
1.03419
1.03504
1.03435
1.03406
1.0332
1.03001
1.02777
1.02827
1.03071
1.03696
1.04734
1.0582
1.0694
1.07877
1.08692
1.09078
1.09242
1.08324
0.992324
0.992235
0.991962
0.991955
0.992126
0.992526
0.993312
0.994417
0.99533
0.996635
0.998755
1.00146
1.00412
1.00685
1.01005
1.01442
1.01908
1.0224
1.0244
1.02613
1.02915
1.03358
1.0377
1.03948
1.03896
1.0369
1.03246
1.02609
1.0218
1.02163
1.02618
1.03447
1.04528
1.05692
1.06829
1.07896
1.08873
1.09616
1.10026
1.09951
0.992315
0.992153
0.991925
0.991932
0.992186
0.992779
0.993722
0.994479
0.996124
0.997518
0.999336
1.00166
1.00519
1.00775
1.01061
1.01389
1.01881
1.0228
1.0257
1.02713
1.02991
1.03268
1.03545
1.03757
1.03835
1.03759
1.03725
1.03677
1.03901
1.04046
1.04484
1.04896
1.0569
1.06442
1.07439
1.08253
1.09118
1.09679
1.10089
1.09593
0.992189
0.99203
0.991869
0.991906
0.992253
0.993015
0.993952
0.995083
0.996043
0.997714
0.999585
1.00207
1.00487
1.00803
1.01164
1.01485
1.01815
1.02166
1.02621
1.02998
1.03222
1.03253
1.03284
1.0344
1.03869
1.04122
1.04308
1.04381
1.04374
1.04157
1.04193
1.04434
1.05112
1.05927
1.06965
1.079
1.08825
1.09492
1.10222
1.10214
0.992067
0.991924
0.991834
0.991888
0.992381
0.993036
0.994171
0.994975
0.996599
0.997755
0.999982
1.00234
1.00591
1.00855
1.01156
1.01448
1.01877
1.02302
1.02723
1.02909
1.03123
1.03234
1.03459
1.03608
1.03859
1.03938
1.04077
1.04089
1.04302
1.04407
1.04852
1.05113
1.05857
1.06432
1.07483
1.08244
1.09339
1.09926
1.10862
1.10449
0.991929
0.991806
0.991833
0.991897
0.992522
0.993161
0.994305
0.995103
0.996853
0.998228
1.00018
1.00239
1.00636
1.00907
1.01208
1.0145
1.01949
1.02348
1.02759
1.02987
1.03231
1.03351
1.03529
1.03579
1.03768
1.03823
1.03996
1.04094
1.04458
1.04495
1.0469
1.04782
1.05352
1.05897
1.06934
1.07761
1.09001
1.09564
1.10568
1.10699
0.99175
0.991726
0.991773
0.991837
0.992532
0.993056
0.99425
0.995207
0.996729
0.998208
1.00063
1.00288
1.00622
1.00915
1.01278
1.01571
1.01942
1.02303
1.0278
1.03093
1.0338
1.03461
1.03538
1.03565
1.03804
1.03929
1.04029
1.04022
1.04138
1.04059
1.04395
1.04533
1.0534
1.05862
1.07036
1.07801
1.09177
1.09851
1.11246
1.11108
0.991604
0.991628
0.99176
0.991822
0.992501
0.993399
0.994234
0.995382
0.996811
0.998879
1.00087
1.00289
1.00647
1.00978
1.0137
1.01596
1.01973
1.02364
1.02859
1.03181
1.03477
1.03565
1.03718
1.037
1.03819
1.03868
1.03917
1.03905
1.04013
1.04006
1.04228
1.04213
1.04779
1.05176
1.06298
1.07051
1.08645
1.09419
1.10934
1.11179
0.991325
0.991488
0.991653
0.991691
0.992362
0.993248
0.994153
0.995127
0.996825
0.998905
1.00104
1.00315
1.00664
1.00986
1.01395
1.01678
1.02068
1.02392
1.02882
1.032
1.03578
1.03728
1.03867
1.03778
1.03809
1.03829
1.03879
1.03863
1.0392
1.03834
1.04007
1.0375
1.04286
1.04566
1.05735
1.06507
1.08205
1.09095
1.11041
1.11504
0.991162
0.991323
0.991593
0.991648
0.992397
0.993363
0.994341
0.995313
0.996798
0.999206
1.00164
1.00364
1.00665
1.00997
1.0148
1.018
1.02151
1.02437
1.02917
1.03303
1.03714
1.03881
1.04013
1.03933
1.03904
1.03906
1.03878
1.03794
1.03786
1.03699
1.03864
1.03621
1.03927
1.03904
1.04847
1.05437
1.07078
1.08084
1.10174
1.11185
0.990816
0.991028
0.991351
0.991378
0.992068
0.993079
0.9942
0.995018
0.99651
0.998972
1.00181
1.00359
1.00685
1.0102
1.01487
1.01843
1.02236
1.0251
1.02981
1.03348
1.03764
1.0396
1.04172
1.04144
1.04039
1.03945
1.03869
1.03741
1.03693
1.03562
1.03687
1.03417
1.03568
1.03333
1.04079
1.04517
1.06041
1.07129
1.09208
1.10871
0.990587
0.990811
0.991188
0.991175
0.991961
0.993077
0.994192
0.99533
0.996767
0.998966
1.00219
1.00433
1.00756
1.01048
1.01533
1.01911
1.02359
1.02648
1.03106
1.03459
1.03853
1.04114
1.04348
1.04366
1.0427
1.04116
1.04019
1.03785
1.03645
1.03378
1.034
1.03146
1.03338
1.02934
1.03432
1.03638
1.04794
1.05908
1.07764
1.09727
0.98997
0.990351
0.990605
0.990686
0.991494
0.992327
0.993808
0.99472
0.996683
0.998461
1.00194
1.00446
1.00773
1.0108
1.01533
1.0196
1.02434
1.02773
1.03169
1.03535
1.0394
1.04215
1.04461
1.0453
1.04498
1.04291
1.0418
1.03848
1.03655
1.03246
1.03176
1.02794
1.02966
1.02554
1.02831
1.02959
1.03712
1.04777
1.06316
1.08507
0.989761
0.990046
0.990312
0.990304
0.991182
0.992269
0.993812
0.994832
0.996825
0.998961
1.00234
1.00486
1.00849
1.01132
1.01606
1.0206
1.02547
1.02945
1.03317
1.03714
1.04125
1.04376
1.04673
1.04751
1.04805
1.04591
1.04473
1.04075
1.03823
1.03258
1.0306
1.02492
1.02549
1.02126
1.02246
1.02303
1.02695
1.0365
1.04706
1.07234
0.988758
0.989149
0.989506
0.989244
0.990369
0.991052
0.993306
0.994103
0.996188
0.998337
1.00175
1.0047
1.00845
1.01155
1.01618
1.02073
1.02584
1.0304
1.03485
1.03838
1.04251
1.04485
1.04825
1.0492
1.05
1.04771
1.04672
1.04254
1.03984
1.03352
1.03051
1.02332
1.02074
1.01639
1.01482
1.01565
1.01589
1.02606
1.02929
1.05713
0.988478
0.988943
0.989352
0.989137
0.989967
0.990657
0.992689
0.994315
0.996432
0.998485
1.00225
1.00534
1.00945
1.01317
1.01719
1.02174
1.02703
1.03187
1.03723
1.04079
1.04519
1.04721
1.0508
1.05187
1.05339
1.05115
1.05037
1.04588
1.04299
1.03617
1.0322
1.02378
1.01897
1.01292
1.00816
1.00832
1.00365
1.01383
1.01214
1.04073
0.98726
0.987506
0.987964
0.98778
0.988782
0.989307
0.991313
0.99301
0.995566
0.997832
1.00138
1.00485
1.0091
1.0133
1.01772
1.02214
1.02771
1.03238
1.03809
1.04208
1.04718
1.04918
1.05278
1.05376
1.0557
1.05369
1.05262
1.04808
1.04501
1.03819
1.03356
1.02533
1.01812
1.01135
1.00239
1.00195
0.991951
1.00074
0.994437
1.01892
0.986989
0.987136
0.987861
0.987502
0.98879
0.989399
0.991281
0.992868
0.995648
0.998111
1.00186
1.00559
1.00988
1.01421
1.01966
1.02405
1.03023
1.03463
1.04047
1.04414
1.05024
1.05268
1.0568
1.0574
1.05969
1.05776
1.0572
1.05266
1.04942
1.04257
1.03726
1.02867
1.0192
1.0125
1.00027
0.998246
0.984668
0.989154
0.978298
0.998269
0.985475
0.985697
0.986278
0.985904
0.986951
0.987709
0.989746
0.991466
0.994239
0.996918
1.00096
1.00481
1.00975
1.01375
1.01974
1.0244
1.03108
1.03584
1.04246
1.04589
1.05202
1.05455
1.0592
1.06018
1.0628
1.06137
1.06063
1.05634
1.0528
1.04622
1.03961
1.03263
1.02027
1.01374
0.999014
0.995495
0.979517
0.980876
0.96565
0.979807
0.985221
0.985361
0.986102
0.985873
0.986877
0.987811
0.989826
0.991788
0.994579
0.997459
1.00175
1.00536
1.01117
1.01521
1.02159
1.02631
1.03339
1.03815
1.04581
1.04959
1.05616
1.05873
1.0635
1.06464
1.06758
1.06675
1.06651
1.06275
1.05863
1.0534
1.04477
1.03898
1.02599
1.01879
1.00258
0.996443
0.978331
0.975907
0.95741
0.965444
0.982924
0.983225
0.98404
0.983966
0.985101
0.986163
0.988086
0.990226
0.993238
0.996027
1.00093
1.00431
1.01056
1.01497
1.0218
1.02662
1.03453
1.0391
1.04717
1.05142
1.05847
1.06164
1.06701
1.0684
1.07135
1.07095
1.07029
1.06845
1.06298
1.05968
1.04981
1.04406
1.03106
1.02322
1.00664
0.998847
0.979466
0.973908
0.952757
0.953504
0.98247
0.982894
0.983718
0.983815
0.984983
0.986289
0.988527
0.990714
0.994426
0.996883
1.00231
1.0059
1.0124
1.0169
1.02434
1.02893
1.03765
1.04243
1.05086
1.05537
1.06286
1.06644
1.07179
1.07465
1.07694
1.079
1.07657
1.07691
1.07068
1.06865
1.05908
1.05328
1.0403
1.03227
1.01573
1.00655
0.986671
0.97826
0.955454
0.950316
0.979435
0.980117
0.980787
0.98092
0.982064
0.983471
0.986381
0.988319
0.992877
0.995613
1.00139
1.00523
1.01242
1.01668
1.02516
1.02969
1.03864
1.04392
1.05252
1.05797
1.06502
1.07047
1.07457
1.07952
1.08029
1.08456
1.08186
1.08353
1.07766
1.07568
1.06692
1.06159
1.04903
1.04083
1.0245
1.01423
0.994825
0.983987
0.961776
0.950888
0.978847
0.979577
0.980423
0.980873
0.982269
0.983436
0.986835
0.98896
0.993864
0.996688
1.00322
1.00729
1.0153
1.01997
1.02853
1.03422
1.04262
1.0495
1.05665
1.06436
1.06949
1.07718
1.0801
1.08723
1.08738
1.09266
1.09039
1.09273
1.08793
1.0871
1.07901
1.07457
1.06273
1.05454
1.03947
1.02832
1.01013
0.997225
0.975626
0.960654
0.974657
0.975745
0.976578
0.976739
0.978761
0.979993
0.983681
0.985738
0.991255
0.994427
1.00136
1.006
1.01396
1.02043
1.02818
1.03629
1.04329
1.05281
1.05868
1.06836
1.0727
1.082
1.08405
1.09226
1.09253
1.09859
1.09702
1.10028
1.09618
1.09607
1.08919
1.0852
1.07549
1.06712
1.05393
1.04171
1.02559
1.01051
0.993093
0.97171
0.973723
0.974946
0.976332
0.976721
0.97881
0.980305
0.984413
0.987397
0.992469
0.997263
1.003
1.0102
1.01625
1.02551
1.03175
1.04215
1.04816
1.05925
1.06438
1.07583
1.07938
1.08996
1.0924
1.1012
1.10204
1.10864
1.10779
1.11168
1.10889
1.10919
1.10458
1.10065
1.09338
1.08485
1.07449
1.06169
1.04888
1.03164
1.01883
0.99424
0.968008
0.969476
0.970387
0.971655
0.973005
0.976213
0.978762
0.984327
0.987925
0.995476
0.999842
1.00917
1.01477
1.02589
1.03178
1.04376
1.04942
1.06195
1.06676
1.07899
1.08299
1.09424
1.09705
1.10615
1.10829
1.11513
1.11603
1.11985
1.11977
1.11986
1.11801
1.11392
1.10994
1.10111
1.09456
1.08015
1.07159
1.05201
1.04219
1.01885
0.966101
0.970107
0.969492
0.972716
0.973
0.978192
0.979699
0.986691
0.989637
0.998447
1.00294
1.01332
1.01932
1.03107
1.03767
1.05037
1.05638
1.06962
1.07464
1.0873
1.09216
1.10275
1.10715
1.11548
1.11946
1.12517
1.12875
1.13176
1.13464
1.13454
1.13638
1.13242
1.13237
1.12338
1.12135
1.10634
1.10244
1.08267
1.07592
1.05084
0.957653
0.96253
0.961954
0.966022
0.966213
0.972199
0.974381
0.982097
0.986343
0.995191
1.00117
1.01193
1.01881
1.0314
1.03847
1.05202
1.05855
1.07175
1.0786
1.08995
1.09672
1.10595
1.11255
1.11933
1.12555
1.13013
1.13633
1.13849
1.14478
1.14416
1.15024
1.14607
1.15075
1.14187
1.14493
1.13091
1.13023
1.11155
1.10839
1.08403
0.95754
0.962416
0.963064
0.9669
0.968926
0.973873
0.978259
0.985553
0.991464
1.00087
1.00783
1.01963
1.02745
1.04074
1.04889
1.06163
1.07108
1.08189
1.0915
1.10043
1.10973
1.11687
1.12502
1.13055
1.13819
1.14166
1.14936
1.15117
1.15977
1.15885
1.16936
1.16426
1.17456
1.16712
1.17387
1.16222
1.16556
1.14985
1.14902
1.12776
0.947547
0.951712
0.953588
0.957063
0.960526
0.966223
0.971416
0.979957
0.986936
0.997331
1.00582
1.01824
1.0279
1.04072
1.0525
1.06354
1.07624
1.08483
1.098
1.1042
1.11705
1.12093
1.13317
1.13523
1.14666
1.14755
1.15871
1.15858
1.17039
1.16933
1.18203
1.17913
1.19244
1.18665
1.19877
1.18995
1.19874
1.18523
1.18866
1.16836
0.948675
0.952544
0.956964
0.958893
0.965516
0.969589
0.978267
0.986261
0.996192
1.00703
1.01831
1.02976
1.04273
1.05421
1.06826
1.07784
1.09324
1.09976
1.11516
1.11928
1.13365
1.13583
1.1487
1.14961
1.16106
1.16182
1.17245
1.17307
1.18466
1.18532
1.19857
1.19864
1.21414
1.21245
1.22885
1.22535
1.23982
1.23301
1.2426
1.22729
0.933712
0.938303
0.945263
0.947324
0.957256
0.961098
0.973817
0.979999
0.9951
1.00323
1.02053
1.02946
1.04803
1.05668
1.07551
1.08286
1.10099
1.10628
1.12301
1.12603
1.14083
1.14247
1.15508
1.15597
1.16705
1.16798
1.17825
1.17974
1.19045
1.1928
1.20552
1.20845
1.22426
1.22703
1.24656
1.24788
1.27032
1.2695
1.29084
1.28284
0.933165
0.936949
0.945361
0.94881
0.959819
0.966377
0.982005
0.991291
1.01056
1.02079
1.04131
1.05153
1.07177
1.08209
1.10136
1.1108
1.12805
1.13571
1.15059
1.15562
1.16787
1.17099
1.18105
1.18226
1.19125
1.19157
1.20011
1.20084
1.20933
1.21143
1.22109
1.22515
1.2375
1.24357
1.26064
1.26801
1.29155
1.29867
1.3279
1.3346
0.915399
0.923088
0.93665
0.944455
0.957061
0.966518
0.983062
0.994805
1.01314
1.02772
1.04669
1.06282
1.08127
1.09606
1.11335
1.12593
1.14065
1.15053
1.16243
1.16871
1.17769
1.1813
1.18822
1.18994
1.1961
1.1969
1.20345
1.20374
1.20945
1.2106
1.21612
1.21876
1.225
1.23036
1.23887
1.24797
1.26126
1.2764
1.29368
1.31634
0.904575
0.917802
0.929326
0.946306
0.963058
0.983845
1.00444
1.02722
1.04679
1.06853
1.08694
1.10685
1.1236
1.14066
1.15543
1.16916
1.18041
1.19067
1.19762
1.20465
1.20752
1.21163
1.21229
1.21474
1.21444
1.21736
1.21726
1.2215
1.22204
1.22614
1.22532
1.22701
1.22548
1.22421
1.22092
1.21895
1.21335
1.21384
1.20744
1.22073
0.906798
0.928993
0.947005
0.967867
0.985488
1.00718
1.02559
1.04923
1.07011
1.09375
1.11569
1.13699
1.1573
1.17445
1.19135
1.20436
1.21631
1.22491
1.23122
1.2357
1.23722
1.23778
1.2358
1.23411
1.23088
1.22927
1.22766
1.22702
1.22715
1.22594
1.22573
1.2263
1.22037
1.20989
1.1859
1.16176
1.11431
1.07949
0.992336
0.985345
0.919949
0.955652
0.99009
1.02657
1.05973
1.09459
1.1276
1.15863
1.18964
1.21533
1.24226
1.26213
1.28327
1.29695
1.3115
1.3187
1.32558
1.32533
1.32361
1.31509
1.30531
1.29178
1.27492
1.25669
1.2363
1.21791
1.19915
1.18484
1.17037
1.16191
1.14972
1.1354
1.10815
1.06103
0.986567
0.896299
0.788393
0.703046
0.57357
0.507114
1.06197
1.09765
1.13251
1.16715
1.20086
1.23248
1.26094
1.28563
1.30633
1.32112
1.33346
1.34134
1.34781
1.35169
1.35206
1.34766
1.33739
1.32158
1.29953
1.27248
1.23994
1.20146
1.15834
1.10788
1.05495
0.99463
0.936263
0.872431
0.816389
0.757312
0.703932
0.654203
0.47655
0.0945652
0.0915413
0.146362
0.163554
0.226171
0.256465
0.280029
1.08969
1.09769
1.1097
1.12391
1.15161
1.17467
1.13169
0.98698
0.866968
0.820993
0.781067
0.752283
0.879741
0.946279
0.968631
0.986328
0.997161
1.00352
1.00827
1.01161
1.01293
1.01471
1.01455
1.01566
1.01507
1.01574
1.01496
1.01512
1.01443
1.01442
1.01405
1.01398
1.01361
1.01322
1.01274
1.01221
1.01181
1.01133
1.01169
1.01269
1.09649
1.10521
1.11922
1.13677
1.17674
1.2089
1.14432
0.966353
0.834668
0.786651
0.749001
0.736986
0.867825
0.939235
0.966447
0.985416
0.996508
1.00398
1.00829
1.01201
1.01331
1.01521
1.01512
1.01623
1.0157
1.01643
1.01569
1.01584
1.01501
1.01498
1.01453
1.01457
1.01423
1.01387
1.0133
1.01275
1.01241
1.01185
1.0114
1.00869
1.09994
1.11167
1.12784
1.15037
1.21021
1.25081
1.15255
0.948217
0.80209
0.74894
0.719645
0.729966
0.871952
0.935769
0.96696
0.986781
0.99768
1.00578
1.00924
1.01331
1.01412
1.0161
1.01585
1.01691
1.01634
1.01706
1.01629
1.01644
1.0156
1.0155
1.0149
1.0149
1.01458
1.01422
1.01369
1.01316
1.01294
1.01256
1.01275
1.01398
1.10279
1.12045
1.13734
1.16772
1.25326
1.28791
1.14901
0.905389
0.750303
0.699313
0.688296
0.725796
0.866612
0.933371
0.967284
0.987806
0.998309
1.007
1.01
1.01427
1.01488
1.01687
1.01651
1.01747
1.01694
1.01774
1.0171
1.01721
1.01634
1.01608
1.01539
1.01526
1.01495
1.01462
1.01417
1.0137
1.01317
1.01279
1.01227
1.01041
1.10884
1.12906
1.14697
1.19191
1.30473
1.31798
1.13404
0.852863
0.694507
0.651002
0.670785
0.735135
0.875913
0.934355
0.969676
0.991044
1.00063
1.00966
1.01176
1.01601
1.01614
1.01799
1.01751
1.01837
1.0178
1.01856
1.01809
1.01822
1.01749
1.0171
1.01639
1.01603
1.0157
1.01539
1.01489
1.01447
1.0139
1.01362
1.01338
1.01379
1.11266
1.13619
1.15617
1.22228
1.35902
1.33178
1.09403
0.774432
0.627104
0.609189
0.659548
0.746957
0.878586
0.938582
0.973987
0.994159
1.00277
1.01177
1.01329
1.01748
1.01728
1.01899
1.01832
1.01908
1.01839
1.01915
1.01874
1.01891
1.01844
1.01802
1.01746
1.01694
1.01648
1.01605
1.01545
1.015
1.01414
1.01391
1.0134
1.01232
1.11876
1.14416
1.16823
1.26037
1.40099
1.33235
1.03161
0.696548
0.57506
0.595601
0.670572
0.772544
0.89341
0.94598
0.980667
0.999649
1.007
1.01529
1.0159
1.01964
1.01904
1.02027
1.01939
1.01984
1.019
1.01955
1.01933
1.0194
1.0192
1.01858
1.01817
1.01746
1.01696
1.01647
1.01596
1.01575
1.01486
1.01464
1.01416
1.0138
1.12556
1.14701
1.17919
1.29529
1.42632
1.31799
0.954169
0.631205
0.552715
0.608359
0.695226
0.795648
0.906005
0.959076
0.990297
1.00589
1.01187
1.01879
1.01871
1.02188
1.02104
1.02177
1.02077
1.02084
1.01984
1.02006
1.01987
1.01969
1.01971
1.01886
1.01874
1.01785
1.01748
1.01686
1.0163
1.01607
1.0153
1.01506
1.01475
1.01407
1.12967
1.15037
1.19687
1.32279
1.43145
1.30562
0.906721
0.629822
0.590048
0.653849
0.732956
0.830381
0.928443
0.974663
1.00296
1.01531
1.01885
1.02416
1.0227
1.02521
1.02398
1.02411
1.02303
1.02279
1.02146
1.02136
1.02112
1.02056
1.02082
1.01961
1.01979
1.0187
1.01865
1.01786
1.01763
1.01707
1.01655
1.01595
1.01528
1.01452
1.13424
1.14834
1.20578
1.33177
1.40761
1.29723
0.92291
0.697262
0.664441
0.71107
0.77284
0.861749
0.951644
0.998447
1.01873
1.02661
1.02662
1.03
1.02673
1.02844
1.02679
1.02657
1.02525
1.02494
1.0233
1.02291
1.02261
1.02166
1.02201
1.02071
1.02099
1.01972
1.01972
1.01856
1.01852
1.01754
1.01735
1.01656
1.01637
1.01571
1.12904
1.14907
1.21047
1.3167
1.36152
1.29467
0.999608
0.814048
0.760975
0.768589
0.80947
0.904548
0.979871
1.02602
1.0372
1.04233
1.03611
1.03803
1.03159
1.03234
1.02987
1.02901
1.02729
1.02701
1.0249
1.02436
1.02378
1.02264
1.02288
1.02166
1.02188
1.0206
1.02064
1.0195
1.01937
1.01832
1.0182
1.01733
1.01685
1.01599
1.12433
1.14078
1.19731
1.2577
1.30295
1.27063
1.03128
0.891036
0.817565
0.809913
0.84644
0.942204
1.01202
1.06224
1.05936
1.06123
1.04692
1.04715
1.03713
1.03638
1.03283
1.03126
1.02878
1.02872
1.02618
1.02564
1.02464
1.02359
1.02344
1.02236
1.02231
1.02116
1.02098
1.01986
1.01963
1.01864
1.0186
1.01785
1.0177
1.01729
1.10979
1.12903
1.1687
1.18159
1.23916
1.215
1.02674
0.915699
0.837353
0.835139
0.889312
0.988314
1.04835
1.10127
1.08685
1.08441
1.06084
1.05918
1.04505
1.04204
1.03725
1.03471
1.0313
1.0312
1.02803
1.02754
1.02594
1.02506
1.02436
1.02364
1.02315
1.02237
1.02191
1.02106
1.02044
1.01961
1.01929
1.01845
1.01816
1.01748
1.09752
1.10854
1.1067
1.09757
1.14403
1.13332
0.998387
0.911117
0.832848
0.849528
0.913591
1.02081
1.09863
1.14537
1.12156
1.10899
1.07796
1.07164
1.05479
1.04837
1.04269
1.03877
1.03444
1.03437
1.03039
1.03009
1.02775
1.02714
1.02568
1.02526
1.02396
1.0237
1.02271
1.02236
1.02146
1.02094
1.02009
1.01953
1.0189
1.01862
1.07384
1.08239
1.0425
1.01729
1.04536
1.03966
0.948211
0.87145
0.815549
0.84828
0.915184
1.03813
1.14664
1.19386
1.16377
1.13808
1.09772
1.08615
1.06622
1.05596
1.04939
1.04365
1.03834
1.03784
1.03331
1.03308
1.03004
1.02962
1.02763
1.02749
1.02568
1.02573
1.02419
1.02417
1.02289
1.02264
1.02123
1.02057
1.01971
1.01901
1.05258
1.04496
0.974082
0.924465
0.94185
0.931276
0.874901
0.811348
0.787315
0.826808
0.897613
1.03852
1.17164
1.25066
1.21223
1.17204
1.11797
1.10077
1.07745
1.06325
1.05565
1.04845
1.04194
1.0408
1.03602
1.03554
1.03211
1.03147
1.02919
1.02859
1.02687
1.02658
1.02509
1.02493
1.02373
1.02363
1.02227
1.02165
1.02062
1.02031
1.02467
1.00263
0.925759
0.842847
0.841553
0.823603
0.792243
0.751965
0.737141
0.777129
0.852435
1.01589
1.18402
1.29532
1.26984
1.21196
1.14235
1.11721
1.09102
1.07109
1.06245
1.05361
1.0458
1.04358
1.0385
1.0375
1.03402
1.03277
1.03096
1.02958
1.02847
1.02746
1.02634
1.02567
1.02475
1.02435
1.02338
1.02283
1.02167
1.02116
0.999208
0.962921
0.880768
0.776464
0.746085
0.730576
0.717936
0.689281
0.669303
0.700622
0.780221
0.953222
1.16737
1.31057
1.32945
1.25862
1.17219
1.13289
1.10609
1.0798
1.07023
1.05943
1.05069
1.04722
1.0416
1.03958
1.03671
1.03424
1.0331
1.03052
1.03003
1.02814
1.02783
1.02638
1.02597
1.02483
1.02437
1.02338
1.02301
1.0223
0.970535
0.930925
0.857113
0.752225
0.69083
0.674449
0.667428
0.641442
0.612798
0.630833
0.706966
0.866817
1.12254
1.30259
1.35925
1.3153
1.20494
1.14846
1.12172
1.09172
1.07919
1.0672
1.05765
1.05229
1.04704
1.04342
1.04104
1.03789
1.03701
1.03404
1.03337
1.03089
1.03038
1.02846
1.02811
1.02643
1.02609
1.02464
1.02425
1.02348
0.949541
0.909966
0.843015
0.753891
0.684309
0.666379
0.658197
0.639839
0.611472
0.629473
0.694384
0.831582
1.083
1.27362
1.34742
1.35389
1.2364
1.16589
1.13396
1.1028
1.08585
1.07394
1.06389
1.05684
1.05194
1.04736
1.04433
1.04158
1.03953
1.03732
1.036
1.03377
1.03283
1.03095
1.03011
1.02845
1.02777
1.02639
1.02581
1.02485
0.933836
0.893855
0.840676
0.784782
0.72023
0.706355
0.705224
0.703025
0.692715
0.728237
0.799426
0.927209
1.10358
1.21609
1.30713
1.336
1.26872
1.18036
1.13986
1.11262
1.08923
1.07823
1.06712
1.05977
1.05429
1.05018
1.04622
1.04419
1.04117
1.03976
1.03757
1.03626
1.0346
1.0336
1.03201
1.03087
1.02937
1.02825
1.02732
1.02676
0.926437
0.890887
0.847196
0.809867
0.767771
0.757528
0.766585
0.787483
0.804911
0.860897
0.936399
1.03574
1.13753
1.1857
1.21318
1.26458
1.27762
1.18881
1.1413
1.12
1.09391
1.08159
1.07063
1.06241
1.05666
1.05216
1.04781
1.04556
1.04228
1.04103
1.03842
1.03759
1.03549
1.03497
1.03301
1.03263
1.03066
1.02983
1.02859
1.02798
0.924376
0.894787
0.858951
0.838361
0.819936
0.812116
0.82285
0.847955
0.875781
0.927534
0.993313
1.06552
1.13504
1.15821
1.13302
1.16284
1.22842
1.19295
1.13932
1.12239
1.10127
1.08573
1.07766
1.06726
1.06171
1.05669
1.05179
1.04879
1.04547
1.04326
1.04096
1.03947
1.0376
1.03634
1.03461
1.03358
1.03233
1.03127
1.03041
1.02977
0.929215
0.906751
0.888319
0.867863
0.861457
0.861888
0.872939
0.895883
0.92252
0.964223
1.0172
1.0666
1.11007
1.11545
1.0653
1.04593
1.12655
1.17214
1.12771
1.11275
1.10328
1.08674
1.08168
1.07203
1.06607
1.06219
1.05712
1.05416
1.05035
1.04733
1.04473
1.04219
1.04079
1.03852
1.03754
1.03539
1.03455
1.03264
1.03203
1.03103
0.943784
0.922265
0.913953
0.90692
0.905605
0.910183
0.923166
0.943864
0.961527
0.987017
1.03068
1.05779
1.06992
1.06067
1.00097
0.938674
1.00705
1.10653
1.10228
1.08967
1.09296
1.08122
1.07811
1.07367
1.06744
1.0656
1.06086
1.0587
1.05539
1.05273
1.05018
1.04732
1.04536
1.04311
1.04176
1.03952
1.03843
1.03632
1.03532
1.03429
0.96144
0.946916
0.949489
0.951847
0.953735
0.959214
0.974783
0.995596
1.00773
1.02457
1.04596
1.04684
1.03042
0.993501
0.934325
0.837696
0.879104
1.01597
1.06465
1.05945
1.07072
1.06925
1.06668
1.06878
1.064
1.0639
1.06133
1.05912
1.05735
1.05459
1.05275
1.05049
1.04883
1.04665
1.04517
1.04288
1.04122
1.03936
1.03758
1.03683
0.985894
0.983497
0.980454
0.990391
1.0041
1.01521
1.03297
1.04776
1.05858
1.08127
1.06297
1.03023
0.988303
0.915948
0.848791
0.740092
0.756263
0.926477
1.00337
1.02223
1.04069
1.05428
1.05291
1.06037
1.05722
1.0593
1.05844
1.05756
1.05739
1.05527
1.05419
1.05178
1.05065
1.04862
1.04757
1.04565
1.04433
1.04285
1.04132
1.0406
1.01286
1.01542
1.0256
1.04023
1.05335
1.07264
1.09747
1.09963
1.12329
1.10747
1.06265
1.00153
0.916946
0.818096
0.737625
0.645404
0.64242
0.829491
0.933026
0.979019
1.00753
1.03126
1.03647
1.04831
1.04875
1.05342
1.05568
1.05617
1.05719
1.05648
1.05605
1.05423
1.05269
1.05032
1.04918
1.04719
1.04616
1.04462
1.04354
1.04298
1.05148
1.06036
1.06912
1.0907
1.10901
1.13825
1.1594
1.16141
1.16815
1.11522
1.04292
0.932262
0.812367
0.689585
0.598524
0.547236
0.559602
0.742609
0.869062
0.924881
0.968484
0.99845
1.01673
1.03338
1.04131
1.04652
1.05226
1.05374
1.05605
1.05647
1.05678
1.05649
1.05601
1.05482
1.05299
1.0514
1.04993
1.04805
1.04673
1.0459
1.0879
1.10142
1.11747
1.1446
1.17501
1.21812
1.22017
1.23189
1.18254
1.10027
0.976021
0.813502
0.656548
0.526084
0.447742
0.455474
0.522145
0.689615
0.80294
0.861417
0.929771
0.960922
0.991822
1.01077
1.02697
1.03539
1.04408
1.04852
1.05262
1.05458
1.05589
1.05649
1.05666
1.05652
1.05571
1.05417
1.05288
1.05169
1.05066
1.05023
1.1341
1.15114
1.17943
1.2056
1.244
1.27858
1.28673
1.26576
1.18031
1.02973
0.832858
0.625873
0.449732
0.350023
0.349476
0.411037
0.510358
0.65858
0.754217
0.819925
0.889468
0.923221
0.960067
0.984749
1.00335
1.01875
1.02966
1.03794
1.04385
1.04932
1.0523
1.05464
1.05599
1.05666
1.05666
1.05599
1.05484
1.05382
1.05293
1.05245
1.18315
1.20543
1.23697
1.27592
1.3334
1.34526
1.33592
1.25669
1.0969
0.862546
0.593592
0.369548
0.264918
0.309912
0.387489
0.450494
0.531446
0.643208
0.728183
0.790912
0.854191
0.894094
0.931023
0.957181
0.979806
0.997721
1.01034
1.02398
1.03084
1.04014
1.04468
1.0497
1.05298
1.05507
1.0569
1.05746
1.05848
1.05835
1.05798
1.05828
1.2489
1.28013
1.32438
1.37475
1.40143
1.39331
1.32749
1.16523
0.873993
0.560038
0.307818
0.281917
0.402225
0.482471
0.521393
0.529276
0.587232
0.65931
0.723814
0.790325
0.841706
0.874213
0.917762
0.935692
0.967088
0.98236
0.9997
1.01355
1.02363
1.03417
1.03933
1.04686
1.04945
1.05404
1.05553
1.0576
1.05837
1.05893
1.0587
1.05978
1.31636
1.35544
1.39976
1.44061
1.42936
1.36631
1.20397
0.903337
0.551199
0.364914
0.481704
0.608489
0.667739
0.672447
0.628634
0.614345
0.658136
0.703522
0.759144
0.805834
0.852168
0.88265
0.920835
0.941014
0.968353
0.984735
1.00373
1.01486
1.02575
1.03633
1.03987
1.04954
1.05019
1.05666
1.05666
1.05968
1.05905
1.06052
1.06072
1.06372
1.37052
1.40729
1.43431
1.41315
1.32118
1.12485
0.787912
0.55663
0.60159
0.741733
0.820982
0.84245
0.818782
0.73784
0.705004
0.711451
0.74133
0.773343
0.816803
0.850921
0.897687
0.914832
0.950834
0.964746
0.986759
0.995348
1.01294
1.02171
1.03057
1.04008
1.04447
1.05135
1.05439
1.05743
1.06037
1.06271
1.06497
1.06712
1.06821
1.06916
1.33972
1.33388
1.27968
1.13209
0.818134
0.57854
0.6057
0.75458
0.840116
0.873487
0.882531
0.854762
0.781151
0.742098
0.747962
0.751166
0.782999
0.824583
0.856885
0.900572
0.933668
0.955835
0.984521
0.996336
1.01782
1.02169
1.02944
1.03891
1.04276
1.05154
1.05878
1.05979
1.06931
1.06689
1.07558
1.07428
1.08071
1.0791
1.07902
1.07955
1.18288
1.08168
0.834187
0.459051
0.4099
0.496311
0.584534
0.635451
0.700631
0.728653
0.734581
0.695786
0.682834
0.714472
0.719932
0.73166
0.770195
0.811067
0.854301
0.891391
0.935066
0.965687
0.991644
1.01294
1.0353
1.05181
1.06267
1.07619
1.08259
1.0872
1.09574
1.10032
1.10979
1.113
1.12245
1.1221
1.12601
1.12671
1.12672
1.12512
0.839135
0.53943
0.128349
0.164411
0.233841
0.307117
0.369588
0.4381
0.470692
0.493763
0.496378
0.509781
0.519014
0.497925
0.500481
0.525741
0.563038
0.622625
0.696247
0.768827
0.842456
0.908358
0.958153
1.00214
1.03357
1.06643
1.08669
1.10522
1.11962
1.12839
1.14015
1.13872
1.14645
1.14103
1.14587
1.14109
1.14544
1.14411
1.15352
1.16029
0.303833
0.162121
0.228341
0.177288
0.152696
0.222044
0.263639
0.300329
0.307445
0.300049
0.273473
0.199862
0.0127481
0.185733
0.225968
0.237416
0.288627
0.34373
0.411075
0.495401
0.576568
0.672785
0.774602
0.88778
0.966992
0.98946
1.04905
1.06614
1.10776
1.12198
1.15117
1.16671
1.1937
1.20962
1.23172
1.24448
1.25789
1.26686
1.27139
1.27666
0.298468
0.306399
0.294572
0.280834
0.285585
0.29298
0.297193
0.305506
0.324506
0.351851
0.382475
0.414423
0.431739
0.444623
0.439282
0.422548
0.406128
0.383254
0.354582
0.314871
0.26669
0.212758
0.159213
0.192613
0.319605
0.452036
0.594804
0.611343
0.665842
0.693223
0.748612
0.790283
0.845365
0.892633
0.940815
0.986485
1.03116
1.08446
1.14098
1.20614
1.01904
1.01858
1.01781
1.01646
1.01475
1.0117
1.00837
1.00307
0.997312
0.990037
0.984431
0.980913
0.981936
0.986964
0.996642
1.00683
1.01426
1.01517
1.01455
1.01312
1.01226
1.012
1.01177
1.01152
1.01122
1.01089
1.01054
1.01018
1.0098
1.0094
1.00899
1.00856
1.00811
1.00766
1.00721
1.00678
1.00634
1.00587
1.00543
1.00516
1.00312
1.00404
1.00484
1.00681
1.00838
1.01157
1.01428
1.01847
1.02183
1.02582
1.02712
1.02785
1.02757
1.02498
1.01973
1.01459
1.01256
1.01239
1.01286
1.01345
1.01374
1.01368
1.0135
1.01318
1.01269
1.01222
1.01181
1.01135
1.01084
1.01032
1.0098
1.00927
1.00875
1.00826
1.00774
1.00726
1.00677
1.00621
1.00577
1.0055
1.01788
1.01732
1.01619
1.01472
1.01282
1.01033
1.00771
1.00459
1.00309
1.00317
1.00553
1.00753
1.01009
1.01141
1.01233
1.0125
1.01259
1.01301
1.01342
1.0137
1.01382
1.01376
1.01359
1.01335
1.01294
1.01245
1.012
1.01165
1.0112
1.01078
1.01029
1.00982
1.00927
1.00877
1.00821
1.00781
1.00736
1.00692
1.00651
1.00616
1.00752
1.01006
1.01163
1.01452
1.01703
1.02031
1.02308
1.02617
1.02735
1.02803
1.02813
1.02749
1.02534
1.02228
1.01915
1.0164
1.0151
1.01482
1.01491
1.01475
1.01441
1.01412
1.0139
1.01365
1.01329
1.01288
1.01241
1.01194
1.01147
1.01098
1.01053
1.01006
1.00948
1.0089
1.00834
1.00789
1.0075
1.007
1.00661
1.00629
1.01543
1.01438
1.01317
1.01189
1.01044
1.00931
1.00852
1.00873
1.0099
1.01103
1.01212
1.01271
1.01318
1.0136
1.01382
1.01386
1.01399
1.01416
1.01439
1.01435
1.01429
1.0142
1.01404
1.01378
1.01335
1.01294
1.0126
1.01232
1.01189
1.01142
1.01096
1.0106
1.01003
1.00946
1.00891
1.00854
1.00812
1.00761
1.00718
1.00686
1.01157
1.01428
1.01551
1.01801
1.01942
1.02155
1.02281
1.02394
1.02432
1.02447
1.02421
1.02335
1.02214
1.02083
1.01945
1.01816
1.01719
1.01653
1.01605
1.01557
1.01518
1.01486
1.01465
1.01433
1.01381
1.01334
1.01289
1.01249
1.01204
1.0115
1.01113
1.01064
1.00997
1.00942
1.00897
1.0086
1.00811
1.00766
1.00728
1.0069
1.01383
1.01288
1.01222
1.01159
1.01118
1.01125
1.0116
1.01253
1.01328
1.01395
1.01422
1.01456
1.01498
1.01537
1.01549
1.01551
1.01538
1.01536
1.01529
1.01529
1.01511
1.01496
1.01467
1.0145
1.01402
1.01362
1.01328
1.01297
1.01251
1.01217
1.01173
1.01125
1.01065
1.01008
1.0096
1.00919
1.00874
1.00834
1.00788
1.00751
1.0143
1.01637
1.01726
1.01878
1.01948
1.02067
1.02117
1.0217
1.02189
1.0219
1.02162
1.02108
1.02048
1.01981
1.01909
1.01844
1.01794
1.01759
1.01703
1.01631
1.01591
1.01573
1.01542
1.0149
1.01439
1.01401
1.01353
1.01312
1.01267
1.01231
1.01182
1.01127
1.01074
1.01016
1.00963
1.00923
1.0088
1.00836
1.00792
1.00762
1.01391
1.01381
1.01375
1.01401
1.01425
1.0147
1.01505
1.01547
1.01563
1.01584
1.01604
1.01644
1.01668
1.01682
1.01674
1.01671
1.0167
1.01675
1.01654
1.01635
1.01608
1.0159
1.01565
1.01532
1.01493
1.01464
1.01427
1.01377
1.01341
1.01314
1.01259
1.01204
1.01146
1.01093
1.01046
1.01004
1.00956
1.00899
1.00866
1.00838
1.01602
1.01752
1.01813
1.01906
1.01949
1.02008
1.02028
1.02056
1.02047
1.02051
1.02038
1.0204
1.0201
1.01965
1.0191
1.01881
1.01864
1.01834
1.01776
1.01721
1.017
1.01663
1.01604
1.01563
1.01533
1.01489
1.01447
1.01403
1.01361
1.01332
1.01281
1.01231
1.01163
1.011
1.01055
1.01014