/*--------------------------------*- C++ -*----------------------------------*\
  =========                 |
  \\      /  F ield         | OpenFOAM: The Open Source CFD Toolbox
   \\    /   O peration     | Website:  https://openfoam.org
    \\  /    A nd           | Version:  11
     \\/     M anipulation  |
\*---------------------------------------------------------------------------*/
FoamFile
{
    format      ascii;
    class       volScalarField;
    location    "7.5";
    object      p;
}
// * * * * * * * * * * * * * * * * * * * * * * * * * * * * * * * * * * * * * //

dimensions      [0 2 -2 0 0 0 0];

internalField   nonuniform List<scalar> 
9600
(
0.0642146
0.0647622
0.065599
0.0665794
0.0674795
0.0682301
0.0687127
0.0690127
0.0691548
0.0690404
0.0686069
0.067744
0.0664299
0.064692
0.0625447
0.0600806
0.0573138
0.0543579
0.0512743
0.0481515
0.045277
0.0427591
0.0404327
0.0382326
0.0373702
0.0370008
0.0359282
0.0354053
0.0355108
0.0353057
0.0348323
0.0338334
0.0317813
0.0288654
0.025
0.0205608
0.0159233
0.0115074
0.00699384
0.00222443
0.0645407
0.0652621
0.0662175
0.0672155
0.0680459
0.0685738
0.0689187
0.0691433
0.0691913
0.0689573
0.0683667
0.0673756
0.0660169
0.0642728
0.0621381
0.0596489
0.0569094
0.0540158
0.0510215
0.0480213
0.0452333
0.0428049
0.0406726
0.0385875
0.0373662
0.0367697
0.0360112
0.0355969
0.0354265
0.0354597
0.0351996
0.0344373
0.0327728
0.0303468
0.0269902
0.0228837
0.0183317
0.0136602
0.00896083
0.00439822
0.0649019
0.0656575
0.0665814
0.0674572
0.0681696
0.0686645
0.0690107
0.0692326
0.0692523
0.0689737
0.068347
0.0673268
0.0659334
0.0641677
0.0620385
0.0595839
0.0568636
0.0539985
0.0510125
0.0480129
0.045224
0.0427372
0.0405435
0.0386677
0.0373604
0.0365606
0.0363022
0.0358656
0.0354885
0.0354781
0.0354297
0.0349338
0.033596
0.0314396
0.0283624
0.0245032
0.0201107
0.0156253
0.0112931
0.00670311
0.0652939
0.06605
0.0669729
0.0678187
0.0684999
0.0689483
0.069222
0.0693725
0.0693099
0.0689419
0.068209
0.067121
0.0657061
0.0639236
0.0617853
0.0592995
0.0565897
0.0537131
0.0507432
0.0478117
0.0450685
0.0426089
0.0403906
0.0386684
0.0373433
0.0364994
0.0360814
0.0359059
0.0357457
0.0355533
0.0356524
0.0353231
0.0342444
0.0323525
0.0295699
0.0259273
0.0215403
0.0167855
0.0123824
0.00852991
0.0657249
0.0664619
0.0673769
0.0682001
0.0688141
0.0691883
0.0693978
0.0695083
0.0694289
0.0690072
0.0682382
0.0670928
0.065622
0.0638166
0.0616642
0.0591882
0.0564728
0.0536193
0.0506688
0.0477336
0.0449674
0.0424832
0.0403704
0.0385203
0.0371721
0.0362821
0.0359065
0.0360525
0.0360439
0.0356843
0.0359661
0.0358996
0.0351661
0.0336183
0.0312319
0.027968
0.0239837
0.0194384
0.0149836
0.0106141
0.066177
0.0668821
0.0677842
0.0685892
0.0691468
0.0694525
0.0696196
0.0697
0.0695712
0.06907
0.0681864
0.0669946
0.0655175
0.0636893
0.0615103
0.0590047
0.0562862
0.053404
0.0504216
0.0474873
0.0447519
0.0422951
0.0401549
0.0382391
0.0369895
0.0360826
0.0357614
0.0359109
0.0359744
0.035924
0.036209
0.0363468
0.0359055
0.0346451
0.0325373
0.0294649
0.0256024
0.0208645
0.0164295
0.012451
0.0666549
0.0673239
0.0682031
0.0689869
0.0694987
0.0697489
0.0698786
0.0699309
0.0697442
0.0691543
0.068235
0.0670199
0.0654867
0.0636174
0.0614145
0.0588905
0.0561232
0.0532149
0.0502501
0.0473014
0.0445644
0.0420595
0.0398593
0.0380327
0.0367575
0.0357797
0.0354682
0.0357334
0.0360556
0.0361346
0.0364764
0.0368272
0.0367614
0.0358863
0.0341936
0.0315416
0.0280509
0.0237177
0.0191004
0.0146931
0.067153
0.0677798
0.0686379
0.0694042
0.0698836
0.0700867
0.0701737
0.0701957
0.0699595
0.0693029
0.0683135
0.0670318
0.0654714
0.0635738
0.0613202
0.0587444
0.0559416
0.0530119
0.0500151
0.0470421
0.0442711
0.0417455
0.039519
0.0377202
0.0363843
0.0354678
0.0351713
0.035554
0.0359247
0.0360663
0.0367069
0.037191
0.0375001
0.037057
0.035783
0.0335339
0.0303251
0.0260508
0.0212469
0.0167844
0.0676819
0.0682665
0.0690981
0.0698434
0.0702921
0.0704607
0.0705108
0.0704968
0.0702239
0.0694886
0.0684172
0.0671056
0.0655019
0.0635608
0.0612389
0.0586243
0.0557749
0.0527824
0.0497557
0.0467515
0.0439524
0.0414164
0.0391128
0.0373508
0.0358929
0.0349185
0.0346358
0.035036
0.0356249
0.0361983
0.0369017
0.0374428
0.0381902
0.0381897
0.037366
0.0356121
0.0328627
0.0289686
0.0243511
0.0195743
0.0682423
0.0687795
0.0695867
0.0703166
0.0707413
0.0708801
0.0708978
0.0708507
0.0705333
0.0697293
0.068581
0.0672009
0.0655434
0.0635684
0.0611899
0.0584948
0.055582
0.052532
0.0494835
0.0464401
0.0435788
0.0409809
0.0386374
0.0368348
0.0353556
0.0344658
0.034225
0.0345098
0.0352056
0.0360551
0.0369303
0.0375908
0.0387242
0.0391511
0.0388467
0.0376207
0.0354438
0.0320411
0.0274922
0.0226192
0.0688412
0.0693338
0.0701093
0.0708238
0.0712375
0.0713486
0.0713351
0.0712521
0.0708831
0.0700244
0.0687822
0.0673354
0.065623
0.0635948
0.0611377
0.0583607
0.055403
0.0522912
0.0491676
0.0460477
0.0431221
0.0404864
0.0381199
0.0362129
0.0347646
0.0338611
0.0335906
0.0338014
0.0344772
0.0355482
0.0367857
0.0377454
0.039142
0.0400188
0.0402475
0.0395774
0.0379871
0.0353228
0.0310789
0.0265255
0.0694835
0.0699231
0.0706744
0.0713839
0.0717962
0.071883
0.0718358
0.0717177
0.0712849
0.0703529
0.0690355
0.0675135
0.0657199
0.0636183
0.0611089
0.0582495
0.0552117
0.0520001
0.0487982
0.0456243
0.0426314
0.0399276
0.0374713
0.0354871
0.0340408
0.0331409
0.0329015
0.0331132
0.0337084
0.0348515
0.0363784
0.037845
0.0394157
0.0406151
0.0413789
0.0413883
0.0403339
0.0386384
0.0350558
0.0309573
0.0701724
0.0705659
0.0712977
0.0720052
0.0724073
0.0724882
0.072402
0.0722263
0.0717296
0.0707424
0.069349
0.0677171
0.0658469
0.063668
0.0610865
0.0581207
0.0549805
0.0517062
0.0484015
0.0451331
0.0420521
0.0392525
0.0367327
0.0346707
0.0332222
0.0323224
0.0320504
0.0322531
0.0328365
0.0339449
0.0356251
0.0375669
0.0393385
0.0410082
0.0421936
0.0429878
0.0425532
0.0417637
0.039322
0.03646
0.0709175
0.0712683
0.0719899
0.0726891
0.0730981
0.0731662
0.0730306
0.0727914
0.0722379
0.0711828
0.069701
0.0679701
0.0660153
0.0637255
0.0610551
0.0579934
0.0547446
0.0513738
0.0479443
0.0445651
0.0413891
0.038515
0.0359268
0.0337418
0.0322626
0.0313556
0.0310143
0.0312068
0.0318479
0.0329876
0.034685
0.0368331
0.0390999
0.0412737
0.0426427
0.0441107
0.0445097
0.0445367
0.0432475
0.0416712
0.0717308
0.072043
0.0727574
0.073456
0.073867
0.0739171
0.0737329
0.0734151
0.0727987
0.0716616
0.0701126
0.0682658
0.0662035
0.0637916
0.0610181
0.0578617
0.0544755
0.0509729
0.0474285
0.0439422
0.0406375
0.0376676
0.0350145
0.0327047
0.0311343
0.0301932
0.0298266
0.0299974
0.0306588
0.0318617
0.0336081
0.0357414
0.0383322
0.0409155
0.0428005
0.0448456
0.0459999
0.0469729
0.0467234
0.0464143
0.0726264
0.0728916
0.0736002
0.0743169
0.0747256
0.0747553
0.074512
0.0741198
0.0734277
0.0722176
0.0705892
0.0685998
0.0664073
0.063886
0.0609787
0.0576962
0.0541659
0.0505208
0.0468391
0.0432481
0.0398026
0.0366963
0.0339593
0.0315584
0.0298853
0.0288753
0.0284565
0.0285882
0.029237
0.0304507
0.0322435
0.0344985
0.0371507
0.040019
0.0426166
0.0451349
0.0468913
0.0486676
0.0497432
0.0502301
0.0736112
0.0738463
0.0745442
0.0752603
0.0756676
0.0756955
0.0753841
0.0748795
0.0741319
0.0728245
0.0710959
0.0689842
0.0666332
0.0639736
0.0609165
0.0574959
0.0538188
0.0500227
0.0461648
0.0424201
0.0388761
0.0356104
0.0327755
0.0302843
0.0284699
0.0273475
0.0268459
0.0269553
0.0276022
0.0288003
0.0305534
0.0329779
0.0356816
0.0387318
0.0416694
0.0446552
0.0471593
0.0495659
0.0516717
0.053126
0.0747126
0.074921
0.0756133
0.0763127
0.0767052
0.0767147
0.0763542
0.0757301
0.0748984
0.0735086
0.0716555
0.0694154
0.0668787
0.0640563
0.060837
0.0572662
0.0534081
0.0494394
0.0454242
0.0414539
0.0378115
0.0344397
0.0314483
0.0288486
0.0268628
0.025626
0.0250805
0.025131
0.0257193
0.0268836
0.0285329
0.0309888
0.0337853
0.037068
0.0402399
0.0434993
0.0467353
0.0496977
0.0523779
0.0550665
0.075939
0.0761079
0.0767858
0.0774866
0.0778543
0.0778254
0.0774331
0.0766901
0.0757398
0.0742508
0.0722648
0.0698872
0.0671299
0.0641199
0.0607398
0.0569796
0.0529299
0.048741
0.0446006
0.0404328
0.0365525
0.0330729
0.0299541
0.0272523
0.0251141
0.0237157
0.0230413
0.0230072
0.0235226
0.0246381
0.0261645
0.028628
0.031451
0.0348175
0.038291
0.041693
0.0454167
0.0489147
0.0521559
0.0553148
0.0772932
0.0774253
0.0780979
0.0787993
0.0791573
0.0790665
0.0786093
0.0777504
0.0766586
0.0750661
0.0729075
0.0703782
0.0673969
0.0641645
0.0606008
0.0566118
0.0523751
0.0479542
0.0436079
0.0392841
0.0351737
0.0315157
0.028274
0.0254401
0.0231641
0.0216054
0.0207953
0.0206356
0.021027
0.0221258
0.0234663
0.0258424
0.0287367
0.0320362
0.0357205
0.0392865
0.043232
0.0471024
0.0508215
0.0541031
0.078821
0.0789256
0.0795806
0.0802543
0.0805826
0.0804179
0.0799009
0.0789244
0.0776546
0.0759581
0.0735959
0.0708722
0.0676827
0.0641642
0.0603972
0.0561796
0.0517122
0.0470502
0.0424551
0.0379474
0.0336392
0.0297993
0.0263809
0.0234125
0.0209836
0.019267
0.0182617
0.0180222
0.0181291
0.0191605
0.0204106
0.0224417
0.0254176
0.0286621
0.0324406
0.0362058
0.0402624
0.044309
0.0482415
0.0517281
0.0805557
0.0806021
0.0812357
0.0818701
0.0821681
0.0819265
0.0813305
0.0802459
0.0787595
0.0769099
0.0743341
0.0713634
0.0679559
0.0641191
0.0601068
0.0556459
0.0509082
0.0459957
0.0411154
0.0364414
0.0319145
0.0278324
0.0242436
0.0211566
0.0185395
0.0167313
0.0154363
0.015103
0.0149936
0.0157118
0.0171416
0.0188936
0.0216092
0.0247885
0.0284707
0.0323478
0.0364488
0.0405755
0.0446651
0.0482305
0.0825007
0.0824756
0.083092
0.0836663
0.0839453
0.0836274
0.0828753
0.0816799
0.0799266
0.0778898
0.0751421
0.071821
0.0681757
0.0640383
0.0596894
0.0549699
0.0499259
0.0447836
0.0395769
0.0346675
0.0299735
0.0256833
0.0218277
0.0186797
0.015814
0.0138698
0.0123436
0.0117537
0.0116393
0.0118817
0.0129893
0.0147712
0.0172517
0.0202616
0.0237952
0.0276298
0.031748
0.0359
0.0400234
0.0432887
0.0846951
0.0845737
0.0851839
0.0857129
0.0859275
0.0855253
0.084529
0.083237
0.0812776
0.0788763
0.0759647
0.0723061
0.0683297
0.0639001
0.0591215
0.0541177
0.0487413
0.0433169
0.0378339
0.0326404
0.0276679
0.0232935
0.0191663
0.0158766
0.0128236
0.0106298
0.00902792
0.00799937
0.00781361
0.00791181
0.00878196
0.0102333
0.0123778
0.0151543
0.0184688
0.0221758
0.0262324
0.0302739
0.034279
0.037446
0.0871977
0.0869732
0.0875396
0.0879845
0.088032
0.0876347
0.0864716
0.0848293
0.0827086
0.079977
0.0767595
0.072774
0.068358
0.0635955
0.0583731
0.0530313
0.0472823
0.0415627
0.0357579
0.030348
0.0250947
0.020575
0.016215
0.0126306
0.00959761
0.00703468
0.00533438
0.00402085
0.00345552
0.00337404
0.00385523
0.00499506
0.00684477
0.00930213
0.0123512
0.0157787
0.0196196
0.0235653
0.027486
0.0305305
0.0900446
0.0896559
0.0901414
0.090634
0.0905153
0.0898207
0.0885441
0.0866115
0.0841878
0.0810778
0.0774563
0.0732276
0.0682785
0.0631082
0.0573863
0.0516519
0.0455026
0.0394569
0.0333032
0.0276898
0.0221484
0.0172784
0.0129922
0.00906854
0.00597397
0.00318595
0.00117457
-0.000324413
-0.00126417
-0.00165285
-0.00147897
-0.000770326
0.000638389
0.00265897
0.00538282
0.00852894
0.0121121
0.0157142
0.0195505
0.0226918
0.093336
0.0928013
0.0930685
0.09343
0.0932894
0.0923608
0.0907476
0.0884661
0.085631
0.082269
0.0781078
0.0734958
0.0680324
0.0623418
0.0561197
0.0498789
0.0432921
0.0369025
0.0304696
0.0243854
0.0188222
0.0136076
0.00921443
0.00514166
0.00182974
-0.00100085
-0.00328808
-0.00508245
-0.00630318
-0.00709792
-0.00734008
-0.00713022
-0.00622939
-0.00474171
-0.00250813
0.000147221
0.00341019
0.00676618
0.010075
0.0129859
0.0970643
0.096415
0.0965201
0.0965964
0.0961572
0.0950135
0.0930911
0.0905076
0.0871247
0.083294
0.0786544
0.0735458
0.0675399
0.0611779
0.0544547
0.0475543
0.040645
0.0337051
0.0270453
0.0206173
0.0148626
0.00944862
0.00484332
0.000793702
-0.00271754
-0.00572501
-0.00812034
-0.0101828
-0.0117514
-0.0129999
-0.0137074
-0.0140628
-0.0137825
-0.0130207
-0.011395
-0.00929278
-0.00665076
-0.0036037
-0.000603128
0.00155311
0.101332
0.100404
0.10033
0.100209
0.0994202
0.0978947
0.0954985
0.0925165
0.0886763
0.0841848
0.078976
0.0730821
0.0666353
0.0595491
0.0521908
0.044636
0.03724
0.029838
0.0228624
0.0161898
0.0101446
0.0046789
-7.13128e-05
-0.00426398
-0.00775558
-0.0108248
-0.0133413
-0.0156257
-0.0174913
-0.0192185
-0.0204936
-0.0215707
-0.022035
-0.0220684
-0.0213765
-0.0200295
-0.0181582
-0.0157864
-0.0132054
-0.0112927
0.106336
0.105069
0.104558
0.104147
0.103003
0.101052
0.098186
0.0944549
0.0900603
0.0848448
0.0789263
0.0721837
0.0649279
0.0571201
0.049047
0.0408789
0.0328882
0.0250422
0.0177349
0.0107911
0.00460506
-0.00100785
-0.00580675
-0.00996833
-0.0133875
-0.0164562
-0.0189923
-0.0213941
-0.023495
-0.0256865
-0.0275185
-0.0294393
-0.0308993
-0.0318898
-0.0323601
-0.0321361
-0.0311972
-0.0296535
-0.0277586
-0.0264006
0.111935
0.110329
0.10936
0.108354
0.106808
0.104346
0.100914
0.0964822
0.0912328
0.0851971
0.0783651
0.070711
0.0624395
0.0536807
0.044913
0.0359846
0.0274284
0.0190873
0.0114997
0.00424416
-0.00207864
-0.0077647
-0.0124542
-0.0165373
-0.019857
-0.0227631
-0.02509
-0.0274481
-0.0297285
-0.0320488
-0.0345412
-0.0372381
-0.0398
-0.0422235
-0.044148
-0.0454721
-0.0459538
-0.0456443
-0.0447384
-0.0439438
0.118244
0.116069
0.114793
0.113205
0.11079
0.107418
0.103036
0.0975888
0.0913085
0.0842448
0.0764744
0.0677188
0.0585535
0.0487483
0.0390682
0.0293432
0.0202473
0.011463
0.00353483
-0.00389124
-0.0102193
-0.0157474
-0.0204381
-0.0241609
-0.0273229
-0.0298135
-0.0318719
-0.0339393
-0.0361864
-0.0384814
-0.0414269
-0.0447506
-0.0483202
-0.0522355
-0.0560257
-0.059694
-0.0626568
-0.0644946
-0.0654835
-0.066184
0.12552
0.122479
0.120781
0.1189
0.115979
0.111872
0.106495
0.0996819
0.0917867
0.0828049
0.0735165
0.0634498
0.0529852
0.0421081
0.0315512
0.0209622
0.0110561
0.00198424
-0.00647132
-0.0136391
-0.0200936
-0.0253783
-0.0297332
-0.0329957
-0.0357394
-0.0375708
-0.0391965
-0.0406398
-0.0423481
-0.0443137
-0.047057
-0.0505396
-0.0548595
-0.0599827
-0.0657634
-0.0721723
-0.0784408
-0.0842484
-0.0890731
-0.0933093
0.133417
0.12897
0.125875
0.122402
0.117889
0.112124
0.105204
0.0971795
0.0880797
0.0779399
0.0668956
0.0554427
0.0435678
0.0315897
0.0198914
0.00872628
-0.00180669
-0.0112172
-0.0197059
-0.0266826
-0.032814
-0.0375963
-0.0412516
-0.0439689
-0.0458849
-0.0470025
-0.0479172
-0.0484605
-0.0491982
-0.0502874
-0.052178
-0.0548253
-0.0587339
-0.0640202
-0.0708843
-0.0792229
-0.0889452
-0.10002
-0.110701
-0.121108
0.144927
0.140279
0.136567
0.132142
0.126235
0.118387
0.108557
0.0971003
0.0843316
0.0709384
0.0571739
0.043501
0.0297872
0.0163424
0.00329738
-0.00876557
-0.0198831
-0.0296384
-0.0379594
-0.0446576
-0.0499413
-0.0538695
-0.0565618
-0.0581882
-0.0590974
-0.0593634
-0.0592725
-0.0588219
-0.0583298
-0.0578415
-0.0578197
-0.0582977
-0.0599154
-0.0627428
-0.067648
-0.0748627
-0.0850854
-0.0981502
-0.113917
-0.132036
0.150501
0.141421
0.133093
0.124873
0.116272
0.106259
0.0946394
0.08207
0.0682753
0.0535648
0.0381846
0.0224988
0.00719524
-0.00749136
-0.0213717
-0.033925
-0.0450815
-0.0545733
-0.0622544
-0.0679128
-0.0719277
-0.0744208
-0.0756723
-0.0759015
-0.0756014
-0.0748462
-0.0739416
-0.0726968
-0.0711471
-0.0691883
-0.0666642
-0.0640245
-0.0613664
-0.0591822
-0.0582521
-0.059172
-0.0634177
-0.0710661
-0.082699
-0.0976266
0.175675
0.167459
0.157766
0.145794
0.131452
0.114795
0.0962058
0.0769585
0.0577147
0.0385495
0.0196951
0.00134471
-0.0161258
-0.0325639
-0.0477311
-0.0610788
-0.0724893
-0.08164
-0.0885713
-0.0932485
-0.0958042
-0.096741
-0.0964604
-0.0954141
-0.0941567
-0.0931284
-0.0924573
-0.0920805
-0.0915877
-0.0905722
-0.0883283
-0.084715
-0.0795087
-0.0725731
-0.0637551
-0.0534969
-0.0434511
-0.0345558
-0.0289339
-0.0248715
0.14232
0.122936
0.104639
0.0864791
0.0677929
0.0490118
0.0294018
0.0084648
-0.0131862
-0.0353675
-0.0572535
-0.0782091
-0.0975888
-0.114854
-0.129939
-0.142256
-0.151721
-0.15801
-0.161271
-0.161713
-0.159551
-0.155138
-0.149052
-0.142071
-0.135146
-0.129469
-0.125707
-0.124308
-0.125117
-0.127594
-0.131055
-0.133616
-0.133165
-0.127839
-0.117493
-0.102613
-0.0837047
-0.0613416
-0.0381877
-0.0137656
0.214686
0.189323
0.16135
0.132795
0.104423
0.075136
0.0460075
0.0173119
-0.0103143
-0.0364535
-0.0608344
-0.0828987
-0.10235
-0.118877
-0.132207
-0.141974
-0.147834
-0.14959
-0.14702
-0.140354
-0.12956
-0.115263
-0.0985697
-0.0810303
-0.0644985
-0.0510036
-0.042384
-0.039971
-0.0451537
-0.0585541
-0.0800998
-0.108333
-0.141008
-0.165708
-0.173565
-0.17278
-0.171922
-0.167393
-0.159002
-0.148319
-0.0483212
-0.0830776
-0.119104
-0.160739
-0.205683
-0.251036
-0.294732
-0.33611
-0.373397
-0.40466
-0.429344
-0.449851
-0.468349
-0.484258
-0.495823
-0.501194
-0.499316
-0.48987
-0.473105
-0.449783
-0.420817
-0.387116
-0.349259
-0.308327
-0.265996
-0.224633
-0.186817
-0.155539
-0.13322
-0.122547
-0.125043
-0.142534
-0.174073
-0.188518
-0.190105
-0.195538
-0.200939
-0.206849
-0.213071
-0.221301
0.00101073
0.00153099
-0.00403259
-0.0121086
-0.0229988
-0.0510617
-0.0875829
-0.0944924
-0.067811
-0.0317847
-0.00779737
0.0154971
0.0254632
0.0162917
0.0141122
0.00981257
0.00697366
0.00465682
0.00262945
0.00119648
-1.88222e-05
-0.000927364
-0.00162006
-0.00214763
-0.00245114
-0.00267729
-0.00279591
-0.00286918
-0.00289125
-0.00286105
-0.00283102
-0.00275332
-0.00269956
-0.00259955
-0.00244547
-0.00224564
-0.00213651
-0.00211062
-0.00269626
-0.00269309
0.00369772
0.00184754
-0.0043347
-0.0130105
-0.0273656
-0.0638935
-0.110379
-0.117445
-0.0801464
-0.0366161
-0.00898321
0.0169661
0.0248637
0.0180561
0.0144845
0.0103121
0.00722229
0.00477591
0.00268587
0.00117838
-8.02676e-05
-0.00103723
-0.00176275
-0.00231686
-0.00261027
-0.00284776
-0.00293749
-0.00302621
-0.00301414
-0.00302444
-0.0029832
-0.00295315
-0.00288381
-0.00276249
-0.00254451
-0.00232381
-0.00221174
-0.00222231
-0.00257341
-0.00287143
0.00407142
0.00199381
-0.00469699
-0.0139904
-0.0336361
-0.0853476
-0.13756
-0.144239
-0.0940672
-0.0422462
-0.0105519
0.0182446
0.0239538
0.0191846
0.014608
0.0108398
0.00746131
0.0049687
0.0027729
0.00117506
-0.000161045
-0.00118207
-0.00193121
-0.00246848
-0.00278871
-0.00300603
-0.00309688
-0.00316627
-0.00314409
-0.00314184
-0.00306041
-0.00303558
-0.00294515
-0.00281276
-0.0026068
-0.00244012
-0.00234038
-0.00228431
-0.00237764
-0.00229977
0.00648057
0.00195424
-0.00492429
-0.0159564
-0.0410063
-0.109674
-0.177128
-0.175004
-0.109326
-0.0490748
-0.0124761
0.0189948
0.0229304
0.0194857
0.0147172
0.0111613
0.00763112
0.00516596
0.00283134
0.00120213
-0.00027844
-0.00133136
-0.00212353
-0.00267784
-0.00303321
-0.00325575
-0.00337094
-0.00343289
-0.00339441
-0.0033532
-0.00322769
-0.00316921
-0.00304511
-0.00293311
-0.00275987
-0.00262822
-0.00249227
-0.00239106
-0.00243695
-0.00237351
0.00746181
0.00220563
-0.00464121
-0.019716
-0.0529669
-0.135588
-0.229346
-0.209317
-0.125341
-0.0565307
-0.015468
0.0185397
0.0215978
0.0192603
0.0147074
0.0112654
0.00783964
0.00531579
0.00293776
0.0012491
-0.000336004
-0.0014429
-0.00230626
-0.00290993
-0.00333241
-0.00358865
-0.00374396
-0.00380735
-0.00379038
-0.00374184
-0.00361387
-0.00351668
-0.00336436
-0.00323588
-0.00301808
-0.00285611
-0.0026552
-0.00252364
-0.00252363
-0.00243842
0.00925922
0.00292601
-0.00446842
-0.0233436
-0.0685592
-0.168155
-0.290249
-0.244835
-0.141322
-0.0647832
-0.018826
0.015906
0.0197744
0.0186686
0.0143276
0.0112149
0.0080025
0.00545388
0.00311998
0.00132882
-0.000273148
-0.00148203
-0.00237319
-0.00303672
-0.00350441
-0.00380597
-0.0040071
-0.00410728
-0.0041395
-0.0041208
-0.00401184
-0.00389905
-0.0036894
-0.00347924
-0.00320028
-0.00301396
-0.0027626
-0.00261174
-0.00248866
-0.0022293
0.0110643
0.00412099
-0.00504437
-0.0224662
-0.0846603
-0.209953
-0.352996
-0.27569
-0.155685
-0.0735532
-0.0223397
0.0106838
0.0169091
0.0172039
0.0136592
0.0109114
0.00799004
0.00554657
0.00323784
0.00141832
-0.000182803
-0.0014543
-0.0023523
-0.00303627
-0.00353976
-0.00386401
-0.00411119
-0.00424537
-0.00429655
-0.00426878
-0.00415952
-0.00403327
-0.00378992
-0.0035627
-0.00327181
-0.00310743
-0.00284673
-0.00274377
-0.00274148
-0.00278519
0.0129993
0.00563645
-0.00568133
-0.016913
-0.0992317
-0.259932
-0.404076
-0.295153
-0.166962
-0.0812258
-0.0273309
0.00319989
0.0120057
0.0145726
0.0125061
0.0103082
0.00770502
0.00546295
0.00314142
0.00136517
-0.000262254
-0.00153977
-0.00249442
-0.00318112
-0.00372841
-0.00404359
-0.00431648
-0.00439921
-0.00443003
-0.00433155
-0.00424463
-0.00411359
-0.00392738
-0.00372677
-0.00348176
-0.00332671
-0.00306066
-0.00291833
-0.00266737
-0.00234222
0.0152178
0.00795575
-0.0034566
-0.0132802
-0.108189
-0.302007
-0.428105
-0.299554
-0.170892
-0.0871493
-0.0350786
-0.00685863
0.00534213
0.0107311
0.0103606
0.00944329
0.0071019
0.00519902
0.00286445
0.00111073
-0.000557618
-0.00186002
-0.00290819
-0.00364042
-0.00424778
-0.00453237
-0.00482161
-0.00483535
-0.00483959
-0.00465891
-0.00461829
-0.00446304
-0.00435459
-0.00414458
-0.00396666
-0.00372822
-0.00345983
-0.00326874
-0.00313724
-0.00309162
0.0175727
0.0114795
0.00624739
-0.0138492
-0.106614
-0.309977
-0.407479
-0.278558
-0.168324
-0.0928828
-0.0464706
-0.0206103
-0.002971
0.00553098
0.00730661
0.00828892
0.00630411
0.00489083
0.00263314
0.000866778
-0.000818788
-0.00221885
-0.00331749
-0.00413623
-0.004805
-0.00511634
-0.00544515
-0.00541755
-0.0054042
-0.00520266
-0.00517816
-0.00495854
-0.00485141
-0.00460814
-0.00445788
-0.004122
-0.00385763
-0.00355212
-0.00313167
-0.00269022
0.0200999
0.0172326
0.0181807
-0.00827839
-0.0928846
-0.269536
-0.334943
-0.237868
-0.16254
-0.0994287
-0.061875
-0.0373084
-0.0140972
-0.0014065
0.0034692
0.00662916
0.00542697
0.00458594
0.00261327
0.000813645
-0.000821825
-0.00230465
-0.00339102
-0.00428337
-0.00502856
-0.00541036
-0.00578429
-0.00576951
-0.00581121
-0.00563816
-0.00556296
-0.00527287
-0.00513754
-0.00486618
-0.00468117
-0.00433252
-0.00412438
-0.00382957
-0.00359684
-0.00341004
0.0242114
0.0260163
0.0259958
0.00595392
-0.0651769
-0.212258
-0.245323
-0.1953
-0.149952
-0.105795
-0.0818154
-0.057359
-0.0293286
-0.0110683
-0.00136979
0.00406363
0.00443308
0.00395124
0.00258256
0.00076227
-0.000706438
-0.00224649
-0.00330426
-0.00423245
-0.00501434
-0.00548839
-0.00589014
-0.0059521
-0.00604456
-0.00589192
-0.00579169
-0.00547994
-0.00531116
-0.00500613
-0.00478016
-0.00447858
-0.00432096
-0.00401768
-0.00359731
-0.00311462
0.0306589
0.0348833
0.0339683
0.0219563
-0.0358864
-0.150053
-0.17016
-0.158755
-0.137084
-0.118501
-0.106543
-0.0838041
-0.0496499
-0.0244532
-0.00776989
0.000535309
0.00293498
0.00272343
0.00218983
0.000360638
-0.000876766
-0.00251331
-0.00354327
-0.00450447
-0.00521763
-0.00578836
-0.00614522
-0.0063124
-0.0063885
-0.00631012
-0.00615655
-0.00587458
-0.00566237
-0.00533643
-0.00507556
-0.00482323
-0.00465356
-0.00431994
-0.00402481
-0.00379193
0.0381638
0.0417107
0.0444594
0.0365828
-0.0105366
-0.0901694
-0.114941
-0.129314
-0.129401
-0.137292
-0.135007
-0.117224
-0.078989
-0.0421596
-0.0161223
-0.00375006
0.000642607
0.0012632
0.00127019
-0.000295073
-0.00146251
-0.00316361
-0.00420913
-0.00526475
-0.00581553
-0.00650977
-0.00675355
-0.00704249
-0.0070444
-0.00705704
-0.00679877
-0.00663283
-0.00632621
-0.00604652
-0.00573697
-0.00548408
-0.00517593
-0.00479404
-0.00439116
-0.00385595
0.0456325
0.0471499
0.0548527
0.0478158
0.0115492
-0.0434252
-0.080654
-0.106989
-0.125821
-0.154364
-0.1656
-0.158678
-0.112756
-0.0645838
-0.027196
-0.00885703
-0.0017739
-0.000110101
0.000392255
-0.000830763
-0.00208156
-0.00373591
-0.0049466
-0.00600802
-0.00658828
-0.00733814
-0.0075478
-0.00793351
-0.00782568
-0.00788698
-0.00757882
-0.00748565
-0.00709646
-0.00687198
-0.00646877
-0.00619253
-0.00572245
-0.00529618
-0.00486659
-0.00450443
0.0516283
0.0524965
0.0619729
0.0562695
0.0275381
-0.0157398
-0.0592043
-0.0917527
-0.126509
-0.172162
-0.199912
-0.204631
-0.152565
-0.0957604
-0.04206
-0.0146364
-0.00387727
-0.00151882
-6.45779e-05
-0.000972676
-0.00218973
-0.00392876
-0.00524372
-0.00633405
-0.00709452
-0.00778585
-0.00813481
-0.00845238
-0.0083427
-0.00837969
-0.00809591
-0.00800222
-0.00761404
-0.0073772
-0.00697103
-0.00668673
-0.00615218
-0.00573102
-0.00525761
-0.00493921
0.0560839
0.0581857
0.0647359
0.0602234
0.0364289
-0.00331266
-0.0453538
-0.0832779
-0.12992
-0.189329
-0.236352
-0.258483
-0.208493
-0.130798
-0.0625466
-0.0207787
-0.00706967
-0.0030803
-0.000686048
-0.000709466
-0.00211199
-0.00389157
-0.00523878
-0.0063663
-0.0072352
-0.0078636
-0.00833915
-0.00857351
-0.00862375
-0.00855195
-0.00840657
-0.00822537
-0.00791565
-0.00769045
-0.00737601
-0.00705715
-0.00657054
-0.00616055
-0.00572578
-0.00552632
0.0587793
0.0619096
0.0649231
0.0605139
0.0380075
0.00170982
-0.0382806
-0.0782353
-0.132919
-0.204144
-0.269743
-0.31099
-0.274258
-0.167525
-0.088067
-0.0300987
-0.0114445
-0.00415226
-0.00126195
-0.000956911
-0.00286093
-0.00429012
-0.00578301
-0.00690135
-0.00773948
-0.00833085
-0.00896757
-0.00908962
-0.00934982
-0.00917099
-0.00915452
-0.00882328
-0.00862391
-0.00828045
-0.00802268
-0.0075942
-0.00715337
-0.00667736
-0.00626655
-0.00608315
0.059707
0.0628356
0.0627044
0.0579087
0.0360943
0.00221285
-0.035158
-0.0757803
-0.133282
-0.212863
-0.291578
-0.349706
-0.332096
-0.210662
-0.10991
-0.0435956
-0.0127458
-0.00426484
-0.00176479
-0.00193796
-0.00406336
-0.00518559
-0.00698748
-0.00809713
-0.00900537
-0.00969096
-0.0103126
-0.0104686
-0.0108577
-0.0106383
-0.0106283
-0.0101952
-0.00990949
-0.00940874
-0.00911252
-0.0085523
-0.00806835
-0.00747567
-0.00700823
-0.00676575
0.0590212
0.0607396
0.0589997
0.0526654
0.0325812
0.000746548
-0.0341469
-0.0742991
-0.131821
-0.210662
-0.29388
-0.357478
-0.353104
-0.240428
-0.122096
-0.0531761
-0.00947038
-0.00386802
-0.00160848
-0.00142628
-0.003739
-0.00533425
-0.00736746
-0.00877852
-0.00986318
-0.0108287
-0.0113873
-0.0119007
-0.0121639
-0.012157
-0.0120538
-0.0116547
-0.011296
-0.0108405
-0.0103939
-0.00976568
-0.0091903
-0.00852082
-0.00798104
-0.0076854
0.0567326
0.0571836
0.053929
0.045738
0.0296645
-0.000681453
-0.0364559
-0.0743681
-0.126773
-0.197557
-0.271344
-0.323345
-0.312225
-0.217968
-0.117809
-0.0481375
-0.00784312
-0.00023701
0.00119774
0.00104981
-0.00150168
-0.00414614
-0.00612029
-0.0080965
-0.00951911
-0.0107685
-0.0114644
-0.0122681
-0.0124791
-0.0127845
-0.0126597
-0.0125328
-0.0122049
-0.0119095
-0.0113551
-0.0108376
-0.0101741
-0.00948578
-0.00894595
-0.00866496
0.0528662
0.052245
0.047314
0.0383317
0.0241682
-0.000101715
-0.0329558
-0.0706788
-0.115375
-0.170696
-0.224586
-0.258965
-0.245991
-0.182608
-0.0969779
-0.0335908
-0.00772421
0.00740867
0.00583052
0.00311503
0.000500666
-0.0031521
-0.00528998
-0.0076674
-0.00930862
-0.010585
-0.0114554
-0.01216
-0.0125394
-0.0129344
-0.0129221
-0.0129485
-0.0127261
-0.0125128
-0.0120166
-0.0115987
-0.0108718
-0.0103036
-0.00979623
-0.00957638
0.0477207
0.0463524
0.0397579
0.0300487
0.0164637
-0.00428973
-0.0330278
-0.0663381
-0.10186
-0.142039
-0.178549
-0.202642
-0.193216
-0.142681
-0.0653305
-0.0232695
0.00281323
0.0127253
0.011172
0.00478874
0.00115061
-0.00331123
-0.00644982
-0.00884675
-0.0106354
-0.0117639
-0.01271
-0.0132009
-0.0137255
-0.0138874
-0.0139521
-0.0138329
-0.013625
-0.0132736
-0.0128174
-0.012335
-0.0117327
-0.0111621
-0.0106777
-0.0105637
0.0414262
0.0395333
0.0311831
0.0208398
0.00725563
-0.0111381
-0.0370217
-0.0669017
-0.0953959
-0.123294
-0.145988
-0.157348
-0.146863
-0.107547
-0.0481073
-0.00217737
0.0204247
0.018935
0.0185018
0.00954057
0.00279981
-0.00258286
-0.00740926
-0.010204
-0.0125544
-0.0141123
-0.0152997
-0.0160207
-0.0164277
-0.0164413
-0.0163147
-0.0159156
-0.0156018
-0.0150474
-0.0145781
-0.0139457
-0.0132796
-0.0125752
-0.0120124
-0.0118343
0.0333654
0.0316267
0.0223243
0.0107345
-0.00327728
-0.0203059
-0.0436036
-0.0709473
-0.0952235
-0.114095
-0.129673
-0.130384
-0.113493
-0.078681
-0.0308609
0.015809
0.0349135
0.0325984
0.0260058
0.0174853
0.00764251
0.000942787
-0.00558815
-0.0097956
-0.0132548
-0.0157059
-0.017503
-0.0186513
-0.0190923
-0.0193057
-0.0191171
-0.0188387
-0.0184243
-0.0178612
-0.0172492
-0.0164823
-0.0156375
-0.0147321
-0.0139381
-0.0136717
0.0241
0.0220148
0.0123476
-0.000983852
-0.0158838
-0.0321788
-0.0533057
-0.0787435
-0.100707
-0.114738
-0.122961
-0.114765
-0.0908056
-0.0566857
-0.0189739
0.0248322
0.0439965
0.0454858
0.0322002
0.0254477
0.014833
0.00599451
-0.00148711
-0.00755357
-0.0120254
-0.0152186
-0.0177359
-0.0193316
-0.0204232
-0.0209493
-0.0212083
-0.0212447
-0.0209155
-0.0204681
-0.0198479
-0.0190442
-0.0180734
-0.0170552
-0.0160887
-0.0157962
0.0137749
0.010173
0.000647282
-0.0142271
-0.0313262
-0.0484243
-0.0681733
-0.0921697
-0.111693
-0.12373
-0.122186
-0.107648
-0.0790036
-0.042938
-0.00925304
0.028395
0.0478157
0.0520395
0.0407677
0.0316704
0.0201907
0.00955694
0.00188432
-0.00505005
-0.00988742
-0.0139014
-0.017002
-0.0193365
-0.0211497
-0.0222604
-0.0228847
-0.0230495
-0.0229454
-0.0225612
-0.0219648
-0.0211586
-0.0202963
-0.0194357
-0.0186275
-0.018313
0.00166061
-0.00348931
-0.0142299
-0.0306195
-0.050284
-0.0699262
-0.0910953
-0.113996
-0.13697
-0.145649
-0.136746
-0.112537
-0.0758048
-0.0355028
-0.00170861
0.0300403
0.0506504
0.0571812
0.0463672
0.0333319
0.022536
0.011468
0.00359448
-0.00371933
-0.00918403
-0.0141066
-0.0178979
-0.0207753
-0.0227976
-0.0240961
-0.0249648
-0.0254418
-0.0255514
-0.0252708
-0.0247182
-0.0239006
-0.0231111
-0.0222228
-0.0213788
-0.0210284
-0.01247
-0.0195307
-0.03203
-0.0506914
-0.0735092
-0.098056
-0.124013
-0.147535
-0.173213
-0.178773
-0.163289
-0.12918
-0.0833057
-0.035839
0.00136668
0.0291926
0.0525827
0.0572106
0.0456849
0.0346492
0.0235928
0.0124388
0.00318452
-0.00494104
-0.0112661
-0.016612
-0.02069
-0.0235212
-0.0256423
-0.0271214
-0.0280601
-0.0284738
-0.02861
-0.0285213
-0.0281097
-0.0274325
-0.0265985
-0.0256098
-0.024718
-0.0244193
-0.0285125
-0.0373381
-0.0522587
-0.0749709
-0.10219
-0.134394
-0.166475
-0.198514
-0.220613
-0.225322
-0.203413
-0.157794
-0.101632
-0.0463628
-0.00543981
0.0244686
0.0471856
0.0508389
0.043684
0.034297
0.0217647
0.011211
0.00153379
-0.0069355
-0.0138945
-0.0192731
-0.0236479
-0.0267588
-0.0289931
-0.0304764
-0.03163
-0.0322881
-0.0326115
-0.0325322
-0.0319998
-0.0312228
-0.030338