/*--------------------------------*- C++ -*----------------------------------*\
  =========                 |
  \\      /  F ield         | OpenFOAM: The Open Source CFD Toolbox
   \\    /   O peration     | Website:  https://openfoam.org
    \\  /    A nd           | Version:  11
     \\/     M anipulation  |
\*---------------------------------------------------------------------------*/
FoamFile
{
    format      ascii;
    class       volVectorField;
    location    "7.5";
    object      U;
}
// * * * * * * * * * * * * * * * * * * * * * * * * * * * * * * * * * * * * * //

dimensions      [0 1 -1 0 0 0 0];

internalField   nonuniform List<vector> 
9600
(
(0.991621 0.000659778 -6.2765e-21)
(0.991026 0.000735416 0)
(0.990202 0.000795711 -6.54977e-21)
(0.989475 0.000990293 6.47012e-21)
(0.988539 0.000970888 0)
(0.988114 0.000552325 3.36658e-21)
(0.988213 0.000292353 -6.70566e-21)
(0.988551 -9.01719e-06 3.34519e-21)
(0.989168 -0.000307398 3.39189e-21)
(0.990159 -0.000568014 -3.39994e-21)
(0.991609 -0.000765328 2.63826e-23)
(0.993449 -0.000960159 0)
(0.995451 -0.00117448 0)
(0.99769 -0.00139445 -1.59513e-21)
(1.00026 -0.00177276 5.82206e-23)
(1.00328 -0.00185375 1.5418e-21)
(1.00708 -0.00155139 0)
(1.00971 -0.00147599 0)
(1.01223 -0.0022594 2.53726e-24)
(1.01621 -0.00256507 0)
(1.01989 -0.00160865 0)
(1.02106 -6.95904e-05 -2.10894e-24)
(1.02045 0.000719133 3.96181e-24)
(1.01716 0.00244777 -9.52822e-22)
(1.00518 0.00527253 9.52659e-22)
(0.985924 0.00589513 9.23191e-22)
(0.973162 0.003603 -9.29115e-22)
(0.967334 0.00169267 -1.80425e-21)
(0.966756 0.000323001 1.76387e-21)
(0.973498 -0.00219893 0)
(0.988915 -0.00479752 0)
(1.0052 -0.00557697 1.65575e-21)
(1.02164 -0.00637881 -3.15228e-21)
(1.03849 -0.00667305 1.50992e-21)
(1.05461 -0.00700903 0)
(1.06841 -0.0065791 1.68028e-23)
(1.07688 -0.00668246 1.36662e-21)
(1.07913 -0.00669877 -1.33432e-21)
(1.07869 -0.0061311 -5.98016e-24)
(1.0693 -0.0149697 -3.51059e-22)
(0.992414 0.000448998 -6.4126e-21)
(0.992318 0.000183559 -1.86224e-22)
(0.991885 -3.32106e-05 -4.63732e-23)
(0.991684 -0.000279816 6.76032e-21)
(0.991849 -0.000536495 3.44422e-21)
(0.992259 -0.000603203 -3.4692e-21)
(0.99303 -0.000503304 5.49164e-23)
(0.994226 -0.000418325 2.75802e-23)
(0.995129 -0.000442372 -3.53926e-21)
(0.996458 -0.000446456 3.60365e-21)
(0.998805 -0.000542146 -2.75471e-23)
(1.00131 -0.000496868 5.42917e-23)
(1.00357 -0.000458495 1.63016e-21)
(1.00642 -0.000502114 -3.32196e-21)
(1.01 -0.000412096 1.66338e-21)
(1.01402 -0.000720855 1.52434e-21)
(1.01792 -0.000773482 -1.53673e-21)
(1.02178 -0.000567322 6.93421e-22)
(1.02514 -7.30565e-05 -6.85345e-22)
(1.02743 -8.42267e-05 0)
(1.02903 -0.000136971 0)
(1.0315 -0.000170245 -5.36116e-22)
(1.03419 0.000653369 5.30047e-22)
(1.03504 0.00287421 7.79425e-24)
(1.03434 0.00503735 0)
(1.03405 0.00519807 9.48206e-22)
(1.03319 0.0038077 -7.80135e-24)
(1.03001 0.000925896 9.21787e-22)
(1.02777 -0.00167741 -1.81762e-21)
(1.02826 -0.00445017 -2.8504e-23)
(1.0307 -0.00501764 1.7828e-21)
(1.03695 -0.00524152 -1.79311e-21)
(1.04733 -0.00408134 1.63853e-21)
(1.05819 -0.00421243 -3.06778e-21)
(1.0694 -0.00211242 1.41194e-21)
(1.07877 -0.000745935 -1.71842e-23)
(1.08691 0.00426308 -1.3506e-23)
(1.09076 0.00679943 0)
(1.09236 0.0118398 6.18208e-24)
(1.08313 0.0153635 -4.15347e-22)
(0.992324 0.000382261 0)
(0.992235 0.000335457 6.8039e-21)
(0.991962 0.000259173 -6.78315e-21)
(0.991955 0.00016782 0)
(0.992126 0.000137348 0)
(0.992526 -0.000114823 -1.11442e-22)
(0.993312 -0.000542084 -1.68897e-22)
(0.994417 -0.000919039 0)
(0.995329 -0.0011018 -3.74009e-21)
(0.996633 -0.00190942 3.57882e-21)
(0.998752 -0.00241986 0)
(1.00146 -0.00262139 -5.56032e-23)
(1.00412 -0.00293841 5.45674e-23)
(1.00684 -0.00352788 0)
(1.01004 -0.00416028 -1.64009e-21)
(1.01441 -0.00432197 1.61617e-21)
(1.01907 -0.00395379 4.72293e-23)
(1.02239 -0.00378276 -1.12327e-23)
(1.02439 -0.00388635 -3.19137e-22)
(1.02612 -0.00361577 3.29787e-22)
(1.02915 -0.00284027 2.92969e-22)
(1.03358 -0.00208645 -3.06233e-22)
(1.0377 -0.000949181 8.44675e-24)
(1.03948 0.00192304 -1.01137e-21)
(1.03895 0.00548721 9.94797e-22)
(1.03688 0.00689155 9.20058e-22)
(1.03244 0.00634472 -9.63918e-22)
(1.02608 0.00490922 1.88832e-21)
(1.0218 0.0020957 -1.885e-21)
(1.02163 -0.00291722 2.92112e-23)
(1.02615 -0.00785298 0)
(1.0344 -0.0122889 1.79662e-21)
(1.04518 -0.014804 -3.51881e-21)
(1.05679 -0.0166787 1.69504e-21)
(1.06816 -0.0168601 1.41847e-21)
(1.07883 -0.0167106 -3.67971e-21)
(1.08863 -0.0146135 4.58278e-22)
(1.09609 -0.0122406 1.83848e-21)
(1.10021 -0.00996421 -1.87487e-23)
(1.09945 -0.0114911 -3.22056e-24)
(0.992315 0.000354101 -1.3576e-20)
(0.992153 0.000232735 6.88453e-21)
(0.991925 0.000132101 7.09288e-21)
(0.991932 -7.96395e-05 -7.10838e-21)
(0.992186 -0.000296359 0)
(0.992779 -0.000786906 3.78876e-21)
(0.993721 -0.00120604 -3.57645e-21)
(0.994478 -0.00142444 3.83063e-21)
(0.996123 -0.00167609 -1.17177e-23)
(0.997515 -0.002287 -3.72566e-21)
(0.999332 -0.00270603 -3.54032e-21)
(1.00166 -0.00283134 7.3729e-21)
(1.00519 -0.00290159 -1.8446e-21)
(1.00774 -0.00328936 -3.46862e-21)
(1.0106 -0.00374347 1.71022e-21)
(1.01388 -0.00452073 1.62894e-21)
(1.0188 -0.00412273 -1.60435e-21)
(1.0228 -0.00307418 -2.28825e-23)
(1.0257 -0.00180509 -1.08524e-23)
(1.02713 -0.00217771 0)
(1.02991 -0.00313625 0)
(1.03267 -0.0033569 9.10245e-24)
(1.03545 -0.00158162 0)
(1.03757 0.00211919 0)
(1.03833 0.00585992 -1.58169e-23)
(1.03756 0.00736936 3.10622e-23)
(1.03722 0.00740633 -9.37274e-22)
(1.03676 0.00556382 -8.92785e-22)
(1.03901 0.0017596 1.99191e-21)
(1.04045 -0.00446255 -1.92306e-21)
(1.04481 -0.00781188 1.91766e-21)
(1.04889 -0.0117612 5.97668e-23)
(1.05683 -0.0117333 1.72494e-21)
(1.06434 -0.0132737 -1.7774e-21)
(1.07434 -0.0104905 -1.42595e-21)
(1.08248 -0.0102562 -1.04577e-21)
(1.09117 -0.00441129 4.8313e-22)
(1.09679 -0.000949033 2.01833e-21)
(1.10086 0.00779624 1.93328e-23)
(1.09587 0.0115687 1.22458e-23)
(0.992189 0.000361695 0)
(0.99203 0.000171983 7.42027e-21)
(0.991869 5.05989e-05 -1.4722e-20)
(0.991906 -0.000237225 7.3184e-21)
(0.992253 -0.000535787 0)
(0.993014 -0.00122928 0)
(0.993951 -0.00156653 0)
(0.995081 -0.00206594 1.198e-22)
(0.99604 -0.00242322 -3.69467e-21)
(0.997708 -0.00333537 3.82478e-21)
(0.999577 -0.00390088 -1.181e-22)
(1.00206 -0.00481769 3.56769e-21)
(1.00486 -0.0051636 -5.49183e-21)
(1.00801 -0.00551101 1.80343e-21)
(1.01162 -0.0062956 0)
(1.01483 -0.0069645 1.56409e-21)
(1.01813 -0.00679456 -1.61745e-21)
(1.02164 -0.00574724 2.34708e-23)
(1.0262 -0.00505717 0)
(1.02997 -0.00473869 0)
(1.03221 -0.00455741 -3.06167e-22)
(1.03252 -0.003916 3.06098e-22)
(1.03284 -0.00272073 0)
(1.0344 0.000130244 -1.0554e-21)
(1.03868 0.00457891 1.08992e-21)
(1.04119 0.00722884 1.00707e-21)
(1.04305 0.00740719 -9.73989e-22)
(1.04379 0.00604722 1.94064e-21)
(1.04373 0.00325865 -2.05914e-21)
(1.04157 -0.00261399 -6.18703e-23)
(1.0419 -0.00820932 0)
(1.04423 -0.0148379 -6.12583e-23)
(1.05096 -0.0185801 -1.82799e-21)
(1.05903 -0.0225439 1.88111e-21)
(1.0694 -0.0230268 -5.1797e-23)
(1.07873 -0.0240369 0)
(1.08804 -0.0214859 0)
(1.09475 -0.0195696 1.85641e-21)
(1.10213 -0.0142394 -1.79685e-21)
(1.10209 -0.0108184 3.81214e-23)
(0.992067 0.000254196 -6.99359e-21)
(0.991924 -6.2622e-05 -2.29648e-22)
(0.991834 -0.00018609 2.32683e-22)
(0.991888 -0.00054711 2.37197e-22)
(0.992381 -0.000805248 0)
(0.993034 -0.00174553 0)
(0.994169 -0.00205314 0)
(0.994971 -0.00268443 3.67935e-21)
(0.996594 -0.00312761 -8.10094e-21)
(0.997746 -0.00426121 3.68468e-21)
(0.99997 -0.00492876 0)
(1.00233 -0.00535995 3.65471e-21)
(1.00589 -0.00564977 -3.78201e-21)
(1.00853 -0.00646583 -1.78995e-21)
(1.01154 -0.00705414 1.79288e-21)
(1.01445 -0.00759097 5.28324e-23)
(1.01874 -0.00713959 -5.04225e-23)
(1.023 -0.00659145 0)
(1.02722 -0.00546965 2.26089e-23)
(1.02908 -0.00495343 0)
(1.03122 -0.0043878 -5.01525e-24)
(1.03233 -0.00394573 -1.89276e-23)
(1.03459 -0.00282019 0)
(1.03608 -0.000735319 1.11409e-21)
(1.03859 0.00296744 -1.11184e-21)
(1.03936 0.00558674 9.64386e-22)
(1.04075 0.00638464 -1.07814e-21)
(1.04087 0.00585753 -1.94829e-21)
(1.04301 0.0043838 1.95902e-21)
(1.04407 -0.00128926 -3.97988e-25)
(1.0485 -0.00670368 1.2871e-22)
(1.05104 -0.0136742 -1.29183e-22)
(1.05844 -0.0167035 1.9853e-21)
(1.06411 -0.0209416 -3.86219e-21)
(1.07464 -0.0200191 1.87746e-21)
(1.08224 -0.0207362 0)
(1.09328 -0.0156713 9.30337e-23)
(1.09919 -0.0127024 -7.70054e-23)
(1.10861 -0.00393087 -5.39041e-23)
(1.10448 0.00418985 1.24315e-21)
(0.991929 0.000172815 -1.93848e-22)
(0.991806 -0.000268402 -1.4996e-20)
(0.991833 -0.000410537 1.47677e-22)
(0.991897 -0.000890882 7.51979e-21)
(0.992521 -0.00119357 0)
(0.993158 -0.00236585 2.50585e-22)
(0.994302 -0.00257146 2.523e-22)
(0.995096 -0.00363168 0)
(0.996845 -0.00404988 4.28258e-21)
(0.998214 -0.00519763 -3.53826e-21)
(1.00016 -0.00577154 0)
(1.00236 -0.00732455 2.44985e-22)
(1.00633 -0.00773494 -1.89188e-21)
(1.00904 -0.00797614 1.89545e-21)
(1.01204 -0.00851538 0)
(1.01446 -0.00955411 1.63926e-21)
(1.01944 -0.0098448 -1.69517e-21)
(1.02344 -0.00865829 0)
(1.02757 -0.00688584 -4.06374e-22)
(1.02985 -0.00593518 3.60137e-22)
(1.0323 -0.00553008 1.02759e-23)
(1.0335 -0.00519546 3.87862e-23)
(1.03528 -0.00397846 -3.6594e-23)
(1.03579 -0.00174506 -1.13671e-21)
(1.03768 0.00282864 1.13422e-21)
(1.03822 0.00551774 6.60423e-23)
(1.03994 0.00682716 1.03846e-21)
(1.04092 0.00585859 -1.16158e-21)
(1.04457 0.00390522 -2.03276e-21)
(1.04495 -0.00133091 2.03558e-21)
(1.04688 -0.00685593 -1.32181e-22)
(1.04771 -0.0149383 -1.52982e-24)
(1.05333 -0.0199574 0)
(1.05864 -0.0263639 -1.31171e-22)
(1.06896 -0.0284736 -1.8844e-21)
(1.07716 -0.0310816 -1.52621e-21)
(1.08961 -0.0294204 3.49644e-22)
(1.0953 -0.0271966 3.01237e-21)
(1.10543 -0.023453 -1.90741e-21)
(1.10689 -0.0146529 1.94092e-21)
(0.99175 -5.21857e-05 7.75617e-21)
(0.991726 -0.000605192 3.34495e-22)
(0.991773 -0.000771779 -1.56757e-20)
(0.991836 -0.00129499 7.76611e-21)
(0.992531 -0.00162168 0)
(0.993052 -0.00282268 -2.574e-22)
(0.994244 -0.00333493 -4.15386e-21)
(0.995198 -0.00433568 8.59405e-21)
(0.996717 -0.00485291 -8.06531e-21)
(0.99819 -0.00600424 3.90397e-21)
(1.0006 -0.00738015 0)
(1.00284 -0.00856205 3.85551e-21)
(1.00618 -0.00881752 -3.8668e-21)
(1.00911 -0.0092026 -1.76431e-21)
(1.01273 -0.00995987 1.88763e-21)
(1.01565 -0.0110524 0)
(1.01936 -0.0109798 1.64882e-25)
(1.02298 -0.00991621 0)
(1.02777 -0.0083798 4.74249e-23)
(1.03091 -0.00707247 -1.1122e-23)
(1.03378 -0.00628701 -5.26676e-24)
(1.0346 -0.00505869 -1.98685e-23)
(1.03537 -0.00413713 3.76177e-23)
(1.03565 -0.00222437 -1.15585e-21)
(1.03804 0.00128171 1.18737e-21)
(1.03928 0.00445023 1.06753e-21)
(1.04028 0.00526052 -1.05238e-21)
(1.04021 0.00487687 -2.04103e-21)
(1.04137 0.00385869 4.24092e-21)
(1.04059 0.000338561 -4.16324e-21)
(1.04394 -0.00509396 2.1702e-21)
(1.04524 -0.0133822 1.37853e-22)
(1.05323 -0.0188694 0)
(1.05831 -0.0256436 1.34823e-22)
(1.06999 -0.0280129 0)
(1.07756 -0.0309878 0)
(1.0914 -0.0283037 0)
(1.09821 -0.0257103 2.74972e-21)
(1.11229 -0.0191788 -2.90014e-21)
(1.11104 -0.00931305 -1.12485e-22)
(0.991604 -0.000288819 -7.4778e-21)
(0.991628 -0.000989759 3.72346e-24)
(0.991759 -0.00119708 -8.80278e-21)
(0.99182 -0.00179431 8.57617e-21)
(0.992499 -0.00220274 -5.30636e-22)
(0.993393 -0.00359008 -4.53225e-21)
(0.994226 -0.00409253 3.75245e-21)
(0.995367 -0.00541217 -2.68472e-22)
(0.996794 -0.0058021 -4.54684e-21)
(0.99885 -0.00760376 8.52807e-21)
(1.00083 -0.00841263 -4.51352e-21)
(1.00284 -0.0099989 0)
(1.00641 -0.0105718 -3.80423e-22)
(1.00972 -0.0109413 -1.23282e-22)
(1.01363 -0.0115121 1.18927e-22)
(1.01589 -0.0122514 1.66674e-21)
(1.01965 -0.0127892 -1.72836e-21)
(1.02357 -0.0119619 0)
(1.02854 -0.009915 -4.85355e-23)
(1.03178 -0.00822302 7.34461e-26)
(1.03475 -0.00693103 0)
(1.03563 -0.00573983 2.00951e-23)
(1.03717 -0.00468511 3.78982e-23)
(1.037 -0.00304148 3.64749e-23)
(1.03819 0.000402411 -7.01549e-23)
(1.03867 0.00410463 0)
(1.03915 0.00589045 0)
(1.03903 0.00581563 2.13313e-21)
(1.04012 0.00496371 -2.00658e-21)
(1.04006 0.00132288 -1.38201e-22)
(1.04227 -0.00454066 0)
(1.04204 -0.0137448 -2.46036e-21)
(1.04759 -0.0204696 4.64104e-21)
(1.05136 -0.029022 -4.62222e-21)
(1.06245 -0.0334869 2.28975e-21)
(1.06982 -0.0384533 -2.76159e-22)
(1.08574 -0.039348 -3.45731e-21)
(1.09355 -0.0374645 3.69884e-21)
(1.10877 -0.0355013 2.7845e-21)
(1.11151 -0.024913 -4.70061e-21)
(0.991325 -0.000624646 -8.31334e-21)
(0.991487 -0.00144817 1.58105e-20)
(0.991652 -0.00169126 9.43072e-23)
(0.991688 -0.00233233 -9.16291e-21)
(0.992358 -0.00279462 5.46532e-22)
(0.993239 -0.00414192 2.75095e-22)
(0.994141 -0.00494066 2.76544e-22)
(0.995107 -0.00623082 4.44017e-21)
(0.9968 -0.00707583 -3.53498e-23)
(0.99887 -0.00830494 -4.43451e-21)
(1.00099 -0.00994042 -4.03397e-21)
(1.00308 -0.0117007 3.63919e-22)
(1.00657 -0.0122507 6.54907e-21)
(1.00978 -0.0125565 -4.05403e-21)
(1.01387 -0.0129543 1.8736e-21)
(1.01668 -0.01402 2.34323e-22)
(1.02058 -0.0142723 0)
(1.02383 -0.0135521 -8.19067e-22)
(1.02875 -0.0117542 1.22976e-21)
(1.03195 -0.00978337 -3.73749e-22)
(1.03575 -0.00822919 0)
(1.03726 -0.00632679 -6.603e-22)
(1.03866 -0.00464232 5.99106e-22)
(1.03778 -0.00306658 -1.15537e-21)
(1.03809 -2.06382e-05 1.086e-21)
(1.03828 0.00336239 1.03065e-21)
(1.03878 0.00487274 -2.26205e-21)
(1.03862 0.00496985 -1.11166e-21)
(1.03919 0.00432132 2.03128e-21)
(1.03834 0.00226322 2.81458e-22)
(1.04007 -0.00228137 0)
(1.03744 -0.0113462 2.9552e-22)
(1.04269 -0.0190214 0)
(1.04528 -0.028313 2.44022e-21)
(1.05681 -0.0338531 -2.73861e-21)
(1.06432 -0.0400799 -4.54851e-21)
(1.08124 -0.0419323 4.24926e-21)
(1.09021 -0.0400996 0)
(1.10975 -0.0381565 -3.06573e-21)
(1.11476 -0.0251043 3.21295e-21)
(0.991161 -0.00105276 -9.12376e-21)
(0.991321 -0.00202045 5.43675e-22)
(0.99159 -0.00230179 -8.9021e-21)
(0.991643 -0.00300996 1.00655e-20)
(0.992391 -0.00354161 0)
(0.99335 -0.00517317 0)
(0.994324 -0.00583847 0)
(0.995283 -0.00769386 0)
(0.996764 -0.00821984 -4.57061e-21)
(0.999155 -0.0101089 4.58595e-21)
(1.00158 -0.0113382 0)
(1.00355 -0.0131538 -2.75352e-22)
(1.00655 -0.0139828 -2.39051e-21)
(1.00987 -0.0144936 2.1258e-21)
(1.01469 -0.0148509 0)
(1.01788 -0.0153854 1.75745e-21)
(1.02139 -0.0158214 -1.99474e-21)
(1.02425 -0.0154869 0)
(1.02908 -0.0135949 -2.53435e-23)
(1.03297 -0.0112404 0)
(1.0371 -0.00928155 0)
(1.03879 -0.00684806 2.08025e-23)
(1.04012 -0.00491485 3.90842e-23)
(1.03932 -0.00325482 7.40668e-23)
(1.03904 -0.000564383 1.43325e-22)
(1.03906 0.00282632 1.25109e-21)
(1.03877 0.00509547 -1.0398e-21)
(1.03792 0.0056567 2.34636e-21)
(1.03785 0.00541609 -2.18417e-21)
(1.03698 0.00381858 -1.43838e-22)
(1.03864 0.000183286 0)
(1.03618 -0.00847746 -1.52122e-22)
(1.03913 -0.0172576 0)
(1.03864 -0.0286835 0)
(1.04783 -0.036502 3.17138e-22)
(1.05342 -0.0447689 5.25908e-21)
(1.06956 -0.051173 -9.27529e-21)
(1.07966 -0.0504139 8.5405e-21)
(1.10036 -0.055041 -5.53155e-22)
(1.11111 -0.0406507 -3.78286e-21)
(0.990815 -0.00145337 -1.00885e-23)
(0.991025 -0.00253744 1.8155e-20)
(0.991347 -0.00287146 -1.839e-20)
(0.991371 -0.00365275 -6.5447e-22)
(0.992059 -0.00426329 1.41371e-20)
(0.993062 -0.00582439 -4.74435e-21)
(0.994176 -0.0069608 0)
(0.994982 -0.00849702 -4.76364e-21)
(0.996462 -0.00973652 4.56461e-23)
(0.998908 -0.0113044 4.75242e-21)
(1.00173 -0.0127966 -2.91146e-22)
(1.00348 -0.0148827 2.85343e-22)
(1.00673 -0.0157133 5.56176e-22)
(1.01006 -0.0166576 0)
(1.01473 -0.0165715 0)
(1.01828 -0.0173843 0)
(1.02221 -0.0172653 4.50299e-25)
(1.02496 -0.0170329 0)
(1.02969 -0.0154427 7.79987e-23)
(1.0334 -0.0132225 -1.21103e-23)
(1.03758 -0.0109929 1.12997e-23)
(1.03957 -0.00799462 -2.14529e-23)
(1.04171 -0.00513943 -4.0307e-23)
(1.04144 -0.00302743 -1.26154e-21)
(1.04039 -0.000457836 1.11041e-21)
(1.03945 0.00273953 1.05127e-21)
(1.03868 0.0050127 -9.82447e-22)
(1.03739 0.00567415 -3.27706e-24)
(1.03692 0.0054486 -2.16013e-21)
(1.03561 0.00416512 2.1318e-21)
(1.03687 0.00137307 0)
(1.03416 -0.00503339 0)
(1.03559 -0.0139777 2.33788e-21)
(1.03301 -0.0257821 6.51459e-23)
(1.0402 -0.0351626 -5.44368e-21)
(1.04423 -0.0444242 -2.65215e-21)
(1.05901 -0.0544822 -4.79527e-22)
(1.06993 -0.0539264 5.43847e-21)
(1.09026 -0.0629889 4.26292e-21)
(1.10767 -0.0479964 -4.22921e-21)
(0.990585 -0.00208149 0)
(0.990805 -0.00331003 5.9215e-22)
(0.991181 -0.0037211 -6.00319e-22)
(0.991164 -0.00464339 0)
(0.991947 -0.00530911 0)
(0.993051 -0.00720081 0)
(0.994159 -0.00804141 -6.22049e-22)
(0.995277 -0.0102284 -6.22767e-22)
(0.996705 -0.0110896 4.91379e-21)
(0.998877 -0.0133119 -5.23852e-21)
(1.00209 -0.0144964 3.00365e-22)
(1.00419 -0.0166109 4.35783e-21)
(1.00741 -0.0176317 -7.21377e-21)
(1.0103 -0.0188461 2.26712e-21)
(1.01515 -0.0188569 -1.33907e-22)
(1.01893 -0.0192912 1.85981e-21)
(1.02342 -0.0189098 -1.86898e-21)
(1.02631 -0.0188196 0)
(1.03091 -0.0176113 -5.35398e-23)
(1.03448 -0.0149407 1.25021e-23)
(1.03846 -0.0124129 -1.16653e-23)
(1.0411 -0.00896638 0)
(1.04346 -0.00577344 0)
(1.04366 -0.00292966 0)
(1.0427 -0.00013975 0)
(1.04116 0.00265363 1.12913e-21)
(1.04018 0.00513498 -2.39458e-21)
(1.03783 0.00637499 3.25349e-21)
(1.03643 0.00645298 -2.40662e-21)
(1.03377 0.0052428 -2.25607e-21)
(1.034 0.00311156 2.23968e-21)
(1.03146 -0.00143025 -2.63955e-21)
(1.03334 -0.00877126 2.97941e-21)
(1.02912 -0.0210833 3.5182e-22)
(1.03378 -0.0333795 0)
(1.03549 -0.0429958 -5.79518e-21)
(1.04628 -0.0588912 4.31824e-22)
(1.05733 -0.0608607 6.01129e-21)
(1.07499 -0.0755235 4.69317e-21)
(1.09535 -0.0649506 -9.54115e-21)
(0.989967 -0.00252548 -1.03259e-20)
(0.990343 -0.00394067 9.25717e-21)
(0.990595 -0.00441205 -9.29441e-21)
(0.990671 -0.00544817 -1.0142e-20)
(0.991475 -0.00619288 1.01985e-20)
(0.992294 -0.00807051 6.46136e-22)
(0.993763 -0.00942749 6.42028e-22)
(0.994656 -0.0113192 -5.27202e-24)
(0.996604 -0.012556 -5.10683e-21)
(0.99835 -0.0149164 5.44349e-21)
(1.00181 -0.0161757 0)
(1.00429 -0.018503 0)
(1.00754 -0.0194276 0)
(1.01058 -0.0210659 -2.54498e-21)
(1.01512 -0.0207905 2.39984e-21)
(1.01937 -0.0214263 2.63223e-22)
(1.02413 -0.0208649 0)
(1.02752 -0.0206763 0)
(1.03151 -0.0192411 0)
(1.03521 -0.0167432 0)
(1.0393 -0.0141641 1.1677e-23)
(1.0421 -0.0105079 0)
(1.04459 -0.00666069 0)
(1.04529 -0.00324861 -1.27557e-21)
(1.04498 -3.55536e-05 -2.86067e-23)
(1.04291 0.00306377 1.15296e-21)
(1.04178 0.00573098 0)
(1.03845 0.0076153 2.13694e-21)
(1.03652 0.00791362 6.39439e-23)
(1.03244 0.00708555 -2.3213e-21)
(1.03175 0.00450719 1.56738e-22)
(1.02794 0.000796998 0)
(1.02964 -0.00563577 2.84165e-21)
(1.02543 -0.0152611 -6.00861e-22)
(1.02788 -0.0297171 -2.94962e-21)
(1.02886 -0.0388758 3.88505e-22)
(1.03552 -0.0575451 -3.93333e-22)
(1.04592 -0.0623014 5.69508e-21)
(1.06008 -0.0808192 -5.66504e-21)
(1.08246 -0.0752772 0)
(0.989755 -0.00339758 -1.01436e-20)
(0.990034 -0.00496739 9.65218e-21)
(0.990297 -0.00552331 1.00896e-22)
(0.990281 -0.00674528 -2.10737e-20)
(0.991153 -0.00755683 1.06313e-20)
(0.992221 -0.0097827 -6.66707e-22)
(0.993754 -0.010756 0)
(0.99474 -0.0135174 -6.08705e-24)
(0.996722 -0.0143035 -4.64451e-21)
(0.998814 -0.017158 5.66998e-21)
(1.00217 -0.018316 0)
(1.00464 -0.0208184 0)
(1.00826 -0.0216878 2.73443e-21)
(1.01105 -0.0234161 -1.8348e-21)
(1.01579 -0.0234528 0)
(1.02032 -0.0239931 1.97388e-21)
(1.02521 -0.023179 -2.11312e-21)
(1.0292 -0.0225619 0)
(1.03295 -0.0212181 0)
(1.03697 -0.0188298 -1.28415e-23)
(1.04113 -0.0160266 -1.20809e-23)
(1.04369 -0.0120255 0)
(1.0467 -0.00775326 0)
(1.0475 -0.00376118 7.81088e-23)
(1.04805 -7.41612e-05 7.44127e-23)
(1.0459 0.00352982 0)
(1.04471 0.00656626 1.11891e-21)
(1.04071 0.00887993 -1.10997e-21)
(1.03819 0.00958899 0)
(1.03254 0.00946404 0)
(1.03058 0.00695715 0)
(1.02491 0.00360002 0)
(1.02549 -0.00223173 0)
(1.02122 -0.00880676 3.42269e-21)
(1.0222 -0.023261 -3.03401e-21)
(1.0225 -0.032848 -4.01387e-22)
(1.02557 -0.0531795 7.4996e-21)
(1.03467 -0.0614938 -7.06123e-21)
(1.04358 -0.0853519 0)
(1.06878 -0.0873525 -4.24367e-22)
(0.98875 -0.00392093 6.57131e-22)
(0.989133 -0.00566263 1.14288e-20)
(0.989486 -0.00634244 -1.07989e-20)
(0.989213 -0.00777324 -1.0346e-20)
(0.990331 -0.00864 1.66818e-20)
(0.99099 -0.0110609 -4.90068e-21)
(0.993231 -0.0122246 -4.90214e-21)
(0.993992 -0.0148485 1.19305e-20)
(0.996059 -0.0160545 -7.68616e-22)
(0.998156 -0.0190166 -5.91326e-21)
(1.00155 -0.0201665 0)
(1.00444 -0.0228239 0)
(1.00817 -0.0237463 -3.20198e-22)
(1.01123 -0.0255394 -2.72759e-21)
(1.01585 -0.0260395 2.42398e-21)
(1.02039 -0.0262366 2.17578e-21)
(1.02552 -0.0254592 -2.17929e-21)
(1.03011 -0.0244764 0)
(1.03459 -0.0231245 0)
(1.03817 -0.0206917 1.33016e-23)
(1.04236 -0.0177587 1.20028e-23)
(1.04476 -0.0136755 0)
(1.04821 -0.00900762 0)
(1.04919 -0.00421131 -1.19705e-21)
(1.05 -0.000410694 1.19511e-21)
(1.0477 0.00394721 1.11296e-21)
(1.0467 0.00713406 -1.11039e-21)
(1.04249 0.0106398 2.75516e-22)
(1.03977 0.0117099 -2.29462e-21)
(1.03344 0.0127045 2.28691e-21)
(1.03046 0.0101427 0)
(1.02329 0.00837634 0)
(1.02074 0.00116628 2.9259e-21)
(1.01638 -0.00422109 5.76773e-22)
(1.01467 -0.0173849 -6.78284e-21)
(1.01531 -0.0264629 3.69181e-21)
(1.01481 -0.0468385 -7.95714e-21)
(1.02447 -0.0570717 1.47539e-20)
(1.02608 -0.0812216 1.14403e-22)
(1.05285 -0.0950435 -6.81447e-21)
(0.988465 -0.00511568 0)
(0.988918 -0.00704889 1.05725e-20)
(0.989321 -0.00782181 -2.34857e-20)
(0.989093 -0.00936784 1.07873e-20)
(0.989912 -0.0104395 -7.35347e-22)
(0.99057 -0.0131638 -6.59436e-21)
(0.992587 -0.0142004 4.43142e-21)
(0.994165 -0.0172501 0)
(0.996263 -0.0183353 -5.06289e-21)
(0.998252 -0.0215863 5.09812e-21)
(1.00199 -0.0229487 0)
(1.00502 -0.0254484 5.41358e-21)
(1.0091 -0.0267514 -5.43102e-21)
(1.01277 -0.0283225 0)
(1.01678 -0.0290172 -2.0772e-21)
(1.02133 -0.0290662 2.38864e-21)
(1.02663 -0.0285235 1.35402e-22)
(1.03151 -0.0272663 0)
(1.03691 -0.0257213 -5.79458e-23)
(1.04054 -0.0228798 0)
(1.04501 -0.0195915 -3.1524e-25)
(1.04709 -0.0156611 4.4316e-23)
(1.05074 -0.0107864 8.11864e-23)
(1.05186 -0.00550908 0)
(1.05339 -0.000852146 0)
(1.05114 0.00402982 1.09089e-21)
(1.05034 0.00776924 -2.16845e-21)
(1.04581 0.0119969 -1.24643e-21)
(1.0429 0.0137511 4.55611e-21)
(1.03605 0.0159494 -2.2405e-21)
(1.03211 0.0136629 0)
(1.02369 0.0134418 0)
(1.01895 0.00640346 0)
(1.01292 0.0019989 -3.8438e-22)
(1.00811 -0.0103926 8.07056e-22)
(1.00814 -0.0190568 -4.33126e-22)
(1.00294 -0.0378222 -6.52166e-21)
(1.01259 -0.0500715 7.85681e-21)
(1.00939 -0.0745032 -4.91277e-22)
(1.0365 -0.0937353 -8.11096e-21)
(0.987243 -0.00575865 -1.24484e-20)
(0.987474 -0.00796511 7.31952e-22)
(0.987924 -0.00884379 1.20109e-20)
(0.987723 -0.0106115 -2.35113e-20)
(0.988712 -0.0117718 1.91465e-20)
(0.989198 -0.0146983 -6.17311e-21)
(0.991185 -0.0159071 1.5479e-21)
(0.992822 -0.01931 6.136e-21)
(0.995358 -0.0203511 -1.30018e-20)
(0.997551 -0.0236602 1.28208e-20)
(1.00106 -0.0253272 -5.99194e-21)
(1.00447 -0.0277566 -5.64689e-21)
(1.00867 -0.0294789 5.31765e-21)
(1.01284 -0.0304918 0)
(1.01724 -0.0313906 -3.18065e-22)
(1.02165 -0.0315447 2.31804e-21)
(1.02724 -0.0312071 -2.46256e-21)
(1.03195 -0.0297875 9.96451e-22)
(1.03771 -0.027948 -8.77929e-22)
(1.04178 -0.0250453 1.34564e-23)
(1.04696 -0.0212452 -3.92558e-22)
(1.04904 -0.0169375 1.0264e-21)
(1.05271 -0.0125311 -6.95774e-22)
(1.05374 -0.00621044 -1.16892e-21)
(1.0557 -0.00162353 1.16678e-21)
(1.05368 0.00469071 1.05973e-21)
(1.05259 0.00835447 -9.31484e-22)
(1.04799 0.013724 -1.25001e-22)
(1.04489 0.0157296 -1.37862e-22)
(1.038 0.0197499 -2.28436e-21)
(1.03341 0.0177087 2.559e-21)
(1.02515 0.0190782 0)
(1.01804 0.0129236 -3.32084e-22)
(1.0113 0.00970954 3.12944e-21)
(1.00239 -0.00153933 -6.50136e-21)
(1.00189 -0.0108993 3.34819e-21)
(0.99157 -0.027484 -8.13216e-21)
(0.999875 -0.0416948 -4.49546e-22)
(0.99232 -0.0648593 1.68974e-20)
(1.01516 -0.0874617 -7.79225e-21)
(0.986961 -0.00741209 1.53396e-21)
(0.987088 -0.0097746 1.24805e-20)
(0.987802 -0.0108143 -1.09688e-20)
(0.98742 -0.0127162 -1.60022e-21)
(0.988691 -0.0139566 0)
(0.989252 -0.0170787 0)
(0.991109 -0.0184545 -8.09018e-22)
(0.992624 -0.0220082 0)
(0.995369 -0.0235662 6.3775e-21)
(0.99776 -0.0264539 -1.18679e-20)
(1.00145 -0.0287543 6.28466e-21)
(1.00511 -0.0309219 3.77557e-22)
(1.00933 -0.0331753 -1.40019e-24)
(1.01364 -0.0339319 3.47541e-22)
(1.01906 -0.0349483 0)
(1.02346 -0.0349018 0)
(1.02965 -0.0346179 -1.43603e-22)
(1.0341 -0.0331081 1.3205e-22)
(1.04 -0.0311577 -6.15256e-23)
(1.04376 -0.0280902 -1.39967e-23)
(1.04995 -0.0245122 0)
(1.05251 -0.0190275 0)
(1.0567 -0.0145959 -1.63349e-22)
(1.05737 -0.00792178 -1.07082e-21)
(1.05969 -0.00286421 1.20631e-21)
(1.05775 0.00394307 0)
(1.05717 0.00835307 -1.30303e-22)
(1.05256 0.0148114 1.29952e-22)
(1.04928 0.0173511 2.07132e-21)
(1.04232 0.0228854 -1.93795e-21)
(1.03703 0.0217768 -2.91962e-22)
(1.02838 0.0244918 0)
(1.01902 0.0193763 3.44897e-22)
(1.01236 0.0170511 3.51096e-22)
(1.00023 0.00876698 -4.10195e-22)
(0.998246 -0.000842269 -7.22865e-21)
(0.984561 -0.0145193 -5.9564e-22)
(0.98873 -0.0289537 7.2274e-21)
(0.976934 -0.0516363 5.21723e-22)
(0.995428 -0.0752577 -5.53034e-22)
(0.98544 -0.00824901 -1.38623e-20)
(0.985636 -0.0109511 1.31841e-20)
(0.986204 -0.0121092 -2.74647e-20)
(0.9858 -0.0142951 2.87185e-20)
(0.986826 -0.0156894 -1.36398e-20)
(0.987525 -0.0190607 -6.84961e-21)
(0.989532 -0.0205824 6.9004e-21)
(0.991167 -0.0243554 6.79438e-21)
(0.993893 -0.026246 -1.26872e-20)
(0.996499 -0.0289105 1.33309e-20)
(1.00045 -0.0319032 -6.60673e-21)
(1.00425 -0.0335697 -3.9299e-22)
(1.0091 -0.0360922 -2.20164e-21)
(1.01307 -0.0370638 -2.08535e-22)
(1.01903 -0.0380603 3.16608e-21)
(1.0237 -0.037861 2.63242e-21)
(1.0304 -0.0375292 -2.32746e-21)
(1.03523 -0.0356014 -2.40688e-24)
(1.04191 -0.0337534 6.12709e-23)
(1.04546 -0.0301244 0)
(1.05167 -0.0269737 -1.22521e-23)
(1.05434 -0.0210691 0)
(1.05907 -0.0163791 8.28185e-23)
(1.06014 -0.00881923 -5.45762e-24)
(1.06279 -0.0035762 8.84641e-22)
(1.06136 0.00437413 -1.01325e-21)
(1.06059 0.00886718 9.34728e-22)
(1.05621 0.0164011 1.0507e-21)
(1.05262 0.0193955 -1.97588e-21)
(1.04589 0.0263087 -1.30355e-22)
(1.03927 0.0264985 0)
(1.03218 0.0305202 -2.41223e-21)
(1.01989 0.0277924 2.39962e-21)
(1.01344 0.0247815 -3.65042e-22)
(0.998811 0.0201313 0)
(0.995441 0.0103995 0)
(0.979517 1.36185e-05 0)
(0.980767 -0.0146075 0)
(0.965059 -0.0337668 -9.89159e-21)
(0.977969 -0.0599819 1.74718e-20)
(0.985165 -0.0104767 1.37466e-20)
(0.98527 -0.0133921 -8.12005e-22)
(0.985993 -0.0146446 -2.8248e-20)
(0.985726 -0.0170516 -9.77848e-22)
(0.986703 -0.0185379 1.44691e-20)
(0.987568 -0.021925 0)
(0.989536 -0.0239752 0)
(0.99141 -0.0273801 0)
(0.994123 -0.0301304 6.19138e-21)
(0.996932 -0.032421 -7.99107e-21)
(1.0011 -0.0359667 4.30384e-22)
(1.00466 -0.0376045 -6.47711e-21)
(1.01037 -0.040218 6.10552e-21)
(1.01437 -0.0412442 -3.77542e-22)
(1.02071 -0.0423103 -1.46015e-24)
(1.02545 -0.0420357 -1.43037e-24)
(1.03254 -0.0419656 0)
(1.03739 -0.039792 -2.79154e-22)
(1.04513 -0.0377957 -6.39435e-23)
(1.04905 -0.0335375 -1.38242e-23)
(1.05572 -0.0304078 4.02253e-22)
(1.05846 -0.024067 -4.19916e-22)
(1.06332 -0.0196262 7.51306e-23)
(1.06458 -0.0114577 -7.23984e-23)
(1.06756 -0.00607505 1.23742e-22)
(1.06675 0.002931 7.79964e-22)
(1.06648 0.00810386 -8.83543e-22)
(1.06261 0.0170005 -1.71248e-21)
(1.05844 0.0202408 1.57838e-22)
(1.05301 0.0287347 1.73518e-21)
(1.04433 0.0302697 0)
(1.03841 0.0345341 2.37805e-22)
(1.02537 0.0357049 0)
(1.01826 0.032983 2.4757e-21)
(1.0021 0.0309021 -5.86626e-21)
(0.996187 0.0225737 9.95175e-21)
(0.978219 0.014809 -1.47968e-20)
(0.975906 0.00124519 7.96011e-21)
(0.957315 -0.0134875 -8.20049e-21)
(0.96459 -0.0405957 8.67222e-21)
(0.982855 -0.0116662 -9.25994e-22)
(0.983111 -0.0149572 1.67127e-20)
(0.983905 -0.0163018 -1.49682e-20)
(0.983783 -0.0189862 9.63981e-22)
(0.984886 -0.0206013 0)
(0.985866 -0.0241964 -9.77736e-22)
(0.987723 -0.0267759 0)
(0.989775 -0.0298824 8.57554e-21)
(0.992672 -0.0335376 -1.11501e-21)
(0.99539 -0.0356061 -6.59443e-21)
(1.00016 -0.0393761 -4.49457e-22)
(1.00346 -0.041224 -4.37062e-22)
(1.00961 -0.0438463 0)
(1.01398 -0.0448983 -2.66192e-21)
(1.02076 -0.0461736 2.69405e-21)
(1.02561 -0.0454883 2.46359e-21)
(1.03353 -0.0454752 -2.79842e-21)
(1.03821 -0.0429806 1.44421e-22)
(1.04635 -0.0414023 -4.1937e-22)
(1.0508 -0.0361787 4.96791e-22)
(1.05794 -0.0334736 -1.27368e-23)
(1.06132 -0.0262404 8.63299e-23)
(1.06679 -0.0214604 -7.85597e-23)
(1.06832 -0.0127904 6.17068e-23)
(1.07132 -0.0073641 -6.10945e-23)
(1.07095 0.00244278 9.99194e-22)
(1.07026 0.00768791 -8.76148e-22)
(1.06829 0.0184654 -1.49376e-21)
(1.06274 0.0224406 1.44988e-21)
(1.05923 0.0310063 8.37386e-23)
(1.04918 0.0363468 0)
(1.04332 0.0393055 -2.19397e-21)
(1.03013 0.0437038 1.70292e-21)
(1.02236 0.0419443 2.57759e-21)
(1.00572 0.0430032 -2.20375e-21)
(0.998189 0.0362462 0)
(0.978954 0.0316565 -6.71781e-21)
(0.973724 0.018906 6.61958e-21)
(0.952717 0.00876805 0)
(0.953358 -0.0166688 5.62733e-22)
(0.98236 -0.0146689 8.24871e-22)
(0.982724 -0.0182827 -1.67846e-20)
(0.98352 -0.0197368 1.61057e-20)
(0.983554 -0.0226527 -3.3547e-20)
(0.984676 -0.0245728 2.56868e-20)
(0.985894 -0.0278983 -7.2518e-21)
(0.988034 -0.0312029 0)
(0.990134 -0.0339074 -1.01258e-21)
(0.993692 -0.0381974 -6.9432e-21)
(0.996072 -0.0402097 7.00082e-21)
(1.00134 -0.0440724 4.80007e-22)
(1.00484 -0.0461849 -7.1587e-21)
(1.01122 -0.0489349 1.01422e-20)
(1.01567 -0.0499017 -3.40652e-21)
(1.02304 -0.0515617 0)
(1.02769 -0.0504422 0)
(1.0364 -0.0509125 1.63706e-22)
(1.04135 -0.0475351 -9.54303e-22)
(1.04983 -0.0466008 1.45363e-21)
(1.05458 -0.0408184 -4.83799e-22)
(1.06219 -0.0376991 3.744e-22)
(1.066 -0.0305391 -3.66165e-22)
(1.07147 -0.0259987 -6.66352e-23)
(1.07453 -0.0161505 -9.60695e-22)
(1.07688 -0.0109212 8.9376e-22)
(1.079 0.000258273 6.57603e-22)
(1.07655 0.0057646 3.48559e-23)
(1.07678 0.0165243 4.9626e-22)
(1.07042 0.0237389 -1.34267e-21)
(1.06821 0.0306822 -1.50308e-22)
(1.05835 0.0393552 1.3736e-22)
(1.05239 0.0433963 -1.56928e-22)
(1.03911 0.0497155 2.42582e-22)
(1.03106 0.0498724 2.46561e-21)
(1.01436 0.0527649 -5.02864e-21)
(1.00538 0.0484159 2.51579e-21)
(0.985509 0.0478799 0)
(0.977577 0.0365501 0)
(0.954927 0.0317336 0)
(0.950285 0.00761858 8.43084e-21)
(0.9793 -0.0162913 0)
(0.979907 -0.0202933 1.70039e-20)