/*--------------------------------*- C++ -*----------------------------------*\
| =========                 |                                                 |
| \\      /  F ield         | OpenFOAM: The Open Source CFD Toolbox           |
|  \\    /   O peration     | Version:  2406                                  |
|   \\  /    A nd           | Website:  www.openfoam.com                      |
|    \\/     M anipulation  |                                                 |
\*---------------------------------------------------------------------------*/
FoamFile
{
    version     2.0;
    format      ascii;
    arch        "LSB;label=32;scalar=64";
    class       volScalarField;
    location    "6600";
    object      p;
}
// * * * * * * * * * * * * * * * * * * * * * * * * * * * * * * * * * * * * * //

dimensions      [0 2 -2 0 0 0 0];

internalField   nonuniform List<scalar> 
16384
(
1.101386e-13
1.754288e-12
5.658517e-14
-6.35582e-12
-1.725008e-11
-3.215476e-11
-5.049519e-11
-7.165937e-11
-9.505296e-11
-1.201227e-10
-1.463642e-10
-1.733231e-10
-2.005928e-10
-2.278111e-10
-2.546566e-10
-2.808453e-10
-3.06126e-10
-3.302776e-10
-3.531062e-10
-3.74442e-10
-3.94137e-10
-4.120632e-10
-4.281102e-10
-4.42184e-10
-4.542049e-10
-4.641065e-10
-4.718342e-10
-4.773444e-10
-4.806033e-10
-4.815859e-10
-4.802751e-10
-4.766611e-10
-4.707409e-10
-4.625176e-10
-4.520001e-10
-4.392024e-10
-4.241434e-10
-4.068466e-10
-3.873397e-10
-3.656547e-10
-3.418272e-10
-3.158969e-10
-2.879067e-10
-2.579034e-10
-2.259371e-10
-1.920613e-10
-1.563331e-10
-1.188126e-10
-7.956369e-11
-3.865356e-11
3.847132e-12
4.786429e-11
9.33204e-11
1.401346e-10
1.882224e-10
2.374962e-10
2.878647e-10
3.392333e-10
3.915037e-10
4.445748e-10
4.983417e-10
5.52697e-10
6.075298e-10
6.627266e-10
7.18171e-10
7.737441e-10
8.293247e-10
8.847897e-10
9.40014e-10
9.94871e-10
1.049233e-09
1.102971e-09
1.155955e-09
1.208058e-09
1.259148e-09
1.309099e-09
1.357783e-09
1.405075e-09
1.450851e-09
1.494991e-09
1.537376e-09
1.577895e-09
1.616436e-09
1.652895e-09
1.687174e-09
1.719177e-09
1.74882e-09
1.776021e-09
1.800709e-09
1.822819e-09
1.842295e-09
1.859092e-09
1.873173e-09
1.884511e-09
1.893091e-09
1.898907e-09
1.901968e-09
1.902291e-09
1.899909e-09
1.894865e-09
1.887218e-09
1.877038e-09
1.864412e-09
1.849438e-09
1.832233e-09
1.812927e-09
1.791665e-09
1.768612e-09
1.743946e-09
1.717867e-09
1.690591e-09
1.662353e-09
1.633411e-09
1.604043e-09
1.574552e-09
1.545263e-09
1.516529e-09
1.488731e-09
1.462277e-09
1.437604e-09
1.415178e-09
1.395485e-09
1.379015e-09
1.366238e-09
1.357535e-09
1.35312e-09
1.35287e-09
1.355113e-09
-1.397151e-12
1.913703e-13
-1.466125e-12
-7.464893e-12
-1.742377e-11
-3.093284e-11
-4.752934e-11
-6.670685e-11
-8.795903e-11
-1.10803e-10
-1.347886e-10
-1.595028e-10
-1.845705e-10
-2.096534e-10
-2.344476e-10
-2.586821e-10
-2.821151e-10
-3.045324e-10
-3.257446e-10
-3.455847e-10
-3.639065e-10
-3.805821e-10
-3.955011e-10
-4.085683e-10
-4.197026e-10
-4.288357e-10
-4.359109e-10
-4.408824e-10
-4.437138e-10
-4.443774e-10
-4.428535e-10
-4.391295e-10
-4.331998e-10
-4.250648e-10
-4.147307e-10
-4.022089e-10
-3.875157e-10
-3.706721e-10
-3.517035e-10
-3.306392e-10
-3.075127e-10
-2.823611e-10
-2.552253e-10
-2.261497e-10
-1.951822e-10
-1.62374e-10
-1.2778e-10
-9.145806e-11
-5.346985e-11
-1.388025e-11
2.724242e-11
6.982645e-11
1.137968e-10
1.590751e-10
2.055798e-10
2.532257e-10
3.019244e-10
3.515843e-10
4.021103e-10
4.534043e-10
5.05365e-10
5.578883e-10
6.108671e-10
6.641915e-10
7.177492e-10
7.714254e-10
8.251031e-10
8.786635e-10
9.319861e-10
9.849489e-10
1.037429e-09
1.089302e-09
1.140444e-09
1.190732e-09
1.24004e-09
1.288246e-09
1.335229e-09
1.380867e-09
1.425043e-09
1.467643e-09
1.508553e-09
1.547665e-09
1.584875e-09
1.620084e-09
1.653197e-09
1.684126e-09
1.712788e-09
1.739109e-09
1.763021e-09
1.784462e-09
1.803383e-09
1.81974e-09
1.8335e-09
1.844639e-09
1.853145e-09
1.859016e-09
1.862259e-09
1.862897e-09
1.860961e-09
1.856496e-09
1.84956e-09
1.840225e-09
1.828574e-09
1.814707e-09
1.798737e-09
1.78079e-09
1.76101e-09
1.739556e-09
1.716603e-09
1.692341e-09
1.666981e-09
1.640749e-09
1.613891e-09
1.586673e-09
1.559382e-09
1.532324e-09
1.50583e-09
1.480251e-09
1.455961e-09
1.433355e-09
1.412842e-09
1.394843e-09
1.379772e-09
1.368009e-09
1.359856e-09
1.355514e-09
1.355107e-09
1.357353e-09
3.189412e-13
1.855984e-12
1.979439e-13
-5.524947e-12
-1.477061e-11
-2.715401e-11
-4.228899e-11
-5.975229e-11
-7.911383e-11
-9.995537e-11
-1.218797e-10
-1.445162e-10
-1.675232e-10
-1.905884e-10
-2.134286e-10
-2.357883e-10
-2.574377e-10
-2.781715e-10
-2.978068e-10
-3.161814e-10
-3.331519e-10
-3.485927e-10
-3.623941e-10
-3.744609e-10
-3.847118e-10
-3.930772e-10
-3.994993e-10
-4.039303e-10
-4.063318e-10
-4.066742e-10
-4.049352e-10
-4.011002e-10
-3.95161e-10
-3.871154e-10
-3.769673e-10
-3.647256e-10
-3.504041e-10
-3.340214e-10
-3.156003e-10
-2.951679e-10
-2.727552e-10
-2.48397e-10
-2.221319e-10
-1.940018e-10
-1.640524e-10
-1.323327e-10
-9.889486e-11
-6.379475e-11
-2.709148e-11
1.115244e-11
5.087117e-11
9.199555e-11
1.344532e-10
1.781685e-10
2.230625e-10
2.69053e-10
3.160547e-10
3.639788e-10
4.127336e-10
4.622244e-10
5.123534e-10
5.630199e-10
6.141207e-10
6.655498e-10
7.171989e-10
7.689573e-10
8.207125e-10
8.723501e-10
9.237539e-10
9.748069e-10
1.025391e-09
1.075386e-09
1.124674e-09
1.173136e-09
1.220653e-09
1.267107e-09
1.312381e-09
1.356361e-09
1.398934e-09
1.439989e-09
1.479421e-09
1.517126e-09
1.553005e-09
1.586963e-09
1.618911e-09
1.648766e-09
1.676449e-09
1.701891e-09
1.725026e-09
1.745801e-09
1.764166e-09
1.780083e-09
1.793521e-09
1.80446e-09
1.812889e-09
1.818809e-09
1.82223e-09
1.823173e-09
1.821673e-09
1.817775e-09
1.811536e-09
1.803027e-09
1.792332e-09
1.779546e-09
1.764781e-09
1.74816e-09
1.729823e-09
1.709923e-09
1.68863e-09
1.666126e-09
1.642613e-09
1.618308e-09
1.593445e-09
1.568275e-09
1.543067e-09
1.518109e-09
1.493707e-09
1.470182e-09
1.447873e-09
1.427133e-09
1.408323e-09
1.391804e-09
1.377928e-09
1.367015e-09
1.359324e-09
1.355088e-09
1.354692e-09
1.357111e-09
6.729101e-12
7.860648e-12
5.925563e-12
1.939439e-13
-8.731815e-12
-2.047157e-11
-3.467764e-11
-5.097869e-11
-6.899853e-11
-8.836907e-11
-1.087371e-10
-1.297695e-10
-1.511558e-10
-1.726096e-10
-1.938682e-10
-2.146928e-10
-2.348673e-10
-2.541967e-10
-2.725065e-10
-2.896405e-10
-3.054602e-10
-3.198434e-10
-3.326828e-10
-3.43885e-10
-3.533692e-10
-3.610661e-10
-3.669176e-10
-3.708752e-10
-3.728997e-10
-3.7296e-10
-3.710325e-10
-3.671007e-10
-3.611549e-10
-3.531911e-10
-3.432111e-10
-3.312219e-10
-3.172353e-10
-3.012678e-10
-2.833401e-10
-2.634773e-10
-2.417083e-10
-2.180658e-10
-1.925862e-10
-1.653093e-10
-1.362786e-10
-1.055409e-10
-7.314629e-11
-3.914833e-11
-3.603884e-12
3.342683e-11
7.188033e-11
1.116899e-10
1.527857e-10
1.950945e-10
2.385402e-10
2.830432e-10
3.285209e-10
3.748876e-10
4.220546e-10
4.6993e-10
5.184195e-10
5.674257e-10
6.168487e-10
6.665861e-10
7.165332e-10
7.665832e-10
8.166273e-10
8.665551e-10
9.162545e-10
9.656125e-10
1.014515e-09
1.062848e-09
1.110495e-09
1.157344e-09
1.203278e-09
1.248185e-09
1.291953e-09
1.334472e-09
1.375634e-09
1.415332e-09
1.453465e-09
1.489934e-09
1.524645e-09
1.557506e-09
1.588433e-09
1.617347e-09
1.644173e-09
1.668844e-09
1.691301e-09
1.711491e-09
1.729368e-09
1.744898e-09
1.758051e-09
1.768811e-09
1.777168e-09
1.783124e-09
1.786691e-09
1.787891e-09
1.786758e-09
1.783339e-09
1.777689e-09
1.769879e-09
1.75999e-09
1.748117e-09
1.734367e-09
1.718861e-09
1.701734e-09
1.683134e-09
1.663222e-09
1.642177e-09
1.620191e-09
1.597468e-09
1.574233e-09
1.550722e-09
1.527187e-09
1.503897e-09
1.481135e-09
1.459196e-09
1.43839e-09
1.419033e-09
1.401449e-09
1.385958e-09
1.372873e-09
1.362486e-09
1.355044e-09
1.350824e-09
1.350354e-09
1.352726e-09
1.76387e-11
1.784451e-11
1.518846e-11
9.106214e-12
1.557137e-13
-1.130535e-11
-2.496058e-11
-4.048036e-11
-5.753274e-11
-7.579243e-11
-9.494535e-11
-1.146928e-10
-1.347542e-10
-1.548683e-10
-1.747936e-10
-1.943088e-10
-2.132121e-10
-2.313202e-10
-2.484681e-10
-2.645073e-10
-2.793053e-10
-2.927446e-10
-3.047215e-10
-3.151452e-10
-3.239366e-10
-3.310278e-10
-3.363611e-10
-3.398882e-10
-3.415697e-10
-3.413738e-10
-3.392761e-10
-3.35259e-10
-3.293115e-10
-3.214283e-10
-3.116097e-10
-2.99861e-10
-2.861922e-10
-2.706181e-10
-2.531577e-10
-2.33834e-10
-2.12674e-10
-1.897085e-10
-1.649718e-10
-1.385019e-10
-1.103399e-10
-8.053058e-11
-4.912201e-11
-1.616551e-11
1.828426e-11
5.416938e-11
9.142872e-11
1.29998e-10
1.698097e-10
2.107933e-10
2.52875e-10
2.959781e-10
3.400227e-10
3.84926e-10
4.306019e-10
4.769619e-10
5.239145e-10
5.713655e-10
6.192185e-10
6.673742e-10
7.157316e-10
7.641872e-10
8.126359e-10
8.609709e-10
9.090841e-10
9.568663e-10
1.004207e-09
1.050996e-09
1.097123e-09
1.142476e-09
1.186946e-09
1.230424e-09
1.2728e-09
1.31397e-09
1.35383e-09
1.392277e-09
1.429214e-09
1.464546e-09
1.498181e-09
1.530034e-09
1.560023e-09
1.588072e-09
1.614111e-09
1.638075e-09
1.659908e-09
1.67956e-09
1.696988e-09
1.71216e-09
1.725049e-09
1.735639e-09
1.743923e-09
1.749904e-09
1.753594e-09
1.755017e-09
1.754207e-09
1.751209e-09
1.746079e-09
1.738885e-09
1.729707e-09
1.718637e-09
1.705779e-09
1.691251e-09
1.675183e-09
1.657716e-09
1.639007e-09
1.619225e-09
1.598552e-09
1.577186e-09
1.555336e-09
1.533224e-09
1.511088e-09
1.489177e-09
1.467753e-09
1.447086e-09
1.427458e-09
1.409157e-09
1.392473e-09
1.377695e-09
1.365106e-09
1.354975e-09
1.347545e-09
1.343108e-09
1.342218e-09
1.344088e-09
3.260591e-11
3.142114e-11
2.762123e-11
2.085036e-11
1.155366e-11
4.823134e-14
-1.338124e-11
-2.844322e-11
-4.484542e-11
-6.230082e-11
-8.053093e-11
-9.92691e-11
-1.18263e-10
-1.372756e-10
-1.560867e-10
-1.744926e-10
-1.923065e-10
-2.093578e-10
-2.254916e-10
-2.405683e-10
-2.544624e-10
-2.67062e-10
-2.78268e-10
-2.879929e-10
-2.961606e-10
-3.027049e-10
-3.075697e-10
-3.107075e-10
-3.120791e-10
-3.116528e-10
-3.094039e-10
-3.053142e-10
-2.993719e-10
-2.915707e-10
-2.819096e-10
-2.703928e-10
-2.570288e-10
-2.418308e-10
-2.248161e-10
-2.060062e-10
-1.854262e-10
-1.631051e-10
-1.390752e-10
-1.133726e-10
-8.603651e-11
-5.710955e-11
-2.663772e-11
5.32978e-12
3.874048e-11
7.353871e-11
1.096657e-10
1.470594e-10
1.856548e-10
2.253839e-10
2.661755e-10
3.079553e-10
3.506463e-10
3.941683e-10
4.384381e-10
4.833702e-10
5.288759e-10
5.748642e-10
6.212417e-10
6.679125e-10
7.147786e-10
7.6174e-10
8.086951e-10
8.555405e-10
9.021716e-10
9.484827e-10
9.943673e-10
1.039718e-09
1.084429e-09
1.128392e-09
1.171501e-09
1.213651e-09
1.254737e-09
1.294658e-09
1.333312e-09
1.370601e-09
1.406432e-09
1.440713e-09
1.473356e-09
1.504279e-09
1.533402e-09
1.560653e-09
1.585966e-09
1.609277e-09
1.630534e-09
1.649689e-09
1.666702e-09
1.68154e-09
1.694181e-09
1.70461e-09
1.712819e-09
1.718814e-09
1.722608e-09
1.724223e-09
1.723694e-09
1.721064e-09
1.71639e-09
1.709737e-09
1.701183e-09
1.690818e-09
1.678742e-09
1.665069e-09
1.649923e-09
1.633441e-09
1.615772e-09
1.597078e-09
1.577532e-09
1.55732e-09
1.536639e-09
1.515699e-09
1.494721e-09
1.473936e-09
1.453585e-09
1.433918e-09
1.41519e-09
1.397662e-09
1.381597e-09
1.367256e-09
1.354896e-09
1.344764e-09
1.337094e-09
1.332166e-09
1.330482e-09
1.331404e-09
5.109137e-11
4.815702e-11
4.286352e-11
3.510165e-11
2.516686e-11
1.332554e-11
-1.699508e-13
-1.506427e-11
-3.110182e-11
-4.803063e-11
-6.560476e-11
-8.358727e-11
-1.017524e-10
-1.198867e-10
-1.377904e-10
-1.552775e-10
-1.721766e-10
-1.8833e-10
-2.035939e-10
-2.17838e-10
-2.309445e-10
-2.42808e-10
-2.533346e-10
-2.624413e-10
-2.700552e-10
-2.761131e-10
-2.805607e-10
-2.83352e-10
-2.844487e-10
-2.838196e-10
-2.814402e-10
-2.772923e-10
-2.713635e-10
-2.636471e-10
-2.541413e-10
-2.42849e-10
-2.297777e-10
-2.149393e-10
-1.983497e-10
-1.800287e-10
-1.600001e-10
-1.382909e-10
-1.149318e-10
-8.995694e-11
-6.340361e-11
-3.531253e-11
-5.727659e-12
2.530388e-11
5.773178e-11
9.150259e-11
1.265597e-10
1.628436e-10
2.002915e-10
2.388379e-10
2.784139e-10
3.189481e-10
3.603659e-10
4.025898e-10
4.455394e-10
4.891319e-10
5.332816e-10
5.779003e-10
6.228976e-10
6.681807e-10
7.136547e-10
7.592228e-10
8.047864e-10
8.502455e-10
8.954987e-10
9.404436e-10
9.849771e-10
1.028996e-09
1.072395e-09
1.115073e-09
1.156925e-09
1.197849e-09
1.237745e-09
1.276514e-09
1.314058e-09
1.350283e-09
1.385098e-09
1.418413e-09
1.450146e-09
1.480214e-09
1.508544e-09
1.535064e-09
1.559711e-09
1.582424e-09
1.603152e-09
1.62185e-09
1.63848e-09
1.65301e-09
1.665419e-09
1.675694e-09
1.683828e-09
1.689826e-09
1.693702e-09
1.695479e-09
1.695189e-09
1.692877e-09
1.688596e-09
1.682411e-09
1.674397e-09
1.664641e-09
1.653239e-09
1.640301e-09
1.625946e-09
1.610305e-09
1.59352e-09
1.575745e-09
1.557145e-09
1.537893e-09
1.518178e-09
1.498193e-09
1.478145e-09
1.458249e-09
1.438726e-09
1.419805e-09
1.401719e-09
1.384705e-09
1.369001e-09
1.354841e-09
1.342459e-09
1.332081e-09
1.323924e-09
1.318239e-09
1.31543e-09
1.315042e-09
7.252484e-11
6.758079e-11
6.05211e-11
5.151373e-11
4.068824e-11
2.82567e-11
1.443967e-11
-5.421157e-13
-1.646736e-11
-3.311645e-11
-5.027346e-11
-6.772902e-11
-8.528242e-11
-1.027426e-10
-1.199296e-10
-1.366751e-10
-1.528226e-10
-1.682278e-10
-1.827583e-10
-1.962935e-10
-2.08724e-10
-2.199513e-10
-2.298876e-10
-2.384548e-10
-2.455839e-10
-2.512151e-10
-2.552966e-10
-2.577843e-10
-2.586415e-10
-2.57838e-10
-2.553499e-10
-2.511594e-10
-2.452539e-10
-2.376266e-10
-2.282749e-10
-2.172012e-10
-2.044121e-10
-1.899183e-10
-1.737345e-10
-1.558793e-10
-1.363748e-10
-1.152466e-10
-9.252365e-11
-6.823831e-11
-4.242615e-11
-1.512597e-11
1.362024e-11
4.376738e-11
7.526724e-11
1.080685e-10
1.421169e-10
1.77355e-10
2.137224e-10
2.51156e-10
2.895895e-10
3.289538e-10
3.691768e-10
4.101837e-10
4.518969e-10
4.94236e-10
5.371181e-10
5.80458e-10
6.24168e-10
6.681581e-10
7.123364e-10
7.566091e-10
8.008805e-10
8.450536e-10
8.8903e-10
9.327105e-10
9.75995e-10
1.018783e-09
1.060973e-09
1.102466e-09
1.143161e-09
1.182959e-09
1.221762e-09
1.259474e-09
1.296001e-09
1.331252e-09
1.365136e-09
1.397569e-09
1.42847e-09
1.457759e-09
1.485364e-09
1.511218e-09
1.535257e-09
1.557424e-09
1.577669e-09
1.595949e-09
1.612227e-09
1.626473e-09
1.638666e-09
1.648794e-09
1.656852e-09
1.662843e-09
1.666782e-09
1.668691e-09
1.668603e-09
1.666559e-09
1.662613e-09
1.656826e-09
1.649271e-09
1.640032e-09
1.629202e-09
1.616885e-09
1.603196e-09
1.58826e-09
1.572212e-09
1.555198e-09
1.537373e-09
1.518902e-09
1.499961e-09
1.48073e-09
1.461403e-09
1.442177e-09
1.423257e-09
1.404852e-09
1.387175e-09
1.370439e-09
1.354861e-09
1.340651e-09
1.328019e-09
1.317169e-09
1.308297e-09
1.301619e-09
1.297412e-09
1.295438e-09
9.635554e-11
8.922252e-11
8.019364e-11
6.973594e-11
5.780884e-11
4.457082e-11
3.021236e-11
1.492161e-11
-1.112073e-12
-1.769887e-11
-3.46506e-11
-5.178355e-11
-6.892051e-11
-8.589174e-11
-1.025362e-10
-1.187028e-10
-1.342498e-10
-1.490463e-10
-1.629713e-10
-1.759144e-10
-1.877747e-10
-1.984613e-10
-2.078927e-10
-2.159961e-10
-2.227074e-10
-2.279702e-10
-2.317358e-10
-2.339626e-10
-2.346158e-10
-2.336666e-10
-2.310922e-10
-2.268753e-10
-2.210039e-10
-2.134708e-10
-2.042736e-10
-1.93414e-10
-1.808979e-10
-1.667352e-10
-1.509395e-10
-1.335284e-10
-1.145224e-10
-9.394591e-11
-7.182621e-11
-4.819403e-11
-2.30832e-11
3.469274e-12
3.142329e-11
6.073571e-11
9.136034e-11
1.23248e-10
1.563465e-10
1.906008e-10
2.259527e-10
2.623413e-10
2.997027e-10
3.379704e-10
3.770747e-10
4.169432e-10
4.575008e-10
4.986698e-10
5.403701e-10
5.825189e-10
6.250312e-10
6.678199e-10
7.107958e-10
7.538676e-10
7.969426e-10
8.399266e-10
8.82724e-10
9.252382e-10
9.67372e-10
1.009028e-09
1.050107e-09
1.090512e-09
1.130147e-09
1.168913e-09
1.206717e-09
1.243464e-09
1.279063e-09
1.313425e-09
1.346463e-09
1.378093e-09
1.408237e-09
1.436818e-09
1.463766e-09
1.489015e-09
1.512502e-09
1.534174e-09
1.55398e-09
1.57188e-09
1.587836e-09
1.601821e-09
1.613815e-09
1.623804e-09
1.631784e-09
1.63776e-09
1.641744e-09
1.643759e-09
1.643835e-09
1.642014e-09
1.638346e-09
1.632892e-09
1.625721e-09
1.616913e-09
1.606559e-09
1.594757e-09
1.581617e-09
1.567259e-09
1.55181e-09
1.535409e-09
1.518202e-09
1.500344e-09
1.482e-09
1.463339e-09
1.44454e-09
1.425785e-09
1.407263e-09
1.389165e-09
1.371685e-09
1.355016e-09
1.339353e-09
1.324885e-09
1.311799e-09
1.300275e-09
1.29049e-09
1.28262e-09
1.276801e-09
1.27304e-09
1.220742e-10
1.126354e-10
1.014926e-10
8.942545e-11
7.622542e-11
6.200045e-11
4.691376e-11
3.112353e-11
1.478975e-11
-1.925144e-12
-1.885861e-11
-3.585076e-11
-5.274638e-11
-6.939582e-11
-8.565626e-11
-1.013928e-10
-1.164786e-10
-1.307957e-10
-1.442346e-10
-1.56695e-10
-1.68085e-10
-1.783214e-10
-1.873293e-10
-1.950418e-10
-2.013997e-10
-2.063506e-10
-2.098494e-10
-2.118573e-10
-2.123415e-10
-2.112753e-10
-2.086371e-10
-2.044108e-10
-1.985848e-10
-1.911523e-10
-1.821108e-10
-1.714618e-10
-1.592107e-10
-1.453669e-10
-1.299431e-10
-1.129557e-10
-9.442422e-11
-7.437158e-11
-5.282373e-11
-2.980983e-11
-5.362078e-12
2.048425e-11
4.769086e-11
7.62165e-11
1.06017e-10
1.370451e-10
1.692509e-10
2.025814e-10
2.369806e-10
2.723899e-10
3.087478e-10
3.459899e-10
3.840491e-10
4.228553e-10
4.62336e-10
5.024159e-10
5.430173e-10
5.8406e-10
6.254617e-10
6.671376e-10
7.090012e-10
7.509638e-10
7.929352e-10
8.348238e-10
8.765365e-10
9.179794e-10
9.590577e-10
9.996761e-10
1.039739e-09
1.079151e-09
1.117818e-09
1.155645e-09
1.19254e-09
1.22841e-09
1.263168e-09
1.296724e-09
1.328995e-09
1.3599e-09
1.389361e-09
1.417304e-09
1.443659e-09
1.468362e-09
1.491352e-09
1.512577e-09
1.531988e-09
1.549544e-09
1.56521e-09
1.578957e-09
1.590767e-09
1.600625e-09
1.608529e-09
1.614481e-09
1.618494e-09
1.620589e-09
1.620797e-09
1.619156e-09
1.615715e-09
1.610532e-09
1.603674e-09
1.595218e-09
1.585249e-09
1.573863e-09
1.561163e-09
1.547263e-09
1.532285e-09
1.51636e-09
1.499625e-09
1.482226e-09
1.464316e-09
1.446055e-09
1.427607e-09
1.409142e-09
1.390831e-09
1.372852e-09
1.355378e-09
1.338586e-09
1.32265e-09
1.307739e-09
1.294019e-09
1.281647e-09
1.27078e-09
1.261553e-09
1.253964e-09
1.248276e-09
1.492182e-10
1.374041e-10
1.240489e-10
1.102526e-10
9.564369e-11
8.028377e-11
6.431231e-11
4.786043e-11
3.106148e-11
1.405278e-11
-3.026644e-12
-2.003899e-11
-3.684951e-11
-5.332738e-11
-6.934706e-11
-8.478933e-11
-9.95416e-11
-1.134985e-10
-1.26562e-10
-1.386419e-10
-1.496552e-10
-1.595267e-10
-1.681884e-10
-1.755795e-10
-1.816457e-10
-1.863393e-10
-1.896188e-10
-1.914484e-10
-1.917981e-10
-1.906433e-10
-1.87964e-10
-1.837453e-10
-1.779765e-10
-1.706513e-10
-1.617675e-10
-1.513266e-10
-1.393337e-10
-1.257977e-10
-1.107306e-10
-9.414784e-11
-7.606802e-11
-5.651278e-11
-3.550678e-11
-1.307771e-11
1.074376e-11
3.592398e-11
6.242643e-11
9.021167e-11
1.192374e-10
1.494585e-10
1.808269e-10
2.132918e-10
2.467994e-10
2.812932e-10
3.16714e-10
3.529997e-10
3.900853e-10
4.279033e-10
4.663834e-10
5.054526e-10
5.450357e-10
5.85055e-10
6.254303e-10
6.660795e-10
7.069183e-10
7.478606e-10
7.888184e-10
8.297024e-10
8.70422e-10
9.108856e-10
9.510005e-10
9.906739e-10
1.029812e-09
1.068323e-09
1.106112e-09
1.143089e-09
1.179162e-09
1.214241e-09
1.24824e-09
1.281072e-09
1.312655e-09
1.342909e-09
1.371758e-09
1.399129e-09
1.424955e-09
1.44917e-09
1.471718e-09
1.492544e-09
1.511601e-09
1.52885e-09
1.544254e-09
1.557787e-09
1.569429e-09
1.579166e-09
1.586995e-09
1.592917e-09
1.596945e-09
1.599099e-09
1.599408e-09
1.597908e-09
1.594646e-09
1.589678e-09
1.583067e-09
1.574887e-09
1.56522e-09
1.554157e-09
1.541796e-09
1.528245e-09
1.513619e-09
1.498042e-09
1.481644e-09
1.464561e-09
1.446937e-09
1.428919e-09
1.410662e-09
1.39232e-09
1.374053e-09
1.35602e-09
1.338382e-09
1.321297e-09
1.304921e-09
1.289405e-09
1.274893e-09
1.261523e-09
1.249435e-09
1.238723e-09
1.229248e-09
1.22154e-09
1.773709e-10
1.631466e-10
1.47517e-10
1.319046e-10
1.157813e-10
9.916713e-11
8.218144e-11
6.493138e-11
4.752623e-11
3.008057e-11
1.271184e-11
-4.462416e-12
-2.132644e-11
-3.776705e-11
-5.367498e-11
-6.894597e-11
-8.348104e-11
-9.71871e-11
-1.099774e-10
-1.217715e-10
-1.324955e-10
-1.420821e-10
-1.504705e-10
-1.576058e-10
-1.634392e-10
-1.679276e-10
-1.710333e-10
-1.727242e-10
-1.729729e-10
-1.717572e-10
-1.690592e-10
-1.648651e-10
-1.591655e-10
-1.519549e-10
-1.432315e-10
-1.329968e-10
-1.21256e-10
-1.080175e-10
-9.329297e-11
-7.709693e-11
-5.944709e-11
-4.036399e-11
-1.987109e-11
2.005272e-12
2.523587e-11
4.978863e-11
7.562869e-11
1.027184e-10
1.310173e-10
1.604821e-10
1.910669e-10
2.227227e-10
2.55398e-10
2.890383e-10
3.235866e-10
3.589829e-10
3.951645e-10
4.320662e-10
4.696197e-10
5.077546e-10
5.463978e-10
5.854738e-10
6.249048e-10
6.646108e-10
7.045099e-10
7.44518e-10
7.845495e-10
8.245172e-10
8.643326e-10
9.039061e-10
9.431472e-10
9.81965e-10
1.020268e-09
1.057965e-09
1.094965e-09
1.131178e-09
1.166514e-09
1.200885e-09
1.234207e-09
1.266393e-09
1.297364e-09
1.32704e-09
1.355346e-09
1.382212e-09
1.407568e-09
1.431354e-09
1.45351e-09
1.473985e-09
1.492731e-09
1.509708e-09
1.524882e-09
1.538224e-09
1.549715e-09
1.559342e-09
1.567098e-09
1.572987e-09
1.577019e-09
1.579211e-09
1.579593e-09
1.578198e-09
1.575072e-09
1.570266e-09
1.563843e-09
1.555871e-09
1.546428e-09
1.535602e-09
1.523486e-09
1.510181e-09
1.495798e-09
1.480452e-09
1.464266e-09
1.447368e-09
1.429892e-09
1.411976e-09
1.393762e-09
1.375393e-09
1.357017e-09
1.338778e-09
1.320823e-09
1.303294e-09
1.28633e-09
1.270066e-09
1.254628e-09
1.240135e-09
1.22671e-09
1.214415e-09
1.202973e-09
1.193189e-09
2.061589e-10
1.895147e-10
1.715762e-10
1.54087e-10
1.363697e-10
1.184069e-10
1.003015e-10
8.213948e-11
6.400874e-11
4.60033e-11
2.822101e-11
1.076083e-11
-6.279005e-12
-2.280176e-11
-3.87135e-11
-5.392408e-11
-6.834753e-11
-8.190261e-11
-9.451335e-11
-1.061092e-10
-1.16625e-10
-1.260014e-10
-1.341846e-10
-1.41126e-10
-1.467822e-10
-1.511148e-10
-1.540904e-10
-1.556803e-10
-1.558604e-10
-1.546108e-10
-1.519157e-10
-1.477631e-10
-1.421448e-10
-1.350562e-10
-1.26496e-10
-1.164663e-10
-1.049722e-10
-9.202195e-11
-7.762664e-11
-6.180032e-11
-4.455982e-11
-2.592472e-11
-5.917364e-12
1.543716e-11
3.8111e-11
6.207359e-11
8.729165e-11
1.137292e-10
1.413476e-10
1.701055e-10
1.999587e-10
2.308604e-10
2.627609e-10
2.95608e-10
3.293465e-10
3.639187e-10
3.99264e-10
4.353191e-10
4.720183e-10
5.09293e-10
5.470724e-10
5.852831e-10
6.238494e-10
6.626936e-10
7.017355e-10
7.408933e-10
7.800834e-10
8.192205e-10
8.58218e-10
8.969883e-10
9.354426e-10
9.734917e-10
1.011046e-09
1.048016e-09
1.084311e-09
1.119844e-09
1.154526e-09
1.188271e-09
1.220994e-09
1.252611e-09
1.283044e-09
1.312213e-09
1.340045e-09
1.366469e-09
1.391418e-09
1.414829e-09
1.436646e-09
1.456816e-09
1.475293e-09
1.492035e-09
1.507008e-09
1.520184e-09
1.531543e-09
1.54107e-09
1.54876e-09
1.554613e-09
1.558638e-09
1.560854e-09
1.561284e-09
1.559963e-09
1.556933e-09
1.552242e-09
1.54595e-09
1.538123e-09
1.528834e-09
1.518166e-09
1.506208e-09
1.493057e-09
1.478815e-09
1.463592e-09
1.447504e-09
1.430671e-09
1.413218e-09
1.395274e-09
1.376969e-09
1.358438e-09
1.339815e-09
1.321232e-09
1.302823e-09
1.284716e-09
1.267035e-09
1.2499e-09
1.23342e-09
1.217699e-09
1.202847e-09
1.188893e-09
1.175432e-09
1.163543e-09
2.35247e-10
2.161909e-10
1.959299e-10
1.765246e-10
1.571548e-10
1.377703e-10
1.184603e-10
9.929271e-11
8.033621e-11
6.166646e-11
4.336362e-11
2.550969e-11
8.186707e-12
-8.523843e-12
-2.454234e-11
-3.979197e-11
-5.419908e-11
-6.76938e-11
-8.021061e-11
-9.168845e-11
-1.020709e-10
-1.113063e-10
-1.193479e-10
-1.261532e-10
-1.316844e-10
-1.35908e-10
-1.387948e-10
-1.403198e-10
-1.404622e-10
-1.392046e-10
-1.365335e-10
-1.324388e-10
-1.269136e-10
-1.199544e-10
-1.115607e-10
-1.017351e-10
-9.048275e-11
-7.781188e-11
-6.373331e-11
-4.826053e-11
-3.140968e-11
-1.319946e-11
6.34883e-12
2.721125e-11
4.936126e-11
7.276971e-11
9.740485e-11
1.232324e-10
1.502153e-10
1.78314e-10
2.074863e-10
2.376871e-10
2.688689e-10
3.009812e-10
3.33971e-10
3.677825e-10
4.023572e-10
4.376339e-10
4.735488e-10
5.100355e-10
5.470252e-10
5.844465e-10
6.222257e-10
6.60287e-10
6.985522e-10
7.369414e-10
7.753727e-10
8.137627e-10
8.520265e-10
8.90078e-10
9.278302e-10
9.651953e-10
1.002085e-09
1.038411e-09
1.074086e-09
1.109021e-09
1.14313e-09
1.176327e-09
1.208529e-09
1.239653e-09
1.269619e-09
1.298352e-09
1.325776e-09
1.351821e-09
1.376422e-09
1.399516e-09
1.421045e-09
1.440957e-09
1.459205e-09
1.475749e-09
1.490553e-09
1.503589e-09
1.514835e-09
1.524276e-09
1.531906e-09
1.537723e-09
1.541736e-09
1.543961e-09
1.544419e-09
1.543144e-09
1.540174e-09
1.535556e-09
1.529345e-09
1.521605e-09
1.512405e-09
1.501824e-09
1.489945e-09
1.47686e-09
1.462668e-09
1.44747e-09
1.431375e-09
1.414497e-09
1.396953e-09
1.378862e-09
1.360346e-09
1.34153e-09
1.322535e-09
1.303486e-09
1.284501e-09
1.265698e-09
1.247187e-09
1.229075e-09
1.211456e-09
1.19442e-09
1.178068e-09
1.162401e-09
1.14689e-09
1.132886e-09
2.643334e-10
2.428865e-10
2.203046e-10
1.989605e-10
1.778974e-10
1.570359e-10
1.364543e-10
1.162049e-10
9.633939e-11
7.691712e-11
5.800227e-11
3.966134e-11
2.196157e-11
4.970289e-12
-1.12462e-11
-2.662361e-11
-4.109996e-11
-5.461621e-11
-6.711686e-11
-7.855008e-11
-8.886782e-11
-9.802607e-11
-1.059848e-10
-1.127079e-10
-1.18163e-10
-1.223214e-10
-1.251583e-10
-1.266526e-10
-1.267865e-10
-1.255457e-10
-1.229189e-10
-1.188978e-10
-1.134771e-10
-1.066546e-10
-9.843071e-11
-8.880838e-11
-7.779327e-11
-6.539354e-11
-5.161981e-11
-3.648515e-11
-2.000506e-11
-2.197479e-12
1.691724e-11
3.731625e-11
5.897424e-11
8.186341e-11
1.059535e-10
1.312117e-10
1.576028e-10
1.850888e-10
2.136294e-10
2.431812e-10
2.736986e-10
3.051331e-10
3.374335e-10
3.705461e-10
4.044142e-10
4.389787e-10
4.741777e-10
5.099467e-10
5.462189e-10
5.829247e-10
6.199924e-10
6.573479e-10
6.949148e-10
7.326149e-10
7.70368e-10
8.080922e-10
8.457043e-10
8.831195e-10
9.202523e-10
9.570161e-10
9.93324e-10
1.029089e-09
1.064223e-09
1.098641e-09
1.132256e-09
1.164983e-09
1.19674e-09
1.227444e-09
1.257016e-09
1.28538e-09
1.312463e-09
1.338193e-09
1.362504e-09
1.385335e-09
1.406627e-09
1.426329e-09
1.444392e-09
1.460774e-09
1.475441e-09
1.488363e-09
1.499518e-09
1.508888e-09
1.516467e-09
1.522251e-09
1.526248e-09
1.528471e-09
1.528941e-09
1.527688e-09
1.524747e-09
1.520164e-09
1.51399e-09
1.506285e-09
1.497115e-09
1.486554e-09
1.474683e-09
1.461587e-09
1.447358e-09
1.432095e-09
1.415899e-09
1.398876e-09
1.381137e-09
1.362792e-09
1.343956e-09
1.324743e-09
1.305267e-09
1.28564e-09
1.265972e-09
1.246368e-09
1.226929e-09
1.207748e-09
1.188908e-09
1.170487e-09
1.152579e-09
1.13516e-09
1.117582e-09
1.101468e-09
2.931463e-10
2.693379e-10
2.444482e-10
2.211556e-10
1.983726e-10
1.759936e-10
1.540886e-10
1.326962e-10
1.118533e-10
9.160476e-11
7.200026e-11
5.30923e-11
3.493452e-11
1.758122e-11
1.086312e-12
-1.449764e-11
-2.911968e-11
-4.273108e-11
-5.528591e-11
-6.674117e-11
-7.70569e-11
-8.619649e-11
-9.412666e-11
-1.008173e-10
-1.062415e-10
-1.103757e-10
-1.131992e-10
-1.146948e-10
-1.14848e-10
-1.136474e-10
-1.110839e-10
-1.071514e-10
-1.018463e-10
-9.51675e-11
-8.711646e-11
-7.769686e-11
-6.691469e-11
-5.477821e-11
-4.129791e-11
-2.648655e-11
-1.035907e-11
7.067293e-12
2.577305e-11
4.573637e-11
6.693313e-11
8.93368e-11
1.129185e-10
1.37647e-10
1.634887e-10
1.904071e-10
2.183637e-10
2.473169e-10
2.772229e-10
3.08035e-10
3.397039e-10
3.721776e-10
4.054016e-10
4.393184e-10
4.73868e-10
5.089879e-10
5.446129e-10
5.806754e-10
6.171052e-10
6.538301e-10
6.907751e-10
7.278638e-10
7.650173e-10
8.021553e-10
8.391957e-10
8.760553e-10
9.126495e-10
9.48893e-10
9.846997e-10
1.019983e-09
1.054658e-09
1.088637e-09
1.121836e-09
1.154169e-09
1.185555e-09
1.215912e-09
1.245161e-09
1.273225e-09
1.30003e-09
1.325507e-09
1.349588e-09
1.372212e-09
1.393319e-09
1.412857e-09
1.430777e-09
1.447037e-09
1.4616e-09
1.474437e-09
1.485522e-09
1.494839e-09
1.502378e-09
1.508135e-09
1.512115e-09
1.51433e-09
1.514797e-09
1.513545e-09
1.510608e-09
1.506026e-09
1.499849e-09
1.492133e-09
1.482941e-09
1.472342e-09
1.460412e-09
1.447233e-09
1.432893e-09
1.417482e-09
1.401098e-09
1.383841e-09
1.365812e-09
1.347117e-09
1.327862e-09
1.308153e-09
1.288096e-09
1.267793e-09
1.247346e-09
1.22685e-09
1.206396e-09
1.186068e-09
1.165938e-09
1.146075e-09
1.126566e-09
1.107369e-09
1.08772e-09
1.069509e-09
3.214392e-10
2.953047e-10
2.681283e-10
2.428875e-10
2.183693e-10
1.944446e-10
1.71177e-10
1.485933e-10
1.267176e-10
1.055816e-10
8.522211e-11
6.567889e-11
4.699314e-11
2.920718e-11
1.236338e-11
-3.496655e-12
-1.833235e-11
-3.210474e-11
-4.477699e-11
-5.631453e-11
-6.668519e-11
-7.58595e-11
-8.381074e-11
-9.051479e-11
-9.595013e-11
-1.000979e-10
-1.02942e-10
-1.044688e-10
-1.046672e-10
-1.035285e-10
-1.010464e-10
-9.721667e-11
-9.203742e-11
-8.550898e-11
-7.763379e-11
-6.841627e-11
-5.786287e-11
-4.598203e-11
-3.278418e-11
-1.82818e-11
-2.489396e-12
1.457645e-11
3.289705e-11
5.245153e-11
7.321687e-11
9.516779e-11
1.182768e-10
1.42514e-10
1.678473e-10
1.942421e-10
2.216612e-10
2.500649e-10
2.79411e-10
3.096546e-10
3.407483e-10
3.726419e-10
4.052824e-10
4.386144e-10
4.725797e-10
5.071173e-10
5.421638e-10
5.776533e-10
6.135173e-10
6.496849e-10
6.860829e-10
7.226359e-10
7.592668e-10
7.958963e-10
8.324436e-10
8.688264e-10
9.049612e-10
9.407636e-10
9.761484e-10
1.01103e-09
1.045322e-09
1.078941e-09
1.111799e-09
1.143815e-09
1.174903e-09
1.204985e-09
1.23398e-09
1.261811e-09
1.288405e-09
1.313691e-09
1.337601e-09
1.360073e-09
1.381047e-09
1.400469e-09
1.41829e-09
1.434467e-09
1.448962e-09
1.461742e-09
1.472783e-09
1.482067e-09
1.48958e-09
1.495318e-09
1.499283e-09
1.501485e-09
1.501941e-09
1.500674e-09
1.497718e-09
1.493109e-09
1.486894e-09
1.479126e-09
1.469864e-09
1.459174e-09
1.447128e-09
1.433803e-09
1.419281e-09
1.403649e-09
1.386999e-09
1.369424e-09
1.351021e-09
1.331889e-09
1.312126e-09
1.291831e-09
1.271103e-09
1.250038e-09
1.228727e-09
1.207259e-09
1.185716e-09
1.164173e-09
1.142695e-09
1.121343e-09
1.100201e-09
1.079208e-09
1.057492e-09
1.037204e-09
3.489878e-10
3.20566e-10
2.911298e-10
2.639487e-10
2.376892e-10
2.122006e-10
1.875417e-10
1.637296e-10
1.407767e-10
1.187031e-10
9.75341e-11
7.729794e-11
5.802442e-11
3.974477e-11
2.249068e-11
6.293502e-12
-8.815942e-12
-2.280787e-11
-3.565408e-11
-4.732803e-11
-5.780502e-11
-6.70625e-11
-7.508007e-11
-8.183945e-11
-8.732439e-11
-9.15208e-11
-9.441674e-11
-9.600239e-11
-9.627002e-11