/*--------------------------------*- C++ -*----------------------------------*\
| =========                 |                                                 |
| \\      /  F ield         | OpenFOAM: The Open Source CFD Toolbox           |
|  \\    /   O peration     | Version:  2406                                  |
|   \\  /    A nd           | Website:  www.openfoam.com                      |
|    \\/     M anipulation  |                                                 |
\*---------------------------------------------------------------------------*/
FoamFile
{
    version     2.0;
    format      ascii;
    arch        "LSB;label=32;scalar=64";
    class       surfaceScalarField;
    location    "6600";
    object      phi;
}
// * * * * * * * * * * * * * * * * * * * * * * * * * * * * * * * * * * * * * //

dimensions      [0 3 -1 0 0 0 0];

oriented        oriented;

internalField   nonuniform List<scalar> 
32512
(
3.162397e-12
-3.257248e-12
1.13461e-11
-8.184436e-12
2.15548e-11
-1.020634e-11
3.126836e-11
-9.712963e-12
3.878539e-11
-7.517462e-12
4.300721e-11
-4.221905e-12
4.325728e-11
-2.500154e-13
3.915008e-11
4.107311e-12
3.049809e-11
8.651991e-12
1.72494e-11
1.324861e-11
-5.540365e-13
1.780354e-11
-2.280509e-11
2.225132e-11
-4.935111e-11
2.654624e-11
-8.000734e-11
3.065648e-11
-1.145669e-10
3.455996e-11
-1.528085e-10
3.824182e-11
-1.94501e-10
4.169265e-11
-2.394077e-10
4.490703e-11
-2.872896e-10
4.78824e-11
-3.379075e-10
5.061845e-11
-3.910235e-10
5.31166e-11
-4.464026e-10
5.537958e-11
-5.038131e-10
5.741115e-11
-5.630284e-10
5.921578e-11
-6.238263e-10
6.079846e-11
-6.859904e-10
6.216454e-11
-7.493095e-10
6.331964e-11
-8.135784e-10
6.426949e-11
-8.785977e-10
6.501987e-11
-9.441736e-10
6.557651e-11
-1.010118e-09
6.594513e-11
-1.076249e-09
6.613137e-11
-1.142389e-09
6.614071e-11
-1.208367e-09
6.597847e-11
-1.274016e-09
6.564978e-11
-1.339175e-09
6.515957e-11
-1.403688e-09
6.451266e-11
-1.467401e-09
6.371372e-11
-1.530168e-09
6.276723e-11
-1.591846e-09
6.167753e-11
-1.652294e-09
6.044875e-11
-1.711379e-09
5.908493e-11
-1.768968e-09
5.758999e-11
-1.824936e-09
5.59678e-11
-1.879158e-09
5.42221e-11
-1.931514e-09
5.235663e-11
-1.981889e-09
5.037506e-11
-2.030169e-09
4.828107e-11
-2.076248e-09
4.607838e-11
-2.120018e-09
4.377078e-11
-2.16138e-09
4.136213e-11
-2.200236e-09
3.885636e-11
-2.236493e-09
3.625752e-11
-2.270063e-09
3.356978e-11
-2.30086e-09
3.079749e-11
-2.328805e-09
2.794521e-11
-2.353823e-09
2.50177e-11
-2.375843e-09
2.201994e-11
-2.3948e-09
1.895714e-11
-2.410635e-09
1.583472e-11
-2.423293e-09
1.265839e-11
-2.432728e-09
9.434151e-12
-2.438896e-09
6.168265e-12
-2.441763e-09
2.86729e-12
-2.441301e-09
-4.619412e-13
-2.437489e-09
-3.812305e-12
-2.430313e-09
-7.176381e-12
-2.419767e-09
-1.054646e-11
-2.405853e-09
-1.391454e-11
-2.388581e-09
-1.727237e-11
-2.36797e-09
-2.061145e-11
-2.344047e-09
-2.392305e-11
-2.316849e-09
-2.719821e-11
-2.286422e-09
-3.042774e-11
-2.25282e-09
-3.360231e-11
-2.216108e-09
-3.671241e-11
-2.17636e-09
-3.974841e-11
-2.13366e-09
-4.27006e-11
-2.088101e-09
-4.55592e-11
-2.039787e-09
-4.831441e-11
-1.988831e-09
-5.095643e-11
-1.935356e-09
-5.347552e-11
-1.879495e-09
-5.586201e-11
-1.821389e-09
-5.810637e-11
-1.76119e-09
-6.019923e-11
-1.69906e-09
-6.213144e-11
-1.635166e-09
-6.389409e-11
-1.569688e-09
-6.547858e-11
-1.502812e-09
-6.687665e-11
-1.434732e-09
-6.808041e-11
-1.36565e-09
-6.908242e-11
-1.295775e-09
-6.987569e-11
-1.225322e-09
-7.045375e-11
-1.154512e-09
-7.081067e-11
-1.083571e-09
-7.094111e-11
-1.012731e-09
-7.084035e-11
-9.422275e-10
-7.050433e-11
-8.722983e-10
-6.992969e-11
-8.031849e-10
-6.91138e-11
-7.351305e-10
-6.80548e-11
-6.683793e-10
-6.67516e-11
-6.031756e-10
-6.5204e-11
-5.397633e-10
-6.341265e-11
-4.783845e-10
-6.137912e-11
-4.192788e-10
-5.910598e-11
-3.626823e-10
-5.659685e-11
-3.088261e-10
-5.385645e-11
-2.579355e-10
-5.08908e-11
-2.102285e-10
-4.770726e-11
-1.659139e-10
-4.431478e-11
-1.2519e-10
-4.072411e-11
-8.824198e-11
-3.694815e-11
-5.523964e-11
-3.300244e-11
-2.633395e-11
-2.890575e-11
-1.653035e-12
-2.468095e-11
1.870313e-11
-2.035619e-11
3.466977e-11
-1.596665e-11
4.622683e-11
-1.155702e-11
5.341206e-11
-7.185129e-12
5.633945e-11
-2.927262e-12
5.522561e-11
1.113956e-12
5.042796e-11
4.797747e-12
4.250022e-11
7.927836e-12
3.227146e-11
1.022886e-11
2.0952e-11
1.131953e-11
1.02604e-11
1.069159e-11
2.524752e-12
7.7356e-12
2.524715e-12
8.142897e-12
-1.140042e-11
2.492017e-11
-2.496183e-11
4.417575e-11
-2.946133e-11
6.104454e-11
-2.658191e-11
7.189677e-11
-1.836965e-11
7.417243e-11
-6.497023e-12
6.615031e-11
7.772152e-12
4.674591e-11
2.351132e-11
1.534853e-11
4.004901e-11
-2.830251e-11
5.689935e-11
-8.420922e-11
7.371001e-11
-1.521827e-10
9.022484e-11
-2.318938e-10
1.062574e-10
-3.2291e-10
1.216726e-10
-4.247233e-10
1.363731e-10
-5.367721e-10
1.502903e-10
-6.584568e-10
1.633771e-10
-7.891527e-10
1.75603e-10
-9.282196e-10
1.869497e-10
-1.07501e-09
1.974088e-10
-1.228872e-09
2.069794e-10
-1.389159e-09
2.156667e-10
-1.555229e-09
2.234803e-10
-1.726446e-09
2.304331e-10
-1.902188e-09
2.365407e-10
-2.081845e-09
2.418207e-10
-2.264816e-09
2.462916e-10
-2.45052e-09
2.499733e-10
-2.638386e-09
2.52886e-10
-2.82786e-09
2.550501e-10
-3.018401e-09
2.564864e-10
-3.209485e-09
2.572151e-10
-3.4006e-09
2.572564e-10
-3.591252e-09
2.5663e-10
-3.780957e-09
2.553551e-10
-3.969248e-09
2.534504e-10
-4.15567e-09
2.509341e-10
-4.33978e-09
2.478238e-10
-4.52115e-09
2.441369e-10
-4.699363e-09
2.398897e-10
-4.874013e-09
2.350987e-10
-5.044707e-09
2.297795e-10
-5.211065e-09
2.239474e-10
-5.372715e-09
2.176177e-10
-5.529298e-09
2.108052e-10
-5.680466e-09
2.035248e-10
-5.825882e-09
1.95791e-10
-5.96522e-09
1.876186e-10
-6.098164e-09
1.790226e-10
-6.224411e-09
1.700179e-10
-6.343669e-09
1.606201e-10
-6.455657e-09
1.508449e-10
-6.560108e-09
1.407083e-10
-6.656766e-09
1.302273e-10
-6.745387e-09
1.194192e-10
-6.825744e-09
1.083022e-10
-6.897622e-09
9.689501e-11
-6.960819e-09
8.521749e-11
-7.015152e-09
7.32902e-11
-7.060452e-09
6.113468e-11
-7.096567e-09
4.877346e-11
-7.123363e-09
3.62301e-11
-7.140724e-09
2.352919e-11
-7.148553e-09
1.06964e-11
-7.146774e-09
-2.24152e-12
-7.135329e-09
-1.525673e-11
-7.114185e-09
-2.832031e-11
-7.08333e-09
-4.140227e-11
-7.042773e-09
-5.447161e-11
-6.992549e-09
-6.749633e-11
-6.932717e-09
-8.044351e-11
-6.86336e-09
-9.327937e-11
-6.784589e-09
-1.059693e-10
-6.696539e-09
-1.184779e-10
-6.599373e-09
-1.307692e-10
-6.493279e-09
-1.428066e-10
-6.378474e-09
-1.545532e-10
-6.255203e-09
-1.659716e-10
-6.123738e-09
-1.770244e-10
-5.984378e-09
-1.87674e-10
-5.837452e-09
-1.978829e-10
-5.683314e-09
-2.076138e-10
-5.522346e-09
-2.168298e-10
-5.354958e-09
-2.254946e-10
-5.181585e-09
-2.335724e-10
-5.002688e-09
-2.410284e-10
-4.818753e-09
-2.478288e-10
-4.630291e-09
-2.539409e-10
-4.437834e-09
-2.593333e-10
-4.241938e-09
-2.639762e-10
-4.043179e-09
-2.678414e-10
-3.842152e-09
-2.709028e-10
-3.63947e-09
-2.731358e-10
-3.435763e-09
-2.745184e-10
-3.231673e-09
-2.750306e-10
-3.027858e-09
-2.746551e-10
-2.824986e-09
-2.73377e-10
-2.623731e-09
-2.711842e-10
-2.424777e-09
-2.680674e-10
-2.228812e-09
-2.640206e-10
-2.036522e-09
-2.590408e-10
-1.848598e-09
-2.531284e-10
-1.665723e-09
-2.462873e-10
-1.488577e-09
-2.385253e-10
-1.317829e-09
-2.298541e-10
-1.154136e-09
-2.202896e-10
-9.981399e-10
-2.098527e-10
-8.504616e-10
-1.985691e-10
-7.116984e-10
-1.864704e-10
-5.824183e-10
-1.735948e-10
-4.631543e-10
-1.599881e-10
-3.543977e-10
-1.457047e-10
-2.565902e-10
-1.3081e-10
-1.701137e-10
-1.153823e-10
-9.527803e-11
-9.951654e-11
-3.23059e-11
-8.332822e-11
1.868736e-11
-6.69598e-11
5.771936e-11
-5.058896e-11
8.497451e-11
-3.444026e-11
1.008487e-10
-1.880145e-11
1.060086e-10
-4.045922e-12
1.014701e-10
9.336332e-12
8.869992e-11
2.069794e-11
6.974338e-11
2.918533e-11
4.736952e-11
3.36934e-11
2.520436e-11
3.28569e-11
7.727929e-12
2.521226e-11
1.025255e-11
1.021569e-11
-2.161357e-11
2.950623e-11
-4.425203e-11
4.971666e-11
-4.967253e-11
6.477061e-11
-4.163605e-11
7.002981e-11
-2.362851e-11
6.206913e-11
1.463725e-12
3.846741e-11
3.137345e-11
-2.388641e-12
6.436688e-11
-6.147515e-11
9.913516e-11
-1.392717e-10
1.346956e-10
-2.358736e-10
1.703119e-10
-3.510815e-10
2.054327e-10
-4.844705e-10
2.396463e-10
-6.354443e-10
2.726461e-10
-8.032773e-10
3.042058e-10
-9.871481e-10
3.341608e-10
-1.186165e-09
3.623939e-10
-1.399387e-09
3.888247e-10
-1.625838e-09
4.134015e-10
-1.864524e-09
4.360948e-10
-2.114438e-09
4.568933e-10
-2.37457e-09
4.757993e-10
-2.643916e-09
4.92826e-10
-2.921478e-09
5.07995e-10
-3.206271e-09
5.213345e-10
-3.497328e-09
5.328772e-10
-3.793696e-09
5.426598e-10
-4.094444e-09
5.507212e-10
-4.39866e-09
5.571025e-10
-4.705456e-09
5.618456e-10
-5.013962e-09
5.649927e-10
-5.323333e-09
5.665866e-10
-5.632746e-09
5.666693e-10
-5.941398e-09
5.652825e-10
-6.248511e-09
5.624673e-10
-6.553324e-09
5.582635e-10
-6.855101e-09
5.527106e-10
-7.153124e-09
5.458465e-10
-7.446696e-09
5.377087e-10
-7.73514e-09
5.283335e-10
-8.017798e-09
5.177563e-10
-8.294031e-09
5.060119e-10
-8.563218e-09
4.931343e-10
-8.824757e-09
4.79157e-10
-9.078065e-09
4.641132e-10
-9.322577e-09
4.480359e-10
-9.557744e-09
4.30958e-10
-9.783038e-09
4.129125e-10
-9.997948e-09
3.939328e-10
-1.020198e-08
3.740529e-10
-1.039467e-08
3.533072e-10
-1.057556e-08
3.317311e-10
-1.074421e-08
3.09361e-10
-1.090022e-08
2.862347e-10
-1.104319e-08
2.62391e-10
-1.117276e-08
2.378707e-10
-1.128858e-08
2.127158e-10
-1.139033e-08
1.869704e-10
-1.147772e-08
1.606805e-10
-1.155048e-08
1.338939e-10
-1.160837e-08
1.066609e-10
-1.165117e-08
7.90337e-11
-1.167871e-08
5.106679e-11
-1.169083e-08
2.281703e-11
-1.168741e-08
-5.656469e-12
-1.166838e-08
-3.429223e-11
-1.163367e-08
-6.302653e-11
-1.158328e-08
-9.179337e-11
-1.151723e-08
-1.205246e-10
-1.143558e-08
-1.4915e-10
-1.133842e-08
-1.775972e-10
-1.122591e-08
-2.057923e-10
-1.109822e-08
-2.336594e-10
-1.095558e-08
-2.611212e-10
-1.079825e-08
-2.880991e-10
-1.062654e-08
-3.145131e-10
-1.044081e-08
-3.402828e-10
-1.024146e-08
-3.653266e-10
-1.002892e-08
-3.895631e-10
-9.803681e-09
-4.129104e-10
-9.566277e-09
-4.35287e-10
-9.317279e-09
-4.566118e-10
-9.057304e-09
-4.768049e-10
-8.787011e-09
-4.957871e-10
-8.507103e-09
-5.134812e-10
-8.218319e-09
-5.298117e-10
-7.921443e-09
-5.447052e-10
-7.617293e-09
-5.580913e-10
-7.306724e-09
-5.699022e-10
-6.990626e-09
-5.800736e-10
-6.669923e-09
-5.88545e-10
-6.345566e-09
-5.952597e-10
-6.018536e-09
-6.001657e-10
-5.689839e-09
-6.032156e-10
-5.360502e-09
-6.043671e-10
-5.031574e-09
-6.035833e-10
-4.704118e-09
-6.008331e-10
-4.37921e-09
-5.960916e-10
-4.057938e-09
-5.893403e-10
-3.741391e-09
-5.805673e-10
-3.430664e-09
-5.697681e-10
-3.126846e-09
-5.569458e-10
-2.831022e-09
-5.421113e-10
-2.544263e-09
-5.252842e-10
-2.267624e-09
-5.064929e-10
-2.002138e-09
-4.85776e-10
-1.748808e-09
-4.631825e-10
-1.508604e-09
-4.387733e-10
-1.282452e-09
-4.126222e-10
-1.071229e-09
-3.848182e-10
-8.757496e-10
-3.554673e-10
-6.967584e-10
-3.246958e-10
-5.349146e-10
-2.926537e-10
-3.907767e-10
-2.595203e-10
-2.647826e-10
-2.255107e-10
-1.572261e-10
-1.908846e-10
-6.822707e-11
-1.559587e-10
2.306392e-12
-1.211223e-10
5.472474e-11
-8.685858e-11
8.969653e-11
-5.377327e-11
1.082827e-10
-2.263205e-11
1.120277e-10
5.591385e-12
1.030691e-10
2.965658e-11
8.426177e-11
4.79926e-11
5.930807e-11
5.864694e-11
3.28738e-11
5.929107e-11
1.068594e-11
4.740017e-11
2.093837e-11
9.779511e-12
-3.13922e-11
2.67792e-11
-6.12519e-11
4.193598e-11
-6.482958e-11
4.853202e-11
-4.823262e-11
4.141686e-11
-1.651371e-11
1.670422e-11
2.617586e-11
-2.843529e-11
7.651226e-11
-9.595373e-11
1.318848e-10
-1.870842e-10
1.902654e-10
-3.024776e-10
2.500887e-10
-4.423172e-10
3.101513e-10
-6.064154e-10
3.695309e-10
-7.942922e-10
4.275228e-10
-1.005238e-09
4.835917e-10
-1.238367e-09
5.37334e-10
-1.492655e-09
5.884489e-10
-1.766978e-09
6.367166e-10
-2.060134e-09
6.819812e-10
-2.37087e-09
7.241369e-10
-2.697893e-09
7.631182e-10
-3.039891e-09
7.988912e-10
-3.395539e-09
8.314477e-10
-3.763513e-09
8.607992e-10
-4.142491e-09
8.869731e-10
-4.531165e-09
9.100088e-10
-4.928243e-09
9.299555e-10
-5.332453e-09
9.468694e-10
-5.742544e-09
9.608121e-10
-6.15729e-09
9.718492e-10
-6.575493e-09
9.800484e-10
-6.99598e-09
9.854795e-10
-7.417606e-09
9.882125e-10
-7.839254e-09
9.883178e-10
-8.259837e-09
9.858652e-10
-8.678293e-09
9.809238e-10
-9.093591e-09
9.735616e-10
-9.504727e-09
9.638453e-10
-9.910721e-09
9.518405e-10
-1.031062e-08
9.376111e-10
-1.070351e-08
9.212199e-10
-1.108848e-08
9.027285e-10
-1.146467e-08
8.821973e-10
-1.183122e-08
8.596857e-10
-1.218732e-08
8.352525e-10
-1.253216e-08
8.08956e-10
-1.286498e-08
7.808543e-10
-1.318502e-08
7.510054e-10
-1.349158e-08
7.194678e-10
-1.378395e-08
6.863005e-10
-1.406146e-08
6.515636e-10
-1.432347e-08
6.153182e-10
-1.456936e-08
5.776271e-10
-1.479856e-08
5.385548e-10
-1.501049e-08
4.98168e-10
-1.520464e-08
4.565357e-10
-1.53805e-08
4.137297e-10
-1.55376e-08
3.698243e-10
-1.567553e-08
3.248973e-10
-1.579388e-08
2.790296e-10
-1.589229e-08
2.323055e-10
-1.597044e-08
1.848132e-10
-1.602805e-08
1.366443e-10
-1.606488e-08
8.789441e-11
-1.608073e-08
3.866295e-11
-1.607544e-08
-1.094668e-11
-1.60489e-08
-6.082721e-11
-1.600106e-08
-1.108675e-10
-1.59319e-08
-1.609526e-10
-1.584146e-08
-2.109638e-10
-1.572983e-08
-2.607792e-10
-1.559716e-08
-3.102732e-10
-1.544363e-08
-3.593173e-10
-1.526951e-08
-4.0778e-10
-1.507511e-08
-4.555275e-10
-1.486078e-08
-5.024236e-10
-1.462697e-08
-5.483302e-10
-1.437414e-08
-5.931081e-10
-1.410285e-08
-6.366167e-10
-1.38137e-08
-6.787152e-10
-1.350735e-08
-7.192625e-10
-1.318452e-08
-7.581182e-10
-1.284598e-08
-7.951427e-10
-1.249259e-08
-8.301981e-10
-1.212523e-08
-8.631487e-10
-1.174485e-08
-8.938616e-10
-1.135245e-08
-9.22207e-10
-1.09491e-08
-9.480594e-10
-1.053589e-08
-9.712977e-10
-1.011399e-08
-9.918061e-10
-9.684588e-09
-1.009475e-09
-9.248933e-09
-1.0242e-09
-8.808307e-09
-1.035885e-09
-8.364031e-09
-1.044443e-09
-7.917455e-09
-1.049791e-09
-7.469963e-09
-1.05186e-09
-7.02296e-09
-1.050586e-09
-6.577874e-09
-1.045919e-09
-6.136148e-09
-1.037817e-09
-5.699237e-09
-1.026251e-09
-5.268601e-09
-1.011203e-09
-4.845701e-09
-9.926684e-10
-4.431992e-09
-9.706551e-10
-4.028917e-09
-9.451859e-10
-3.637903e-09
-9.162987e-10
-3.260349e-09
-8.840473e-10
-2.897621e-09
-8.485032e-10
-2.551047e-09
-8.09757e-10
-2.2219e-09
-7.679202e-10
-1.911395e-09
-7.231277e-10
-1.620672e-09
-6.755409e-10
-1.350788e-09
-6.253515e-10
-1.102697e-09
-5.727865e-10
-8.772359e-10
-5.18115e-10
-6.751004e-10
-4.616558e-10
-4.968224e-10
-4.037887e-10
-3.427385e-10
-3.449686e-10
-2.129542e-10
-2.857432e-10
-1.072991e-10
-2.267774e-10
-2.527406e-11
-1.688836e-10
3.401412e-11
-1.130614e-10
7.192909e-11
-6.054699e-11
9.039485e-11
-1.287434e-11
9.199748e-11
2.805396e-11
8.00973e-11
5.989274e-11
5.895051e-11
7.979362e-11
3.384814e-11
8.439327e-11
1.134718e-11
6.990106e-11
3.228543e-11
7.655331e-12
-3.904788e-11
1.87649e-11
-7.236148e-11
2.42607e-11
-7.032495e-11
1.727126e-11
-4.124342e-11
-7.520442e-12
8.277497e-12
-5.418004e-11
7.283502e-11
-1.257218e-10
1.480536e-10
-2.242706e-10
2.304332e-10
-3.512032e-10
3.171978e-10
-5.07273e-10
4.061584e-10
-6.927185e-10
4.955966e-10
-9.073572e-10
5.841695e-10
-1.150666e-09
6.708318e-10
-1.42185e-09
7.547749e-10
-1.719894e-09
8.353779e-10
-2.043615e-09
9.121697e-10
-2.391696e-09
9.847981e-10
-2.762721e-09
1.053007e-09
-3.1552e-09
1.116616e-09
-3.567588e-09
1.175507e-09
-3.998309e-09
1.229612e-09
-4.445761e-09
1.2789e-09
-4.908338e-09
1.323376e-09
-5.384431e-09
1.363067e-09
-5.872443e-09
1.398021e-09
-6.370788e-09
1.428301e-09
-6.877903e-09
1.453985e-09
-7.392247e-09
1.475156e-09
-7.912306e-09
1.491908e-09
-8.436595e-09
1.504338e-09
-8.96366e-09
1.512545e-09
-9.492079e-09
1.516631e-09
-1.002046e-08
1.5167e-09
-1.054745e-08
1.512855e-09
-1.107173e-08
1.505198e-09
-1.159199e-08
1.493831e-09
-1.2107e-08
1.478853e-09
-1.261553e-08
1.460364e-09
-1.311638e-08
1.438459e-09
-1.360839e-08
1.413235e-09
-1.409045e-08
1.384785e-09
-1.456145e-08
1.353201e-09
-1.502034e-08
1.318576e-09
-1.546609e-08
1.280998e-09
-1.589769e-08
1.240558e-09
-1.631418e-08
1.197346e-09
-1.671463e-08
1.151452e-09
-1.709812e-08
1.102966e-09
-1.74638e-08
1.05198e-09
-1.781083e-08
9.985881e-10
-1.81384e-08
9.428845e-10
-1.844574e-08
8.84967e-10
-1.873212e-08
8.24936e-10
-1.899684e-08
7.628951e-10
-1.923926e-08
6.989516e-10
-1.945875e-08
6.332168e-10
-1.965473e-08
5.65806e-10
-1.982667e-08
4.968398e-10
-1.997408e-08
4.264432e-10
-2.009653e-08
3.547467e-10
-2.01936e-08
2.818862e-10
-2.026496e-08
2.080031e-10
-2.031031e-08
1.332446e-10
-2.032941e-08
5.776374e-11
-2.032208e-08
-1.828062e-11
-2.028818e-08
-9.47238e-11
-2.022765e-08
-1.713954e-10
-2.014048e-08
-2.481193e-10
-2.002673e-08
-3.247139e-10
-1.988652e-08
-4.009927e-10
-1.972003e-08
-4.767638e-10
-1.952752e-08
-5.518311e-10
-1.93093e-08
-6.259942e-10
-1.906578e-08
-6.99049e-10
-1.879742e-08
-7.70788e-10
-1.850475e-08
-8.410013e-10
-1.818838e-08
-9.09477e-10
-1.784899e-08
-9.760015e-10
-1.748735e-08
-1.040361e-09
-1.710427e-08
-1.102341e-09
-1.670066e-08
-1.161729e-09
-1.627749e-08
-1.218313e-09
-1.58358e-08
-1.271885e-09
-1.537671e-08
-1.322238e-09
-1.49014e-08
-1.369172e-09
-1.441112e-08
-1.412491e-09
-1.390718e-08
-1.452004e-09
-1.339094e-08
-1.48753e-09
-1.286386e-08
-1.518894e-09
-1.23274e-08
-1.545929e-09
-1.178312e-08
-1.568481e-09
-1.12326e-08
-1.586405e-09
-1.067747e-08
-1.599568e-09
-1.011941e-08
-1.607851e-09
-9.560128e-09
-1.611146e-09
-9.001352e-09
-1.609363e-09
-8.444846e-09
-1.602425e-09
-7.89239e-09
-1.590274e-09
-7.345774e-09
-1.572867e-09
-6.806796e-09
-1.550182e-09
-6.277249e-09
-1.522215e-09
-5.758922e-09
-1.488983e-09
-5.253582e-09
-1.450526e-09
-4.762974e-09
-1.406907e-09
-4.288808e-09
-1.358213e-09
-3.83275e-09
-1.304561e-09
-3.396411e-09
-1.246096e-09
-2.981335e-09
-1.182995e-09
-2.58899e-09
-1.115473e-09
-2.220746e-09
-1.043785e-09
-1.877866e-09
-9.682313e-10
-1.561484e-09
-8.891688e-10
-1.272583e-09
-8.070158e-10
-1.011973e-09
-7.222659e-10
-7.802596e-10
-6.355023e-10
-5.778107e-10
-5.474174e-10
-4.047175e-10
-4.588363e-10
-2.607466e-10
-3.707483e-10
-1.45285e-10
-2.843452e-10
-5.727699e-11
-2.010694e-10
4.849624e-12
-1.226736e-10
4.326526e-11
-5.128998e-11
6.083003e-11
1.048915e-11
6.119532e-11
5.952739e-11
4.892303e-11
9.206586e-11
2.96445e-11
1.036717e-10
1.033812e-11
8.920734e-11
4.262346e-11
4.436895e-12
-4.348473e-11
7.095066e-12
-7.501916e-11
-5.149782e-13
-6.271481e-11
-2.502157e-11
-1.673735e-11
-7.162954e-11
5.48848e-11
-1.443659e-10
1.455709e-10
-2.462533e-10
2.499404e-10
-3.794496e-10
3.636289e-10
-5.453701e-10
4.83118e-10
-7.447975e-10
6.055854e-10
-9.77979e-10
7.287778e-10
-1.244714e-09
8.509045e-10
-1.544432e-09
9.705494e-10
-1.876257e-09
1.0866e-09
-2.239067e-09
1.198187e-09
-2.63154e-09
1.304643e-09
-3.052199e-09
1.405458e-09
-3.499445e-09
1.500253e-09
-3.971585e-09
1.588755e-09
-4.466856e-09
1.670778e-09
-4.98345e-09
1.746205e-09
-5.519526e-09
1.814976e-09
-6.073225e-09
1.877076e-09
-6.642685e-09
1.932527e-09
-7.226047e-09
1.981382e-09
-7.821463e-09
2.023717e-09
-8.427105e-09
2.059626e-09
-9.041166e-09
2.089218e-09
-9.661869e-09
2.112611e-09
-1.028747e-08
2.129935e-09
-1.091624e-08
2.141321e-09
-1.154652e-08
2.146908e-09
-1.217665e-08
2.146834e-09
-1.280504e-08
2.141239e-09
-1.34301e-08
2.130264e-09
-1.405032e-08
2.114047e-09
-1.46642e-08
2.092728e-09
-1.527028e-08
2.066443e-09
-1.586714e-08
2.035327e-09
-1.645342e-08
1.999513e-09
-1.702777e-08
1.959133e-09
-1.758889e-08
1.914316e-09
-1.81355e-08
1.865193e-09
-1.86664e-08
1.81189e-09
-1.918037e-08
1.754536e-09
-1.967629e-08
1.693259e-09
-2.015302e-08
1.628185e-09
-2.06095e-08
1.559446e-09
-2.104469e-08
1.487173e-09
-2.14576e-08
1.411497e-09
-2.184727e-08
1.332557e-09
-2.22128e-08
1.250491e-09
-2.25533e-08
1.165443e-09
-2.286797e-08
1.077561e-09
-2.315602e-08
9.86999e-10
-2.341672e-08
8.939157e-10
-2.364939e-08
7.984761e-10
-2.38534e-08
7.008518e-10
-2.402818e-08
6.012211e-10
-2.41732e-08
4.997699e-10
-2.4288e-08
3.966913e-10
-2.437219e-08
2.921863e-10
-2.442541e-08
1.864639e-10
-2.444738e-08
7.974088e-11
-2.443791e-08
-2.77577e-11
-2.439683e-08
-1.357988e-10
-2.432409e-08
-2.441416e-10
-2.421967e-08
-3.525373e-10
-2.408365e-08
-4.607299e-10
-2.391619e-08
-5.684561e-10
-2.371751e-08
-6.754459e-10
-2.348791e-08
-7.814231e-10
-2.32278e-08
-8.861059e-10
-2.293764e-08
-9.892073e-10
-2.2618e-08
-1.090436e-09
-2.22695e-08
-1.189498e-09
-2.189288e-08
-1.286094e-09
-2.148896e-08
-1.379927e-09
-2.105862e-08
-1.470696e-09
-2.060286e-08
-1.558102e-09
-2.012274e-08
-1.641846e-09
-1.961942e-08
-1.721633e-09
-1.909414e-08
-1.797171e-09
-1.85482e-08
-1.868172e-09
-1.798302e-08
-1.934356e-09
-1.740006e-08
-1.995449e-09
-1.680088e-08
-2.051187e-09
-1.618709e-08
-2.101316e-09
-1.556039e-08
-2.145592e-09
-1.492253e-08
-2.183786e-09
-1.427533e-08
-2.215682e-09
-1.362066e-08
-2.241079e-09
-1.296044e-08
-2.259793e-09
-1.229663e-08
-2.27166e-09
-1.163124e-08
-2.276533e-09
-1.096631e-08
-2.274289e-09
-1.030392e-08
-2.264822e-09
-9.646133e-09
-2.248056e-09
-8.995064e-09
-2.223936e-09
-8.352813e-09
-2.192433e-09
-7.721479e-09
-2.153549e-09
-7.103149e-09
-2.107313e-09
-6.499887e-09
-2.053787e-09
-5.913727e-09
-1.993067e-09
-5.346657e-09
-1.925283e-09
-4.800612e-09
-1.850607e-09
-4.277457e-09
-1.769251e-09
-3.778979e-09
-1.681473e-09
-3.306867e-09
-1.587586e-09
-2.862694e-09
-1.487957e-09
-2.447905e-09
-1.38302e-09
-2.06379e-09
-1.273284e-09
-1.71146e-09
-1.159345e-09
-1.391824e-09
-1.041902e-09
-1.105555e-09
-9.217721e-10
-8.530517e-10
-7.999204e-10
-6.344038e-10
-6.774842e-10
-4.4934e-10
-5.558121e-10
-2.971771e-10
-4.365081e-10
-1.767596e-10
-3.214868e-10
-8.639385e-11
-2.130393e-10
-2.377447e-11
-1.139094e-10
1.409588e-11
-2.738129e-11
3.099826e-11
4.262498e-11
3.16098e-11
9.145436e-11
2.165886e-11
1.136227e-10
8.176978e-12
1.026891e-10
5.080035e-11
5.331041e-13
-4.401758e-11
-7.020264e-12
-6.746564e-11
-3.023584e-11
-3.949963e-11
-7.521274e-11
2.823902e-11
-1.46823e-10
1.264946e-10
-2.488795e-10
2.476272e-10
-3.842689e-10
3.853294e-10
-5.550639e-10
5.344234e-10
-7.626245e-10
6.906784e-10
-1.007691e-09
8.506521e-10
-1.29047e-09
1.011556e-09
-1.61071e-09
1.171144e-09
-1.967774e-09
1.327613e-09
-2.360702e-09
1.479528e-09
-2.78827e-09
1.625755e-09
-3.249031e-09
1.765404e-09
-3.741365e-09
1.897792e-09
-4.263511e-09
2.022399e-09
-4.813598e-09
2.138843e-09
-5.389674e-09
2.246855e-09
-5.989726e-09
2.346257e-09
-6.611698e-09
2.436948e-09
-7.253511e-09
2.518889e-09
-7.913072e-09
2.592089e-09
-8.588289e-09
2.656599e-09
-9.277077e-09
2.712505e-09
-9.977365e-09
2.759915e-09
-1.068711e-08
2.798961e-09
-1.140429e-08
2.829789e-09
-1.212691e-08
2.852558e-09
-1.285302e-08
2.867435e-09
-1.358071e-08
2.874595e-09
-1.430809e-08
2.874216e-09
-1.503333e-08
2.866476e-09
-1.575462e-08
2.851559e-09
-1.647022e-08
2.829644e-09
-1.717841e-08
2.800914e-09
-1.787751e-08
2.765546e-09
-1.85659e-08
2.723719e-09
-1.9242e-08
2.675609e-09
-1.990426e-08
2.621391e-09
-2.055118e-08
2.561237e-09
-2.118131e-08
2.49532e-09
-2.179323e-08
2.423811e-09
-2.238557e-08
2.34688e-09
-2.295701e-08
2.264701e-09
-2.350627e-08
2.177445e-09
-2.403212e-08
2.085288e-09
-2.453335e-08
1.988405e-09
-2.500883e-08
1.886977e-09
-2.545746e-08
1.781189e-09
-2.58782e-08
1.671228e-09
-2.627005e-08
1.55729e-09
-2.663206e-08
1.439574e-09
-2.696335e-08
1.318287e-09
-2.726307e-08
1.193644e-09
-2.753047e-08
1.065867e-09
-2.77648e-08
9.351883e-10
-2.796543e-08
8.018472e-10
-2.813175e-08
6.660937e-10
-2.826325e-08
5.281875e-10
-2.835946e-08
3.883984e-10
-2.842e-08
2.470065e-10
-2.844456e-08
1.043026e-10
-2.843291e-08
-3.941232e-11
-2.838488e-08
-1.838265e-10
-2.830041e-08
-3.28618e-10
-2.817949e-08
-4.734549e-10
-2.802222e-08
-6.179956e-10
-2.782879e-08
-7.61889e-10
-2.759946e-08
-9.047757e-10
-2.73346e-08
-1.046288e-09
-2.703465e-08
-1.186051e-09
-2.670018e-08
-1.323683e-09
-2.633181e-08
-1.458798e-09
-2.593031e-08
-1.591004e-09
-2.54965e-08
-1.719907e-09
-2.503131e-08
-1.845109e-09
-2.45358e-08
-1.966215e-09
-2.401107e-08
-2.082826e-09
-2.345837e-08
-2.194548e-09
-2.287902e-08
-2.300989e-09
-2.227442e-08
-2.401765e-09
-2.16461e-08
-2.496494e-09
-2.099565e-08
-2.584807e-09
-2.032476e-08
-2.666343e-09
-1.963519e-08
-2.740752e-09
-1.892881e-08
-2.8077e-09
-1.820753e-08
-2.866867e-09
-1.747337e-08
-2.917949e-09
-1.672839e-08
-2.960665e-09
-1.597472e-08
-2.99475e-09
-1.521454e-08
-3.019964e-09
-1.445011e-08
-3.036093e-09
-1.36837e-08
-3.042946e-09
-1.291763e-08
-3.040361e-09
-1.215424e-08
-3.028208e-09
-1.139591e-08
-3.006385e-09
-1.064502e-08
-2.974827e-09
-9.903953e-09
-2.933502e-09
-9.175084e-09
-2.882418e-09
-8.460776e-09
-2.821621e-09
-7.763363e-09
-2.7512e-09
-7.085139e-09
-2.671291e-09
-6.428345e-09
-2.582077e-09
-5.795158e-09
-2.483793e-09
-5.187676e-09
-2.376733e-09
-4.6079e-09
-2.261249e-09
-4.05772e-09
-2.137767e-09
-3.538892e-09
-2.006785e-09
-3.053024e-09
-1.868889e-09
-2.601544e-09
-1.724763e-09
-2.185685e-09
-1.575205e-09
-1.806446e-09
-1.42114e-09
-1.464567e-09
-1.263651e-09
-1.160491e-09
-1.103997e-09
-8.943217e-10
-9.436534e-10
-6.657821e-10
-7.843517e-10
-4.741631e-10
-6.281271e-10
-3.182698e-10
-4.773801e-10
-1.963635e-10
-3.349456e-10
-1.060975e-10
-2.041754e-10
-4.444819e-11
-8.903068e-11
-7.63518e-12
5.811948e-12
8.976111e-12
7.484311e-11
1.100529e-11
1.115936e-10
5.248278e-12
1.08446e-10
5.604852e-11
-3.781483e-12
-4.02359e-11
-2.271228e-11
-4.853508e-11
-6.328922e-11
1.07676e-12
-1.308958e-10
9.584515e-11
-2.29907e-10
2.255055e-10
-3.637826e-10
3.815024e-10
-5.351551e-10
5.567013e-10
-7.459124e-10
7.451803e-10
-9.972768e-10
9.420427e-10
-1.289881e-09
1.143256e-09
-1.623837e-09
1.345513e-09
-1.998809e-09
1.546115e-09
-2.41407e-09
1.742874e-09
-2.868563e-09
1.934022e-09
-3.360957e-09
2.118148e-09
-3.889684e-09
2.294132e-09
-4.45299e-09
2.461099e-09
-5.048968e-09
2.618376e-09
-5.675585e-09
2.765461e-09
-6.330719e-09
2.901988e-09
-7.012173e-09
3.027711e-09
-7.7177e-09
3.142476e-09
-8.445021e-09
3.24621e-09
-9.191838e-09
3.338906e-09
-9.955847e-09
3.420608e-09
-1.073475e-08
3.491404e-09
-1.152625e-08
3.551418e-09
-1.232809e-08
3.600799e-09
-1.313802e-08
3.639722e-09
-1.395384e-08
3.668374e-09
-1.477336e-08
3.68696e-09
-1.559446e-08
3.695691e-09
-1.641502e-08
3.694784e-09
-1.723301e-08
3.684463e-09
-1.80464e-08
3.664953e-09
-1.885324e-08
3.63648e-09
-1.96516e-08
3.599271e-09
-2.04396e-08
3.553551e-09
-2.121543e-08
3.499545e-09
-2.19773e-08
3.437476e-09
-2.272347e-08
3.367566e-09
-2.345227e-08
3.290037e-09
-2.416206e-08
3.205108e-09
-2.485125e-08
3.112999e-09
-2.55183e-08
3.013931e-09
-2.616172e-08
2.908124e-09
-2.678008e-08
2.795802e-09
-2.737198e-08
2.67719e-09
-2.793609e-08
2.552516e-09
-2.847113e-08
2.422014e-09
-2.897586e-08
2.285923e-09
-2.944912e-08
2.144486e-09
-2.988978e-08
1.997956e-09
-3.02968e-08
1.846591e-09
-3.066917e-08
1.69066e-09
-3.100597e-08
1.53044e-09
-3.130632e-08
1.366219e-09
-3.156943e-08
1.198296e-09
-3.179456e-08
1.02698e-09
-3.198106e-08
8.52595e-10
-3.212835e-08
6.754745e-10
-3.223592e-08
4.959661e-10
-3.230334e-08
3.144304e-10
-3.233028e-08
1.31241e-10
-3.231648e-08
-5.32152e-11
-3.226177e-08
-2.385383e-10
-3.216607e-08
-4.243156e-10
-3.20294e-08
-6.101216e-10
-3.185188e-08
-7.955189e-10
-3.163371e-08
-9.800586e-10
-3.137521e-08
-1.163281e-09
-3.107678e-08
-1.344716e-09
-3.073894e-08
-1.523886e-09
-3.036232e-08
-1.700303e-09
-2.994765e-08
-1.873474e-09
-2.949575e-08
-2.042901e-09
-2.900757e-08
-2.208082e-09
-2.848417e-08
-2.36851e-09
-2.792671e-08
-2.52368e-09
-2.733645e-08
-2.673088e-09
-2.671476e-08
-2.816232e-09
-2.606314e-08
-2.952615e-09
-2.538316e-08
-3.081745e-09
-2.467651e-08
-3.203143e-09
-2.394498e-08
-3.316337e-09
-2.319045e-08
-3.42087e-09
-2.24149e-08
-3.516301e-09
-2.16204e-08
-3.602204e-09
-2.080909e-08
-3.678175e-09
-1.998321e-08
-3.743833e-09
-1.914505e-08
-3.798818e-09
-1.8297e-08
-3.842801e-09
-1.744149e-08
-3.875478e-09
-1.6581e-08
-3.89658e-09
-1.571808e-08
-3.905869e-09
-1.485529e-08
-3.903145e-09
-1.399526e-08
-3.888245e-09
-1.31406e-08
-3.861047e-09
-1.229395e-08
-3.821472e-09
-1.145796e-08
-3.769489e-09
-1.063527e-08
-3.705114e-09
-9.828474e-09
-3.628413e-09
-9.040165e-09
-3.53951e-09
-8.272872e-09
-3.438585e-09
-7.529068e-09
-3.325881e-09
-6.811151e-09
-3.20171e-09
-6.121428e-09
-3.066455e-09
-5.4621e-09
-2.920578e-09
-4.835237e-09
-2.76463e-09
-4.242765e-09
-2.599256e-09
-3.68644e-09
-2.425213e-09
-3.167826e-09
-2.243378e-09
-2.688265e-09
-2.054766e-09
-2.248852e-09
-1.860553e-09
-1.850401e-09
-1.662102e-09
-1.49341e-09
-1.460988e-09
-1.178022e-09
-1.259041e-09
-9.039874e-10
-1.058387e-09
-6.706135e-10
-8.615011e-10
-4.767217e-10
-6.712719e-10
-3.205949e-10
-4.910724e-10
-1.999247e-10
-3.248456e-10
-1.117534e-10
-1.77202e-10
-5.240968e-11
-5.353178e-11
-1.743189e-11
3.986529e-11
-1.472449e-12
9.563419e-11
1.825083e-12
1.051484e-10
5.78735e-11
-8.325041e-12
-3.191107e-11
-3.936812e-11
-1.749245e-11
-9.848985e-11
6.019803e-11
-1.902505e-10
1.876054e-10
-3.18415e-10
3.536695e-10
-4.859843e-10
5.490713e-10
-6.952428e-10
7.659593e-10
-9.478108e-10
9.977478e-10
-1.244701e-09
1.238933e-09
-1.586379e-09
1.484933e-09
-1.972817e-09
1.73195e-09
-2.403553e-09
1.976851e-09
-2.877744e-09
2.217065e-09
-3.394222e-09
2.4505e-09
-3.951534e-09
2.67546e-09
-4.547993e-09
2.890591e-09
-5.181712e-09
3.094818e-09
-5.850642e-09
3.287307e-09
-6.552605e-09
3.467424e-09
-7.285317e-09
3.634701e-09
-8.046417e-09
3.78881e-09
-8.833482e-09
3.929541e-09
-9.644052e-09
4.056781e-09
-1.047564e-08
4.170496e-09
-1.132576e-08
4.270721e-09
-1.219189e-08
4.357543e-09
-1.307157e-08
4.431096e-09
-1.396232e-08
4.491547e-09
-1.486169e-08
4.539095e-09
-1.576728e-08
4.573959e-09
-1.667669e-08
4.596376e-09
-1.75876e-08
4.606597e-09
-1.84977e-08
4.604882e-09
-1.940473e-08
4.591497e-09
-2.030649e-08
4.566714e-09
-2.120082e-08
4.530806e-09
-2.20856e-08
4.484048e-09
-2.295877e-08
4.426717e-09
-2.381831e-08
4.359087e-09
-2.466226e-08
4.281432e-09
-2.548872e-08
4.194026e-09
-2.629583e-08
4.097143e-09
-2.708178e-08
3.991055e-09
-2.784482e-08
3.876036e-09
-2.858324e-08
3.752359e-09
-2.929542e-08
3.6203e-09
-2.997975e-08
3.480138e-09
-3.063472e-08
3.332154e-09
-3.125884e-08
3.176636e-09
-3.18507e-08
3.013876e-09
-3.240895e-08
2.844172e-09
-3.293229e-08