/*--------------------------------*- C++ -*----------------------------------*\
| =========                 |                                                 |
| \\      /  F ield         | OpenFOAM: The Open Source CFD Toolbox           |
|  \\    /   O peration     | Version:  2406                                  |
|   \\  /    A nd           | Website:  www.openfoam.com                      |
|    \\/     M anipulation  |                                                 |
\*---------------------------------------------------------------------------*/
FoamFile
{
    version     2.0;
    format      ascii;
    arch        "LSB;label=32;scalar=64";
    class       volVectorField;
    location    "6600";
    object      U;
}
// * * * * * * * * * * * * * * * * * * * * * * * * * * * * * * * * * * * * * //

dimensions      [0 1 -1 0 0 0 0];

internalField   nonuniform List<vector> 
16384
(
(2.252606e-10 -2.428856e-10 0)
(2.142255e-09 -6.434752e-10 0)
(5.21935e-09 -8.241746e-10 0)
(8.558743e-09 -8.215762e-10 0)
(1.141863e-08 -7.146397e-10 0)
(1.336211e-08 -5.474341e-10 0)
(1.411788e-08 -3.491631e-10 0)
(1.352344e-08 -1.377524e-10 0)
(1.149227e-08 7.634961e-11 0)
(7.989724e-09 2.870739e-10 0)
(3.016761e-09 4.90849e-10 0)
(-3.400984e-09 6.855527e-10 0)
(-1.122069e-08 8.699763e-10 0)
(-2.038746e-08 1.043489e-09 0)
(-3.083796e-08 1.205788e-09 0)
(-4.250319e-08 1.356791e-09 0)
(-5.531038e-08 1.496601e-09 0)
(-6.918439e-08 1.625415e-09 0)
(-8.40489e-08 1.743463e-09 0)
(-9.982723e-08 1.851017e-09 0)
(-1.164429e-07 1.948382e-09 0)
(-1.338202e-07 2.035878e-09 0)
(-1.518843e-07 2.113842e-09 0)
(-1.705619e-07 2.182613e-09 0)
(-1.897811e-07 2.242522e-09 0)
(-2.094717e-07 2.293896e-09 0)
(-2.295653e-07 2.337059e-09 0)
(-2.499952e-07 2.372324e-09 0)
(-2.706968e-07 2.399987e-09 0)
(-2.91607e-07 2.42033e-09 0)
(-3.126648e-07 2.433628e-09 0)
(-3.338111e-07 2.440149e-09 0)
(-3.549882e-07 2.440143e-09 0)
(-3.761404e-07 2.43384e-09 0)
(-3.972136e-07 2.42145e-09 0)
(-4.181555e-07 2.403175e-09 0)
(-4.389151e-07 2.379213e-09 0)
(-4.59443e-07 2.349758e-09 0)
(-4.796914e-07 2.314989e-09 0)
(-4.996136e-07 2.27507e-09 0)
(-5.191646e-07 2.23015e-09 0)
(-5.383004e-07 2.180373e-09 0)
(-5.569785e-07 2.125878e-09 0)
(-5.751576e-07 2.066801e-09 0)
(-5.927975e-07 2.003272e-09 0)
(-6.098593e-07 1.935415e-09 0)
(-6.263053e-07 1.863349e-09 0)
(-6.420989e-07 1.787193e-09 0)
(-6.572047e-07 1.707068e-09 0)
(-6.715886e-07 1.623098e-09 0)
(-6.852176e-07 1.535411e-09 0)
(-6.980599e-07 1.444138e-09 0)
(-7.100852e-07 1.349405e-09 0)
(-7.212643e-07 1.251345e-09 0)
(-7.315695e-07 1.1501e-09 0)
(-7.409744e-07 1.045823e-09 0)
(-7.494542e-07 9.386784e-10 0)
(-7.569855e-07 8.288358e-10 0)
(-7.635467e-07 7.164707e-10 0)
(-7.691178e-07 6.017671e-10 0)
(-7.736807e-07 4.849217e-10 0)
(-7.77219e-07 3.661451e-10 0)
(-7.797184e-07 2.45661e-10 0)
(-7.811665e-07 1.237035e-10 0)
(-7.815533e-07 5.175337e-13 0)
(-7.808708e-07 -1.236399e-10 0)
(-7.791134e-07 -2.484976e-10 0)
(-7.762779e-07 -3.737697e-10 0)
(-7.723637e-07 -4.991583e-10 0)
(-7.673727e-07 -6.24355e-10 0)
(-7.613095e-07 -7.49042e-10 0)
(-7.541816e-07 -8.728913e-10 0)
(-7.45999e-07 -9.955636e-10 0)
(-7.36775e-07 -1.116709e-09 0)
(-7.265256e-07 -1.235967e-09 0)
(-7.152699e-07 -1.352972e-09 0)
(-7.030301e-07 -1.467352e-09 0)
(-6.898314e-07 -1.57873e-09 0)
(-6.757022e-07 -1.686725e-09 0)
(-6.60674e-07 -1.790954e-09 0)
(-6.447816e-07 -1.891034e-09 0)
(-6.280626e-07 -1.986579e-09 0)
(-6.105579e-07 -2.077208e-09 0)
(-5.923116e-07 -2.162543e-09 0)
(-5.733706e-07 -2.242209e-09 0)
(-5.537849e-07 -2.315841e-09 0)
(-5.336074e-07 -2.383079e-09 0)
(-5.128936e-07 -2.443576e-09 0)
(-4.91702e-07 -2.496995e-09 0)
(-4.700936e-07 -2.543015e-09 0)
(-4.481316e-07 -2.581329e-09 0)
(-4.258819e-07 -2.611646e-09 0)
(-4.034123e-07 -2.633695e-09 0)
(-3.807926e-07 -2.647224e-09 0)
(-3.580946e-07 -2.652002e-09 0)
(-3.353915e-07 -2.647819e-09 0)
(-3.12758e-07 -2.634488e-09 0)
(-2.902699e-07 -2.611849e-09 0)
(-2.680042e-07 -2.579764e-09 0)
(-2.460383e-07 -2.538122e-09 0)
(-2.244504e-07 -2.486838e-09 0)
(-2.033186e-07 -2.425853e-09 0)
(-1.827211e-07 -2.355138e-09 0)
(-1.627358e-07 -2.274691e-09 0)
(-1.434398e-07 -2.184536e-09 0)
(-1.249093e-07 -2.084731e-09 0)
(-1.072192e-07 -1.975361e-09 0)
(-9.044261e-08 -1.856547e-09 0)
(-7.465055e-08 -1.728443e-09 0)
(-5.991147e-08 -1.591245e-09 0)
(-4.629065e-08 -1.445191e-09 0)
(-3.384966e-08 -1.290578e-09 0)
(-2.264553e-08 -1.127771e-09 0)
(-1.272985e-08 -9.572318e-10 0)
(-4.147677e-09 -7.795451e-10 0)
(3.064025e-09 -5.95467e-10 0)
(8.878256e-09 -4.060083e-10 0)
(1.328059e-08 -2.125674e-10 0)
(1.627267e-08 -1.714522e-11 0)
(1.787717e-08 1.773072e-10 0)
(1.814467e-08 3.663071e-10 0)
(1.71638e-08 5.428516e-10 0)
(1.507595e-08 6.957182e-10 0)
(1.209636e-08 8.067807e-10 0)
(8.541827e-09 8.480357e-10 0)
(4.876284e-09 7.789744e-10 0)
(1.812432e-09 5.33431e-10 0)
(1.214208e-10 1.215212e-10 0)
(6.348375e-10 -2.16838e-09 0)
(4.988306e-09 -5.002701e-09 0)
(1.106043e-08 -6.109372e-09 0)
(1.717731e-08 -5.753494e-09 0)
(2.185383e-08 -4.366855e-09 0)
(2.411792e-08 -2.298539e-09 0)
(2.330628e-08 1.981009e-10 0)
(1.898377e-08 2.945075e-09 0)
(1.08896e-08 5.81857e-09 0)
(-1.107563e-09 8.732351e-09 0)
(-1.70437e-08 1.162596e-08 0)
(-3.688439e-08 1.445672e-08 0)
(-6.05434e-08 1.719448e-08 0)
(-8.789633e-08 1.981796e-08 0)
(-1.187908e-07 2.231233e-08 0)
(-1.530541e-07 2.466744e-08 0)
(-1.904995e-07 2.687672e-08 0)
(-2.309301e-07 2.89362e-08 0)
(-2.741428e-07 3.084385e-08 0)
(-3.199311e-07 3.259914e-08 0)
(-3.680867e-07 3.420273e-08 0)
(-4.184016e-07 3.565614e-08 0)
(-4.706691e-07 3.696158e-08 0)
(-5.246846e-07 3.812173e-08 0)
(-5.802471e-07 3.913967e-08 0)
(-6.371587e-07 4.001869e-08 0)
(-6.95226e-07 4.076228e-08 0)
(-7.542598e-07 4.137402e-08 0)
(-8.140755e-07 4.185755e-08 0)
(-8.744933e-07 4.22165e-08 0)
(-9.35338e-07 4.245448e-08 0)
(-9.964392e-07 4.257507e-08 0)
(-1.057631e-06 4.258173e-08 0)
(-1.118753e-06 4.247786e-08 0)
(-1.179647e-06 4.226673e-08 0)
(-1.240164e-06 4.195153e-08 0)
(-1.300153e-06 4.153532e-08 0)
(-1.359473e-06 4.102109e-08 0)
(-1.417984e-06 4.041171e-08 0)
(-1.475549e-06 3.970996e-08 0)
(-1.532039e-06 3.891852e-08 0)
(-1.587325e-06 3.804e-08 0)
(-1.641283e-06 3.707692e-08 0)
(-1.693794e-06 3.603178e-08 0)
(-1.744739e-06 3.4907e-08 0)
(-1.794007e-06 3.3705e-08 0)
(-1.841486e-06 3.242817e-08 0)
(-1.887073e-06 3.107889e-08 0)
(-1.930662e-06 2.965959e-08 0)
(-1.972156e-06 2.817271e-08 0)
(-2.01146e-06 2.662075e-08 0)
(-2.048481e-06 2.500625e-08 0)
(-2.083132e-06 2.333186e-08 0)
(-2.115329e-06 2.160028e-08 0)
(-2.144993e-06 1.981432e-08 0)
(-2.172047e-06 1.797696e-08 0)
(-2.196421e-06 1.609125e-08 0)
(-2.218048e-06 1.416042e-08 0)
(-2.236867e-06 1.218784e-08 0)
(-2.252821e-06 1.017703e-08 0)
(-2.265859e-06 8.131665e-09 0)
(-2.275935e-06 6.055626e-09 0)
(-2.283008e-06 3.952955e-09 0)
(-2.287045e-06 1.827877e-09 0)
(-2.288018e-06 -3.151987e-10 0)
(-2.285906e-06 -2.471678e-09 0)
(-2.280694e-06 -4.636778e-09 0)
(-2.272374e-06 -6.805534e-09 0)
(-2.260946e-06 -8.972803e-09 0)
(-2.246417e-06 -1.113328e-08 0)
(-2.228803e-06 -1.328149e-08 0)
(-2.208125e-06 -1.541182e-08 0)
(-2.184415e-06 -1.75185e-08 0)
(-2.157711e-06 -1.959565e-08 0)
(-2.128063e-06 -2.163726e-08 0)
(-2.095525e-06 -2.363722e-08 0)
(-2.060163e-06 -2.558935e-08 0)
(-2.02205e-06 -2.748743e-08 0)
(-1.981269e-06 -2.932517e-08 0)
(-1.937913e-06 -3.109629e-08 0)
(-1.89208e-06 -3.27945e-08 0)
(-1.84388e-06 -3.441355e-08 0)
(-1.793432e-06 -3.594725e-08 0)
(-1.740861e-06 -3.738949e-08 0)
(-1.686304e-06 -3.873426e-08 0)
(-1.629903e-06 -3.99757e-08 0)
(-1.57181e-06 -4.110811e-08 0)
(-1.512185e-06 -4.212599e-08 0)
(-1.451195e-06 -4.302403e-08 0)
(-1.389014e-06 -4.379722e-08 0)
(-1.325823e-06 -4.444077e-08 0)
(-1.261809e-06 -4.495022e-08 0)
(-1.197166e-06 -4.532145e-08 0)
(-1.132093e-06 -4.555066e-08 0)
(-1.066794e-06 -4.563446e-08 0)
(-1.001477e-06 -4.556984e-08 0)
(-9.36354e-07 -4.535423e-08 0)
(-8.716398e-07 -4.49855e-08 0)
(-8.075522e-07 -4.446201e-08 0)
(-7.443106e-07 -4.378258e-08 0)
(-6.821353e-07 -4.294658e-08 0)
(-6.212467e-07 -4.195393e-08 0)
(-5.618649e-07 -4.080509e-08 0)
(-5.042082e-07 -3.950115e-08 0)
(-4.484927e-07 -3.804383e-08 0)
(-3.949308e-07 -3.643555e-08 0)
(-3.437307e-07 -3.467944e-08 0)
(-2.950947e-07 -3.277949e-08 0)
(-2.492182e-07 -3.074056e-08 0)
(-2.062879e-07 -2.856857e-08 0)
(-1.664805e-07 -2.627063e-08 0)
(-1.299606e-07 -2.385525e-08 0)
(-9.687814e-08 -2.133269e-08 0)
(-6.73657e-08 -1.871529e-08 0)
(-4.153508e-08 -1.601813e-08 0)
(-1.947289e-08 -1.325971e-08 0)
(-1.234956e-09 -1.046309e-08 0)
(1.316079e-08 -7.657463e-09 0)
(2.374367e-08 -4.880368e-09 0)
(3.060259e-08 -2.180972e-09 0)
(3.390236e-08 3.752151e-10 0)
(3.390542e-08 2.699489e-09 0)
(3.10007e-08 4.670301e-09 0)
(2.573983e-08 6.120789e-09 0)
(1.887746e-08 6.825614e-09 0)
(1.142797e-08 6.495407e-09 0)
(4.819507e-09 4.822139e-09 0)
(5.319662e-10 1.811335e-09 0)
(8.236675e-10 -5.235127e-09 0)
(6.117669e-09 -1.107427e-08 0)
(1.284559e-08 -1.282579e-08 0)
(1.892366e-08 -1.132546e-08 0)
(2.249444e-08 -7.440652e-09 0)
(2.228944e-08 -1.891154e-09 0)
(1.739622e-08 4.767283e-09 0)
(7.18372e-09 1.211885e-08 0)
(-8.75057e-09 1.985665e-08 0)
(-3.062973e-08 2.775516e-08 0)
(-5.853792e-08 3.564866e-08 0)
(-9.245235e-08 4.341533e-08 0)
(-1.322683e-07 5.096568e-08 0)
(-1.778186e-07 5.823415e-08 0)
(-2.28889e-07 6.517319e-08 0)
(-2.852294e-07 7.174882e-08 0)
(-3.465641e-07 7.793742e-08 0)
(-4.125982e-07 8.37233e-08 0)
(-4.83024e-07 8.909681e-08 0)
(-5.575254e-07 9.405309e-08 0)
(-6.357813e-07 9.859096e-08 0)
(-7.174687e-07 1.027122e-07 0)
(-8.022648e-07 1.064206e-07 0)
(-8.898487e-07 1.097221e-07 0)
(-9.799033e-07 1.126234e-07 0)
(-1.072116e-06 1.151324e-07 0)
(-1.166178e-06 1.172578e-07 0)
(-1.26179e-06 1.190086e-07 0)
(-1.358656e-06 1.203942e-07 0)
(-1.456488e-06 1.214241e-07 0)
(-1.555005e-06 1.221079e-07 0)
(-1.653932e-06 1.224551e-07 0)
(-1.753002e-06 1.224751e-07 0)
(-1.851955e-06 1.221773e-07 0)
(-1.950539e-06 1.215706e-07 0)
(-2.048507e-06 1.206638e-07 0)
(-2.145619e-06 1.194657e-07 0)
(-2.241643e-06 1.179845e-07 0)
(-2.336353e-06 1.162285e-07 0)
(-2.429529e-06 1.142054e-07 0)
(-2.520957e-06 1.11923e-07 0)
(-2.61043e-06 1.093888e-07 0)
(-2.697746e-06 1.066101e-07 0)
(-2.782709e-06 1.035942e-07 0)
(-2.865131e-06 1.003481e-07 0)
(-2.944826e-06 9.687905e-08 0)
(-3.021618e-06 9.319394e-08 0)
(-3.095333e-06 8.929989e-08 0)
(-3.165805e-06 8.520404e-08 0)
(-3.232875e-06 8.09136e-08 0)
(-3.296388e-06 7.643596e-08 0)
(-3.356194e-06 7.177867e-08 0)
(-3.412154e-06 6.694949e-08 0)
(-3.464132e-06 6.195648e-08 0)
(-3.511999e-06 5.680797e-08 0)
(-3.555634e-06 5.151263e-08 0)
(-3.594922e-06 4.607949e-08 0)
(-3.629759e-06 4.0518e-08 0)
(-3.660044e-06 3.4838e-08 0)
(-3.685688e-06 2.90498e-08 0)
(-3.70661e-06 2.316414e-08 0)
(-3.722736e-06 1.719228e-08 0)
(-3.734004e-06 1.114596e-08 0)
(-3.74036e-06 5.037424e-09 0)
(-3.741761e-06 -1.12058e-09 0)
(-3.738174e-06 -7.314783e-09 0)
(-3.729578e-06 -1.353141e-08 0)
(-3.715962e-06 -1.975618e-08 0)
(-3.697328e-06 -2.597436e-08 0)
(-3.673688e-06 -3.217072e-08 0)
(-3.645069e-06 -3.83296e-08 0)
(-3.61151e-06 -4.443495e-08 0)
(-3.573061e-06 -5.047031e-08 0)
(-3.529788e-06 -5.641888e-08 0)
(-3.48177e-06 -6.226357e-08 0)
(-3.429097e-06 -6.798703e-08 0)
(-3.371878e-06 -7.357172e-08 0)
(-3.310231e-06 -7.899992e-08 0)
(-3.244291e-06 -8.425386e-08 0)
(-3.174206e-06 -8.931572e-08 0)
(-3.10014e-06 -9.416774e-08 0)
(-3.022268e-06 -9.879224e-08 0)
(-2.940782e-06 -1.031717e-07 0)
(-2.855885e-06 -1.07289e-07 0)
(-2.767795e-06 -1.111271e-07 0)
(-2.676744e-06 -1.146696e-07 0)
(-2.582974e-06 -1.179004e-07 0)
(-2.486743e-06 -1.208041e-07 0)
(-2.388319e-06 -1.233659e-07 0)
(-2.28798e-06 -1.255717e-07 0)
(-2.186017e-06 -1.274081e-07 0)
(-2.082731e-06 -1.288627e-07 0)
(-1.97843e-06 -1.299242e-07 0)
(-1.873432e-06 -1.305819e-07 0)
(-1.768064e-06 -1.308266e-07 0)
(-1.662658e-06 -1.306501e-07 0)
(-1.557551e-06 -1.300454e-07 0)
(-1.453087e-06 -1.29007e-07 0)
(-1.349612e-06 -1.275304e-07 0)
(-1.247474e-06 -1.25613e-07 0)
(-1.147023e-06 -1.232535e-07 0)
(-1.048609e-06 -1.204522e-07 0)
(-9.52581e-07 -1.172112e-07 0)
(-8.592832e-07 -1.135343e-07 0)
(-7.690566e-07 -1.094274e-07 0)
(-6.822357e-07 -1.048983e-07 0)
(-5.991467e-07 -9.995708e-08 0)
(-5.20106e-07 -9.461646e-08 0)
(-4.454174e-07 -8.889178e-08 0)
(-3.753703e-07 -8.280161e-08 0)
(-3.10236e-07 -7.636817e-08 0)
(-2.502651e-07 -6.961796e-08 0)
(-1.956832e-07 -6.258264e-08 0)
(-1.466867e-07 -5.530017e-08 0)
(-1.034366e-07 -4.781632e-08 0)
(-6.605209e-08 -4.018679e-08 0)
(-3.460203e-08 -3.247996e-08 0)
(-9.094162e-09 -2.478071e-08 0)
(1.053816e-08 -1.719566e-08 0)
(2.445279e-08 -9.860356e-09 0)
(3.292e-08 -2.948916e-09 0)
(3.634886e-08 3.313025e-09 0)
(3.531967e-08 8.631982e-09 0)
(3.062105e-08 1.262812e-08 0)
(2.328515e-08 1.481984e-08 0)
(1.4637e-08 1.462567e-08 0)
(6.495599e-09 1.142957e-08 0)
(7.763686e-10 4.871366e-09 0)
(8.260795e-10 -8.583369e-09 0)
(5.794825e-09 -1.721414e-08 0)
(1.141039e-08 -1.891648e-08 0)
(1.537373e-08 -1.526825e-08 0)
(1.565212e-08 -7.632663e-09 0)
(1.082298e-08 2.866202e-09 0)
(-1.661226e-10 1.533591e-08 0)
(-1.806675e-08 2.908455e-08 0)
(-4.337718e-08 4.358252e-08 0)
(-7.638891e-08 5.842711e-08 0)
(-1.172271e-07 7.33131e-08 0)
(-1.658842e-07 8.800969e-08 0)
(-2.222478e-07 1.023429e-07 0)
(-2.861232e-07 1.16182e-07 0)
(-3.572512e-07 1.294299e-07 0)
(-4.353234e-07 1.42015e-07 0)
(-5.199938e-07 1.53886e-07 0)
(-6.108881e-07 1.650071e-07 0)
(-7.076121e-07 1.753548e-07 0)
(-8.097571e-07 1.84915e-07 0)
(-9.169055e-07 1.936817e-07 0)
(-1.028634e-06 2.016545e-07 0)
(-1.144519e-06 2.08838e-07 0)
(-1.264136e-06 2.152403e-07 0)
(-1.387064e-06 2.208723e-07 0)
(-1.512887e-06 2.257473e-07 0)
(-1.641193e-06 2.2988e-07 0)
(-1.77158e-06 2.332863e-07 0)
(-1.903651e-06 2.35983e-07 0)
(-2.037017e-06 2.379875e-07 0)
(-2.1713e-06 2.393172e-07 0)
(-2.306128e-06 2.399898e-07 0)
(-2.44114e-06 2.400228e-07 0)
(-2.575983e-06 2.394338e-07 0)
(-2.710312e-06 2.382397e-07 0)
(-2.843794e-06 2.364575e-07 0)
(-2.976103e-06 2.341035e-07 0)
(-3.10692e-06 2.311939e-07 0)
(-3.235939e-06 2.277443e-07 0)
(-3.362858e-06 2.237701e-07 0)
(-3.487386e-06 2.192864e-07 0)
(-3.60924e-06 2.143077e-07 0)
(-3.728144e-06 2.088486e-07 0)
(-3.843832e-06 2.029232e-07 0)
(-3.956045e-06 1.965458e-07 0)
(-4.064532e-06 1.897302e-07 0)
(-4.169049e-06 1.824905e-07 0)
(-4.269362e-06 1.748408e-07 0)
(-4.365244e-06 1.667953e-07 0)
(-4.456477e-06 1.583685e-07 0)
(-4.54285e-06 1.49575e-07 0)
(-4.624163e-06 1.4043e-07 0)
(-4.700223e-06 1.30949e-07 0)
(-4.770847e-06 1.211481e-07 0)
(-4.835861e-06 1.110438e-07 0)
(-4.8951e-06 1.006534e-07 0)
(-4.94841e-06 8.999488e-08 0)
(-4.995649e-06 7.908702e-08 0)
(-5.036683e-06 6.794932e-08 0)
(-5.071392e-06 5.660217e-08 0)
(-5.099666e-06 4.506687e-08 0)
(-5.121409e-06 3.336561e-08 0)
(-5.136537e-06 2.152153e-08 0)
(-5.144979e-06 9.558742e-09 0)
(-5.146678e-06 -2.497683e-09 0)
(-5.141593e-06 -1.46217e-08 0)
(-5.129695e-06 -2.67863e-08 0)
(-5.110974e-06 -3.896356e-08 0)
(-5.085433e-06 -5.112461e-08 0)
(-5.053093e-06 -6.323974e-08 0)
(-5.013991e-06 -7.52784e-08 0)
(-4.968181e-06 -8.720927e-08 0)
(-4.915735e-06 -9.90003e-08 0)
(-4.856743e-06 -1.106188e-07 0)
(-4.791315e-06 -1.220316e-07 0)
(-4.719576e-06 -1.33205e-07 0)
(-4.641672e-06 -1.441049e-07 0)
(-4.557768e-06 -1.54697e-07 0)
(-4.468047e-06 -1.649468e-07 0)
(-4.372711e-06 -1.7482e-07 0)
(-4.271982e-06 -1.84282e-07 0)
(-4.166099e-06 -1.932987e-07 0)
(-4.055322e-06 -2.018364e-07 0)
(-3.939928e-06 -2.098618e-07 0)
(-3.820212e-06 -2.173423e-07 0)
(-3.696485e-06 -2.242462e-07 0)
(-3.569079e-06 -2.305425e-07 0)
(-3.438339e-06 -2.362016e-07 0)
(-3.304628e-06 -2.41195e-07 0)
(-3.168321e-06 -2.454957e-07 0)
(-3.029812e-06 -2.490782e-07 0)
(-2.889503e-06 -2.519189e-07 0)
(-2.747812e-06 -2.539957e-07 0)
(-2.605167e-06 -2.552888e-07 0)
(-2.462005e-06 -2.557806e-07 0)
(-2.318772e-06 -2.554557e-07 0)
(-2.175924e-06 -2.543011e-07 0)
(-2.033918e-06 -2.523065e-07 0)
(-1.89322e-06 -2.494643e-07 0)
(-1.754297e-06 -2.457698e-07 0)
(-1.617615e-06 -2.412213e-07 0)
(-1.483642e-06 -2.358204e-07 0)
(-1.352842e-06 -2.295721e-07 0)
(-1.225675e-06 -2.224851e-07 0)
(-1.102594e-06 -2.145717e-07 0)
(-9.840415e-07 -2.058488e-07 0)
(-8.704497e-07 -1.963376e-07 0)
(-7.622352e-07 -1.860644e-07 0)
(-6.59797e-07 -1.750611e-07 0)
(-5.63513e-07 -1.633662e-07 0)
(-4.737359e-07 -1.510251e-07 0)
(-3.907886e-07 -1.380922e-07 0)
(-3.149592e-07 -1.246319e-07 0)
(-2.464948e-07 -1.107209e-07 0)
(-1.855939e-07 -9.645103e-08 0)
(-1.323982e-07 -8.193292e-08 0)
(-8.698149e-08 -6.730072e-08 0)
(-4.933729e-08 -5.27186e-08 0)
(-1.93631e-08 -3.838904e-08 0)
(3.158308e-09 -2.456392e-08 0)
(1.858142e-08 -1.155867e-08 0)
(2.742469e-08 2.299732e-10 0)
(3.040156e-08 1.030291e-08 0)
(2.84541e-08 1.803663e-08 0)
(2.278309e-08 2.266599e-08 0)
(1.489704e-08 2.328545e-08 0)
(6.848445e-09 1.889509e-08 0)
(8.458934e-10 8.537413e-09 0)
(7.249756e-10 -1.147542e-08 0)
(4.450288e-09 -2.195185e-08 0)
(7.610686e-09 -2.254115e-08 0)
(7.865307e-09 -1.556768e-08 0)
(3.155699e-09 -2.905273e-09 0)
(-7.997622e-09 1.391337e-08 0)
(-2.670765e-08 3.365413e-08 0)
(-5.378454e-08 5.533867e-08 0)
(-8.977827e-08 7.819907e-08 0)
(-1.350204e-07 1.016365e-07 0)
(-1.896616e-07 1.251862e-07 0)
(-2.537038e-07 1.484885e-07 0)
(-3.270286e-07 1.712667e-07 0)
(-4.094199e-07 1.933086e-07 0)
(-5.005842e-07 2.144531e-07 0)
(-6.001664e-07 2.345792e-07 0)
(-7.077637e-07 2.535975e-07 0)
(-8.229367e-07 2.714441e-07 0)
(-9.452182e-07 2.880746e-07 0)
(-1.074122e-06 3.034611e-07 0)
(-1.209146e-06 3.175882e-07 0)
(-1.349781e-06 3.304507e-07 0)
(-1.495514e-06 3.420515e-07 0)
(-1.645829e-06 3.523999e-07 0)
(-1.800213e-06 3.615102e-07 0)
(-1.958156e-06 3.694008e-07 0)
(-2.119153e-06 3.760928e-07 0)
(-2.282709e-06 3.816096e-07 0)
(-2.448333e-06 3.859765e-07 0)
(-2.615546e-06 3.892196e-07 0)
(-2.783877e-06 3.913658e-07 0)
(-2.952867e-06 3.924424e-07 0)
(-3.122064e-06 3.924769e-07 0)
(-3.291031e-06 3.914965e-07 0)
(-3.459337e-06 3.895284e-07 0)
(-3.626566e-06 3.865991e-07 0)
(-3.792309e-06 3.827351e-07 0)
(-3.956171e-06 3.77962e-07 0)
(-4.117764e-06 3.723052e-07 0)
(-4.276713e-06 3.657895e-07 0)
(-4.432654e-06 3.584393e-07 0)
(-4.585229e-06 3.502785e-07 0)
(-4.734096e-06 3.413308e-07 0)
(-4.878919e-06 3.316195e-07 0)
(-5.019373e-06 3.211679e-07 0)
(-5.155144e-06 3.09999e-07 0)
(-5.285927e-06 2.981361e-07 0)
(-5.411429e-06 2.856025e-07 0)
(-5.531366e-06 2.724217e-07 0)
(-5.645464e-06 2.586177e-07 0)
(-5.753461e-06 2.44215e-07 0)
(-5.855106e-06 2.292385e-07 0)
(-5.950158e-06 2.137142e-07 0)
(-6.03839e-06 1.976686e-07 0)
(-6.119583e-06 1.811292e-07 0)
(-6.193536e-06 1.641247e-07 0)
(-6.260055e-06 1.466848e-07 0)
(-6.318964e-06 1.288404e-07 0)
(-6.370098e-06 1.106239e-07 0)
(-6.413308e-06 9.206878e-08 0)
(-6.44846e-06 7.321014e-08 0)
(-6.475435e-06 5.408448e-08 0)
(-6.494129e-06 3.472982e-08 0)
(-6.504459e-06 1.51857e-08 0)
(-6.506354e-06 -4.506804e-09 0)
(-6.499765e-06 -2.430507e-08 0)
(-6.48466e-06 -4.416497e-08 0)
(-6.461027e-06 -6.404088e-08 0)
(-6.428873e-06 -8.388574e-08 0)
(-6.388227e-06 -1.036511e-07 0)
(-6.339137e-06 -1.232873e-07 0)
(-6.281673e-06 -1.427434e-07 0)
(-6.215928e-06 -1.619672e-07 0)
(-6.142016e-06 -1.809058e-07 0)
(-6.060074e-06 -1.995052e-07 0)
(-5.970263e-06 -2.177108e-07 0)
(-5.872765e-06 -2.354675e-07 0)
(-5.767787e-06 -2.527197e-07 0)
(-5.655559e-06 -2.694117e-07 0)
(-5.536335e-06 -2.854877e-07 0)
(-5.41039e-06 -3.008922e-07 0)
(-5.278024e-06 -3.1557e-07 0)
(-5.139561e-06 -3.294668e-07 0)
(-4.995345e-06 -3.425288e-07 0)
(-4.845745e-06 -3.547036e-07 0)
(-4.691147e-06 -3.6594e-07 0)
(-4.531964e-06 -3.761884e-07 0)
(-4.368623e-06 -3.854011e-07 0)
(-4.201576e-06 -3.935324e-07 0)
(-4.031288e-06 -4.00539e-07 0)
(-3.858246e-06 -4.063802e-07 0)
(-3.682949e-06 -4.110179e-07 0)
(-3.505914e-06 -4.144174e-07 0)
(-3.327669e-06 -4.165471e-07 0)
(-3.148756e-06 -4.17379e-07 0)
(-2.969727e-06 -4.168889e-07 0)
(-2.79114e-06 -4.150567e-07 0)
(-2.613564e-06 -4.118664e-07 0)
(-2.437569e-06 -4.073067e-07 0)
(-2.263731e-06 -4.01371e-07 0)
(-2.092624e-06 -3.940577e-07 0)
(-1.924823e-06 -3.853708e-07 0)
(-1.760896e-06 -3.753197e-07 0)
(-1.601406e-06 -3.639199e-07 0)
(-1.446908e-06 -3.511934e-07 0)
(-1.297941e-06 -3.371694e-07 0)
(-1.155032e-06 -3.218845e-07 0)
(-1.018685e-06 -3.053837e-07 0)
(-8.893848e-07 -2.877214e-07 0)
(-7.675854e-07 -2.689627e-07 0)
(-6.5371e-07 -2.491847e-07 0)
(-5.481436e-07 -2.284783e-07 0)
(-4.512266e-07 -2.069514e-07 0)
(-3.632483e-07 -1.847313e-07 0)
(-2.844373e-07 -1.619692e-07 0)
(-2.149526e-07 -1.388457e-07 0)
(-1.54871e-07 -1.155772e-07 0)
(-1.041738e-07 -9.242506e-08 0)
(-6.27302e-08 -6.970668e-08 0)
(-3.027868e-08 -4.780974e-08 0)
(-6.404947e-09 -2.720982e-08 0)
(9.482894e-09 -8.491584e-09 0)
(1.818238e-08 7.62691e-09 0)
(2.072662e-08 2.026898e-08 0)
(1.841191e-08 2.837755e-08 0)
(1.284813e-08 3.070558e-08 0)
(6.196294e-09 2.582363e-08 0)
(8.078668e-10 1.210991e-08 0)
(5.647033e-10 -1.347589e-08 0)
(2.42688e-09 -2.431998e-08 0)
(2.146392e-09 -2.243398e-08 0)
(-2.516547e-09 -1.079851e-08 0)
(-1.352616e-08 8.229774e-09 0)
(-3.234269e-08 3.272508e-08 0)
(-6.007808e-08 6.112115e-08 0)
(-9.755068e-08 9.215656e-08 0)
(-1.453232e-07 1.248226e-07 0)
(-2.037391e-07 1.583173e-07 0)
(-2.729556e-07 1.920058e-07 0)
(-3.529739e-07 2.253881e-07 0)
(-4.436648e-07 2.580721e-07 0)
(-5.447919e-07 2.897524e-07 0)
(-6.560313e-07 3.201927e-07 0)
(-7.769885e-07 3.492125e-07 0)
(-9.072127e-07 3.766756e-07 0)
(-1.046209e-06 4.024822e-07 0)
(-1.193449e-06 4.265611e-07 0)
(-1.348377e-06 4.488647e-07 0)
(-1.510421e-06 4.693644e-07 0)
(-1.678996e-06 4.880467e-07 0)
(-1.853508e-06 5.049104e-07 0)
(-2.033363e-06 5.199641e-07 0)
(-2.217962e-06 5.332242e-07 0)
(-2.406713e-06 5.447134e-07 0)
(-2.599028e-06 5.54459e-07 0)
(-2.794323e-06 5.624921e-07 0)
(-2.992026e-06 5.688467e-07 0)
(-3.191572e-06 5.735586e-07 0)
(-3.392408e-06 5.766649e-07 0)
(-3.593989e-06 5.782038e-07 0)
(-3.795785e-06 5.782137e-07 0)
(-3.997274e-06 5.767334e-07 0)
(-4.19795e-06 5.738012e-07 0)
(-4.397316e-06 5.694555e-07 0)
(-4.594888e-06 5.637339e-07 0)
(-4.790196e-06 5.566738e-07 0)
(-4.982779e-06 5.483118e-07 0)
(-5.172191e-06 5.386841e-07 0)
(-5.357997e-06 5.278263e-07 0)
(-5.539773e-06 5.157736e-07 0)
(-5.71711e-06 5.025608e-07 0)
(-5.889608e-06 4.882223e-07 0)
(-6.056881e-06 4.727924e-07 0)
(-6.218554e-06 4.563056e-07 0)
(-6.374265e-06 4.387961e-07 0)
(-6.523663e-06 4.202988e-07 0)
(-6.666412e-06 4.008487e-07 0)
(-6.802186e-06 3.804816e-07 0)
(-6.930674e-06 3.592339e-07 0)
(-7.051576e-06 3.37143e-07 0)
(-7.164608e-06 3.142475e-07 0)
(-7.2695e-06 2.905869e-07 0)
(-7.365994e-06 2.662023e-07 0)
(-7.45385e-06 2.411364e-07 0)
(-7.532841e-06 2.154334e-07 0)
(-7.602759e-06 1.891393e-07 0)
(-7.663409e-06 1.623019e-07 0)
(-7.714616e-06 1.349712e-07 0)
(-7.756223e-06 1.07199e-07 0)
(-7.788091e-06 7.90394e-08 0)
(-7.8101e-06 5.054858e-08 0)
(-7.822151e-06 2.178491e-08 0)
(-7.824165e-06 -7.191025e-09 0)
(-7.816086e-06 -3.631644e-08 0)
(-7.797877e-06 -6.552638e-08 0)
(-7.769528e-06 -9.475378e-08 0)
(-7.73105e-06 -1.239295e-07 0)
(-7.682478e-06 -1.529825e-07 0)
(-7.623873e-06 -1.818399e-07 0)
(-7.555321e-06 -2.104269e-07 0)
(-7.476934e-06 -2.386675e-07 0)
(-7.38885e-06 -2.664839e-07 0)
(-7.291233e-06 -2.937974e-07 0)
(-7.184275e-06 -3.205283e-07 0)
(-7.068195e-06 -3.46596e-07 0)
(-6.94324e-06 -3.719194e-07 0)
(-6.809683e-06 -3.964174e-07 0)
(-6.667825e-06 -4.200086e-07 0)
(-6.517996e-06 -4.426123e-07 0)
(-6.36055e-06 -4.641482e-07 0)
(-6.195871e-06 -4.845372e-07 0)
(-6.024368e-06 -5.037012e-07 0)
(-5.846474e-06 -5.215642e-07 0)
(-5.662651e-06 -5.380517e-07 0)
(-5.473382e-06 -5.530919e-07 0)
(-5.279174e-06 -5.666157e-07 0)
(-5.080559e-06 -5.78557e-07 0)
(-4.878088e-06 -5.888531e-07 0)
(-4.672331e-06 -5.974453e-07 0)
(-4.46388e-06 -6.042789e-07 0)
(-4.253341e-06 -6.093037e-07 0)
(-4.041337e-06 -6.124746e-07 0)
(-3.828504e-06 -6.137517e-07 0)
(-3.61549e-06 -6.131005e-07 0)
(-3.402952e-06 -6.104926e-07 0)
(-3.191556e-06 -6.059061e-07 0)
(-2.981972e-06 -5.993257e-07 0)
(-2.774873e-06 -5.90743e-07 0)
(-2.570933e-06 -5.801574e-07 0)
(-2.370821e-06 -5.675761e-07 0)
(-2.175203e-06 -5.53015e-07 0)
(-1.984735e-06 -5.364987e-07 0)
(-1.800061e-06 -5.180616e-07 0)
(-1.621811e-06 -4.977487e-07 0)
(-1.450593e-06 -4.756162e-07 0)
(-1.286993e-06 -4.51733e-07 0)
(-1.131568e-06 -4.261815e-07 0)
(-9.848421e-07 -3.990601e-07 0)
(-8.472991e-07 -3.704847e-07 0)
(-7.193784e-07 -3.405918e-07 0)
(-6.014663e-07 -3.095418e-07 0)
(-4.938884e-07 -2.775231e-07 0)
(-3.969003e-07 -2.447577e-07 0)
(-3.106767e-07 -2.115083e-07 0)
(-2.352992e-07 -1.780865e-07 0)
(-1.707426e-07 -1.448642e-07 0)
(-1.168588e-07 -1.122865e-07 0)
(-7.335849e-08 -8.088898e-08 0)
(-3.979148e-08 -5.131759e-08 0)
(-1.552402e-08 -2.435219e-08 0)
(2.857657e-10 -9.335514e-10 0)
(8.714396e-09 1.780786e-08 0)
(1.109898e-08 3.052344e-08 0)
(9.08541e-09 3.562241e-08 0)
(4.83453e-09 3.124322e-08 0)
(7.034529e-10 1.514247e-08 0)
(3.735868e-10 -1.431276e-08 0)
(-3.13367e-11 -2.364932e-08 0)
(-4.451678e-09 -1.766757e-08 0)
(-1.492619e-08 1.181762e-10 0)
(-3.323425e-08 2.692449e-08 0)
(-6.075547e-08 6.046491e-08 0)
(-9.855069e-08 9.8862e-08 0)
(-1.474047e-07 1.40584e-07 0)
(-2.078591e-07 1.84388e-07 0)
(-2.80243e-07 2.292697e-07 0)
(-3.647011e-07 2.744217e-07 0)
(-4.612203e-07 3.191982e-07 0)
(-5.696533e-07 3.630849e-07 0)
(-6.8974e-07 4.056751e-07 0)
(-8.211265e-07 4.466494e-07 0)
(-9.633818e-07 4.857601e-07 0)
(-1.116012e-06 5.228173e-07 0)
(-1.278474e-06 5.576787e-07 0)
(-1.450184e-06 5.902408e-07 0)
(-1.630529e-06 6.204314e-07 0)
(-1.818872e-06 6.482046e-07 0)
(-2.014561e-06 6.735351e-07 0)
(-2.216933e-06 6.96415e-07 0)
(-2.42532e-06 7.1685e-07 0)
(-2.639052e-06 7.348571e-07 0)
(-2.857458e-06 7.504622e-07 0)
(-3.079875e-06 7.636983e-07 0)
(-3.305642e-06 7.746037e-07 0)
(-3.53411e-06 7.832212e-07 0)
(-3.764635e-06 7.895964e-07 0)
(-3.996588e-06 7.937775e-07 0)
(-4.229348e-06 7.958142e-07 0)
(-4.462307e-06 7.957568e-07 0)
(-4.694872e-06 7.936566e-07 0)
(-4.926459e-06 7.895647e-07 0)
(-5.1565e-06 7.835322e-07 0)
(-5.384441e-06 7.756096e-07 0)
(-5.609739e-06 7.658474e-07 0)
(-5.831867e-06 7.542952e-07 0)
(-6.05031e-06 7.410021e-07 0)
(-6.264568e-06 7.260167e-07 0)
(-6.474155e-06 7.093871e-07 0)
(-6.678597e-06 6.91161e-07 0)
(-6.877436e-06 6.71386e-07 0)
(-7.070226e-06 6.501094e-07 0)
(-7.256536e-06 6.273787e-07 0)
(-7.435949e-06 6.032415e-07 0)
(-7.608062e-06 5.777459e-07 0)
(-7.772487e-06 5.509409e-07 0)
(-7.928851e-06 5.228759e-07 0)
(-8.076794e-06 4.936018e-07 0)
(-8.215975e-06 4.631705e-07 0)
(-8.346066e-06 4.316355e-07 0)
(-8.466757e-06 3.99052e-07 0)
(-8.577754e-06 3.654771e-07 0)
(-8.678781e-06 3.309699e-07 0)
(-8.76958e-06 2.955917e-07 0)
(-8.849911e-06 2.594065e-07 0)
(-8.919555e-06 2.224804e-07 0)
(-8.978312e-06 1.848826e-07 0)
(-9.026002e-06 1.466847e-07 0)
(-9.062469e-06 1.079613e-07 0)
(-9.087577e-06 6.878996e-08 0)
(-9.101216e-06 2.925115e-08 0)
(-9.103297e-06 -1.057175e-08 0)
(-9.093757e-06 -5.059241e-08 0)
(-9.072559e-06 -9.072156e-08 0)
(-9.039692e-06 -1.308672e-07 0)
(-8.995172e-06 -1.709344e-07 0)
(-8.939042e-06 -2.108259e-07 0)
(-8.871375e-06 -2.504417e-07 0)
(-8.792271e-06 -2.896798e-07 0)
(-8.701861e-06 -3.284359e-07 0)
(-8.600306e-06 -3.666041e-07 0)
(-8.487797e-06 -4.040767e-07 0)
(-8.364555e-06 -4.407449e-07 0)
(-8.230833e-06 -4.764988e-07 0)
(-8.086915e-06 -5.112282e-07 0)
(-7.933117e-06 -5.448222e-07 0)
(-7.769784e-06 -5.771703e-07 0)
(-7.597295e-06 -6.081626e-07 0)
(-7.416056e-06 -6.376899e-07 0)
(-7.226507e-06 -6.656447e-07 0)
(-7.029116e-06 -6.919211e-07 0)
(-6.824381e-06 -7.164156e-07 0)
(-6.612828e-06 -7.390276e-07 0)
(-6.39501e-06 -7.596596e-07 0)
(-6.171507e-06 -7.782181e-07 0)
(-5.942925e-06 -7.946135e-07 0)
(-5.709892e-06 -8.087614e-07 0)
(-5.473061e-06 -8.205823e-07 0)
(-5.233104e-06 -8.300026e-07 0)
(-4.990712e-06 -8.36955e-07 0)
(-4.746595e-06 -8.413789e-07 0)
(-4.501476e-06 -8.432209e-07 0)
(-4.256092e-06 -8.424354e-07 0)
(-4.011191e-06 -8.389851e-07 0)
(-3.767527e-06 -8.328413e-07 0)
(-3.525861e-06 -8.239848e-07 0)
(-3.286957e-06 -8.12406e-07 0)
(-3.051578e-06 -7.981059e-07 0)
(-2.820482e-06 -7.810966e-07 0)
(-2.594422e-06 -7.614016e-07 0)
(-2.374139e-06 -7.390574e-07 0)
(-2.16036e-06 -7.141135e-07 0)
(-1.953792e-06 -6.866341e-07 0)
(-1.755121e-06 -6.566991e-07 0)
(-1.565005e-06 -6.244057e-07 0)
(-1.384066e-06 -5.898701e-07 0)
(-1.21289e-06 -5.532299e-07 0)
(-1.052017e-06 -5.146466e-07 0)
(-9.019349e-07 -4.743097e-07 0)
(-7.630713e-07 -4.324401e-07 0)
(-6.357857e-07 -3.892963e-07 0)
(-5.203592e-07 -3.451803e-07 0)
(-4.16984e-07 -3.004464e-07 0)
(-3.25751e-07 -2.555109e-07 0)
(-2.466362e-07 -2.108652e-07 0)
(-1.794859e-07 -1.670904e-07 0)
(-1.240001e-07 -1.248765e-07 0)
(-7.971413e-08 -8.504372e-08 0)
(-4.597973e-08 -4.85681e-08 0)
(-2.194331e-08 -1.661075e-08 0)
(-6.523266e-09 9.449997e-09 0)
(1.613749e-09 2.798335e-08 0)
(4.094269e-09 3.706949e-08 0)
(2.990466e-09 3.444577e-08 0)
(5.608893e-10 1.733786e-08 0)
(1.686756e-10 -1.381833e-08 0)
(-2.756496e-09 -1.948586e-08 0)
(-1.179467e-08 -7.575704e-09 0)
(-2.872224e-08 1.798676e-08 0)
(-5.507041e-08 5.406023e-08 0)
(-9.20902e-08 9.804116e-08 0)
(-1.407508e-07 1.477702e-07 0)
(-2.017687e-07 2.014653e-07 0)
(-2.756353e-07 2.576617e-07 0)
(-3.626415e-07 3.151605e-07 0)
(-4.629012e-07 3.729846e-07 0)
(-5.76373e-07 4.30342e-07 0)
(-7.028821e-07 4.865936e-07 0)
(-8.421389e-07 5.412275e-07 0)
(-9.937571e-07 5.938366e-07 0)
(-1.157269e-06 6.441004e-07 0)
(-1.332141e-06 6.917701e-07 0)
(-1.517784e-06 7.366561e-07 0)
(-1.713566e-06 7.786174e-07 0)
(-1.918819e-06 8.175537e-07 0)
(-2.13285e-06 8.533975e-07 0)
(-2.354948e-06 8.861091e-07 0)
(-2.584387e-06 9.156707e-07 0)
(-2.820433e-06 9.420834e-07 0)
(-3.062349e-06 9.653629e-07 0)
(-3.309398e-06 9.855371e-07 0)
(-3.560844e-06 1.002644e-06 0)
(-3.815958e-06 1.016727e-06 0)
(-4.07402e-06 1.02784e-06 0)
(-4.334315e-06 1.036037e-06 0)
(-4.596142e-06 1.041377e-06 0)
(-4.85881e-06 1.043923e-06 0)
(-5.121642e-06 1.043738e-06 0)
(-5.383973e-06 1.040885e-06 0)
(-5.645153e-06 1.035429e-06 0)
(-5.904545e-06 1.027437e-06 0)
(-6.161528e-06 1.016972e-06 0)
(-6.415494e-06 1.004099e-06 0)