/*--------------------------------*- C++ -*----------------------------------*\
  =========                 |
  \\      /  F ield         | OpenFOAM: The Open Source CFD Toolbox
   \\    /   O peration     | Website:  https://openfoam.org
    \\  /    A nd           | Version:  11
     \\/     M anipulation  |
\*---------------------------------------------------------------------------*/
FoamFile
{
    format      ascii;
    class       surfaceScalarField;
    location    "5";
    object      phi;
}
// * * * * * * * * * * * * * * * * * * * * * * * * * * * * * * * * * * * * * //

dimensions      [0 3 -1 0 0 0 0];

internalField   nonuniform List<scalar> 
18960
(
0.0039557716
0.00012192455
-0.0040776962
0.0042457785
-0.00029000682
0.0047241489
-0.00047837044
0.0050639629
-0.00033981397
0.0051817684
-0.00011780558
0.0052001826
-1.8414162e-05
0.0051859459
1.4236749e-05
0.0051690316
1.6914231e-05
0.0051565105
1.2521088e-05
0.0051520893
4.421261e-06
0.0051569726
-4.8833066e-06
0.0051727903
-1.5817759e-05
0.0052016566
-2.886622e-05
0.0052413069
-3.9650366e-05
0.0052948562
-5.3549324e-05
0.0053510909
-5.6234687e-05
0.0054066997
-5.5608815e-05
0.0054565389
-4.9839128e-05
0.0054888342
-3.2295293e-05
0.0054982645
-9.4302962e-06
0.0054840632
1.4201212e-05
0.0054458477
3.821555e-05
0.0053943871
5.1460602e-05
0.0053363497
5.8037364e-05
0.0052791138
5.7235918e-05
0.0052237379
5.5375925e-05
0.0051781997
4.5538178e-05
0.0051462455
3.195422e-05
0.0051255208
2.072468e-05
0.0051173039
8.2168871e-06
0.0051166284
6.7554437e-07
0.0051280333
-1.1404891e-05
0.0051420689
-1.403562e-05
0.0051634428
-2.1373918e-05
0.0051864519
-2.3009156e-05
0.0052400478
-5.359585e-05
0.0052567157
-1.6667868e-05
0.0053620389
-0.00010532327
0.005154687
0.00020735188
7.9543892e-05
0.0050751432
0.0045750728
-3.8370364e-05
-0.0044147779
0.0046685852
-0.00038351917
0.0045807957
-0.00039058101
0.0044327021
-0.0001917204
0.0043821585
-6.7261977e-05
0.0044231199
-5.9375517e-05
0.0045011328
-6.3776164e-05
0.0045889467
-7.0899672e-05
0.00467274
-7.1272222e-05
0.0047548342
-7.7672921e-05
0.0048405398
-9.0588942e-05
0.004930948
-0.00010622593
0.005028157
-0.00012607523
0.0051304172
-0.00014191054
0.0052374031
-0.00016053521
0.0053392066
-0.00015803818
0.0054329609
-0.00014936319
0.005515145
-0.00013202318
0.0055751566
-9.230686e-05
0.0056016375
-3.5911211e-05
0.0055971058
1.8732914e-05
0.0055569494
7.8371895e-05
0.0054911612
0.00011724885
0.0054089079
0.00014029061
0.0053173903
0.00014875353
0.005218876
0.00015389027
0.005121807
0.00014260718
0.0050305248
0.00012323639
0.0049457719
0.0001054776
0.0048679685
8.6020232e-05
0.0047961216
7.252249e-05
0.0047276052
5.7111454e-05
0.0046629187
5.065086e-05
0.004598635
4.2909852e-05
0.0045199194
5.5706389e-05
0.004445263
2.1060608e-05
0.0043403468
8.8248308e-05
0.0042527638
-1.7740331e-05
0.0042167585
0.00024335725
-0.00012073019
0.0044170326
0.0047147167
-0.000313691
-0.0044393961
0.0049188219
-0.00058762435
0.005084617
-0.00055637617
0.0052414874
-0.0003485908
0.0053584853
-0.00018425985
0.0054073553
-0.00010824548
0.0054149059
-7.1326788e-05
0.0054012083
-5.7202086e-05
0.0053885606
-5.8624543e-05
0.005384929
-7.4041322e-05
0.0053907566
-9.6416514e-05
0.0054068208
-0.00012229018
0.0054347949
-0.00015404926
0.0054722322
-0.00017934785
0.0055207242
-0.0002090272
0.0055701057
-0.0002074197
0.0056188647
-0.0001981222
0.0056639156
-0.00017707403
0.0056944239
-0.0001228152
0.0057058484
-4.7335721e-05
0.0056953719
2.9209373e-05
0.0056632189
0.00011052493
0.005619714
0.0001607538
0.005569034
0.00019097056
0.0055182161
0.00019957141
0.0054672881
0.00020481832
0.0054224415
0.00018745377
0.0053890904
0.00015658747
0.0053657433
0.00012882468
0.0053547895
9.6974067e-05
0.0053512613
7.6050656e-05
0.0053597902
4.8582577e-05
0.0053727623
3.7678746e-05
0.0053984357
1.7236492e-05
0.0054208973
3.3244734e-05
0.0054752694
-3.331148e-05
0.0055180674
4.5450346e-05
0.0055283124
-2.7985379e-05
0.0054049541
0.00036671559
3.433037e-05
0.0052498935
0.005118658
-0.00060121997
-0.004831129
0.0051067837
-0.00057575012
0.0049301945
-0.00037978692
0.00470664
-0.00012503632
0.0045632388
-4.0858674e-05
0.004532838
-7.7844641e-05
0.0045637022
-0.00010219098
0.0046255767
-0.00011907657
0.0047071734
-0.00014022123
0.0047934122
-0.00016028018
0.0048828993
-0.00018590359
0.0049772221
-0.00021661302
0.0050767816
-0.00025360867
0.0051796256
-0.00028219187
0.0052839159
-0.00031331755
0.0053794649
-0.00030296872
0.0054687089
-0.00028736618
0.0055444638
-0.0002528289
0.0055955641
-0.00017391551
0.005617517
-6.9288642e-05
0.0056139484
3.2777968e-05
0.0055860984
0.00013837489
0.0055295872
0.00021726509
0.0054536765
0.00026688122
0.0053682415
0.00028500645
0.0052736243
0.00029943547
0.005176493
0.00028458511
0.0050819087
0.00025117174
0.0049917165
0.00021901685
0.004907295
0.00018139563
0.0048287054
0.00015464019
0.0047531971
0.00012409086
0.0046828249
0.00010805094
0.0046198104
8.0251036e-05
0.0045370231
0.00011603201
0.0044710297
3.2681903e-05
0.004412501
0.00010397907
0.0044247576
-4.0241924e-05
0.0045321443
0.00025932885
-0.00010799553
0.0046744702
0.0051741527
-0.00065264104
-0.0051227316
0.0050417782
-0.00044337563
0.0050036779
-0.00034168658
0.0051273471
-0.00024870557
0.0052712706
-0.00018478212
0.0053719258
-0.00017849984
0.0054132887
-0.00014355397
0.0054276175
-0.00013340536
0.0054227951
-0.00013539884
0.0054211505
-0.0001586356
0.0054283105
-0.00019306357
0.0054446451
-0.00023294759
0.0054711796
-0.00028014317
0.0055060003
-0.00031701257
0.0055487909
-0.00035610818
0.0055909805
-0.00034515835
0.005638451
-0.00033483661
0.0056730561
-0.000287434
0.0056963306
-0.00019719
0.0057065834
-7.9541499e-05
0.0056974412
4.1920131e-05
0.0056705658
0.00016525033
0.0056330394
0.0002547915
0.0055888476
0.00031107301
0.0055450733
0.00032878079
0.0054996683
0.00034484049
0.0054581381
0.00032611521
0.0054260777
0.00028323219
0.0054029691
0.00024212549
0.0053912695
0.00019309523
0.0053878555
0.00015805416
0.0053961252
0.00011582117
0.0054064925
9.7683575e-05
0.0054342407
5.250287e-05
0.0054652104
8.5062313e-05
0.0054915262
6.366136e-06
0.0054912221
0.00010428313
0.0054152513
3.5728829e-05
0.0053257777
0.00034880249
1.5779005e-05
0.0052020032
0.0052669509
-0.00061089461
-0.0053086973
0.0051544033
-0.00033082809
0.005054353
-0.00024163622
0.0049161382
-0.00011049075
0.0047657533
-3.4397272e-05
0.0046794775
-9.2223973e-05
0.0046638683
-0.00012794486
0.0046948493
-0.00016438632
0.0047584615
-0.00019901103
0.0048433025
-0.00024347656
0.0049346962
-0.00028445733
0.005030783
-0.0003290344
0.0051309083
-0.00038026843
0.0052329812
-0.00041908549
0.0053331738
-0.00045630073
0.0054246587
-0.00043664329
0.0055096519
-0.00041982985
0.0055745083
-0.00035229038
0.005618517
-0.00024119866
0.0056370727
-9.8097275e-05
0.0056326455
4.6347351e-05
0.0056146391
0.00018325673
0.0055702092
0.00029922138
0.0055009787
0.00038030359
0.0054214399
0.00040831957
0.0053317107
0.00043456967
0.0052363997
0.00042142617
0.0051407135
0.00037891841
0.0050469213
0.00033591768
0.0049572365
0.00028277999
0.004872103
0.00024318772
0.004791727
0.00019619713
0.0047153816
0.00017402899
0.0046486405
0.00011924397
0.0045788098
0.00015489305
0.0045356171
4.9558786e-05
0.0045273894
0.00011251082
0.0045960705
-3.2952244e-05
0.0047162738
0.00022859922
-8.9596641e-05
0.0048216494
0.0052081848
-0.00047556229
-0.0053435171
0.0050580795
-0.00018072284
0.0049753187
-0.00015887539
0.0050294023
-0.00016457438
0.0051819776
-0.00018697254
0.0053035713
-0.00021381763
0.0053796906
-0.00020406417
0.0054215574
-0.0002062531
0.0054428646
-0.00022031831
0.0054492954
-0.00024990736
0.0054598717
-0.00029503362
0.0054778566
-0.00034701925
0.005503979
-0.00040639082
0.0055377217
-0.00045282824
0.0055748241
-0.00049340309
0.0056183792
-0.00048019844
0.0056548009
-0.00045625154
0.0056830885
-0.00038057794
0.0057023119
-0.00026042209
0.0057135946
-0.00010938
0.0057056729
5.4269125e-05
0.0056816798
0.0002072498
0.0056527483
0.00032815284
0.0056141498
0.00041890209
0.0055716753
0.00045079413
0.0055297382
0.00047650672
0.0054908439
0.00046032044
0.0054594923
0.00041027003
0.0054366444
0.00035876564
0.0054234561
0.00029596826
0.0054204042
0.00024623964
0.005425683
0.00019091824
0.0054351388
0.00016457321
0.0054569095
9.7473302e-05
0.0054838859
0.00012791662
0.0054648897
6.8554966e-05
0.0054137346
0.00016366597
0.0053004822
8.0300106e-05
0.0052260662
0.00030301528
8.2648972e-06
0.0051282046
0.0052065099
-0.00035841251
-0.0053236596
0.0051260969
-0.0001003099
0.0050881804
-0.00012095886
0.0050253572
-0.00010175115
0.004937288
-9.890343e-05
0.004837629
-0.00011415862
0.0047910418
-0.00015747696
0.0047967209
-0.00021193219
0.004837697
-0.00026129442
0.0049093356
-0.00032154588
0.0049985818
-0.00038427985
0.0050940859
-0.0004425233
0.0051930442
-0.0005053492
0.0052924831
-0.00055226708
0.0053876235
-0.00058854349
0.0054766591
-0.00056923404
0.0055504805
-0.00053007297
0.0056088546
-0.000438952
0.0056495838
-0.00030115137
0.005667516
-0.00012731218
0.0056636747
5.8110449e-05
0.0056483371
0.00022258739
0.0056102571
0.00036623289
0.0055535076
0.00047565153
0.0054790082
0.00052529353
0.0053955132
0.00056000179
0.0053043194
0.00055151416
0.0052094374
0.00050515212
0.0051136937
0.00045450928
0.005019953
0.00038970894
0.0049291343
0.00033705842
0.0048466151
0.00027343744
0.004763978
0.00024721032
0.0046976248
0.0001638264
0.0046461728
0.00017936868
0.0046361931
7.8534696e-05
0.0046697632
0.00013009586
0.0047553965
-5.3331913e-06
0.0048507393
0.00020767245
-6.2576104e-05
0.0049215803
0.0051586602
-0.00024919305
-0.0052678796
0.0050807342
-2.2383899e-05
0.0050277102
-6.7934903e-05
0.0050202018
-9.4242761e-05
0.0051070182
-0.00018571979
0.005228526
-0.00023566644
0.0053269412
-0.00025589208
0.0053937445
-0.00027873553
0.0054415648
-0.0003091147
0.0054680941
-0.00034807523
0.0054850022
-0.00040118798
0.0055069121
-0.0004644332
0.0055342702
-0.00053270729
0.0055674556
-0.00058545249
0.0056019301
-0.0006230179
0.0056412273
-0.00060853131
0.0056732618
-0.00056210741
0.0056981134
-0.00046380365
0.0057149463
-0.00031798423
0.0057246398
-0.00013700574
0.0057208199
6.1930362e-05
0.0056984978
0.00024490949
0.0056715865
0.0003931442
0.0056391611
0.00050807689
0.0055993154
0.00056513928
0.0055593233
0.00059999383
0.005522251
0.00058858643
0.0054910535
0.00053634969
0.0054678668
0.00047769599
0.0054530046
0.00040457107
0.0054481222
0.00034194083
0.0054492956
0.00027226409
0.0054556744
0.00024083144
0.0054621583
0.00015734252
0.0054599005
0.00018162649
0.0054018744
0.00013656085
0.0053278848
0.00020408542
0.0052108969
0.00011165473
0.0051523982
0.00026617116
1.1270189e-05
0.0050785519
0.0051471017
-0.00017278105
-0.0052235137
0.0051090542
1.5663535e-05
0.0050864655
-4.5346213e-05
0.0050760468
-8.3823975e-05
0.0050489385
-0.00015861149
0.0049826451
-0.00016937312
0.0049299236
-0.00020317057
0.0049214464
-0.00027025834
0.0049449637
-0.000332632
0.0049963391
-0.00039945059
0.0050746875
-0.00047953642
0.0051674383
-0.00055718394
0.00526338
-0.00062864899
0.0053581634
-0.00068023599
0.0054474969
-0.00071235139
0.0055292444
-0.00069027877
0.0055958611
-0.00062872414
0.0056485711
-0.00051651364
0.0056842225
-0.0003536356
0.0056991317
-0.00015191491
0.0056976128
6.344928e-05
0.0056867054
0.00025581683
0.0056527047
0.00042714487
0.0056042371
0.00055654453
0.0055401609
0.00062921553
0.0054644048
0.00067574991
0.0053789543
0.0006740369
0.0052870312
0.00062827283
0.0051915761
0.00057315101
0.0050954602
0.00050068699
0.0050016449
0.00043575611
0.0049172011
0.00035670792
0.0048360961
0.00032193643
0.0047778632
0.00021557537
0.0047481185
0.00021137124
0.0047635199
0.00012115942
0.0048113683
0.00015623702
0.0048850424
3.7980661e-05
0.0049503801
0.00020083341
-2.5672164e-05
0.0049873225
0.0051350685
-0.00011758911
-0.0051902605
0.0051040681
4.6663953e-05
0.0050701618
-1.1439913e-05
0.0050684829
-8.2145057e-05
0.0050876294
-0.00017775799
0.0051690586
-0.00025080229
0.0052786169
-0.00031272887
0.0053628069
-0.00035444838
0.0054255489
-0.00039537401
0.0054733503
-0.00044725201
0.005504694
-0.00051088014
0.0055334905
-0.00058598038
0.0055636066
-0.00065876509
0.0055974328
-0.0007140622
0.0056310362
-0.0007459548
0.0056672638
-0.00072650636
0.0056970876
-0.00065854796
0.0057195843
-0.00053901038
0.0057344482
-0.00036849947
0.0057439803
-0.00016144697
0.0057423287
6.5100835e-05
0.005722134
0.00027601152
0.005696807
0.00045247187
0.0056667063
0.00058664521
0.0056298517
0.00066607019
0.0055912081
0.00071439349
0.0055546644
0.00071058063
0.0055227425
0.00066019475
0.0054982516
0.00059764188
0.0054812511
0.00051768747
0.005471319
0.00044568819
0.0054663055
0.00036172146
0.0054676417
0.00032060026
0.0054469265
0.00023629052
0.0054110751
0.00024722268
0.0053335501
0.00019868438
0.0052524042
0.000237383
0.005151467
0.00013891782
0.0051128687
0.00023943175
2.7127378e-05
0.0050600691
0.0051276962
-8.124462e-05
-0.0051640407
0.0051111151
6.3245082e-05
0.0050964623
3.2128164e-06
0.0051040323
-8.9714997e-05
0.0051114932
-0.00018521886
0.0050984548
-0.00023776395
0.0050642245
-0.00027849851
0.0050502072
-0.00034043112
0.0050660054
-0.00041117218
0.0051032211
-0.00048446778
0.0051672447
-0.00057490367
0.0052524146
-0.00067115026
0.0053422658
-0.00074861629
0.0054308954
-0.00080269183
0.0055129773
-0.00082803669
0.0055871402
-0.00080066933
0.0056466969
-0.00071810461
0.0056928997
-0.00058521323
0.0057244216
-0.00040002138
0.0057368773
-0.0001739026
0.0057345312
6.7446897e-05
0.0057267122
0.00028383056
0.0056990794
0.00048010467
0.005658587
0.00062713763
0.0056043733
0.00072028383
0.0055375972
0.00078116962
0.0054594315
0.00078874637
0.005372468
0.00074715823
0.0052794936
0.00069061621
0.0051841661
0.00061301503
0.0050895006
0.0005403537
0.0050050974
0.0004461246
0.0049303982
0.00039529944
0.0048847093
0.00028197943
0.0048705506
0.00026138136
0.004899657
0.00016957798
0.0049435663
0.00019347372
0.0049887123
9.3771868e-05
0.0050220518
0.00020609222
1.8387884e-05
0.0050307913
0.0051274361
-6.112774e-05
-0.005147553
0.0051212788
6.9402457e-05
0.0051100218
1.4469831e-05
0.0051092441
-8.89373e-05
0.0051271069
-0.00020308167
0.0051629814
-0.00027363854
0.0052450716
-0.00036058863
0.0053370491
-0.00043240868
0.0054089972
-0.00048312028
0.0054696477
-0.00054511831
0.0055205201
-0.00062577606
0.0055593016
-0.00070993167
0.0055939765
-0.0007832912
0.0056301923
-0.0008389077
0.0056642975
-0.00086214189
0.0056991313
-0.00083550306
0.0057280305
-0.0007470039
0.0057493098
-0.00060649247
0.0057628903
-0.00041360192
0.0057721543
-0.00018316658
0.0057720677
6.7533538e-05
0.0057547252
0.00030117301
0.0057305748
0.00050425506
0.0057013861
0.00065632638
0.0056662759
0.00075539397
0.0056286538
0.00081879168
0.0055914398
0.00082596041
0.0055576995
0.00078089854
0.0055303129
0.00071800284
0.0055098317
0.00063349617
0.0054923862
0.0005577992
0.005478329
0.00046018185
0.0054616254
0.00041200299
0.0054185019
0.00032510299
0.0053593783
0.00032050491
0.0052782247
0.00025073166
0.0052035161
0.00026818226
0.0051267226
0.00017056533
0.005104345
0.00022846982
5.4670703e-05
0.0050680622
0.0051278351
-5.2322549e-05
-0.0051366403
0.0051274605
6.9777034e-05
0.0051241247
1.7805702e-05
0.0051368531
-0.00010166571
0.0051586929
-0.00022492147
0.005177413
-0.00029235869
0.0051777221
-0.0003608977
0.0051712
-0.00042588662
0.0051837422
-0.00049566247
0.0052205187
-0.00058189479
0.0052778192
-0.00068307653
0.0053505086
-0.00078262108
0.0054302916
-0.00086307424
0.0055111742
-0.00091979022
0.0055848943
-0.00093586208
0.0056510841
-0.0009016928
0.0057035459
-0.00079946571
0.0057430539
-0.0006460005
0.0057702212
-0.00044076919
0.0057807353
-0.00019368071
0.0057777591
7.0509803e-05
0.0057713948
0.00030753728
0.0057495672
0.00052608264
0.0057157991
0.00069009449
0.0056712156
0.00079997749
0.0056142552
0.00087575205
0.005544794
0.00089542162
0.0054649161
0.0008607765
0.0053764569
0.00080646198
0.0052855533
0.00072439977
0.0051929636
0.00065038885
0.0051126566
0.0005404889
0.0050461434
0.00047851616
0.0050118823
0.00035936414
0.0050044386
0.00032794855
0.0050275844
0.00022758584
0.0050556006
0.00024016607
0.0050673004
0.00015886557
0.0050738145
0.00022195575
6.5491014e-05
0.0050629941
0.0051322896
-5.3593905e-05
-0.0051310183
0.0051409023
6.1164364e-05
0.0051507714
7.9365483e-06
0.0051583963
-0.00010929059
0.005176507
-0.00024303215
0.0052043955
-0.00032024716
0.0052523383
-0.00040884049
0.0053267275
-0.00050027581
0.0054051922
-0.00057412726
0.0054765297
-0.00065323223
0.0055369042
-0.00074345101
0.0055862064
-0.00083192331
0.0056279808
-0.00090484864
0.0056684518
-0.0009602612
0.0057044488
-0.00097185913
0.0057395673
-0.00093681128
0.005768401
-0.0008282994
0.0057891721
-0.00066677163
0.0058019403
-0.00045353741
0.005810501
-0.00020224132
0.0058114831
6.9527621e-05
0.0057976999
0.00032132054
0.0057773993
0.00054638318
0.005748992
0.00071850181
0.0057121837
0.00083678577
0.0056741689
0.0009137669
0.0056358334
0.00093375708
0.0055997814
0.00089682856
0.0055676164
0.00083862699
0.0055419521
0.00075006401
0.0055145484
0.0006777926
0.0054897725
0.00056526478
0.0054492258
0.00051906284
0.0053925544
0.00041603561
0.0053221075
0.00039839535
0.0052463188
0.00030337454
0.0051871447
0.00029934018
0.005133848
0.00021216233
0.0051174492
0.00023835456
9.3703745e-05
0.0050892364
0.0051393812
-6.3302521e-05
-0.0051296726
0.0051549396
4.5605964e-05
0.0051711854
-8.3092893e-06
0.0051806111
-0.00011871627
0.0052021046
-0.00026452567
0.0052355125
-0.00035365501
0.0052645658
-0.00043789386
0.0052843933
-0.00052010331
0.0053062482
-0.00059598211
0.0053424138
-0.00068939784
0.0053936774
-0.00079471457
0.0054568158
-0.0008950618
0.0055268745
-0.00097490733
0.0055988067
-0.0010321934
0.0056638606
-0.001036913
0.0057217314
-0.00099468202
0.0057670953
-0.00087366337
0.0058001988
-0.00069987505
0.0058227986
-0.00047613727
0.0058318501
-0.0002112928
0.0058287522
7.2625495e-05
0.0058220754
0.00032799741
0.0058044376
0.00056402097
0.0057785579
0.00074438144
0.0057411621
0.00087418161
0.0056922761
0.00096265292
0.0056338228
0.00099221031
0.0055630955
0.00096755591
0.0054813462
0.00092037631
0.005397935
0.00083347514
0.0053108938
0.00076483384
0.0052387615
0.00063739707
0.0051808815
0.00057694285
0.005150073
0.0004468441
0.0051384568
0.00041001153
0.0051403387
0.00030149267
0.005144275
0.00029540381
0.0051305122
0.00022592515
0.0051204139
0.00024845287
0.00011511499
0.0050990027
0.0051495044
-8.0446952e-05
-0.0051323599
0.0051717362
2.3374077e-05
0.0051948297
-3.1402769e-05
0.0052085747
-0.00013246127
0.0052362077
-0.00029215866
0.0052642649
-0.00038171215
0.0052965863
-0.00047021532
0.0053529441
-0.00057646109
0.0054240484
-0.00066708642
0.0054974788
-0.00076282822
0.0055640584
-0.00086129419
0.0056213169
-0.00095232027
0.005670941
-0.0010245314
0.005715685
-0.0010769374
0.0057549342
-0.0010761622
0.005791159
-0.0010309068
0.0058208434
-0.0009033478
0.0058422561
-0.00072128772
0.0058546048
-0.00048848595
0.0058612559
-0.00021794388
0.0058619057
7.1975624e-05
0.0058513817
0.00033852145
0.0058349899
0.00058041276
0.0058096202
0.0007697512
0.0057768368
0.00090696502
0.0057369942
0.0010024955
0.0056932095
0.001035995
0.0056533354
0.0010074301
0.0056153253
0.00095838642
0.0055819346
0.00086686576
0.0055441386
0.00080262992
0.0055057031
0.00067583258
0.0054489161
0.00063372984
0.0053851185
0.00051064168
0.0053155724
0.00047955757
0.0052513043
0.00036576082
0.0052044337
0.00034227444
0.0051654659
0.00026489287
0.0051459347
0.00026798413
0.00014121603
0.0051198336
0.0051627026
-0.0001036955
-0.0051394541
0.0051909801
-4.9033503e-06
0.0052202608
-6.0683558e-05
0.0052375927
-0.00014979313
0.0052614939
-0.00031605983
0.0052890953
-0.00040931361
0.0053330407
-0.00051416071
0.0053782096
-0.00062162994
0.0054187011
-0.00070757796
0.0054614308
-0.00080555786
0.0055108541
-0.00091071755
0.0055682411
-0.0010097072
0.0056295955
-0.0010858859
0.0056923288
-0.0011396707
0.0057494081
-0.0011332415
0.0058016713
-0.0010831701
0.0058420979
-0.00094377436
0.0058689024
-0.00074809227
0.0058852407
-0.00050482424
0.0058918752
-0.00022457835
0.0058892822
7.4568614e-05
0.005882228
0.00034557565
0.0058675759
0.00059506482
0.0058449589
0.00079236817
0.0058149704
0.00093695352
0.005777291
0.0010401749
0.005727267
0.001086019
0.0056642298
0.0010704672
0.0055928996
0.0010297167
0.005519139
0.00094062629
0.0054401312
0.00088163779
0.0053770174
0.00073894635
0.0053229299
0.00068781738
0.0052878105
0.00054576099
0.005262977
0.0005043911
0.0052377588
0.00039097907
0.0052161985
0.00036383471
0.0051899516
0.00029113981
0.0051680908
0.00028984492
0.0001694274
0.0051398794
0.0051787042
-0.00013158761
-0.0051508121
0.0052129297
-3.9128836e-05
0.0052461494
-9.3903211e-05
0.005268173
-0.00017181679
0.0052912221
-0.00033910886
0.0053269722
-0.0004450638
0.0053707396
-0.00055792809
0.0054172994
-0.00066818967
0.0054761026
-0.0007663812
0.0055440228
-0.00087347804
0.0056110214
-0.0009777162
0.0056731207
-0.0010718066
0.0057273585
-0.0011401236
0.0057773568
-0.001189669
0.0058212605
-0.0011771452
0.0058607353
-0.0011226448
0.0058910223
-0.00097406137
0.0059103724
-0.00076744235
0.0059207461
-0.00051519796
0.0059250861
-0.00022891837
0.0059245304
7.5124311e-05
0.0059164824
0.00035362363
0.0059032052
0.00060834206
0.0058835297
0.00081204371
0.005855638
0.00096484518
0.0058190084
0.0010768045
0.0057750407
0.0011299868
0.0057282548
0.0011172531
0.0056792956
0.0010786759
0.0056371171
0.00098280479
0.0055886451
0.00093010979
0.0055370489
0.00079054248
0.0054765456
0.00074832075
0.0054098439
0.00061246264
0.0053492304
0.00056500464
0.0052950711
0.00044513839
0.0052519687
0.00040693708
0.0052180882
0.00032502029
0.0051937409
0.00031419225
0.0001988081
0.0051643602
0.005197863
-0.00016254698
-0.0051669036
0.005236911
-7.8176842e-05
0.0052734872
-0.0001304794
0.0053025964
-0.00020092601
0.0053271723
-0.00036368474
0.0053666275
-0.00048451902
0.0054110078
-0.00060230834
0.0054619239
-0.00071910587
0.0055182263
-0.00082268352
0.0055732386
-0.00092849037
0.0056258584
-0.001030336
0.0056805792
-0.0011265274
0.0057393561
-0.0011989005
0.0057976867
-0.0012479995
0.0058499692
-0.0012294277
0.0058937357
-0.0011664114
0.0059274725
-0.0010077981
0.0059485337
-0.00078850355
0.0059590641
-0.00052572835
0.0059628885
-0.00023274279
0.0059607326
7.7280168e-05
0.0059542852
0.00036007102
0.0059424503
0.00062017701
0.0059251445
0.00082934952
0.0058997848
0.00099020481
0.0058672447
0.0011093446
0.0058257704
0.0011714611
0.0057761537
0.0011668697
0.0057114385
0.001143391
0.0056448392
0.0010494041
0.0055766867
0.00099826233
0.005516937
0.00085029213
0.0054633592
0.00080189857
0.0054149099
0.00066091194
0.005371308
0.0006086065
0.0053293165
0.00048712996
0.0052895326
0.00044672089
0.0052527137
0.00036183925
0.0052234483
0.00034345767
0.00023072253
0.0051915338
0.0052196623
-0.00019311081
-0.0051890984
0.0052639123
-0.00012242692
0.0053040372
-0.00017060426
0.0053406344
-0.00023752319
0.0053680261
-0.0003910765
0.0054099984
-0.00052649127
0.0054566879
-0.00064899791
0.0055088369
-0.00077125484
0.0055657704
-0.000879617
0.005625556
-0.00098827599
0.0056886255
-0.0010934054
0.0057523347
-0.0011902366
0.0058129186
-0.0012594845
0.0058654551
-0.001300536
0.0059118438
-0.0012758164
0.0059475822
-0.0012021498
0.0059766461
-0.001036862
0.0059944446
-0.00080630203
0.0060021605
-0.00053344426
0.0060038881
-0.00023447033
0.0060016283
7.9539906e-05
0.0059952368
0.00036646252
0.0059853509
0.00063006293
0.0059709116
0.00084378886
0.0059479811
0.0010131353
0.005918453
0.0011388727
0.0058793712
0.001210543
0.0058319676
0.0012142733
0.0057763525
0.001199006
0.0057205588
0.0011051979
0.0056619112
0.0010569099
0.00560106
0.00091114335
0.0055419987
0.0008609599
0.0054815187
0.00072139198
0.0054253099
0.0006648153
0.0053740887
0.00053835111
0.0053299769
0.00049083267
0.0052907343
0.00040108184
0.005257867
0.00037632496
0.00026540379
0.0052231858
0.0052447152
-0.00022730589
-0.0052105202
0.0052952886
-0.00017300026
0.0053405049
-0.00021582055
0.0053843828
-0.0002814011
0.0054161805
-0.0004228742
0.0054594202
-0.00056973104
0.0055071686
-0.00069674626
0.0055608229
-0.00082490917
0.0056199268
-0.00093872091
0.0056806511
-0.0010490003
0.0057423123
-0.0011550666
0.0058029183
-0.0012508426
0.0058617661
-0.0013183323
0.0059147967
-0.0013535666
0.005963154
-0.0013241737
0.005998662
-0.0012376578
0.0060274969
-0.0010656969
0.0060440174
-0.00082282261
0.0060497161
-0.00053914294
0.0060493247
-0.00023407892
0.0060466195
8.2245109e-05
0.0060402799
0.00037280211
0.0060323777
0.00063796519
0.006020705
0.00085546149
0.0060008101
0.0010330303
0.0059745609
0.0011651219
0.0059384192
0.0012466846
0.0058946234
0.0012580692
0.005840642
0.0012529874
0.0057813421
0.0011644979
0.0057177402
0.0011205118
0.0056528224
0.00097606109
0.0055936782
0.00092010414
0.0055346679
0.00078040227
0.0054776884
0.00072179479
0.0054242367
0.00059180276
0.0053764675
0.00053860185
0.0053338785
0.00044367085
0.0052973644
0.00041283909
0.00030253722
0.005260231
0.0052795615
-0.0002685037
-0.0052383637
0.0053339901
-0.00022742884
0.0053845272
-0.00026635759
0.0054339779
-0.00033085189
0.0054702445
-0.00045914075
0.0055142632
-0.00061374979
0.0055638029
-0.00074628594
0.0056186486
-0.00087975489
0.0056784225
-0.0009984948
0.0057406007
-0.0011111785
0.0058042728
-0.0012187386
0.0058672804
-0.0013138502
0.0059278
-0.001378852
0.0059806653
-0.0014064318
0.0060268543
-0.0013703627
0.0060603095
-0.0012711129
0.0060856263
-0.0010910137
0.0060993765
-0.00083657286
0.0061024611
-0.00054222755
0.0060998727
-0.00023149048
0.0060958015
8.63163e-05
0.0060900755
0.00037852814
0.0060838162
0.00064422445
0.0060745864
0.00086469129
0.0060586965
0.0010489202
0.0060363953
0.0011874232
0.0060039408
0.0012791391
0.0059621096
0.0012999004
0.0059104466
0.0013046504
0.0058505131
0.0012244313
0.0057892702
0.0011817547
0.0057222648
0.0010430665
0.0056596487
0.00098272028
0.0055988864
0.00084116451
0.0055398448
0.00078083647
0.0054822851
0.00064936238
0.0054300282
0.0005908588
0.0053831769
0.00049052216
0.0053421805
0.00045383549
0.0003425586
0.0053021591
0.0053228431
-0.00031583868
-0.0052755081
0.0053805168
-0.00028510255
0.0054368938
-0.00032273462
0.00549068
-0.00038463809
0.0055329041
-0.00050136483
0.0055769756
-0.0006578213
0.0056280903
-0.00079740064
0.0056852088
-0.00093687343
0.0057463194
-0.0010596054
0.0058097459
-0.0011746049
0.0058748427
-0.0012838355
0.0059385455
-0.001377553
0.0059988791
-0.0014391856
0.0060511813
-0.001458734
0.0060960741
-0.0014152555
0.0061278668
-0.0013029056
0.0061498827
-0.0011130297
0.006160751
-0.00084744115
0.0061609557
-0.00054243219
0.0061558685
-0.00022640326
0.0061497643
9.242045e-05
0.0061445747
0.00038371772
0.0061400608
0.00064873835
0.006133369
0.0008713831
0.0061216889
0.0010606003
0.0061038049
0.0012053071
0.0060759246
0.0013070194
0.0060368354
0.0013389896
0.0059885035
0.0013529824
0.0059293558
0.001283579
0.0058676706
0.0012434399
0.0057997517
0.0011109853
0.0057328315
0.0010496405
0.00566857
0.00090542594
0.0056071248
0.00084228169
0.0055467638
0.00070972339
0.0054910929
0.00064652973
0.0054404369
0.00054117812
0.0053947345
0.00049953791
0.00038598582
0.0053513073
0.0053709949
-0.00036781873
-0.0053190149
0.0054330655
-0.00034717314
0.0054962147
-0.00038588378
0.0055542948
-0.00044271827
0.0056030452
-0.00055011517
0.0056477789
-0.00070255498
0.0057004227
-0.00085004447
0.0057579805
-0.00099443121
0.0058199291
-0.001121554
0.0058860599
-0.0012407358
0.0059541045
-0.0013518801
0.0060194667
-0.0014429151
0.0060805579
-0.0015002768
0.0061319802
-0.0015101563
0.0061750381
-0.0014583133
0.0062039175
-0.0013317851
0.0062221413
-0.0011312535
0.0062292483
-0.00085454819
0.0062259761
-0.00053915999
0.0062176651
-0.0002180922
0.0062097602
0.00010032534
0.0062042348
0.00038924312
0.0062015706
0.0006514025
0.0061982574
0.00087469629
0.0061911419
0.0010677159
0.0061781065
0.0012183425
0.0061556589
0.001329467
0.0061208883
0.0013737602
0.0060749994
0.0013988713
0.0060181524
0.0013404261
0.0059547808
0.0013068114
0.0058864118
0.0011793543
0.0058170266
0.0011190258
0.0057493623
0.00097309026
0.0056851021
0.00090654184
0.0056212752
0.00077355029
0.0055614823
0.00070632261
0.0055064486
0.00059621185
0.0054556251
0.00055036145
0.00043344673
0.0054081642
0.0054253398
-0.00042393372
-0.0053692248
0.0054921602
-0.00041399356
0.0055622901
-0.00045601363
0.0056272321
-0.00050766027
0.0056823341
-0.0006052172
0.0057301833
-0.0007504042
0.0057840799
-0.00090394106
0.0058428965
-0.0010532478
0.0059066598
-0.0011853173
0.0059752538
-0.0013093298
0.006044713
-0.0014213393
0.0061108571
-0.0015090592
0.0061717817
-0.0015612014
0.0062227082
-0.0015610828
0.0062638611
-0.0014994663
0.006289644
-0.001357568
0.0063033646
-0.001144974
0.0063059238
-0.00085710743
0.0062985084
-0.00053174462
0.0062864107
-0.00020599448
0.0062762318
0.0001105043
0.0062697282
0.00039574666
0.0062685364
0.00065259429
0.0062689611
0.00087427159
0.0062668964
0.0010697806
0.0062599999
0.0012252389
0.0062433628
0.0013461041
0.0062146015
0.0014025214
0.006171995
0.0014414777
0.0061183979
0.0013940233
0.0060555283
0.0013696809
0.0059866781
0.0012482046
0.0059147684
0.0011909355
0.0058424019
0.0010454567
0.0057739149
0.00097502888
0.0057061867
0.00084127849
0.0056423295
0.00077017983
0.0055833399
0.00065520142
0.0055276657
0.00060603562
0.00048518703
0.0054759254
0.0054888811
-0.00048336083
-0.005429454
0.0055593697
-0.0004844822
0.0056351177
-0.0005317616
0.0057084092
-0.00058095177
0.0057707914
-0.00066759935
0.0058249108
-0.00080452368
0.0058807689
-0.00095979912
0.005939872
-0.0011123509
0.0060059471
-0.0012513925
0.0060772025
-0.0013805851
0.0061491534
-0.0014932902
0.0062172594
-0.0015771652
0.0062784487
-0.0016223907
0.006328493
-0.0016111272
0.0063654672
-0.0015364405
0.0063873179
-0.0013794187
0.0063945915
-0.0011522477
0.0063914723
-0.00085398824
0.0063795311
-0.0005198034
0.0063621159
-0.00018857925
0.0063491824
0.00012343778
0.006341946
0.00040298311
0.0063421519
0.00065238835
0.0063462434
0.00087018009
0.0063497972
0.0010662268
0.0063499972
0.0012250389
0.0063407269