/*--------------------------------*- C++ -*----------------------------------*\
  =========                 |
  \\      /  F ield         | OpenFOAM: The Open Source CFD Toolbox
   \\    /   O peration     | Website:  https://openfoam.org
    \\  /    A nd           | Version:  10
     \\/     M anipulation  |
\*---------------------------------------------------------------------------*/
FoamFile
{
    format      ascii;
    class       volScalarField;
    location    "0.852259";
    object      p;
}
// * * * * * * * * * * * * * * * * * * * * * * * * * * * * * * * * * * * * * //

dimensions      [1 -1 -2 0 0 0 0];

internalField   nonuniform List<scalar> 
15984
(
2.39563
2.39608
2.39699
2.39836
2.40014
2.40228
2.40482
2.40773
2.41101
2.41465
2.41864
2.42296
2.42759
2.4325
2.43766
2.44304
2.44861
2.45432
2.46012
2.46599
2.47186
2.4777
2.48346
2.4891
2.49459
2.4999
2.50499
2.50986
2.51448
2.51884
2.52294
2.52678
2.53038
2.53373
2.53686
2.53978
2.5425
2.54505
2.54744
2.5497
2.55184
2.55387
2.55581
2.55768
2.55949
2.56124
2.56294
2.5646
2.56622
2.56781
2.56936
2.57087
2.57234
2.57378
2.39847
2.39878
2.39953
2.4007
2.40226
2.40418
2.40647
2.40911
2.41212
2.41548
2.41917
2.4232
2.42753
2.43214
2.43702
2.44213
2.44744
2.45291
2.45851
2.4642
2.46992
2.47564
2.48132
2.48692
2.4924
2.49773
2.50289
2.50784
2.51256
2.51706
2.52132
2.52534
2.52911
2.53266
2.53598
2.53909
2.542
2.54474
2.5473
2.54971
2.55198
2.55413
2.55616
2.55809
2.55993
2.56168
2.56335
2.56495
2.56647
2.56791
2.56929
2.57058
2.5718
2.57294
2.40084
2.40104
2.40164
2.40264
2.40403
2.40575
2.40783
2.41025
2.41301
2.41612
2.41955
2.42331
2.42737
2.43173
2.43635
2.44122
2.4463
2.45157
2.45699
2.46251
2.46811
2.47373
2.47934
2.48491
2.49039
2.49575
2.50097
2.50601
2.51085
2.51549
2.51991
2.5241
2.52806
2.5318
2.53532
2.53863
2.54173
2.54465
2.54738
2.54995
2.55235
2.55461
2.55673
2.55872
2.56059
2.56233
2.56396
2.56548
2.56688
2.56817
2.56934
2.5704
2.57134
2.57216
2.40273
2.40286
2.40333
2.40419
2.40543
2.40699
2.40889
2.41111
2.41367
2.41656
2.41977
2.4233
2.42714
2.43127
2.43567
2.44033
2.44521
2.4503
2.45556
2.46095
2.46643
2.47198
2.47754
2.48309
2.48858
2.49398
2.49926
2.5044
2.50936
2.51414
2.51872
2.52309
2.52724
2.53117
2.53489
2.53839
2.54169
2.54479
2.54769
2.55041
2.55295
2.55532
2.55752
2.55956
2.56145
2.56318
2.56475
2.56617
2.56744
2.56856
2.56951
2.57031
2.57094
2.57141
2.40413
2.4042
2.40458
2.40534
2.40646
2.40789
2.40964
2.4117
2.41409
2.4168
2.41983
2.42317
2.42681
2.43075
2.43497
2.43945
2.44418
2.44911
2.45424
2.45952
2.46492
2.4704
2.47593
2.48147
2.48698
2.49243
2.49779
2.50303
2.50812
2.51304
2.51778
2.52232
2.52666
2.53079
2.5347
2.5384
2.54189
2.54517
2.54824
2.55111
2.55378
2.55625
2.55853
2.56061
2.5625
2.5642
2.56571
2.56703
2.56814
2.56906
2.56977
2.57028
2.57058
2.57066
2.40503
2.40506
2.40537
2.40606
2.40709
2.40843
2.41006
2.41201
2.41426
2.41683
2.41971
2.4229
2.4264
2.43018
2.43426
2.4386
2.44319
2.44801
2.45304
2.45823
2.46357
2.46901
2.47453
2.48007
2.48562
2.49113
2.49657
2.50191
2.50713
2.5122
2.5171
2.52182
2.52635
2.53066
2.53477
2.53867
2.54234
2.54579
2.54903
2.55204
2.55483
2.5574
2.55974
2.56186
2.56375
2.56541
2.56683
2.56802
2.56897
2.56966
2.57011
2.57029
2.57022
2.56989
2.40539
2.40541
2.4057
2.40633
2.40732
2.40859
2.41015
2.41202
2.41418
2.41665
2.41942
2.4225
2.42588
2.42956
2.43353
2.43777
2.44227
2.44701
2.45196
2.4571
2.4624
2.46783
2.47335
2.47892
2.48451
2.49009
2.49562
2.50108
2.50642
2.51164
2.51671
2.5216
2.5263
2.53081
2.53511
2.53919
2.54304
2.54667
2.55005
2.5532
2.55611
2.55876
2.56116
2.5633
2.56517
2.56678
2.5681
2.56915
2.5699
2.57035
2.5705
2.57033
2.56984
2.56904
2.40522
2.40524
2.40552
2.40615
2.40711
2.40835
2.40989
2.41171
2.41382
2.41623
2.41894
2.42195
2.42526
2.42887
2.43277
2.43694
2.44139
2.44608
2.45101
2.45613
2.46143
2.46686
2.4724
2.47802
2.48368
2.48934
2.49497
2.50054
2.50602
2.51138
2.51661
2.52167
2.52655
2.53124
2.53572
2.53998
2.54401
2.54779
2.55133
2.5546
2.55761
2.56034
2.56278
2.56493
2.56677
2.5683
2.56951
2.57038
2.57092
2.57109
2.57092
2.57036
2.56942
2.56809
2.40447
2.40452
2.40484
2.40553
2.40652
2.40778
2.40933
2.41115
2.41326
2.41566
2.41835
2.42133
2.42461
2.42818
2.43204
2.43619
2.4406
2.44528
2.45019
2.45532
2.46063
2.46611
2.4717
2.47738
2.48312
2.48887
2.49461
2.5003
2.50592
2.51143
2.51682
2.52204
2.5271
2.53196
2.53662
2.54105
2.54524
2.54918
2.55285
2.55624
2.55934
2.56213
2.5646
2.56675
2.56854
2.56998
2.57104
2.57172
2.57201
2.57189
2.57134
2.57035
2.5689
2.567
2.40315
2.40327
2.4037
2.40447
2.40553
2.40686
2.40845
2.41032
2.41246
2.41488
2.41759
2.42059
2.42388
2.42747
2.43135
2.4355
2.43994
2.44463
2.44956
2.45471
2.46006
2.46558
2.47124
2.47701
2.48284
2.48871
2.49456
2.50039
2.50614
2.51181
2.51735
2.52274
2.52796
2.533
2.53782
2.54241
2.54676
2.55083
2.55463
2.55812
2.5613
2.56414
2.56663
2.56874
2.57047
2.57179
2.57269
2.57315
2.57316
2.57272
2.57175
2.57027
2.56828
2.56577
2.40124
2.40147
2.40203
2.4029
2.40405
2.40547
2.40715
2.4091
2.41132
2.41382
2.41659
2.41966
2.42301
2.42666
2.43059
2.43481
2.43931
2.44407
2.44907
2.4543
2.45972
2.46532
2.47106
2.47691
2.48286
2.48884
2.49483
2.5008
2.5067
2.51251
2.51821
2.52376
2.52915
2.53434
2.53933
2.54407
2.54856
2.55277
2.55667
2.56026
2.5635
2.56637
2.56885
2.57091
2.57255
2.57373
2.57443
2.57464
2.57436
2.57352
2.57212
2.5701
2.56753
2.56443
2.39866
2.39902
2.39974
2.40075
2.40205
2.4036
2.40543
2.40751
2.40985
2.41247
2.41536
2.41853
2.42199
2.42574
2.42978
2.43411
2.43871
2.44358
2.44869
2.45403
2.45957
2.46529
2.47114
2.47712
2.48317
2.48929
2.49542
2.50154
2.50759
2.51356
2.51941
2.52512
2.53067
2.53602
2.54115
2.54604
2.55066
2.55498
2.55899
2.56265
2.56593
2.56881
2.57127
2.57327
2.57478
2.57579
2.57627
2.5762
2.57558
2.5743
2.57242
2.56986
2.56678
2.56295
2.39533
2.3959
2.39682
2.39802
2.3995
2.40125
2.40325
2.40551
2.40802
2.41081
2.41386
2.41719
2.42081
2.42471
2.4289
2.43338
2.43813
2.44315
2.44841
2.4539
2.45959
2.46546
2.47147
2.47759
2.48379
2.49005
2.49633
2.5026
2.50882
2.51495
2.52096
2.52683
2.53253
2.53803
2.5433
2.54832
2.55306
2.55749
2.56158
2.5653
2.56861
2.57149
2.57389
2.57579
2.57716
2.57797
2.57819
2.57781
2.57678
2.57506
2.5727
2.56948
2.56603
2.56132
2.39123
2.39205
2.39321
2.39465
2.39637
2.39836
2.4006
2.40308
2.40582
2.40882
2.41208
2.41562
2.41944
2.42354
2.42793
2.4326
2.43755
2.44276
2.44821
2.45389
2.45977
2.46582
2.47202
2.47832
2.4847
2.49112
2.49756
2.50399
2.51038
2.51667
2.52285
2.52887
2.53472
2.54037
2.54578
2.55093
2.55578
2.56031
2.56446
2.56822
2.57154
2.57439
2.57672
2.5785
2.57969
2.58025
2.58018
2.57943
2.57798
2.57576
2.57306
2.56922
2.56551
2.55951
2.3863
2.38743
2.38888
2.39061
2.39264
2.39491
2.39744
2.4002
2.40321
2.40647
2.41
2.41379
2.41786
2.42221
2.42685
2.43176
2.43695
2.44239
2.44808
2.45399
2.46009
2.46637
2.47277
2.47929
2.48587
2.49248
2.49911
2.50571
2.51227
2.51874
2.52508
2.53127
2.53727
2.54306
2.5486
2.55387
2.55882
2.56343
2.56764
2.57143
2.57474
2.57753
2.57977
2.58139
2.58236
2.58265
2.58225
2.58107
2.57915
2.57641
2.57347
2.56902
2.56467
2.5585
2.38049
2.38197
2.3838
2.38589
2.38827
2.39089
2.39374
2.39683
2.40016
2.40375
2.40758
2.41168
2.41605
2.42069
2.42562
2.43082
2.43629
2.44201
2.44797
2.45415
2.46052
2.46705
2.47371
2.48046
2.48728
2.49411
2.50095
2.50774
2.51448
2.52113
2.52765
2.534
2.54015
2.54609
2.55176
2.55714
2.5622
2.56687
2.57114
2.57493
2.57821
2.58093
2.58303
2.58447
2.58519
2.58516
2.58438
2.58274
2.58035
2.57686
2.57341
2.56809
2.56243
2.55378
2.3737
2.37567
2.37791
2.38046
2.38322
2.38623
2.38948
2.39295
2.39666
2.40061
2.40481
2.40926
2.41397
2.41895
2.42421
2.42974
2.43553
2.44158
2.44786
2.45435
2.46103
2.46786
2.4748
2.48183
2.4889
2.49599
2.50306
2.51007
2.517
2.52384
2.53054
2.53706
2.54338
2.54946
2.55527
2.56076
2.56591
2.57065
2.57495
2.57874
2.58198
2.58459
2.58653
2.58774
2.58817
2.58779
2.5866
2.58457
2.58173
2.57715
2.57189
2.56351
2.55431
2.55118
2.36621
2.36854
2.37125
2.37421
2.37748
2.38096
2.38465
2.38855
2.39268
2.39705
2.40165
2.4065
2.4116
2.41696
2.42259
2.42849
2.43465
2.44106
2.4477
2.45455
2.46157
2.46874
2.47601
2.48335
2.49072
2.49809
2.50541
2.51267
2.51982
2.52686
2.53375
2.54046
2.54694
2.55317
2.55911
2.56473
2.56997
2.57477
2.5791
2.58287
2.58604
2.58853
2.59027
2.59122
2.5913
2.59051
2.58886
2.58656
2.5827
2.57731
2.56954
2.56515
2.55857
2.55113
2.35774
2.36067
2.36396
2.3675
2.37121
2.37513
2.3793
2.38363
2.3882
2.39306
2.39809
2.40339
2.40891
2.41469
2.42072
2.42702
2.43359
2.4404
2.44745
2.4547
2.46211
2.46966
2.4773
2.48499
2.49269
2.50037
2.50799
2.51551
2.52291
2.53017
2.53727
2.54417
2.55083
2.55722
2.5633
2.56904
2.57438
2.57924
2.58359
2.58733
2.59041
2.59274
2.59426
2.59489
2.59456
2.59325
2.59111
2.58781
2.58403
2.57418
2.5723
2.566
2.55908
2.55039
2.34889
2.35202
2.35608
2.36012
2.36442
2.36889
2.37352
2.37836
2.38335
2.38861
2.39415
2.39984
2.40584
2.41204
2.41854
2.4253
2.4323
2.43956
2.44705
2.45473
2.46259
2.47056
2.47861
2.4867
2.49478
2.50281
2.51076
2.51859
2.52626
2.53375
2.54107
2.54817
2.55503
2.56159
2.56783
2.5737
2.57913
2.58406
2.58842
2.59212
2.59509
2.59724
2.59848
2.59874
2.59791
2.59597
2.59287
2.58774
2.57685
2.5779
2.57381
2.56731
2.55836
2.54773
2.33777
2.34277
2.34789
2.35251
2.35758
2.36251
2.36753
2.37281
2.37825
2.3839
2.3898
2.39594
2.40237
2.40907
2.41602
2.42324
2.43071
2.43846
2.44643
2.4546
2.46293
2.47139
2.4799
2.48843
2.49693
2.50537
2.51369
2.52185
2.52983
2.53759
2.54514
2.55246
2.55952
2.56626
2.57267
2.57868
2.58422
2.58921
2.59357
2.59722
2.60005
2.60199
2.60291
2.60272
2.60134
2.59864
2.59419
2.58653
2.58497
2.58186
2.57595
2.56739
2.557
2.5449
2.3271
2.33286
2.339
2.34371
2.35033
2.35562
2.36119
2.367
2.37285
2.37884
2.38517
2.39176
2.39857
2.4057
2.41314
2.42083
2.42882
2.43705
2.44554
2.45423
2.46308
2.47205
2.48109
2.49012
2.4991
2.50799
2.51674
2.52528
2.5336
2.54165
2.54945
2.55699
2.56426
2.5712
2.57778
2.58394
2.58959
2.59464
2.599
2.60257
2.60524
2.60689
2.60744
2.60678
2.60493
2.60168
2.59823
2.59497
2.59107
2.5851
2.57706
2.56709
2.55531
2.54181
2.31787
2.32486
2.32888
2.33583
2.34264
2.34799
2.35491
2.36113
2.36712
2.37355
2.38022
2.3872
2.39443
2.40198
2.40984
2.41802
2.4265
2.43525
2.44428
2.45353
2.46296
2.47251
2.48211
2.4917
2.50123
2.51063
2.51985
2.52883
2.53752
2.5459
2.55395
2.56171
2.56918
2.57632
2.58308
2.58939
2.59516
2.60027
2.6046
2.60806
2.61052
2.61186
2.61195
2.61086
2.60861
2.60706
2.60437
2.60041
2.59471
2.5872
2.57776
2.56638
2.55322
2.53838
2.30893
2.31538
2.32171
2.33036
2.33402
2.3391
2.34818
2.35492
2.36159
2.36826
2.37521
2.38244
2.39001
2.39789
2.40615
2.41476
2.42372
2.43301
2.44261
2.45243
2.4625
2.47267
2.4829
2.4931
2.50322
2.5132
2.52296
2.53242
2.54154
2.55028
2.55861
2.56656
2.57419
2.58152
2.58845
2.59492
2.6008
2.60595
2.61025
2.61357
2.61578
2.61674
2.61637
2.61488
2.61451
2.6128
2.60948
2.60437
2.59752
2.58875
2.57803
2.56541
2.55095
2.5351
2.30117
2.30753
2.31435
2.32145
2.32706
2.33289
2.34177
2.34857
2.35564
2.36251
2.36971
2.37725
2.38511
2.39335
2.40197
2.411
2.42043
2.43025
2.44043
2.45089
2.46159
2.47242
2.48332
2.4942
2.50498
2.5156
2.52595
2.53596
2.54556
2.55469
2.56332
2.57146
2.5792
2.58665
2.59375
2.60037
2.60635
2.61153
2.61577
2.61892
2.62088
2.62164
2.62037
2.62134
2.62047
2.6181
2.61393
2.60788
2.59987
2.58985
2.57795
2.56432
2.54931
2.53349
2.29494
2.301
2.30762
2.31427
2.3207
2.32823
2.33412
2.34197
2.34957
2.35674
2.36408
2.37174
2.37981
2.38829
2.39725
2.40667
2.41656
2.42691
2.43767
2.44877
2.46014
2.47168
2.48328
2.49487
2.50636
2.51766
2.52867
2.53929
2.54942
2.559
2.56796
2.5763
2.58415
2.59165
2.59887
2.60564
2.61171
2.61688
2.621
2.62397
2.62581
2.62685
2.62605
2.62737
2.62613
2.62315
2.61812
2.61104
2.6019
2.59078
2.57787
2.56369
2.54921
2.53378
2.29043
2.29618
2.30226
2.30853
2.31506
2.32176
2.32773
2.3355
2.34288
2.35015
2.3577
2.36563
2.37394
2.3827
2.39198
2.40179
2.41211
2.42293
2.43424
2.44597
2.45805
2.47032
2.48265
2.49496
2.50716
2.51921
2.5309
2.54218
2.55294
2.56306
2.57244
2.58099
2.58898
2.59654
2.60378
2.61064
2.61676
2.62187
2.62582
2.62844
2.62947
2.63329
2.63351
2.63335
2.63164
2.62789
2.62198
2.61391
2.60374
2.59168
2.57822
2.56453
2.55047
2.53263
2.28775
2.29286
2.29811
2.30385
2.30976
2.31619
2.32181
2.32906
2.33616
2.34353
2.35123
2.35924
2.36769
2.37663
2.38617
2.39632
2.40702
2.41829
2.43012
2.44248
2.45529
2.4683
2.4813
2.49428
2.50713
2.51997
2.5324
2.54443
2.55596
2.5669
2.57678
2.58561
2.59367
2.60131
2.60854
2.61527
2.6213
2.62626
2.62996
2.63202
2.63645
2.63901
2.63967
2.63921
2.63683
2.6323
2.62551
2.61649
2.60546
2.59287
2.5798
2.56598
2.55008
2.53375
2.28628
2.29082
2.29555
2.30041
2.3054
2.31087
2.31687
2.32325
2.32956
2.33653
2.34416
2.35237
2.36104
2.37019
2.37993
2.39033
2.40136
2.41298
2.4252
2.438
2.4515
2.46532
2.47896
2.49242
2.50579
2.51979
2.53324
2.54632
2.55892
2.57093
2.58131
2.59026
2.59816
2.60577
2.61286
2.61936
2.6251
2.62973
2.63281
2.63865
2.64221
2.64458
2.64551
2.64465
2.64166
2.63636
2.62872
2.61889
2.60728
2.59481
2.58235
2.56916
2.55305
2.53562
2.2867
2.28972
2.29314
2.29666
2.30058
2.30547
2.31103
2.3168
2.32321
2.32985
2.33701
2.34493
2.35367
2.36277
2.37249
2.3831
2.39441
2.40628
2.41869
2.43162
2.44552
2.46103
2.47588
2.49074
2.50563
2.51957
2.53403
2.54828
2.56212
2.57499
2.58606
2.59486
2.60217
2.60948
2.61644
2.62274
2.628
2.63145
2.63844
2.6435
2.64743
2.65007
2.65087
2.64963
2.64607
2.64006
2.63169
2.62129
2.60961
2.59748
2.58594
2.57185
2.55509
2.53749
2.2865
2.28936
2.29222
2.2954
2.29888
2.30257
2.30626
2.31077
2.31578
2.32124
2.3273
2.33579
2.34505
2.35442
2.36454
2.3757
2.38782
2.40077
2.41442
2.42865
2.44264
2.45611
2.47146
2.48745
2.50359
2.51949
2.53531
2.55082
2.56559
2.57923
2.59072
2.59796
2.60515
2.61234
2.61917
2.62524
2.63003
2.6338
2.64207
2.6479
2.6524
2.655
2.65563
2.65404
2.64998
2.6434
2.63453
2.62389
2.61265
2.60254
2.58818
2.57354
2.55669
2.53906
2.29017
2.29184
2.29357
2.29574
2.29803
2.30097
2.30498
2.30898
2.31337
2.3183
2.32335
2.32755
2.333
2.34092
2.35047
2.36158
2.37417
2.38803
2.40263
2.41794
2.4336
2.44962
2.46656
2.48396
2.50151
2.51886
2.53594
2.55261
2.56866
2.58271
2.59224
2.59948
2.60677
2.61394
2.62058
2.62603
2.63012
2.63871
2.64595
2.65208
2.65659
2.65913
2.6596
2.65775
2.65333
2.64636
2.63707
2.62601
2.6143
2.60312
2.58982
2.57508
2.55951
2.54354
2.29122
2.29107
2.2912
2.2916
2.29222
2.29319
2.29486
2.29687
2.29932
2.30239
2.30602
2.31052
2.31643
2.32427
2.33403
2.34591
2.3592
2.37386
2.38953
2.40616
2.42364
2.44179
2.46056
2.47948
2.49824
2.51679
2.53496
2.55252
2.56913
2.58312
2.59136
2.59913
2.60674
2.61388
2.62007
2.62474
2.63411
2.64185
2.64903
2.65514
2.65968
2.66215
2.66254
2.66053
2.65586
2.64856
2.63891
2.62753
2.61589
2.60567
2.59174
2.57486
2.56201
2.54596
2.29174
2.28955
2.28792
2.28652
2.28541
2.28468
2.28467
2.28542
2.28661
2.28855
2.2916
2.29617
2.30225
2.31021
2.32051
2.33418
2.34812
2.363
2.37891
2.39606
2.41445
2.4338
2.45343
2.4734
2.49314
2.51251
2.53154
2.54994
2.56684
2.57974
2.58821
2.59681
2.60474
2.61179
2.61729
2.62694
2.63574
2.64364
2.65066
2.65674
2.66132
2.66384
2.66425
2.66226
2.65761
2.65031
2.64067
2.62936
2.61783
2.60875
2.59402
2.57497
2.5651
2.55031
2.29226
2.28845
2.28479
2.28176
2.2793
2.27737
2.27618
2.27607
2.27698
2.27892
2.28204
2.28642
2.29236
2.29999
2.30892
2.31875
2.33171
2.34679
2.36383
2.38261
2.40253
2.42324
2.44443
2.46543
2.48599
2.50585
2.52529
2.54411
2.56224
2.5729
2.58306
2.59217
2.60063
2.60727
2.61775
2.62676
2.63553
2.64369
2.65064
2.65669
2.66142
2.66407
2.66462
2.66285
2.65846
2.6514
2.64195
2.63069
2.61886
2.60867
2.59367
2.57695
2.56869
2.55456
2.29287
2.28831
2.28396
2.27981
2.27628
2.27328
2.27103
2.26979
2.26962
2.27049
2.27255
2.27613
2.28164
2.28923
2.29924
2.31042
2.32368
2.33879
2.35557
2.37393
2.39371
2.41407
2.43521
2.45654
2.47764
2.49844
2.51895
2.53885
2.55223
2.56545
2.57615
2.58478
2.5934
2.60668
2.61439
2.62447
2.6337
2.64185
2.64897
2.65501
2.65986
2.66273
2.66352
2.66213
2.65819
2.65165
2.6427
2.63194
2.62032
2.60849
2.59751
2.57491
2.56903
2.55811
2.29436
2.28882
2.28346
2.2783
2.27356
2.26981
2.26678
2.2649
2.26421
2.26437
2.26598
2.26956
2.27488
2.28214
2.29065
2.30203
2.31578
2.33099
2.34741
2.36506
2.38405
2.40438
2.42617
2.44758
2.46718
2.48656
2.51166
2.53061
2.54461
2.55794
2.5678
2.57078
2.5921
2.59924
2.60983
2.62053
2.62986
2.63832
2.64571
2.65179
2.65665
2.6598
2.66084
2.65989
2.65656
2.65078
2.64265
2.63247
2.62067
2.60806
2.59451
2.5803
2.56956
2.56106
2.29623
2.28989
2.28365
2.27756
2.27174
2.26631
2.26186
2.2593
2.25745
2.2568
2.25793
2.26126
2.26679
2.27465
2.28335
2.29499
2.30865
2.32402
2.34022
2.3571
2.37668
2.39784
2.41722
2.43685
2.45952
2.47727
2.49761
2.51826
2.53635
2.54673
2.55996
2.55783
2.57962
2.5928
2.60416
2.61492
2.62444
2.63322
2.64092
2.64727
2.6521
2.65532
2.65663
2.6561
2.65331
2.64824
2.641
2.63182
2.62105
2.6091
2.59615
2.58237
2.56929
2.55776
2.29873
2.29175
2.28482
2.27799
2.27138
2.26491
2.25897
2.25573
2.25334
2.25265
2.25315
2.2563
2.26156
2.2696
2.27865
2.29006
2.30375
2.32057
2.33665
2.35371
2.37079
2.39009
2.41092
2.43013
2.44356
2.47332
2.49393
2.5119
2.52258
2.53721
2.55101
2.55818
2.5757
2.5859
2.59776
2.60796
2.61776
2.62679
2.63479
2.64143
2.6465
2.6497
2.65106
2.65091
2.64861
2.64417
2.63767
2.62933
2.61943
2.60842
2.59676
2.58485
2.57306
2.56145
2.30166
2.29424
2.28685
2.27953
2.27235
2.2652
2.25777
2.25564
2.25236
2.25083
2.2515
2.25506
2.26136
2.26885
2.2793
2.29074
2.30291
2.31657
2.33014
2.34773
2.36866
2.3866
2.405
2.42497
2.44693
2.46738
2.48762
2.50639
2.51539
2.53644
2.54176
2.55026
2.56756
2.57835
2.58955
2.59998
2.61
2.61925
2.62746
2.63438
2.63972
2.64314
2.64448
2.64448
2.6426
2.63873
2.63294
2.62542
2.61646
2.60641
2.59571
2.58463
2.57335
2.56191
2.30494
2.29725
2.28965
2.28215
2.27483
2.26767
2.26087
2.25515
2.25429
2.25179
2.25246
2.25537
2.26093
2.26743
2.27701
2.28734
2.3007
2.31353
2.32899
2.34588
2.36209
2.37845
2.39701
2.41914
2.44085
2.46088
2.4796
2.49639
2.49841
2.51579
2.53382
2.54185
2.55886
2.56947
2.58053
2.59116
2.60134
2.61074
2.61911
2.62623
2.63174
2.63543
2.63692
2.63695
2.63525
2.63193
2.62687
2.62023
2.6123
2.60343
2.59389
2.58387
2.57347
2.56279
2.30837
2.30056
2.29294
2.28549
2.27834
2.27146
2.26517
2.25987
2.2556
2.25719
2.25557
2.2586
2.26326
2.26968
2.27858
2.2887
2.30184
2.31302
2.32292
2.34004
2.35792
2.37969
2.39983
2.41572
2.43322
2.45537
2.46701
2.48453
2.49235
2.50622
2.52421
2.53492
2.54835
2.5597
2.57093
2.58176
2.59195
2.60137
2.60979
2.61686
2.62254
2.62623
2.62804
2.62826
2.62668
2.62365
2.61923
2.61353
2.60672
2.59913
2.59097
2.58234
2.57323
2.56372
2.31179
2.30394
2.29633
2.28901
2.28216
2.27571
2.26998
2.26529
2.26203
2.26014
2.26167
2.26119
2.26552
2.2707
2.27762
2.28765
2.29938
2.31251
2.3272
2.34506
2.36265
2.3793
2.39574
2.41253
2.42723
2.45571
2.45714
2.46875
2.48895
2.50107
2.51432
2.52667
2.53863
2.55002
2.5612
2.5719
2.582
2.59126
2.59947
2.60644
2.61197
2.61569
2.61755
2.61797
2.61673
2.61397
2.61002
2.60515
2.59959
2.59346
2.58694
2.58001
2.57251
2.56432
2.31508
2.30724
2.29975
2.29243
2.28608
2.27972
2.2747
2.27072
2.26814
2.26714
2.26766
2.26925
2.27366
2.27935
2.28618
2.29568
2.30656
2.3188
2.33149
2.3463
2.3617
2.37894
2.39834
2.4176
2.42185
2.43598
2.45556
2.46315
2.48187
2.49366
2.50621
2.51791
2.52939
2.54058
2.55147
2.56186
2.5716
2.5805
2.58835
2.59497
2.60017
2.60367
2.60543
2.60586
2.60489
2.60254
2.59916
2.5951
2.59076
2.58635
2.58186
2.57713
2.57168
2.56507
2.31769
2.31018
2.30289
2.29598
2.28992
2.28419
2.27978
2.27619
2.27422
2.27357
2.27427
2.27638
2.2804
2.28573
2.29243
2.30073
2.31048
2.32165
2.33406
2.34897
2.3669
2.38284
2.39196
2.41135
2.41851
2.43179
2.44858
2.45894
2.4745
2.48627
2.49825
2.50955
2.52068
2.53148
2.54187
2.55175
2.56094
2.56924
2.57649
2.58254
2.58717
2.5902
2.59161
2.59189
2.59095
2.5889
2.58617
2.58307
2.58007
2.57755
2.57556
2.57365
2.57089
2.56624
2.32004
2.31273
2.30537
2.29911
2.29329
2.28818
2.28406
2.28095
2.27928
2.27885
2.27966
2.28192
2.2857
2.29083
2.29741
2.30594
2.31732
2.32979
2.34304
2.35635
2.36786
2.38142
2.3894
2.40402
2.41585
2.42978
2.44347
2.45497
2.46805
2.47967
2.49106
2.50199
2.51261
2.52288
2.53263
2.5418
2.5502
2.55768
2.5641
2.5693
2.57309
2.57526
2.57614
2.57599
2.57484
2.57294
2.57075
2.56867
2.56731
2.56698
2.56808
2.56991
2.57065
2.56858
2.32244
2.31498
2.30806
2.30178
2.29622
2.29145
2.28768
2.28516
2.28414
2.28429
2.28581
2.28884
2.29337
2.29929
2.30643
2.31435
2.32223
2.33196
2.34385
2.35624
2.36798
2.37964
2.39064
2.40249
2.41431
2.42804
2.43968
2.45141
2.46311
2.47424
2.48506
2.4955
2.50551
2.51502
2.52398
2.53224
2.53965
2.54608
2.55141
2.5555
2.55802
2.55914
2.55919
2.55827
2.55664
2.5547
2.55288
2.55206
2.55231
2.55459
2.55931
2.56615
2.57195
2.5732
2.3244
2.31702
2.31019
2.30409
2.29875
2.29431
2.29089
2.28874
2.28799
2.28822
2.28975
2.29272
2.29704
2.30276
2.30967
2.31752
2.32585
2.33532
2.34597
2.35727
2.3687
2.37963
2.39087
2.40237
2.41413
2.42637
2.4375
2.44869
2.45964
2.4702
2.48043
2.49021
2.49953
2.50814
2.51617
2.52342
2.52961
2.53478
2.53877
2.54132
2.54237
2.54229
2.54112
2.53908
2.53681
2.53446
2.53348
2.53343
2.53565
2.54067
2.54936
2.56227
2.57608
2.58229
2.32609
2.31879
2.31228
2.30648
2.30159
2.2976
2.29471
2.29313
2.29271
2.29318
2.29484
2.29767
2.30192
2.30737
2.3138
2.32136
2.32967
2.33887
2.34888
2.35898
2.36996
2.38091
2.39186
2.40342
2.41452
2.42576
2.43658
2.4472
2.45762
2.46762
2.47731
2.48637
2.49482
2.50258
2.50952
2.51549
2.52045
2.52415
2.52651
2.52735
2.52693
2.52522
2.52255
2.51938
2.51597
2.51392
2.51284
2.51416
2.51852
2.52686
2.54037
2.56039
2.58437
2.59935
2.32753
2.32049
2.31419
2.30876
2.3043
2.30081
2.29847
2.29739
2.29719
2.29797
2.29967
2.30231
2.3068
2.31229
2.31808
2.32563
2.33346
2.34259
2.35169
2.36205
2.37239
2.38312
2.39394
2.40492
2.41575
2.42648
2.43697
2.44718
2.45716
2.46663
2.47567
2.48406
2.49169
2.49849
2.50433
2.50901
2.51256
2.51448
2.51511
2.51431
2.51209
2.50873
2.50467
2.50016
2.49608
2.49368
2.49319
2.49583
2.50326
2.51696
2.53648
2.56108
2.59142
2.61779
2.32865
2.32189
2.31599
2.311
2.307
2.30404
2.30227
2.30145
2.30149
2.30232
2.30433
2.30765
2.31164
2.31704
2.32282
2.32992
2.3379
2.34651
2.35579
2.36563
2.37589
2.38632
2.39694
2.4076
2.41817
2.42861
2.43877
2.44867
2.4582
2.4673
2.47574
2.48344
2.49029
2.49604
2.50085
2.50416
2.5061
2.50652
2.50532
2.50277
2.49866
2.49382
2.48817
2.48264
2.47802
2.47592
2.47656
2.48135
2.49325
2.51141
2.53373
2.55776
2.58274
2.61048
2.32961
2.3232
2.31775
2.31325
2.30974
2.30731
2.30598
2.30553
2.30582
2.30697
2.30907
2.31262
2.31668
2.32199
2.32792
2.33491
2.34273
2.35122
2.36034
2.37003
2.3801
2.39044
2.40088
2.41138
2.42183
2.43215
2.44217
2.4518
2.46099
2.46956
2.47752
2.48458
2.4907
2.49566
2.4992
2.50126
2.50169
2.50047
2.49779
2.49333
2.48753
2.48087
2.47389
2.46755
2.46282
2.46091
2.46292
2.47052
2.48495
2.50389
2.52474
2.54406
2.56223
2.57891
2.33063
2.3246
2.3196
2.3156
2.31262
2.31065
2.30986
2.30961
2.3103
2.31171
2.31412
2.31769
2.32194
2.32719
2.3333
2.34023
2.34804
2.35647
2.36552
2.37514
2.38512
2.3954
2.40574
2.41628
2.42669
2.43698
2.44692
2.45645
2.46536
2.47369
2.48116
2.48764
2.49298
2.49709
2.49966
2.50046
2.49961
2.49694
2.49239
2.48627
2.47882
2.47076
2.46224
2.45505
2.45006
2.44843
2.45116
2.46019
2.4744
2.49192
2.50974
2.52294
2.53019
2.52679
2.33177
2.32614
2.3216
2.31808
2.31563
2.31421
2.31374
2.31389
2.31489
2.31667
2.31933
2.32296
2.32741
2.33275
2.33895
2.34594
2.3538
2.36215
2.37133
2.38081
2.39082
2.40123
2.4116
2.42218
2.43257
2.44297
2.4529
2.46245
2.47126
2.47939
2.48658
2.49264
2.49742
2.50068
2.50212
2.50196
2.49989
2.49578
2.48971
2.48191
2.4729
2.46327
2.45369
2.44539
2.4396
2.43782
2.44044
2.44881
2.46203
2.4778
2.49295
2.50275
2.50296
2.47438
2.57517
2.57652
2.57783
2.5791
2.58034
2.58155
2.58272
2.58385
2.58497
2.58614
2.58736
2.58861
2.58997
2.59142
2.59292
2.59452
2.59616
2.59791
2.59964
2.6014
2.57401
2.575
2.57592
2.57677
2.57758
2.57835
2.57911
2.57983
2.58052
2.58127
2.58209
2.583
2.58406
2.58523
2.58653
2.58796
2.58957
2.59126
2.59306
2.59495
2.57287
2.57347
2.57396
2.57437
2.57471
2.57499
2.57527
2.57555
2.57582
2.57612
2.57653
2.57707
2.57778
2.57867
2.57977
2.58103
2.58253
2.58423
2.5861
2.58818
2.57173
2.57189
2.57192
2.57184
2.57166
2.57143
2.57119
2.57096
2.57078
2.57064
2.5706
2.57073
2.57108
2.57167
2.57254
2.57365
2.57507
2.57675
2.57875
2.58099
2.57055
2.57024
2.56976
2.56914
2.56841
2.56762
2.5668
2.56602
2.56532
2.56472
2.56423
2.56393
2.5639
2.56416
2.56478
2.56573
2.56706
2.56877
2.57088
2.57336
2.56929
2.56847
2.56743
2.56622
2.56489
2.56348
2.56205
2.56066
2.55938
2.55826
2.55731
2.55656
2.55613
2.55608
2.55639
2.55715
2.55843
2.56017
2.56246
2.56521
2.56792
2.56653
2.56488
2.56304
2.56104
2.55896
2.55686
2.5548
2.55288
2.55116
2.5497
2.54851
2.54766
2.54725
2.54732
2.54788
2.54904
2.55088
2.55335
2.55648
2.5664
2.56439
2.56208
2.55956
2.55684
2.55402
2.55118
2.54838
2.54576
2.54337
2.54132
2.53966
2.5384
2.53762
2.53741
2.53776
2.53886
2.54075
2.5435
2.54705
2.5647
2.56202
2.559
2.55574
2.55229
2.54865
2.54501
2.5414
2.538
2.53488
2.53216
2.52997
2.52834
2.52713
2.52655
2.52668
2.52766
2.52976
2.5327
2.53673
2.56281
2.55941
2.55565
2.55166
2.54738
2.54291
2.53853
2.53386
2.52979
2.52582
2.5224
2.5196
2.51765
2.51545
2.51469
2.51404
2.51542
2.51794
2.52084
2.52527
2.56077
2.5567
2.55199
2.54734
2.54207
2.53696
2.53196
2.52625
2.52133
2.51658
2.51248
2.50902
2.50598
2.50483
2.50168
2.50029
2.50315
2.50408
2.50796
2.51224
2.55874
2.55386
2.54861
2.54259
2.5369
2.52988
2.52526
2.51893
2.51258
2.50665
2.50145
2.49726
2.49423
2.49158
2.49207
2.48662
2.49276
2.48937
2.4909
2.4909
2.55675
2.55063
2.54486
2.53819
2.53096
2.52328
2.51578
2.50878
2.50246
2.49593
2.4894
2.48338
2.47837
2.4746
2.47262
2.47217
2.47606
2.4824
2.47073
2.47642
2.55456
2.54847
2.53943
2.53162
2.52335
2.51649
2.50862
2.49962
2.49062
2.482
2.47399
2.46685
2.46093
2.45655
2.45418
2.45399
2.45895
2.4599
2.46424
2.45443
2.54898
2.54374
2.53646
2.52828
2.51859
2.5085
2.49802
2.48749
2.47737
2.46796
2.45942
2.4518
2.44545
2.44066
2.43755
2.43691
2.44094
2.4453
2.44187
2.44303
2.54785
2.54101
2.53222
2.52198
2.51043
2.49873
2.48716
2.47592
2.46499
2.45487
2.44552
2.43765
2.43093
2.42569
2.42211
2.42091
2.42234
2.42575
2.43069
2.43078
2.5445
2.53655
2.52599
2.51415
2.50168
2.489
2.47657
2.46479
2.45278
2.44208
2.43201
2.42329
2.41718
2.41166
2.40787
2.40588
2.40642
2.40858
2.41321
2.41727
2.5421
2.53157
2.51968
2.50681
2.49331
2.47953
2.46591
2.45308
2.44055
2.42913
2.41894
2.41043
2.40371
2.39846
2.3947
2.39244
2.39257
2.39435
2.39939
2.40383
2.53947
2.52708
2.51365
2.4993
2.48457
2.46943
2.45497
2.44095
2.42783
2.41604
2.40592
2.39772
2.39125
2.38626
2.38266
2.38046
2.3804
2.38179
2.38618
2.3938
2.53548
2.52166
2.50705
2.49128
2.47515
2.4589
2.44347
2.42894
2.41526
2.40321
2.39329
2.38576
2.37967
2.37511
2.37221
2.37005
2.36905
2.37059
2.3748
2.38311
2.53126
2.51612
2.49994
2.48297
2.46597
2.44865
2.43269
2.41824
2.40412
2.39191
2.38205
2.37426
2.36866
2.36488
2.36248
2.35985
2.35934
2.36074
2.36518
2.37388
2.52672
2.51042
2.49351
2.47551
2.45894
2.44007
2.42172
2.40525
2.39162
2.38019
2.37104
2.36401
2.35881
2.35521
2.35353
2.35102
2.35034
2.35194
2.357
2.36662
2.52223
2.50556
2.48946
2.46894
2.44749
2.42898
2.41172
2.39549
2.38152
2.36989
2.36076
2.35405
2.34933
2.3458
2.3449
2.34246
2.34217
2.34449
2.35076
2.362
2.51862
2.50182
2.47994
2.46049
2.44084
2.42202
2.4039
2.38699
2.37223
2.36027
2.35117
2.34472
2.34041
2.33795
2.33595
2.33488
2.33564
2.33953
2.34789
2.36118
2.51644
2.4964
2.47636
2.45661
2.4361
2.41553
2.39669
2.37961
2.36482
2.35282
2.34374
2.33738
2.33349
2.33069
2.32919
2.32991
2.33284
2.33916
2.3499
2.36534
2.51474
2.49498
2.47477
2.45311
2.4326
2.41325
2.39413
2.37671
2.36171
2.34964
2.34032
2.33381
2.32994
2.32909
2.32887
2.33057
2.33586
2.34474
2.35779
2.37545
2.51448
2.49366
2.47335
2.45343
2.43262
2.41282
2.39421
2.37722
2.3623
2.3503
2.34099
2.33513
2.3321
2.3323
2.33505
2.33944
2.34629
2.35707
2.37201
2.39163
2.51489
2.49569
2.47494
2.45475
2.43509
2.41646
2.39875
2.38236
2.3679
2.35567
2.34697
2.34203
2.34085
2.34244
2.34633
2.35283
2.36174
2.37394
2.39002
2.41037
2.51669
2.4969
2.47813
2.45914
2.44051
2.42332
2.40682
2.39142
2.3777
2.36666
2.35811
2.35413
2.35423
2.35688
2.36204
2.37003
2.38067
2.39463
2.4121
2.43319
2.51882
2.50206
2.48309
2.46598
2.44773
2.43213
2.41718
2.40321
2.39062
2.38126
2.37351
2.37041
2.37187
2.37537
2.3818
2.39121
2.40334
2.41849
2.43654
2.45705
2.52343
2.50667
2.48925
2.47338
2.4564
2.44174
2.42853
2.41631
2.40599
2.39796
2.3922
2.3916
2.39199
2.39701
2.40434
2.41432
2.42668
2.44149
2.45879
2.47895
2.52685
2.51217
2.49554
2.48122
2.46491
2.45119
2.44028
2.42944
2.42089
2.41481
2.41086
2.4105
2.41294
2.41751
2.42528
2.43564
2.44869
2.46397
2.4814
2.50068
2.53072
2.51848
2.50158
2.48755
2.47379
2.46198
2.45096
2.44204
2.435
2.43023
2.42811
2.42811
2.43104
2.43671
2.44464
2.45524
2.46825
2.48383
2.50087
2.51922
2.536
2.52145
2.50774
2.49382
2.48219
2.47065
2.46134
2.45416
2.44818
2.44492
2.44382
2.44508
2.4489
2.45497
2.46352
2.47432
2.48731
2.50244
2.51906
2.53713
2.53987
2.52653
2.51217
2.49986
2.48855
2.47916
2.47114
2.46487
2.46047
2.45852
2.45848
2.46072
2.46532
2.47213
2.48125
2.49238
2.50535
2.52025
2.53634
2.55352
2.54452
2.53298
2.51639
2.50522
2.49507
2.4873
2.4799
2.47488
2.4717
2.47065
2.47149
2.47475
2.48008
2.48761
2.49719
2.50868
2.52184
2.53649
2.55182
2.56835
2.54682
2.53807
2.51854
2.51006
2.50037
2.49471
2.48726
2.48482
2.48121
2.48136
2.4826
2.48728
2.49288
2.50131
2.5116
2.52331
2.53666
2.55112
2.56608
2.58198
2.54512
2.53816
2.52341
2.51322
2.50749
2.50063
2.49546
2.49363
2.48974
2.49052
2.49219
2.4984
2.50387
2.51356
2.52439
2.53616
2.54935
2.56342
2.57801
2.59286
2.5491
2.53517
2.52496
2.51355
2.50963
2.50636
2.49398
2.49616
2.49719
2.49321
2.49979
2.50693
2.51018
2.52272
2.53416
2.54514
2.55866
2.57317
2.58761
2.6023
2.55023
2.53922
2.53005
2.52178
2.51484
2.50884
2.50393
2.5022
2.50251
2.50375
2.50758
2.51395
2.52165
2.53244
2.54393
2.556
2.5692
2.5829
2.59765
2.61263
2.55202
2.54173