/*--------------------------------*- C++ -*----------------------------------*\
  =========                 |
  \\      /  F ield         | OpenFOAM: The Open Source CFD Toolbox
   \\    /   O peration     | Website:  https://openfoam.org
    \\  /    A nd           | Version:  10
     \\/     M anipulation  |
\*---------------------------------------------------------------------------*/
FoamFile
{
    format      ascii;
    class       surfaceScalarField;
    location    "0.852259";
    object      phi;
}
// * * * * * * * * * * * * * * * * * * * * * * * * * * * * * * * * * * * * * //

dimensions      [1 0 -1 0 0 0 0];

internalField   nonuniform List<scalar> 
31672
(
0.000460134
-5.53594e-05
0.000454352
-5.52116e-05
0.000448336
-5.50321e-05
0.000442039
-5.48176e-05
0.000435559
-5.45692e-05
0.00042886
-5.43284e-05
0.000421963
-5.40492e-05
0.000414902
-5.37694e-05
0.000407688
-5.34682e-05
0.000400348
-5.31483e-05
0.000392902
-5.28055e-05
0.000385381
-5.24421e-05
0.000377803
-5.20564e-05
0.00037019
-5.16501e-05
0.000362567
-5.12227e-05
0.00035496
-5.07774e-05
0.0003474
-5.03174e-05
0.000339925
-4.98488e-05
0.000332566
-4.93783e-05
0.000325361
-4.89137e-05
0.000318344
-4.84639e-05
0.000311543
-4.80383e-05
0.00030499
-4.76452e-05
0.000298711
-4.72954e-05
0.000292733
-4.69964e-05
0.000287083
-4.67587e-05
0.00028178
-4.65878e-05
0.000276847
-4.64915e-05
0.000272295
-4.64733e-05
0.000268145
-4.65349e-05
0.000264406
-4.66795e-05
0.000261088
-4.69009e-05
0.000258201
-4.72003e-05
0.000255747
-4.75666e-05
0.000253732
-4.79931e-05
0.000252161
-4.8468e-05
0.000251028
-4.89775e-05
0.000250336
-4.95021e-05
0.000250085
-5.00266e-05
0.000250275
-5.05252e-05
0.000250901
-5.09768e-05
0.000251964
-5.13546e-05
0.00025346
-5.16292e-05
0.00025538
-5.17683e-05
0.000257723
-5.17393e-05
0.000260477
-5.15063e-05
0.000263638
-5.1033e-05
0.000267193
-5.0281e-05
0.000271129
-4.92105e-05
0.000275433
-4.77829e-05
0.000280087
-4.59567e-05
0.00028507
-4.36967e-05
0.000290354
-4.09608e-05
-3.77152e-05
0.000295918
0.000460601
-4.83335e-05
0.000454839
-4.80001e-05
0.000448814
-4.76372e-05
0.000442542
-4.72744e-05
0.00043605
-4.69173e-05
0.000429335
-4.65662e-05
0.000422455
-4.62356e-05
0.000415379
-4.59128e-05
0.00040816
-4.55974e-05
0.000400815
-4.52954e-05
0.000393353
-4.49986e-05
0.000385822
-4.47117e-05
0.000378228
-4.44292e-05
0.000370599
-4.41537e-05
0.000362957
-4.38848e-05
0.000355332
-4.36236e-05
0.000347755
-4.33735e-05
0.00034026
-4.3138e-05
0.000332881
-4.29218e-05
0.000325651
-4.27313e-05
0.000318603
-4.25732e-05
0.000311765
-4.2455e-05
0.000305168
-4.2384e-05
0.000298839
-4.23687e-05
0.000292805
-4.24159e-05
0.000287091
-4.25342e-05
0.000281721
-4.27288e-05
0.000276718
-4.30058e-05
0.000272096
-4.33685e-05
0.000267877
-4.3818e-05
0.000264069
-4.4356e-05
0.000260687
-4.49767e-05
0.000257741
-4.56807e-05
0.000255237
-4.64559e-05
0.000253184
-4.72975e-05
0.000251586
-4.81904e-05
0.000250444
-4.91205e-05
0.000249766
-5.00729e-05
0.000249546
-5.10275e-05
0.000249789
-5.19561e-05
0.000250499
-5.28427e-05
0.000251673
-5.36552e-05
0.000253306
-5.43612e-05
0.000255399
-5.49304e-05
0.000257945
-5.53268e-05
0.00026094
-5.55125e-05
0.000264376
-5.54492e-05
0.00026824
-5.50951e-05
0.000272524
-5.44083e-05
0.00027721
-5.33464e-05
0.000282282
-5.18655e-05
0.000287719
-4.99241e-05
0.000293489
-4.74795e-05
-4.44907e-05
0.000299565
0.000461243
-4.14044e-05
0.000455476
-4.08512e-05
0.000449462
-4.02961e-05
0.000443151
-3.97706e-05
0.000436642
-3.9269e-05
0.000429906
-3.88208e-05
0.000422973
-3.84043e-05
0.000415873
-3.80341e-05
0.000408617
-3.77099e-05
0.000401228
-3.74205e-05
0.000393735
-3.71721e-05
0.000386152
-3.69603e-05
0.000378509
-3.6785e-05
0.000370832
-3.66443e-05
0.000363147
-3.65394e-05
0.000355485
-3.64687e-05
0.000347877
-3.64348e-05
0.00034035
-3.64386e-05
0.000332937
-3.64835e-05
0.000325669
-3.65737e-05
0.000318576
-3.6714e-05
0.000311688
-3.69102e-05
0.000305035
-3.71683e-05
0.000298644
-3.74949e-05
0.000292542
-3.7896e-05
0.000286757
-3.8378e-05
0.000281314
-3.89463e-05
0.000276236
-3.96047e-05
0.00027154
-4.03565e-05
0.000267245
-4.12018e-05
0.000263364
-4.21411e-05
0.000259915
-4.31702e-05
0.000256906
-4.42867e-05
0.000254348
-4.54803e-05
0.000252253
-4.67448e-05
0.000250624
-4.80654e-05
0.000249474
-4.94312e-05
0.000248804
-5.08227e-05
0.00024861
-5.22163e-05
0.000248911
-5.35913e-05
0.000249708
-5.49279e-05
0.000250989
-5.61888e-05
0.000252766
-5.7344e-05
0.000255033
-5.83616e-05
0.000257789
-5.91998e-05
0.000261033
-5.98239e-05
0.000264753
-6.01894e-05
0.000268943
-6.02533e-05
0.000273589
-5.99695e-05
0.000278676
-5.92923e-05
0.000284187
-5.81751e-05
0.000290097
-5.65693e-05
0.00029638
-5.44318e-05
-5.17145e-05
0.000302998
0.000462067
-3.45512e-05
0.000456276
-3.37481e-05
0.00045021
-3.29802e-05
0.000443848
-3.22661e-05
0.000437281
-3.16123e-05
0.000430464
-3.10474e-05
0.000423483
-3.05364e-05
0.000416319
-3.01245e-05
0.000408996
-2.9769e-05
0.000401551
-2.94993e-05
0.00039399
-2.92975e-05
0.000386336
-2.91657e-05
0.000378622
-2.91007e-05
0.00037088
-2.91012e-05
0.000363139
-2.91651e-05
0.000355427
-2.92916e-05
0.000347768
-2.94795e-05
0.000340187
-2.97292e-05
0.000332719
-3.00418e-05
0.000325391
-3.042e-05
0.000318235
-3.08664e-05
0.000311283
-3.13851e-05
0.000304561
-3.19809e-05
0.000298098
-3.26578e-05
0.000291924
-3.34216e-05
0.000286066
-3.42763e-05
0.000280546
-3.52269e-05
0.000275388
-3.62753e-05
0.000270611
-3.74249e-05
0.000266236
-3.86745e-05
0.000262279
-4.00244e-05
0.000258756
-4.14703e-05
0.00025568
-4.30089e-05
0.000253066
-4.46304e-05
0.000250925
-4.63292e-05
0.000249267
-4.80909e-05
0.000248104
-4.99012e-05
0.000247435
-5.17426e-05
0.00024727
-5.35915e-05
0.000247627
-5.54296e-05
0.000248501
-5.72282e-05
0.000249896
-5.8956e-05
0.000251815
-6.05797e-05
0.000254258
-6.20624e-05
0.000257228
-6.33652e-05
0.000260724
-6.44477e-05
0.000264738
-6.52651e-05
0.000269259
-6.5769e-05
0.000274279
-6.59113e-05
0.000279784
-6.56431e-05
0.000285754
-6.49117e-05
0.000292167
-6.36661e-05
0.000298994
-6.18583e-05
-5.94277e-05
0.000306197
0.000463072
-2.77469e-05
0.000457215
-2.66669e-05
0.00045107
-2.56536e-05
0.000444647
-2.47336e-05
0.000437979
-2.3915e-05
0.000431093
-2.32135e-05
0.000424009
-2.26155e-05
0.000416741
-2.21363e-05
0.000409325
-2.17629e-05
0.000401775
-2.15036e-05
0.000394118
-2.13501e-05
0.000386381
-2.13003e-05
0.000378592
-2.1351e-05
0.000370775
-2.14977e-05
0.000362956
-2.17378e-05
0.00035516
-2.20677e-05
0.000347416
-2.24849e-05
0.000339757
-2.29883e-05
0.000332211
-2.35771e-05
0.000324811
-2.42515e-05
0.000317582
-2.50128e-05
0.000310556
-2.58631e-05
0.000303758
-2.68052e-05
0.000297217
-2.7842e-05
0.000290962
-2.89773e-05
0.000285019
-3.0214e-05
0.000279414
-3.15557e-05
0.000274171
-3.30034e-05
0.000269311
-3.45598e-05
0.000264852
-3.62231e-05
0.000260813
-3.7993e-05
0.000257213
-3.9865e-05
0.000254066
-4.18359e-05
0.00025139
-4.38963e-05
0.000249201
-4.6041e-05
0.000247506
-4.82527e-05
0.000246323
-5.05214e-05
0.000245654
-5.28275e-05
0.000245517
-5.51463e-05
0.000245921
-5.74615e-05
0.000246871
-5.97412e-05
0.000248375
-6.19541e-05
0.000250435
-6.40646e-05
0.000253055
-6.60363e-05
0.000256239
-6.78267e-05
0.000259993
-6.93924e-05
0.000264305
-7.06865e-05
0.00026917
-7.16567e-05
0.000274581
-7.22542e-05
0.00028052
-7.24221e-05
0.000286973
-7.21048e-05
0.000293914
-7.125e-05
0.000301316
-6.97907e-05
-6.76784e-05
0.000309138
0.00046427
-2.09584e-05
0.000458327
-1.95784e-05
0.00045208
-1.82995e-05
0.000445557
-1.71471e-05
0.000438775
-1.6157e-05
0.000431763
-1.52988e-05
0.000424551
-1.46007e-05
0.00041715
-1.4051e-05
0.000409595
-1.36546e-05
0.000401913
-1.34076e-05
0.000394134
-1.33038e-05
0.000386285
-1.33398e-05
0.00037839
-1.35098e-05
0.000370472
-1.38088e-05
0.000362555
-1.42315e-05
0.000354664
-1.47726e-05
0.000346827
-1.54277e-05
0.000339075
-1.61932e-05
0.000331437
-1.70672e-05
0.000323943
-1.80474e-05
0.000316623
-1.91334e-05
0.000309505
-2.0325e-05
0.000302616
-2.16234e-05
0.000295986
-2.30298e-05
0.000289641
-2.45464e-05
0.000283608
-2.61748e-05
0.000277912
-2.7917e-05
0.000272578
-2.97737e-05
0.000267626
-3.17459e-05
0.000263079
-3.38324e-05
0.000258954
-3.60311e-05
0.000255273
-3.8339e-05
0.000252053
-4.07532e-05
0.000249313
-4.32631e-05
0.000247068
-4.58629e-05
0.000245333
-4.85396e-05
0.000244127
-5.12792e-05
0.000243448
-5.40628e-05
0.00024333
-5.68676e-05
0.000243777
-5.96789e-05
0.000244795
-6.24567e-05
0.000246398
-6.51749e-05
0.000248595
-6.77962e-05
0.000251393
-7.02807e-05
0.000254796
-7.25857e-05
0.000258805
-7.4662e-05
0.00026342
-7.64631e-05
0.00026864
-7.79297e-05
0.000274454
-7.90133e-05
0.000280845
-7.96492e-05
0.000287796
-7.97808e-05
0.0002953
-7.93443e-05
0.0003033
-7.82732e-05
-7.64933e-05
0.000311762
0.000465715
-1.4158e-05
0.000459669
-1.24377e-05
0.000453313
-1.0862e-05
0.000446642
-9.4753e-06
0.000439698
-8.27656e-06
0.00043252
-7.26339e-06
0.000425133
-6.4529e-06
0.000417561
-5.83233e-06
0.000409844
-5.40906e-06
0.000402011
-5.17499e-06
0.000394085
-5.12486e-06
0.000386092
-5.25193e-06
0.00037805
-5.54855e-06
0.000369989
-6.00793e-06
0.000361934
-6.6223e-06
0.000353913
-7.38415e-06
0.000345953
-8.28574e-06
0.000338084
-9.32314e-06
0.000330336
-1.04921e-05
0.000322738
-1.17888e-05
0.000315318
-1.32097e-05
0.000308103
-1.47532e-05
0.00030112
-1.64184e-05
0.000294394
-1.82047e-05
0.000287953
-2.01125e-05
0.000281824
-2.21424e-05
0.000276032
-2.42946e-05
0.000270601
-2.65697e-05
0.000265554
-2.89669e-05
0.000260912
-3.14858e-05
0.000256697
-3.41243e-05
0.000252931
-3.68787e-05
0.000249631
-3.97436e-05
0.000246817
-4.27144e-05
0.000244514
-4.57803e-05
0.000242731
-4.89337e-05
0.000241487
-5.21556e-05
0.000240795
-5.54332e-05
0.000240686
-5.87402e-05
0.000241164
-6.20647e-05
0.000242241
-6.53624e-05
0.00024394
-6.86104e-05
0.000246268
-7.17661e-05
0.00024924
-7.47915e-05
0.000252857
-7.76394e-05
0.000257131
-8.02578e-05
0.000262053
-8.25991e-05
0.000267624
-8.45957e-05
0.000273847
-8.62024e-05
0.000280694
-8.73428e-05
0.000288172
-8.79613e-05
0.000296248
-8.79763e-05
0.000304867
-8.73209e-05
-8.58999e-05
0.000313992
0.000467404
-7.29865e-06
0.000461214
-5.20672e-06
0.000454689
-3.31296e-06
0.000447826
-1.66402e-06
0.000440702
-2.42918e-07
0.000433326
9.32996e-07
0.000425728
1.87046e-06
0.000417953
2.55797e-06
0.000410033
3.00922e-06
0.000402007
3.22572e-06
0.000393902
3.21738e-06
0.000385729
2.99297e-06
0.000377516
2.5621e-06
0.000369287
1.93437e-06
0.00036107
1.11948e-06
0.000352894
1.27197e-07
0.000344794
-1.03448e-06
0.000336799
-2.35784e-06
0.000328933
-3.8359e-06
0.000321226
-5.46197e-06
0.000313696
-7.22834e-06
0.00030637
-9.13257e-06
0.000299278
-1.11736e-05
0.000292445
-1.33493e-05
0.0002859
-1.56583e-05
0.000279666
-1.80992e-05
0.00027377
-2.06713e-05
0.000268236
-2.3374e-05
0.000263089
-2.62064e-05
0.00025835
-2.91665e-05
0.00025404
-3.22524e-05
0.000250183
-3.54612e-05
0.000246798
-3.87886e-05
0.000243902
-4.22283e-05
0.000241526
-4.57712e-05
0.000239683
-4.9413e-05
0.000238388
-5.31311e-05
0.000237671
-5.69177e-05
0.000237558
-6.07459e-05
0.000238056
-6.46022e-05
0.000239185
-6.84427e-05
0.000240968
-7.2246e-05
0.000243419
-7.59641e-05
0.000246554
-7.956e-05
0.000250376
-8.29811e-05
0.000254902
-8.6178e-05
0.000260132
-8.9093e-05
0.000266066
-9.16647e-05
0.000272708
-9.383e-05
0.000280031
-9.55224e-05
0.000288046
-9.66557e-05
0.000296686
-9.71576e-05
0.000305913
-9.69215e-05
-9.58733e-05
0.000315681
0.00046936
-3.3067e-07
0.000462974
2.164e-06
0.000456233
4.38852e-06
0.000449154
6.32674e-06
0.000441784
7.98064e-06
0.000434156
9.34066e-06
0.000426319
1.04017e-05
0.00041831
1.11643e-05
0.000410162
1.16385e-05
0.000401904
1.18328e-05
0.000393564
1.17584e-05
0.000385172
1.14268e-05
0.000376755
1.08506e-05
0.000368338
1.00417e-05
0.00035995
9.01261e-06
0.000351621
7.77542e-06
0.000343378
6.34003e-06
0.000335245
4.71973e-06
0.000327242
2.92417e-06
0.000319394
9.61999e-07
0.00031173
-1.16114e-06
0.000304281
-3.44207e-06
0.000297072
-5.87346e-06
0.000290125
-8.44844e-06
0.000283466
-1.1167e-05
0.00027712
-1.4028e-05
0.000271114
-1.70289e-05
0.000265474
-2.01677e-05
0.000260221
-2.3443e-05
0.000255378
-2.68526e-05
0.000250967
-3.03951e-05
0.000247009
-3.40661e-05
0.000243529
-3.7864e-05
0.000240542
-4.17815e-05
0.000238083
-4.5813e-05
0.000236166
-4.99531e-05
0.000234813
-5.41829e-05
0.000234057
-5.84937e-05
0.000233924
-6.28618e-05
0.000234428
-6.72701e-05
0.000235595
-7.16791e-05
0.000237451
-7.60626e-05
0.000240008
-8.03741e-05
0.000243289
-8.45715e-05
0.000247312
-8.86037e-05
0.000252087
-9.24209e-05
0.000257624
-9.59516e-05
0.000263924
-9.91388e-05
0.000270978
-0.000101911
0.00027879
-0.000104185
0.000287304
-0.000105862
0.000296476
-0.000106842
0.000306257
-0.000107026
-0.000106282
0.000316529
0.000471636
6.79269e-06
0.000465013
9.72766e-06
0.000458007
1.23062e-05
0.00045064
1.45568e-05
0.000442979
1.64649e-05
0.000435076
1.80042e-05
0.000426962
1.91902e-05
0.000418674
2.00262e-05
0.00041025
2.05188e-05
0.000401729
2.06825e-05
0.000393141
2.05312e-05
0.00038451
2.00799e-05
0.000375861
1.93443e-05
0.000367221
1.83401e-05
0.000358622
1.70828e-05
0.000350097
1.5588e-05
0.000341664
1.38692e-05
0.000333351
1.19397e-05
0.000325178
9.81228e-06
0.000317178
7.49665e-06
0.00030938
5.00072e-06
0.000301803
2.33469e-06
0.00029447
-4.93286e-07
0.000287404
-3.48284e-06
0.000280629
-6.62442e-06
0.00027417
-9.91361e-06
0.000268051
-1.33503e-05
0.0002623
-1.69332e-05
0.000256938
-2.06595e-05
0.000251988
-2.45261e-05
0.000247469
-2.85315e-05
0.000243405
-3.26715e-05
0.000239816
-3.69466e-05
0.000236727
-4.13492e-05
0.000234172
-4.58789e-05
0.000232168
-5.05271e-05
0.000230742
-5.52829e-05
0.00022993
-6.01327e-05
0.000229758
-6.50597e-05
0.000230252
-7.00424e-05
0.000231437
-7.50469e-05
0.000233344
-8.00385e-05
0.000235992
-8.49758e-05
0.00023941
-8.98119e-05
0.000243628
-9.44994e-05
0.000248652
-9.89765e-05
0.000254483
-0.000103171
0.000261133
-0.000107018
0.000268618
-0.000110437
0.000276843
-0.000113304
0.000285831
-0.000115521
0.000295408
-0.000116934
0.00030556
-0.000117437
-0.000116906
0.000316062
0.000474216
1.41424e-05
0.000467322
1.75215e-05
0.000459983
2.05059e-05
0.000452312
2.30853e-05
0.000444317
2.52392e-05
0.000436055
2.69864e-05
0.000427602
2.82888e-05
0.000418978
2.91941e-05
0.00041023
2.96957e-05
0.000401392
2.98173e-05
0.0003925
2.95735e-05
0.000383589
2.89865e-05
0.000374681
2.80743e-05
0.000365808
2.68576e-05
0.000357
2.53553e-05
0.000348273
2.35854e-05
0.000339644
2.15649e-05
0.000331143
1.93103e-05
0.000322802
1.68365e-05
0.000314652
1.41563e-05
0.00030671
1.12807e-05
0.000298992
8.21917e-06
0.000291519
4.97926e-06
0.00028431
1.56991e-06
0.000277398
-2.00285e-06
0.000270816
-5.73469e-06
0.000264586
-9.61829e-06
0.000258725
-1.36522e-05
0.000253252
-1.78352e-05
0.000248186
-2.21641e-05
0.000243546
-2.6637e-05
0.000239361
-3.12511e-05
0.000235653
-3.60073e-05
0.000232448
-4.09025e-05
0.000229781
-4.59355e-05
0.000227674
-5.11035e-05
0.000226155
-5.63962e-05
0.000225264
-6.1801e-05
0.000225032
-6.73068e-05
0.000225494
-7.28877e-05
0.000226676
-7.85127e-05
0.000228611
-8.41445e-05
0.000231333
-8.97453e-05
0.00023488
-9.52645e-05
0.000239271
-0.000100648
0.000244517
-0.00010583
0.000250638
-0.000110736
0.000257635
-0.000115289
0.000265484
-0.000119369
0.000274078
-0.000122819
0.00028341
-0.000125496
0.000293121
-0.000127184
0.000303354
-0.000127897
-0.000127257
0.000313612
0.000477123
2.17639e-05
0.000469875
2.56416e-05
0.000462189
2.90333e-05
0.000454105
3.19614e-05
0.000445743
3.43949e-05
0.0004371
3.63203e-05
0.000428247
3.77631e-05
0.000419245
3.87196e-05
0.00041013
3.92195e-05
0.000400946
3.9281e-05
0.000391723
3.89278e-05
0.000382494
3.81847e-05
0.000373296
3.70746e-05
0.000364157
3.56257e-05
0.00035509
3.38571e-05
0.000346123
3.17931e-05
0.00033728
2.94528e-05
0.000328586
2.68576e-05
0.000320064
2.40219e-05
0.000311736
2.09628e-05
0.000303621
1.76923e-05
0.000295736
1.4222e-05
0.000288102
1.05625e-05
0.000280752
6.72243e-06
0.000273717
2.70851e-06
0.000267022
-1.47277e-06
0.000260686
-5.81411e-06
0.000254717
-1.03076e-05
0.000249129
-1.49513e-05
0.000243941
-1.97442e-05
0.000239175
-2.4686e-05
0.000234856
-2.97762e-05
0.000231017
-3.50167e-05
0.000227679
-4.04083e-05
0.000224882
-4.59517e-05
0.000222655
-5.16458e-05
0.000221019
-5.74893e-05
0.000220031
-6.34616e-05
0.000219719
-6.95672e-05
0.000220117
-7.57672e-05
0.000221264
-8.20421e-05
0.000223206
-8.83473e-05
0.000225986
-9.46508e-05
0.000229631
-0.000100894
0.000234172
-0.000107019
0.000239629
-0.000112959
0.000246012
-0.000118629
0.000253321
-0.000123908
0.000261465
-0.000128628
0.000270234
-0.000132557
0.000279658
-0.000135537
0.000289041
-0.000137119
0.000298938
-0.000137998
-0.000136654
0.000308222
0.00048035
2.9723e-05
0.000472687
3.41289e-05
0.000464554
3.79822e-05
0.000456039
4.12689e-05
0.000447209
4.39769e-05
0.000438133
4.60931e-05
0.000428864
4.76484e-05
0.00041945
4.86494e-05
0.000409932
4.91298e-05
0.000400357
4.91116e-05
0.000390767
4.86258e-05
0.000381194
4.77032e-05
0.000371671
4.63739e-05
0.000362226
4.46661e-05
0.000352879
4.26105e-05
0.000343655
4.02301e-05
0.000334578
3.75523e-05
0.000325664
3.45954e-05
0.00031695
3.13818e-05
0.000308444
2.79292e-05
0.000300156
2.42493e-05
0.000292116
2.03581e-05
0.000284348
1.62674e-05
0.000276868
1.19877e-05
0.000269692
7.52703e-06
0.000262849
2.89446e-06
0.000256363
-1.90645e-06
0.000250256
-6.86585e-06
0.000244538
-1.1978e-05
0.000239223
-1.72405e-05
0.000234329
-2.2654e-05
0.000229879
-2.82211e-05
0.000225901
-3.39464e-05
0.000222426
-3.9835e-05
0.000219478
-4.58904e-05
0.000217108
-5.21166e-05
0.000215335
-5.85165e-05
0.000214212
-6.50727e-05
0.000213781
-7.17903e-05
0.000214084
-7.86378e-05
0.000215172
-8.55874e-05
0.000217087
-9.2605e-05
0.00021988
-9.96491e-05
0.000223585
-0.000106663
0.000228248
-0.000113584
0.000233893
-0.000120337
0.000240516
-0.000126801
0.000248025
-0.000132776
0.000256296
-0.000138057
0.000264922
-0.000142157
0.000274154
-0.000145422
0.000282786
-0.000146357
0.000291845
-0.000147504
-0.000145124
0.00030029
0.00048375
3.808e-05
0.000475615
4.30577e-05
0.000467011
4.73883e-05
0.000458008
5.105e-05
0.000448702
5.40289e-05
0.000439122
5.63403e-05
0.000429355
5.79962e-05
0.000419462
5.90273e-05
0.000409497
5.94659e-05
0.000399498
5.93442e-05
0.000389512
5.86997e-05
0.000379575
5.75707e-05
0.000369712
5.59921e-05
0.000359958
5.4002e-05
0.00035033
5.16324e-05
0.000340847
4.89139e-05
0.000331527
4.58756e-05
0.000322388
4.2541e-05
0.000313456
3.89321e-05
0.000304746
3.50698e-05
0.000296273
3.09679e-05
0.000288061
2.66444e-05
0.000280136
2.21113e-05
0.000272521
1.73808e-05
0.000265225
1.24634e-05
0.000258263
7.36948e-06
0.000251643
2.11047e-06
0.00024539
-3.31513e-06
0.000239524
-8.89376e-06
0.000234063
-1.46259e-05
0.000229026
-2.05118e-05
0.000224432
-2.6554e-05
0.000220305
-3.27608e-05
0.000216666
-3.91416e-05
0.000213553
-4.57064e-05
0.000211007
-5.24668e-05
0.00020906
-5.94261e-05
0.000207766
-6.65787e-05
0.000207182
-7.3926e-05
0.00020735
-8.14425e-05
0.000208326
-8.90993e-05
0.00021018
-9.68669e-05
0.000212953
-0.000104695
0.000216699
-0.000112534
0.000221464
-0.000120309
0.000227244
-0.000127909
0.00023401
-0.000135178
0.000241541
-0.000141717
0.000249613
-0.000147335
0.000257704
-0.000151207
0.000265967
-0.000154602
0.000273101
-0.00015421
0.000281617
-0.000156628
-0.000154836
0.000290984
0.000486848
4.68486e-05
0.000478258
5.24256e-05
0.000469208
5.72569e-05
0.000459685
6.13122e-05
0.000449837
6.4574e-05
0.000439753
6.70726e-05
0.0004295
6.8827e-05
0.000419141
6.98707e-05
0.000408732
7.02484e-05
0.000398318
6.99965e-05
0.00038794
6.91689e-05
0.00037763
6.78017e-05
0.000367423
6.59479e-05
0.00035734
6.3645e-05
0.000347402
6.09359e-05
0.000337636
5.78543e-05
0.00032806
5.4434e-05
0.000318686
5.07015e-05
0.000309544
4.66845e-05
0.000300629
4.23988e-05
0.000291967
3.78622e-05
0.000283593
3.30954e-05
0.000275516
2.81103e-05
0.000267743
2.29194e-05
0.000260293
1.75352e-05
0.000253191
1.19716e-05
0.000246455
6.23976e-06
0.000240089
3.52433e-07
0.000234103
-5.68842e-06
0.000228505
-1.18819e-05
0.00022331
-1.82316e-05
0.000218542
-2.47401e-05
0.000214229
-3.14202e-05
0.000210398
-3.82839e-05
0.000207085
-4.53543e-05
0.000204331
-5.26413e-05
0.000202173
-6.01669e-05
0.000200676
-6.79196e-05
0.000199888
-7.59154e-05
0.000199876
-8.412e-05
0.000200713
-9.25197e-05
0.000202449
-0.000101069
0.000205157
-0.00010973
0.000208892
-0.000118449
0.000213684
-0.000127122
0.000219507
-0.00013559
0.000226238
-0.000143568
0.000233513
-0.000150406
0.000240849
-0.000156027
0.000247699
-0.00015903
0.000254777
-0.000162722
0.000261109
-0.0001617
0.000269516
-0.00016639
-0.000179345
0.000294592
0.000488893
5.59977e-05
0.000479907
6.2144e-05
0.000470404
6.75549e-05
0.000460501
7.19613e-05
0.000450226
7.55475e-05
0.000439711
7.82353e-05
0.000429027
8.00827e-05
0.000418243
8.11369e-05
0.000407414
8.14337e-05
0.000396605
8.10394e-05
0.000385846
7.99992e-05
0.000375172
7.83782e-05
0.000364629
7.62176e-05
0.000354234
7.35857e-05
0.000344017
7.05093e-05
0.000333978
6.70531e-05
0.000324146
6.32253e-05
0.000314555
5.90856e-05
0.000305187
5.46421e-05
0.000296068
4.99209e-05
0.000287226
4.49403e-05
0.000278679
3.97213e-05
0.000270434
3.42753e-05
0.000262497
2.86168e-05
0.00025489
2.27609e-05
0.000247642
1.6724e-05
0.000240766
1.05201e-05
0.000234268
4.16277e-06
0.000228158
-2.35175e-06
0.000222431
-9.00101e-06
0.000217091
-1.57992e-05
0.000212161
-2.27576e-05
0.00020766
-2.98934e-05
0.000203622
-3.72242e-05
0.000200078
-4.47841e-05
0.000197078
-5.25889e-05
0.000194667
-6.06731e-05
0.000192905
-6.90311e-05
0.000191866
-7.76805e-05
0.000191616
-8.6598e-05
0.00019223
-9.57596e-05
0.000193788
-0.000105133
0.000196372
-0.000114677
0.000200023
-0.000124318
0.00020475
-0.000133926
0.000210473
-0.000143169
0.000216793
-0.000151623
0.000223195
-0.000158287
0.000229284
-0.000163585
0.000234907
-0.000165746
0.000241867
-0.000171604
0.000249658
-0.000172355
0.000288115
-0.000203883
-0.000238432
0.000337184
0.00048846
6.50647e-05
0.000479168
7.20724e-05
0.000469439
7.79471e-05
0.000459218
8.28809e-05
0.000448729
8.67213e-05
0.000437994
8.96182e-05
0.000427074
9.15749e-05
0.000416041
9.2654e-05
0.000404974
9.28742e-05
0.000393904
9.23363e-05
0.000382885
9.109e-05
0.000371947
8.92082e-05
0.000361142
8.67443e-05
0.000350494
8.37657e-05
0.000340034
8.03168e-05
0.00032977
7.64675e-05
0.000319707
7.22383e-05
0.000309893
6.76713e-05
0.000300326
6.27977e-05
0.000291011
5.76356e-05
0.000281981
5.22045e-05
0.000273252
4.65282e-05
0.000264836
4.06143e-05
0.00025675
3.44812e-05
0.000249013
2.81469e-05
0.000241642
2.16304e-05
0.000234643
1.49487e-05
0.000228025
8.11646e-06
0.000221772
1.14977e-06
0.0002159
-5.95578e-06
0.000210405
-1.31941e-05
0.000205299
-2.05821e-05
0.000200597
-2.8148e-05
0.00019633
-3.59191e-05
0.000192529
-4.39399e-05
0.000189237
-5.22411e-05
0.000186511
-6.08623e-05
0.000184418
-6.98196e-05
0.000183042
-7.91269e-05
0.000182465
-8.87679e-05
0.000182784
-9.8729e-05
0.000184094
-0.000108971
0.000186464
-0.000119446
0.000189951
-0.000130065
0.000194492
-0.000140544
0.000199718
-0.000150283
0.00020496
-0.000158685
0.000209648
-0.000164633
0.000214345
-0.000170085
0.000221362
-0.000174943
0.000236937
-0.000191366
0.000291169
-0.000233523
0.000340845
-0.000279477
-0.000285129
0.000376463
0.000484358
7.42516e-05
0.000474779
8.17952e-05
0.000464908
8.82124e-05
0.000454795
9.34776e-05
0.000444344
9.7692e-05
0.000433637
0.00010085
0.000422774
0.000102956
0.000411754
0.000104102
0.000400656
0.000104345
0.000389584
0.000103623
0.000378525
0.000102241
0.000367541
0.000100087
0.000356635
9.73605e-05
0.000345856
9.40498e-05
0.000335245
9.02538e-05
0.000324834
8.60207e-05
0.000314625
8.14005e-05
0.000304643
7.64247e-05
0.000294901
7.11251e-05
0.000285409
6.55296e-05
0.000276228
5.96449e-05
0.000267338
5.35151e-05
0.000258761
4.71342e-05
0.000250519
4.0524e-05
0.000242637
3.37058e-05
0.000235134
2.67027e-05
0.000228014
1.95373e-05
0.000221278
1.22315e-05
0.000214919
4.80499e-06
0.000208928
-2.74176e-06
0.000203286
-1.03957e-05
0.000198002
-1.81849e-05
0.00019308
-2.61419e-05
0.00018854
-3.4309e-05
0.000184415
-4.27456e-05
0.000180747
-5.15024e-05
0.000177613
-6.06334e-05
0.000175099
-7.01741e-05
0.000173287
-8.01362e-05
0.000172299
-9.05204e-05
0.00017224
-0.000101314
0.000173202
-0.000112477
0.000175295
-0.000123955
0.000178529
-0.000135546
0.000182559
-0.000146683
0.000186759
-0.000156391
0.000190075
-0.000164059
0.000193788
-0.000170792
0.000199119
-0.000177845
0.000223301
-0.000206339
0.000269689
-0.000251857
0.000314362
-0.000288998
0.000337179
-0.000299485
-0.000306004
0.000361332
0.000477498
8.38115e-05
0.00046628
9.1706e-05
0.00045573
9.80076e-05
0.000445307
0.000103664
0.000435054
0.000108124
0.000424865
0.000111428
0.000414532
0.000113721
0.00040415
0.000114903
0.000393497
0.000115222
0.000382776
0.000114616
0.00037203
0.000113005
0.000361246
0.000110827
0.00035053
0.000107771
0.000339871
0.000104275
0.000329327
0.000100125
0.000318905
9.5595e-05
0.000308663
9.05787e-05
0.000298601
8.52676e-05
0.000288781
7.95289e-05
0.000279182
7.35679e-05
0.000269852
6.72318e-05
0.000260841
6.06563e-05
0.000252135
5.38224e-05
0.000243768
4.67396e-05
0.000235761
3.94372e-05
0.000228132
3.19431e-05
0.000220892
2.42899e-05
0.000214042
1.65077e-05
0.000207575
8.62411e-06
0.000201454
6.63618e-07
0.000195665
-7.38521e-06
0.000190185
-1.55336e-05
0.000185004
-2.38247e-05
0.000180139
-3.23234e-05
0.000175622
-4.11108e-05
0.000171505
-5.02637e-05
0.000167874
-5.98607e-05
0.000164817
-6.99553e-05
0.000162449
-8.0564e-05
0.000160917
-9.17124e-05
0.000160352
-0.000103386
0.000160901
-0.000115554
0.00016264
-0.0001281
0.000165401
-0.000140557
0.000168459
-0.000151876
0.0001708
-0.00016084
0.000173186
-0.000169309
0.00017522
-0.000177882
0.000209988
-0.000213217
0.000244891
-0.000268579
0.000277949
-0.000298019
0.000298102
-0.00031436
0.000316676
-0.000322281
-0.00032412
0.000333295
0.000477816
0.000100392
0.000458022
0.000105388
0.000443856
0.000108938
0.000432061
0.00011362
0.000421584
0.000117458
0.000411596
0.000120806
0.000401874
0.000123284
0.000392175
0.000124692
0.000382607
0.000125003
0.000372709
0.00012454
0.000362746
0.000123058
0.000352571
0.000120786
0.000342391
0.00011774
0.000332128
0.000113986
0.000321905
0.000109702
0.000311706
0.000104924
0.000301603
9.96686e-05
0.000291587
9.40203e-05
0.000281773
8.79963e-05
0.000272155
8.16177e-05
0.000262716
7.49653e-05
0.000253613
6.79319e-05
0.000244809
6.06636e-05
0.000236338
5.3116e-05
0.000228228
4.53303e-05
0.000220506
3.73468e-05
0.00021318
2.9204e-05
0.000206239
2.09467e-05
0.000199664
1.26188e-05
0.000193425
4.25578e-06
0.000187478
-4.14229e-06
0.00018178
-1.2583e-05
0.000176299
-2.11274e-05
0.000171039
-2.98644e-05
0.000166025
-3.89076e-05
0.000161318
-4.83707e-05
0.000157028
-5.83678e-05
0.000153267
-6.89738e-05
0.000150187
-8.02329e-05
0.000147984
-9.21852e-05
0.000146842
-0.00010484
0.000146917
-0.000118135
0.000148199
-0.000131752
0.000150127
-0.000144739
0.00015148
-0.000155536
0.000152581
-0.00016499
0.000154838
-0.00017827
0.000192333
-0.000219533
0.000212697
-0.000283045
0.000235064
-0.00030466
0.000253955
-0.000321904
0.000269401
-0.000331521
0.000285069
-0.000337948
-0.000341504
0.000303199
0.00051659
0.000116724
0.000475878
0.000125562
0.000442989
0.000126894
0.000420177
0.000128786
0.000405531
0.000128473
0.000394454
0.000130185
0.00038494
0.00013186
0.000376116
0.000133113
0.00036745
0.000133504
0.000358805
0.000133169
0.000349945
0.000131841
0.000340949
0.000129606
0.000331619
0.000126694
0.000322126
0.000123008
0.000312525
0.000118642
0.000302821
0.000113782
0.000293061
0.000108381
0.000283329
0.000102562
0.000273633
9.63117e-05
0.000264108
8.96652e-05
0.000254745
8.26656e-05
0.000245581
7.5324e-05
0.000236705
6.76321e-05
0.000228132
5.96515e-05
0.000219922
5.13938e-05
0.000212102
4.29243e-05
0.000204685
3.42919e-05
0.000197658
2.55628e-05
0.00019099
1.68014e-05
0.000184633
8.06246e-06
0.000178496
-6.14039e-07
0.000172518
-9.25999e-06
0.000166644
-1.79444e-05
0.000160863
-2.67873e-05
0.000155197
-3.59545e-05
0.000149731
-4.56166e-05
0.000144598
-5.59417e-05
0.000139963
-6.70345e-05
0.000136044
-7.89793e-05
0.000133095
-9.18417e-05
0.000131365
-0.000105648
0.000131
-0.000120188
0.000131576
-0.000134706
0.000131959
-0.000147519
0.000131584
-0.000158369
0.000134082
-0.000175061
0.00016226
-0.000220826
0.00017713
-0.00028335
0.00019083
-0.000305664
0.000206283
-0.000324015
0.000219452
-0.000336693
0.000234757
-0.00034765
0.000252496
-0.000355256
-0.000358102
0.000271414
0.000530285
0.000123522
0.000505486
0.000136497
0.000467895
0.000146391
0.000427604
0.000148652
0.000397888
0.000144708
0.000378299
0.000142916
0.000366066
0.00014094
0.000356931
0.000140482
0.000348938
0.000140735
0.000341394
0.00014025
0.000333805
0.000139151
0.00032597
0.000137169
0.000317946
0.000134374
0.000309492
0.0001309
0.000300818
0.000126693
0.000291847
0.000121917
0.000282721
0.000116531
0.000273423
0.000110698
0.000264078
0.000104323
0.000254752
9.75655e-05
0.000245493
9.03157e-05
0.000236413
8.27005e-05
0.000227541
7.46683e-05
0.000218915
6.63283e-05
0.000210612
5.76264e-05
0.00020267
4.87016e-05
0.000195118
3.96005e-05
0.000187948
3.04181e-05
0.000181124
2.12454e-05
0.000174566
1.21769e-05
0.000168176
3.2791e-06
0.000161836
-5.46124e-06
0.000155439
-1.41289e-05
0.000148959
-2.2915e-05
0.000142444
-3.20542e-05
0.000136034
-4.181e-05
0.000129907
-5.24044e-05
0.000124297
-6.40045e-05
0.000119506
-7.67418e-05
0.000115867
-9.07115e-05
0.000113696
-0.000105906
0.00011283
-0.000121743
0.000112195
-0.000136483
0.000110477
-0.000149206
0.000110803
-0.00016664
0.000126939
-0.000214102
0.00013947
-0.000271257
0.000146532
-0.000299522
0.000156346
-0.000320159
0.000167619
-0.000337381
0.000182325
-0.000352501
0.0001991
-0.000363864
0.000216841
-0.000369751
-0.000368457
0.000234502
0.000490762
0.000130185
0.000488654
0.000145284
0.000470483
0.000154085
0.000441221
0.000160778
0.000403944
0.000163395
0.000372065
0.000160319
0.000350717
0.000153207
0.000337484
0.000149671
0.00032848
0.000147564
0.000321265
0.000146406
0.000314691
0.000145069
0.00030817
0.000143269