/*--------------------------------*- C++ -*----------------------------------*\
  =========                 |
  \\      /  F ield         | OpenFOAM: The Open Source CFD Toolbox
   \\    /   O peration     | Website:  https://openfoam.org
    \\  /    A nd           | Version:  10
     \\/     M anipulation  |
\*---------------------------------------------------------------------------*/
FoamFile
{
    format      ascii;
    class       volScalarField;
    location    "0.852259";
    object      rho;
}
// * * * * * * * * * * * * * * * * * * * * * * * * * * * * * * * * * * * * * //

dimensions      [1 -3 0 0 0 0 0];

internalField   nonuniform List<scalar> 
15984
(
0.969348
0.969486
0.969718
0.970302
0.970559
0.971392
0.971955
0.972812
0.973698
0.974757
0.975875
0.977161
0.978511
0.979995
0.981496
0.983086
0.984665
0.986291
0.987924
0.989573
0.991231
0.992891
0.994518
0.996132
0.997677
0.999197
1.00064
1.00202
1.00334
1.00456
1.00575
1.00682
1.00786
1.00882
1.00972
1.01057
1.01138
1.0121
1.01281
1.01345
1.01408
1.01466
1.01526
1.01579
1.01634
1.01686
1.01736
1.01787
1.01835
1.01884
1.01931
1.01979
1.02024
1.02069
0.970087
0.970195
0.970399
0.970747
0.971223
0.971763
0.972383
0.973234
0.973983
0.975037
0.976052
0.97724
0.978529
0.979882
0.981315
0.982777
0.984295
0.985839
0.987419
0.989023
0.990645
0.992281
0.993895
0.9955
0.997053
0.998581
1.00004
1.00145
1.0028
1.00407
1.00531
1.00642
1.00753
1.00852
1.00948
1.01038
1.01123
1.01201
1.01278
1.01343
1.0141
1.01475
1.01533
1.01589
1.01644
1.01695
1.01746
1.01793
1.01838
1.01884
1.01925
1.01969
1.02007
1.02045
0.970752
0.970833
0.970987
0.971372
0.971655
0.972301
0.972823
0.973537
0.974361
0.975241
0.976253
0.97734
0.97851
0.979756
0.98108
0.982462
0.983911
0.985418
0.986954
0.988534
0.990134
0.991743
0.993348
0.994945
0.996496
0.998023
0.999503
1.00094
1.00233
1.00365
1.00492
1.00609
1.00725
1.00829
1.00931
1.01024
1.01113
1.01198
1.01277
1.01346
1.0142
1.01486
1.01546
1.01606
1.01658
1.01712
1.0176
1.01806
1.01851
1.0189
1.01928
1.01962
1.01994
1.02021
0.971335
0.971368
0.971487
0.97178
0.972038
0.97262
0.973015
0.973818
0.974498
0.975365
0.976329
0.977331
0.978419
0.979567
0.980829
0.982154
0.983576
0.985027
0.986532
0.988075
0.989634
0.99122
0.99281
0.994392
0.995957
0.997499
0.999017
1.00048
1.00191
1.00327
1.00458
1.00581
1.00699
1.00809
1.00916
1.01015
1.01109
1.01201
1.01279
1.01357
1.01434
1.01502
1.01567
1.01626
1.0168
1.01731
1.01779
1.01824
1.01861
1.01897
1.01928
1.01955
1.01978
1.01998
0.971741
0.971753
0.971803
0.972028
0.972327
0.972749
0.973278
0.973881
0.974591
0.975396
0.97627
0.977235
0.978283
0.97943
0.980635
0.981929
0.983256
0.984664
0.986113
0.987622
0.989173
0.990741
0.992338
0.99392
0.995502
0.997057
0.998599
1.00009
1.00156
1.00296
1.00432
1.00559
1.00683
1.00797
1.0091
1.01013
1.01113
1.01208
1.01291
1.01376
1.01453
1.01526
1.01592
1.01652
1.01705
1.01756
1.01804
1.01843
1.01879
1.01909
1.01933
1.01953
1.01968
1.01976
0.971983
0.971941
0.972
0.972135
0.972503
0.972836
0.973358
0.97392
0.974579
0.97531
0.97615
0.977076
0.978116
0.979224
0.980423
0.981677
0.982998
0.984366
0.985799
0.987272
0.988792
0.990352
0.991929
0.993516
0.995109
0.996685
0.998254
0.999776
1.00128
1.00272
1.00412
1.00544
1.00674
1.00793
1.00912
1.01019
1.01126
1.01224
1.01312
1.01402
1.01482
1.01556
1.01623
1.01684
1.0174
1.01788
1.01831
1.01868
1.01901
1.01926
1.01942
1.01954
1.0196
1.01953
0.972063
0.972066
0.972091
0.972347
0.972565
0.972934
0.973383
0.973922
0.974526
0.975265
0.976079
0.977013
0.978003
0.979076
0.980216
0.981417
0.982691
0.98402
0.985429
0.986882
0.988408
0.989968
0.991565
0.993172
0.994783
0.996388
0.997978
0.999546
1.00108
1.00257
1.004
1.00538
1.00672
1.00798
1.00919
1.01036
1.01145
1.01248
1.01339
1.01436
1.01515
1.01591
1.01659
1.01722
1.01778
1.01825
1.0187
1.01898
1.01926
1.01942
1.01949
1.01951
1.01949
1.01931
0.971988
0.971977
0.972029
0.97227
0.972456
0.972899
0.973298
0.973806
0.97441
0.975092
0.975932
0.976837
0.977814
0.978862
0.979969
0.981147
0.982385
0.983723
0.985123
0.986602
0.988134
0.989702
0.991303
0.992928
0.994555
0.996192
0.997804
0.999404
1.00097
1.00251
1.00399
1.00543
1.00681
1.00814
1.00937
1.01062
1.01171
1.01278
1.01373
1.01473
1.01554
1.01634
1.01702
1.01765
1.01819
1.01863
1.01902
1.01927
1.0195
1.01959
1.01958
1.01955
1.01934
1.01905
0.97173
0.971728
0.971807
0.971979
0.97225
0.9726
0.973028
0.973558
0.974184
0.974894
0.975689
0.976566
0.977525
0.978561
0.979672
0.980867
0.982143
0.983504
0.98493
0.98641
0.987948
0.989519
0.991135
0.992773
0.994422
0.996075
0.997721
0.999351
1.00096
1.00254
1.00408
1.00556
1.00699
1.00836
1.00963
1.01093
1.01204
1.01316
1.01415
1.01517
1.01599
1.01683
1.0175
1.01812
1.01861
1.01906
1.01936
1.01962
1.01974
1.01975
1.0197
1.01949
1.01915
1.01872
0.971342
0.971346
0.971411
0.971708
0.971912
0.972325
0.972783
0.973345
0.973972
0.974688
0.975498
0.976394
0.977351
0.978376
0.979456
0.980634
0.981906
0.983253
0.984681
0.98615
0.987714
0.989313
0.990985
0.992667
0.994354
0.996038
0.997717
0.999381
1.00105
1.00267
1.00427
1.00578
1.00728
1.00865
1.01
1.01129
1.01248
1.01361
1.01466
1.01566
1.01655
1.01734
1.01804
1.0186
1.01909
1.01954
1.0198
1.01996
1.02003
1.01998
1.01972
1.01946
1.01887
1.01845
0.97075
0.970821
0.970967
0.971159
0.97159
0.971904
0.972392
0.97297
0.973603
0.974339
0.975121
0.976028
0.976992
0.978046
0.979183
0.980431
0.981721
0.983064
0.984481
0.985991
0.987611
0.989285
0.990991
0.992683
0.994375
0.996081
0.997809
0.999547
1.00128
1.00295
1.00459
1.00612
1.00765
1.00905
1.01045
1.01176
1.01301
1.01414
1.01523
1.01625
1.01716
1.01795
1.01861
1.01917
1.01968
1.02003
1.02025
1.02035
1.02031
1.02019
1.01972
1.0196
1.0185
1.01896
0.969975
0.970037
0.970217
0.970623
0.970849
0.971488
0.971883
0.972527
0.973166
0.973953
0.974761
0.975687
0.976639
0.977758
0.978907
0.980168
0.98147
0.982885
0.984357
0.985919
0.98754
0.989213
0.990893
0.992587
0.994332
0.996125
0.997965
0.999801
1.0016
1.00333
1.00499
1.00657
1.00809
1.00956
1.01093
1.01232
1.01359
1.01474
1.01589
1.01692
1.01781
1.01856
1.01925
1.01983
1.02026
1.02057
1.02069
1.02076
1.0206
1.02045
1.01971
1.01989
1.01861
1.02014
0.968929
0.969142
0.96938
0.969717
0.97017
0.970671
0.971314
0.971966
0.972745
0.973509
0.974402
0.975325
0.976359
0.977448
0.978658
0.979903
0.981274
0.982698
0.984214
0.985864
0.987527
0.989232
0.990987
0.992794
0.994589
0.996395
0.99824
1.00009
1.00194
1.00372
1.00544
1.00707
1.00865
1.01015
1.01162
1.01294
1.01436
1.01544
1.01667
1.01762
1.01856
1.01928
1.01995
1.02045
1.02079
1.02106
1.02117
1.02113
1.02094
1.02079
1.01984
1.02117
1.02321
1.02238
0.967732
0.967995
0.968354
0.968731
0.969329
0.969918
0.970538
0.971266
0.97204
0.972919
0.973807
0.974846
0.975901
0.977084
0.978341
0.979691
0.981112
0.982606
0.984165
0.985826
0.98752
0.989277
0.991068
0.992943
0.99486
0.996779
0.998678
1.00054
1.00238
1.00418
1.00593
1.00762
1.00926
1.01085
1.0123
1.01376
1.01509
1.01629
1.01739
1.01846
1.01924
1.02
1.02061
1.0211
1.02145
1.02169
1.02171
1.0216
1.02137
1.02116
1.02338
1.02203
1.03423
1.03048
0.966254
0.966526
0.967075
0.96756
0.968129
0.968737
0.969514
0.970283
0.971225
0.972152
0.973234
0.9743
0.975511
0.976722
0.97807
0.979413
0.980935
0.982455
0.984119
0.985862
0.987581
0.989424
0.991342
0.993288
0.995218
0.99715
0.999096
1.00104
1.00299
1.00487
1.00668
1.00836
1.01001
1.01157
1.01309
1.01454
1.01594
1.0171
1.0183
1.01922
1.02011
1.02083
1.0214
1.02189
1.02219
1.02228
1.02231
1.02206
1.0227
1.02191
1.03042
1.02903
1.06546
1.06417
0.964593
0.96536
0.965398
0.96624
0.966811
0.96757
0.968381
0.969328
0.970295
0.971364
0.97251
0.973695
0.974933
0.97629
0.977666
0.979213
0.98067
0.982384
0.984104
0.98588
0.987712
0.989658
0.991655
0.993658
0.99562
0.997585
0.999601
1.00161
1.00362
1.00554
1.00741
1.00914
1.01086
1.01241
1.01403
1.01541
1.0169
1.01804
1.01921
1.02018
1.02101
1.02165
1.02223
1.02272
1.02289
1.02297
1.02315
1.02273
1.02548
1.02465
1.05147
1.0543
1.14108
1.37228
0.965193
0.963724
0.964623
0.964543
0.965147
0.96602
0.966917
0.967985
0.969081
0.970384
0.971576
0.972987
0.974248
0.975796
0.977201
0.978909
0.980468
0.9822
0.984042
0.985916
0.987831
0.989835
0.991893
0.99397
0.996045
0.998145
1.00025
1.00232
1.00438
1.00634
1.00823
1.00998
1.01173
1.01334
1.01501
1.01648
1.01794
1.01914
1.02023
1.02116
1.02189
1.02257
1.02314
1.02346
1.02377
1.02379
1.02443
1.02407
1.03322
1.03764
1.11202
1.17389
1.64555
1.79802
0.969268
0.967564
0.965436
0.965161
0.965001
0.965313
0.96578
0.966896
0.967736
0.969191
0.970516
0.972068
0.973597
0.975139
0.976745
0.978412
0.980258
0.982022
0.984036
0.985881
0.98799
0.990127
0.99227
0.994417
0.996554
0.99872
1.00091
1.00305
1.00519
1.00723
1.00922
1.01102
1.01285
1.01449
1.01616
1.01763
1.01898
1.02018
1.02126
1.0221
1.02297
1.02361
1.02408
1.02453
1.02477
1.02469
1.02705
1.03048
1.05785
1.11443
1.31663
1.74465
1.82507
1.93794
0.993459
0.981909
0.974941
0.969633
0.966615
0.965292
0.965479
0.965461
0.967446
0.967524
0.969703
0.97065
0.972632
0.974189
0.976127
0.977827
0.979812
0.981765
0.983777
0.986043
0.988059
0.990373
0.992682
0.994972
0.997257
0.999501
1.00173
1.00391
1.00607
1.00818
1.01022
1.01212
1.01392
1.01558
1.01724
1.01873
1.02014
1.02142
1.0224
1.02333
1.02407
1.02469
1.02524
1.02554
1.02584
1.02686
1.03381
1.07027
1.11876
1.49405
1.77486
1.89523
1.98799
2.00557
1.07272
1.0301
1.00359
0.987838
0.978149
0.971786
0.968021
0.966693
0.965835
0.968198
0.967764
0.970568
0.971016
0.973932
0.974866
0.977766
0.978888
0.981901
0.983131
0.986241
0.987989
0.990436
0.992934
0.995404
0.997839
1.00022
1.00261
1.00491
1.00711
1.00924
1.01129
1.01323
1.0151
1.01682
1.01852
1.02002
1.02145
1.02273
1.02367
1.02454
1.02531
1.02595
1.02635
1.02674
1.02817
1.03355
1.07871
1.14156
1.63926
1.81068
1.95535
2.01198
2.01633
2.01167
1.28804
1.19059
1.09878
1.03794
1.00456
0.986464
0.97667
0.970885
0.968254
0.967127
0.967991
0.968762
0.971319
0.972072
0.974826
0.97622
0.9791
0.980679
0.983682
0.985311
0.988563
0.990697
0.993325
0.99589
0.998418
1.00092
1.00341
1.00582
1.00814
1.01034
1.01244
1.01443
1.0163
1.01803
1.01977
1.02129
1.02277
1.02398
1.02492
1.02579
1.02659
1.02719
1.02773
1.02879
1.03479
1.07566
1.18831
1.68451
1.84795
1.99919
2.02614
2.02453
2.01495
1.99672
1.40421
1.38345
1.28637
1.17788
1.08455
1.02709
0.996541
0.982561
0.973213
0.970123
0.968655
0.968863
0.969526
0.972145
0.973078
0.976073
0.977703
0.98073
0.982713
0.985647
0.988073
0.99088
0.993769
0.996443
0.999174
1.00174
1.0043
1.00679
1.00918
1.01145
1.01355
1.01559
1.01748
1.01918
1.02078
1.02227
1.02382
1.0251
1.0261
1.02709
1.02794
1.02855
1.02955
1.03559
1.07191
1.21637
1.67661
1.90718
2.02258
2.03408
2.03075
2.01845
1.99407
1.95101
1.41502
1.42543
1.39175
1.34381
1.22912
1.12475
1.05241
1.0075
0.988023
0.976569
0.97182
0.969901
0.970037
0.97079
0.972671
0.974781
0.977223
0.97981
0.982365
0.985261
0.988014
0.991078
0.993487
0.99723
0.99966
1.00252
1.0051
1.00765
1.01013
1.01245
1.01467
1.01681
1.01866
1.02044
1.02206
1.02364
1.02509
1.02626
1.02732
1.02845
1.02919
1.03031
1.03545
1.06952
1.22212
1.68941
1.95216
2.0335
2.04147
2.03716
2.02187
1.99099
1.93804
1.85699
1.40786
1.42481
1.41466
1.42284
1.35412
1.2491
1.1423
1.07043
1.02318
0.996917
0.982264
0.975243
0.972109
0.971656
0.972384
0.974028
0.97618
0.979316
0.981228
0.985194
0.987206
0.991257
0.993921
0.996683
1.00042
1.00296
1.00596
1.00869
1.01137
1.01386
1.01616
1.01837
1.02031
1.02199
1.02324
1.02468
1.02602
1.02732
1.02868
1.02973
1.03084
1.03532
1.06615
1.22071
1.69859
1.97784
2.04378
2.04952
2.04362
2.02491
1.98881
1.92783
1.83365
1.70154
1.37628
1.42277
1.43115
1.43801
1.40815
1.3597
1.22914
1.12454
1.0545
1.01387
0.991831
0.979576
0.974439
0.971864
0.972021
0.973324
0.975238
0.978155
0.980721
0.984083
0.987167
0.99049
0.994044
0.997371
1.0004
1.00426
1.00697
1.01067
1.01328
1.01605
1.01838
1.02062
1.02235
1.02368
1.0248
1.02613
1.02736
1.02875
1.03002
1.03122
1.03444
1.06427
1.21404
1.70713
1.9977
2.05387
2.05701
2.04972
2.02834
1.98997
1.92461
1.81927
1.66935
1.49015
1.35099
1.42033
1.44376
1.45509
1.44301
1.43778
1.33183
1.22113
1.12991
1.06283
1.02129
0.995871
0.982534
0.975909
0.973499
0.973735
0.974692
0.977495
0.98004
0.983415
0.986733
0.990345
0.994162
0.997979
1.00151
1.00545
1.00953
1.01323
1.01725
1.02059
1.02342
1.02459
1.0254
1.02582
1.02634
1.02726
1.02854
1.03
1.03136
1.03399
1.05825
1.22118
1.70317
2.01427
2.061
2.0634
2.05538
2.03352
1.99569
1.92794
1.81558
1.65467
1.46399
1.26706
1.36976
1.43661
1.47109
1.48242
1.47742
1.4519
1.35955
1.24695
1.15575
1.0881
1.0423
1.01207
0.99429
0.98344
0.977909
0.975915
0.975642
0.976751
0.979665
0.982893
0.986724
0.990632
0.99503
0.999475
1.00442
1.01061
1.016
1.02307
1.02898
1.03381
1.03505
1.03175
1.0293
1.02782
1.02761
1.02822
1.02965
1.03119
1.03362
1.05498
1.20958
1.72157
2.01545
2.06602
2.06826
2.06027
2.04067
2.00567
1.9371
1.8247
1.66138
1.46193
1.27292
1.13898
1.45137
1.486
1.49557
1.49446
1.47919
1.43036
1.33608
1.23086
1.14538
1.08216
1.03874
1.00995
0.993113
0.982965
0.977271
0.975379
0.975236
0.977435
0.979931
0.984026
0.987866
0.993659
0.998769
1.00718
1.01787
1.03225
1.04605
1.05947
1.07203
1.07605
1.06236
1.04371
1.03379
1.02941
1.02821
1.02893
1.03074
1.03349
1.0545
1.20913
1.71209
2.01919
2.06865
2.07231
2.06631
2.04992
2.01761
1.95247
1.84744
1.68804
1.48716
1.28558
1.13582
1.13799
1.47818
1.48283
1.47951
1.46184
1.41974
1.35037
1.25679
1.17185
1.10271
1.05101
1.01769
0.99777
0.986641
0.980339
0.97709
0.976156
0.977377
0.980095
0.985447
0.990368
1.00122
1.01355
1.02904
1.05113
1.08673
1.12758
1.16835
1.20182
1.22414
1.20748
1.12419
1.07111
1.041
1.03012
1.02843
1.02996
1.03275
1.05373
1.20633
1.71278
2.0161
2.07026
2.07571
2.07254
2.05868
2.03075
1.97457
1.88079
1.7328
1.53951
1.32755
1.15664
1.14117
1.13307
1.34561
1.32585
1.28858
1.23766
1.17891
1.12023
1.07637
1.04644
1.02629
1.01549
1.00597
0.997167
0.991419
0.990764
0.994049
1.00001
1.00921
1.02287
1.0387
1.05888
1.08812
1.13202
1.18164
1.24646
1.3194
1.37856
1.41705
1.44021
1.44194
1.39429
1.23601
1.08706
1.03935
1.02928
1.02938
1.03269
1.05444
1.19346
1.67742
2.00185
2.06958
2.07812
2.07763
2.0672
2.04542
2.00075
1.92166
1.79443
1.61847
1.40951
1.19438
1.13994
1.11244
1.1398
1.08985
1.08956
1.08909
1.08506
1.07701
1.07471
1.06979
1.06558
1.07006
1.08184
1.094
1.1074
1.12429
1.15473
1.18363
1.21001
1.23911
1.26988
1.30613
1.34035
1.38718
1.43547
1.47833
1.52702
1.57372
1.60976
1.63171
1.63644
1.62069
1.5201
1.23027
1.07577
1.03377
1.02889
1.03232
1.0542
1.17229
1.61311
1.97536
2.0656
2.07906
2.08131
2.07472
2.05915
2.02771
1.96816
1.86761
1.71738
1.52512
1.32039
1.16314
1.09315
1.11673
1.11344
1.34898
1.33604
1.33162
1.33657
1.3374
1.37418
1.39757
1.42816
1.46309
1.49516
1.51249
1.51715
1.52179
1.52783
1.53489
1.54072
1.54936
1.56217
1.57799
1.59692
1.62108
1.64764
1.6754
1.70722
1.73744
1.75777
1.76877
1.77304
1.72387
1.50686
1.18636
1.05115
1.02994
1.03147
1.05095
1.14993
1.53244
1.93586
2.05746
2.07816
2.08288
2.08045
2.07052
2.05119
2.0124
1.94382
1.83227
1.67165
1.4744
1.27187
1.11836
1.08628
1.07642
1.0884
1.75614
1.73484
1.71314
1.69293
1.66911
1.65487
1.63665
1.62372
1.61612
1.60677
1.5942
1.58154
1.5754
1.57346
1.57829
1.58536
1.59526
1.61035
1.63045
1.65511
1.68409
1.71473
1.74695
1.77915
1.8066
1.82403
1.83847
1.8188
1.69918
1.42394
1.10023
1.03521
1.03121
1.04644
1.12786
1.45103
1.88395
2.04351
2.07469
2.08267
2.08401
2.07912
2.06892
2.04718
2.00509
1.93198
1.81588
1.65308
1.45475
1.25476
1.12
1.07092
1.06839
1.05488
1.56888
1.55559
1.52911
1.49564
1.45765
1.42137
1.39031
1.37383
1.36647
1.36446
1.36674
1.37106
1.379
1.39262
1.42086
1.45903
1.49498
1.53738
1.57886
1.62319
1.66558
1.70636
1.74757
1.78259
1.81885
1.85254
1.85832
1.8105
1.65506
1.22833
1.05092
1.03288
1.04199
1.10934
1.38784
1.82544
2.02514
2.0668
2.08041
2.08452
2.08363
2.07921
2.06895
2.04617
2.00354
1.92956
1.81381
1.65268
1.45927
1.26299
1.14496
1.04893
1.06834
1.03874
1.10053
1.06609
1.03752
1.01542
1.00656
1.00364
1.00377
1.00961
1.02012
1.03536
1.05706
1.0848
1.11407
1.1407
1.16807
1.20589
1.26246
1.32255
1.39229
1.47652
1.55282
1.62449
1.68694
1.76536
1.82582
1.85081
1.82758
1.69718
1.41905
1.08767
1.03673
1.03889
1.09569
1.3425
1.7595
2.0053
2.05332
2.07629
2.08216
2.08422
2.08333
2.08008
2.07151
2.05336
2.01982
1.95999
1.8645
1.72446
1.54608
1.35389
1.19503
1.06631
1.0699
1.04484
0.952376
0.95034
0.949891
0.953039
0.960854
0.975352
0.996449
1.0195
1.04317
1.06737
1.09123
1.10609
1.12057
1.13271
1.13153
1.1348
1.15075
1.17517
1.21812
1.29174
1.39098
1.52565
1.6696
1.76501
1.82309
1.84468
1.80367
1.63507
1.12297
1.04437
1.03833
1.0861
1.29273
1.6876
1.97432
2.03446
2.06931
2.0769
2.08173
2.0824
2.0826
2.08034
2.07334
2.06086
2.03729
1.99744
1.93069
1.82628
1.67725
1.49567
1.30789
1.18917
1.05829
1.07787
0.949865
0.957346
0.968996
0.988648
1.01688
1.05212
1.09937
1.16046
1.21045
1.22791
1.23125
1.22458
1.20395
1.17222
1.12681
1.11028
1.11441
1.13254
1.18069
1.26711
1.38647
1.53438
1.68799
1.77604
1.79891
1.72223
1.54543
1.167
1.06748
1.04762
1.09952
1.2283
1.64099
1.95281
2.00709
2.05935
2.06916
2.07636
2.07932
2.08095
2.08262
2.08194
2.07968
2.07405
2.06326
2.04451
2.01311
1.96232
1.87993
1.75052
1.57736
1.39119
1.24124
1.13448
0.958824
0.971564
0.99198
1.02303
1.06612
1.1247
1.19558
1.25743
1.27461
1.27955
1.27408
1.25503
1.21968
1.16704
1.11651
1.10978
1.11364
1.13754
1.19872
1.30457
1.43933
1.63469
1.69709
1.72424
1.70116
1.67667
1.21312
1.04978
1.06524
1.08064
1.1268
1.80167
1.83497
2.00997
2.04001
2.05992
2.06844
2.07356
2.07643
2.07904
2.0809
2.08118
2.08038
2.07758
2.07214
2.06269
2.04781
2.02464
1.98981
1.93938
1.8668
1.76431
1.63116
1.47457
0.96302
0.978372
1.00188
1.03704
1.08546
1.14817
1.21927
1.26859
1.2881
1.28379
1.28284
1.26052
1.22477
1.16895
1.15624
1.14727
1.15878
1.22184
1.31341
1.45905
1.61104
1.64695
1.69844
1.70973
1.52552
1.08221
1.09944
1.06235
1.06923
1.25683
1.83727
1.74178
1.99888
2.01904
2.05006
2.05806
2.06511
2.06969
2.0722
2.07643
2.078
2.07919
2.07869
2.07765
2.07485
2.07042
2.06386
2.05478
2.04188
2.02388
1.99907
1.96643
1.9233
1.86929
0.958038
0.970597
0.990945
1.02339
1.06813
1.12728
1.19481
1.24382
1.29296
1.2846
1.28827
1.27961
1.27136
1.26545
1.2729
1.27907
1.34902
1.37738
1.50539
1.52896
1.57395
1.57726
1.46089
1.32493
1.14235
1.05817
1.07609
1.0938
1.35381
1.72889
1.73334
1.93111
2.01943
2.03034
2.04684
2.05473
2.06077
2.06438
2.06848
2.07183
2.07439
2.0749
2.07524
2.07445
2.07284
2.07019
2.06629
2.0613
2.05533
2.0483
2.04025
2.03108
2.02021
2.00658
0.951675
0.960753
0.971819
0.994657
1.02658
1.07349
1.13086
1.19464
1.23343
1.28573
1.27883
1.29103
1.29017
1.32017
1.31749
1.37329
1.37682
1.44429
1.45793
1.47115
1.4196
1.31902
1.18426
1.05439
1.07337
1.07112
1.12521
1.35822
1.69715
1.73238
2.01036
1.96387
2.02663
2.03304
2.0435
2.05048
2.05451
2.05939
2.06393
2.06601
2.06996
2.0703
2.07112
2.07016
2.06869
2.06625
2.06326
2.05959
2.05537
2.05066
2.04563
2.04041
2.03475
2.02906
0.950359
0.952624
0.95855
0.969212
0.986218
1.01353
1.04947
1.09654
1.14992
1.1904
1.24129
1.24093
1.28793
1.27915
1.32265
1.3225
1.33726
1.33771
1.30331
1.23266
1.16565
1.06265
1.08818
1.07742
1.10644
1.17713
1.40447
1.62541
1.8423
1.90235
1.9638
2.00728
2.02238
2.03133
2.03997
2.04263
2.04937
2.05389
2.05647
2.06212
2.06292
2.06572
2.06537
2.06506
2.06342
2.06108
2.05849
2.05544
2.05222
2.0482
2.04446
2.04015
2.0358
2.03115
0.950264
0.950633
0.952623
0.955614
0.961505
0.970488
0.985222
1.00519
1.03088
1.06057
1.08617
1.12227
1.12556
1.16112
1.1558
1.15331
1.13304
1.11191
1.08112
1.05394
1.05944
1.05715
1.07845
1.09002
1.2016
1.43903
1.76352
1.75254
1.90294
1.96021
1.98911
2.00983
2.01974
2.02766
2.03207
2.03709
2.04301
2.04745
2.05127
2.05526
2.05744
2.0593
2.05947
2.05906
2.0578
2.0556
2.05306
2.05036
2.04761
2.0445
2.04151
2.03824
2.03475
2.03062
0.953177
0.954374
0.951785
0.957924
0.953238
0.964912
0.961419
0.972824
0.978128
0.989779
0.999582
1.01077
1.01602
1.02855
1.02891
1.03446
1.03371
1.0386
1.04283
1.05233
1.0688
1.1023
1.18221
1.38753
1.70044
1.60337
1.85985
1.85059
1.9575
1.97587
1.9972
2.00849
2.01553
2.0207
2.02587
2.03152
2.03718
2.04094
2.04524
2.04809
2.05048
2.05178
2.05213
2.05151
2.05029
2.04839
2.04611
2.04387
2.04159
2.0396
2.03772
2.03561
2.03314
2.02996
0.962111
0.959522
0.960801
0.963367
0.960609
0.968974
0.965306
0.974291
0.976135
0.983724
0.989243
0.996895
1.00395
1.01214
1.02003
1.02916
1.03926
1.05279
1.07528
1.11773
1.20534
1.33994
1.52096
1.65586
1.7789
1.81056
1.90996
1.92081
1.97234
1.98281
1.99706
2.00519
2.00897
2.01555
2.02022
2.0258
2.03058
2.03408
2.03785
2.04019
2.0425
2.04304
2.04315
2.04196
2.04084
2.03906
2.03728
2.03518
2.03377
2.03225
2.03183
2.03093
2.03004
2.02765
0.983875
0.976866
0.986535
0.983016
0.988778
0.98951
0.993794
0.998114
1.0031
1.01066
1.0184
1.02878
1.04024
1.05524
1.07421
1.10115
1.14196
1.208
1.29291
1.40186
1.51798
1.62403
1.7748
1.76389
1.87967
1.88595
1.94244
1.95121
1.97493
1.98595
1.99505
1.99899
2.00462
2.00993
2.01468
2.01962
2.02357
2.02682
2.02965
2.03192
2.03251
2.03307
2.03176
2.03108
2.02935
2.0273
2.02525
2.02353
2.02218
2.02184
2.02219
2.02349
2.02398
2.02288
1.02197
1.03538
1.0461
1.06382
1.07886
1.09769
1.11633
1.13518
1.15544
1.175
1.19808
1.22215
1.25297
1.28841
1.3328
1.3858
1.44853
1.51263
1.58668
1.66269
1.73443
1.79697
1.8354
1.89105
1.90505
1.94105
1.95124
1.96741
1.97735
1.9849
1.98961
1.99486
2.00038
2.00495
2.00917
2.01343
2.01627
2.0189
2.02099
2.02121
2.02218
2.02088
2.01974
2.01749
2.01487
2.01085
2.00945
2.00453
2.00528
2.00249
2.00684
2.00779
2.01233
2.01276
1.12376
1.15667
1.19866
1.23904
1.28569
1.32753
1.36913
1.40606
1.43808
1.46891
1.49423
1.51948
1.54464
1.57201
1.60515
1.64242
1.6834
1.72355
1.76801
1.80931
1.83688
1.88309
1.88826
1.92347
1.93167
1.95098
1.95993
1.96964
1.97564
1.98201
1.98638
1.99158
1.99672
1.99828
2.00534
2.00567
2.00968
2.01069
2.01145
2.01191
2.01014
2.00815
2.00512
2.00136
1.99396
1.99206
1.98125
1.98633
1.97325
1.98163
1.97531
1.98616
1.98994
1.99427
1.29794
1.35315
1.39233
1.44799
1.4942
1.54202
1.58713
1.62136
1.65376
1.67534
1.69572
1.71121
1.72639
1.74379
1.7656
1.78533
1.8077
1.83194
1.85109
1.87823
1.88636
1.91121
1.91876
1.93623
1.94515
1.95544
1.96183
1.96931
1.97369
1.98017
1.98285
1.99039
1.99127
1.99696
1.99933
2.0009
2.00308
2.00277
2.00239
2.0003
1.99744
1.99266
1.98593
1.97676
1.97226
1.96009
1.96184
1.94387
1.95019
1.93559
1.94785
1.94597
1.96445
1.96869
1.52351
1.55015
1.58825
1.62948
1.66337
1.70286
1.72767
1.75513
1.77416
1.78474
1.80278
1.79636
1.82409
1.82128
1.84331
1.84942
1.86981
1.87461
1.89346
1.90064
1.91456
1.9238
1.93344
1.94277
1.94977
1.95673
1.96263
1.96888
1.97267
1.97939
1.98091
1.98841
1.98862
1.99448
1.99303
1.99699
1.99526
1.9957
1.99123
1.98984
1.98143
1.97647
1.96522
1.95968
1.94904
1.94175
1.93146
1.92255
1.91684
1.91852
1.92939
1.94225
1.9541
1.9547
1.70123
1.71762
1.7343
1.75743
1.77622
1.79649
1.80904
1.8225
1.82909
1.83813
1.84066
1.84905
1.85845
1.86265
1.87559
1.88002
1.89118
1.89798
1.90732
1.91543
1.92409
1.93161
1.93838
1.94614
1.95152
1.95811
1.96367
1.96816
1.97354
1.97804
1.98178
1.98625
1.98787
1.99139
1.98956
1.99204
1.9886
1.98766
1.98445
1.9738
1.97121
1.95631
1.95206
1.93689
1.92642
1.9088
1.90081
1.89947
1.91049
1.93304
1.95485
1.97481
1.99333
2.0092
1.8122
1.81475
1.82146
1.82828
1.83669
1.84289
1.8496
1.85285
1.85702
1.86275
1.86488
1.87355
1.87543
1.88447
1.88887
1.89616
1.90292
1.90941
1.91663
1.9228
1.92996
1.93486
1.94339
1.94748
1.95366
1.96061
1.96354
1.97114
1.97413
1.97909
1.98226
1.98581
1.98705
1.98887
1.98828
1.98812
1.98537
1.98229
1.97048
1.96732
1.95633
1.94673
1.93151
1.91434
1.90214
1.89664
1.89794
1.9119
1.93814
1.95688
1.97375
1.98965
2.00446
2.01488
1.86368
1.86281
1.86243
1.86359
1.8649
1.86694
1.86869
1.87184
1.8727
1.87768
1.87899
1.88465
1.88802
1.89334
1.89851
1.9045
1.90837
1.91621
1.91968
1.92799
1.93206
1.93953
1.94457
1.94988
1.95766
1.96198
1.96752
1.97326
1.97641
1.9811
1.9834
1.98579
1.98722
1.98795
1.9868
1.9848
1.97943
1.97324
1.96602
1.95901
1.94523
1.92983
1.91214
1.89996
1.89427
1.89502
1.91236
1.92795
1.93877
1.94871
1.96099
1.97374
1.9837
1.97802
1.88573
1.8823
1.8808
1.87965
1.87943
1.8797
1.88067
1.88189
1.88362
1.88582
1.88861
1.89178
1.89557
1.89948
1.90456
1.90836
1.91535
1.91757
1.92647
1.92821
1.93778
1.94012
1.94926
1.95341
1.96118
1.96399
1.97263
1.97347
1.98036
1.98293
1.98567
1.98793
1.98885
1.98835
1.98599
1.98242
1.97733
1.97021
1.96182
1.95012
1.93318
1.9155
1.90352
1.89537
1.89503
1.90801
1.91514
1.91621
1.91501
1.92326
1.93611
1.95654
1.96647
1.95543
1.02114
1.02155
1.02196
1.02235
1.02273
1.0231
1.02347
1.02375
1.02412
1.0243
1.02484
1.02492
1.02554
1.02555
1.02636
1.02627
1.02734
1.02698
1.02831
1.02792
1.0208
1.02114
1.02142
1.0217
1.02195
1.02221
1.02241
1.02263
1.02278
1.02298
1.0231
1.02348
1.02356
1.02416
1.02408
1.02499
1.02469
1.02596
1.02554
1.02699
1.02046
1.02068
1.02087
1.02101
1.02114
1.02123
1.0213
1.02139
1.02145
1.02154
1.02162
1.02172
1.02201
1.02199
1.02262
1.02244
1.02352
1.02313
1.02443
1.02434
1.02013
1.02023
1.02027
1.0203
1.02028
1.02028
1.02022
1.02021
1.02018
1.02011
1.02009
1.02006
1.02008
1.02035
1.02029
1.02099
1.02069
1.02182
1.02173
1.02281
1.01979
1.01974
1.01968
1.01955
1.01941
1.01923
1.01905
1.01882
1.01867
1.01849
1.01833
1.0182
1.01812
1.01826
1.01822
1.01837
1.01906
1.01895
1.02021
1.02022
1.01945
1.01925
1.01903
1.01873
1.01842
1.01806
1.01771
1.01735
1.01701
1.01671
1.01644
1.0162
1.016
1.01598
1.01585
1.01626
1.01628
1.01693
1.01725
1.01821
1.01909
1.01871
1.01835
1.01784
1.01736
1.01684
1.01623
1.01573
1.0152
1.0147
1.01427
1.01391
1.01362
1.01339
1.0135
1.01342
1.01362
1.01434
1.01496
1.01573
1.0187
1.01806
1.01769
1.01671
1.01629
1.01542
1.01474
1.01393
1.01321
1.01255
1.01194
1.01143
1.01092
1.0107
1.01026
1.0101
1.01074
1.01093
1.01173
1.01292
1.01826
1.01735
1.01698
1.01557
1.01558
1.01419
1.01414
1.01288
1.01265
1.01197
1.01181
1.01088
1.01045
1.00861
1.00727
1.00844
1.00652
1.00833
1.00745
1.01015
1.01775
1.01704
1.01627
1.01627
1.0152
1.0168
1.01544
1.01682
1.01852
1.02011
1.02328
1.02337
1.02296
1.01476
1.02065
1.00591
1.0121
1.00347
1.00864
1.00492
1.01729
1.01896
1.01658
1.02147
1.01877
1.0302
1.02601
1.04348
1.05754
1.07219
1.08573
1.09926
1.09549
1.1012
1.05801
1.0793
1.02858
1.03569
1.01123
1.01964
1.01927
1.02403
1.02323
1.04118
1.04072
1.07663
1.11623
1.15094
1.21556
1.28505
1.33357
1.39529
1.41281
1.38799
1.39689
1.26526
1.3127
1.18595
1.10441
1.01761
1.03756
1.03312
1.06925
1.09224
1.15945
1.26809
1.38765
1.53098
1.64514
1.72357
1.77163
1.80565
1.82095
1.81418
1.79179
1.77336
1.62703
1.66093
1.42183
1.59431
1.08054
1.07789
1.20959
1.35759
1.54636
1.69585
1.7994
1.86313
1.89995
1.91771
1.92569
1.92717
1.92328
1.91872
1.91406
1.89387
1.90125
1.80387
1.81647
1.54683
1.21302
1.41242
1.59384
1.75644
1.86359
1.91995
1.94496
1.95235
1.95236
1.94554
1.93886
1.93104
1.92387
1.91416
1.90387
1.90548
1.87737
1.8993
1.82094
1.84284
1.5924
1.77719
1.90274
1.95362
1.96982
1.97166
1.96569
1.95705
1.94754
1.93557
1.92504
1.90788
1.88939
1.86898
1.85943
1.84404
1.83668
1.83805
1.85014
1.80422
1.91226
1.96718
1.98432
1.98429
1.97929
1.96789
1.95867
1.94043
1.92055
1.90404
1.85922
1.85285
1.79626
1.77323
1.75759
1.7491
1.73104
1.73567
1.75069
1.77052
1.98473
1.99368
1.9907
1.97958
1.96775
1.941
1.9257
1.88412
1.84387
1.80445
1.76877
1.70819
1.67968
1.64315
1.62765
1.62717
1.62976
1.63165
1.63914
1.62817
2.00273
1.99467
1.98002
1.95708
1.92056
1.8889
1.82822
1.77452
1.72157
1.67076
1.60886
1.54921
1.50541
1.48931
1.48914
1.49611
1.51592
1.5269
1.53538
1.55301
1.99804
1.97961
1.94085
1.8862
1.83723
1.75777
1.67915
1.60429
1.54435
1.47201
1.40406
1.34702
1.32315
1.31652
1.32709
1.33988
1.39571
1.43108
1.44555
1.46255
1.96507
1.91232
1.84296
1.7655
1.66389
1.56295
1.46504
1.38038
1.30586
1.24267
1.18509
1.15776
1.15362
1.16348
1.18475
1.26689
1.33166
1.3706
1.38501
1.39651
1.88754
1.79384
1.6905
1.55771
1.42749
1.30579
1.2207
1.17038
1.13663
1.11022
1.09196
1.08534
1.08523
1.09969
1.164
1.2567
1.31407
1.33945
1.3451
1.35062
1.74694
1.60669
1.44469
1.29315
1.19595
1.1527
1.12981
1.11293
1.09666
1.08178
1.07249
1.06918
1.07232
1.10495
1.20808
1.28245
1.31131
1.31633
1.30983
1.31079
1.5387
1.34596
1.20977
1.1558
1.13733
1.12533
1.11672
1.10694
1.09399
1.08218
1.07712
1.07774
1.10672
1.22111
1.2861
1.30329
1.30396
1.29625
1.28115
1.28715
1.28499
1.17362
1.14255
1.13584
1.13438
1.145
1.1538
1.14971
1.13945
1.13048
1.13493
1.16288
1.26871
1.31155
1.30508
1.30237
1.30133
1.27709
1.27249
1.28916
1.15746
1.1356
1.13958
1.1646
1.19716
1.21043
1.21099
1.20713
1.20858
1.22104
1.25288
1.29269
1.33324
1.31418
1.32106
1.32853
1.29973
1.28081
1.28476
1.31451
1.12945
1.1449
1.19525
1.22299
1.23108
1.22821
1.22325
1.22309
1.23873
1.26912
1.30729
1.32807
1.34741
1.37365
1.37697
1.35743
1.32511
1.31991
1.34061
1.40959
1.14772
1.19345
1.2218
1.23577
1.23005
1.22444
1.21975
1.22656
1.24962
1.29078
1.3377
1.37885
1.40606
1.41239
1.41122
1.40042
1.39565
1.4017
1.42102
1.45595
1.16427
1.20817
1.22485
1.21468
1.1986
1.18635
1.18605
1.20444
1.24443
1.30373
1.37622
1.40641
1.42128
1.42277
1.42475
1.41995
1.42076
1.42756
1.44016
1.45603
1.17202
1.19751
1.19109
1.1684
1.13728
1.12324
1.12698
1.15811
1.21882
1.29983
1.37874
1.39139
1.41206
1.41343
1.41951
1.41647
1.41015
1.40724
1.39785
1.37413
1.154
1.15718
1.14464
1.11518
1.08115
1.06688
1.06923
1.09306
1.1339
1.19968
1.25655
1.29064
1.31825
1.32284
1.33093
1.31654
1.2926
1.26655
1.21902
1.15815
1.1036
1.10645
1.09982
1.07543
1.04651
1.02539
1.02302
1.02947
1.03628
1.0632
1.08189
1.0967
1.12283
1.12122
1.12451
1.10734
1.09774
1.08231
1.05462
1.04856
1.04996
1.06613
1.05354
1.04577
1.02233
1.00651
0.999021
1.00182
0.999697
1.00475
1.00832
1.01816
1.01695
1.02163
1.02287
1.02205
1.01869
1.00783
1.02105
1.00792
1.03614
1.02485
1.02175
1.01496
1.00708
0.999617
0.990433
0.989241
0.988173
0.987247
0.987511
0.987817
0.990105
0.99254
0.993181
0.997499
0.998164
1.00194
1.00553
1.00741
1.03471
1.02147
1.01233
1.0057
0.999468
0.992979
0.988892
0.98686
0.985489
0.98485
0.98474
0.98541
0.986144
0.989314
0.990768
0.995039
0.99811
1.00109
1.00843
1.01135