/*--------------------------------*- C++ -*----------------------------------*\
  =========                 |
  \\      /  F ield         | OpenFOAM: The Open Source CFD Toolbox
   \\    /   O peration     | Website:  https://openfoam.org
    \\  /    A nd           | Version:  10
     \\/     M anipulation  |
\*---------------------------------------------------------------------------*/
FoamFile
{
    format      ascii;
    class       volScalarField;
    location    "0.852259";
    object      T;
}
// * * * * * * * * * * * * * * * * * * * * * * * * * * * * * * * * * * * * * //

dimensions      [0 0 0 1 0 0 0];

internalField   nonuniform List<scalar> 
15984
(
0.00861099
0.00861139
0.0086126
0.00861234
0.00861644
0.00861673
0.00862085
0.00862368
0.00862758
0.00863121
0.00863557
0.00863961
0.00864417
0.00864854
0.00865364
0.00865872
0.00866453
0.00867041
0.00867656
0.00868274
0.00868885
0.00869482
0.00870077
0.00870642
0.00871211
0.00871736
0.00872258
0.00872742
0.00873195
0.0087365
0.00874041
0.00874442
0.00874779
0.00875108
0.00875409
0.00875676
0.00875915
0.00876165
0.00876372
0.00876598
0.00876791
0.00876981
0.00877134
0.00877315
0.00877462
0.00877614
0.00877764
0.00877895
0.00878031
0.00878155
0.0087828
0.00878382
0.00878497
0.00878601
0.00861464
0.0086148
0.00861568
0.00861679
0.00861816
0.00862026
0.00862297
0.0086249
0.00862903
0.0086317
0.00863591
0.00863976
0.00864379
0.00864826
0.00865295
0.00865819
0.00866364
0.00866942
0.0086753
0.00868126
0.00868717
0.00869295
0.00869875
0.00870433
0.00870992
0.00871519
0.00872044
0.00872535
0.00873005
0.00873461
0.0087386
0.00874286
0.00874632
0.00874993
0.00875308
0.00875604
0.00875871
0.00876134
0.00876354
0.0087662
0.00876818
0.00877
0.00877196
0.0087737
0.00877526
0.0087769
0.00877822
0.00877957
0.00878088
0.0087819
0.00878306
0.00878372
0.00878461
0.00878523
0.00861724
0.00861726
0.00861805
0.00861821
0.00862068
0.00862112
0.00862394
0.00862627
0.00862887
0.00863217
0.00863548
0.00863927
0.00864342
0.00864791
0.00865266
0.00865776
0.00866301
0.00866838
0.008674
0.00867961
0.00868527
0.00869095
0.00869659
0.00870213
0.00870775
0.00871315
0.00871842
0.00872342
0.00872819
0.00873281
0.00873709
0.00874144
0.00874509
0.00874902
0.00875232
0.00875564
0.00875861
0.00876132
0.00876387
0.00876675
0.00876859
0.00877065
0.00877277
0.00877437
0.00877627
0.00877766
0.00877904
0.00878025
0.0087812
0.00878228
0.008783
0.00878372
0.00878417
0.0087846
0.00861884
0.00861902
0.00861965
0.00862015
0.00862231
0.00862273
0.00862604
0.00862687
0.00863002
0.00863266
0.0086356
0.00863932
0.00864338
0.00864793
0.00865245
0.0086573
0.0086621
0.00866733
0.00867267
0.00867813
0.00868377
0.00868937
0.00869498
0.00870058
0.00870611
0.00871152
0.00871671
0.00872184
0.00872667
0.00873146
0.00873595
0.00874037
0.00874447
0.00874853
0.00875212
0.00875562
0.00875885
0.00876158
0.00876475
0.00876739
0.00876951
0.00877171
0.0087737
0.0087756
0.00877739
0.00877888
0.00878016
0.00878115
0.00878231
0.00878296
0.00878361
0.00878399
0.00878413
0.00878403
0.00862028
0.00862042
0.00862135
0.00862206
0.00862342
0.00862481
0.00862639
0.00862844
0.00863069
0.00863324
0.00863632
0.0086397
0.00864342
0.00864731
0.00865168
0.00865619
0.00866123
0.00866633
0.0086717
0.00867707
0.00868248
0.00868802
0.00869346
0.00869903
0.00870451
0.00870998
0.00871523
0.00872047
0.00872534
0.00873029
0.00873494
0.00873962
0.00874386
0.00874828
0.00875202
0.00875585
0.00875918
0.00876225
0.00876566
0.00876813
0.00877064
0.00877282
0.00877496
0.00877686
0.00877878
0.00878023
0.00878129
0.00878243
0.00878311
0.00878368
0.00878403
0.00878401
0.00878375
0.00878339
0.00862136
0.00862182
0.00862245
0.00862369
0.00862411
0.00862596
0.0086272
0.00862918
0.00863141
0.00863412
0.00863697
0.00864016
0.00864342
0.00864711
0.00865101
0.00865537
0.00866002
0.00866505
0.00867021
0.00867561
0.00868108
0.00868656
0.00869212
0.00869769
0.00870318
0.00870868
0.00871398
0.00871934
0.00872438
0.00872946
0.00873429
0.00873917
0.00874361
0.00874822
0.00875209
0.00875617
0.00875959
0.00876298
0.00876656
0.00876905
0.00877177
0.00877422
0.00877645
0.00877845
0.00878009
0.00878161
0.00878274
0.00878368
0.00878405
0.00878428
0.00878437
0.00878403
0.00878325
0.00878266
0.00862196
0.00862198
0.00862279
0.0086228
0.0086244
0.00862568
0.0086273
0.00862919
0.00863157
0.00863386
0.00863656
0.00863929
0.00864258
0.00864621
0.00865024
0.00865472
0.00865945
0.00866454
0.00866966
0.00867505
0.00868035
0.00868576
0.00869117
0.00869665
0.00870216
0.00870765
0.00871309
0.00871843
0.00872369
0.00872887
0.00873397
0.00873894
0.00874365
0.00874829
0.00875259
0.0087565
0.00876035
0.00876392
0.00876774
0.00877017
0.00877329
0.00877583
0.00877815
0.00878011
0.00878166
0.00878312
0.00878377
0.00878494
0.00878509
0.00878524
0.00878511
0.00878437
0.00878288
0.0087817
0.008622
0.00862216
0.0086227
0.00862283
0.00862464
0.00862515
0.0086271
0.00862912
0.00863132
0.00863391
0.00863616
0.00863889
0.00864205
0.00864563
0.00864971
0.00865417
0.00865903
0.00866388
0.00866898
0.00867408
0.0086793
0.00868468
0.00869014
0.00869563
0.00870122
0.00870672
0.00871231
0.00871778
0.00872322
0.00872849
0.00873372
0.00873874
0.0087437
0.00874833
0.00875317
0.008757
0.00876147
0.00876521
0.00876913
0.00877176
0.00877509
0.00877752
0.00878008
0.00878193
0.00878358
0.00878508
0.00878578
0.00878661
0.00878646
0.00878634
0.00878581
0.00878411
0.00878271
0.00878071
0.0086216
0.00862179
0.00862226
0.00862318
0.00862433
0.00862575
0.00862749
0.00862932
0.00863132
0.00863361
0.00863617
0.00863906
0.00864227
0.00864583
0.00864976
0.00865395
0.00865838
0.00866295
0.00866779
0.00867289
0.00867814
0.00868363
0.00868914
0.00869475
0.00870043
0.00870611
0.00871179
0.00871744
0.00872294
0.00872839
0.00873368
0.00873896
0.00874402
0.00874891
0.00875402
0.00875802
0.00876282
0.00876673
0.00877073
0.00877357
0.00877708
0.00877944
0.0087821
0.00878414
0.00878606
0.00878708
0.00878815
0.0087882
0.00878813
0.00878765
0.00878623
0.00878463
0.00878258
0.0087798
0.0086203
0.00862072
0.00862166
0.0086218
0.0086238
0.00862488
0.00862652
0.00862821
0.00863033
0.00863266
0.00863516
0.00863795
0.00864123
0.00864494
0.0086492
0.00865358
0.00865809
0.00866285
0.00866774
0.00867304
0.00867817
0.00868359
0.00868884
0.00869437
0.00870006
0.00870586
0.00871167
0.00871747
0.00872299
0.00872858
0.00873385
0.00873941
0.00874452
0.00874997
0.00875497
0.00875957
0.00876422
0.00876854
0.00877248
0.00877577
0.00877901
0.00878189
0.00878441
0.00878679
0.00878848
0.00878908
0.00878991
0.00879011
0.00878954
0.00878846
0.00878741
0.0087846
0.0087829
0.00877798
0.00861872
0.00861889
0.0086196
0.00862105
0.00862133
0.00862363
0.00862534
0.00862719
0.00862953
0.00863193
0.00863493
0.00863784
0.00864128
0.00864496
0.00864892
0.00865291
0.0086575
0.00866253
0.00866778
0.00867297
0.00867788
0.00868291
0.00868814
0.00869389
0.00869992
0.00870596
0.0087118
0.00871744
0.00872293
0.00872855
0.00873409
0.00874002
0.00874538
0.00875116
0.00875627
0.00876123
0.00876589
0.00877057
0.00877455
0.00877802
0.00878125
0.00878431
0.00878707
0.00878933
0.00879046
0.00879152
0.00879205
0.00879189
0.00879125
0.0087894
0.00878871
0.00878286
0.00878357
0.008769
0.00861631
0.00861709
0.00861805
0.00861809
0.00862074
0.00862062
0.00862367
0.00862541
0.00862815
0.00863052
0.0086337
0.00863684
0.00864077
0.00864425
0.00864848
0.00865273
0.00865759
0.00866238
0.00866752
0.00867266
0.00867797
0.00868343
0.00868931
0.00869544
0.0087014
0.00870713
0.0087125
0.0087178
0.00872323
0.00872892
0.00873478
0.00874087
0.00874685
0.00875255
0.00875837
0.00876315
0.00876809
0.008773
0.00877674
0.00878047
0.00878396
0.0087874
0.0087898
0.00879169
0.00879312
0.00879389
0.00879447
0.00879366
0.0087929
0.0087898
0.00878979
0.00877948
0.00878001
0.00875377
0.00861366
0.0086138
0.008615
0.00861633
0.00861762
0.00861943
0.00862091
0.00862323
0.00862534
0.00862852
0.00863153
0.00863526
0.00863902
0.00864332
0.00864755
0.00865248
0.00865726
0.0086625
0.0086678
0.00867269
0.00867816
0.00868387
0.00868962
0.0086953
0.00870133
0.00870743
0.00871327
0.00871898
0.00872451
0.00873031
0.00873621
0.00874241
0.00874839
0.00875436
0.00875982
0.00876564
0.00876966
0.00877556
0.00877896
0.00878346
0.0087867
0.00879032
0.0087928
0.00879498
0.00879666
0.00879712
0.00879687
0.00879592
0.00879412
0.00878947
0.00878967
0.00876724
0.00873802
0.00872905
0.00860954
0.00861015
0.00861115
0.00861297
0.00861385
0.00861575
0.00861827
0.00862073
0.00862368
0.00862663
0.00863044
0.00863389
0.00863819
0.00864237
0.0086469
0.0086516
0.00865664
0.00866194
0.00866753
0.008673
0.00867886
0.00868476
0.00869085
0.00869655
0.00870213
0.00870783
0.00871374
0.00871992
0.0087261
0.00873234
0.00873853
0.00874465
0.0087507
0.0087564
0.00876247
0.00876754
0.00877273
0.00877789
0.00878264
0.00878621
0.00879089
0.00879405
0.0087967
0.00879855
0.00879961
0.00879945
0.00879906
0.00879747
0.00879444
0.00878868
0.00876048
0.00875898
0.00864312
0.00865429
0.00860494
0.00860658
0.00860693
0.00860886
0.00861107
0.00861386
0.00861602
0.00861911
0.00862155
0.00862503
0.00862805
0.00863219
0.00863601
0.00864083
0.00864543
0.00865105
0.00865604
0.00866196
0.00866746
0.00867302
0.00867946
0.00868538
0.0086911
0.00869692
0.00870309
0.00870936
0.00871548
0.00872151
0.00872737
0.00873348
0.00873975
0.00874653
0.00875296
0.00875936
0.00876528
0.00877085
0.00877581
0.00878152
0.00878565
0.00879068
0.0087943
0.00879764
0.00880029
0.0088016
0.0088024
0.0088026
0.00880098
0.00879906
0.00878701
0.00878447
0.00870198
0.00869865
0.00838701
0.00837703
0.00859875
0.00859727
0.00860356
0.00860358
0.00860707
0.00860976
0.00861281
0.00861551
0.00861889
0.00862224
0.00862582
0.00862999
0.00863465
0.00863923
0.00864461
0.00864946
0.00865603
0.00866125
0.00866722
0.00867344
0.00867982
0.00868575
0.00869165
0.00869781
0.00870451
0.00871125
0.00871749
0.00872363
0.00872957
0.00873591
0.00874226
0.00874922
0.00875551
0.00876253
0.00876808
0.00877457
0.00877908
0.00878524
0.00878969
0.00879437
0.00879843
0.00880215
0.0088043
0.00880502
0.00880597
0.00880518
0.00880097
0.00879899
0.00876727
0.00876248
0.00852756
0.00848711
0.00782441
0.00648417
0.00856892
0.00858911
0.00858917
0.00859911
0.00860368
0.00860678
0.00861048
0.00861348
0.00861708
0.0086197
0.00862417
0.0086276
0.00863329
0.00863739
0.00864372
0.00864832
0.00865515
0.00866134
0.00866737
0.00867383
0.00868056
0.00868702
0.0086934
0.00869987
0.00870649
0.00871291
0.00871916
0.0087255
0.00873171
0.00873841
0.00874513
0.00875251
0.00875909
0.00876612
0.00877162
0.0087778
0.00878281
0.00878871
0.00879393
0.0087989
0.00880363
0.00880669
0.00880842
0.00880977
0.00880856
0.00880708
0.00879752
0.00879376
0.00870629
0.00865378
0.00805848
0.00760892
0.00540851
0.0049438
0.00850596
0.00852933
0.0085579
0.00857105
0.00858426
0.00859406
0.0086032
0.00860733
0.00861472
0.0086175
0.00862227
0.00862588
0.00863058
0.00863609
0.00864198
0.00864826
0.00865387
0.00866107
0.00866686
0.00867483
0.00868109
0.00868757
0.00869434
0.00870128
0.00870839
0.00871521
0.00872167
0.00872819
0.00873443
0.00874109
0.00874769
0.00875522
0.00876172
0.00876888
0.00877487
0.0087814
0.00878769
0.00879382
0.00879924
0.00880487
0.00880817
0.00881116
0.00881307
0.00881241
0.00881055
0.00880864
0.00878274
0.00874578
0.00850677
0.00805798
0.00679993
0.00512291
0.00488463
0.00458676
0.00826913
0.00837679
0.00844844
0.00850738
0.00854733
0.00857321
0.00858657
0.00860237
0.00860119
0.00861798
0.0086167
0.00862732
0.00862949
0.00863637
0.00864077
0.0086482
0.00865403
0.008661
0.00866824
0.00867392
0.00868238
0.00868864
0.00869524
0.00870216
0.00870914
0.00871636
0.0087235
0.00873063
0.00873752
0.00874431
0.00875109
0.00875849
0.00876576
0.00877342
0.00877989
0.00878668
0.00879276
0.00879834
0.00880471
0.00880952
0.00881357
0.00881615
0.00881661
0.00881619
0.0088125
0.00879929
0.00873295
0.00842465
0.00804776
0.00600328
0.00504977
0.00471746
0.00448522
0.00443081
0.00762942
0.00795568
0.00817986
0.00832458
0.00842236
0.00849354
0.00854321
0.00857242
0.00859803
0.00859597
0.00861976
0.00861531
0.00863285
0.00862919
0.00864415
0.00864259
0.00865761
0.0086568
0.00867252
0.00867231
0.00868466
0.00869127
0.00869766
0.00870438
0.00871135
0.00871856
0.00872546
0.00873264
0.00874002
0.00874751
0.00875497
0.00876266
0.00877
0.00877772
0.00878436
0.00879147
0.00879773
0.00880348
0.00881028
0.00881533
0.00881882
0.00882063
0.00882138
0.00881897
0.00880386
0.00875148
0.00837507
0.00789832
0.00547717
0.00496065
0.00458634
0.004446
0.00442092
0.00441276
0.00632392
0.00685618
0.00744531
0.00789723
0.00817724
0.00834463
0.00844622
0.00851548
0.00855819
0.00858853
0.00860209
0.00861733
0.00861773
0.00863504
0.0086355
0.00864894
0.00865009
0.00866367
0.00866547
0.00868005
0.00868084
0.00869189
0.00869874
0.00870618
0.00871382
0.00872143
0.00872867
0.00873598
0.00874347
0.00875123
0.00875905
0.00876703
0.00877508
0.00878322
0.00879012
0.00879753
0.00880367
0.00881025
0.00881704
0.00882193
0.00882465
0.00882609
0.00882459
0.00881483
0.00875905
0.00841758
0.00760651
0.00535005
0.00487393
0.00449978
0.00442978
0.00441857
0.0044216
0.00444087
0.00577427
0.00587543
0.00633545
0.00693291
0.00755081
0.00799113
0.00825564
0.00839368
0.00849526
0.00854383
0.00857955
0.00860139
0.00862001
0.00862231
0.0086407
0.00864165
0.00865572
0.00865821
0.00867084
0.00867577
0.00868568
0.00869262
0.00869902
0.00870725
0.00871479
0.00872336
0.00873149
0.0087395
0.00874751
0.00875557
0.00876427
0.00877249
0.00878111
0.00879023
0.00879892
0.00880704
0.00881293
0.00881913
0.00882533
0.00882893
0.00883068
0.00883101
0.00882428
0.00877067
0.00846738
0.00745251
0.00539959
0.00474085
0.00446363
0.00442814
0.00442162
0.00443138
0.00446496
0.00453938
0.00570741
0.00568283
0.00583045
0.00605643
0.00664089
0.00727369
0.00779655
0.0081656
0.00834772
0.00846857
0.00853386
0.00857581
0.00860059
0.00862102
0.00863248
0.00864304
0.00865167
0.00865997
0.00866946
0.0086767
0.00868576
0.00869248
0.00870506
0.0087059
0.00871797
0.00872577
0.00873535
0.00874425
0.0087528
0.00876155
0.00877006
0.00877819
0.00878783
0.00879688
0.00880595
0.00881386
0.00882093
0.00882828
0.00883382
0.00883588
0.00883782
0.00883277
0.00878918
0.00850572
0.00743719
0.00537688
0.00464838
0.00445566
0.00442853
0.00442504
0.00444225
0.00449124
0.00459028
0.00476278
0.00571435
0.00566214
0.00571831
0.00570666
0.0060057
0.00652475
0.00716254
0.00766538
0.00804203
0.00827721
0.00842536
0.00851185
0.00856642
0.00859865
0.00862183
0.00863806
0.008651
0.00865635
0.00867357
0.00867337
0.00869126
0.00869148
0.00870404
0.00871557
0.00871827
0.00873084
0.0087386
0.00874764
0.00875592
0.00876441
0.00877317
0.00878128
0.00879072
0.0088012
0.00881409
0.0088237
0.00883213
0.00883841
0.00884132
0.00884354
0.00884149
0.00880641
0.00855054
0.00746367
0.00536311
0.00460287
0.00444871
0.00442755
0.00442866
0.00445449
0.00451657
0.00463663
0.00484728
0.0051912
0.0058258
0.00565103
0.00563453
0.00562488
0.00575799
0.00597814
0.00663832
0.00727685
0.00778354
0.00811906
0.00832476
0.00845571
0.00852841
0.00858053
0.00861004
0.00863085
0.00864761
0.00865681
0.0086703
0.00867772
0.00868839
0.00869734
0.00870445
0.00871343
0.00872456
0.00872787
0.00874019
0.0087427
0.0087532
0.0087607
0.00877014
0.00877871
0.0087902
0.00880414
0.00881867
0.00882975
0.00883943
0.00884504
0.00884845
0.00884881
0.00882788
0.0085829
0.00752044
0.00535023
0.00457049
0.00444147
0.00442762
0.00443309
0.00446606
0.00453464
0.00466708
0.00491121
0.00532096
0.00592382
0.00591879
0.0056447
0.00556907
0.00554163
0.00560356
0.00564217
0.00610646
0.00668244
0.00724531
0.00772615
0.0080654
0.0082981
0.00843933
0.00852689
0.00858008
0.0086117
0.00863862
0.00865075
0.00866653
0.0086761
0.00868709
0.008696
0.00870327
0.00871045
0.00871972
0.00872472
0.00872746
0.0087321
0.0087323
0.00873637
0.00874279
0.00876112
0.00878087
0.00880276
0.00882285
0.00883791
0.00884747
0.00885239
0.00885466
0.0088421
0.0086455
0.00749496
0.00537229
0.00454484
0.00443968
0.0044295
0.00443824
0.00447382
0.00454268
0.00468222
0.0049472
0.00539843
0.00606708
0.00696765
0.00582621
0.00556905
0.0054529
0.00542597
0.00545976
0.0055718
0.00596556
0.00652594
0.00706321
0.00752557
0.00788153
0.00814419
0.00831898
0.00844182
0.00852262
0.00857504
0.0086143
0.00864312
0.00865763
0.0086708
0.0086798
0.00868872
0.00869348
0.00869771
0.0086972
0.00868547
0.00867948
0.00865799
0.00864465
0.00863841
0.00865955
0.0087162
0.00876401
0.0088022
0.00882854
0.00884655
0.00885505
0.00885899
0.00885153
0.00868093
0.00757438
0.00532952
0.00455279
0.00444108
0.00443338
0.00444423
0.00447684
0.00454093
0.00468338
0.00494883
0.00540712
0.00611215
0.00698123
0.00774766
0.00549217
0.00537617
0.00535399
0.00537133
0.00544073
0.00564215
0.00605493
0.00659305
0.00710667
0.0075456
0.00788679
0.00813931
0.00830691
0.00842438
0.00850748
0.00856021
0.00859971
0.00862054
0.00864065
0.00864847
0.00866002
0.00865516
0.00865621
0.00862884
0.00858222
0.00850603
0.00843514
0.00836787
0.00830732
0.00831174
0.00845124
0.0086317
0.00874169
0.00880478
0.00883956
0.00885615
0.00886099
0.00885411
0.00868996
0.00758454
0.00536547
0.00455384
0.00444607
0.00443746
0.00444632
0.00447416
0.00453408
0.00466925
0.00491391
0.00535195
0.00604427
0.00695455
0.00782275
0.0077578
0.00538909
0.00538289
0.00540606
0.00548302
0.00565785
0.00596263
0.00642325
0.00690779
0.00736087
0.007746
0.00802571
0.00821466
0.00833792
0.00842406
0.0084868
0.00853202
0.00856069
0.00857828
0.00857487
0.00857729
0.00853134
0.00847507
0.0083937
0.00826186
0.00803408
0.0077863
0.00755467
0.0073822
0.00728351
0.00741863
0.00800043
0.00842603
0.00869618
0.0088138
0.00885232
0.00886115
0.00885655
0.00869551
0.00760446
0.00536777
0.00456635
0.00445087
0.00444075
0.00444611
0.00447098
0.00452338
0.00463857
0.00485168
0.00524266
0.00587269
0.00677762
0.0077394
0.00779515
0.00779723
0.00592112
0.00601728
0.00620058
0.00646557
0.00679942
0.00717081
0.00748098
0.00771419
0.00788734
0.00799405
0.00809449
0.00819361
0.00827185
0.0083093
0.00831593
0.00830335
0.00826673
0.00819675
0.00811339
0.0080013
0.00783083
0.0075749
0.00730063
0.00696247
0.00661688
0.00636817
0.00623073
0.00616506
0.00619106
0.0064348
0.00729006
0.0083171
0.00872344
0.00883355
0.00885627
0.00884913
0.008684
0.00768249
0.00548049
0.00460109
0.00445714
0.00444325
0.00444563
0.00446597
0.00450747
0.00459764
0.00477169
0.00508982
0.00561802
0.00642091
0.00754379
0.00786098
0.00800284
0.00775694
0.00731
0.00732113
0.00733345
0.00737084
0.00743721
0.00746512
0.00751144
0.00755591
0.00754055
0.00747605
0.00741224
0.00734922
0.00726757
0.00710426
0.0069606
0.00684096
0.00671437
0.0065872
0.00644083
0.00631334
0.00613537
0.00596169
0.00582499
0.00567575
0.00554307
0.00545338
0.0054138
0.00543116
0.0055157
0.00591196
0.00733727
0.00841447
0.00878058
0.00884654
0.00884025
0.00867682
0.00781698
0.00568895
0.00466028
0.00446651
0.00444515
0.00444469
0.00445986
0.0044909
0.00455357
0.00467969
0.0049151
0.00532346
0.00596885
0.00686767
0.00775316
0.00820285
0.00797709
0.00794545
0.00591529
0.00597691
0.0060013
0.00598473
0.005987
0.00583422
0.00574655
0.00563324
0.00550918
0.00540252
0.00535225
0.00534545
0.00534163
0.00533857
0.00533568
0.00534065
0.00533916
0.0053263
0.00530513
0.00527565
0.00523069
0.00518025
0.00512965
0.00506956
0.00501654
0.00499293
0.00499554
0.00501624
0.00519177
0.00597196
0.00761329
0.00861662
0.0088187
0.00882982
0.00868823
0.00795684
0.00598005
0.00474932
0.00448087
0.00444654
0.00444399
0.00445345
0.00447559
0.00451462
0.00459401
0.00474358
0.00501471
0.0054735
0.00617808
0.00713123
0.00806868
0.00825971
0.00828492
0.00814263
0.00454591
0.00460142
0.00465998
0.00471645
0.00478505
0.00482826
0.00488557
0.00492876
0.00495723
0.00499274
0.00504004
0.0050903
0.00512323
0.0051469
0.00515268
0.00515581
0.00515284
0.00513627
0.00510647
0.00506538
0.00501438
0.00496167
0.00490759
0.00485581
0.00481822
0.00480761
0.00480427
0.00488987
0.00526816
0.00632074
0.00820649
0.00874814
0.00880769
0.00870335
0.00809413
0.00630265
0.00487167
0.0045045
0.00444885
0.00444202
0.00444675
0.00446136
0.004484
0.00452821
0.00461515
0.00477663
0.0050635
0.00553818
0.00626535
0.00723556
0.00806284
0.00837745
0.00835532
0.00840937
0.00508966
0.00512827
0.00521333
0.00532673
0.00546291
0.00560058
0.00572566
0.00579626
0.0058305
0.00584404
0.00584209
0.00583526
0.00581703
0.00578006
0.00569046
0.00557423
0.00547265
0.00535546
0.00524988
0.00514331
0.00505088
0.00496967
0.00489161
0.00483456
0.004776
0.00472555
0.00474656
0.00490733
0.00540381
0.00731768
0.00858111
0.00875998
0.00870994
0.00820326
0.00657095
0.00501415
0.00453483
0.00445674
0.00443934
0.00444076
0.00445032
0.00446399
0.00448683
0.00453339
0.00462175
0.00478579
0.00507267
0.0055434
0.00625057
0.00719693
0.00789401
0.00855343
0.00836581
0.00855462
0.00725734
0.0074793
0.00767299
0.00782952
0.00789
0.00790627
0.00790112
0.00785495
0.00777716
0.00766925
0.0075221
0.00734381
0.00716944
0.00702533
0.00688738
0.00669979
0.00643535
0.00618265
0.00591563
0.00562249
0.0053909
0.00519748
0.00504885
0.00486602
0.0047441
0.00471746
0.00481446
0.00522302
0.00629126
0.00824213
0.00868122
0.00869374
0.00826997
0.00676684
0.00518384
0.0045641
0.00447224
0.00443647
0.00443558
0.00444131
0.00445112
0.00446251
0.00448191
0.00451851
0.00458596
0.00471341
0.00493713
0.00531535
0.00590192
0.0067135
0.0075622
0.0084205
0.00836532
0.00851881
0.00838852
0.00838976
0.00837777
0.00833494
0.00825433
0.00812093
0.00794113
0.00775733
0.00758075
0.00741174
0.00725625
0.00717003
0.00709453
0.00704184
0.00707999
0.0070939
0.00703572
0.00693433
0.00673783
0.00640337
0.00599605
0.00551327
0.00508204
0.00484945
0.00473527
0.00471912
0.00486605
0.00541021
0.00791892
0.00855902
0.00864469
0.00829218
0.00698996
0.00538187
0.00461387
0.00449475
0.00443459
0.00443207
0.00443371
0.00444238
0.00445006
0.00445971
0.0044761
0.00450086
0.00454619
0.00462549
0.00476925
0.00502138
0.00544339
0.00607669
0.00691988
0.00754451
0.00845822
0.00826929
0.00841615
0.00833022
0.00821078
0.0080294
0.00779025
0.00751685
0.00718421
0.00680035
0.00651755
0.00642532
0.00641246
0.00645755
0.00658362
0.00678336
0.00708309
0.00722427
0.00724047
0.00717133
0.00692735
0.0065034
0.00599127
0.0054599
0.00500802
0.00480171
0.00477867
0.00503063
0.00566273
0.00755556
0.00830572
0.00850747
0.00813715
0.00729247
0.00550377
0.00463767
0.00453065
0.00443377
0.00442845
0.00442729
0.00443337
0.0044401
0.00444464
0.00445137
0.00445796
0.00446846
0.00448622
0.0045175
0.00457389
0.00467419
0.00485718
0.00519117
0.0057311
0.00646247
0.00721299
0.00786569
0.00834429
0.00821214
0.00802122
0.00775702
0.00742452
0.00702098
0.00659174
0.00626042
0.00617099
0.0061454
0.00617487
0.00627786
0.00647557
0.00679112
0.00712566
0.00720539
0.0072232
0.00711849
0.00680226
0.00629543
0.00575338
0.00511093
0.00496278
0.00492431
0.00503755
0.00514801
0.00717358
0.00835825
0.00829615
0.00821135
0.00791589
0.00494664
0.00489823
0.00449461
0.00444784
0.00442306
0.00442086
0.00442471
0.00443151
0.0044366
0.00444071
0.00444551
0.0044494
0.00445451
0.00446152
0.0044734
0.00449359
0.00452922
0.00458964
0.00468752
0.00484558
0.00509984
0.0054882
0.00604377
0.00831698
0.00816165
0.00794607
0.00765372
0.00729107
0.00687317
0.00645543
0.00619555
0.00609523
0.00611384
0.00611975
0.00623678
0.00643383
0.00676501
0.00686662
0.00695497
0.00692706
0.00661747
0.00619879
0.0056208
0.00512743
0.00505649
0.00494589
0.0049524
0.00558111
0.00796309
0.00790362
0.00823846
0.00822032
0.00703386
0.00483785
0.00511743
0.00448975
0.00446253
0.00441515
0.00441525
0.00441671
0.00442214
0.00443024
0.00443236
0.00443753
0.00444034
0.0044437
0.00444566
0.00444781
0.00444984
0.00445303
0.00445855
0.00446982
0.00449062
0.00452602
0.00458007
0.00466142
0.00477445
0.00837092
0.00823595
0.00804084
0.00776102
0.0074125
0.00700149
0.00658405
0.00631869
0.00606969
0.00610505
0.00608943
0.0061404
0.00619749
0.00624704
0.00623908
0.00624015
0.005948
0.00586011
0.00539322
0.00535013
0.00524356
0.00527219
0.00573603
0.00637716
0.00746341
0.00812447
0.00805467
0.00798409
0.00647385
0.00511178
0.00510935
0.00460142
0.00443001
0.00442472
0.00440814
0.00440889
0.00441291
0.00442082
0.00442588
0.00443034
0.00443386
0.0044385
0.00444003
0.00444171
0.004442
0.00444119
0.0044398
0.00443784
0.00443555
0.00443366
0.00443288
0.00443389
0.00443831
0.00444859
0.00843889
0.00833125
0.00820913
0.00799438
0.00772094
0.00736031
0.00696592
0.00657737
0.00636811
0.00610229
0.00613701
0.0060869
0.00610595
0.00598438
0.00602185
0.0058034
0.00582232
0.0055813
0.00556604
0.00555601
0.00579755
0.00628288
0.00705238
0.00799415
0.0079233
0.00800509
0.00767822
0.0064041
0.00512927
0.00505994
0.00439152
0.00450974
0.00439931
0.00440364
0.00439996
0.00440304
0.00441168
0.00441714
0.00442153
0.00442907
0.00442991
0.00443539
0.00443614
0.00443825
0.00443855
0.00443819
0.00443607
0.00443275
0.00442842
0.00442349
0.00441814
0.00441233
0.00440678
0.0044008
0.00846314
0.00841446
0.00833473
0.00821625
0.00804932
0.00780878
0.00752046
0.0071808
0.00683451
0.00660678
0.00633138
0.0063417
0.00612287
0.00618237
0.00600249
0.00602987
0.00599756
0.00602463
0.00621011
0.00661444
0.00704814
0.00780266
0.00768407
0.00781226
0.00766246
0.00726786
0.00612031
0.00532593
0.00471372
0.0045903
0.0044786
0.00440017
0.00439047
0.00439058
0.00439116
0.00440394
0.00440678
0.00441306
0.0044218
0.00442161
0.00442947
0.00442971
0.0044335
0.00443454
0.00443541
0.00443532
0.00443341
0.00443032
0.00442573
0.0044215
0.00441569
0.00441026
0.0044041
0.00439787
0.00847655
0.00844445
0.00839899
0.008346
0.00827004
0.00817037
0.00802789
0.00785212
0.00764544
0.00742521
0.0072551
0.00702029
0.00701314
0.00681391
0.0068661
0.00691127
0.007071
0.00724648
0.00750019
0.00775271
0.00777025
0.007842
0.00774025
0.00771175
0.00703822
0.00594595
0.0048547
0.0049082
0.00455727
0.00444568
0.00440428
0.00438029
0.00437943
0.0043819
0.00439157
0.00439904
0.00440351
0.00440972
0.00441547
0.0044187
0.00442339
0.00442568
0.00442847
0.00443005
0.00443066
0.00443074
0.00442951
0.00442707
0.00442356
0.00441984
0.00441518
0.00441043
0.00440516
0.00440004
0.00846265
0.00842342
0.00841892
0.00833834
0.00835611
0.00823203
0.00824376
0.00813286
0.00807956
0.00798094
0.00790449
0.00782244
0.00779716
0.00772145
0.00774194
0.00773239
0.00777466
0.0077791
0.00778996
0.00776863
0.00769917
0.00751968
0.00706858
0.00607095
0.00496251
0.00529362
0.00460032
0.00463761
0.00441764
0.00439738
0.0043723
0.00436802
0.00437262
0.00438072
0.00438826
0.00439388
0.00439834
0.00440541
0.00440952
0.00441466
0.00441835
0.0044215
0.00442372
0.0044258
0.00442678
0.00442688
0.00442607
0.00442399
0.00442153
0.00441831
0.00441471
0.00441118
0.00440722
0.00440276
0.00839353
0.00838888
0.00835131
0.00830406
0.00830592
0.00821362
0.00822891
0.00814016
0.00811774
0.00805285
0.00801038
0.00795628
0.00791432
0.00786862
0.00783064
0.00778928
0.00774624
0.00768365
0.00756316
0.00732242
0.00684201
0.00619616
0.00547961
0.005074
0.00473707
0.00467979
0.00446687
0.00446044
0.00437139
0.00436899
0.00435873
0.00436068
0.00437179
0.00437616
0.00438399
0.00438891
0.00439433
0.00440099
0.00440526
0.00441053
0.00441345
0.00441743
0.00441959
0.00442267
0.00442347
0.00442384
0.00442303
0.00442229
0.00442022
0.00441921
0.0044167
0.00441539
0.00441258
0.00440979
0.00821618
0.00824906
0.00814221
0.00814916
0.00808116
0.0080572
0.00800802
0.00796249
0.00791715
0.00785639
0.00779951
0.00772843
0.007656
0.0075641
0.00745187
0.00729649
0.00707049
0.00671994
0.00631431
0.00585666
0.00543506
0.00510924
0.00469087
0.00474876
0.00447819
0.004489
0.00438301
0.00438387
0.00435427
0.00435051
0.00435054
0.00436102
0.00436724
0.00437351
0.00438005
0.00438516
0.00439106
0.00439689
0.00440177
0.00440576
0.004411
0.0044135
0.00441785
0.00441908
0.00442087
0.00442208
0.00442278
0.00442294
0.00442357
0.00442373
0.00442486
0.00442516
0.00442539
0.00442423
0.00791805
0.00779045
0.00768753
0.00753894
0.00741587
0.00727354
0.00714029
0.00701399
0.00688795
0.00677373
0.00664766
0.00652539
0.00637748
0.00621801
0.00602961
0.00581895
0.00558589
0.00537157
0.00514699
0.00493766
0.00475702
0.00461409
0.00453834
0.00442662
0.00441572
0.00435846
0.00435647
0.00434146
0.00434023
0.00434327
0.00435193
0.00435871
0.00436413
0.00437069
0.00437706
0.0043821
0.00438874
0.00439412
0.00439876
0.00440534
0.00440755
0.00441233
0.0044149
0.00441823
0.00442116
0.00442663
0.00442656
0.00443599
0.0044348
0.00444492
0.00444349
0.00445326
0.00445325
0.00445447
0.00720696
0.00697965
0.00671532
0.00647932
0.00622976
0.00602173
0.00583008
0.00567161
0.00554351
0.00542771
0.00533931
0.00525737
0.00518151
0.00510396
0.00501358
0.00491645
0.00481404
0.00472102
0.00462329
0.00453952
0.00449307
0.00440302
0.00441172
0.00435179
0.00435454
0.00433329
0.00433328
0.00433172
0.00433789
0.0043425
0.0043509
0.00435665
0.00436168
0.00437331
0.00437186
0.00438372
0.00438572
0.00439248
0.00439773
0.00440114
0.00440684
0.00441106
0.0044157
0.00442043
0.00443287
0.00443299
0.00445546
0.00444397
0.00447735
0.00446724
0.00449687
0.00449496
0.00451059
0.00451165
0.00624432
0.00597076
0.00578644
0.00555005
0.00536701
0.00519157
0.00503766
0.00492791
0.00483048
0.00476924
0.00471534
0.00467841
0.00464587
0.00461038
0.00456612
0.0045304
0.00449036
0.00444845
0.00442127
0.00437612
0.00437755
0.00434059
0.00434339
0.00432501
0.00432506
0.00432233
0.00432746
0.00432981
0.00433859
0.004342
0.00435316
0.00435252
0.00436539
0.0043665
0.00437342
0.00438036
0.00438422
0.00439135
0.0043963
0.00440236
0.00440791
0.00441551
0.00442578
0.00444072
0.00444483
0.00446879
0.00446286
0.0045065
0.00449969
0.00454864
0.00454417
0.00458442
0.00458383
0.00460047
0.0053231
0.00521577
0.00507686
0.0049368
0.00482685
0.00470777
0.00463547
0.00456076
0.00451148
0.00448624
0.00444464
0.00446565
0.00440633
0.00442363
0.0043817
0.00438144
0.00434829
0.00435411
0.0043275
0.00433014
0.00431748
0.00431619
0.00431415
0.00431313
0.004317
0.00432077
0.00432639
0.00433071
0.00434004
0.00434197
0.00435452
0.00435282
0.00436572
0.00436477
0.00437816
0.00437765
0.00438763
0.00439001
0.00440098
0.00440267
0.00441745
0.0044226
0.00444072
0.00444525
0.00446224
0.00447469
0.00449763