/*--------------------------------*- C++ -*----------------------------------*\
  =========                 |
  \\      /  F ield         | OpenFOAM: The Open Source CFD Toolbox
   \\    /   O peration     | Website:  https://openfoam.org
    \\  /    A nd           | Version:  10
     \\/     M anipulation  |
\*---------------------------------------------------------------------------*/
FoamFile
{
    format      ascii;
    class       volScalarField;
    location    "0.501606";
    object      p;
}
// * * * * * * * * * * * * * * * * * * * * * * * * * * * * * * * * * * * * * //

dimensions      [1 -1 -2 0 0 0 0];

internalField   nonuniform List<scalar> 
15984
(
2.39859
2.41072
2.42475
2.44061
2.4582
2.4773
2.49763
2.5188
2.54041
2.56202
2.58317
2.60347
2.62258
2.64024
2.65625
2.67052
2.68302
2.6938
2.70293
2.71054
2.71677
2.72179
2.72575
2.7288
2.7311
2.73276
2.73391
2.73464
2.73502
2.73512
2.73502
2.73473
2.73429
2.73372
2.73304
2.73221
2.73125
2.73014
2.72885
2.72736
2.72564
2.72367
2.72143
2.71886
2.71595
2.71267
2.70899
2.70488
2.70033
2.69532
2.68982
2.68385
2.67738
2.67044
2.39971
2.4117
2.42555
2.44108
2.45834
2.47705
2.497
2.51784
2.53918
2.56062
2.58171
2.60207
2.62135
2.63927
2.65564
2.67032
2.68329
2.69456
2.70421
2.71233
2.71906
2.72455
2.72895
2.73242
2.73509
2.73709
2.73852
2.73949
2.74006
2.74031
2.74029
2.74004
2.73958
2.73894
2.73812
2.73711
2.73593
2.73454
2.73294
2.7311
2.729
2.72661
2.72392
2.72089
2.7175
2.71373
2.70954
2.70493
2.69986
2.69433
2.68832
2.68184
2.67488
2.66743
2.40136
2.41321
2.42676
2.44194
2.45872
2.47696
2.49642
2.51681
2.53778
2.55893
2.57985
2.60017
2.61954
2.63766
2.65434
2.66943
2.68286
2.69463
2.70481
2.71347
2.72073
2.72674
2.73163
2.73555
2.73863
2.74099
2.74274
2.74397
2.74475
2.74516
2.74523
2.74504
2.74455
2.74385
2.7429
2.74171
2.7403
2.73864
2.73672
2.73452
2.73203
2.72922
2.72608
2.72259
2.71871
2.71443
2.70973
2.70459
2.69899
2.69292
2.68637
2.67935
2.67186
2.6639
2.40354
2.4152
2.42843
2.44318
2.45944
2.4771
2.49597
2.51579
2.53625
2.55699
2.57763
2.59781
2.61718
2.63544
2.65238
2.66784
2.68172
2.694
2.70472
2.71394
2.72177
2.72833
2.73374
2.73815
2.74167
2.74443
2.74652
2.74804
2.74906
2.74964
2.74983
2.74969
2.74922
2.74843
2.74736
2.746
2.74436
2.74243
2.7402
2.73764
2.73476
2.73153
2.72794
2.72397
2.7196
2.71481
2.70958
2.7039
2.69776
2.69113
2.68402
2.67643
2.66837
2.65985
2.40631
2.41772
2.43057
2.44483
2.46049
2.47749
2.49567
2.51481
2.53465
2.55487
2.57511
2.59504
2.61431
2.63264
2.64979
2.66557
2.67988
2.69267
2.70394
2.71375
2.72216
2.7293
2.73527
2.74019
2.74419
2.74737
2.74984
2.75167
2.75295
2.75373
2.75406
2.75398
2.75354
2.75269
2.7515
2.74998
2.74813
2.74593
2.74338
2.74048
2.73722
2.73358
2.72954
2.72509
2.72023
2.71492
2.70917
2.70294
2.69622
2.68902
2.68132
2.67312
2.66445
2.65531
2.40964
2.42078
2.4332
2.44691
2.46191
2.47816
2.49556
2.51392
2.53303
2.55261
2.57234
2.59191
2.611
2.62931
2.64659
2.66266
2.67737
2.69065
2.70247
2.71287
2.72189
2.72963
2.73619
2.74166
2.74617
2.74981
2.75268
2.75485
2.75641
2.75741
2.75789
2.7579
2.7575
2.75662
2.75533
2.75366
2.7516
2.74916
2.74632
2.74308
2.73944
2.73539
2.73092
2.72601
2.72065
2.71484
2.70854
2.70175
2.69445
2.68664
2.67832
2.66947
2.66013
2.65031
2.41354
2.42437
2.43632
2.44942
2.4637
2.47913
2.49567
2.51316
2.53143
2.55026
2.56938
2.58848
2.60728
2.62548
2.64284
2.65913
2.6742
2.68795
2.70032
2.71131
2.72096
2.72932
2.73648
2.74253
2.74758
2.75171
2.755
2.75755
2.75942
2.76065
2.76132
2.76144
2.76109
2.76021
2.75885
2.75705
2.75481
2.75213
2.74902
2.74547
2.74148
2.73704
2.73214
2.72678
2.72095
2.71462
2.70778
2.70043
2.69253
2.68409
2.67509
2.66555
2.65548
2.6449
2.41798
2.42847
2.43992
2.45237
2.46587
2.48042
2.49602
2.51256
2.52991
2.54789
2.56628
2.58481
2.60322
2.62123
2.63857
2.65502
2.67041
2.68459
2.69749
2.70908
2.71935
2.72835
2.73614
2.7428
2.74841
2.75305
2.7568
2.75975
2.76195
2.76346
2.76433
2.76459
2.76431
2.76347
2.76207
2.76016
2.75776
2.75488
2.75152
2.74768
2.74336
2.73856
2.73327
2.72748
2.72118
2.71435
2.70698
2.69905
2.69054
2.68143
2.67173
2.66143
2.65055
2.63912
2.42291
2.43305
2.44397
2.45573
2.46841
2.48204
2.49664
2.51216
2.5285
2.54554
2.5631
2.58097
2.59888
2.61659
2.63384
2.65038
2.66603
2.68061
2.69401
2.70618
2.71708
2.72672
2.73516
2.74244
2.74863
2.75382
2.75806
2.76144
2.764
2.76581
2.76692
2.76736
2.76718
2.7664
2.76498
2.763
2.76048
2.75743
2.75386
2.74976
2.74515
2.74001
2.73436
2.72816
2.72142
2.71411
2.70621
2.69771
2.68856
2.67877
2.66831
2.65719
2.64541
2.63301
2.42831
2.43807
2.44844
2.45947
2.47135
2.48397
2.49757
2.51199
2.52726
2.54327
2.55991
2.577
2.59433
2.61164
2.6287
2.64526
2.6611
2.67602
2.68989
2.70262
2.71413
2.72443
2.73352
2.74144
2.74825
2.754
2.75876
2.7626
2.76556
2.76771
2.76908
2.76972
2.76968
2.76901
2.76762
2.7656
2.763
2.75982
2.75606
2.75175
2.74689
2.74146
2.73547
2.72891
2.72175
2.71398
2.70557
2.69649
2.6867
2.67619
2.66493
2.65291
2.64013
2.62663
2.43409
2.44353
2.45331
2.46369
2.4746
2.48629
2.49874
2.51207
2.52616
2.54112
2.55674
2.57297
2.58961
2.60641
2.62319
2.6397
2.65567
2.67088
2.68517
2.69841
2.71053
2.72147
2.73122
2.7398
2.74724
2.75358
2.75889
2.76321
2.76661
2.76913
2.77081
2.7717
2.77183
2.77128
2.76998
2.76797
2.76532
2.76205
2.75817
2.75369
2.74861
2.74294
2.73666
2.72977
2.72224
2.71405
2.70514
2.69549
2.68506
2.67379
2.66165
2.64868
2.63476
2.62011
2.44039
2.44933
2.45865
2.46825
2.47827
2.48894
2.5003
2.51239
2.52532
2.53908
2.5536
2.56892
2.58481
2.60095
2.61736
2.63377
2.64977
2.66521
2.67985
2.69358
2.70627
2.71784
2.72826
2.73751
2.7456
2.75257
2.75845
2.76329
2.76714
2.77006
2.77209
2.77327
2.77363
2.77323
2.77206
2.77012
2.76747
2.76416
2.7602
2.7556
2.75036
2.74449
2.73798
2.73081
2.72295
2.71437
2.70501
2.69481
2.68373
2.6717
2.65866
2.6446
2.62949
2.61344
2.44703
2.4556
2.46428
2.47316
2.48232
2.49198
2.50211
2.51305
2.52464
2.53723
2.55066
2.56491
2.57991
2.59545
2.61131
2.62743
2.64343
2.65898
2.67394
2.6881
2.70134
2.71354
2.72463
2.73457
2.74334
2.75096
2.75745
2.76284
2.76719
2.77054
2.77294
2.77443
2.77506
2.77487
2.77389
2.77205
2.76946
2.76616
2.76217
2.7575
2.75216
2.74615
2.73946
2.73207
2.72393
2.715
2.70523
2.69452
2.6828
2.66998
2.65603
2.64079
2.62443
2.60704
2.45395
2.46215
2.47027
2.47841
2.48669
2.49532
2.50431
2.51398
2.52435
2.53567
2.54786
2.56104
2.57501
2.58982
2.60512
2.62081
2.63661
2.65223
2.66743
2.68199
2.69575
2.70856
2.72033
2.73096
2.74043
2.74873
2.75586
2.76186
2.76676
2.77059
2.77339
2.77522
2.77614
2.77618
2.77543
2.77377
2.77129
2.76805
2.76408
2.7594
2.75401
2.74793
2.74112
2.73356
2.72521
2.71599
2.70586
2.69466
2.68237
2.66875
2.65392
2.63758
2.62014
2.60147
2.46113
2.46898
2.47657
2.48401
2.49143
2.499
2.5069
2.51534
2.5244
2.53436
2.54535
2.55726
2.57022
2.58405
2.59865
2.61387
2.62945
2.64501
2.66037
2.67525
2.68949
2.70289
2.71531
2.72665
2.73684
2.74584
2.75366
2.76029
2.76578
2.77015
2.77343
2.77567
2.7769
2.77721
2.77667
2.77525
2.77293
2.76981
2.76592
2.76129
2.75592
2.74981
2.74295
2.7353
2.7268
2.71736
2.70691
2.69528
2.68246
2.6681
2.65253
2.63515
2.61696
2.5968
2.46853
2.47608
2.48317
2.48993
2.49652
2.5031
2.50988
2.51704
2.52486
2.53342
2.54303
2.55372
2.56545
2.5783
2.59204
2.6067
2.62186
2.63728
2.6527
2.66785
2.68252
2.69649
2.70956
2.7216
2.73253
2.74227
2.7508
2.75813
2.76426
2.76921
2.77302
2.77572
2.77735
2.77797
2.77764
2.77647
2.77438
2.77143
2.76767
2.76314
2.75784
2.75178
2.74493
2.73725
2.72868
2.7191
2.70841
2.69643
2.68317
2.66821
2.65219
2.63408
2.61326
2.58958
2.47614
2.48342
2.49006
2.4962
2.50198
2.50759
2.51327
2.51918
2.52568
2.53286
2.54107
2.55034
2.56087
2.57254
2.58536
2.59919
2.61387
2.62902
2.64441
2.65976
2.6748
2.68929
2.70301
2.71577
2.72745
2.73796
2.74726
2.75533
2.76215
2.76775
2.77214
2.77536
2.77744
2.77844
2.77837
2.77743
2.77559
2.77286
2.76928
2.7649
2.75973
2.75377
2.74701
2.73938
2.73081
2.72118
2.71034
2.6981
2.68454
2.66913
2.65259
2.63406
2.60689
2.584
2.48394
2.49102
2.49726
2.50282
2.50784
2.51252
2.51709
2.52179
2.52691
2.5327
2.53942
2.54728
2.55635
2.56681
2.5785
2.59147
2.60542
2.6202
2.63544
2.6509
2.66626
2.68125
2.69559
2.70908
2.72154
2.73287
2.74298
2.75183
2.75941
2.76572
2.77076
2.77455
2.77713
2.77854
2.77884
2.77815
2.77652
2.77403
2.77069
2.7665
2.76151
2.75572
2.7491
2.7416
2.73313
2.72354
2.71264
2.70022
2.68647
2.67114
2.65156
2.63102
2.60957
2.58269
2.49189
2.49887
2.50479
2.50982
2.51413
2.51792
2.52141
2.52488
2.52863
2.53296
2.53815
2.54448
2.55204
2.5611
2.57154
2.58342
2.59656
2.6107
2.62569
2.64116
2.65678
2.67224
2.68721
2.70143
2.7147
2.72688
2.73786
2.74757
2.75598
2.76307
2.76882
2.77324
2.77637
2.77825
2.77894
2.77855
2.77716
2.77488
2.77179
2.76785
2.76309
2.75751
2.7511
2.74381
2.73552
2.72608
2.71528
2.70294
2.68888
2.67229
2.65446
2.63224
2.6073
2.57874
2.5
2.50697
2.51266
2.51724
2.52088
2.52382
2.52626
2.5285
2.53086
2.53366
2.53728
2.54196
2.54796
2.55539
2.56443
2.57498
2.58712
2.60048
2.61505
2.63045
2.64627
2.66213
2.67772
2.6927
2.70681
2.71989
2.73179
2.74243
2.75176
2.75971
2.76625
2.77138
2.77511
2.77749
2.77861
2.77854
2.77744
2.77534
2.7725
2.76884
2.76433
2.75901
2.75288
2.74586
2.73786
2.72873
2.71822
2.70612
2.69177
2.67622
2.65462
2.63074
2.60439
2.57543
2.50825
2.51534
2.5209
2.52511
2.52815
2.53028
2.53168
2.53271
2.53365
2.53487
2.53684
2.53979
2.54403
2.54973
2.55712
2.5661
2.57699
2.58941
2.60348
2.61862
2.63455
2.6507
2.66692
2.68268
2.69766
2.71169
2.7246
2.73627
2.7466
2.75552
2.76295
2.76886
2.77326
2.77618
2.77775
2.77803
2.77723
2.77537
2.7727
2.76931
2.7651
2.76009
2.75427
2.74761
2.74
2.7313
2.72142
2.70972
2.69507
2.67601
2.65371
2.62944
2.60286
2.57351
2.51666
2.52399
2.52953
2.53347
2.53598
2.5373
2.53771
2.5375
2.53697
2.53658
2.53689
2.53799
2.54033
2.54411
2.54958
2.55688
2.56618
2.5774
2.59066
2.60569
2.62142
2.63796
2.65477
2.6713
2.68712
2.70214
2.71611
2.72888
2.74034
2.75034
2.75878
2.76556
2.77068
2.77419
2.77622
2.77688
2.77636
2.77478
2.77228
2.76913
2.76524
2.76056
2.7551
2.74884
2.74167
2.73363
2.72468
2.71271
2.6949
2.67464
2.65243
2.62805
2.6012
2.57153
2.52525
2.53294
2.53858
2.54233
2.54435
2.54493
2.54439
2.54284
2.54086
2.5388
2.53727
2.53656
2.53696
2.53868
2.542
2.54724
2.55476
2.56457
2.57678
2.59119
2.60692
2.62362
2.64104
2.65857
2.67524
2.69128
2.70624
2.72011
2.73276
2.74399
2.75357
2.76133
2.76724
2.77138
2.77388
2.77492
2.77471
2.77341
2.77113
2.76816
2.76459
2.76028
2.75522
2.74942
2.74279
2.73521
2.72425
2.71063
2.69199
2.67224
2.65027
2.62593
2.59898
2.56929
2.53403
2.5422
2.54802
2.55165
2.55327
2.55315
2.55163
2.54877
2.54518
2.54144
2.53803
2.53546
2.53379
2.53367
2.53478
2.5374
2.54316
2.55106
2.5623
2.57617
2.59126
2.60801
2.62645
2.64402
2.66165
2.67902
2.695
2.71
2.72389
2.73639
2.74719
2.75601
2.76278
2.76758
2.77057
2.77201
2.77211
2.7711
2.76908
2.76627
2.76301
2.75909
2.7545
2.74927
2.74327
2.73549
2.72147
2.70623
2.68864
2.66904
2.64723
2.62303
2.59623
2.56669
2.54311
2.55176
2.5578
2.56135
2.56258
2.56187
2.55925
2.5551
2.54993
2.54453
2.53905
2.53481
2.53105
2.5296
2.52755
2.5282
2.53041
2.53733
2.54774
2.56067
2.57622
2.59199
2.61402
2.62985
2.64655
2.66518
2.6828
2.69892
2.71383
2.72759
2.73963
2.74953
2.75716
2.76263
2.76614
2.76798
2.76842
2.76772
2.76602
2.76353
2.76041
2.75685
2.75281
2.74815
2.74195
2.7317
2.71725
2.70174
2.68436
2.66497
2.64341
2.61947
2.59299
2.56383
2.5525
2.56159
2.56783
2.57129
2.57215
2.57082
2.56707
2.56165
2.55484
2.54791
2.53949
2.53476
2.52771
2.52701
2.51965
2.51544
2.51693
2.52111
2.52856
2.53918
2.55301
2.56806
2.58863
2.60746
2.63096
2.65133
2.66966
2.68682
2.70264
2.71764
2.73091
2.74186
2.75033
2.75645
2.76047
2.76273
2.76355
2.76318
2.76181
2.75958
2.75671
2.75346
2.74992
2.7448
2.73752
2.72564
2.71155
2.69615
2.67899
2.65992
2.63874
2.61522
2.58917
2.56053
2.56221
2.57157
2.57787
2.58123
2.58169
2.57964
2.57482
2.56822
2.55993
2.55182
2.5398
2.53308
2.5304
2.519
2.51126
2.50577
2.5036
2.50462
2.50901
2.51758
2.52952
2.54448
2.56357
2.58417
2.61021
2.63452
2.65228
2.67272
2.69037
2.70676
2.72118
2.73307
2.74228
2.74899
2.7535
2.7562
2.75742
2.75745
2.75649
2.75464
2.75202
2.74868
2.74441
2.73786
2.72999
2.71777
2.70422
2.68913
2.67238
2.65378
2.6331
2.61013
2.58467
2.55677
2.57195
2.58137
2.58763
2.59079
2.59076
2.58794
2.58225
2.57465
2.56576
2.55442
2.54375
2.5344
2.52456
2.51384
2.50426
2.49637
2.49124
2.48971
2.49198
2.49787
2.50821
2.5227
2.54095
2.56163
2.58738
2.61367
2.6348
2.65799
2.67754
2.6952
2.7106
2.72323
2.73306
2.74027
2.74524
2.74838
2.75004
2.75053
2.75004
2.74875
2.74682
2.74411
2.73992
2.73221
2.72021
2.70821
2.69513
2.68057
2.6644
2.64641
2.62636
2.60405
2.57935
2.55226
2.58118
2.59056
2.59669
2.59949
2.59891
2.59553
2.58921
2.5808
2.57081
2.55894
2.54888
2.53682
2.52405
2.5108
2.49858
2.48791
2.47943
2.47521
2.47503
2.47851
2.48716
2.50047
2.5189
2.53972
2.56511
2.5938
2.61816
2.64281
2.66427
2.68319
2.69932
2.71246
2.72267
2.73026
2.73565
2.73925
2.7414
2.74241
2.74255
2.74196
2.7403
2.73557
2.72833
2.71885
2.70834
2.69685
2.68438
2.67051
2.65502
2.63772
2.61839
2.5968
2.57307
2.54683
2.58943
2.59865
2.60445
2.60685
2.60605
2.60261
2.5951
2.58781
2.57912
2.5676
2.55456
2.5401
2.52466
2.5088
2.49387
2.47959
2.4684
2.46113
2.4588
2.46121
2.46853
2.48102
2.49785
2.51865
2.54491
2.5749
2.60114
2.627
2.6509
2.67074
2.68733
2.70075
2.7112
2.71907
2.72483
2.72887
2.73156
2.73314
2.73364
2.73275
2.73028
2.72308
2.71448
2.7053
2.69532
2.68428
2.67227
2.65906
2.64425
2.62765
2.60907
2.58832
2.56553
2.54037
2.59611
2.60489
2.61029
2.61278
2.61189
2.60998
2.60558
2.5982
2.58795
2.57506
2.56022
2.54381
2.52619
2.50778
2.48958
2.47296
2.45887
2.45021
2.4469
2.4484
2.45483
2.4663
2.48155
2.50236
2.52911
2.55852
2.5901
2.61644
2.63881
2.65843
2.67492
2.68833
2.69888
2.70697
2.71301
2.71738
2.72039
2.72204
2.72243
2.72142
2.71587
2.70785
2.69938
2.69064
2.68108
2.6705
2.65893
2.64626
2.63206
2.61614
2.59831
2.57845
2.55657
2.53274
2.60084
2.60924
2.61461
2.61872
2.62127
2.62015
2.61527
2.60699
2.59575
2.58187
2.56576
2.54777
2.52833
2.50815
2.48661
2.46599
2.44986
2.43952
2.43518
2.43629
2.44141
2.45175
2.46927
2.49124
2.51929
2.5491
2.57919
2.60523
2.62716
2.64627
2.66238
2.67554
2.68602
2.69419
2.70041
2.70482
2.70745
2.7085
2.70854
2.70527
2.69882
2.69125
2.6834
2.67502
2.66582
2.65563
2.64442
2.63212
2.61847
2.60317
2.58607
2.5671
2.5462
2.52361
2.60463
2.61567
2.62443
2.62912
2.63009
2.62793
2.62268
2.61405
2.60236
2.58793
2.57104
2.55211
2.53159
2.50794
2.48518
2.46412
2.44498
2.43347
2.42665
2.42718
2.43478
2.44653
2.46146
2.48256
2.51533
2.54729
2.57242
2.59591
2.61655
2.63459
2.64998
2.66259
2.6728
2.68091
2.68701
2.69067
2.6925
2.69267
2.69051
2.68713
2.6806
2.67383
2.66646
2.65843
2.64957
2.63974
2.62877
2.61675
2.60354
2.58878
2.57236
2.55423
2.5344
2.51296
2.61304
2.62398
2.63178
2.63596
2.63671
2.63412
2.6286
2.62
2.60827
2.59367
2.57657
2.5575
2.5357
2.51265
2.48975
2.46967
2.4464
2.43287
2.42694
2.42823
2.43557
2.44677
2.46337
2.47792
2.5066
2.53995
2.56539
2.58752
2.60689
2.62374
2.63792
2.64982
2.65956
2.6671
2.67255
2.67606
2.67437
2.67515
2.67213
2.66772
2.66201
2.6557
2.64871
2.64098
2.63241
2.62284
2.61214
2.60027
2.58733
2.57306
2.55725
2.53992
2.52111
2.50093
2.61816
2.62889
2.63655
2.64069
2.64155
2.63917
2.63375
2.6254
2.61399
2.59988
2.5837
2.56454
2.54524
2.52298
2.50033
2.47941
2.46108
2.44684
2.44039
2.44092
2.44787
2.45835
2.4705
2.49594
2.51393
2.53955
2.56093
2.58078
2.59824
2.61331
2.62597
2.6366
2.64529
2.6529
2.65948
2.65804
2.65839
2.65583
2.65268
2.6483
2.64304
2.63705
2.63032
2.62281
2.61443
2.60507
2.59455
2.58283
2.57004
2.55615
2.54091
2.52433
2.50648
2.48752
2.62165
2.63218
2.6398
2.64411
2.64527
2.64338
2.63853
2.63084
2.62056
2.60809
2.59271
2.57586
2.55728
2.53743
2.51741
2.49831
2.48122
2.46843
2.46189
2.46101
2.46166
2.46992
2.48517
2.50486
2.52174
2.54041
2.55886
2.57592
2.5911
2.60438
2.6156
2.62397
2.63114
2.63691
2.642
2.64059
2.63827
2.63644
2.633
2.62891
2.62386
2.61806
2.61146
2.60409
2.59581
2.58655
2.57619
2.56464
2.5519
2.53823
2.52353
2.50766
2.49074
2.47294
2.62423
2.63468
2.64245
2.64711
2.64874
2.64755
2.64357
2.63711
2.62881
2.6167
2.60374
2.58883
2.5722
2.55466
2.53695
2.51964
2.50306
2.49056
2.48335
2.48095
2.48464
2.49161
2.50093
2.51472
2.52894
2.54355
2.5586
2.57211
2.58464
2.59548
2.60519
2.61337
2.61916
2.62134
2.62138
2.62154
2.61924
2.61722
2.61377
2.60969
2.6047
2.59895
2.59236
2.585
2.57672
2.56748
2.5572
2.54577
2.53322
2.51968
2.50537
2.49017
2.47412
2.45741
2.6268
2.63733
2.64539
2.65055
2.65275
2.6524
2.64952
2.64446
2.63735
2.62765
2.61622
2.6031
2.58847
2.57292
2.55681
2.54104
2.52644
2.5153
2.50792
2.50469
2.50535
2.50989
2.5167
2.52624
2.53717
2.54844
2.55998
2.57093
2.5811
2.5899
2.59598
2.60093
2.6036
2.60449
2.60425
2.60325
2.60118
2.59864
2.59515
2.59089
2.58581
2.57994
2.57324
2.56574
2.55737
2.54807
2.5378
2.52648
2.5141
2.50075
2.48671
2.4721
2.45688
2.44121
2.63018
2.6409
2.64933
2.65503
2.65786
2.65838
2.65682
2.65321
2.64686
2.639
2.62932
2.61793
2.60506
2.59112
2.57659
2.56239
2.54931
2.5388
2.53109
2.52694
2.52604
2.52797
2.53233
2.5385
2.54596
2.55408
2.56217
2.56891
2.57765
2.58432
2.59286
2.58862
2.59046
2.58945
2.58865
2.58688
2.5844
2.58129
2.57742
2.57281
2.56742
2.56127
2.55432
2.54658
2.538
2.52856
2.51823
2.50698
2.4948
2.48171
2.4679
2.45373
2.43929
2.42457
2.63501
2.64596
2.65475
2.66091
2.6643
2.66571
2.6657
2.66157
2.65735
2.65089
2.64269
2.63277
2.62138
2.60889
2.59588
2.58309
2.57128
2.5613
2.55355
2.54839
2.54602
2.54593
2.54767
2.55099
2.5555
2.56018
2.56517
2.57017
2.5746
2.57533
2.5809
2.58014
2.57817
2.57703
2.57493
2.57236
2.56911
2.5653
2.56082
2.55567
2.5498
2.5432
2.53584
2.52773
2.51885
2.5092
2.49875
2.48751
2.47549
2.46273
2.44931
2.43546
2.42156
2.4077
2.64177
2.65289
2.66193
2.66837
2.6721
2.67411
2.67461
2.67153
2.66843
2.66302
2.656
2.64725
2.63706
2.62586
2.61411
2.60251
2.59161
2.58209
2.57431
2.56849
2.56469
2.56282
2.56244
2.56319
2.56514
2.56751
2.57015
2.57288
2.56952
2.57324
2.5728
2.5721
2.5693
2.56666
2.56347
2.55974
2.55558
2.55086
2.54559
2.5397
2.53316
2.52594
2.51803
2.50944
2.50016
2.49021
2.4796
2.46833
2.45644
2.44398
2.431
2.41762
2.4041
2.3908
2.6504
2.66161
2.67083
2.67771
2.68159
2.68434
2.68376
2.68263
2.67976
2.67528
2.66906
2.66116
2.65191
2.64166
2.63087
2.62015
2.60988
2.60077
2.59286
2.58662
2.5818
2.57839
2.57594
2.57447
2.57343
2.57462
2.57473
2.57288
2.57126
2.56977
2.56868
2.5666
2.56274
2.55872
2.55423
2.5493
2.54398
2.5382
2.53193
2.52513
2.51773
2.50973
2.50112
2.49193
2.48216
2.47185
2.46101
2.44968
2.43789
2.42569
2.41313
2.40027
2.38724
2.37429
2.66115
2.67219
2.68134
2.68862
2.69442
2.69421
2.6947
2.69395
2.69154
2.68747
2.68171
2.67434
2.66569
2.65609
2.64599
2.63588
2.62609
2.61714
2.60945
2.60268
2.59729
2.59282
2.58927
2.58643
2.58456
2.58255
2.5794
2.57776
2.57577
2.57081
2.5687
2.56375
2.5589
2.5532
2.54739
2.54107
2.53446
2.52747
2.52003
2.51212
2.5037
2.49477
2.48533
2.47541
2.46506
2.45431
2.4432
2.43178
2.42007
2.4081
2.39591
2.38353
2.37102
2.35848
2.67452
2.68513
2.6937
2.70121
2.70698
2.70588
2.70692
2.7062
2.70373
2.69956
2.69391
2.68673
2.67833
2.66905
2.65935
2.64959
2.64022
2.63147
2.62361
2.61678
2.61084
2.60575
2.60151
2.59744
2.59332
2.58915
2.59058
2.58402
2.57928
2.57404
2.56943
2.5636
2.55702
2.55006
2.54272
2.53509
2.5271
2.51875
2.51001
2.50085
2.49125
2.48123
2.47082
2.46007
2.44903
2.43778
2.42637
2.41483
2.40318
2.39144
2.3796
2.36764
2.35558
2.34345
2.6904
2.70055
2.70852
2.71546
2.72075
2.71969
2.72028
2.71907
2.71601
2.71142
2.70558
2.69826
2.68978
2.68053
2.67096
2.66149
2.65239
2.64389
2.6362
2.62931
2.62307
2.61742
2.61235
2.6087
2.60067
2.60039
2.59843
2.59161
2.58443
2.5783
2.57233
2.56517
2.5576
2.54924
2.54047
2.53136
2.5219
2.5121
2.50194
2.4914
2.4805
2.46926
2.45775
2.44604
2.43423
2.4224
2.41063
2.39896
2.3874
2.37591
2.36444
2.35289
2.3412
2.32935
2.70919
2.7189
2.72622
2.73184
2.73694
2.73594
2.73361
2.73204
2.72808
2.72313
2.71679
2.70904
2.70022
2.69077
2.68115
2.67176
2.66284
2.65439
2.64665
2.63962
2.63305
2.62796
2.62393
2.61943
2.61231
2.6085
2.60726
2.59842
2.5924
2.58474
2.57742
2.56857
2.55992
2.5502
2.54022
2.52969
2.51878
2.50749
2.49584
2.48383
2.4715
2.45893
2.44619
2.43341
2.42072
2.40825
2.39609
2.38429
2.37286
2.36171
2.35069
2.33961
2.32828
2.31659
2.73102
2.74035
2.74679
2.75039
2.75225
2.75383
2.75041
2.74651
2.74052
2.73474
2.72768
2.7192
2.7097
2.69965
2.68956
2.67993
2.671
2.66251
2.65485
2.64857
2.64417
2.63959
2.63501
2.62835
2.62347
2.6214
2.61454
2.60786
2.60028
2.59231
2.58348
2.57401
2.56379
2.55297
2.54166
2.5299
2.51759
2.50481
2.49163
2.47809
2.46426
2.45023
2.43614
2.42218
2.40851
2.39532
2.38274
2.37087
2.35969
2.34905
2.33867
2.32823
2.31736
2.30581
2.75591
2.76527
2.77099
2.77305
2.77271
2.77063
2.76861
2.76381
2.75134
2.74648
2.73766
2.72783
2.71746
2.70663
2.69602
2.68647
2.67851
2.67125
2.66476
2.6587
2.6531
2.64882
2.64469
2.63895
2.63428
2.62992
2.62335
2.61699
2.60888
2.60007
2.59057
2.58028
2.56914
2.55721
2.54469
2.53158
2.518
2.50385
2.48918
2.47408
2.45867
2.44309
2.42754
2.41225
2.39749
2.38351
2.37052
2.35864
2.3479
2.33807
2.3287
2.31927
2.30915
2.29774
2.78272
2.79251
2.7984
2.80032
2.79909
2.79432
2.78716
2.77865
2.76742
2.76031
2.74864
2.73715
2.726
2.71476
2.70415
2.69429
2.68483
2.67737
2.6713
2.66606
2.66141
2.65663
2.653
2.64977
2.64374
2.6389
2.63226
2.62537
2.6171
2.60784
2.59786
2.58684
2.57511
2.56241
2.54903
2.53478
2.51989
2.50439
2.48828
2.47162
2.45457
2.43734
2.42019
2.40344
2.38748
2.37264
2.35922
2.34757
2.33752
2.32892
2.32115
2.31333
2.30437
2.29347
2.81046
2.82083
2.82713
2.82937
2.82818
2.82273
2.81351
2.80163
2.78895
2.77635
2.75962
2.7465
2.73331
2.72046
2.70898
2.69908
2.69045
2.68337
2.67759
2.6725
2.66877
2.66395
2.66064
2.65707
2.6517
2.64675
2.64004
2.63303
2.62453
2.61515
2.60483
2.59349
2.58133
2.56807
2.554
2.53896
2.52302
2.50622
2.4887
2.47049
2.45177
2.43276
2.41387
2.39549
2.37817
2.36238
2.34861
2.33725
2.32832
2.32158
2.31622
2.31099
2.30411
2.29397
2.83801
2.84894
2.85562
2.85808
2.85678
2.85074
2.84025
2.82614
2.8098
2.79274
2.77404
2.75663
2.7405
2.72582
2.71316
2.70266
2.69414
2.68735
2.68195
2.67736
2.67392
2.66982
2.66654
2.66293
2.65809
2.65309
2.64659
2.63943
2.63103
2.62173
2.61122
2.59994
2.58742
2.57393
2.55934
2.54367
2.52691
2.50907
2.49019
2.47046
2.44996
2.42908
2.40826
2.38803
2.36923
2.35236
2.3382
2.32737
2.3201
2.31595
2.31399
2.31252
2.30889
2.30022
2.86449
2.87584
2.88263
2.88513
2.88344
2.87632
2.86423
2.84774
2.82831
2.80703
2.78518
2.76449
2.7456
2.72909
2.71534
2.70428
2.69564
2.68903
2.684
2.68005
2.67684
2.67367
2.67059
2.66707
2.66277
2.65772
2.65166
2.64455
2.6364
2.62737
2.61706
2.60571
2.59327
2.57963
2.56478
2.54869
2.5313
2.51259
2.49253
2.47121
2.44893
2.42607
2.403
2.3809
2.36009
2.34187
2.32723
2.31719
2.31233
2.31135
2.31379
2.31764
2.31924
2.3134
2.88895
2.90062
2.90744
2.90973
2.90716
2.89876
2.88471
2.86567
2.84295
2.81817
2.79305
2.76926
2.74798
2.72979
2.71508
2.70362
2.69495
2.68857
2.68392
2.68048
2.67775
2.67517
2.67249
2.66933
2.66547
2.66077
2.65512
2.64843
2.64072
2.63195
2.62203
2.61097
2.59872
2.58517
2.57028
2.55394
2.53608
2.51661
2.49547
2.47269
2.44854
2.42333
2.39809
2.37336
2.35035
2.33026
2.31469
2.30602
2.30343
2.30635
2.31426
2.32411
2.33163
2.33099
2.91058
2.92253
2.92927
2.93108
2.92759
2.9176
2.90139
2.87959
2.85369
2.82559
2.79748
2.77095
2.74759
2.72797
2.71234
2.70061
2.69202
2.68599
2.68182
2.67887
2.67662
2.67456
2.67234
2.66967
2.66633
2.66217
2.65706
2.65094
2.6438
2.63556
2.62618
2.61559
2.60374
2.59051
2.57577
2.5594
2.54125
2.52116
2.49902
2.47478
2.44872
2.42111
2.39298
2.36533
2.33935
2.31664
2.29984
2.29224
2.29164
2.29849
2.31054
2.32519
2.33667
2.33956
2.66303
2.65516
2.64687
2.63821
2.62918
2.61988
2.61042
2.60088
2.59138
2.58202
2.57293
2.56422
2.55602
2.54844
2.54158
2.53553
2.53035
2.52605
2.52268
2.52016
2.65958
2.65126
2.64254
2.63352
2.6242
2.61464
2.60497
2.59531
2.58578
2.5765
2.56761
2.55922
2.55145
2.54443
2.53823
2.53294
2.5286
2.52521
2.52272
2.52112
2.65552
2.64672
2.63757
2.62812
2.61846
2.60862
2.5987
2.58887
2.57928
2.57005
2.56133
2.55324
2.54591
2.53944
2.53391
2.52939
2.52589
2.5234
2.52184
2.5211
2.65091
2.64158
2.63191
2.622
2.61191
2.60173
2.59153
2.58149
2.57177
2.56256
2.55398
2.54618
2.53927
2.53335
2.5285
2.52475
2.52211
2.52051
2.51986
2.52003
2.64575
2.63582
2.62557
2.6151
2.6045
2.5939
2.58337
2.57305
2.56316
2.5539
2.54543
2.53789
2.53139
2.52603
2.52186
2.5189
2.51711
2.51641
2.51665
2.51774
2.64007
2.62944
2.61852
2.60739
2.59618
2.58503
2.57408
2.56343
2.5533
2.54393
2.53552
2.52822
2.52213
2.51733
2.51385
2.51168
2.51076
2.51094
2.5121
2.51421
2.63387
2.62245
2.61073
2.59882
2.58687
2.57504
2.56352
2.55245
2.542
2.53247
2.52408
2.51698
2.51129
2.50706
2.5043
2.50294
2.5029
2.50396
2.50621
2.50925
2.62719
2.61484
2.60217
2.58932
2.57645
2.56378
2.55152
2.5399
2.52907
2.5193
2.51087
2.50397
2.49868
2.49505
2.49302
2.49252
2.49332
2.49551
2.49875
2.50278
2.62004
2.60659
2.59278
2.57878
2.5648
2.55108
2.53789
2.52553
2.5142
2.50413
2.49563
2.48891
2.48406
2.48106
2.47982
2.48015
2.48199
2.4853
2.48964
2.49466
2.61245
2.59769
2.58251
2.56709
2.55173
2.5367
2.52234
2.50903
2.49706
2.48663
2.47804
2.47152
2.46715
2.46484
2.46444
2.46568
2.46872
2.47327
2.47879
2.4848
2.60452
2.58822
2.57137
2.55414
2.53708
2.52042
2.50463
2.49013
2.47733
2.46645
2.45774
2.45146
2.44763
2.44609
2.44655
2.44896
2.45335
2.45921
2.46593
2.4732
2.59625
2.57839
2.55958
2.54009
2.52089
2.50217
2.4846
2.46864
2.45464
2.44325
2.43443
2.42845
2.42526
2.42462
2.42595
2.42985
2.43562
2.4429
2.45103
2.45971
2.58767
2.56857
2.54772
2.52562
2.50422
2.48266
2.46285
2.44505
2.42922
2.41684
2.40791
2.40235
2.39982
2.40022
2.40256
2.40787
2.41529
2.42416
2.43401
2.44426
2.58044
2.55786
2.53519
2.51117
2.48679
2.46119
2.43829
2.41807
2.40078
2.3879
2.37823
2.37347
2.3715
2.37307
2.37598
2.3831
2.39231
2.40315
2.41484
2.4269
2.57172
2.54696
2.51815
2.491
2.46555
2.44145
2.41609
2.39212
2.37306
2.35374
2.34439
2.33907
2.33929
2.3429
2.3462
2.35537
2.36739
2.38018
2.39374
2.40762
2.56075
2.53801
2.51035
2.48008
2.44857
2.41798
2.38816
2.361
2.33756
2.31833
2.30766
2.29678
2.30231
2.30927
2.31075
2.32627
2.34026
2.35599
2.37113
2.38691
2.55889
2.52961
2.49759
2.46307
2.42722
2.3924
2.35958
2.32905
2.30452
2.28315
2.26884
2.26053
2.26073
2.26925
2.2769
2.28764
2.31215
2.33061
2.34783
2.3652
2.55304
2.52033
2.48504
2.4484
2.41062
2.37423
2.33849
2.30665
2.27777
2.25282
2.23656
2.22618
2.22316
2.22829
2.2408
2.25723
2.27632
2.30154
2.32285
2.34266
2.54729
2.51327
2.47642
2.43706
2.39601
2.3562
2.31774
2.28423
2.25405
2.22758
2.20746
2.19472
2.19049
2.19297
2.20526
2.22615
2.24964
2.27049
2.29594
2.31937
2.54354
2.50842
2.47024
2.4293
2.38685
2.3449
2.30522
2.26952
2.23757
2.20928
2.18602
2.16974
2.16264
2.16441
2.17553
2.19489
2.22294
2.24672
2.26691
2.29626
2.54113
2.50551
2.46659
2.42447
2.38177
2.3384
2.29747
2.2604
2.22695
2.19716
2.17163
2.15224
2.14127
2.14143
2.15157
2.1703
2.19577
2.2212
2.24555
2.27533
2.53893
2.50325
2.46495
2.42408
2.38013
2.33534
2.29314
2.25607
2.22174
2.19146
2.16543
2.14447
2.13003
2.12505
2.13413
2.15125
2.17415
2.20027
2.2264
2.256
2.53667
2.50117
2.46293
2.42237
2.37985
2.33802
2.29646
2.25588
2.21967
2.1901
2.16434
2.1427
2.12528
2.12
2.12507
2.13946
2.15996
2.18408
2.20901
2.23878
2.53441
2.49929
2.46167
2.4221
2.38118
2.33997
2.30042
2.26192
2.22693
2.19363
2.16619
2.14495
2.12892
2.12095
2.12071
2.13403
2.15041
2.17135
2.19755
2.22472
2.53197
2.4974
2.46063
2.42203
2.38245
2.34266
2.30395
2.26744
2.23436
2.20372
2.17775
2.1554
2.13628
2.12649
2.12451
2.1307
2.14418
2.16399
2.18735
2.21382
2.52927
2.49546
2.45959
2.42209
2.38373
2.34545
2.30812
2.27279
2.24006
2.21074
2.1852
2.16419
2.14826
2.13678
2.13119
2.1351
2.14279
2.16007
2.18092
2.20502
2.52619
2.4933
2.45842
2.42204
2.38491
2.34791
2.3118
2.27794
2.24695
2.21948
2.19408
2.17392
2.15653
2.14339
2.13622
2.13528
2.14429
2.15647
2.17234
2.19604
2.52254
2.4907
2.45693
2.42172
2.38577
2.34995
2.3152
2.28225
2.25236
2.22665
2.20156
2.18367
2.16455
2.15015
2.13916
2.13421
2.13401
2.14667
2.16611
2.18819
2.51823
2.48756
2.45506
2.42124
2.38671
2.3523
2.31893
2.28734
2.25828
2.23241
2.21012
2.18689
2.16785
2.15373
2.14094
2.13212
2.12752
2.13473
2.14822
2.1718
2.51302
2.48374
2.45276
2.42048
2.38748
2.35443
2.3224
2.29199
2.26373
2.23816
2.21507
2.19872
2.1766
2.15743
2.14266
2.13075
2.12417
2.12393
2.1367
2.15724
2.50672
2.47902
2.44979
2.41939
2.38832
2.35716
2.32655
2.2972
2.26997
2.2461
2.22661
2.20832
2.18087
2.16387
2.14762
2.13391
2.12479
2.12192
2.12794
2.14769
2.49919
2.47319
2.4459
2.41767
2.38886
2.35987
2.3312
2.30346
2.2773
2.25376
2.23241
2.21625
2.19587
2.17543
2.15767
2.14284
2.13152
2.12557
2.1313
2.14643
2.49012
2.46601
2.44085
2.41498
2.38865
2.36227
2.336
2.31042
2.28583
2.26307
2.24154
2.22941
2.21151
2.18984
2.17244
2.15879
2.14691
2.14076
2.13985
2.15284
2.47955
2.4573
2.43434
2.41089
2.3873
2.36374
2.34051
2.31755
2.2955
2.27425
2.25505
2.2389
2.22703
2.2087
2.191
2.17849
2.16779
2.16251
2.15957
2.16834
2.46763
2.44708
2.42637
2.40529
2.3845
2.36404
2.34407
2.3243
2.3049
2.28636
2.26907
2.25529
2.23707
2.22952
2.21094
2.20051
2.19219
2.18625
2.18613
2.19247
2.45449
2.43567
2.41681
2.39803
2.37994
2.36244
2.34565
2.32985
2.31416
2.29877
2.28318
2.26821
2.25463
2.24868
2.22419
2.22235
2.21904
2.20846
2.21098
2.2162
2.4403
2.42307
2.406
2.38942
2.37355
2.35874
2.34502
2.33223
2.32038
2.3091
2.29766
2.28549
2.27134
2.25621
2.24544
2.24527
2.24701
2.22517
2.23419
2.23646
2.42533
2.40953
2.3941
2.37936
2.36559
2.35311
2.34193
2.33231
2.3241
2.31685
2.30981
2.30217
2.29302
2.28237
2.271
2.25995
2.25501
2.25435
2.24276
2.25639
2.40981
2.39527
2.38125
2.36808
2.35606
2.34552
2.33661
2.32985
2.32452
2.32054
2.31766
2.31434
2.30978
2.30334
2.29487
2.28486
2.27464
2.26746
2.26288
2.26489
2.3939
2.38044
2.36758
2.35565
2.34502
2.33601
2.32897
2.32429
2.32175
2.32084
2.32107
2.32153
2.3211
2.31796
2.31188
2.30329
2.29257
2.28428
2.27976
2.2795
2.37782
2.36521
2.35326
2.34225
2.33256
2.32457
2.31878