/*--------------------------------*- C++ -*----------------------------------*\
  =========                 |
  \\      /  F ield         | OpenFOAM: The Open Source CFD Toolbox
   \\    /   O peration     | Website:  https://openfoam.org
    \\  /    A nd           | Version:  10
     \\/     M anipulation  |
\*---------------------------------------------------------------------------*/
FoamFile
{
    format      ascii;
    class       volScalarField;
    location    "0.501606";
    object      T;
}
// * * * * * * * * * * * * * * * * * * * * * * * * * * * * * * * * * * * * * //

dimensions      [0 0 0 1 0 0 0];

internalField   nonuniform List<scalar> 
15984
(
0.00861176
0.0086267
0.0086392
0.00865686
0.0086744
0.0086938
0.00871415
0.00873564
0.00875693
0.00877922
0.00879965
0.00881953
0.0088379
0.00885487
0.0088697
0.00888414
0.0088952
0.00890646
0.00891368
0.00892197
0.00892634
0.00893133
0.0089348
0.00893709
0.0089395
0.00894037
0.00894157
0.00894204
0.00894216
0.00894243
0.00894208
0.00894159
0.00894094
0.00894042
0.00893927
0.00893852
0.00893729
0.00893598
0.00893469
0.00893313
0.00893113
0.00892973
0.00892689
0.00892512
0.00892184
0.00891908
0.00891528
0.00891165
0.00890674
0.00890227
0.00889693
0.00889077
0.00888489
0.00887818
0.00861649
0.00862316
0.00864466
0.00865258
0.00867631
0.00869285
0.00871392
0.00873416
0.00875687
0.00877655
0.00879918
0.00881739
0.00883695
0.00885358
0.00887015
0.00888349
0.0088962
0.00890668
0.00891593
0.00892306
0.00892883
0.00893414
0.00893788
0.00894074
0.00894302
0.00894499
0.00894591
0.00894694
0.00894714
0.0089474
0.00894686
0.00894702
0.00894595
0.00894538
0.00894432
0.0089429
0.00894169
0.00894003
0.00893822
0.00893661
0.00893464
0.00893167
0.0089296
0.00892657
0.00892283
0.00891988
0.00891521
0.00891121
0.00890565
0.00890176
0.00889321
0.00889206
0.00887847
0.00887864
0.0086177
0.00862867
0.00864312
0.00865713
0.00867629
0.00869197
0.00871424
0.00873292
0.00875515
0.0087753
0.00879701
0.00881575
0.00883549
0.00885243
0.00886854
0.00888341
0.00889578
0.00890721
0.0089167
0.00892427
0.00893151
0.00893589
0.00894128
0.00894371
0.00894724
0.0089488
0.0089505
0.00895156
0.00895218
0.00895224
0.00895235
0.00895152
0.00895172
0.00895007
0.00894938
0.00894763
0.00894619
0.00894397
0.00894256
0.00893973
0.00893747
0.00893449
0.00893158
0.00892807
0.00892418
0.00892026
0.00891541
0.00891016
0.0089057
0.00889849
0.0088934
0.00888505
0.00888003
0.0088696
0.0086186
0.00863098
0.00864362
0.00866038
0.00867423
0.008695
0.00871134
0.00873348
0.00875282
0.00877399
0.00879458
0.00881357
0.00883347
0.00884991
0.00886709
0.00888156
0.00889514
0.00890653
0.00891652
0.00892567
0.00893153
0.00893873
0.00894276
0.00894714
0.00894995
0.00895288
0.00895428
0.00895591
0.00895657
0.0089571
0.00895703
0.00895691
0.00895561
0.00895545
0.00895324
0.0089523
0.00894979
0.0089483
0.00894522
0.00894325
0.00893959
0.00893698
0.00893337
0.00892887
0.00892558
0.00891976
0.00891562
0.00890902
0.00890431
0.0088962
0.00889082
0.00888228
0.00887556
0.00886619
0.00862208
0.00863284
0.00864735
0.00866042
0.00867753
0.00869363
0.00871266
0.00873119
0.00875213
0.00877153
0.00879191
0.00881148
0.00882961
0.00884799
0.00886401
0.00887956
0.00889384
0.00890505
0.00891638
0.00892508
0.00893274
0.00893916
0.00894485
0.00894932
0.0089526
0.00895564
0.0089581
0.00895947
0.00896079
0.00896128
0.00896127
0.00896119
0.0089604
0.00895909
0.00895795
0.00895572
0.00895386
0.0089513
0.00894869
0.00894579
0.00894202
0.00893917
0.00893461
0.00892977
0.00892611
0.00891958
0.00891475
0.0089083
0.00890158
0.00889442
0.00888755
0.00887896
0.00887086
0.00886235
0.00862482
0.00863718
0.00864922
0.00866314
0.00867894
0.00869413
0.00871328
0.00872964
0.00875104
0.00876864
0.00878941
0.00880747
0.00882698
0.00884417
0.00886111
0.00887672
0.00889029
0.00890399
0.0089145
0.00892456
0.00893323
0.00893989
0.00894604
0.0089512
0.00895508
0.00895849
0.008961
0.00896318
0.00896413
0.00896533
0.00896538
0.00896503
0.00896484
0.00896309
0.00896163
0.0089598
0.00895691
0.00895484
0.00895122
0.00894844
0.00894429
0.00894053
0.00893565
0.00893124
0.00892551
0.0089198
0.00891365
0.00890635
0.00890017
0.00889131
0.00888491
0.00887411
0.00886724
0.00885608
0.0086298
0.00864014
0.00865308
0.00866593
0.00867995
0.00869666
0.00871165
0.00873098
0.00874749
0.00876759
0.00878554
0.00880478
0.00882285
0.00884021
0.00885769
0.00887288
0.0088882
0.00890086
0.00891323
0.00892313
0.00893226
0.00894013
0.00894615
0.00895259
0.00895631
0.00896087
0.00896339
0.00896558
0.00896787
0.00896842
0.00896906
0.00896902
0.0089679
0.00896716
0.00896513
0.00896293
0.00896082
0.00895706
0.00895456
0.00895035
0.00894634
0.00894214
0.00893669
0.00893198
0.0089253
0.00891949
0.00891238
0.00890529
0.00889751
0.0088892
0.00888066
0.00887073
0.00886199
0.00885051
0.00863516
0.00864629
0.00865684
0.00867002
0.00868274
0.00869753
0.00871331
0.00872912
0.00874747
0.00876426
0.00878297
0.00880088
0.00881868
0.00883633
0.0088532
0.00886922
0.00888439
0.00889755
0.00891056
0.00892095
0.00893103
0.00893917
0.0089462
0.00895253
0.00895762
0.00896221
0.0089654
0.00896842
0.00897035
0.00897156
0.00897223
0.0089721
0.00897171
0.00897017
0.00896866
0.00896629
0.00896323
0.00896051
0.00895687
0.00895241
0.00894845
0.00894274
0.00893824
0.00893167
0.00892571
0.00891893
0.00891137
0.00890392
0.00889492
0.00888709
0.00887642
0.00886759
0.00885577
0.00884615
0.00863951
0.00864961
0.00866094
0.00867266
0.00868551
0.00869922
0.00871356
0.00872904
0.00874543
0.00876196
0.00877978
0.00879677
0.00881426
0.00883164
0.00884813
0.00886464
0.00887948
0.00889408
0.00890635
0.00891853
0.00892866
0.0089376
0.00894556
0.00895262
0.00895807
0.00896317
0.00896721
0.00897037
0.00897245
0.00897435
0.00897506
0.0089751
0.0089749
0.00897341
0.00897138
0.00896935
0.00896611
0.00896319
0.00895883
0.00895504
0.00894944
0.00894462
0.00893875
0.00893246
0.00892581
0.00891845
0.00891074
0.00890215
0.00889351
0.00888331
0.00887382
0.0088625
0.00885195
0.00883937
0.00864816
0.00865549
0.00866987
0.00867264
0.00869513
0.00869606
0.00871709
0.00873043
0.00874342
0.00876009
0.00877566
0.00879291
0.00880949
0.00882646
0.0088431
0.00885908
0.00887471
0.00888897
0.00890277
0.00891472
0.00892602
0.0089356
0.00894429
0.00895171
0.00895819
0.00896356
0.00896803
0.00897167
0.00897433
0.00897631
0.00897756
0.00897761
0.00897725
0.00897644
0.00897433
0.00897198
0.0089692
0.00896499
0.00896156
0.00895642
0.00895171
0.00894586
0.0089397
0.00893314
0.00892602
0.00891801
0.0089103
0.00890035
0.00889214
0.00888041
0.00887178
0.00885783
0.00884768
0.00883293
0.00864411
0.00866861
0.00866384
0.00868967
0.00868443
0.00871228
0.00870574
0.00873609
0.0087368
0.00875974
0.00877315
0.00879015
0.00880408
0.00882191
0.00883728
0.00885345
0.00886874
0.00888392
0.00889775
0.00891065
0.00892246
0.00893283
0.00894203
0.00895028
0.00895733
0.00896351
0.00896847
0.00897266
0.00897579
0.00897808
0.00897973
0.00898014
0.00897985
0.00897905
0.00897689
0.00897438
0.00897138
0.0089675
0.00896341
0.00895854
0.00895312
0.00894729
0.00894079
0.00893348
0.00892661
0.00891795
0.00890945
0.00889943
0.00889167
0.00887687
0.00886888
0.00885305
0.00884394
0.00882492
0.00866296
0.00866398
0.00868165
0.00868014
0.00870285
0.00869756
0.00872461
0.00872556
0.00874384
0.00876015
0.00876227
0.00879129
0.00878919
0.00882604
0.00882047
0.00885148
0.00886426
0.00887841
0.00889261
0.00890623
0.00891835
0.00892969
0.00893941
0.00894846
0.00895597
0.00896294
0.00896843
0.00897344
0.00897674
0.00897961
0.00898127
0.00898219
0.00898199
0.00898118
0.00897935
0.00897682
0.00897375
0.00896961
0.00896576
0.00896017
0.00895508
0.00894834
0.00894195
0.00893467
0.00892673
0.00891844
0.00890937
0.00889904
0.0088907
0.008875
0.00886931
0.00884646
0.00884818
0.00881235
0.00866564
0.00867551
0.0086831
0.00869185
0.00870109
0.0087087
0.00872352
0.00872458
0.00874636
0.00874455
0.00877528
0.00877044
0.00880546
0.00879889
0.00883326
0.00883349
0.00885761
0.00887244
0.0088873
0.008901
0.00891356
0.00892519
0.00893581
0.0089455
0.00895403
0.00896124
0.00896779
0.00897272
0.00897742
0.00898023
0.00898287
0.0089838
0.00898385
0.00898336
0.00898161
0.00897922
0.00897594
0.00897189
0.00896748
0.00896238
0.00895644
0.00895005
0.00894305
0.00893615
0.00892735
0.00891981
0.00890901
0.00890047
0.00888832
0.00887647
0.00886629
0.00884829
0.00883803
0.00879745
0.00867316
0.00868226
0.00868829
0.00869766
0.00870423
0.00871657
0.00871718
0.00873535
0.00873472
0.00875778
0.00875518
0.00878405
0.00878075
0.00880884
0.0088179
0.0088347
0.00884938
0.00886485
0.00887986
0.00889391
0.00890764
0.00892005
0.00893154
0.00894215
0.00895131
0.00895977
0.0089663
0.00897273
0.00897741
0.00898163
0.00898384
0.0089857
0.00898569
0.00898499
0.00898365
0.00898069
0.00897784
0.00897378
0.00896916
0.00896416
0.00895796
0.0089515
0.00894445
0.00893785
0.00892794
0.00892173
0.00890904
0.00890232
0.00888663
0.00888249
0.00886161
0.00885065
0.00882148
0.00873682
0.00868222
0.00868795
0.00869703
0.00870186
0.00871154
0.00871538
0.00872752
0.00872723
0.00874437
0.00874395
0.00876661
0.00876353
0.0087929
0.00878741
0.00881999
0.00881897
0.00884378
0.00885836
0.00887362
0.0088879
0.00890186
0.00891448
0.00892668
0.00893754
0.00894785
0.00895734
0.00896549
0.00897223
0.00897754
0.008982
0.00898495
0.00898697
0.00898717
0.00898677
0.00898542
0.00898286
0.00897952
0.00897578
0.00897072
0.00896607
0.00895939
0.00895331
0.00894605
0.0089392
0.00893027
0.00892361
0.00890977
0.00890588
0.00888788
0.00888469
0.00884261
0.00884554
0.00865152
0.00865758
0.00868901
0.00869753
0.00870198
0.00870995
0.00871399
0.0087221
0.00872627
0.00873697
0.00873649
0.00875243
0.00875071
0.00877457
0.00877039
0.00880058
0.00879411
0.00882451
0.00883376
0.00884904
0.00886565
0.00888053
0.00889527
0.00890823
0.00892153
0.0089333
0.00894452
0.00895413
0.00896322
0.00897077
0.00897699
0.00898152
0.00898501
0.00898717
0.00898806
0.00898789
0.00898692
0.00898422
0.00898116
0.00897739
0.00897227
0.00896785
0.00896087
0.00895465
0.00894789
0.00894114
0.00893277
0.00892516
0.00891305
0.00891036
0.0088904
0.0088877
0.00877756
0.0087424
0.00814687
0.00764799
0.00869886
0.00870403
0.00871165
0.00871514
0.00872177
0.00872522
0.00873186
0.00873145
0.00874386
0.00874349
0.00875962
0.00875771
0.00878132
0.00877559
0.00880571
0.00880545
0.00882717
0.00884133
0.00885692
0.008872
0.00888766
0.0089012
0.00891448
0.00892657
0.00893948
0.00895082
0.00896118
0.00896918
0.00897639
0.00898184
0.00898597
0.00898867
0.00898945
0.00898922
0.00898796
0.00898562
0.00898234
0.00897868
0.00897359
0.00896905
0.00896245
0.00895624
0.00895034
0.00894323
0.00893584
0.00892747
0.00891957
0.00891275
0.00887858
0.0088559
0.00851339
0.00809193
0.00672903
0.0053374
0.00870679
0.00871343
0.00871787
0.00872368
0.0087262
0.00873064
0.00873349
0.00873791
0.00874217
0.00874738
0.00875129
0.00876177
0.00876417
0.00878569
0.0087808
0.00880972
0.00881256
0.00883138
0.00884642
0.00886233
0.00887839
0.00889379
0.00890894
0.00892266
0.00893542
0.00894742
0.00895887
0.00896759
0.00897493
0.00898068
0.00898516
0.00898865
0.00899067
0.00899092
0.00899016
0.00898803
0.00898421
0.00898038
0.00897505
0.00897043
0.008964
0.00895812
0.00895266
0.00894586
0.00893871
0.00893226
0.00892374
0.00891627
0.00879607
0.00859973
0.00765931
0.00603596
0.0051162
0.00468844
0.00871641
0.00872106
0.00872775
0.00872977
0.00873357
0.0087358
0.00873766
0.00874096
0.00874299
0.00874707
0.0087487
0.00875892
0.00875898
0.00877737
0.00877635
0.00879702
0.0088067
0.00881835
0.00884248
0.00885156
0.00886974
0.00888588
0.00890133
0.00891612
0.00892954
0.00894108
0.0089526
0.00896326
0.00897246
0.00897977
0.00898502
0.00898846
0.0089902
0.0089902
0.0089893
0.00898694
0.00898353
0.00897967
0.00897497
0.00897052
0.00896503
0.0089599
0.00895478
0.00894908
0.00894171
0.00893917
0.0089266
0.00884445
0.00854582
0.00746743
0.00567644
0.00481205
0.00451484
0.00445086
0.00872492
0.00873142
0.00873416
0.00873862
0.00873991
0.00874146
0.00874285
0.00874358
0.00874494
0.00874612
0.00875052
0.00875182
0.00876106
0.0087617
0.00877816
0.00878186
0.00879785
0.00881756
0.00882173
0.00884245
0.00885988
0.0088762
0.00889217
0.00890845
0.00892474
0.00893858
0.00895012
0.00896013
0.0089692
0.00897711
0.00898347
0.00898796
0.00899029
0.00899052
0.00898968
0.00898717
0.00898397
0.00898021
0.0089757
0.00897122
0.00896674
0.00896203
0.00895742
0.00895097
0.00895058
0.00894188
0.00888362
0.00857251
0.00746007
0.00546498
0.00469702
0.00449126
0.00444195
0.00443553
0.00873477
0.00874085
0.00874373
0.00874741
0.00874761
0.00874732
0.00874809
0.00874692
0.00874645
0.00874805
0.00874876
0.00875016
0.00875521
0.00875643
0.00877094
0.0087673
0.00879574
0.00879098
0.00881888
0.00884006
0.00884109
0.00886823
0.0088862
0.00890294
0.00891893
0.00893444
0.00894843
0.00895958
0.00896843
0.00897567
0.00898161
0.00898655
0.00898937
0.00899011
0.0089893
0.00898711
0.00898347
0.00897972
0.00897547
0.00897077
0.0089677
0.00896377
0.0089591
0.00895814
0.00895453
0.00891993
0.00866283
0.00759392
0.00542324
0.00464821
0.00447265
0.00443751
0.00443031
0.00443332
0.00874993
0.0087532
0.00875606
0.00875656
0.0087566
0.0087561
0.00875354
0.00875414
0.00874871
0.00875076
0.00874729
0.00874963
0.00875102
0.00875418
0.00875746
0.00876967
0.00876652
0.00879281
0.0087851
0.00881304
0.00883736
0.00883512
0.0088661
0.00888894
0.00890851
0.00892721
0.00894375
0.00895815
0.00896852
0.00897577
0.00898071
0.0089852
0.00898807
0.00898896
0.00898811
0.00898569
0.00898194
0.00897822
0.00897447
0.00897057
0.00896867
0.00896489
0.00896278
0.00896496
0.00894899
0.00877018
0.00785014
0.00553214
0.00464182
0.00446864
0.00444229
0.00443324
0.00442939
0.00442825
0.00876174
0.00876671
0.00876818
0.00876781
0.00876592
0.00876399
0.00875842
0.00875941
0.00875105
0.00875195
0.00874759
0.00874771
0.00874422
0.00874436
0.0087444
0.00873817
0.00872934
0.00872141
0.00871072
0.00870917
0.00871249
0.00874519
0.00877506
0.00881936
0.00886526
0.00889764
0.00892897
0.0089519
0.00896681
0.00897574
0.00898077
0.00898402
0.00898615
0.00898648
0.00898541
0.00898266
0.00897913
0.00897604
0.00897294
0.00897049
0.00896897
0.0089667
0.00897019
0.00896603
0.00886798
0.00814703
0.00584977
0.0046677
0.00447154
0.00444796
0.0044401
0.00443207
0.00442398
0.00441433
0.00876286
0.00877845
0.0087838
0.00878329
0.00878105
0.0087767
0.00877033
0.00876744
0.00875605
0.00875821
0.00875006
0.0087391
0.0087416
0.00869256
0.00870271
0.00856751
0.00857389
0.00840819
0.00825665
0.00808137
0.00807548
0.00805614
0.00829395
0.0084408
0.00863205
0.00877839
0.00885617
0.00891713
0.00895335
0.00897177
0.00897938
0.0089824
0.0089836
0.00898315
0.00898135
0.00897848
0.00897569
0.00897317
0.00897161
0.00896983
0.00896894
0.00897014
0.00897477
0.00893406
0.00845744
0.00638676
0.00474976
0.00448582
0.00445364
0.00444643
0.00443939
0.00443008
0.00441994
0.00441135
0.00874562
0.00877475
0.00878707
0.00878996
0.00878947
0.0087828
0.00878348
0.00876744
0.00877081
0.00875543
0.0087379
0.00872264
0.00863053
0.00859366
0.0083465
0.00810418
0.00739765
0.00686912
0.006326
0.00589665
0.00584513
0.00599756
0.00599284
0.00668822
0.0075768
0.0082629
0.00868036
0.00885565
0.00893221
0.00896445
0.00897627
0.00897982
0.00897977
0.00897848
0.00897633
0.00897373
0.00897151
0.00897019
0.00896883
0.00896855
0.00896888
0.00897769
0.00896465
0.00870645
0.00703308
0.00495052
0.00451217
0.0044597
0.00445098
0.00444646
0.00443747
0.00442737
0.00441843
0.00440834
0.00870421
0.0087646
0.00879075
0.00879893
0.00879876
0.00879302
0.00879331
0.0087754
0.00877393
0.00871378
0.00871817
0.00842681
0.00846152
0.00773808
0.00661624
0.00575071
0.00522019
0.00493613
0.00473127
0.00466464
0.00467012
0.00477066
0.00479816
0.00517691
0.00546383
0.00701745
0.00811428
0.00864988
0.00886426
0.00894141
0.00896703
0.0089732
0.00897327
0.00897196
0.00896929
0.00896739
0.00896607
0.00896596
0.00896649
0.00896683
0.00897241
0.00897877
0.00883996
0.00765097
0.00529722
0.0045641
0.00446691
0.00445449
0.00445035
0.00444411
0.00443356
0.00442605
0.00441486
0.004405
0.00865256
0.00875187
0.008793
0.00880695
0.00880756
0.00880259
0.00880212
0.00877523
0.00876561
0.00854222
0.00851411
0.00762042
0.00619467
0.00534469
0.00486894
0.00463274
0.00452319
0.00447448
0.00446303
0.00446299
0.00448242
0.00453041
0.00456205
0.00470646
0.00489213
0.00569682
0.0072503
0.00833276
0.0087719
0.00891341
0.00895398
0.00896425
0.00896518
0.00896338
0.00896126
0.00896056
0.0089606
0.00896194
0.00896263
0.00896663
0.00898167
0.00890083
0.00811106
0.00581295
0.00465987
0.00447789
0.00445713
0.00445208
0.00444831
0.00443735
0.00443048
0.00442023
0.00440941
0.00440325
0.00864344
0.00875391
0.00879762
0.00881328
0.00881308
0.0088118
0.00878293
0.00874612
0.00840383
0.00799948
0.00617584
0.00523593
0.00475101
0.00453963
0.00445781
0.0044405
0.00444173
0.00445473
0.00447301
0.00455308
0.00459476
0.00460354
0.00461674
0.00465002
0.00475445
0.00517707
0.00638149
0.00787893
0.00862985
0.00887766
0.00894098
0.00895274
0.00895318
0.00895159
0.00895029
0.00895195
0.00895482
0.00895611
0.00896089
0.00897171
0.00891992
0.00830735
0.00622452
0.00477114
0.00449278
0.00445897
0.00445281
0.00445
0.00444127
0.00443416
0.00442654
0.00441727
0.00440711
0.00440245
0.00868754
0.00877419
0.00881167
0.00882262
0.00882027
0.00877503
0.00865665
0.00803589
0.00665401
0.00525341
0.00471278
0.00450595
0.00443888
0.00442907
0.00443638
0.00447864
0.00457677
0.00464307
0.00478128
0.00500204
0.00501882
0.00497615
0.00477207
0.00470692
0.00477741
0.0051308
0.00640594
0.00792724
0.00865198
0.00887823
0.00893113
0.00894027
0.00893981
0.00893792
0.00894177
0.00894505
0.00894676
0.00895345
0.00895755
0.00887664
0.00817901
0.00592216
0.00472566
0.00449299
0.00445813
0.00445225
0.00444977
0.0044437
0.00443619
0.00443008
0.00442189
0.00441274
0.00440371
0.00440054
0.00876836
0.00881307
0.00883157
0.00882245
0.00869749
0.00819408
0.00692726
0.00533539
0.00468005
0.00448052
0.00442817
0.00442627
0.00444069
0.00448339
0.00459144
0.00481975
0.00504615
0.00534475
0.00585696
0.00613702
0.00610212
0.00594697
0.0054519
0.00492235
0.00480506
0.0051758
0.00642979
0.00797198
0.00871229
0.00888861
0.00892113
0.00892371
0.00892356
0.00892777
0.00893054
0.00893652
0.00894057
0.00893288
0.0087843
0.00797986
0.00576019
0.00474355
0.00450187
0.00445762
0.00445034
0.00444783
0.00444469
0.0044373
0.00443244
0.00442462
0.0044169
0.00440695
0.00439858
0.00439585
0.00882809
0.00883195
0.00877373
0.00834744
0.00677208
0.00504471
0.00455346
0.00444665
0.00442402
0.00442659
0.00444404
0.00449132
0.00459364
0.00480752
0.00513694
0.00580227
0.00662735
0.00719502
0.00747119
0.00746604
0.00731145
0.006673
0.00555936
0.00500927
0.00498612
0.00550319
0.00706473
0.00840918
0.00880366
0.00888898
0.00890556
0.00890857
0.00890946
0.00891429
0.00892304
0.00892421
0.00890554
0.00871656
0.00788979
0.00571906
0.00476963
0.00451124
0.00445925
0.00444887
0.00444638
0.00444277
0.00443825
0.00443187
0.004426
0.00441887
0.00441111
0.00440226
0.00439274
0.00438853
0.00847147
0.00776837
0.00628198
0.00492621
0.00452004
0.00444287
0.00442879
0.00443186
0.00444773
0.00448666
0.0045693
0.00473764
0.0050614
0.00572336
0.00696222
0.00767921
0.0079009
0.00797763
0.00793776
0.00771247
0.0072609
0.00638925
0.00535773
0.00499735
0.00510636
0.00608777
0.00798924
0.00865336
0.00884684
0.00888462
0.00888668
0.00888425
0.00889489
0.00890437
0.00890509
0.00886426
0.00861851
0.00784246
0.00565564
0.00480266
0.00451537
0.00446225
0.00444566
0.00444322
0.0044394
0.00443755
0.00443042
0.00442706
0.00441951
0.00441365
0.00440565
0.0043976
0.00438783
0.00437919
0.00532425
0.0048494
0.00454889
0.00444999
0.00443372
0.00443507
0.00444879
0.00447922
0.00454025
0.00466287
0.00490827
0.00539148
0.0063855
0.0077331
0.0081511
0.00814105
0.00805374
0.00762243
0.00727653
0.00705816
0.00639749
0.00560621
0.00527529
0.00532758
0.00577369
0.00761014
0.00847527
0.00879029
0.00884762
0.00886811
0.0088658
0.00888087
0.00888858
0.0088817
0.00881815
0.00857041
0.00782337
0.00543085
0.0048654
0.00450638
0.00446625
0.00444129
0.00443882
0.00443526
0.0044336
0.00442753
0.0044247
0.00441799
0.00441339
0.00440579
0.004399
0.00439055
0.00438252
0.00437353
0.0044951
0.00444992
0.0044371
0.00443648
0.00444843
0.00447084
0.00451635
0.0046029
0.00477241
0.00510049
0.00571359
0.00696673
0.00810488
0.00838554
0.00828199
0.00771734
0.00689663
0.00644224
0.00622547
0.00600998
0.00571065
0.00552397
0.00544687
0.00563401
0.00757998
0.00827221
0.00875013
0.00881143
0.00884347
0.00883675
0.00885032
0.00885411
0.00882688
0.00875418
0.00844136
0.00739603
0.00527668
0.00485048
0.0045125
0.00446367
0.00443652
0.0044329
0.00442967
0.00442835
0.00442318
0.004421
0.00441421
0.00441084
0.00440392
0.00439833
0.00439108
0.0043838
0.00437572
0.00436784
0.00442836
0.0044303
0.00444006
0.00446169
0.00449608
0.00455932
0.00467684
0.00489311
0.00528446
0.00598134
0.00722994
0.00830183
0.00855846
0.00841659
0.00789735
0.0071351
0.00653192
0.00620527
0.00606216
0.00589834
0.00580355
0.00584078
0.00632952
0.00771823
0.00826788
0.00872582
0.00877967
0.00881923
0.0088218
0.00883753
0.00885206
0.00884344
0.00877456
0.0083143
0.00691916
0.00528515
0.00478507
0.00451001
0.0044601
0.00443076
0.00442683
0.00442371
0.00442286
0.00441839
0.00441653
0.00441075
0.00440796
0.00440165
0.0043966
0.00438981
0.00438325
0.00437606
0.00436859
0.00436085
0.0044287
0.00444773
0.00447656
0.00452465
0.00460917
0.00475687
0.00501128
0.00543763
0.00614253
0.0073061
0.00837202
0.00864928
0.00861191
0.00831338
0.00779825
0.00721548
0.00671943
0.00646121
0.00634718
0.00631253
0.00654215
0.00708042
0.00787653
0.00857764
0.00861149
0.00878376
0.00879125
0.00879574
0.00880161
0.00879065
0.00872578
0.00856688
0.00792635
0.00665753
0.00535114
0.00463251
0.00453755
0.00444118
0.00443021
0.00441969
0.00441846
0.00441523
0.00441399
0.00440935
0.00440718
0.00440198
0.00439894
0.00439293
0.00438786
0.00438141
0.00437484
0.00436777
0.00436051
0.00435297
0.00445365
0.00449231
0.00455492
0.00466129
0.00483611
0.00512031
0.00555935
0.00622792
0.00722838
0.0083183
0.00870269
0.00874342
0.00866786
0.00847274
0.00819855
0.00790408
0.00753704
0.00746455
0.00739986
0.00755708
0.00792925
0.00826216
0.00853288
0.00874149
0.00872725
0.0087834
0.00878662
0.00879464
0.00880671
0.00879692
0.0086411
0.0079006
0.00644271
0.00498307
0.00473472
0.00447475
0.00445933
0.00441997
0.00441704
0.00441058
0.00441015
0.00440599
0.00440495
0.00439974
0.0043978
0.00439246
0.00438915
0.00438364
0.00437852
0.0043724
0.00436585
0.00435879
0.00435147
0.004344
0.00450423
0.00458124
0.00470532
0.00490534
0.00521183
0.00565681
0.00628247
0.00712528
0.00816957
0.00869036
0.00880507
0.0088104
0.00876495
0.00866274
0.00856152
0.00845276
0.00832653
0.0083142
0.00829753
0.00841074
0.00853213
0.00869788
0.00871601
0.00876637
0.00876337
0.00877454
0.00878124
0.00870929
0.00860714
0.00830691
0.00757966
0.00614294
0.00491818
0.00467904
0.0044715
0.00444339
0.00441424
0.00441051
0.00440425
0.00440344
0.00439961
0.00439866
0.00439385
0.00439138
0.00438765
0.00438385
0.00437981
0.00437508
0.00436981
0.00436384
0.0043574
0.00435034
0.00434315
0.00433573
0.00459242
0.00473046
0.00494372
0.00526723
0.00572061
0.0063215
0.00707148
0.00795611
0.00860418
0.0088182
0.00885848
0.00886257
0.00884122
0.00879678
0.00874964
0.00872034
0.00867159
0.00867393
0.00866923
0.00870881
0.00874086
0.00877119
0.00876645
0.00877831
0.00877379
0.00878416
0.00870618
0.0087141
0.0084698
0.0076726
0.00591679
0.00483433
0.00464801
0.00446187
0.00443474
0.00440862
0.00440488
0.00439819
0.00439718
0.00439317
0.00439221
0.00438876
0.00438524
0.00438225
0.00437858
0.00437479
0.00437075
0.00436618
0.00436112
0.00435536
0.00434914
0.00434273
0.0043359
0.00432889
0.004718
0.00493495
0.00525629
0.00571454
0.00631317
0.00702442
0.007791
0.00847021
0.00878602
0.00887035
0.00888808
0.00889316
0.00888428
0.00885597
0.008839
0.0088165
0.00879801
0.00879767
0.0087902
0.00879238
0.00879398
0.00878666
0.0087824
0.00876973
0.0087439
0.00868784
0.0086244
0.00811358
0.0073012
0.0056741
0.00486781
0.00460695
0.00445748
0.00442884
0.00440337
0.00440057
0.00439267
0.00439188
0.00438751
0.00438651
0.00438287
0.00437979
0.00437618
0.00437277
0.00436909
0.004365
0.00436091
0.0043564
0.0043513
0.00434566
0.00433963
0.00433357
0.00432708
0.00432074
0.00486407
0.00516613
0.00559933
0.0061931
0.00692602
0.00769605
0.00836302
0.00879288
0.00883157
0.00890145
0.00890763
0.00891312
0.00890425
0.00888279
0.0088725
0.0088575
0.00884422
0.00883459
0.0088184
0.00882181
0.00879674
0.0087972
0.00877116
0.00874905
0.00871451
0.00857307
0.00802968
0.00718828
0.00578296
0.00476238
0.0046527
0.00444941
0.00442899
0.00440028
0.00439798
0.00438884
0.0043881
0.00438278
0.00438162
0.00437746
0.00437512
0.00437057
0.00436803
0.00436373
0.0043604
0.00435623
0.00435241
0.00434787
0.004343
0.00433741
0.00433148
0.00432487
0.00431839
0.00431232
0.00496926
0.00534749
0.00589597
0.0066231
0.00745843
0.00832538
0.00864627
0.00885085
0.00888552
0.00891418
0.00892395
0.00892683
0.00891765
0.00889718
0.00888301
0.00886411
0.00886835
0.00884008
0.00884629
0.00881568
0.00881671
0.00878892
0.00875831
0.00867698
0.00842877
0.00796403
0.00720603
0.0059801
0.00476949
0.00466075
0.00445024
0.00443004
0.00440196
0.00439532
0.00438807
0.00438442
0.00438025
0.00437722
0.00437395
0.00437073
0.00436677
0.00436322
0.00435944
0.00435549
0.00435157
0.0043475
0.00434328
0.00433885
0.00433396
0.00432878
0.00432333
0.00431742
0.00431149
0.00430529
0.00501082
0.00542478
0.00603589
0.00686705
0.00786076
0.00850655
0.00881615
0.00882713
0.00890761
0.00892407
0.00893635
0.0089387
0.00892516
0.00890618
0.00889779
0.00888814
0.00886355
0.00887374
0.00882747
0.00882598
0.0087879
0.00873378
0.00862795
0.00840707
0.00797575
0.00720596
0.00596566
0.00514299
0.00454277
0.00455403
0.00442139
0.00442201
0.0043931
0.0043933
0.00438192
0.00438191
0.00437393
0.00437341
0.00436709
0.00436473
0.00435934
0.00435629
0.00435156
0.00434787
0.00434353
0.00433967
0.00433558
0.00433126
0.00432664
0.00432183
0.00431662
0.00431126
0.00430562
0.00429989
0.0050169
0.00544028
0.00607128
0.00692804
0.00791562
0.00871391
0.00874984
0.00888557
0.00890141
0.00894583
0.0089484
0.00895125
0.00893724
0.00892006
0.00890879
0.00888611
0.00888682
0.00884924
0.00883999
0.00881206
0.00876152
0.00867126
0.00847191
0.00804158
0.00734104
0.00611455
0.00523732
0.00462613
0.00459493
0.00443872
0.0044294
0.00439716
0.00439722
0.00438339
0.00438404
0.0043738
0.00437304
0.00436721
0.00436263
0.00435807
0.00435369
0.00434934
0.00434505
0.00434077
0.00433661
0.00433257
0.00432836
0.00432421
0.00431968
0.00431524
0.00431046
0.00430587
0.00430104
0.00429611
0.00492325
0.00530006
0.00589014
0.00673107
0.007746
0.00870461
0.00873899
0.00888717
0.00889897
0.00895112
0.00895296
0.00895589
0.00893728
0.00892121
0.00890636
0.00888752
0.00887375
0.00884116
0.00880578
0.00872948
0.00860232
0.00838864
0.00800915
0.00738805
0.00617393
0.00524138
0.00461738
0.00459002
0.00444551
0.00444781
0.00440247
0.00440282
0.00438757
0.00438696
0.00437672
0.00437515
0.00436917
0.00436331
0.00435891
0.00435377
0.00434869
0.00434399
0.00433892
0.00433452
0.00433011
0.00432626
0.00432208
0.00431822
0.00431412
0.00431008
0.00430561
0.0043011
0.00429588
0.0042906
0.00478419
0.00507214
0.00554601
0.00627658
0.00726716
0.0082858
0.0088106
0.00880095
0.00890653
0.00893263
0.00894742
0.0089489
0.00893392
0.00890851
0.00889265
0.00886462
0.00883407
0.00877385
0.00871275
0.0085753
0.0083587
0.00793686
0.00714028
0.00597545
0.00511752
0.00479497
0.00453193
0.00453499
0.00443764
0.00443677
0.0044031
0.00440278
0.00438728
0.00438798
0.00437639
0.00437519
0.00436652
0.00436178
0.00435578
0.00434979
0.00434437
0.00433897
0.00433381
0.00432942
0.00432517
0.00432138
0.00431764
0.00431404
0.00431062
0.00430701
0.00430382
0.0043006
0.00429682
0.00429279
0.00465185
0.00482646
0.00513574
0.00566175
0.00644362
0.00748702
0.00838864
0.00876534
0.00875811
0.00884983
0.00888297
0.00889024
0.00887348
0.00883467
0.00878815
0.00872698
0.0086327
0.00849506
0.00826785
0.00790238
0.00730534
0.00646248
0.00568407
0.00508502
0.00475966
0.00453679
0.00453366
0.00444758
0.00444399
0.00441139
0.00440853
0.00439794
0.00439146
0.00438578
0.00437938
0.00437332
0.00436609
0.00435983
0.00435364
0.00434734
0.00434161
0.00433544
0.00433023
0.0043253
0.00432113
0.0043174
0.00431397
0.00431124
0.00430827
0.0043064
0.00430436
0.0043029
0.00430157
0.00430041
0.00457164
0.00465409
0.00479728
0.0050519
0.00548812
0.00614699
0.00700677
0.00784181
0.00848359
0.00841744
0.00853289
0.00854488
0.00853568
0.0084258
0.00825719
0.00804577
0.00772937
0.00728534
0.00680797
0.00627679
0.00575477
0.0053231
0.00493928
0.00469204
0.0045723
0.00448861
0.00448548
0.00443662
0.00443373
0.00441085
0.00441143
0.00439668
0.00439666
0.00438417
0.00438375
0.00437204
0.00436724
0.00435998
0.00435324
0.00434621
0.00433941
0.00433311
0.00432733
0.00432253
0.00431852
0.00431505
0.00431248
0.00430986
0.00430906
0.00430844
0.00430983
0.00431323
0.00431648
0.00431785
0.00453881
0.00457728
0.00463989
0.00474462
0.00491684
0.00518781
0.00556788
0.00603571
0.00646324
0.00696496
0.0069738
0.007056
0.00700727
0.00680197
0.00646815
0.00619134
0.00593022
0.00570626
0.00543534
0.00519395
0.00497251
0.00477361
0.00463531
0.00451594
0.00451803
0.00446261
0.00446119
0.00442935
0.00442993
0.004412
0.00441299
0.00440021
0.00440023
0.00438725
0.00438534
0.00437333
0.00436942
0.00436027
0.00435326
0.00434555
0.00433834
0.00433183
0.00432627
0.00432217
0.00431809
0.00431524
0.00431232
0.00431192
0.00431237
0.00431565
0.00431982
0.00432532
0.00433195
0.00433764
0.00452931
0.00454882
0.00457345
0.00461143
0.00466944
0.00475511
0.0048783
0.00503717
0.00521286
0.00533298
0.00543991
0.00543559
0.00543915
0.00534735
0.0052112
0.00510874
0.00503417
0.00493146
0.00482404
0.00472451
0.00464282
0.00453712
0.00453746
0.00448098
0.00447997
0.00444883
0.00444819
0.00442894
0.00442896
0.0044159
0.0044161
0.00440269
0.00440335
0.00438971
0.00438668
0.00437595
0.00437055
0.00436146
0.00435395
0.00434611
0.0043389
0.00433225
0.00432793
0.00432124
0.00431991
0.00431654