/*--------------------------------*- C++ -*----------------------------------*\
  =========                 |
  \\      /  F ield         | OpenFOAM: The Open Source CFD Toolbox
   \\    /   O peration     | Website:  https://openfoam.org
    \\  /    A nd           | Version:  10
     \\/     M anipulation  |
\*---------------------------------------------------------------------------*/
FoamFile
{
    format      ascii;
    class       volScalarField;
    location    "0.298862";
    object      p;
}
// * * * * * * * * * * * * * * * * * * * * * * * * * * * * * * * * * * * * * //

dimensions      [1 -1 -2 0 0 0 0];

internalField   nonuniform List<scalar> 
16320
(
0.746177
0.759219
0.768117
0.773097
0.776497
0.777063
0.775494
0.771747
0.766671
0.760385
0.753109
0.745231
0.73762
0.730438
0.722509
0.713726
0.704385
0.694233
0.684227
0.678874
0.683228
0.697734
0.723167
0.743325
0.742187
0.724649
0.682212
0.629034
0.581158
0.546809
0.525384
0.513957
0.507752
0.755296
0.770164
0.776727
0.780491
0.781596
0.780689
0.777785
0.772699
0.766086
0.758575
0.75027
0.741213
0.731726
0.721022
0.709693
0.697744
0.685591
0.673769
0.66516
0.665969
0.675903
0.701158
0.739181
0.772051
0.777098
0.765588
0.727397
0.663042
0.606079
0.563445
0.534327
0.516836
0.505237
0.757084
0.772006
0.780234
0.782481
0.782878
0.781338
0.777492
0.771574
0.763718
0.754268
0.743639
0.732114
0.719982
0.707276
0.694239
0.681051
0.668638
0.657646
0.653327
0.658793
0.675008
0.708631
0.75742
0.795938
0.806228
0.794125
0.755548
0.687482
0.625014
0.576041
0.540635
0.51811
0.501712
0.754874
0.77096
0.780357
0.784952
0.784953
0.782481
0.777336
0.769844
0.760331
0.748964
0.736255
0.722735
0.709057
0.695101
0.681127
0.667529
0.655451
0.64682
0.64799
0.656935
0.679314
0.722099
0.775367
0.815281
0.818212
0.805305
0.766249
0.698878
0.635533
0.583317
0.543485
0.51666
0.495958
0.752989
0.772151
0.783301
0.788749
0.789219
0.785806
0.779544
0.770637
0.759278
0.746145
0.731794
0.716728
0.701369
0.686053
0.671216
0.657407
0.646145
0.641381
0.646089
0.661267
0.691113
0.740032
0.791527
0.820507
0.819945
0.805426
0.764995
0.700292
0.638676
0.584991
0.542484
0.511527
0.487857
0.756309
0.780479
0.793947
0.799507
0.799428
0.793523
0.785996
0.775174
0.76201
0.747099
0.730613
0.713443
0.696341
0.679665
0.663922
0.650121
0.640419
0.641341
0.648409
0.668737
0.707966
0.758224
0.800163
0.817633
0.813681
0.793985
0.748882
0.690503
0.633943
0.581283
0.537433
0.503161
0.478456
0.770649
0.798468
0.812402
0.817119
0.815163
0.807231
0.797674
0.784612
0.768704
0.751092
0.732442
0.713175
0.694016
0.675759
0.659177
0.645828
0.640214
0.644106
0.656457
0.683252
0.729254
0.774873
0.802227
0.805565
0.796742
0.769857
0.7222
0.671787
0.621282
0.571962
0.529241
0.492702
0.469348
0.797749
0.828186
0.84023
0.842228
0.836473
0.825325
0.812506
0.796871
0.778146
0.757653
0.736383
0.714943
0.694165
0.674922
0.65836
0.646574
0.646134
0.652551
0.670675
0.706851
0.752899
0.784502
0.794615
0.789175
0.769733
0.731654
0.690306
0.648224
0.604289
0.559772
0.519578
0.483361
0.462153
0.803239
0.839051
0.853664
0.853801
0.848093
0.835625
0.820673
0.802487
0.781898
0.759714
0.736763
0.713854
0.691823
0.672018
0.656459
0.649582
0.653404
0.665911
0.692287
0.733797
0.768409
0.781081
0.777751
0.76289
0.730367
0.692334
0.657228
0.623142
0.586271
0.547842
0.510953
0.479269
0.461026
0.786357
0.822961
0.845925
0.855091
0.84734
0.832687
0.817008
0.797994
0.776659
0.753788
0.730075
0.706598
0.684559
0.665937
0.653877
0.654563
0.662335
0.682901
0.718486
0.753272
0.767921
0.76568
0.753579
0.725955
0.689448
0.655778
0.627224
0.599683
0.570887
0.540392
0.508018
0.48448
0.469168
0.744043
0.778041
0.80434
0.819796
0.822695
0.817821
0.804205
0.784961
0.763996
0.741808
0.718816
0.696416
0.676313
0.66115
0.655942
0.660979
0.675965
0.703878
0.737949
0.754702
0.752751
0.743364
0.721447
0.687209
0.652981
0.624554
0.602949
0.582745
0.562601
0.540127
0.517917
0.502767
0.495145
0.690766
0.710827
0.729346
0.744315
0.753394
0.755935
0.753066
0.745819
0.733549
0.716526
0.697238
0.678521
0.662401
0.653197
0.654897
0.665777
0.690446
0.722692
0.74111
0.740237
0.731119
0.715348
0.685904
0.653433
0.62335
0.600549
0.585887
0.574716
0.565477
0.556296
0.550755
0.55094
0.556394
0.637158
0.637536
0.637911
0.639749
0.643238
0.648139
0.653646
0.657586
0.659101
0.657275
0.652212
0.64476
0.637504
0.638657
0.647258
0.668759
0.703187
0.726026
0.729004
0.721663
0.704031
0.68328
0.654801
0.626416
0.600615
0.584908
0.579452
0.581102
0.589015
0.604165
0.622812
0.638485
0.650176
0.590938
0.574058
0.556394
0.54134
0.531681
0.528279
0.530861
0.53718
0.547051
0.557679
0.567792
0.576816
0.586865
0.602614
0.62935
0.666167
0.698485
0.710057
0.705712
0.693285
0.673748
0.651533
0.62764
0.604284
0.585441
0.581984
0.58899
0.610111
0.651082
0.695027
0.722812
0.729378
0.726332
0.552256
0.523647
0.494901
0.469617
0.450283
0.437716
0.43169
0.432729
0.438034
0.448681
0.464048
0.483095
0.507401
0.541106
0.586551
0.635412
0.668737
0.676677
0.67049
0.657462
0.640943
0.619968
0.604683
0.588907
0.582739
0.592911
0.623385
0.68405
0.754991
0.798546
0.806292
0.793455
0.769814
0.517511
0.481445
0.447452
0.41863
0.39623
0.379906
0.368978
0.36368
0.364563
0.369185
0.379566
0.397073
0.424848
0.467327
0.524895
0.582273
0.619311
0.629583
0.625878
0.618079
0.606836
0.592545
0.585838
0.583255
0.593934
0.630009
0.705427
0.800382
0.862305
0.877411
0.863971
0.831922
0.79464
0.483047
0.442778
0.407548
0.379192
0.357279
0.340463
0.328867
0.321298
0.319064
0.321167
0.327079
0.339299
0.363392
0.404893
0.462798
0.520942
0.560188
0.576284
0.578897
0.577017
0.574184
0.569642
0.5748
0.590539
0.63149
0.718799
0.833911
0.914337
0.940886
0.932425
0.901283
0.857509
0.813616
0.447252
0.406256
0.373052
0.347392
0.32789
0.312902
0.30159
0.293469
0.289887
0.291044
0.295125
0.304797
0.32541
0.362916
0.414262
0.466146
0.504106
0.525038
0.534802
0.539365
0.545648
0.555262
0.577461
0.625647
0.721095
0.858702
0.957247
0.993281
0.991979
0.967384
0.925266
0.876635
0.829979
0.412522
0.37665
0.348815
0.325717
0.307205
0.292376
0.280716
0.273073
0.269575
0.270531
0.274158
0.283089
0.302198
0.335709
0.379297
0.423303
0.45809
0.481563
0.497742
0.510622
0.527993
0.557529
0.610398
0.714215
0.86641
0.986275
1.03297
1.0378
1.01886
0.983125
0.934741
0.88474
0.840081
0.389082
0.357793
0.332464
0.310525
0.292083
0.277033
0.265643
0.258147
0.254748
0.25567
0.259309
0.26824
0.287002
0.317447
0.354593
0.391841
0.423546
0.449191
0.471417
0.496085
0.531715
0.59109
0.696252
0.855003
0.994329
1.05848
1.06627
1.05609
1.02495
0.983723
0.932674
0.882968
0.842803
0.372504
0.34584
0.321399
0.299951
0.281583
0.266388
0.25492
0.247257
0.243809
0.244783
0.248523
0.257631
0.276406
0.30434
0.336914
0.369905
0.400967
0.431203
0.463704
0.506176
0.568564
0.674864
0.829129
0.976409
1.0612
1.07628
1.07479
1.0563
1.02042
0.975035
0.924651
0.880153
0.841809
0.362042
0.337298
0.314498
0.293108
0.274639
0.259291
0.247503
0.239647
0.236118
0.237114
0.241142
0.250829
0.269983
0.295998
0.326447
0.358925
0.392643
0.430811
0.480423
0.549407
0.650444
0.793507
0.943754
1.03632
1.0646
1.07366
1.06807
1.04592
1.00646
0.95901
0.912586
0.869734
0.835759
0.356404
0.33259
0.310398
0.289952
0.271539
0.25598
0.243873
0.23596
0.232451
0.233535
0.237947
0.248224
0.267682
0.29322
0.324008
0.359058
0.400443
0.453646
0.527333
0.626325
0.751084
0.892674
0.986757
1.03138
1.05244
1.0589
1.05049
1.0259
0.985133
0.938797
0.894759
0.85615
0.826227
0.352694
0.330411
0.309137
0.288874
0.270399
0.254376
0.242235
0.234448
0.231207
0.232325
0.237377
0.249825
0.270776
0.297348
0.330765
0.373204
0.428805
0.50217
0.595668
0.705108
0.829312
0.92349
0.980806
1.01564
1.03223
1.03674
1.02742
1.00109
0.961312
0.917392
0.876701
0.842978
0.818355
0.351283
0.329914
0.308886
0.28792
0.270115
0.257088
0.247372
0.240735
0.237726
0.239128
0.244983
0.258428
0.280175
0.310374
0.351682
0.403392
0.470876
0.555446
0.653176
0.762052
0.852892
0.919049
0.966454
0.996076
1.00918
1.01201
1.0012
0.974822
0.937344
0.89674
0.860156
0.831323
0.80899
0.350999
0.330309
0.309237
0.293973
0.280421
0.267888
0.257541
0.250227
0.24751
0.249404
0.25706
0.272855
0.29758
0.332901
0.380161
0.440292
0.514779
0.600635
0.695488
0.78077
0.850959
0.910043
0.950938
0.976018
0.986715
0.987732
0.975649
0.949664
0.912872
0.876592
0.844512
0.820472
0.803129
0.352254
0.333052
0.318855
0.304939
0.291765
0.280878
0.272093
0.265919
0.263897
0.266423
0.275664
0.293518
0.321177
0.361052
0.412524
0.47736
0.552463
0.636104
0.714292
0.786523
0.849571
0.899722
0.936907
0.957694
0.966424
0.965427
0.95207
0.9262
0.893185
0.859936
0.832722
0.813069
0.798951
0.356723
0.342239
0.330682
0.318089
0.309148
0.301366
0.29396
0.289342
0.288183
0.291504
0.302249
0.321338
0.35132
0.393661
0.448152
0.513691
0.585832
0.658726
0.730175
0.795894
0.849142
0.894472
0.925294
0.9413
0.947455
0.944396
0.930051
0.905285
0.87539
0.846961
0.825776
0.809964
0.797775
0.364034
0.354602
0.344876
0.338286
0.333116
0.327534
0.322479
0.319972
0.319807
0.323714
0.335265
0.355379
0.386439
0.42961
0.484648
0.54828
0.616108
0.685156
0.750925
0.806564
0.853518
0.891747
0.915291
0.926133
0.92949
0.924678
0.910077
0.886941
0.86167
0.840585
0.8237
0.810496
0.800299
0.376138
0.369924
0.364114
0.361521
0.359399
0.356918
0.355871
0.356146
0.358163
0.363706
0.376015
0.396374
0.427777
0.4715
0.526472
0.588235
0.653672
0.717356
0.774016
0.821683
0.861135
0.890768
0.906644
0.913028
0.913647
0.907496
0.893476
0.873086
0.855467
0.839001
0.826169
0.817233
0.811862
0.391738
0.387119
0.385571
0.385606
0.38647
0.387102
0.390162
0.394241
0.400232
0.409179
0.424508
0.44692
0.479551
0.523713
0.576679
0.63534
0.696039
0.752328
0.7989
0.839515
0.871355
0.891176
0.899858
0.902616
0.90074
0.894373
0.881044
0.868004
0.854686
0.843494
0.834848
0.827949
0.827373
0.4081
0.405115
0.405672
0.408528
0.412402
0.411827
0.419863
0.428759
0.440499
0.456249
0.4772
0.503459
0.537986
0.580824
0.630136
0.684571
0.738669
0.786372
0.826722
0.859735
0.882087
0.89275
0.895904
0.895267
0.891475
0.884815
0.877045
0.868467
0.861297
0.855049
0.850117
0.849782
0.849756
0.426181
0.424456
0.42657
0.431985
0.436054
0.438809
0.451541
0.464174
0.481492
0.503685
0.530415
0.561786
0.597928
0.638574
0.685463
0.734431
0.781993
0.821728
0.855738
0.87982
0.892175
0.895835
0.894376
0.890752
0.88579
0.882337
0.878792
0.876713
0.87579
0.874015
0.873296
0.877523
0.880141
0.444749
0.444161
0.447285
0.453691
0.460835
0.466192
0.481006
0.497874
0.520853
0.549545
0.583188
0.620697
0.660173
0.701135
0.743886
0.7866
0.825093
0.858071
0.884026
0.897978
0.902745
0.899901
0.894381
0.888529
0.885351
0.885285
0.887715
0.892413
0.897537
0.899516
0.907506
0.913978
0.918115
0.464092
0.464941
0.468331
0.475882
0.484709
0.491834
0.509302
0.529768
0.557597
0.592186
0.632872
0.677368
0.721681
0.76412
0.803096
0.838732
0.869042
0.894262
0.909002
0.914454
0.911465
0.902795
0.895246
0.888446
0.889022
0.893936
0.902453
0.914674
0.920667
0.930019
0.945106
0.956481
0.960904
0.483583
0.486813
0.489685
0.498161
0.508438
0.517431
0.536522
0.559494
0.591426
0.631138
0.677999
0.728772
0.778575
0.823205
0.860212
0.889951
0.913152
0.925961
0.929768
0.927379
0.917585
0.905995
0.895615
0.890118
0.894577
0.905232
0.92045
0.934889
0.947113
0.9651
0.984344
0.999952
1.0068
0.501321
0.508783
0.511873
0.520872
0.531271
0.543947
0.56217
0.5875
0.62285
0.666628
0.718138
0.773739
0.828048
0.87534
0.911828
0.937381
0.948852
0.951416
0.946709
0.931672
0.914974
0.899775
0.890439
0.88898
0.898296
0.915181
0.93542
0.952537
0.970203
0.997864
1.02083
1.03692
1.04946
0.519883
0.530009
0.534284
0.543339
0.554946
0.568925
0.587012
0.615147
0.653038
0.699732
0.754053
0.812202
0.868985
0.918626
0.952376
0.968987
0.972297
0.964308
0.9468
0.92439
0.901174
0.883985
0.877321
0.881343
0.896516
0.918159
0.939691
0.961662
0.987199
1.01517
1.04093
1.06101
1.07954
0.53564
0.547245
0.555977
0.564601
0.578223
0.594963
0.613724
0.644238
0.683257
0.730952
0.786146
0.844922
0.902246
0.947902
0.978062
0.987986
0.983756
0.96725
0.932289
0.897643
0.869257
0.854687
0.851765
0.862549
0.884145
0.911329
0.93457
0.959092
0.993929
1.02094
1.0438
1.068
1.09056
0.546923
0.558435
0.573841
0.583101
0.599133
0.618921
0.637767
0.670461
0.710514
0.759148
0.81436
0.872489
0.921912
0.969035
0.992336
0.997937
0.988023
0.950905
0.90551
0.862795
0.834448
0.822954
0.823541
0.840365
0.866703
0.889372
0.919253
0.951037
0.979524
1.00922
1.03338
1.05715
1.08201
0.551125
0.56639
0.583129
0.597676
0.615347
0.63777
0.659622
0.694081
0.734592
0.783716
0.838269
0.889908
0.941271
0.980815
0.999014
1.00536
0.979943
0.933134
0.879278
0.83098
0.803427
0.794092
0.799091
0.816229
0.837938
0.867585
0.897255
0.926959
0.957408
0.980349
1.00561
1.0275
1.0516
0.549027
0.569274
0.585591
0.608172
0.625237
0.65043
0.68013
0.712697
0.754565
0.804197
0.857711
0.905389
0.956138
0.990504
1.00757
1.00388
0.971515
0.918562
0.858229
0.806249
0.78031
0.773306
0.772351
0.789443
0.810895
0.837331
0.866661
0.894176
0.920513
0.943429
0.963807
0.98254
1.00465
0.539872
0.563456
0.585191
0.605272
0.630795
0.655883
0.692056
0.724906
0.770758
0.820899
0.87237
0.920312
0.965815
0.996806
1.01161
1.00132
0.965902
0.907584
0.842604
0.789461
0.759718
0.751976
0.751666
0.762747
0.780442
0.805814
0.829415
0.854427
0.873943
0.894439
0.91128
0.927761
0.949611
0.525843
0.548731
0.573728
0.597457
0.623402
0.652508
0.692607
0.739721
0.782725
0.834476
0.883731
0.931926
0.972592
0.99874
1.00993
0.998002
0.96021
0.896918
0.828052
0.77163
0.742677
0.731685
0.727962
0.735137
0.750885
0.766865
0.788781
0.805891
0.825483
0.840318
0.854422
0.871377
0.89606
0.505933
0.529882
0.554107
0.580653
0.606542
0.64195
0.68503
0.740407
0.79076
0.843584
0.891942
0.938525
0.974258
0.998463
1.00396
0.991139
0.950678
0.882777
0.810175
0.750573
0.723483
0.709056
0.703421
0.708695
0.715076
0.728764
0.745502
0.757115
0.773908
0.786092
0.800197
0.819456
0.848251
0.486828
0.50748
0.531565
0.556713
0.585778
0.618528
0.666565
0.728244
0.796196
0.847088
0.895848
0.940077
0.971557
0.991448
0.993433
0.979163
0.93544
0.864548
0.789559
0.729657
0.702226
0.685062
0.681246
0.679831
0.680886
0.691525
0.701899
0.711483
0.724751
0.736662
0.752346
0.775045
0.807298
0.471313
0.487346
0.507367
0.531663
0.558515
0.59162
0.627833
0.697262
0.784093
0.85383
0.89682
0.937678
0.965289
0.980648
0.980537
0.963867
0.919292
0.847393
0.771628
0.710864
0.682164
0.663963
0.657658
0.652736
0.651564
0.65755
0.662241
0.67058
0.681681
0.69483
0.71248
0.737477
0.771031
0.460166
0.471892
0.486992
0.506752
0.531994
0.562047
0.60047
0.658591
0.75327
0.848457
0.893094
0.931201
0.956382
0.968822
0.967439
0.949029
0.903754
0.835455
0.756402
0.697753
0.666382
0.645922
0.636277
0.629097
0.627288
0.628725
0.630013
0.637202
0.646952
0.661294
0.679584
0.705542
0.73802
0.45298
0.46132
0.47206
0.486647
0.50673
0.534032
0.569149
0.612997
0.7098
0.823291
0.892537
0.920141
0.947001
0.957128
0.95528
0.937471
0.892093
0.829342
0.745642
0.689664
0.654588
0.633283
0.62029
0.611009
0.607336
0.606425
0.606064
0.611523
0.620244
0.634697
0.653898
0.678363
0.708268
0.448828
0.454781
0.462227
0.472455
0.487411
0.510108
0.540123
0.58307
0.666222
0.786554
0.882477
0.911179
0.93755
0.945904
0.944859
0.928953
0.88503
0.824882
0.740948
0.684611
0.645728
0.625941
0.610662
0.600182
0.593692
0.590817
0.589775
0.593368
0.600934
0.614696
0.633036
0.655687
0.683406
0.446797
0.451347
0.456372
0.463248
0.473749
0.490879
0.518714
0.559609
0.615866
0.742511
0.856597
0.906449
0.925826
0.936242
0.936958
0.922495
0.881026
0.821902
0.739322
0.680369
0.643692
0.620178
0.606957
0.595544
0.586664
0.581929
0.580546
0.581784
0.587977
0.600023
0.61664
0.637805
0.662881
0.446112
0.45008
0.453581
0.457944
0.465077
0.478033
0.501544
0.537168
0.58691
0.698966
0.825252
0.894775
0.913198
0.928355
0.92989
0.917234
0.879407
0.818732
0.738292
0.678373
0.64099
0.619778
0.60628
0.59526
0.586212
0.579275
0.576402
0.576254
0.580865
0.590608
0.605015
0.624023
0.646813
0.445933
0.449876
0.452615
0.455375
0.460003
0.469681
0.489214
0.520845
0.569114
0.648563
0.782615
0.873253
0.907019
0.920162
0.921738
0.910858
0.878381
0.814309
0.738411
0.675619
0.639207
0.619219
0.606546
0.597294
0.588616
0.581054
0.576804
0.575484
0.578244
0.585606
0.597687
0.614547
0.635274
0.446107
0.450445
0.452761
0.454589
0.457506
0.464458
0.480114
0.50911
0.553838
0.614974
0.741444
0.848351
0.894053
0.907089
0.912018
0.902474
0.873365
0.81231
0.736085
0.672494
0.637099
0.617889
0.607327
0.599814
0.593061
0.586143
0.580237
0.578054
0.578788
0.58406
0.594186
0.609102
0.628154
0.446773
0.451337
0.453569
0.454731
0.456453
0.461252
0.473675
0.499099
0.539528
0.593563
0.693583
0.813745
0.875288
0.889531
0.897758
0.891396
0.864626
0.808328
0.7321
0.667172
0.633803
0.615792
0.606381
0.600955
0.596193
0.591129
0.586197
0.582818
0.582136
0.585342
0.593799
0.607231
0.625238
0.447818
0.452521
0.454854
0.455536
0.456243
0.459234
0.468653
0.490405
0.526361
0.577583
0.64568
0.770608
0.844014
0.871587
0.87673
0.874776
0.851193
0.799981
0.728108
0.663597
0.629323
0.612921
0.604764
0.600508
0.598149
0.595079
0.59127
0.588129
0.587099
0.588732
0.595565
0.607966
0.625256
0.449755
0.454115
0.45637
0.456792
0.456601
0.457964
0.464546
0.482289
0.513674
0.559908
0.615334
0.721421
0.807506
0.845237
0.849741
0.851927
0.833392
0.789784
0.724213
0.660949
0.624806
0.609
0.602324
0.599126
0.59887
0.598731
0.596799
0.594521
0.593009
0.593972
0.599899
0.610988
0.627541
0.453273
0.456342
0.457999
0.457979
0.457237
0.457214
0.461201
0.47447
0.502443
0.541557
0.591289
0.663579
0.762708
0.813645
0.820056
0.824774
0.811522
0.778226
0.720396
0.660933
0.622383
0.604768
0.597322
0.595294
0.599489
0.602155
0.603145
0.60299
0.601869
0.60229
0.606285
0.61612
0.632238
0.45811
0.459535
0.460041
0.459565
0.457936
0.456892
0.458583
0.467883
0.491099
0.523309
0.569533
0.618871
0.712625
0.77279
0.795805
0.797767
0.79021
0.764041
0.717353
0.661377
0.621426
0.602231
0.594586
0.591222
0.596073
0.603605
0.610084
0.611864
0.611806
0.611374
0.615014
0.623865
0.63824
0.464134
0.463972
0.463011
0.461305
0.459085
0.45701
0.456778
0.462385
0.479283
0.505887
0.546632
0.588562
0.654976
0.725103
0.765263
0.767303
0.768365
0.750499
0.713574
0.6646
0.623213
0.600949
0.59102
0.587765
0.59393
0.60241
0.612079
0.618821
0.621301
0.622333
0.624689
0.63165
0.646055
0.470949
0.469521
0.467216
0.464273
0.460965
0.45792
0.456181
0.458632
0.469108
0.491286
0.524134
0.562786
0.598229
0.677238
0.727157
0.750933
0.748723
0.73603
0.70806
0.668204
0.625854
0.600689
0.589457
0.586213
0.588623
0.599913
0.61091
0.620773
0.627312
0.63235
0.632322
0.639005
0.652093
0.477615
0.47559
0.472491
0.468669
0.464549
0.460438
0.457015
0.457177
0.462797
0.478121
0.503991
0.536497
0.569923
0.625807
0.685088
0.727475
0.728693
0.726485
0.703341
0.669465
0.632294
0.602128
0.588047
0.582988
0.585067
0.593813
0.605883
0.617385
0.626115
0.629786
0.638264
0.64423
0.656352
0.483209
0.481384
0.478309
0.474336
0.469764
0.46505
0.461004
0.458587
0.46028
0.468965
0.487422
0.512721
0.540478
0.578845
0.641453
0.693316
0.719469
0.711827
0.699009
0.671096
0.637946
0.607577
0.589231
0.582401
0.580993
0.587383
0.598237
0.609862
0.619521
0.627299
0.638314
0.642717
0.657351
0.48712
0.486366
0.484254
0.481054
0.477012
0.472428
0.467602
0.463265
0.461327
0.464618
0.475269
0.493398
0.513771
0.54243
0.596457
0.656303
0.700812
0.706106
0.693073
0.672714
0.6444
0.616062
0.594314
0.583862
0.580285
0.582479
0.590396
0.601766
0.612977
0.622825
0.630396
0.642623
0.656389
0.48945
0.49031
0.490029
0.488666
0.486009
0.482055
0.477092
0.471473
0.466441
0.46481
0.468847
0.479276
0.492347
0.51305
0.55187
0.613722
0.668502
0.696601
0.690235
0.673932
0.65183
0.628035
0.606689
0.591959
0.584167
0.581814
0.584324
0.593123
0.60505
0.615996
0.623153
0.641328
0.651801
0.490505
0.493342
0.495519
0.496658
0.496134
0.493745
0.489379
0.483199
0.475937
0.469738
0.467352
0.47015
0.47642
0.488208
0.51485
0.568921
0.631422
0.678509
0.689942
0.679312
0.659589
0.642669
0.626423
0.610094
0.596383
0.587338
0.584451
0.587626
0.597091
0.608182
0.617036
0.631745
0.644939
0.490908
0.495737
0.500657
0.504603
0.506768
0.506558
0.503848
0.498022
0.489485
0.479674
0.470954
0.466088
0.466284
0.47022
0.488064
0.527049
0.584266
0.642277
0.679957
0.681862
0.676087
0.662413
0.648565
0.635065
0.61803
0.600894
0.589407
0.585308
0.592012
0.6003
0.610146
0.622828
0.638354
0.491231
0.497996
0.505421
0.512162
0.517233
0.519796
0.519044
0.515006
0.506457
0.494188
0.480194
0.467241
0.460744
0.458178
0.467487
0.491009
0.537607
0.593315
0.648975
0.677126
0.685211
0.689231
0.687123
0.674602
0.650533
0.623405
0.597461
0.5905
0.590425
0.594732
0.60305
0.614767
0.63056
0.492311
0.5007
0.510046
0.519183
0.526996
0.532389
0.534153
0.532152
0.525488
0.512114
0.493789
0.473336
0.459671
0.450215
0.452206
0.461793
0.492953
0.538572
0.592736
0.651083
0.685304
0.712332
0.729927
0.723081
0.691023
0.649827
0.611821
0.59614
0.590696
0.591801
0.597147
0.607724
0.623294
0.49504
0.504236
0.514821
0.525683
0.535665
0.54355
0.548189
0.548197
0.543953
0.532045
0.510605
0.483355
0.461051
0.445135
0.439291
0.442924
0.456479
0.488628
0.5321
0.592291
0.668562
0.730605
0.774341
0.771711
0.729796
0.674245
0.626028
0.602971
0.592571
0.590509
0.594216
0.603129
0.618293
0.499611
0.509023
0.520045
0.531786
0.543165
0.552908
0.559888
0.562364
0.560205
0.551268
0.528803
0.494974
0.464625
0.442229
0.429665
0.426575
0.430417
0.447349
0.481371
0.53516
0.623019
0.729489
0.795197
0.79223
0.745039
0.686479
0.63555
0.609997
0.59664
0.592665
0.594931
0.602244
0.616591
0.506075
0.515146
0.525915
0.537704
0.549603
0.560423
0.56902
0.57376
0.573457
0.567086
0.545926
0.506608
0.468967
0.440336
0.422283
0.413064
0.411207
0.418456
0.446045
0.501828
0.596855
0.713301
0.784011
0.78142
0.739451
0.68786
0.639526
0.615822
0.601882
0.596786
0.598798
0.605
0.618676
0.5142
0.522497
0.532487
0.543631
0.555228
0.566328
0.575749
0.581977
0.583336
0.578872
0.559621
0.516767
0.472364
0.439023
0.416602
0.403785
0.400518
0.409037
0.435987
0.49745
0.586232
0.685064
0.736599
0.73613
0.712968
0.677772
0.641984
0.621331
0.609184
0.604601
0.605694
0.611059
0.624229
0.523614
0.530887
0.539708
0.549669
0.560347
0.570989
0.580474
0.587413
0.589777
0.586552
0.569195
0.523908
0.474436
0.438038
0.412933
0.399721
0.399556
0.412981
0.444475
0.501196
0.573635
0.63821
0.677486
0.686463
0.677243
0.660188
0.64145
0.624074
0.617644
0.613376
0.614378
0.620088
0.634042
0.534023
0.540045
0.547397
0.55583
0.565139
0.574767
0.583661
0.590506
0.593219
0.590656
0.574289
0.527686
0.475478
0.437859
0.411425
0.400484
0.403983
0.425001
0.463996
0.514109
0.565483
0.612265
0.642678
0.651672
0.651115
0.646389
0.638226
0.628887
0.623957
0.62219
0.624496
0.631577
0.64702
0.545174
0.549797
0.555485
0.562157
0.569785
0.577844
0.585609
0.591696
0.594351
0.591924
0.57502
0.528219
0.475787
0.438062
0.412158
0.404039
0.41355
0.439269
0.475463
0.515731
0.554818
0.591726
0.615934
0.628833
0.634954
0.636721
0.635788
0.632528
0.629558
0.629685
0.634213
0.643702
0.662414
0.556639
0.55985
0.563795
0.568581
0.574312
0.580513
0.586831
0.591665
0.593888
0.591146
0.572711
0.52594
0.47561
0.438178
0.41445
0.409559
0.422246
0.447679
0.479552
0.512501
0.546239
0.574947
0.596737
0.611882
0.62233
0.627777
0.630527
0.632382
0.633898
0.636768
0.643069
0.655972
0.678592
0.56817
0.570023
0.572227
0.575081
0.578753
0.582986
0.587519
0.59073
0.592172
0.58814
0.567162
0.522058
0.476234
0.437918
0.417494
0.41472
0.428209
0.451779
0.479466
0.508834
0.538124
0.562638
0.58307
0.597722
0.609003
0.617443
0.623915
0.629164
0.634213
0.64076
0.651386
0.668332
0.694442
0.579561
0.580071
0.58062
0.581602
0.583178
0.585434
0.588007
0.589596
0.589679
0.582909
0.560602
0.518069
0.476405
0.438556
0.420741
0.418722
0.431664
0.452599
0.477496
0.503274
0.529527
0.551959
0.569298
0.584658
0.596747
0.606692
0.614818
0.623163
0.632689
0.644569
0.660778
0.683036
0.712395
0.590471
0.589737
0.588817
0.58812
0.587804
0.588064
0.588719
0.588323
0.586053
0.576362
0.554495
0.515958
0.476649
0.439562
0.423556
0.421526
0.432865
0.451383
0.472755
0.497196
0.52018
0.539031
0.555394
0.570152
0.582321
0.594672
0.604515
0.616384
0.631289
0.649925
0.673288
0.702275
0.7348
0.600612
0.598829
0.596663
0.594507
0.59262
0.590878
0.589398
0.586286
0.581002
0.569849
0.550506
0.517651
0.476639
0.441504
0.426087
0.423113
0.432254
0.447933
0.46638
0.48953
0.508314
0.524896
0.539993
0.553838
0.567297
0.580123
0.594917
0.61197
0.633013
0.659215
0.690975
0.728573
0.769431
0.609765
0.607043
0.603842
0.600561
0.596969
0.593288
0.589312
0.582918
0.575567
0.565024
0.549043
0.52095
0.478844
0.444597
0.428232
0.423779
0.429802
0.441633
0.460874
0.479435
0.495763
0.509577
0.524711
0.538215
0.552173
0.568474
0.587693
0.612127
0.641165
0.675877
0.716472
0.762418
0.810658
0.617562
0.614098
0.609943
0.605383
0.600186
0.594696
0.5877
0.579035
0.570201
0.5617
0.550104
0.527437
0.485212
0.449107
0.429743
0.423227
0.425239
0.435222
0.451994
0.467191
0.482011
0.4955
0.509309
0.523719
0.540672
0.561256
0.585758
0.619267
0.657306
0.700924
0.750102
0.802368
0.857645
0.623599
0.619224
0.614225
0.608456
0.601928
0.59389
0.583989
0.573415
0.564723
0.560113
0.554516
0.537907
0.497159
0.455895
0.43137
0.421341
0.418902
0.428774
0.440974
0.454171
0.467598
0.481124
0.496343
0.512845
0.533852
0.559861
0.591559
0.634895
0.681732
0.731276
0.784856
0.841923
0.897247
0.62728
0.622234
0.616374
0.609654
0.600764
0.589818
0.577827
0.566531
0.559282
0.559281
0.562881
0.551637
0.513219
0.465019
0.432882
0.417901
0.413569
0.419245
0.428719
0.440618
0.453787
0.468189
0.484289
0.505368
0.532399
0.566642
0.608109
0.661196
0.712937
0.762074
0.810802
0.858256
0.908843
0.629167
0.623451
0.616313
0.606986
0.595114
0.582006
0.56937
0.559476
0.554759
0.559373
0.571154
0.566556
0.532121
0.477696
0.435232
0.414136
0.40765
0.408775
0.416157
0.427242
0.440686
0.454771
0.47486
0.502186
0.538669
0.58418
0.641105
0.701133
0.749997
0.78902
0.81892
0.853434
0.895763
0.62984
0.621855
0.611718
0.59913
0.584692
0.570897
0.560083
0.553634
0.552425
0.560647
0.577263
0.580357
0.552468
0.493821
0.439473
0.41085
0.40003
0.397514
0.402729
0.413389
0.425879
0.443315
0.468265
0.504182
0.553065
0.616994
0.691661
0.75175
0.785925
0.801025
0.812488
0.831352
0.861125
0.62653
0.615891
0.601957
0.586243
0.570911
0.55875
0.551506
0.549057
0.55153
0.561889
0.581453
0.592228
0.572479
0.513052
0.446296
0.408502
0.391861
0.386902
0.389384
0.398809
0.411278
0.431626
0.462706
0.508813
0.574854
0.664563
0.747648
0.791817
0.803655
0.8024
0.798161
0.799842
0.814896
0.619249
0.60447
0.587476
0.570575
0.556332
0.547392
0.544213
0.545408
0.550989
0.563192
0.583754
0.601744
0.590639
0.534734
0.457355
0.407182
0.384231
0.376891
0.376525
0.384332
0.39768
0.418751
0.454386
0.510174
0.597689
0.696446
0.775898
0.805747
0.807781
0.79385
0.773068
0.761434
0.765549
0.607942
0.589421
0.570466
0.554085
0.542793
0.537791
0.538195
0.542485
0.550694
0.564405
0.585083
0.607638
0.60562
0.557246
0.473092
0.408867
0.378254
0.367103
0.364646
0.369836
0.381913
0.403881
0.440862
0.510103
0.603444
0.705843
0.778291
0.798353
0.791771
0.767825
0.739813
0.721773
0.72009
0.593973
0.57277
0.553635
0.53935
0.532017
0.530319
0.533639
0.540244
0.550527
0.565298
0.585175
0.608774
0.6171
0.578436
0.492824
0.414227
0.374694
0.358919
0.354629
0.357711
0.367031
0.387831
0.429863
0.498598
0.590326
0.68682
0.745984
0.759448
0.7517
0.72976
0.703943
0.687612
0.68335
0.579093
0.5569
0.539185
0.528271
0.524128
0.524964
0.530319
0.538595
0.549966
0.565313
0.584342
0.607154
0.622877
0.596699
0.515574
0.424891
0.374964
0.353618
0.347285
0.347259
0.356545
0.374941
0.417435
0.485676
0.572718
0.661002
0.704202
0.712253
0.707683
0.692937
0.674377
0.660994
0.661299
0.565208
0.543597
0.528418
0.520865
0.518964
0.521442
0.527957
0.537391
0.54929
0.564448
0.582559
0.60356
0.620646
0.611761
0.540063
0.442198
0.379387
0.351534
0.341715
0.340359
0.346333
0.367439
0.409154
0.475521
0.559442
0.640134
0.678682
0.688854
0.687787
0.672982
0.660077
0.654011
0.65424
0.553452
0.533705
0.52189
0.516907
0.516295
0.519499
0.526356
0.53632
0.548093
0.562806
0.579435
0.598388
0.615706
0.618752
0.562642
0.465477
0.389976
0.353683
0.339496
0.335685
0.341386
0.360745
0.402279
0.466861
0.549332
0.629245
0.668545
0.682268
0.685167
0.664927
0.658404
0.653762
0.656364
0.544736
0.527532
0.518661
0.515355
0.515334
0.518741
0.525501
0.535332
0.546766
0.560731
0.575559
0.592206
0.60818
0.614486
0.582287
0.493131
0.407955
0.36059
0.33962
0.333294
0.336155
0.354602
0.393888
0.457053
0.539092
0.62009
0.667918
0.685684
0.687659
0.669131
0.662457
0.655528
0.65915
0.538709
0.524572
0.517612
0.515185
0.515634
0.519086
0.525575
0.534838
0.545779
0.558321
0.571383
0.585449
0.599257
0.606597
0.591879
0.519656
0.433258
0.373035
0.342703
0.332155
0.332159
0.347372
0.382384
0.44304
0.525643
0.613113
0.673935
0.697509
0.69552
0.681328
0.667314
0.655778
0.659628
0.535832
0.523747
0.518202
0.516629
0.517073
0.520459
0.526777
0.535203
0.544946
0.555969
0.567336
0.57911
0.590527
0.597085
0.589919
0.541031
0.461946
0.390842
0.349063
0.331725
0.328752
0.339017
0.36729
0.422202
0.504609
0.602949
0.681272
0.71222
0.70784
0.695709
0.677038
0.639483
0.628337
0.503464
0.50181
0.501245
0.503302
0.490587
0.481443
0.475033
0.473863
0.499041
0.495205
0.492006
0.491256
0.474685
0.46559
0.458787
0.457142
0.493146
0.486662
0.480974
0.475306
0.461315
0.451208
0.446107
0.443384
0.484826
0.476341
0.468891
0.460285
0.448697
0.437752
0.433235
0.433041
0.474977
0.465129
0.456765
0.447391
0.437234
0.426376
0.421603
0.422864
0.464663
0.45411
0.445791
0.437156
0.427711
0.419219
0.416153
0.420046
0.454999
0.444819
0.437429
0.430536
0.423054
0.41868
0.418131
0.423912
0.448594
0.440069
0.43508
0.431357
0.426992
0.424828
0.427715
0.439048
0.449788
0.44389
0.441557
0.440834
0.441471
0.444923
0.455738
0.479707
0.461275
0.460007
0.462846
0.469415
0.478699
0.493684
0.520606
0.566234
0.495841
0.50305
0.51718
0.535556
0.55833
0.589077
0.631409
0.680146
0.568898
0.588441
0.612075
0.636584
0.662675
0.693152
0.725591
0.753451
0.662279
0.676745
0.691021
0.705212
0.721047
0.737693
0.752694