/*--------------------------------*- C++ -*----------------------------------*\
  =========                 |
  \\      /  F ield         | OpenFOAM: The Open Source CFD Toolbox
   \\    /   O peration     | Website:  https://openfoam.org
    \\  /    A nd           | Version:  10
     \\/     M anipulation  |
\*---------------------------------------------------------------------------*/
FoamFile
{
    format      ascii;
    class       volScalarField;
    location    "0.298862";
    object      rho;
}
// * * * * * * * * * * * * * * * * * * * * * * * * * * * * * * * * * * * * * //

dimensions      [1 -3 0 0 0 0 0];

internalField   nonuniform List<scalar> 
16320
(
0.863736
0.728986
0.709176
0.69418
0.689095
0.690962
0.695647
0.705208
0.717381
0.736096
0.759824
0.785141
0.80447
0.814824
0.817614
0.814365
0.808751
0.796786
0.782027
0.766602
0.751037
0.727517
0.719679
0.710215
0.703992
0.694644
0.687574
0.714888
0.72725
0.725972
0.717999
0.702633
0.672051
0.973275
0.860713
0.736729
0.712413
0.704472
0.705346
0.706236
0.709524
0.714598
0.718848
0.722384
0.7302
0.738557
0.745391
0.747422
0.743996
0.73407
0.719392
0.701762
0.685911
0.683247
0.68079
0.695677
0.722338
0.734666
0.760161
0.805908
0.810533
0.789225
0.762517
0.736518
0.709166
0.66328
0.960695
0.977743
0.855862
0.746242
0.721329
0.715438
0.714374
0.71405
0.714024
0.71438
0.712321
0.709352
0.704643
0.700298
0.69292
0.684963
0.673114
0.660851
0.651918
0.64875
0.657064
0.670147
0.711064
0.755122
0.804735
0.868873
0.901016
0.877693
0.831049
0.786146
0.74729
0.708672
0.647536
0.94326
0.991706
0.967494
0.857325
0.77612
0.741818
0.728101
0.722638
0.716852
0.712385
0.706921
0.700585
0.691885
0.684237
0.674569
0.664188
0.654279
0.644539
0.640877
0.645937
0.660617
0.697643
0.757713
0.832001
0.904372
0.9472
0.956915
0.914059
0.854455
0.799308
0.751562
0.704752
0.636804
0.961286
0.990987
0.976631
0.880828
0.803774
0.76706
0.746301
0.73393
0.724643
0.716951
0.709831
0.70109
0.689669
0.67923
0.668502
0.656354
0.648095
0.642494
0.645899
0.664744
0.699158
0.758908
0.836653
0.917317
0.966933
0.992386
0.982403
0.927109
0.863455
0.805198
0.751693
0.695506
0.620604
0.934436
0.941376
0.926574
0.862001
0.803846
0.771895
0.75219
0.739544
0.728497
0.718838
0.709759
0.699855
0.687882
0.675202
0.662574
0.651719
0.645663
0.650895
0.663604
0.700047
0.74944
0.816992
0.895688
0.958457
0.994751
1.00725
0.978368
0.921767
0.860454
0.801608
0.743782
0.679542
0.601202
0.780816
0.803771
0.811067
0.801143
0.785128
0.771312
0.759057
0.748009
0.736492
0.724795
0.713673
0.703033
0.690978
0.677739
0.665438
0.657538
0.661276
0.674106
0.702234
0.749003
0.808603
0.879413
0.944485
0.986423
1.00876
1.00202
0.959317
0.905868
0.850464
0.791415
0.730781
0.656096
0.578124
0.783301
0.807433
0.811213
0.809293
0.799858
0.788384
0.778136
0.768342
0.757627
0.74555
0.733906
0.723849
0.715989
0.708662
0.706599
0.704537
0.726489
0.743001
0.784226
0.834876
0.897016
0.94999
0.984897
1.00777
1.00691
0.973783
0.930956
0.883734
0.832052
0.773275
0.711097
0.625963
0.55657
0.809165
0.820122
0.810374
0.798027
0.788278
0.776777
0.765822
0.754689
0.743874
0.732504
0.721283
0.709598
0.701767
0.696381
0.698893
0.703675
0.729687
0.759578
0.808494
0.871988
0.92635
0.962617
0.979757
0.991614
0.973408
0.93504
0.896769
0.8567
0.807502
0.751803
0.682438
0.593073
0.540927
0.756458
0.745582
0.735197
0.72718
0.717762
0.707009
0.69661
0.685474
0.674183
0.663164
0.652883
0.640924
0.631916
0.626693
0.626577
0.640953
0.667703
0.711822
0.766963
0.829146
0.8778
0.915807
0.942552
0.948187
0.928585
0.898208
0.865078
0.825939
0.782073
0.726241
0.641836
0.568998
0.535043
0.65758
0.667988
0.675951
0.679601
0.678312
0.674867
0.666587
0.655528
0.643349
0.630207
0.616713
0.603255
0.591264
0.582845
0.580031
0.584235
0.597309
0.623573
0.663941
0.711795
0.768408
0.826637
0.872225
0.889909
0.884515
0.863256
0.833127
0.79973
0.756236
0.688842
0.606837
0.56207
0.546245
0.603045
0.611065
0.622842
0.633056
0.639526
0.641883
0.640932
0.637007
0.629286
0.618603
0.606257
0.594519
0.582842
0.577287
0.576999
0.582167
0.597004
0.613869
0.632406
0.641711
0.671427
0.738767
0.795348
0.834927
0.84748
0.829169
0.805827
0.77492
0.725105
0.650411
0.60018
0.583276
0.587906
0.56573
0.568248
0.571956
0.573565
0.57485
0.57633
0.57792
0.578557
0.577679
0.575044
0.570734
0.565315
0.560812
0.561819
0.567513
0.581525
0.605544
0.612877
0.617408
0.617075
0.620547
0.660682
0.73047
0.79406
0.813648
0.800747
0.783742
0.752772
0.695053
0.645535
0.629718
0.638978
0.660493
0.540609
0.532794
0.521888
0.510816
0.501158
0.495913
0.494741
0.496504
0.500127
0.505458
0.509401
0.514444
0.521077
0.530067
0.549491
0.570168
0.59687
0.60107
0.598319
0.59168
0.588991
0.610475
0.690343
0.762947
0.786628
0.782905
0.769754
0.736606
0.696571
0.678775
0.685569
0.71243
0.728635
0.520122
0.502017
0.483213
0.4644
0.44819
0.435351
0.42742
0.424469
0.423458
0.426744
0.433597
0.444507
0.45896
0.481973
0.510897
0.542519
0.568423
0.575658
0.571989
0.564513
0.56239
0.579447
0.666259
0.745792
0.77246
0.77841
0.7688
0.746928
0.730478
0.726461
0.749324
0.776946
0.770778
0.502978
0.480594
0.458085
0.435908
0.415484
0.398166
0.384972
0.375982
0.369815
0.366636
0.369299
0.377993
0.395161
0.421352
0.462281
0.497815
0.531609
0.541726
0.54062
0.537069
0.538006
0.558243
0.651059
0.736795
0.767783
0.791661
0.794779
0.782585
0.769819
0.775574
0.809302
0.810879
0.78655
0.492418
0.467706
0.443048
0.418533
0.396634
0.378005
0.361371
0.347956
0.335348
0.32898
0.328141
0.332284
0.345595
0.371647
0.412546
0.451781
0.489323
0.50285
0.507567
0.510459
0.518456
0.54816
0.652569
0.740286
0.788178
0.843267
0.837502
0.81631
0.802716
0.821821
0.846555
0.821289
0.7825
0.488013
0.462097
0.435949
0.410133
0.386237
0.363497
0.34392
0.324383
0.311417
0.304763
0.301813
0.303431
0.313474
0.336589
0.373589
0.411684
0.448194
0.466538
0.477452
0.487309
0.503457
0.550089
0.672202
0.766782
0.857879
0.90914
0.865971
0.835687
0.833826
0.860856
0.853109
0.809402
0.754931
0.490678
0.462381
0.432128
0.401623
0.372864
0.346781
0.322473
0.305063
0.292235
0.285872
0.282732
0.284166
0.294122
0.315971
0.348447
0.384558
0.417376
0.437978
0.453943
0.470075
0.496058
0.570661
0.715655
0.837354
0.960596
0.931304
0.872667
0.849757
0.859632
0.878974
0.839376
0.766834
0.690196
0.49129
0.456644
0.422542
0.387463
0.356794
0.329329
0.306725
0.289311
0.278188
0.272859
0.270524
0.272443
0.283022
0.303833
0.33282
0.367341
0.394894
0.4176
0.438921
0.464583
0.507367
0.624745
0.798548
0.958913
1.00578
0.912405
0.86959
0.863543
0.886134
0.873714
0.803667
0.705526
0.656434
0.482428
0.446067
0.409943
0.374292
0.343727
0.316859
0.294913
0.279283
0.269962
0.265076
0.264026
0.266569
0.278048
0.29881
0.327664
0.357917
0.382247
0.409245
0.439151
0.479496
0.548998
0.727038
0.917688
1.04134
0.969246
0.885042
0.867924
0.880977
0.894444
0.848546
0.749565
0.686079
0.65206
0.470694
0.434844
0.397208
0.363485
0.334034
0.308984
0.289559
0.276779
0.268904
0.26567
0.265086
0.268973
0.283291
0.30567
0.332701
0.360701
0.383353
0.415103
0.457789
0.520678
0.643505
0.858672
1.01809
1.0253
0.899885
0.869192
0.87167
0.901309
0.883922
0.806868
0.716181
0.674994
0.649785
0.460311
0.422393
0.389145
0.359242
0.333096
0.313554
0.299525
0.289867
0.284396
0.281976
0.281647
0.2882
0.304934
0.327009
0.351081
0.37265
0.397195
0.43867
0.500898
0.599366
0.791458
0.969362
1.03747
0.926298
0.863356
0.858479
0.884269
0.894014
0.854858
0.760966
0.691558
0.657687
0.637597
0.449402
0.417898
0.389473
0.366968
0.351275
0.342191
0.335774
0.3312
0.327128
0.324863
0.323384
0.328973
0.339753
0.352278
0.368399
0.388818
0.425343
0.484644
0.572712
0.725393
0.902583
1.00355
0.958756
0.856585
0.844023
0.857493
0.887232
0.872142
0.807188
0.717187
0.652338
0.610388
0.590502
0.447141
0.422203
0.405934
0.400517
0.402392
0.402605
0.397253
0.389755
0.381508
0.371817
0.362183
0.357736
0.360105
0.369124
0.386067
0.414792
0.46666
0.545741
0.673336
0.841816
0.952096
0.961099
0.851068
0.827104
0.831615
0.862473
0.86766
0.833409
0.740656
0.65606
0.584876
0.527182
0.498927
0.453558
0.443851
0.449595
0.461444
0.461818
0.450142
0.435438
0.421924
0.410283
0.395197
0.383342
0.376361
0.377752
0.386756
0.410234
0.455842
0.529459
0.644755
0.786601
0.891497
0.931245
0.861733
0.808228
0.813575
0.829496
0.850086
0.837491
0.776672
0.686585
0.619918
0.550854
0.489654
0.464736
0.474822
0.485755
0.503092
0.50546
0.490879
0.476806
0.462645
0.450029
0.438207
0.422142
0.410875
0.404542
0.408104
0.428991
0.472505
0.542775
0.639545
0.747283
0.838918
0.889489
0.859728
0.788825
0.79207
0.805038
0.825166
0.826051
0.798171
0.730806
0.665762
0.606942
0.541312
0.482957
0.463359
0.507712
0.530733
0.541672
0.529423
0.52047
0.508149
0.495259
0.484464
0.474885
0.465003
0.46477
0.469898
0.489241
0.521827
0.572799
0.640586
0.719758
0.796087
0.847045
0.838845
0.766794
0.768708
0.785694
0.801596
0.810163
0.802846
0.771585
0.710117
0.657133
0.608521
0.543239
0.493428
0.498556
0.545519
0.56928
0.565136
0.557627
0.543116
0.531574
0.522787
0.518911
0.517153
0.51453
0.5169
0.522566
0.548763
0.585665
0.638618
0.700127
0.762734
0.808967
0.814267
0.751817
0.747555
0.766029
0.782234
0.794183
0.795991
0.786436
0.753431
0.70106
0.663675
0.616424
0.557571
0.5336
0.599543
0.583436
0.594593
0.590227
0.57248
0.547129
0.53407
0.5316
0.534648
0.538741
0.541702
0.552653
0.571808
0.596241
0.638877
0.686876
0.736626
0.775317
0.778235
0.732999
0.730096
0.747686
0.76744
0.779794
0.785991
0.787297
0.778567
0.743068
0.704441
0.671175
0.618806
0.581196
0.604965
0.72524
0.61385
0.620174
0.610522
0.578555
0.532831
0.506128
0.505513
0.511464
0.52536
0.543414
0.567434
0.598793
0.631899
0.669717
0.703381
0.726035
0.727003
0.713927
0.715581
0.735285
0.756731
0.771515
0.778353
0.781922
0.782315
0.771601
0.73972
0.710371
0.673116
0.622301
0.616781
0.706509
0.783276
0.642664
0.647126
0.634789
0.586364
0.516193
0.480877
0.47296
0.481732
0.49425
0.517049
0.546844
0.578765
0.613815
0.640597
0.664166
0.680767
0.698145
0.70719
0.727022
0.749996
0.767557
0.776309
0.78124
0.784192
0.78127
0.764414
0.739432
0.712773
0.673909
0.627829
0.666561
0.784412
0.81105
0.671873
0.678099
0.665026
0.612872
0.530914
0.481157
0.486267
0.492448
0.508965
0.52903
0.554265
0.581498
0.60672
0.633134
0.658444
0.682831
0.705434
0.725376
0.750069
0.770055
0.780694
0.788655
0.790476
0.786544
0.777212
0.760171
0.740112
0.714184
0.662379
0.640516
0.732733
0.824986
0.823874
0.700113
0.708771
0.696875
0.641962
0.555642
0.504296
0.501804
0.513587
0.529509
0.553767
0.579522
0.607255
0.632773
0.660051
0.685361
0.708958
0.732007
0.75734
0.77965
0.793779
0.801297
0.799609
0.792311
0.780242
0.768857
0.753543
0.736037
0.70246
0.63653
0.667474
0.809578
0.855046
0.803261
0.722939
0.738205
0.731168
0.680055
0.589054
0.523683
0.520597
0.530795
0.552946
0.57858
0.609874
0.641559
0.671662
0.699195
0.724512
0.747152
0.769633
0.790928
0.804097
0.808484
0.804297
0.788807
0.771581
0.758411
0.748223
0.738009
0.719912
0.674074
0.628701
0.721706
0.856069
0.863375
0.781903
0.737582
0.764778
0.764691
0.724118
0.633469
0.550361
0.537679
0.548495
0.571513
0.601345
0.637106
0.673582
0.707723
0.739088
0.764756
0.784744
0.800739
0.80822
0.803464
0.787588
0.773047
0.76016
0.750035
0.742702
0.738574
0.733339
0.708211
0.651342
0.646887
0.803076
0.887354
0.846211
0.793792
0.739194
0.784915
0.79205
0.765186
0.679336
0.583522
0.557558
0.566177
0.591122
0.623803
0.664314
0.704911
0.740945
0.772145
0.793203
0.79846
0.793481
0.789426
0.786645
0.787432
0.791555
0.784466
0.775575
0.765142
0.75432
0.740224
0.700827
0.653688
0.695847
0.859966
0.894432
0.826874
0.819082
0.730167
0.797753
0.814887
0.802296
0.724778
0.618974
0.58024
0.588277
0.614622
0.649771
0.691653
0.731079
0.760999
0.780995
0.78203
0.785836
0.796577
0.836394
0.896884
0.920881
0.911898
0.895958
0.877284
0.852605
0.816499
0.763128
0.684298
0.666854
0.7803
0.877728
0.863249
0.82566
0.84528
0.713809
0.794193
0.832392
0.835146
0.774844
0.662706
0.606726
0.612801
0.638534
0.672984
0.710629
0.741306
0.752931
0.760272
0.777737
0.812724
0.908597
0.984575
0.980081
0.951121
0.921736
0.903646
0.881435
0.857643
0.813324
0.72925
0.678378
0.715422
0.837889
0.870602
0.822469
0.826069
0.871833
0.700642
0.767292
0.841147
0.860973
0.828317
0.71766
0.632981
0.633233
0.656684
0.687573
0.714838
0.726796
0.733495
0.764925
0.813567
0.935069
1.01482
1.00229
0.959912
0.914326
0.878919
0.856316
0.8259
0.792177
0.724579
0.680008
0.699653
0.788421
0.837973
0.824962
0.803204
0.821588
0.894315
0.691619
0.732511
0.824948
0.876852
0.881195
0.79579
0.668102
0.649598
0.666915
0.692092
0.710386
0.7185
0.747671
0.795106
0.902602
1.01765
1.02294
0.978129
0.914379
0.842262
0.801843
0.76379
0.724364
0.68041
0.661597
0.682771
0.745586
0.796907
0.80812
0.773278
0.782656
0.814471
0.898644
0.683755
0.711379
0.771473
0.872091
0.90958
0.881426
0.742834
0.668255
0.67519
0.697842
0.714456
0.732619
0.772149
0.844724
0.979926
1.02961
1.00239
0.934183
0.842052
0.766833
0.70457
0.647906
0.620959
0.628263
0.652483
0.705612
0.75187
0.771516
0.745337
0.741323
0.758402
0.805638
0.888419
0.672719
0.695344
0.730784
0.819243
0.912769
0.94104
0.859933
0.703068
0.68604
0.70475
0.722936
0.750474
0.796535
0.895357
1.00636
1.01778
0.970681
0.878784
0.772659
0.678885
0.597689
0.58102
0.586092
0.618819
0.667706
0.707833
0.727694
0.714993
0.695911
0.708074
0.734747
0.789967
0.863229
0.670123
0.675631
0.701985
0.748629
0.871404
0.957888
0.964587
0.810319
0.705209
0.71231
0.732381
0.765004
0.818039
0.92921
1.00454
0.998093
0.934617
0.834525
0.72711
0.613386
0.563229
0.555859
0.580668
0.633705
0.670188
0.686392
0.684864
0.657347
0.661002
0.674837
0.707143
0.757028
0.823349
0.663974
0.665663
0.674686
0.70399
0.771199
0.930211
1.01897
0.959595
0.758256
0.724083
0.740838
0.774838
0.83265
0.943257
0.988491
0.971963
0.901496
0.808894
0.695868
0.587462
0.552454
0.552436
0.595992
0.637798
0.651668
0.656664
0.63624
0.618204
0.628029
0.643085
0.672441
0.715892
0.780287
0.650831
0.659614
0.658918
0.669301
0.703111
0.807147
0.997722
1.07033
0.89834
0.752811
0.749025
0.780285
0.840478
0.937648
0.96363
0.940005
0.876632
0.790994
0.676035
0.581704
0.554284
0.563655
0.607626
0.62725
0.629934
0.623402
0.595127
0.587904
0.597919
0.611667
0.634512
0.669818
0.720978
0.637924
0.646035
0.653132
0.650075
0.661313
0.699986
0.8577
1.08289
1.06596
0.856971
0.765278
0.785396
0.840183
0.920689
0.935743
0.909747
0.862105
0.788726
0.684469
0.593229
0.564603
0.574195
0.606352
0.613478
0.610471
0.593868
0.564811
0.561351
0.570167
0.581411
0.597565
0.623145
0.665442
0.628122
0.633613
0.638837
0.64246
0.638233
0.649757
0.702095
0.964216
1.16214
1.0212
0.812503
0.793065
0.8337
0.896913
0.904632
0.88328
0.852253
0.802278
0.715622
0.629963
0.592321
0.586441
0.602371
0.602747
0.596331
0.57356
0.545066
0.542374
0.548695
0.557016
0.566179
0.585946
0.616173
0.622122
0.625564
0.627309
0.628264
0.629208
0.619839
0.639371
0.745066
1.13379
1.1722
0.945255
0.810518
0.828106
0.870901
0.874367
0.85387
0.839044
0.809214
0.726548
0.652615
0.610337
0.597583
0.601129
0.597198
0.588604
0.564472
0.536391
0.531947
0.536539
0.54269
0.544705
0.55454
0.57569
0.618999
0.620732
0.620103
0.617813
0.615847
0.611642
0.605826
0.658002
1.0352
1.22327
1.10633
0.859597
0.829582
0.849297
0.851791
0.834045
0.831707
0.828747
0.75112
0.687176
0.635009
0.615454
0.607226
0.599928
0.590145
0.567727
0.539604
0.532638
0.535839
0.539581
0.535321
0.532728
0.546064
0.617525
0.618422
0.616096
0.611789
0.605467
0.599087
0.592667
0.607731
0.831983
1.17557
1.22622
0.963437
0.836831
0.836827
0.836356
0.817807
0.816578
0.837961
0.775267
0.715794
0.669807
0.634598
0.620608
0.608855
0.595139
0.575579
0.551575
0.540108
0.541308
0.543134
0.536359
0.530148
0.531441
0.617724
0.618141
0.614661
0.608986
0.599714
0.589308
0.578841
0.58023
0.6857
1.07959
1.26563
1.09442
0.858223
0.82768
0.819012
0.801502
0.797134
0.834723
0.790904
0.737436
0.698213
0.664908
0.644155
0.631134
0.615522
0.590987
0.562914
0.545429
0.542488
0.541253
0.532724
0.527088
0.528678
0.617921
0.618493
0.614385
0.607433
0.59592
0.58292
0.569156
0.557312
0.604529
0.906679
1.22891
1.21228
0.917925
0.822505
0.805524
0.790599
0.782384
0.822381
0.808262
0.758444
0.72298
0.698152
0.667921
0.645983
0.631851
0.611945
0.580785
0.550076
0.540111
0.537338
0.528765
0.519924
0.521935
0.618461
0.619882
0.615662
0.607278
0.594044
0.578475
0.560874
0.542451
0.564552
0.739875
1.15059
1.26813
1.01146
0.823455
0.797831
0.781657
0.767947
0.793412
0.808862
0.773894
0.749461
0.729342
0.707832
0.676596
0.650861
0.628907
0.602613
0.567988
0.539684
0.527087
0.516955
0.507366
0.513165
0.619174
0.621325
0.617229
0.607832
0.593008
0.575299
0.554277
0.532085
0.537036
0.640446
1.01732
1.26311
1.12676
0.841086
0.790212
0.776346
0.759712
0.766002
0.774385
0.75738
0.755775
0.745967
0.735083
0.714033
0.681398
0.650349
0.622748
0.59032
0.551481
0.52086
0.49646
0.493167
0.49516
0.620162
0.622737
0.619147
0.609335
0.593163
0.573702
0.54918
0.526177
0.510186
0.578126
0.832969
1.19941
1.20834
0.890598
0.784909
0.777486
0.761719
0.756401
0.742401
0.721861
0.733212
0.752852
0.751952
0.746739
0.727955
0.69414
0.653898
0.616789
0.575843
0.532629
0.498553
0.487482
0.481752
0.62204
0.624104
0.620663
0.611249
0.593989
0.573129
0.545511
0.522279
0.494983
0.540006
0.693119
1.09068
1.22872
0.971279
0.782097
0.779743
0.784157
0.765907
0.724883
0.692961
0.681777
0.715086
0.747798
0.757143
0.758753
0.748838
0.71959
0.676539
0.627018
0.56696
0.51533
0.494414
0.484564
0.625152
0.625796
0.621817
0.612312
0.595335
0.573745
0.543469
0.51914
0.490518
0.501584
0.59172
0.923321
1.18835
1.08467
0.802209
0.768077
0.781777
0.783631
0.736493
0.68636
0.659004
0.651397
0.680888
0.724421
0.756579
0.767564
0.767167
0.749588
0.715082
0.659903
0.581328
0.520428
0.497183
0.628716
0.627919
0.623079
0.612955
0.595786
0.574571
0.543191
0.515646
0.501162
0.470635
0.526877
0.741024
1.104
1.16091
0.892416
0.752475
0.763461
0.776218
0.756912
0.708149
0.668051
0.639427
0.628982
0.641256
0.679121
0.731146
0.768845
0.777971
0.774047
0.750764
0.705869
0.625827
0.537216
0.63278
0.630364
0.624481
0.613738
0.596045
0.574591
0.543388
0.513958
0.502197
0.458149
0.484534
0.601222
0.969611
1.14509
1.00571
0.749004
0.740196
0.75608
0.753798
0.735022
0.6994
0.674026
0.636064
0.613535
0.61851
0.636948
0.676961
0.738229
0.779087
0.791043
0.780617
0.746926
0.674095
0.637601
0.633378
0.626026
0.614479
0.596667
0.574894
0.543323
0.514327
0.49766
0.470245
0.457349
0.513312
0.781221
1.07305
1.07924
0.836117
0.721672
0.727295
0.730747
0.731826
0.72612
0.715165
0.699025
0.660865
0.613041
0.60797
0.616962
0.632817
0.673077
0.75665
0.800545
0.800551
0.778843
0.641916
0.636171
0.627261
0.614086
0.595955
0.57437
0.544098
0.515743
0.496753
0.483373
0.443017
0.468648
0.615687
0.971669
1.10019
0.97372
0.727891
0.710623
0.703462
0.703413
0.717806
0.740256
0.752009
0.747024
0.715775
0.643654
0.610268
0.610411
0.616141
0.623227
0.755914
0.804921
0.812982
0.643873
0.637337
0.627519
0.613469
0.595425
0.572876
0.544556
0.517955
0.501006
0.48718
0.439341
0.43861
0.5111
0.83417
1.04908
1.04835
0.839038
0.703608
0.689688
0.6786
0.682813
0.722013
0.775569
0.808078
0.812328
0.785507
0.684837
0.620774
0.609386
0.610778
0.626954
0.763928
0.811686
0.64362
0.637257
0.627603
0.613517
0.595711
0.572439
0.545975
0.522248
0.5047
0.491026
0.450606
0.419408
0.45198
0.673349
0.96704
1.06666
0.986616
0.763292
0.688919
0.672522
0.664435
0.683046
0.751097
0.835333
0.876038
0.886335
0.850318
0.723929
0.634461
0.611923
0.607666
0.65763
0.784233
0.642596
0.636309
0.626893
0.613169
0.596259
0.572574
0.547919
0.528457
0.511475
0.494891
0.465403
0.409998
0.418567
0.552018
0.864707
1.03694
1.05538
0.919062
0.736575
0.681017
0.668164
0.675736
0.720756
0.824278
0.915503
0.951143
0.958845
0.889495
0.726931
0.634492
0.611468
0.626256
0.712863
0.639695
0.6338
0.625083
0.612963
0.596467
0.573401
0.551652
0.535467
0.521609
0.502347
0.472726
0.40913
0.398714
0.464167
0.75438
0.962846
1.05863
1.03562
0.885887
0.746911
0.691463
0.693278
0.733737
0.819629
0.937067
0.99812
1.01827
0.992887
0.875223
0.69232
0.624864
0.61521
0.647573
0.636256
0.630915
0.622851
0.612357
0.596354
0.574474
0.557115
0.544849
0.531658
0.51267
0.48088
0.411566
0.387686
0.416317
0.635386
0.879649
1.01112
1.06099
1.01347
0.899576
0.794477
0.750794
0.779653
0.860191
0.974325
1.04138
1.05445
1.04214
0.964958
0.792789
0.659518
0.613396
0.628891
0.632677
0.627881
0.620481
0.611006
0.59542
0.575516
0.562668
0.554753
0.543197
0.524487
0.492498
0.420675
0.379551
0.387695
0.520909
0.777812
0.930177
1.0213
1.05597
1.01624
0.945412
0.894565
0.912893
0.972844
1.04961
1.08979
1.08187
1.06422
1.00863
0.870929
0.708526
0.623282
0.622639
0.629637
0.625606
0.61848
0.609109
0.593711
0.577344
0.568145
0.563008
0.555014
0.537216
0.503908
0.440315
0.377178
0.371156
0.433685
0.653872
0.836623
0.942025
1.01481
1.05634
1.05023
1.03806
1.06912
1.11388
1.14555
1.13929
1.10661
1.0706
1.01725
0.907168
0.744341
0.640355
0.620872
0.628444
0.623802
0.616672
0.60611
0.592171
0.579305
0.57241
0.568836
0.564893
0.551055
0.517461
0.453117
0.3769
0.361707
0.389334
0.531491
0.725628
0.850445
0.935457
1.01464
1.09226
1.14439
1.20428
1.23606
1.21774
1.17437
1.11332
1.05342
0.995124
0.910841
0.763945
0.656218
0.622367
0.629005
0.623075
0.614644
0.602939
0.589545
0.580636
0.575597
0.573071
0.571168
0.56397
0.532179
0.461774
0.378707
0.355532
0.365502
0.448226
0.603809
0.754435
0.846706
0.937977
1.05592
1.18073
1.26253
1.2723
1.23359
1.16119
1.06773
1.00164
0.954034
0.882023
0.736172
0.654454
0.624136
0.631355
0.623137
0.611529
0.599145
0.588302
0.582509
0.579321
0.576807
0.575889
0.572392
0.544797
0.469519
0.37968
0.350689
0.351762
0.399409
0.505964
0.6436
0.762359
0.870592
1.0067
1.15168
1.23608
1.22579
1.15665
1.06624
0.997788
0.957904
0.905313
0.801138
0.669562
0.637692
0.626657
0.635397
0.623899
0.607902
0.593816
0.586039
0.582932
0.582137
0.580657
0.57957
0.577604
0.55435
0.4781
0.37916
0.347138
0.343762
0.371677
0.440672
0.539896
0.666707
0.805045
0.935126
1.04346
1.05846
1.01337
0.99377
0.97807
0.939105
0.881292
0.773617
0.659111
0.62235
0.624733
0.636224
0.641321
0.624892
0.603748
0.589043
0.582235
0.581255
0.582963
0.583562
0.582422
0.579983
0.560876
0.485017
0.378323
0.344119
0.33829
0.355001
0.4005
0.468428
0.561376
0.668675
0.749474
0.765764
0.785623
0.869514
0.888998
0.872326
0.799024
0.68978
0.628775
0.619261
0.623495
0.641763
0.667956
0.649088
0.626304
0.600964
0.585567
0.57952
0.578928
0.581988
0.585195
0.584681
0.581383
0.5635
0.489109
0.378072
0.341693
0.334598
0.345399
0.37607
0.427055
0.481567
0.529282
0.567004
0.619706
0.726914
0.766663
0.748567
0.666706
0.631526
0.621095
0.633851
0.643911
0.657826
0.682151
0.706149
0.656802
0.627868
0.600987
0.585599
0.578782
0.577008
0.580426
0.585305
0.586695
0.582919
0.563326
0.49042
0.377905
0.33929
0.331074
0.337709
0.361953
0.392878
0.425259
0.457585
0.510415
0.599665
0.645959
0.628614
0.615231
0.615578
0.641082
0.648321
0.652611
0.652431
0.659238
0.681441
0.718043
0.662778
0.629376
0.603186
0.588166
0.579534
0.577519
0.580402
0.58497
0.587972
0.584089
0.560518
0.486384
0.375689
0.336422
0.327498
0.332352
0.347499
0.369417
0.396164
0.438432
0.508068
0.554171
0.574964
0.588557
0.614363
0.622752
0.615042
0.598999
0.596816
0.603732
0.611126
0.633155
0.700265
0.665372
0.629657
0.604773
0.590222
0.582114
0.57952
0.580961
0.584616
0.589296
0.583868
0.555423
0.478784
0.371733
0.333382
0.324943
0.326772
0.339143
0.359092
0.390232
0.43926
0.49689
0.533453
0.563869
0.581589
0.582328
0.561602
0.562086
0.575677
0.590798
0.597342
0.599186
0.589275
0.631779
0.665001
0.627548
0.60479
0.592437
0.585958
0.582352
0.582271
0.584635
0.58856
0.580006
0.548524
0.469988
0.368133
0.331456
0.322926
0.324288
0.336093
0.3577
0.392558
0.444211
0.494374
0.528242
0.547127
0.542885
0.531734
0.538461
0.56162
0.585151
0.598291
0.609597
0.617859
0.600231
0.586536
0.660172
0.623594
0.605017
0.595085
0.590881
0.58718
0.585249
0.585496
0.586228
0.573834
0.54061
0.461364
0.36516
0.330149
0.322051
0.323718
0.336248
0.359746
0.39903
0.456473
0.495662
0.516109
0.517575
0.518913
0.53479
0.574501
0.592057
0.602463
0.606165
0.61875
0.636089
0.638025
0.592346
0.653347
0.618792
0.604029
0.598127
0.597051
0.592527
0.586802
0.583713
0.580351
0.565931
0.532496
0.452311
0.362371
0.329876
0.322105
0.324753
0.337894
0.364953
0.41434
0.462315
0.486097
0.495646
0.498872
0.51637
0.566679
0.597033
0.616037
0.634205
0.645129
0.6391
0.653152
0.675854
0.673892
0.646342
0.61452
0.603229
0.601463
0.604061
0.596925
0.585471
0.578086
0.572705
0.557123
0.522126
0.443143
0.360821
0.331044
0.323804
0.326486
0.341986
0.377078
0.427083
0.455896
0.470942
0.472684
0.484927
0.51382
0.54475
0.568009
0.609103
0.645416
0.676463
0.699228
0.691284
0.702525
0.725209
0.639655
0.611793
0.603854
0.604844
0.611372
0.600502
0.580554
0.56946
0.562844
0.546576
0.512005
0.436006
0.362471
0.334441
0.326333
0.330688
0.351165
0.392162
0.427884
0.445475
0.450197
0.449951
0.458836
0.465994
0.471752
0.493864
0.57357
0.647649
0.697772
0.743104
0.775764
0.76088
0.763271
0.634238
0.610855
0.604903
0.610894
0.615756
0.60046
0.573105
0.554202
0.54873
0.534597
0.50207
0.429031
0.369603
0.340637
0.332414
0.33864
0.362952
0.400021
0.419677
0.430891
0.423918
0.414257
0.41152
0.407624
0.422922
0.467493
0.550598
0.648371
0.719459
0.777478
0.830464
0.869842
0.84607
0.630096
0.610676
0.605891
0.616073
0.61842
0.597476
0.561553
0.535895
0.52695
0.516626
0.488936
0.424925
0.379686
0.349847
0.339527
0.346702
0.375254
0.397259
0.408879
0.410134
0.391777
0.37746
0.373369
0.385077
0.410574
0.464839
0.559153
0.673111
0.751993
0.810925
0.863572
0.905792
0.936421
0.627629
0.610759
0.606744
0.618455
0.617867
0.591871
0.549662
0.515945
0.502094
0.495103
0.471669
0.426167
0.389548
0.361648
0.348679
0.359498
0.381215
0.390772
0.397385
0.389201
0.365697
0.353444
0.362462
0.382814
0.422619
0.499426
0.625324
0.728641
0.796291
0.843382
0.875485
0.903333
0.935573
0.62575
0.610064
0.605644
0.615966
0.613306
0.584635
0.539298
0.499872
0.480421
0.473462
0.455879
0.427432
0.40261
0.37731
0.360543
0.370608
0.380114
0.382209
0.381589
0.364172
0.344467
0.346218
0.362818
0.394211
0.456794
0.572814
0.69926
0.783434
0.828635
0.847202
0.858065
0.869833
0.889451
0.621574
0.607025
0.601011
0.608718
0.605844
0.578347
0.531617
0.487507
0.460041
0.451741
0.442261
0.429621
0.416078
0.393427
0.374158
0.377661
0.376235
0.37402
0.368319
0.350579
0.335819
0.343388
0.366301
0.408821
0.516154
0.654452
0.75851
0.814212
0.832578
0.833144
0.823436
0.8138
0.813126
0.616131
0.600521
0.593067
0.598085
0.596906
0.57516
0.527886
0.479323
0.4441
0.434698
0.432595
0.432676
0.427921
0.410198
0.390681
0.382349
0.372436
0.367352
0.358632
0.344796
0.337316
0.341072
0.36743
0.4518
0.589623
0.701509
0.786684
0.822234
0.825156
0.803863
0.766832
0.728972
0.70685
0.607313
0.591141
0.582198
0.585579
0.588231
0.575681
0.528284
0.477842
0.43424
0.423582
0.427004
0.434869
0.438311
0.428494
0.409851
0.387619
0.370386
0.362209
0.353787
0.34101
0.328423
0.33726
0.385927
0.512215
0.617879
0.716266
0.78912
0.811507
0.793505
0.742463
0.671547
0.603208
0.566465
0.5965
0.579048
0.5703
0.573205
0.581702
0.578507
0.533814
0.48062
0.430972
0.417194
0.423218
0.435287
0.44683
0.445565
0.429946
0.393877
0.36957
0.357454
0.34678
0.3285
0.316605
0.335386
0.440637
0.529764
0.614323
0.708962
0.769594
0.768442
0.722149
0.636586
0.531186
0.444292
0.411736
0.585138
0.566865
0.559285
0.562952
0.575912
0.578852
0.544248
0.491089
0.431749
0.413174
0.41938
0.433498
0.450957
0.4592
0.447478
0.401898
0.36915
0.351919
0.33651
0.311925
0.312715
0.380851
0.460628
0.524099
0.606005
0.697329
0.732415
0.702484
0.615825
0.491702
0.372192
0.319577
0.317942
0.573488
0.556491
0.55002
0.55562
0.570704
0.577894
0.552953
0.507454
0.436333
0.4126
0.415617
0.429516
0.448709
0.467165
0.462618
0.413565
0.369928
0.345768
0.315032
0.302562
0.337451
0.415198
0.45907
0.517282
0.60314
0.689974
0.699732
0.633397
0.505289
0.362527
0.300528
0.293383
0.302286
0.562792
0.548842
0.543796
0.550286
0.563664
0.575816
0.559294
0.521115
0.449212
0.413385
0.412659
0.425326
0.444208
0.468519
0.474092
0.426289
0.371351
0.333392
0.307157
0.319798
0.386443
0.417355
0.452051
0.51467
0.605904
0.684146
0.666623
0.565467
0.409984
0.305414
0.291371
0.295961
0.315502
0.554402
0.543823
0.539711
0.546472
0.557342
0.568763
0.561294
0.531678
0.465068
0.417366
0.409581
0.41978
0.436518
0.459
0.479537
0.437889
0.372098
0.324804
0.313441
0.363318
0.393766
0.411141
0.445483
0.512202
0.605295
0.673896
0.644008
0.517752
0.358647
0.296444
0.294274
0.312269
0.330992
0.548338
0.541099
0.537846
0.543356
0.552419
0.559376
0.55807
0.534995
0.480752
0.424228
0.406909
0.411756
0.424812
0.445653
0.474197
0.436518
0.370171
0.325717
0.344192
0.382999
0.389657
0.403059
0.438887
0.507048
0.600559
0.668506
0.642507
0.504777
0.339702
0.299064
0.297922
0.309161
0.314459
0.542427
0.53835
0.537004
0.541693
0.550602
0.553523
0.546258
0.532629
0.488135
0.431808
0.405485
0.405214
0.414851
0.430955
0.451399
0.422057
0.367866
0.34389
0.373468
0.384096
0.38481
0.396951
0.428774
0.495002
0.591064
0.67371
0.664787
0.516827
0.336239
0.29687
0.294257
0.291315
0.293596
0.603545
0.559311
0.517564
0.613162
0.747149
0.744839
0.705027
0.676422
0.594478
0.548056
0.513771
0.591097
0.728516
0.720749
0.661135
0.640069
0.582848
0.53844
0.508644
0.550574
0.698014
0.709604
0.616747
0.577634
0.574474
0.52862
0.502885
0.512961
0.648761
0.692535
0.627515
0.534431
0.565602
0.520662
0.496259
0.49223
0.573055
0.66483
0.647008
0.545728
0.554888
0.51356
0.489167
0.48098
0.503861
0.619057
0.636089
0.607163
0.541683
0.507204
0.483636
0.473766
0.475618
0.54002
0.617336
0.614756
0.529293
0.504669
0.484087
0.473789
0.470856
0.488265
0.568703
0.614308
0.521247
0.507449
0.490783
0.481194
0.479275
0.486239
0.518065
0.601258
0.522776
0.518272
0.510629
0.503857
0.504413
0.514332
0.541559
0.601399
0.545015
0.549688
0.556199
0.554816
0.561051
0.577617
0.605063
0.652552
0.600128
0.616647
0.629738
0.626841
0.629063
0.642024
0.658935
0.687719
0.676735
0.687999
0.685099
0.663771
0.654085
0.654543
0.664448
0.681818
0.728261
0.71206
0.669684
0.63296
0.617209
0.617816