/*--------------------------------*- C++ -*----------------------------------*\
  =========                 |
  \\      /  F ield         | OpenFOAM: The Open Source CFD Toolbox
   \\    /   O peration     | Website:  https://openfoam.org
    \\  /    A nd           | Version:  10
     \\/     M anipulation  |
\*---------------------------------------------------------------------------*/
FoamFile
{
    format      ascii;
    class       surfaceScalarField;
    location    "0.350478";
    object      phi;
}
// * * * * * * * * * * * * * * * * * * * * * * * * * * * * * * * * * * * * * //

dimensions      [1 0 -1 0 0 0 0];

internalField   nonuniform List<scalar> 
32368
(
-0.000324896
0.000310577
-0.000348811
0.000347259
-0.000339773
0.000336996
-0.000283435
0.000304398
-0.000203678
0.00023337
-0.000170936
0.000173401
-0.000176028
0.00015943
-0.000185351
0.000148219
-0.00019951
0.000137348
-0.000200711
0.000121303
-0.000197788
0.00010058
-0.000186745
8.05475e-05
-0.000170284
6.36093e-05
-0.000150085
5.21978e-05
-0.000125942
4.49466e-05
-0.000104655
4.12551e-05
-8.98961e-05
4.19287e-05
-7.56327e-05
4.62775e-05
-5.74907e-05
5.07285e-05
-4.1177e-05
5.0527e-05
-3.38215e-05
5.07501e-05
-2.87215e-05
5.95871e-05
-2.42116e-05
7.06157e-05
-2.04322e-05
8.17395e-05
-1.73096e-05
9.22506e-05
-1.46241e-05
0.000100744
-1.27138e-05
0.000104447
-1.22063e-05
0.000103857
-1.27814e-05
0.000104798
-1.44962e-05
0.000106001
-1.64835e-05
0.000108552
-2.11763e-05
0.000116523
-2.63376e-05
0.000134816
-3.27951e-05
0.000152776
-3.81427e-05
0.000160995
-3.85494e-05
0.000158807
-3.4825e-05
0.000152812
-2.73519e-05
0.000147175
-1.32238e-05
0.000141475
3.65001e-06
0.000137488
2.28062e-05
0.000137458
3.97409e-05
0.000143974
5.87786e-05
0.00014695
7.39036e-05
0.000151538
8.44732e-05
0.00015478
9.36943e-05
0.000153272
0.000102001
0.000152931
0.000107701
0.000155191
0.000110884
0.000155858
0.000112536
0.000154723
0.000111843
0.000152821
0.000107581
0.000150392
9.88934e-05
0.000147669
8.25251e-05
0.000145142
5.54399e-05
0.000142517
2.13363e-05
0.000135744
-2.63043e-06
0.000111668
-1.48362e-05
8.62307e-05
-2.27625e-05
7.33703e-05
-2.93092e-05
6.52226e-05
-3.68322e-05
5.71528e-05
-4.66758e-05
4.3461e-05
-6.72884e-05
2.15785e-05
-0.00010288
-2.00163e-05
-0.000123544
-6.58332e-05
-0.000125288
-9.01046e-05
-0.000110904
-9.8442e-05
-7.9584e-05
-8.87023e-05
-4.22438e-05
-6.14223e-05
-1.99231e-05
-2.96413e-05
-1.05392e-05
-7.97899e-06
-3.34913e-06
9.83885e-06
2.60622e-06
1.76969e-05
6.70556e-06
8.45593e-06
1.38379e-05
-1.38551e-05
5.05404e-05
-7.78036e-05
0.000124856
-0.000189338
0.000206358
-0.000283831
0.000265681
-0.000322844
0.00029708
-0.00031678
0.000303184
-0.000287649
0.000257041
-0.000251454
0.000147673
-0.000210703
2.17621e-05
-0.00013329
-5.02974e-05
-2.40519e-05
-5.99923e-05
4.59705e-05
-5.11932e-05
7.99677e-05
-4.19924e-05
0.000107435
-3.40913e-05
0.000128586
-2.89951e-05
0.000140865
-2.52559e-05
0.000150183
-2.16084e-05
0.000158582
-1.98582e-05
0.00015995
-1.98477e-05
0.000140884
-2.81471e-05
0.000115102
-5.30153e-05
0.000105957
-9.96499e-05
0.00013469
-0.00012378
0.000128892
-0.000127534
7.85567e-05
-0.000118075
2.01376e-05
-9.46118e-05
-3.06187e-05
-7.23919e-05
-6.74587e-05
-5.38421e-05
-9.93654e-05
-3.61848e-05
-0.00012634
-1.60059e-05
-0.000137619
3.27683e-06
-0.000131382
3.89809e-05
-0.000151302
7.88811e-05
-0.000197687
0.000102626
-0.000199108
0.00011359
-0.000186725
0.000117078
-0.000176752
0.000119219
-0.000165117
-0.000139564
0.000124309
-0.000313395
0.000320757
-0.000344399
0.000361815
-0.000340087
0.00036104
-0.000289627
0.000336489
-0.000213302
0.000266768
-0.000181524
0.000198654
-0.000184686
0.000179657
-0.000191259
0.000167308
-0.000199738
0.000152158
-0.000200695
0.000132511
-0.000198306
0.000109543
-0.000191228
8.74339e-05
-0.000181663
6.97166e-05
-0.000166995
5.86416e-05
-0.000144814
5.25597e-05
-0.000119874
5.02627e-05
-9.90421e-05
5.05524e-05
-8.40138e-05
5.37028e-05
-6.84535e-05
5.98196e-05
-5.15674e-05
6.31367e-05
-3.86483e-05
6.24022e-05
-3.33042e-05
6.41934e-05
-2.94916e-05
7.31408e-05
-2.57731e-05
8.30766e-05
-2.29675e-05
9.19173e-05
-2.09055e-05
9.90744e-05
-1.95652e-05
0.000103649
-1.93776e-05
0.000106359
-2.07126e-05
0.000109724
-2.30266e-05
0.000115676
-2.79412e-05
0.000130654
-3.42965e-05
0.000153569
-4.36171e-05
0.00017365
-5.07448e-05
0.000180931
-5.3414e-05
0.000174149
-5.20849e-05
0.000164597
-4.87485e-05
0.000158476
-4.95718e-05
0.000164701
-4.55519e-05
0.000182722
-2.51322e-05
0.0002041
1.16477e-05
0.000213184
5.64905e-05
0.000213902
8.16518e-05
0.000206267
0.000100068
0.000209166
0.000107586
0.000208156
0.000108224
0.0001937
0.000108966
0.000179379
0.000107843
0.000165946
0.00010835
0.000157119
0.00010925
0.000152188
0.000108252
0.000150158
0.000103839
0.000148067
9.53093e-05
0.000145997
7.93804e-05
0.000144177
5.12158e-05
0.000143407
1.92154e-05
0.000137718
-3.2852e-06
0.000114482
-1.44681e-05
8.86312e-05
-2.24551e-05
7.53544e-05
-2.94214e-05
6.6799e-05
-3.69354e-05
5.7739e-05
-4.66237e-05
4.34276e-05
-6.84717e-05
2.13653e-05
-9.83579e-05
-1.86288e-05
-0.000116352
-5.43121e-05
-0.000116834
-7.10844e-05
-0.00010287
-7.60263e-05
-7.32161e-05
-6.83449e-05
-3.89423e-05
-4.94433e-05
-1.76671e-05
-2.3811e-05
-7.21303e-06
-1.66146e-06
1.66745e-07
1.52193e-05
6.44856e-06
2.03711e-05
9.85688e-06
1.34129e-05
1.63857e-05
-8.06007e-06
5.72824e-05
-7.07472e-05
0.000137378
-0.000180354
0.00022112
-0.000270017
0.000276772
-0.000303373
0.000303545
-0.00029187
0.000299572
-0.000259751
0.000255217
-0.000219589
0.000184126
-0.000178645
8.11871e-05
-0.000134126
-1.34492e-05
-3.8115e-05
-4.56311e-05
4.97297e-05
-4.07392e-05
9.06428e-05
-3.31253e-05
0.000114708
-2.70708e-05
0.000137708
-2.26992e-05
0.000152145
-1.95319e-05
0.000161134
-1.6799e-05
0.000170222
-1.66211e-05
0.000172389
-1.81668e-05
0.000153432
-2.67512e-05
0.000125143
-4.84765e-05
0.000114386
-9.06962e-05
0.000137886
-0.000106521
0.000143043
-0.000105331
9.65227e-05
-9.57058e-05
4.20142e-05
-7.86114e-05
-1.79846e-05
-6.01613e-05
-6.95854e-05
-4.14227e-05
-0.000108457
-2.60948e-05
-0.000134124
-9.14697e-06
-0.000146774
9.39157e-06
-0.000138704
3.91298e-05
-0.000144618
8.27442e-05
-0.000178277
0.000114463
-0.000188293
0.000129702
-0.000179577
0.000135831
-0.000170267
0.000133728
-0.000161241
-0.000132807
0.000122838
-0.000297827
0.000326271
-0.000338088
0.000372784
-0.000339584
0.000381788
-0.000300709
0.000366371
-0.00022957
0.000302869
-0.000186889
0.000227667
-0.000185675
0.000195763
-0.000189547
0.000181911
-0.000193555
0.00016428
-0.000194457
0.000142508
-0.000191836
0.000116683
-0.000187233
9.24678e-05
-0.000181098
7.38876e-05
-0.000171782
6.20159e-05
-0.000156842
5.74241e-05
-0.000135802
5.86826e-05
-0.000111671
6.16332e-05
-9.21185e-05
6.45613e-05
-7.70185e-05
7.02251e-05
-6.10409e-05
7.6329e-05
-4.69696e-05
7.69624e-05
-3.73751e-05
7.81213e-05
-3.35656e-05
8.03449e-05
-3.07007e-05
8.73767e-05
-2.8476e-05
9.5575e-05
-2.70266e-05
0.000102616
-2.65267e-05
0.000108284
-2.74221e-05
0.000114093
-3.01714e-05
0.000125644
-3.41564e-05
0.000145627
-4.19168e-05
0.000171059
-5.16548e-05
0.000193682
-6.01127e-05
0.000201449
-6.51586e-05
0.000193273
-6.65275e-05
0.000183173
-8.37699e-05
0.00019508
-9.8599e-05
0.000231257
-0.000101509
0.000265388
-8.23626e-05
0.000277259
-3.69159e-05
0.00024889
9.6121e-06
0.000222755
4.67101e-05
0.000186451
7.23935e-05
0.000181407
9.23885e-05
0.000192182
0.000111891
0.000195861
0.000120455
0.000195717
0.00011868
0.000192256
0.000115416
0.000187223
0.000110726
0.000175694
0.000107106
0.000163528
0.000103473
0.000152759
9.87575e-05
0.000146818
9.08433e-05
0.000144007
7.46827e-05
0.000143383
4.84209e-05
0.000143053
1.73458e-05
0.000139805
-3.13357e-06
0.000121607
-1.41506e-05
9.46442e-05
-2.27871e-05
7.96641e-05
-3.0238e-05
6.98365e-05
-3.77637e-05
5.90621e-05
-4.81289e-05
4.36316e-05
-7.02052e-05
2.11428e-05
-9.60528e-05
-1.32933e-05
-0.000111257
-3.83195e-05
-0.000111296
-5.23357e-05
-9.54944e-05
-6.00633e-05
-6.58682e-05
-5.72216e-05
-3.23742e-05
-4.1616e-05
-1.17119e-05
-1.66958e-05
-1.63493e-06
6.93858e-06
5.7377e-06
2.15153e-05
9.8218e-06
2.529e-05
1.16079e-05
1.97367e-05
1.70321e-05
-1.38258e-06
6.24462e-05
-6.87371e-05
0.000148471
-0.000180734
0.00023335
-0.00026474
0.00028453
-0.000291107
0.000304916
-0.000272924
0.000295952
-0.000238092
0.000257176
-0.000189301
0.000202005
-0.000149564
0.000137896
-0.000108426
4.18389e-05
-4.63635e-05
-2.08864e-05
4.9167e-05
-2.98301e-05
0.000104404
-2.5082e-05
0.000121973
-2.02173e-05
0.000146281
-1.68317e-05
0.000163383
-1.44102e-05
0.000171894
-1.27046e-05
0.00018141
-1.41332e-05
0.000184447
-1.82006e-05
0.00016664
-2.76095e-05
0.000135272
-4.60219e-05
0.000121583
-8.36393e-05
0.000131191
-9.02749e-05
0.000144394
-8.42406e-05
0.000104591
-7.18453e-05
5.23164e-05
-6.0882e-05
-6.17994e-06
-4.80013e-05
-6.95576e-05
-2.88239e-05
-0.000120767
-1.42263e-05
-0.00014196
4.5103e-07
-0.000154297
1.71388e-05
-0.000146431
4.6581e-05
-0.000149338
8.64343e-05
-0.000174288
0.000121572
-0.000180618
0.000139036
-0.000172231
0.00014576
-0.000162255
0.000139738
-0.000153665
-0.000122733
0.000109262
-0.00027743
0.000324505
-0.000328663
0.000376647
-0.000335784
0.000398843
-0.000310847
0.000393658
-0.000247086
0.000342392
-0.000194373
0.000265947
-0.000182172
0.000215389
-0.000181626
0.000193992
-0.000182487
0.000173786
-0.000181668
0.000149745
-0.000178474
0.000122591
-0.000176212
9.75347e-05
-0.000172303
7.75696e-05
-0.000165563
6.47962e-05
-0.00015676
6.16086e-05
-0.000144345
6.56845e-05
-0.000124891
7.30438e-05
-0.000102993
7.92733e-05
-8.49335e-05
8.44505e-05
-6.83084e-05
9.1117e-05
-5.45224e-05
9.27934e-05
-4.48699e-05
9.62568e-05
-3.78279e-05
9.9053e-05
-3.46169e-05
0.000101468
-3.31503e-05
0.000106611
-3.28472e-05
0.000114039
-3.38722e-05
0.000124217
-3.59897e-05
0.000140123
-3.98715e-05
0.000160468
-4.74661e-05
0.000185383
-5.6651e-05
0.000210621
-6.51472e-05
0.000222168
-7.12151e-05
0.000214445
-7.80523e-05
0.000206046
-0.000116116
0.000237649
-0.000153173
0.000302042
-0.000161228
0.000324713
-0.000131578
0.000298964
-7.84923e-05
0.000238985
-3.1932e-05
0.00017335
-5.57981e-06
0.000129619
1.5723e-05
0.00010414
4.20867e-05
9.52446e-05
5.48989e-05
0.000105925
7.10665e-05
0.000129307
9.03019e-05
0.000151691
0.000101554
0.000167004
0.000107368
0.000173577
0.000108548
0.000172372
0.000105561
0.000167965
0.000100888
0.000160408
9.46067e-05
0.000152404
8.54993e-05
0.000146572
7.00917e-05
0.000143937
4.38819e-05
0.000144665
1.56372e-05
0.000143368
-4.35348e-06
0.000126447
-1.55499e-05
0.000100013
-2.45956e-05
8.4517e-05
-3.21962e-05
7.35107e-05
-3.9546e-05
6.08447e-05
-5.08756e-05
4.47242e-05
-7.11278e-05
2.11889e-05
-9.3579e-05
-3.5774e-06
-0.000110648
-2.10389e-05
-0.000111109
-3.94061e-05
-9.19943e-05
-5.28094e-05
-5.93879e-05
-5.39581e-05
-2.43508e-05
-3.82948e-05
-3.47591e-06
-8.31917e-06
6.98173e-06
1.61031e-05
1.10396e-05
3.08657e-05
1.23298e-05
3.28307e-05
1.23727e-05
2.76687e-05
1.75484e-05
5.78768e-06
7.00514e-05
-7.04384e-05
0.000160644
-0.000189307
0.000242382
-0.000268634
0.000288751
-0.00028569
0.000307319
-0.0002644
0.000295331
-0.000225286
0.000255133
-0.000168363
0.000210543
-0.000123443
0.00017064
-8.07957e-05
0.000102506
-3.72703e-05
2.16414e-05
4.44884e-05
-1.62064e-05
0.000115237
-1.68556e-05
0.000137508
-1.38351e-05
0.000155354
-1.15364e-05
0.000174398
-1.00438e-05
0.000182743
-9.40793e-06
0.000192467
-1.31814e-05
0.000196315
-2.03845e-05
0.000180337
-3.16308e-05
0.000145693
-4.85691e-05
0.000128593
-7.76884e-05
0.000124805
-7.87576e-05
0.000134056
-6.86301e-05
0.000103901
-5.65217e-05
5.51498e-05
-4.51656e-05
3.25379e-07
-3.4224e-05
-6.7153e-05
-1.6111e-05
-0.000129832
-3.17557e-06
-0.000147331
9.38102e-06
-0.000159326
2.52002e-05
-0.000154561
5.49883e-05
-0.000158738
9.47627e-05
-0.000178178
0.000128965
-0.000179898
0.000147024
-0.000168055
0.000151786
-0.000154882
0.000138937
-0.000143489
-0.000109343
9.18617e-05
-0.000249558
0.00031716
-0.000311382
0.000372379
-0.000329134
0.000411224
-0.00031734
0.000416343
-0.000262564
0.000381215
-0.000207892
0.000306686
-0.000179933
0.000245665
-0.00017135
0.000208938
-0.000168478
0.000183138
-0.000166196
0.000158055
-0.000164319
0.000130472
-0.000162114
0.000104602
-0.000157686
8.34316e-05
-0.000151833
6.92944e-05
-0.000148498
6.75646e-05
-0.000143711
7.42586e-05
-0.00013267
8.39539e-05
-0.000113836
9.52312e-05
-9.39033e-05
0.000102633
-7.51912e-05
0.000109596
-5.99644e-05
0.00011136
-5.09285e-05
0.000114823
-4.4971e-05
0.000122648
-4.06283e-05
0.000126114
-3.87661e-05
0.000132124
-3.92229e-05
0.000141093
-4.10015e-05
0.000155644
-4.50304e-05
0.000175462
-5.0314e-05
0.000198852
-5.80507e-05
0.000222845
-6.61766e-05
0.000239891
-7.29997e-05
0.000237427
-8.42373e-05
0.000231248
-0.000130009
0.00028
-0.000187653
0.000361274
-0.000201329
0.00036766
-0.000175769
0.000311276
-0.000127915
0.000228306
-9.33782e-05
0.00015217
-7.54625e-05
0.000109192
-4.87479e-05
7.91007e-05
-1.27713e-05
5.80566e-05
1.44622e-05
4.80716e-05
3.16294e-05
5.20358e-05
3.87233e-05
6.30165e-05
5.15839e-05
8.18695e-05
6.92053e-05
0.000111043
8.42544e-05
0.000139077
9.21884e-05
0.000153174
9.54826e-05
0.000157014
9.4822e-05
0.000155962
9.07146e-05
0.00015218
8.23199e-05
0.000148832
6.65257e-05
0.00014791
4.04276e-05
0.000149057
1.12321e-05
0.00014614
-8.93714e-06
0.000128084
-1.89609e-05
0.000103862
-2.78315e-05
8.90191e-05
-3.50215e-05
7.69961e-05
-4.27633e-05
6.32993e-05
-5.51113e-05
4.74448e-05
-7.46281e-05
2.52578e-05
-9.70715e-05
7.28267e-06
-0.000113685
-1.02357e-05
-0.000110455
-3.27054e-05
-8.83597e-05
-5.08498e-05
-5.46321e-05
-5.48255e-05
-1.63882e-05
-3.99307e-05
7.66354e-06
-3.32982e-06
1.49534e-05
2.83659e-05
1.50424e-05
4.35763e-05
1.34655e-05
4.27352e-05
1.21278e-05
3.67268e-05
1.82139e-05
1.35344e-05
7.57785e-05
-6.86567e-05
0.000168835
-0.000193767
0.000246038
-0.000273916
0.00028873
-0.00028549
0.000307507
-0.000263278
0.000295115
-0.000222302
0.000247766
-0.00016001
0.000212035
-0.000103667
0.000180086
-6.14576e-05
0.000152817
-1.34381e-05
6.73285e-05
4.83861e-05
6.75468e-06
0.000124937
-8.43045e-06
0.00015716
-8.18267e-06
0.000164043
-7.00102e-06
0.000184729
-6.52387e-06
0.000193684
-7.46309e-06
0.000203853
-1.40832e-05
0.000207904
-2.6076e-05
0.000194738
-3.8853e-05
0.000156542
-5.44713e-05
0.000135882
-7.30342e-05
0.000122767
-7.33338e-05
0.000121271
-6.11651e-05
9.69421e-05
-4.82598e-05
5.40383e-05
-3.54112e-05
1.98924e-06
-2.28858e-05
-6.63102e-05
-4.88314e-06
-0.000135578
6.54164e-06
-0.000149866
1.73762e-05
-0.000161638
3.39739e-05
-0.000162991
6.36591e-05
-0.000177486
0.000103149
-0.000186317
0.000136663
-0.000181887
0.00015431
-0.00016556
0.000158526
-0.000148932
0.000141323
-0.00013582
-0.000103484
9.08886e-05
-0.000220218
0.000306007
-0.000284016
0.000360359
-0.000316399
0.000415617
-0.000316689
0.000433072
-0.000276112
0.000416224
-0.000221775
0.000348949
-0.000183069
0.00028039
-0.000162832
0.000230043
-0.000153974
0.000194073
-0.000151456
0.000167032
-0.000149348
0.000139515
-0.000146709
0.000113337
-0.000141302
9.17681e-05
-0.000134776
7.77859e-05
-0.000135923
7.64139e-05
-0.000138573
8.44465e-05
-0.000133632
9.63874e-05
-0.000121205
0.000110691
-0.000102831
0.000122729
-8.27444e-05
0.000131676
-6.45104e-05
0.000134608
-5.4695e-05
0.00013459
-4.96208e-05
0.000145879
-4.59363e-05
0.000153126
-4.45424e-05
0.00016131
-4.52761e-05
0.000172004
-4.75671e-05
0.000189462
-5.1471e-05
0.000211432
-5.65078e-05
0.000233979
-6.29749e-05
0.000252072
-6.89082e-05
0.000258184
-7.90866e-05
0.000252484
-0.000120561
0.00029041
-0.000194347
0.000392902
-0.000228385
0.000412194
-0.000223839
0.000344218
-0.000201603
0.000256947
-0.000184264
0.000177517
-0.000170171
0.000119127
-0.000140127
7.34246e-05
-9.87932e-05
3.2569e-05
-5.58986e-05
1.11883e-05
-1.59063e-05
1.18151e-05
5.59298e-06
2.43019e-05
1.67381e-05
3.34152e-05
2.80644e-05
4.40469e-05
3.98602e-05
6.01222e-05
5.51763e-05
8.76776e-05
6.97512e-05
0.000117907
7.9028e-05
0.000137329
8.23058e-05
0.000143506
8.15945e-05
0.00014448
7.5047e-05
0.000144674
5.8986e-05
0.000146337
3.17699e-05
0.000148401
3.23972e-06
0.000145638
-1.58211e-05
0.000127727
-2.38734e-05
0.000106534
-3.18451e-05
9.25777e-05
-3.80077e-05
8.01882e-05
-4.64325e-05
6.7364e-05
-5.89411e-05
5.09059e-05
-7.61038e-05
3.07654e-05
-9.61573e-05
1.4308e-05
-0.000112152
-4.75242e-06
-0.000108397
-3.07037e-05
-8.60875e-05
-5.16778e-05
-5.23107e-05
-5.71876e-05
-1.36984e-05
-4.17999e-05
1.22855e-05
-4.12351e-08
1.79579e-05
4.11231e-05
1.58722e-05
5.7065e-05
1.27193e-05
5.34498e-05
1.10218e-05
4.58928e-05
1.82749e-05
2.25637e-05
7.58829e-05
-6.19021e-05
0.000167115
-0.000192473
0.00024205
-0.0002769
0.000284133
-0.000288772
0.000304216
-0.000268124
0.000294233
-0.000227341
0.00024148
-0.000161662
0.000206528
-9.79063e-05
0.000178105
-5.07711e-05
0.000169064
2.43385e-06
0.000118396
6.45741e-05
3.62333e-05
0.000135851
1.72758e-06
0.000175584
-3.14404e-06
0.000175409
-3.28444e-06
0.000194211
-4.03662e-06
0.000204668
-7.00272e-06
0.000216174
-1.77184e-05
0.000219951
-3.48343e-05
0.000210135
-4.87278e-05
0.000168115
-6.2465e-05
0.00014319
-7.23319e-05
0.000124294
-7.17338e-05
0.000111803
-5.9406e-05
8.87108e-05
-4.61172e-05
5.02541e-05
-3.12567e-05
5.24465e-07
-1.47391e-05
-6.86299e-05
3.51122e-06
-0.000139578
1.39383e-05
-0.000147809
2.38101e-05
-0.000160313
4.31857e-05
-0.000168929
7.56745e-05
-0.000196075
0.000112079
-0.00019963
0.000143215
-0.000186149
0.000160914
-0.000165071
0.000167018
-0.000147287
0.000148186
-0.000133116
-0.000103016
9.85601e-05
-0.000189627
0.000289824
-0.000248723
0.000345424
-0.000296606
0.00040978
-0.000308091
0.000442793
-0.000284266
0.000442508
-0.000233596
0.000389779
-0.000189489
0.000318891
-0.00015772
0.000258647
-0.000141414
0.000211227
-0.000138486
0.000180351
-0.000137617
0.00015387
-0.000135284
0.000129324
-0.00012375
0.000104223
-0.000118051
8.55755e-05
-0.000121617
8.38002e-05
-0.000131257
9.2854e-05
-0.000131032
0.000110292
-0.0001238
0.000125528
-0.000109624
0.000142309
-9.0769e-05
0.000154899
-6.96186e-05
0.000161769
-5.68921e-05
0.000156787
-5.16445e-05
0.000167721
-4.87896e-05
0.000179271
-4.786e-05
0.000190322
-4.86062e-05
0.000202759
-5.06582e-05
0.000221025
-5.36113e-05
0.000242865
-5.71865e-05
0.00026153
-6.15218e-05
0.000271689
-6.81549e-05
0.000271544
-9.10371e-05
0.000282845
-0.000160582
0.00038017
-0.000227302
0.000450746
-0.000249
0.000389494
-0.000248947
0.000291962
-0.000242078
0.000205466
-0.000230941
0.000132885
-0.000211443
7.00893e-05
-0.000178501
2.11867e-05
-0.00013839
-1.17973e-05
-9.02272e-05
-2.13996e-05
-4.46059e-05
-1.1432e-05
-1.17506e-05
6.6295e-06
9.5395e-07
1.71402e-05
1.03923e-05
2.61764e-05
2.0778e-05
3.79254e-05
3.17395e-05
5.41049e-05
4.49531e-05
7.89416e-05
5.8924e-05
0.00010777
6.63311e-05
0.000126058
6.78218e-05
0.000133154
6.2188e-05
0.000136891
4.59023e-05
0.000140769
1.9441e-05
0.000144397
-5.60709e-06
0.000142357
-2.32297e-05
0.000124993
-2.99051e-05
0.000106976
-3.57152e-05
9.45957e-05
-4.09853e-05
8.36927e-05
-4.8286e-05
7.23077e-05
-5.82635e-05
5.44835e-05
-7.07015e-05
3.54998e-05
-8.74135e-05
1.82322e-05
-0.00010404
-2.77716e-06
-0.000103223
-2.87636e-05
-8.40329e-05
-4.92942e-05
-5.237e-05
-5.5554e-05
-1.68556e-05
-3.91252e-05
8.27162e-06
5.60898e-06
1.47854e-05
5.25273e-05
1.35197e-05
6.88415e-05
1.0804e-05
6.31947e-05
1.00159e-05
5.39657e-05
1.818e-05
3.23781e-05
7.18803e-05
-5.14392e-05
0.000158643
-0.00018677
0.00023301
-0.000275883
0.000275538
-0.000291698
0.000297715
-0.000273734
0.000288
-0.000233827
0.000235837
-0.000165446
0.000201897
-9.88586e-05
0.000177733
-4.58229e-05
0.000159783
1.04608e-05
0.000149627
7.65634e-05
6.55479e-05
0.000150598
1.53952e-05
0.000193337
1.76607e-06
0.000193531
-4.07091e-07
0.000203161
-2.77868e-06
0.000215276
-8.34673e-06
0.000229809
-2.40671e-05
0.000233112
-4.69611e-05
0.000226531
-6.01574e-05
0.000184107
-7.13531e-05
0.000150527
-7.49468e-05
0.000127106
-7.26337e-05
0.000106373
-6.10817e-05
8.2555e-05
-4.74119e-05
4.58951e-05
-3.02808e-05
-2.68646e-06
-9.63217e-06
-7.2805e-05
9.28441e-06
-0.000137082
1.83762e-05
-0.000142941
2.71902e-05
-0.000155753
4.92173e-05
-0.000168874
8.35556e-05
-0.000200417
0.000120335
-0.000204125
0.00014992
-0.000187617
0.000167278
-0.000164915
0.000174669
-0.000148298
0.000157386
-0.000135859
-0.000107777
0.000109033
-0.000158375
0.00026724
-0.000214121
0.000328816
-0.000269984
0.000393699
-0.000292518
0.000444356
-0.00028455
0.000457006
-0.000242521
0.000425508
-0.000196348
0.00035777
-0.000159309
0.00029444
-0.000137599
0.000241133
-0.000132198
0.000203789
-0.000129143
0.000174416
-0.000122373
0.000144865
-0.000104282
0.000111659
-0.000101339
9.08592e-05
-0.000106784
8.95073e-05
-0.00012154
0.00010058
-0.000126348
0.000123571
-0.000122685
0.000140365
-0.000113154
0.000160071
-9.74013e-05
0.000176758
-7.5617e-05
0.000188764
-5.83497e-05
0.000182464
-5.18114e-05
0.000188333
-4.90164e-05
0.0002027
-4.81439e-05
0.000216138
-4.83891e-05
0.000229835
-4.94889e-05
0.000247404
-5.09424e-05
0.000266621
-5.26078e-05
0.000279742
-5.57637e-05
0.000283706
-6.55307e-05
0.000285516
-0.000103495
0.000330114
-0.000185478
0.000450082
-0.000243426
0.00044225
-0.000262345
0.000336915
-0.000262611
0.000240291
-0.000253755
0.000162652
-0.000237306
9.71034e-05
-0.00021658
4.17573e-05
-0.000185064
-1.50124e-06
-0.000145196
-2.70287e-05
-9.93165e-05
-3.17382e-05
-5.64051e-05
-1.98211e-05
-2.49073e-05
-3.27366e-06
-8.80597e-06
7.95639e-06
-6.80612e-07
1.61019e-05
7.36709e-06
2.56712e-05
1.59851e-05
3.90624e-05
2.72624e-05
5.75008e-05
3.93717e-05
8.08115e-05
4.89747e-05
0.000103825
5.19405e-05
0.000117508
4.66607e-05
0.000125309
3.0445e-05
0.000132053
4.65084e-06
0.000137507
-1.91416e-05
0.000134376
-3.04053e-05
0.000117483
-3.56109e-05
0.000105533
-3.94917e-05
9.56489e-05
-4.32349e-05
8.80239e-05
-4.81535e-05
7.48664e-05
-5.45658e-05
5.65936e-05
-6.28976e-05
3.80897e-05
-7.61659e-05
1.99717e-05
-9.21232e-05
-1.34722e-06
-9.77742e-05
-2.26669e-05
-8.49308e-05
-4.08784e-05
-5.75956e-05
-4.68569e-05
-2.47131e-05
-2.95628e-05
-1.39499e-06
1.51599e-05
8.92177e-06
5.88603e-05
9.54252e-06
7.77409e-05
8.52112e-06
7.08191e-05
9.19984e-06
6.04713e-05
1.8794e-05
4.08027e-05
6.59819e-05
-3.69648e-05
0.0001473
-0.000173592
0.000220594
-0.000269966
0.000264697
-0.000291822
0.000288775
-0.00027702
0.000278398
-0.000238381
0.000227364
-0.000165874
0.000195872
-9.92268e-05
0.000174271
-4.24551e-05
0.000149829
1.54892e-05
0.00014883
8.17049e-05
8.93394e-05
0.000158877
2.64937e-05
0.000209924
5.88453e-06
0.000213082
1.46246e-06
0.000211563
-2.88424e-06
0.000224779
-1.19552e-05
0.000242429
-3.36327e-05
0.00024673
-6.19985e-05
0.000242651
-7.37694e-05
0.000202373
-8.10675e-05
0.000157236
-7.99827e-05
0.000130183
-7.52646e-05
0.000104325
-6.45497e-05
7.85965e-05
-4.96512e-05
4.21684e-05
-2.9919e-05
-6.96219e-06
-5.66241e-06
-7.80227e-05
1.19509e-05
-0.000131005
2.06153e-05
-0.000138326
2.90261e-05
-0.0001502
5.24445e-05
-0.000166506
8.74642e-05
-0.000198707
0.000124776
-0.00020351
0.000153815
-0.000186933
0.000172724
-0.000164722
0.000181201
-0.000150677
0.000164876
-0.000140222
-0.0001147
0.000118065
-0.000125485
0.000231623
-0.000180252
0.000308137
-0.000238062
0.000371386
-0.000270583
0.000435729
-0.000275371
0.000459846
-0.000246338
0.000450903
-0.000203036
0.000392407
-0.000165883
0.000329795
-0.000139658
0.000274816
-0.000128236
0.00022858
-0.00012055
0.000192759
-0.000107186
0.000157513
-8.64003e-05
0.000114696
-8.7159e-05
9.50385e-05
-9.37504e-05
9.4821e-05
-0.000110707
0.000107267
-0.000120278
0.000134419
-0.000119338
0.000154774
-0.000113683
0.000175818
-0.000101818
0.000195821
-8.13142e-05
0.000212847
-5.97162e-05
0.000209816
-5.06171e-05
0.000206755
-4.70694e-05
0.000221939
-4.5568e-05
0.000236671
-4.48148e-05
0.000250383
-4.4522e-05
0.000266447
-4.42746e-05
0.000281477
-4.44954e-05
0.000289852
-4.73487e-05
0.000291545
-6.00925e-05
0.000300414
-0.000107101
0.000373463
-0.000191867
0.00046669
-0.000243802
0.000394443
-0.000258291
0.00028787
-0.000255741
0.000205939
-0.00024551
0.000140362
-0.000231679
8.47994e-05
-0.000210852
3.60547e-05
-0.000182432
-8.66109e-07
-0.000145759
-2.33862e-05
-0.000101799
-2.82359e-05
-6.1288e-05
-1.80287e-05
-3.34405e-05
-5.92703e-06
-1.57842e-05
2.91901e-06
-8.58403e-06
9.60539e-06
-1.64495e-06
1.77419e-05
5.75341e-06
2.89387e-05
1.3795e-05
4.45306e-05
2.34023e-05
6.10543e-05
3.11519e-05
7.93381e-05
3.4227e-05
9.60155e-05
2.88426e-05
0.00010711
1.222e-05
0.000116947
-1.09029e-05
0.000123853
-3.12065e-05
0.000118168
-3.66996e-05
0.000109048
-4.06276e-05
0.000103064
-4.27251e-05
9.74718e-05
-4.48557e-05
8.95261e-05
-4.69085e-05
7.46687e-05
-5.03842e-05
5.72916e-05
-5.53064e-05
3.82524e-05
-6.51204e-05
1.97314e-05
-8.02696e-05
1.25139e-06
-9.61565e-05
-1.03503e-05
-9.12195e-05
-2.59116e-05
-6.87253e-05
-3.30822e-05
-3.68475e-05
-1.74118e-05
-1.06228e-05
2.29172e-05
1.37276e-06
6.32194e-05
5.30407e-06
8.21578e-05
6.35133e-06
7.58857e-05
8.55723e-06
6.54365e-05
1.84067e-05
4.73585e-05
5.7241e-05
-2.20182e-05
0.000132552
-0.000151908
0.000207262
-0.000257899
0.000253199
-0.000287912
0.00027986
-0.000277913
0.000269331
-0.00024147
0.000219352
-0.000165925
0.000190527
-9.85515e-05
0.000171492
-4.04064e-05
0.000147175
1.96648e-05
0.000137306
8.21057e-05
0.000103738
0.00016081
3.62417e-05
0.000221482
8.34818e-06
0.000230496
1.64434e-06
0.00021975
-4.45714e-06
0.00023309
-1.81783e-05
0.000254005
-4.66529e-05
0.000260091
-8.04993e-05
0.000258001
-8.96792e-05
0.000221073
-9.12405e-05
0.000166217
-8.70246e-05
0.000133612
-7.95174e-05
0.000104574
-6.84244e-05
7.65694e-05
-5.16145e-05
3.9245e-05
-2.9141e-05
-1.14573e-05
-2.15797e-06
-8.35497e-05
1.39302e-05
-0.000124952
2.19519e-05
-0.000132847
2.9978e-05
-0.000143737
5.38658e-05
-0.000162489
8.96302e-05
-0.000192953
0.000127
-0.000197778
0.000156259
-0.000182877
0.000176728
-0.000163754
0.00018509
-0.000153341
0.00016746
-0.000145236
-0.000120886
0.000122361
-8.61278e-05
0.000185547
-0.000146525
0.000275965
-0.000201368
0.000346793
-0.000243918
0.000414971
-0.000257699
0.000453845
-0.00024386
0.000460449
-0.000206755
0.0004199
-0.000170688
0.000359523
-0.000141907
0.000305891
-0.000123204
0.000253847
-0.000109785
0.000209288
-9.06899e-05
0.000164762
-7.22437e-05
0.00011697
-7.55554e-05
9.96169e-05
-8.27525e-05
9.9664e-05
-0.000100275
0.000113632
-0.000113007
0.000142879
-0.000114688
0.000165441
-0.000111846
0.000187722
-0.000103665
0.000209732
-8.59806e-05
0.000230621
-6.15354e-05
0.000233037
-4.88375e-05
0.000221613
-4.37965e-05
0.000235393
-4.10738e-05
0.000250351
-3.90797e-05
0.000263475
-3.72479e-05
0.000277834
-3.54544e-05
0.000288876
-3.43632e-05
0.000293867
-3.63141e-05
0.000294974
-4.83763e-05
0.00030827
-9.5729e-05
0.000382535
-0.000181038
0.000435406
-0.000230306
0.000348653
-0.000246018
0.000259459
-0.000246054
0.000192376
-0.000238461
0.000137303
-0.000225039
8.88781e-05
-0.000203374
4.57798e-05
-0.000177013
1.20694e-05
-0.000143504
-1.02418e-05
-0.00010025
-1.64816e-05
-6.23826e-05
-1.0934e-05
-3.89849e-05
-4.91953e-06
-2.17014e-05
7.40216e-07
-1.38329e-05
5.29734e-06
-8.03489e-06
1.21832e-05
-1.9986e-06
2.20404e-05
3.85358e-06
3.45537e-05
9.63973e-06
4.63146e-05
1.47977e-05
5.84349e-05
1.53806e-05
7.04117e-05
8.35225e-06
8.11127e-05
-8.28025e-06
9.18931e-05
-2.79912e-05
0.000101276
-3.74004e-05
0.000102637
-4.22294e-05
0.000102598
-4.44989e-05
0.000100378
-4.54833e-05
9.68758e-05
-4.54692e-05
8.71199e-05
-4.57075e-05
7.30588e-05
-4.72019e-05
5.57746e-05
-5.03443e-05
3.70194e-05
-5.83359e-05
1.93e-05
-7.5836e-05
7.54041e-06
-0.000101154
3.50009e-06
-0.000103554
-8.3224e-06
-8.48593e-05
-1.58184e-05
-5.20133e-05
-3.05559e-06
-2.0563e-05
2.86065e-05
-4.99064e-06
6.40317e-05
1.67655e-06
8.37415e-05
4.67957e-06
7.91216e-05
8.18236e-06
6.9149e-05
1.64851e-05
5.10017e-05
4.89e-05
-9.9709e-06
0.000118261
-0.000129947
0.000192698
-0.000241225
0.000240273
-0.000280767
0.000269908
-0.000275167
0.000261516
-0.00024054
0.000212256
-0.000163084
0.000186359
-9.52841e-05
0.000168825
-3.76389e-05
0.000146226
2.29302e-05
0.000127186
8.47847e-05
0.000103765
0.000159515
4.21506e-05
0.000226447
9.71182e-06
0.000244412
4.56042e-07
0.000232495
-8.14802e-06
0.000240757
-2.78792e-05
0.000264666
-6.44082e-05
0.000272487
-0.000104188
0.000270763
-0.000109049
0.000236144
-0.000102337
0.000176874
-9.45815e-05
0.000137717
-8.47201e-05
0.000105785
-7.15938e-05
7.59312e-05
-5.22801e-05
3.68894e-05
-2.63404e-05
-1.64678e-05
3.02525e-06
-8.93409e-05
1.58434e-05
-0.00011872
2.31536e-05
-0.000126863
3.11019e-05
-0.000136985
5.49552e-05
-0.00015757
9.02644e-05
-0.000182919
0.000126975
-0.000187618
0.000156682
-0.000175849
0.00017806
-0.00016116
0.000185313
-0.000154732
0.000164776
-0.000148708
-0.000124579
0.00012196
-3.72836e-05
0.000124027
-0.000108497
0.000232922
-0.000165654
0.000314935
-0.000212845
0.000384275
-0.00023487
0.000437751
-0.000233242
0.000454505
-0.000205893
0.000433357
-0.000172594
0.000379884
-0.000142702
0.000330085
-0.000118682
0.000274904
-9.85894e-05
0.000220807
-7.62282e-05
0.000167145
-6.1979e-05
0.000119261
-6.58992e-05
0.000103701
-7.34294e-05
0.000104021
-9.08611e-05
0.000119218
-0.000104842
0.000148957
-0.000108213
0.000172648
-0.000107624
0.000194384
-0.000102635
0.000215978
-8.84266e-05
0.000238042
-6.40037e-05
0.000245752
-4.73288e-05
0.000231579
-4.02626e-05
0.000242545
-3.5848e-05
0.000257166
-3.23532e-05
0.000269437
-2.89819e-05
0.000282029
-2.56468e-05
0.00028983
-2.3006e-05
0.000292172
-2.30689e-05
0.000292206
-3.1421e-05
0.000302374
-7.59055e-05
0.000362628
-0.000162475
0.00039875
-0.000215985
0.000323918
-0.000235165
0.000250869
-0.000237163
0.000193657
-0.000233771
0.000145968
-0.000220073
0.000102511
-0.00019942
6.33806e-05
-0.0001764
3.20924e-05
-0.000143528
9.45468e-06
-9.86244e-05
-1.57083e-06
-6.50638e-05
-3.98874e-06
-4.56239e-05
-3.571e-06
-2.97696e-05
-9.66905e-07
-1.79432e-05
3.21745e-06
-1.19778e-05
8.07415e-06
-7.02964e-06
1.7277e-05
-3.34972e-06
2.83722e-05
-1.277e-07
3.67117e-05
1.57403e-06
4.50867e-05
-5.18653e-07
5.38481e-05
-8.40758e-06
6.3741e-05
-2.14734e-05
7.4573e-05
-3.43083e-05
8.56047e-05
-4.19032e-05
9.2495e-05
-4.616e-05
9.64367e-05