/*--------------------------------*- C++ -*----------------------------------*\
  =========                 |
  \\      /  F ield         | OpenFOAM: The Open Source CFD Toolbox
   \\    /   O peration     | Website:  https://openfoam.org
    \\  /    A nd           | Version:  10
     \\/     M anipulation  |
\*---------------------------------------------------------------------------*/
FoamFile
{
    format      ascii;
    class       volScalarField;
    location    "0.350478";
    object      rho;
}
// * * * * * * * * * * * * * * * * * * * * * * * * * * * * * * * * * * * * * //

dimensions      [1 -3 0 0 0 0 0];

internalField   nonuniform List<scalar> 
16320
(
0.854056
0.950177
0.924443
0.818001
0.606368
0.434038
0.407953
0.413107
0.445385
0.466795
0.472646
0.465379
0.4425
0.415351
0.376948
0.328362
0.299247
0.28187
0.250564
0.198465
0.173087
0.171689
0.176433
0.186634
0.198812
0.20713
0.203819
0.189301
0.178589
0.174757
0.174857
0.181067
0.201616
0.243281
0.288322
0.321129
0.33796
0.346615
0.357286
0.366295
0.373107
0.374325
0.373936
0.368575
0.362154
0.355371
0.34919
0.342055
0.335771
0.331021
0.328201
0.327093
0.328752
0.334068
0.345778
0.347612
0.300392
0.243016
0.222878
0.226627
0.248136
0.275258
0.338661
0.535137
0.723006
0.819662
0.850864
0.78636
0.571341
0.32359
0.22998
0.207647
0.176865
0.161689
0.181813
0.371333
0.759007
1.11728
1.32519
1.39586
1.40101
1.37843
1.31997
1.14772
0.902923
0.696182
0.565816
0.513731
0.48113
0.463015
0.468773
0.483425
0.483116
0.428199
0.371555
0.403445
0.636738
0.80179
0.805044
0.711204
0.559454
0.420827
0.365852
0.348618
0.350845
0.391254
0.636139
0.932634
1.03272
1.05836
1.08241
1.10544
1.09858
0.843165
0.936279
0.923391
0.830669
0.629389
0.467245
0.437688
0.440722
0.460247
0.471253
0.474232
0.46823
0.459368
0.451647
0.424422
0.378351
0.330152
0.299103
0.278582
0.237214
0.192336
0.176041
0.176654
0.180191
0.184163
0.186872
0.18494
0.180172
0.177966
0.1789
0.189304
0.221221
0.269523
0.314105
0.340033
0.349222
0.363152
0.382577
0.423596
0.514503
0.626288
0.688971
0.643211
0.590475
0.51864
0.441749
0.383443
0.350252
0.334927
0.32685
0.322377
0.321161
0.322658
0.329694
0.341129
0.345196
0.298096
0.242007
0.223134
0.227798
0.246797
0.276204
0.357786
0.556776
0.713744
0.789857
0.814814
0.774493
0.610088
0.380928
0.255918
0.212635
0.171728
0.158164
0.17349
0.355765
0.740019
1.09125
1.27818
1.33272
1.31993
1.27138
1.20951
1.16718
0.982432
0.776361
0.588367
0.505008
0.47484
0.457622
0.461601
0.477165
0.479906
0.42944
0.370779
0.393648
0.606446
0.781245
0.785469
0.703787
0.560624
0.441511
0.377533
0.339821
0.34122
0.365951
0.500522
0.780443
0.950722
1.00386
1.01898
1.02701
0.972921
0.819545
0.917234
0.922907
0.856319
0.676193
0.498938
0.452928
0.453473
0.460946
0.465764
0.465373
0.458306
0.457869
0.459529
0.451387
0.42605
0.380804
0.330131
0.302028
0.272684
0.227258
0.192939
0.18128
0.181056
0.182557
0.18346
0.182674
0.181764
0.185464
0.201889
0.239614
0.288498
0.33121
0.352806
0.362154
0.387043
0.468391
0.653388
0.863189
0.984389
0.969059
0.828944
0.722773
0.672666
0.625675
0.562882
0.497782
0.431614
0.376321
0.338842
0.322012
0.31687
0.317947
0.324495
0.338541
0.342492
0.304156
0.247798
0.227656
0.230436
0.246277
0.280388
0.384176
0.564318
0.686873
0.741043
0.764042
0.754108
0.650607
0.445575
0.305009
0.231208
0.173442
0.156319
0.170606
0.359239
0.753058
1.08458
1.24426
1.2611
1.2295
1.14929
1.07794
1.06859
1.03532
0.848768
0.655437
0.509236
0.468917
0.453752
0.45566
0.472903
0.479323
0.434447
0.374958
0.392032
0.555687
0.746432
0.753137
0.693831
0.583869
0.484159
0.407798
0.339603
0.336881
0.359437
0.468263
0.697464
0.872938
0.951736
0.965845
0.956153
0.840194
0.789816
0.893372
0.921669
0.882105
0.731375
0.549178
0.466328
0.455286
0.454407
0.454113
0.445379
0.443096
0.447588
0.452707
0.453608
0.44963
0.427562
0.381409
0.336648
0.304464
0.258755
0.227567
0.200777
0.189678
0.187052
0.187284
0.189537
0.197987
0.219282
0.254593
0.300454
0.342524
0.363343
0.375347
0.41436
0.620305
0.898065
1.0668
1.12494
0.964411
0.759787
0.615208
0.5492
0.511787
0.515213
0.509989
0.484003
0.45368
0.417657
0.381026
0.347266
0.326104
0.318177
0.323222
0.33644
0.347312
0.317411
0.257961
0.232696
0.233027
0.247127
0.288835
0.408405
0.551536
0.647849
0.708243
0.741503
0.749116
0.689437
0.519622
0.356458
0.256639
0.179627
0.155796
0.170515
0.40224
0.821033
1.11565
1.22219
1.21035
1.16069
1.03238
0.942249
0.91649
1.00205
0.914227
0.731251
0.531969
0.468025
0.451608
0.451625
0.470521
0.48008
0.445494
0.386032
0.399549
0.511406
0.677379
0.706294
0.6648
0.594158
0.513818
0.438884
0.340154
0.335615
0.359067
0.461253
0.674342
0.839091
0.917685
0.926487
0.897485
0.726531
0.751416
0.860148
0.918268
0.904563
0.790024
0.61613
0.498788
0.459325
0.44743
0.440415
0.435089
0.43634
0.440254
0.440738
0.446479
0.453414
0.455191
0.431535
0.383693
0.342693
0.291544
0.257407
0.237527
0.218313
0.210105
0.210152
0.219782
0.240191
0.268819
0.306994
0.348256
0.372654
0.386152
0.440548
0.709672
1.00331
1.12815
1.10405
0.90676
0.721063
0.641159
0.582515
0.462575
0.322929
0.313902
0.351511
0.399198
0.412864
0.400631
0.384922
0.364976
0.34506
0.334394
0.336264
0.350754
0.358731
0.319917
0.259572
0.234802
0.234491
0.25079
0.305701
0.414787
0.517191
0.617389
0.698419
0.737634
0.751819
0.718625
0.584402
0.411233
0.285037
0.188473
0.155964
0.174349
0.468308
0.893748
1.15191
1.20384
1.17382
1.1025
0.939987
0.799919
0.765738
0.858823
0.941399
0.78856
0.592955
0.471768
0.450092
0.44957
0.470658
0.48292
0.46136
0.402953
0.413537
0.483936
0.606155
0.649973
0.629417
0.592017
0.533438
0.456183
0.340506
0.334516
0.36819
0.484544
0.673101
0.829784
0.89685
0.897028
0.849165
0.658216
0.710884
0.816041
0.906396
0.918912
0.846277
0.685696
0.551504
0.478127
0.445688
0.435658
0.433732
0.437712
0.443073
0.435338
0.435294
0.44978
0.466043
0.466091
0.432081
0.388479
0.331538
0.284905
0.270554
0.253942
0.246306
0.247125
0.26077
0.283946
0.313495
0.346485
0.374792
0.390273
0.44511
0.723277
1.03551
1.14262
1.10896
1.01382
0.936442
0.924697
0.910615
0.747095
0.506409
0.280779
0.197553
0.207843
0.249065
0.317303
0.356812
0.363266
0.356399
0.34773
0.343594
0.349917
0.363121
0.36181
0.315863
0.256065
0.234806
0.236159
0.258898
0.327671
0.398557
0.471546
0.605912
0.705737
0.760518
0.777539
0.74261
0.609091
0.440544
0.307105
0.195644
0.155867
0.183163
0.507882
0.918793
1.16129
1.18738
1.14514
1.05922
0.877248
0.69224
0.641246
0.664543
0.871177
0.836899
0.655605
0.481479
0.44904
0.448817
0.473799
0.488825
0.481743
0.425517
0.431677
0.476519
0.556573
0.598937
0.601938
0.58445
0.548789
0.465017
0.335223
0.331079
0.381132
0.545621
0.708069
0.835872
0.883304
0.875872
0.814019
0.626965
0.666671
0.767454
0.880612
0.922376
0.890174
0.755576
0.612748
0.513172
0.455254
0.440147
0.443572
0.458708
0.464583
0.418401
0.413888
0.434889
0.47242
0.484063
0.470443
0.434837
0.381504
0.315453
0.296847
0.285565
0.280501
0.282816
0.297808
0.321043
0.346534
0.370418
0.391457
0.42921
0.626027
0.993364
1.14675
1.13126
1.09143
1.06212
1.07134
1.05221
0.945599
0.769039
0.532332
0.295095
0.166209
0.151915
0.165025
0.200245
0.268885
0.323101
0.338046
0.338708
0.341065
0.350737
0.363168
0.357401
0.305722
0.249802
0.235104
0.241891
0.280159
0.333306
0.372524
0.437164
0.588282
0.721766
0.801335
0.825708
0.776096
0.608681
0.434422
0.307558
0.196148
0.154627
0.190826
0.518276
0.915217
1.15283
1.17413
1.12631
1.03061
0.832219
0.650849
0.581927
0.569029
0.713465
0.839456
0.697781
0.509
0.449427
0.449304
0.482505
0.499183
0.507464
0.456661
0.453058
0.482379
0.531505
0.570859
0.584996
0.583323
0.557106
0.447232
0.323926
0.32427
0.392071
0.577405
0.745135
0.84708
0.873255
0.858399
0.789538
0.608883
0.615032
0.721662
0.839702
0.913395
0.915458
0.820414
0.680702
0.568948
0.493253
0.472573
0.479098
0.488138
0.45353
0.38625
0.382242
0.413847
0.473316
0.4926
0.49464
0.473196
0.431658
0.352434
0.319572
0.310869
0.308781
0.312516
0.326279
0.347003
0.366293
0.383452
0.409085
0.506494
0.853971
1.12918
1.14375
1.099
1.06915
1.05303
1.0401
0.993398
0.901158
0.746295
0.520406
0.3034
0.163901
0.135796
0.138188
0.153752
0.19875
0.26188
0.30818
0.323921
0.333628
0.346809
0.359064
0.343848
0.282785
0.24226
0.237827
0.258858
0.299768
0.328121
0.353885
0.410381
0.565572
0.715548
0.812739
0.84476
0.790249
0.592827
0.418134
0.299694
0.192657
0.152678
0.192211
0.499206
0.894279
1.13515
1.16445
1.11581
1.01534
0.803575
0.633088
0.559399
0.533679
0.588877
0.790783
0.724938
0.547476
0.452468
0.449946
0.491718
0.514101
0.536535
0.499591
0.478187
0.496433
0.526637
0.564145
0.582262
0.588407
0.561154
0.407273
0.313513
0.31791
0.399543
0.593738
0.761136
0.849497
0.859903
0.840819
0.76775
0.592791
0.559408
0.67606
0.789027
0.8909
0.919805
0.872646
0.748108
0.638681
0.559875
0.523433
0.518364
0.508862
0.422701
0.356326
0.357533
0.394261
0.468651
0.496687
0.506829
0.499703
0.473405
0.394116
0.340172
0.330081
0.329468
0.3334
0.345141
0.361054
0.374233
0.389071
0.432496
0.61906
1.01463
1.13616
1.08519
1.03851
1.01279
0.998634
0.983943
0.946154
0.869907
0.718982
0.496818
0.297669
0.178131
0.132154
0.128126
0.136314
0.168018
0.214373
0.263822
0.295803
0.313675
0.331439
0.340036
0.308322
0.253488
0.240899
0.247688
0.279862
0.304849
0.320473
0.333259
0.389095
0.534318
0.694636
0.809405
0.843192
0.781798
0.568214
0.390187
0.285345
0.187167
0.150684
0.188921
0.434729
0.827162
1.11113
1.15956
1.11419
1.01212
0.788855
0.626484
0.553011
0.520061
0.526033
0.700009
0.731436
0.582587
0.457559
0.450511
0.500658
0.531861
0.568542
0.548002
0.5099
0.520605
0.539631
0.572692
0.591563
0.598194
0.559024
0.375919
0.30739
0.314953
0.408441
0.605268
0.771327
0.842961
0.845175
0.822959
0.744073
0.564453
0.507376
0.628314
0.735224
0.852956
0.907144
0.903958
0.809489
0.70625
0.631034
0.578046
0.552011
0.512407
0.389629
0.336984
0.340961
0.380803
0.461362
0.497285
0.511528
0.51459
0.502879
0.434799
0.35956
0.343398
0.34195
0.344983
0.354757
0.3657
0.375067
0.392083
0.456686
0.708191
1.0537
1.07794
1.01988
0.982766
0.964794
0.956415
0.93723
0.891003
0.819022
0.670728
0.446583
0.281049
0.191328
0.133929
0.125772
0.127649
0.148827
0.178065
0.210939
0.244686
0.26779
0.286556
0.289094
0.257736
0.240541
0.2426
0.265402
0.288798
0.301122
0.306476
0.314967
0.372525
0.485719
0.648827
0.79078
0.833155
0.762109
0.536059
0.355835
0.265217
0.18
0.149098
0.180413
0.370317
0.763091
1.08241
1.15806
1.11894
1.01911
0.787593
0.627962
0.557455
0.520104
0.503741
0.610245
0.701884
0.602751
0.469365
0.452545
0.511852
0.554242
0.605744
0.603781
0.553444
0.549905
0.563318
0.592972
0.607758
0.609815
0.547614
0.349474
0.299436
0.315
0.420504
0.614698
0.765764
0.830486
0.83137
0.807189
0.72287
0.537734
0.47898
0.588612
0.686857
0.798208
0.881495
0.906271
0.857262
0.76382
0.697298
0.636841
0.586083
0.50231
0.365548
0.321459
0.327218
0.371803
0.45336
0.493066
0.509175
0.517992
0.517528
0.465013
0.375772
0.350919
0.347553
0.349247
0.357298
0.364151
0.371091
0.389944
0.463506
0.716246
1.01388
1.0201
0.973862
0.946859
0.934345
0.922835
0.885563
0.832546
0.772671
0.60512
0.395203
0.275789
0.217888
0.15164
0.127467
0.125687
0.13412
0.150348
0.169802
0.190965
0.210529
0.227404
0.235749
0.232455
0.238278
0.252409
0.27353
0.286534
0.292219
0.287766
0.301645
0.355342
0.430914
0.59683
0.767025
0.818418
0.755587
0.52538
0.324717
0.247442
0.17396
0.14823
0.171346
0.329926
0.729785
1.06203
1.16218
1.13274
1.04028
0.80165
0.632717
0.570976
0.529169
0.504247
0.560938
0.661772
0.61228
0.492952
0.458581
0.525418
0.583242
0.650121
0.656882
0.60283
0.585204
0.590809
0.616365
0.6275
0.623024
0.527418
0.33212
0.296987
0.319097
0.43649
0.609368
0.75336
0.814665
0.815113
0.789733
0.696006
0.508127
0.475242
0.576373
0.651942
0.738067
0.838196
0.887335
0.874377
0.804217
0.749156
0.681856
0.599339
0.482117
0.337583
0.311545
0.318484
0.365647
0.44635
0.486491
0.501636
0.511917
0.518533
0.480255
0.388281
0.35371
0.348
0.348344
0.354553
0.358745
0.363673
0.381969
0.449385
0.686288
0.970273
0.984596
0.9452
0.918837
0.904142
0.872872
0.827419
0.820571
0.757684
0.572608
0.388448
0.297457
0.243731
0.176727
0.141978
0.127257
0.128463
0.135785
0.146038
0.159059
0.176298
0.194085
0.210413
0.223738
0.238411
0.256456
0.271713
0.280322
0.27304
0.272858
0.288769
0.322886
0.378454
0.546719
0.743568
0.8081
0.778111
0.550926
0.308481
0.235471
0.170764
0.148158
0.165521
0.311728
0.715847
1.05048
1.16983
1.14951
1.06799
0.832585
0.639732
0.588874
0.556497
0.518864
0.544346
0.629236
0.607428
0.5148
0.47053
0.54685
0.624996
0.70332
0.709771
0.650333
0.626515
0.62613
0.644274
0.652646
0.638565
0.489746
0.310671
0.29082
0.325145
0.459748
0.612911
0.739783
0.799313
0.800702
0.77232
0.661927
0.48599
0.460874
0.591983
0.651642
0.696776
0.774023
0.844445
0.863269
0.816066
0.767996
0.693126
0.591258
0.44655
0.313907
0.300622
0.313267
0.368005
0.446036
0.477911
0.490503
0.50053
0.511853
0.48507
0.395908
0.352312
0.344547
0.343814
0.348402
0.350938
0.354288
0.370221
0.429691
0.64236
0.924543
0.956282
0.91549
0.881877
0.85386
0.813852
0.822483
0.845215
0.837349
0.756947
0.633597
0.525274
0.407109
0.257192
0.167138
0.134891
0.129158
0.132967
0.138425
0.14649
0.159592
0.178463
0.198492
0.218882
0.237683
0.254249
0.264986
0.264525
0.26097
0.264363
0.276657
0.294811
0.334487
0.471657
0.700818
0.801548
0.799443
0.600433
0.311098
0.230663
0.169918
0.149217
0.162505
0.304765
0.710384
1.04371
1.17381
1.16271
1.0932
0.871773
0.653236
0.608044
0.609549
0.563703
0.549011
0.609766
0.591412
0.532322
0.495936
0.584387
0.682469
0.760761
0.755448
0.692684
0.667275
0.665093
0.688363
0.694363
0.650415
0.414702
0.286435
0.284092
0.346757
0.494345
0.627375
0.736402
0.785628
0.786533
0.750892
0.617158
0.479067
0.441764
0.581168
0.713179
0.692009
0.722896
0.796851
0.842846
0.816852
0.769049
0.688039
0.563416
0.381377
0.29639
0.29127
0.313091
0.385412
0.445201
0.468694
0.478118
0.485349
0.499596
0.482242
0.398488
0.348422
0.339047
0.337519
0.340532
0.342559
0.344781
0.356989
0.406953
0.574717
0.845528
0.907213
0.863473
0.821957
0.780264
0.769027
0.81561
0.927643
0.971794
0.982847
0.949535
0.884981
0.792156
0.595099
0.338043
0.153229
0.136
0.136042
0.139287
0.145637
0.156118
0.172906
0.193436
0.214699
0.233942
0.246191
0.252637
0.254386
0.25641
0.26147
0.271213
0.280716
0.306017
0.392141
0.623375
0.784533
0.812814
0.668191
0.350936
0.230901
0.170881
0.150537
0.161211
0.300939
0.701563
1.02761
1.17105
1.16956
1.11663
0.921439
0.668308
0.621649
0.656084
0.636409
0.573763
0.60224
0.587006
0.555053
0.545695
0.643282
0.757721
0.811516
0.790348
0.734531
0.71676
0.724911
0.734428
0.72822
0.634864
0.330772
0.271458
0.282231
0.381792
0.529003
0.648314
0.731173
0.765943
0.764445
0.716059
0.568923
0.479963
0.435514
0.534529
0.785334
0.768162
0.723832
0.770472
0.817991
0.810454
0.752873
0.648476
0.483296
0.320584
0.288883
0.289193
0.323057
0.401318
0.443872
0.459631
0.46225
0.468432
0.485195
0.475502
0.397701
0.342856
0.332176
0.330181
0.332084
0.334134
0.335661
0.344939
0.38109
0.500705
0.727814
0.829305
0.780693
0.730768
0.694912
0.695656
0.795654
0.956834
1.01495
1.03841
1.03703
1.00788
0.971622
0.873516
0.684626
0.385985
0.147584
0.146179
0.14744
0.151129
0.158947
0.173394
0.192519
0.212179
0.228147
0.239391
0.246735
0.251292
0.255828
0.261413
0.267876
0.273342
0.290359
0.341775
0.527674
0.743214
0.811207
0.728494
0.439761
0.237004
0.175309
0.153196
0.161111
0.291251
0.671782
0.998012
1.16155
1.17535
1.13759
0.974464
0.687036
0.62722
0.683039
0.706011
0.624236
0.607727
0.599973
0.594457
0.617086
0.726657
0.828285
0.841361
0.812913
0.781187
0.770811
0.782829
0.782571
0.731772
0.528915
0.28312
0.258503
0.285208
0.41249
0.561732
0.67324
0.732049
0.745283
0.738501
0.671446
0.531524
0.484919
0.432363
0.509634
0.782802
0.907829
0.798931
0.774481
0.790414
0.766431
0.678232
0.537729
0.362728
0.297499
0.285054
0.292734
0.342442
0.414762
0.443147
0.45168
0.445894
0.451511
0.471258
0.468449
0.397132
0.336408
0.325049
0.322941
0.323883
0.325969
0.327337
0.334593
0.358244
0.438373
0.616674
0.737693
0.69029
0.632955
0.598234
0.611149
0.75213
0.932819
0.998164
1.02319
1.02891
1.00884
0.987952
0.926615
0.776077
0.549064
0.184396
0.159713
0.157499
0.16108
0.168078
0.178791
0.194098
0.212266
0.226978
0.237993
0.245699
0.251637
0.256992
0.262466
0.267467
0.270919
0.28262
0.313891
0.439521
0.680583
0.786074
0.758278
0.526532
0.261318
0.187887
0.158152
0.161981
0.273673
0.61198
0.946659
1.14224
1.18169
1.15703
1.02125
0.716982
0.621101
0.694863
0.763737
0.693416
0.638929
0.635567
0.659552
0.714371
0.811172
0.8626
0.861408
0.84295
0.829935
0.829392
0.829355
0.793468
0.682737
0.336016
0.253169
0.255063
0.298749
0.431976
0.583335
0.697686
0.74112
0.740514
0.716881
0.618221
0.507548
0.489719
0.430087
0.500236
0.74739
0.982617
0.930076
0.812466
0.740721
0.645958
0.524297
0.396401
0.319966
0.296194
0.288553
0.303979
0.372438
0.428323
0.444235
0.445377
0.430783
0.435104
0.459016
0.463066
0.401902
0.331648
0.318069
0.315723
0.316617
0.318706
0.320091
0.32547
0.341076
0.392117
0.519712
0.637378
0.603402
0.543616
0.504899
0.516931
0.674201
0.884071
0.962686
0.9852
0.987816
0.966417
0.957445
0.922776
0.774521
0.592036
0.355413
0.225333
0.183845
0.174764
0.177729
0.186494
0.199182
0.214736
0.228977
0.239926
0.247888
0.25423
0.259779
0.264788
0.269031
0.271516
0.278022
0.296481
0.370105
0.596075
0.751306
0.764529
0.608102
0.319843
0.203708
0.162628
0.163919
0.248522
0.529358
0.863611
1.10649
1.18662
1.17513
1.06213
0.758188
0.612164
0.679722
0.817103
0.771998
0.714139
0.709209
0.745557
0.804139
0.858138
0.882149
0.881778
0.877559
0.879036
0.871964
0.836867
0.753557
0.499004
0.256197
0.245729
0.25525
0.30592
0.440285
0.596634
0.721967
0.752093
0.742849
0.697628
0.565537
0.494299
0.490612
0.425254
0.490701
0.68414
0.86434
0.874435
0.747904
0.601842
0.489211
0.401929
0.340413
0.313651
0.301366
0.303372
0.329266
0.405797
0.443055
0.448039
0.440674
0.416418
0.419116
0.448037
0.457297
0.410112
0.333046
0.312158
0.309918
0.310345
0.312739
0.314349
0.317866
0.328075
0.359907
0.443352
0.548583
0.529935
0.471173
0.42568
0.42537
0.550106
0.789929
0.902502
0.927304
0.914787
0.902082
0.924753
0.864397
0.691991
0.549918
0.468747
0.353796
0.28192
0.235039
0.212784
0.207359
0.213362
0.224167
0.236019
0.246176
0.253878
0.259969
0.265108
0.269265
0.272874
0.274518
0.277379
0.288457
0.328642
0.497103
0.695065
0.747536
0.660723
0.405846
0.221875
0.16915
0.167707
0.219357
0.433438
0.738987
1.03856
1.18057
1.18571
1.09888
0.809737
0.608605
0.639057
0.857308
0.878195
0.826934
0.807331
0.821952
0.854389
0.88219
0.896084
0.91336
0.916069
0.904408
0.86966
0.785535
0.565714
0.288269
0.242975
0.244903
0.256734
0.297251
0.420056
0.594426
0.735861
0.76748
0.746125
0.665612
0.528415
0.486667
0.492722
0.415147
0.467279
0.567771
0.635896
0.636877
0.561243
0.470242
0.400774
0.352504
0.328051
0.314939
0.313332
0.323274
0.37169
0.441138
0.461395
0.455462
0.438753
0.405416
0.40527
0.439307
0.453312
0.421536
0.344847
0.308981
0.30438
0.305176
0.308146
0.310145
0.312782
0.318901
0.337832
0.390227
0.475446
0.471393
0.417783
0.367374
0.357048
0.444214
0.678233
0.810081
0.839254
0.846885
0.891351
0.906114
0.817053
0.64983
0.536697
0.505075
0.434829
0.373553
0.324064
0.291624
0.276107
0.268783
0.267191
0.269405
0.273159
0.276422
0.278533
0.279678
0.279553
0.279485
0.280132
0.279563
0.285523
0.30683
0.410338
0.624824
0.712502
0.686561
0.497407
0.259289
0.178046
0.172263
0.197442
0.337002
0.586693
0.931339
1.15837
1.1923
1.13424
0.864643
0.61039
0.606871
0.842043
0.972408
0.931756
0.891332
0.871735
0.885425
0.89825
0.930374
0.935807
0.918284
0.884808
0.787543
0.576565
0.309797
0.248416
0.241841
0.245707
0.253722
0.27841
0.379696
0.559653
0.740956
0.795418
0.756124
0.635747
0.512277
0.486744
0.499224
0.401245
0.430776
0.471823
0.490329
0.47995
0.442939
0.401359
0.366132
0.342032
0.327158
0.323716
0.328543
0.353084
0.413738
0.47667
0.486048
0.468006
0.440824
0.399479
0.395858
0.435117
0.456883
0.439669
0.36717
0.310329
0.302118
0.30136
0.304728
0.307188
0.309836
0.313946
0.32509
0.356394
0.420261
0.425715
0.380257
0.328315
0.313508
0.380725
0.601713
0.732204
0.772037
0.812193
0.903931
0.925246
0.863323
0.757575
0.67517
0.636197
0.58232
0.513789
0.447924
0.395186
0.361123
0.34257
0.332122
0.325591
0.319841
0.313652
0.307326
0.300777
0.295047
0.289498
0.287536
0.283537
0.285928
0.296681
0.351234
0.540242
0.678123
0.693314
0.57271
0.323758
0.187891
0.175771
0.187272
0.253738
0.445492
0.806009
1.11824
1.20359
1.16667
0.907953
0.615406
0.579155
0.761601
1.01466
1.01209
0.954523
0.916599
0.913351
0.926139
0.931602
0.923342
0.869167
0.751898
0.537991
0.309653
0.252137
0.242166
0.242948
0.24634
0.254018
0.274677
0.347071
0.513864
0.721755
0.809451
0.777658
0.628778
0.519422
0.495633
0.50907
0.388787
0.405986
0.421196
0.423832
0.414733
0.396519
0.376513
0.357247
0.341362
0.334859
0.339207
0.356876
0.393782
0.4479
0.506871
0.51486
0.489289
0.449818
0.397951
0.390583
0.435487
0.470824
0.466655
0.403159
0.328167
0.300953
0.299312
0.300364
0.304345
0.307518
0.311821
0.31862
0.336832
0.382183
0.39004
0.35378
0.303408
0.286555
0.338821
0.541342
0.679297
0.741725
0.824956
0.960292
1.00109
1.01651
1.02461
1.00514
0.924521
0.797284
0.690899
0.611185
0.54332
0.488179
0.448548
0.421199
0.398095
0.376659
0.356655
0.339917
0.326414
0.315404
0.30526
0.298245
0.291618
0.288371
0.294703
0.322794
0.456839
0.63029
0.679551
0.619806
0.401068
0.207897
0.180438
0.183968
0.209511
0.340243
0.694014
1.06824
1.2142
1.19512
0.933901
0.617334
0.565578
0.679386
0.971038
1.0569
1.0042
0.949692
0.929974
0.918875
0.902239
0.83187
0.667647
0.453181
0.294347
0.252495
0.243521
0.242344
0.244311
0.247463
0.254767
0.2722
0.316287
0.450235
0.66485
0.80787
0.80634
0.68795
0.561709
0.52856
0.536076
0.380877
0.390623
0.395234
0.394164
0.387993
0.379118
0.367824
0.354684
0.344935
0.345271
0.361577
0.395968
0.432407
0.474002
0.527086
0.541646
0.518753
0.470212
0.403508
0.389115
0.437667
0.494429
0.500049
0.452359
0.373381
0.308718
0.299347
0.298644
0.299795
0.304215
0.309425
0.316254
0.327271
0.356693
0.363022
0.33472
0.288573
0.270432
0.310253
0.486302
0.613536
0.690059
0.878312
1.02028
1.07111
1.10996
1.13249
1.12315
1.05124
0.897591
0.773831
0.688031
0.623813
0.575929
0.536588
0.501982
0.469796
0.438547
0.409009
0.383312
0.361809
0.343068
0.326521
0.312517
0.303242
0.293172
0.296207
0.311711
0.39587
0.573624
0.656385
0.63522
0.475367
0.246803
0.186749
0.183604
0.193473
0.274299
0.617376
1.03268
1.22436
1.21612
0.940675
0.611127
0.558583
0.62592
0.879581
1.0454
1.02537
0.964886
0.919164
0.857679
0.75302
0.572347
0.365125
0.276193
0.250492
0.244159
0.242835
0.244638
0.247253
0.250986
0.257447
0.27129
0.304178
0.385485
0.552287
0.768764
0.813607
0.765856
0.625765
0.581359
0.579754
0.374431
0.38009
0.381085
0.378308
0.374572
0.369792
0.362611
0.353346
0.347989
0.353043
0.375671
0.419106
0.467243
0.500635
0.539384
0.559276
0.545482
0.500153
0.419699
0.393293
0.439827
0.521106
0.536763
0.510831
0.437108
0.339548
0.304701
0.299417
0.298462
0.30013
0.30498
0.312894
0.320742
0.338988
0.342553
0.320002
0.281062
0.261464
0.288876
0.432627
0.569888
0.677148
0.919563
1.05903
1.11138
1.15705
1.18158
1.17053
1.08304
0.910325
0.783219
0.695061
0.631759
0.583117
0.547192
0.522613
0.500398
0.471646
0.436628
0.401949
0.371808
0.347233
0.328671
0.314499
0.307264
0.297264
0.299057
0.309279
0.360059
0.517964
0.628506
0.638363
0.532007
0.3049
0.198282
0.182569
0.186743
0.247442
0.584353
1.01837
1.23146
1.22458
0.927381
0.600257
0.552718
0.593476
0.7846
0.960031
0.971641
0.905353
0.802529
0.638399
0.455673
0.31183
0.26337
0.248574
0.244564
0.244113
0.246877
0.251246
0.254595
0.258452
0.263715
0.274417
0.298654
0.348734
0.444573
0.668326
0.792447
0.791672
0.721763
0.632309
0.621552
0.369746
0.372177
0.371481
0.368775
0.366421
0.3642
0.359133
0.352089
0.349145
0.35654
0.383075
0.434964
0.488751
0.520768
0.549386
0.569012
0.563973
0.529098
0.444278
0.404626
0.440496
0.541639
0.571809
0.566614
0.508818
0.415
0.327164
0.304666
0.300324
0.299671
0.301231
0.305811
0.31294
0.325579
0.326572
0.308516
0.277563
0.2579
0.275054
0.383369
0.529994
0.681012
0.945588
1.08988
1.15407
1.20792
1.2374
1.19588
1.02715
0.829578
0.709958
0.633923
0.58288
0.551275
0.532578
0.515121
0.489568
0.453727
0.413045
0.376656
0.347624
0.327662
0.316311
0.308636
0.305656
0.298795
0.301263
0.309428
0.345293
0.473791
0.596129
0.62697
0.568041
0.375593
0.212676
0.184931
0.184912
0.235947
0.580625
1.01896
1.23068
1.21608
0.889184
0.587116
0.53662
0.548334
0.643542
0.761281
0.766475
0.699217
0.531868
0.36088
0.287617
0.259446
0.249492
0.24636
0.247611
0.253578
0.262166
0.266243
0.269161
0.271612
0.274227
0.281188
0.298012
0.335952
0.400995
0.500277
0.725475
0.777173
0.761914
0.715003
0.664549
0.365788
0.366582
0.364484
0.362678
0.361202
0.360231
0.35598
0.350509
0.348398
0.356602
0.384762
0.440918
0.501245
0.534199
0.558107
0.5752
0.576227
0.553736
0.473892
0.417849
0.44107
0.560735
0.601119
0.608513
0.573519
0.500769
0.40297
0.325072
0.307148
0.302542
0.30185
0.302554
0.305413
0.312163
0.313984
0.299921
0.276388
0.258355
0.265939
0.346084
0.481503
0.68004
0.966401
1.1169
1.19338
1.26244
1.29217
1.20974
0.972468
0.763896
0.642768
0.575719
0.543227
0.528411
0.509737
0.479239
0.435855
0.389456
0.347537
0.321583
0.310695
0.307365
0.305871
0.305765
0.306012
0.30218
0.305043
0.311897
0.34323
0.453511
0.568225
0.611586
0.587239
0.443257
0.244667
0.188825
0.186603
0.23762
0.600723
1.03504
1.22219
1.19466
0.859188
0.574307
0.500601
0.480229
0.49029
0.51223
0.500145
0.42792
0.32807
0.28556
0.265335
0.254667
0.253011
0.256816
0.270453
0.285623
0.291848
0.293296
0.292602
0.290485
0.288589
0.290417
0.300312
0.32756
0.380957
0.41353
0.585092
0.731438
0.752301
0.742846
0.719781
0.36149
0.360916
0.358816
0.358221
0.35717
0.355902
0.351897
0.346885
0.345722
0.353763
0.37884
0.432597
0.505103
0.543237
0.566057
0.579461
0.584276
0.571377
0.504441
0.430142
0.435496
0.574473
0.625233
0.633719
0.619906
0.573807
0.494849
0.399759
0.330753
0.311368
0.3058
0.304794
0.303618
0.304144
0.3035
0.293675
0.276166
0.260744
0.261857
0.320029
0.431379
0.659208
0.984674
1.13745
1.24266
1.33305
1.35975
1.22691
0.934033
0.716363
0.597876
0.543974
0.518069
0.496244
0.457832
0.39788
0.341958
0.309311
0.300692
0.300325
0.302703
0.307893
0.314029
0.317906
0.318216
0.314145
0.315377
0.321386
0.350688
0.452817
0.559235
0.605681
0.596037
0.501707
0.299398
0.196729
0.188859
0.245837
0.646536
1.05884
1.20372
1.14567
0.836344
0.564567
0.478005
0.419435
0.391632
0.383055
0.363597
0.320186
0.293644
0.276582
0.270696
0.266722
0.280807
0.319595
0.343691
0.353818
0.355716
0.348057
0.325061
0.315572
0.306466
0.301918
0.300568
0.315354
0.351172
0.395422
0.454981
0.630097
0.717778
0.732592
0.727875
0.357238
0.356471
0.355881
0.354189
0.352868
0.350808
0.346718
0.341516
0.340116
0.347644
0.37105
0.416459
0.489832
0.545624
0.572666
0.586268
0.592193
0.585308
0.539617
0.45209
0.430446
0.555958
0.649694
0.654731
0.643766
0.618698
0.569721
0.491723
0.409188
0.342428
0.317628
0.310307
0.307282
0.3048
0.299961
0.290475
0.276729
0.26371
0.262137
0.302699
0.391759
0.639689
1.01052
1.181
1.31023
1.4041
1.3917
1.16479
0.821395
0.616539
0.536552
0.50033
0.469837
0.422241
0.355553
0.307517
0.290687
0.288712
0.294079
0.30472
0.317802
0.329354
0.337711
0.3425
0.344
0.344903
0.345798
0.352163
0.392371
0.481887
0.567555
0.607495
0.604389
0.542414
0.367872
0.214114
0.193696
0.261723
0.699995
1.07591
1.18353
1.10592
0.82457
0.562722
0.464983
0.383881
0.340677
0.325812
0.311955
0.296907
0.286862
0.287169
0.293893
0.330316
0.391477
0.423182
0.435547
0.439605
0.438531
0.426123
0.395976
0.359035
0.328075
0.315514
0.308629
0.30789
0.333167
0.382418
0.402151
0.475704
0.636254
0.700548
0.714215
0.352564
0.352026
0.350752
0.348855
0.347561
0.345881
0.341529
0.335321
0.330734
0.335085
0.355244
0.396042
0.463043
0.533226
0.575512
0.593852
0.600624
0.597316
0.56766
0.479686
0.433602
0.498522
0.655247
0.677086
0.660999
0.63706
0.609333
0.562809
0.496933
0.423547
0.361257
0.32711
0.315444
0.309783
0.304168
0.293794
0.280822
0.269032
0.265982
0.293433
0.361517
0.662241
1.05372
1.26126
1.38855
1.45582
1.33094
0.951902
0.62277
0.516431
0.477094
0.445529
0.399349
0.346197
0.305996
0.287987
0.287368
0.299207
0.316289
0.333332
0.346893
0.35648
0.361537
0.365473
0.371764
0.380985
0.400296
0.447043
0.506148
0.571919
0.620288
0.63183
0.627021
0.573225
0.415047
0.235429
0.200809
0.277326
0.726306
1.06728
1.158
1.08694
0.829061
0.56677
0.462592
0.364723
0.316128
0.303523
0.296406
0.291675
0.295773
0.316351
0.379475
0.449735
0.474367
0.478178
0.476595
0.473699
0.470578
0.465921
0.452796
0.43008
0.38758
0.338967
0.321555
0.31311
0.314616
0.347134
0.379363
0.416909
0.499017
0.627347
0.680016
0.348252
0.347369
0.346449
0.345149
0.344297
0.342054
0.337504
0.330712
0.324518
0.322679
0.330265
0.360225
0.428791
0.516343
0.563615
0.597911
0.609116
0.609811
0.591652
0.521213
0.453113
0.467936
0.589292
0.675185
0.672793
0.649921
0.623701
0.59591
0.560689
0.503929
0.441059
0.38415
0.341058
0.322153
0.311174
0.300302
0.287992
0.277579
0.2733
0.290024
0.351438
0.736651
1.14136
1.36681
1.4698
1.44495
1.06885
0.636337
0.503104
0.467929
0.444514
0.408995
0.368362
0.328834
0.311876
0.317442
0.332861
0.350934
0.36496
0.376448
0.384523
0.385444
0.381905
0.380375
0.384578
0.398932
0.439677
0.524334
0.59873
0.654488
0.679905
0.682429
0.664249
0.59224
0.427372
0.243696
0.203544
0.278896
0.683717
1.0249
1.1338
1.08173
0.849543
0.580941
0.46817
0.363267
0.30547
0.29422
0.290349
0.29552
0.319764
0.39544
0.484631
0.509986
0.501635
0.487943
0.477256
0.471723
0.471165
0.46983
0.466868
0.46055
0.4411
0.399412
0.340495
0.319532
0.310686
0.319295
0.365365
0.387775
0.435883
0.504087
0.606312
0.343515
0.342984
0.341742
0.342373
0.341717
0.33911
0.334513
0.32821
0.321628
0.318635
0.319157
0.328582
0.365854
0.479389
0.55186
0.590737
0.6143
0.621424
0.613368
0.56956
0.479903
0.46886
0.5138
0.610201
0.640055
0.640777
0.631085
0.60895
0.587781
0.560104
0.512386
0.458742
0.405148
0.360483
0.329602
0.311645
0.297388
0.287078
0.283376
0.293985
0.372325
0.84379
1.27264
1.48652
1.53903
1.24539