/*--------------------------------*- C++ -*----------------------------------*\
  =========                 |
  \\      /  F ield         | OpenFOAM: The Open Source CFD Toolbox
   \\    /   O peration     | Website:  https://openfoam.org
    \\  /    A nd           | Version:  10
     \\/     M anipulation  |
\*---------------------------------------------------------------------------*/
FoamFile
{
    format      ascii;
    class       volScalarField;
    location    "0.350478";
    object      T;
}
// * * * * * * * * * * * * * * * * * * * * * * * * * * * * * * * * * * * * * //

dimensions      [0 0 0 1 0 0 0];

internalField   nonuniform List<scalar> 
16320
(
0.00205073
0.00184203
0.00181746
0.00202342
0.00271607
0.00373307
0.00401356
0.00399447
0.00372911
0.00361363
0.00360954
0.00371712
0.00396181
0.00427102
0.00475261
0.0055032
0.0060889
0.00652164
0.00740778
0.00944855
0.0109384
0.0111634
0.0110228
0.0106022
0.0101566
0.00997989
0.0103878
0.0114352
0.0123481
0.0128112
0.0129456
0.0125737
0.0113331
0.00938189
0.00781412
0.00692769
0.0065104
0.00629376
0.00608415
0.00588272
0.00569962
0.00555207
0.00541635
0.00537065
0.00536404
0.00537657
0.00536803
0.00533782
0.00529922
0.00525586
0.00520821
0.00519374
0.00521481
0.00529887
0.00548931
0.00603416
0.00753664
0.00973097
0.0107245
0.0106264
0.00974758
0.00881388
0.00717951
0.00457035
0.00343888
0.00309995
0.00304532
0.00336672
0.00473398
0.00845154
0.0119605
0.0133037
0.0156723
0.0171835
0.0152974
0.00752613
0.0037191
0.00256065
0.00218571
0.00208521
0.00207035
0.00203624
0.00190043
0.00170188
0.00159663
0.00168737
0.00189185
0.00199199
0.00207306
0.00212095
0.00207558
0.00200892
0.00202559
0.00234566
0.00279422
0.00269499
0.00184975
0.00162935
0.00173951
0.00207285
0.00277001
0.00383772
0.00459637
0.00498488
0.00505828
0.00456971
0.0028751
0.00197576
0.00181261
0.00180881
0.00182265
0.00185709
0.00193815
0.00203763
0.00183531
0.00180055
0.00197834
0.0026003
0.00345051
0.0037125
0.00371419
0.0035842
0.003539
0.00355772
0.00364922
0.00377083
0.0038869
0.00418805
0.00475177
0.00550535
0.00614413
0.00667201
0.00792968
0.00990824
0.0109613
0.0110789
0.0110498
0.0110234
0.0111002
0.0114724
0.012032
0.0124079
0.0125507
0.0119932
0.0103903
0.00852589
0.00726692
0.00662709
0.00636545
0.00606725
0.00567627
0.00506397
0.00420817
0.0034674
0.00311286
0.00323925
0.00341007
0.00375341
0.004264
0.00475108
0.00501854
0.00513242
0.00516505
0.00515977
0.00516318
0.00519886
0.00527599
0.00549889
0.00601935
0.00752549
0.00967584
0.0106033
0.0104596
0.00969509
0.00869145
0.00672509
0.00436028
0.00346346
0.00319341
0.00315699
0.00339009
0.00439794
0.00713507
0.0106936
0.0129268
0.0160307
0.0174433
0.0159213
0.0077982
0.00376915
0.0025769
0.00221206
0.0021227
0.00212382
0.00213028
0.00205067
0.00180283
0.00162655
0.00159832
0.00184829
0.00203475
0.0020975
0.00213585
0.00209528
0.00202397
0.00203467
0.00234728
0.0028268
0.00280835
0.00197288
0.00168838
0.00177567
0.00206548
0.00270467
0.00357289
0.00434873
0.00498984
0.00509351
0.00481209
0.0035555
0.00229911
0.00189596
0.00181193
0.00181688
0.00185824
0.00203548
0.00202131
0.0018135
0.00176242
0.00188604
0.00238329
0.00320913
0.00354838
0.00357797
0.00354524
0.00353986
0.00358079
0.00367841
0.00372952
0.00376854
0.00389297
0.0041844
0.004748
0.00555394
0.00615621
0.00691435
0.00841616
0.0100591
0.0108586
0.0110458
0.0111698
0.0113473
0.0116366
0.0119319
0.0119277
0.0111851
0.00958175
0.00800224
0.00695563
0.00646054
0.00619571
0.00568928
0.00466994
0.0033454
0.00250373
0.00214292
0.00213103
0.00243653
0.00273358
0.00283806
0.00295311
0.00317107
0.00348747
0.00395776
0.00443405
0.00481749
0.00499385
0.00508269
0.0051425
0.00525804
0.00546873
0.00600145
0.00732012
0.009379
0.0103082
0.0102524
0.00963447
0.00849406
0.00621559
0.004281
0.0035829
0.00338586
0.00334845
0.00345757
0.00409139
0.00606241
0.00892704
0.0118084
0.015769
0.0175218
0.0160693
0.00767118
0.00366264
0.00254702
0.00221754
0.00217369
0.00219489
0.00226662
0.00225192
0.00204765
0.00172298
0.00160215
0.00172109
0.00203879
0.00212766
0.002149
0.00211526
0.00203741
0.00204172
0.00234265
0.00285526
0.00291266
0.00221321
0.0018035
0.00186144
0.00209175
0.00257878
0.00322814
0.00398418
0.00493161
0.00508532
0.00484343
0.00374989
0.00252374
0.00201565
0.00184984
0.00183792
0.00189301
0.00222201
0.00200834
0.00179355
0.00172438
0.00179293
0.00216961
0.00289859
0.00340755
0.00352816
0.00355565
0.00358397
0.00368925
0.00375067
0.00376522
0.00378071
0.00383198
0.00392888
0.00420155
0.00479073
0.00552012
0.00620415
0.00741472
0.00856427
0.00986805
0.0105938
0.0109306
0.0111314
0.0112245
0.0110013
0.0101688
0.00890868
0.00766013
0.00675975
0.00633898
0.0060313
0.00529402
0.00352245
0.00237728
0.00195632
0.00181049
0.00202415
0.00243023
0.00289433
0.00316957
0.00331732
0.00323469
0.00322637
0.00332521
0.00351616
0.00377524
0.00410084
0.00448663
0.00479432
0.00500091
0.00516063
0.0054186
0.0058615
0.00695259
0.0089409
0.0100058
0.0100639
0.00953458
0.00819288
0.00581703
0.00436372
0.00378237
0.0035277
0.00343542
0.00346187
0.00383146
0.00516242
0.00756676
0.0105487
0.0151059
0.0174394
0.0159428
0.00680094
0.00331801
0.00243002
0.00219633
0.00218905
0.00223624
0.00241916
0.0025238
0.00239258
0.00194595
0.00166013
0.00164321
0.00198493
0.00214195
0.00215995
0.00213267
0.00204973
0.00205081
0.00232719
0.00286673
0.00298562
0.00251328
0.00204296
0.00201937
0.00220601
0.00255283
0.00305481
0.00370275
0.00490599
0.00507326
0.00480949
0.00377385
0.00258274
0.00207041
0.00188645
0.00187419
0.0019589
0.002484
0.00200705
0.00178688
0.00169022
0.00171086
0.00197858
0.00255111
0.00316732
0.00346626
0.00357644
0.00366138
0.00373712
0.00377035
0.00379101
0.0038466
0.0038673
0.00387074
0.00392682
0.00422073
0.00483906
0.00552015
0.00660201
0.00759905
0.00837207
0.00927901
0.00980723
0.00998899
0.00974887
0.00909697
0.00830615
0.00741674
0.0066285
0.00621713
0.00593251
0.00503849
0.00304864
0.00206974
0.00175829
0.00170398
0.00194668
0.00234318
0.00259231
0.00281753
0.00343359
0.00477821
0.00475733
0.00421633
0.00373189
0.00362317
0.00371456
0.00386398
0.00408695
0.00436795
0.00463377
0.00488144
0.00515144
0.00562296
0.00684441
0.00880531
0.00983835
0.00992826
0.00933198
0.00769258
0.00570528
0.00463725
0.00395
0.0035631
0.00344064
0.00343183
0.00364483
0.00454854
0.00648896
0.00939754
0.0142577
0.0172567
0.0154477
0.00579054
0.0030118
0.00230664
0.00216711
0.00217716
0.00225724
0.00254898
0.00289467
0.00284098
0.00236627
0.00180209
0.0016537
0.00184456
0.00214686
0.00217272
0.00214534
0.00205709
0.00206284
0.00231168
0.00287674
0.00304342
0.00278759
0.00235528
0.00225483
0.00239054
0.00261693
0.00299116
0.00360476
0.00491392
0.00508314
0.00467477
0.00357295
0.00257535
0.00208251
0.00191626
0.00191507
0.0020385
0.00267785
0.00201228
0.00179575
0.0016639
0.00164963
0.0018216
0.00226581
0.00284819
0.00330551
0.00356017
0.00366764
0.00371761
0.00373377
0.00374775
0.00387704
0.00395313
0.00388988
0.00382599
0.00390194
0.00429562
0.0048756
0.00582093
0.0068913
0.00737265
0.00798711
0.00837174
0.0084947
0.00821063
0.00769632
0.00712629
0.00657685
0.00615648
0.00591162
0.00507464
0.00298919
0.0019569
0.00162867
0.00156579
0.00162584
0.00172252
0.0017328
0.00173316
0.00204036
0.00292396
0.00515102
0.00720804
0.00676126
0.0055797
0.00441571
0.00396164
0.00391863
0.00401972
0.00418769
0.00439079
0.00460947
0.00492257
0.0055347
0.00689002
0.00882751
0.00974841
0.00977823
0.00897222
0.00712724
0.0059104
0.00506328
0.00400667
0.00351312
0.00332621
0.0033011
0.00349681
0.00431658
0.00598245
0.00861333
0.0135785
0.0170723
0.0145356
0.00527491
0.00288725
0.00223874
0.00213296
0.00215052
0.00225718
0.00262248
0.00323856
0.00335132
0.00304207
0.0021118
0.00171077
0.00174907
0.00213281
0.00218836
0.00215563
0.00205578
0.00207374
0.00229986
0.00287983
0.00308658
0.00297227
0.00265357
0.00252925
0.00258207
0.00272733
0.0029751
0.00359997
0.00503742
0.00515574
0.00451774
0.00317262
0.00244385
0.00206379
0.00194188
0.00195264
0.00210799
0.00276544
0.00203539
0.00182248
0.00165472
0.00161068
0.00170222
0.00203343
0.00254146
0.00305971
0.00345415
0.00359538
0.00360664
0.00355279
0.00358033
0.00402054
0.00414708
0.00400626
0.00377753
0.00375626
0.0039471
0.00436146
0.00507419
0.00623547
0.00673282
0.00710751
0.00734936
0.00741525
0.0071781
0.00679715
0.0064351
0.00613179
0.00585947
0.00530569
0.00350661
0.00203156
0.0015561
0.00141615
0.00136576
0.00134216
0.00128532
0.00127858
0.00140398
0.0017308
0.00253091
0.00462248
0.0081805
0.00891685
0.00818467
0.00669934
0.00501049
0.00423034
0.0041056
0.00419031
0.00433843
0.0045451
0.00489362
0.00556458
0.00707175
0.00892684
0.00963461
0.00945765
0.00822001
0.00696054
0.00629482
0.00544243
0.00410757
0.00342608
0.00314881
0.00309271
0.00331783
0.00427125
0.00598795
0.00849111
0.0133777
0.0169994
0.0137733
0.00509139
0.00285033
0.00220696
0.00209778
0.00211685
0.00224289
0.00267403
0.00335542
0.00363296
0.00350128
0.00264539
0.00185317
0.00173493
0.00206432
0.00220511
0.00216601
0.00204247
0.00208014
0.00228679
0.00285791
0.00311414
0.00308195
0.00288613
0.00275618
0.00275219
0.00281889
0.003005
0.00381253
0.00529189
0.00531298
0.00441909
0.00300309
0.00233008
0.00204456
0.00197005
0.00199189
0.00216549
0.00282261
0.002108
0.00185561
0.00166261
0.00159137
0.00162064
0.001851
0.00226586
0.00274278
0.00317768
0.00333627
0.00332932
0.00332756
0.00366488
0.00434418
0.00447881
0.00420183
0.00377386
0.00369338
0.00375608
0.00400941
0.00448452
0.00558827
0.00625631
0.0065243
0.00666371
0.00668795
0.00651946
0.00625014
0.00603884
0.00585647
0.00552073
0.00440017
0.00245616
0.00160291
0.0013427
0.00124571
0.00119368
0.00116252
0.00115302
0.00119948
0.00133638
0.00165362
0.00243588
0.00427084
0.00798767
0.00967313
0.00951874
0.0085625
0.00664893
0.0050793
0.00439344
0.00430368
0.00439041
0.00458372
0.00495044
0.00576356
0.00754539
0.00907536
0.0094199
0.00875475
0.00762199
0.00702997
0.00660068
0.0057811
0.00426087
0.00344921
0.00309629
0.00300584
0.00322899
0.00433196
0.00614781
0.00860836
0.0134534
0.0170096
0.0134999
0.00519734
0.00286882
0.00219929
0.00207187
0.00209083
0.00223148
0.00271341
0.00338968
0.00373201
0.00371554
0.00318935
0.00206589
0.00175533
0.00196007
0.00221723
0.0021839
0.00203739
0.00208767
0.00228073
0.00279175
0.00312036
0.00314223
0.00303788
0.0029005
0.00286505
0.00288073
0.0030593
0.00425949
0.0055587
0.00548984
0.00438393
0.00294542
0.00229666
0.00205008
0.00201263
0.00204378
0.00223138
0.00289253
0.00228142
0.00190529
0.00169244
0.00158563
0.00157364
0.00171363
0.00203602
0.00241609
0.00278086
0.0029888
0.0030567
0.00317504
0.00391266
0.00468339
0.00475934
0.00438781
0.00379968
0.00366137
0.00366478
0.00379583
0.00408673
0.00499581
0.00586411
0.00612163
0.00621018
0.00621909
0.00609551
0.00591944
0.00579903
0.00564049
0.00509091
0.00348506
0.00193286
0.00139725
0.00122593
0.00115622
0.00112383
0.00111342
0.0011221
0.00118526
0.00132524
0.00165518
0.00246475
0.00420756
0.0071571
0.00970919
0.0100609
0.00949076
0.00774846
0.00613083
0.00506992
0.00467662
0.00466179
0.00480556
0.00522801
0.00639205
0.0082728
0.00900622
0.00894779
0.00802615
0.00745189
0.00717459
0.00699775
0.00608929
0.00450557
0.00354777
0.00309801
0.0029927
0.00323652
0.00446784
0.00652518
0.0089452
0.0136931
0.0170479
0.0135807
0.00588763
0.00306332
0.0022203
0.00205734
0.00207245
0.00221949
0.00273832
0.00339837
0.00374812
0.00380117
0.00351273
0.00240596
0.00181788
0.00188406
0.00221493
0.0022062
0.00204308
0.00210284
0.00228589
0.00272035
0.00309918
0.0031508
0.00309843
0.00297022
0.00291702
0.00291516
0.0031483
0.00469165
0.00576516
0.00562512
0.00434626
0.00292563
0.00229081
0.00208602
0.0020683
0.00210958
0.0023254
0.00305746
0.00262427
0.00201449
0.00175182
0.00159523
0.00155766
0.00161972
0.00185433
0.00215938
0.00243958
0.00268108
0.00284
0.00312014
0.00418892
0.00489284
0.00492935
0.00449113
0.00382482
0.00363549
0.00361687
0.00367511
0.00383575
0.00451308
0.00551185
0.00583054
0.00591186
0.0059202
0.00582132
0.00571295
0.0056309
0.00542529
0.00465802
0.00292089
0.00171411
0.00131178
0.00117788
0.00112686
0.00110818
0.00110407
0.00113855
0.00123027
0.00138414
0.00174673
0.00269258
0.00436948
0.00654041
0.00942676
0.010109
0.0100223
0.00866131
0.00733368
0.00632291
0.00564748
0.00547453
0.00557708
0.00613719
0.00755352
0.00857274
0.00882496
0.00826625
0.00772642
0.00751699
0.00749581
0.00740788
0.00636344
0.00496367
0.00378761
0.00315886
0.00301202
0.00329896
0.0047007
0.00709657
0.009555
0.0141119
0.0170745
0.0140928
0.00684881
0.00329646
0.00226709
0.00205051
0.00205676
0.00220168
0.00274468
0.00339558
0.00371946
0.00380096
0.00363996
0.00275628
0.00194753
0.00186043
0.00218827
0.00222998
0.00205845
0.00212654
0.00230108
0.00264611
0.00303154
0.00313476
0.00309961
0.00297751
0.00292908
0.00293386
0.00329148
0.00513607
0.00601945
0.00571648
0.00428685
0.00292395
0.00233982
0.00214694
0.00213288
0.00218502
0.00243697
0.00326769
0.00323211
0.00223115
0.00183717
0.00163541
0.00156177
0.00157234
0.00172244
0.00196987
0.002181
0.00240438
0.00263988
0.00313727
0.00438403
0.00504113
0.00504656
0.00452003
0.00382224
0.00360747
0.00358372
0.00360747
0.00368513
0.00417053
0.00520171
0.00561711
0.00571419
0.00572886
0.00564239
0.00557694
0.00550596
0.00525198
0.00439996
0.00275128
0.00166379
0.00129221
0.00116833
0.00112449
0.00111299
0.00112219
0.00119538
0.00131186
0.00146324
0.00192557
0.00301475
0.00440559
0.00567006
0.00825051
0.00989687
0.010119
0.00957542
0.0086776
0.00787819
0.0072926
0.00703846
0.00708459
0.00750705
0.00825901
0.00854359
0.00840144
0.00796291
0.00775568
0.00773862
0.00798756
0.00774994
0.00668871
0.00561182
0.00410936
0.00324497
0.00305384
0.00331417
0.00477765
0.00773836
0.0101864
0.0145088
0.0170566
0.014739
0.00764143
0.00343096
0.00230697
0.00204795
0.00204764
0.00218138
0.00273324
0.0034154
0.00366889
0.00376088
0.00363736
0.00297433
0.00209045
0.00186618
0.00211813
0.00225041
0.00209164
0.00216551
0.00233219
0.00260887
0.00295089
0.00308929
0.00307872
0.00296407
0.00291825
0.0029392
0.00349525
0.00551857
0.0061794
0.00574177
0.00419833
0.00299706
0.00241658
0.00222618
0.00221675
0.00228218
0.00259498
0.00355349
0.00426194
0.00263263
0.00199316
0.00171913
0.00159007
0.00157166
0.00165233
0.00184493
0.00200549
0.0022188
0.00254838
0.0032246
0.00464319
0.00510031
0.0050749
0.00449363
0.0037903
0.00357183
0.00355364
0.00356755
0.00359395
0.00394502
0.00493538
0.0054536
0.00557565
0.00559799
0.00552403
0.00547834
0.00541436
0.00514504
0.00434478
0.00276026
0.00167345
0.00129722
0.00117658
0.001141
0.00113777
0.00118249
0.00128228
0.00133608
0.00149706
0.00203056
0.00305158
0.00405989
0.0050359
0.00703522
0.00885885
0.00996979
0.00999531
0.00963012
0.00921235
0.00883359
0.00847511
0.00833016
0.00836848
0.00849344
0.00846465
0.00821108
0.0079846
0.00791794
0.00828429
0.00844148
0.00812234
0.00739279
0.00641046
0.00448718
0.00334511
0.00308969
0.00321584
0.00455603
0.00813333
0.0106742
0.0147217
0.0169864
0.0151811
0.00804447
0.00348817
0.00233736
0.00205226
0.00204598
0.00216217
0.00269208
0.00345539
0.00362873
0.00362741
0.00355579
0.00302986
0.00219516
0.00189882
0.00206185
0.00226331
0.00213751
0.00222053
0.00238356
0.00259141
0.00288871
0.00301393
0.00301522
0.00292319
0.00287893
0.00293376
0.00384455
0.00603364
0.00643219
0.00574259
0.00405254
0.00303017
0.00250409
0.0023135
0.00230831
0.00239432
0.00280717
0.00383738
0.00546196
0.00345824
0.00224988
0.00185895
0.00166863
0.00160523
0.00164555
0.00179071
0.00193496
0.00216215
0.00256285
0.00344078
0.00490689
0.00518755
0.00504606
0.00436028
0.00369477
0.00353337
0.00352937
0.00354252
0.00353682
0.00379974
0.00471598
0.00533229
0.00547782
0.00550631
0.0054445
0.00540923
0.0053528
0.00509846
0.004361
0.00283459
0.00172331
0.00132913
0.00121175
0.00118704
0.00120376
0.00126818
0.00128942
0.00129682
0.00135364
0.00153637
0.00187095
0.00229182
0.00300386
0.00481603
0.00751175
0.00940275
0.00994284
0.00985912
0.009763
0.00964707
0.0094061
0.00906548
0.00883637
0.00863556
0.00845176
0.0082588
0.00817923
0.00839352
0.00868435
0.00874404
0.0085166
0.00813648
0.00728208
0.0052164
0.00356138
0.00313059
0.00313946
0.00418973
0.00806942
0.0108939
0.0147674
0.0168228
0.0154126
0.00820866
0.00351039
0.00236018
0.0020659
0.00205517
0.00215443
0.00264133
0.00347689
0.00360354
0.00340953
0.00332022
0.00298176
0.00225502
0.00196947
0.00205275
0.00226561
0.00220093
0.0022963
0.00244132
0.0025875
0.00283832
0.00294188
0.0029316
0.00281183
0.00277144
0.00295046
0.00462106
0.00668502
0.00671227
0.0054894
0.00383292
0.00301158
0.00256242
0.00240374
0.00240772
0.00253067
0.00308926
0.00401328
0.00627851
0.00461564
0.00275086
0.00205998
0.00182113
0.00169725
0.00167589
0.00179648
0.00194365
0.00219022
0.00269667
0.00400908
0.00515605
0.0052813
0.00495017
0.00406554
0.00359308
0.0034878
0.00350001
0.00352806
0.00350144
0.00369752
0.00453962
0.00522839
0.00539923
0.00543609
0.00539075
0.00535299
0.00530468
0.00509051
0.00442169
0.00305482
0.00186612
0.00141554
0.00129475
0.0012788
0.00132127
0.00134211
0.00129356
0.00117885
0.00115811
0.00117069
0.00123345
0.00134654
0.00152641
0.00206477
0.00371688
0.00825601
0.00943677
0.00963751
0.0097154
0.00973278
0.0096423
0.00936918
0.00906227
0.00879019
0.00857547
0.00852788
0.00859181
0.00875593
0.00888027
0.00889169
0.00874384
0.00860232
0.00801215
0.00632247
0.00402989
0.00322161
0.00310677
0.00377964
0.00717986
0.0108902
0.0146792
0.0166578
0.0155049
0.00829629
0.00354765
0.002403
0.00208835
0.00207034
0.00214891
0.00257024
0.003488
0.00362645
0.00327938
0.00302613
0.0028603
0.00229594
0.00203183
0.00207022
0.00226535
0.00228486
0.00238344
0.00248124
0.002596
0.0027824
0.00282887
0.0027637
0.00269899
0.00270021
0.00309618
0.00589817
0.00718923
0.00688379
0.00507525
0.00364389
0.0029639
0.00262817
0.00251514
0.00253174
0.00271742
0.0034253
0.00408201
0.00664012
0.00557002
0.00347788
0.00236144
0.00198951
0.00181391
0.00176586
0.00185322
0.00203172
0.00237614
0.00320305
0.00481297
0.00532114
0.00530081
0.00473062
0.00382594
0.00350375
0.00344134
0.00349259
0.00352082
0.00347313
0.00361606
0.00439396
0.00513852
0.00533286
0.00537738
0.00534757
0.00530745
0.00526773
0.00509443
0.0045633
0.0034233
0.00216
0.00159827
0.00146556
0.00145626
0.00149277
0.00148472
0.00131327
0.00113136
0.00109064
0.00108733
0.00110881
0.00116088
0.00122068
0.00137875
0.00179479
0.00330779
0.00867279
0.00896341
0.00917616
0.00938178
0.00947618
0.00935197
0.00911914
0.008911
0.0088168
0.00880335
0.0088426
0.00892319
0.0089716
0.00897147
0.00893391
0.00891776
0.0085279
0.00734035
0.00479699
0.00343524
0.00314264
0.00348771
0.00575001
0.0106289
0.0143239
0.016382
0.0155084
0.00856615
0.00369863
0.00247893
0.0021172
0.00208138
0.0021435
0.0024959
0.00347253
0.00370636
0.00326882
0.00283999
0.0026914
0.00232524
0.0020982
0.00211826
0.00230081
0.00238222
0.00245226
0.00251839
0.00261285
0.00269101
0.00269478
0.00261703
0.00258603
0.00274077
0.00380152
0.0070427
0.00768386
0.00693478
0.00477597
0.00348876
0.00290042
0.00266599
0.00262459
0.0026593
0.00293129
0.00369986
0.00406476
0.00679082
0.00604452
0.00412175
0.0028693
0.00226701
0.00204157
0.00197901
0.00208915
0.00238492
0.00300866
0.00442776
0.00533366
0.00549676
0.0052799
0.00445248
0.0036537
0.00342824
0.00339896
0.00349551
0.0035201
0.00344455
0.00353646
0.00424752
0.00506243
0.0052756
0.00532701
0.00531591
0.00527811
0.00524405
0.0051044
0.00472574
0.00381094
0.00256722
0.00188568
0.00172866
0.00172105
0.0017507
0.00169342
0.00137339
0.00113721
0.00108118
0.00107311
0.0010862
0.00112804
0.00117051
0.00127034
0.0015552
0.00227789
0.00688484
0.00816055
0.00856469
0.0087844
0.00897125
0.00909112
0.00907078
0.00895192
0.00891967
0.0089257
0.00896249
0.00900252
0.00902947
0.00903665
0.00905039
0.00910113
0.00886426
0.00808833
0.00583077
0.00380034
0.00328063
0.00337929
0.00483002
0.00968765
0.0134233
0.0159187
0.0154532
0.00912489
0.00405794
0.00261722
0.00216337
0.00208804
0.0021375
0.00242862
0.00340634
0.00386428
0.00334334
0.00277526
0.00257028
0.00235883
0.0022032
0.00222371
0.00238258
0.00247097
0.00250475
0.00253647
0.00257762
0.00258516
0.00254705
0.00251225
0.00259584
0.00299459
0.00606462
0.00801289
0.00791254
0.00672548
0.00463032
0.00341183
0.00284029
0.00266821
0.00266904
0.00275356
0.00318558
0.003877
0.00401566
0.00684108
0.00622639
0.00452994
0.00338838
0.00280349
0.00255031
0.00253922
0.00281546
0.00340511
0.00443024
0.00536682
0.00565117
0.005648
0.00520966
0.0041361
0.00352871
0.00336929
0.00336494
0.00350612
0.00352739
0.00341479
0.0034511
0.00405766
0.00497111
0.00522977
0.00529388
0.00529125
0.00526081
0.00523314
0.00512855
0.00485568
0.00417159
0.00305968
0.00224502
0.00207616
0.0020739
0.00211058
0.00200994
0.00152482
0.0011793
0.00109371
0.00108082
0.00109458
0.00113879
0.00117139
0.00124214
0.00152454
0.00205448
0.00356099
0.00576376
0.00730713
0.00806381
0.0084665
0.00872534
0.00888029
0.00891251
0.00892711
0.00895681
0.00899654
0.00902863
0.009052
0.00907508
0.00911309
0.00919527
0.00912377
0.00867034
0.0070184
0.00439546
0.00348258
0.00339148
0.00421761
0.00796518
0.0124484
0.0155713
0.0153433
0.0100775
0.00469565
0.00287856
0.00224581
0.00209519
0.00213131
0.00237576
0.00330331
0.0040641
0.00357821
0.00280302
0.0025727
0.00241599
0.00233874
0.00237087
0.00247748
0.00252337
0.00251067
0.00251005
0.00249934
0.00246373
0.0024499
0.00252256
0.0027737
0.00416528
0.00805086
0.00836228
0.0080075
0.00664807
0.00459798
0.00337873
0.00277784
0.00265346
0.00267224
0.00282904
0.0034701
0.00395703
0.00397369
0.00685983
0.00628733
0.00487983
0.00405087
0.00371525
0.00364438
0.00388216
0.00433304
0.00495735
0.00559975
0.00586784
0.00591404
0.00567962
0.00502828
0.00390356
0.00344469
0.00332908
0.00335107
0.00353869
0.00355295
0.00339147
0.00338137
0.00385276
0.00481068
0.00518859
0.00526091
0.00527563
0.0052509
0.00522904
0.0051611
0.00496982
0.00448031
0.00355823
0.00267998
0.00247164
0.00249694
0.00256891
0.00246924
0.00187182
0.00130546
0.00114448
0.0011186
0.00114818
0.00118401
0.00117717
0.00129268
0.00166299
0.00216437
0.0026458
0.00362925
0.00473976
0.00598091
0.0070538
0.00784329
0.00832984
0.00861917
0.00876821
0.00885144
0.00891287
0.00895869
0.00899754
0.00904789
0.00910312
0.00920977
0.00925778
0.00902189
0.00800976
0.00533249
0.00381699
0.00351526
0.00392607
0.00634367
0.0115255
0.0151061
0.0151304
0.011503
0.00579794
0.00339505
0.00241022
0.00212496
0.00213761
0.00233969
0.00318239
0.00425445
0.00400523
0.00294452
0.00260708
0.00250287
0.00246676
0.00249037
0.00252785
0.00251972
0.00248357
0.00242233
0.00239654
0.00240323
0.0024733
0.00271256
0.0037399
0.00728895
0.00858027
0.00847008
0.00803524
0.00690572
0.00486452
0.00342165
0.00274708
0.00261216
0.00266211
0.00295328
0.00368903
0.00397951
0.00391212
0.00689387
0.00641282
0.00553838
0.00511529
0.00502546
0.00519094
0.00548188
0.0057498
0.00602554
0.00612416
0.00613416
0.00597609
0.00561903
0.00470966
0.00376765
0.00339762
0.0033043
0.00335609
0.00359046
0.00360184
0.00337216
0.00331953
0.00364602
0.00454033
0.0051289
0.00525233
0.00527267
0.00524851
0.00523035
0.00518481
0.00506387
0.00473347
0.00401853
0.00314676
0.00288147
0.00294293
0.00308538
0.00300965
0.00234627
0.00152276
0.00126251
0.00121698
0.00121517
0.00117185
0.00117446
0.00133866
0.00173963
0.00218268
0.00241381
0.00290687
0.00352988
0.00428862
0.00510586
0.00588835
0.00666035
0.00732606
0.00780648
0.00811538
0.00832429
0.00849386
0.00865493
0.00883479
0.00900078
0.00913242
0.00928932
0.00921528
0.00867184
0.0065364
0.00430693
0.0037484
0.00383636
0.00524854
0.00997542
0.0145258
0.0149179
0.012939
0.00757252
0.00433619
0.00272126
0.0021939
0.0021592
0.00232439
0.0030897
0.00443537
0.00445884
0.00324745
0.00267376
0.00258623
0.00255551
0.00254987
0.00251605
0.00247811
0.00238403
0.00235619
0.00238691
0.00245797
0.00274118
0.00371906
0.0068785
0.00852011
0.00868624
0.00849762
0.00818233
0.00741958
0.00541521
0.00365617
0.00273787
0.00252202
0.00261913
0.0030689
0.00376942
0.003933
0.00381441
0.00694109
0.00665209
0.00623755
0.00609216
0.00615802
0.00636034
0.00649596
0.00650936
0.00642396
0.00632033
0.00612948
0.00586803
0.00533629
0.00443909
0.00368936
0.00338483
0.00330088
0.00337163
0.00364778
0.00366021
0.00334631
0.00322857
0.00342388
0.00418462
0.00501844
0.00521548
0.00527356
0.00525603
0.00523957
0.00520366
0.00512228
0.00490729
0.00439954
0.00359553
0.00329271
0.00336761
0.00359778
0.00354168
0.00279341
0.00172893
0.00139379
0.00131338
0.00124986
0.00113845
0.00113295
0.00124916
0.00147285
0.00172011
0.00190174
0.00215917
0.00255569
0.00308639
0.0037436
0.00447491
0.00522316
0.00593631
0.00654798
0.00704605
0.00745451
0.00781171
0.00815499
0.0084733
0.00878763
0.00898957
0.00924727
0.00928717
0.00904871
0.00771218
0.00504042
0.00400205
0.00386956
0.00463341
0.00811263
0.0139612
0.0148413
0.0138616
0.0102193
0.00581269
0.0032036
0.00231863
0.00218984
0.0023282
0.00305923
0.004586
0.00488147
0.00375842
0.002785
0.0026367
0.00258039
0.00253667
0.00246486
0.00239477
0.00236443
0.00237257
0.00251035
0.00288686
0.00401256
0.00694681
0.00848588
0.00877597
0.00868349
0.00850705
0.00819904
0.00754024
0.00593863
0.00399174
0.0028141
0.00247331
0.00253328
0.00307415
0.00367431
0.0038154
0.00369251
0.00695996
0.00681242
0.00668229
0.0067005
0.00680426
0.00689412
0.00685458
0.00670678
0.00651211
0.00625384
0.00592112
0.0054742
0.00487187
0.0042191
0.0036358
0.00339208
0.00331633
0.00339374
0.00370429
0.00372492
0.00332564
0.00309918
0.00318007
0.0037563
0.00469836
0.00518337
0.00526907
0.00529808
0.00527068
0.00523637
0.00515788
0.00501485
0.00467516
0.00400002
0.00369163
0.00375454
0.00405765
0.00402316
0.00322891
0.0019505
0.00150756
0.00136493
0.00122358
0.00106407
0.00104188
0.001055
0.00108175
0.00115038
0.0013079
0.00158412
0.00191113
0.00227302
0.00272893
0.00330731
0.00398738
0.00470595
0.00541246
0.00605887
0.00663713
0.00714086
0.00758744
0.00799715
0.00840395
0.0087332
0.00905825
0.00927249
0.00917088
0.00845224
0.00601109
0.00435896
0.00401212
0.0043541
0.00666351
0.0127922
0.0146893
0.0143559
0.0125882
0.00776124
0.0038059
0.00248981
0.00223478
0.00235233
0.00308665
0.00473488
0.00515949
0.00431717
0.00302717
0.00267795
0.00258369
0.00251647
0.00244627
0.00241867
0.00243271
0.00262082
0.00324665
0.00476013
0.00733404
0.0085254
0.00879433
0.00878093
0.00864862
0.00847893
0.00818112
0.00760852
0.00650882
0.00454186
0.00305055
0.00247312
0.00243
0.00277934
0.00335668
0.00353068
0.00345847
0.00695681
0.0068895
0.00688577
0.00694348
0.00702317
0.00701667
0.00690973
0.00672345
0.00645256
0.00607543
0.00556007
0.00494155
0.00445728
0.00403258
0.00359177
0.00339679
0.00334573
0.00342774
0.00376952
0.00379889
0.00332975
0.00295288
0.00294653
0.00331878
0.00409958
0.0050235
0.00525093
0.0053195
0.00534647
0.00530218
0.00521886
0.00508744
0.00486259
0.00435446
0.00407192
0.00412137
0.00443346
0.0044399
0.00365305
0.00222292
0.00168696
0.00147389
0.00115296
0.00100519
0.000980521
0.000976369
0.000992989
0.00104363
0.00117358
0.00144264
0.00175141
0.00206705
0.00241481
0.00281758
0.00332204
0.00393037
0.00458154
0.00521849
0.0058104
0.00635809
0.00687081
0.00738086
0.00788911
0.00836949
0.00874921
0.00916093
0.00916216
0.00878681
0.00697315
0.00482903
0.0042104
0.00431377
0.00572255
0.010923
0.0144208
0.0146329
0.0138753
0.00981256
0.0043814
0.00264908
0.00228955
0.00239365
0.00316847
0.00491497
0.00534147
0.00475686
0.00338925
0.00279479
0.00263816
0.00256162
0.00252808
0.0026147
0.0029236
0.00380412
0.00593012
0.00783782
0.00861681
0.00880565
0.00880946
0.00869105
0.00854064
0.0083539
0.0080868
0.00762096
0.00675148
0.00529131
0.00365909
0.00258954
0.00239341
0.002473
0.00297589
0.00316635
0.00315347
0.00693053
0.00690446
0.00693979
0.00701433
0.00705187
0.00700766
0.00687814
0.0066746
0.00636118
0.00592289
0.0053361
0.00465728
0.00412014
0.00382679
0.00354406
0.00338914
0.00336294
0.00345504
0.00384459
0.00390279
0.0033795
0.00282223
0.00274777
0.00292955
0.00348607
0.00457033
0.00516346
0.00530939
0.00538533
0.00540333
0.00534237
0.00519921
0.00503182
0.00466811
0.00443245
0.00447099
0.0047477
0.00478931
0.00408761
0.00257773
0.00185328
0.00152106
0.00111487
0.000984934
0.000970121
0.000970064
0.000993621
0.00105484
0.00120061
0.00149554
0.00181087
0.0021263
0.00244947
0.00281488
0.00324209
0.00372142
0.00423799
0.00479614
0.00539713
0.00602609
0.00665944
0.00727393
0.00782704
0.00831453
0.0086391
0.00904387
0.00908969
0.00886963
0.00767759
0.00536614
0.00443475
0.00434585
0.00519107
0.00896592
0.0137914
0.0149569
0.0146287
0.0110895
0.00473485
0.00276182
0.00235019
0.00245085
0.00330985
0.00509803
0.00547933
0.00506755
0.00381301
0.00309139
0.00289561
0.00286109
0.00299804
0.00358637
0.00488086
0.0070357
0.00826775
0.00870704
0.00880561
0.00878166
0.0086391
0.0084383
0.00827224
0.00809075
0.00787065
0.00750614
0.00684229
0.00581003
0.00452014
0.00295449
0.00243694
0.00237321
0.00254793
0.00287286
0.00290235
0.00687552
0.00688659
0.00693914
0.00700339
0.00701505
0.00694364
0.0068069
0.0065943
0.00627514
0.00582521
0.00521084
0.00447582
0.00393185
0.00367739
0.00349076
0.00337233
0.00336273
0.00345065
0.00388775
0.00404267
0.00351973
0.00277397
0.00260007
0.00264531
0.00299336
0.00373818
0.00481287
0.00523071
0.00537797
0.00545007
0.00546031
0.00538534
0.00523639
0.00495712
0.00477698
0.00480478
0.00501519
0.00507064
0.004499
0.00302741
0.00205853
0.00155053
0.00111201
0.00099001
0.000980118
0.000989928
0.00102449
0.00111954
0.00136369
0.0017508
0.00210701
0.00242661
0.00272746
0.00301236
0.00331624
0.00370915
0.00422399
0.00485527
0.00557866
0.0063223
0.0070352
0.00763948
0.0080793
0.00843367
0.00865587
0.00897669
0.00900906
0.00885864
0.00799411
0.00586329
0.00469532
0.00446109
0.00491512
0.00737618
0.0130139
0.0149667
0.0149937
0.0118126
0.0048698
0.00282601
0.0024165
0.00252303
0.00353043
0.00526889
0.0056898
0.0055059
0.00464416
0.00390519
0.00374628
0.00386304
0.00471594
0.00657294
0.00795999
0.00858498
0.00876513
0.00877634
0.00866857
0.00841846
0.0080973
0.00792529
0.00778873
0.00766304
0.00753024
0.00728068
0.00680473
0.00597295