/*--------------------------------*- C++ -*----------------------------------*\
  =========                 |
  \\      /  F ield         | OpenFOAM: The Open Source CFD Toolbox
   \\    /   O peration     | Website:  https://openfoam.org
    \\  /    A nd           | Version:  10
     \\/     M anipulation  |
\*---------------------------------------------------------------------------*/
FoamFile
{
    format      ascii;
    class       volVectorField;
    location    "0.350478";
    object      U;
}
// * * * * * * * * * * * * * * * * * * * * * * * * * * * * * * * * * * * * * //

dimensions      [0 1 -1 0 0 0 0];

internalField   nonuniform List<vector> 
16320
(
(-0.447512 0.440395 0)
(-0.481604 0.44445 0)
(-0.498023 0.443718 0)
(-0.507958 0.451265 0)
(-0.506681 0.464268 0)
(-0.509739 0.476352 0)
(-0.533842 0.464012 0)
(-0.552885 0.427721 0)
(-0.558959 0.372603 0)
(-0.554412 0.314965 0)
(-0.543932 0.258243 0)
(-0.534051 0.209618 0)
(-0.518512 0.171735 0)
(-0.497718 0.147069 0)
(-0.473378 0.137795 0)
(-0.446409 0.144872 0)
(-0.415741 0.165983 0)
(-0.382386 0.196885 0)
(-0.349784 0.237463 0)
(-0.315396 0.287701 0)
(-0.275937 0.356332 0)
(-0.232914 0.436279 0)
(-0.189286 0.505878 0)
(-0.150263 0.561665 0)
(-0.118121 0.602377 0)
(-0.096124 0.634751 0)
(-0.0825457 0.665243 0)
(-0.0805328 0.698625 0)
(-0.0876588 0.736539 0)
(-0.0987365 0.75868 0)
(-0.113359 0.759552 0)
(-0.132766 0.744361 0)
(-0.150569 0.721948 0)
(-0.15918 0.692731 0)
(-0.162108 0.659842 0)
(-0.156926 0.621094 0)
(-0.141414 0.580225 0)
(-0.115476 0.537772 0)
(-0.0728609 0.485838 0)
(-0.0185209 0.436324 0)
(0.0448544 0.402824 0)
(0.105386 0.404477 0)
(0.171479 0.42736 0)
(0.227983 0.455218 0)
(0.278477 0.491522 0)
(0.320957 0.528044 0)
(0.359643 0.559395 0)
(0.39297 0.585553 0)
(0.417279 0.600138 0)
(0.432705 0.604627 0)
(0.438659 0.601996 0)
(0.432042 0.59298 0)
(0.409447 0.577839 0)
(0.360441 0.556131 0)
(0.271329 0.526394 0)
(0.160776 0.494023 0)
(0.0407381 0.469661 0)
(-0.0627762 0.449719 0)
(-0.114021 0.418849 0)
(-0.153801 0.366917 0)
(-0.175985 0.29469 0)
(-0.197131 0.201433 0)
(-0.208516 0.0811822 0)
(-0.207438 -0.0468332 0)
(-0.204484 -0.123005 0)
(-0.19803 -0.154152 0)
(-0.180465 -0.166194 0)
(-0.160033 -0.164699 0)
(-0.138219 -0.150842 0)
(-0.122861 -0.117954 0)
(-0.0875813 -0.0528908 0)
(-0.0480073 0.0469283 0)
(-0.00294931 0.116429 0)
(0.0349679 0.0492194 0)
(0.0514345 -0.123019 0)
(0.106363 -0.287407 0)
(0.162352 -0.331994 0)
(0.204527 -0.335723 0)
(0.239315 -0.323109 0)
(0.265643 -0.302123 0)
(0.278279 -0.275516 0)
(0.265855 -0.247759 0)
(0.206918 -0.214386 0)
(0.0935259 -0.141458 0)
(-0.0368186 -0.0258537 0)
(-0.108669 0.0804502 0)
(-0.128269 0.175265 0)
(-0.118807 0.259062 0)
(-0.10145 0.326244 0)
(-0.0863464 0.372284 0)
(-0.0733358 0.393185 0)
(-0.0617507 0.4025 0)
(-0.055986 0.405333 0)
(-0.057321 0.401882 0)
(-0.0731267 0.378814 0)
(-0.122233 0.322096 0)
(-0.168319 0.252422 0)
(-0.188834 0.184375 0)
(-0.200563 0.100564 0)
(-0.219165 0.011396 0)
(-0.235874 -0.0919419 0)
(-0.245905 -0.210336 0)
(-0.222585 -0.339105 0)
(-0.165533 -0.445525 0)
(-0.0891736 -0.472157 0)
(-0.0276476 -0.397946 0)
(0.0477784 -0.326439 0)
(0.092897 -0.287221 0)
(0.11647 -0.251897 0)
(0.130362 -0.227585 0)
(0.137723 -0.210967 0)
(0.139983 -0.193239 0)
(0.143815 -0.167837 0)
(-0.435712 0.477462 0)
(-0.474865 0.482647 0)
(-0.495371 0.482706 0)
(-0.504863 0.491081 0)
(-0.502661 0.503835 0)
(-0.503552 0.511829 0)
(-0.524341 0.500543 0)
(-0.541878 0.462377 0)
(-0.548054 0.405491 0)
(-0.547181 0.345546 0)
(-0.541982 0.283969 0)
(-0.534728 0.230045 0)
(-0.520429 0.186831 0)
(-0.499645 0.158928 0)
(-0.475311 0.148135 0)
(-0.449558 0.154906 0)
(-0.422089 0.177834 0)
(-0.391088 0.213107 0)
(-0.358499 0.256485 0)
(-0.328357 0.309108 0)
(-0.295498 0.369832 0)
(-0.259937 0.4432 0)
(-0.226763 0.517986 0)
(-0.19436 0.579992 0)
(-0.166647 0.62962 0)
(-0.14782 0.670411 0)
(-0.136846 0.706587 0)
(-0.135498 0.740054 0)
(-0.142978 0.767358 0)
(-0.154826 0.776355 0)
(-0.168693 0.772786 0)
(-0.179679 0.75834 0)
(-0.189512 0.734362 0)
(-0.19832 0.696654 0)
(-0.200501 0.647362 0)
(-0.194455 0.590188 0)
(-0.179552 0.510766 0)
(-0.161953 0.432042 0)
(-0.133342 0.366463 0)
(-0.0799682 0.314334 0)
(-0.0114822 0.281427 0)
(0.0600927 0.280477 0)
(0.136192 0.319748 0)
(0.193356 0.358316 0)
(0.251188 0.402884 0)
(0.305237 0.456354 0)
(0.354765 0.509787 0)
(0.391553 0.55008 0)
(0.412629 0.577702 0)
(0.426498 0.593728 0)
(0.432335 0.599497 0)
(0.425857 0.594645 0)
(0.403077 0.582482 0)
(0.351561 0.56241 0)
(0.259373 0.536002 0)
(0.14995 0.507552 0)
(0.0339516 0.483368 0)
(-0.062765 0.460001 0)
(-0.111122 0.424512 0)
(-0.15244 0.369992 0)
(-0.178376 0.297752 0)
(-0.195479 0.201783 0)
(-0.199675 0.076558 0)
(-0.195614 -0.0449396 0)
(-0.198013 -0.108256 0)
(-0.192355 -0.131629 0)
(-0.175086 -0.13842 0)
(-0.150861 -0.130542 0)
(-0.121865 -0.111668 0)
(-0.0997139 -0.0801491 0)
(-0.0651633 -0.0187105 0)
(-0.0245033 0.078345 0)
(0.0236438 0.140671 0)
(0.0659989 0.0871428 0)
(0.0689188 -0.0821326 0)
(0.126132 -0.264154 0)
(0.18331 -0.31634 0)
(0.225546 -0.323554 0)
(0.260314 -0.312947 0)
(0.28764 -0.293109 0)
(0.301798 -0.266219 0)
(0.291329 -0.237437 0)
(0.242197 -0.203917 0)
(0.149362 -0.147916 0)
(0.0340879 -0.0392848 0)
(-0.0614124 0.0812524 0)
(-0.097781 0.18541 0)
(-0.0957168 0.281701 0)
(-0.0810344 0.358208 0)
(-0.0688991 0.408516 0)
(-0.0582592 0.430424 0)
(-0.0483361 0.439951 0)
(-0.044537 0.442619 0)
(-0.049191 0.439929 0)
(-0.0689128 0.417055 0)
(-0.11527 0.35994 0)
(-0.160451 0.28797 0)
(-0.170667 0.221826 0)
(-0.17512 0.142546 0)
(-0.182008 0.0555833 0)
(-0.19497 -0.057204 0)
(-0.199577 -0.201503 0)
(-0.176147 -0.357688 0)
(-0.127819 -0.495982 0)
(-0.0630062 -0.537605 0)
(-0.000748061 -0.46568 0)
(0.0680803 -0.358288 0)
(0.112018 -0.301474 0)
(0.139842 -0.261284 0)
(0.156797 -0.233557 0)
(0.167611 -0.217665 0)
(0.172866 -0.203853 0)
(0.17215 -0.180448 0)
(-0.42151 0.5063 0)
(-0.464144 0.513519 0)
(-0.488325 0.515525 0)
(-0.498599 0.52502 0)
(-0.497926 0.53723 0)
(-0.496135 0.543081 0)
(-0.511981 0.53219 0)
(-0.528503 0.496095 0)
(-0.533779 0.440671 0)
(-0.535486 0.378044 0)
(-0.534507 0.311558 0)
(-0.529486 0.250396 0)
(-0.51566 0.200554 0)
(-0.494128 0.168396 0)
(-0.469445 0.157057 0)
(-0.44394 0.165002 0)
(-0.418195 0.189041 0)
(-0.390967 0.22731 0)
(-0.360405 0.274952 0)
(-0.330516 0.330571 0)
(-0.30383 0.395163 0)
(-0.274597 0.46273 0)
(-0.248395 0.532435 0)
(-0.226002 0.598715 0)
(-0.205279 0.655047 0)
(-0.1913 0.70117 0)
(-0.184948 0.739009 0)
(-0.187261 0.768824 0)
(-0.195006 0.790685 0)
(-0.19901 0.801702 0)
(-0.202031 0.797464 0)
(-0.210439 0.778288 0)
(-0.221794 0.741331 0)
(-0.231567 0.687883 0)
(-0.235495 0.61655 0)
(-0.240253 0.510432 0)
(-0.228209 0.415156 0)
(-0.185035 0.346144 0)
(-0.13421 0.311189 0)
(-0.0828785 0.297081 0)
(-0.0212706 0.301561 0)
(0.0452943 0.329956 0)
(0.101913 0.363731 0)
(0.154698 0.399188 0)
(0.209349 0.428599 0)
(0.261873 0.460889 0)
(0.306264 0.498147 0)
(0.34502 0.529981 0)
(0.380196 0.557983 0)
(0.405853 0.57911 0)
(0.416609 0.589257 0)
(0.411861 0.589653 0)
(0.389943 0.582068 0)
(0.338137 0.566052 0)
(0.245449 0.542086 0)
(0.135825 0.516642 0)
(0.0304367 0.494035 0)
(-0.0578436 0.471544 0)
(-0.108262 0.435463 0)
(-0.153795 0.379466 0)
(-0.183454 0.303748 0)
(-0.195355 0.199119 0)
(-0.194055 0.0704702 0)
(-0.193607 -0.0375708 0)
(-0.199815 -0.087287 0)
(-0.196737 -0.107229 0)
(-0.175302 -0.11351 0)
(-0.142604 -0.105142 0)
(-0.101153 -0.0843084 0)
(-0.0681883 -0.0501465 0)
(-0.0264039 0.0123364 0)
(0.00676199 0.105283 0)
(0.0496534 0.168003 0)
(0.0877974 0.134045 0)
(0.071681 -0.0357824 0)
(0.134244 -0.238361 0)
(0.195589 -0.299355 0)
(0.240211 -0.311818 0)
(0.277238 -0.304527 0)
(0.307684 -0.285049 0)
(0.32596 -0.257813 0)
(0.321795 -0.227366 0)
(0.28104 -0.193965 0)
(0.206764 -0.143082 0)
(0.108303 -0.0539432 0)
(0.00283046 0.0750597 0)
(-0.0593375 0.191646 0)
(-0.0706141 0.298019 0)
(-0.0612303 0.387386 0)
(-0.0517519 0.444032 0)
(-0.0438444 0.466608 0)
(-0.0363373 0.475324 0)
(-0.0346737 0.477026 0)
(-0.0439488 0.472802 0)
(-0.0705436 0.44702 0)
(-0.113919 0.38662 0)
(-0.160616 0.308243 0)
(-0.157331 0.247601 0)
(-0.152062 0.171864 0)
(-0.147932 0.0892509 0)
(-0.146151 -0.0231697 0)
(-0.148215 -0.183468 0)
(-0.126096 -0.363972 0)
(-0.0825348 -0.528959 0)
(-0.0251076 -0.580906 0)
(0.0294278 -0.511027 0)
(0.0928653 -0.398823 0)
(0.133256 -0.318755 0)
(0.159746 -0.268805 0)
(0.178195 -0.236906 0)
(0.190419 -0.22027 0)
(0.198389 -0.21084 0)
(0.196731 -0.194715 0)
(-0.403856 0.528652 0)
(-0.448746 0.538474 0)
(-0.476402 0.542555 0)
(-0.488314 0.552272 0)
(-0.490063 0.564438 0)
(-0.486369 0.57091 0)
(-0.495539 0.559535 0)
(-0.508829 0.528516 0)
(-0.513219 0.476384 0)
(-0.516265 0.411911 0)
(-0.517241 0.341058 0)
(-0.512656 0.27219 0)
(-0.499282 0.215064 0)
(-0.47821 0.178376 0)
(-0.455006 0.167069 0)
(-0.432115 0.177265 0)
(-0.408041 0.202984 0)
(-0.382481 0.242102 0)
(-0.355297 0.292956 0)
(-0.326812 0.352048 0)
(-0.302178 0.421404 0)
(-0.279202 0.494287 0)
(-0.258802 0.561633 0)
(-0.241598 0.623602 0)
(-0.229462 0.680058 0)
(-0.223153 0.728596 0)
(-0.221884 0.768211 0)
(-0.221365 0.801121 0)
(-0.217589 0.823845 0)
(-0.216304 0.83315 0)
(-0.221785 0.822208 0)
(-0.231832 0.790815 0)
(-0.243847 0.738282 0)
(-0.254589 0.659634 0)
(-0.270887 0.547881 0)
(-0.263872 0.442422 0)
(-0.225335 0.377944 0)
(-0.178127 0.338975 0)
(-0.130944 0.316715 0)
(-0.0823262 0.31369 0)
(-0.0357243 0.324621 0)
(0.00669201 0.326098 0)
(0.0621551 0.349801 0)
(0.122409 0.418817 0)
(0.160009 0.451621 0)
(0.208248 0.476805 0)
(0.256118 0.500048 0)
(0.295932 0.525697 0)
(0.331272 0.54939 0)
(0.359469 0.567427 0)
(0.37857 0.577689 0)
(0.384736 0.581571 0)
(0.369417 0.577002 0)
(0.318158 0.56316 0)
(0.225501 0.541464 0)
(0.121656 0.519744 0)
(0.024636 0.503975 0)
(-0.0611616 0.486669 0)
(-0.11442 0.45282 0)
(-0.162385 0.394511 0)
(-0.192203 0.310697 0)
(-0.197054 0.194559 0)
(-0.190929 0.0666845 0)
(-0.197311 -0.0217884 0)
(-0.211461 -0.0596656 0)
(-0.205727 -0.0823049 0)
(-0.175689 -0.0955414 0)
(-0.13395 -0.092744 0)
(-0.0799265 -0.0705508 0)
(-0.0347834 -0.0247477 0)
(0.00966112 0.0440143 0)
(0.0353147 0.133612 0)
(0.0727206 0.207111 0)
(0.100543 0.192472 0)
(0.0657611 0.018751 0)
(0.134158 -0.212148 0)
(0.197737 -0.285367 0)
(0.245297 -0.30413 0)
(0.286739 -0.300873 0)
(0.322126 -0.282308 0)
(0.347297 -0.253979 0)
(0.353532 -0.219979 0)
(0.325067 -0.185542 0)
(0.262236 -0.130374 0)
(0.174467 -0.0555661 0)
(0.0765808 0.0635794 0)
(-0.01247 0.19495 0)
(-0.0432752 0.309374 0)
(-0.0413896 0.41298 0)
(-0.0353171 0.47863 0)
(-0.030668 0.501838 0)
(-0.026132 0.508623 0)
(-0.027664 0.508419 0)
(-0.0435657 0.49994 0)
(-0.0796613 0.468049 0)
(-0.124324 0.402562 0)
(-0.167422 0.317498 0)
(-0.155267 0.260787 0)
(-0.137772 0.18859 0)
(-0.125951 0.1051 0)
(-0.113311 -0.00328546 0)
(-0.103334 -0.165178 0)
(-0.0798901 -0.365748 0)
(-0.0378058 -0.547865 0)
(0.013889 -0.604334 0)
(0.0603373 -0.541032 0)
(0.115533 -0.426112 0)
(0.152023 -0.336376 0)
(0.1776 -0.276685 0)
(0.196105 -0.239491 0)
(0.208217 -0.219962 0)
(0.217045 -0.211952 0)
(0.215661 -0.201667 0)
(-0.381417 0.546655 0)
(-0.428367 0.55939 0)
(-0.460081 0.565938 0)
(-0.473633 0.574562 0)
(-0.477289 0.586817 0)
(-0.474471 0.594096 0)
(-0.476643 0.584896 0)
(-0.482221 0.558407 0)
(-0.485001 0.510351 0)
(-0.486707 0.445925 0)
(-0.486325 0.370919 0)
(-0.480188 0.295262 0)
(-0.465613 0.232062 0)
(-0.446334 0.192965 0)
(-0.429733 0.183248 0)
(-0.414239 0.195498 0)
(-0.393843 0.221255 0)
(-0.369794 0.260646 0)
(-0.345237 0.312529 0)
(-0.318843 0.374001 0)
(-0.294383 0.447211 0)
(-0.273066 0.527564 0)
(-0.257582 0.601369 0)
(-0.247182 0.663668 0)
(-0.238108 0.71907 0)
(-0.233829 0.76733 0)
(-0.230026 0.807598 0)
(-0.226194 0.840324 0)
(-0.222964 0.859796 0)
(-0.222763 0.860444 0)
(-0.229758 0.840164 0)
(-0.240964 0.795202 0)
(-0.25442 0.720148 0)
(-0.273687 0.611174 0)
(-0.279504 0.499031 0)
(-0.255883 0.424234 0)
(-0.220397 0.367208 0)
(-0.187844 0.320039 0)
(-0.16455 0.280726 0)
(-0.152497 0.236282 0)
(-0.130081 0.186471 0)
(-0.0782379 0.159444 0)
(-0.00619498 0.184952 0)
(0.0908624 0.312815 0)
(0.140222 0.407696 0)
(0.170815 0.456999 0)
(0.205544 0.486067 0)
(0.245535 0.510934 0)
(0.283336 0.532184 0)
(0.313929 0.550114 0)
(0.336228 0.564172 0)
(0.346268 0.570736 0)
(0.334742 0.567944 0)
(0.288499 0.555211 0)
(0.202768 0.536793 0)
(0.104297 0.519566 0)
(0.00614121 0.51162 0)
(-0.0791756 0.50473 0)
(-0.13144 0.474244 0)
(-0.178197 0.411558 0)
(-0.203231 0.316063 0)
(-0.201936 0.19115 0)
(-0.203248 0.0711737 0)
(-0.223731 0.00349516 0)
(-0.227329 -0.0313292 0)
(-0.208257 -0.0646996 0)
(-0.171187 -0.0885079 0)
(-0.124888 -0.0915702 0)
(-0.0634221 -0.069497 0)
(-0.00858611 -0.0105799 0)
(0.0340549 0.0729674 0)
(0.057064 0.170818 0)
(0.086621 0.257709 0)
(0.1021 0.262765 0)
(0.0579059 0.0726694 0)
(0.12777 -0.188461 0)
(0.191964 -0.27667 0)
(0.242934 -0.302486 0)
(0.289118 -0.303065 0)
(0.330253 -0.286579 0)
(0.364354 -0.258172 0)
(0.382834 -0.221049 0)
(0.372749 -0.179733 0)
(0.321518 -0.118598 0)
(0.237776 -0.0399164 0)
(0.144333 0.0594075 0)
(0.0464487 0.194209 0)
(-0.0131458 0.319867 0)
(-0.0224237 0.433785 0)
(-0.020566 0.511315 0)
(-0.0193533 0.535826 0)
(-0.0184247 0.539434 0)
(-0.0249611 0.536316 0)
(-0.0500122 0.521581 0)
(-0.0967321 0.481495 0)
(-0.142627 0.410996 0)
(-0.177231 0.324397 0)
(-0.162875 0.264812 0)
(-0.135768 0.195795 0)
(-0.116592 0.110502 0)
(-0.0957943 0.00484855 0)
(-0.0727858 -0.154767 0)
(-0.0433454 -0.369884 0)
(0.00458046 -0.562056 0)
(0.046399 -0.617275 0)
(0.0877897 -0.555904 0)
(0.133851 -0.441183 0)
(0.165252 -0.346315 0)
(0.191482 -0.281628 0)
(0.211571 -0.241368 0)
(0.224815 -0.219231 0)
(0.235784 -0.210838 0)
(0.236333 -0.203175 0)
(-0.352787 0.561313 0)
(-0.402319 0.575993 0)
(-0.439714 0.58628 0)
(-0.45549 0.593467 0)
(-0.460339 0.60524 0)
(-0.458398 0.612244 0)
(-0.455085 0.607497 0)
(-0.452044 0.584305 0)
(-0.449155 0.540216 0)
(-0.447834 0.476638 0)
(-0.444544 0.397162 0)
(-0.434077 0.315946 0)
(-0.41678 0.250737 0)
(-0.400185 0.215986 0)
(-0.395322 0.209403 0)
(-0.393008 0.223409 0)
(-0.378129 0.246235 0)
(-0.355247 0.284111 0)
(-0.333213 0.335406 0)
(-0.308695 0.397414 0)
(-0.283414 0.471993 0)
(-0.26189 0.559697 0)
(-0.246347 0.640131 0)
(-0.238171 0.707505 0)
(-0.232297 0.764195 0)
(-0.229114 0.811124 0)
(-0.224812 0.848828 0)
(-0.220091 0.875854 0)
(-0.216957 0.889945 0)
(-0.217999 0.884612 0)
(-0.225568 0.853842 0)
(-0.23562 0.791105 0)
(-0.250432 0.690226 0)
(-0.271799 0.572184 0)
(-0.272814 0.479 0)
(-0.260016 0.40175 0)
(-0.251308 0.325622 0)
(-0.247522 0.244705 0)
(-0.239795 0.164289 0)
(-0.216455 0.100624 0)
(-0.183682 0.0592392 0)
(-0.150864 0.0438853 0)
(-0.108843 0.0575647 0)
(-0.0247367 0.153313 0)
(0.0826099 0.306365 0)
(0.136754 0.377392 0)
(0.179554 0.441992 0)
(0.204496 0.48456 0)
(0.234802 0.51071 0)
(0.2666 0.528751 0)
(0.291635 0.54309 0)
(0.303547 0.551449 0)
(0.294015 0.551839 0)
(0.250134 0.543435 0)
(0.16829 0.528966 0)
(0.0733676 0.518639 0)
(-0.0255233 0.520082 0)
(-0.107124 0.527113 0)
(-0.156521 0.495905 0)
(-0.195766 0.425473 0)
(-0.209719 0.318731 0)
(-0.207159 0.193543 0)
(-0.223873 0.0880984 0)
(-0.239505 0.0283614 0)
(-0.2235 -0.013996 0)
(-0.19969 -0.0574825 0)
(-0.161725 -0.0864326 0)
(-0.117014 -0.0926406 0)
(-0.0582469 -0.0717971 0)
(-0.000355013 -0.00424411 0)
(0.0426989 0.101175 0)
(0.0621925 0.212282 0)
(0.0863926 0.315854 0)
(0.091474 0.338284 0)
(0.0519225 0.127263 0)
(0.121277 -0.165302 0)
(0.182974 -0.270972 0)
(0.236264 -0.305073 0)
(0.286201 -0.309817 0)
(0.331521 -0.297067 0)
(0.374157 -0.271641 0)
(0.4042 -0.234495 0)
(0.412513 -0.183523 0)
(0.385093 -0.112075 0)
(0.310028 -0.0128616 0)
(0.204357 0.0770166 0)
(0.106158 0.19778 0)
(0.0213688 0.32834 0)
(-0.00467057 0.44943 0)
(-0.00765441 0.540816 0)
(-0.0103952 0.568252 0)
(-0.0136551 0.567435 0)
(-0.0274368 0.560541 0)
(-0.0631576 0.53847 0)
(-0.1195 0.488762 0)
(-0.165042 0.414861 0)
(-0.187815 0.330123 0)
(-0.173755 0.263881 0)
(-0.142544 0.195365 0)
(-0.116857 0.110362 0)
(-0.0905579 0.00485516 0)
(-0.0551659 -0.153841 0)
(-0.0200586 -0.380342 0)
(0.0339204 -0.569642 0)
(0.0721224 -0.624993 0)
(0.109148 -0.560012 0)
(0.147864 -0.447116 0)
(0.174028 -0.351112 0)
(0.200531 -0.283509 0)
(0.223452 -0.241668 0)
(0.240586 -0.218983 0)
(0.25623 -0.212832 0)
(0.259622 -0.20983 0)
(-0.319444 0.57321 0)
(-0.37084 0.588539 0)
(-0.414556 0.603102 0)
(-0.433989 0.610018 0)
(-0.439966 0.620604 0)
(-0.438854 0.626863 0)
(-0.431821 0.624726 0)
(-0.421657 0.604579 0)
(-0.41044 0.562746 0)
(-0.404439 0.498814 0)
(-0.397755 0.418275 0)
(-0.382223 0.337291 0)
(-0.362642 0.274945 0)
(-0.357085 0.248532 0)
(-0.366331 0.245322 0)
(-0.373403 0.258534 0)
(-0.361959 0.278131 0)
(-0.340355 0.311941 0)
(-0.320697 0.361641 0)
(-0.298389 0.42252 0)
(-0.272115 0.496252 0)
(-0.248929 0.587861 0)
(-0.232072 0.677508 0)
(-0.223151 0.748199 0)
(-0.218542 0.805276 0)
(-0.215612 0.850906 0)
(-0.2108 0.88604 0)
(-0.20519 0.909538 0)
(-0.201323 0.919299 0)
(-0.202254 0.907429 0)
(-0.207708 0.86303 0)
(-0.213007 0.776642 0)
(-0.234878 0.655568 0)
(-0.262113 0.542048 0)
(-0.273754 0.448043 0)
(-0.28355 0.355362 0)
(-0.289507 0.263367 0)
(-0.283406 0.177918 0)
(-0.266262 0.106461 0)
(-0.245135 0.0512608 0)
(-0.225063 0.00864258 0)
(-0.204137 -0.0152619 0)
(-0.177251 -0.00743083 0)
(-0.129677 0.0521641 0)
(-0.036574 0.181333 0)
(0.0514625 0.290549 0)
(0.12786 0.366175 0)
(0.170624 0.433549 0)
(0.193384 0.474814 0)
(0.218152 0.50021 0)
(0.2422 0.517271 0)
(0.255492 0.527861 0)
(0.246626 0.530683 0)
(0.202767 0.525881 0)
(0.123802 0.517455 0)
(0.0321139 0.518324 0)
(-0.0673138 0.534163 0)
(-0.141218 0.548929 0)
(-0.183965 0.510356 0)
(-0.206984 0.429844 0)
(-0.206059 0.319755 0)
(-0.207448 0.203493 0)
(-0.227048 0.111128 0)
(-0.231285 0.0462028 0)
(-0.205983 -0.00779961 0)
(-0.181976 -0.054531 0)
(-0.147655 -0.0829382 0)
(-0.110028 -0.0897089 0)
(-0.0611933 -0.0690042 0)
(-0.00949393 0.00414638 0)
(0.0364932 0.133933 0)
(0.0524308 0.259759 0)
(0.0753494 0.379568 0)
(0.0785042 0.412471 0)
(0.0515164 0.185044 0)
(0.115527 -0.143923 0)
(0.172477 -0.267347 0)
(0.226961 -0.308926 0)
(0.27883 -0.318028 0)
(0.326417 -0.309788 0)
(0.374807 -0.28856 0)
(0.411718 -0.253573 0)
(0.428376 -0.19511 0)
(0.423095 -0.107531 0)
(0.359287 0.0126222 0)
(0.255698 0.116349 0)
(0.153842 0.215773 0)
(0.0577986 0.339291 0)
(0.0115927 0.46302 0)
(0.00342751 0.566313 0)
(-0.00416724 0.598783 0)
(-0.012651 0.592831 0)
(-0.0354877 0.580968 0)
(-0.0835263 0.551536 0)
(-0.144169 0.493284 0)
(-0.187376 0.415454 0)
(-0.19947 0.332862 0)
(-0.184301 0.259879 0)
(-0.152524 0.189752 0)
(-0.122097 0.104795 0)
(-0.0914428 -0.00065608 0)
(-0.0471652 -0.161084 0)
(-0.00595416 -0.39683 0)
(0.0523365 -0.572675 0)
(0.0879828 -0.624555 0)
(0.12106 -0.552638 0)
(0.155792 -0.442771 0)
(0.180328 -0.349863 0)
(0.208314 -0.283813 0)
(0.234005 -0.242537 0)
(0.255222 -0.220872 0)
(0.276048 -0.218733 0)
(0.284647 -0.222759 0)
(-0.280571 0.580702 0)
(-0.33484 0.598185 0)
(-0.384362 0.615251 0)
(-0.409202 0.624399 0)
(-0.41681 0.632689 0)
(-0.416714 0.638461 0)
(-0.407578 0.636566 0)
(-0.39322 0.618973 0)
(-0.374926 0.578706 0)
(-0.361485 0.515558 0)
(-0.350114 0.437775 0)
(-0.335172 0.36114 0)
(-0.319824 0.305402 0)
(-0.324844 0.287844 0)
(-0.342745 0.286345 0)
(-0.352888 0.296768 0)
(-0.344562 0.313945 0)
(-0.325743 0.343494 0)
(-0.308377 0.390842 0)
(-0.288556 0.448853 0)
(-0.262883 0.519566 0)
(-0.236852 0.611497 0)
(-0.216574 0.712201 0)
(-0.205625 0.788049 0)
(-0.200031 0.84557 0)
(-0.195931 0.89003 0)
(-0.189971 0.923249 0)
(-0.183059 0.944178 0)
(-0.177678 0.949792 0)
(-0.177126 0.929242 0)
(-0.178604 0.866472 0)
(-0.182522 0.752974 0)
(-0.217977 0.61915 0)
(-0.25631 0.508389 0)
(-0.286537 0.403861 0)
(-0.3086 0.304465 0)
(-0.313029 0.214338 0)
(-0.302366 0.134058 0)
(-0.282988 0.0630684 0)
(-0.261255 0.005325 0)
(-0.240729 -0.0332178 0)
(-0.221464 -0.0502717 0)
(-0.201358 -0.0420749 0)
(-0.178545 0.0022174 0)
(-0.131415 0.0856543 0)
(-0.0477762 0.192493 0)
(0.0321329 0.292938 0)
(0.106205 0.379089 0)
(0.144213 0.425991 0)
(0.172435 0.462085 0)
(0.193009 0.487249 0)
(0.203704 0.502449 0)
(0.192989 0.508735 0)
(0.148392 0.508571 0)
(0.0732752 0.508236 0)
(-0.0195383 0.522988 0)
(-0.119587 0.552895 0)
(-0.17853 0.560638 0)
(-0.207452 0.510397 0)
(-0.207477 0.423801 0)
(-0.19771 0.318742 0)
(-0.202278 0.217169 0)
(-0.216793 0.132805 0)
(-0.212 0.0590881 0)
(-0.184461 -0.004948 0)
(-0.169735 -0.0484411 0)
(-0.143711 -0.0731554 0)
(-0.112791 -0.0795781 0)
(-0.0731103 -0.0579546 0)
(-0.0301656 0.0196881 0)
(0.0214232 0.168743 0)
(0.0338466 0.310024 0)
(0.0567318 0.443864 0)
(0.0662604 0.479599 0)
(0.0606334 0.240492 0)
(0.112695 -0.12318 0)
(0.162537 -0.263415 0)
(0.216176 -0.310706 0)
(0.268403 -0.323382 0)
(0.316952 -0.31879 0)
(0.368859 -0.300749 0)
(0.408409 -0.266554 0)
(0.426238 -0.202576 0)
(0.429403 -0.101937 0)
(0.384138 0.0291224 0)
(0.296487 0.160664 0)
(0.18595 0.248133 0)
(0.0888014 0.356297 0)
(0.0250552 0.476914 0)
(0.0101949 0.587222 0)
(-0.00104533 0.62673 0)
(-0.0162816 0.615624 0)
(-0.0495248 0.597698 0)
(-0.109549 0.560411 0)
(-0.169485 0.496198 0)
(-0.208819 0.411729 0)
(-0.212567 0.330747 0)
(-0.193432 0.253852 0)
(-0.161504 0.181472 0)
(-0.128155 0.0965684 0)
(-0.093756 -0.00966467 0)
(-0.0417791 -0.171565 0)
(0.00627138 -0.416075 0)
(0.0636957 -0.572187 0)
(0.0969965 -0.615248 0)
(0.126686 -0.536304 0)
(0.159365 -0.430482 0)
(0.184154 -0.343212 0)
(0.213836 -0.283079 0)
(0.243219 -0.245485 0)
(0.269776 -0.227303 0)
(0.29463 -0.229728 0)
(0.306715 -0.2417 0)
(-0.230763 0.577761 0)
(-0.295237 0.603916 0)
(-0.349351 0.62242 0)
(-0.380932 0.635884 0)
(-0.391354 0.641407 0)
(-0.39208 0.646713 0)
(-0.38255 0.643084 0)
(-0.365973 0.626199 0)
(-0.34336 0.588082 0)
(-0.323664 0.527382 0)
(-0.308659 0.454186 0)
(-0.294347 0.383987 0)
(-0.283728 0.340037 0)
(-0.296678 0.32945 0)
(-0.318353 0.327253 0)
(-0.329827 0.335064 0)
(-0.326246 0.350299 0)
(-0.311454 0.37758 0)
(-0.296576 0.422189 0)
(-0.279764 0.476279 0)
(-0.255554 0.542272 0)
(-0.226586 0.632273 0)
(-0.201647 0.741789 0)
(-0.187199 0.825759 0)
(-0.178921 0.884293 0)
(-0.17235 0.927521 0)
(-0.164207 0.958416 0)
(-0.155571 0.976727 0)
(-0.148504 0.977756 0)
(-0.145764 0.947124 0)
(-0.141692 0.863804 0)
(-0.150551 0.725439 0)
(-0.202684 0.585621 0)
(-0.256317 0.471537 0)
(-0.303195 0.363453 0)
(-0.324747 0.269409 0)
(-0.323638 0.186675 0)
(-0.308767 0.112612 0)
(-0.287411 0.0474132 0)
(-0.265434 -0.00560921 0)
(-0.24667 -0.0411586 0)
(-0.230685 -0.0577185 0)
(-0.215828 -0.0534151 0)
(-0.203989 -0.0234307 0)
(-0.178701 0.0325142 0)
(-0.120602 0.117617 0)
(-0.0586483 0.212677 0)
(0.0290548 0.322933 0)
(0.0803748 0.387309 0)
(0.118001 0.424105 0)
(0.14057 0.454331 0)
(0.147885 0.476171 0)
(0.133602 0.488213 0)
(0.0869673 0.494656 0)
(0.0120721 0.504865 0)
(-0.0894588 0.531754 0)
(-0.175531 0.565989 0)
(-0.212098 0.55554 0)
(-0.218778 0.496249 0)
(-0.203623 0.410993 0)
(-0.193387 0.316782 0)
(-0.19665 0.229489 0)
(-0.205144 0.147089 0)
(-0.191446 0.0656337 0)
(-0.169037 -0.00191443 0)
(-0.167763 -0.0346266 0)
(-0.151874 -0.0562957 0)
(-0.12739 -0.0626214 0)
(-0.0942271 -0.0402106 0)
(-0.0624799 0.0409923 0)
(-0.0075623 0.197579 0)
(0.0148054 0.357971 0)
(0.0361351 0.502235 0)
(0.0564973 0.535844 0)
(0.0704977 0.293672 0)
(0.112313 -0.0959326 0)
(0.155145 -0.254148 0)
(0.205718 -0.306955 0)
(0.256598 -0.322398 0)
(0.30494 -0.320943 0)
(0.359255 -0.305179 0)
(0.400257 -0.270616 0)
(0.417634 -0.203494 0)
(0.424381 -0.0964652 0)
(0.39656 0.042238 0)
(0.321744 0.191755 0)
(0.209952 0.287405 0)
(0.112099 0.37951 0)
(0.0354045 0.490775 0)
(0.0124547 0.602658 0)
(-0.00171021 0.651103 0)
(-0.0251517 0.634822 0)
(-0.0706577 0.609838 0)
(-0.141319 0.563776 0)
(-0.197204 0.494923 0)
(-0.227554 0.404925 0)
(-0.224018 0.324143 0)
(-0.200782 0.246722 0)
(-0.167856 0.172434 0)
(-0.132377 0.0879105 0)
(-0.0951101 -0.0196694 0)
(-0.0353749 -0.183696 0)
(0.0221374 -0.433575 0)
(0.0718736 -0.566282 0)
(0.101534 -0.596856 0)
(0.128156 -0.51387 0)
(0.159955 -0.413463 0)
(0.186265 -0.334156 0)
(0.218103 -0.281253 0)
(0.251106 -0.248887 0)
(0.282185 -0.236414 0)
(0.309959 -0.245133 0)
(0.324768 -0.266834 0)
(-0.156024 0.549861 0)
(-0.248492 0.600531 0)
(-0.309673 0.6252 0)
(-0.349752 0.642976 0)
(-0.364307 0.647671 0)
(-0.365899 0.650851 0)
(-0.357602 0.644881 0)
(-0.339757 0.626789 0)
(-0.315193 0.589852 0)
(-0.290884 0.532969 0)
(-0.272415 0.466032 0)
(-0.258096 0.405254 0)
(-0.251286 0.375999 0)
(-0.269011 0.36794 0)
(-0.292079 0.363704 0)
(-0.304859 0.369804 0)
(-0.306642 0.384157 0)
(-0.296579 0.410894 0)
(-0.284907 0.453364 0)
(-0.271357 0.503508 0)
(-0.24958 0.564222 0)
(-0.219504 0.650182 0)
(-0.189761 0.763279 0)
(-0.170026 0.856654 0)
(-0.157863 0.916899 0)
(-0.147776 0.959022 0)
(-0.136698 0.987235 0)
(-0.125519 1.00273 0)
(-0.115723 0.999315 0)
(-0.109483 0.959601 0)
(-0.099413 0.858011 0)
(-0.116706 0.698398 0)
(-0.188537 0.553964 0)
(-0.259962 0.437517 0)
(-0.313872 0.337946 0)
(-0.330943 0.25465 0)
(-0.326476 0.180423 0)
(-0.311274 0.113426 0)
(-0.291344 0.0533403 0)
(-0.271495 0.00454049 0)
(-0.255293 -0.0299211 0)
(-0.242483 -0.0469331 0)
(-0.232413 -0.0458475 0)
(-0.226168 -0.0262724 0)
(-0.209372 0.0111701 0)
(-0.171032 0.0660621 0)
(-0.119096 0.148546 0)
(-0.0464654 0.252215 0)
(0.0146707 0.344813 0)
(0.0535578 0.387763 0)
(0.0799951 0.419092 0)
(0.085226 0.444744 0)
(0.0628358 0.462308 0)
(0.00866488 0.476955 0)
(-0.0739244 0.501732 0)
(-0.164044 0.537851 0)
(-0.217885 0.560619 0)
(-0.233012 0.534052 0)
(-0.2212 0.473227 0)
(-0.203524 0.395576 0)
(-0.193565 0.315835 0)
(-0.197164 0.237977 0)
(-0.198163 0.153218 0)
(-0.180861 0.0663591 0)
(-0.17599 0.00684366 0)
(-0.183629 -0.0100411 0)
(-0.173485 -0.0307567 0)
(-0.150938 -0.0395396 0)
(-0.12339 -0.0171592 0)
(-0.0988285 0.0619452 0)
(-0.0434735 0.226761 0)
(-0.00530223 0.399027 0)
(0.0197574 0.551788 0)
(0.0504897 0.579496 0)
(0.0733009 0.343313 0)
(0.109244 -0.0617434 0)
(0.147834 -0.236542 0)
(0.194705 -0.295612 0)
(0.243046 -0.314734 0)
(0.290062 -0.316548 0)
(0.345857 -0.302514 0)
(0.388684 -0.266917 0)
(0.405025 -0.198155 0)
(0.413037 -0.0903546 0)
(0.395437 0.0519634 0)
(0.333405 0.209133 0)
(0.228951 0.325596 0)
(0.124196 0.407536 0)
(0.0406291 0.505686 0)
(0.00970168 0.61389 0)
(-0.00686839 0.670128 0)
(-0.0404956 0.648993 0)
(-0.0996772 0.614697 0)
(-0.178782 0.558515 0)
(-0.227387 0.486939 0)
(-0.243715 0.396945 0)
(-0.232781 0.315239 0)
(-0.206107 0.238604 0)
(-0.17106 0.164264 0)
(-0.13322 0.0797498 0)
(-0.0939211 -0.0298983 0)
(-0.0264691 -0.200446 0)
(0.0406656 -0.444589 0)
(0.0810604 -0.554252 0)
(0.105329 -0.569797 0)
(0.128759 -0.485322 0)
(0.159511 -0.392502 0)
(0.187415 -0.322346 0)
(0.220835 -0.276672 0)
(0.256179 -0.250614 0)
(0.289563 -0.244771 0)
(0.317569 -0.260752 0)
(0.332859 -0.293227 0)
(-0.0208836 0.456644 0)
(-0.181922 0.575875 0)
(-0.263509 0.619912 0)
(-0.315443 0.643918 0)
(-0.33661 0.65188 0)
(-0.339744 0.650811 0)
(-0.332879 0.643124 0)
(-0.315328 0.623116 0)
(-0.289666 0.586523 0)
(-0.262301 0.533954 0)
(-0.241166 0.473927 0)
(-0.226062 0.424769 0)
(-0.22344 0.412059 0)
(-0.244777 0.402392 0)
(-0.267514 0.396222 0)
(-0.280592 0.400078 0)
(-0.286264 0.412401 0)
(-0.280312 0.439029 0)
(-0.272325 0.480402 0)
(-0.262532 0.526842 0)
(-0.24419 0.581664 0)
(-0.21613 0.662064 0)
(-0.183569 0.773986 0)
(-0.156703 0.876408 0)
(-0.1391 0.939655 0)
(-0.124085 0.981439 0)
(-0.10914 1.00749 0)
(-0.0944947 1.02057 0)
(-0.0807642 1.01352 0)
(-0.0707867 0.966866 0)
(-0.0569305 0.851115 0)
(-0.0838493 0.67299 0)
(-0.174487 0.525021 0)
(-0.259363 0.416597 0)
(-0.314623 0.33104 0)
(-0.329861 0.257882 0)
(-0.326649 0.1914 0)
(-0.315583 0.130105 0)
(-0.301111 0.074788 0)
(-0.286389 0.029253 0)
(-0.273343 -0.00393779 0)
(-0.262139 -0.0228204 0)
(-0.256141 -0.0263006 0)
(-0.251319 -0.0189025 0)
(-0.236342 -7.97401e-05 0)
(-0.205856 0.0330571 0)
(-0.155953 0.0940656 0)
(-0.0973558 0.195557 0)
(-0.0452 0.296864 0)
(-0.0119149 0.350315 0)
(0.0105587 0.385112 0)
(0.00929203 0.410096 0)
(-0.0205483 0.43319 0)
(-0.0782638 0.45881 0)
(-0.150003 0.495401 0)
(-0.213884 0.531281 0)
(-0.2423 0.535909 0)
(-0.24037 0.50305 0)
(-0.223255 0.447474 0)
(-0.207279 0.382686 0)
(-0.199164 0.316099 0)
(-0.202898 0.241397 0)
(-0.199576 0.153957 0)
(-0.190838 0.0703826 0)
(-0.208189 0.0303564 0)
(-0.220319 0.0208814 0)
(-0.205399 -0.000872939 0)
(-0.17852 -0.0134172 0)
(-0.152868 0.00764317 0)
(-0.126841 0.0778897 0)
(-0.0766822 0.250656 0)
(-0.0225309 0.432822 0)
(0.00765559 0.591277 0)
(0.046553 0.612795 0)
(0.0692357 0.389792 0)
(0.0991542 -0.0236231 0)
(0.137051 -0.212585 0)
(0.180966 -0.278275 0)
(0.226721 -0.301554 0)
(0.272657 -0.305738 0)
(0.329226 -0.292341 0)
(0.374315 -0.255957 0)
(0.390062 -0.186845 0)
(0.395314 -0.0808593 0)
(0.383079 0.057577 0)
(0.329961 0.221385 0)
(0.23458 0.355978 0)
(0.125079 0.437509 0)
(0.0389204 0.52362 0)
(0.00144413 0.623491 0)
(-0.0189841 0.682775 0)
(-0.0649064 0.656056 0)
(-0.139421 0.608195 0)
(-0.221779 0.540932 0)
(-0.258164 0.469905 0)
(-0.257237 0.386858 0)
(-0.238607 0.305476 0)
(-0.208409 0.23077 0)
(-0.170451 0.157174 0)
(-0.130017 0.0716903 0)
(-0.0889652 -0.0407171 0)
(-0.0153219 -0.221356 0)
(0.0579214 -0.44291 0)
(0.0922987 -0.533756 0)
(0.110149 -0.53423 0)
(0.130376 -0.45142 0)
(0.159139 -0.36887 0)
(0.187599 -0.307832 0)
(0.220801 -0.269119 0)
(0.2564 -0.249574 0)
(0.290144 -0.250404 0)
(0.315799 -0.273559 0)
(0.328074 -0.312751 0)
(0.19818 0.270954 0)
(-0.0649069 0.494588 0)
(-0.202841 0.597856 0)
(-0.274737 0.635726 0)
(-0.308636 0.651908 0)
(-0.315434 0.648628 0)
(-0.309097 0.637392 0)
(-0.293166 0.615671 0)
(-0.267381 0.579364 0)
(-0.238907 0.530836 0)
(-0.2163 0.478727 0)
(-0.198996 0.4446 0)
(-0.203365 0.446015 0)
(-0.228295 0.432164 0)
(-0.247145 0.424682 0)
(-0.259712 0.425384 0)
(-0.266219 0.434781 0)
(-0.262911 0.461635 0)
(-0.258746 0.501374 0)
(-0.253253 0.543781 0)
(-0.23889 0.591535 0)
(-0.214784 0.6647 0)
(-0.181762 0.773637 0)
(-0.147569 0.883162 0)
(-0.123498 0.95075 0)
(-0.10259 0.993344 0)
(-0.0829971 1.01811 0)