/*--------------------------------*- C++ -*----------------------------------*\
| =========                 |                                                 |
| \\      /  F ield         | OpenFOAM: The Open Source CFD Toolbox           |
|  \\    /   O peration     | Version:  2406                                  |
|   \\  /    A nd           | Website:  www.openfoam.com                      |
|    \\/     M anipulation  |                                                 |
\*---------------------------------------------------------------------------*/
FoamFile
{
    version     2.0;
    format      ascii;
    arch        "LSB;label=32;scalar=64";
    class       volScalarField;
    location    "100";
    object      p;
}
// * * * * * * * * * * * * * * * * * * * * * * * * * * * * * * * * * * * * * //

dimensions      [0 2 -2 0 0 0 0];

internalField   nonuniform List<scalar> 
16384
(
1.897909e-08
3.129474e-08
3.357176e-08
3.411363e-08
3.440853e-08
3.453436e-08
3.451568e-08
3.445482e-08
3.442015e-08
3.442579e-08
3.447357e-08
3.45636e-08
3.469976e-08
3.48907e-08
3.514021e-08
3.544677e-08
3.580806e-08
3.622226e-08
3.668643e-08
3.71983e-08
3.775813e-08
3.836769e-08
3.902764e-08
3.973589e-08
4.048964e-08
4.128853e-08
4.213405e-08
4.302657e-08
4.396505e-08
4.494889e-08
4.597862e-08
4.70552e-08
4.817938e-08
4.935137e-08
5.057086e-08
5.183772e-08
5.315256e-08
5.451641e-08
5.592989e-08
5.739287e-08
5.890492e-08
6.046586e-08
6.207588e-08
6.373512e-08
6.544344e-08
6.720042e-08
6.90055e-08
7.085813e-08
7.275773e-08
7.470364e-08
7.669509e-08
7.873119e-08
8.081088e-08
8.2933e-08
8.509625e-08
8.729929e-08
8.954071e-08
9.181903e-08
9.413267e-08
9.647991e-08
9.885892e-08
1.012678e-07
1.037047e-07
1.061678e-07
1.086551e-07
1.111646e-07
1.13694e-07
1.162413e-07
1.188039e-07
1.213796e-07
1.239661e-07
1.265613e-07
1.291629e-07
1.317686e-07
1.343757e-07
1.369816e-07
1.395836e-07
1.421786e-07
1.447638e-07
1.473361e-07
1.498921e-07
1.524287e-07
1.549423e-07
1.574295e-07
1.598867e-07
1.6231e-07
1.64696e-07
1.670408e-07
1.693409e-07
1.715928e-07
1.737929e-07
1.759379e-07
1.780247e-07
1.800502e-07
1.820113e-07
1.839053e-07
1.857295e-07
1.874812e-07
1.89158e-07
1.907575e-07
1.922777e-07
1.937162e-07
1.950712e-07
1.963406e-07
1.975226e-07
1.986154e-07
1.996173e-07
2.005269e-07
2.013429e-07
2.020646e-07
2.026915e-07
2.032232e-07
2.036599e-07
2.040025e-07
2.042525e-07
2.044125e-07
2.044857e-07
2.044758e-07
2.043887e-07
2.042319e-07
2.040147e-07
2.037488e-07
2.034495e-07
2.031364e-07
2.028346e-07
2.025755e-07
2.023979e-07
2.023293e-07
3.141401e-08
3.35725e-08
3.418921e-08
3.43943e-08
3.456663e-08
3.467172e-08
3.470256e-08
3.468841e-08
3.467153e-08
3.469481e-08
3.477031e-08
3.489071e-08
3.505511e-08
3.526793e-08
3.552948e-08
3.583963e-08
3.620166e-08
3.661782e-08
3.708562e-08
3.760153e-08
3.816455e-08
3.877517e-08
3.943333e-08
4.013809e-08
4.088865e-08
4.168539e-08
4.252904e-08
4.341921e-08
4.435465e-08
4.533498e-08
4.636113e-08
4.743433e-08
4.855508e-08
4.972316e-08
5.093825e-08
5.220067e-08
5.351128e-08
5.48709e-08
5.627974e-08
5.773752e-08
5.924398e-08
6.079922e-08
6.240346e-08
6.405674e-08
6.575874e-08
6.750893e-08
6.930678e-08
7.115182e-08
7.304355e-08
7.498135e-08
7.696438e-08
7.899165e-08
8.106203e-08
8.317433e-08
8.532734e-08
8.751977e-08
8.975029e-08
9.20174e-08
9.431944e-08
9.66546e-08
9.902104e-08
1.014169e-07
1.038404e-07
1.062896e-07
1.087628e-07
1.112577e-07
1.137722e-07
1.163041e-07
1.18851e-07
1.214107e-07
1.239809e-07
1.265594e-07
1.29144e-07
1.317324e-07
1.343219e-07
1.3691e-07
1.394939e-07
1.420707e-07
1.446374e-07
1.471909e-07
1.497282e-07
1.522459e-07
1.547405e-07
1.572086e-07
1.596467e-07
1.620509e-07
1.644177e-07
1.667434e-07
1.690245e-07
1.712575e-07
1.73439e-07
1.755658e-07
1.776346e-07
1.796425e-07
1.815865e-07
1.834639e-07
1.85272e-07
1.870084e-07
1.886705e-07
1.902562e-07
1.917633e-07
1.931897e-07
1.945336e-07
1.957929e-07
1.969661e-07
1.980514e-07
1.990474e-07
1.999529e-07
2.007667e-07
2.014882e-07
2.021172e-07
2.02654e-07
2.03099e-07
2.034534e-07
2.037187e-07
2.038979e-07
2.039947e-07
2.040135e-07
2.039597e-07
2.038412e-07
2.036676e-07
2.034507e-07
2.032039e-07
2.029419e-07
2.026828e-07
2.024515e-07
2.022878e-07
2.022419e-07
3.395618e-08
3.441084e-08
3.454769e-08
3.467634e-08
3.476733e-08
3.483139e-08
3.488181e-08
3.490709e-08
3.492904e-08
3.497949e-08
3.506982e-08
3.520268e-08
3.538263e-08
3.561168e-08
3.588799e-08
3.621022e-08
3.657993e-08
3.699867e-08
3.746611e-08
3.798174e-08
3.854572e-08
3.915756e-08
3.981573e-08
4.051884e-08
4.126698e-08
4.206147e-08
4.290299e-08
4.379052e-08
4.472286e-08
4.570024e-08
4.672384e-08
4.779443e-08
4.891207e-08
5.007657e-08
5.128796e-08
5.254669e-08
5.385347e-08
5.520892e-08
5.661317e-08
5.806598e-08
5.956713e-08
6.111673e-08
6.271498e-08
6.436188e-08
6.605707e-08
6.780001e-08
6.959017e-08
7.142714e-08
7.331046e-08
7.52395e-08
7.72134e-08
7.923115e-08
8.129161e-08
8.339364e-08
8.553608e-08
8.771773e-08
8.993724e-08
9.219309e-08
9.44836e-08
9.680696e-08
9.91613e-08
1.015448e-07
1.039557e-07
1.063922e-07
1.088524e-07
1.113341e-07
1.138352e-07
1.163534e-07
1.188864e-07
1.214319e-07
1.239877e-07
1.265515e-07
1.291211e-07
1.316942e-07
1.342681e-07
1.368402e-07
1.394077e-07
1.419677e-07
1.445173e-07
1.470534e-07
1.495729e-07
1.520725e-07
1.545487e-07
1.569982e-07
1.594175e-07
1.618028e-07
1.641508e-07
1.664578e-07
1.687204e-07
1.709352e-07
1.730989e-07
1.752084e-07
1.772606e-07
1.792526e-07
1.811814e-07
1.830443e-07
1.848386e-07
1.865619e-07
1.882118e-07
1.89786e-07
1.912823e-07
1.926986e-07
1.940331e-07
1.952839e-07
1.964493e-07
1.975277e-07
1.985179e-07
1.99419e-07
2.002301e-07
2.009508e-07
2.015809e-07
2.02121e-07
2.025723e-07
2.029364e-07
2.032152e-07
2.034114e-07
2.035293e-07
2.035738e-07
2.035504e-07
2.034661e-07
2.033297e-07
2.031527e-07
2.029494e-07
2.027359e-07
2.025257e-07
2.02327e-07
2.021513e-07
2.020662e-07
3.486982e-08
3.492162e-08
3.494136e-08
3.499801e-08
3.502642e-08
3.503963e-08
3.505689e-08
3.50854e-08
3.513382e-08
3.520854e-08
3.531543e-08
3.546196e-08
3.565237e-08
3.588786e-08
3.617005e-08
3.650012e-08
3.687779e-08
3.730139e-08
3.777022e-08
3.828589e-08
3.884994e-08
3.946132e-08
4.011798e-08
4.081939e-08
4.156641e-08
4.23599e-08
4.31996e-08
4.408448e-08
4.501411e-08
4.598931e-08
4.70111e-08
4.807974e-08
4.919499e-08
5.035677e-08
5.156534e-08
5.282126e-08
5.412512e-08
5.547732e-08
5.687783e-08
5.832642e-08
5.982301e-08
6.136779e-08
6.296095e-08
6.460236e-08
6.629156e-08
6.802801e-08
6.981129e-08
7.164109e-08
7.351697e-08
7.543827e-08
7.740405e-08
7.941329e-08
8.146493e-08
8.355793e-08
8.569122e-08
8.786361e-08
9.007375e-08
9.23201e-08
9.460096e-08
9.69145e-08
9.925892e-08
1.016324e-07
1.040332e-07
1.064596e-07
1.089095e-07
1.11381e-07
1.138717e-07
1.163795e-07
1.189019e-07
1.214367e-07
1.239817e-07
1.265345e-07
1.29093e-07
1.316546e-07
1.342167e-07
1.367767e-07
1.393318e-07
1.41879e-07
1.444154e-07
1.46938e-07
1.494436e-07
1.519289e-07
1.543905e-07
1.568252e-07
1.592294e-07
1.615997e-07
1.639326e-07
1.662247e-07
1.684727e-07
1.706734e-07
1.728235e-07
1.7492e-07
1.769598e-07
1.789402e-07
1.808582e-07
1.82711e-07
1.84496e-07
1.862106e-07
1.878524e-07
1.89419e-07
1.909081e-07
1.923176e-07
1.936456e-07
1.948902e-07
1.960498e-07
1.971229e-07
1.981082e-07
1.99005e-07
1.99813e-07
2.00532e-07
2.01162e-07
2.017037e-07
2.021586e-07
2.025289e-07
2.028168e-07
2.030254e-07
2.031585e-07
2.032214e-07
2.032201e-07
2.03161e-07
2.030513e-07
2.028993e-07
2.027161e-07
2.025178e-07
2.023232e-07
2.021399e-07
2.019526e-07
2.018162e-07
3.557304e-08
3.543237e-08
3.531567e-08
3.528647e-08
3.527381e-08
3.525025e-08
3.523701e-08
3.525766e-08
3.53114e-08
3.539479e-08
3.551393e-08
3.567401e-08
3.587476e-08
3.611639e-08
3.640284e-08
3.673686e-08
3.711767e-08
3.754361e-08
3.801467e-08
3.853213e-08
3.909647e-08
3.970646e-08
4.036107e-08
4.106084e-08
4.18068e-08
4.259912e-08
4.343703e-08
4.431966e-08
4.524717e-08
4.622069e-08
4.724106e-08
4.830811e-08
4.94214e-08
5.058097e-08
5.178731e-08
5.304104e-08
5.434259e-08
5.569208e-08
5.708933e-08
5.853418e-08
6.002674e-08
6.156727e-08
6.31559e-08
6.479235e-08
6.647605e-08
6.820654e-08
6.998354e-08
7.180682e-08
7.367594e-08
7.559017e-08
7.754854e-08
7.955004e-08
8.159371e-08
8.367863e-08
8.580379e-08
8.796805e-08
9.017003e-08
9.240816e-08
9.468071e-08
9.698589e-08
9.932192e-08
1.016871e-07
1.040796e-07
1.064977e-07
1.089395e-07
1.114028e-07
1.138854e-07
1.16385e-07
1.188992e-07
1.214259e-07
1.239627e-07
1.265073e-07
1.290573e-07
1.316103e-07
1.341636e-07
1.367145e-07
1.392601e-07
1.417975e-07
1.443237e-07
1.468357e-07
1.493302e-07
1.518042e-07
1.542543e-07
1.566771e-07
1.590693e-07
1.614275e-07
1.637484e-07
1.660289e-07
1.682655e-07
1.704553e-07
1.725951e-07
1.74682e-07
1.76713e-07
1.786852e-07
1.805957e-07
1.824418e-07
1.842206e-07
1.859296e-07
1.875661e-07
1.891277e-07
1.90612e-07
1.920167e-07
1.933398e-07
1.945794e-07
1.957341e-07
1.968024e-07
1.977833e-07
1.98676e-07
1.994804e-07
2.001966e-07
2.008253e-07
2.013673e-07
2.018242e-07
2.021982e-07
2.024924e-07
2.0271e-07
2.028544e-07
2.029307e-07
2.029447e-07
2.029032e-07
2.028136e-07
2.026826e-07
2.02516e-07
2.02323e-07
2.021214e-07
2.019271e-07
2.017169e-07
2.015287e-07
3.60998e-08
3.586562e-08
3.565102e-08
3.553818e-08
3.547382e-08
3.5425e-08
3.540222e-08
3.541598e-08
3.546536e-08
3.555003e-08
3.567431e-08
3.583991e-08
3.604633e-08
3.62942e-08
3.65859e-08
3.692272e-08
3.730423e-08
3.773053e-08
3.820275e-08
3.872136e-08
3.92855e-08
3.989392e-08
4.054677e-08
4.124532e-08
4.199019e-08
4.278093e-08
4.361676e-08
4.449737e-08
4.542334e-08
4.639573e-08
4.741495e-08
4.848055e-08
4.959215e-08
5.075e-08
5.195472e-08
5.320679e-08
5.450638e-08
5.585344e-08
5.724781e-08
5.868943e-08
6.017852e-08
6.171535e-08
6.32999e-08
6.493178e-08
6.661047e-08
6.83356e-08
7.0107e-08
7.192445e-08
7.378749e-08
7.569534e-08
7.764703e-08
7.964162e-08
8.167825e-08
8.37561e-08
8.587422e-08
8.803148e-08
9.022646e-08
9.245757e-08
9.472309e-08
9.702127e-08
9.935038e-08
1.017087e-07
1.040946e-07
1.065062e-07
1.089416e-07
1.113986e-07
1.138751e-07
1.163686e-07
1.18877e-07
1.213978e-07
1.239288e-07
1.264676e-07
1.290118e-07
1.315589e-07
1.34106e-07
1.366505e-07
1.391895e-07
1.417199e-07
1.442388e-07
1.467431e-07
1.492297e-07
1.516954e-07
1.541368e-07
1.565508e-07
1.589341e-07
1.612835e-07
1.635957e-07
1.658676e-07
1.680962e-07
1.702783e-07
1.724111e-07
1.744916e-07
1.765169e-07
1.78484e-07
1.803901e-07
1.822322e-07
1.840075e-07
1.857132e-07
1.873466e-07
1.889051e-07
1.903862e-07
1.917875e-07
1.931069e-07
1.943427e-07
1.954931e-07
1.965571e-07
1.975338e-07
1.984226e-07
1.992234e-07
1.999365e-07
2.005631e-07
2.011045e-07
2.015622e-07
2.019386e-07
2.022368e-07
2.024605e-07
2.026132e-07
2.026991e-07
2.027232e-07
2.026913e-07
2.026108e-07
2.024898e-07
2.023334e-07
2.021444e-07
2.019316e-07
2.017132e-07
2.014695e-07
2.012313e-07
3.644611e-08
3.618518e-08
3.593227e-08
3.575098e-08
3.563426e-08
3.556578e-08
3.553492e-08
3.553998e-08
3.558464e-08
3.567015e-08
3.579536e-08
3.596048e-08
3.616778e-08
3.641908e-08
3.671431e-08
3.705265e-08
3.743428e-08
3.786083e-08
3.833354e-08
3.885186e-08
3.94145e-08
4.002106e-08
4.067262e-08
4.137033e-08
4.211399e-08
4.290275e-08
4.373639e-08
4.461531e-08
4.554026e-08
4.651183e-08
4.753e-08
4.859425e-08
4.970445e-08
5.086106e-08
5.206467e-08
5.331548e-08
5.461341e-08
5.59583e-08
5.735015e-08
5.878908e-08
6.027529e-08
6.180892e-08
6.338984e-08
6.501766e-08
6.669193e-08
6.841241e-08
7.017898e-08
7.199143e-08
7.384922e-08
7.575152e-08
7.769743e-08
7.968609e-08
8.171677e-08
8.378871e-08
8.5901e-08
8.805247e-08
9.024168e-08
9.246705e-08
9.472685e-08
9.701941e-08
9.934305e-08
1.016961e-07
1.04077e-07
1.064837e-07
1.089145e-07
1.113671e-07
1.138393e-07
1.163289e-07
1.188334e-07
1.213506e-07
1.238781e-07
1.264135e-07
1.289543e-07
1.31498e-07
1.340417e-07
1.365826e-07
1.391177e-07
1.416441e-07
1.441587e-07
1.466585e-07
1.491402e-07
1.516007e-07
1.540368e-07
1.564454e-07
1.588232e-07
1.611671e-07
1.63474e-07
1.65741e-07
1.679649e-07
1.701429e-07
1.722721e-07
1.743495e-07
1.763722e-07
1.783372e-07
1.802414e-07
1.82082e-07
1.83856e-07
1.855604e-07
1.871923e-07
1.88749e-07
1.902279e-07
1.916267e-07
1.929433e-07
1.941758e-07
1.953226e-07
1.963827e-07
1.973554e-07
1.982406e-07
1.990381e-07
1.997484e-07
2.003729e-07
2.009131e-07
2.01371e-07
2.017488e-07
2.020494e-07
2.022766e-07
2.024343e-07
2.025266e-07
2.025576e-07
2.025316e-07
2.024539e-07
2.023322e-07
2.021742e-07
2.01982e-07
2.017567e-07
2.015109e-07
2.012287e-07
2.009435e-07
3.669086e-08
3.640212e-08
3.612942e-08
3.591414e-08
3.576484e-08
3.567462e-08
3.562779e-08
3.562305e-08
3.566302e-08
3.574614e-08
3.586906e-08
3.603262e-08
3.623974e-08
3.649139e-08
3.678638e-08
3.712416e-08
3.750583e-08
3.793284e-08
3.840521e-08
3.892185e-08
3.948226e-08
4.008709e-08
4.073758e-08
4.143422e-08
4.217619e-08
4.296282e-08
4.379456e-08
4.467222e-08
4.559634e-08
4.656711e-08
4.758423e-08
4.86473e-08
4.975642e-08
5.091219e-08
5.211502e-08
5.336479e-08
5.466125e-08
5.600431e-08
5.73941e-08
5.883085e-08
6.031469e-08
6.184563e-08
6.342346e-08
6.504781e-08
6.671838e-08
6.843502e-08
7.019766e-08
7.2006e-08
7.385947e-08
7.575722e-08
7.76984e-08
7.968229e-08
8.170822e-08
8.377551e-08
8.588323e-08
8.803018e-08
9.02149e-08
9.243579e-08
9.469119e-08
9.697948e-08
9.929906e-08
1.016483e-07
1.040256e-07
1.064292e-07
1.08857e-07
1.113069e-07
1.137767e-07
1.162641e-07
1.187668e-07
1.212824e-07
1.238086e-07
1.263428e-07
1.288826e-07
1.314254e-07
1.339683e-07
1.365083e-07
1.390425e-07
1.415678e-07
1.440812e-07
1.465795e-07
1.490596e-07
1.515184e-07
1.539526e-07
1.563592e-07
1.587351e-07
1.610772e-07
1.633825e-07
1.656481e-07
1.678711e-07
1.700485e-07
1.721773e-07
1.742548e-07
1.762778e-07
1.782433e-07
1.801481e-07
1.819892e-07
1.837635e-07
1.854679e-07
1.870994e-07
1.886553e-07
1.901328e-07
1.915297e-07
1.928438e-07
1.940735e-07
1.952173e-07
1.962742e-07
1.972436e-07
1.981255e-07
1.989203e-07
1.996285e-07
2.002513e-07
2.007903e-07
2.012479e-07
2.016265e-07
2.019286e-07
2.021573e-07
2.023166e-07
2.024107e-07
2.024438e-07
2.024198e-07
2.02342e-07
2.022153e-07
2.020472e-07
2.018432e-07
2.01602e-07
2.013288e-07
2.010083e-07
2.006802e-07
3.687988e-08
3.654257e-08
3.625061e-08
3.602356e-08
3.585303e-08
3.574034e-08
3.567841e-08
3.566404e-08
3.569586e-08
3.577177e-08
3.589051e-08
3.605262e-08
3.625868e-08
3.65082e-08
3.680068e-08
3.713694e-08
3.751822e-08
3.794469e-08
3.841533e-08
3.892948e-08
3.948777e-08
4.009124e-08
4.074051e-08
4.143543e-08
4.217524e-08
4.295983e-08
4.379009e-08
4.46668e-08
4.559011e-08
4.65599e-08
4.757593e-08
4.863802e-08
4.974641e-08
5.09016e-08
5.210376e-08
5.335259e-08
5.464778e-08
5.598935e-08
5.737757e-08
5.881263e-08
6.029459e-08
6.182333e-08
6.339863e-08
6.502023e-08
6.668794e-08
6.840169e-08
7.016135e-08
7.196658e-08
7.381675e-08
7.571106e-08
7.764873e-08
7.96291e-08
8.165161e-08
8.371558e-08
8.582004e-08
8.796377e-08
9.014527e-08
9.236298e-08
9.461528e-08
9.690066e-08
9.921757e-08
1.015645e-07
1.039398e-07
1.063416e-07
1.08768e-07
1.112169e-07
1.13686e-07
1.161731e-07
1.186759e-07
1.211919e-07
1.237188e-07
1.26254e-07
1.287952e-07
1.313396e-07
1.338842e-07
1.364261e-07
1.389621e-07
1.414893e-07
1.440045e-07
1.465045e-07
1.489864e-07
1.514468e-07
1.538827e-07
1.56291e-07
1.586687e-07
1.610127e-07
1.633202e-07
1.655881e-07
1.678136e-07
1.699938e-07
1.721256e-07
1.74206e-07
1.76232e-07
1.782002e-07
1.801076e-07
1.819507e-07
1.837266e-07
1.854319e-07
1.870637e-07
1.886192e-07
1.900958e-07
1.914912e-07
1.928034e-07
1.940308e-07
1.951722e-07
1.962266e-07
1.971937e-07
1.980734e-07
1.988662e-07
1.99573e-07
2.00195e-07
2.007334e-07
2.011906e-07
2.015693e-07
2.018717e-07
2.021007e-07
2.022596e-07
2.02352e-07
2.023821e-07
2.023544e-07
2.022722e-07
2.02138e-07
2.019568e-07
2.017354e-07
2.014745e-07
2.011749e-07
2.008189e-07
2.004529e-07
3.700963e-08
3.663404e-08
3.631605e-08
3.607482e-08
3.588583e-08
3.575489e-08
3.568125e-08
3.565663e-08
3.567787e-08
3.574507e-08
3.585868e-08
3.601764e-08
3.622037e-08
3.646622e-08
3.675587e-08
3.709047e-08
3.747032e-08
3.789457e-08
3.836231e-08
3.88738e-08
3.943028e-08
4.003238e-08
4.067994e-08
4.137259e-08
4.211005e-08
4.289283e-08
4.372192e-08
4.459773e-08
4.552005e-08
4.648871e-08
4.750366e-08
4.856493e-08
4.967277e-08
5.082749e-08
5.202901e-08
5.327693e-08
5.457102e-08
5.591146e-08
5.729856e-08
5.873243e-08
6.021297e-08
6.174003e-08
6.331345e-08
6.493311e-08
6.659889e-08
6.831072e-08
7.006845e-08
7.187164e-08
7.371967e-08
7.561175e-08
7.754718e-08
7.952541e-08
8.154587e-08
8.360788e-08
8.571044e-08
8.785225e-08
9.003184e-08
9.224765e-08
9.449819e-08
9.678201e-08
9.909767e-08
1.014437e-07
1.038184e-07
1.0622e-07
1.086466e-07
1.110961e-07
1.135663e-07
1.160549e-07
1.185596e-07
1.21078e-07
1.236077e-07
1.261462e-07
1.28691e-07
1.312394e-07
1.337882e-07
1.363346e-07
1.388753e-07
1.414072e-07
1.439273e-07
1.464323e-07
1.489192e-07
1.513847e-07
1.538258e-07
1.562395e-07
1.586226e-07
1.609723e-07
1.632855e-07
1.655594e-07
1.677909e-07
1.69977e-07
1.721147e-07
1.742007e-07
1.762319e-07
1.782048e-07
1.801162e-07
1.819626e-07
1.837409e-07
1.854479e-07
1.870805e-07
1.886361e-07
1.901123e-07
1.915067e-07
1.928176e-07
1.940435e-07
1.951833e-07
1.962364e-07
1.972023e-07
1.980811e-07
1.988732e-07
1.995795e-07
2.002013e-07
2.007397e-07
2.011966e-07
2.015744e-07
2.018758e-07
2.021032e-07
2.022597e-07
2.023483e-07
2.023724e-07
2.023364e-07
2.022448e-07
2.021e-07
2.019044e-07
2.016641e-07
2.013817e-07
2.010567e-07
2.006692e-07
2.002708e-07
3.707178e-08
3.667529e-08
3.632606e-08
3.606565e-08
3.586178e-08
3.571599e-08
3.562877e-08
3.559275e-08
3.560429e-08
3.566389e-08
3.577134e-08
3.592459e-08
3.612199e-08
3.636367e-08
3.66506e-08
3.698296e-08
3.735993e-08
3.778067e-08
3.824513e-08
3.87542e-08
3.930887e-08
3.990908e-08
4.05543e-08
4.124443e-08
4.197974e-08
4.276095e-08
4.35889e-08
4.446364e-08
4.538476e-08
4.635217e-08
4.736607e-08
4.842661e-08
4.953395e-08
5.068814e-08
5.188896e-08
5.313602e-08
5.442924e-08
5.576891e-08
5.715529e-08
5.858838e-08
6.006798e-08
6.159395e-08
6.316623e-08
6.478481e-08
6.644964e-08
6.816061e-08
6.991747e-08
7.171977e-08
7.356685e-08
7.545798e-08
7.739255e-08
7.937002e-08
8.138985e-08
8.345129e-08
8.555328e-08
8.769449e-08
8.987346e-08
9.208872e-08
9.433885e-08
9.662251e-08
9.893837e-08
1.01285e-07
1.036607e-07
1.060637e-07
1.084922e-07
1.109439e-07
1.134169e-07
1.159089e-07
1.184175e-07
1.209403e-07
1.234749e-07
1.260188e-07
1.285696e-07
1.311243e-07
1.336799e-07
1.362333e-07
1.387814e-07
1.41321e-07
1.438489e-07
1.46362e-07
1.488571e-07
1.513311e-07
1.537809e-07
1.562034e-07
1.585956e-07
1.609545e-07
1.63277e-07
1.655601e-07
1.678007e-07
1.699957e-07
1.721418e-07
1.742357e-07
1.76274e-07
1.782532e-07
1.801699e-07
1.820206e-07
1.838021e-07
1.855114e-07
1.871455e-07
1.887018e-07
1.901781e-07
1.915723e-07
1.928829e-07
1.941085e-07
1.95248e-07
1.96301e-07
1.972671e-07
1.981464e-07
1.989391e-07
1.996458e-07
2.002679e-07
2.008066e-07
2.012631e-07
2.016394e-07
2.019381e-07
2.021618e-07
2.023133e-07
2.023957e-07
2.02412e-07
2.023657e-07
2.022614e-07
2.021029e-07
2.018922e-07
2.016333e-07
2.013301e-07
2.009817e-07
2.005668e-07
2.00141e-07
3.70605e-08
3.665124e-08
3.627432e-08
3.599555e-08
3.57793e-08
3.561959e-08
3.551686e-08
3.546899e-08
3.547216e-08
3.552456e-08
3.562457e-08
3.577062e-08
3.596223e-08
3.619983e-08
3.648349e-08
3.681224e-08
3.718502e-08
3.760179e-08
3.80632e-08
3.856997e-08
3.912241e-08
3.972002e-08
4.036244e-08
4.105008e-08
4.178348e-08
4.256327e-08
4.338993e-08
4.426329e-08
4.518295e-08
4.614905e-08
4.716196e-08
4.822179e-08
4.932849e-08
5.048198e-08
5.168201e-08
5.29283e-08
5.42209e-08
5.556012e-08
5.694614e-08
5.837884e-08
5.9858e-08
6.138352e-08
6.295547e-08
6.45739e-08
6.623879e-08
6.794994e-08
6.970705e-08
7.150961e-08
7.335698e-08
7.524849e-08
7.718356e-08
7.916167e-08
8.118225e-08
8.324448e-08
8.534724e-08
8.748917e-08
8.966886e-08
9.188491e-08
9.413606e-08
9.642107e-08
9.873865e-08
1.010874e-07
1.034658e-07
1.058719e-07
1.08304e-07
1.107599e-07
1.132376e-07
1.157349e-07
1.182495e-07
1.207788e-07
1.233204e-07
1.258719e-07
1.284309e-07
1.309944e-07
1.335592e-07
1.361222e-07
1.386803e-07
1.412303e-07
1.437689e-07
1.46293e-07
1.487995e-07
1.512852e-07
1.537469e-07
1.561816e-07
1.585862e-07
1.609575e-07
1.632924e-07
1.655878e-07
1.678404e-07
1.700468e-07
1.722036e-07
1.743074e-07
1.763545e-07
1.783413e-07
1.802644e-07
1.821204e-07
1.839061e-07
1.856185e-07
1.87255e-07
1.88813e-07
1.902906e-07
1.916859e-07
1.929975e-07
1.942241e-07
1.95365e-07
1.964194e-07
1.973871e-07
1.98268e-07
1.990623e-07
1.997703e-07
2.003927e-07
2.009311e-07
2.013865e-07
2.017605e-07
2.020552e-07
2.022734e-07
2.024177e-07
2.024917e-07
2.024984e-07
2.024408e-07
2.02323e-07
2.021497e-07
2.019232e-07
2.01647e-07
2.013247e-07
2.009555e-07
2.005172e-07
2.000682e-07
3.697432e-08
3.655543e-08
3.615884e-08
3.586232e-08
3.563284e-08
3.545965e-08
3.534354e-08
3.52845e-08
3.527887e-08
3.532293e-08
3.541465e-08
3.555363e-08
3.573992e-08
3.597318e-08
3.625231e-08
3.657615e-08
3.694424e-08
3.735719e-08
3.781571e-08
3.831989e-08
3.886946e-08
3.946394e-08
4.010345e-08
4.078878e-08
4.152044e-08
4.229871e-08
4.312379e-08
4.399546e-08
4.491353e-08
4.58783e-08
4.68902e-08
4.794919e-08
4.905506e-08
5.020765e-08
5.140682e-08
5.265245e-08
5.394468e-08
5.528375e-08
5.666973e-08
5.810244e-08
5.958168e-08
6.110745e-08
6.267991e-08
6.429915e-08
6.596509e-08
6.767748e-08
6.943592e-08
7.12399e-08
7.308879e-08
7.498197e-08
7.691888e-08
7.8899e-08
8.092167e-08
8.298601e-08
8.509084e-08
8.723481e-08
8.941657e-08
9.163488e-08
9.388856e-08
9.617651e-08
9.849751e-08
1.008502e-07
1.03233e-07
1.056441e-07
1.080817e-07
1.105438e-07
1.130283e-07
1.155331e-07
1.180557e-07
1.205937e-07
1.231445e-07
1.25706e-07
1.282755e-07
1.3085e-07
1.334264e-07
1.360015e-07
1.38572e-07
1.41135e-07
1.43687e-07
1.46225e-07
1.487458e-07
1.512461e-07
1.537229e-07
1.561729e-07
1.585929e-07
1.609797e-07
1.633299e-07
1.656402e-07
1.679072e-07
1.701273e-07
1.722968e-07
1.744122e-07
1.764695e-07
1.784654e-07
1.803962e-07
1.822586e-07
1.840497e-07
1.857665e-07
1.874066e-07
1.889678e-07
1.904483e-07
1.918463e-07
1.931606e-07
1.943902e-07
1.95534e-07
1.965914e-07
1.975619e-07
1.984452e-07
1.992416e-07
1.999509e-07
2.005735e-07
2.011106e-07
2.015636e-07
2.019338e-07
2.022233e-07
2.024346e-07
2.025704e-07
2.026343e-07
2.026298e-07
2.025605e-07
2.024298e-07
2.02242e-07
2.020005e-07
2.017083e-07
2.013689e-07
2.009816e-07
2.005233e-07
2.000544e-07
3.681754e-08
3.638813e-08
3.597692e-08
3.566182e-08
3.541778e-08
3.523293e-08
3.510646e-08
3.50369e-08
3.502118e-08
3.505593e-08
3.513971e-08
3.52724e-08
3.54534e-08
3.568133e-08
3.595478e-08
3.62732e-08
3.663682e-08
3.704625e-08
3.750165e-08
3.800257e-08
3.85487e-08
3.913991e-08
3.977668e-08
4.045986e-08
4.118971e-08
4.196619e-08
4.278937e-08
4.365916e-08
4.457555e-08
4.553897e-08
4.654973e-08
4.760765e-08
4.871242e-08
4.986395e-08
5.106228e-08
5.230741e-08
5.359948e-08
5.493865e-08
5.632491e-08
5.775804e-08
5.923792e-08
6.076467e-08
6.23385e-08
6.395949e-08
6.562746e-08
6.734208e-08
6.91029e-08
7.090941e-08
7.2761e-08
7.465709e-08
7.659713e-08
7.858053e-08
8.060656e-08
8.267427e-08
8.478245e-08
8.69298e-08
8.911509e-08
9.133718e-08
9.359505e-08
9.588769e-08
9.821393e-08
1.005724e-07
1.029616e-07
1.053798e-07
1.078251e-07
1.102956e-07
1.127891e-07
1.153036e-07
1.178366e-07
1.203855e-07
1.229478e-07
1.255214e-07
1.281037e-07
1.306915e-07
1.332817e-07
1.358712e-07
1.384567e-07
1.410351e-07
1.436032e-07
1.461577e-07
1.486955e-07
1.512134e-07
1.53708e-07
1.561761e-07
1.586144e-07
1.610193e-07
1.633874e-07
1.657151e-07
1.679987e-07
1.702344e-07
1.724184e-07
1.745468e-07
1.76616e-07
1.786223e-07
1.805623e-07
1.824327e-07
1.842308e-07
1.859537e-07
1.875994e-07
1.891658e-07
1.906512e-07
1.92054e-07
1.93373e-07
1.946072e-07
1.957555e-07
1.96817e-07
1.97791e-07
1.986771e-07
1.994751e-07
2.00185e-07
2.00807e-07
2.013418e-07
2.017908e-07
2.021557e-07
2.024385e-07
2.026417e-07
2.027684e-07
2.028218e-07
2.028059e-07
2.027247e-07
2.025816e-07
2.023807e-07
2.021254e-07
2.018187e-07
2.014641e-07
2.010608e-07
2.005851e-07
2.000986e-07
3.659084e-08
3.61466e-08
3.572368e-08
3.539228e-08
3.513362e-08
3.493856e-08
3.480238e-08
3.472226e-08
3.469613e-08
3.472206e-08
3.479886e-08
3.492549e-08
3.510039e-08
3.532192e-08
3.558928e-08
3.590258e-08
3.626211e-08
3.666795e-08
3.711966e-08
3.761671e-08
3.815915e-08
3.874721e-08
3.938145e-08
4.00625e-08
4.079029e-08
4.156462e-08
4.238566e-08
4.325347e-08
4.416816e-08
4.513011e-08
4.613951e-08
4.719607e-08
4.829952e-08
4.944993e-08
5.064749e-08
5.189228e-08
5.318438e-08
5.452387e-08
5.59107e-08
5.734471e-08
5.882587e-08
6.035435e-08
6.193039e-08
6.3554e-08
6.52249e-08
6.694268e-08
6.870686e-08
7.051692e-08
7.237232e-08
7.427248e-08
7.621681e-08
7.820467e-08
8.023526e-08
8.230756e-08
8.442038e-08
8.657251e-08
8.876283e-08
9.099038e-08
9.325425e-08
9.555348e-08
9.788697e-08
1.002534e-07
1.026512e-07
1.050787e-07
1.07534e-07
1.100152e-07
1.125202e-07
1.150467e-07
1.175923e-07
1.201545e-07
1.227306e-07
1.253185e-07
1.279157e-07
1.305191e-07
1.331254e-07
1.357316e-07
1.383344e-07
1.409307e-07
1.435172e-07
1.460909e-07
1.486484e-07
1.511864e-07
1.537016e-07
1.561905e-07
1.586496e-07
1.610751e-07
1.634634e-07
1.658106e-07
1.681127e-07
1.703659e-07
1.725661e-07
1.747094e-07
1.76792e-07
1.788105e-07
1.807614e-07
1.826418e-07
1.844489e-07
1.861803e-07
1.878338e-07
1.894077e-07
1.909003e-07
1.923101e-07
1.936357e-07
1.94876e-07
1.960297e-07
1.97096e-07
1.980738e-07
1.989622e-07
1.99761e-07
2.004702e-07
2.010901e-07
2.016212e-07
2.020648e-07
2.024229e-07
2.026977e-07
2.02892e-07
2.030091e-07
2.030523e-07
2.030255e-07
2.029329e-07
2.027783e-07
2.025654e-07
2.022974e-07
2.019774e-07
2.016089e-07
2.01191e-07
2.006998e-07
2.001978e-07
3.629061e-08
3.582771e-08
3.539458e-08
3.505221e-08
3.478049e-08
3.457435e-08
3.44277e-08
3.43374e-08
3.430202e-08
3.43203e-08
3.439046e-08
3.451039e-08
3.467833e-08
3.489326e-08
3.515496e-08
3.546363e-08
3.581907e-08
3.622085e-08
3.666835e-08
3.716129e-08
3.770015e-08
3.828528e-08
3.891705e-08
3.959577e-08
4.032117e-08
4.10931e-08
4.191185e-08
4.277764e-08
4.369055e-08
4.465085e-08
4.565861e-08
4.671354e-08
4.781552e-08
4.896483e-08
5.016174e-08
5.140635e-08
5.269864e-08
5.403868e-08
5.542642e-08
5.686179e-08
5.834485e-08
5.987581e-08
6.145483e-08
6.308185e-08
6.475649e-08
6.647826e-08
6.824667e-08
7.006124e-08
7.192143e-08
7.382669e-08
7.577638e-08
7.776979e-08
7.980605e-08
8.188413e-08
8.400292e-08
8.61613e-08
8.835831e-08
9.059312e-08
9.286493e-08
9.517284e-08
9.751577e-08
9.989239e-08
1.023012e-07
1.047404e-07
1.072082e-07
1.097025e-07
1.122214e-07
1.147624e-07
1.173231e-07
1.199007e-07
1.224928e-07
1.250974e-07
1.277117e-07
1.303328e-07
1.329575e-07
1.355826e-07
1.38205e-07
1.408215e-07
1.434291e-07
1.460244e-07
1.486042e-07
1.51165e-07
1.537033e-07
1.562154e-07
1.586977e-07
1.611461e-07
1.635566e-07
1.659252e-07
1.682478e-07
1.705202e-07
1.727383e-07
1.748983e-07
1.769963e-07
1.79029e-07
1.80993e-07
1.828857e-07
1.847044e-07
1.864468e-07
1.881108e-07
1.896948e-07
1.911969e-07
1.926156e-07
1.939495e-07
1.95197e-07
1.963567e-07
1.974275e-07
1.984083e-07
1.992982e-07
2.000965e-07
2.008034e-07
2.014194e-07
2.019452e-07
2.023822e-07
2.027326e-07
2.029989e-07
2.031839e-07
2.032912e-07
2.033244e-07
2.032874e-07
2.031844e-07
2.030189e-07
2.027946e-07
2.025146e-07
2.021817e-07
2.017998e-07
2.013684e-07
2.008632e-07
2.003478e-07
3.591404e-08
3.543345e-08
3.498922e-08
3.463856e-08
3.435593e-08
3.41376e-08
3.398047e-08
3.388134e-08
3.383823e-08
3.384934e-08
3.391224e-08
3.402476e-08
3.418565e-08
3.439456e-08
3.465128e-08
3.495545e-08
3.530641e-08
3.570359e-08
3.614664e-08
3.663562e-08
3.717115e-08
3.775344e-08
3.838257e-08
3.905865e-08
3.978139e-08
4.055074e-08
4.136716e-08
4.223087e-08
4.314184e-08
4.410023e-08
4.510608e-08
4.615923e-08
4.725973e-08
4.840802e-08
4.960442e-08
5.084896e-08
5.214162e-08
5.348244e-08
5.487147e-08
5.630873e-08
5.779432e-08
5.932842e-08
6.091113e-08
6.254224e-08
6.422131e-08
6.594779e-08
6.772119e-08
6.954109e-08
7.140696e-08
7.331824e-08
7.527425e-08
7.727421e-08
7.931722e-08
8.14023e-08
8.352841e-08
8.569462e-08
8.790008e-08
9.014411e-08
9.242597e-08
9.474479e-08
9.709948e-08
9.948872e-08
1.019109e-07
1.043643e-07
1.068471e-07
1.093572e-07
1.118924e-07
1.144503e-07
1.170283e-07
1.196237e-07
1.222341e-07
1.248573e-07
1.27491e-07
1.30132e-07
1.327772e-07
1.354236e-07
1.38068e-07
1.407074e-07
1.433385e-07
1.459581e-07
1.485627e-07
1.511488e-07
1.537128e-07
1.562506e-07
1.587583e-07
1.612317e-07
1.636666e-07
1.660586e-07
1.684035e-07
1.70697e-07
1.72935e-07
1.751136e-07
1.772292e-07
1.792784e-07
1.812582e-07
1.831658e-07
1.849988e-07
1.867549e-07
1.884321e-07
1.900285e-07
1.915422e-07
1.929714e-07
1.943144e-07
1.955696e-07
1.967352e-07
1.978098e-07
1.987924e-07
1.996822e-07
2.004786e-07
2.011816e-07
2.017921e-07
2.023113e-07
2.027408e-07
2.030829e-07
2.033403e-07
2.035162e-07
2.03614e-07
2.036377e-07
2.035909e-07
2.034776e-07
2.033013e-07
2.030657e-07
2.027735e-07
2.02428e-07
2.020331e-07
2.015889e-07
2.01071e-07
2.005447e-07
3.545851e-08
3.496477e-08
3.450783e-08
3.41479e-08
3.385554e-08
3.362636e-08
3.346009e-08
3.33533e-08
3.330295e-08
3.330649e-08
3.336165e-08
3.346688e-08
3.362149e-08
3.382512e-08
3.407707e-08
3.43765e-08
3.472255e-08
3.511495e-08
3.555371e-08
3.603903e-08
3.657141e-08
3.715077e-08
3.777699e-08
3.845015e-08
3.917004e-08
3.993677e-08
4.075083e-08
4.161233e-08
4.252115e-08
4.347737e-08
4.448113e-08
4.553245e-08
4.663156e-08
4.777896e-08
4.897497e-08
5.02196e-08
5.15128e-08
5.285469e-08
5.424542e-08
5.568508e-08
5.717377e-08
5.871161e-08
6.029858e-08
6.193435e-08
6.361841e-08
6.53502e-08
6.712926e-08
6.89552e-08
7.082753e-08
7.274564e-08
7.470884e-08
7.67163e-08
7.876714e-08
8.086047e-08
8.29954e-08
8.517112e-08
8.738695e-08
8.964228e-08
9.193641e-08
9.426848e-08
9.663736e-08
9.904169e-08
1.014798e-07
1.0395e-07
1.064503e-07
1.089785e-07
1.115324e-07
1.141095e-07
1.167072e-07
1.193226e-07
1.219534e-07
1.245976e-07
1.272528e-07
1.29916e-07
1.325842e-07
1.352543e-07
1.379233e-07
1.405881e-07
1.432455e-07
1.45892e-07
1.485242e-07