/*--------------------------------*- C++ -*----------------------------------*\
| =========                 |                                                 |
| \\      /  F ield         | OpenFOAM: The Open Source CFD Toolbox           |
|  \\    /   O peration     | Version:  2406                                  |
|   \\  /    A nd           | Website:  www.openfoam.com                      |
|    \\/     M anipulation  |                                                 |
\*---------------------------------------------------------------------------*/
FoamFile
{
    version     2.0;
    format      ascii;
    arch        "LSB;label=32;scalar=64";
    class       surfaceScalarField;
    location    "100";
    object      phi;
}
// * * * * * * * * * * * * * * * * * * * * * * * * * * * * * * * * * * * * * //

dimensions      [0 3 -1 0 0 0 0];

oriented        oriented;

internalField   nonuniform List<scalar> 
32512
(
-8.923484e-09
-9.049418e-09
-4.503284e-09
-4.430841e-09
-2.613165e-09
-1.974406e-09
-1.74135e-09
-9.099235e-10
-1.375962e-09
-3.006538e-10
-1.337873e-09
3.867539e-11
-1.567599e-09
2.097264e-10
-1.961637e-09
3.415361e-10
-2.447917e-09
4.650716e-10
-2.99832e-09
5.55712e-10
-3.594428e-09
6.175952e-10
-4.233391e-09
6.596464e-10
-4.912296e-09
6.836747e-10
-5.61887e-09
6.98084e-10
-6.343943e-09
7.141358e-10
-7.082659e-09
7.343404e-10
-7.830394e-09
7.521279e-10
-8.581724e-09
7.624716e-10
-9.334373e-09
7.661518e-10
-1.008945e-08
7.66002e-10
-1.084777e-08
7.638992e-10
-1.160677e-08
7.613869e-10
-1.236227e-08
7.59891e-10
-1.311242e-08
7.592657e-10
-1.385865e-08
7.577208e-10
-1.46023e-08
7.539224e-10
-1.534231e-08
7.482616e-10
-1.607705e-08
7.420325e-10
-1.680637e-08
7.361749e-10
-1.753086e-08
7.307294e-10
-1.825056e-08
7.250485e-10
-1.896484e-08
7.185483e-10
-1.967293e-08
7.113143e-10
-2.037436e-08
7.038467e-10
-2.106908e-08
6.963373e-10
-2.175722e-08
6.884966e-10
-2.243847e-08
6.800208e-10
-2.311194e-08
6.709586e-10
-2.377669e-08
6.615802e-10
-2.44322e-08
6.520261e-10
-2.507834e-08
6.421891e-10
-2.571484e-08
6.318884e-10
-2.634099e-08
6.210379e-10
-2.695587e-08
6.096693e-10
-2.755869e-08
5.978732e-10
-2.814889e-08
5.857062e-10
-2.872602e-08
5.731295e-10
-2.928954e-08
5.600345e-10
-2.983874e-08
5.463073e-10
-3.03728e-08
5.318794e-10
-3.089086e-08
5.167611e-10
-3.139212e-08
5.010182e-10
-3.187585e-08
4.846872e-10
-3.234138e-08
4.677166e-10
-3.278806e-08
4.499911e-10
-3.321517e-08
4.313951e-10
-3.362191e-08
4.118654e-10
-3.400742e-08
3.914145e-10
-3.437084e-08
3.701069e-10
-3.471137e-08
3.479891e-10
-3.502829e-08
3.250402e-10
-3.532094e-08
3.011921e-10
-3.558865e-08
2.763835e-10
-3.583069e-08
2.505914e-10
-3.604625e-08
2.238321e-10
-3.623452e-08
1.961508e-10
-3.63947e-08
1.676028e-10
-3.652608e-08
1.382282e-10
-3.662802e-08
1.080353e-10
-3.669991e-08
7.701253e-11
-3.674112e-08
4.515767e-11
-3.675099e-08
1.249476e-11
-3.672877e-08
-2.092949e-11
-3.667371e-08
-5.504745e-11
-3.658507e-08
-8.977442e-11
-3.646218e-08
-1.250259e-10
-3.630443e-08
-1.607314e-10
-3.611129e-08
-1.968342e-10
-3.588224e-08
-2.332773e-10
-3.56168e-08
-2.699906e-10
-3.531451e-08
-3.06888e-10
-3.497497e-08
-3.438779e-10
-3.459783e-08
-3.808744e-10
-3.418286e-08
-4.178039e-10
-3.372991e-08
-4.546073e-10
-3.323896e-08
-4.912373e-10
-3.271008e-08
-5.276568e-10
-3.214348e-08
-5.638414e-10
-3.153947e-08
-5.997705e-10
-3.089843e-08
-6.354209e-10
-3.022088e-08
-6.707714e-10
-2.950739e-08
-7.05797e-10
-2.875864e-08
-7.404565e-10
-2.797534e-08
-7.746847e-10
-2.715834e-08
-8.083847e-10
-2.630858e-08
-8.414379e-10
-2.542709e-08
-8.737274e-10
-2.451506e-08
-9.051388e-10
-2.357379e-08
-9.355206e-10
-2.260469e-08
-9.64657e-10
-2.160929e-08
-9.922936e-10
-2.058928e-08
-1.018183e-09
-1.954656e-08
-1.042079e-09
-1.848329e-08
-1.063677e-09
-1.740189e-08
-1.082592e-09
-1.630499e-08
-1.098457e-09
-1.519559e-08
-1.110992e-09
-1.407724e-08
-1.119874e-09
-1.295397e-08
-1.124554e-09
-1.183016e-08
-1.124376e-09
-1.071048e-08
-1.118928e-09
-9.600278e-09
-1.108072e-09
-8.505847e-09
-1.091498e-09
-7.434302e-09
-1.068287e-09
-6.393258e-09
-1.037148e-09
-5.390668e-09
-9.972359e-10
-4.43527e-09
-9.484815e-10
-3.537268e-09
-8.906946e-10
-2.708207e-09
-8.226701e-10
-1.960208e-09
-7.427288e-10
-1.305798e-09
-6.497806e-10
-7.58013e-10
-5.436623e-10
-3.297517e-10
-4.253013e-10
-3.180376e-11
-2.971188e-10
1.303684e-10
-1.634855e-10
1.608624e-10
-3.285571e-11
8.757163e-11
7.103324e-11
8.545548e-11
-4.348413e-09
-4.712837e-09
-4.352923e-09
-4.308565e-09
-3.621338e-09
-2.657571e-09
-3.347602e-09
-1.323212e-09
-3.487592e-09
-2.527186e-10
-3.994429e-09
5.385175e-10
-4.814186e-09
1.097766e-09
-5.931761e-09
1.500665e-09
-7.303818e-09
1.806035e-09
-8.847976e-09
2.058653e-09
-1.052042e-08
2.271908e-09
-1.230861e-08
2.441505e-09
-1.4189e-08
2.570804e-09
-1.613426e-08
2.66874e-09
-1.813348e-08
2.740594e-09
-2.018164e-08
2.792278e-09
-2.226465e-08
2.831549e-09
-2.436486e-08
2.863499e-09
-2.647314e-08
2.887643e-09
-2.858768e-08
2.901106e-09
-3.070639e-08
2.903639e-09
-3.282416e-08
2.898849e-09
-3.493603e-08
2.890747e-09
-3.703988e-08
2.880717e-09
-3.913525e-08
2.868143e-09
-4.122059e-08
2.85264e-09
-4.32928e-08
2.834842e-09
-4.534981e-08
2.815414e-09
-4.73919e-08
2.794263e-09
-4.941973e-08
2.771059e-09
-5.143245e-08
2.746056e-09
-5.342796e-08
2.719909e-09
-5.540448e-08
2.692893e-09
-5.736123e-08
2.66467e-09
-5.929807e-08
2.634795e-09
-6.121451e-08
2.603196e-09
-6.310911e-08
2.570155e-09
-6.497981e-08
2.535912e-09
-6.682485e-08
2.500418e-09
-6.864315e-08
2.463443e-09
-7.043392e-08
2.424788e-09
-7.219594e-08
2.384403e-09
-7.392732e-08
2.342352e-09
-7.562591e-08
2.298685e-09
-7.728986e-08
2.253342e-09
-7.891763e-08
2.206178e-09
-8.050782e-08
2.157016e-09
-8.205882e-08
2.105681e-09
-8.356871e-08
2.052054e-09
-8.503538e-08
1.996087e-09
-8.645669e-08
1.937748e-09
-8.783059e-08
1.876968e-09
-8.915517e-08
1.813621e-09
-9.042861e-08
1.74753e-09
-9.164904e-08
1.678504e-09
-9.281445e-08
1.606409e-09
-9.39227e-08
1.5312e-09
-9.497153e-08
1.452888e-09
-9.595878e-08
1.371464e-09
-9.688237e-08
1.28688e-09
-9.774038e-08
1.199064e-09
-9.853088e-08
1.107944e-09
-9.92519e-08
1.013476e-09
-9.990139e-08
9.156614e-10
-1.004772e-07
8.145542e-10
-1.009773e-07
7.102359e-10
-1.013996e-07
6.027849e-10
-1.017423e-07
4.92266e-10
-1.020036e-07
3.787433e-10
-1.021816e-07
2.62293e-10
-1.022746e-07
1.430096e-10
-1.022808e-07
2.101091e-11
-1.021981e-07
-1.035543e-10
-1.020248e-07
-2.304919e-10
-1.017589e-07
-3.595712e-10
-1.013989e-07
-4.905548e-10
-1.009432e-07
-6.23208e-10
-1.003904e-07
-7.572942e-10
-9.973925e-08
-8.925667e-10
-9.898859e-08
-1.028767e-09
-9.813734e-08
-1.165633e-09
-9.718456e-08
-1.302909e-09
-9.612951e-08
-1.440361e-09
-9.497166e-08
-1.577785e-09
-9.371074e-08
-1.715011e-09
-9.234672e-08
-1.851903e-09
-9.087987e-08
-1.988332e-09
-8.931067e-08
-2.124174e-09
-8.76399e-08
-2.259301e-09
-8.586858e-08
-2.393569e-09
-8.399796e-08
-2.52681e-09
-8.202956e-08
-2.658822e-09
-7.99651e-08
-2.78935e-09
-7.780654e-08
-2.918078e-09
-7.555613e-08
-3.044624e-09
-7.32164e-08
-3.168539e-09
-7.079021e-08
-3.289309e-09
-6.828071e-08
-3.406364e-09
-6.569139e-08
-3.519074e-09
-6.302614e-08
-3.62671e-09
-6.028928e-08
-3.728419e-09
-5.748561e-08
-3.823256e-09
-5.462044e-08
-3.910254e-09
-5.169974e-08
-3.988403e-09
-4.873029e-08
-4.05654e-09
-4.57197e-08
-4.113347e-09
-4.267639e-08
-4.157536e-09
-3.960983e-08
-4.187952e-09
-3.653088e-08
-4.203266e-09
-3.345188e-08
-4.201654e-09
-3.038631e-08
-4.180985e-09
-2.734879e-08
-4.139345e-09
-2.435552e-08
-4.075185e-09
-2.142485e-08
-3.986794e-09
-1.857749e-08
-3.871638e-09
-1.583584e-08
-3.726478e-09
-1.322328e-08
-3.548369e-09
-1.0765e-08
-3.33521e-09
-8.488911e-09
-3.085081e-09
-6.424848e-09
-2.795612e-09
-4.602803e-09
-2.464447e-09
-3.051928e-09
-2.090644e-09
-1.799296e-09
-1.676681e-09
-8.664894e-10
-1.230892e-09
-2.624272e-10
-7.712189e-10
2.880296e-11
-3.311129e-10
6.732856e-11
2.410746e-11
1.522839e-10
-2.046756e-09
-2.750283e-09
-3.265164e-09
-3.076966e-09
-3.759575e-09
-2.034326e-09
-4.308017e-09
-7.14091e-10
-5.199562e-09
5.565394e-10
-6.432417e-09
1.695713e-09
-7.982704e-09
2.652791e-09
-9.869088e-09
3.410742e-09
-1.205938e-08
4.014439e-09
-1.449536e-08
4.510573e-09
-1.713996e-08
4.91595e-09
-1.996024e-08
5.24376e-09
-2.291677e-08
5.512175e-09
-2.59774e-08
5.730625e-09
-2.912196e-08
5.899415e-09
-3.233537e-08
6.022388e-09
-3.559985e-08
6.110563e-09
-3.889852e-08
6.174387e-09
-4.222019e-08
6.218499e-09
-4.555597e-08
6.244374e-09
-4.889619e-08
6.254208e-09
-5.223268e-08
6.251448e-09
-5.55611e-08
6.238758e-09
-5.887933e-08
6.217233e-09
-6.218469e-08
6.187977e-09
-6.547306e-08
6.153082e-09
-6.874023e-08
6.114435e-09
-7.198412e-08
6.07244e-09
-7.52044e-08
6.02648e-09
-7.84002e-08
5.976274e-09
-8.156934e-08
5.922417e-09
-8.470939e-08
5.865758e-09
-8.781859e-08
5.806586e-09
-9.089572e-08
5.744557e-09
-9.393957e-08
5.679219e-09
-9.694855e-08
5.610443e-09
-9.992049e-08
5.538445e-09
-1.028529e-07
5.463484e-09
-1.057434e-07
5.385543e-09
-1.085903e-07
5.304301e-09
-1.113919e-07
5.21938e-09
-1.141459e-07
5.130575e-09
-1.168496e-07
5.0379e-09
-1.195002e-07
4.941439e-09
-1.220948e-07
4.841127e-09
-1.246312e-07
4.736683e-09
-1.27107e-07
4.627733e-09
-1.295196e-07
4.513978e-09
-1.318661e-07
4.395245e-09
-1.341433e-07
4.27146e-09
-1.363482e-07
4.142563e-09
-1.384777e-07
4.008399e-09
-1.405289e-07
3.868685e-09
-1.42499e-07
3.723086e-09
-1.44385e-07
3.571346e-09
-1.461839e-07
3.413326e-09
-1.478923e-07
3.248971e-09
-1.49507e-07
3.078252e-09
-1.510247e-07
2.901116e-09
-1.524422e-07
2.717465e-09
-1.537567e-07
2.527175e-09
-1.54965e-07
2.330154e-09
-1.560642e-07
2.126382e-09
-1.570511e-07
1.915917e-09
-1.579224e-07
1.698852e-09
-1.586751e-07
1.475292e-09
-1.593061e-07
1.245343e-09
-1.598126e-07
1.009124e-09
-1.601917e-07
7.667623e-10
-1.604407e-07
5.184109e-10
-1.605568e-07
2.642617e-10
-1.605371e-07
4.548911e-12
-1.603789e-07
-2.604525e-10
-1.600793e-07
-5.30404e-10
-1.596358e-07
-8.04905e-10
-1.590459e-07
-1.083522e-09
-1.583073e-07
-1.3658e-09
-1.574182e-07
-1.651262e-09
-1.563765e-07
-1.939418e-09
-1.551808e-07
-2.229763e-09
-1.538294e-07
-2.521792e-09
-1.523212e-07
-2.815005e-09
-1.506551e-07
-3.108927e-09
-1.488306e-07
-3.403121e-09
-1.468473e-07
-3.697181e-09
-1.447053e-07
-3.990732e-09
-1.42405e-07
-4.28341e-09
-1.399473e-07
-4.574843e-09
-1.373332e-07
-4.864643e-09
-1.345644e-07
-5.152395e-09
-1.316427e-07
-5.437634e-09
-1.285704e-07
-5.719816e-09
-1.253501e-07
-5.998319e-09
-1.219847e-07
-6.272426e-09
-1.184778e-07
-6.541326e-09
-1.148332e-07
-6.804098e-09
-1.110552e-07
-7.059691e-09
-1.071489e-07
-7.306908e-09
-1.031195e-07
-7.544405e-09
-9.89731e-08
-7.770705e-09
-9.471648e-08
-7.984183e-09
-9.035723e-08
-8.183018e-09
-8.590376e-08
-8.365216e-09
-8.136543e-08
-8.528677e-09
-7.675279e-08
-8.671162e-09
-7.207787e-08
-8.79014e-09
-6.735414e-08
-8.88277e-09
-6.259635e-08
-8.946117e-09
-5.782095e-08
-8.977255e-09
-5.304667e-08
-8.97297e-09
-4.82946e-08
-8.929399e-09
-4.358787e-08
-8.842088e-09
-3.895137e-08
-8.706504e-09
-3.441229e-08
-8.518448e-09
-3.000099e-08
-8.273737e-09
-2.575111e-08
-7.967351e-09
-2.16984e-08
-7.593449e-09
-1.788014e-08
-7.146598e-09
-1.433578e-08
-6.622585e-09
-1.110672e-08
-6.018251e-09
-8.234536e-09
-5.33178e-09
-5.758838e-09
-4.564169e-09
-3.713978e-09
-3.721705e-09
-2.125055e-09
-2.82075e-09
-1.001036e-09
-1.895996e-09
-3.231774e-10
-1.010178e-09
-3.154143e-11
-2.706942e-10
1.222468e-10
-1.180669e-09
-1.587696e-09
-2.596502e-09
-1.816077e-09
-3.799794e-09
-7.918211e-10
-5.09413e-09
6.49394e-10
-6.686006e-09
2.168092e-09
-8.641859e-09
3.625139e-09
-1.096209e-08
4.932655e-09
-1.362956e-08
6.056262e-09
-1.661848e-08
7.008085e-09
-1.99002e-08
7.80451e-09
-2.343638e-08
8.459863e-09
-2.718243e-08
8.996288e-09
-3.110153e-08
9.43543e-09
-3.516443e-08
9.791136e-09
-3.934071e-08
1.007237e-08
-4.360183e-08
1.02882e-08
-4.792534e-08
1.044892e-08
-5.229569e-08
1.056306e-08
-5.670058e-08
1.063747e-08
-6.112641e-08
1.067971e-08
-6.555879e-08
1.069714e-08
-6.99876e-08
1.069458e-08
-7.44078e-08
1.067443e-08
-7.881507e-08
1.063863e-08
-8.320377e-08
1.058994e-08
-8.756833e-08
1.05313e-08
-9.190476e-08
1.046478e-08
-9.621095e-08
1.03912e-08
-1.004853e-07
1.03108e-08
-1.04725e-07
1.022393e-08
-1.089267e-07
1.013122e-08
-1.130878e-07
1.003326e-08
-1.172066e-07
9.930248e-09
-1.212812e-07
9.821971e-09
-1.253094e-07
9.708125e-09
-1.292887e-07
9.588619e-09
-1.332161e-07
9.463564e-09
-1.370887e-07
9.333068e-09
-1.409039e-07
9.197012e-09
-1.446592e-07
9.055016e-09
-1.483522e-07
8.906641e-09
-1.519796e-07
8.751629e-09
-1.555379e-07
8.589903e-09
-1.590236e-07
8.421403e-09
-1.624334e-07
8.245936e-09
-1.657643e-07
8.063129e-09
-1.690131e-07
7.872511e-09
-1.721764e-07
7.673683e-09
-1.752502e-07
7.466408e-09
-1.782307e-07
7.250545e-09
-1.811138e-07
7.025908e-09
-1.83896e-07
6.792205e-09
-1.865734e-07
6.549066e-09
-1.891424e-07
6.296112e-09
-1.91599e-07
6.033029e-09
-1.939392e-07
5.759627e-09
-1.961588e-07
5.475811e-09
-1.982535e-07
5.181518e-09
-2.002194e-07
4.876643e-09
-2.020525e-07
4.561043e-09
-2.037489e-07
4.234579e-09
-2.053046e-07
3.897172e-09
-2.067156e-07
3.548821e-09
-2.07978e-07
3.189595e-09
-2.090877e-07
2.819619e-09
-2.100406e-07
2.439046e-09
-2.10833e-07
2.048043e-09
-2.114611e-07
1.646784e-09
-2.119213e-07
1.235469e-09
-2.122101e-07
8.143427e-10
-2.123238e-07
3.837087e-10
-2.122589e-07
-5.608248e-11
-2.120118e-07
-5.046217e-10
-2.11579e-07
-9.613976e-10
-2.109574e-07
-1.425799e-09
-2.10144e-07
-1.89715e-09
-2.09136e-07
-2.374733e-09
-2.079309e-07
-2.857794e-09
-2.065265e-07
-3.345552e-09
-2.049209e-07
-3.8372e-09
-2.031122e-07
-4.331928e-09
-2.010991e-07
-4.828933e-09
-1.988805e-07
-5.327435e-09
-1.964558e-07
-5.826681e-09
-1.938247e-07
-6.325942e-09
-1.909875e-07
-6.824498e-09
-1.879447e-07
-7.321636e-09
-1.846975e-07
-7.816621e-09
-1.812475e-07
-8.308679e-09
-1.775966e-07
-8.796979e-09
-1.737472e-07
-9.280621e-09
-1.697023e-07
-9.758598e-09
-1.654652e-07
-1.022977e-08
-1.610399e-07
-1.069286e-08
-1.564308e-07
-1.114647e-08
-1.516429e-07
-1.158903e-08
-1.466819e-07
-1.20188e-08
-1.415542e-07
-1.243383e-08
-1.362669e-07
-1.28319e-08
-1.30828e-07
-1.32106e-08
-1.252462e-07
-1.356732e-08
-1.195317e-07
-1.389918e-08
-1.136956e-07
-1.420298e-08
-1.077502e-07
-1.447523e-08
-1.017096e-07
-1.471222e-08
-9.558922e-08
-1.491001e-08
-8.940695e-08
-1.506405e-08
-8.318236e-08
-1.516922e-08
-7.693694e-08
-1.522009e-08
-7.06946e-08
-1.521115e-08
-6.448221e-08
-1.51365e-08
-5.832963e-08
-1.498934e-08
-5.226949e-08
-1.476201e-08
-4.633682e-08
-1.44466e-08
-4.056942e-08
-1.403571e-08
-3.500865e-08
-1.352197e-08
-2.969925e-08
-1.289739e-08
-2.4688e-08
-1.215394e-08
-2.002302e-08
-1.128482e-08
-1.575333e-08
-1.02854e-08
-1.192793e-08
-9.154669e-09
-8.593196e-09
-7.897078e-09
-5.788932e-09
-6.52521e-09
-3.544233e-09
-5.065464e-09
-1.871071e-09
-3.567961e-09
-7.574453e-10
-2.120661e-09
-1.608693e-10
-8.64274e-10
-3.470933e-11
-7.856801e-10
-7.27347e-10
-2.215475e-09
-4.641818e-10
-3.916372e-09
8.13898e-10
-5.83445e-09
2.573831e-09
-8.070387e-09
4.457232e-09
-1.071257e-08
6.277274e-09
-1.375644e-08
7.954804e-09
-1.716606e-08
9.456066e-09
-2.092436e-08
1.076244e-08
-2.500833e-08
1.187634e-08
-2.937075e-08
1.281616e-08
-3.396488e-08
1.360056e-08
-3.875831e-08
1.424341e-08
-4.372238e-08
1.47603e-08
-4.882176e-08
1.517056e-08
-5.40221e-08
1.549127e-08
-5.929841e-08
1.573431e-08
-6.463267e-08
1.590848e-08
-7.000787e-08
1.602331e-08
-7.540687e-08
1.608994e-08
-8.081463e-08
1.611831e-08
-8.622075e-08
1.611499e-08
-9.161813e-08
1.608427e-08
-9.699937e-08
1.603038e-08
-1.023566e-07
1.595787e-08
-1.076834e-07
1.587035e-08
-1.129756e-07
1.576979e-08
-1.182305e-07
1.565729e-08
-1.234452e-07
1.553392e-08
-1.286156e-07
1.540096e-08
-1.337376e-07
1.525944e-08
-1.38808e-07
1.510981e-08
-1.438248e-07
1.495194e-08
-1.487856e-07
1.47856e-08
-1.536874e-07
1.46107e-08
-1.585267e-07
1.442739e-08
-1.632999e-07
1.423579e-08
-1.680037e-07
1.403572e-08
-1.726351e-07
1.382675e-08
-1.771912e-07
1.36084e-08
-1.816687e-07
1.338026e-08
-1.860637e-07
1.314212e-08
-1.903718e-07
1.289383e-08
-1.945889e-07
1.263514e-08
-1.987115e-07
1.236563e-08
-2.027359e-07
1.208475e-08
-2.066582e-07
1.179198e-08
-2.10474e-07
1.148693e-08
-2.141789e-07
1.11693e-08
-2.17768e-07
1.083882e-08
-2.21237e-07
1.049515e-08
-2.245814e-07
1.01379e-08
-2.27797e-07
9.76659e-09
-2.308792e-07
9.380797e-09
-2.338232e-07
8.980204e-09
-2.366242e-07
8.564607e-09
-2.392772e-07
8.133862e-09
-2.417775e-07
7.687828e-09
-2.441201e-07
7.226348e-09
-2.463005e-07
6.749267e-09
-2.48314e-07
6.256454e-09
-2.50156e-07
5.747838e-09
-2.518216e-07
5.223433e-09
-2.533061e-07
4.683338e-09
-2.546049e-07
4.127709e-09
-2.557131e-07
3.55674e-09
-2.566263e-07
2.970647e-09
-2.573401e-07
2.369675e-09
-2.578503e-07
1.754119e-09
-2.581525e-07
1.124332e-09
-2.582427e-07
4.807344e-10
-2.581166e-07
-1.762059e-10
-2.577701e-07
-8.459276e-10
-2.571994e-07
-1.527714e-09
-2.564006e-07
-2.220716e-09
-2.553704e-07
-2.923991e-09
-2.541058e-07
-3.63653e-09
-2.526039e-07
-4.357265e-09
-2.508623e-07
-5.08508e-09
-2.488787e-07
-5.818825e-09
-2.466513e-07
-6.557332e-09
-2.441787e-07
-7.299433e-09
-2.414598e-07
-8.043969e-09
-2.38494e-07
-8.789791e-09
-2.352813e-07
-9.535757e-09
-2.31822e-07
-1.028072e-08
-2.28117e-07
-1.102351e-08
-2.241676e-07
-1.176291e-08
-2.199759e-07
-1.249766e-08
-2.155441e-07
-1.322641e-08
-2.108752e-07
-1.394769e-08
-2.059728e-07
-1.465992e-08
-2.008409e-07
-1.536133e-08
-1.95484e-07
-1.605e-08
-1.899077e-07
-1.672379e-08
-1.841179e-07
-1.738036e-08
-1.781215e-07
-1.801715e-08
-1.71926e-07
-1.863133e-08
-1.655402e-07
-1.921973e-08
-1.589736e-07
-1.97789e-08
-1.522369e-07
-2.030506e-08
-1.453423e-07
-2.079413e-08
-1.383033e-07
-2.124157e-08
-1.311351e-07
-2.164231e-08
-1.238544e-07
-2.199082e-08
-1.1648e-07
-2.228126e-08
-1.09033e-07
-2.250722e-08
-1.01537e-07
-2.266141e-08
-9.401796e-08
-2.273564e-08
-8.650457e-08
-2.272125e-08
-7.902821e-08
-2.260928e-08
-7.162361e-08
-2.239024e-08
-6.432921e-08
-2.205368e-08
-5.71867e-08
-2.158822e-08
-5.02403e-08
-2.098233e-08
-4.353713e-08
-2.022511e-08
-3.712795e-08
-1.930617e-08
-3.106622e-08
-1.821564e-08
-2.54065e-08
-1.694499e-08
-2.02036e-08
-1.548865e-08
-1.551146e-08
-1.38463e-08
-1.138088e-08
-1.202558e-08
-7.856785e-09
-1.004607e-08
-4.97423e-09
-7.944282e-09
-2.754094e-09
-5.783465e-09
-1.198558e-09
-3.668924e-09
-2.910432e-10
-1.763508e-09
-3.197127e-10
-6.483823e-10
-1.127345e-11
-2.094822e-09
9.93946e-10
-4.11665e-09
2.76688e-09
-6.552678e-09
4.976428e-09
-9.393445e-09
7.301788e-09
-1.267254e-08
9.558083e-09
-1.637814e-08
1.166381e-08
-2.048422e-08
1.356827e-08
-2.49664e-08
1.524318e-08
-2.979166e-08
1.669152e-08
-3.491417e-08
1.793245e-08
-4.029157e-08
1.897987e-08
-4.588797e-08
1.984511e-08
-5.166821e-08
2.054591e-08
-5.759597e-08
2.110517e-08
-6.363875e-08
2.154313e-08
-6.977109e-08
2.187489e-08
-7.59705e-08
2.211393e-08
-8.221469e-08
2.227447e-08
-8.848429e-08
2.237021e-08
-9.476457e-08
2.241205e-08
-1.010446e-07
2.240802e-08
-1.073147e-07
2.236502e-08
-1.135649e-07
2.228997e-08
-1.197861e-07
2.218919e-08
-1.259718e-07
2.206701e-08
-1.32117e-07
2.192579e-08
-1.382177e-07
2.176717e-08
-1.442697e-07
2.159306e-08
-1.50268e-07
2.140543e-08
-1.562081e-07
2.120565e-08
-1.620866e-07
2.099414e-08
-1.679007e-07
2.077068e-08
-1.736473e-07
2.053507e-08
-1.793225e-07
2.028742e-08
-1.849222e-07
2.002799e-08
-1.904425e-07
1.975685e-08
-1.958798e-07
1.947363e-08
-2.012306e-07
1.917766e-08
-2.064913e-07
1.886829e-08
-2.11658e-07
1.854516e-08
-2.167259e-07
1.820806e-08
-2.216904e-07
1.785675e-08
-2.265471e-07
1.749075e-08
-2.312917e-07
1.710944e-08
-2.359202e-07
1.671216e-08
-2.40428e-07
1.629832e-08
-2.4481e-07
1.586747e-08
-2.490611e-07
1.541924e-08
-2.53176e-07
1.49533e-08
-2.571498e-07
1.446916e-08
-2.609776e-07
1.39663e-08
-2.646545e-07
1.344418e-08
-2.681751e-07
1.290235e-08
-2.715342e-07
1.234049e-08
-2.747261e-07
1.175837e-08
-2.777454e-07
1.11558e-08
-2.805866e-07
1.05326e-08
-2.832444e-07
9.888559e-09
-2.857136e-07
9.223507e-09
-2.879889e-07
8.53731e-09
-2.900649e-07
7.82992e-09
-2.919364e-07
7.101386e-09
-2.93598e-07
6.351841e-09
-2.950442e-07
5.581475e-09
-2.962701e-07
4.790521e-09
-2.972704e-07
3.979255e-09
-2.980404e-07
3.148005e-09
-2.985752e-07
2.297163e-09
-2.9887e-07
1.427198e-09
-2.989202e-07
5.386571e-10
-2.987211e-07
-3.678567e-10
-2.982682e-07
-1.291606e-09
-2.975572e-07
-2.231647e-09
-2.965842e-07
-3.18687e-09
-2.953454e-07
-4.156044e-09
-2.938375e-07
-5.137839e-09
-2.920576e-07
-6.130847e-09
-2.90003e-07
-7.133591e-09
-2.876715e-07
-8.144549e-09
-2.850611e-07
-9.162159e-09
-2.821705e-07
-1.018484e-08
-2.789987e-07
-1.121098e-08
-2.755452e-07
-1.223899e-08
-2.718101e-07
-1.326722e-08
-2.67794e-07
-1.429402e-08
-2.63498e-07
-1.531768e-08
-2.589238e-07
-1.633641e-08
-2.540737e-07
-1.734835e-08
-2.489504e-07
-1.835151e-08
-2.435573e-07
-1.934378e-08
-2.378985e-07
-2.032286e-08
-2.319785e-07
-2.128626e-08
-2.258027e-07
-2.223131e-08
-2.193773e-07
-2.315504e-08
-2.127092e-07
-2.405426e-08
-2.058062e-07
-2.492547e-08
-1.986771e-07
-2.576484e-08
-1.913317e-07
-2.656822e-08
-1.837813e-07
-2.733102e-08
-1.760383e-07
-2.80482e-08
-1.681164e-07
-2.87143e-08
-1.600313e-07
-2.932334e-08
-1.518003e-07
-2.986864e-08
-1.43443e-07
-3.03427e-08
-1.349808e-07
-3.073734e-08
-1.264375e-07
-3.104378e-08
-1.178396e-07
-3.125239e-08
-1.092169e-07
-3.135241e-08
-1.006021e-07
-3.133196e-08
-9.203052e-08
-3.11783e-08
-8.354086e-08
-3.087829e-08
-7.517549e-08
-3.041836e-08
-6.698082e-08
-2.978405e-08
-5.900635e-08
-2.896014e-08
-5.130411e-08
-2.793174e-08
-4.392922e-08
-2.668531e-08
-3.693948e-08
-2.520887e-08
-3.039418e-08
-2.349276e-08
-2.43529e-08
-2.153139e-08
-1.887374e-08
-1.932531e-08
-1.401188e-08
-1.688485e-08
-9.817091e-09
-1.423527e-08
-6.331945e-09
-1.14217e-08
-3.589348e-09
-8.517175e-09
-1.610867e-09
-5.636857e-09
-4.093364e-10
-2.95353e-09
-7.223653e-10
-6.504559e-10
6.058685e-10
-2.154422e-09
2.566767e-09
-4.409551e-09
5.03683e-09
-7.276946e-09
7.805593e-09
-1.065301e-08
1.065218e-08
-1.450717e-08
1.34122e-08
-1.882683e-08
1.598745e-08
-2.35842e-08
1.832125e-08
-2.873641e-08
2.03922e-08
-3.424119e-08
2.220047e-08
-4.006124e-08
2.375649e-08
-4.61576e-08
2.5074e-08
-5.248724e-08
2.617087e-08
-5.900834e-08
2.706898e-08
-6.568515e-08
2.779061e-08
-7.248774e-08
2.835571e-08
-7.938918e-08
2.878311e-08
-8.636294e-08
2.909235e-08
-9.338394e-08
2.930236e-08
-1.004324e-07
2.94288e-08
-1.074935e-07
2.948385e-08
-1.145545e-07
2.9478e-08
-1.21603e-07
2.942127e-08
-1.286273e-07
2.932274e-08
-1.35618e-07
2.918967e-08
-1.425687e-07
2.902712e-08
-1.494736e-07
2.883854e-08
-1.563267e-07
2.862683e-08
-1.631227e-07
2.839475e-08
-1.69856e-07
2.814456e-08
-1.76522e-07
2.787764e-08
-1.83117e-07
2.75945e-08
-1.896375e-07
2.72952e-08
-1.960794e-07
2.697978e-08
-2.024379e-07
2.664846e-08
-2.087087e-07
2.630146e-08
-2.148876e-07
2.593863e-08
-2.209709e-07
2.55594e-08
-2.269544e-07
2.516304e-08
-2.328338e-07
2.474894e-08
-2.386045e-07
2.431666e-08
-2.442615e-07
2.386587e-08
-2.497998e-07
2.339615e-08
-2.552146e-07
2.290688e-08
-2.605013e-07
2.239728e-08
-2.656552e-07
2.186657e-08
-2.706711e-07
2.131413e-08
-2.755434e-07
2.073945e-08
-2.802664e-07
2.014209e-08
-2.848347e-07
1.952156e-08
-2.892428e-07
1.887728e-08
-2.934854e-07
1.820866e-08
-2.975569e-07
1.751513e-08
-3.014515e-07
1.679622e-08
-3.051632e-07
1.605159e-08
-3.08686e-07
1.528098e-08
-3.120139e-07
1.448416e-08
-3.151411e-07
1.366093e-08
-3.180618e-07
1.281103e-08
-3.207702e-07
1.193428e-08
-3.232605e-07
1.103056e-08
-3.255269e-07
1.009983e-08
-3.275636e-07
9.142194e-09
-3.293647e-07
8.157806e-09
-3.309245e-07
7.146901e-09
-3.322373e-07
6.109768e-09
-3.332977e-07
5.046754e-09
-3.341004e-07
3.95827e-09
-3.346401e-07
2.844813e-09
-3.349117e-07
1.706977e-09
-3.349101e-07
5.454522e-10
-3.346303e-07
-6.390104e-10
-3.340675e-07
-1.845481e-09
-3.332171e-07
-3.072762e-09
-3.32075e-07
-4.319462e-09
-3.306373e-07
-5.584039e-09
-3.289005e-07
-6.864825e-09
-3.268616e-07
-8.160049e-09
-3.245178e-07
-9.467849e-09
-3.21867e-07
-1.07863e-08
-3.189072e-07
-1.211339e-08
-3.156371e-07
-1.34471e-08
-3.12056e-07
-1.478534e-08
-3.081634e-07
-1.612596e-08
-3.039597e-07
-1.746679e-08
-2.994456e-07
-1.880557e-08
-2.946225e-07
-2.013999e-08
-2.894924e-07
-2.146759e-08
-2.840579e-07
-2.278585e-08
-2.78322e-07
-2.409207e-08
-2.722887e-07
-2.538338e-08
-2.659623e-07
-2.665671e-08
-2.59348e-07
-2.790873e-08
-2.524519e-07
-2.913593e-08
-2.452806e-07
-3.033447e-08
-2.378421e-07
-3.150024e-08
-2.301449e-07
-3.262875e-08
-2.22199e-07
-3.371512e-08
-2.140153e-07
-3.47541e-08
-2.056062e-07
-3.573995e-08
-1.969857e-07
-3.666631e-08
-1.881693e-07
-3.75262e-08
-1.791741e-07
-3.831196e-08
-1.700194e-07
-3.90152e-08
-1.607268e-07
-3.96265e-08
-1.513203e-07
-4.013524e-08
-1.418259e-07
-4.052982e-08
-1.322729e-07
-4.079773e-08
-1.226932e-07
-4.092543e-08
-1.131228e-07
-4.089803e-08
-1.036004e-07
-4.069917e-08
-9.41682e-08
-4.031154e-08
-8.48717e-08
-3.971759e-08
-7.576024e-08
-3.889947e-08
-6.688708e-08
-3.783877e-08
-5.830839e-08
-3.651716e-08
-5.008282e-08
-3.491774e-08
-4.227136e-08
-3.302595e-08
-3.493684e-08
-3.083083e-08
-2.814257e-08
-2.832681e-08
-2.195088e-08
-2.551559e-08
-1.642208e-08
-2.240993e-08
-1.161194e-08
-1.903837e-08
-7.571484e-09
-1.545207e-08
-4.346833e-09
-1.173033e-08
-1.979749e-09
-7.991723e-09
-5.123684e-10
-4.409047e-09
-1.229591e-09
-6.649958e-10
1.216601e-09
-2.301197e-09
4.232639e-09
-4.785543e-09
7.547477e-09
-8.009125e-09
1.101162e-08
-1.184119e-08
1.447432e-08
-1.621519e-08
1.779092e-08
-2.110145e-08
2.086725e-08
-2.645394e-08
2.366098e-08
-3.22193e-08
2.615436e-08
-3.835185e-08
2.834099e-08
-4.481471e-08
3.022507e-08
-5.156627e-08
3.182403e-08
-5.855964e-08
3.316259e-08
-6.575195e-08
3.426517e-08
-7.31084e-08
3.515389e-08
-8.059804e-08
3.585077e-08
-8.819053e-08
3.637952e-08
-9.5857e-08
3.676417e-08
-1.035726e-07
3.702627e-08
-1.11318e-07
3.718333e-08
-1.190769e-07
3.725023e-08
-1.268342e-07
3.724095e-08
-1.345757e-07
3.716846e-08
-1.42289e-07
3.704344e-08
-1.499647e-07
3.687381e-08
-1.575958e-07
3.666552e-08
-1.651753e-07
3.642352e-08
-1.726962e-07
3.615217e-08
-1.801518e-07
3.585505e-08
-1.875365e-07
3.553459e-08
-1.948455e-07
3.519215e-08
-2.020745e-07
3.482835e-08
-2.092193e-07
3.444367e-08
-2.162749e-07
3.403855e-08
-2.232361e-07
3.361332e-08
-2.30098e-07
3.316795e-08
-2.368567e-07
3.270204e-08
-2.435078e-07
3.22149e-08
-2.500468e-07
3.17058e-08
-2.564686e-07
3.117415e-08
-2.627681e-07
3.06195e-08
-2.689401e-07
3.004136e-08
-2.749792e-07
2.943906e-08
-2.808805e-07
2.881179e-08
-2.866389e-07
2.815866e-08
-2.922491e-07
2.747888e-08
-2.977055e-07
2.677178e-08
-3.03002e-07
2.603678e-08
-3.081327e-07
2.527332e-08
-3.130915e-07
2.44808e-08
-3.17873e-07
2.365855e-08
-3.224711e-07
2.280594e-08
-3.268799e-07
2.192237e-08
-3.310931e-07
2.100737e-08
-3.351043e-07
2.00606e-08
-3.389069e-07
1.908177e-08
-3.424948e-07
1.807061e-08
-3.458616e-07
1.702685e-08
-3.490012e-07
1.595024e-08
-3.519074e-07
1.484059e-08
-3.545741e-07
1.369779e-08
-3.569949e-07
1.252185e-08
-3.591636e-07
1.131288e-08
-3.61074e-07
1.007109e-08
-3.627201e-07
8.796762e-09
-3.640958e-07
7.490252e-09
-3.651953e-07
6.151979e-09
-3.66013e-07
4.782456e-09
-3.665434e-07
3.382298e-09
-3.667809e-07
1.95224e-09
-3.667201e-07
4.931279e-10
-3.663558e-07
-9.941274e-10
-3.65683e-07
-2.508381e-09
-3.646969e-07
-4.048159e-09
-3.633932e-07
-5.611771e-09
-3.61768e-07
-7.19735e-09
-3.598177e-07
-8.802876e-09
-3.575392e-07
-1.04262e-08
-3.549299e-07
-1.206505e-08
-3.519875e-07
-1.371707e-08
-3.487102e-07
-1.537979e-08
-3.450969e-07
-1.705067e-08
-3.411468e-07
-1.87271e-08
-3.368598e-07
-2.040636e-08
-3.322363e-07
-2.208567e-08
-3.272773e-07
-2.376213e-08
-3.219846e-07
-2.543271e-08
-3.163602e-07
-2.709428e-08
-3.104071e-07
-2.874352e-08
-3.041287e-07
-3.037698e-08
-2.975292e-07
-3.199096e-08
-2.906134e-07
-3.358155e-08
-2.833871e-07
-3.514456e-08
-2.758568e-07
-3.667553e-08
-2.6803e-07
-3.816972e-08
-2.59915e-07
-3.962204e-08
-2.515215e-07
-4.1027e-08
-2.428602e-07
-4.237865e-08
-2.339432e-07
-4.367058e-08
-2.24784e-07
-4.48958e-08
-2.153978e-07
-4.604666e-08
-2.058015e-07
-4.711455e-08
-1.960138e-07
-4.808998e-08
-1.860555e-07
-4.896255e-08
-1.759497e-07
-4.972077e-08
-1.657222e-07
-5.035176e-08
-1.554014e-07
-5.084105e-08
-1.450185e-07
-5.117288e-08
-1.346078e-07
-5.133033e-08
-1.242069e-07
-5.129525e-08
-1.138571e-07
-5.104797e-08
-1.036036e-07
-5.056736e-08
-9.349474e-08
-4.983149e-08
-8.358205e-08
-4.881843e-08
-7.392122e-08
-4.750642e-08
-6.457151e-08
-4.587411e-08
-5.559458e-08
-4.390158e-08
-4.705436e-08
-4.157169e-08
-3.901667e-08
-3.887183e-08
-3.154799e-08
-3.579568e-08
-2.471489e-08
-3.234591e-08
-1.858281e-08
-2.85367e-08
-1.321526e-08
-2.439869e-08
-8.672669e-09
-1.998518e-08
-5.014344e-09
-1.537792e-08
-2.300955e-09
-1.069449e-08
-6.004699e-10
-6.100571e-09
-1.828108e-09
-6.705982e-10
1.873021e-09
-2.475578e-09
5.997013e-09
-5.18902e-09
1.02737e-08
-8.721324e-09
1.455038e-08
-1.295707e-08
1.870779e-08
-1.780303e-08
2.263483e-08
-2.319789e-08
2.625764e-08
-2.908533e-08
2.95442e-08
-3.54101e-08
3.247802e-08
-4.212211e-08
3.505309e-08
-4.917482e-08
3.727702e-08
-5.652118e-08
3.917079e-08
-6.411519e-08
4.076062e-08
-7.191612e-08
4.207183e-08
-7.988821e-08
4.31295e-08
-8.799703e-08
4.396087e-08
-9.620945e-08
4.459443e-08
-1.044964e-07
4.505687e-08
-1.128341e-07
4.537137e-08
-1.212029e-07
4.555811e-08
-1.295843e-07
4.563567e-08
-1.379611e-07
4.562143e-08
-1.463186e-07
4.553058e-08
-1.546445e-07
4.537512e-08
-1.629292e-07
4.516418e-08
-1.711645e-07
4.490507e-08
-1.79342e-07
4.460425e-08
-1.87454e-07
4.426728e-08
-1.954934e-07
4.389836e-08
-2.034545e-07
4.350015e-08
-2.11332e-07
4.307418e-08
-2.19121e-07
4.262144e-08
-2.268164e-07
4.214276e-08
-2.344127e-07
4.163884e-08
-2.419044e-07
4.111003e-08
-2.492865e-07
4.055617e-08
-2.565547e-07
3.997662e-08
-2.637044e-07
3.937059e-08
-2.707303e-07
3.873738e-08
-2.77627e-07
3.807645e-08
-2.843889e-07
3.738727e-08
-2.910107e-07
3.666913e-08
-2.974868e-07
3.592118e-08
-3.03812e-07
3.514243e-08
-3.099807e-07
3.433194e-08
-3.159872e-07
3.348887e-08
-3.218254e-07
3.26125e-08
-3.27489e-07
3.170219e-08
-3.329716e-07
3.075728e-08