/*--------------------------------*- C++ -*----------------------------------*\
| =========                 |                                                 |
| \\      /  F ield         | OpenFOAM: The Open Source CFD Toolbox           |
|  \\    /   O peration     | Version:  2406                                  |
|   \\  /    A nd           | Website:  www.openfoam.com                      |
|    \\/     M anipulation  |                                                 |
\*---------------------------------------------------------------------------*/
FoamFile
{
    version     2.0;
    format      ascii;
    arch        "LSB;label=32;scalar=64";
    class       volVectorField;
    location    "100";
    object      U;
}
// * * * * * * * * * * * * * * * * * * * * * * * * * * * * * * * * * * * * * //

dimensions      [0 1 -1 0 0 0 0];

internalField   nonuniform List<vector> 
16384
(
(-1.52391e-06 -1.544259e-06 0)
(-2.288368e-06 -8.080205e-07 0)
(-1.116322e-06 -2.621164e-07 0)
(-6.134237e-07 -1.128521e-07 0)
(-4.485231e-07 -5.541753e-08 0)
(-4.177577e-07 -2.230847e-08 0)
(-4.615196e-07 -3.513399e-09 0)
(-5.605598e-07 8.747584e-09 0)
(-6.979253e-07 1.884047e-08 0)
(-8.61643e-07 2.538604e-08 0)
(-1.045352e-06 2.84068e-08 0)
(-1.244612e-06 2.978828e-08 0)
(-1.456492e-06 3.039966e-08 0)
(-1.678689e-06 3.057216e-08 0)
(-1.908464e-06 3.09902e-08 0)
(-2.143208e-06 3.202187e-08 0)
(-2.381103e-06 3.318686e-08 0)
(-2.621035e-06 3.382737e-08 0)
(-2.862316e-06 3.383452e-08 0)
(-3.104501e-06 3.356767e-08 0)
(-3.347157e-06 3.333248e-08 0)
(-3.589785e-06 3.319552e-08 0)
(-3.831814e-06 3.312854e-08 0)
(-4.072766e-06 3.307843e-08 0)
(-4.312513e-06 3.298617e-08 0)
(-4.551129e-06 3.28376e-08 0)
(-4.788483e-06 3.26368e-08 0)
(-5.024308e-06 3.237243e-08 0)
(-5.258512e-06 3.206583e-08 0)
(-5.491156e-06 3.177026e-08 0)
(-5.722223e-06 3.149148e-08 0)
(-5.951593e-06 3.118396e-08 0)
(-6.179111e-06 3.083253e-08 0)
(-6.404615e-06 3.046839e-08 0)
(-6.627988e-06 3.010359e-08 0)
(-6.849203e-06 2.971018e-08 0)
(-7.068251e-06 2.927114e-08 0)
(-7.285001e-06 2.881044e-08 0)
(-7.499196e-06 2.836019e-08 0)
(-7.710581e-06 2.792096e-08 0)
(-7.919004e-06 2.746851e-08 0)
(-8.124384e-06 2.698809e-08 0)
(-8.326599e-06 2.648875e-08 0)
(-8.525445e-06 2.598928e-08 0)
(-8.720667e-06 2.550041e-08 0)
(-8.912014e-06 2.501907e-08 0)
(-9.099258e-06 2.453396e-08 0)
(-9.282192e-06 2.403374e-08 0)
(-9.460612e-06 2.35115e-08 0)
(-9.63431e-06 2.296636e-08 0)
(-9.803061e-06 2.240354e-08 0)
(-9.966617e-06 2.182966e-08 0)
(-1.012471e-05 2.124405e-08 0)
(-1.027707e-05 2.063513e-08 0)
(-1.042345e-05 1.998593e-08 0)
(-1.056362e-05 1.928322e-08 0)
(-1.069734e-05 1.852393e-08 0)
(-1.082439e-05 1.771549e-08 0)
(-1.094452e-05 1.686911e-08 0)
(-1.105745e-05 1.598976e-08 0)
(-1.116293e-05 1.507146e-08 0)
(-1.126072e-05 1.410185e-08 0)
(-1.135059e-05 1.307052e-08 0)
(-1.143229e-05 1.197363e-08 0)
(-1.150558e-05 1.081313e-08 0)
(-1.157022e-05 9.594237e-09 0)
(-1.162596e-05 8.323247e-09 0)
(-1.167258e-05 7.005343e-09 0)
(-1.170988e-05 5.643027e-09 0)
(-1.173765e-05 4.236666e-09 0)
(-1.175569e-05 2.786667e-09 0)
(-1.176378e-05 1.294946e-09 0)
(-1.17617e-05 -2.352303e-10 0)
(-1.17492e-05 -1.798775e-09 0)
(-1.172606e-05 -3.388599e-09 0)
(-1.169206e-05 -4.997074e-09 0)
(-1.164699e-05 -6.61733e-09 0)
(-1.159067e-05 -8.243817e-09 0)
(-1.152295e-05 -9.871748e-09 0)
(-1.144366e-05 -1.149578e-08 0)
(-1.135268e-05 -1.310917e-08 0)
(-1.124987e-05 -1.470453e-08 0)
(-1.113512e-05 -1.627571e-08 0)
(-1.100834e-05 -1.781964e-08 0)
(-1.086946e-05 -1.933703e-08 0)
(-1.071846e-05 -2.083165e-08 0)
(-1.055535e-05 -2.230925e-08 0)
(-1.038015e-05 -2.377656e-08 0)
(-1.019295e-05 -2.523986e-08 0)
(-9.993846e-06 -2.670492e-08 0)
(-9.782981e-06 -2.817738e-08 0)
(-9.560522e-06 -2.966209e-08 0)
(-9.326669e-06 -3.116216e-08 0)
(-9.081651e-06 -3.267772e-08 0)
(-8.825729e-06 -3.420403e-08 0)
(-8.559188e-06 -3.573209e-08 0)
(-8.282345e-06 -3.725151e-08 0)
(-7.995551e-06 -3.875153e-08 0)
(-7.699191e-06 -4.021868e-08 0)
(-7.393693e-06 -4.163552e-08 0)
(-7.079522e-06 -4.298248e-08 0)
(-6.757193e-06 -4.423974e-08 0)
(-6.427276e-06 -4.538625e-08 0)
(-6.090411e-06 -4.63976e-08 0)
(-5.747314e-06 -4.724799e-08 0)
(-5.398783e-06 -4.791698e-08 0)
(-5.045723e-06 -4.839225e-08 0)
(-4.689171e-06 -4.866087e-08 0)
(-4.330308e-06 -4.869998e-08 0)
(-3.970457e-06 -4.84845e-08 0)
(-3.611079e-06 -4.800601e-08 0)
(-3.25381e-06 -4.727414e-08 0)
(-2.900507e-06 -4.628925e-08 0)
(-2.553263e-06 -4.501607e-08 0)
(-2.214382e-06 -4.340319e-08 0)
(-1.886362e-06 -4.143499e-08 0)
(-1.571967e-06 -3.912051e-08 0)
(-1.274311e-06 -3.639999e-08 0)
(-9.968299e-07 -3.313297e-08 0)
(-7.431654e-07 -2.923425e-08 0)
(-5.171796e-07 -2.474754e-08 0)
(-3.230243e-07 -1.974825e-08 0)
(-1.650886e-07 -1.416635e-08 0)
(-4.7785e-08 -7.525736e-09 0)
(2.515909e-08 1.116769e-09 0)
(5.259287e-08 1.21429e-08 0)
(4.125922e-08 2.211194e-08 0)
(1.087729e-08 1.842418e-08 0)
(-7.887399e-07 -2.351296e-06 0)
(-1.584114e-06 -1.617344e-06 0)
(-1.268046e-06 -8.794262e-07 0)
(-1.063253e-06 -4.344427e-07 0)
(-1.047341e-06 -1.542423e-07 0)
(-1.164286e-06 2.983419e-08 0)
(-1.387582e-06 1.508836e-07 0)
(-1.703841e-06 2.367607e-07 0)
(-2.101763e-06 3.025337e-07 0)
(-2.56679e-06 3.525719e-07 0)
(-3.082772e-06 3.901567e-07 0)
(-3.638031e-06 4.184045e-07 0)
(-4.225608e-06 4.392295e-07 0)
(-4.839549e-06 4.545605e-07 0)
(-5.473816e-06 4.664345e-07 0)
(-6.123465e-06 4.761129e-07 0)
(-6.784671e-06 4.837351e-07 0)
(-7.453928e-06 4.890697e-07 0)
(-8.128137e-06 4.921854e-07 0)
(-8.80505e-06 4.935307e-07 0)
(-9.483114e-06 4.93623e-07 0)
(-1.016115e-05 4.928729e-07 0)
(-1.083813e-05 4.915774e-07 0)
(-1.151309e-05 4.898622e-07 0)
(-1.218526e-05 4.87692e-07 0)
(-1.285412e-05 4.850422e-07 0)
(-1.351914e-05 4.819911e-07 0)
(-1.417982e-05 4.786408e-07 0)
(-1.483592e-05 4.750409e-07 0)
(-1.548733e-05 4.711909e-07 0)
(-1.613382e-05 4.670756e-07 0)
(-1.677499e-05 4.62703e-07 0)
(-1.741044e-05 4.581132e-07 0)
(-1.803982e-05 4.533332e-07 0)
(-1.866289e-05 4.483326e-07 0)
(-1.927944e-05 4.430543e-07 0)
(-1.988917e-05 4.374829e-07 0)
(-2.049164e-05 4.316542e-07 0)
(-2.108632e-05 4.256043e-07 0)
(-2.167272e-05 4.193288e-07 0)
(-2.225046e-05 4.127939e-07 0)
(-2.281917e-05 4.059735e-07 0)
(-2.33784e-05 3.988643e-07 0)
(-2.39276e-05 3.914722e-07 0)
(-2.446617e-05 3.837969e-07 0)
(-2.499351e-05 3.758261e-07 0)
(-2.550905e-05 3.675382e-07 0)
(-2.601225e-05 3.589066e-07 0)
(-2.650252e-05 3.499065e-07 0)
(-2.69793e-05 3.405184e-07 0)
(-2.744196e-05 3.30729e-07 0)
(-2.788986e-05 3.205269e-07 0)
(-2.832233e-05 3.09894e-07 0)
(-2.873871e-05 2.987998e-07 0)
(-2.913834e-05 2.872074e-07 0)
(-2.95206e-05 2.750867e-07 0)
(-2.988484e-05 2.624248e-07 0)
(-3.023041e-05 2.492243e-07 0)
(-3.055663e-05 2.354917e-07 0)
(-3.086283e-05 2.212238e-07 0)
(-3.114833e-05 2.064034e-07 0)
(-3.14125e-05 1.910072e-07 0)
(-3.165469e-05 1.75018e-07 0)
(-3.187423e-05 1.584327e-07 0)
(-3.207046e-05 1.412623e-07 0)
(-3.224273e-05 1.235261e-07 0)
(-3.239038e-05 1.052439e-07 0)
(-3.251284e-05 8.643162e-08 0)
(-3.26095e-05 6.710062e-08 0)
(-3.26798e-05 4.726088e-08 0)
(-3.272316e-05 2.692537e-08 0)
(-3.2739e-05 6.112469e-09 0)
(-3.27267e-05 -1.515371e-08 0)
(-3.268565e-05 -3.683998e-08 0)
(-3.261526e-05 -5.890352e-08 0)
(-3.251499e-05 -8.129761e-08 0)
(-3.238431e-05 -1.039758e-07 0)
(-3.222278e-05 -1.268935e-07 0)
(-3.202998e-05 -1.500072e-07 0)
(-3.180552e-05 -1.732724e-07 0)
(-3.154907e-05 -1.966431e-07 0)
(-3.12603e-05 -2.200734e-07 0)
(-3.093897e-05 -2.435206e-07 0)
(-3.058487e-05 -2.669483e-07 0)
(-3.019787e-05 -2.903286e-07 0)
(-2.977792e-05 -3.136407e-07 0)
(-2.932505e-05 -3.368686e-07 0)
(-2.883938e-05 -3.59999e-07 0)
(-2.83211e-05 -3.830176e-07 0)
(-2.777047e-05 -4.05907e-07 0)
(-2.718787e-05 -4.286459e-07 0)
(-2.657371e-05 -4.512068e-07 0)
(-2.592853e-05 -4.735528e-07 0)
(-2.525291e-05 -4.956345e-07 0)
(-2.454754e-05 -5.173869e-07 0)
(-2.381319e-05 -5.38729e-07 0)
(-2.30507e-05 -5.595674e-07 0)
(-2.226103e-05 -5.797978e-07 0)
(-2.144524e-05 -5.993023e-07 0)
(-2.06045e-05 -6.179452e-07 0)
(-1.974011e-05 -6.355727e-07 0)
(-1.885353e-05 -6.520179e-07 0)
(-1.794636e-05 -6.67103e-07 0)
(-1.70204e-05 -6.80634e-07 0)
(-1.607767e-05 -6.923966e-07 0)
(-1.512046e-05 -7.02167e-07 0)
(-1.41513e-05 -7.097275e-07 0)
(-1.317308e-05 -7.148588e-07 0)
(-1.218904e-05 -7.173077e-07 0)
(-1.120284e-05 -7.167757e-07 0)
(-1.021855e-05 -7.129549e-07 0)
(-9.240691e-06 -7.055597e-07 0)
(-8.274257e-06 -6.942955e-07 0)
(-7.324812e-06 -6.787878e-07 0)
(-6.398535e-06 -6.585727e-07 0)
(-5.502186e-06 -6.33196e-07 0)
(-4.643054e-06 -6.022639e-07 0)
(-3.829066e-06 -5.653052e-07 0)
(-3.068912e-06 -5.216711e-07 0)
(-2.371874e-06 -4.707262e-07 0)
(-1.747459e-06 -4.121155e-07 0)
(-1.205041e-06 -3.459321e-07 0)
(-7.534191e-07 -2.728635e-07 0)
(-4.00399e-07 -1.940595e-07 0)
(-1.524141e-07 -1.110373e-07 0)
(-1.267696e-08 -2.782827e-08 0)
(2.723442e-08 4.068428e-08 0)
(8.701607e-09 5.193894e-08 0)
(-2.534342e-07 -1.183067e-06 0)
(-9.462017e-07 -1.207689e-06 0)
(-1.121791e-06 -8.012268e-07 0)
(-1.269927e-06 -3.780479e-07 0)
(-1.4958e-06 -7.432426e-09 0)
(-1.831189e-06 2.960798e-07 0)
(-2.276794e-06 5.355126e-07 0)
(-2.828652e-06 7.220907e-07 0)
(-3.482311e-06 8.683179e-07 0)
(-4.225481e-06 9.853485e-07 0)
(-5.04199e-06 1.08024e-06 0)
(-5.918261e-06 1.156355e-06 0)
(-6.843616e-06 1.216183e-06 0)
(-7.808423e-06 1.262608e-06 0)
(-8.804006e-06 1.298224e-06 0)
(-9.823464e-06 1.325067e-06 0)
(-1.086139e-05 1.344794e-06 0)
(-1.19129e-05 1.358806e-06 0)
(-1.29735e-05 1.368113e-06 0)
(-1.403948e-05 1.373395e-06 0)
(-1.51079e-05 1.375215e-06 0)
(-1.617658e-05 1.374197e-06 0)
(-1.724376e-05 1.370979e-06 0)
(-1.830798e-05 1.366064e-06 0)
(-1.936808e-05 1.359767e-06 0)
(-2.042303e-05 1.352298e-06 0)
(-2.147183e-05 1.343843e-06 0)
(-2.25137e-05 1.334537e-06 0)
(-2.35482e-05 1.324427e-06 0)
(-2.457498e-05 1.313527e-06 0)
(-2.559344e-05 1.301887e-06 0)
(-2.660291e-05 1.289592e-06 0)
(-2.760283e-05 1.276686e-06 0)
(-2.859273e-05 1.263142e-06 0)
(-2.957219e-05 1.248909e-06 0)
(-3.054071e-05 1.233958e-06 0)
(-3.149773e-05 1.2183e-06 0)
(-3.244257e-05 1.201944e-06 0)
(-3.337451e-05 1.184877e-06 0)
(-3.429283e-05 1.167067e-06 0)
(-3.51969e-05 1.148483e-06 0)
(-3.608611e-05 1.129102e-06 0)
(-3.695974e-05 1.108907e-06 0)
(-3.781693e-05 1.087874e-06 0)
(-3.865683e-05 1.06597e-06 0)
(-3.947853e-05 1.043151e-06 0)
(-4.028121e-05 1.019374e-06 0)
(-4.1064e-05 9.945953e-07 0)
(-4.182604e-05 9.687696e-07 0)
(-4.256644e-05 9.41855e-07 0)
(-4.328425e-05 9.1381e-07 0)
(-4.397851e-05 8.845879e-07 0)
(-4.464821e-05 8.541334e-07 0)
(-4.529239e-05 8.22387e-07 0)
(-4.591005e-05 7.89295e-07 0)
(-4.650022e-05 7.548202e-07 0)
(-4.706191e-05 7.189427e-07 0)
(-4.759411e-05 6.816515e-07 0)
(-4.80958e-05 6.429313e-07 0)
(-4.856597e-05 6.027563e-07 0)
(-4.900361e-05 5.610951e-07 0)
(-4.940775e-05 5.179215e-07 0)
(-4.977737e-05 4.732257e-07 0)
(-5.011146e-05 4.270166e-07 0)
(-5.040902e-05 3.793172e-07 0)
(-5.066905e-05 3.301567e-07 0)
(-5.089058e-05 2.795642e-07 0)
(-5.107269e-05 2.275675e-07 0)
(-5.121448e-05 1.741962e-07 0)
(-5.131506e-05 1.194848e-07 0)
(-5.137354e-05 6.34753e-08 0)
(-5.138901e-05 6.217772e-09 0)
(-5.136056e-05 -5.222837e-08 0)
(-5.12873e-05 -1.117864e-07 0)
(-5.116836e-05 -1.72361e-07 0)
(-5.100293e-05 -2.338482e-07 0)
(-5.079028e-05 -2.961401e-07 0)
(-5.052973e-05 -3.591273e-07 0)
(-5.022068e-05 -4.226985e-07 0)
(-4.986257e-05 -4.867403e-07 0)
(-4.945492e-05 -5.511381e-07 0)
(-4.899731e-05 -6.157798e-07 0)
(-4.848937e-05 -6.805598e-07 0)
(-4.793085e-05 -7.453821e-07 0)
(-4.732161e-05 -8.101618e-07 0)
(-4.666161e-05 -8.74823e-07 0)
(-4.595091e-05 -9.392952e-07 0)
(-4.518971e-05 -1.003508e-06 0)
(-4.43783e-05 -1.067389e-06 0)
(-4.351712e-05 -1.130857e-06 0)
(-4.260668e-05 -1.193821e-06 0)
(-4.164766e-05 -1.256171e-06 0)
(-4.064084e-05 -1.31778e-06 0)
(-3.958711e-05 -1.378491e-06 0)
(-3.848752e-05 -1.438123e-06 0)
(-3.734322e-05 -1.496463e-06 0)
(-3.615553e-05 -1.553268e-06 0)
(-3.492592e-05 -1.608264e-06 0)
(-3.365604e-05 -1.661147e-06 0)
(-3.23477e-05 -1.711577e-06 0)
(-3.100295e-05 -1.759174e-06 0)
(-2.962406e-05 -1.803519e-06 0)
(-2.821358e-05 -1.844159e-06 0)
(-2.677435e-05 -1.880609e-06 0)
(-2.530954e-05 -1.912338e-06 0)
(-2.382274e-05 -1.938769e-06 0)
(-2.231798e-05 -1.959293e-06 0)
(-2.079977e-05 -1.973279e-06 0)
(-1.927313e-05 -1.980052e-06 0)
(-1.774369e-05 -1.978852e-06 0)
(-1.621776e-05 -1.96883e-06 0)
(-1.470234e-05 -1.949086e-06 0)
(-1.320511e-05 -1.918698e-06 0)
(-1.173449e-05 -1.876686e-06 0)
(-1.029976e-05 -1.82195e-06 0)
(-8.911129e-06 -1.753291e-06 0)
(-7.579533e-06 -1.66954e-06 0)
(-6.316586e-06 -1.569606e-06 0)
(-5.134703e-06 -1.45237e-06 0)
(-4.047068e-06 -1.316675e-06 0)
(-3.06726e-06 -1.161603e-06 0)
(-2.208686e-06 -9.870769e-07 0)
(-1.483369e-06 -7.949581e-07 0)
(-9.000734e-07 -5.903087e-07 0)
(-4.631419e-07 -3.819745e-07 0)
(-1.735244e-07 -1.829621e-07 0)
(-2.915902e-08 -1.691809e-08 0)
(5.655487e-09 5.671304e-08 0)
(-1.167733e-07 -6.235969e-07 0)
(-6.248982e-07 -7.657954e-07 0)
(-1.008617e-06 -4.855521e-07 0)
(-1.403836e-06 -6.036066e-08 0)
(-1.863516e-06 3.836722e-07 0)
(-2.426282e-06 7.961096e-07 0)
(-3.105224e-06 1.156385e-06 0)
(-3.900942e-06 1.457502e-06 0)
(-4.807775e-06 1.705079e-06 0)
(-5.814851e-06 1.909219e-06 0)
(-6.909139e-06 2.07734e-06 0)
(-8.077503e-06 2.214436e-06 0)
(-9.307378e-06 2.325074e-06 0)
(-1.058736e-05 2.413467e-06 0)
(-1.190742e-05 2.482804e-06 0)
(-1.325893e-05 2.535599e-06 0)
(-1.463455e-05 2.574395e-06 0)
(-1.602793e-05 2.601766e-06 0)
(-1.743373e-05 2.619903e-06 0)
(-1.884745e-05 2.630444e-06 0)
(-2.026516e-05 2.634633e-06 0)
(-2.168363e-05 2.633539e-06 0)
(-2.310039e-05 2.628106e-06 0)
(-2.451345e-05 2.619101e-06 0)
(-2.592108e-05 2.607167e-06 0)
(-2.732175e-05 2.592859e-06 0)
(-2.871412e-05 2.576588e-06 0)
(-3.00972e-05 2.558576e-06 0)
(-3.147027e-05 2.53893e-06 0)
(-3.283263e-05 2.517751e-06 0)
(-3.418338e-05 2.495174e-06 0)
(-3.552159e-05 2.471311e-06 0)
(-3.684656e-05 2.44619e-06 0)
(-3.815765e-05 2.419771e-06 0)
(-3.945421e-05 2.391998e-06 0)
(-4.073552e-05 2.362843e-06 0)
(-4.200078e-05 2.332305e-06 0)
(-4.324909e-05 2.300383e-06 0)
(-4.447952e-05 2.26705e-06 0)
(-4.569119e-05 2.232248e-06 0)
(-4.688326e-05 2.195912e-06 0)
(-4.805487e-05 2.157983e-06 0)
(-4.920505e-05 2.118418e-06 0)
(-5.033272e-05 2.077179e-06 0)
(-5.143676e-05 2.034215e-06 0)
(-5.251608e-05 1.989458e-06 0)
(-5.356958e-05 1.942822e-06 0)
(-5.459617e-05 1.894225e-06 0)
(-5.559473e-05 1.843593e-06 0)
(-5.656407e-05 1.790859e-06 0)
(-5.7503e-05 1.735957e-06 0)
(-5.841029e-05 1.67881e-06 0)
(-5.928467e-05 1.619331e-06 0)
(-6.01249e-05 1.557433e-06 0)
(-6.092969e-05 1.493046e-06 0)
(-6.16978e-05 1.426117e-06 0)
(-6.242792e-05 1.356612e-06 0)
(-6.311876e-05 1.284505e-06 0)
(-6.376904e-05 1.209761e-06 0)
(-6.437746e-05 1.132341e-06 0)
(-6.494274e-05 1.052206e-06 0)
(-6.546359e-05 9.693295e-07 0)
(-6.593874e-05 8.837102e-07 0)
(-6.636687e-05 7.953665e-07 0)
(-6.67467e-05 7.043299e-07 0)
(-6.707694e-05 6.106379e-07 0)
(-6.735639e-05 5.143305e-07 0)
(-6.758383e-05 4.154518e-07 0)
(-6.775811e-05 3.140533e-07 0)
(-6.787808e-05 2.10197e-07 0)
(-6.794259e-05 1.039575e-07 0)
(-6.795049e-05 -4.578909e-09 0)
(-6.790063e-05 -1.153114e-07 0)
(-6.77919e-05 -2.281112e-07 0)
(-6.762322e-05 -3.428214e-07 0)
(-6.73936e-05 -4.592687e-07 0)
(-6.710212e-05 -5.772693e-07 0)
(-6.674795e-05 -6.966318e-07 0)
(-6.633036e-05 -8.17159e-07 0)
(-6.584867e-05 -9.386489e-07 0)
(-6.530231e-05 -1.060898e-06 0)
(-6.469077e-05 -1.183705e-06 0)
(-6.401368e-05 -1.306874e-06 0)
(-6.327075e-05 -1.430222e-06 0)
(-6.246185e-05 -1.553571e-06 0)
(-6.158696e-05 -1.676753e-06 0)
(-6.064623e-05 -1.799603e-06 0)
(-5.963991e-05 -1.921951e-06 0)
(-5.856842e-05 -2.043621e-06 0)
(-5.743231e-05 -2.164421e-06 0)
(-5.623227e-05 -2.284141e-06 0)
(-5.496916e-05 -2.402543e-06 0)
(-5.364399e-05 -2.519356e-06 0)
(-5.225793e-05 -2.634266e-06 0)
(-5.081229e-05 -2.746923e-06 0)
(-4.930861e-05 -2.856926e-06 0)
(-4.774858e-05 -2.96383e-06 0)
(-4.613413e-05 -3.067138e-06 0)
(-4.44674e-05 -3.166296e-06 0)
(-4.27508e-05 -3.26069e-06 0)
(-4.0987e-05 -3.349646e-06 0)
(-3.917901e-05 -3.432422e-06 0)
(-3.73302e-05 -3.508205e-06 0)
(-3.544432e-05 -3.576117e-06 0)
(-3.352556e-05 -3.63521e-06 0)
(-3.157864e-05 -3.684455e-06 0)
(-2.960888e-05 -3.722721e-06 0)
(-2.762219e-05 -3.748781e-06 0)
(-2.562516e-05 -3.761324e-06 0)
(-2.362507e-05 -3.758944e-06 0)
(-2.163007e-05 -3.740102e-06 0)
(-1.964919e-05 -3.7031e-06 0)
(-1.769234e-05 -3.646124e-06 0)
(-1.57703e-05 -3.567307e-06 0)
(-1.389482e-05 -3.464722e-06 0)
(-1.20787e-05 -3.336289e-06 0)
(-1.033573e-05 -3.179859e-06 0)
(-8.680433e-06 -2.993485e-06 0)
(-7.127918e-06 -2.775572e-06 0)
(-5.693774e-06 -2.524878e-06 0)
(-4.39383e-06 -2.240692e-06 0)
(-3.243925e-06 -1.92326e-06 0)
(-2.25906e-06 -1.574957e-06 0)
(-1.450862e-06 -1.203146e-06 0)
(-8.237593e-07 -8.237956e-07 0)
(-3.75098e-07 -4.62857e-07 0)
(-1.069395e-07 -1.571343e-07 0)
(-5.583386e-10 2.548667e-08 0)
(-7.167155e-08 -3.344922e-07 0)
(-4.719932e-07 -3.534117e-07 0)
(-9.569608e-07 -2.319959e-08 0)
(-1.531902e-06 4.701928e-07 0)
(-2.196902e-06 1.00972e-06 0)
(-2.974739e-06 1.534359e-06 0)
(-3.879922e-06 2.012816e-06 0)
(-4.911634e-06 2.431841e-06 0)
(-6.061194e-06 2.79074e-06 0)
(-7.318587e-06 3.094198e-06 0)
(-8.672379e-06 3.347784e-06 0)
(-1.010927e-05 3.557306e-06 0)
(-1.161593e-05 3.728487e-06 0)
(-1.318054e-05 3.866522e-06 0)
(-1.479258e-05 3.975822e-06 0)
(-1.644232e-05 4.060187e-06 0)
(-1.812097e-05 4.1232e-06 0)
(-1.982097e-05 4.168193e-06 0)
(-2.153605e-05 4.198128e-06 0)
(-2.326091e-05 4.215623e-06 0)
(-2.499094e-05 4.222895e-06 0)
(-2.672226e-05 4.221714e-06 0)
(-2.845177e-05 4.213481e-06 0)
(-3.017686e-05 4.199384e-06 0)
(-3.189525e-05 4.180474e-06 0)
(-3.360501e-05 4.157606e-06 0)
(-3.530449e-05 4.131375e-06 0)
(-3.699241e-05 4.102146e-06 0)
(-3.866776e-05 4.070176e-06 0)
(-4.032952e-05 4.035707e-06 0)
(-4.197648e-05 3.998965e-06 0)
(-4.360752e-05 3.96009e-06 0)
(-4.522176e-05 3.919107e-06 0)
(-4.681841e-05 3.875958e-06 0)
(-4.839659e-05 3.830583e-06 0)
(-4.995534e-05 3.782959e-06 0)
(-5.149363e-05 3.733087e-06 0)
(-5.301039e-05 3.680949e-06 0)
(-5.450453e-05 3.626485e-06 0)
(-5.5975e-05 3.5696e-06 0)
(-5.742076e-05 3.510191e-06 0)
(-5.884074e-05 3.448169e-06 0)
(-6.023375e-05 3.383471e-06 0)
(-6.159851e-05 3.316034e-06 0)
(-6.293371e-05 3.245776e-06 0)
(-6.423806e-05 3.172592e-06 0)
(-6.551028e-05 3.096361e-06 0)
(-6.674904e-05 3.016966e-06 0)
(-6.795299e-05 2.934302e-06 0)
(-6.912074e-05 2.848272e-06 0)
(-7.025086e-05 2.758778e-06 0)
(-7.13419e-05 2.665715e-06 0)
(-7.239239e-05 2.568972e-06 0)
(-7.340083e-05 2.468443e-06 0)
(-7.436572e-05 2.364041e-06 0)
(-7.528554e-05 2.255697e-06 0)
(-7.615876e-05 2.143364e-06 0)
(-7.698386e-05 2.026996e-06 0)
(-7.775932e-05 1.906544e-06 0)
(-7.848362e-05 1.781958e-06 0)
(-7.915524e-05 1.653196e-06 0)
(-7.977267e-05 1.520238e-06 0)
(-8.033437e-05 1.383087e-06 0)
(-8.08388e-05 1.24177e-06 0)
(-8.128445e-05 1.096326e-06 0)
(-8.166983e-05 9.468023e-07 0)
(-8.199348e-05 7.932548e-07 0)
(-8.225401e-05 6.357464e-07 0)
(-8.245003e-05 4.743529e-07 0)
(-8.258019e-05 3.091666e-07 0)
(-8.264314e-05 1.40297e-07 0)
(-8.263754e-05 -3.213216e-08 0)
(-8.256205e-05 -2.079736e-07 0)
(-8.241538e-05 -3.870385e-07 0)
(-8.219631e-05 -5.690986e-07 0)
(-8.190371e-05 -7.539003e-07 0)
(-8.153655e-05 -9.411714e-07 0)
(-8.109388e-05 -1.130626e-06 0)
(-8.057487e-05 -1.321967e-06 0)
(-7.997879e-05 -1.514888e-06 0)
(-7.930501e-05 -1.70908e-06 0)
(-7.8553e-05 -1.904233e-06 0)
(-7.772236e-05 -2.100042e-06 0)
(-7.681284e-05 -2.296205e-06 0)
(-7.582431e-05 -2.492428e-06 0)
(-7.475684e-05 -2.688419e-06 0)
(-7.361061e-05 -2.883879e-06 0)
(-7.238597e-05 -3.078505e-06 0)
(-7.108344e-05 -3.271976e-06 0)
(-6.97037e-05 -3.463947e-06 0)
(-6.824759e-05 -3.654049e-06 0)
(-6.671613e-05 -3.84187e-06 0)
(-6.511053e-05 -4.026955e-06 0)
(-6.343218e-05 -4.208792e-06 0)
(-6.168267e-05 -4.386814e-06 0)
(-5.986383e-05 -4.560395e-06 0)
(-5.79777e-05 -4.728841e-06 0)
(-5.602659e-05 -4.891388e-06 0)
(-5.401311e-05 -5.047187e-06 0)
(-5.194014e-05 -5.195308e-06 0)
(-4.981093e-05 -5.334731e-06 0)
(-4.762913e-05 -5.464337e-06 0)
(-4.539881e-05 -5.582898e-06 0)
(-4.312453e-05 -5.689067e-06 0)
(-4.081139e-05 -5.781385e-06 0)
(-3.846508e-05 -5.858275e-06 0)
(-3.609196e-05 -5.918e-06 0)
(-3.369915e-05 -5.958633e-06 0)
(-3.129453e-05 -5.978074e-06 0)
(-2.888685e-05 -5.974078e-06 0)
(-2.648574e-05 -5.944246e-06 0)
(-2.410182e-05 -5.885971e-06 0)
(-2.174678e-05 -5.796426e-06 0)
(-1.943333e-05 -5.672674e-06 0)
(-1.717515e-05 -5.511771e-06 0)
(-1.498696e-05 -5.310717e-06 0)
(-1.288459e-05 -5.066422e-06 0)
(-1.08848e-05 -4.775981e-06 0)
(-9.004908e-06 -4.437059e-06 0)
(-7.262415e-06 -4.048272e-06 0)
(-5.674539e-06 -3.609717e-06 0)
(-4.257909e-06 -3.123373e-06 0)
(-3.028726e-06 -2.593578e-06 0)
(-2.001851e-06 -2.029255e-06 0)
(-1.186145e-06 -1.449309e-06 0)
(-5.801347e-07 -8.881915e-07 0)
(-1.885189e-07 -3.957489e-07 0)
(-7.827428e-09 -4.688971e-08 0)
(-4.949686e-08 -1.156459e-07 0)
(-4.087724e-07 8.285471e-08 0)
(-9.603288e-07 5.530264e-07 0)
(-1.671606e-06 1.171524e-06 0)
(-2.5144e-06 1.838432e-06 0)
(-3.491747e-06 2.49043e-06 0)
(-4.608513e-06 3.094957e-06 0)
(-5.860165e-06 3.637748e-06 0)
(-7.237202e-06 4.113444e-06 0)
(-8.729051e-06 4.522525e-06 0)
(-1.032371e-05 4.86938e-06 0)
(-1.200764e-05 5.159756e-06 0)
(-1.376738e-05 5.399322e-06 0)
(-1.559071e-05 5.593601e-06 0)
(-1.746657e-05 5.748168e-06 0)
(-1.938459e-05 5.868359e-06 0)
(-2.133524e-05 5.95901e-06 0)
(-2.331024e-05 6.024392e-06 0)
(-2.53025e-05 6.068337e-06 0)
(-2.730593e-05 6.094336e-06 0)
(-2.931531e-05 6.105451e-06 0)
(-3.132629e-05 6.104193e-06 0)
(-3.333524e-05 6.092597e-06 0)
(-3.533899e-05 6.072409e-06 0)
(-3.73348e-05 6.045141e-06 0)
(-3.932039e-05 6.011974e-06 0)
(-4.129385e-05 5.973709e-06 0)
(-4.325361e-05 5.930892e-06 0)
(-4.519832e-05 5.883972e-06 0)
(-4.712661e-05 5.833364e-06 0)
(-4.903705e-05 5.779393e-06 0)
(-5.092837e-05 5.722223e-06 0)
(-5.279953e-05 5.661872e-06 0)
(-5.464954e-05 5.598286e-06 0)
(-5.647729e-05 5.531427e-06 0)
(-5.828158e-05 5.461288e-06 0)
(-6.006123e-05 5.387862e-06 0)
(-6.181499e-05 5.311098e-06 0)
(-6.354165e-05 5.230885e-06 0)
(-6.523998e-05 5.147087e-06 0)
(-6.690877e-05 5.059577e-06 0)
(-6.854677e-05 4.968249e-06 0)
(-7.015258e-05 4.873009e-06 0)
(-7.172476e-05 4.773755e-06 0)
(-7.326185e-05 4.670363e-06 0)
(-7.476239e-05 4.562688e-06 0)
(-7.622492e-05 4.45058e-06 0)
(-7.764793e-05 4.333894e-06 0)
(-7.902989e-05 4.212494e-06 0)
(-8.036919e-05 4.086249e-06 0)
(-8.166425e-05 3.95503e-06 0)
(-8.291343e-05 3.818705e-06 0)
(-8.411506e-05 3.677142e-06 0)
(-8.526745e-05 3.530221e-06 0)
(-8.636889e-05 3.377845e-06 0)
(-8.741765e-05 3.219935e-06 0)
(-8.841202e-05 3.056425e-06 0)
(-8.935028e-05 2.887252e-06 0)
(-9.023074e-05 2.712353e-06 0)
(-9.105169e-05 2.531671e-06 0)
(-9.181141e-05 2.345168e-06 0)
(-9.250818e-05 2.152827e-06 0)
(-9.314028e-05 1.954661e-06 0)
(-9.370597e-05 1.750703e-06 0)
(-9.420357e-05 1.541e-06 0)
(-9.463139e-05 1.325614e-06 0)
(-9.498784e-05 1.104615e-06 0)
(-9.527131e-05 8.780891e-07 0)
(-9.548029e-05 6.461391e-07 0)
(-9.561323e-05 4.088912e-07 0)
(-9.566863e-05 1.664928e-07 0)
(-9.564499e-05 -8.089313e-08 0)
(-9.554084e-05 -3.330677e-07 0)
(-9.535476e-05 -5.897733e-07 0)
(-9.508543e-05 -8.507024e-07 0)
(-9.47316e-05 -1.115512e-06 0)
(-9.429218e-05 -1.383833e-06 0)
(-9.376615e-05 -1.655273e-06 0)
(-9.315263e-05 -1.929425e-06 0)
(-9.245085e-05 -2.205867e-06 0)
(-9.166016e-05 -2.484167e-06 0)
(-9.078002e-05 -2.763892e-06 0)
(-8.981007e-05 -3.044604e-06 0)
(-8.875007e-05 -3.325867e-06 0)
(-8.759996e-05 -3.607239e-06 0)
(-8.635984e-05 -3.888275e-06 0)
(-8.502998e-05 -4.168516e-06 0)
(-8.361082e-05 -4.447488e-06 0)
(-8.210298e-05 -4.72469e-06 0)
(-8.050724e-05 -4.999591e-06 0)
(-7.882458e-05 -5.27162e-06 0)
(-7.705619e-05 -5.540158e-06 0)
(-7.520343e-05 -5.804527e-06 0)
(-7.32679e-05 -6.063984e-06 0)
(-7.125142e-05 -6.317715e-06 0)
(-6.915609e-05 -6.56483e-06 0)
(-6.698426e-05 -6.804355e-06 0)
(-6.473859e-05 -7.035226e-06 0)
(-6.242205e-05 -7.256272e-06 0)
(-6.003799e-05 -7.46621e-06 0)
(-5.759016e-05 -7.663635e-06 0)
(-5.508276e-05 -7.847016e-06 0)
(-5.252046e-05 -8.014666e-06 0)
(-4.990853e-05 -8.164724e-06 0)
(-4.725283e-05 -8.295145e-06 0)
(-4.45599e-05 -8.403701e-06 0)
(-4.183699e-05 -8.487953e-06 0)
(-3.909217e-05 -8.545205e-06 0)
(-3.63344e-05 -8.572489e-06 0)
(-3.357361e-05 -8.566592e-06 0)
(-3.082067e-05 -8.524086e-06 0)
(-2.808748e-05 -8.441322e-06 0)
(-2.538706e-05 -8.314409e-06 0)
(-2.273362e-05 -8.139249e-06 0)
(-2.01424e-05 -7.911718e-06 0)
(-1.76296e-05 -7.627802e-06 0)
(-1.521241e-05 -7.283618e-06 0)
(-1.290906e-05 -6.875518e-06 0)
(-1.073848e-05 -6.400449e-06 0)
(-8.719933e-06 -5.856548e-06 0)
(-6.872367e-06 -5.244106e-06 0)
(-5.213386e-06 -4.566717e-06 0)
(-3.759334e-06 -3.831968e-06 0)
(-2.526455e-06 -3.052034e-06 0)
(-1.528888e-06 -2.24753e-06 0)
(-7.715182e-07 -1.455467e-06 0)
(-2.641645e-07 -7.327622e-07 0)
(-1.451054e-08 -1.59015e-07 0)
(-3.966516e-08 8.686177e-08 0)
(-3.970825e-07 5.588745e-07 0)
(-1.004608e-06 1.230977e-06 0)
(-1.825742e-06 2.018082e-06 0)
(-2.823062e-06 2.839789e-06 0)
(-3.980791e-06 3.639006e-06 0)
(-5.291019e-06 4.384502e-06 0)
(-6.745599e-06 5.060136e-06 0)
(-8.333752e-06 5.658495e-06 0)
(-1.004275e-05 6.178666e-06 0)
(-1.185922e-05 6.624284e-06 0)
(-1.376967e-05 7.000665e-06 0)
(-1.576073e-05 7.313501e-06 0)
(-1.781963e-05 7.568798e-06 0)
(-1.993448e-05 7.773e-06 0)
(-2.209442e-05 7.932558e-06 0)
(-2.428963e-05 8.053455e-06 0)
(-2.651137e-05 8.141105e-06 0)
(-2.875193e-05 8.200437e-06 0)
(-3.100462e-05 8.235872e-06 0)
(-3.326376e-05 8.251239e-06 0)
(-3.552456e-05 8.249772e-06 0)
(-3.778293e-05 8.234227e-06 0)
(-4.00352e-05 8.206985e-06 0)
(-4.227825e-05 8.170024e-06 0)
(-4.450955e-05 8.12484e-06 0)
(-4.6727e-05 8.072497e-06 0)
(-4.892867e-05 8.013802e-06 0)
(-5.111288e-05 7.949453e-06 0)
(-5.327795e-05 7.880027e-06 0)
(-5.542228e-05 7.805918e-06 0)
(-5.754447e-05 7.727316e-06 0)
(-5.964332e-05 7.644256e-06 0)
(-6.171763e-05 7.556727e-06 0)
(-6.376607e-05 7.464725e-06 0)
(-6.578724e-05 7.368255e-06 0)
(-6.777979e-05 7.267282e-06 0)
(-6.974238e-05 7.161707e-06 0)
(-7.167366e-05 7.051378e-06 0)
(-7.357223e-05 6.93613e-06 0)
(-7.543674e-05 6.815813e-06 0)
(-7.726573e-05 6.690295e-06 0)
(-7.905769e-05 6.559443e-06 0)
(-8.081103e-05 6.423112e-06 0)
(-8.252415e-05 6.281134e-06 0)
(-8.419544e-05 6.13333e-06 0)
(-8.582329e-05 5.97952e-06 0)
(-8.740605e-05 5.81953e-06 0)
(-8.8942e-05 5.653195e-06 0)
(-9.04294e-05 5.480357e-06 0)
(-9.186651e-05 5.300855e-06 0)
(-9.325152e-05 5.114534e-06 0)
(-9.458262e-05 4.921246e-06 0)
(-9.585794e-05 4.720865e-06 0)
(-9.70756e-05 4.513284e-06 0)
(-9.82337e-05 4.298413e-06 0)
(-9.933038e-05 4.076172e-06 0)
(-0.0001003638 3.846481e-06 0)
(-0.0001013321 3.609268e-06 0)
(-0.0001022333 3.364471e-06 0)
(-0.0001030657 3.112055e-06 0)
(-0.0001038273 2.852012e-06 0)
(-0.0001045163 2.584362e-06 0)
(-0.0001051308 2.309148e-06 0)
(-0.0001056689 2.026428e-06 0)
(-0.0001061288 1.736275e-06 0)
(-0.0001065088 1.438781e-06 0)
(-0.0001068071 1.134054e-06 0)
(-0.0001070221 8.222291e-07 0)
(-0.0001071522 5.034691e-07 0)
(-0.0001071956 1.779618e-07 0)
(-0.0001071508 -1.540867e-07 0)
(-0.0001070162 -4.924195e-07 0)
(-0.0001067903 -8.367019e-07 0)
(-0.0001064716 -1.18654e-06 0)
(-0.000106059 -1.541494e-06 0)
(-0.0001055512 -1.901089e-06 0)
(-0.0001049471 -2.26482e-06 0)
(-0.0001042459 -2.63216e-06 0)
(-0.0001034468 -3.00256e-06 0)
(-0.0001025492 -3.375458e-06 0)
(-0.0001015525 -3.750277e-06 0)
(-0.0001004564 -4.126433e-06 0)
(-9.926067e-05 -4.50333e-06 0)
(-9.796535e-05 -4.880362e-06 0)
(-9.657059e-05 -5.256903e-06 0)
(-9.507674e-05 -5.632304e-06 0)
(-9.348431e-05 -6.005892e-06 0)
(-9.179401e-05 -6.376956e-06 0)
(-9.000674e-05 -6.744747e-06 0)
(-8.812362e-05 -7.108462e-06 0)
(-8.614594e-05 -7.467242e-06 0)
(-8.407524e-05 -7.820158e-06 0)
(-8.19133e-05 -8.166205e-06 0)
(-7.966215e-05 -8.504298e-06 0)
(-7.732412e-05 -8.833261e-06 0)
(-7.490184e-05 -9.151816e-06 0)
(-7.239827e-05 -9.458574e-06 0)
(-6.981674e-05 -9.752023e-06 0)
(-6.716099e-05 -1.00305e-05 0)
(-6.443521e-05 -1.029221e-05 0)
(-6.164407e-05 -1.053514e-05 0)
(-5.879281e-05 -1.075713e-05 0)
(-5.588725e-05 -1.095575e-05 0)
(-5.293391e-05 -1.112835e-05 0)
(-4.994002e-05 -1.127195e-05 0)
(-4.69136e-05 -1.138332e-05 0)
(-4.386349e-05 -1.145891e-05 0)
(-4.079951e-05 -1.149483e-05 0)
(-3.77325e-05 -1.148683e-05 0)
(-3.467433e-05 -1.143035e-05 0)
(-3.163794e-05 -1.132057e-05 0)
(-2.863738e-05 -1.115247e-05 0)
(-2.568793e-05 -1.09208e-05 0)
(-2.280603e-05 -1.062018e-05 0)
(-2.000912e-05 -1.024544e-05 0)
(-1.731552e-05 -9.79181e-06 0)
(-1.474441e-05 -9.255101e-06 0)
(-1.231564e-05 -8.631957e-06 0)
(-1.004967e-05 -7.92034e-06 0)
(-7.967138e-06 -7.120348e-06 0)
(-6.087719e-06 -6.235938e-06 0)
(-4.42897e-06 -5.27676e-06 0)
(-3.007682e-06 -4.258748e-06 0)
(-1.841488e-06 -3.205196e-06 0)
(-9.430614e-07 -2.153167e-06 0)
(-3.303689e-07 -1.160438e-06 0)
(-1.992202e-08 -3.070373e-07 0)
(-3.46465e-08 2.864359e-07 0)
(-4.076483e-07 1.074822e-06 0)
(-1.073382e-06 1.997768e-06 0)
(-1.99228e-06 2.990525e-06 0)
(-3.123473e-06 3.993902e-06 0)
(-4.440284e-06 4.961043e-06 0)
(-5.92562e-06 5.861979e-06 0)
(-7.566404e-06 6.680118e-06 0)
(-9.348514e-06 7.408294e-06 0)
(-1.12569e-05 8.045496e-06 0)
(-1.327699e-05 8.594565e-06 0)
(-1.539489e-05 9.060573e-06 0)
(-1.759692e-05 9.44979e-06 0)
(-1.986978e-05 9.769126e-06 0)
(-2.220105e-05 1.002584e-05 0)
(-2.457945e-05 1.022721e-05 0)
(-2.699482e-05 1.038023e-05 0)
(-2.943802e-05 1.049153e-05 0)
(-3.190094e-05 1.056714e-05 0)
(-3.437657e-05 1.061242e-05 0)
(-3.685887e-05 1.0632e-05 0)
(-3.934262e-05 1.062993e-05 0)
(-4.182328e-05 1.060976e-05 0)
(-4.429684e-05 1.057447e-05 0)
(-4.675992e-05 1.052646e-05 0)
(-4.920981e-05 1.046755e-05 0)
(-5.164412e-05 1.039917e-05 0)
(-5.406062e-05 1.032244e-05 0)
(-5.645728e-05 1.023832e-05 0)
(-5.883227e-05 1.014753e-05 0)
(-6.118381e-05 1.005052e-05 0)
(-6.351039e-05 9.94751e-06 0)
(-6.581062e-05 9.838605e-06 0)
(-6.80831e-05 9.723856e-06 0)
(-7.032628e-05 9.603293e-06 0)
(-7.253862e-05 9.47691e-06 0)