/*--------------------------------*- C++ -*----------------------------------*\
  =========                 |
  \\      /  F ield         | OpenFOAM: The Open Source CFD Toolbox
   \\    /   O peration     | Website:  https://openfoam.org
    \\  /    A nd           | Version:  11
     \\/     M anipulation  |
\*---------------------------------------------------------------------------*/
FoamFile
{
    format      ascii;
    class       volScalarField;
    location    "6.5";
    object      mag(U);
}
// * * * * * * * * * * * * * * * * * * * * * * * * * * * * * * * * * * * * * //

dimensions      [0 1 -1 0 0 0 0];

internalField   nonuniform List<scalar> 
9600
(
0.968698
0.966592
0.9625
0.956629
0.952902
0.950766
0.945535
0.938434
0.935238
0.935852
0.934799
0.934744
0.936443
0.939424
0.94417
0.953838
0.96694
0.970494
0.966461
0.951895
0.937839
0.922289
0.908874
0.898086
0.887996
0.877644
0.870138
0.868641
0.876079
0.898899
0.934787
0.99343
1.08323
1.19209
1.27
1.28638
1.275
1.23189
1.16358
1.01963
0.971385
0.970223
0.968446
0.965931
0.963067
0.961177
0.960235
0.958957
0.957371
0.957408
0.958199
0.960507
0.965236
0.969669
0.975686
0.988909
1.00502
1.01569
1.02309
1.02625
1.02571
1.02168
1.00861
0.990485
0.973704
0.957341
0.943446
0.935358
0.93403
0.937855
0.955196
0.998184
1.07145
1.17032
1.27457
1.34391
1.35904
1.33421
1.2853
1.17478
0.970076
0.968978
0.967313
0.965375
0.962782
0.96047
0.959694
0.958764
0.957677
0.957826
0.958884
0.961388
0.966363
0.972378
0.978112
0.987624
1.00248
1.0186
1.03306
1.04055
1.04096
1.03724
1.02305
1.0027
0.985891
0.968605
0.951043
0.938719
0.935482
0.939681
0.956997
0.995263
1.05117
1.13234
1.2381
1.32289
1.34825
1.34202
1.31333
1.21774
0.969959
0.968724
0.966901
0.964962
0.962058
0.959992
0.959298
0.95798
0.956803
0.957109
0.958496
0.961689
0.966497
0.973048
0.97927
0.98851
1.00279
1.01786
1.03483
1.04854
1.0526
1.05106
1.04368
1.02847
1.0125
0.994972
0.976354
0.958369
0.946803
0.943756
0.95334
0.980657
1.0356
1.10768
1.20095
1.30045
1.3679
1.37507
1.34781
1.25241
0.969251
0.968038
0.966037
0.964004
0.96165
0.960006
0.959151
0.957577
0.957027
0.957472
0.958903
0.962421
0.966821
0.973455
0.982404
0.991737
1.00131
1.01626
1.03328
1.05209
1.06342
1.06468
1.06028
1.04861
1.02827
1.00587
0.984064
0.962813
0.949605
0.944343
0.951114
0.971505
1.02353
1.08501
1.16878
1.26558
1.35546
1.38684
1.37069
1.2869
0.968752
0.967608
0.965157
0.963567
0.961626
0.959564
0.958473
0.957318
0.956445
0.956828
0.958665
0.962526
0.96672
0.973839
0.983134
0.992658
1.00195
1.01745
1.03477
1.05286
1.0665
1.0704
1.06721
1.05771
1.04204
1.02078
1.00014
0.977328
0.959385
0.944233
0.948083
0.958085
1.00251
1.05758
1.14131
1.22653
1.33319
1.39833
1.40044
1.32801
0.967894
0.966752
0.964213
0.962952
0.960805
0.958939
0.958025
0.956881
0.956362
0.957081
0.958993
0.962894
0.967192
0.97524
0.983886
0.993699
1.00397
1.0195
1.03526
1.05236
1.06816
1.07559
1.07479
1.06713
1.05279
1.02963
1.00904
0.982632
0.96509
0.946004
0.946991
0.94927
0.98698
1.03007
1.11719
1.19309
1.30287
1.39345
1.42835
1.36386
0.967291
0.966087
0.963668
0.962345
0.960278
0.958591
0.95767
0.956551
0.956107
0.956864
0.958903
0.962949
0.967814
0.975259
0.9842
0.994625
1.00579
1.02047
1.03591
1.05291
1.06985
1.0789
1.07981
1.07221
1.05993
1.03669
1.01814
0.989924
0.973302
0.948155
0.94583
0.940644
0.968142
0.997099
1.08226
1.15339
1.26288
1.36302
1.45302
1.39749
0.966316
0.965038
0.962913
0.9615
0.959475
0.957951
0.957084
0.956265
0.955824
0.957042
0.959107
0.963168
0.968576
0.976
0.98507
0.995916
1.00754
1.02264
1.03816
1.05363
1.07004
1.08062
1.08461
1.07745
1.06738
1.04364
1.02449
0.994364
0.977714
0.949119
0.944217
0.932844
0.955266
0.971821
1.04399
1.10684
1.22513
1.31709
1.46436
1.42534
0.965636
0.96435
0.962353
0.960663
0.958925
0.957488
0.956744
0.955976
0.955532
0.957036
0.959197
0.963254
0.968943
0.976721
0.985273
0.996818
1.0093
1.02429
1.03939
1.0541
1.07018
1.08245
1.08891
1.08407
1.07422
1.04978
1.03143
0.998996
0.981681
0.951274
0.94388
0.925203
0.939098
0.941247
1.00046
1.05197
1.175
1.26355
1.44566
1.4428
0.964589
0.96336
0.961488
0.959518
0.958112
0.956989
0.956007
0.955662
0.955519
0.956791
0.959594
0.964219
0.96876
0.977285
0.986452
0.99851
1.01086
1.02464
1.0415
1.05683
1.07201
1.08264
1.09163
1.08779
1.08055
1.05916
1.04033
1.00589
0.987195
0.951382
0.940513
0.915568
0.925029
0.916585
0.961319
1.00248
1.12491
1.21334
1.41501
1.45482
0.96373
0.962536
0.960586
0.958761
0.957536
0.956413
0.955543
0.955167
0.955407
0.956587
0.959655
0.964325
0.969026
0.977696
0.987095
0.999067
1.0127
1.02679
1.04322
1.05816
1.07327
1.08344
1.09379
1.09245
1.08726
1.06733
1.05007
1.01337
0.99306
0.954134
0.94089
0.909993
0.911162
0.893151
0.921778
0.953098
1.05754
1.15109
1.36293
1.45261
0.96266
0.961507
0.959514
0.957947
0.956795
0.955733
0.955091
0.954545
0.955326
0.956994
0.959062
0.964512
0.970507
0.97759
0.98766
1.00016
1.01575
1.02924
1.04462
1.0588
1.07614
1.08532
1.09677
1.09566
1.09268
1.07417
1.05893
1.02437
1.00326
0.960806
0.943018
0.904939
0.899635
0.878356
0.8876
0.92024
0.977084
1.08704
1.27877
1.43697
0.961762
0.960573
0.95856
0.956971
0.955989
0.954736
0.954153
0.954354
0.954672
0.956826
0.959374
0.963965
0.970822
0.978108
0.988268
1.00141
1.01701
1.03109
1.04773
1.06095
1.07855
1.08743
1.09895
1.09856
1.0982
1.08119
1.06795
1.03566
1.01447
0.969965
0.949024
0.910469
0.891577
0.87458
0.854078
0.896581
0.902259
1.01805
1.16593
1.4116
0.960437
0.95942
0.957547
0.955983
0.955285
0.953981
0.953248
0.954303
0.954275
0.956517
0.959593
0.964139
0.970735
0.979049
0.989674
1.00217
1.01893
1.03326
1.05149
1.06379
1.08103
1.08881
1.10224
1.10231
1.10401
1.08755
1.07588
1.04521
1.02517
0.983213
0.957868
0.923416
0.885737
0.873628
0.839124
0.87075
0.862743
0.958477
1.08169
1.34121
0.959316
0.958229
0.95642
0.954893
0.953671
0.95323
0.952083
0.953304
0.953955
0.956245
0.959133
0.964515
0.970892
0.979375
0.990386
1.00318
1.02061
1.03584
1.05438
1.06648
1.08453
1.09129
1.10503
1.10544
1.10948
1.0939
1.08375
1.05444
1.03569
0.998936
0.963544
0.94026
0.892159
0.87625
0.83375
0.847368
0.825199
0.889446
1.01522
1.18442
0.958161
0.957178
0.955416
0.95389
0.952508
0.952444
0.95133
0.95304
0.953088
0.95631
0.9591
0.964634
0.971912
0.980032
0.991488
1.00398
1.02253
1.03848
1.05826
1.06974
1.08914
1.09511
1.10833
1.1088
1.11533
1.10162
1.09331
1.0661
1.04277
1.01829
0.973985
0.950329
0.902026
0.88311
0.835526
0.833669
0.801045
0.819666
0.927994
1.04547
0.95698
0.955806
0.953436
0.952589
0.950863
0.950775
0.950165
0.951974
0.952393
0.955664
0.958266
0.964394
0.972625
0.980381
0.993373
1.00503
1.02427
1.03898
1.06224
1.07437
1.09323
1.09899
1.11269
1.11233
1.12082
1.10939
1.10103
1.08292
1.0498
1.0298
0.988042
0.964799
0.914328
0.88919
0.848096
0.827818
0.794807
0.759439
0.824689
0.951144
0.955929
0.954653
0.952041
0.951563
0.949541
0.949916
0.949078
0.950876
0.952592
0.954997
0.95908
0.96392
0.97381
0.980352
0.996278
1.00669
1.02731
1.04079
1.06524
1.07757
1.09827
1.10495
1.11893
1.11842
1.12434
1.12173
1.10646
1.09768
1.06625
1.046
1.00218
0.978083
0.934478
0.898116
0.864846
0.828312
0.80512
0.740578
0.762911
0.840586
0.95386
0.952717
0.950271
0.949235
0.948011
0.947791
0.947749
0.948737
0.951276
0.954058
0.959251
0.962503
0.97466
0.981163
0.997222
1.00811
1.03002
1.04403
1.06843
1.08112
1.10182
1.11139
1.12288
1.12963
1.12564
1.13131
1.11513
1.10859
1.0797
1.06172
1.02218
0.991495
0.957461
0.90814
0.883777
0.843359
0.815271
0.748741
0.745002
0.751789
0.952129
0.951111
0.948703
0.947561
0.947049
0.945854
0.947279
0.947797
0.950552
0.952832
0.960073
0.963152
0.975318
0.982604
0.999971
1.01096
1.03279
1.04712
1.07064
1.08864
1.10432
1.1212
1.12486
1.14014
1.1341
1.13987
1.12587
1.12089
1.09448
1.07829
1.04384
1.00977
0.983765
0.933136
0.894674
0.870973
0.834527
0.765026
0.750818
0.7208
0.949658
0.948062
0.946242
0.94407
0.944404
0.943523
0.944513
0.945408
0.949552
0.950491
0.959226
0.962925
0.975466
0.983126
1.00118
1.01435
1.03403
1.05449
1.07089
1.09529
1.10593
1.12885
1.13151
1.14678
1.14284
1.14918
1.13605
1.1333
1.10966
1.09312
1.064
1.02679
1.00145
0.962953
0.912729
0.884567
0.86074
0.799389
0.763278
0.727026
0.948121
0.945984
0.944617
0.941904
0.942774
0.941971
0.943254
0.94354
0.949199
0.950522
0.958584
0.963948
0.976072
0.987432
1.00055
1.02107
1.03489
1.06105
1.07553
1.101
1.11183
1.13435
1.13856
1.15498
1.15228
1.16018
1.1492
1.14675
1.12579
1.11099
1.08718
1.05061
1.0195
0.991592
0.942763
0.903793
0.883866
0.838849
0.790768
0.749181
0.945226
0.942569
0.941311
0.938128
0.939004
0.93801
0.940901
0.939929
0.944916
0.94968
0.955297
0.965245
0.972816
0.990544
1.00196
1.02364
1.03913
1.06517
1.07971
1.10639
1.11713
1.13996
1.1461
1.16185
1.16128
1.17099
1.15999
1.16113
1.14375
1.12684
1.10835
1.07825
1.04039
1.01536
0.977657
0.926651
0.900212
0.867985
0.823725
0.776161
0.943432
0.94077
0.93955
0.937148
0.936716
0.936727
0.93773
0.941934
0.942493
0.950528
0.954653
0.966655
0.975957
0.990684
1.00721
1.02637
1.04553
1.06964
1.08629
1.11403
1.12354
1.14794
1.1522
1.17246
1.17012
1.18088
1.17618
1.17458
1.16282
1.14952
1.12782
1.10729
1.0723
1.03676
1.01084
0.962773
0.926388
0.89496
0.862295
0.810837
0.938303
0.936943
0.934146
0.93376
0.930869
0.934627
0.931759
0.937591
0.940277
0.946277
0.955551
0.962839
0.978999
0.990184
1.01229
1.02596
1.05504
1.06922
1.09469
1.1173
1.12988
1.15513
1.15986
1.17887
1.17968
1.1919
1.18657
1.18945
1.18092
1.1702
1.15261
1.13195
1.10612
1.06733
1.03928
1.00429
0.958779
0.922187
0.89908
0.848004
0.934485
0.934944
0.931193
0.932354
0.929256
0.932124
0.934496
0.93496
0.942433
0.945138
0.95795
0.965003
0.983068
0.993946
1.01807
1.03287
1.06083
1.0788
1.10327
1.12503
1.13903
1.16289
1.16732
1.18843
1.19012
1.20094
1.20327
1.2032
1.19886
1.19392
1.18039
1.15735
1.14001
1.10935
1.07193
1.03897
1.00505
0.958766
0.934197
0.88816
0.926674
0.927465
0.923728
0.9231
0.925283
0.923388
0.930218
0.929929
0.939904
0.942916
0.957763
0.965188
0.984263
0.997109
1.01976
1.0407
1.06287
1.0891
1.1068
1.13521
1.14428
1.17142
1.17835
1.19355
1.203
1.21146
1.21244
1.21739
1.21772
1.2117
1.20219
1.19291
1.1716
1.14565
1.11557
1.07774
1.05115
1.00154
0.978606
0.929253
0.925547
0.922786
0.922956
0.918903
0.92314
0.920725
0.929032
0.929365
0.939717
0.946208
0.958845
0.972526
0.987232
1.00871
1.02471
1.05391
1.06993
1.10209
1.11621
1.14461
1.15803
1.17771
1.18911
1.20613
1.21329
1.22114
1.22843
1.23629
1.2315
1.23361
1.23045
1.22261
1.20525
1.18496
1.16627
1.12162
1.10053
1.05161
1.02987
0.977662
0.917399
0.913136
0.913962
0.909271
0.913557
0.913721
0.917612
0.925264
0.930441
0.944243
0.952873
0.972935
0.986728
1.01179
1.02909
1.0577
1.0809
1.10472
1.12757
1.15221
1.16505
1.18532
1.20029
1.21273
1.2187
1.23493
1.24084
1.24598
1.24869
1.25507
1.25425
1.24514
1.24569
1.22269
1.21341
1.17468
1.15725
1.10604
1.08529
1.0337
0.913771
0.912288
0.909729
0.912155
0.909236
0.91644
0.918272
0.928017
0.935262
0.949095
0.962233
0.978877
1.00025
1.01989
1.04368
1.06972
1.09199
1.11901
1.1409
1.16129
1.17747
1.19829
1.2086
1.2211
1.23273
1.24611
1.25098
1.25777
1.27091
1.26961
1.28003
1.27182
1.28286
1.26093
1.26548
1.23117
1.22111
1.17549
1.15462
1.10175
0.89416
0.898394
0.894714
0.8979
0.900482
0.904804
0.912735
0.918415
0.933311
0.944985
0.963287
0.982378
1.00211
1.02772
1.05417
1.07637
1.1045
1.13055
1.15148
1.16927
1.19201
1.20546
1.21781
1.23
1.2462
1.24884
1.2657
1.26691
1.28634
1.28089
1.30408
1.29335
1.31287
1.29709
1.30874
1.28532
1.28357
1.24793
1.23164
1.18249
0.893359
0.892853
0.894136
0.893187
0.899017
0.904585
0.91545
0.925882
0.941176
0.953786
0.978855
0.99593
1.02135
1.04304
1.07531
1.09402
1.12687
1.14617
1.17229
1.1843
1.21236
1.21554
1.23834
1.24025
1.26235
1.26092
1.28306
1.28066
1.30316
1.29876
1.32404
1.31781
1.34339
1.33445
1.3543
1.33997
1.34844
1.32628
1.32016
1.28098
0.874721
0.874957
0.877699
0.878126
0.888863
0.890532
0.908389
0.916501
0.939319
0.953321
0.98283
0.999239
1.03344
1.05281
1.08939
1.10678
1.14437
1.15673
1.18991
1.1961
1.22441
1.22659
1.25016
1.25139
1.27265
1.27264
1.2941
1.29376
1.31642
1.31507
1.33926
1.33736
1.36539
1.36219
1.39353
1.38891
1.41327
1.40042
1.41323
1.38248
0.872758
0.869981
0.879138
0.878792
0.893842
0.900506
0.921679
0.934529
0.958585
0.97797
1.00707
1.02829
1.06005
1.0857
1.1163
1.14117
1.16956
1.1896
1.21313
1.22535
1.24685
1.25369
1.27076
1.27644
1.29356
1.29811
1.31328
1.31881
1.33456
1.3371
1.35502
1.35643
1.37938
1.38177
1.4099
1.41537
1.44643
1.45758
1.48344
1.49515
0.847251
0.851474
0.860055
0.871703
0.87936
0.900598
0.914642
0.943633
0.961769
0.997102
1.01828
1.05515
1.07918
1.11537
1.13992
1.17188
1.1938
1.21896
1.23501
1.25329
1.26443
1.27863
1.28627
1.29742
1.30316
1.31521
1.31726
1.3296
1.3298
1.34237
1.34095
1.35205
1.34841
1.35892
1.35644
1.37039
1.37032
1.39244
1.39196
1.44148
0.841408
0.852963
0.872157
0.889225
0.915476
0.937267
0.968555
0.990809
1.02525
1.0525
1.08778
1.11848
1.15082
1.18288
1.21116
1.23718
1.25933
1.27605
1.28754
1.29503
1.29709
1.30154
1.30261
1.3068
1.31277
1.3164
1.32095
1.31822
1.31407
1.30243
1.2928
1.27953
1.25976
1.23317
1.19985
1.16431
1.11593
1.08445
1.02086
1.0395
0.812631
0.835869
0.854498
0.87836
0.905187
0.935238
0.971773
1.00719
1.04738
1.08441
1.12291
1.15838
1.19161
1.22261
1.24912
1.26999
1.28631
1.29473
1.29806
1.29725
1.28967
1.28759
1.27837
1.28159
1.28883
1.29502
1.29097
1.26486
1.23415
1.17525
1.12359
1.05163
0.986713
0.881492
0.775145
0.651725
0.528953
0.420524
0.323278
0.301538
0.879422
0.92126
0.969351
1.00998
1.05274
1.08957
1.13043
1.16479
1.20121
1.2303
1.25889
1.28018
1.29844
1.31149
1.32283
1.32919
1.32879
1.32324
1.30873
1.29259
1.26386
1.24137
1.20651
1.18677
1.14976
1.12833
1.07217
0.980757
0.891224
0.76104
0.611668
0.417629
0.24494
0.127767
0.0579789
0.0369686
0.0510095
0.0751713
0.0854342
0.138465
0.997345
1.03433
1.06776
1.10396
1.13864
1.17006
1.1975
1.21989
1.23624
1.2473
1.25561
1.25644
1.25891
1.25385
1.24671
1.22768
1.20452
1.17037
1.12897
1.07869
1.01696
0.948506
0.864293
0.783007
0.692167
0.630267
0.364889
0.151305
0.302688
0.30849
0.244177
0.210912
0.244199
0.271691
0.284224
0.294813
0.302624
0.305929
0.308441
0.338399
1.13602
1.14206
1.08878
0.985666
0.880167
0.818478
0.804143
0.872624
0.982064
1.0073
1.00277
1.00453
1.00811
1.00958
1.01242
1.01356
1.0143
1.01554
1.01567
1.01618
1.01615
1.01604
1.01597
1.0158
1.01556
1.01544
1.01487
1.01474
1.01429
1.01414
1.01378
1.01362
1.01328
1.01308
1.01266
1.01246
1.01202
1.01202
1.01232
1.01467
1.17437
1.16818
1.10732
0.984246
0.865165
0.802882
0.790477
0.847693
0.963821
1.00053
0.999713
1.00233
1.00744
1.00931
1.0125
1.01391
1.01463
1.01584
1.01614
1.01651
1.01671
1.01658
1.01651
1.01621
1.01595
1.01586
1.01528
1.01514
1.01465
1.01451
1.01412
1.01399
1.01361
1.01347
1.013
1.01292
1.01237
1.01222
1.0115
1.00928
1.19307
1.20073
1.13793
0.988565
0.851014
0.784447
0.776731
0.832514
0.94787
0.991269
0.995493
0.999866
1.00654
1.00924
1.01273
1.01433
1.01555
1.01666
1.01687
1.01724
1.01746
1.01719
1.01734
1.01686
1.0166
1.01632
1.01584
1.01569
1.01516
1.01502
1.01459
1.01449
1.014
1.01387
1.01331
1.01337
1.01288
1.0129
1.01314
1.01525
1.22942
1.24266
1.17088
0.982225
0.826384
0.758308
0.758132
0.806797
0.928454
0.98217
0.992042
0.997335
1.00542
1.00882
1.0126
1.01456
1.01598
1.01699
1.01739
1.01764
1.01789
1.01752
1.01776
1.01732
1.0172
1.01676
1.01641
1.01611
1.01577
1.01544
1.01518
1.01509
1.01472
1.01461
1.01394
1.01372
1.01306
1.01291
1.01205
1.0102
1.26128
1.29203
1.21016
0.973898
0.798597
0.727178
0.738878
0.791504
0.910983
0.97081
0.986652
0.994799
1.00428
1.00882
1.01269
1.01492
1.0168
1.01779
1.0183
1.01847
1.01882
1.01821
1.01844
1.01783
1.01785
1.01726
1.0171
1.01664
1.01639
1.016
1.0157
1.01558
1.01516
1.01506
1.01442
1.01425
1.0137
1.0137
1.0136
1.01492
1.31545
1.35444
1.22637
0.951078
0.756102
0.687225
0.712156
0.765409
0.8939
0.960974
0.981884
0.992816
1.00307
1.00835
1.0123
1.01504
1.01723
1.01806
1.01906
1.01905
1.01959
1.01883
1.01907
1.01831
1.0184
1.01769
1.01762
1.017
1.01684
1.01627
1.01601
1.01579
1.01546
1.0153
1.0147
1.01446
1.01385
1.01377
1.01298
1.01162
1.37167
1.40933
1.22965
0.915403
0.704911
0.64141
0.685251
0.751538
0.878072
0.949982
0.975741
0.991268
1.00194
1.00853
1.01245
1.01545
1.01783
1.01876
1.02015
1.01992
1.02057
1.01972
1.01992
1.01913
1.0192
1.01845
1.01843
1.01766
1.01751
1.01682
1.01645
1.01612
1.01577
1.01571
1.01534
1.01526
1.01465
1.01461
1.01423
1.01488
1.44711
1.44766
1.22002
0.85487
0.635995
0.589701
0.653099
0.730177
0.865342
0.941687
0.971201
0.9903
1.00092
1.00842
1.01234
1.01567
1.01806
1.01896
1.02066
1.02035
1.02111
1.02045
1.02072
1.02002
1.02001
1.01933
1.01924
1.01849
1.01835
1.01762
1.01727
1.01675
1.01643
1.01617
1.0158
1.01557
1.01493
1.01482
1.01411
1.01315
1.52044
1.47326
1.18227
0.770598
0.55711
0.538137
0.627806
0.722226
0.855858
0.933387
0.966239
0.990316
1.0008
1.00961
1.01327
1.0167
1.01883
1.01983
1.02145
1.02118
1.02179
1.02134
1.02145
1.02108
1.02084
1.02026
1.02012
1.01947
1.01925
1.01855
1.0182
1.01758
1.01732
1.01698
1.01663
1.01637
1.01589
1.01558
1.01512
1.0152
1.58168
1.4817
1.11331
0.666192
0.474961
0.49702
0.608488
0.714769
0.85193
0.928586
0.964227
0.991191
1.00118
1.0108
1.01406
1.01772
1.01946
1.02083
1.02195
1.02221
1.02225
1.02223
1.02194
1.02182
1.02136
1.02095
1.02059
1.02003
1.01975
1.01902
1.0187
1.0179
1.01763
1.01717
1.01689
1.0166
1.01625
1.01596
1.01541
1.01472
1.61445
1.48245
1.03561
0.578196
0.42666
0.484174
0.610204
0.724318
0.853227
0.92604
0.963427
0.992819
1.00268
1.01318
1.0158
1.01988
1.02095
1.02285
1.02302
1.02379
1.02308
1.02362
1.02277
1.02306
1.02217
1.02199
1.02132
1.02083
1.02038
1.01972
1.01943
1.01867
1.01846
1.01783
1.01767
1.01731
1.01721
1.01678
1.01627
1.01598
1.63448
1.48583
0.994905
0.566122
0.448912
0.512795
0.630544
0.741699
0.861882
0.928435
0.965782
0.995611
1.00458
1.01558
1.0174
1.022
1.02213
1.02467
1.02384
1.02538
1.02395
1.02518
1.02384
1.02459
1.02337
1.02347
1.02243
1.0222
1.02148
1.02093
1.02035
1.0196
1.01918
1.01841
1.01819
1.01763
1.01764
1.01713
1.01692
1.01628
1.62664
1.4958
1.02957
0.666823
0.54854
0.580583
0.676427
0.773438
0.875048
0.934735
0.970848
1.00074
1.00801
1.01947
1.01996
1.02501
1.02391
1.02716
1.02517
1.02739
1.02539
1.02703
1.02523
1.02628
1.02467
1.02504
1.02356
1.02367
1.02262
1.02247
1.02157
1.02117
1.0204
1.01971
1.01914
1.01848
1.01837
1.01777
1.01758
1.0172
1.5863
1.48941
1.12036
0.811545
0.680414
0.66822
0.732559
0.809975
0.89513
0.947529
0.980307
1.00803
1.01326
1.02394
1.02286
1.02812
1.02567
1.02934
1.02661
1.02919
1.02668
1.02835
1.02626
1.02726
1.0254
1.02587
1.02417
1.02434
1.02299
1.02311
1.0219
1.0218
1.02071
1.02034
1.01943
1.01897
1.0186
1.01815
1.01801
1.0178
1.52863
1.45418
1.18575
0.950137
0.796435
0.756101
0.793226
0.852189
0.918925
0.965857
0.993826
1.01814
1.02152
1.03036
1.02772
1.03243
1.02893
1.03241
1.02899
1.03129
1.02832
1.02981
1.02731
1.02825
1.02618
1.02666
1.0249
1.02511
1.02378
1.024
1.02282
1.02292
1.02175
1.02164
1.02056
1.02034
1.01937
1.0191
1.01866
1.01834
1.45921
1.3877
1.19492
1.02335
0.86985
0.827784
0.846446
0.896017
0.948116
0.990538
1.01153
1.03082
1.03205
1.03816
1.03395
1.03732
1.03295
1.03558
1.03191
1.03391
1.03061
1.03201
1.02925
1.03017
1.02783
1.02833
1.02634
1.02653
1.02508
1.02525
1.02407
1.02413
1.02293
1.02285
1.02188
1.0217
1.02049
1.02014
1.01918
1.01898
1.35755
1.30638
1.17148
1.04457
0.902644
0.878351
0.895894
0.942787
0.980962
1.01993
1.03321
1.04785
1.04551
1.04844
1.04238
1.04356
1.03839
1.04008
1.03604
1.03752
1.03409
1.03533
1.03239
1.03323
1.03069
1.03109
1.02893
1.02902
1.0273
1.02732
1.02597
1.02594
1.02472
1.02456
1.02339
1.0231
1.02198
1.02161
1.02061
1.02014
1.22279
1.19747
1.12078
1.01496
0.908878
0.908067
0.944107
0.988145
1.01959
1.05233
1.05884
1.06814
1.06083
1.05961
1.05176
1.05029
1.04416
1.04466
1.04041
1.04113
1.03755
1.03842
1.03525
1.0358
1.03313
1.03298
1.03092
1.03036
1.02882
1.02827
1.027
1.02669
1.02569
1.02537
1.02427
1.02386
1.02272
1.02229
1.02149
1.02124
1.07894
1.06542
1.04098
0.949177
0.898657
0.917683
0.959286
1.02272
1.06366
1.08636
1.08958
1.09132
1.07933
1.07318
1.06317
1.05849
1.05081
1.04921
1.0446
1.04386
1.04046
1.04031
1.03734
1.03689
1.03502
1.03377
1.03275
1.03122
1.03043
1.02909
1.02831
1.02742
1.02673
1.02597
1.02529
1.02469
1.02395
1.02318
1.02249
1.0221
0.917626
0.926027
0.940595
0.877731
0.866704
0.904661
0.960607
1.04646
1.10226
1.1246
1.12339
1.11755
1.10039
1.08947
1.07689
1.06872
1.05914
1.05462
1.05007
1.04694
1.04401
1.04206
1.04004
1.03788
1.0372
1.03469
1.0346
1.03224
1.03206
1.03002
1.02973
1.02808
1.02778
1.02653
1.02632
1.02522
1.02499
1.02391
1.02357
1.02299
0.765701
0.816175
0.840898
0.800553
0.803548
0.86309
0.939567
1.04995
1.12289
1.16745
1.15835
1.15049
1.12388
1.10995
1.09409
1.08273
1.07129
1.06339
1.05858
1.05291
1.05057
1.04667
1.04544
1.04196
1.04172
1.03875
1.03875
1.03625
1.03587
1.03373
1.03296
1.03107
1.03047
1.02903
1.02861
1.02712
1.02665
1.02542
1.02511
1.02449
0.685446
0.744539
0.747977
0.714007
0.718928
0.790253
0.887064
1.02236
1.13501
1.20105
1.19713
1.18586
1.149
1.13099
1.11212
1.09809
1.08415
1.07412
1.06815
1.0607
1.05793
1.05288
1.05103
1.04733
1.04597
1.04326
1.04223
1.04028
1.03907
1.03774
1.03604
1.03478
1.03324
1.03222
1.03099
1.02967
1.02867
1.02744
1.02672
1.02603
0.699583
0.717102
0.687355
0.645252
0.642503
0.704512
0.802293
0.952098
1.11681
1.21397
1.23825
1.21886
1.17933
1.14767
1.12977
1.11169
1.09534
1.08416
1.07568
1.06754
1.0633
1.0583
1.05495
1.05168
1.04906
1.04661
1.04456
1.04306
1.04116
1.0405
1.03833
1.03776
1.03559
1.03492
1.03296
1.03222
1.03055
1.02973
1.02848
1.02803
0.742432
0.733274
0.700578
0.644411
0.624335
0.654851
0.709461
0.850435
1.05138
1.20232
1.25935
1.25452
1.21307
1.16486
1.14775
1.12524
1.10742
1.09444
1.08398
1.07448
1.06876
1.06301
1.05872
1.05482
1.05201
1.04892
1.04669
1.04471
1.04283
1.04189
1.0401
1.03948
1.03769
1.03683
1.03516
1.03415
1.03255
1.03167
1.03039
1.03
0.785272
0.769486
0.746048
0.707026
0.697242
0.697685
0.686254
0.767774
0.941967
1.15428
1.25393
1.28254
1.249
1.19073
1.16479
1.14385
1.12347
1.10907
1.09724
1.08596
1.07883
1.07201
1.06687
1.0618
1.05858
1.05452
1.05206
1.04899
1.04696
1.04491
1.04326
1.04172
1.04052
1.03897
1.038
1.03641
1.03541
1.03417
1.03307
1.0326
0.82388
0.808755
0.800323
0.773461
0.770394
0.783598
0.7795
0.786161
0.840494
1.03693
1.21501
1.27741
1.27859
1.21429
1.17716
1.16036
1.13768
1.12357
1.11095
1.09923
1.09038
1.08353
1.07688
1.07176
1.06711
1.06292
1.05972
1.05603
1.05366
1.05057
1.04878
1.04602
1.04491
1.0424
1.04149
1.03936
1.03822
1.03637
1.03532
1.03444
0.866242
0.849111
0.852751
0.838657
0.831112
0.841396
0.847705
0.849783
0.851879
0.896198
1.07423
1.23061
1.26863
1.2325
1.18323
1.1631
1.146
1.12915
1.11951
1.10826
1.09886
1.09316
1.08559
1.08106
1.07597
1.07127
1.06858
1.06384
1.06183
1.05779
1.05595
1.05243
1.05091
1.04791
1.0466
1.0441
1.04241
1.0406
1.03914
1.03825
0.914086
0.898811
0.90196
0.904304
0.890734
0.889042
0.88724
0.882396
0.87655
0.867994
0.886014
1.07939
1.21117
1.23077
1.18
1.15633
1.14635
1.12872
1.12124
1.11157
1.10281
1.09761
1.09039
1.08526
1.0806
1.07563
1.07351
1.06903
1.06756
1.0635
1.06198
1.05821
1.05675
1.05323
1.05166
1.0486
1.04676
1.04431
1.04285
1.04151
0.968477
0.965254
0.96066
0.971265
0.96298
0.943461
0.927252
0.902738
0.876736
0.851301
0.814207
0.840976
1.06935
1.17239
1.17062
1.14315
1.14023
1.12848
1.11918
1.11595
1.10591
1.10236
1.09529
1.08939
1.08447
1.07876
1.07587
1.07207
1.07023
1.06745
1.06587
1.063
1.06158
1.05862
1.05711
1.05436
1.05257
1.0501
1.04889
1.04742
1.02397
1.03264
1.03885
1.04549
1.04638
1.02063
0.99157
0.934845
0.869018
0.81403
0.742447
0.697113
0.827228
1.04429
1.11755
1.1132
1.11686
1.12209
1.11301
1.11683
1.10919
1.10803
1.10435
1.10023
1.09628
1.08991
1.08461
1.07966
1.07543
1.07287
1.06968
1.06769
1.06479
1.06282
1.06026
1.05851
1.05602
1.05402
1.05241
1.05098
1.09525
1.1008
1.12439
1.13574
1.13412
1.11555
1.03774
0.948352
0.846314
0.74973
0.657331
0.569868
0.573452
0.830928
0.994131
1.04912
1.06596
1.09441
1.09594
1.10582
1.10856
1.10641
1.10821
1.1049
1.10393
1.1011
1.09825
1.0943
1.08798
1.08337
1.07915
1.07637
1.07275
1.07052
1.06741
1.06584
1.06257
1.06102
1.05857
1.05748
1.17834
1.19507
1.22126
1.23282
1.22501
1.1533
1.04105
0.912234
0.769265
0.630787
0.524312
0.422226
0.380658
0.563099
0.821897
0.930858
0.980471
1.03066
1.05439
1.07256
1.08851
1.09257
1.10024
1.10076
1.10272
1.10216
1.10129
1.10038
1.09852
1.09554
1.09098
1.08636
1.08249
1.07829
1.07528
1.07195
1.06911
1.06636
1.06448
1.06329
1.28832
1.31871
1.34285
1.34378
1.26894
1.14593
0.980495
0.798715
0.615042
0.444877
0.312476
0.229352
0.191269
0.303328
0.620364
0.777357
0.864893
0.941376
0.98735
1.02022
1.04733
1.06239
1.07848
1.08583
1.09142
1.09655
1.09839
1.09982
1.10014
1.10016
1.09964
1.0984
1.09602
1.09243
1.08893
1.08449
1.08147
1.07754
1.0758
1.0745
1.42601
1.4461
1.43731
1.35966
1.21749
1.01387
0.767905
0.531504
0.315545
0.150814
0.0152164
0.0931629
0.168
0.207544
0.448589
0.630751
0.725599
0.838656
0.896674
0.951017
0.994777
1.01699
1.0458
1.06006
1.07394
1.08341
1.08984
1.09542
1.0979
1.09969
1.10039
1.10109
1.10087
1.10062
1.09877
1.09699
1.09481
1.09273
1.09021
1.08782
1.50773
1.47514
1.38075
1.19543
0.955649
0.690818
0.412474
0.171694
0.196468
0.323966
0.406631
0.445207
0.447714
0.37131
0.390199
0.535249
0.615265
0.737144
0.813787
0.873579
0.940361
0.971152
1.01419
1.03295
1.05539
1.07215
1.08013
1.09063
1.09532
1.10079
1.10303
1.10579
1.1064
1.10766
1.10685
1.10666
1.10478
1.1039
1.10095
1.09893
1.38361
1.21308
0.953372
0.762344
0.587132
0.501373
0.50488
0.592663
0.715311
0.762427
0.780117
0.782271
0.695315
0.57902
0.540793
0.5759
0.617321
0.692069
0.760956
0.818058
0.878187
0.917627
0.961477
0.992501
1.01732
1.0436
1.0548
1.07418
1.07981
1.09196
1.09523
1.1032
1.10492
1.10968
1.11037
1.1121
1.11142
1.11235
1.11022
1.11111
0.801587
0.57519
0.575147
0.605687
0.653314
0.748139
0.862075
0.9709
1.03079
1.0552
1.05328
0.976073
0.838658
0.725184
0.694899
0.676851
0.672991
0.707615
0.732354
0.778445
0.807369
0.850209
0.8798
0.914952
0.946311
0.976665
1.00357
1.0292
1.04643
1.06522
1.07497
1.08719
1.09714
1.10388
1.11452
1.1202
1.12506
1.12862
1.13334
1.13451
0.31398
0.476847
0.525138
0.554042
0.632399
0.766216
0.848665
0.918786
0.955804
0.972124
0.934516
0.824091
0.730392
0.700862
0.669563
0.636385
0.645345
0.673296
0.698266
0.746299
0.781111
0.818628
0.855543
0.887063
0.917072
0.943667
0.969306
0.993245
1.01575
1.03353
1.0516
1.06266
1.07526
1.08323
1.09061
1.09614
1.10294
1.10985
1.11976
1.1327
0.168505
0.208497
0.291553
0.368023
0.418115
0.502969
0.555167
0.588647
0.601132
0.579338
0.479806
0.382635
0.376019
0.415967
0.451841
0.479052
0.54063
0.601908
0.674669
0.770174
0.849354
0.89382
0.916728
0.955888
0.972778
0.997095
1.01513
1.02925
1.05184
1.06822
1.09273
1.1088
1.13124
1.14713
1.16843
1.182
1.19328
1.19722
1.20061
1.20821
0.35639
0.371913
0.38543
0.398104
0.408053
0.410677
0.402316
0.396226
0.38959
0.383946
0.373821
0.358779
0.340448
0.330351
0.329224
0.339876
0.363001
0.403373
0.45756
0.537031
0.623057
0.382918
0.350159
0.494336
0.523984
0.571805
0.613959
0.651311
0.702959
0.746739
0.800066
0.846977
0.899351
0.942533
0.989545
1.02598
1.07307
1.11883
1.18102
1.23545
1.02097
1.02094
1.02177
1.02126
1.02164
1.02074
1.02035
1.01868
1.01726
1.01432
1.0112
1.00633
1.00102
0.994219
0.989011
0.986022
0.987692
0.992546
1.00153
1.0096
1.01402
1.01391
1.01352
1.0133
1.01313
1.01304
1.01298
1.0129
1.01279
1.01264
1.01246
1.01225
1.01202
1.01176
1.01146
1.01115
1.01083
1.01045
1.01003
1.00978
1.00342
1.00429
1.00367
1.00458
1.0045
1.00585
1.00642
1.00857
1.01021
1.01359
1.01662
1.021
1.0245
1.02857
1.0297
1.0301
1.02909
1.0258
1.01959
1.01501
1.01398
1.01403
1.01422
1.01438
1.01445
1.01442
1.01429
1.01411
1.01388
1.0136
1.01334
1.01316
1.01294
1.0126
1.01226
1.01189
1.01144
1.01103
1.01062
1.01039
1.01952
1.01958
1.02007
1.0195
1.01951
1.0184
1.01769
1.01575
1.01415
1.01147
1.00925
1.00633
1.00488
1.00468
1.0069
1.00834
1.01047
1.01155
1.0122
1.01253
1.01284
1.01338
1.01372
1.01401
1.01412
1.01418
1.01412
1.0141
1.01393
1.01382
1.01361
1.01341
1.01311
1.01283
1.01245
1.01209
1.01179
1.01144
1.01113
1.01097
1.00638
1.00738
1.00774
1.00891
1.0096
1.01131
1.01248
1.01485
1.01666
1.01957
1.02164
1.02441
1.0258
1.02671
1.0269
1.02665
1.02523
1.02301
1.02067
1.01828
1.0166
1.01592
1.01569
1.01562
1.01548
1.01518
1.01484
1.01459
1.01429
1.01411
1.01394
1.01371
1.01347
1.01312
1.01283
1.0124
1.01208
1.01178
1.01135
1.01119
1.01763
1.0177
1.01767
1.0172
1.01673
1.0157
1.01483
1.01332
1.01214
1.01062
1.00986
1.00933
1.01003
1.01077
1.01195
1.01229
1.01274
1.01329
1.01386
1.01432
1.01427
1.01426
1.01433
1.01461
1.01476
1.01481
1.0146
1.01451
1.0144
1.01431
1.01407
1.01396
1.01365
1.01331
1.01292
1.0126
1.01234
1.01216
1.01187
1.01167
1.00932
1.01059
1.01126
1.01247
1.01336
1.01477
1.0158
1.01736
1.01841
1.02
1.02087
1.02222
1.02272
1.02331
1.02338
1.02313
1.02229
1.02111
1.02009
1.01914
1.01802
1.01716
1.01682
1.01667
1.01633
1.0157
1.0153
1.01495
1.01471
1.01456
1.01429
1.01409
1.01389
1.01354
1.01318
1.01272
1.01251
1.01226
1.01197
1.01178
1.01628
1.01629
1.01602
1.01562
1.01513
1.01448
1.01385
1.01313
1.01269
1.01226
1.01227
1.01253
1.01315
1.01374
1.01422
1.01441
1.0145
1.01489
1.01518
1.01527
1.01516
1.0151
1.01524
1.01546
1.01544
1.01541
1.01523
1.01512
1.01496
1.01484
1.01469
1.0144
1.01405
1.01375
1.01332
1.01302
1.01285
1.01271
1.01252
1.01222
1.01194
1.01321
1.01377
1.01489
1.01555
1.01656
1.01717
1.01813
1.0187
1.01958
1.02005
1.02076
1.02105
1.02123
1.02105
1.0207
1.02024
1.01987
1.01955
1.01906
1.01826
1.01773
1.01753
1.01733
1.01671
1.01615
1.01584
1.0155
1.01523
1.01502
1.01491
1.01476
1.01439
1.01398
1.01352
1.01315
1.01294
1.0127
1.01254
1.01226
1.01568
1.01574
1.01552
1.01545
1.01526
1.01519
1.015
1.01499
1.01499
1.01512
1.01526
1.01547
1.01556
1.01576
1.01585
1.01595
1.01604
1.0163
1.01643
1.01638
1.01624
1.01621
1.01626
1.01629
1.01627
1.01617
1.01597
1.01584
1.0157
1.01543
1.0152
1.01497
1.01472
1.01426
1.01386
1.0136
1.01342
1.01328
1.01299
1.01267
1.01416
1.01531
1.01576
1.01673