/*--------------------------------*- C++ -*----------------------------------*\
  =========                 |
  \\      /  F ield         | OpenFOAM: The Open Source CFD Toolbox
   \\    /   O peration     | Website:  https://openfoam.org
    \\  /    A nd           | Version:  11
     \\/     M anipulation  |
\*---------------------------------------------------------------------------*/
FoamFile
{
    format      ascii;
    class       volScalarField;
    location    "6.5";
    object      p;
}
// * * * * * * * * * * * * * * * * * * * * * * * * * * * * * * * * * * * * * //

dimensions      [0 2 -2 0 0 0 0];

internalField   nonuniform List<scalar> 
9600
(
0.0797398
0.0813582
0.0838594
0.0869344
0.0903696
0.0940009
0.0976698
0.101244
0.104616
0.107651
0.110021
0.111284
0.111008
0.108928
0.104983
0.0982804
0.0884896
0.0759142
0.0609838
0.045414
0.0301317
0.0170619
0.00851615
0.00483124
0.00580082
0.011499
0.0202875
0.0319269
0.0446638
0.0575821
0.0675893
0.0722128
0.0683886
0.0501345
0.016919
-0.0178077
-0.0471577
-0.0521939
-0.0403952
-0.0279462
0.0805763
0.082833
0.0858262
0.0891353
0.0926503
0.0962261
0.0997579
0.103154
0.106246
0.10902
0.111009
0.111592
0.110728
0.10828
0.103955
0.0969838
0.087021
0.0745401
0.0599434
0.0448813
0.0300284
0.0173052
0.00889601
0.00481625
0.00498674
0.00968779
0.0174484
0.027214
0.0398438
0.052978
0.0641054
0.0715657
0.072589
0.0620356
0.0356689
0.000332954
-0.036246
-0.0543869
-0.0510654
-0.0386666
0.0813085
0.0837556
0.0867843
0.0899669
0.0933026
0.0967378
0.100174
0.103432
0.106417
0.109041
0.110772
0.11132
0.110537
0.108027
0.103564
0.0965525
0.0866213
0.074201
0.0599635
0.0449639
0.0301293
0.0174026
0.00883306
0.00458586
0.00458525
0.00920263
0.0170326
0.0271754
0.0387602
0.0520273
0.0630723
0.0704513
0.0726938
0.0646837
0.0409462
0.00895495
-0.0264034
-0.0511558
-0.0541573
-0.0428808
0.082239
0.0849092
0.0881581
0.0914793
0.094921
0.0983994
0.101769
0.104945
0.107804
0.110188
0.111729
0.111901
0.110549
0.107714
0.102948
0.0956972
0.0857004
0.0733142
0.0591808
0.0442889
0.0300372
0.0172401
0.00858395
0.00415247
0.00368604
0.00755465
0.0144678
0.0237257
0.0340745
0.0478586
0.0602675
0.0689775
0.0734838
0.0698602
0.0517037
0.0220762
-0.0149666
-0.0463964
-0.0603081
-0.052821
0.083315
0.0861636
0.0895496
0.0928852
0.0962105
0.099499
0.102686
0.105664
0.108284
0.110413
0.111625
0.111603
0.110318
0.107397
0.10243
0.0950907
0.0850695
0.0728062
0.0589072
0.0442573
0.0299643
0.017251
0.00822896
0.00351123
0.00282025
0.00649533
0.0133689
0.0227121
0.0333269
0.0450184
0.0577491
0.0676041
0.0731024
0.0721389
0.0586402
0.0322583
-0.00394256
-0.0372176
-0.0611931
-0.0605946
0.0845083
0.0874946
0.090964
0.0942824
0.0975326
0.100764
0.10387
0.106752
0.109284
0.111289
0.112327
0.112148
0.110453
0.107206
0.102017
0.0945215
0.0844378
0.0721489
0.0582185
0.0436792
0.0293737
0.0170172
0.00779296
0.00275524
0.00168985
0.00485128
0.011044
0.0196004
0.0298587
0.0415283
0.0542327
0.0653206
0.072649
0.074048
0.0653417
0.0426007
0.00800788
-0.0279845
-0.0593697
-0.0688641
0.0858096
0.0888896
0.0923983
0.0956873
0.0988988
0.102054
0.105026
0.10778
0.110121
0.111819
0.112561
0.112136
0.110334
0.106962
0.101607
0.0939823
0.0838037
0.071478
0.0576409
0.0431944
0.0289632
0.0166046
0.00723589
0.00183537
0.000393782
0.00324554
0.00927194
0.0177395
0.0276957
0.0386549
0.0505657
0.0625121
0.0716921
0.0748226
0.0701915
0.051702
0.019961
-0.0183184
-0.0533402
-0.0753594
0.0871973
0.0903358
0.0938523
0.0971194
0.100295
0.103346
0.106195
0.108807
0.11096
0.112479
0.113057
0.112466
0.110481
0.106869
0.101304
0.093514
0.0832176
0.0708703
0.0570355
0.0425807
0.0283594
0.0160401
0.00653301
0.000802022
-0.00101812
0.00139216
0.0069827
0.0148138
0.0245366
0.0351378
0.0466481
0.0589289
0.0698979
0.0747766
0.0740867
0.0601506
0.0325332
-0.00828329
-0.0448131
-0.0796558
0.0886512
0.0918203
0.0953421
0.098588
0.101704
0.104657
0.107388
0.109847
0.111835
0.113147
0.113546
0.112767
0.110578
0.106752
0.100989
0.0930533
0.0826428
0.0702146
0.0563203
0.0418495
0.0276485
0.0153322
0.00565974
-0.000439368
-0.00270032
-0.000729583
0.00467399
0.0121503
0.0216995
0.0319337
0.04295
0.0549714
0.0672817
0.0735971
0.07636
0.0672603
0.0450235
0.00418954
-0.0355248
-0.0796971
0.090167
0.0933528
0.0968756
0.100091
0.10313
0.105986
0.108611
0.110922
0.112727
0.113855
0.114098
0.113118
0.110732
0.106722
0.100762
0.0926621
0.082097
0.0695449
0.0555806
0.0410823
0.0268629
0.014487
0.00463014
-0.0018127
-0.00444243
-0.00292433
0.00210348
0.00915958
0.0183816
0.0283262
0.0389572
0.0506868
0.0632297
0.0716088
0.0770992
0.0727115
0.0567189
0.0198823
-0.0241344
-0.0741875
0.0917473
0.0949452
0.0984558
0.101622
0.10458
0.107347
0.109872
0.112032
0.113657
0.114609
0.114682
0.113528
0.110965
0.106745
0.100561
0.0922692
0.0815448
0.0688529
0.0547628
0.0401797
0.0258855
0.0134639
0.00345216
-0.00335827
-0.00641489
-0.00544905
-0.000808705
0.00597243
0.0149355
0.024671
0.035112
0.0463782
0.0583537
0.0685544
0.0760465
0.0756482
0.0659735
0.0366726
-0.00769936
-0.0611351
0.0933947
0.0965964
0.100085
0.103188
0.106062
0.108746
0.111174
0.113186
0.114646
0.115427
0.115356
0.114027
0.111247
0.106813
0.1004
0.0919074
0.081
0.0681149
0.0538781
0.0392002
0.0248326
0.0123133
0.00210693
-0.00510825
-0.00850895
-0.00809193
-0.00392865
0.00253138
0.0112201
0.0207274
0.0309442
0.0418404
0.0531003
0.0643563
0.0730845
0.0764408
0.0716184
0.0522489
0.0109597
-0.0416026
0.0951115
0.098306
0.101757
0.104795
0.107589
0.110193
0.112528
0.1144
0.115695
0.116319
0.11609
0.114579
0.111581
0.106946
0.100273
0.0915415
0.0804361
0.0673401
0.0529145
0.0381005
0.0236393
0.0109682
0.00060167
-0.00702972
-0.0107709
-0.0109386
-0.00737012
-0.00125658
0.00714529
0.0164546
0.0265457
0.0370664
0.0479781
0.0595755
0.0682516
0.0749054
0.0733913
0.0644922
0.0274029
-0.0174199
0.0969116
0.100074
0.103473
0.106447
0.109172
0.111713
0.113953
0.115673
0.116837
0.117291
0.11689
0.11522
0.111997
0.107114
0.100182
0.091177
0.0798553
0.0665065
0.0518528
0.0368765
0.0223186
0.00945402
-0.00107315
-0.00914422
-0.013297
-0.013986
-0.0110239
-0.00530315
0.00270587
0.011883
0.0218016
0.0319531
0.0424308
0.0540074
0.0626947
0.0707292
0.0710431
0.0721629
0.0396463
0.00847769
0.0987854
0.101904
0.105247
0.108162
0.110823
0.113305
0.11545
0.11705
0.118063
0.118355
0.117793
0.115943
0.112458
0.107324
0.100113
0.0908
0.0792088
0.0655907
0.050704
0.0355226
0.0208564
0.00771957
-0.00292554
-0.0114144
-0.016032
-0.0172183
-0.0148777
-0.00969337
-0.00209532
0.00690786
0.016542
0.026684
0.0365132
0.0476592
0.0565953
0.0652514
0.0669732
0.0732015
0.0516403
0.028979
0.100742
0.103788
0.10708
0.10996
0.112581
0.114991
0.117045
0.118523
0.11939
0.119537
0.118789
0.116731
0.112995
0.107583
0.100052
0.0903782
0.0785245
0.0645995
0.0494393
0.0339896
0.0192401
0.00588912
-0.00502437
-0.0138362
-0.018994
-0.0206831
-0.0189757
-0.0144287
-0.00732117
0.00157654
0.0109701
0.0207966
0.0304621
0.039913
0.0497401
0.0586232
0.0632205
0.0694103
0.0610288
0.0415511
0.102764
0.105743
0.109003
0.111872
0.114451
0.116797
0.118756
0.120105
0.120854
0.120822
0.119871
0.117619
0.1136
0.10784
0.0999763
0.0899371
0.0777528
0.0634664
0.0480403
0.0323224
0.0174485
0.00389689
-0.00736074
-0.0164203
-0.0221572
-0.0244253
-0.0233462
-0.0193482
-0.0130196
-0.00425345
0.00494108
0.0144022
0.0246113
0.0334841
0.0426419
0.0509448
0.0589171
0.0637795
0.0631518
0.0497654
0.104878
0.107757
0.111026
0.113919
0.116465
0.118736
0.12059
0.121836
0.122449
0.122236
0.12107
0.118572
0.11426
0.108123
0.0998954
0.0894263
0.0768555
0.0622007
0.0465052
0.0304648
0.015457
0.00165533
-0.00988959
-0.0191253
-0.0254549
-0.0283842
-0.0280932
-0.024597
-0.0190067
-0.0107509
-0.00139864
0.00757944
0.0178957
0.0270182
0.0352419
0.0431815
0.0522997
0.056495
0.0595534
0.0526985
0.107112
0.109903
0.113179
0.116122
0.118649
0.120821
0.122596
0.12371
0.124182
0.12379
0.122367
0.119606
0.114975
0.108412
0.0997531
0.0888295
0.0758529
0.0607898
0.044771
0.0283599
0.0132391
-0.000799561
-0.0126091
-0.0220888
-0.0289832
-0.0324542
-0.0331344
-0.0302764
-0.0252983
-0.0179143
-0.00835035
0.000375337
0.0104751
0.0202328
0.0278738
0.0355873
0.0437796
0.0484704
0.0524885
0.049681
0.109471
0.112229
0.115532
0.118509
0.121011
0.123085
0.124779
0.125764
0.126082
0.125484
0.123795
0.120721
0.115725
0.108668
0.0995547
0.0881425
0.0747033
0.0591385
0.0427525
0.0260984
0.0107902
-0.00344801
-0.0156376
-0.0253139
-0.0327819
-0.0367323
-0.0383143
-0.036413
-0.0319259
-0.0255212
-0.0162846
-0.00731507
0.00241796
0.0127749
0.0204072
0.0273844
0.0350407
0.0403098
0.0428224
0.0416028
0.112013
0.11476
0.118119
0.121094
0.123579
0.125577
0.127154
0.128016
0.128153
0.127327
0.125322
0.121847
0.116526
0.108895
0.0992649
0.0872848
0.0733031
0.0572845
0.0405169
0.0235724
0.00793989
-0.00617703
-0.0189756
-0.0286695
-0.0368122
-0.0414046
-0.0435655
-0.0428076
-0.0391459
-0.0336476
-0.0248767
-0.0156983
-0.00663071
0.00422847
0.0129861
0.0190783
0.0267236
0.033109
0.0334334
0.0311813
0.114807
0.117548
0.120962
0.123957
0.126386
0.128295
0.12978
0.130479
0.130403
0.129333
0.127011
0.123013
0.117249
0.109102
0.0988396
0.086222
0.0716318
0.0551824
0.0378899
0.0209016
0.00478349
-0.00928843
-0.022453
-0.0324119
-0.0408217
-0.0463535
-0.0491353
-0.0495368
-0.0467259
-0.0421663
-0.0344957
-0.0250009
-0.0161351
-0.0056773
0.00473766
0.0114162
0.0175366
0.0247984
0.0268251
0.0235332
0.117899
0.120623
0.124078
0.127106
0.129496
0.131292
0.132647
0.133175
0.132875
0.131453
0.12877
0.124279
0.117849
0.109161
0.0982499
0.0849349
0.069665
0.0528118
0.0347815
0.0179294
0.00131594
-0.0128671
-0.0259332
-0.0366427
-0.0449547
-0.0515301
-0.0550881
-0.0564547
-0.0548059
-0.0510805
-0.0448876
-0.0355455
-0.026354
-0.016645
-0.00537795
0.00305844
0.00854018
0.0155279
0.020979
0.0207948
0.121335
0.124049
0.127526
0.130571
0.132957
0.134604
0.135785
0.136186
0.13547
0.133753
0.130548
0.12551
0.118427
0.109011
0.0973367
0.0834735
0.0671884
0.050013
0.0314126
0.0144007
-0.00232379
-0.0169856
-0.0296045
-0.0410719
-0.049534
-0.0565911
-0.0613109
-0.0636583
-0.0633014
-0.0605503
-0.0559275
-0.0473333
-0.0377617
-0.0287461
-0.0174899
-0.00665365
-0.000144454
0.00517266
0.0123708
0.0159335
0.125168
0.127889
0.131374
0.134397
0.136799
0.138342
0.139139
0.139371
0.138444
0.136214
0.132324
0.126653
0.118813
0.108727
0.0960264
0.0815912
0.0642638
0.0467461
0.0276901
0.0101405
-0.00624391
-0.0214975
-0.0337756
-0.0454815
-0.0546093
-0.0619448
-0.0673568
-0.0710973
-0.0724492
-0.0703924
-0.0672168
-0.0608607
-0.0509327
-0.0412332
-0.0313576
-0.0195607
-0.0106739
-0.00494394
0.00188419
0.00672878
0.129447
0.132173
0.135744
0.138757
0.140981
0.142426
0.143024
0.142825
0.141452
0.138724
0.134119
0.127701
0.118959
0.10806
0.0943853
0.0790288
0.06102
0.0425968
0.023544
0.00544891
-0.0108521
-0.0261221
-0.03852
-0.0502944
-0.0596879
-0.0676076
-0.0737991
-0.0782733
-0.0814673
-0.0814655
-0.0790385
-0.0745821
-0.0666662
-0.0560799
-0.046168
-0.0352248
-0.0240079
-0.0157494
-0.0101976
-0.00549828
0.134289
0.136983
0.140645
0.143671
0.145742
0.146953
0.147187
0.146592
0.144629
0.141185
0.135911
0.128428
0.118812
0.106859
0.0922847
0.0756942
0.0570933
0.0378508
0.0185429
0.000198633
-0.0158964
-0.0312702
-0.0436773
-0.0553056
-0.0652253
-0.0731931
-0.0805179
-0.0857312
-0.0902485
-0.0926232
-0.0920826
-0.0890519
-0.0835134
-0.0739824
-0.063085
-0.0524864
-0.0407093
-0.0303051
-0.0232792
-0.0186975
0.139912
0.142597
0.146186
0.149116
0.151008
0.151976
0.151827
0.150516
0.147967
0.143595
0.137415
0.128894
0.118071
0.105079
0.0892564
0.0716734
0.0521653
0.0321921
0.0128882
-0.00579216
-0.0217351
-0.0368326
-0.0495291
-0.0605044
-0.0709834
-0.0790524
-0.0868642
-0.0933459
-0.0989133
-0.103254
-0.105558
-0.104632
-0.101215
-0.0944904
-0.0836402
-0.0723985
-0.0606372
-0.0490461
-0.0397746
-0.0342817
0.14635
0.148953
0.152466
0.155246
0.156953
0.157364
0.156715
0.15469
0.151247
0.145976
0.138417
0.128916
0.116678
0.102291
0.0853229
0.0665079
0.0462643
0.0254214
0.00616023
-0.0123958
-0.0287787
-0.0427485
-0.0557794
-0.0663257
-0.0767098
-0.0853592
-0.0932075
-0.100712
-0.107581
-0.113514
-0.118047
-0.120814
-0.120012
-0.116165
-0.108243
-0.0969861
-0.0844319
-0.0721293
-0.0610636
-0.0536011
0.153766
0.156116
0.159594
0.162142
0.163362
0.163306
0.161752
0.158971
0.154251
0.147866
0.138886
0.127773
0.114416
0.0982716
0.0800165
0.0600289
0.0388031
0.0176767
-0.00217668
-0.0199195
-0.0364175
-0.0499288
-0.0621239
-0.0728134
-0.0825356
-0.0914694
-0.0995008
-0.108108
-0.115601
-0.123745
-0.129953
-0.135796
-0.139219
-0.139027
-0.134697
-0.126536
-0.114839
-0.101347
-0.0884149
-0.0788353
0.162421
0.164489
0.167454
0.169735
0.170445
0.16969
0.16718
0.16302
0.157103
0.149116
0.138529
0.125561
0.110538
0.0928768
0.0727898
0.0519067
0.0296621
0.00805589
-0.0115476
-0.0291777
-0.0447619
-0.0581073
-0.0690489
-0.0797809
-0.0883191
-0.0976818
-0.105653
-0.114597
-0.123218
-0.132432
-0.141058
-0.14996
-0.156847
-0.161488
-0.162574
-0.159203
-0.151283
-0.139693
-0.125772
-0.113269
0.172378
0.174071
0.176445
0.177978
0.177981
0.175927
0.172251
0.166629
0.158772
0.149027
0.136439
0.121508
0.104579
0.0848223
0.0635305
0.0410524
0.0184556
-0.00377817
-0.0225936
-0.0401824
-0.0545018
-0.0672608
-0.0769518
-0.0870091
-0.0951053
-0.103408
-0.111621
-0.120586
-0.129708
-0.139367
-0.149977
-0.16142
-0.1726
-0.182075
-0.188957
-0.192596
-0.19164
-0.185518
-0.175208
-0.163204
0.183775
0.184861
0.186855
0.187655
0.186398
0.182997
0.177378
0.169498
0.159641
0.147193
0.132346
0.114981
0.095994
0.0739537
0.0511516
0.0273295
0.00447869
-0.0178543
-0.0362507
-0.0526931
-0.0665704
-0.0773225
-0.0864498
-0.0949275
-0.102665
-0.109899
-0.117927
-0.126341
-0.135418
-0.144994
-0.156234
-0.169197
-0.183239
-0.197578
-0.211724
-0.223376
-0.231928
-0.23566
-0.234421
-0.229346
0.196409
0.196366
0.197193
0.196141
0.193041
0.187613
0.179974
0.169782
0.1571
0.141681
0.124083
0.104468
0.0828377
0.0587323
0.034259
0.00995956
-0.0135789
-0.0347038
-0.0528329
-0.0673425
-0.0799993
-0.0892202
-0.0970096
-0.103821
-0.110938
-0.117126
-0.124462
-0.132535
-0.141239
-0.149917
-0.160328
-0.172748
-0.187291
-0.204618
-0.224576
-0.245653
-0.265997
-0.284026
-0.297373
-0.305816
0.21263
0.211159
0.210313
0.207305
0.201771
0.193061
0.181186
0.167447
0.151189
0.13232
0.111328
0.0888981
0.0643305
0.038657
0.012851
-0.0120909
-0.0352222
-0.0552636
-0.0716704
-0.0840375
-0.0946102
-0.101826
-0.107586
-0.113304
-0.119352
-0.12477
-0.130981
-0.138144
-0.145873
-0.153663
-0.162571
-0.172509
-0.184919
-0.200081
-0.219588
-0.24325
-0.272431
-0.305395
-0.34105
-0.374687
0.224948
0.220178
0.21596
0.210005
0.201412
0.18981
0.174948
0.157219
0.137098
0.114266
0.0899755
0.0643511
0.0375317
0.0104433
-0.0159853
-0.0405472
-0.062503
-0.0804733
-0.0941856
-0.103686
-0.110584
-0.115323
-0.119736
-0.124237
-0.129518
-0.134392
-0.138636
-0.143702
-0.149489
-0.156206
-0.16359
-0.171392
-0.179422
-0.189003
-0.201732
-0.218713
-0.241178
-0.270405
-0.306483
-0.347555
0.252492
0.244115
0.233666
0.219651
0.202057
0.180904
0.157949
0.133676
0.107473
0.0795544
0.0503949
0.0209936
-0.00845769
-0.0373741
-0.063983
-0.0873031
-0.106611
-0.120176
-0.128667
-0.132343
-0.133103
-0.133431
-0.134253
-0.138415
-0.14649
-0.154129
-0.158877
-0.160913
-0.160951
-0.161819
-0.166887
-0.174646
-0.180532
-0.185141
-0.189423
-0.193867
-0.199912
-0.207455
-0.217918
-0.234127
0.227313
0.210996
0.19543
0.178209
0.158531
0.135234
0.108477
0.0791851
0.0481003
0.016034
-0.0165017
-0.0484172
-0.0793267
-0.108566
-0.134563
-0.155497
-0.170024
-0.177279
-0.177189
-0.171558
-0.16221
-0.15467
-0.15049
-0.154742
-0.165716
-0.181672
-0.195068
-0.198449
-0.187433
-0.172485
-0.168402
-0.176571
-0.185799
-0.189374
-0.188992
-0.187452
-0.186126
-0.186301
-0.187733
-0.189361
0.294289
0.263909
0.230888
0.197795
0.165098
0.131217
0.0959651
0.0597152
0.0232005
-0.0126087
-0.0468208
-0.0780904
-0.10587
-0.129665
-0.148332
-0.161305
-0.166945
-0.164998
-0.156096
-0.140525
-0.120748
-0.0996904
-0.0825669
-0.0789875
-0.0940586
-0.129113
-0.184428
-0.222651
-0.214363
-0.179023
-0.150156
-0.146905
-0.16328
-0.17877
-0.18643
-0.19224
-0.197466
-0.201361
-0.204893
-0.21024
0.0233929
-0.0074074
-0.0427182
-0.0881399
-0.136261
-0.183738
-0.229447
-0.273698
-0.314106
-0.346371
-0.369603
-0.38774
-0.403347
-0.414559
-0.418398
-0.413456
-0.40004
-0.377562
-0.347121
-0.309339
-0.266074
-0.219158
-0.172858
-0.135873
-0.118528
-0.132091
-0.172847
-0.188238
-0.194949
-0.19882
-0.200377
-0.200498
-0.201284
-0.203938
-0.206542
-0.2094
-0.212681
-0.215477
-0.219466
-0.229343
-0.0120057
-0.0207893
-0.0375834
-0.0470672
-0.0381326
-0.0232639
-0.00902703
0.000492534
0.00511925
0.00300375
0.00394564
0.0020159
0.000795531
-0.000193022
-0.00121485
-0.00174128
-0.00210952
-0.00228733
-0.00233732
-0.00224687
-0.00203833
-0.00182654
-0.00152644
-0.00128668
-0.000937996
-0.000640344
-0.000218259
0.000123032
0.000470351
0.000747875
0.00102719
0.00123739
0.00141686
0.00159457
0.00176239
0.00197854
0.00211236
0.00219571
0.00194182
0.00192822
-0.010918
-0.028159
-0.049851
-0.0609652
-0.0478948
-0.0275127
-0.00919678
0.00126496
0.0070521
0.00499701
0.00459398
0.00269003
0.00107756
-4.8512e-06
-0.0012586
-0.00184521
-0.00226432
-0.0024648
-0.0025434
-0.00244495
-0.00228705
-0.00207857
-0.00176943
-0.0014692
-0.00110928
-0.000795852
-0.000363497
-2.75368e-05
0.000334506
0.000628388
0.00094502
0.00116632
0.00139522
0.0015883
0.00180133
0.0019802
0.00212348
0.00213613
0.00180034
0.00109274
-0.0131643
-0.0389894
-0.0667425
-0.0794564
-0.0601982
-0.0324567
-0.00974478
0.00251699
0.00915771
0.00702035
0.00539026
0.00341052
0.0014183
0.000199596
-0.0012315
-0.00190562
-0.00243549
-0.00266603
-0.00269937
-0.00264165
-0.00250785
-0.00229129
-0.0020243
-0.0016886
-0.00132991
-0.000980523
-0.000562268
-0.000240942
0.000124504
0.000429857
0.000756034
0.000987862
0.00124259
0.00144058
0.00166409
0.00185538
0.00205948
0.00219514
0.00231075
0.00256172
-0.0185634
-0.0539039
-0.0941156
-0.104728
-0.0757264
-0.0382237
-0.0104712
0.00460216
0.0111704
0.00901138
0.00626305
0.00421566
0.00179703
0.000380055
-0.00118527
-0.00195678
-0.00260139
-0.00285699
-0.00287946
-0.00284636
-0.00268812
-0.00246718
-0.00221586
-0.00188074
-0.00155036
-0.00117276
-0.000797975
-0.000479496
-0.000137407
0.000178618
0.000475679
0.000713743
0.000972652
0.00119299
0.00146119
0.00172751
0.00198717
0.00210524
0.00202753
0.00178203
-0.0274488
-0.0739293
-0.132352
-0.141375
-0.0952112
-0.0450332
-0.0113262
0.00685848
0.0129727
0.0109866
0.00736135
0.00503155
0.00217892
0.000546053
-0.00108138
-0.00197363
-0.00275172
-0.00303889
-0.00311569
-0.0031078
-0.00295409
-0.00268285
-0.00239657
-0.00204026
-0.00173854
-0.00134294
-0.0010171
-0.000690043
-0.000360595
-4.49034e-05
0.000236761
0.000502734
0.000785406
0.00105423
0.00137173
0.00166911
0.0019379
0.00211306
0.00228983
0.00262443
-0.0426511
-0.104769
-0.17968
-0.188099
-0.118861
-0.052963
-0.0122968
0.00913506
0.0147407
0.0127949
0.00862591
0.00575437
0.00266258
0.000792583
-0.000900809
-0.00196212
-0.00286426
-0.00318717
-0.00342165
-0.00343388
-0.00330697
-0.00296175
-0.00263948
-0.00223656
-0.00194647
-0.00153636
-0.00123634
-0.000870011
-0.000537068
-0.000192579
0.000119321
0.000426523
0.000736374
0.00103
0.00133748
0.00160066
0.00185157
0.00200739
0.00208361
0.00214976
-0.0631518
-0.143713
-0.244229
-0.243082
-0.146056
-0.0619413
-0.0132934
0.0111098
0.0166733
0.0143368
0.00988329
0.00643198
0.00327523
0.0011061
-0.000688515
-0.0018976
-0.00288115
-0.00329879
-0.00370833
-0.00369867
-0.00363403
-0.0032537
-0.00296308
-0.00254319
-0.00226126
-0.001851
-0.00154997
-0.00113417
-0.00079121
-0.000405232
-5.69433e-05
0.000286596
0.000615876
0.00090647
0.00117577
0.00141568
0.00168487
0.0018882
0.00211444
0.00244027
-0.0936437
-0.188504
-0.329872
-0.306356
-0.175351
-0.0714181
-0.0144081
0.0126531
0.0183337
0.0156553
0.0110809
0.00712723
0.00383774
0.00140649
-0.000536575
-0.00184274
-0.00288919
-0.00335156
-0.00387419
-0.00384907
-0.00388398
-0.0035372
-0.00333562
-0.00293701
-0.00267567
-0.0022688
-0.00195818
-0.00153193
-0.00119174
-0.000777724
-0.00041814
-4.90147e-05
0.000286054
0.000585789
0.000875283
0.00117439
0.00148745
0.00171563
0.0019636
0.00220519
-0.132122
-0.243085
-0.432455
-0.37386
-0.204244
-0.08078
-0.0155361
0.0139178
0.0195036
0.0166271
0.0120711
0.00764071
0.00418638
0.00156664
-0.000524085
-0.00186275
-0.00295149
-0.00345086
-0.00400368
-0.00401277
-0.0041183
-0.00381419
-0.00367125
-0.00330651
-0.00304594
-0.00264064
-0.00233291
-0.00190837
-0.00156271
-0.00113515
-0.0007851
-0.000393898
-5.60956e-05
0.000279822
0.000632176
0.000976248
0.00127526
0.00153189
0.00184216
0.00213166
-0.162828
-0.311987
-0.539581
-0.434434
-0.228713
-0.0888463
-0.0168493
0.0147142
0.0199265
0.017013
0.0125869
0.00801851
0.00438847
0.00162172
-0.000573926
-0.00195059
-0.00313177
-0.00374074
-0.00427747
-0.0043328
-0.00441008
-0.00415122
-0.00398922
-0.00364864
-0.00335794
-0.00295844
-0.00261793
-0.00214997
-0.00177512
-0.00131122
-0.000970438
-0.000565126
-0.000262104
8.90293e-05
0.000443187
0.000779619
0.0010591
0.00135576
0.00171869
0.0020579
-0.180609
-0.386581
-0.627987
-0.474185
-0.243239
-0.0946798
-0.0183103
0.0146669
0.0194604
0.016667
0.0125753
0.00839447
0.00449429
0.00174392
-0.000635938
-0.00209985
-0.00342452
-0.00412786
-0.00466788
-0.00478308
-0.00481014
-0.00464802
-0.00445219
-0.0041692
-0.00384542
-0.00345901
-0.00303775
-0.00252109
-0.00209277
-0.00158143
-0.00123195
-0.00080391
-0.000523746
-0.000141188
0.000177028
0.000510879
0.00078267
0.00111025
0.00145122
0.00175773
-0.193712
-0.440618
-0.667253
-0.478399
-0.247187
-0.097054
-0.0200884
0.0126698
0.0181644
0.0157944
0.0123291
0.00851855
0.00459165
0.00182803
-0.000645754
-0.00222209
-0.00363802
-0.0044415
-0.00501357
-0.00528407
-0.00532637
-0.00536325
-0.00515475
-0.00498478
-0.00463817
-0.00426487
-0.0037518
-0.00325467
-0.00274128
-0.00221326
-0.00177931
-0.00130335
-0.000970126
-0.00053318
-0.000206944
0.000197022
0.000491063
0.000885953
0.00131237
0.00169463
-0.193857
-0.446537
-0.631099
-0.437488
-0.234452
-0.095989
-0.0225832
0.00798952
0.0155775
0.0143836
0.0115974
0.00810096
0.00457388
0.00165386
-0.000599718
-0.0023246
-0.00369598
-0.00464822
-0.00525029
-0.00577183
-0.00591438
-0.00606917
-0.00590779
-0.00577309
-0.00539887
-0.00502614
-0.00447401
-0.00400918
-0.00340448
-0.00289351
-0.00232769
-0.0018399
-0.00139225
-0.000914525
-0.000505061
-5.49933e-05
0.000261122
0.000697905
0.00105661
0.00139497
-0.173025
-0.38618
-0.518824
-0.365985
-0.210775
-0.0918804
-0.0265208
0.00104971
0.0105966
0.0116202
0.00999076
0.00697119
0.00418654
0.00118748
-0.000676675
-0.00256613
-0.00376111
-0.00487774
-0.00550017
-0.00614424
-0.00636095
-0.00647727
-0.00637657
-0.00616626
-0.00579255
-0.00540379
-0.00488277
-0.0043783
-0.00379102
-0.00330055
-0.00268381
-0.00221068
-0.00166607
-0.00120582
-0.000735443
-0.000349614
2.37877e-05
0.000496013
0.000920607
0.00136582
-0.130424
-0.301501
-0.379708
-0.283657
-0.179553
-0.0854658
-0.0329975
-0.00809589
0.00344167
0.00704844
0.00717147
0.00507024
0.00314228
0.000451095
-0.0011803
-0.00307122
-0.004163
-0.00533398
-0.00592521
-0.00650364
-0.00670028
-0.00676715
-0.00664606
-0.00640131
-0.00607604
-0.00566627
-0.00520448
-0.0047381
-0.00424258
-0.00375099
-0.00320965
-0.00271797
-0.00215404
-0.00170477
-0.00125019
-0.000907842
-0.000429123
9.38536e-06
0.000452009
0.000866868
-0.0820244
-0.209465
-0.25911
-0.211221
-0.144612
-0.0807743
-0.0429383
-0.0199936
-0.00568823
0.000687958
0.00293137
0.0024986
0.00134228
-0.000720592
-0.00219815
-0.00394251
-0.00501984
-0.0060907
-0.00668369
-0.00726636
-0.00745033
-0.00753706
-0.00740644
-0.00720675
-0.00688256
-0.00649932
-0.00605766
-0.00564613
-0.00518268
-0.00472244
-0.00421688
-0.00366627
-0.00307432
-0.00260991
-0.00216137
-0.00169799
-0.00115831
-0.0006454
-2.9904e-05
0.000465471
-0.035162
-0.127777
-0.162259
-0.154172
-0.117714
-0.0815094
-0.0592954
-0.0358296
-0.0178135
-0.00787086
-0.00273276
-0.000777839
-0.00102901
-0.00217752
-0.00335638
-0.00491228
-0.00602272
-0.00716047
-0.00781771
-0.00854869
-0.00875078
-0.00892241
-0.00878556
-0.00861816
-0.00822257
-0.00784972
-0.00730342
-0.00689408
-0.00634124
-0.00586839
-0.00526702
-0.00470603
-0.00410266
-0.00358218
-0.00299421
-0.00244131
-0.00184775
-0.0012684
-0.000669428
-0.000216592
0.00624294
-0.0675512
-0.0964193
-0.111474
-0.100244
-0.0903117
-0.0802775
-0.0532227
-0.033368
-0.0189917
-0.0100606
-0.00500044
-0.00373534
-0.00351165
-0.00431096
-0.00560426
-0.00681394
-0.00806119
-0.00880183
-0.00965507
-0.00982767
-0.0101255
-0.00992264
-0.00972246
-0.0091954
-0.00874332
-0.00810441
-0.00763011
-0.00701682
-0.00651296
-0.00586695
-0.00531191
-0.00469248
-0.00412327
-0.00347474
-0.00290019
-0.00226833
-0.00171992
-0.00117851
-0.000844277
0.0287945
-0.0326894
-0.0597137
-0.0805607
-0.0926823
-0.10387
-0.0979381
-0.0748525
-0.0559606
-0.033542
-0.0195178
-0.0104783
-0.00695649
-0.00513896
-0.00534466
-0.00614588
-0.00735506
-0.0083966
-0.00924587
-0.0100214
-0.0102179
-0.0104801
-0.0102369
-0.00996289
-0.0094587
-0.00892014
-0.00837213
-0.00780811
-0.00728197
-0.00670662
-0.00615144
-0.00558088
-0.00497472
-0.00435346
-0.00377324
-0.00322368
-0.00264319
-0.00209838
-0.00159585
-0.00134656
0.0344562
-0.0188883
-0.0388528
-0.0635811
-0.0935675
-0.116731
-0.118351
-0.107055
-0.0802644
-0.0512404
-0.0312001
-0.0179374
-0.0113303
-0.00815554
-0.007229
-0.00743594
-0.00841443
-0.00901572
-0.00997325
-0.0104841
-0.0108101
-0.010921
-0.0108288
-0.0104645
-0.010147
-0.00957602
-0.00914725
-0.00855201
-0.00807626
-0.0074235
-0.00693704
-0.00623078
-0.00562805
-0.00496045
-0.00444462
-0.00383385
-0.00324916
-0.00262022
-0.00215738
-0.00193302
0.0296946
-0.0156175
-0.026325
-0.0557147
-0.0974562
-0.13074
-0.144769
-0.140709
-0.107164
-0.0755591
-0.0459324
-0.0279708
-0.0170168
-0.0128411
-0.0102349
-0.0100797
-0.010646
-0.0108579
-0.0118423
-0.0121626
-0.01264
-0.0126877
-0.0127407
-0.0123435
-0.0121265
-0.0115752
-0.0111586
-0.0105568
-0.00996645
-0.00927815
-0.00864354
-0.00782436
-0.00715682
-0.00641972
-0.00580617
-0.005013
-0.0042955
-0.00355307
-0.00302013
-0.00270515
0.0211505
-0.0128309
-0.0226437
-0.0510039
-0.101241
-0.144259
-0.171003
-0.174569
-0.143352
-0.103497
-0.0649389
-0.039384
-0.0232638
-0.017254
-0.0131704
-0.0126398
-0.0126775
-0.0129815
-0.0138456
-0.0142227
-0.0147034
-0.0148296
-0.0148637
-0.0146205
-0.0143026
-0.0138495
-0.0133099
-0.012676
-0.0119734
-0.0113294
-0.0105421
-0.00976928
-0.00899542
-0.0082269
-0.00737333
-0.00645077
-0.00559702
-0.00476747
-0.00410902
-0.00371746
0.0166589
-0.0125588
-0.0247173
-0.0508672
-0.10357
-0.153465
-0.191985
-0.206433
-0.18384
-0.132927
-0.0877719
-0.0514692
-0.0295642
-0.0195965
-0.0151627
-0.0134944
-0.0133406
-0.0137404
-0.0144868
-0.0150959
-0.0155176
-0.015807
-0.0157464
-0.0156142
-0.0152298
-0.0148481
-0.0142536
-0.0137517
-0.0130684
-0.01252
-0.0117701
-0.0111261
-0.0103298
-0.00957912
-0.00864259
-0.00777732
-0.00681573
-0.00592902
-0.00517443
-0.00486108
0.0125912
-0.009452
-0.0314183
-0.058976
-0.104057
-0.154612
-0.201
-0.229216
-0.221603
-0.16695
-0.109105
-0.0654108
-0.0357894
-0.0222677
-0.0175108
-0.0142825
-0.0141394
-0.0144124
-0.0152163
-0.0158873
-0.0163087
-0.0165438
-0.0165149
-0.0163362
-0.0160379
-0.0155692
-0.0150283
-0.014504
-0.0138803
-0.0133497
-0.0126933
-0.0120891
-0.011353
-0.0106212
-0.00977023
-0.00891694
-0.00796889
-0.00714456
-0.00639495
-0.0061411
0.00513066
-0.0135629
-0.0346752
-0.062074
-0.105787
-0.151977
-0.191806
-0.227423
-0.238259
-0.198844
-0.129833
-0.0783842
-0.0430644
-0.0263201
-0.0201111
-0.016936
-0.0164937
-0.0170311
-0.0177653
-0.0185265
-0.0189695
-0.0191768
-0.0192248
-0.0189167
-0.0186408
-0.0179899
-0.0174044
-0.016657
-0.015949
-0.0152266
-0.0144805
-0.0137115
-0.0129457
-0.0121472
-0.0113159
-0.0104316
-0.00950668
-0.0086096
-0.00782147
-0.00748202
-0.00405384
-0.0203338
-0.0434509
-0.0641689
-0.0959296
-0.13584
-0.175554
-0.208035
-0.213532
-0.191877
-0.139634
-0.0840764
-0.0471181
-0.0259766
-0.0203529
-0.0182792
-0.0177669
-0.0190445
-0.0200479
-0.0213777
-0.0220867
-0.022751
-0.0230062
-0.0229886
-0.0227768
-0.0221258
-0.0214627
-0.0205637
-0.0196789
-0.0187316
-0.0177306
-0.0167105
-0.015756
-0.0147318
-0.0137533
-0.0127231
-0.0115883
-0.0104745
-0.00954307
-0.00907038
-0.0180037
-0.0293936
-0.0535688
-0.0741746
-0.0960664
-0.123538
-0.148734
-0.165185
-0.172265
-0.15444
-0.11279
-0.0690835
-0.0392189
-0.0195487
-0.0142157
-0.0135953
-0.0144768
-0.0165242
-0.0189249
-0.0209805
-0.0226715
-0.0241343
-0.025097
-0.0256896
-0.0258073
-0.025611
-0.0252277
-0.0244799
-0.023717
-0.0227262
-0.0215781
-0.0204318
-0.0192745
-0.0180688
-0.0169235
-0.0156711
-0.0143006
-0.0129449
-0.0117932
-0.0113251
-0.0346152
-0.0432199
-0.0656272
-0.0887918
-0.105416
-0.124039
-0.137752
-0.141511
-0.130533
-0.104294
-0.0681652
-0.0397244
-0.0155595
-0.00626542
-0.000664152
-0.00366367
-0.00720208
-0.0108522
-0.0148069
-0.0177998
-0.020578
-0.0226306
-0.0242614
-0.0252595
-0.025971
-0.0263749
-0.0265458
-0.0264165
-0.0260924
-0.0254033
-0.0246203
-0.023624
-0.0225804
-0.0213599
-0.0200956
-0.0187033
-0.0173382
-0.015929
-0.0146222
-0.0140721
-0.053695
-0.0642292
-0.0845749
-0.10971
-0.125949
-0.135497
-0.141667
-0.133797
-0.112118
-0.0755511
-0.0316685
0.00437205
0.0218053
0.0211381
0.0163529
0.00978141
0.00167514
-0.00464784
-0.0103071
-0.0149096
-0.0185039
-0.0213587
-0.0232957
-0.0247163
-0.0258279
-0.0266272
-0.0271598
-0.027546
-0.0275629
-0.027334
-0.0268428
-0.0260902
-0.0252006
-0.0240586
-0.0228658
-0.0215223
-0.02023
-0.0189543
-0.0178446
-0.0172058
-0.077789
-0.0914083
-0.11455
-0.141319
-0.163436
-0.170372
-0.16566
-0.144154
-0.110047
-0.0639073
-0.0122204
0.0407946
0.0576558
0.057494
0.041039
0.0293141
0.0147367
0.00344071
-0.00555175
-0.0127213
-0.018127
-0.0224309
-0.0254481
-0.027697
-0.0291388
-0.0301624
-0.0308352
-0.0312079
-0.0310652
-0.0307688
-0.0301613
-0.0294459
-0.0284539
-0.0273328
-0.0260937
-0.024843
-0.0234948
-0.0222092
-0.0211855
-0.0205806
-0.110346
-0.12695
-0.158454