/*--------------------------------*- C++ -*----------------------------------*\
  =========                 |
  \\      /  F ield         | OpenFOAM: The Open Source CFD Toolbox
   \\    /   O peration     | Website:  https://openfoam.org
    \\  /    A nd           | Version:  11
     \\/     M anipulation  |
\*---------------------------------------------------------------------------*/
FoamFile
{
    format      ascii;
    class       volVectorField;
    location    "6.5";
    object      U;
}
// * * * * * * * * * * * * * * * * * * * * * * * * * * * * * * * * * * * * * //

dimensions      [0 1 -1 0 0 0 0];

internalField   nonuniform List<vector> 
9600
(
(0.968697 0.0016566 6.91613e-21)
(0.966589 0.00247052 0)
(0.962495 0.00319519 0)
(0.956623 0.00350182 1.23715e-22)
(0.952895 0.00361535 0)
(0.950756 0.00435422 -1.35234e-22)
(0.945523 0.0046862 -4.55011e-21)
(0.938424 0.00427386 4.57346e-21)
(0.935232 0.0033985 -4.85786e-21)
(0.935847 0.00312021 4.87908e-21)
(0.934794 0.00293975 0)
(0.934742 0.00176928 -5.13875e-21)
(0.936442 0.0010193 5.19785e-21)
(0.939424 0.00021861 -7.8611e-23)
(0.94417 -0.000770952 2.41121e-21)
(0.953836 -0.00203765 -2.39283e-21)
(0.966938 -0.00184285 0)
(0.970494 -0.000869041 -8.03413e-22)
(0.966461 -5.33472e-05 8.01324e-22)
(0.951895 0.0007479 -2.08569e-24)
(0.937838 0.00140457 1.39453e-24)
(0.922287 0.00193005 1.50133e-22)
(0.908871 0.00216535 -1.51591e-22)
(0.898085 0.00126948 0)
(0.887996 -0.000110941 0)
(0.87764 -0.00253586 3.70948e-22)
(0.870118 -0.00583632 2.40298e-22)
(0.868597 -0.00873879 -6.319e-22)
(0.875978 -0.0132794 3.07561e-23)
(0.898721 -0.0179049 -4.02208e-23)
(0.934569 -0.0201925 0)
(0.993307 -0.0156139 3.29982e-21)
(1.08321 -0.00641581 -3.23169e-21)
(1.19206 0.00849141 -1.53306e-21)
(1.26972 0.0264461 1.52494e-21)
(1.28597 0.0323567 -1.21358e-23)
(1.27467 0.0290045 0)
(1.23182 0.0128868 -4.0959e-21)
(1.16358 0.000713443 4.16765e-21)
(1.01945 -0.0192114 -4.55839e-23)
(0.971385 3.85968e-05 3.40562e-22)
(0.970223 0.000195996 0)
(0.968446 -0.000107836 0)
(0.965931 -0.000820755 -3.8357e-22)
(0.963065 -0.00175556 -8.73279e-21)
(0.961175 -0.00202148 1.37597e-20)
(0.960233 -0.00171415 -4.58265e-21)
(0.958955 -0.0021095 -1.51749e-22)
(0.957367 -0.00274673 -1.57022e-22)
(0.957403 -0.00294045 0)
(0.958195 -0.00285346 -1.63008e-22)
(0.960504 -0.00253877 -5.46618e-21)
(0.965233 -0.00228585 7.88162e-21)
(0.969667 -0.00209155 -2.63633e-21)
(0.975682 -0.00286884 -3.93698e-23)
(0.988904 -0.00317775 0)
(1.00502 -0.00172985 -9.13202e-22)
(1.01569 0.000714883 9.80446e-22)
(1.02309 0.00259401 -3.1834e-22)
(1.02624 0.00397192 3.17222e-22)
(1.0257 0.00424014 1.39779e-22)
(1.02167 0.00416013 -1.37176e-22)
(1.0086 0.00331883 0)
(0.99048 0.0030284 -1.18812e-22)
(0.973695 0.00422633 1.1859e-22)
(0.957323 0.00593725 3.99497e-24)
(0.943411 0.00809783 -5.24696e-22)
(0.935318 0.00865838 5.1745e-22)
(0.93399 0.00860402 -8.94616e-23)
(0.937837 0.00582645 -2.63103e-21)
(0.955196 0.000132415 2.8504e-21)
(0.998031 -0.0174578 -3.44747e-21)
(1.07086 -0.0356729 3.38781e-21)
(1.16922 -0.0506627 -9.25234e-23)
(1.27378 -0.0448682 1.78542e-21)
(1.34353 -0.0320431 -1.65187e-21)
(1.35904 -0.00140651 0)
(1.33407 0.0193581 -4.77722e-21)
(1.28452 0.0446608 4.85705e-21)
(1.17413 0.0391919 1.60229e-22)
(0.970076 0.000396198 7.19427e-21)
(0.968978 0.000958268 -2.42236e-22)
(0.967311 0.00195418 0)
(0.965372 0.00221173 2.62756e-22)
(0.962779 0.00235391 0)
(0.960465 0.00316534 -4.96796e-21)
(0.959689 0.00320141 -1.60087e-22)
(0.95876 0.00289347 5.05131e-21)
(0.957674 0.00223738 1.6061e-22)
(0.957824 0.00187662 0)
(0.958883 0.001651 5.04045e-22)
(0.961388 0.000377089 -5.42138e-21)
(0.966363 -0.000504406 5.62429e-21)
(0.972376 -0.00175852 2.49611e-22)
(0.978104 -0.00401761 -1.59564e-22)
(0.987604 -0.00628346 7.44445e-23)
(1.00247 -0.00533693 -9.98592e-22)
(1.01859 -0.00356306 1.65684e-22)
(1.03306 -0.000877647 8.57839e-22)
(1.04055 0.00149497 -4.34011e-24)
(1.04096 0.00297427 2.89993e-24)
(1.03723 0.00517096 1.57706e-22)
(1.02302 0.00804395 -1.62305e-22)
(1.00266 0.00848877 -1.13857e-22)
(0.985865 0.00722432 1.13648e-22)
(0.968596 0.00415463 0)
(0.951043 -0.000393902 -1.32842e-23)
(0.938698 -0.00621336 8.08785e-23)
(0.935424 -0.0103916 5.98331e-23)
(0.939539 -0.0163163 -2.30087e-22)
(0.956762 -0.0212097 -2.82074e-22)
(0.994701 -0.0334533 3.66248e-21)
(1.05038 -0.0407095 -1.38503e-22)
(1.13136 -0.0470449 -3.18886e-21)
(1.23777 -0.0287562 -1.13773e-22)
(1.32287 -0.00798983 0)
(1.34816 0.0151529 5.97615e-23)
(1.34187 0.0200412 -4.80659e-21)
(1.31291 0.0334066 4.82587e-21)
(1.21755 0.0213346 -1.14956e-22)
(0.969959 0.00086855 4.82315e-22)
(0.968723 0.00131941 -2.54445e-22)
(0.966899 0.00209052 0)
(0.96496 0.00177286 0)
(0.962057 0.00129861 -8.76872e-21)
(0.959992 0.000650571 9.10436e-21)
(0.959298 0.000221991 4.7464e-21)
(0.95798 -0.000295161 -4.7638e-21)
(0.956802 -0.00149621 5.3942e-21)
(0.957106 -0.00233557 -5.06473e-21)
(0.958492 -0.00274471 -3.45903e-22)
(0.961681 -0.00400186 -1.75178e-22)
(0.966485 -0.00479532 -1.73994e-22)
(0.973032 -0.00562396 -1.70307e-22)
(0.979239 -0.00777066 2.84153e-21)
(0.988462 -0.00975569 -1.43904e-22)
(1.00275 -0.00896589 -3.38804e-21)
(1.01784 -0.00618391 1.01316e-21)
(1.03483 -0.00228642 -2.37456e-23)
(1.04854 0.00146147 8.86341e-24)
(1.05259 0.0044309 -1.52712e-22)
(1.05104 0.00719909 3.11829e-22)
(1.04363 0.010386 -1.70476e-22)
(1.02842 0.0102105 -6.09186e-24)
(1.01245 0.0104332 0)
(0.994904 0.0116257 0)
(0.97626 0.0135401 -4.82331e-22)
(0.958292 0.012151 5.13791e-22)
(0.946766 0.00835295 -2.05533e-21)
(0.943756 -0.000939627 2.19208e-21)
(0.953294 -0.00932522 1.90162e-22)
(0.9802 -0.02992 -2.14949e-22)
(1.03431 -0.0516565 2.25569e-22)
(1.10454 -0.0833109 -2.97399e-21)
(1.19818 -0.0814497 6.54698e-21)
(1.29888 -0.0638334 -3.91628e-21)
(1.36786 -0.010409 3.38337e-22)
(1.37492 0.0200335 2.48501e-22)
(1.34647 0.060103 -5.24262e-22)
(1.251 0.0595021 3.28407e-22)
(0.969251 0.000785794 7.41974e-21)
(0.968037 0.00118916 -7.74803e-24)
(0.966035 0.0021797 0)
(0.964002 0.00216681 0)
(0.961648 0.00173906 -5.91167e-22)
(0.960004 0.00174625 9.31596e-22)
(0.95915 0.00166911 -4.90074e-21)
(0.957576 0.00124174 1.03146e-20)
(0.957027 0.000419662 -5.40929e-21)
(0.957472 -8.7127e-05 -3.49568e-22)
(0.958903 -0.000603128 0)
(0.962419 -0.00206396 -1.13918e-20)
(0.966815 -0.00347237 1.14581e-20)
(0.973442 -0.00501917 -3.0648e-21)
(0.982377 -0.00731258 2.55777e-21)
(0.991683 -0.0103388 -3.0953e-22)
(1.00126 -0.00982474 -1.16797e-21)
(1.01622 -0.00847212 1.70902e-22)
(1.03326 -0.00563921 8.61361e-22)
(1.05209 -0.00124834 -4.52749e-24)
(1.06341 0.0034523 -1.54521e-22)
(1.06465 0.00779775 3.20071e-22)
(1.0602 0.0130154 -1.5895e-22)
(1.0485 0.0154816 6.24125e-24)
(1.02815 0.0155481 3.66733e-24)
(1.00578 0.0131626 2.58042e-22)
(0.984012 0.010119 -2.17678e-22)
(0.962809 0.00276898 -6.66732e-24)
(0.949602 -0.00238615 -1.01536e-22)
(0.944278 -0.0111144 0)
(0.950949 -0.0177037 -1.76509e-22)
(0.970679 -0.0400625 0)
(1.02194 -0.0570991 -6.90371e-22)
(1.08149 -0.0872674 0)
(1.1654 -0.0888608 0)
(1.26276 -0.0843795 -1.40389e-21)
(1.3551 -0.0312286 1.33628e-21)
(1.38683 0.00462927 -5.24689e-21)
(1.36968 0.0526943 5.08501e-21)
(1.28557 0.0585898 -3.34277e-22)
(0.968751 0.00136944 0)
(0.967606 0.00181397 -8.34718e-24)
(0.965152 0.00295266 0)
(0.963563 0.00270146 0)
(0.961622 0.00262683 -1.0049e-20)
(0.959562 0.00204948 4.26065e-21)
(0.958472 0.00157733 1.06629e-20)
(0.957318 0.000869458 -5.4425e-21)
(0.956445 -0.000614973 0)
(0.956826 -0.0020452 0)
(0.95866 -0.00306524 0)
(0.96251 -0.00563424 -5.12805e-21)
(0.966693 -0.00718141 5.52994e-21)
(0.973792 -0.00953424 3.13647e-21)
(0.983055 -0.0124988 -3.12741e-21)
(0.992548 -0.0147608 -2.23253e-21)
(1.00184 -0.014602 1.4895e-21)
(1.01735 -0.014013 1.05002e-21)
(1.03472 -0.0104915 -3.42008e-22)
(1.05285 -0.00497438 3.42206e-22)
(1.0665 0.00120706 6.12251e-24)
(1.07038 0.00719249 1.41062e-23)
(1.06712 0.0137021 -1.25975e-23)
(1.05758 0.016589 0)
(1.04187 0.0187503 -3.76332e-24)
(1.0206 0.0192409 -2.11853e-22)
(0.999912 0.0215098 1.36856e-22)
(0.977155 0.018414 1.23924e-21)
(0.959271 0.0147826 -3.08173e-21)
(0.944233 -0.000374607 1.74166e-21)
(0.948037 -0.00935258 3.63373e-21)
(0.957491 -0.0337379 -2.67783e-21)
(1.00103 -0.0545305 4.69879e-22)
(1.05289 -0.0995254 3.58035e-21)
(1.13572 -0.112828 1.95344e-21)
(1.22009 -0.125523 -5.17484e-21)
(1.3314 -0.0691119 0)
(1.3982 -0.0193718 -4.3029e-21)
(1.39923 0.0583082 -2.35737e-21)
(1.32573 0.0777847 6.63288e-21)
(0.967893 0.00127457 9.59389e-21)
(0.96675 0.00178647 -8.90664e-24)
(0.964209 0.00284739 0)
(0.962948 0.00280324 0)
(0.960802 0.00257381 9.78882e-21)
(0.958937 0.00185519 -9.84124e-21)
(0.958024 0.00144842 5.60547e-21)
(0.956881 0.00038416 8.52732e-22)
(0.956361 -0.00112469 -5.80985e-21)
(0.957078 -0.00225814 6.01555e-21)
(0.958987 -0.00331334 -5.28543e-21)
(0.962878 -0.00557776 -6.40021e-21)
(0.967164 -0.00729875 6.79832e-21)
(0.975185 -0.0103387 0)
(0.983803 -0.0127855 3.02549e-21)
(0.993582 -0.0152575 -5.44574e-21)
(1.00385 -0.0152517 1.37732e-21)
(1.01939 -0.0149979 1.80166e-22)
(1.03519 -0.0117259 4.93088e-22)
(1.05234 -0.0069899 3.47767e-22)
(1.06816 0.00073439 1.50896e-22)
(1.07556 0.00752252 6.87321e-24)
(1.07467 0.01574 -1.51277e-22)
(1.06692 0.0209887 -3.06654e-23)
(1.05251 0.0244892 3.06023e-23)
(1.02936 0.0235252 1.71287e-22)
(1.00878 0.0228966 -1.63812e-22)
(0.982505 0.0158038 -5.52426e-23)
(0.965018 0.0117893 0)
(0.946003 -0.00127054 -2.5169e-21)
(0.946938 -0.0100548 2.03132e-21)
(0.948534 -0.0373707 3.12968e-21)
(0.985261 -0.0582292 -3.54636e-21)
(1.02475 -0.104546 -4.31182e-21)
(1.11044 -0.122627 3.32188e-21)
(1.1831 -0.154039 5.69589e-23)
(1.29773 -0.115569 0)
(1.39184 -0.067021 -3.43038e-21)
(1.42791 0.035495 -2.21316e-21)
(1.36161 0.0782275 4.96842e-21)
(0.967289 0.00194133 7.7649e-21)
(0.966084 0.00245421 -5.94822e-22)
(0.963662 0.0035227 1.00146e-20)
(0.962339 0.00347084 -1.00949e-20)
(0.960273 0.0031785 6.63205e-22)
(0.958588 0.0023822 -6.88633e-22)
(0.957668 0.00174563 0)
(0.956551 0.000364239 4.49694e-21)
(0.956106 -0.0011351 -6.01276e-21)
(0.95686 -0.00286001 0)
(0.958893 -0.00443811 4.67661e-21)
(0.962918 -0.00767188 -5.48867e-21)
(0.967761 -0.0101298 4.25457e-25)
(0.975161 -0.01386 0)
(0.984053 -0.0169918 2.7399e-21)
(0.994433 -0.0195249 -2.41689e-21)
(1.00559 -0.0198684 -1.08908e-21)
(1.02026 -0.0205585 1.85323e-22)
(1.03576 -0.0175947 6.04083e-22)
(1.05284 -0.0124422 3.71833e-22)
(1.06984 -0.00368833 0)
(1.07889 0.00551599 1.31635e-22)
(1.0797 0.0153544 -1.49033e-22)
(1.07201 0.020897 0)
(1.0596 0.0265531 6.56903e-24)
(1.03633 0.0273669 0)
(1.01767 0.030878 -2.56578e-22)
(0.989559 0.0268693 1.45853e-21)
(0.972989 0.024691 -1.25385e-21)
(0.948116 0.00858057 4.87169e-22)
(0.945829 -0.00157332 2.59029e-21)
(0.940211 -0.028533 -6.76399e-21)
(0.966918 -0.0486575 3.95763e-21)
(0.991753 -0.103109 -4.01506e-21)
(1.07449 -0.129438 1.11713e-20)
(1.1403 -0.173243 -7.52373e-21)
(1.2531 -0.156902 0)
(1.35741 -0.123533 -2.86818e-21)
(1.45302 -0.000915285 -4.02112e-21)
(1.39528 0.0784972 7.32215e-21)
(0.966314 0.00186406 0)
(0.965035 0.00234751 1.19995e-21)
(0.962907 0.00351491 0)
(0.961495 0.00323748 1.34667e-21)
(0.95947 0.00298033 9.87694e-21)
(0.957949 0.00216329 -5.52474e-21)
(0.957083 0.00126433 -5.87899e-21)
(0.956265 -0.000347985 7.63253e-22)
(0.955822 -0.00206897 0)
(0.957033 -0.0041428 0)
(0.959089 -0.00589992 7.24134e-21)
(0.963122 -0.00944825 -7.27317e-21)
(0.968501 -0.0120467 -1.19096e-21)
(0.975864 -0.0162925 -3.84584e-22)
(0.984888 -0.0189585 2.80593e-21)
(0.995687 -0.0213477 -2.47738e-21)
(1.0073 -0.021818 -1.11092e-21)
(1.02239 -0.0226884 1.91643e-22)
(1.03798 -0.0192731 5.64566e-22)
(1.05353 -0.0144028 3.57674e-22)
(1.07003 -0.00473155 1.24248e-23)
(1.08061 0.00477469 1.67331e-22)
(1.08448 0.0167684 -1.6395e-22)
(1.07718 0.0242993 2.05199e-24)
(1.0669 0.032096 -1.9691e-23)
(1.04311 0.0332666 0)
(1.02386 0.035937 -2.63368e-22)
(0.993909 0.030068 1.65002e-22)
(0.977326 0.0275394 1.651e-22)
(0.949023 0.0134815 -4.52495e-22)
(0.944213 0.00284522 3.1585e-22)
(0.932507 -0.0250798 3.81492e-21)
(0.954178 -0.0455774 -4.33053e-21)
(0.96658 -0.100794 1.01591e-21)
(1.03537 -0.133906 5.17494e-22)
(1.09088 -0.187288 -7.09267e-21)
(1.20971 -0.193743 6.08843e-21)
(1.30326 -0.190374 -1.67706e-21)
(1.46224 -0.0787978 1.66015e-21)
(1.42416 0.057892 0)
(0.965632 0.00261184 0)
(0.964345 0.00304226 0)
(0.962344 0.00410982 1.22149e-20)
(0.960656 0.0037542 -2.36591e-20)
(0.958918 0.0036226 1.13797e-20)
(0.957485 0.0024366 0)
(0.956743 0.00152357 6.25136e-21)
(0.955976 -0.000545857 1.18093e-22)
(0.955529 -0.00250204 -5.64429e-21)
(0.957024 -0.00480174 0)
(0.95917 -0.00715829 -8.36253e-22)
(0.963189 -0.0112101 8.32787e-22)
(0.968837 -0.0143382 4.02815e-21)
(0.976542 -0.0186802 -2.82903e-21)
(0.985022 -0.0222596 0)
(0.996505 -0.0249834 2.60727e-21)
(1.00897 -0.0258797 -4.05551e-21)
(1.02393 -0.0271563 2.2042e-21)
(1.03912 -0.0236709 -9.39072e-22)
(1.05393 -0.0189578 -3.92031e-25)
(1.07014 -0.00932712 -1.80426e-22)
(1.08245 0.00162767 1.55173e-22)
(1.08879 0.0160654 -7.56745e-24)
(1.08379 0.0244667 -2.11243e-24)
(1.07367 0.0343313 1.33249e-23)
(1.04914 0.0365495 0)
(1.0306 0.0413543 0)
(0.998272 0.0380347 7.86185e-23)
(0.981006 0.0363949 -1.37228e-21)
(0.950985 0.0234615 1.58565e-21)
(0.943807 0.0117705 0)
(0.925104 -0.0135138 -3.6303e-21)
(0.938507 -0.0333238 3.72131e-21)
(0.937324 -0.085845 -4.73701e-21)
(0.992186 -0.128385 4.20111e-21)
(1.0348 -0.18926 -6.27582e-21)
(1.15519 -0.21487 7.1973e-21)
(1.24147 -0.235165 0)
(1.43475 -0.177282 0)
(1.44279 0.00517822 -9.00941e-22)
(0.964586 0.0025023 -1.84096e-22)
(0.963356 0.00283853 1.16808e-20)
(0.96148 0.00395221 -1.38334e-21)
(0.959512 0.00345996 -1.4634e-21)
(0.958106 0.00329564 -1.22374e-20)
(0.956987 0.00189113 1.86263e-20)
(0.956007 0.000823557 -6.36038e-21)
(0.955661 -0.00155103 6.65953e-21)
(0.955512 -0.00359957 -8.39728e-21)
(0.956768 -0.00665961 -7.71913e-21)
(0.95955 -0.00920069 1.46311e-20)
(0.964124 -0.0135551 -1.4557e-20)
(0.96861 -0.017042 6.82664e-21)
(0.977033 -0.0221833 0)
(0.986124 -0.025452 0)
(0.998108 -0.028328 -3.38219e-21)
(1.01044 -0.0290032 2.14889e-21)
(1.02419 -0.030448 1.1601e-21)
(1.04116 -0.0266863 4.19597e-22)
(1.0566 -0.0221583 -3.86975e-22)
(1.07195 -0.0117049 1.27541e-23)
(1.08264 -0.000534248 1.30835e-22)
(1.09152 0.015428 -1.22868e-22)
(1.08748 0.0257712 1.50651e-22)
(1.07987 0.0382268 -1.5003e-22)
(1.05831 0.0423185 0)
(1.0392 0.0484836 0)
(1.00489 0.0449474 3.22585e-23)
(0.986248 0.04324 -1.19787e-21)
(0.950858 0.0315775 1.1914e-21)
(0.940311 0.0194853 2.68192e-21)
(0.915558 -0.00431803 1.05036e-21)
(0.924674 -0.0256182 -3.08304e-21)
(0.913681 -0.0729054 -4.22303e-21)
(0.953794 -0.120048 1.30132e-20)
(0.984747 -0.187736 -7.64162e-21)
(1.10009 -0.234987 -9.82089e-22)
(1.18331 -0.268296 1.64308e-21)
(1.38755 -0.277422 -1.59488e-21)
(1.45258 -0.0806811 2.22491e-22)
(0.963725 0.00322941 -1.06777e-20)
(0.96253 0.00346895 2.06539e-20)
(0.960575 0.00461637 3.83664e-22)
(0.958753 0.00396095 -2.42577e-20)
(0.957529 0.00359846 1.55434e-20)
(0.956411 0.00202737 0)
(0.955543 0.000785221 0)
(0.955165 -0.00196578 1.72756e-21)
(0.955398 -0.00425746 8.73169e-22)
(0.956556 -0.00774897 -5.33086e-21)
(0.959592 -0.0109625 7.1542e-21)
(0.964202 -0.0153943 -7.0238e-21)
(0.968823 -0.0198508 1.04763e-20)
(0.977378 -0.0249321 -2.59119e-21)
(0.986673 -0.0288607 3.03888e-21)
(0.998564 -0.031713 -5.4251e-21)
(1.01218 -0.0324985 1.24032e-21)
(1.02621 -0.0345675 7.96331e-23)
(1.04277 -0.0307194 6.53962e-22)
(1.05784 -0.0258421 3.71358e-22)
(1.07316 -0.0150155 0)
(1.08343 -0.00416548 9.18141e-23)
(1.0937 0.0139616 -1.14858e-22)
(1.09215 0.0255346 0)
(1.08651 0.0404576 0)
(1.06634 0.0458694 1.89699e-22)
(1.04869 0.0537283 -2.11207e-22)
(1.01201 0.0524743 -1.61528e-23)
(0.991716 0.0516428 7.14927e-23)
(0.953201 0.0421778 0)
(0.940425 0.0295676 -2.49449e-21)
(0.909948 0.00905841 2.22532e-21)
(0.91109 -0.0114672 -7.65755e-22)
(0.891682 -0.0511963 0)
(0.916138 -0.101813 0)
(0.93815 -0.168138 -9.90414e-21)
(1.02985 -0.240416 9.7097e-21)
(1.1168 -0.278875 2.83156e-21)
(1.31395 -0.3621 -3.9225e-21)
(1.44101 -0.183215 7.2033e-22)
(0.962655 0.00294447 -1.1158e-20)
(0.961502 0.0031287 1.2763e-20)
(0.959505 0.00424333 0)
(0.957941 0.00345226 3.16664e-21)
(0.95679 0.00294823 -3.28091e-21)
(0.955732 0.00119755 8.55895e-21)
(0.955091 -0.000221114 -8.66206e-21)
(0.954539 -0.00332481 1.9448e-23)
(0.955308 -0.00585561 -7.31584e-21)
(0.956942 -0.0100192 1.29018e-20)
(0.958966 -0.0135401 -5.56669e-21)
(0.964337 -0.0183622 8.19547e-21)
(0.970236 -0.0229408 -3.77868e-21)
(0.977165 -0.0288359 -4.41613e-21)
(0.987121 -0.0326211 0)
(0.999511 -0.035978 0)
(1.01509 -0.0365505 0)
(1.02852 -0.0384386 -9.88596e-22)
(1.04405 -0.0345327 7.72208e-22)
(1.05838 -0.0297257 0)
(1.07599 -0.0181 1.42553e-22)
(1.0853 -0.00706496 -4.42408e-23)
(1.0967 0.0120177 -1.48453e-22)
(1.09538 0.0249645 5.27044e-23)
(1.09188 0.0419067 0)
(1.07302 0.0496067 -3.49106e-22)
(1.05723 0.0599846 1.56987e-22)
(1.02256 0.0608738 1.71e-22)
(1.00143 0.0605471 -3.42171e-23)
(0.959344 0.0529905 0)
(0.942124 0.0410589 -2.01911e-21)
(0.90469 0.0212347 2.00485e-21)
(0.899635 0.00086087 1.4974e-21)
(0.877766 -0.0321959 -3.08575e-21)
(0.883457 -0.0856574 1.17371e-20)
(0.908904 -0.143997 -8.73235e-21)
(0.947561 -0.238372 0)
(1.05137 -0.276181 6.37654e-21)
(1.2054 -0.426912 -5.63737e-21)
(1.40574 -0.297963 6.40023e-23)
(0.961755 0.00366065 0)
(0.960566 0.00373933 1.22927e-20)
(0.958548 0.00478527 3.92254e-22)
(0.956963 0.00383738 -1.63721e-20)
(0.955984 0.0031145 1.3839e-20)
(0.954735 0.00113729 -1.39763e-20)
(0.954153 -0.000568948 1.81091e-21)
(0.954346 -0.00400892 5.64317e-21)
(0.954646 -0.00702392 -9.471e-21)
(0.956757 -0.0114493 9.59398e-21)
(0.959246 -0.0156713 -1.53663e-20)
(0.963741 -0.0207904 6.75056e-21)
(0.970472 -0.0260478 3.65651e-21)
(0.977587 -0.0319094 -3.67467e-21)
(0.987602 -0.0362775 -4.06644e-21)
(1.0006 -0.0403215 6.12556e-21)
(1.01621 -0.0404499 -4.13973e-21)
(1.03022 -0.0424276 1.10302e-21)
(1.04704 -0.0379489 1.11411e-22)
(1.06041 -0.0338431 -1.92609e-23)
(1.07833 -0.0215903 1.35267e-22)
(1.08738 -0.0108045 -1.13456e-22)
(1.09891 0.00982882 -3.74687e-24)
(1.0983 0.0238666 4.23981e-22)
(1.09736 0.0430507 -3.79292e-22)
(1.07991 0.0526814 1.83985e-22)
(1.06599 0.0647501 1.08553e-22)
(1.03341 0.0682363 -2.74236e-23)
(1.01208 0.0696265 -5.24135e-22)
(0.967775 0.0651472 -6.29276e-22)
(0.947525 0.0533212 1.10303e-21)
(0.909702 0.0373648 2.41811e-21)
(0.891451 0.0149827 -3.12822e-21)
(0.874561 -0.00580085 -3.82367e-21)
(0.852002 -0.0595063 5.67209e-21)
(0.890004 -0.108399 0)
(0.876179 -0.215364 0)
(0.986506 -0.251476 7.97086e-21)
(1.07726 -0.445995 -6.28984e-21)
(1.35085 -0.409672 2.15382e-22)
(0.960432 0.00314883 -1.9818e-22)
(0.959415 0.00324653 1.08537e-20)
(0.957538 0.00413183 1.68194e-21)
(0.955978 0.00300573 1.71969e-21)
(0.955283 0.00203718 1.80868e-20)
(0.953981 -3.30376e-05 -9.01304e-21)
(0.953246 -0.00207128 -9.4578e-21)
(0.954286 -0.00577701 0)
(0.95423 -0.00925788 1.97169e-21)
(0.956412 -0.0141981 5.98692e-21)
(0.95941 -0.0187391 -1.00458e-20)
(0.963831 -0.0243533 -7.83358e-21)
(0.970272 -0.0299817 8.85235e-21)
(0.978382 -0.0361461 0)
(0.988828 -0.0409176 4.19723e-21)
(1.00115 -0.045133 -3.33742e-21)
(1.01793 -0.0452074 -1.2696e-21)
(1.0322 -0.0466999 5.38583e-22)
(1.05064 -0.042173 1.40285e-21)
(1.06311 -0.0379456 -3.59789e-22)
(1.08074 -0.0252325 -1.10335e-23)
(1.08872 -0.0141499 0)
(1.10222 0.00733443 4.40394e-24)
(1.10208 0.0223905 -4.5096e-23)
(1.10318 0.0428813 7.65767e-23)
(1.08617 0.05478 -6.9502e-22)
(1.0737 0.0685284 8.69567e-22)
(1.04251 0.0750461 -4.2355e-22)
(1.02215 0.0786375 0)
(0.980226 0.0765808 0)
(0.955529 0.0668986 -1.46179e-21)
(0.921782 0.0549059 1.45054e-21)
(0.885275 0.0286054 0)
(0.873562 0.0107721 -1.55582e-21)
(0.838384 -0.0352373 -8.02007e-21)
(0.867435 -0.0759085 -6.68505e-22)
(0.843065 -0.183215 8.41418e-21)
(0.932564 -0.221366 6.732e-21)
(0.996936 -0.419719 -7.82158e-21)
(1.25271 -0.479123 2.55817e-22)
(0.959309 0.00375714 -1.28782e-20)
(0.958222 0.00375332 1.30876e-20)
(0.956409 0.00448338 -1.73437e-21)
(0.954888 0.00321095 0)
(0.953669 0.00208206 -1.70719e-20)
(0.95323 -0.000389428 2.31872e-20)
(0.952079 -0.00289181 -5.92548e-21)
(0.953278 -0.00703887 0)
(0.953894 -0.0107761 1.86663e-20)
(0.956108 -0.016197 -9.4411e-21)
(0.958892 -0.0215159 -8.39818e-21)
(0.964132 -0.0271939 -8.15079e-21)
(0.970319 -0.0333411 1.11312e-20)
(0.97855 -0.0402027 -2.99163e-21)
(0.989373 -0.0447765 4.33479e-21)
(1.00194 -0.0499355 -3.85452e-21)
(1.01942 -0.0493424 -1.29928e-21)
(1.03455 -0.0517146 2.62257e-22)
(1.05337 -0.0461175 7.70309e-22)
(1.06565 -0.0420281 3.61652e-22)
(1.08416 -0.0282246 2.18856e-23)
(1.09114 -0.0179781 7.91557e-24)
(1.10502 0.00395534 6.19196e-24)
(1.10525 0.020365 5.96041e-22)
(1.10867 0.0422862 -6.73408e-22)
(1.09241 0.057059 7.15055e-22)
(1.08137 0.0717676 -5.21245e-22)
(1.0513 0.0812853 0)
(1.03208 0.0863655 2.94684e-22)
(0.994915 0.0895407 -6.56406e-22)
(0.960401 0.0777579 -8.11041e-22)
(0.937458 0.0725291 1.09976e-21)
(0.890725 0.0505609 0)
(0.875695 0.031194 -2.30468e-21)
(0.833728 -0.00609456 2.12428e-21)
(0.846333 -0.0418591 9.11203e-22)
(0.814013 -0.135414 -1.00422e-21)
(0.871013 -0.18014 0)
(0.950823 -0.355826 0)
(1.08382 -0.477693 -1.29366e-21)
(0.958156 0.00300508 -1.35158e-20)
(0.957173 0.0029488 1.37459e-20)
(0.95541 0.00352144 0)
(0.953888 0.00212093 0)
(0.952508 0.000612857 0)
(0.952442 -0.00214866 0)
(0.951317 -0.00498253 0)
(0.952995 -0.00930713 0)
(0.95299 -0.0136601 -1.30157e-20)
(0.956107 -0.0196858 1.53251e-20)
(0.958766 -0.0252917 8.66406e-21)
(0.964127 -0.0312812 -1.31536e-21)
(0.971164 -0.0381215 -4.45635e-21)
(0.978987 -0.045235 -5.11975e-21)
(0.99023 -0.0499221 -4.48437e-21)
(1.00245 -0.0553501 8.40148e-22)
(1.02103 -0.055411 1.82803e-21)
(1.03694 -0.0565588 1.29337e-22)
(1.05706 -0.050425 4.47361e-22)
(1.06873 -0.0464171 3.81051e-22)
(1.08866 -0.0323528 -1.11867e-24)
(1.0949 -0.0214581 -2.61511e-23)
(1.10833 0.000437962 2.83064e-22)
(1.10865 0.0179496 -1.40151e-22)
(1.11459 0.040557 0)
(1.1001 0.0578738 -2.46885e-22)
(1.09074 0.0749018 -1.96854e-22)
(1.06259 0.0863908 0)
(1.0387 0.092019 5.41591e-22)
(1.01327 0.101011 -6.18298e-22)
(0.969662 0.091667 1.43689e-22)
(0.946463 0.0856308 0)
(0.899287 0.070239 0)
(0.881574 0.0520586 -2.67684e-21)
(0.835252 0.0213963 2.65038e-21)
(0.833588 -0.0116116 -1.32817e-22)
(0.796205 -0.0879259 9.301e-23)
(0.806668 -0.145393 7.53884e-21)
(0.885207 -0.278533 -8.45153e-21)
(0.948133 -0.440501 7.52796e-22)
(0.956974 0.00349825 0)
(0.955801 0.0031802 0)
(0.953429 0.00359093 0)
(0.952587 0.00202563 0)
(0.950863 0.000207912 0)
(0.95077 -0.00320197 1.07983e-20)
(0.950145 -0.00613823 -8.72685e-21)
(0.951911 -0.0109729 -8.99717e-21)
(0.952258 -0.0160372 2.04458e-20)
(0.955407 -0.0221692 -4.6113e-21)
(0.957841 -0.0285512 -1.03542e-20)
(0.963752 -0.0351949 2.25968e-21)
(0.971721 -0.0419251 1.09938e-21)
(0.979129 -0.0495268 -1.04458e-21)
(0.991886 -0.0543325 3.67194e-21)
(1.00317 -0.0610455 -4.1224e-21)
(1.02249 -0.0602858 -1.35925e-21)
(1.03713 -0.0620484 1.36288e-21)
(1.06081 -0.0550506 -1.49844e-22)
(1.07317 -0.0508694 3.97499e-22)
(1.09263 -0.0362401 -1.2934e-24)
(1.09871 -0.0248546 -6.79795e-24)
(1.11268 -0.00351467 -4.23103e-23)
(1.11222 0.0152858 8.85275e-22)
(1.12017 0.0380806 -8.6849e-22)
(1.10787 0.0579818 5.51315e-22)
(1.09842 0.0757975 -1.01675e-21)
(1.0789 0.0932174 1.01081e-21)
(1.04523 0.0978054 -2.11184e-22)
(1.02402 0.108949 0)
(0.98206 0.108558 -2.3117e-22)
(0.959565 0.100364 1.17419e-21)
(0.91015 0.087303 -9.36397e-22)
(0.885965 0.0756654 0)
(0.846738 0.0479766 0)
(0.827479 0.0236994 -7.65039e-21)
(0.794283 -0.0288524 8.56152e-21)
(0.753385 -0.0956976 -7.94233e-21)
(0.801434 -0.194464 7.97784e-21)
(0.876774 -0.368704 8.70761e-22)
(0.955926 0.00256235 0)
(0.954651 0.00186149 0)
(0.952039 0.00195655 1.64862e-20)
(0.951563 0.000418017 -1.88206e-20)
(0.949539 -0.00182154 1.76874e-20)
(0.9499 -0.00554865 -2.24182e-20)
(0.949035 -0.00898335 -1.16453e-20)
(0.950768 -0.0143277 -2.44235e-21)
(0.952389 -0.0196412 1.19736e-20)
(0.954637 -0.0262364 0)
(0.958502 -0.0333021 2.40312e-21)
(0.963081 -0.0402192 -1.165e-20)
(0.972655 -0.0474175 8.20713e-21)
(0.978782 -0.0554669 1.08557e-21)
(0.994432 -0.0606161 1.00467e-21)
(1.00449 -0.0665691 3.25098e-24)
(1.02515 -0.0666523 -1.00585e-21)
(1.03855 -0.0681981 3.16549e-22)
(1.06349 -0.0611118 5.87594e-22)
(1.07613 -0.0557294 3.73724e-22)
(1.09752 -0.0405566 -9.16187e-24)
(1.10459 -0.0282086 -1.36872e-22)
(1.1189 -0.00755454 1.36613e-22)
(1.11836 0.0116176 -1.04778e-22)
(1.12381 0.0345374 0)
(1.12024 0.0578465 -3.06793e-22)
(1.10395 0.074475 1.27165e-21)
(1.0934 0.0967913 -3.47635e-21)
(1.06093 0.106344 7.07706e-22)
(1.03968 0.114821 2.51472e-21)
(0.995136 0.118602 -1.33376e-21)
(0.970846 0.118758 -1.09241e-22)
(0.928696 0.10379 5.35989e-22)
(0.892791 0.0976534 0)
(0.861857 0.0718367 0)
(0.826795 0.05011 0)
(0.804911 0.0183392 -1.57257e-22)
(0.739515 -0.0396575 8.20994e-21)
(0.75373 -0.118 -7.18287e-21)
(0.790847 -0.284861 -1.69966e-21)
(0.953856 0.00282273 -1.60453e-20)
(0.952715 0.00170921 1.63125e-20)
(0.950269 0.00172223 0)
(0.949235 -0.000380478 2.21556e-21)
(0.948007 -0.00261371 0)
(0.947764 -0.00716204 4.77359e-21)
(0.947687 -0.010809 -1.96929e-20)
(0.948592 -0.0166045 1.48716e-20)
(0.951004 -0.0227667 -5.04191e-21)
(0.953601 -0.0295207 7.62026e-21)
(0.958534 -0.0370797 1.50808e-23)
(0.961454 -0.0449187 1.22059e-20)
(0.97326 -0.0522127 -9.79726e-21)
(0.979284 -0.0606905 -1.13519e-21)
(0.995042 -0.0658976 -1.04576e-21)
(1.0055 -0.0725542 4.07233e-24)
(1.02746 -0.0725358 -3.98089e-22)
(1.04141 -0.0739197 -1.08176e-21)
(1.06636 -0.06652 1.45e-21)
(1.07943 -0.0603849 -3.66562e-22)
(1.10085 -0.0462423 -4.53412e-23)
(1.11093 -0.0321044 -1.63902e-22)
(1.12281 -0.0123451 -2.32159e-22)
(1.12959 0.00993275 4.33443e-22)
(1.12527 0.0290397 -1.83501e-22)
(1.12988 0.0568106 -1.98511e-21)
(1.11258 0.0753428 1.56618e-21)
(1.1044 0.0962549 4.10715e-22)
(1.07379 0.112848 3.65732e-22)
(1.05442 0.124265 2.21855e-22)
(1.014 0.129089 4.16847e-22)
(0.982247 0.135101 0)
(0.949833 0.120618 -1.27285e-22)
(0.900436 0.118036 0)
(0.877913 0.101638 3.2309e-22)
(0.839991 0.0752951 0)
(0.813145 0.0588336 -1.32521e-21)
(0.748343 0.0244161 6.19191e-21)
(0.744281 -0.0327655 -6.04379e-22)
(0.730667 -0.176952 -5.93869e-21)
(0.952128 0.00113039 1.46732e-20)
(0.951111 -0.000276888 0)
(0.948703 -0.000497435 2.30761e-21)
(0.947557 -0.00291411 -2.15675e-20)
(0.947034 -0.0053419 1.94232e-20)
(0.945796 -0.0104857 -5.05154e-21)
(0.947168 -0.0144833 2.33575e-20)
(0.947566 -0.0209139 -2.63138e-20)
(0.950148 -0.0277027 2.64855e-21)
(0.952199 -0.0347241 2.66096e-21)
(0.959113 -0.0429298 -1.32352e-21)
(0.961804 -0.0509322 -1.29856e-21)
(0.973533 -0.0589879 4.86428e-21)
(0.980297 -0.0672986 -3.7209e-21)
(0.997279 -0.0733264 0)
(1.00785 -0.0792219 5.28508e-24)
(1.02968 -0.080124 -4.00071e-22)
(1.04405 -0.0801739 0)
(1.0681 -0.073685 -3.55733e-22)
(1.08662 -0.0662209 3.56099e-22)
(1.10309 -0.0521362 6.4982e-24)
(1.12065 -0.0352551 0)
(1.12469 -0.0193566 0)
(1.14012 0.00681538 0)
(1.1338 0.0259 4.04948e-22)
(1.13872 0.0511986 4.27731e-22)
(1.12336 0.0751565 -1.8792e-21)
(1.11678 0.0959392 1.43762e-21)
(1.08843 0.114962 -8.41402e-22)
(1.07033 0.130767 4.03049e-22)
(1.03475 0.137431 1.27519e-21)
(0.998837 0.148158 -3.04728e-21)
(0.973808 0.139614 9.21185e-22)
(0.92343 0.134239 7.00183e-22)
(0.885383 0.128604 -3.60644e-21)
(0.865059 0.101322 2.54664e-21)
(0.830127 0.0855802 6.04994e-22)
(0.762116 0.0666608 5.70803e-21)
(0.749902 0.0370793 5.77371e-22)
(0.71759 -0.067949 -4.63366e-21)
(0.949657 0.00106874 2.20215e-21)
(0.948062 -0.000779668 -2.35684e-21)
(0.946241 -0.00127245 5.97218e-23)
(0.944061 -0.004023 2.49059e-21)
(0.944378 -0.00699997 0)
(0.943442 -0.0123642 -5.42993e-21)
(0.944349 -0.0176021 1.09431e-20)
(0.945108 -0.0238 1.39711e-20)
(0.949027 -0.031566 -1.13263e-20)
(0.949693 -0.0389316 2.85897e-21)
(0.958021 -0.0480583 0)
(0.961283 -0.0562144 -9.36584e-21)
(0.973285 -0.0651923 1.72669e-20)
(0.98041 -0.0730214 -3.9029e-21)
(0.997964 -0.0802374 -1.12669e-21)
(1.01075 -0.0853357 4.12749e-21)
(1.03037 -0.0868765 -3.22645e-21)
(1.05098 -0.0859498 0)
(1.0678 -0.0813035 0)
(1.09304 -0.070219 0)
(1.10429 -0.0601629 -2.20293e-24)
(1.12817 -0.0390728 0)
(1.13127 -0.0235011 -6.35458e-22)
(1.14678 0.000440129 2.32418e-21)
(1.1426 0.0234992 -1.90655e-21)
(1.14823 0.0467531 -5.59775e-22)
(1.13369 0.0731471 0)
(1.1293 0.0950776 0)
(1.10332 0.118471 -8.75997e-23)
(1.08468 0.135547 -3.81898e-21)
(1.05401 0.145444 -1.18715e-22)
(1.01414 0.160685 2.36827e-21)
(0.98881 0.158624 4.56619e-22)
(0.950826 0.152342 2.78601e-22)
(0.900093 0.151352 -4.06812e-23)
(0.874701 0.131747 1.48864e-22)
(0.853237 0.1134 0)
(0.793014 0.100752 -5.78719e-22)
(0.757812 0.0911862 3.9625e-21)
(0.726643 0.0235821 -3.75714e-21)
(0.94812 -0.00139924 -2.14359e-20)
(0.945977 -0.00363441 2.44798e-21)
(0.944606 -0.00460474 -2.55079e-21)
(0.941875 -0.00734725 2.72315e-21)
(0.942711 -0.010931 -2.82155e-21)
(0.94182 -0.0168793 2.01878e-20)
(0.94298 -0.0227172 -2.33313e-20)
(0.943087 -0.0292246 0)
(0.948434 -0.0381032 3.0404e-21)
(0.949443 -0.0452678 8.93673e-21)
(0.956956 -0.0558373 -1.20492e-20)
(0.961883 -0.0630685 -1.2769e-20)
(0.973263 -0.0739952 1.53911e-20)
(0.984148 -0.0804684 -5.39699e-21)
(0.996536 -0.0895309 9.00985e-24)
(1.01688 -0.0924037 0)
(1.03035 -0.0968298 -1.89149e-21)
(1.05702 -0.092432 7.33931e-22)
(1.07179 -0.0896334 1.0647e-21)
(1.09832 -0.0767384 0)
(1.10984 -0.0665267 2.31022e-24)
(1.13341 -0.0461876 -4.71679e-22)
(1.13818 -0.0292356 6.39189e-22)
(1.15496 -0.00640077 -2.35032e-22)
(1.15212 0.0194511 0)
(1.15949 0.0399557 1.2327e-21)
(1.14705 0.0702082 0)
(1.14307 0.0918196 0)
(1.11978 0.116183 1.28459e-21)
(1.10206 0.140576 0)
(1.07666 0.150891 9.10409e-22)
(1.03724 0.167082 -2.11914e-21)
(1.00455 0.173933 1.57724e-21)
(0.976929 0.169898 -2.47441e-22)
(0.927163 0.170792 2.04731e-22)
(0.889792 0.158465 -3.56834e-22)
(0.872751 0.13973 0)
(0.829653 0.123867 2.15097e-22)
(0.780463 0.127243 -3.76394e-21)
(0.745197 0.0771621 3.78213e-21)