/*--------------------------------*- C++ -*----------------------------------*\
  =========                 |
  \\      /  F ield         | OpenFOAM: The Open Source CFD Toolbox
   \\    /   O peration     | Website:  https://openfoam.org
    \\  /    A nd           | Version:  10
     \\/     M anipulation  |
\*---------------------------------------------------------------------------*/
FoamFile
{
    format      ascii;
    class       surfaceScalarField;
    location    "0.301005";
    object      phi;
}
// * * * * * * * * * * * * * * * * * * * * * * * * * * * * * * * * * * * * * //

dimensions      [1 0 -1 0 0 0 0];

internalField   nonuniform List<scalar> 
31108
(
0.000339517
-2.19764e-05
0.000338412
-2.1484e-05
0.000337591
-2.13852e-05
0.00033701
-2.15148e-05
0.000336589
-2.17949e-05
0.000336278
-2.21645e-05
0.000336042
-2.25634e-05
0.000335835
-2.29261e-05
0.000335613
-2.31832e-05
0.000335351
-2.32796e-05
0.000334994
-2.31557e-05
0.000334528
-2.27576e-05
0.00033393
-2.20276e-05
0.000333157
-2.09313e-05
0.000332205
-1.94288e-05
0.000331056
-1.74925e-05
0.000329706
-1.51016e-05
0.000328157
-1.22534e-05
0.000326423
-8.95896e-06
0.000324595
-5.24616e-06
0.000322676
-1.11648e-06
0.000320743
3.31966e-06
0.00031882
7.99954e-06
0.000316979
1.28624e-05
0.000315301
1.77876e-05
0.000313798
2.26814e-05
0.000312502
2.74622e-05
0.000311429
3.20402e-05
0.000310604
3.63394e-05
0.000310015
4.03052e-05
0.000309626
4.38595e-05
0.000309441
4.69583e-05
0.000309415
4.95649e-05
0.000309539
5.16694e-05
0.00030981
5.32608e-05
0.000310189
5.43559e-05
0.000310697
5.49573e-05
0.000311335
5.51035e-05
0.000312094
5.48168e-05
0.000313048
5.41488e-05
0.000314198
5.31263e-05
0.000315566
5.18209e-05
0.000317189
5.0283e-05
0.000319087
4.85599e-05
0.000321257
4.67139e-05
0.000323725
4.47682e-05
0.000326487
4.27689e-05
0.000329548
4.0735e-05
0.000332888
3.86909e-05
0.000336486
3.665e-05
3.46251e-05
0.000340319
0.000340275
-1.8483e-05
0.000338996
-1.78456e-05
0.000338027
-1.7582e-05
0.000337331
-1.75718e-05
0.000336853
-1.77214e-05
0.000336541
-1.79638e-05
0.000336348
-1.82468e-05
0.000336219
-1.84902e-05
0.000336118
-1.86471e-05
0.000336001
-1.86537e-05
0.000335847
-1.84571e-05
0.000335598
-1.80077e-05
0.000335246
-1.72541e-05
0.00033476
-1.6165e-05
0.000334101
-1.46995e-05
0.000333257
-1.2834e-05
0.000332217
-1.05494e-05
0.000330984
-7.83727e-06
0.000329555
-4.70148e-06
0.00032796
-1.1536e-06
0.000326259
2.74139e-06
0.000324473
6.97308e-06
0.00032266
1.14568e-05
0.000320882
1.61176e-05
0.000319172
2.0869e-05
0.00031758
2.56093e-05
0.000316149
3.02429e-05
0.00031489
3.46838e-05
0.000313804
3.88474e-05
0.000312921
4.26574e-05
0.000312238
4.60505e-05
0.00031171
4.89633e-05
0.00031134
5.13721e-05
0.000311114
5.32549e-05
0.000310998
5.45992e-05
0.000311035
5.54046e-05
0.000311189
5.57059e-05
0.000311495
5.55266e-05
0.000311977
5.4912e-05
0.000312672
5.39129e-05
0.000313575
5.25965e-05
0.00031473
5.10021e-05
0.000316154
4.92017e-05
0.000317882
4.72412e-05
0.000319922
4.51824e-05
0.000322278
4.30535e-05
0.000324962
4.08968e-05
0.00032794
3.87296e-05
0.000331214
3.65697e-05
0.000334761
3.44334e-05
3.23269e-05
0.000338546
0.000341131
-1.52838e-05
0.000339621
-1.44115e-05
0.000338512
-1.39581e-05
0.000337712
-1.37446e-05
0.000337171
-1.37097e-05
0.000336848
-1.37768e-05
0.000336679
-1.3884e-05
0.000336622
-1.39723e-05
0.000336629
-1.39861e-05
0.000336657
-1.38698e-05
0.000336672
-1.35752e-05
0.000336626
-1.30548e-05
0.000336497
-1.2269e-05
0.000336253
-1.11826e-05
0.000335856
-9.76401e-06
0.000335283
-7.9876e-06
0.000334528
-5.83224e-06
0.000333571
-3.28959e-06
0.000332413
-3.57511e-07
0.000331075
2.95087e-06
0.000329566
6.60911e-06
0.00032792
1.05675e-05
0.000326233
1.47859e-05
0.0003245
1.91793e-05
0.000322788
2.37024e-05
0.000321123
2.82308e-05
0.000319552
3.26751e-05
0.000318105
3.69418e-05
0.000316785
4.09509e-05
0.000315617
4.4606e-05
0.000314595
4.78418e-05
0.000313718
5.05967e-05
0.00031298
5.28362e-05
0.000312371
5.45275e-05
0.000311903
5.56682e-05
0.000311566
5.62615e-05
0.000311378
5.63295e-05
0.000311374
5.59165e-05
0.000311553
5.50635e-05
0.000311966
5.3837e-05
0.000312649
5.22937e-05
0.000313607
5.04987e-05
0.000314877
4.85122e-05
0.000316474
4.63864e-05
0.000318416
4.41709e-05
0.000320688
4.19027e-05
0.000323292
3.96217e-05
0.000326216
3.73279e-05
0.00032944
3.50486e-05
0.000332946
3.27922e-05
3.05664e-05
0.000336697
0.000342102
-1.2365e-05
0.000340387
-1.12254e-05
0.000339115
-1.05208e-05
0.000338201
-1.00523e-05
0.00033759
-9.77614e-06
0.000337239
-9.61352e-06
0.000337088
-9.49544e-06
0.000337086
-9.38041e-06
0.000337181
-9.20887e-06
0.000337331
-8.9342e-06
0.000337483
-8.51241e-06
0.000337609
-7.90372e-06
0.000337671
-7.07305e-06
0.000337624
-5.98852e-06
0.000337452
-4.62148e-06
0.00033712
-2.94693e-06
0.000336604
-9.48112e-07
0.000335894
1.39185e-06
0.000334977
4.0771e-06
0.000333858
7.10165e-06
0.000332548
1.04533e-05
0.00033107
1.41011e-05
0.000329469
1.79859e-05
0.0003278
2.20794e-05
0.000326092
2.62742e-05
0.000324385
3.05323e-05
0.000322681
3.4747e-05
0.000321041
3.88003e-05
0.000319496
4.26167e-05
0.000318044
4.61062e-05
0.000316693
4.91907e-05
0.000315465
5.17999e-05
0.000314351
5.38978e-05
0.000313353
5.54456e-05
0.000312507
5.64378e-05
0.0003118
5.68835e-05
0.000311273
5.67974e-05
0.00031094
5.62376e-05
0.000310843
5.52396e-05
0.000311013
5.38748e-05
0.000311473
5.22084e-05
0.000312272
5.02967e-05
0.000313409
4.82026e-05
0.000314892
4.59821e-05
0.000316726
4.36798e-05
0.00031895
4.13211e-05
0.000321474
3.89143e-05
0.000324355
3.65199e-05
0.000327541
3.41061e-05
0.000331012
3.17099e-05
2.93199e-05
0.000334738
0.000343238
-9.7323e-06
0.000341325
-8.32247e-06
0.000339867
-7.27947e-06
0.000338843
-6.52386e-06
0.000338163
-5.93724e-06
0.000337772
-5.48734e-06
0.000337626
-5.09688e-06
0.000337659
-4.72469e-06
0.00033781
-4.32511e-06
0.000338042
-3.85604e-06
0.000338307
-3.27823e-06
0.000338555
-2.56051e-06
0.000338766
-1.67225e-06
0.00033889
-5.82146e-07
0.000338888
7.28471e-07
0.000338747
2.28014e-06
0.000338435
4.1027e-06
0.000337929
6.20781e-06
0.000337214
8.60713e-06
0.000336294
1.13072e-05
0.000335163
1.42983e-05
0.000333837
1.75707e-05
0.000332347
2.10807e-05
0.000330754
2.47586e-05
0.000329046
2.863e-05
0.00032729
3.25352e-05
0.000325507
3.64283e-05
0.000323712
4.02322e-05
0.000321935
4.38304e-05
0.000320209
4.71302e-05
0.000318542
5.00545e-05
0.000316962
5.2531e-05
0.000315484
5.45095e-05
0.000314102
5.59621e-05
0.000312873
5.68619e-05
0.000311804
5.72302e-05
0.000310931
5.70758e-05
0.000310307
5.64572e-05
0.000309924
5.54146e-05
0.00030987
5.401e-05
0.000310155
5.23174e-05
0.000310767
5.03826e-05
0.000311783
4.8271e-05
0.000313188
4.60299e-05
0.000314919
4.36759e-05
0.000317057
4.12649e-05
0.000319552
3.87939e-05
0.000322347
3.62776e-05
0.000325484
3.37344e-05
0.000328903
3.1166e-05
2.85818e-05
0.000332597
0.000344596
-7.46672e-06
0.000342437
-5.67718e-06
0.000340827
-4.29092e-06
0.000339678
-3.16191e-06
0.000338922
-2.22431e-06
0.000338475
-1.41392e-06
0.000338309
-7.00199e-07
0.000338351
-2.04748e-08
0.000338537
6.56821e-07
0.000338821
1.35999e-06
0.000339153
2.12308e-06
0.000339499
2.97172e-06
0.000339803
3.93386e-06
0.000340036
5.02647e-06
0.000340171
6.27518e-06
0.000340168
7.69931e-06
0.000340002
9.3232e-06
0.000339654
1.11662e-05
0.00033911
1.32446e-05
0.000338347
1.55739e-05
0.000337379
1.81577e-05
0.000336197
2.09906e-05
0.00033481
2.40541e-05
0.000333263
2.73083e-05
0.000331614
3.07193e-05
0.000329858
3.42082e-05
0.000327996
3.77535e-05
0.000326058
4.12375e-05
0.000324082
4.45714e-05
0.000322104
4.76464e-05
0.000320156
5.04025e-05
0.000318234
5.27473e-05
0.000316395
5.46409e-05
0.000314657
5.60287e-05
0.000313059
5.68998e-05
0.000311649
5.72666e-05
0.00031045
5.71284e-05
0.00030953
5.65477e-05
0.000308905
5.55612e-05
0.000308623
5.42249e-05
0.000308711
5.26028e-05
0.000309206
5.07432e-05
0.000310087
4.86963e-05
0.000311359
4.6495e-05
0.000313031
4.41723e-05
0.00031508
4.17438e-05
0.000317454
3.92174e-05
0.000320208
3.66018e-05
0.000323259
3.3919e-05
0.000326622
3.11524e-05
2.83314e-05
0.000330267
0.000346136
-5.51304e-06
0.000343811
-3.36219e-06
0.000342047
-1.5606e-06
0.000340764
-5.04149e-09
0.000339911
1.35606e-06
0.000339424
2.56233e-06
0.000339202
3.68552e-06
0.000339223
4.71599e-06
0.000339413
5.71393e-06
0.000339718
6.70002e-06
0.000340066
7.68504e-06
0.000340433
8.68681e-06
0.000340797
9.73446e-06
0.000341074
1.08436e-05
0.000341285
1.20259e-05
0.000341361
1.33108e-05
0.000341286
1.47179e-05
0.000341052
1.62726e-05
0.000340623
1.79974e-05
0.000340001
1.99129e-05
0.000339158
2.20385e-05
0.000338098
2.43788e-05
0.000336819
2.69313e-05
0.000335372
2.96821e-05
0.000333749
3.25656e-05
0.000332016
3.56042e-05
0.000330096
3.87108e-05
0.000328065
4.18131e-05
0.000325937
4.48167e-05
0.000323767
4.76435e-05
0.000321535
5.02114e-05
0.000319328
5.24294e-05
0.000317166
5.42546e-05
0.000315065
5.5618e-05
0.000313154
5.65253e-05
0.000311398
5.69565e-05
0.000309889
5.6928e-05
0.000308708
5.64838e-05
0.000307846
5.56563e-05
0.000307362
5.44993e-05
0.000307285
5.30542e-05
0.000307611
5.13651e-05
0.000308358
4.94647e-05
0.000309519
4.73854e-05
0.000311078
4.51499e-05
0.000312997
4.27315e-05
0.000315281
4.01963e-05
0.000317892
3.748e-05
0.000320856
3.46365e-05
0.00032412
3.16591e-05
2.85567e-05
0.000327683
0.000347997
-3.95876e-06
0.00034546
-1.37456e-06
0.000343532
8.87238e-07
0.000342144
2.91402e-06
0.000341197
4.76048e-06
0.000340622
6.45198e-06
0.000340361
8.00095e-06
0.000340327
9.46926e-06
0.00034047
1.08485e-05
0.000340732
1.21471e-05
0.000341069
1.33883e-05
0.000341411
1.45846e-05
0.000341723
1.57364e-05
0.000342025
1.68609e-05
0.00034222
1.7986e-05
0.000342314
1.91194e-05
0.000342281
2.02938e-05
0.000342091
2.15347e-05
0.000341745
2.28716e-05
0.000341207
2.43348e-05
0.000340477
2.59529e-05
0.000339512
2.77461e-05
0.000338343
2.97269e-05
0.000336978
3.19021e-05
0.000335402
3.42021e-05
0.000333699
3.67168e-05
0.000331804
3.931e-05
0.000329732
4.194e-05
0.000327493
4.45819e-05
0.000325148
4.71192e-05
0.000322711
4.94635e-05
0.00032025
5.15574e-05
0.000317798
5.33139e-05
0.000315425
5.47102e-05
0.000313196
5.56939e-05
0.000311151
5.62745e-05
0.000309388
5.64494e-05
0.000307927
5.62448e-05
0.000306858
5.5687e-05
0.00030619
5.4816e-05
0.000305924
5.36535e-05
0.000306083
5.22412e-05
0.000306686
5.05811e-05
0.00030771
4.86998e-05
0.000309082
4.65819e-05
0.000310868
4.42481e-05
0.000312981
4.16917e-05
0.000315452
3.89079e-05
0.000318253
3.589e-05
0.000321383
3.26732e-05
2.92517e-05
0.000324833
0.000350058
-2.75986e-06
0.000347446
2.37789e-07
0.000345353
3.01114e-06
0.000343868
5.56655e-06
0.0003428
7.97609e-06
0.000342161
1.01791e-05
0.00034179
1.22729e-05
0.000341697
1.42215e-05
0.000341763
1.60211e-05
0.000341926
1.77029e-05
0.000342169
1.92491e-05
0.000342419
2.06569e-05
0.000342671
2.19326e-05
0.000342857
2.31006e-05
0.000342986
2.41607e-05
0.00034303
2.51368e-05
0.000342963
2.60627e-05
0.000342784
2.69626e-05
0.000342432
2.78791e-05
0.000341953
2.8849e-05
0.000341285
2.99119e-05
0.000340403
3.11037e-05
0.000339331
3.24505e-05
0.000338033
3.39748e-05
0.000336549
3.56577e-05
0.000334939
3.75389e-05
0.000333077
3.9537e-05
0.000331002
4.16692e-05
0.000328733
4.3872e-05
0.000326264
4.60629e-05
0.000323704
4.81674e-05
0.000321043
5.01015e-05
0.000318385
5.18227e-05
0.000315772
5.32649e-05
0.000313271
5.43829e-05
0.000311018
5.52052e-05
0.000308995
5.56669e-05
0.000307343
5.58106e-05
0.000306064
5.56369e-05
0.000305179
5.51657e-05
0.000304745
5.43994e-05
0.000304736
5.33616e-05
0.000305139
5.20341e-05
0.00030595
5.04176e-05
0.000307135
4.84938e-05
0.000308706
4.62859e-05
0.000310601
4.37358e-05
0.000312854
4.08711e-05
0.000315444
3.76859e-05
0.000318391
3.41845e-05
3.04095e-05
0.000321659
0.000352527
-2.00768e-06
0.00034971
1.49681e-06
0.000347582
4.76126e-06
0.000345967
7.95509e-06
0.000344834
1.09102e-05
0.000344054
1.37794e-05
0.000343605
1.64467e-05
0.000343379
1.89403e-05
0.000343308
2.12552e-05
0.000343325
2.33692e-05
0.000343408
2.52526e-05
0.000343513
2.69176e-05
0.00034356
2.83537e-05
0.000343618
2.95691e-05
0.000343596
3.05679e-05
0.000343496
3.13822e-05
0.000343346
3.20362e-05
0.000343062
3.25736e-05
0.000342698
3.30314e-05
0.000342197
3.3471e-05
0.000341544
3.39254e-05
0.00034074
3.4465e-05
0.000339748
3.51142e-05
0.000338541
3.59279e-05
0.000337147
3.69154e-05
0.000335641
3.80855e-05
0.000333881
3.94367e-05
0.000331877
4.09963e-05
0.000329603
4.26939e-05
0.000327155
4.44911e-05
0.00032449
4.63e-05
0.000321743
4.80774e-05
0.000318959
4.9758e-05
0.000316159
5.12741e-05
0.000313526
5.26127e-05
0.000311056
5.37151e-05
0.000308867
5.45739e-05
0.000307021
5.51694e-05
0.000305557
5.54967e-05
0.000304495
5.55419e-05
0.000303846
5.52856e-05
0.000303634
5.47319e-05
0.000303792
5.38275e-05
0.000304338
5.25573e-05
0.000305283
5.09074e-05
0.000306538
4.88367e-05
0.00030815
4.63257e-05
0.000310108
4.33966e-05
0.000312403
4.00207e-05
0.000315091
3.62132e-05
3.20279e-05
0.000318137
0.000355207
-1.6803e-06
0.000352434
2.29853e-06
0.000350185
6.15112e-06
0.000348528
9.95035e-06
0.000347288
1.36326e-05
0.000346404
1.71765e-05
0.000345824
2.05015e-05
0.000345432
2.3645e-05
0.000345165
2.65387e-05
0.000344976
2.9139e-05
0.000344848
3.14278e-05
0.000344671
3.33927e-05
0.000344486
3.50134e-05
0.000344284
3.62873e-05
0.00034402
3.72344e-05
0.000343723
3.78764e-05
0.000343368
3.82397e-05
0.000342945
3.83848e-05
0.000342482
3.83504e-05
0.000341912
3.82103e-05
0.000341241
3.80124e-05
0.000340463
3.78371e-05
0.000339527
3.77348e-05
0.000338438
3.77705e-05
0.000337179
3.79793e-05
0.000335784
3.83796e-05
0.000334171
3.90267e-05
0.000332286
3.99215e-05
0.000330152
4.10633e-05
0.000327746
4.23918e-05
0.000325143
4.38907e-05
0.000322406
4.54687e-05
0.000319551
4.71111e-05
0.000316733
4.87464e-05
0.000313985
5.03278e-05
0.000311412
5.18028e-05
0.000309106
5.3154e-05
0.000307105
5.43108e-05
0.000305484
5.5259e-05
0.000304202
5.59453e-05
0.000303352
5.63174e-05
0.000302878
5.63631e-05
0.000302735
5.59752e-05
0.000302966
5.51478e-05
0.000303527
5.38136e-05
0.000304424
5.19419e-05
0.000305625
4.94993e-05
0.000307188
4.65013e-05
0.000309117
4.29059e-05
0.000311439
3.87765e-05
3.41286e-05
0.000314205
0.000358201
-1.82448e-06
0.000355495
2.60804e-06
0.000353283
7.13415e-06
0.000351575
1.15801e-05
0.000350266
1.60514e-05
0.000349279
2.03325e-05
0.000348515
2.4444e-05
0.000347915
2.83186e-05
0.000347412
3.18597e-05
0.000346956
3.50337e-05
0.000346459
3.77995e-05
0.000345955
4.01068e-05
0.000345429
4.19466e-05
0.00034486
4.32989e-05
0.00034428
4.41993e-05
0.000343657
4.46506e-05
0.000343028
4.47103e-05
0.0003424
4.44208e-05
0.000341743
4.38575e-05
0.000341047
4.30869e-05
0.000340322
4.21837e-05
0.00033954
4.12351e-05
0.000338678
4.03182e-05
0.000337666
3.95079e-05
0.000336536
3.88652e-05
0.000335317
3.84294e-05
0.000333908
3.83016e-05
0.000332258
3.84708e-05
0.000330277
3.89726e-05
0.000328084
3.97999e-05
0.000325647
4.09062e-05
0.000323002
4.2291e-05
0.000320275
4.389e-05
0.000317483
4.56618e-05
0.000314759
4.75377e-05
0.000312178
4.9474e-05
0.000309797
5.13802e-05
0.000307719
5.32327e-05
0.000305941
5.49205e-05
0.000304469
5.63788e-05
0.000303362
5.75115e-05
0.000302561
5.82669e-05
0.000302032
5.8517e-05
0.000301844
5.82094e-05
0.000301939
5.72713e-05
0.000302329
5.56438e-05
0.000303034
5.32983e-05
0.000304089
5.02061e-05
0.000305548
4.64065e-05
0.000307424
4.18917e-05
3.67375e-05
0.000309774
0.00036157
-2.52364e-06
0.00035899
2.42685e-06
0.000356895
7.59097e-06
0.000355188
1.28229e-05
0.000353843
1.80944e-05
0.000352729
2.32597e-05
0.000351781
2.82607e-05
0.00035093
3.29506e-05
0.000350095
3.72476e-05
0.000349254
4.10948e-05
0.000348339
4.43998e-05
0.00034739
4.71156e-05
0.000346408
4.91987e-05
0.000345367
5.06658e-05
0.00034434
5.15038e-05
0.00034332
5.17611e-05
0.000342305
5.14782e-05
0.000341342
5.07248e-05
0.000340456
4.95766e-05
0.000339586
4.81264e-05
0.000338749
4.64536e-05
0.000337925
4.46763e-05
0.000337088
4.28714e-05
0.000336189
4.11456e-05
0.000335209
3.95835e-05
0.000334206
3.82581e-05
0.000333059
3.72512e-05
0.000331667
3.66317e-05
0.000330043
3.64458e-05
0.000328128
3.66812e-05
0.000325965
3.73907e-05
0.000323618
3.85298e-05
0.000321108
4.00867e-05
0.000318514
4.20088e-05
0.000315936
4.42331e-05
0.000313436
4.66832e-05
0.000311098
4.92834e-05
0.000308964
5.19063e-05
0.00030707
5.44733e-05
0.000305407
5.68499e-05
0.00030397
5.88895e-05
0.000302794
6.04835e-05
0.000301806
6.14874e-05
0.000301061
6.18068e-05
0.000300571
6.13369e-05
0.000300315
6.0003e-05
0.000300379
5.77694e-05
0.000300798
5.46088e-05
0.00030163
5.05519e-05
0.000302955
4.56179e-05
3.98822e-05
0.000304797
0.000365318
-3.83064e-06
0.000362941
1.63762e-06
0.000361063
7.47941e-06
0.00035942
1.35884e-05
0.00035807
1.97612e-05
0.000356858
2.59238e-05
0.000355699
3.19305e-05
0.000354529
3.75527e-05
0.000353311
4.27485e-05
0.000351959
4.73601e-05
0.00035054
5.12946e-05
0.000349014
5.44692e-05
0.000347415
5.6855e-05
0.000345804
5.84419e-05
0.000344193
5.92241e-05
0.000342634
5.92625e-05
0.00034117
5.86032e-05
0.000339802
5.7338e-05
0.000338556
5.55502e-05
0.000337448
5.33501e-05
0.000336451
5.0849e-05
0.000335568
4.81601e-05
0.000334722
4.54006e-05
0.000333933
4.26905e-05
0.000333163
4.01412e-05
0.000332361
3.78175e-05
0.000331553
3.59001e-05
0.000330579
3.44219e-05
0.000329331
3.34421e-05
0.000327859
3.3076e-05
0.000326159
3.32998e-05
0.00032422
3.41887e-05
0.000322114
3.56836e-05
0.00031989
3.77746e-05
0.000317572
4.03836e-05
0.000315326
4.34287e-05
0.000313099
4.68064e-05
0.000310968
5.03419e-05
0.000309019
5.39463e-05
0.000307104
5.73613e-05
0.000305359
6.04737e-05
0.000303679
6.30684e-05
0.000302119
6.49523e-05
0.000300699
6.60136e-05
0.000299429
6.60884e-05
0.000298387
6.51157e-05
0.00029763
6.30143e-05
0.000297262
5.97882e-05
0.000297316
5.54286e-05
0.000297933
5.00257e-05
4.36316e-05
0.000299175
0.000369364
-5.86011e-06
0.00036742
1.53793e-07
0.000365835
6.74994e-06
0.000364415
1.3786e-05
0.000363079
2.10059e-05
0.000361782
2.83003e-05
0.000360366
3.54283e-05
0.000358838
4.21728e-05
0.000357116
4.83892e-05
0.000355188
5.39017e-05
0.000353075
5.85574e-05
0.000350837
6.22781e-05
0.000348491
6.50122e-05
0.000346133
6.67205e-05
0.000343824
6.74525e-05
0.000341606
6.72322e-05
0.000339543
6.61581e-05
0.000337671
6.43108e-05
0.000336008
6.18149e-05
0.000334582
5.87918e-05
0.000333374
5.53803e-05
0.00033235
5.16989e-05
0.000331554
4.79077e-05
0.000330853
4.41306e-05
0.000330246
4.05049e-05
0.000329815
3.71674e-05
0.000329375
3.42032e-05
0.000328834
3.17809e-05
0.000328167
2.99956e-05
0.000327258
2.89246e-05
0.000326147
2.86524e-05
0.00032484
2.92249e-05
0.000323325
3.06582e-05
0.000321608
3.29167e-05
0.000319793
3.59646e-05
0.000317899
3.96791e-05
0.000315889
4.39328e-05
0.000313931
4.85476e-05
0.000311842
5.33096e-05
0.000309722
5.79642e-05
0.000307595
6.23156e-05
0.000305336
6.60607e-05
0.000303073
6.90083e-05
0.000300799
7.09325e-05
0.00029859
7.16544e-05
0.000296563
7.10979e-05
0.000294799
6.91588e-05
0.000293432
6.58438e-05
0.000292556
6.11638e-05
0.00029229
5.51961e-05
4.80616e-05
0.000292779
0.000373868
-8.72135e-06
0.000372483
-2.14356e-06
0.000371349
5.25872e-06
0.000370181
1.33451e-05
0.000369002
2.17524e-05
0.000367581
3.03644e-05
0.000365927
3.87729e-05
0.000363956
4.68386e-05
0.000361621
5.42573e-05
0.000358968
6.08021e-05
0.000356056
6.63096e-05
0.000352897
7.06655e-05
0.000349628
7.37732e-05
0.000346384
7.56473e-05
0.000343186
7.62869e-05
0.000340173
7.5778e-05
0.000337395
7.42143e-05
0.000334875
7.17149e-05
0.000332712
6.84187e-05
0.000330904
6.44874e-05
0.000329415
6.00592e-05
0.000328286
5.53099e-05
0.000327442
5.03878e-05
0.000326862
4.54608e-05
0.000326529
4.06914e-05
0.000326376
3.61942e-05
0.000326425
3.21736e-05
0.00032647
2.87437e-05
0.000326445
2.60381e-05
0.000326287
2.42121e-05
0.000325965
2.33798e-05
0.00032549
2.36033e-05
0.00032472
2.4942e-05
0.000323794
2.73896e-05
0.00032266
3.09045e-05
0.000321258
3.53707e-05
0.000319717
4.06307e-05
0.000317877
4.64525e-05
0.000315795
5.258e-05
0.000313453
5.86846e-05
0.000310803
6.44674e-05
0.000307875
6.95836e-05
0.000304744
7.37444e-05
0.000301437
7.66995e-05
0.000298087
7.81914e-05
0.000294833
7.81106e-05
0.000291824
7.63564e-05
0.000289235
7.29343e-05
0.000287214
6.78641e-05
0.000285918
6.12645e-05
5.32601e-05
0.000285479
0.000378761
-1.2616e-05
0.000378137
-5.4431e-06
0.000377735
2.96323e-06
0.000376876
1.20831e-05
0.000375995
2.19795e-05
0.000374454
3.20129e-05
0.000372525
4.20277e-05
0.000370046
5.16229e-05
0.000366984
6.04356e-05
0.000363441
6.82068e-05
0.000359482
7.47041e-05
0.000355215
7.97816e-05
0.000350873
8.33267e-05
0.000346488
8.53566e-05
0.000342238
8.5874e-05
0.000338263
8.50174e-05
0.0003346
8.28701e-05
0.000331377
7.96192e-05
0.000328605
7.54216e-05
0.000326304
7.0459e-05
0.000324527
6.49168e-05
0.000323205
5.89875e-05
0.000322328
5.2836e-05
0.000321895
4.66694e-05
0.000321793
4.06449e-05
0.000322077
3.49495e-05
0.000322656
2.97514e-05
0.000323374
2.52112e-05
0.000324144
2.15472e-05
0.000324896
1.88834e-05
0.000325573
1.74148e-05
0.000326089
1.72437e-05
0.000326414
1.84494e-05
0.000326455
2.10921e-05
0.000326206
2.51067e-05
0.00032562
3.04068e-05
0.00032456
3.68083e-05
0.000323093
4.40195e-05
0.000321043
5.17412e-05
0.000318406
5.95297e-05
0.000315224
6.70119e-05
0.000311467
7.3737e-05
0.000307267
7.93499e-05
0.000302692
8.34833e-05
0.000297931
8.58899e-05
0.000293176
8.63611e-05
0.000288656
8.48169e-05
0.000284583
8.12529e-05
0.000281184
7.5724e-05
0.000278637
6.83644e-05
5.93605e-05
0.000277111
0.000384102
-1.76804e-05
0.000384591
-9.87008e-06
0.00038485
-5.42761e-07
0.000384922
1.00467e-05
0.000384036
2.14345e-05
0.000382714
3.33204e-05
0.000380417
4.51936e-05
0.000377251
5.65874e-05
0.000373309
6.70747e-05
0.000368661
7.62866e-05
0.000363446
8.39352e-05
0.000357904
8.98378e-05
0.000352154
9.38733e-05
0.000346414
9.60299e-05
0.000340933
9.63932e-05
0.000335782
9.50756e-05
0.000331114
9.22435e-05
0.000327022
8.81066e-05
0.00032353
8.28727e-05
0.000320711
7.67473e-05
0.000318553
6.99688e-05
0.000317028
6.27306e-05
0.000316149
5.5244e-05
0.000315825
4.77267e-05
0.000316018
4.03584e-05
0.00031678
3.33495e-05
0.000317962
2.68899e-05
0.000319478
2.1174e-05
0.000321191
1.64266e-05
0.000323011
1.28559e-05
0.000324915
1.06618e-05
0.000326703
1.00099e-05
0.000328315
1.10598e-05
0.000329678
1.38594e-05
0.000330562
1.8421e-05
0.000331004
2.46514e-05
0.000330746
3.23401e-05
0.000329655
4.11822e-05
0.000327769
5.07304e-05
0.000324881
6.05398e-05
0.000321047
7.00113e-05
0.0003163
7.86782e-05
0.000310766
8.599e-05
0.000304651
9.15506e-05
0.000298165
9.50088e-05
0.00029159
9.61277e-05
0.000285238
9.48086e-05
0.000279408
9.10503e-05
0.000274337
8.49525e-05
0.000270308
7.66891e-05
6.65059e-05
0.00026751
0.000389955
-2.42536e-05
0.000391785
-1.57625e-05
0.000393217
-5.27154e-06
0.000394043
6.87954e-06
0.000393679
2.02012e-05
0.000392334
3.41789e-05
0.000389705
4.82763e-05
0.000385831
6.18521e-05
0.000380834
7.43452e-05
0.000374794
8.52723e-05
0.000368068
9.42726e-05
0.000360862
0.000101108
0.000353425
0.000105661
0.000346125
0.000107932
0.000339112
0.000108037
0.00033261
0.000106125
0.000326765
0.000102462
0.000321674
9.72663e-05
0.000317402
9.08292e-05
0.000313965
8.33923e-05
0.000311398
7.52179e-05
0.000309648
6.65388e-05
0.000308728
5.75878e-05
0.000308585
4.86007e-05
0.000309114
3.97846e-05
0.000310366
3.1371e-05
0.000312271
2.35289e-05
0.000314667
1.6543e-05
0.000317484
1.06042e-05
0.000320612
5.99927e-06
0.000323914
2.97456e-06
0.000327275
1.75641e-06
0.000330511
2.55509e-06
0.000333408
5.49447e-06
0.000335911
1.06053e-05
0.000337617
1.78836e-05
0.000338355
2.70574e-05
0.000337938
3.7798e-05
0.000336202
4.9526e-05
0.000333074
6.16975e-05
0.000328474
7.35694e-05
0.000322526
8.45595e-05
0.000315418
9.39342e-05
0.000307423
0.000101182
0.000298852
0.000105876
0.000290085
0.000107746
0.000281516
0.000106658
0.000273529
0.000102634
0.000266508
9.58145e-05
0.000260728
8.64613e-05
7.4864e-05
0.00025644
0.000396257
-3.26079e-05
0.000399932
-2.34154e-05
0.00040269
-1.15881e-05
0.000404669
2.40962e-06
0.000404957
1.80014e-05
0.000403733
3.45622e-05
0.000400712
5.13718e-05
0.000395985
6.75783e-05
0.000389634
8.24683e-05
0.00038199
9.5448e-05
0.000373384
0.000106028
0.000364178
0.000113927
0.000354793
0.000119024
0.000345521
0.000121348
0.000336708
0.000121037
0.00032862
0.000118378
0.0003214
0.000113652
0.000315185
0.0001072
0.000310027
9.93498e-05
0.00030594
9.04032e-05
0.000302913
8.06627e-05
0.000300932
7.03786e-05
0.000299993
5.98348e-05
0.000300015
4.92666e-05
0.000300939
3.88848e-05
0.000302745
2.89238e-05
0.000305479
1.96231e-05
0.000308875
1.12069e-05
0.000312937
3.95311e-06
0.000317526
-1.81379e-06
0.000322501
-5.81947e-06
0.000327709
-7.74622e-06
0.000332873
-7.32435e-06
0.000337806
-4.31571e-06
0.00034211
1.35722e-06
0.000345463
9.82924e-06
0.000347603
2.07187e-05
0.000348128
3.36558e-05
0.00034663
4.80219e-05
0.000343201
6.30659e-05
0.00033782
7.77914e-05
0.000330481
9.15794e-05
0.000321471
0.000103462
0.000311147
0.000112756
0.000299997
0.000118924
0.000288545
0.000121654
0.000277325
0.000120781
0.000266806
0.000116381
0.000257451
0.000108641
0.000249635
9.79332e-05
8.46424e-05
0.000243638
0.000402907
-4.30632e-05
0.000408626
-3.31052e-05
0.000413365
-1.98649e-05
0.000416758
-3.68339e-06
0.000417893
1.46632e-05
0.000417039
3.43949e-05
0.000413635
5.44417e-05
0.000407826
7.38881e-05
0.0003999
9.17532e-05
0.000390261
0.00010716
0.000379373
0.0001196
0.00036776
0.000128699
0.000355929
0.000134335
0.000344373
0.000136582
0.00033349
0.000135695
0.000323559
0.000132015
0.000314804
0.00012597
0.000307336
0.000117988
0.000301187
0.000108471
0.000296398
9.77857e-05
0.00029293
8.62759e-05
0.000290721
7.42383e-05
0.000289767
6.19501e-05
0.000289993
4.96491e-05
0.000291345
3.75717e-05
0.000293825
2.59738e-05
0.000297388
1.50422e-05
0.000301902
5.08834e-06
0.000307353
-3.62804e-06
0.000313623
-1.07529e-05
0.000320505
-1.59158e-05
0.000327808
-1.87375e-05
0.000335434
-1.8852e-05
0.000342507
-1.59497e-05
0.000349304
-9.62976e-06
0.000354831
9.55138e-08
0.000358536
1.29764e-05
0.00036028
2.85766e-05
0.000359282
4.6014e-05
0.000355852
6.43978e-05
0.00034919
8.28669e-05
0.000340038
0.000100024
0.00032873
0.000114947
0.000315687
0.000126698
0.000301512
0.000134626
0.000286852
0.000138351
0.000272441
0.000137664
0.000258934
0.000132704
0.000246887
0.000123777
0.000236735
0.000111374
9.60304e-05
0.000228807
0.000409116
-5.58409e-05
0.000417277
-4.51323e-05
0.000424268
-3.03308e-05
0.0004293
-1.16585e-05
0.000431942
9.86e-06
0.000431471
3.32587e-05
0.00042792
5.74164e-05
0.000421168
8.08716e-05
0.000411498
0.000102328
0.000399516
0.000120725
0.0003859
0.000135409
0.000371397
0.000145896
0.000356693
0.000152085
0.00034245
0.000154079
0.000329148
0.000152324
0.00031715
0.000147282
0.000306684
0.000139563
0.000297864
0.000129697
0.000290702
0.000118217
0.000285195
0.000105523
0.000281259
9.20391e-05
0.000278847
7.80466e-05
0.000277905
6.3852e-05
0.000278384
4.96816e-05
0.000280248
3.58036e-05
0.000283398
2.24022e-05
0.000287921
9.75489e-06
0.000293655
-1.92973e-06
0.000300629
-1.22893e-05
0.000308651
-2.09446e-05
0.000317558
-2.74724e-05
0.000327342
-3.1385e-05
0.000337183
-3.22355e-05
0.000347119
-2.93281e-05
0.000356459
-2.2596e-05
0.00036416
-1.16607e-05
0.000370144
3.52656e-06
0.000373257
2.20295e-05
0.000373034
4.32107e-05
0.00036902
6.60805e-05
0.000361545
8.86449e-05
0.000350588
0.000110019
0.000336626
0.000128674
0.000320398
0.000143389
0.000302685
0.000153401
0.000284329
0.000158292
0.000266215
0.000157795
0.000249253
0.000152044
0.000234149
0.000141567
0.000221416
0.000127029
0.00010919
0.000211384
0.000412818
-7.06139e-05
0.000423278
-5.92715e-05
0.000432696
-4.31231e-05
0.000439771
-2.17839e-05
0.000444226
2.92562e-06
0.000445036
3.0777e-05
0.000441652
5.97971e-05
0.000434034
8.81744e-05
0.00042272
0.000114125
0.000408587
0.000136215
0.000392251
0.000153572
0.000374611
0.000165763
0.000356668
0.000172533
0.000339338
0.000174137
0.000323301
0.00017115
0.000309005
0.000164326
0.000296679
0.000154502
0.000286422
0.000142346
0.000278241
0.000128535
0.000272026
0.000113553
0.000267678
9.78393e-05
0.000265127
8.17085e-05
0.000264271
6.54555e-05
0.000265031
4.92988e-05
0.000267417
3.34665e-05
0.000271326
1.81741e-05
0.000276812
3.65636e-06
0.000283828
-9.91686e-06
0.000292354
-2.2095e-05
0.000302242
-3.24523e-05
0.000313301
-4.047e-05
0.000325007
-4.55162e-05
0.000337247
-4.69856e-05
0.000349045
-4.43971e-05
0.000360445
-3.70132e-05
0.000370461
-2.50845e-05
0.000378333
-7.67841e-06
0.000383188
1.40259e-05
0.00038416
3.9411e-05
0.000380515
6.74076e-05
0.000371881
9.5311e-05
0.000359138
0.00012149
0.000342535
0.000144669
0.000323054
0.000162891
0.000301641
0.000175418
0.000279366
0.000181683
0.000257356
0.000181342
0.000236739
0.000174575
0.000218416
0.000162157
0.000203009
0.000144991
0.00012414
0.000190867
0.000409749
-8.60036e-05
0.000421797
-7.48432e-05
0.00043323
-5.77748e-05
0.00044283
-3.42281e-05
0.000450124
-7.00337e-06
0.000453191
2.55776e-05
0.00045119
6.07872e-05
0.000442944
9.51668e-05
0.000430447
0.000126509
0.000414294
0.000153079
0.000395356
0.000173901
0.000374833
0.0001882
0.000353822
0.000195764
0.000333494
0.000196788
0.000314753
0.000192211
0.000298198
0.000183141
0.000284112
0.000170695
0.000272528
0.000155825
0.000263429
0.000139291
0.000256623
0.000121733
0.000251986
0.000103541
0.000249392
8.50906e-05
0.000248695
6.66382e-05
0.000249805
4.83656e-05
0.000252758
3.05043e-05
0.000257445
1.319e-05
0.000263963
-3.35515e-06
0.000272212
-1.88814e-05
0.000282178
-3.29695e-05
0.000293554
-4.49902e-05
0.000305967
-5.43063e-05
0.000318893
-6.01436e-05
0.000331892
-6.19655e-05
0.000344432
-5.91475e-05
0.000356417
-5.14444e-05
0.000367744
-3.89943e-05
0.000377364
-1.97767e-05
0.000384717
4.09884e-06
0.000387085
3.44727e-05
0.000382959
6.85047e-05
0.000375019
0.000102337
0.00036084
0.000134294
0.00034115
0.000163591
0.000318939
0.000184652
0.000294264
0.000200247
0.000268393
0.000208268
0.000242836
0.000208113
0.000218943
0.000200079
0.000197793
0.000185237
0.000180087
0.000164904
0.000140541
0.00016616
0.000394821