/*--------------------------------*- C++ -*----------------------------------*\
  =========                 |
  \\      /  F ield         | OpenFOAM: The Open Source CFD Toolbox
   \\    /   O peration     | Website:  https://openfoam.org
    \\  /    A nd           | Version:  10
     \\/     M anipulation  |
\*---------------------------------------------------------------------------*/
FoamFile
{
    format      ascii;
    class       volScalarField;
    location    "0.301005";
    object      rho;
}
// * * * * * * * * * * * * * * * * * * * * * * * * * * * * * * * * * * * * * //

dimensions      [1 -3 0 0 0 0 0];

internalField   nonuniform List<scalar> 
15708
(
1.01953
1.01558
1.01163
1.0078
1.00415
1.00066
0.997404
0.994391
0.991604
0.989094
0.98686
0.984817
0.983154
0.981764
0.980616
0.979876
0.979342
0.979193
0.979261
0.979583
0.980079
0.980727
0.981452
0.982113
0.982774
0.983318
0.983665
0.983912
0.983917
0.983807
0.983522
0.983079
0.982742
0.982203
0.981826
0.98148
0.981215
0.981155
0.981185
0.981379
0.981727
0.982239
0.98284
0.983555
0.984348
0.985154
0.986015
0.986822
0.987695
0.988478
0.989309
1.02045
1.01694
1.01328
1.00966
1.00614
1.00272
0.999504
0.9964
0.993519
0.990764
0.988234
0.985958
0.983811
0.982072
0.980498
0.979279
0.978293
0.977675
0.977302
0.977223
0.977374
0.977747
0.978237
0.978837
0.979485
0.980047
0.980577
0.981027
0.981358
0.981533
0.981696
0.981726
0.981693
0.981723
0.981752
0.981826
0.981984
0.982236
0.98258
0.983024
0.98358
0.98414
0.984821
0.985424
0.986185
0.986765
0.987472
0.98809
0.988667
0.98926
0.98982
1.02116
1.01794
1.0146
1.01124
1.00787
1.00455
1.00134
0.99819
0.995178
0.992247
0.989482
0.98687
0.984417
0.982234
0.980266
0.978569
0.977151
0.976071
0.97527
0.974789
0.9746
0.974689
0.974944
0.975442
0.975994
0.97669
0.977331
0.978004
0.978636
0.979201
0.979763
0.980222
0.980753
0.981193
0.981709
0.982262
0.982831
0.983434
0.984172
0.984755
0.985547
0.986183
0.986875
0.987446
0.988051
0.988556
0.988978
0.989411
0.989736
0.990095
0.990408
1.0215
1.01865
1.01568
1.01256
1.00935
1.00614
1.00292
0.999752
0.996596
0.993518
0.990516
0.987587
0.984854
0.982251
0.979862
0.977763
0.975913
0.974383
0.973176
0.972296
0.971765
0.971535
0.971626
0.971903
0.972461
0.973142
0.973983
0.974821
0.97577
0.976742
0.977705
0.978665
0.979702
0.980648
0.981654
0.982732
0.983677
0.98479
0.985653
0.986703
0.987455
0.988295
0.988946
0.989565
0.989915
0.990326
0.990556
0.990745
0.990906
0.99102
0.991142
1.02148
1.01916
1.01639
1.01358
1.01056
1.00747
1.00427
1.00108
0.997821
0.994536
0.991321
0.988129
0.985025
0.982143
0.979366
0.976846
0.974589
0.972655
0.971026
0.969784
0.968893
0.968382
0.968215
0.968373
0.968837
0.969507
0.970478
0.971559
0.97281
0.974134
0.975585
0.976991
0.978572
0.980073
0.981566
0.983153
0.984553
0.986015
0.987344
0.988392
0.98959
0.990347
0.990996
0.991626
0.991881
0.992092
0.992226
0.992183
0.992125
0.992036
0.991948
1.02121
1.0192
1.0168
1.01425
1.01147
1.00845
1.00532
1.00206
0.998727
0.995298
0.991881
0.988432
0.985128
0.981818
0.978755
0.975847
0.973233
0.970867
0.968894
0.967258
0.966026
0.96524
0.964826
0.964813
0.965182
0.965889
0.966917
0.968219
0.969741
0.97145
0.973293
0.975324
0.977239
0.979447
0.981375
0.983548
0.985374
0.987254
0.988854
0.990282
0.991439
0.992378
0.993168
0.99354
0.993834
0.993954
0.993825
0.99367
0.993465
0.993176
0.992964
1.02056
1.01884
1.01691
1.01461
1.01197
1.00915
1.00603
1.00276
0.999334
0.995791
0.992248
0.988512
0.984954
0.98144
0.97794
0.974863
0.971721
0.969133
0.966688
0.964791
0.963208
0.962143
0.961459
0.96135
0.961552
0.962231
0.963418
0.964761
0.96664
0.968625
0.971068
0.97331
0.976126
0.978539
0.981208
0.983814
0.98607
0.988322
0.990334
0.991917
0.993347
0.994351
0.995086
0.995496
0.995775
0.995701
0.995522
0.995255
0.994819
0.994495
0.9941
1.01949
1.01825
1.01653
1.0145
1.01218
1.0094
1.00645
1.00309
0.999669
0.996018
0.992252
0.988473
0.984582
0.980754
0.977197
0.97352
0.970354
0.967202
0.964622
0.962275
0.9605
0.959126
0.958203
0.95796
0.95803
0.958709
0.9598
0.961462
0.963471
0.965842
0.968603
0.971436
0.974626
0.977644
0.980903
0.983844
0.986719
0.989312
0.991489
0.993553
0.995001
0.996173
0.996875
0.997444
0.99754
0.997434
0.99727
0.996791
0.996403
0.99589
0.995456
1.01805
1.0171
1.01584
1.01399
1.01194
1.00928
1.0064
1.00305
0.999737
0.995841
0.99207
0.988062
0.984026
0.980052
0.976037
0.972335
0.968699
0.965466
0.962507
0.959853
0.957906
0.956172
0.955147
0.954601
0.954682
0.955209
0.95648
0.958077
0.960337
0.963105
0.966003
0.969612
0.972884
0.976871
0.980139
0.983915
0.987049
0.990036
0.992677
0.994802
0.996444
0.997837
0.998604
0.999149
0.999215
0.999197
0.99888
0.998522
0.997972
0.997503
0.99705
1.01618
1.01566
1.01462
1.0131
1.01127
1.00877
1.00593
1.00279
0.999178
0.995518
0.991416
0.987465
0.98319
0.978985
0.975024
0.970861
0.967189
0.963653
0.960374
0.957718
0.955228
0.953505
0.952175
0.951561
0.951426
0.95197
0.953156
0.954914
0.957339
0.960175
0.963774
0.967213
0.971521
0.975417
0.979567
0.983572
0.987165
0.990586
0.993409
0.995906
0.9977
0.999174
1.00018
1.00059
1.00092
1.00081
1.00058
1.00019
0.999733
0.999163
0.998834
1.01396
1.01377
1.01296
1.01182
1.01
1.00786
1.00503
1.00195
0.998438
0.994638
0.990597
0.986559
0.982053
0.97797
0.973543
0.969539
0.965482
0.961874
0.95835
0.955599
0.952797
0.950991
0.949377
0.948677
0.948482
0.948945
0.950044
0.951924
0.954334
0.957639
0.961114
0.965319
0.969638
0.974072
0.978759
0.982931
0.987179
0.990684
0.994009
0.996619
0.99858
1.00041
1.00135
1.00205
1.00237
1.00241
1.00217
1.0019
1.00152
1.00103
1.00068
1.0114
1.01134
1.01095
1.00994
1.00841
1.00644
1.00373
1.00068
0.997236
0.993468
0.989497
0.985107
0.980953
0.976414
0.972206
0.967902
0.963827
0.960014
0.956567
0.953377
0.950692
0.948531
0.946987
0.946091
0.945734
0.946145
0.947281
0.949091
0.951752
0.95479
0.958957
0.963057
0.967793
0.972699
0.977459
0.982324
0.986592
0.990652
0.994083
0.997064
0.999184
1.00128
1.00226
1.00318
1.00363
1.00382
1.00376
1.0036
1.0033
1.00315
1.00282
1.00844
1.00862
1.00845
1.00765
1.00629
1.0045
1.00194
0.999045
0.995602
0.991836
0.987939
0.983534
0.979366
0.974877
0.970535
0.966273
0.962168
0.958163
0.954645
0.95151
0.948646
0.946481
0.944718
0.943808
0.943349
0.943718
0.944777
0.94662
0.949093
0.952638
0.956428
0.961003
0.965903
0.971029
0.976141
0.981221
0.98583
0.990183
0.99381
0.997094
0.999491
1.00158
1.00308
1.00398
1.00477
1.00509
1.00528
1.00529
1.00529
1.00516
1.00522
1.00526
1.00555
1.00542
1.00492
1.00364
1.00203
0.999684
0.996889
0.993471
0.989961
0.985794
0.981898
0.977325
0.973188
0.968672
0.964537
0.960294
0.956575
0.952802
0.949729
0.946815
0.944634
0.942874
0.941698
0.941433
0.94159
0.942624
0.944348
0.947079
0.950193
0.954402
0.958899
0.963946
0.969245
0.974641
0.979646
0.985019
0.988989
0.993444
0.996589
0.999375
1.00178
1.00329
1.00477
1.00555
1.00625
1.00662
1.00701
1.00721
1.00745
1.00762
1.00143
1.00199
1.00202
1.00167
1.00064
0.998999
0.996997
0.99411
0.99105
0.987432
0.983616
0.979454
0.975388
0.970942
0.966835
0.962551
0.958612
0.954713
0.951289
0.947978
0.945376
0.942948
0.941239
0.940259
0.939613
0.939969
0.94085
0.942617
0.944954
0.948483
0.952199
0.956964
0.96193
0.967428
0.972603
0.978315
0.983157
0.987916
0.992344
0.995572
0.99903
1.00138
1.00336
1.00511
1.0062
1.00724
1.00798
1.00868
1.00927
1.00974
1.01027
0.997589
0.998116
0.998295
0.997825
0.997096
0.99558
0.993576
0.99102
0.98798
0.984515
0.980816
0.977007
0.972766
0.968733
0.964678
0.960567
0.956806
0.953073
0.949588
0.946632
0.943941
0.94167
0.940117
0.938858
0.938554
0.93863
0.939563
0.941082
0.943474
0.946701
0.950515
0.954971
0.960211
0.965018
0.971086
0.976009
0.981511
0.986288
0.990626
0.994546
0.997896
1.00071
1.003
1.0051
1.00661
1.00812
1.00917
1.01033
1.01123
1.01221
1.01304
0.993712
0.993487
0.994398
0.993427
0.993122
0.991614
0.989657
0.987274
0.984484
0.981118
0.977694
0.973918
0.969976
0.966349
0.9622
0.958628
0.954857
0.951443
0.948245
0.945364
0.942753
0.94086
0.93904
0.93815
0.937671
0.937839
0.938602
0.940115
0.942326
0.945309
0.948976
0.953286
0.958054
0.96333
0.968513
0.974103
0.979249
0.984063
0.988984
0.992634
0.996564
0.999486
1.00242
1.00472
1.00681
1.00864
1.01028
1.01183
1.01321
1.01466
1.01587
0.988755
0.989403
0.989141
0.989331
0.988187
0.987102
0.985357
0.983114
0.980197
0.977276
0.973961
0.97051
0.967103
0.963364
0.959822
0.956452
0.952984
0.949906
0.946938
0.944234
0.942013
0.940075
0.938614
0.937775
0.937246
0.937463
0.938214
0.939437
0.941618
0.944297
0.947596
0.951866
0.956084
0.961208
0.966371
0.971362
0.977021
0.981527
0.986402
0.990729
0.994547
0.998129
1.00118
1.00408
1.00663
1.009
1.01115
1.01329
1.01529
1.01703
1.01892
0.984285
0.984365
0.984205
0.983994
0.983217
0.981839
0.980265
0.978123
0.975597
0.972936
0.969673
0.966807
0.963492
0.960244
0.957239
0.954032
0.951193
0.948319
0.945835
0.943423
0.941443
0.939794
0.93845
0.937772
0.937414
0.93751
0.938245
0.939335
0.94121
0.943685
0.946757
0.950323
0.954566
0.959027
0.963757
0.969156
0.973721
0.97903
0.983317
0.98817
0.992117
0.996037
0.999538
1.003
1.00616
1.00913
1.01202
1.01465
1.01716
1.01967
1.02185
0.979107
0.979392
0.978618
0.978474
0.977392
0.975952
0.974506
0.97245
0.970341
0.967675
0.965175
0.96245
0.959748
0.957145
0.954334
0.951766
0.949302
0.946918
0.944829
0.94291
0.941254
0.93979
0.938727
0.938211
0.938013
0.938065
0.938738
0.939777
0.941336
0.943478
0.94611
0.949224
0.953009
0.956784
0.961506
0.965493
0.970581
0.975446
0.980267
0.984485
0.989221
0.993508
0.997729
1.00162
1.00538
1.00897
1.01252
1.01597
1.01909
1.02215
1.02491
0.974094
0.973585
0.972673
0.972223
0.970715
0.969504
0.968073
0.966194
0.964076
0.961994
0.959829
0.957662
0.955552
0.953383
0.951363
0.949395
0.947419
0.945715
0.944024
0.942496
0.941313
0.940201
0.939453
0.939126
0.938972
0.939178
0.939664
0.940613
0.941809
0.943584
0.945788
0.948262
0.951166
0.955499
0.95757
0.963705
0.965963
0.972634
0.975063
0.982406
0.98585
0.990082
0.994801
0.99957
1.00418
1.00868
1.01292
1.01716
1.02105
1.02481
1.02811
0.96876
0.967375
0.966115
0.964733
0.963586
0.961797
0.960228
0.958839
0.957174
0.955479
0.953811
0.952191
0.950743
0.94936
0.948115
0.946854
0.945689
0.944516
0.943544
0.942515
0.941752
0.941002
0.940631
0.940327
0.940578
0.940671
0.941181
0.941905
0.94286
0.944212
0.945594
0.947167
0.950525
0.951698
0.956768
0.957924
0.963798
0.965849
0.972947
0.975533
0.980827
0.986148
0.991432
0.99686
1.00235
1.00785
1.01304
1.01798
1.02273
1.02713
1.03116
0.963065
0.961
0.959266
0.957555
0.95551
0.953786
0.951863
0.950108
0.948482
0.947356
0.946955
0.946442
0.945933
0.945345
0.944989
0.944483
0.944114
0.943599
0.9432
0.942803
0.942484
0.942176
0.942166
0.942132
0.9424
0.942649
0.943118
0.943662
0.944272
0.945034
0.945934
0.947307
0.948075
0.951025
0.951559
0.956134
0.957304
0.963047
0.964524
0.972457
0.975435
0.980525
0.986835
0.993292
0.99978
1.00641
1.01286
1.01887
1.02452
1.02965
1.03438
0.957928
0.957057
0.954881
0.954581
0.953004
0.949361
0.948222
0.943797
0.940245
0.93871
0.937941
0.938405
0.93924
0.940158
0.941025
0.94167
0.942334
0.942709
0.943093
0.94336
0.943569
0.943798
0.94415
0.944328
0.944716
0.945083
0.945471
0.945772
0.945992
0.946251
0.946227
0.946492
0.947039
0.948433
0.950499
0.954045
0.959008
0.962821
0.968553
0.967712
0.975379
0.983051
0.982858
0.988787
0.996264
1.00389
1.01153
1.01876
1.02574
1.0319
1.03743
0.958796
0.970975
0.964673
0.982717
0.987949
0.982751
0.971212
0.9565
0.943145
0.934985
0.932408
0.932066
0.933669
0.935856
0.937959
0.939745
0.941252
0.942444
0.943437
0.944318
0.944998
0.945737
0.946377
0.946911
0.947409
0.947903
0.948197
0.948231
0.948045
0.947318
0.946946
0.946788
0.948742
0.949411
0.962993
0.970974
0.992071
1.02542
1.02881
1.03671
1.01601
1.00096
1.00388
0.997524
1.00003
1.00523
1.01197
1.01965
1.02721
1.03401
1.04031
0.989114
1.06904
1.08033
1.16312
1.2077
1.19392
1.15164
1.08168
0.998233
0.953008
0.929888
0.923799
0.925382
0.929344
0.933367
0.936699
0.939614
0.94193
0.94389
0.945518
0.946855
0.948065
0.949089
0.949857
0.950471
0.951049
0.951266
0.950812
0.950074
0.949232
0.950123
0.94957
0.964979
0.971323
1.04026
1.1535
1.26507
1.41872
1.46114
1.41609
1.42287
1.25503
1.05836
1.0205
0.999484
1.00276
1.01086
1.0194
1.02814
1.03587
1.04284
1.27232
1.40511
1.53258
1.59204
1.61814
1.58971
1.58149
1.4409
1.31045
1.07137
0.96562
0.936526
0.928191
0.927662
0.930886
0.934492
0.938463
0.941762
0.944628
0.946929
0.948922
0.950655
0.952135
0.953084
0.95393
0.954529
0.95431
0.953566
0.953504
0.952922
0.964079
0.977006
1.06036
1.23899
1.48618
1.6565
1.75058
1.79584
1.79769
1.7702
1.76294
1.6048
1.53791
1.10821
1.03255
1.01092
1.0113
1.01951
1.02895
1.03758
1.04509
1.69189
1.74779
1.75995
1.74411
1.72073
1.68615
1.66419
1.60617
1.56752
1.36385
1.08811
0.947016
0.919192
0.920581
0.926337
0.932395
0.937668
0.942103
0.945648
0.948796
0.951213
0.953424
0.955193
0.956427
0.957592
0.957614
0.957604
0.957635
0.963223
0.973267
1.04376
1.21678
1.53196
1.73947
1.82597
1.84478
1.83657
1.82585
1.80895
1.77331
1.76764
1.72134
1.66874
1.39394
1.11288
1.02757
1.01299
1.01943
1.02973
1.039
1.04678
1.818
1.7926
1.76102
1.72134
1.67723
1.61016
1.5904
1.57808
1.57353
1.47943
1.28307
1.0355
0.94119
0.920433
0.923574
0.930452
0.937048
0.942531
0.946913
0.95059
0.953777
0.956422
0.958448
0.960122
0.960743
0.961268
0.962364
0.970644
1.00466
1.13054
1.48664
1.75542
1.86345
1.88196
1.86916
1.84751
1.80947
1.76445
1.6789
1.64553
1.67965
1.695
1.64941
1.44731
1.13698
1.03038
1.01218
1.01911
1.02987
1.03962
1.04774
1.8059
1.76152
1.69986
1.60927
1.53344
1.40103
1.38924
1.44542
1.49583
1.4634
1.30414
1.06115
0.953839
0.923353
0.922402
0.929441
0.936877
0.943233
0.948386
0.952705
0.956424
0.959383
0.961847
0.963165
0.964385
0.966198
0.979696
1.05974
1.29817
1.69945
1.89497
1.91808
1.90702
1.88591
1.84975
1.79334
1.70896
1.60846
1.50807
1.3963
1.47991
1.61493
1.63325
1.38145
1.12661
1.02051
1.00957
1.01832
1.02981
1.03984
1.0479
1.76239
1.68186
1.57462
1.4466
1.32032
1.1956
1.18959
1.27529
1.39394
1.40369
1.25545
1.03381
0.942851
0.919696
0.921215
0.929117
0.937211
0.944165
0.949833
0.95489
0.958916
0.962377
0.964558
0.966227
0.968746
0.982682
1.10483
1.70701
1.92222
1.93621
1.93746
1.92665
1.90367
1.86132
1.78734
1.67151
1.51798
1.35715
1.2389
1.21016
1.42869
1.56977
1.51245
1.30104
1.05229
1.00746
1.00603
1.01785
1.02979
1.03996
1.04682
1.69636
1.58173
1.43021
1.25718
1.12342
1.03979
1.0344
1.16449
1.30429
1.30314
1.16162
0.99528
0.930182
0.91542
0.92043
0.929369
0.937916
0.945424
0.951549
0.956917
0.961348
0.964671
0.967246
0.97136
1.0163
1.6185
1.86339
1.93643
1.95819
1.95708
1.9481
1.92694
1.88033
1.79218
1.6485
1.45523
1.25069
1.11913
1.11668
1.2219
1.3836
1.44495
1.35356
1.09199
0.998236
1.00023
1.00449
1.01753
1.02924
1.03819
1.04741
1.62393
1.46494
1.2694
1.07391
0.965691
0.946622
0.977259
1.0926
1.16113
1.136
1.01924
0.938596
0.912948
0.912407
0.920759
0.930526
0.939284
0.946994
0.95324
0.958529
0.96319
0.967197
0.987384
1.18037
1.64036
1.90153
1.95867
1.97324
1.97621
1.97054
1.95264
1.90713
1.81625
1.66025
1.44571
1.2105
1.07367
1.05262
1.09802
1.19691
1.24593
1.24194
1.10127
0.988635
0.992418
0.993027
1.0067
1.01974
1.03036
1.04394
1.06504
1.5574
1.36571
1.13901
0.9684
0.906123
0.909653
0.94647
0.996969
1.02049
0.983356
0.934013
0.907559
0.90491
0.912074
0.922401
0.93219
0.940879
0.948256
0.954274
0.960848
0.970965
1.02431
1.31014
1.7242
1.90875
1.96932
1.98554
1.99227
1.99047
1.97747
1.93998
1.85634
1.70551
1.48693
1.23509
1.06845
1.01659
1.01562
1.05832
1.08021
1.09735
1.06359
0.974643
0.990558
0.980852
0.995885
1.00548
1.01798
1.02794
1.05822
1.18037
1.51955
1.31068
1.07694
0.918764
0.890785
0.884254
0.905534
0.921859
0.932335
0.908363
0.899768
0.896706
0.904425
0.914014
0.924653
0.933849
0.942008
0.950511
0.959372
0.981716
1.06369
1.40354
1.7661
1.92007
1.97399
1.99369
2.00491
2.00774
2.00166
1.97575
1.91112
1.78194
1.5767
1.32345
1.11132
1.00022
0.993217
0.989849
1.0013
1.00719
1.00424
0.978963
0.972401
0.970896
0.988214
0.999255
1.01588
1.04094
1.08457
1.22651
1.64836
1.50669
1.29083
1.05279
0.917357
0.88111
0.877354
0.87932
0.886376
0.892859
0.887568
0.888795
0.897321
0.905948
0.916984
0.926676
0.9366
0.946613
0.96415
1.01218
1.14638
1.50719
1.79446
1.92603
1.97634
1.9986
2.01281
2.0205
2.02177
2.00948
1.97057
1.88303
1.72638
1.50082
1.25264
1.02659
1.00722
0.979883
0.979322
0.97716
0.974982
0.972337
0.969651
0.970343
0.983164
0.993352
1.00979
1.02281
1.08997
1.28046
1.65106
1.99256
1.54392
1.34244
1.10611
0.927159
0.883158
0.881065
0.874042
0.879089
0.876498
0.88666
0.889227
0.901404
0.909643
0.920871
0.931411
0.946078
0.980132
1.07029
1.31856
1.6459
1.81596
1.93334
1.97425
2.0004
2.01653
2.02833
2.03559
2.035
2.0192
1.97432
1.87934
1.71262
1.47769
1.21521
1.06425
0.987517
0.988205
0.97866
0.973226
0.968116
0.972761
0.977438
0.984791
0.996558
1.03128
1.04148
1.17421
1.47199
1.83914
1.87943
2.03938
1.59305
1.41386
1.19386
0.986992
0.887469
0.885923
0.8854
0.877848
0.88471
0.887985
0.898625
0.906721
0.917992
0.933062
0.961979
1.02505
1.17418
1.47899
1.74283
1.85208
1.93531
1.97348
1.99898
2.01801
2.03105
2.04289
2.04969
2.04821
2.03184
1.98763
1.89675
1.74347
1.5298
1.293
1.08105
1.03487
0.988081
0.996907
0.984191
0.985725
0.985264
0.991948
1.00337
1.03319
1.079
1.34143
1.58717
1.80201
1.97843
1.9882
2.05171
1.68775
1.5537
1.35853
1.13733
0.945489
0.913769
0.886921
0.895799
0.894522
0.900781
0.909292
0.922068
0.944255
0.988718
1.08399
1.38005
1.65578
1.77382
1.8927
1.93416
1.97169
1.99699
2.01626
2.03201
2.04513
2.05626
2.06314
2.06226
2.04914
2.01477
1.94528
1.82619
1.65201
1.43834
1.2267
1.09572
1.018
1.02964
1.01376
1.01775
1.0272
1.06273
1.12267
1.27023
1.54041
1.69942
1.92849
1.94798
2.02523
2.03426
2.05764
1.75156
1.67645
1.55381
1.37736
1.1772
1.02588
0.91956
0.938301
0.930206
0.937891
0.953184
0.996767
1.08641
1.29051
1.57509
1.70712
1.85018
1.89139
1.94199
1.96853
1.99462
2.01344
2.03051
2.04475
2.05805
2.0684
2.0754
2.07584
2.06705
2.04374
1.99728
1.91713
1.79603
1.63853
1.46568
1.30836
1.21092
1.15141
1.15206
1.15653
1.2237
1.34574
1.52026
1.68865
1.85277
1.92954
2.00999
2.01593
2.04763
2.0526
2.0602
1.79278
1.75656
1.69726
1.60516
1.48089
1.3408
1.22947
1.11608
1.13908
1.13625
1.18668
1.33492
1.5294
1.67331
1.81084
1.85261
1.91254
1.94033
1.96904
1.98962
2.01126
2.02697
2.04341
2.05669
2.06944
2.07936
2.08618
2.08799
2.08291
2.06865
2.04069
1.99327
1.92205
1.82626
1.71547
1.60878
1.55132
1.50646
1.50557
1.5294
1.62489
1.73851
1.84857
1.92902
2.00072
2.00879
2.04147
2.04715
2.05863
2.06054
2.06301
1.81672
1.80091
1.77717
1.74084
1.68823
1.62237
1.55743
1.50251
1.51335
1.51762
1.5757
1.69158
1.77895
1.85439
1.88293
1.91694
1.94556
1.9671
1.98888
2.00686
2.02421
2.04012
2.05484
2.06753
2.0796
2.08887
2.09545
2.09815
2.0958
2.08767
2.07187
2.04575
2.00826
1.95889
1.90193
1.84863
1.8188
1.80219
1.80218
1.8338
1.90119
1.95232
1.99531
2.02063
2.04024
2.04301
2.05719
2.06109
2.0655
2.06567
2.06559
1.83237
1.82559
1.81756
1.80699
1.79173
1.77235
1.75329
1.74262
1.74808
1.76017
1.79587
1.85112
1.87654
1.90529
1.92702
1.94909
1.9679
1.98753
2.00456
2.02041
2.03723
2.05159
2.06511
2.07721
2.08839
2.09705
2.10328
2.10658
2.10597
2.10148
2.09257
2.07843
2.05927
2.036
2.01016
1.9896
1.97376
1.96848
1.97123
1.99209
2.01654
2.03214
2.0416
2.05214
2.05286
2.06026
2.06396
2.068
2.0693
2.06939
2.06807
1.84465
1.84261
1.84087
1.83969
1.83888
1.83788
1.83814
1.84182
1.84979
1.86319
1.88119
1.89993
1.91941
1.9354
1.95269
1.97156
1.98658
2.00299
2.01795
2.03353
2.04836
2.06186
2.07418
2.08578
2.09599
2.10403
2.10989
2.11353
2.11402
2.11136
2.10621
2.09787
2.08707
2.07481
2.06345
2.05338
2.04641
2.04202
2.04425
2.04975
2.05496
2.05798
2.05793
2.0591
2.06055
2.06269
2.06639
2.06926
2.07121
2.07138
2.06976
1.85565
1.85618
1.85783
1.86057
1.86416
1.86889
1.87497
1.88281
1.8916
1.90253
1.91571
1.9292
1.94421
1.95807
1.97252
1.98731
2.00116
2.01627
2.03038
2.04464
2.05829
2.07053
2.08229
2.09306
2.10245
2.10999
2.11554
2.11948
2.12031
2.11896
2.1158
2.11031
2.10396
2.09649
2.08987
2.08275
2.07725
2.07344
2.07225
2.07046
2.06882
2.0654
2.06387
2.05801
2.0604
2.05997
2.06363
2.06766
2.07081
2.07173
2.0708
1.86617
1.86864
1.87242
1.87722
1.88308
1.89009
1.89766
1.90701
1.91618
1.92677
1.93837
1.94973
1.96179
1.97406
1.98719
2.00061
2.0139
2.02758
2.04098
2.05402
2.06654
2.07784
2.08901
2.09926
2.10802
2.11497
2.12054
2.12442
2.12578
2.12524
2.12325
2.11967
2.11521
2.11025
2.10475
2.09919
2.09361
2.08913
2.08403
2.07859
2.07231
2.06513
2.05882
2.0547
2.05083
2.05273
2.05592
2.06229
2.0682
2.07066
2.07069
1.87617
1.8801
1.88512
1.89111
1.898
1.90575
1.91395
1.92357
1.93291
1.94268
1.95313
1.96399
1.97536
1.98694
1.99908
2.01144
2.02407
2.03661
2.04931
2.06144
2.07338
2.08409
2.0948
2.10436
2.11274
2.11948
2.12495
2.12897
2.13074
2.13116
2.12998
2.12734
2.12385
2.11964
2.1145
2.10873
2.10217
2.09558
2.08733
2.079
2.06968
2.05983
2.0503
2.04179
2.039
2.03914
2.04397
2.05349
2.06191
2.06958
2.06984
1.88506
1.89015
1.89637
1.90299
1.91043
1.91863
1.92698
1.93634
1.94544
1.95462
1.96486
1.97478
1.98562
1.99652
2.00794
2.01961
2.03154
2.04338
2.0555
2.06709
2.07853
2.08878
2.09907
2.10841
2.11646
2.12306
2.12863
2.13284
2.13534
2.1362
2.13528
2.13337
2.13044
2.12651
2.12119
2.11473
2.10712
2.09867
2.08812
2.07689
2.06387
2.05062
2.03663
2.02414
2.01813
2.01973
2.02438
2.0397
2.05666
2.06684
2.07123
1.89312
1.89885
1.9057
1.91261
1.9203
1.92861
1.93707
1.94599
1.9544
1.96354
1.9729
1.98239
1.99266
2.00301
2.01389
2.02511
2.03647
2.04804
2.05965
2.071
2.08203
2.09209
2.10207
2.11125
2.11914
2.12607
2.13191
2.1364
2.13949
2.14078
2.14057
2.13919
2.13655
2.1325
2.12694
2.11963
2.11066
2.10022
2.08676
2.07168
2.05477
2.0372
2.019
2.00214
1.99836
1.99403
2.0026
2.02367
2.04748
2.06683
2.0737
1.89975
1.90584
1.91279
1.9201
1.92776
1.93591
1.94398
1.95233
1.96027
1.96904
1.9777
1.98694
1.99662
2.00671
2.01712
2.0281
2.03907
2.05064
2.0619
2.0732
2.08394
2.09411
2.10384
2.11315
2.12132
2.12852
2.13458
2.1395
2.14313
2.14515
2.14552
2.14459
2.14224
2.1382
2.13194
2.12367
2.11309
2.10024
2.08404
2.06578
2.04467
2.0207
1.9951
1.97006
1.95825
1.95155
1.95783
1.98259
2.01698
2.05855
2.07507
1.90492
1.91102
1.91794
1.92512
1.93268
1.94027
1.9478
1.95564
1.96334
1.97139
1.97971
1.98868
1.99794
2.00772
2.01801
2.02874
2.03975
2.0512
2.06239
2.07351
2.08437
2.09486
2.10465
2.1142
2.12258
2.12998
2.13649
2.14169
2.14592
2.14841
2.14933
2.14894
2.14683
2.14273
2.13618
2.12697
2.11514
2.09994
2.08073
2.05754
2.02905
1.9969
1.96043
1.92319
1.89293
1.87592
1.86517
1.89224
1.9545
2.02867
2.0711
0.990066
0.990822
0.991549
0.992295
0.992964
0.993726
0.994456
0.995259
0.996105
0.997035
0.998068
0.999201
1.00053
1.00192
1.00357
1.0053
1.00722
1.00934
1.01156
1.01391
1.01632
1.01881
1.02125
1.02371
1.02603
1.02829
0.990363
0.990925
0.991446
0.99204
0.992646
0.993305
0.99402
0.99483
0.99574
0.996718
0.997889
0.999097
1.00059
1.0021
1.00384
1.00576
1.00782
1.00997
1.01228
1.01468
1.01712
1.01957
1.02201
1.02434
1.02657
1.02864
0.990728
0.991106
0.991491
0.991917
0.992436
0.993043
0.993712
0.99455
0.995499
0.996575
0.997812
0.999169
1.0007
1.00245
1.00424
1.00629
1.00845
1.01075
1.01315
1.01551
1.01801
1.0204
1.02274
1.02501
1.02709
1.02897
0.991262
0.991428
0.991638
0.991959
0.992404
0.992921
0.99364
0.994445
0.99543
0.996584
0.997863
0.999404
1.001
1.00285
1.00482
1.00698
1.00914
1.01162
1.01394
1.01651
1.01885
1.02125
1.02353
1.0256
1.02757
1.02928
0.991908
0.991932
0.992019
0.99224
0.992553
0.993093
0.993712
0.994602
0.995582
0.996831
0.998162
0.999814
1.00155
1.00333
1.00558
1.00767
1.01007
1.01227
1.01509
1.01723
1.01982
1.02206
1.0242
1.0262
1.02801
1.02949
0.992756
0.992586
0.992635
0.992754
0.993004
0.993507
0.994133
0.994983
0.996041
0.997306
0.998708
1.00038
1.00216
1.00418
1.00633
1.00853
1.011
1.0133
1.01583
1.01817
1.02061
1.02279
1.02486
1.02669
1.02833
1.02969
0.993797
0.993599
0.993509
0.993575
0.99383
0.994226
0.994877
0.995712
0.996775
0.998083
0.999549
1.00113
1.0032
1.0049
1.00743
1.00931
1.01206
1.01412
1.01676
1.01907
1.02127
1.02352
1.02534
1.02712
1.02863
1.02979
0.995108
0.994846
0.99464
0.994772
0.994875
0.995346
0.995967
0.996787
0.997875
0.99913
1.00064
1.00221
1.00426
1.00605
1.00833
1.0105
1.01286
1.01522
1.01756
1.01976
1.02213
1.02392
1.02584
1.02744
1.02878
1.02982
0.996557
0.996413
0.996056
0.996276
0.996295
0.996845
0.997415
0.998249
0.999305
1.00059
1.00205
1.00358
1.00553
1.00731
1.0095
1.01157
1.01391
1.01607
1.01842
1.02053
1.02256
1.0245
1.02604
1.02765
1.02883
1.02982
0.998338
0.998112
0.998035
0.997995
0.998271
0.998609
0.999312
1.00012
1.00117
1.00228
1.0037
1.0052
1.00693
1.00873
1.01079
1.01281
1.01493
1.01701
1.01916
1.02109
1.02298
1.02483
1.02629
1.02763
1.02886
1.02968
1.00052
1.00008
1.00026
1.00014
1.00055
1.00088
1.00151
1.00238
1.00326
1.00442
1.0057
1.00721
1.00862
1.0104
1.01209
1.01404
1.01587
1.01791
1.01972
1.02155
1.02333
1.02478
1.02638
1.0276
1.02863
1.02956
1.00268
1.00258
1.00264
1.00277
1.0031
1.00362
1.00418
1.00494
1.00586
1.00683
1.008
1.00926
1.01065
1.01214
1.01352
1.01544
1.01681
1.01858
1.02041
1.02153
1.02393
1.02441
1.02661
1.02731
1.02836
1.02915
1.0051
1.00532
1.00541
1.00574
1.00604
1.00661
1.0072
1.0079
1.00868
1.00964
1.01058
1.01162
1.01277
1.01386
1.01534
1.01638
1.01796
1.0192
1.02059
1.02212
1.02325
1.02462
1.02588
1.0269
1.02802
1.02885
1.00791
1.00817
1.00855
1.0089
1.00945
1.00997
1.0106
1.01123
1.01196
1.01265
1.01342
1.01418
1.01505
1.01591
1.0167
1.01794
1.01841
1.02018
1.02041
1.02233
1.02261
1.02453
1.02524
1.02623
1.02728
1.02829
1.01079
1.01132
1.01187
1.0125
1.01305
1.01372
1.01428
1.01489
1.01546
1.016
1.01654
1.01699
1.01742
1.0179
1.01842
1.01875
1.01978
1.01972
1.02113
1.02111
1.02291
1.02283
1.02473
1.02536
1.02654
1.0276
1.01389
1.01467
1.01551
1.01628
1.017
1.01768
1.01827
1.01881
1.01925
1.01958
1.01982
1.01996
1.01998
1.02002
1.01999
1.02014
1.01999
1.01992
1.02055
1.02064
1.02139
1.02236
1.02316
1.02421
1.02548
1.02685
1.01713
1.01826
1.01928
1.02035
1.02117
1.022
1.02252
1.02306
1.02327
1.02331
1.0232
1.0229
1.0225
1.02203
1.02146
1.02092
1.02043
1.02006
1.01962
1.01985
1.0197
1.02082
1.02152
1.02261
1.02404
1.02565
1.02044
1.02205
1.02332
1.02452
1.02565
1.02642
1.02711
1.0274
1.02753
1.0273
1.02681
1.026
1.02518
1.02388
1.02301
1.02157
1.0203
1.01925
1.01841
1.01767
1.01795
1.01782
1.01953
1.02062
1.0223
1.0245
1.02401
1.02583
1.02757
1.0289
1.0302
1.03115
1.03175
1.03202
1.03184
1.03136
1.03026
1.02937
1.02751
1.02585
1.02363
1.0216
1.01975
1.01788
1.01636
1.01528
1.01449
1.01523
1.01594
1.0177
1.02011
1.02268
1.02756
1.0298
1.0319
1.03352
1.03488
1.03595
1.03658
1.03666
1.03627
1.03542
1.03407
1.03198
1.03016
1.02716
1.0243
1.02153
1.01933
1.01688
1.01567
1.01346
1.01279
1.01155
1.01206
1.01415
1.01695
1.02058
1.03131
1.0339
1.03635
1.03824
1.03965
1.04088
1.04141
1.04131
1.04085
1.03925
1.03785
1.03459
1.03284
1.02847
1.02651
1.0247
1.02437
1.02463
1.02885
1.02534
1.02101
1.01908
1.01277
1.01193
1.01412
1.01798
1.03472
1.03792
1.04063
1.04289
1.04441
1.04574
1.04618
1.04592
1.04508
1.04304
1.04095
1.03765
1.03823
1.03189
1.04132
1.05334
1.07048
1.09427
1.12183
1.11563
1.11313
1.07944
1.04868
1.02888
1.01999
1.0188
1.03851
1.04211
1.04506
1.0476
1.04922
1.05045
1.0508
1.05036
1.04885
1.04701
1.04602
1.04474
1.05557
1.06789
1.12293
1.21666
1.3124
1.41948
1.48946
1.48194
1.43819
1.39516
1.2451
1.12846
1.06226
1.03458
1.04198
1.04617
1.0492
1.05217
1.05384
1.05479
1.0551
1.05434
1.05312
1.0553
1.05855
1.09456
1.13248
1.3038
1.50727
1.68332
1.77902
1.81965
1.81111
1.77859
1.767
1.66459
1.67724
1.40497
1.1903
1.0811
1.04517
1.04994
1.05299
1.0562
1.05781
1.05899
1.05875
1.05909
1.0633
1.08777
1.13951
1.301
1.59281
1.79555
1.91236
1.94315
1.92772
1.89707
1.85432
1.81356
1.74769
1.74466
1.69666
1.67982
1.41524
1.19045
1.04833
1.05308
1.05675
1.05976
1.06131
1.06177
1.06326
1.07396
1.12123
1.25208
1.54595
1.82418
1.9753
2.01543
1.99998
1.96687
1.91576
1.83606
1.75442
1.61177
1.59404
1.6275
1.66643
1.65524
1.52235
1.25927
1.05105
1.05577
1.05986
1.06242
1.06377
1.06487
1.08153
1.16457
1.43332
1.78758
1.99025
2.05845
2.05598
2.03011
1.98061
1.89665
1.77254
1.61432
1.4626
1.27644
1.2804
1.41019
1.57309
1.59808
1.48261
1.2294
1.05296
1.05766
1.06192
1.06348
1.06393
1.08055
1.22125
1.63783
1.96722
2.078
2.09551
2.08178
2.048
1.98194
1.87657
1.7271
1.53854
1.33979
1.15953
1.10949
1.16656
1.34552
1.52528
1.52278
1.36041
1.15615
1.05402
1.05861
1.06183
1.0638
1.07732
1.26543
1.79554
2.06197
2.11562
2.11424
2.09811
2.06024
1.99217
1.88477
1.72692
1.52263
1.29246
1.11923
1.05901
1.07271
1.19827
1.34632
1.39168
1.32911
1.14986
1.06565
1.05379
1.05823
1.06357
1.09128
1.3064
1.87535
2.10113
2.12908
2.12534
2.11056
2.07757
2.01836
1.91897
1.76472
1.55537
1.30806
1.1218
1.03841
1.03082
1.0674
1.12595
1.15245
1.161
1.08755
1.03951
1.02679
1.05357
1.06321
1.11257
1.39354
1.93959
2.11253
2.13089
2.12984
2.11946
2.09496
2.0494
1.96753
1.83321
1.63877
1.40651
1.19722
1.03112
1.00801
1.00129
1.01081
1.02676
1.03303
1.02955
1.01072
1.0119
1.01798
1.06556
1.1425
1.4981
1.96077
2.10189
2.12634
2.12829
2.12299
2.10812
2.07904
2.02452
1.93002
1.78048
1.57326
1.33465
1.11247
1.04632
0.997756
0.993717
0.990147
0.990445
0.994548
0.997566
1.00033
1.00745
1.01828
1.16054
1.56019
1.953
2.08783
2.11688
2.1215
2.12007
2.11207
2.096
2.06428
2.00739
1.90984
1.75681
1.54735
1.31154
1.11784
1.00587
1.01427
0.993767
0.988235
0.985372
0.989008
0.99347
0.999595
1.01004
1.0195
1.62232
1.92216
2.08097
2.1015
2.11146
2.1132
2.11006
2.1032
2.09011
2.06697
2.026
1.95513
1.83631
1.65645
1.42769
1.20548
1.09975
1.01093
1.02514
0.993853
0.992979
0.991169
1.00107
1.01107
1.0278
1.05875
1.89535
2.07211
2.08467
2.0984
2.10205
2.10177
2.09812
2.09113
2.0796
2.06263
2.03796
2.00158
1.94447
1.8552
1.7186
1.52556
1.32129
1.2237
1.11231
1.1394
1.114
1.1219
1.14648
1.22853
1.33417
1.49021
2.00707
2.0776
2.08316
2.08922
2.09026
2.08916
2.08449
2.07729
2.06686
2.05344
2.03649
2.01538
1.98775
1.95067
1.90199
1.84496
1.77791
1.70928
1.67853
1.63685
1.65821
1.68109
1.73632
1.83087
1.90785
1.9781
2.04899
2.07288
2.07669
2.07839
2.07797
2.07532