/*--------------------------------*- C++ -*----------------------------------*\
  =========                 |
  \\      /  F ield         | OpenFOAM: The Open Source CFD Toolbox
   \\    /   O peration     | Website:  https://openfoam.org
    \\  /    A nd           | Version:  10
     \\/     M anipulation  |
\*---------------------------------------------------------------------------*/
FoamFile
{
    format      ascii;
    class       surfaceScalarField;
    location    "0.200576";
    object      phi;
}
// * * * * * * * * * * * * * * * * * * * * * * * * * * * * * * * * * * * * * //

dimensions      [1 0 -1 0 0 0 0];

internalField   nonuniform List<scalar> 
32368
(
-7.12725e-05
6.17332e-06
-5.60168e-05
1.31239e-05
-5.68663e-05
3.49162e-05
-4.99148e-05
0.000126657
-0.000109681
0.000156325
-0.000148054
0.000292533
-0.000173557
0.000448276
-0.000298451
0.000341452
-0.000345127
0.000241368
-0.000328233
0.000197375
-0.000280618
0.000157951
-0.000226435
0.00012206
-0.000184365
8.20674e-05
-0.000174663
4.90068e-05
-0.000168242
1.97831e-05
-0.000158961
-1.05824e-05
-0.000149018
-3.4881e-05
-0.000137107
-4.84799e-05
-0.000124213
-5.2448e-05
-0.000104432
-5.17367e-05
-7.8009e-05
-4.62158e-05
-7.1609e-05
-3.60791e-05
-7.16708e-05
-2.29768e-05
-7.14596e-05
-7.5125e-06
-6.26883e-05
1.53298e-05
-5.26826e-05
4.688e-05
-4.60106e-05
8.36025e-05
-4.73419e-05
0.000117883
-5.41912e-05
0.000147726
-6.3123e-05
0.000167599
-7.20754e-05
0.000178206
-8.02317e-05
0.000183624
-8.79206e-05
0.000184942
-9.52217e-05
0.000182809
-0.000101077
0.000175903
-0.000104191
0.000162929
-0.00010317
0.00014289
-0.000100506
0.000116587
-0.00011693
0.000108057
-0.000111192
7.23862e-05
-5.76961e-05
-1.78568e-05
3.28472e-05
-0.000109461
0.000137425
-0.000142443
0.000213893
-0.000114334
0.000260347
-2.89594e-05
0.00027802
4.73933e-05
0.000270463
0.00011122
0.000235161
0.000136767
0.000169117
0.000120771
0.00011888
8.11486e-05
9.53339e-05
5.5194e-05
8.16698e-05
4.93396e-05
9.98504e-05
7.01926e-05
0.000105249
9.66879e-05
9.8965e-05
8.34855e-05
0.000105128
3.2398e-05
0.000145312
-4.13097e-05
0.000192509
-0.000114275
0.000204983
-0.000163583
0.000192514
-0.000186084
0.000170329
-0.000188719
0.000132972
-0.000173708
8.80205e-05
-0.000137593
4.96391e-05
-8.43998e-05
3.52331e-05
-4.28096e-05
3.06477e-05
-2.24932e-05
2.9637e-05
-1.07481e-05
2.95132e-05
-4.44388e-06
2.90742e-05
-1.58922e-06
2.68545e-05
-1.95732e-06
2.10217e-05
-4.54773e-06
1.80605e-05
-8.99514e-06
1.77097e-05
-1.38445e-05
1.83899e-05
-1.63058e-05
1.97585e-05
-1.57669e-05
2.29483e-05
-1.44353e-05
3.51734e-05
-2.0031e-05
6.58005e-05
-4.68733e-05
0.000101363
-9.29085e-05
0.000123064
-0.000146838
0.000115869
-0.000199439
4.70959e-05
-0.000244627
-0.000127392
-0.00029246
-0.000299573
-0.000363139
-0.000362665
-0.000437854
-0.000425286
-0.000503398
-0.000476777
-0.000512243
-0.000367763
-0.00039902
-0.000125788
2.52155e-05
-5.65163e-05
0.000465675
-2.77371e-05
0.000574159
-7.90473e-05
0.000710287
-0.000188242
0.000639579
-0.000222303
0.000477344
-0.000237069
0.000335984
-0.000248671
0.000271111
-0.000265427
0.000227279
-0.000305364
0.000201428
-0.000345915
0.000175063
-0.000331363
0.000126812
-0.000297246
6.44862e-05
-0.000261057
-2.44571e-06
-0.000232009
-6.26767e-05
-0.000206637
-0.000105744
-0.000156775
-0.000111879
-9.3307e-05
-9.94146e-05
-2.49798e-05
-6.18561e-05
2.21005e-05
-2.18008e-06
5.13088e-05
2.01828e-05
7.13352e-05
1.77609e-06
8.35845e-05
-4.53405e-05
8.94607e-05
-6.78801e-05
-5.96941e-05
9.41289e-05
-7.17572e-05
1.23039e-05
-5.95147e-05
2.48037e-05
-7.84005e-05
5.00585e-05
-6.88246e-05
0.000166482
-8.96132e-05
0.000259021
-0.000106281
0.000359414
-0.000102244
0.000490858
-0.000190548
0.000381753
-0.000253462
0.000265405
-0.000256268
0.000201973
-0.000226012
0.000161133
-0.00018297
0.000128817
-0.000149012
8.91737e-05
-0.000140731
5.75947e-05
-0.000137141
2.82103e-05
-0.000131503
-4.61396e-06
-0.00012723
-2.89817e-05
-0.000121237
-3.85537e-05
-0.000112394
-3.93094e-05
-9.83562e-05
-3.5192e-05
-7.44557e-05
-2.94897e-05
-7.03015e-05
-2.17348e-05
-7.58277e-05
-9.02715e-06
-8.21424e-05
6.84797e-06
-7.33744e-05
3.15662e-05
-5.86547e-05
6.6572e-05
-4.67057e-05
0.00010185
-4.54041e-05
0.000130626
-5.13115e-05
0.000161553
-6.06968e-05
0.000182993
-7.07778e-05
0.00019313
-8.06784e-05
0.000197419
-9.10188e-05
0.000198432
-0.000101151
0.000196002
-0.00011026
0.000188598
-0.000117421
0.000174703
-0.000128357
0.000157401
-0.000186253
0.000176569
-0.000241053
0.000169307
-0.000231647
7.1375e-05
-0.000154325
-7.96911e-05
-2.9671e-05
-0.000213048
8.88006e-05
-0.00023561
0.000133912
-0.000186455
0.000147505
-7.33994e-05
0.000182856
5.0169e-06
0.000210556
8.31799e-05
0.000204471
0.000129398
0.000152356
0.000123867
0.000106204
8.40032e-05
8.81703e-05
5.92573e-05
7.98347e-05
5.44028e-05
0.000102035
8.3602e-05
0.000105456
9.70699e-05
0.000100513
7.27871e-05
0.000114258
8.52459e-06
0.000154983
-6.59841e-05
0.000195384
-0.000132321
0.000200667
-0.000170715
0.000186305
-0.000181085
0.000164271
-0.000178986
0.00012798
-0.000162547
8.51247e-05
-0.000127431
4.90759e-05
-7.93394e-05
3.58653e-05
-4.30997e-05
3.13822e-05
-2.49249e-05
3.02866e-05
-1.31973e-05
2.98167e-05
-6.07637e-06
2.8865e-05
-2.74525e-06
2.57113e-05
-2.68327e-06
2.04191e-05
-5.33642e-06
1.89199e-05
-1.00795e-05
1.89887e-05
-1.52712e-05
1.96532e-05
-1.81608e-05
2.09129e-05
-1.8204e-05
2.39341e-05
-1.78443e-05
3.66619e-05
-2.45338e-05
6.55429e-05
-5.19877e-05
9.72634e-05
-9.72535e-05
0.000115914
-0.000149422
0.0001104
-0.000200748
6.33802e-05
-0.000253985
-7.61971e-05
-0.000332781
-0.000258893
-0.000446636
-0.000357803
-0.000547844
-0.000417304
-0.000597796
-0.0004982
-0.000605358
-0.000449283
-0.000550526
-0.000114167
-0.000259705
8.81845e-06
0.000397395
5.63551e-05
0.000560805
3.42833e-05
0.0007113
-0.000118694
0.00064937
-0.00020447
0.000493585
-0.000229613
0.000344435
-0.000234756
0.000272421
-0.000244915
0.000231155
-0.000277881
0.000205644
-0.000289119
0.000175081
-0.00026151
0.000124508
-0.000217714
5.94446e-05
-0.00017871
-2.09461e-06
-0.000161189
-4.981e-05
-0.000140639
-7.76937e-05
-0.000106099
-8.39354e-05
-5.12554e-05
-7.17945e-05
5.42267e-06
-2.28395e-05
6.06027e-05
3.7364e-05
8.11549e-05
8.01659e-05
9.23901e-05
5.61209e-05
8.32843e-05
-1.15372e-05
7.1549e-05
-6.16344e-05
-6.25441e-05
7.01142e-05
-6.21444e-05
2.10266e-05
-5.24547e-05
3.67793e-05
-6.46187e-05
6.68008e-05
-6.77205e-05
0.000187756
-6.35113e-05
0.000329999
-5.79774e-05
0.000407137
-3.66773e-05
0.000519104
-8.4119e-05
0.000417599
-0.000142921
0.000297219
-0.000151937
0.000212567
-0.000140484
0.000163498
-0.000120315
0.000134555
-0.000102043
0.000100094
-9.89133e-05
7.15103e-05
-9.91209e-05
4.12558e-05
-9.73015e-05
7.23006e-06
-9.63357e-05
-1.72622e-05
-9.86509e-05
-2.40496e-05
-9.69737e-05
-1.92075e-05
-9.06381e-05
-1.20246e-05
-7.17579e-05
-2.52646e-06
-7.09607e-05
2.53926e-06
-8.08142e-05
1.31197e-05
-9.53505e-05
3.09798e-05
-8.80569e-05
5.54396e-05
-7.38572e-05
9.08433e-05
-5.71617e-05
0.000126415
-4.80997e-05
0.000148331
-5.22777e-05
0.000175314
-6.08378e-05
0.00019733
-7.06825e-05
0.000207538
-8.14797e-05
0.000212015
-9.26062e-05
0.000213033
-0.000103292
0.000210355
-0.000112584
0.000202481
-0.000124319
0.000191088
-0.000164742
0.00019766
-0.000257387
0.000241071
-0.000292882
0.000211187
-0.000274271
8.16764e-05
-0.000190232
-0.000106181
-7.26184e-05
-0.000245278
2.25282e-05
-0.000253366
6.49848e-05
-0.000196603
6.99606e-05
-0.000105433
8.68929e-05
-1.43526e-05
0.000124401
5.72118e-05
0.000139915
0.000103698
0.000116015
0.000105908
8.41806e-05
7.46189e-05
7.46316e-05
6.04014e-05
7.7303e-05
6.2091e-05
0.0001008
9.47207e-05
0.000104479
9.2644e-05
0.000106444
5.42485e-05
0.000116957
-1.84365e-05
0.000161791
-9.26972e-05
0.000197923
-0.000151509
0.000198556
-0.000178235
0.000183347
-0.000180067
0.000160189
-0.000169661
0.000123292
-0.000147136
8.13514e-05
-0.000109956
5.01402e-05
-6.82971e-05
3.76423e-05
-4.05416e-05
3.34064e-05
-2.49165e-05
3.19941e-05
-1.41488e-05
3.11495e-05
-6.90475e-06
2.95514e-05
-3.39513e-06
2.45944e-05
-3.10641e-06
2.04601e-05
-6.15842e-06
1.96402e-05
-1.12229e-05
1.98222e-05
-1.65417e-05
2.02675e-05
-1.96596e-05
2.12221e-05
-2.01814e-05
2.4056e-05
-2.09669e-05
3.8021e-05
-3.02508e-05
6.38987e-05
-5.93929e-05
9.05156e-05
-0.000103497
0.00010499
-0.000154146
9.92472e-05
-0.00020601
6.03486e-05
-0.000275632
-5.89335e-05
-0.000388498
-0.000219898
-0.000544051
-0.000313097
-0.000669723
-0.000357836
-0.000714943
-0.000427334
-0.000725819
-0.000407063
-0.00067625
-0.000147168
-0.000432345
0.000113126
0.00033009
0.000157941
0.000616594
0.000193366
0.000747197
1.3714e-05
0.000673149
-0.000159858
0.000516337
-0.000214279
0.000363819
-0.00022408
0.000279047
-0.000232623
0.000239239
-0.000251453
0.000214658
-0.000235651
0.000177041
-0.000199192
0.000120329
-0.000142713
5.0205e-05
-0.000103393
-9.3928e-06
-8.18816e-05
-4.51745e-05
-6.71063e-05
-5.59824e-05
-4.21155e-05
-6.83015e-05
1.65365e-06
-5.82987e-05
4.69523e-05
-1.15535e-05
8.19862e-05
5.02927e-05
9.53016e-05
9.75824e-05
8.53868e-05
6.34868e-05
5.25971e-05
-2.32284e-05
3.1089e-05
-8.1568e-05
-7.45851e-05
2.93675e-05
-5.141e-05
3.27713e-05
-4.18809e-05
5.08081e-05
-4.56689e-05
8.55548e-05
-5.38597e-05
0.000205515
-3.2111e-05
0.000375182
-1.13461e-05
0.000433759
1.3386e-05
0.000524327
-8.32948e-06
0.00044087
-6.28754e-05
0.000322909
-8.40015e-05
0.000228142
-8.13285e-05
0.000171296
-6.93839e-05
0.000142224
-5.72806e-05
0.000113918
-5.42117e-05
8.69743e-05
-5.43023e-05
5.77447e-05
-5.54482e-05
2.56754e-05
-5.86987e-05
4.08183e-06
-6.77443e-05
2.01192e-06
-7.83545e-05
1.09541e-05
-8.07978e-05
2.12664e-05
-6.78396e-05
3.13636e-05
-7.23977e-05
3.4142e-05
-9.00469e-05
4.26146e-05
-0.000110507
6.48963e-05
-0.000104838
8.57944e-05
-8.99851e-05
0.000116141
-6.90721e-05
0.000146438
-5.54013e-05
0.000161845
-5.68281e-05
0.000186923
-6.3269e-05
0.000209245
-7.1941e-05
0.000220301
-8.19568e-05
0.000225174
-9.20859e-05
0.000226193
-0.000100875
0.000222794
-0.000109706
0.000215275
-0.000129428
0.000211156
-0.000194044
0.000243788
-0.000259804
0.000282832
-0.000280212
0.000238908
-0.000266378
0.000110256
-0.000209294
-8.70149e-05
-0.000104334
-0.000214253
-3.25178e-05
-0.000209947
9.09692e-06
-0.000162093
2.44866e-05
-0.00010299
3.40881e-05
-2.92182e-05
5.65327e-05
3.28697e-05
7.36431e-05
7.10742e-05
6.79126e-05
7.73123e-05
6.03814e-05
6.51321e-05
5.95053e-05
6.05465e-05
7.62636e-05
7.8933e-05
9.61843e-05
9.74226e-05
0.000104115
7.89455e-05
0.000113416
2.27789e-05
0.000117752
-4.6693e-05
0.000171303
-0.000112581
0.000203232
-0.000169411
0.000199661
-0.000188278
0.000183046
-0.000179307
0.000155624
-0.000158679
0.000113931
-0.000126714
7.26879e-05
-8.70458e-05
4.86919e-05
-5.38746e-05
3.93568e-05
-3.5627e-05
3.59641e-05
-2.3219e-05
3.44723e-05
-1.33896e-05
3.31307e-05
-6.58373e-06
3.05004e-05
-3.4192e-06
2.39121e-05
-3.51772e-06
2.08899e-05
-6.81648e-06
2.02734e-05
-1.2163e-05
2.033e-05
-1.74874e-05
2.04547e-05
-2.07081e-05
2.11698e-05
-2.16522e-05
2.46649e-05
-2.41645e-05
4.01599e-05
-3.90296e-05
6.33902e-05
-7.1157e-05
8.44531e-05
-0.000115007
9.38862e-05
-0.000163172
8.81957e-05
-0.000220838
4.4133e-05
-0.000304751
-7.40792e-05
-0.0004541
-0.000207424
-0.000646657
-0.000254907
-0.000767792
-0.000264819
-0.000799321
-0.000320025
-0.000816074
-0.000317386
-0.000747079
-0.000192739
-0.000457931
0.00014584
0.000151937
0.000228898
0.000706972
0.000264849
0.000784891
0.000159764
0.00075702
-8.37231e-05
0.000561968
-0.000187956
0.000401753
-0.000217291
0.000305026
-0.000231735
0.000261237
-0.000224428
0.0002232
-0.000193885
0.000173543
-0.000146639
0.000108811
-9.16331e-05
3.53367e-05
-5.05672e-05
-2.422e-05
-2.36741e-05
-4.9057e-05
-6.43312e-06
-4.74671e-05
1.55644e-05
-5.22893e-05
5.0962e-05
-6.18222e-05
8.18152e-05
-3.03293e-05
9.469e-05
1.91604e-05
8.84765e-05
5.22518e-05
5.23029e-05
1.50318e-05
7.19884e-06
-6.74299e-05
-1.19164e-05
-0.000108907
-8.62303e-05
-8.47623e-06
-4.1737e-05
4.70179e-05
-3.28158e-05
6.70498e-05
-3.29039e-05
0.000107411
-3.76758e-05
0.000228522
-2.08869e-06
0.000401118
3.15881e-05
0.000444912
6.78267e-05
0.000503775
4.84229e-05
0.000440033
2.50148e-06
0.000328771
-2.60837e-05
0.000232794
-3.02861e-05
0.000167719
-2.11827e-05
0.00013531
-1.20214e-05
0.000114268
-9.66984e-06
9.5331e-05
-1.19391e-05
7.37534e-05
-1.97336e-05
5.16257e-05
-2.90074e-05
3.51519e-05
-4.23174e-05
3.37244e-05
-6.03516e-05
4.62811e-05
-7.11912e-05
6.27468e-05
-6.55684e-05
7.44838e-05
-7.47549e-05
7.22249e-05
-9.89026e-05
7.80578e-05
-0.000123898
0.000105624
-0.000119929
0.000121586
-0.000103919
0.000144103
-7.93816e-05
0.000163284
-6.44259e-05
0.000171797
-6.40157e-05
0.000195672
-6.76202e-05
0.000217869
-7.40885e-05
0.000229552
-8.16538e-05
0.000234676
-8.90847e-05
0.000235809
-9.59484e-05
0.000232501
-0.000105671
0.000226699
-0.000132057
0.000230397
-0.000194561
0.000268717
-0.000239287
0.000298099
-0.000251256
0.000252026
-0.000244665
0.000136463
-0.000212796
-3.55975e-05
-0.000131746
-0.000178052
-6.6921e-05
-0.000218263
-3.10576e-05
-0.000169031
-1.00171e-05
-8.46051e-05
5.67841e-06
-3.60059e-05
1.86283e-05
2.07101e-05
3.12855e-05
5.29469e-05
3.74457e-05
6.25306e-05
4.15473e-05
6.14843e-05
5.17952e-05
6.68759e-05
7.39982e-05
8.80663e-05
9.28315e-05
8.74846e-05
0.000104601
5.48135e-05
0.000112411
-8.36133e-06
0.000121663
-6.39733e-05
0.000185417
-0.000127458
0.000213246
-0.000186331
0.000203934
-0.000197739
0.000183343
-0.000177396
0.000147972
-0.000146113
9.98821e-05
-0.000105395
6.20196e-05
-6.60726e-05
4.70819e-05
-4.37544e-05
4.1173e-05
-3.10207e-05
3.85713e-05
-2.05228e-05
3.68941e-05
-1.14339e-05
3.51735e-05
-5.14469e-06
3.13111e-05
-2.73917e-06
2.40374e-05
-3.68258e-06
2.14949e-05
-7.41087e-06
2.08549e-05
-1.28355e-05
2.0613e-05
-1.80321e-05
2.03337e-05
-2.1254e-05
2.0905e-05
-2.26543e-05
2.70796e-05
-2.80079e-05
4.54999e-05
-5.04203e-05
6.54747e-05
-8.77897e-05
7.99788e-05
-0.000132408
8.48219e-05
-0.000181895
6.79482e-05
-0.000242087
9.31211e-06
-0.000348451
-0.000110127
-0.00053319
-0.000205438
-0.000727365
-0.000213397
-0.00081629
-0.000191988
-0.000820816
-0.000219562
-0.000819545
-0.000222081
-0.000701088
-0.000154213
-0.000355234
4.88584e-07
7.56868e-05
0.000212241
0.000663967
0.000264715
0.000838632
0.000234
0.000846192
-2.28339e-06
0.000648014
-0.000157983
0.000460356
-0.000207405
0.000341088
-0.000217226
0.000277521
-0.000193994
0.000225306
-0.000154669
0.000165908
-9.7052e-05
9.01512e-05
-5.55857e-05
1.93584e-05
-1.92346e-05
-3.93395e-05
4.35345e-06
-5.08485e-05
2.08502e-05
-4.14361e-05
5.22572e-05
-4.72216e-05
8.63675e-05
-6.10143e-05
0.000103475
-4.35921e-05
9.43336e-05
-1.53122e-05
6.45304e-05
-2.33041e-06
1.5064e-05
-3.81749e-05
-2.75439e-05
-9.74522e-05
-3.85505e-05
-0.000121109
-8.35531e-05
-3.82192e-05
-3.89544e-05
6.27515e-05
-3.35969e-05
8.64988e-05
-3.27383e-05
0.000132565
-2.59449e-05
0.000245716
1.63994e-05
0.00040173
6.44252e-05
0.000436561
0.000113141
0.000468612
0.000106639
0.000407833
6.45279e-05
0.000302811
3.30581e-05
0.000202306
2.56654e-05
0.000128055
2.734e-05
9.37963e-05
2.89018e-05
8.97099e-05
2.41556e-05
9.03337e-05
1.25279e-05
8.67844e-05
-2.06952e-06
7.46233e-05
-1.47342e-05
6.63954e-05
-3.21421e-05
7.02831e-05
-5.29461e-05
8.69547e-05
-6.68911e-05
0.000107957
-6.44836e-05
0.000120759
-7.73988e-05
0.000114136
-0.000106624
0.000117586
-0.000135413
0.000150161
-0.000132745
0.000159759
-0.000115108
0.000171
-8.74413e-05
0.000173262
-7.48521e-05
0.00017579
-7.24445e-05
0.000200601
-7.33815e-05
0.000222364
-7.65351e-05
0.00023426
-8.08765e-05
0.000240118
-8.5738e-05
0.000242037
-9.07435e-05
0.000238903
-0.00010004
0.000234207
-0.000124436
0.000238775
-0.000177354
0.000272576
-0.000214527
0.00029813
-0.00023577
0.000256386
-0.000234722
0.000172164
-0.000211354
2.44875e-05
-0.000163006
-0.000150448
-0.000110708
-0.000286875
-5.57652e-05
-0.00025338
-2.98591e-05
-9.78314e-05
-9.07956e-06
-3.64797e-05
5.24895e-06
1.12175e-05
1.35933e-05
4.58055e-05
2.21292e-05
5.58206e-05
3.14728e-05
5.91882e-05
4.76221e-05
6.85666e-05
7.12323e-05
8.01028e-05
9.33026e-05
6.60519e-05
0.0001078
2.33147e-05
0.000107412
-2.98503e-05
0.000127594
-6.95818e-05
0.000201472
-0.00013652
0.000224734
-0.000197108
0.000209888
-0.000204095
0.000184476
-0.000175703
0.000138751
-0.000135428
8.61401e-05
-8.6569e-05
5.75321e-05
-5.33329e-05
4.76775e-05
-3.79718e-05
4.34535e-05
-2.70847e-05
4.10114e-05
-1.71616e-05
3.92755e-05
-8.70996e-06
3.73573e-05
-3.28377e-06
3.19124e-05
-1.68487e-06
2.45878e-05
-3.62434e-06
2.22659e-05
-7.77538e-06
2.14442e-05
-1.31668e-05
2.08105e-05
-1.81349e-05
2.00595e-05
-2.12579e-05
2.0001e-05
-2.27664e-05
2.79282e-05
-2.89465e-05
4.63999e-05
-5.56477e-05
6.48491e-05
-9.56075e-05
7.50673e-05
-0.000140277
7.09777e-05
-0.000192361
3.96652e-05
-0.000262417
-5.12964e-05
-0.000401679
-0.000170808
-0.000606673
-0.000223895
-0.000779064
-0.000196175
-0.000818444
-0.000164975
-0.000804953
-0.000158137
-0.000774316
-0.00014258
-0.000554019
-0.000127682
-0.000240886
-0.000103627
3.39001e-05
8.5407e-05
0.000547586
0.000187031
0.000852371
0.000231606
0.000880823
5.38214e-05
0.000768388
-0.000122312
0.000533657
-0.000185628
0.000380904
-0.000189307
0.0002898
-0.000160903
0.000221633
-0.000114949
0.000150705
-6.31865e-05
6.96603e-05
-2.41309e-05
1.84393e-06
4.14401e-06
-4.7245e-05
1.81802e-05
-4.39175e-05
3.52306e-05
-3.5628e-05
7.00806e-05
-4.29073e-05
9.83997e-05
-4.81489e-05
0.00010413
-3.83385e-05
8.21529e-05
-2.61759e-05
4.08094e-05
-2.75166e-05
-7.68193e-06
-5.80351e-05
-4.41814e-05
-0.000100652
-5.80513e-05
-0.000116204
-6.84174e-05
-6.14864e-05
-4.52986e-05
8.16968e-05
-4.10703e-05
0.000107136
-3.46312e-05
0.00015292
-1.65411e-05
0.000250159
3.19721e-05
0.000377695
9.32478e-05
0.000406793
0.000152039
0.000406705
0.00016203
0.000334077
0.000134064
0.000224136
9.98435e-05
0.000127494
7.86808e-05
7.18009e-05
6.65755e-05
5.09598e-05
5.496e-05
5.65893e-05
3.84328e-05
7.41233e-05
1.79677e-05
9.0128e-05
7.58801e-07
9.74765e-05
-1.40313e-05
0.000101696
-3.06167e-05
0.000110248
-5.07337e-05
0.000131815
-6.53597e-05
0.000155011
-6.46978e-05
0.000166044
-8.00778e-05
0.000154554
-0.000112487
0.000156165
-0.000144544
0.00019355
-0.000143443
0.000197791
-0.000124579
0.000200066
-9.31402e-05
0.000187543
-8.35159e-05
0.000180369
-8.07281e-05
0.000201704
-7.93801e-05
0.000221162
-7.94085e-05
0.000233001
-8.07389e-05
0.000239894
-8.27255e-05
0.000242647
-8.51504e-05
0.00024021
-9.16208e-05
0.000235449
-0.000111412
0.000238446
-0.000156042
0.000263938
-0.000186883
0.0002827
-0.000206201
0.000258655
-0.000187014
0.000203451
-0.000173812
9.58794e-05
-0.000178398
-0.000100361
-0.000183323
-0.000296637
-0.00010248
-0.000373699
-4.23698e-05
-0.000179273
-2.41981e-05
-4.50905e-05
-6.30951e-06
1.78851e-06
6.7707e-06
3.59701e-05
1.65703e-05
4.94823e-05
2.87177e-05
5.3763e-05
4.83708e-05
6.02271e-05
7.42399e-05
5.9303e-05
9.27685e-05
3.62532e-05
0.000104235
-2.15973e-06
0.000106782
-3.93075e-05
0.000132393
-6.88723e-05
0.000206605
-0.000136158
0.000235162
-0.00020219
0.000217665
-0.000210651
0.000186003
-0.000179293
0.000131562
-0.000133404
7.75808e-05
-8.05344e-05
5.70383e-05
-4.90719e-05
4.87901e-05
-3.39172e-05
4.50417e-05
-2.30888e-05
4.29208e-05
-1.35094e-05
4.13805e-05
-5.79759e-06
3.93174e-05
-1.46309e-06
3.24232e-05
-6.94296e-07
2.55584e-05
-3.3108e-06
2.33067e-05
-7.78507e-06
2.21038e-05
-1.30999e-05
2.10314e-05
-1.78178e-05
1.99066e-05
-2.08298e-05
1.93994e-05
-2.23791e-05
2.70835e-05
-2.82945e-05
4.38345e-05
-5.57985e-05
5.89602e-05
-9.57464e-05
6.49936e-05
-0.000142053
5.20412e-05
-0.000196527
-1.91396e-06
-0.000284723
-0.000123175
-0.000451975
-0.000244397
-0.000652075
-0.000246694
-0.000771224
-0.000203651
-0.000787596
-0.0001633
-0.000770117
-0.000122898
-0.000675579
-0.000109243
-0.000381315
-0.000126132
-0.000213954
-0.000122087
8.79346e-07
-5.39115e-05
0.00040583
7.76323e-05
0.000823805
0.000161599
0.000896539
7.74908e-05
0.000826795
-9.05281e-05
0.000608271
-0.000156259
0.000417346
-0.000154775
0.000301288
-0.000123408
0.000210411
-7.5097e-05
0.00012696
-3.472e-05
5.14367e-05
1.35295e-06
-1.48197e-05
1.63509e-05
-4.29848e-05
2.51611e-05
-3.65245e-05
4.32514e-05
-3.06441e-05
7.57096e-05
-3.3175e-05
9.69247e-05
-2.90911e-05
9.32388e-05
-2.18647e-05
6.54694e-05
-1.8786e-05
2.42242e-05
-2.6572e-05
-1.99293e-05
-5.33374e-05
-5.46914e-05
-9.02948e-05
-7.08388e-05
-0.000100521
-4.4163e-05
-7.59414e-05
-5.10365e-05
0.000100347
-4.4845e-05
0.000123477
-3.2623e-05
0.000163285
-3.62105e-06
0.000235325
4.75868e-05
0.000319096
0.00011566
0.000340313
0.000172089
0.000312372
0.000185132
0.000238016
0.00016627
0.00015104
0.000143464
8.76327e-05
0.000122625
5.20074e-05
0.000101786
4.13154e-05
8.03333e-05
5.3443e-05
5.20814e-05
8.34389e-05
2.13149e-05
0.000109897
-2.49785e-06
0.000126788
-1.97764e-05
0.000140492
-3.56885e-05
0.00016166
-5.27944e-05
0.00018201
-6.61166e-05
0.000200669
-6.56458e-05
0.000204469
-8.20842e-05
0.000188597
-0.00011539
0.000189514
-0.000152213
0.000230527
-0.000152544
0.000233761
-0.000134721
0.000228032
-0.000102161
0.00020375
-9.09007e-05
0.000182667
-8.78595e-05
0.000198778
-8.51656e-05
0.000214407
-8.26802e-05
0.000225656
-8.1043e-05
0.000233506
-7.99541e-05
0.000237618
-7.95091e-05
0.000236275
-8.23114e-05
0.000231629
-9.5454e-05
0.000231169
-0.00012478
0.000239413
-0.000151958
0.00024777
-0.000158492
0.000248885
-0.000104884
0.000215191
-5.4892e-05
0.000138155
-8.26443e-05
-2.52607e-05
-0.000161312
-0.000239098
-0.000177515
-0.000378149
-7.60565e-05
-0.000281708
-3.02303e-05
-8.85491e-05
-1.20999e-05
-8.21988e-06
5.23876e-06
2.49061e-05
1.68411e-05
4.24084e-05
3.14011e-05
4.52196e-05
5.19048e-05
4.61711e-05
7.30088e-05
3.7161e-05
9.18398e-05
1.4134e-05
0.00010285
-1.6569e-05
0.00010951
-4.50462e-05
0.000132056
-7.14264e-05
0.000208703
-0.000134968
0.000245416
-0.00020521
0.000227839
-0.000221481
0.000192572
-0.00019233
0.000131625
-0.000143633
7.82549e-05
-8.27095e-05
5.78593e-05
-4.74706e-05
4.97239e-05
-3.07316e-05
4.62213e-05
-1.93211e-05
4.45931e-05
-9.87918e-06
4.34432e-05
-2.97791e-06
4.12146e-05
3.58428e-07
3.33361e-05
2.63935e-07
2.69216e-05
-2.84919e-06
2.45474e-05
-7.42697e-06
2.28388e-05
-1.25927e-05
2.12729e-05
-1.70755e-05
1.98024e-05
-2.00225e-05
1.89656e-05
-2.15964e-05
2.55237e-05
-2.64522e-05
4.01455e-05
-5.24287e-05
5.19939e-05
-9.15848e-05
5.22612e-05
-0.000138641
2.54728e-05
-0.00019743
-6.29777e-05
-0.000303434
-0.000206668
-0.00048453
-0.000298519
-0.000660367
-0.000270525
-0.000732007
-0.000218534
-0.00074265
-0.000165743
-0.000701542
-0.000110866
-0.000528807
-0.000115198
-0.000310066
-0.000138196
-0.000193683
-0.000152758
4.33212e-06
-0.000149259
0.000354966
-1.39546e-05
0.000771905
8.16367e-05
0.000887707
7.49639e-05
0.000854515
-5.76928e-05
0.00065327
-0.000122932
0.000445046
-0.000119216
0.000307195
-8.5972e-05
0.000197874
-4.64694e-05
0.000103878
-1.14569e-05
3.39374e-05
1.59753e-05
-2.5829e-05
2.02646e-05
-3.13865e-05
2.82003e-05
-2.84514e-05
4.85011e-05
-2.484e-05
7.34599e-05
-1.73924e-05
8.60001e-05
-7.31296e-06
7.70268e-05
-3.19949e-06
4.98317e-05
-5.50388e-06
1.24319e-05
-1.5674e-05
-2.67831e-05
-4.08883e-05
-6.04077e-05
-7.42175e-05
-7.91525e-05
-7.8793e-05
-1.93563e-05
-8.24823e-05
-5.15199e-05
0.000115788
-4.15745e-05
0.000133458
-2.34072e-05
0.000160303
7.36654e-06
0.000200692
5.76722e-05
0.000239446
0.00011325
0.000245622
0.000162239
0.000218716
0.000181953
0.000167557
0.000182664
0.000112441
0.000173558
7.16803e-05
0.000156602
4.93127e-05
0.000132186
4.55168e-05
0.000103944
6.61644e-05
6.18159e-05
0.000106697
1.96665e-05
0.000144367
-1.01975e-05
0.000173923
-2.8221e-05
0.000197531
-4.46116e-05
0.000216081
-5.83806e-05
0.000228841
-6.86756e-05
0.000240235
-6.70025e-05
0.000231074
-8.37015e-05
0.000216421
-0.000114476
0.000216588
-0.000158602
0.000256456
-0.000162152
0.000265768
-0.000147485
0.000257336
-0.000113234
0.000232247
-9.66321e-05
0.000188643
-9.32063e-05
0.000191698
-9.00825e-05
0.000201949
-8.6307e-05
0.000212111
-8.22159e-05
0.000221298
-7.83443e-05
0.000227347
-7.47449e-05
0.000227811
-7.36592e-05
0.000223653
-7.85455e-05
0.000218371
-9.02228e-05
0.000212463
-0.000107246
0.000210913
-0.000100096
0.000219901
-3.79814e-05
0.000198013
2.85173e-05
0.00014267
2.39985e-05
3.50303e-05
-6.72295e-05
-0.000156505
-0.000171332
-0.000333587
-0.000119248
-0.000295048
-4.36208e-05
-0.000142838
-1.93796e-05
-2.49109e-05
-1.61582e-07
1.43972e-05
1.67578e-05
3.53589e-05
3.28308e-05
3.80119e-05
5.35411e-05
3.36173e-05
7.45496e-05
1.98996e-05
9.14562e-05
-1.93973e-06
0.000101344
-2.67833e-05
0.000108794
-5.04735e-05
0.000129171
-7.4057e-05
0.000207312
-0.000133177
0.000249882
-0.000208471
0.000233851
-0.00023699
0.000196846
-0.000211026
0.000134672
-0.000160894
8.05994e-05
-9.24116e-05
5.91782e-05
-4.81351e-05
5.08587e-05
-2.82178e-05
4.76713e-05
-1.5988e-05
4.64843e-05
-6.67478e-06
4.56951e-05
-4.04364e-07
4.32866e-05
2.14747e-06
3.48037e-05
1.31309e-06
2.87645e-05
-1.9843e-06
2.60167e-05
-6.57876e-06
2.36178e-05
-1.1561e-05
2.14977e-05
-1.5883e-05
1.96707e-05
-1.88473e-05
1.82802e-05
-2.04603e-05
2.18388e-05
-2.38263e-05
3.42684e-05
-4.38644e-05
4.23947e-05
-7.91969e-05
3.51536e-05
-0.000125476
-7.38013e-06
-0.000189759
-0.000123648
-0.000307022
-0.000284689
-0.000490075
-0.000334442
-0.000627953
-0.000294485
-0.000681388
-0.000236834
-0.000685553
-0.0001718
-0.000609643
-0.000124229
-0.000391237
-0.0001458
-0.000275841
-0.000179177
-0.00017189
-0.000214016
3.25008e-05
-0.00020142
0.00036077
-8.93058e-05
0.000724505
2.00537e-05
0.000859999
4.97896e-05
0.000852838
-2.9127e-05
0.000665582
-8.90452e-05
0.000455719
-8.54372e-05
0.000303497
-5.3807e-05
0.000179255
-2.32517e-05
8.41443e-05
6.53664e-06
1.67155e-05
1.82793e-05
-2.43843e-05
1.98587e-05
-2.2676e-05
2.93993e-05
-2.12677e-05
4.70727e-05
-1.2202e-05
6.17376e-05
4.50267e-06
6.81759e-05
1.22571e-05
5.87457e-05
1.30065e-05
3.58831e-05
7.20663e-06
4.10878e-06
-3.60878e-06
-3.03077e-05
-2.65854e-05
-6.39083e-05
-5.54228e-05
-8.51578e-05
-5.26431e-05
4.8696e-06
-8.61877e-05
-4.70308e-05
0.000127493
-3.42053e-05
0.000139523
-1.41027e-05
0.000155126
1.63522e-05
0.000175179
5.97976e-05
0.000188571
0.00010782
0.000184087
0.00014969
0.000162387
0.000176838
0.000127393
0.000189684
9.23283e-05
0.000189384
6.62188e-05
0.000175154
5.30793e-05
0.00015444
5.88322e-05
0.000125084
9.1438e-05
7.38896e-05
0.000145009
1.95744e-05
0.000193692
-1.96655e-05
0.000230169
-4.15039e-05
0.000251613
-5.52567e-05
0.000262504
-6.59569e-05
0.000268579
-7.24619e-05
0.000269855
-6.87717e-05
0.000249255
-8.48114e-05
0.000240318
-0.000111839
0.000239964
-0.000159063
0.000274859
-0.000168065
0.000292574
-0.000163046
0.000280707
-0.000136081
0.000259062
-0.00010377
0.000213907
-9.70721e-05
0.000184001
-9.31013e-05
0.0001875
-8.86894e-05
0.000194666
-8.38749e-05
0.00020312
-7.78539e-05
0.000211484
-7.12754e-05
0.000214936
-6.58178e-05
0.000211287
-6.18993e-05
0.000202116
-6.04425e-05
0.000186867
-6.18552e-05
0.00017287
-4.22564e-05
0.000170354
2.4008e-06
0.000152693
4.50113e-05
0.000118954
4.80815e-05
5.31262e-05
-9.8368e-06
-0.000105716
-0.000128955
-0.000278186
-0.000123508
-0.000277805
-5.79206e-05
-0.000155257
-1.81542e-05
-4.99937e-05
-2.26673e-06
3.28972e-06
1.58949e-05
2.43727e-05
3.38802e-05
2.72271e-05
5.46501e-05
1.97742e-05
7.36101e-05
4.03714e-06
8.79774e-05
-1.5668e-05
9.7123e-05
-3.60096e-05
0.00010449
-5.53405e-05
0.000123713
-7.58923e-05
0.000198142
-0.000129096
0.000247207
-0.000210096
0.00023837
-0.000254843
0.00020284
-0.000240397
0.000145953
-0.000194873
8.86257e-05
-0.000122045
6.22026e-05
-5.64601e-05
5.24848e-05
-2.83869e-05
4.95229e-05
-1.39801e-05
4.86317e-05
-4.38463e-06
4.79503e-05
1.80505e-06
4.53798e-05
4.02522e-06
3.69769e-05
2.86919e-06
3.10262e-05
-5.77579e-07
2.75933e-05
-5.15412e-06
2.43357e-05
-9.9644e-06
2.16324e-05
-1.42377e-05
1.94589e-05
-1.73382e-05
1.77564e-05
-1.92069e-05
1.90544e-05
-2.26387e-05
2.78853e-05
-3.9745e-05
3.22377e-05
-7.30478e-05
1.74664e-05
-0.000118291
-4.86244e-05
-0.000187264
-0.000182279
-0.0003111
-0.000346919
-0.000487051
-0.000366017
-0.000597247
-0.000317856
-0.000634181
-0.000256947
-0.00062405
-0.000176321
-0.000512562
-0.00014721
-0.00029913
-0.000182943
-0.000227415
-0.000242843
-0.000135526
-0.000306936
6.06717e-05
-0.000253028
0.00036282
-0.000123427
0.000672388
-1.00275e-05
0.000821073
2.70903e-05
0.000805572
-1.43308e-05
0.00063436
-5.76754e-05
0.0004339
-5.4595e-05
0.000281432
-2.92363e-05
0.000148917
-2.90248e-06
5.80329e-05
1.99475e-05
-3.31328e-06
1.86643e-05
-1.7318e-05
1.79706e-05
-1.4716e-05
2.36907e-05
-5.00545e-06
3.19073e-05
9.01723e-06
4.29829e-05
1.98677e-05
4.83854e-05
2.44127e-05
4.17502e-05
2.44793e-05
2.40397e-05
1.94764e-05
-1.83871e-06
8.40374e-06
-3.27762e-05
-1.24594e-05
-6.66414e-05
-3.57555e-05
-8.75672e-05
-2.42038e-05
3.02242e-05
-8.65881e-05
-4.00035e-05
0.000136043
-2.56137e-05
0.000143992
-4.20515e-06
0.000151434
2.60078e-05
0.000159488
6.4175e-05
0.000159845
0.000105722
0.000150088
0.000143616
0.000130853
0.000172779
0.00010549
0.000190016
8.17481e-05
0.00019367
6.4888e-05
0.000185673
6.0882e-05
0.000173365
7.63698e-05
0.000144184
0.000118013
8.45038e-05
0.000176448
1.74328e-05
0.000230874
-3.07771e-05
0.000273124
-5.5164e-05
0.000294045
-6.69764e-05
0.000300308
-7.5067e-05
0.000301176
-7.59989e-05
0.000294332
-7.07719e-05
0.000264536
-8.45961e-05
0.000260335
-0.000107978
0.000259164
-0.000155367
0.000290812
-0.000168725
0.000310507
-0.000170447
0.00029281
-0.000158312
0.000272655
-0.000125343
0.000236935
-0.000100974
0.000193139
-9.53449e-05
0.00017463
-9.02105e-05
0.000177657
-8.41101e-05
0.000183936
-7.71604e-05
0.000190786
-6.84673e-05
0.000195593
-5.86026e-05
0.000193371
-4.8481e-05
0.000182681
-3.80372e-05
0.000162832
-2.66449e-05
0.000139723
-1.09728e-05
0.000117584
6.36141e-06
0.000103902
2.31515e-05
9.26783e-05
3.41055e-05
5.98563e-05
-3.43292e-06
-8.84779e-05
-0.000108703
-0.00023555
-0.00012147
-0.000246085
-6.34479e-05
-0.000155273
-1.75123e-05
-6.84267e-05
7.33744e-07
-9.26262e-06
1.81046e-05
1.16525e-05
3.57047e-05
1.40974e-05
5.40222e-05
4.99797e-06
7.0222e-05
-9.8941e-06
8.27721e-05
-2.68063e-05
9.14629e-05
-4.34932e-05
9.89881e-05