/*--------------------------------*- C++ -*----------------------------------*\
  =========                 |
  \\      /  F ield         | OpenFOAM: The Open Source CFD Toolbox
   \\    /   O peration     | Website:  https://openfoam.org
    \\  /    A nd           | Version:  10
     \\/     M anipulation  |
\*---------------------------------------------------------------------------*/
FoamFile
{
    format      ascii;
    class       volScalarField;
    location    "0.200576";
    object      rho;
}
// * * * * * * * * * * * * * * * * * * * * * * * * * * * * * * * * * * * * * //

dimensions      [1 -3 0 0 0 0 0];

internalField   nonuniform List<scalar> 
16320
(
0.627144
0.713463
0.921042
1.3935
1.10789
1.42514
2.05269
1.75205
1.26319
0.986178
0.771435
0.615012
0.486526
0.433207
0.428671
0.437338
0.455397
0.47681
0.489326
0.47687
0.404473
0.338946
0.338356
0.373089
0.393207
0.387642
0.380316
0.376443
0.385817
0.397665
0.409443
0.420551
0.430678
0.439874
0.447467
0.453009
0.459387
0.471841
0.531842
0.843494
1.23784
1.40857
1.37532
1.15588
0.898534
0.786489
0.708942
0.615056
0.476597
0.326451
0.253567
0.24077
0.287293
0.376993
0.386388
0.372748
0.425613
0.650374
0.785326
0.789097
0.728974
0.639027
0.497213
0.320058
0.198336
0.15286
0.133708
0.129164
0.128909
0.125203
0.108968
0.087943
0.0820387
0.0807699
0.0806287
0.0823719
0.0966934
0.17774
0.311872
0.467235
0.619683
0.801047
1.09982
1.56044
1.8469
2.03292
2.27304
2.44213
2.09021
1.61336
1.56247
1.70953
1.37049
0.969241
0.684385
0.589486
0.57318
0.641007
0.776391
0.862506
0.885277
0.913475
0.965585
1.16155
1.31254
1.40304
1.41595
1.31545
1.2596
1.28355
1.28353
1.19654
1.0611
0.492007
0.559054
0.684783
1.20211
1.16512
1.36669
1.8749
1.64018
1.22923
0.944828
0.747105
0.605707
0.469218
0.411652
0.405105
0.413732
0.437734
0.479295
0.500553
0.503684
0.445213
0.365596
0.365322
0.446224
0.494749
0.473106
0.414552
0.386854
0.388306
0.398017
0.408457
0.41792
0.426147
0.433391
0.438185
0.442746
0.459623
0.553026
1.02032
1.49287
1.68609
1.79393
1.59959
1.14895
0.619757
0.565883
0.59934
0.580146
0.482318
0.327903
0.254399
0.247346
0.314741
0.396048
0.397589
0.398648
0.474847
0.701363
0.823923
0.801507
0.728289
0.623876
0.4777
0.30531
0.192787
0.157303
0.143744
0.139811
0.135699
0.125911
0.10027
0.0849884
0.0810126
0.0802157
0.0802863
0.0824105
0.0976668
0.178246
0.306894
0.450001
0.588555
0.745643
0.998887
1.4333
1.84572
2.10005
2.37275
2.7129
2.65798
1.77353
1.65917
1.91274
1.55642
1.04823
0.716348
0.598801
0.573708
0.633576
0.738288
0.776249
0.775924
0.745539
0.782066
1.033
1.21034
1.36723
1.44017
1.42688
1.31542
1.3167
1.30121
1.18598
1.01337
0.446187
0.496133
0.572864
0.984797
1.19102
1.28284
1.68491
1.49602
1.1541
0.836057
0.648589
0.543826
0.439395
0.397097
0.39243
0.402695
0.422873
0.464786
0.506907
0.522147
0.478247
0.390295
0.391583
0.510098
0.57806
0.574343
0.498427
0.415902
0.392396
0.397456
0.40604
0.413703
0.420243
0.424633
0.427334
0.43603
0.491263
0.866781
1.4165
1.71354
1.85762
1.86606
1.57104
1.10289
0.617958
0.37282
0.440634
0.491154
0.439749
0.307869
0.251404
0.25915
0.352637
0.41459
0.419495
0.415443
0.508557
0.760022
0.847508
0.800488
0.716292
0.601596
0.444465
0.277781
0.185835
0.157256
0.147318
0.143253
0.137288
0.121556
0.0937442
0.0830528
0.0801804
0.0795922
0.0799004
0.082995
0.103026
0.184799
0.306145
0.43754
0.568637
0.721874
0.968893
1.36947
1.76922
2.06796
2.36612
2.72865
2.8147
2.34092
1.78966
1.96982
1.80906
1.19455
0.770739
0.617046
0.586
0.638653
0.697834
0.6996
0.642639
0.567569
0.579407
0.775344
1.01152
1.25464
1.38893
1.41895
1.3235
1.30115
1.25472
1.10792
0.921551
0.434728
0.461396
0.507251
0.841456
1.15226
1.19616
1.52626
1.40383
1.13835
0.842638
0.647893
0.553563
0.462337
0.417725
0.413269
0.421059
0.428854
0.453638
0.507512
0.539663
0.510068
0.415818
0.419845
0.564755
0.636259
0.636272
0.552276
0.435775
0.395926
0.396024
0.402556
0.408563
0.412715
0.414613
0.417241
0.44378
0.611292
1.08982
1.49766
1.68782
1.86088
1.76023
1.28254
0.913578
0.645379
0.321915
0.327882
0.362736
0.337125
0.263665
0.251288
0.294981
0.400693
0.441635
0.439547
0.414659
0.557889
0.796767
0.857586
0.79262
0.693685
0.550533
0.373321
0.227643
0.172143
0.15453
0.149995
0.146522
0.138352
0.115081
0.0898922
0.0817472
0.0794133
0.0789267
0.0795891
0.0848758
0.116899
0.202279
0.319005
0.44278
0.57214
0.730358
0.977626
1.34947
1.69067
1.91601
2.17824
2.44158
2.52398
2.65316
1.97947
1.90754
1.94824
1.39358
0.885944
0.670844
0.633352
0.666013
0.668029
0.647495
0.540869
0.478746
0.480384
0.540711
0.766545
1.0778
1.23932
1.28877
1.22527
1.18615
1.11557
0.978927
0.811863
0.432938
0.443427
0.479319
0.755151
1.09981
1.1116
1.35843
1.31665
1.11273
0.861448
0.668508
0.578031
0.504356
0.459522
0.446722
0.442514
0.425739
0.423919
0.500277
0.554946
0.534615
0.434146
0.440427
0.598826
0.669156
0.662942
0.567693
0.44072
0.398335
0.394966
0.398952
0.402472
0.404431
0.405135
0.412885
0.468684
0.70866
1.12129
1.4182
1.6183
1.82534
1.62091
1.15962
0.789537
0.573385
0.394433
0.254226
0.270648
0.261035
0.249302
0.265399
0.356645
0.430532
0.449632
0.419258
0.406536
0.596949
0.818327
0.857667
0.768554
0.644957
0.467367
0.27689
0.186249
0.158622
0.151605
0.149918
0.147083
0.137418
0.109075
0.0875064
0.0809587
0.078744
0.0782178
0.0792346
0.0893275
0.145554
0.240627
0.354518
0.473309
0.600504
0.776121
1.05232
1.37953
1.61515
1.74572
1.88048
1.97865
1.84877
1.86588
2.08207
1.87359
1.92659
1.57914
1.04071
0.761427
0.692993
0.667433
0.641609
0.565401
0.444765
0.42668
0.434461
0.466338
0.636657
0.921549
1.07093
1.10379
1.05247
1.01373
0.953161
0.854484
0.714098
0.424804
0.43293
0.471334
0.709968
1.03164
1.04143
1.19538
1.20807
1.04293
0.841295
0.658688
0.562815
0.5103
0.474226
0.457753
0.43517
0.400568
0.428763
0.515176
0.572714
0.552604
0.449121
0.457522
0.622899
0.693032
0.677837
0.562775
0.433355
0.399255
0.394471
0.395549
0.396721
0.397776
0.398893
0.413272
0.484517
0.71277
1.06911
1.32918
1.57244
1.78809
1.60743
1.35532
0.879752
0.494465
0.393185
0.249769
0.24146
0.242579
0.251423
0.29796
0.383812
0.429293
0.417928
0.363507
0.372155
0.605854
0.815969
0.837588
0.733228
0.58013
0.375998
0.216925
0.167664
0.153319
0.150386
0.149391
0.146854
0.134604
0.103648
0.0858848
0.0805061
0.0782152
0.0775807
0.0787712
0.093708
0.165195
0.270592
0.386467
0.505978
0.640381
0.854414
1.1543
1.43951
1.56844
1.61319
1.65635
1.45291
1.16333
1.18466
1.8145
1.7671
1.83176
1.6578
1.18939
0.863372
0.724155
0.660889
0.605382
0.492545
0.401323
0.385103
0.383381
0.415075
0.578594
0.83538
0.950337
0.948368
0.896258
0.867458
0.832407
0.774225
0.630325
0.416112
0.428413
0.479177
0.670235
0.938368
0.959732
1.05254
1.02313
0.878107
0.679515
0.511183
0.421382
0.401641
0.398311
0.397163
0.392206
0.40559
0.448865
0.535376
0.588773
0.561418
0.457416
0.468812
0.638088
0.705222
0.684244
0.5497
0.425158
0.39809
0.392708
0.39146
0.39172
0.392488
0.394373
0.409952
0.475513
0.683366
0.999412
1.25522
1.54919
1.72624
1.78684
1.95611
1.59679
0.642382
0.334553
0.277358
0.236459
0.239026
0.254088
0.301652
0.369049
0.379919
0.347592
0.329
0.350783
0.57108
0.791931
0.815396
0.700164
0.522335
0.310422
0.197893
0.161502
0.151576
0.150102
0.149364
0.146143
0.130803
0.0994797
0.0854462
0.0804887
0.0778008
0.0769327
0.0780306
0.0936333
0.168253
0.27583
0.393845
0.518278
0.679586
0.944411
1.25754
1.46812
1.53118
1.53681
1.42801
1.014
0.838595
0.938398
1.38448
1.58256
1.67247
1.66916
1.29677
0.94571
0.751992
0.643905
0.549645
0.426411
0.386882
0.355012
0.339376
0.381958
0.572695
0.790065
0.871348
0.849357
0.796586
0.772526
0.754829
0.714021
0.558185
0.408722
0.424314
0.468595
0.619146
0.812259
0.848004
0.855892
0.775567
0.621894
0.481456
0.39613
0.358223
0.352605
0.371759
0.386819
0.401847
0.426407
0.49197
0.567848
0.600509
0.555799
0.453315
0.469826
0.641133
0.715718
0.695878
0.555302
0.422962
0.395028
0.388987
0.386066
0.385445
0.385927
0.388468
0.403189
0.462128
0.624183
0.871608
1.18686
1.48097
1.61522
1.69984
1.98945
2.06382
1.28294
0.442984
0.280933
0.245006
0.239852
0.252245
0.289123
0.321783
0.32223
0.313616
0.311074
0.335604
0.541455
0.780363
0.815926
0.696286
0.510438
0.300155
0.194602
0.160168
0.150697
0.1496
0.149088
0.145166
0.128247
0.0976361
0.0859306
0.0809014
0.0775661
0.0763399
0.0771094
0.0919281
0.165342
0.272777
0.393423
0.528572
0.723842
1.02559
1.32608
1.46335
1.4891
1.42322
1.13818
0.748253
0.747302
0.846706
1.12582
1.45702
1.53194
1.61878
1.3472
0.998601
0.774745
0.615278
0.491488
0.400291
0.372933
0.310501
0.320767
0.389848
0.603846
0.773874
0.811161
0.777161
0.72934
0.703718
0.702744
0.672127
0.500531
0.40089
0.413005
0.447077
0.528543
0.618405
0.652817
0.624986
0.554879
0.467581
0.401714
0.363181
0.347683
0.360782
0.391831
0.410071
0.431519
0.483666
0.553316
0.594879
0.601866
0.529309
0.441084
0.460259
0.626246
0.721511
0.712894
0.581279
0.426463
0.389476
0.380492
0.378575
0.378797
0.379903
0.382953
0.396022
0.441879
0.541737
0.721879
1.05434
1.3234
1.43784
1.54059
1.84214
2.0644
1.7026
0.826305
0.339127
0.285934
0.262901
0.265228
0.288374
0.307419
0.310226
0.306933
0.307936
0.331404
0.531654
0.772699
0.825773
0.705938
0.519127
0.308166
0.197602
0.160894
0.150465
0.148777
0.147454
0.142888
0.125485
0.0972407
0.08726
0.0816612
0.077452
0.0758073
0.0760948
0.086335
0.149028
0.251163
0.372332
0.519996
0.748507
1.07935
1.34237
1.44478
1.44735
1.30341
0.900308
0.692266
0.741904
0.909387
1.11359
1.3694
1.39792
1.53832
1.34785
1.02846
0.786563
0.59894
0.443086
0.388445
0.338395
0.280941
0.311498
0.465881
0.663826
0.758384
0.758378
0.717038
0.672923
0.647223
0.654598
0.623813
0.439516
0.391622
0.398009
0.412888
0.44354
0.476751
0.485942
0.472845
0.439297
0.4005
0.371172
0.353011
0.351
0.389208
0.446555
0.48108
0.5087
0.551666
0.588832
0.604489
0.587435
0.491454
0.426502
0.446397
0.597513
0.716837
0.728433
0.636865
0.463174
0.383653
0.369135
0.36493
0.367583
0.372043
0.376788
0.388027
0.415745
0.469928
0.581071
0.848739
1.04383
1.15873
1.236
1.69772
1.92295
1.70804
1.0784
0.502106
0.319376
0.303308
0.303116
0.309573
0.313355
0.310706
0.306206
0.306494
0.329753
0.517483
0.760283
0.841074
0.736191
0.566709
0.359452
0.2179
0.166578
0.150897
0.146849
0.144321
0.139117
0.123138
0.0984537
0.0894019
0.0825988
0.0773936
0.0753877
0.0753609
0.0819339
0.129828
0.222729
0.341274
0.502961
0.761558
1.11463
1.35247
1.4344
1.41174
1.18932
0.758025
0.682758
0.773683
1.04927
1.27365
1.39889
1.43894
1.49634
1.30512
1.03321
0.79421
0.574732
0.429504
0.386538
0.284092
0.274285
0.372004
0.589753
0.701315
0.724055
0.699416
0.658711
0.624127
0.603847
0.610944
0.571065
0.374112
0.382153
0.385714
0.391882
0.402227
0.412173
0.412659
0.40586
0.390185
0.373164
0.359273
0.351596
0.363943
0.427812
0.499584
0.541751
0.566243
0.59117
0.60491
0.60403
0.563102
0.460077
0.41307
0.433262
0.572276
0.711748
0.730281
0.669782
0.538692
0.399873
0.360237
0.352771
0.352238
0.358191
0.36618
0.37402
0.388483
0.4118
0.459234
0.590977
0.721292
0.813939
1.01843
1.64566
1.81509
1.58207
1.06189
0.622892
0.347133
0.31417
0.313896
0.313747
0.311077
0.306707
0.303322
0.305383
0.3282
0.490193
0.728657
0.845612
0.80968
0.684801
0.498836
0.290339
0.186459
0.15545
0.146862
0.142823
0.136664
0.122543
0.101632
0.0926329
0.0837277
0.0773635
0.0750547
0.0749506
0.0810435
0.126473
0.218383
0.339454
0.515805
0.804802
1.16543
1.36735
1.43266
1.38159
1.09271
0.709231
0.684262
0.792945
1.10221
1.34689
1.45611
1.49487
1.4948
1.30206
1.04633
0.797705
0.563269
0.430723
0.344767
0.261427
0.303447
0.507455
0.649031
0.697563
0.691131
0.657725
0.618942
0.588152
0.570205
0.565923
0.506763
0.321894
0.373235
0.375703
0.37977
0.383295
0.385678
0.384405
0.379652
0.372333
0.363819
0.357668
0.35998
0.383118
0.458295
0.527422
0.566981
0.588972
0.605094
0.608934
0.597368
0.54632
0.440986
0.402956
0.422426
0.556446
0.700721
0.730644
0.698178
0.605189
0.476205
0.370578
0.343574
0.339777
0.341701
0.347962
0.354389
0.361232
0.368207
0.382139
0.413659
0.449639
0.599967
1.00241
1.68133
1.71466
1.44457
0.983864
0.630055
0.375761
0.315635
0.309186
0.306795
0.304379
0.30244
0.300615
0.303061
0.321619
0.431517
0.646733
0.808344
0.852974
0.791602
0.664322
0.455787
0.248103
0.170947
0.150879
0.144448
0.137526
0.123667
0.107245
0.096939
0.0850045
0.077309
0.074813
0.074917
0.0822716
0.131387
0.224108
0.346823
0.531081
0.84012
1.20836
1.38672
1.43356
1.36093
1.05578
0.6907
0.666846
0.737706
1.01179
1.3519
1.49392
1.54079
1.49716
1.30235
1.05087
0.787744
0.563419
0.402284
0.289287
0.283719
0.410142
0.574967
0.660173
0.680109
0.662458
0.625987
0.588589
0.558721
0.539678
0.524769
0.428025
0.278347
0.365521
0.367473
0.370688
0.372788
0.373029
0.371376
0.368723
0.365832
0.362024
0.364815
0.375922
0.407572
0.477619
0.529839
0.557324
0.577332
0.594739
0.599519
0.584307
0.530706
0.427495
0.392332
0.413414
0.569015
0.744479
0.774657
0.745874
0.662857
0.547612
0.419199
0.343884
0.331075
0.330798
0.333003
0.336609
0.339619
0.33996
0.340648
0.345467
0.37903
0.595054
1.20646
1.63183
1.62394
1.46172
1.05102
0.636848
0.385951
0.315194
0.302035
0.300024
0.299736
0.299124
0.296844
0.297895
0.308061
0.351557
0.504983
0.70402
0.839734
0.836089
0.752716
0.61811
0.388302
0.212241
0.162035
0.148075
0.140148
0.125746
0.11445
0.102059
0.0859553
0.0770836
0.0746542
0.0753952
0.087745
0.150315
0.24796
0.372616
0.565601
0.881103
1.23727
1.40183
1.43866
1.35315
1.04818
0.685342
0.654581
0.694762
0.833787
1.18056
1.40478
1.48746
1.45321
1.27274
0.985267
0.724087
0.490299
0.3425
0.298278
0.326439
0.464869
0.58697
0.646495
0.656287
0.635366
0.599933
0.565399
0.53551
0.50847
0.476254
0.360038
0.26702
0.358174
0.361273
0.363568
0.364561
0.364347
0.363001
0.362138
0.361786
0.365065
0.379055
0.399233
0.436038
0.490309
0.518538
0.530886
0.546187
0.563992
0.573194
0.563816
0.518907
0.427033
0.395447
0.414731
0.565053
0.758625
0.799778
0.780815
0.72769
0.623889
0.494829
0.372065
0.329733
0.324669
0.325435
0.325677
0.325658
0.324269
0.322206
0.327463
0.380552
0.758641
1.42861
1.51208
1.53052
1.60793
1.48171
0.927852
0.451977
0.321814
0.29891
0.29662
0.296819
0.295276
0.292119
0.290404
0.294292
0.305842
0.367858
0.550006
0.766294
0.847827
0.797303
0.712203
0.546177
0.306917
0.186533
0.155952
0.144222
0.13072
0.121012
0.106268
0.0863253
0.0767321
0.0745371
0.0765709
0.10437
0.186106
0.291449
0.418411
0.615292
0.922866
1.2693
1.41712
1.44028
1.34601
1.05595
0.684218
0.635765
0.653684
0.718988
0.897601
1.11783
1.1992
1.13988
0.996199
0.748869
0.541938
0.389305
0.332111
0.32484
0.398102
0.516415
0.604028
0.630298
0.625687
0.602925
0.570222
0.537878
0.50811
0.467024
0.420835
0.30741
0.267573
0.351147
0.354836
0.357088
0.35758
0.356704
0.355816
0.356443
0.358594
0.367415
0.391264
0.424873
0.463421
0.49603
0.497999
0.495922
0.507089
0.526833
0.540516
0.539682
0.508178
0.43208
0.39451
0.404339
0.522307
0.708204
0.779222
0.780917
0.762925
0.704531
0.603692
0.471451
0.355621
0.327869
0.322654
0.320924
0.318975
0.316612
0.315382
0.325647
0.455086
0.907714
1.34592
1.38876
1.41832
1.52779
1.63729
1.39838
0.783908
0.381416
0.31093
0.30065
0.29706
0.292345
0.287347
0.283021
0.282136
0.287984
0.311495
0.430772
0.660618
0.821327
0.825595
0.754618
0.653456
0.435419
0.233379
0.170921
0.150287
0.139438
0.12892
0.110525
0.0861264
0.0762361
0.0744309
0.0786961
0.121266
0.20731
0.309269
0.435531
0.62929
0.928766
1.28248
1.42176
1.43671
1.33536
1.06884
0.695189
0.621196
0.608073
0.609935
0.654625
0.734241
0.764772
0.713786
0.613495
0.484201
0.395378
0.348879
0.337406
0.364654
0.469665
0.585073
0.627883
0.618904
0.600729
0.57365
0.539958
0.505899
0.464663
0.425389
0.379248
0.284162
0.272306
0.34446
0.348491
0.350767
0.350684
0.349495
0.348901
0.349997
0.353451
0.366432
0.399765
0.444072
0.483008
0.493675
0.473876
0.460214
0.466526
0.486905
0.504921
0.510642
0.491272
0.43081
0.388074
0.388685
0.461321
0.62357
0.710836
0.739524
0.742635
0.737016
0.693755
0.600258
0.470737
0.363433
0.330063
0.320757
0.314443
0.310968
0.31071
0.331242
0.503713
0.881329
1.1909
1.25938
1.32011
1.41865
1.58811
1.55889
1.08271
0.559203
0.364771
0.321249
0.304596
0.292719
0.284456
0.278464
0.275089
0.279735
0.293557
0.390378
0.5973
0.770755
0.831685
0.783517
0.708143
0.54344
0.299655
0.190524
0.159791
0.148506
0.136741
0.112955
0.0849527
0.0757361
0.0743587
0.0803145
0.126758
0.211262
0.310553
0.437323
0.628154
0.913168
1.26125
1.40242
1.41995
1.3221
1.05969
0.699633
0.617034
0.595478
0.548853
0.520688
0.496969
0.47463
0.443201
0.405757
0.367728
0.345052
0.336759
0.346072
0.404894
0.523305
0.649611
0.650009
0.605646
0.572071
0.540341
0.504844
0.468341
0.424361
0.391149
0.346124
0.277713
0.283681
0.338138
0.341874
0.343311
0.342683
0.341625
0.341034
0.342015
0.346011
0.360352
0.398654
0.451657
0.489826
0.483009
0.45137
0.430485
0.431923
0.450328
0.470624
0.481013
0.471154
0.423704
0.375477
0.368959
0.404532
0.51258
0.622011
0.663792
0.678978
0.699437
0.708234
0.677571
0.59295
0.473729
0.366668
0.326499
0.312999
0.30707
0.307726
0.33131
0.485846
0.800746
1.01943
1.05018
1.18365
1.32107
1.49311
1.54598
1.16301
0.731841
0.480472
0.372394
0.324393
0.298226
0.283831
0.275966
0.270089
0.268354
0.277852
0.356561
0.563191
0.735741
0.813794
0.789545
0.732996
0.614574
0.378187
0.220312
0.177233
0.161793
0.144186
0.111288
0.0829852
0.0752908
0.0741952
0.0807566
0.126881
0.209632
0.306384
0.433275
0.613502
0.876227
1.21826
1.36806
1.39448
1.29857
1.03654
0.690294
0.610783
0.584875
0.519144
0.449141
0.396044
0.368314
0.35352
0.341481
0.332593
0.328419
0.333228
0.357728
0.422134
0.557119
0.711581
0.689982
0.610191
0.558625
0.52464
0.487679
0.448432
0.406524
0.374474
0.33009
0.281299
0.302531
0.331713
0.3344
0.334911
0.33461
0.333433
0.33261
0.333125
0.336129
0.349132
0.384794
0.444193
0.482463
0.469387
0.433648
0.408397
0.404666
0.419472
0.440688
0.454737
0.452544
0.416006
0.363107
0.349689
0.361043
0.40705
0.496369
0.565685
0.599542
0.627603
0.654079
0.667403
0.645417
0.5678
0.460049
0.353959
0.31498
0.304246
0.302043
0.319619
0.41472
0.64901
0.832793
0.835281
1.06052
1.27256
1.41769
1.45869
1.1044
0.789433
0.579076
0.437951
0.353986
0.308992
0.286309
0.275041
0.268158
0.263372
0.26493
0.296898
0.483305
0.694899
0.794749
0.77746
0.727509
0.642943
0.442068
0.250055
0.188992
0.169783
0.146666
0.105937
0.0808481
0.0750554
0.074109
0.0806557
0.12305
0.198773
0.284593
0.408359
0.570522
0.814114
1.15262
1.31853
1.35979
1.26835
1.00215
0.674463
0.600116
0.570496
0.485333
0.39126
0.348898
0.330231
0.32602
0.32336
0.321733
0.323766
0.332086
0.355893
0.413245
0.547562
0.748111
0.760646
0.65159
0.572446
0.528853
0.484261
0.437913
0.398842
0.367
0.328891
0.308972
0.347503
0.324978
0.326043
0.325829
0.325845
0.324135
0.323166
0.323156
0.325195
0.334356
0.362276
0.421308
0.465073
0.457664
0.421882
0.391651
0.381304
0.3909
0.411561
0.430436
0.435996
0.414509
0.363772
0.336993
0.331103
0.344065
0.377163
0.42553
0.47114
0.518342
0.56981
0.606132
0.617412
0.593164
0.531441
0.429091
0.337401
0.30599
0.298062
0.307168
0.343897
0.442511
0.58489
0.65568
1.09805
1.27643
1.36803
1.28594
0.963909
0.787949
0.621559
0.470972
0.373843
0.319429
0.290518
0.275637
0.267359
0.261364
0.259131
0.272077
0.397237
0.624232
0.759487
0.747882
0.694119
0.620577
0.475803
0.280374
0.205966
0.180209
0.145598
0.0980291
0.0793595
0.0750991
0.074182
0.079443
0.108414
0.172463
0.255014
0.376316
0.533758
0.775419
1.08984
1.26912
1.32141
1.23
0.954933
0.654061
0.592185
0.55328
0.442362
0.352186
0.322735
0.316351
0.315995
0.315878
0.317383
0.320232
0.327364
0.343532
0.384915
0.490986
0.709486
0.832378
0.729754
0.62146
0.558541
0.505992
0.457557
0.427775
0.391635
0.360166
0.36561
0.415788
0.317226
0.316533
0.317158
0.317132
0.315027
0.313625
0.3127
0.313533
0.319496
0.337913
0.389866
0.443161
0.446254
0.411814
0.374608
0.356042
0.359831
0.379157
0.403151
0.419516
0.413457
0.376154
0.334598
0.316364
0.315801
0.325216
0.346821
0.373572
0.402754
0.450137
0.505282
0.552421
0.56464
0.549441
0.490822
0.404885
0.330885
0.305312
0.299106
0.313
0.367335
0.524145
0.760722
1.26024
1.33039
1.35104
1.21497
0.938067
0.810754
0.654069
0.49387
0.3877
0.329084
0.296027
0.277602
0.267583
0.261001
0.256482
0.259986
0.323481
0.530393
0.70644
0.723957
0.659792
0.573227
0.470054
0.31233
0.236104
0.191296
0.135092
0.0913342
0.0788336
0.075427
0.0744393
0.0774997
0.0966228
0.163019
0.249796
0.370736
0.524952
0.755026
1.04029
1.23102
1.28922
1.19252
0.905049
0.642706
0.589405
0.53425
0.402183
0.329293
0.309126
0.309114
0.310108
0.311721
0.313821
0.316869
0.321466
0.332071
0.357222
0.423043
0.589266
0.813492
0.818102
0.684907
0.601174
0.542445
0.494499
0.471151
0.444594
0.421875
0.421752
0.476861
0.308618
0.307452
0.30825
0.307539
0.305517
0.303235
0.300982
0.300416
0.30513
0.318474
0.35671
0.415405
0.430773
0.396351
0.352286
0.326147
0.324297
0.342004
0.370744
0.399005
0.410854
0.391293
0.350862
0.31887
0.30648
0.309845
0.320888
0.338129
0.35793
0.390023
0.436423
0.485215
0.527384
0.539964
0.518385
0.460517
0.372634
0.313391
0.296655
0.305841
0.366847
0.575463
1.0828
1.33484
1.36638
1.37538
1.32174
1.12792
0.958171
0.745878
0.541194
0.413317
0.343101
0.304446
0.281441
0.269087
0.261708
0.256423
0.255649
0.282659
0.451064
0.647892
0.696598
0.651098
0.53507
0.444773
0.322842
0.251129
0.192134
0.121004
0.0880811
0.0794367
0.0761765
0.0748654
0.0771683
0.0950979
0.162853
0.251387
0.372388
0.524762
0.749419
1.00865
1.19354
1.26603
1.16065
0.861126
0.634927
0.586773
0.51958
0.375766
0.316112
0.301448
0.303117
0.305873
0.308224
0.311051
0.313496
0.316934
0.32418
0.340317
0.379599
0.49832
0.717176
0.842223
0.740899
0.615249
0.549851
0.51044
0.494072
0.48374
0.48048
0.489536
0.53138
0.299583
0.298992
0.299339
0.297892
0.295137
0.291775
0.288402
0.286128
0.289845
0.302934
0.331899
0.383199
0.405146
0.371961
0.325867
0.295919
0.289833
0.304762
0.335987
0.374806
0.4049
0.403491
0.37668
0.339561
0.317185
0.308999
0.31566
0.329361
0.345316
0.372459
0.413765
0.459451
0.503961
0.527335
0.531647
0.492227
0.39366
0.315283
0.295537
0.306127
0.386792
0.744829
1.2285
1.36717
1.41949
1.48003
1.49728
1.32983
1.06696
0.843725
0.621431
0.458276
0.368004
0.318417
0.288453
0.272406
0.26351
0.25742
0.254531
0.266768
0.393204
0.590701
0.663668
0.634668
0.515971
0.420398
0.322515
0.254691
0.178165
0.10913
0.0872636
0.0809173
0.0773564
0.0755781
0.0774515
0.0959308
0.166705
0.26187
0.385335
0.541172
0.763581
0.988587
1.15733
1.23623
1.12776
0.826177
0.632508
0.587361
0.508597
0.365581
0.308209
0.295614
0.29796
0.301109
0.304338
0.307143
0.309851
0.313357
0.318834
0.330489
0.354635
0.427867
0.614583
0.788555
0.758033
0.628357
0.54986
0.514053
0.502444
0.502024
0.51595
0.543503
0.585498
0.290974
0.290192
0.289819
0.287502
0.283854
0.279579
0.275085
0.271117
0.273184
0.286878
0.314426
0.352533
0.371852
0.341751
0.298876
0.270534
0.262795
0.273513
0.303332
0.348526
0.395338
0.411662
0.398242
0.368364
0.343761
0.329845
0.324698
0.33153
0.344401
0.369441
0.407761
0.450121
0.494332
0.52873
0.542402
0.501285
0.393652
0.314023
0.296237
0.313603
0.43967
0.897928
1.26957
1.39844
1.46068
1.52892
1.53477
1.36534
1.07632
0.86043
0.665712
0.50204
0.395745
0.335207
0.298524
0.277828
0.266562
0.259597
0.254895
0.261425
0.367542
0.55366
0.626093
0.603478
0.502602
0.394118
0.317733
0.244843
0.154949
0.103045
0.0887303
0.0832696
0.0790209
0.0765963
0.0781362
0.100027
0.179508
0.284299
0.407193
0.560858
0.771744
0.968242
1.11983
1.19884
1.09266
0.79723
0.629593
0.587548
0.501738
0.360466
0.302459
0.291451
0.293395
0.2965
0.299999
0.303065
0.30584
0.308983
0.314077
0.323014
0.342087
0.385561
0.524639
0.704909
0.746522
0.616871
0.536723
0.511902
0.504908
0.507908
0.528614
0.56998
0.62321
0.281137
0.28069
0.27969
0.276782
0.271941
0.267
0.262067
0.256664
0.256242
0.26832
0.29514
0.327243
0.337238
0.312385
0.277205
0.253641
0.245816
0.252496
0.277085
0.323512
0.382479
0.417908
0.415024
0.39423
0.371225
0.355783
0.346118
0.346253
0.355575
0.381058
0.421021
0.463906
0.506365
0.538538
0.545717
0.495501
0.387199
0.313909
0.302159
0.344166
0.616757
1.06163
1.29899
1.43433
1.51536
1.58846
1.56658
1.33151
1.01313
0.837056
0.672814
0.527382
0.418904
0.351862
0.309052
0.283255
0.270056
0.262462
0.256797
0.261444
0.350615
0.531964
0.600062
0.576164
0.493212
0.368957
0.297588
0.219231
0.13649
0.101235
0.0922981
0.0868649
0.0810323
0.0779196
0.0801915
0.113555
0.193107
0.294036
0.415679
0.567434
0.7702
0.94439
1.07677
1.15226
1.0488
0.758695
0.623074
0.586252
0.503648
0.363768
0.299207
0.287396
0.289354
0.293508
0.29856
0.301662
0.303869
0.30602
0.309478
0.31672
0.330688
0.36369
0.461771
0.62198
0.710809
0.607809
0.504981
0.489185
0.503297
0.511507
0.533236
0.577246
0.639047
0.271284
0.271389
0.270588
0.268051
0.261704
0.255307
0.250315
0.243611
0.240475
0.246634
0.269384
0.30277
0.312386
0.291462
0.263809
0.24495
0.237194
0.240608
0.258341
0.301869
0.367412
0.420415
0.429787
0.417505
0.397031
0.377576
0.362429
0.357382
0.363922
0.391
0.432105
0.474719
0.512751
0.541007
0.540924
0.485104
0.371618
0.315309
0.325535
0.459757
0.802243
1.13355
1.33522
1.48797
1.57729
1.62755
1.50151
1.11931
0.879027
0.766769
0.661847
0.543755
0.441597
0.364933
0.313604
0.286419
0.273326
0.265715
0.259861
0.263789
0.339765
0.521392
0.587402
0.559463
0.476106
0.352726
0.273704
0.191257
0.126271
0.102111
0.0960106
0.0911116
0.0830185
0.0794195
0.0841751
0.12088
0.197414
0.299221
0.419853
0.569438
0.763873
0.919542
1.036
1.10301
1.00679
0.735607
0.614432
0.580422
0.505562
0.368125
0.295658
0.282962
0.286026
0.294081
0.303325
0.308157
0.30996
0.308456
0.309338
0.312979
0.323728
0.348013
0.428422
0.568033
0.666343
0.596289
0.489531
0.445264
0.468646
0.498602
0.526422
0.572383
0.637578
0.263311
0.265821
0.267381
0.262847
0.254523
0.24549
0.240104
0.232337
0.226557
0.227013
0.240756
0.272985
0.293783
0.279002
0.256688
0.241815
0.234212
0.235194
0.247557
0.284793
0.35241
0.42105
0.441403
0.434739
0.414964
0.394146
0.376541
0.366434
0.368867
0.396911
0.439218
0.477832
0.5115
0.536716
0.530764
0.460797
0.343581
0.313813
0.352981
0.574106
0.903482
1.16235
1.36811
1.56841
1.66115
1.6706
1.45951
1.06401
0.848165
0.74102
0.664308
0.576518
0.463059
0.368353
0.312927
0.287042
0.275809
0.268888
0.263891
0.268768
0.334882
0.524775
0.615076
0.584477
0.483547
0.347727
0.258886
0.174231
0.122039
0.105781
0.103024
0.0967174
0.0847719
0.0809961
0.0870364
0.122905
0.197667
0.294645
0.408402
0.553229
0.738431
0.879893
0.981025
1.03944
0.948251
0.70698
0.603802
0.570285
0.496916
0.363329
0.290249
0.279523
0.285241
0.303513
0.322946
0.33219
0.334189
0.325074
0.315456
0.314328
0.318978
0.33667
0.3996
0.533217
0.631945
0.582557
0.476811
0.422917
0.419907
0.448401
0.482705
0.531577
0.608906
0.257866
0.268551
0.273343
0.263625
0.248799
0.237756
0.230839
0.222283
0.214834
0.210897
0.215629
0.240868
0.275348
0.273423
0.25497
0.241201
0.23396
0.233439
0.242395
0.27258
0.338675
0.419304
0.45108
0.447783
0.429241
0.406876
0.388536
0.375801
0.375087
0.401077
0.443005
0.476595
0.506017
0.52832
0.516682
0.42624
0.323113
0.310041
0.366625
0.621993
0.924525
1.1364
1.43745
1.64265
1.72899
1.71334
1.46039
1.04722
0.827784
0.719591
0.667761
0.592951
0.465358
0.36281
0.307598
0.286739
0.278608
0.272961
0.269826
0.277873
0.346102
0.530156
0.630486
0.604221
0.497425
0.349522
0.249547
0.165221
0.1218
0.112169
0.110823
0.100716
0.08585
0.0822557
0.0880207
0.120727
0.188182
0.274677
0.375895
0.512517
0.692364
0.833278
0.924051
0.97581
0.889794
0.676554
0.591778
0.556859
0.48517
0.357267
0.286143
0.277435
0.287521
0.325868
0.36995
0.390023
0.392786
0.373657
0.343037
0.32327
0.320029
0.326963
0.364252
0.492539
0.597575
0.570296
0.473717
0.410734
0.394799
0.404592
0.430048
0.463605
0.531701
0.259613
0.276423
0.287051
0.270485
0.24513
0.231209
0.222146
0.213438
0.205027
0.198812
0.197907
0.210651
0.250055
0.268738
0.256869
0.243485
0.235769
0.234063
0.24078
0.265602
0.327855
0.416553
0.459403
0.458357
0.440621
0.418897
0.399932
0.388158
0.386614
0.406795
0.44506
0.473793
0.498183
0.517566
0.499355
0.400598
0.30916
0.30435
0.366582
0.617884
0.890445
1.14437
1.51244
1.68223
1.76682
1.73605
1.45434
1.01927
0.784934
0.697397
0.654374
0.582395
0.454428
0.347203
0.301015
0.287356
0.282708
0.279729
0.280144
0.294962
0.377759
0.546607
0.653213
0.629614
0.518722
0.35629
0.24386
0.160744
0.125089
0.120361
0.121762
0.104419
0.0860361
0.0821879
0.08755
0.110967
0.167455
0.23909
0.328221
0.458864
0.638164
0.78151
0.864881
0.915582
0.843108
0.653686
0.578846
0.545488
0.475818
0.355136
0.284307
0.277388
0.293484
0.367367
0.449661
0.488043
0.494267
0.465823
0.406719
0.356839
0.326994
0.322711
0.333962
0.421054
0.545171
0.555405
0.478888
0.409582
0.383372
0.380082
0.393149
0.41676
0.457279
0.269629
0.293345
0.308967
0.283458
0.245969
0.225375
0.214739
0.20621
0.197198
0.190476
0.187071
0.192178
0.220178
0.259542
0.259168
0.246874
0.238706
0.235957
0.241199
0.261863
0.319111
0.413886
0.468116
0.469341
0.450979
0.430345
0.412768
0.404186
0.402799
0.416624
0.448529
0.470216
0.48746
0.501249
0.478867
0.381501
0.29717
0.294145
0.354502
0.571421
0.844365
1.16747
1.5562
1.70393
1.7862
1.70895
1.32548
0.876415
0.700861
0.653838
0.624798
0.55973
0.427001
0.331375
0.296531
0.289451
0.289656
0.291451
0.295981
0.323506
0.422278
0.555155
0.669809
0.656456
0.552609
0.370405
0.240284
0.160705
0.134566
0.135762
0.134416
0.103866
0.0848378
0.0812762
0.0841186
0.0983833
0.140979
0.201911
0.284188
0.414412
0.592351
0.73228
0.808953
0.856594
0.794959
0.630008
0.5633
0.535289
0.476764
0.363638
0.285951
0.279006
0.303317
0.39821
0.476692
0.52329
0.545714
0.548015
0.50964
0.429347
0.359058
0.322959
0.319187
0.345405
0.467297
0.528019
0.488781
0.420133
0.38049
0.367857
0.370832
0.38579
0.411137
0.285792
0.323951
0.360569
0.337739
0.262778
0.223827
0.209731
0.200538
0.191706
0.185336
0.180937
0.180889
0.194504
0.241268
0.258387
0.250572
0.242175
0.238579
0.242974
0.260893
0.314087
0.41061
0.476985
0.480649
0.461133
0.439477
0.426329
0.420766
0.424147
0.436087
0.454336
0.469644
0.478542
0.479786
0.455267
0.363571
0.286276
0.282934
0.332671
0.51777
0.833762
1.26802
1.58477
1.7047
1.76675
1.56148
1.01761
0.704356
0.637814
0.622868
0.60034
0.534811
0.405033
0.321365
0.296038
0.293304