/*--------------------------------*- C++ -*----------------------------------*\
  =========                 |
  \\      /  F ield         | OpenFOAM: The Open Source CFD Toolbox
   \\    /   O peration     | Website:  https://openfoam.org
    \\  /    A nd           | Version:  10
     \\/     M anipulation  |
\*---------------------------------------------------------------------------*/
FoamFile
{
    format      ascii;
    class       volScalarField;
    location    "0.200576";
    object      T;
}
// * * * * * * * * * * * * * * * * * * * * * * * * * * * * * * * * * * * * * //

dimensions      [0 0 0 1 0 0 0];

internalField   nonuniform List<scalar> 
16320
(
0.00510613
0.0047087
0.00376221
0.00261075
0.00333913
0.00269048
0.00186715
0.00178382
0.00176596
0.00178006
0.00199599
0.0023451
0.00288821
0.00321723
0.00328722
0.00329405
0.00324676
0.00319617
0.00320261
0.00337849
0.00409183
0.00496774
0.00508907
0.0047581
0.00467274
0.00496355
0.00530844
0.00559409
0.00567799
0.00571563
0.00574415
0.00577407
0.00580675
0.00583715
0.00587299
0.0059223
0.00595735
0.00591874
0.00537342
0.00351461
0.00247556
0.00223525
0.00244288
0.00308718
0.00411936
0.00469521
0.00516029
0.0058541
0.00739368
0.0105501
0.0133062
0.0136433
0.0111402
0.00797597
0.00711714
0.00674155
0.00539751
0.00322934
0.00237718
0.00211881
0.00211012
0.00224146
0.00273674
0.00415814
0.00674381
0.00875696
0.00997046
0.0102356
0.0101414
0.0103114
0.0116906
0.0143599
0.0152999
0.0154589
0.0154046
0.0149857
0.012611
0.00686044
0.00385724
0.00254951
0.00196978
0.00172521
0.00175803
0.0018456
0.001888
0.00195233
0.00202676
0.00214932
0.0026629
0.00348277
0.0036251
0.0030942
0.00301982
0.0032235
0.00355871
0.00354919
0.00327388
0.00276021
0.00224129
0.00201696
0.00197688
0.00198916
0.00198838
0.00174711
0.00163941
0.00161324
0.00166361
0.001841
0.0019624
0.00192663
0.00185947
0.0018171
0.00181023
0.00634631
0.00577043
0.00485701
0.00288822
0.00307021
0.00266307
0.00190372
0.00186214
0.00187804
0.00192656
0.00212302
0.00243838
0.00305037
0.00344613
0.00354119
0.00355625
0.00346244
0.00327
0.00322283
0.00329504
0.00382995
0.00472424
0.00481916
0.00405578
0.00377978
0.00412864
0.00492589
0.0054894
0.00567136
0.00572186
0.00574939
0.00577798
0.0058076
0.00582971
0.00585953
0.0058769
0.0057372
0.00483684
0.00265415
0.00181845
0.0016269
0.0016202
0.00203677
0.00302463
0.00572947
0.00627332
0.00591842
0.00610987
0.00730121
0.0105408
0.0133905
0.013419
0.010335
0.00771093
0.00703244
0.00640733
0.00488545
0.00298414
0.0022345
0.00204268
0.00205358
0.0022095
0.00272445
0.00416779
0.00664404
0.00816727
0.00893366
0.00915246
0.00936756
0.0100187
0.0124682
0.0146393
0.0152879
0.0153704
0.0152811
0.0147972
0.0123349
0.00672561
0.00382474
0.00254117
0.00196558
0.00171318
0.00172436
0.00184005
0.00192461
0.0019834
0.00207892
0.00214444
0.00232655
0.00344801
0.00377361
0.00318149
0.00310982
0.00321582
0.00348171
0.00349682
0.00324241
0.00277011
0.00233423
0.00220311
0.00222094
0.00238125
0.0024027
0.00192516
0.00175343
0.00165672
0.00165889
0.00175393
0.00194644
0.00194467
0.00186603
0.00180047
0.00180568
0.00688745
0.00635704
0.00564305
0.00338327
0.00286493
0.00267536
0.0019672
0.00196684
0.00204626
0.00224751
0.00250125
0.00276683
0.00332057
0.00364121
0.00373296
0.00374438
0.00369131
0.00346851
0.00328128
0.00327616
0.0036758
0.00456623
0.00465885
0.00368154
0.00332645
0.00347184
0.00416188
0.00517305
0.00564959
0.00573923
0.00576561
0.00578813
0.00580424
0.00581678
0.00582126
0.00572929
0.00509993
0.00282918
0.00169272
0.00138543
0.00132345
0.0014766
0.00200021
0.0030539
0.00558598
0.00937721
0.00787883
0.00709426
0.0079583
0.0112245
0.0136122
0.0129028
0.0093085
0.0074482
0.00676643
0.00623273
0.0046378
0.00277097
0.0021657
0.00202809
0.0020486
0.00223359
0.00284635
0.00445901
0.00668343
0.00791464
0.00845136
0.00868279
0.00903399
0.0101658
0.0131097
0.0147593
0.0152359
0.0152884
0.0151564
0.0145068
0.0115805
0.00637032
0.00374924
0.00254174
0.00197752
0.00172672
0.00171391
0.00182661
0.0019288
0.00199442
0.00209729
0.0021845
0.00228523
0.00281459
0.00369267
0.003332
0.00317736
0.00323789
0.00343801
0.00343834
0.00317338
0.00272588
0.00243294
0.00239878
0.00263292
0.00306944
0.00314555
0.00246038
0.00200217
0.00173834
0.00169233
0.00175419
0.00192828
0.00193932
0.00184241
0.00177518
0.00182135
0.00695926
0.00669152
0.00620656
0.00381358
0.00283115
0.002723
0.00204484
0.00199861
0.00207389
0.0022842
0.00257745
0.00279416
0.0032395
0.00355561
0.00365735
0.00371513
0.00377885
0.00367962
0.00339544
0.00330517
0.00361397
0.00447648
0.00452599
0.00346403
0.00313025
0.00322617
0.00383788
0.00500789
0.0056399
0.00576604
0.00578784
0.00579648
0.00579947
0.00579395
0.00574838
0.00537933
0.00383048
0.00206411
0.00146048
0.0012976
0.00127586
0.00156238
0.0024573
0.00366747
0.00529877
0.0106856
0.010467
0.00952489
0.0103034
0.0130833
0.0136199
0.0114334
0.00818487
0.00702321
0.00652779
0.00632477
0.00435394
0.00268536
0.00215453
0.00204939
0.00210032
0.00240723
0.00334353
0.00538076
0.00708095
0.00787504
0.00811131
0.00830019
0.00878111
0.0105328
0.0134668
0.0147824
0.0151732
0.0152101
0.0150067
0.01398
0.0100806
0.00571992
0.0035097
0.00244957
0.00194232
0.00171232
0.00171324
0.00181685
0.001906
0.00195854
0.00204861
0.00224852
0.00242712
0.00241858
0.00325991
0.00341411
0.00322787
0.00326455
0.00334268
0.00328261
0.00296238
0.00261032
0.00250328
0.00254595
0.0030601
0.00355136
0.00365367
0.00334542
0.00246627
0.00185912
0.00172911
0.00176563
0.00189508
0.00188916
0.00177634
0.00173302
0.00185221
0.0068669
0.00681171
0.00639472
0.0041051
0.00284789
0.00280938
0.0022083
0.00207581
0.00213066
0.00231382
0.00261684
0.00281406
0.00312595
0.00340933
0.00356913
0.00373034
0.00399129
0.00409966
0.00357618
0.00334501
0.00359261
0.0044671
0.0044969
0.00340909
0.00309731
0.00320748
0.00384063
0.00503618
0.0056502
0.00578547
0.005802
0.00580061
0.00578882
0.00576078
0.00560334
0.00487587
0.00311562
0.00189488
0.00147149
0.00132857
0.00130609
0.00171315
0.00273601
0.00426844
0.00598708
0.00870309
0.0134929
0.0127092
0.0132223
0.0138114
0.0128512
0.00944238
0.00757897
0.00688047
0.00687305
0.00652596
0.00419581
0.00267861
0.0021914
0.00213508
0.00225886
0.0028197
0.00449356
0.00656276
0.00761362
0.0079201
0.00798861
0.00813405
0.00869962
0.0109353
0.0136374
0.0147235
0.0150965
0.0151408
0.0148594
0.0130718
0.00797446
0.00470108
0.00307247
0.00226478
0.00185943
0.00170305
0.00173416
0.00182413
0.0018861
0.00192245
0.00203156
0.00237774
0.00286796
0.00296394
0.00282564
0.00333024
0.00321167
0.00320162
0.0031805
0.00305762
0.00275079
0.00259535
0.00257451
0.00286974
0.00363386
0.00386943
0.00387766
0.00368439
0.00276599
0.00195432
0.00174251
0.0017537
0.00183577
0.00179823
0.00170174
0.00170939
0.00192807
0.00685728
0.00681058
0.00631866
0.00421734
0.00292588
0.00289255
0.00245314
0.00225189
0.00230634
0.0024974
0.00287441
0.00315394
0.0033657
0.00359286
0.00376166
0.00404234
0.00447736
0.00421368
0.00359202
0.00335425
0.00360739
0.00448529
0.00450093
0.00341215
0.00311196
0.00324945
0.00397314
0.00519219
0.00567779
0.00578829
0.00580111
0.00579398
0.00576201
0.00569489
0.00542274
0.0045457
0.00298369
0.00193459
0.00154024
0.00135986
0.00132625
0.00170407
0.00231064
0.00381571
0.00691802
0.00869736
0.013688
0.0141687
0.0141126
0.0135717
0.0113586
0.00867055
0.00750813
0.00733485
0.00790897
0.00718433
0.00424174
0.00276828
0.00229695
0.00228079
0.00252334
0.00350015
0.00577618
0.00729724
0.00785138
0.00792823
0.00793732
0.0080529
0.00877486
0.0113534
0.0137142
0.0146145
0.0149998
0.0150616
0.0147407
0.0122805
0.00691683
0.00411292
0.00277748
0.00212667
0.00181579
0.00171365
0.00178026
0.00183578
0.0018574
0.00191034
0.00207674
0.00280954
0.00388052
0.00404243
0.00280693
0.00318265
0.00319566
0.00308856
0.00299292
0.00283089
0.00268009
0.00261556
0.00270035
0.00324399
0.00395563
0.00416536
0.00423442
0.00394553
0.00284829
0.00197161
0.00173357
0.00172934
0.00177072
0.00172048
0.00166542
0.00170824
0.00208182
0.00684725
0.00671681
0.00604844
0.00432704
0.00310879
0.00303485
0.00271656
0.00263878
0.00279406
0.00323172
0.00395771
0.00453624
0.00459902
0.00458641
0.0046246
0.0047418
0.00459841
0.00416529
0.00355861
0.00335686
0.00365936
0.0045435
0.00453483
0.00344323
0.00316094
0.00332056
0.00417174
0.00536667
0.00572538
0.00579984
0.00580463
0.0057789
0.0057252
0.00563057
0.00533254
0.00451451
0.00305248
0.00204959
0.00161931
0.0013558
0.00130782
0.00143079
0.00152352
0.00208919
0.00530288
0.01015
0.0122477
0.0143458
0.0141651
0.0132618
0.0110585
0.00886661
0.00832379
0.00870114
0.00871751
0.00770986
0.0045669
0.00292877
0.00241778
0.00243068
0.00280915
0.0042209
0.00637689
0.00759921
0.00794153
0.00791795
0.00789141
0.00802764
0.00895024
0.0117011
0.0136282
0.0144426
0.0148909
0.0149888
0.0146737
0.0121119
0.00667232
0.00396201
0.00269989
0.00209309
0.00181456
0.00176027
0.00183482
0.0018485
0.00185293
0.00192827
0.00228853
0.00360592
0.00470533
0.00446816
0.0031702
0.00307297
0.00315144
0.00295156
0.00279162
0.00265951
0.00261626
0.00268157
0.00295066
0.003698
0.00406508
0.00442002
0.00464441
0.00411854
0.00272746
0.00194071
0.00171782
0.00169975
0.00172236
0.00168618
0.00166558
0.00175
0.00230966
0.0068133
0.00661848
0.0060251
0.00455737
0.00350014
0.00334283
0.00325753
0.00342964
0.0039633
0.00477469
0.00544735
0.00573411
0.00563179
0.00525641
0.00501787
0.00483126
0.00451257
0.00390232
0.0034424
0.00336693
0.00377491
0.00468638
0.00462628
0.00350381
0.0031841
0.00332105
0.00418149
0.00542924
0.00577461
0.00582061
0.00581985
0.00578561
0.00572675
0.00561973
0.00533327
0.00456797
0.00330152
0.00233101
0.0016968
0.00137485
0.00130942
0.00134773
0.00132015
0.00148819
0.00259986
0.00757781
0.0119321
0.0136793
0.013917
0.0131528
0.0113355
0.0099656
0.00966485
0.00955711
0.00920181
0.00808837
0.00485894
0.00304322
0.00247409
0.00249061
0.00291086
0.00439904
0.00652531
0.00768833
0.00799926
0.00793921
0.00788181
0.00803922
0.00906662
0.0118229
0.0134232
0.0142159
0.0147631
0.014916
0.0146475
0.0121557
0.00669988
0.00396043
0.0027038
0.00211345
0.00187134
0.00184166
0.00188975
0.00187106
0.00188732
0.002061
0.00281849
0.00453458
0.00483666
0.00450264
0.00354129
0.00293763
0.00306842
0.00279973
0.00263731
0.0025382
0.00255232
0.00281084
0.0032991
0.00392346
0.00417739
0.00498822
0.00479789
0.00390224
0.00246777
0.00186484
0.00170775
0.00168917
0.00170206
0.00169366
0.00168089
0.00180216
0.00256068
0.00678482
0.00663951
0.00615612
0.00518805
0.00443619
0.00418334
0.00432295
0.00471993
0.00533049
0.0058743
0.0061702
0.00615639
0.00578243
0.00516374
0.00485586
0.00459774
0.00408898
0.00355593
0.00335447
0.00340792
0.00400708
0.00487276
0.00478058
0.00361835
0.00320425
0.00328052
0.00402122
0.00536902
0.00582724
0.00589131
0.00586308
0.00580893
0.00574065
0.00563261
0.00537012
0.00472983
0.00378837
0.00279667
0.00188894
0.0014945
0.0013887
0.00136476
0.00128042
0.00133905
0.00184489
0.0039513
0.00970232
0.0115445
0.0124858
0.0122954
0.0111625
0.0102611
0.00989956
0.00966445
0.00924705
0.00818814
0.00496915
0.00312363
0.00249511
0.00250034
0.00290014
0.00431593
0.00645015
0.00767125
0.0080229
0.00798835
0.00796238
0.00814347
0.0092175
0.0118041
0.0131208
0.0139568
0.0146331
0.014849
0.0146563
0.0127658
0.00737167
0.00428554
0.00289438
0.00225358
0.00199581
0.00194576
0.00193905
0.00190287
0.00194304
0.00226607
0.0035262
0.00477442
0.00464954
0.00395231
0.00339535
0.00290606
0.00300035
0.00265933
0.00252318
0.00245497
0.00252926
0.0029082
0.00369003
0.00407557
0.00459706
0.00546934
0.00485637
0.00317756
0.00215008
0.00180013
0.00170196
0.00169105
0.00170821
0.00172958
0.00173228
0.00191284
0.0029301
0.00677585
0.00671961
0.00650022
0.00605698
0.00564579
0.00552803
0.00562071
0.00590208
0.00624161
0.00645115
0.0064738
0.00626904
0.0055266
0.00466365
0.00425091
0.00399202
0.00364884
0.00340282
0.0033442
0.00351348
0.00432007
0.00505234
0.00495044
0.00378437
0.00324414
0.00321476
0.00365955
0.00491497
0.00582032
0.00598123
0.00598766
0.00590321
0.00579786
0.00567374
0.00544132
0.00500086
0.00434623
0.00344957
0.00231619
0.0018508
0.00167034
0.00161492
0.00129032
0.00130819
0.00171161
0.00287555
0.00637809
0.0100677
0.0105869
0.010534
0.0101947
0.00988452
0.00971744
0.0095565
0.0092047
0.00819815
0.00509768
0.00320196
0.00249771
0.0024254
0.00269183
0.00371663
0.00584216
0.00741427
0.00800716
0.0081035
0.00814229
0.00835917
0.00936535
0.0116193
0.0127353
0.0136975
0.0145171
0.0147853
0.0146414
0.0133104
0.00835106
0.00479344
0.00318118
0.00243351
0.00210208
0.00201312
0.00195884
0.00192754
0.00202119
0.00255393
0.00416595
0.00480778
0.0043937
0.00340239
0.00296205
0.00281237
0.00277835
0.00252704
0.00247098
0.00244423
0.00255458
0.00311572
0.0039206
0.00420893
0.00556137
0.00559941
0.00402316
0.00244952
0.0019507
0.00177798
0.0017221
0.00171462
0.00173293
0.00177109
0.00180522
0.0020712
0.00341453
0.00676569
0.00676214
0.00668766
0.00654592
0.00640908
0.00639598
0.00645144
0.00658684
0.00669517
0.00670336
0.0065918
0.00613481
0.00506649
0.00416739
0.00376758
0.00359617
0.00342716
0.00333749
0.00335979
0.00366525
0.00459661
0.00519761
0.00507868
0.0039235
0.00324621
0.0031734
0.00341058
0.00414983
0.00544015
0.00598923
0.00608346
0.00606632
0.00594209
0.00578379
0.00560959
0.00532487
0.00493924
0.00435244
0.00331569
0.0026774
0.00237923
0.00194709
0.00128038
0.00130678
0.0017264
0.00276204
0.0049389
0.0089575
0.00993698
0.00990587
0.00980833
0.00972751
0.00964686
0.00948976
0.00912667
0.00818165
0.00534033
0.00334885
0.00252577
0.00223923
0.00226315
0.00271417
0.00430677
0.00660549
0.00778349
0.00811928
0.0082465
0.00852152
0.00940447
0.011242
0.0122423
0.0134343
0.0144193
0.0147305
0.0145945
0.0133557
0.00853176
0.00489881
0.00324499
0.00246805
0.0021242
0.00202815
0.00195909
0.00193718
0.00210361
0.00284472
0.00448204
0.00484644
0.0043367
0.00328511
0.00283817
0.00272697
0.00269258
0.00254467
0.00250594
0.00249733
0.00270759
0.00342734
0.00421093
0.00502242
0.0062437
0.0051413
0.00292639
0.00215458
0.00188578
0.00178193
0.00174299
0.0017373
0.00175531
0.00181506
0.00191231
0.00231964
0.00392431
0.00674255
0.00676125
0.00673363
0.00671795
0.00671335
0.00673917
0.00679165
0.00683926
0.00683986
0.00675535
0.00647224
0.00583676
0.00465962
0.00383974
0.00348941
0.00338235
0.00331845
0.00330275
0.00338499
0.00375518
0.00473571
0.00525321
0.00511235
0.0039237
0.00319258
0.00306077
0.00313648
0.00355035
0.00448074
0.00566452
0.00609323
0.0061706
0.0061448
0.00602446
0.00587896
0.0057028
0.00551551
0.00523557
0.00476987
0.00434621
0.00325765
0.00196021
0.00121145
0.00131644
0.00177979
0.00284535
0.00469023
0.00802131
0.00959757
0.00978061
0.00977339
0.00970718
0.00957822
0.0094051
0.00906305
0.00826343
0.00597695
0.00375563
0.00269005
0.00218096
0.00199735
0.00209342
0.00276859
0.00488866
0.00709202
0.00793758
0.00819274
0.00849894
0.00933799
0.0106548
0.0116662
0.0131713
0.014345
0.0146758
0.0144883
0.0130544
0.00814318
0.00473812
0.00318115
0.00243337
0.00211505
0.00201554
0.00194458
0.001939
0.00215058
0.00297981
0.00465044
0.00503394
0.00473874
0.00359619
0.00288594
0.00273243
0.00269404
0.00263438
0.00264368
0.00274572
0.0031401
0.00397772
0.00514974
0.00658851
0.0061455
0.00390173
0.00255079
0.00206529
0.00187364
0.00179097
0.00176058
0.00176276
0.00179841
0.00187754
0.00204298
0.00272675
0.00441293
0.00669572
0.00672639
0.00672574
0.0067497
0.00679482
0.00684569
0.00687957
0.00687639
0.00683072
0.00661112
0.00617381
0.00540704
0.0043131
0.00359065
0.00329337
0.00322296
0.00322205
0.00325855
0.00337446
0.0037529
0.00471843
0.0052096
0.00503719
0.00371642
0.00290236
0.00275981
0.00278199
0.00307533
0.00370568
0.00485874
0.00591127
0.00619025
0.00624235
0.00622147
0.00614141
0.0060406
0.00596529
0.00587478
0.00572139
0.0051647
0.00327033
0.001606
0.0011808
0.00127954
0.00163039
0.00254357
0.00449049
0.00759217
0.00936222
0.00976512
0.00975765
0.00963852
0.00948593
0.00934829
0.00907109
0.00850786
0.00719319
0.00476387
0.00313475
0.00228197
0.00193795
0.00186947
0.00208107
0.00312046
0.00569006
0.00744821
0.00805441
0.00839445
0.00922568
0.00999851
0.0110646
0.0129787
0.0143154
0.014615
0.0142915
0.0121487
0.00703011
0.0042162
0.00292816
0.00228967
0.00205356
0.00199822
0.0019292
0.00193277
0.00216646
0.00301272
0.00471154
0.00514872
0.0050576
0.0043653
0.00326412
0.00288868
0.00281499
0.00285154
0.00297732
0.00337762
0.00402027
0.00534297
0.00696208
0.00721259
0.00592039
0.00361175
0.0025088
0.00207216
0.00189049
0.00181311
0.0017857
0.00179315
0.00184433
0.00197061
0.00223075
0.00321821
0.00452207
0.00664039
0.0066528
0.00668564
0.00673669
0.00679972
0.00685993
0.00687416
0.00684847
0.00670196
0.00631062
0.00574148
0.00492385
0.00398547
0.00338385
0.00313931
0.00309437
0.00312185
0.00318081
0.00331836
0.00367837
0.0045506
0.0049697
0.00479093
0.00351772
0.00265637
0.00247318
0.00246424
0.0026143
0.0030534
0.00391816
0.00530699
0.0060647
0.00622978
0.00627182
0.00628148
0.00625535
0.00622387
0.00618478
0.0060035
0.00510457
0.00254612
0.00130396
0.00116993
0.0012092
0.00133837
0.00170767
0.00299481
0.00632761
0.00897813
0.00966266
0.00966743
0.00953915
0.00942681
0.00933118
0.0091518
0.00876121
0.00813312
0.00645863
0.00404154
0.00259054
0.00198294
0.00180351
0.00184336
0.00227296
0.0039138
0.00652254
0.00774315
0.0082417
0.00893853
0.00948598
0.0106281
0.0128922
0.0143208
0.0145501
0.0139672
0.0101512
0.00560012
0.00353046
0.00256701
0.00210005
0.00197445
0.00195921
0.00190547
0.00192324
0.00216286
0.00297149
0.00471452
0.00527868
0.00532909
0.00502176
0.004144
0.00348742
0.00332458
0.00347413
0.00376284
0.00458507
0.00579796
0.00738107
0.00796543
0.00746476
0.00546439
0.00349186
0.0024816
0.00210193
0.00194293
0.00187004
0.00184442
0.00185787
0.00192672
0.00213088
0.00251347
0.00371189
0.00449089
0.00657863
0.00658571
0.00662612
0.00669831
0.00678123
0.00684118
0.00683808
0.00677646
0.00654111
0.00600557
0.00527253
0.00445772
0.00368707
0.00321083
0.00301112
0.00298244
0.00302954
0.00310284
0.00322447
0.00352536
0.00424089
0.00469003
0.00461539
0.00355177
0.00260989
0.00229478
0.00223195
0.00226605
0.00249906
0.00302846
0.00403514
0.00545467
0.00604732
0.00621188
0.00627462
0.00630482
0.00629926
0.0062397
0.00594193
0.00423249
0.00205971
0.0012979
0.00117808
0.00118531
0.00124353
0.00140398
0.00191282
0.00359169
0.00745704
0.00913491
0.00937402
0.0093652
0.00936004
0.00933451
0.00924817
0.00900981
0.00852684
0.00753526
0.00518477
0.00308735
0.0021409
0.00181142
0.00178415
0.00195242
0.00283115
0.00523695
0.0071683
0.00803057
0.00846804
0.00895814
0.0102335
0.0129029
0.0143644
0.0144837
0.0134871
0.00866822
0.00494947
0.00326266
0.00242284
0.00203256
0.00194966
0.00193574
0.00188705
0.00190632
0.00214286
0.00287497
0.00458915
0.00534823
0.00565817
0.00580086
0.00551042
0.00495651
0.00476347
0.00505063
0.0056837
0.00683495
0.00794092
0.008553
0.00838692
0.00734396
0.00516955
0.00337109
0.00247318
0.0021392
0.00200019
0.00194018
0.00192915
0.00195924
0.00208731
0.00231239
0.00276445
0.00393339
0.00440846
0.00650936
0.00651488
0.00655981
0.00664624
0.00673952
0.00679724
0.00678667
0.00670094
0.00638839
0.00570782
0.00486377
0.0040597
0.00343284
0.00306549
0.00290333
0.00288773
0.00294443
0.00303072
0.00315191
0.00340573
0.0039933
0.00447179
0.00449029
0.00370771
0.0026699
0.00222899
0.0020909
0.00207051
0.00215711
0.00242729
0.0029859
0.00400226
0.0053317
0.00596053
0.00616352
0.00626801
0.00627981
0.00619232
0.00569876
0.00371208
0.0020134
0.00136573
0.00122161
0.00118943
0.00122197
0.00132632
0.00163098
0.00252674
0.00498841
0.0076699
0.00864251
0.00899822
0.00921337
0.00929851
0.00927775
0.00913597
0.00870105
0.00796386
0.00575022
0.00348282
0.00237266
0.00189616
0.00178978
0.00187046
0.00236573
0.00413682
0.00656121
0.00771213
0.00806511
0.00852144
0.010036
0.0130912
0.0144256
0.0144139
0.0131152
0.00820814
0.00479504
0.00321126
0.00239551
0.00202207
0.00194553
0.00193087
0.00188313
0.00189861
0.00212368
0.00283102
0.00447242
0.00527568
0.00564381
0.00627123
0.00670165
0.00704891
0.0073602
0.00779483
0.0083196
0.00890055
0.00917416
0.00909603
0.00857047
0.00709251
0.00510434
0.00339179
0.00253282
0.00222018
0.00210059
0.00205621
0.00205859
0.00209921
0.00225176
0.00246837
0.00297685
0.0039332
0.00422065
0.00643088
0.0064441
0.00650614
0.00660239
0.00669113
0.00674446
0.00673016
0.00661998
0.00625799
0.00547822
0.00454065
0.00375693
0.00325096
0.00295605
0.00281428
0.00280353
0.00286515
0.00296074
0.00308446
0.00330294
0.00378797
0.00430547
0.00438968
0.00389419
0.00289933
0.00227913
0.00207068
0.00201323
0.00202201
0.00213632
0.00242689
0.00299097
0.00394284
0.00522623
0.00590843
0.00613891
0.0061884
0.00606599
0.00549304
0.00368535
0.00210768
0.00152013
0.00141275
0.0012824
0.00124679
0.00130843
0.00156426
0.00228275
0.00373662
0.00572486
0.00735083
0.00834297
0.00893346
0.00921099
0.00926463
0.00921682
0.00900132
0.00840058
0.00630928
0.00376968
0.00258784
0.00205184
0.00188217
0.00190183
0.00219595
0.00337847
0.00582684
0.00713252
0.00753406
0.00818051
0.0102395
0.0134336
0.0144924
0.0143766
0.0129424
0.00811212
0.00477837
0.0032302
0.00241391
0.00205656
0.00197047
0.00193094
0.00188506
0.00189599
0.00211814
0.0028279
0.00442361
0.00519433
0.00558593
0.00643201
0.00752347
0.00855315
0.00921061
0.00953583
0.00973189
0.00979517
0.0096978
0.00935299
0.00854906
0.00710281
0.00516184
0.00349074
0.00263534
0.00229433
0.00217425
0.00212798
0.00212723
0.00215772
0.00229315
0.00250698
0.00304536
0.00380649
0.00393892
0.00634997
0.00638121
0.00645816
0.00654258
0.00662587
0.00667233
0.00665175
0.00653219
0.00615076
0.00535538
0.00433258
0.00357023
0.00314091
0.00288983
0.00275133
0.00272759
0.00278267
0.00288103
0.00300723
0.00319679
0.00359483
0.00413823
0.00428507
0.00400505
0.00332519
0.00255642
0.0021951
0.00206904
0.00203841
0.00207605
0.0022161
0.00252458
0.00310353
0.00400123
0.00526575
0.00590646
0.0060407
0.0059652
0.00548621
0.00408751
0.00249306
0.00181619
0.00175847
0.00141749
0.00126421
0.00131207
0.00157084
0.00231904
0.00337633
0.00466901
0.00617033
0.00756779
0.00853955
0.00904826
0.00922036
0.00922465
0.00913556
0.0088103
0.00755158
0.00449202
0.0028675
0.00223219
0.00204553
0.00204233
0.00220864
0.00305193
0.00526858
0.00686222
0.00732429
0.00816789
0.0108399
0.013849
0.0145373
0.0143378
0.0128632
0.00827409
0.00499372
0.00346327
0.00256461
0.00218991
0.00203326
0.00194004
0.00189867
0.00190333
0.0021267
0.00286019
0.00441271
0.00513995
0.00555933
0.00667569
0.00837539
0.00945952
0.0100306
0.0101347
0.0101298
0.0100483
0.00983537
0.00945061
0.00872155
0.00743958
0.00550934
0.00372083
0.00275516
0.00233483
0.00218621
0.00213665
0.00212809
0.0021454
0.00225552
0.00246402
0.00295634
0.00340954
0.00343143
0.00626924
0.00632432
0.00640831
0.00647589
0.00655655
0.00658894
0.00655461
0.00641381
0.0060557
0.00532375
0.00427182
0.00349744
0.00308857
0.00285683
0.00271187
0.00265976
0.00269581
0.00278842
0.00290833
0.0030732
0.00335862
0.00386053
0.00410975
0.00402385
0.00365305
0.00313351
0.00267161
0.0023957
0.00224278
0.00217878
0.00222958
0.00240188
0.00274992
0.00328247
0.00417233
0.00531108
0.00579667
0.00583352
0.00550874
0.00474567
0.00353233
0.00256993
0.00223415
0.00136499
0.00124535
0.00131893
0.00168323
0.00253982
0.00329216
0.00427779
0.0056744
0.00710648
0.00820443
0.00886138
0.00915072
0.00921898
0.00918539
0.00900623
0.00828139
0.00553093
0.00331751
0.00247242
0.00226443
0.0022804
0.00241227
0.00300952
0.00486261
0.00646559
0.00704452
0.00836009
0.0118547
0.014206
0.0145508
0.0142863
0.0129806
0.00929718
0.00570374
0.00383792
0.00276308
0.00229827
0.00205181
0.00193978
0.00190782
0.00191872
0.00215594
0.00294024
0.00443157
0.00506887
0.00557536
0.00712602
0.00905989
0.00997675
0.0102313
0.0102441
0.0102028
0.0100727
0.0098855
0.00958712
0.00908353
0.00807788
0.00628911
0.00422069
0.00300278
0.00240959
0.00214914
0.00205131
0.00200279
0.00198945
0.0020345
0.00223222
0.00261775
0.00285505
0.00288168
0.00620063
0.00627835
0.00633411
0.00638709
0.00645688
0.00647611
0.00642791
0.00627052
0.00593371
0.00532927
0.0043339
0.00351548
0.00308553
0.00283926
0.0026784
0.00259156
0.00259832
0.0026773
0.00279381
0.00293611
0.00314273
0.00350108
0.00386101
0.00394818
0.00375528
0.00347323
0.00316447
0.00291435
0.00273726
0.00254187
0.00243674
0.0024657
0.00267351
0.00298519
0.0034859
0.0042682
0.00518153
0.00552084
0.00549789
0.00509994
0.0042044
0.00284845
0.00192788
0.00118092
0.00117937
0.00129317
0.00169035
0.00250329
0.00312029
0.00400456
0.00536662
0.00681283
0.0079339
0.00866785
0.00906187
0.00919708
0.00919756
0.00911677
0.00874073
0.00681809
0.00398019
0.00277512
0.00245161
0.00252858
0.00273943
0.00321452
0.00455621
0.00580435
0.00677338
0.0091034
0.0129324
0.0144363
0.0145327
0.0142184
0.0132386
0.0103517
0.0060129
0.00392066
0.00280125
0.00230913
0.00202452
0.00190678
0.00189174
0.00192502
0.00219033
0.00303994
0.00441037
0.00496858
0.00562985
0.00764349
0.00945141
0.0101655
0.0102297
0.0102215
0.0101573
0.0100475
0.00989899
0.00971711
0.00938948
0.00872713
0.00736161
0.00522907
0.0035169
0.0026266
0.00220469
0.00194025
0.00180237
0.00176419
0.00177616
0.00189701
0.00217799
0.00245959
0.00253284
0.00614078
0.00621317
0.00624877
0.0062956
0.00634031
0.00634852
0.00629096
0.0061289
0.0057964
0.0052897
0.00447262
0.00360691
0.00310703
0.00281744
0.00262727
0.00251223
0.00249147
0.0025533
0.00266969
0.00280869
0.00296592
0.00318434
0.00351543
0.0037268
0.00371808
0.00353565
0.00333072
0.00313814
0.00299497
0.00283484
0.00268633
0.00263116
0.00268067
0.00286942
0.00316233
0.00362381
0.00446931
0.00524427
0.00543275
0.00514431
0.00417838
0.00258916
0.00135237
0.00110902
0.00112949
0.00122068
0.00145577
0.00197421
0.0025743
0.00347069
0.00486927
0.00637142
0.0075999
0.00841855
0.00893205
0.00914695
0.00918972
0.00914433
0.00892562
0.00776497
0.00476067
0.00312365
0.00264161
0.0026881
0.00302706
0.00351506
0.004592
0.00560783
0.00690554
0.0103464
0.013628
0.0144763
0.0144529
0.014133
0.0132445
0.0104631
0.00597979
0.00387337
0.00277547
0.00227564
0.00197596
0.00186219
0.00185275
0.0019149
0.00221596
0.00313156
0.00437446
0.00488073
0.00565674
0.00798951
0.00960616
0.0101742
0.0101935
0.0101463
0.0100842
0.00998725
0.00989473
0.00978046
0.00957072
0.00914083
0.00820223
0.00623623
0.00421793
0.00306614
0.00237934
0.00196918
0.00173015
0.00166078
0.00165501
0.0017081
0.00187286
0.00212423
0.00230916
0.00608253
0.00612517
0.00614919
0.00618752
0.00622066
0.00621518
0.00615001
0.00599642
0.00568055
0.0052024
0.0045427
0.00372425
0.00313252
0.00277195
0.00254513
0.00241794
0.00238212
0.00242741
0.00254249
0.00269584
0.00284443
0.0029863
0.00318334
0.00342456
0.00353082
0.00348261
0.00332781
0.00316779
0.00304365
0.00289683
0.00273882
0.00266351
0.00267327
0.00281114
0.00298086
0.00330237
0.00413979
0.00512422
0.00538648
0.00510428
0.0039524
0.00199725
0.00119072
0.00107628
0.00107475
0.00111046
0.00124018
0.00160915
0.00227126
0.00305472
0.00422982
0.00574127
0.00709016
0.00805543
0.00872312
0.00904911
0.0091482
0.00912802
0.00897163
0.00823792
0.00550581
0.00350932
0.00285569
0.00283504
0.0032067
0.00379807
0.00472014
0.00562447
0.00756735
0.0117131
0.0139899
0.0143669
0.0143061
0.0140043
0.013162
0.0103308
0.00581391
0.00370646
0.00267696
0.00219031
0.00190261
0.0018171
0.00181273
0.00190061
0.00224338
0.00319506
0.0043019
0.00476967
0.00564844
0.00802268
0.00960695
0.0101226
0.0101277
0.010085
0.010021
0.00995332
0.00988292
0.0097929
0.00965536
0.00935519
0.00875077
0.00725838
0.00500529
0.00362412
0.00274583
0.00210163
0.00174782
0.00163945
0.00162029
0.00164076
0.00173434
0.00191552
0.00213276
0.0060106
0.00603677
0.00605181
0.00608379
0.00610542
0.00608604
0.00601844
0.00588611
0.00561376
0.00513932
0.00451233
0.00379185
0.00313708
0.00270863
0.00245828
0.00233105
0.00229139
0.00232166
0.0024292
0.00259727
0.00276721
0.00288713
0.00299765
0.00315048
0.00324505
0.00326133
0.00322235
0.00312093
0.00301227
0.00286499
0.00270448
0.00262451
0.00262189
0.00270511
0.00284534
0.00318472
0.00408216
0.00509242
0.00534158
0.00496961
0.003467
0.00166078
0.00115635
0.00106049
0.00105707
0.00108666
0.00120118
0.00153997
0.00222056
0.00297164
0.00394472
0.00524144
0.0066022
0.00766787
0.00844395
0.00889095
0.00906298
0.0090653
0.00896005
0.00843118
0.00591772
0.00378517
0.00308417
0.00301329
0.00335174
0.00409503
0.00485385
0.0059364
0.00879938
0.0126464
0.0139716
0.0141034
0.0140716
0.0138291
0.0130336
0.00988859
0.00539172
0.00343723
0.00256596
0.00212313
0.00186068
0.0017897
0.00178589
0.00188993
0.00226648
0.0032366
0.0042312
0.00466118
0.00559193
0.00793435
0.00954411
0.0100091
0.0100363
0.0100113
0.00996099
0.00991177
0.00986674
0.00981153
0.00970337
0.0094906
0.00901634
0.00800917
0.00586923
0.00420764
0.00319167
0.0024148
0.00186829
0.00165991
0.00162138
0.00162966
0.00169528
0.00183221
0.00202474
0.00596291
0.00596148
0.00596533
0.00598435
0.0060036
0.00597253
0.00589377
0.00578977
0.00557831
0.00513648
0.00448305
0.00376014
0.00312031
0.00265553
0.00239593
0.0022728
0.00223235
0.00224885
0.00233654
0.00250933
0.00271512
0.00284492
0.00291146
0.00298439
0.0030357
0.00304384
0.00302851
0.00298892
0.00291023
0.00275815
0.00258527
0.00249221
0.00249117
0.00258347
0.0027691
0.00317917
0.0041108
0.00506317
0.00522604
0.00452312
0.00247484
0.00141258
0.00115152
0.00106996
0.00106741
0.00109695
0.00121623
0.00158457
0.00234385
0.00303432
0.00389056
0.00498897
0.0062419
0.00731487
0.00816953
0.0087326
0.00895691
0.00897583
0.00889845
0.00846447
0.006217
0.00394599
0.00323537
0.00316972
0.00345779
0.00435397
0.00518047
0.0066763
0.0101401
0.0130842
0.0136257
0.0136388
0.0137689
0.0136041
0.0127055
0.00872777
0.00503341
0.00335225
0.00254424
0.00211358
0.00185358
0.00178219
0.00177804
0.00188794
0.0022994
0.00332128
0.00418039
0.00456115
0.00543598
0.00766004
0.00939351
0.00988054
0.00991748
0.00987645
0.00979844
0.00977632
0.00977694
0.00977341
0.00973173
0.00957777
0.00924006
0.00842128
0.00664434
0.00481855
0.00364086
0.00274228
0.00215173
0.00178803
0.00165889
0.00164783
0.00170075
0.00181933
0.00198149
0.00592193
0.00588948