/*--------------------------------*- C++ -*----------------------------------*\
  =========                 |
  \\      /  F ield         | OpenFOAM: The Open Source CFD Toolbox
   \\    /   O peration     | Website:  https://openfoam.org
    \\  /    A nd           | Version:  10
     \\/     M anipulation  |
\*---------------------------------------------------------------------------*/
FoamFile
{
    format      ascii;
    class       volVectorField;
    location    "0.200576";
    object      U;
}
// * * * * * * * * * * * * * * * * * * * * * * * * * * * * * * * * * * * * * //

dimensions      [0 1 -1 0 0 0 0];

internalField   nonuniform List<vector> 
16320
(
(-0.141748 0.00508246 0)
(-0.116565 0.000676793 0)
(-0.0760803 0.023224 0)
(-0.0254375 0.0734232 0)
(-0.0757073 0.121073 0)
(-0.113465 0.217756 0)
(-0.108553 0.246425 0)
(-0.155425 0.219723 0)
(-0.316913 0.226164 0)
(-0.449073 0.242227 0)
(-0.511445 0.247768 0)
(-0.533817 0.237118 0)
(-0.535208 0.199495 0)
(-0.529661 0.129391 0)
(-0.514019 0.0473375 0)
(-0.47613 -0.0362578 0)
(-0.425106 -0.102833 0)
(-0.377672 -0.139009 0)
(-0.339683 -0.149679 0)
(-0.310992 -0.152349 0)
(-0.28609 -0.158254 0)
(-0.272311 -0.150425 0)
(-0.265615 -0.102649 0)
(-0.249684 -0.041642 0)
(-0.222624 0.0359536 0)
(-0.190086 0.138015 0)
(-0.160825 0.263622 0)
(-0.152527 0.380454 0)
(-0.165259 0.465808 0)
(-0.188941 0.513376 0)
(-0.212978 0.531953 0)
(-0.232961 0.536649 0)
(-0.251157 0.530949 0)
(-0.268133 0.515291 0)
(-0.28291 0.488413 0)
(-0.292565 0.447203 0)
(-0.292596 0.38598 0)
(-0.27471 0.297123 0)
(-0.228262 0.18255 0)
(-0.152237 0.0779431 0)
(-0.091854 0.0064247 0)
(-0.0124172 -0.0524507 0)
(0.0690583 -0.0688452 0)
(0.168947 -0.0394424 0)
(0.307753 0.039181 0)
(0.431885 0.134332 0)
(0.506146 0.221964 0)
(0.549594 0.287676 0)
(0.565862 0.315292 0)
(0.553409 0.304744 0)
(0.524026 0.264099 0)
(0.447314 0.245948 0)
(0.364432 0.288169 0)
(0.349721 0.322526 0)
(0.334228 0.289255 0)
(0.344179 0.143489 0)
(0.358802 -0.10159 0)
(0.331545 -0.209814 0)
(0.326541 -0.262174 0)
(0.326663 -0.302384 0)
(0.324148 -0.3371 0)
(0.315655 -0.357545 0)
(0.29528 -0.363006 0)
(0.269136 -0.341187 0)
(0.249452 -0.269257 0)
(0.26229 -0.170694 0)
(0.281803 -0.0852408 0)
(0.290726 -0.0324231 0)
(0.291509 -0.0115309 0)
(0.289275 -0.0189632 0)
(0.285133 -0.0485732 0)
(0.27555 -0.124391 0)
(0.273782 -0.204429 0)
(0.284869 -0.242586 0)
(0.30289 -0.229626 0)
(0.325909 -0.19679 0)
(0.340805 -0.237385 0)
(0.340508 -0.319358 0)
(0.334727 -0.371343 0)
(0.312561 -0.397073 0)
(0.271363 -0.408492 0)
(0.174852 -0.397153 0)
(-0.0285165 -0.339979 0)
(-0.209696 -0.273808 0)
(-0.256974 -0.266104 0)
(-0.257616 -0.268435 0)
(-0.257101 -0.236086 0)
(-0.241235 -0.145627 0)
(-0.137919 0.0796274 0)
(-0.0609381 0.385004 0)
(-0.00445895 0.481256 0)
(-0.039803 0.530255 0)
(-0.112526 0.593036 0)
(-0.261331 0.638302 0)
(-0.408263 0.632918 0)
(-0.521055 0.585487 0)
(-0.564541 0.504774 0)
(-0.570989 0.399198 0)
(-0.552808 0.288862 0)
(-0.510691 0.188842 0)
(-0.451729 0.091019 0)
(-0.382408 -0.00797804 0)
(-0.301756 -0.0915134 0)
(-0.228976 -0.129685 0)
(-0.170906 -0.12198 0)
(-0.106896 -0.100499 0)
(-0.0549499 -0.0665305 0)
(0.0034397 -0.0226817 0)
(0.043305 -0.00499921 0)
(0.0589003 -0.0286699 0)
(0.0717477 -0.0571877 0)
(0.0874145 -0.0731649 0)
(0.101687 -0.0676268 0)
(-0.183495 0.0247618 0)
(-0.144097 0.0462242 0)
(-0.121246 0.0753411 0)
(-0.0638712 0.146204 0)
(-0.0726851 0.227472 0)
(-0.088922 0.297114 0)
(-0.0816844 0.308271 0)
(-0.0914862 0.272378 0)
(-0.223473 0.260473 0)
(-0.349106 0.269897 0)
(-0.416764 0.275575 0)
(-0.443164 0.267047 0)
(-0.44878 0.230119 0)
(-0.448959 0.158479 0)
(-0.440175 0.0673549 0)
(-0.409729 -0.0290954 0)
(-0.366041 -0.0990281 0)
(-0.328501 -0.121862 0)
(-0.295766 -0.119771 0)
(-0.270694 -0.111605 0)
(-0.247789 -0.109411 0)
(-0.240444 -0.103595 0)
(-0.246277 -0.0602965 0)
(-0.235193 -0.00181082 0)
(-0.209952 0.0665009 0)
(-0.184254 0.158702 0)
(-0.160542 0.279425 0)
(-0.146201 0.405979 0)
(-0.154526 0.508254 0)
(-0.178842 0.561749 0)
(-0.207202 0.578482 0)
(-0.2326 0.580818 0)
(-0.258584 0.573171 0)
(-0.285243 0.556252 0)
(-0.310925 0.52794 0)
(-0.331419 0.481078 0)
(-0.336891 0.405493 0)
(-0.307378 0.293919 0)
(-0.252264 0.160882 0)
(-0.201189 0.0499189 0)
(-0.148513 -0.0584338 0)
(-0.061481 -0.16204 0)
(0.0222564 -0.209606 0)
(0.102688 -0.211437 0)
(0.209116 -0.123708 0)
(0.370464 0.0499595 0)
(0.445615 0.202052 0)
(0.481859 0.294018 0)
(0.497996 0.331632 0)
(0.490972 0.329845 0)
(0.470341 0.292654 0)
(0.40715 0.269169 0)
(0.336336 0.311748 0)
(0.338693 0.315248 0)
(0.322624 0.250464 0)
(0.342455 0.0644311 0)
(0.347185 -0.150169 0)
(0.317881 -0.224125 0)
(0.310443 -0.260567 0)
(0.311231 -0.294166 0)
(0.312631 -0.322417 0)
(0.309038 -0.344065 0)
(0.292916 -0.358325 0)
(0.271682 -0.349329 0)
(0.257729 -0.286322 0)
(0.264682 -0.194709 0)
(0.270487 -0.108101 0)
(0.273292 -0.049134 0)
(0.277449 -0.0218163 0)
(0.282112 -0.0254087 0)
(0.289142 -0.060117 0)
(0.288742 -0.142615 0)
(0.296058 -0.230264 0)
(0.307736 -0.27611 0)
(0.322967 -0.272364 0)
(0.340802 -0.251617 0)
(0.349015 -0.289524 0)
(0.342598 -0.352697 0)
(0.33124 -0.396672 0)
(0.305505 -0.422589 0)
(0.267377 -0.437454 0)
(0.188277 -0.442371 0)
(0.0211431 -0.426107 0)
(-0.167737 -0.380186 0)
(-0.244535 -0.345155 0)
(-0.248226 -0.323426 0)
(-0.245829 -0.281519 0)
(-0.22003 -0.207436 0)
(-0.146823 -0.0603742 0)
(-0.0265082 0.278107 0)
(0.0545356 0.440419 0)
(0.0487045 0.486262 0)
(-0.0129711 0.533116 0)
(-0.195431 0.60485 0)
(-0.37552 0.620886 0)
(-0.491213 0.586263 0)
(-0.530704 0.511211 0)
(-0.532015 0.409983 0)
(-0.506668 0.303656 0)
(-0.459915 0.205671 0)
(-0.401672 0.103596 0)
(-0.333512 -0.000905359 0)
(-0.245142 -0.0864264 0)
(-0.173858 -0.116602 0)
(-0.123856 -0.103055 0)
(-0.0677932 -0.0768452 0)
(-0.0184766 -0.0291885 0)
(0.0326293 0.0218213 0)
(0.0720387 0.0582737 0)
(0.0832755 0.0376542 0)
(0.0787461 -0.0161322 0)
(0.0777799 -0.0607183 0)
(0.0807945 -0.0716687 0)
(-0.178938 0.0465651 0)
(-0.141205 0.0785105 0)
(-0.122257 0.122503 0)
(-0.0821152 0.212989 0)
(-0.0586633 0.314892 0)
(-0.0566686 0.373204 0)
(-0.0465057 0.370576 0)
(-0.0262303 0.328876 0)
(-0.121784 0.303189 0)
(-0.223856 0.302158 0)
(-0.2914 0.304317 0)
(-0.32072 0.29712 0)
(-0.324602 0.265329 0)
(-0.32506 0.201223 0)
(-0.324013 0.106101 0)
(-0.30315 -0.0021067 0)
(-0.282725 -0.0782292 0)
(-0.269967 -0.0936422 0)
(-0.249089 -0.0787658 0)
(-0.232201 -0.0617673 0)
(-0.216327 -0.0465634 0)
(-0.217146 -0.0321966 0)
(-0.238314 0.00727927 0)
(-0.235737 0.0514089 0)
(-0.211022 0.103138 0)
(-0.187372 0.184334 0)
(-0.172078 0.300983 0)
(-0.155498 0.432116 0)
(-0.15671 0.549619 0)
(-0.179391 0.611542 0)
(-0.207614 0.630346 0)
(-0.235284 0.632583 0)
(-0.265541 0.625398 0)
(-0.296896 0.610281 0)
(-0.32619 0.582371 0)
(-0.34256 0.529715 0)
(-0.323482 0.437909 0)
(-0.287771 0.303806 0)
(-0.251464 0.17188 0)
(-0.20978 0.0482352 0)
(-0.158076 -0.080423 0)
(-0.0827886 -0.176211 0)
(-0.0200184 -0.221788 0)
(0.0430617 -0.249721 0)
(0.101063 -0.204237 0)
(0.213306 -0.0124185 0)
(0.332604 0.207476 0)
(0.374376 0.316397 0)
(0.397263 0.353038 0)
(0.401336 0.342674 0)
(0.388922 0.30669 0)
(0.343601 0.282113 0)
(0.305079 0.322691 0)
(0.318227 0.293578 0)
(0.309511 0.193887 0)
(0.346593 -0.0145664 0)
(0.32725 -0.200836 0)
(0.305711 -0.241019 0)
(0.301237 -0.264367 0)
(0.306039 -0.29005 0)
(0.310778 -0.312688 0)
(0.309827 -0.334153 0)
(0.297812 -0.3546 0)
(0.284687 -0.35197 0)
(0.280513 -0.29233 0)
(0.282623 -0.203945 0)
(0.281491 -0.118735 0)
(0.281129 -0.0580356 0)
(0.284356 -0.0299009 0)
(0.292016 -0.031528 0)
(0.297232 -0.0770518 0)
(0.302689 -0.164432 0)
(0.313261 -0.255055 0)
(0.322373 -0.305726 0)
(0.330845 -0.309243 0)
(0.337246 -0.299839 0)
(0.340808 -0.33373 0)
(0.332939 -0.380037 0)
(0.316234 -0.415631 0)
(0.288141 -0.44166 0)
(0.250137 -0.45895 0)
(0.17553 -0.47398 0)
(0.0260652 -0.486809 0)
(-0.144258 -0.483153 0)
(-0.218947 -0.458383 0)
(-0.218286 -0.420474 0)
(-0.211141 -0.367292 0)
(-0.190701 -0.290451 0)
(-0.154136 -0.159583 0)
(-0.00995034 0.196324 0)
(0.117522 0.402651 0)
(0.140863 0.47834 0)
(0.0985511 0.474224 0)
(-0.0866218 0.546442 0)
(-0.307907 0.589648 0)
(-0.446607 0.575012 0)
(-0.492533 0.50984 0)
(-0.490972 0.417781 0)
(-0.461491 0.321271 0)
(-0.413469 0.221811 0)
(-0.357132 0.113832 0)
(-0.277578 -0.00531478 0)
(-0.172255 -0.0886659 0)
(-0.108753 -0.107759 0)
(-0.0655443 -0.0988513 0)
(-0.0162276 -0.0638146 0)
(0.0258155 -0.0081804 0)
(0.0614376 0.0484241 0)
(0.0890049 0.0930516 0)
(0.089047 0.0708103 0)
(0.0630739 -0.00538852 0)
(0.0431163 -0.0753204 0)
(0.0352379 -0.0914373 0)
(-0.159916 0.0796169 0)
(-0.122768 0.120274 0)
(-0.0998973 0.184479 0)
(-0.0765873 0.283876 0)
(-0.0420663 0.385477 0)
(-0.0173921 0.441241 0)
(-0.00483035 0.428424 0)
(0.0273815 0.381262 0)
(-0.0379773 0.343486 0)
(-0.114426 0.330526 0)
(-0.168931 0.326217 0)
(-0.189402 0.31841 0)
(-0.178989 0.295125 0)
(-0.170144 0.242844 0)
(-0.16785 0.155967 0)
(-0.153609 0.052416 0)
(-0.163904 -0.0237873 0)
(-0.186318 -0.0395103 0)
(-0.193145 -0.0156291 0)
(-0.19006 0.0101791 0)
(-0.183336 0.0367894 0)
(-0.196162 0.0600661 0)
(-0.239506 0.0895149 0)
(-0.247595 0.114636 0)
(-0.224759 0.147305 0)
(-0.202827 0.213665 0)
(-0.191547 0.32308 0)
(-0.17633 0.459441 0)
(-0.173315 0.586846 0)
(-0.190524 0.65726 0)
(-0.214232 0.681331 0)
(-0.240116 0.685588 0)
(-0.269294 0.680965 0)
(-0.29912 0.667574 0)
(-0.323267 0.637852 0)
(-0.323157 0.573542 0)
(-0.293335 0.460844 0)
(-0.267691 0.318488 0)
(-0.236291 0.193708 0)
(-0.198262 0.0676361 0)
(-0.159122 -0.076713 0)
(-0.112163 -0.168157 0)
(-0.0649536 -0.219165 0)
(-0.0179274 -0.249465 0)
(0.0306076 -0.228656 0)
(0.0720964 -0.0915961 0)
(0.195225 0.191237 0)
(0.252224 0.317977 0)
(0.284151 0.351634 0)
(0.298209 0.332898 0)
(0.296034 0.301953 0)
(0.270614 0.298431 0)
(0.272288 0.312454 0)
(0.290218 0.253963 0)
(0.305342 0.120853 0)
(0.348393 -0.101536 0)
(0.306526 -0.238129 0)
(0.305782 -0.259239 0)
(0.302975 -0.273773 0)
(0.309065 -0.291411 0)
(0.317282 -0.307268 0)
(0.320114 -0.3269 0)
(0.314272 -0.350328 0)
(0.31081 -0.345435 0)
(0.313638 -0.285587 0)
(0.308169 -0.19961 0)
(0.299502 -0.117919 0)
(0.295601 -0.0597646 0)
(0.298342 -0.0337856 0)
(0.306056 -0.0375743 0)
(0.307478 -0.0924897 0)
(0.316745 -0.183918 0)
(0.326581 -0.275811 0)
(0.331387 -0.329443 0)
(0.330937 -0.338881 0)
(0.324552 -0.342059 0)
(0.320577 -0.370867 0)
(0.312623 -0.403492 0)
(0.291872 -0.431602 0)
(0.262492 -0.457485 0)
(0.22403 -0.476361 0)
(0.145924 -0.503441 0)
(-0.00242058 -0.544562 0)
(-0.14988 -0.571801 0)
(-0.197401 -0.559084 0)
(-0.180927 -0.519313 0)
(-0.168504 -0.466639 0)
(-0.161077 -0.384898 0)
(-0.142658 -0.236205 0)
(-0.0252196 0.109606 0)
(0.142642 0.380169 0)
(0.196561 0.492603 0)
(0.166957 0.470022 0)
(0.0377733 0.493961 0)
(-0.211471 0.551118 0)
(-0.384741 0.555425 0)
(-0.449288 0.505785 0)
(-0.448042 0.425654 0)
(-0.415511 0.335157 0)
(-0.365507 0.231655 0)
(-0.30004 0.111864 0)
(-0.191484 -0.0320837 0)
(-0.0811853 -0.113018 0)
(-0.0345326 -0.10596 0)
(0.00930884 -0.0975803 0)
(0.0476739 -0.0713876 0)
(0.0732021 -0.0191506 0)
(0.0921925 0.0370752 0)
(0.100568 0.0805546 0)
(0.0773797 0.0498193 0)
(0.0256087 -0.0454707 0)
(-0.00731275 -0.121467 0)
(-0.0224518 -0.126587 0)
(-0.137172 0.115459 0)
(-0.101968 0.163981 0)
(-0.0765917 0.247631 0)
(-0.0627388 0.357419 0)
(-0.0256957 0.447329 0)
(0.0232805 0.500388 0)
(0.0444758 0.479146 0)
(0.0739803 0.423869 0)
(0.0311096 0.3752 0)
(-0.0250112 0.34551 0)
(-0.0631839 0.332599 0)
(-0.0672799 0.32049 0)
(-0.040446 0.303821 0)
(-0.0271347 0.263549 0)
(-0.027806 0.195238 0)
(-0.034636 0.115351 0)
(-0.0728703 0.0551897 0)
(-0.115555 0.0457395 0)
(-0.138009 0.0705802 0)
(-0.153493 0.0976785 0)
(-0.160717 0.127794 0)
(-0.185552 0.157635 0)
(-0.245189 0.177095 0)
(-0.261426 0.184688 0)
(-0.24193 0.199789 0)
(-0.223006 0.252244 0)
(-0.2137 0.351455 0)
(-0.201304 0.487683 0)
(-0.199412 0.616825 0)
(-0.209865 0.693746 0)
(-0.225545 0.724322 0)
(-0.245811 0.732893 0)
(-0.269831 0.731535 0)
(-0.293565 0.718737 0)
(-0.308492 0.683759 0)
(-0.296218 0.604846 0)
(-0.27076 0.475893 0)
(-0.251225 0.337567 0)
(-0.22195 0.221907 0)
(-0.185608 0.0981753 0)
(-0.150717 -0.0422691 0)
(-0.138268 -0.148561 0)
(-0.105721 -0.212593 0)
(-0.0779027 -0.241961 0)
(-0.0453889 -0.201843 0)
(-0.0216192 -0.117634 0)
(0.0553213 0.144313 0)
(0.135634 0.291297 0)
(0.174091 0.329209 0)
(0.201374 0.317071 0)
(0.215116 0.297978 0)
(0.217841 0.306022 0)
(0.24733 0.283856 0)
(0.273981 0.202293 0)
(0.332581 0.0268371 0)
(0.350255 -0.183403 0)
(0.307859 -0.262663 0)
(0.316703 -0.279732 0)
(0.314442 -0.288721 0)
(0.32213 -0.297409 0)
(0.334789 -0.305257 0)
(0.342601 -0.32255 0)
(0.345632 -0.346269 0)
(0.349135 -0.330683 0)
(0.349892 -0.268077 0)
(0.335699 -0.184335 0)
(0.321294 -0.105963 0)
(0.31448 -0.0518047 0)
(0.31806 -0.0309821 0)
(0.323981 -0.0429662 0)
(0.322067 -0.105002 0)
(0.330299 -0.199124 0)
(0.336985 -0.29058 0)
(0.336542 -0.345564 0)
(0.325037 -0.360765 0)
(0.306569 -0.380143 0)
(0.29636 -0.407298 0)
(0.285705 -0.430694 0)
(0.260704 -0.450528 0)
(0.231732 -0.47173 0)
(0.186652 -0.492814 0)
(0.0899901 -0.534012 0)
(-0.061061 -0.599374 0)
(-0.168005 -0.641354 0)
(-0.184716 -0.634282 0)
(-0.156191 -0.604234 0)
(-0.136548 -0.569061 0)
(-0.132896 -0.482504 0)
(-0.128566 -0.287853 0)
(-0.104653 0.0549104 0)
(0.107989 0.405863 0)
(0.195648 0.525369 0)
(0.191107 0.516455 0)
(0.108282 0.493798 0)
(-0.116275 0.530965 0)
(-0.312623 0.541731 0)
(-0.398504 0.50323 0)
(-0.401764 0.431339 0)
(-0.368165 0.341659 0)
(-0.314012 0.231589 0)
(-0.233428 0.0861232 0)
(-0.0987104 -0.0888188 0)
(-0.0100576 -0.149423 0)
(0.0392679 -0.121376 0)
(0.0777281 -0.1014 0)
(0.101775 -0.0874792 0)
(0.117902 -0.0464692 0)
(0.121101 -0.000465645 0)
(0.103931 0.0279347 0)
(0.0497158 -0.0143921 0)
(-0.0177497 -0.109252 0)
(-0.0532162 -0.171068 0)
(-0.0748659 -0.156837 0)
(-0.126488 0.157069 0)
(-0.103956 0.217752 0)
(-0.0791967 0.322393 0)
(-0.0520045 0.424717 0)
(-0.010045 0.500326 0)
(0.0567149 0.545689 0)
(0.0942341 0.520881 0)
(0.127412 0.458561 0)
(0.107916 0.401236 0)
(0.0684224 0.356967 0)
(0.0467893 0.325735 0)
(0.0552205 0.300627 0)
(0.0743436 0.293623 0)
(0.0794842 0.274571 0)
(0.064413 0.234934 0)
(0.0227896 0.180758 0)
(-0.0336036 0.148942 0)
(-0.0766224 0.155135 0)
(-0.11146 0.16798 0)
(-0.135921 0.190696 0)
(-0.148538 0.223797 0)
(-0.180676 0.263499 0)
(-0.250309 0.2737 0)
(-0.272538 0.26273 0)
(-0.256952 0.259801 0)
(-0.241195 0.297239 0)
(-0.234674 0.382798 0)
(-0.228916 0.513843 0)
(-0.231829 0.637756 0)
(-0.234364 0.717794 0)
(-0.240519 0.754538 0)
(-0.252355 0.768773 0)
(-0.267967 0.770881 0)
(-0.283193 0.757831 0)
(-0.28933 0.716886 0)
(-0.273362 0.627722 0)
(-0.254567 0.491148 0)
(-0.238243 0.357923 0)
(-0.213108 0.243233 0)
(-0.179431 0.122609 0)
(-0.154615 -0.00403155 0)
(-0.147356 -0.12593 0)
(-0.127614 -0.221564 0)
(-0.112279 -0.262161 0)
(-0.097246 -0.1999 0)
(-0.0903105 -0.100195 0)
(-0.000452093 0.067313 0)
(0.0505366 0.257041 0)
(0.0991696 0.306363 0)
(0.137507 0.304113 0)
(0.168499 0.297439 0)
(0.195323 0.293163 0)
(0.244541 0.24569 0)
(0.297418 0.133257 0)
(0.382591 -0.068754 0)
(0.367367 -0.231018 0)
(0.327318 -0.284866 0)
(0.335793 -0.30217 0)
(0.335219 -0.306161 0)
(0.345115 -0.306728 0)
(0.36354 -0.308636 0)
(0.375097 -0.322081 0)
(0.380149 -0.338989 0)
(0.387278 -0.309391 0)
(0.379119 -0.242619 0)
(0.358781 -0.160417 0)
(0.34247 -0.0863047 0)
(0.33507 -0.0376308 0)
(0.341988 -0.0226785 0)
(0.344363 -0.0454728 0)
(0.339428 -0.114094 0)
(0.344476 -0.208388 0)
(0.345995 -0.297924 0)
(0.3389 -0.352796 0)
(0.313008 -0.371493 0)
(0.283932 -0.397575 0)
(0.269937 -0.426232 0)
(0.257147 -0.446785 0)
(0.232153 -0.462961 0)
(0.199543 -0.47886 0)
(0.138434 -0.505049 0)
(0.0135136 -0.560693 0)
(-0.13398 -0.634698 0)
(-0.196219 -0.673322 0)
(-0.182293 -0.671549 0)
(-0.150612 -0.657494 0)
(-0.123377 -0.646377 0)
(-0.115465 -0.558678 0)
(-0.139804 -0.307965 0)
(-0.167812 0.0744257 0)
(0.0176505 0.434554 0)
(0.137642 0.590846 0)
(0.169515 0.585251 0)
(0.127064 0.538048 0)
(-0.0456093 0.538292 0)
(-0.241559 0.538646 0)
(-0.339747 0.502387 0)
(-0.349896 0.433849 0)
(-0.316511 0.340806 0)
(-0.254829 0.218077 0)
(-0.156352 0.0426721 0)
(-0.00838103 -0.143025 0)
(0.0404723 -0.16317 0)
(0.085999 -0.125296 0)
(0.116316 -0.102591 0)
(0.132086 -0.0892361 0)
(0.143079 -0.0600857 0)
(0.134213 -0.0308647 0)
(0.0955117 -0.0242377 0)
(0.0216003 -0.0717613 0)
(-0.0495769 -0.152817 0)
(-0.0875058 -0.198243 0)
(-0.119256 -0.162394 0)
(-0.144163 0.215483 0)
(-0.127198 0.288476 0)
(-0.0916055 0.387335 0)
(-0.0475139 0.477168 0)
(0.00644691 0.541608 0)
(0.0873113 0.576044 0)
(0.146856 0.549642 0)
(0.200318 0.484015 0)
(0.220901 0.408689 0)
(0.215902 0.332533 0)
(0.214714 0.262789 0)
(0.218152 0.219122 0)
(0.199115 0.228782 0)
(0.162276 0.253727 0)
(0.103255 0.2664 0)
(0.0313845 0.26022 0)
(-0.0302144 0.261745 0)
(-0.0696338 0.257722 0)
(-0.102766 0.262091 0)
(-0.128588 0.283487 0)
(-0.143249 0.322563 0)
(-0.181485 0.372483 0)
(-0.255096 0.372862 0)
(-0.281281 0.34325 0)
(-0.271073 0.322434 0)
(-0.259276 0.345065 0)
(-0.253798 0.41513 0)
(-0.252601 0.533884 0)
(-0.262344 0.648672 0)
(-0.260161 0.727358 0)
(-0.257964 0.769029 0)
(-0.260161 0.789261 0)
(-0.266041 0.795019 0)
(-0.271845 0.781765 0)
(-0.2701 0.73753 0)
(-0.253011 0.645285 0)
(-0.237936 0.508495 0)
(-0.221348 0.37773 0)
(-0.194231 0.261322 0)
(-0.152598 0.1501 0)
(-0.124632 0.0314955 0)
(-0.122147 -0.102302 0)
(-0.112842 -0.213237 0)
(-0.10922 -0.263884 0)
(-0.109105 -0.235533 0)
(-0.115035 -0.129395 0)
(-0.0865008 0.0364846 0)
(0.00814797 0.221315 0)
(0.0664827 0.280102 0)
(0.116855 0.286132 0)
(0.163836 0.282767 0)
(0.211358 0.260669 0)
(0.276778 0.187171 0)
(0.36122 0.0350839 0)
(0.415126 -0.135637 0)
(0.393612 -0.251175 0)
(0.353419 -0.304809 0)
(0.358454 -0.322201 0)
(0.359914 -0.323349 0)
(0.372263 -0.320465 0)
(0.395949 -0.321098 0)
(0.409089 -0.329819 0)
(0.403102 -0.326759 0)
(0.408336 -0.283497 0)
(0.395383 -0.211286 0)
(0.374 -0.130261 0)
(0.35936 -0.0620975 0)
(0.354823 -0.0214448 0)
(0.36529 -0.0124537 0)
(0.364874 -0.0447011 0)
(0.358523 -0.117391 0)
(0.35962 -0.210315 0)
(0.355128 -0.297458 0)
(0.342015 -0.351834 0)
(0.308785 -0.37211 0)
(0.2731 -0.394721 0)
(0.252963 -0.429258 0)
(0.233881 -0.449226 0)
(0.205348 -0.464843 0)
(0.163394 -0.480166 0)
(0.0752529 -0.513835 0)
(-0.0783496 -0.580648 0)
(-0.202037 -0.646879 0)
(-0.224492 -0.672464 0)
(-0.19295 -0.67559 0)
(-0.162885 -0.677097 0)
(-0.127254 -0.680996 0)
(-0.119114 -0.592903 0)
(-0.173802 -0.340133 0)
(-0.190135 0.0186421 0)
(-0.114248 0.442436 0)
(0.0487793 0.660585 0)
(0.109166 0.663252 0)
(0.115002 0.596253 0)
(-0.00591313 0.563802 0)
(-0.178987 0.544042 0)
(-0.276964 0.503465 0)
(-0.291765 0.432091 0)
(-0.257978 0.330122 0)
(-0.18732 0.186573 0)
(-0.049147 -0.027181 0)
(0.0566321 -0.173426 0)
(0.0765285 -0.156718 0)
(0.113316 -0.112002 0)
(0.132068 -0.0842485 0)
(0.142801 -0.0670796 0)
(0.146336 -0.0489741 0)
(0.127518 -0.0373189 0)
(0.0785187 -0.0455746 0)
(-0.000135023 -0.0950276 0)
(-0.0698759 -0.163944 0)
(-0.113638 -0.196743 0)
(-0.158199 -0.137236 0)
(-0.165238 0.28379 0)
(-0.144054 0.350303 0)
(-0.0981003 0.436846 0)
(-0.0410637 0.515676 0)
(0.0308124 0.573324 0)
(0.12366 0.593842 0)
(0.209626 0.561009 0)
(0.295716 0.485755 0)
(0.360966 0.385453 0)
(0.405763 0.273055 0)
(0.429918 0.181072 0)
(0.406305 0.14361 0)
(0.329922 0.175808 0)
(0.236266 0.251069 0)
(0.128611 0.316505 0)
(0.0226456 0.350004 0)
(-0.0461664 0.356828 0)
(-0.0783088 0.353021 0)
(-0.104434 0.352762 0)
(-0.128601 0.374351 0)
(-0.145073 0.421187 0)
(-0.18823 0.479102 0)
(-0.259821 0.468983 0)
(-0.288016 0.421337 0)
(-0.283063 0.382774 0)
(-0.275579 0.390654 0)
(-0.273869 0.44524 0)
(-0.27614 0.545748 0)
(-0.289596 0.649697 0)
(-0.285495 0.722602 0)
(-0.277262 0.766141 0)
(-0.270489 0.79139 0)
(-0.266101 0.80126 0)
(-0.261603 0.789481 0)
(-0.251134 0.745656 0)
(-0.231662 0.656126 0)
(-0.216408 0.523374 0)
(-0.196868 0.393119 0)
(-0.162951 0.279933 0)
(-0.110959 0.187852 0)
(-0.0460355 0.106702 0)
(-0.0468211 -0.0622607 0)
(-0.0739162 -0.179599 0)
(-0.10797 -0.244015 0)
(-0.112657 -0.240267 0)
(-0.110814 -0.171408 0)
(-0.109061 -0.0192731 0)
(-0.016732 0.15191 0)
(0.0648011 0.235901 0)
(0.125043 0.246001 0)
(0.185321 0.236583 0)
(0.247569 0.1962 0)
(0.324103 0.0995563 0)
(0.401682 -0.0415167 0)
(0.440344 -0.172484 0)
(0.414866 -0.264988 0)
(0.366655 -0.317506 0)
(0.372908 -0.335127 0)
(0.376979 -0.338789 0)
(0.390621 -0.340176 0)
(0.415397 -0.343806 0)
(0.424714 -0.342438 0)
(0.416345 -0.316086 0)
(0.419288 -0.257532 0)
(0.405566 -0.178967 0)
(0.3868 -0.0990907 0)
(0.375681 -0.0371001 0)
(0.376015 -0.00496487 0)
(0.387304 -0.0027701 0)
(0.385096 -0.0406616 0)
(0.378142 -0.114036 0)
(0.374896 -0.20461 0)
(0.364107 -0.289497 0)
(0.345202 -0.343996 0)
(0.308575 -0.366597 0)
(0.264773 -0.387349 0)
(0.236388 -0.429412 0)
(0.212057 -0.449419 0)
(0.177134 -0.463303 0)
(0.117965 -0.480524 0)
(-0.00611444 -0.522236 0)
(-0.170035 -0.588301 0)
(-0.259249 -0.637142 0)
(-0.251769 -0.652797 0)
(-0.213063 -0.659807 0)
(-0.186152 -0.670655 0)
(-0.147127 -0.678283 0)
(-0.163902 -0.588564 0)
(-0.222636 -0.375024 0)
(-0.231239 -0.0230142 0)
(-0.206278 0.414297 0)
(-0.042282 0.692733 0)
(0.0400487 0.734609 0)
(0.0899884 0.651155 0)
(0.0157685 0.591376 0)
(-0.126175 0.55196 0)
(-0.216799 0.502598 0)
(-0.230648 0.424376 0)
(-0.190429 0.306892 0)
(-0.113714 0.14487 0)
(0.0301299 -0.0757873 0)
(0.0759221 -0.158338 0)
(0.0971905 -0.137807 0)
(0.120601 -0.082324 0)
(0.128097 -0.0486107 0)
(0.134721 -0.0324063 0)
(0.133527 -0.0225938 0)
(0.110263 -0.0233125 0)
(0.0597862 -0.0405599 0)
(-0.0152845 -0.0905721 0)
(-0.0830888 -0.154166 0)
(-0.133514 -0.176273 0)
(-0.186997 -0.0911562 0)
(-0.173244 0.344851 0)
(-0.144409 0.39914 0)
(-0.0922995 0.469558 0)
(-0.0227396 0.537219 0)
(0.0656403 0.584222 0)
(0.167103 0.587984 0)
(0.275144 0.545738 0)
(0.392182 0.458757 0)
(0.495926 0.347816 0)
(0.568681 0.240792 0)
(0.590597 0.1664 0)
(0.535247 0.149146 0)
(0.413863 0.201159 0)
(0.273099 0.296712 0)
(0.12828 0.380986 0)
(0.000907715 0.431623 0)
(-0.0637546 0.441697 0)
(-0.0905261 0.437738 0)
(-0.114158 0.438282 0)
(-0.136846 0.462815 0)
(-0.15548 0.517997 0)
(-0.200713 0.581265 0)
(-0.264574 0.560104 0)
(-0.294881 0.493999 0)
(-0.295627 0.439608 0)
(-0.291256 0.432577 0)
(-0.293994 0.469943 0)
(-0.29764 0.54511 0)
(-0.311525 0.640639 0)
(-0.309842 0.705146 0)
(-0.298652 0.747792 0)
(-0.28401 0.776106 0)
(-0.269469 0.78974 0)
(-0.254355 0.78111 0)
(-0.235268 0.740882 0)
(-0.212008 0.657836 0)
(-0.189945 0.534894 0)
(-0.162063 0.407164 0)
(-0.121026 0.294211 0)
(-0.0696735 0.210684 0)
(0.00650341 0.130502 0)
(0.032794 0.0112646 0)
(-0.00531495 -0.133284 0)
(-0.0827773 -0.219771 0)
(-0.107779 -0.226224 0)
(-0.11171 -0.189056 0)
(-0.100688 -0.0635666 0)
(-0.0544999 0.0779511 0)
(0.0491996 0.180954 0)
(0.121996 0.191457 0)
(0.191947 0.172111 0)
(0.265973 0.117641 0)
(0.344077 0.0207531 0)
(0.404683 -0.092028 0)
(0.43936 -0.198906 0)
(0.412525 -0.280681 0)
(0.365205 -0.322985 0)
(0.376581 -0.343539 0)
(0.382341 -0.354956 0)
(0.39499 -0.362817 0)
(0.417776 -0.368134 0)
(0.426691 -0.349091 0)
(0.419996 -0.301084 0)
(0.426003 -0.231854 0)
(0.416522 -0.148936 0)
(0.403314 -0.0702915 0)
(0.397836 -0.0140659 0)
(0.404333 0.0110286 0)
(0.41447 0.00718413 0)
(0.408576 -0.0322602 0)
(0.399167 -0.103386 0)
(0.390241 -0.190659 0)
(0.372569 -0.273824 0)
(0.34759 -0.32941 0)
(0.309945 -0.354635 0)
(0.255878 -0.373779 0)
(0.218735 -0.418569 0)
(0.190291 -0.441129 0)
(0.144252 -0.455988 0)
(0.061129 -0.476628 0)
(-0.0997111 -0.522172 0)
(-0.252176 -0.579549 0)
(-0.306202 -0.611539 0)
(-0.278921 -0.622269 0)
(-0.238897 -0.63138 0)
(-0.215461 -0.646132 0)
(-0.184491 -0.642473 0)
(-0.226816 -0.550589 0)
(-0.287313 -0.326859 0)
(-0.298674 0.023314 0)
(-0.261973 0.415699 0)
(-0.109453 0.689595 0)
(-0.0164337 0.772242 0)
(0.056619 0.693662 0)
(0.0208442 0.616649 0)
(-0.0826452 0.557293 0)
(-0.160219 0.497575 0)
(-0.169522 0.410572 0)
(-0.120915 0.274278 0)
(-0.0379711 0.0887559 0)
(0.0786009 -0.107937 0)
(0.0848715 -0.133317 0)
(0.0955199 -0.0943495 0)
(0.101659 -0.0419271 0)
(0.104053 -0.00878462 0)
(0.111889 0.003965 0)
(0.109792 0.00697687 0)
(0.0882897 -0.000882828 0)
(0.0425041 -0.0225021 0)
(-0.0267598 -0.0719302 0)
(-0.0934673 -0.132289 0)
(-0.152696 -0.142147 0)
(-0.21709 -0.0272437 0)
(-0.167581 0.396999 0)
(-0.133011 0.438096 0)
(-0.0804215 0.488049 0)
(0.000608579 0.538025 0)
(0.101775 0.565056 0)
(0.215466 0.552072 0)
(0.34198 0.502178 0)
(0.473834 0.416501 0)
(0.587089 0.317655 0)
(0.660819 0.231299 0)
(0.670303 0.181161 0)
(0.593974 0.186827 0)
(0.449353 0.254913 0)
(0.283339 0.354842 0)
(0.123091 0.443643 0)
(-0.0132088 0.50225 0)
(-0.0819606 0.517244 0)
(-0.11006 0.514066 0)
(-0.131342 0.518064 0)
(-0.153393 0.547124 0)
(-0.173138 0.612568 0)
(-0.21611 0.678106 0)
(-0.269214 0.647235 0)
(-0.299089 0.561735 0)
(-0.303974 0.492759 0)
(-0.30335 0.470997 0)
(-0.315051 0.491585 0)
(-0.321077 0.536888 0)
(-0.328993 0.61564 0)
(-0.332107 0.675807 0)
(-0.319657 0.716182 0)
(-0.300659 0.74593 0)
(-0.277665 0.763397 0)
(-0.251705 0.759539 0)
(-0.223355 0.725162 0)
(-0.192353 0.652987 0)
(-0.159391 0.544789 0)
(-0.121473 0.422916 0)
(-0.0738815 0.305379 0)
(-0.0269843 0.222334 0)
(0.0343097 0.137176 0)
(0.051319 0.0440835 0)
(0.0325896 -0.0928327 0)
(-0.0504291 -0.198684 0)
(-0.100295 -0.215175 0)
(-0.109599 -0.189005 0)
(-0.0903401 -0.110775 0)
(-0.0491869 0.0325805 0)
(0.0293297 0.121437 0)
(0.10443 0.135253 0)
(0.181354 0.108584 0)
(0.260893 0.0458933 0)
(0.333617 -0.040748 0)
(0.389005 -0.133821 0)
(0.422456 -0.222168 0)
(0.399754 -0.291368 0)
(0.358157 -0.325831 0)
(0.370424 -0.35412 0)
(0.377575 -0.376395 0)
(0.387422 -0.389323 0)
(0.401904 -0.393129 0)
(0.408126 -0.361024 0)
(0.40565 -0.283832 0)
(0.42229 -0.208457 0)
(0.428666 -0.124399 0)
(0.426577 -0.0470433 0)
(0.427569 0.00592189 0)
(0.436977 0.0274491 0)
(0.444893 0.020545 0)
(0.434634 -0.0170245 0)
(0.420022 -0.0839999 0)
(0.404415 -0.16774 0)
(0.379377 -0.250282 0)
(0.348088 -0.308302 0)
(0.309747 -0.337775 0)
(0.254127 -0.361286 0)
(0.20663 -0.403407 0)
(0.168137 -0.429712 0)
(0.106682 -0.446399 0)
(-0.00719061 -0.470173 0)
(-0.190285 -0.51416 0)
(-0.320485 -0.559027 0)
(-0.343762 -0.577973 0)
(-0.30474 -0.584194 0)
(-0.266533 -0.591647 0)
(-0.243609 -0.600681 0)
(-0.231651 -0.572393 0)
(-0.293604 -0.470082 0)
(-0.357107 -0.244197 0)
(-0.360913 0.0674186 0)
(-0.29276 0.387927 0)
(-0.15201 0.652047 0)
(-0.0497382 0.753437 0)
(0.0296337 0.703899 0)
(0.0160537 0.628548 0)
(-0.0532274 0.555794 0)
(-0.109989 0.483408 0)
(-0.109354 0.379247 0)
(-0.0583742 0.22393 0)
(0.0360849 0.023272 0)
(0.0983821 -0.0999962 0)
(0.0800718 -0.0902519 0)
(0.0644053 -0.0375863 0)
(0.0548531 -0.000301101 0)
(0.0696344 0.0255256 0)
(0.083025 0.0340619 0)
(0.0848829 0.0345061 0)
(0.0673575 0.0253994 0)
(0.0269015 0.00304811 0)
(-0.0360293 -0.045607 0)
(-0.103059 -0.102204 0)
(-0.171464 -0.0953485 0)
(-0.248632 0.0567335 0)
(-0.152315 0.441023 0)
(-0.112359 0.470004 0)
(-0.0571486 0.499082 0)
(0.0317442 0.528823 0)
(0.137613 0.533364 0)
(0.256749 0.508135 0)
(0.38734 0.452612 0)
(0.518322 0.373243 0)
(0.627008 0.292395 0)
(0.692181 0.229941 0)
(0.693596 0.20483 0)
(0.615059 0.235218 0)
(0.466958 0.310487 0)
(0.29162 0.407955 0)
(0.118811 0.496924 0)
(-0.0283585 0.561347 0)
(-0.103184 0.581263 0)
(-0.133688 0.582927 0)
(-0.154165 0.590866 0)
(-0.174514 0.625703 0)
(-0.192224 0.702107 0)
(-0.228934 0.767279 0)
(-0.270656 0.728589 0)
(-0.296804 0.623027 0)
(-0.304039 0.534658 0)
(-0.306836 0.49972 0)
(-0.328565 0.506007 0)
(-0.343821 0.528918 0)
(-0.346307 0.574994 0)
(-0.347901 0.632446 0)
(-0.338532 0.674441 0)
(-0.317213 0.704239 0)
(-0.288247 0.724289 0)
(-0.253998 0.726365 0)
(-0.215706 0.700297 0)
(-0.174672 0.639813 0)
(-0.130379 0.545451 0)
(-0.0824155 0.433037 0)
(-0.0342512 0.308997 0)
(-0.00351705 0.222938 0)
(0.0293898 0.151224 0)
(0.0389118 0.0712966 0)
(0.0352548 -0.0717021 0)
(-0.0417862 -0.178086 0)
(-0.097269 -0.211133 0)
(-0.117829 -0.188189 0)
(-0.0847413 -0.134861 0)
(-0.0319334 -0.0128986 0)
(0.0353298 0.0699791 0)
(0.105182 0.0795238 0)
(0.180545 0.0454293 0)
(0.254636 -0.0174708 0)
(0.319585 -0.0926091 0)
(0.369336 -0.17057 0)
(0.399921 -0.241987 0)
(0.384792 -0.298443 0)
(0.350263 -0.328068 0)
(0.358188 -0.367131 0)
(0.366178 -0.401043 0)
(0.369348 -0.419653 0)
(0.370614 -0.418311 0)
(0.375672 -0.38729 0)
(0.377742 -0.298481 0)
(0.394233 -0.196642 0)
(0.430071 -0.110629 0)
(0.446774 -0.031068 0)
(0.454105 0.024013 0)
(0.463388 0.0473803 0)
(0.467924 0.0406206 0)
(0.45529 0.00514778 0)
(0.436557 -0.056896 0)
(0.414845 -0.136728 0)
(0.382468 -0.219362 0)
(0.344099 -0.280381 0)
(0.299423 -0.315178 0)
(0.238804 -0.348942 0)
(0.188881 -0.390316 0)
(0.146411 -0.41837 0)
(0.074846 -0.436655 0)
(-0.0647514 -0.459177 0)
(-0.254365 -0.497082 0)
(-0.363836 -0.530255 0)
(-0.366247 -0.540775 0)
(-0.322735 -0.541127 0)
(-0.287883 -0.540223 0)
(-0.265699 -0.53228 0)
(-0.274969 -0.476969 0)
(-0.35057 -0.362897 0)
(-0.401289 -0.166071 0)
(-0.379837 0.0891014 0)
(-0.302744 0.349956 0)
(-0.17818 0.587975 0)
(-0.0684329 0.698457 0)
(0.0169107 0.673964 0)
(0.0169938 0.608332 0)
(-0.0287957 0.527944 0)
(-0.0661382 0.434993 0)
(-0.0567218 0.302372 0)
(0.00419561 0.130137 0)
(0.100207 -0.0534013 0)
(0.0976165 -0.0862267 0)
(0.0431538 -0.019956 0)
(0.00695352 0.0184671 0)
(0.0192642 0.0372127 0)
(0.0406577 0.0466739 0)
(0.0573333 0.052764 0)
(0.0629554 0.0549091 0)
(0.0498873 0.0493901 0)
(0.012251 0.0298796 0)
(-0.0469502 -0.0157896 0)
(-0.113715 -0.0655983 0)
(-0.191883 -0.0362825 0)
(-0.295269 0.14815 0)
(-0.131775 0.477053 0)
(-0.0869358 0.494688 0)
(-0.0245771 0.505434 0)
(0.0644541 0.512616 0)
(0.168748 0.497693 0)
(0.284488 0.461497 0)
(0.407068 0.404807 0)
(0.528116 0.335585 0)
(0.626925 0.271493 0)
(0.682533 0.230926 0)
(0.682052 0.233725 0)
(0.614017 0.281088 0)
(0.474719 0.355684 0)
(0.302386 0.444872 0)
(0.120558 0.532332 0)
(-0.0392874 0.603956 0)
(-0.123332 0.633384 0)
(-0.157994 0.642189 0)