/*--------------------------------*- C++ -*----------------------------------*\
  =========                 |
  \\      /  F ield         | OpenFOAM: The Open Source CFD Toolbox
   \\    /   O peration     | Website:  https://openfoam.org
    \\  /    A nd           | Version:  10
     \\/     M anipulation  |
\*---------------------------------------------------------------------------*/
FoamFile
{
    format      ascii;
    class       volScalarField;
    location    "0.40069";
    object      p;
}
// * * * * * * * * * * * * * * * * * * * * * * * * * * * * * * * * * * * * * //

dimensions      [1 -1 -2 0 0 0 0];

internalField   nonuniform List<scalar> 
16320
(
0.654604
0.616996
0.584523
0.549338
0.516966
0.491702
0.473738
0.46269
0.457687
0.458191
0.464094
0.47714
0.496505
0.520148
0.544619
0.565646
0.581633
0.59272
0.599861
0.603667
0.605485
0.606802
0.609046
0.613862
0.62459
0.646115
0.685583
0.752995
0.842368
0.945467
1.04748
1.1424
1.22019
0.644256
0.599394
0.561207
0.525086
0.494793
0.472356
0.457363
0.44906
0.446488
0.448796
0.456861
0.472125
0.493295
0.517475
0.54072
0.559468
0.572245
0.580273
0.584897
0.587427
0.589532
0.592625
0.598711
0.610612
0.631315
0.665241
0.720631
0.792869
0.873303
0.958562
1.0497
1.14051
1.21829
0.62506
0.575354
0.531815
0.497776
0.471992
0.454272
0.443366
0.438336
0.438398
0.442693
0.452946
0.46889
0.489321
0.511895
0.532686
0.549161
0.559956
0.566229
0.570097
0.573443
0.578281
0.586899
0.601497
0.624221
0.659966
0.709393
0.768265
0.82277
0.878584
0.942702
1.01965
1.10623
1.185
0.59595
0.54368
0.500529
0.471417
0.452157
0.44021
0.433813
0.431984
0.43385
0.439977
0.451113
0.46684
0.485966
0.505882
0.523642
0.536992
0.546321
0.552834
0.558926
0.567357
0.579321
0.597216
0.623927
0.663622
0.712311
0.761782
0.798664
0.830296
0.863666
0.905836
0.968312
1.04536
1.12641
0.553151
0.505257
0.471242
0.451995
0.439861
0.43297
0.429993
0.430237
0.433304
0.440327
0.451354
0.465959
0.483045
0.500481
0.51623
0.528857
0.539014
0.548612
0.560133
0.575166
0.596872
0.629265
0.672912
0.720065
0.760653
0.787573
0.805662
0.820232
0.837778
0.865723
0.911665
0.976041
1.05285
0.514106
0.477447
0.455704
0.442523
0.436089
0.432952
0.432012
0.433154
0.436884
0.443845
0.453927
0.466901
0.481947
0.497524
0.512483
0.526432
0.540243
0.555538
0.574896
0.602057
0.639443
0.683639
0.727912
0.760449
0.779565
0.790016
0.795639
0.801931
0.812023
0.830867
0.86419
0.913717
0.977806
0.492201
0.466226
0.452164
0.444476
0.441464
0.440154
0.440163
0.441379
0.444756
0.450885
0.459631
0.470867
0.484327
0.499395
0.515417
0.532653
0.552265
0.577053
0.609828
0.650882
0.694612
0.734189
0.758959
0.772153
0.777157
0.779133
0.781017
0.784758
0.792306
0.805947
0.829444
0.864856
0.913033
0.486651
0.467994
0.458852
0.45434
0.453084
0.453182
0.45352
0.454686
0.457361
0.462409
0.469962
0.480074
0.492837
0.508568
0.527651
0.551125
0.580839
0.617991
0.659987
0.701843
0.734852
0.753715
0.762922
0.765323
0.766098
0.766038
0.766932
0.769917
0.776552
0.787713
0.80531
0.830628
0.865128
0.491416
0.478005
0.472237
0.470303
0.470528
0.471325
0.472042
0.47332
0.475601
0.479877
0.48673
0.496608
0.510361
0.528919
0.553604
0.585515
0.623422
0.66487
0.703481
0.729711
0.744166
0.750638
0.752501
0.752243
0.751696
0.75192
0.753474
0.757584
0.765004
0.774981
0.78881
0.807671
0.832752
0.502383
0.492525
0.4891
0.488668
0.489612
0.491265
0.493433
0.495566
0.498674
0.503266
0.51023
0.520845
0.536783
0.559201
0.588958
0.625226
0.663885
0.696185
0.716753
0.728
0.733979
0.73703
0.737915
0.738274
0.73913
0.740828
0.743987
0.749594
0.756939
0.766117
0.7781
0.793189
0.812524
0.518299
0.512268
0.510947
0.511452
0.512845
0.514304
0.515755
0.517514
0.520273
0.525538
0.533947
0.546997
0.565428
0.590362
0.62122
0.652384
0.678039
0.695857
0.707336
0.714472
0.71881
0.721762
0.724035
0.72608
0.728464
0.731868
0.735888
0.74389
0.751138
0.760437
0.771871
0.785468
0.800796
0.539823
0.536578
0.536425
0.537194
0.538038
0.538604
0.538904
0.539415
0.541066
0.545048
0.553016
0.566101
0.584385
0.607022
0.631326
0.653249
0.670489
0.682703
0.690998
0.697263
0.701971
0.706094
0.710301
0.71454
0.71924
0.724693
0.730246
0.739553
0.747769
0.758032
0.769895
0.782129
0.792776
0.566063
0.5639
0.56318
0.562282
0.560955
0.55849
0.555355
0.553218
0.553483
0.556087
0.562945
0.575087
0.59114
0.609475
0.62735
0.642694
0.655198
0.664555
0.672006
0.678299
0.684517
0.690688
0.69681
0.703327
0.710218
0.718411
0.727242
0.736635
0.747106
0.758418
0.770998
0.78005
0.790065
0.597127
0.593142
0.588539
0.582846
0.574169
0.565409
0.5585
0.554425
0.554115
0.556208
0.562274
0.573421
0.586921
0.601652
0.614879
0.626314
0.636081
0.645527
0.654585
0.663276
0.671655
0.679958
0.688203
0.696889
0.705704
0.715061
0.726912
0.738127
0.75029
0.76228
0.771775
0.781016
0.788311
0.635463
0.624585
0.610575
0.592735
0.575536
0.561692
0.55151
0.545545
0.544243
0.546245
0.552127
0.562852
0.574783
0.586523
0.598628
0.610057
0.620762
0.631006
0.641071
0.651012
0.660885
0.670811
0.680906
0.691425
0.702406
0.714269
0.726869
0.740398
0.753856
0.765396
0.775067
0.781892
0.787376
0.672716
0.649983
0.621292
0.591687
0.566343
0.546913
0.533472
0.526494
0.525985
0.5288
0.535811
0.54706
0.559683
0.572032
0.584051
0.595874
0.607432
0.618723
0.629857
0.641035
0.652236
0.663644
0.67537
0.687435
0.70017
0.71417
0.728938
0.743633
0.756478
0.768067
0.776248
0.782043
0.786301
0.702202
0.665869
0.624741
0.585845
0.553929
0.52971
0.51364
0.505473
0.50546
0.508977
0.51802
0.531047
0.544841
0.558367
0.571411
0.584329
0.596862
0.609139
0.621339
0.633543
0.646024
0.658868
0.671647
0.684992
0.700399
0.715773
0.732117
0.746115
0.758059
0.769092
0.776223
0.781028
0.78407
0.715232
0.672587
0.624801
0.579086
0.543384
0.516688
0.498981
0.490099
0.489606
0.493646
0.503622
0.517535
0.532475
0.547379
0.561844
0.575902
0.589538
0.602744
0.615908
0.629135
0.642737
0.656757
0.670082
0.686263
0.702124
0.71816
0.733582
0.747296
0.75859
0.767557
0.773933
0.777834
0.780146
0.719465
0.67612
0.625323
0.576613
0.537063
0.508682
0.490602
0.482103
0.480601
0.485564
0.496127
0.510032
0.525408
0.541106
0.556626
0.571567
0.585936
0.599954
0.613724
0.627707
0.641811
0.656186
0.671708
0.687762
0.703801
0.718633
0.733039
0.745908
0.756597
0.763422
0.768728
0.771988
0.773903
0.717836
0.674091
0.622903
0.57394
0.534523
0.505871
0.488171
0.480769
0.479561
0.484542
0.495142
0.509184
0.524766
0.540784
0.556512
0.571797
0.586389
0.600741
0.614896
0.629078
0.643134
0.65817
0.673421
0.688759
0.703158
0.716884
0.730222
0.741623
0.749913
0.756172
0.76032
0.763325
0.765167
0.695192
0.664834
0.621115
0.574912
0.535712
0.506798
0.490456
0.484303
0.483626
0.488947
0.499688
0.513485
0.528868
0.544648
0.560325
0.575762
0.590535
0.604493
0.618161
0.632389
0.646591
0.660503
0.674259
0.687396
0.699933
0.712119
0.72371
0.733556
0.739617
0.745247
0.748766
0.751736
0.754016
0.64144
0.626474
0.598931
0.564409
0.534175
0.509918
0.496916
0.492329
0.492506
0.498921
0.509639
0.523318
0.538583
0.55427
0.569569
0.584174
0.598205
0.611295
0.624661
0.63726
0.649592
0.661408
0.672467
0.682969
0.693444
0.703689
0.712725
0.719883
0.725397
0.730085
0.734019
0.736959
0.740305
0.561963
0.557539
0.55119
0.536477
0.521135
0.508099
0.502107
0.500702
0.503289
0.511293
0.523177
0.537455
0.552977
0.568328
0.582873
0.596357
0.609747
0.621785
0.631948
0.641862
0.650881
0.659367
0.667334
0.675424
0.683531
0.691009
0.697198
0.702181
0.706477
0.710481
0.714559
0.718932
0.723895
0.482383
0.481347
0.490934
0.497862
0.500998
0.50224
0.50342
0.50681
0.513291
0.523418
0.53687
0.551889
0.567654
0.583339
0.598485
0.611228
0.621507
0.630604
0.637602
0.643396
0.648825
0.653991
0.659104
0.664341
0.66928
0.673363
0.677361
0.680238
0.683176
0.686677
0.69157
0.69803
0.705227
0.424058
0.428853
0.443288
0.46006
0.476215
0.488892
0.499153
0.509012
0.520015
0.533205
0.548041
0.564048
0.580662
0.596388
0.610111
0.621124
0.629064
0.634511
0.63724
0.640432
0.643171
0.645012
0.647045
0.649031
0.650778
0.652546
0.653234
0.654564
0.656852
0.660453
0.666734
0.675145
0.684373
0.390177
0.396957
0.412273
0.430969
0.450845
0.470403
0.488365
0.504371
0.519823
0.535399
0.551948
0.5687
0.584909
0.599848
0.612521
0.621815
0.627546
0.630314
0.631519
0.632427
0.63214
0.631338
0.630351
0.629363
0.628516
0.62725
0.626711
0.627229
0.629309
0.633896
0.641978
0.651803
0.665688
0.373171
0.379862
0.395498
0.410485
0.429962
0.451339
0.471775
0.491587
0.51028
0.528317
0.545782
0.56335
0.579295
0.593524
0.604912
0.612499
0.616727
0.61849
0.61882
0.617712
0.61542
0.61249
0.609144
0.605992
0.603049
0.601039
0.600236
0.601231
0.604114
0.610445
0.619181
0.63293
0.647234
0.364826
0.372247
0.383992
0.398395
0.41639
0.436055
0.455419
0.475812
0.495638
0.514587
0.532381
0.548649
0.562991
0.576066
0.587138
0.594064
0.598172
0.599453
0.599251
0.597067
0.593576
0.589248
0.584714
0.580695
0.577898
0.576613
0.576955
0.579247
0.58379
0.590759
0.602117
0.615985
0.633186
0.361667
0.369035
0.379301
0.391968
0.407808
0.424593
0.442235
0.461122
0.47993
0.498097
0.515409
0.531315
0.545567
0.557183
0.56651
0.573017
0.575926
0.576732
0.575814
0.572881
0.568748
0.564353
0.56013
0.557237
0.555989
0.556256
0.558908
0.562444
0.568624
0.577037
0.589909
0.605389
0.624842
0.3615
0.369037
0.37846
0.389731
0.4026
0.416759
0.431838
0.448284
0.464907
0.481655
0.497754
0.512764
0.526257
0.536974
0.545561
0.550509
0.552366
0.552618
0.551184
0.548355
0.544867
0.541442
0.539124
0.538283
0.538981
0.541752
0.546338
0.552106
0.55873
0.570659
0.583138
0.599813
0.618565
0.363987
0.37107
0.3798
0.389663
0.400765
0.413118
0.42634
0.440326
0.4548
0.469281
0.483191
0.496101
0.50751
0.516906
0.524285
0.528567
0.530062
0.530218
0.529103
0.527013
0.524933
0.523783
0.523669
0.525415
0.5289
0.534257
0.53962
0.546641
0.554508
0.566316
0.579998
0.596109
0.615818
0.367347
0.374041
0.381732
0.390599
0.40029
0.411017
0.422484
0.434644
0.446997
0.459319
0.471182
0.482241
0.491999
0.499971
0.506054
0.509996
0.511664
0.512075
0.511829
0.511275
0.51122
0.512283
0.514767
0.518932
0.52455
0.531007
0.537259
0.544232
0.554327
0.564865
0.578886
0.594521
0.613507
0.371027
0.377168
0.384214
0.392047
0.400749
0.410155
0.420243
0.430668
0.441425
0.452191
0.462603
0.472236
0.480732
0.487701
0.492945
0.496598
0.498706
0.499824
0.500603
0.501665
0.503564
0.506736
0.511229
0.516821
0.523626
0.529917
0.537284
0.544084
0.554404
0.565516
0.577762
0.593049
0.611869
0.375001
0.380494
0.386812
0.393863
0.401614
0.410002
0.418934
0.428319
0.437934
0.447639
0.456967
0.465656
0.473333
0.479652
0.48459
0.488245
0.49079
0.492753
0.49467
0.497066
0.500353
0.504874
0.510676
0.517649
0.525343
0.531878
0.538969
0.546559
0.555496
0.565867
0.578114
0.591894
0.612696
0.37919
0.3839
0.389566
0.39597
0.402982
0.410369
0.418409
0.427101
0.436018
0.444823
0.453078
0.461159
0.468401
0.474354
0.479175
0.483052
0.486218
0.48915
0.492241
0.495875
0.500533
0.506472
0.513545
0.521473
0.528947
0.536223
0.542434
0.550736
0.55855
0.567949
0.578148
0.593211
0.610529
0.384284
0.387843
0.39256
0.398289
0.404255
0.411209
0.418845
0.426773
0.434917
0.443051
0.450649
0.458399
0.465522
0.471273
0.476102
0.480266
0.483994
0.487693
0.491918
0.497099
0.503413
0.510848
0.519312
0.527823
0.534805
0.541874
0.548201
0.554851
0.561887
0.5697
0.579152
0.593952
0.609266
0.390461
0.392251
0.396295
0.400587
0.40635
0.412767
0.419584
0.426884
0.434245
0.442211
0.450855
0.458318
0.464817
0.470355
0.475308
0.479794
0.484175
0.488986
0.494652
0.501476
0.509481
0.51835
0.527482
0.535301
0.542822
0.548802
0.555354
0.560336
0.566056
0.571676
0.582681
0.593779
0.608314
0.39931
0.398324
0.400284
0.404191
0.409198
0.414748
0.420974
0.427681
0.434864
0.443321
0.450628
0.45757
0.463998
0.469795
0.47495
0.480047
0.485438
0.491572
0.498804
0.507329
0.516959
0.527194
0.537233
0.544555
0.551633
0.557308
0.562293
0.56671
0.57081
0.575729
0.584833
0.594089
0.607483
0.410033
0.406333
0.406176
0.408835
0.412723
0.417529
0.423125
0.429198
0.436917
0.444145
0.45135
0.458165
0.464821
0.471003
0.476323
0.482133
0.488636
0.496247
0.505131
0.515748
0.527552
0.538848
0.547193
0.555368
0.561576
0.566807
0.570738
0.573471
0.575125
0.581521
0.586984
0.594715
0.606071
0.425085
0.41653
0.414358
0.414654
0.417602
0.421749
0.426548
0.432242
0.439558
0.446335
0.453037
0.460071
0.466794
0.473401
0.478584
0.485959
0.493479
0.503104
0.514028
0.527037
0.54045
0.549674
0.558986
0.567296
0.573809
0.577741
0.579844
0.580705
0.58124
0.58543
0.589176
0.594953
0.60419
0.444242
0.429188
0.423922
0.422507
0.423752
0.426861
0.430557
0.43667
0.443169
0.44913
0.456184
0.46307
0.470256
0.476995
0.482853
0.491426
0.500627
0.511861
0.524908
0.538624
0.550522
0.561844
0.572401
0.580804
0.58602
0.588273
0.588789
0.58737
0.588186
0.58833
0.590201
0.594196
0.601436
0.474665
0.445804
0.435685
0.43225
0.431625
0.433425
0.436188
0.442249
0.44772
0.453386
0.460336
0.467439
0.475289
0.481911
0.489069
0.498666
0.509286
0.52184
0.535686
0.549226
0.562889
0.575483
0.586576
0.594227
0.598054
0.599405
0.59827
0.594108
0.592095
0.590003
0.589734
0.591819
0.597366
0.516035
0.467649
0.450012
0.443541
0.44155
0.441646
0.443384
0.448977
0.45334
0.458925
0.465628
0.473087
0.481511
0.4873
0.496477
0.506813
0.518396
0.531827
0.546492
0.561214
0.575905
0.589446
0.600497
0.606893
0.609479
0.609901
0.606485
0.599597
0.593289
0.588473
0.587021
0.587355
0.591545
0.574227
0.499791
0.467917
0.456845
0.452698
0.451577
0.452127
0.456938
0.460323
0.465607
0.472022
0.479712
0.488392
0.494252
0.504556
0.515609
0.527823
0.541949
0.557807
0.573157
0.588691
0.602561
0.613092
0.618601
0.620477
0.61924
0.612693
0.602426
0.591155
0.584007
0.581259
0.580829
0.583724
0.650204
0.542589
0.492704
0.4729
0.465724
0.463102
0.462473
0.466207
0.468673
0.473376
0.479356
0.486984
0.49576
0.501854
0.512929
0.524601
0.537103
0.552898
0.568222
0.584569
0.600524
0.614219
0.62407
0.628879
0.630364
0.626668
0.616238
0.601726
0.586849
0.577215
0.573487
0.5724
0.574625
0.739609
0.598748
0.524375
0.491475
0.480367
0.475865
0.47447
0.476745
0.478354
0.482157
0.487524
0.494781
0.503249
0.509608
0.521434
0.533402
0.546388
0.562659
0.578009
0.594798
0.610035
0.624487
0.633456
0.637521
0.638541
0.631721
0.616906
0.598106
0.580176
0.569269
0.56462
0.563299
0.566003
0.826539
0.6681
0.565343
0.516994
0.497207
0.490475
0.488059
0.4883
0.489336
0.4918
0.496112
0.50284
0.510586
0.517673
0.529735
0.541643
0.555699
0.57061
0.586689
0.603157
0.618227
0.63216
0.640729
0.644117
0.644328
0.634726
0.616252
0.593641
0.573735
0.562657
0.558063
0.556935
0.559917
0.897402
0.744973
0.617215
0.54984
0.518509
0.50684
0.502607
0.50111
0.501539
0.502247
0.505373
0.510942
0.519107
0.525611
0.537415
0.549518
0.563335
0.577659
0.593617
0.609229
0.624332
0.637272
0.645395
0.648455
0.647654
0.635756
0.614401
0.589013
0.568174
0.557586
0.553518
0.552786
0.557139
0.949522
0.818396
0.676261
0.58811
0.545526
0.52632
0.518908
0.515443
0.514211
0.5137
0.515699
0.520071
0.527201
0.533833
0.544437
0.556415
0.569312
0.583447
0.598512
0.613363
0.627938
0.639737
0.647114
0.64994
0.648071
0.635047
0.612247
0.585591
0.564317
0.553957
0.55037
0.549992
0.555652
0.989887
0.879922
0.739208
0.630376
0.574532
0.549146
0.53728
0.531986
0.528951
0.527757
0.527294
0.529509
0.534548
0.541833
0.550349
0.561906
0.5741
0.587398
0.601434
0.615479
0.628888
0.639515
0.646277
0.648843
0.646579
0.632893
0.610324
0.584097
0.562694
0.552184
0.548884
0.548979
0.555385
1.01967
0.930178
0.798502
0.677105
0.607146
0.574376
0.556882
0.549798
0.544696
0.541305
0.53979
0.539441
0.542208
0.548265
0.555352
0.566123
0.577319
0.589689
0.602469
0.615352
0.627765
0.637453
0.643299
0.645587
0.642794
0.629914
0.608353
0.583432
0.562099
0.55143
0.548139
0.548671
0.555286
1.04385
0.970468
0.851884
0.726208
0.640577
0.599368
0.580236
0.568084
0.561846
0.555863
0.552294
0.550192
0.550034
0.553582
0.560196
0.56864
0.579006
0.590312
0.602111
0.614021
0.62489
0.633133
0.638122
0.640179
0.637273
0.625508
0.60582
0.582569
0.561597
0.550194
0.546613
0.547168
0.553608
1.06263
1.00199
0.897943
0.772888
0.676533
0.626062
0.6031
0.587156
0.580076
0.572531
0.565408
0.561331
0.558785
0.559386
0.56362
0.570618
0.57972
0.589985
0.600624
0.610885
0.620575
0.627935
0.632051
0.633735
0.63061
0.62007
0.602196
0.580746
0.560574
0.548394
0.543935
0.543881
0.54957
1.07696
1.0278
0.935471
0.816766
0.713891
0.65175
0.622964
0.60862
0.598049
0.590433
0.58064
0.573565
0.568174
0.566311
0.567473
0.572385
0.579954
0.588848
0.598132
0.607425
0.615532
0.621275
0.62425
0.625337
0.622148
0.61282
0.597085
0.577658
0.558719
0.54564
0.540147
0.53953
0.5437
1.08781
1.04796
0.965777
0.85515
0.748704
0.677994
0.64354
0.627836
0.614698
0.608624
0.598556
0.587561
0.579031
0.574049
0.572526
0.574325
0.579688
0.586925
0.59499
0.603024
0.609963
0.614223
0.616082
0.61637
0.612971
0.60444
0.590698
0.573262
0.555651
0.541876
0.535464
0.534051
0.536837
1.09586
1.06286
0.990874
0.887467
0.780801
0.705087
0.66245
0.644084
0.630782
0.625002
0.616141
0.603221
0.592295
0.582916
0.578393
0.577002
0.579307
0.584727
0.591565
0.598637
0.604384
0.607415
0.608461
0.607693
0.603771
0.595762
0.583394
0.56772
0.551397
0.537493
0.530294
0.528238
0.529797
1.10011
1.07382
1.0108
0.913585
0.810083
0.730042
0.680058
0.656817
0.646263
0.637346
0.631676
0.620953
0.607524
0.593754
0.585019
0.580852
0.579778
0.582467
0.587752
0.593983
0.598854
0.601232
0.601877
0.600292
0.595613
0.587615
0.57611
0.561761
0.546543
0.533136
0.525484
0.522975
0.523719
1.10152
1.0809
1.0257
0.935746
0.835844
0.751129
0.698284
0.669307
0.657419
0.647253
0.643863
0.635687
0.622517
0.608417
0.593636
0.585482
0.58155
0.580828
0.583979
0.589112
0.594146
0.596303
0.596484
0.593726
0.588729
0.58105
0.57
0.556397
0.542036
0.529506
0.521956
0.5194
0.520242
1.09982
1.08395
1.03694
0.953631
0.856717
0.77148
0.715258
0.680116
0.664167
0.65629
0.650734
0.645844
0.636245
0.622318
0.60595
0.592539
0.583886
0.580319
0.579849
0.583321
0.588374
0.591335
0.592181
0.591036
0.586775
0.578762
0.567094
0.552948
0.538605
0.527268
0.520642
0.5185
0.520041
1.09596
1.08473
1.04504
0.968197
0.874149
0.789814
0.727585
0.691296
0.669757
0.661126
0.653396
0.650075
0.643834
0.633376
0.617513
0.600365
0.587999
0.581309
0.578279
0.577895
0.580244
0.584049
0.58594
0.586201
0.58323
0.576845
0.566484
0.553214
0.539442
0.527934
0.521933
0.520884
0.522955
1.09092
1.08322
1.04969
0.981061
0.889148
0.804867
0.74154
0.701633
0.676182
0.663687
0.655194
0.650055
0.645122
0.638168
0.626098
0.610114
0.593328
0.580433
0.573362
0.57089
0.572281
0.576906
0.579988
0.581021
0.579365
0.574191
0.565596
0.554272
0.541979
0.531564
0.526084
0.526952
0.532273
1.08438
1.08026
1.05174
0.991194
0.903884
0.819038
0.753978
0.709377
0.685355
0.665474
0.656336
0.647494
0.643132
0.636742
0.627907
0.615535
0.60027
0.584558
0.573682
0.567721
0.565092
0.564704
0.566588
0.568541
0.569062
0.56754
0.562893
0.555422
0.546172
0.53789
0.533675
0.535925
0.54333
1.07791
1.07862
1.05269
0.999802
0.918718
0.833027
0.766044
0.720534
0.688768
0.670169
0.65636
0.647312
0.639963
0.633316
0.625607
0.614907
0.601819
0.586341
0.570767
0.560882
0.556173
0.55457
0.555738
0.558637
0.559722
0.559912
0.558482
0.554944
0.55027
0.545382
0.543875
0.546718
0.556714
1.06788
1.07655
1.0565
1.00746
0.932993
0.848804
0.778128
0.730448
0.698025
0.677091
0.658893
0.646675
0.635343
0.627073
0.619324
0.610738
0.599089
0.585674
0.572669
0.562841
0.555417
0.552043
0.55037
0.55034
0.551007
0.551012
0.550134
0.549576
0.549177
0.549248
0.551709
0.558421
0.570694
1.0535
1.07491
1.06248
1.01603
0.947482
0.865425
0.792901
0.740209
0.707037
0.680796
0.668028
0.647876
0.634883
0.619954
0.611419
0.601271
0.591766
0.580578
0.569079
0.558607
0.549914
0.545391
0.542614
0.541917
0.543147
0.543625
0.544759
0.547238
0.550594
0.554405
0.560645
0.572854
0.585064
1.03022
1.07348
1.06951
1.02815
0.962623
0.882534
0.807736
0.752078
0.714636
0.689589
0.667972
0.651991
0.635697
0.62178
0.606321
0.593457
0.58103
0.570472
0.561652
0.554396
0.549163
0.547128
0.546271
0.546957
0.547622
0.548014
0.549061
0.551009
0.554639
0.560843
0.569129
0.581131
0.599478
0.992295
1.06737
1.07821
1.04423
0.978142
0.898943
0.821702
0.761823
0.721046
0.69376
0.672471
0.657357
0.639809
0.623442
0.606555
0.588859
0.573564
0.560516
0.55168
0.547926
0.54878
0.553157
0.560524
0.566976
0.56968
0.568261
0.565058
0.563214
0.563767
0.568701
0.57777
0.590823
0.608171
0.936597
1.04996
1.08742
1.06323
0.993659
0.913817
0.83327
0.768467
0.723399
0.693815
0.672673
0.656927
0.643256
0.624153
0.60505
0.58628
0.567797
0.553507
0.545953
0.546589
0.554248
0.569877
0.589239
0.604547
0.609645
0.601438
0.590294
0.581006
0.57647
0.57826
0.586363
0.599732
0.618233
0.866953
1.01414
1.0913
1.08144
1.01073
0.926482
0.841865
0.771461
0.721489
0.688384
0.666719
0.649828
0.635795
0.620791
0.601773
0.581185
0.562166
0.547774
0.543099
0.549199
0.566263
0.595797
0.628421
0.649752
0.653635
0.63849
0.617606
0.600416
0.589495
0.586709
0.593699
0.607149
0.625693
0.79928
0.95718
1.07915
1.09341
1.02921
0.935529
0.847609
0.771689
0.717227
0.680489
0.655658
0.638344
0.626347
0.614213
0.596649
0.575898
0.556662
0.545188
0.545357
0.557921
0.588227
0.631636
0.673305
0.692293
0.691189
0.66886
0.639705
0.615136
0.598595
0.593288
0.597492
0.610849
0.629559
0.748488
0.889719
1.04614
1.09785
1.04418
0.942141
0.850263
0.76957
0.710737
0.670847
0.642885
0.626103
0.611138
0.600409
0.585746
0.568732
0.552434
0.546176
0.553933
0.577367
0.623779
0.676996
0.716193
0.730009
0.716774
0.68781
0.653035
0.625283
0.60649
0.597601
0.599385
0.610728
0.630902
0.717017
0.83005
0.995961
1.08587
1.05065
0.945643
0.85033
0.765832
0.703673
0.661482
0.632561
0.612777
0.597952
0.587938
0.57832
0.563455
0.553801
0.554141
0.572104
0.615406
0.675506
0.725622
0.75077
0.752024
0.730949
0.696769
0.661385
0.63217
0.611475
0.600377
0.600274
0.609715
0.628319
0.700874
0.79194
0.942886
1.05647
1.04982
0.947574
0.848102
0.760964
0.696726
0.653477
0.624471
0.603365
0.590106
0.580709
0.574116
0.564677
0.562153
0.574075
0.609626
0.672703
0.7332
0.767274
0.773819
0.762163
0.735401
0.700244
0.665571
0.636323
0.614722
0.60167
0.598468
0.605844
0.622101
0.693717
0.770554
0.897746
1.01692
1.03533
0.946549
0.843593
0.755286
0.690458
0.647617
0.619531
0.600219
0.59001
0.582131
0.579075
0.575459
0.582989
0.613477
0.672381
0.740029
0.781044
0.79224
0.784257
0.765521
0.736126
0.701177
0.668671
0.639778
0.616126
0.600027
0.593381
0.5984
0.613326
0.692034
0.760639
0.867196
0.977896
1.01151
0.93967
0.837361
0.749398
0.685513
0.644432
0.618727
0.602641
0.594252
0.591086
0.59323
0.600189
0.625325
0.677788
0.74409
0.791987
0.808546
0.804148
0.789421
0.765909
0.735621
0.70366
0.671265
0.640554
0.614008
0.594749
0.584408
0.587092
0.600014
0.696794
0.757765
0.850117
0.945378
0.984228
0.928347
0.830153
0.743853
0.682413
0.644316
0.621979
0.610588
0.606967
0.611617
0.623133
0.645757
0.689467
0.746928
0.796409
0.819833
0.821067
0.811777
0.794315
0.768373
0.739949
0.707168
0.672379
0.638646
0.608994
0.585814
0.573311
0.572998
0.583837
0.70654
0.761618
0.843461
0.92319
0.95992
0.913923
0.822186
0.738978
0.681477
0.647308
0.630237
0.624246
0.626576
0.638889
0.659386
0.690242
0.742332
0.793672
0.823823
0.83405
0.830997
0.819272
0.800101
0.775774
0.744978
0.709672
0.672153
0.635028
0.601863
0.575544
0.560108
0.557209
0.565515
0.720067
0.771078
0.843122
0.912032
0.940858
0.8992
0.814058
0.735032
0.682098
0.653538
0.641608
0.638072
0.645491
0.662104
0.688548
0.723644
0.772513
0.812166
0.834627
0.843247
0.839532
0.827661
0.810085
0.784689
0.751964
0.712293
0.669469
0.62776
0.591299
0.563219
0.546369
0.54078
0.546825
0.735914
0.78532
0.849811
0.908477
0.929566
0.88746
0.80703
0.73316
0.685072
0.660824
0.652239
0.651603
0.661307
0.679532
0.705334
0.742043
0.784506
0.816447
0.836841
0.846358
0.84766
0.839312
0.821547
0.794779
0.758503
0.714161
0.665724
0.618879
0.578946
0.549266
0.53157
0.524957
0.529269
0.753034
0.801873
0.86073
0.910069
0.924505
0.880954
0.80378
0.734885
0.691186
0.669615
0.660161
0.663921
0.674172
0.691581
0.716142
0.75161
0.78682
0.819436
0.843389
0.854739
0.856741
0.84998
0.833954
0.807103
0.767803
0.717084
0.66089
0.607935
0.564759
0.533907
0.516686
0.510433
0.512431
0.770485
0.819267
0.873902
0.916049
0.922936
0.878612
0.803968
0.739687
0.698758
0.678694
0.670251
0.674174
0.683829
0.699398
0.725576
0.757601
0.790707
0.821476
0.846266
0.859119
0.862945
0.860355
0.848003
0.823102
0.781379
0.722769
0.655972
0.595089
0.54856
0.518049
0.502017
0.497078
0.499683
0.787609
0.836235
0.887518
0.923782
0.923767
0.878514
0.808385
0.747761
0.708857
0.687631
0.68177
0.68319
0.691806
0.706688
0.732932
0.760967
0.790422
0.819752
0.843575
0.85894
0.865838
0.866853
0.859376
0.83896
0.797576
0.731478
0.65205
0.581212
0.530976
0.502022
0.488485
0.484651
0.48929
0.803849
0.85174
0.899859
0.931826
0.926916
0.881884
0.817671
0.760394
0.721047
0.698396
0.692557
0.691142
0.697885
0.711554
0.734987
0.760066
0.787421
0.814413
0.837224
0.8546
0.863788
0.866981
0.863954
0.848804
0.810174
0.740263
0.649623
0.568358
0.514252
0.487127
0.476964
0.47453
0.480655
0.818267
0.865139
0.90974
0.937216
0.931576
0.8889
0.831113
0.776685
0.735989
0.71099
0.701956
0.698125
0.701253
0.714403
0.733814
0.756493
0.780773
0.805299
0.826839
0.844198
0.855451
0.8602
0.8596
0.849135
0.812673
0.74339
0.647836
0.558613
0.500975
0.474022
0.465754
0.467287
0.474465
0.830132
0.874291
0.915358
0.939449
0.936211
0.899226
0.848442
0.796724
0.754042
0.724734
0.711178
0.704809
0.703741
0.715244
0.730772
0.750267
0.772101
0.793254
0.813893
0.831332
0.842418
0.847422
0.846638
0.83595
0.802612
0.735236
0.643919
0.553682
0.492584
0.464295
0.456073
0.459535
0.471487
0.837019
0.878513
0.917138
0.939945
0.939751
0.911833
0.869571
0.822118
0.77375
0.741569
0.720835
0.710462
0.709023
0.714819
0.727603
0.744453
0.76315
0.782792
0.802163
0.817707
0.827081
0.828299
0.824911
0.811849
0.777328
0.714653
0.63529
0.55274
0.490396
0.45876
0.449043
0.452816
0.468237
0.83946
0.879514
0.916369
0.939007
0.943034
0.925543
0.892634
0.849818
0.798334
0.762378
0.733293
0.718723
0.714638
0.715884
0.724939
0.739314
0.754922
0.772964
0.790545
0.803245
0.806472
0.803807
0.795261
0.776122
0.739191
0.684367
0.620317
0.552481
0.493573
0.457962
0.445515
0.447681
0.46418
0.839204
0.876465
0.911905
0.936618
0.946041
0.939373
0.915633
0.878227
0.827052
0.787154
0.749716
0.729702
0.720911
0.718202
0.724386
0.73291
0.747637
0.763291
0.77604
0.78292
0.782731
0.77458
0.758646
0.733016
0.696058
0.649656
0.600658
0.550028
0.498979
0.461122
0.44541
0.445333
0.461189
0.834822
0.869466
0.903966
0.933018
0.949438
0.951499
0.936538
0.905598
0.858362
0.815515
0.771311
0.743261
0.727968
0.722414
0.723639
0.72942
0.740992
0.753564
0.761264
0.762799
0.756739
0.74164
0.718931
0.690259
0.656819
0.618291
0.580493
0.543665
0.502281
0.466339
0.447284
0.445781
0.460764
0.826774
0.859878
0.894964
0.927795
0.952131
0.961719
0.953747
0.930329
0.889718
0.845924
0.79695
0.761191
0.737355
0.726907
0.723656
0.727153
0.734991
0.741692
0.744439
0.739674
0.727992
0.707746
0.681001
0.653765
0.621328
0.590462
0.560942
0.533164
0.502034
0.470564
0.45059
0.44763
0.462228
0.816655
0.848807
0.885226
0.921847
0.952782
0.969134
0.967479
0.951379
0.918483
0.87628
0.826099
0.783245
0.749403
0.732137
0.72541
0.724898
0.727568
0.728521
0.72499
0.71482
0.698493
0.678122
0.650227
0.6247
0.598044
0.572513
0.548146
0.525484
0.498388
0.471707
0.453408
0.450349
0.465096
0.807007
0.837362
0.875093
0.915367
0.951159
0.973829
0.977783
0.968472
0.942749
0.904303
0.855661
0.808222
0.766071
0.739988
0.727049
0.72131
0.718261
0.715126
0.704981
0.690764
0.671905
0.650741
0.630027
0.608796
0.586746
0.565081
0.544596
0.523638
0.498415
0.470912
0.454558
0.453067
0.469084
0.798534
0.826985
0.865137
0.908154
0.9478
0.975393
0.985828
0.98153
0.962048
0.928321
0.882675
0.832901
0.78496
0.751084
0.730286
0.718512
0.709274
0.699972
0.686041
0.669314
0.651521
0.632848
0.618241
0.602358
0.584864
0.569671
0.554047
0.533295
0.503192
0.472324
0.456923
0.455948
0.473126
0.790097
0.818013
0.856255
0.900372
0.943453
0.97558
0.991363
0.99105
0.97687
0.947875
0.90595
0.855752
0.804578
0.763846
0.735642
0.716947
0.700845
0.685991
0.669415
0.652593
0.638089
0.623419
0.613541
0.603804
0.595757
0.590467
0.581903
0.559365
0.51743
0.478508
0.461054
0.458271
0.476296
0.783251
0.809637
0.846787
0.89198
0.937804
0.974057
0.994444
0.997936
0.988367
0.963621
0.925242
0.876558
0.82364
0.777372
0.74236
0.716856
0.694863
0.674765
0.655784
0.638511
0.625219
0.618008
0.614129
0.612885
0.615274
0.61838
0.618566
0.599398
0.548468
0.496646
0.468844
0.463419
0.479578
0.775793
0.801736
0.836398
0.881979
0.930436
0.97106
0.995512
1.00317
0.997525
0.976577
0.941548
0.894885
0.841453
0.791027
0.749961
0.718358
0.692119
0.668295
0.64765
0.63101
0.618904
0.612875
0.612911
0.621735
0.6323
0.641268
0.647287
0.638113
0.594758
0.527315
0.488354
0.475082
0.48355
0.767712
0.792684
0.826948
0.870764
0.920411
0.966438
0.995817
1.00806
1.00488
0.987446
0.955575
0.91123
0.858056
0.804638
0.758643
0.722052
0.692137
0.666406
0.644569
0.626977
0.616646
0.613632
0.617068
0.624343
0.634421
0.65018
0.662747
0.659497
0.63757
0.589204
0.527862
0.500457
0.49797
1.2793
1.32243
1.35451
1.36948
1.37119
1.36492
1.35435
1.31931
1.27505
1.31288
1.34004
1.34775
1.35038
1.33708
1.32431
1.29306
1.24451
1.2822
1.30673
1.31275
1.31519
1.30584
1.28642
1.25649
1.19222
1.23522
1.26111
1.27072
1.27361
1.26486
1.24542
1.22024
1.1234
1.17385
1.20427
1.22084
1.22685
1.2199
1.20219
1.17653
1.04546
1.10118
1.13953
1.16596
1.1746
1.1726
1.16065
1.14082
0.970516
1.02532
1.06923
1.10258
1.12006
1.12661
1.12139
1.11032
0.908983
0.957044
0.999758
1.03648
1.06395
1.08001
1.08468
1.08218
0.864715
0.902505
0.939671
0.975607
1.0061
1.02989
1.04474
1.05174
0.835995
0.862398
0.893898
0.924952
0.954078
0.979532
0.999155
1.01293
0.816396
0.836765
0.859322
0.883865
0.907617
0.929615
0.949408
0.96647
0.805867
0.819286
0.833935
0.849747
0.866186
0.883114
0.898856
0.915497
0.798986
0.807499
0.81603
0.824548
0.83331
0.843436
0.855424
0.869554
0.79449
0.799632
0.80385
0.807213
0.810865
0.815945
0.823598
0.835396
0.791577
0.794157
0.795669
0.79633
0.796947