/*--------------------------------*- C++ -*----------------------------------*\
  =========                 |
  \\      /  F ield         | OpenFOAM: The Open Source CFD Toolbox
   \\    /   O peration     | Website:  https://openfoam.org
    \\  /    A nd           | Version:  10
     \\/     M anipulation  |
\*---------------------------------------------------------------------------*/
FoamFile
{
    format      ascii;
    class       volVectorField;
    location    "0.40069";
    object      U;
}
// * * * * * * * * * * * * * * * * * * * * * * * * * * * * * * * * * * * * * //

dimensions      [0 1 -1 0 0 0 0];

internalField   nonuniform List<vector> 
16320
(
(0.34086 0.120953 0)
(0.302427 0.157656 0)
(0.25141 0.187579 0)
(0.221337 0.221248 0)
(0.195677 0.237833 0)
(0.178277 0.238844 0)
(0.171386 0.231511 0)
(0.17146 0.220782 0)
(0.174166 0.210562 0)
(0.176044 0.203853 0)
(0.172482 0.197827 0)
(0.161781 0.194256 0)
(0.147111 0.194337 0)
(0.131208 0.196933 0)
(0.119796 0.20302 0)
(0.117831 0.214013 0)
(0.126849 0.229565 0)
(0.146343 0.24783 0)
(0.174113 0.26636 0)
(0.208195 0.282195 0)
(0.246504 0.291958 0)
(0.285671 0.29368 0)
(0.324065 0.285817 0)
(0.359285 0.267485 0)
(0.387855 0.237988 0)
(0.405339 0.197094 0)
(0.40523 0.143998 0)
(0.384633 0.0817026 0)
(0.344007 0.0135891 0)
(0.295052 -0.0529435 0)
(0.243491 -0.106837 0)
(0.194221 -0.151947 0)
(0.158774 -0.181713 0)
(0.277438 0.148677 0)
(0.255799 0.17149 0)
(0.203662 0.18344 0)
(0.175243 0.200244 0)
(0.157468 0.203999 0)
(0.151007 0.198689 0)
(0.153675 0.1898 0)
(0.160989 0.180522 0)
(0.169571 0.173205 0)
(0.174839 0.168761 0)
(0.172612 0.165525 0)
(0.164149 0.165921 0)
(0.153145 0.169636 0)
(0.142289 0.176104 0)
(0.136131 0.185956 0)
(0.139049 0.198842 0)
(0.151879 0.21417 0)
(0.173528 0.230828 0)
(0.202433 0.246924 0)
(0.236077 0.25984 0)
(0.272362 0.26653 0)
(0.309233 0.264508 0)
(0.344727 0.25208 0)
(0.375937 0.227348 0)
(0.399772 0.188325 0)
(0.411559 0.135151 0)
(0.407426 0.0694416 0)
(0.389284 -0.00333218 0)
(0.363936 -0.0695955 0)
(0.328983 -0.114718 0)
(0.283755 -0.145338 0)
(0.239394 -0.166197 0)
(0.206381 -0.173257 0)
(0.207377 0.15663 0)
(0.189149 0.158883 0)
(0.154668 0.158198 0)
(0.132983 0.162436 0)
(0.126048 0.159055 0)
(0.131576 0.153458 0)
(0.143742 0.14774 0)
(0.158227 0.143091 0)
(0.171702 0.140529 0)
(0.179396 0.138575 0)
(0.179773 0.138151 0)
(0.17463 0.141409 0)
(0.166264 0.148557 0)
(0.159642 0.159564 0)
(0.158463 0.173726 0)
(0.166275 0.190226 0)
(0.183042 0.207003 0)
(0.20714 0.222832 0)
(0.236472 0.235817 0)
(0.268715 0.243415 0)
(0.301761 0.243489 0)
(0.334108 0.233466 0)
(0.363894 0.210919 0)
(0.387468 0.172935 0)
(0.402071 0.118766 0)
(0.405868 0.050178 0)
(0.404537 -0.0282002 0)
(0.402582 -0.0957962 0)
(0.392565 -0.141917 0)
(0.368747 -0.167699 0)
(0.331206 -0.178013 0)
(0.293171 -0.17619 0)
(0.257354 -0.164027 0)
(0.124082 0.126804 0)
(0.111541 0.12077 0)
(0.0998836 0.11088 0)
(0.0956211 0.110259 0)
(0.10215 0.107237 0)
(0.119279 0.10641 0)
(0.140194 0.106867 0)
(0.1613 0.108687 0)
(0.178627 0.111204 0)
(0.189479 0.113507 0)
(0.19377 0.11765 0)
(0.192507 0.124322 0)
(0.187925 0.133876 0)
(0.184993 0.147222 0)
(0.188025 0.163695 0)
(0.199017 0.181868 0)
(0.217634 0.199053 0)
(0.241947 0.212868 0)
(0.269561 0.220848 0)
(0.298317 0.221168 0)
(0.326213 0.211556 0)
(0.351391 0.188704 0)
(0.370868 0.14952 0)
(0.382284 0.0934936 0)
(0.388331 0.024035 0)
(0.397194 -0.0520993 0)
(0.409826 -0.113867 0)
(0.418567 -0.159777 0)
(0.419521 -0.188539 0)
(0.406335 -0.20055 0)
(0.380672 -0.198856 0)
(0.344523 -0.183219 0)
(0.305135 -0.15699 0)
(0.0156301 0.0454507 0)
(0.026432 0.0519252 0)
(0.0398686 0.0478845 0)
(0.0646835 0.0567761 0)
(0.0849768 0.0606723 0)
(0.111967 0.0648663 0)
(0.140213 0.0707296 0)
(0.166496 0.0777979 0)
(0.187378 0.08471 0)
(0.202109 0.0919408 0)
(0.211143 0.100405 0)
(0.214792 0.11073 0)
(0.215384 0.12344 0)
(0.216923 0.138732 0)
(0.222871 0.155548 0)
(0.235269 0.171749 0)
(0.253473 0.185095 0)
(0.275336 0.192927 0)
(0.298649 0.192722 0)
(0.32133 0.181882 0)
(0.34015 0.156985 0)
(0.352869 0.116355 0)
(0.360484 0.0608586 0)
(0.36723 -0.00413628 0)
(0.380089 -0.0683989 0)
(0.398832 -0.119872 0)
(0.417702 -0.160373 0)
(0.43292 -0.189529 0)
(0.440563 -0.20754 0)
(0.435996 -0.215236 0)
(0.416994 -0.209804 0)
(0.385243 -0.190318 0)
(0.348265 -0.155817 0)
(-0.0787513 -0.0453666 0)
(-0.0584633 -0.0339165 0)
(-0.0180073 -0.0183977 0)
(0.0357592 0.000931376 0)
(0.0723937 0.0212119 0)
(0.106011 0.0304833 0)
(0.139811 0.0401106 0)
(0.17046 0.0505801 0)
(0.195307 0.0614126 0)
(0.214164 0.0726502 0)
(0.227577 0.084492 0)
(0.236294 0.0976373 0)
(0.242297 0.112537 0)
(0.248294 0.128432 0)
(0.256735 0.144092 0)
(0.26888 0.157082 0)
(0.284492 0.164526 0)
(0.301516 0.1635 0)
(0.317309 0.151141 0)
(0.328957 0.124567 0)
(0.335439 0.0836156 0)
(0.339191 0.0316627 0)
(0.345819 -0.0248477 0)
(0.360754 -0.0758298 0)
(0.381882 -0.116847 0)
(0.405451 -0.149873 0)
(0.427341 -0.17633 0)
(0.443988 -0.197003 0)
(0.453226 -0.21181 0)
(0.452104 -0.218488 0)
(0.439181 -0.213958 0)
(0.415191 -0.194616 0)
(0.384298 -0.158514 0)
(-0.114853 -0.122348 0)
(-0.0965104 -0.108949 0)
(-0.0574768 -0.0866756 0)
(-0.00683851 -0.0633103 0)
(0.0584877 -0.0241583 0)
(0.0970747 -0.00502754 0)
(0.136548 0.00957442 0)
(0.171899 0.0232998 0)
(0.200829 0.0375214 0)
(0.223549 0.0520791 0)
(0.241036 0.0666278 0)
(0.254119 0.0816794 0)
(0.264072 0.0973391 0)
(0.273054 0.112391 0)
(0.282671 0.124832 0)
(0.293137 0.132056 0)
(0.303768 0.130741 0)
(0.31227 0.117602 0)
(0.316842 0.0910962 0)
(0.317982 0.052412 0)
(0.318914 0.00611876 0)
(0.325881 -0.0401652 0)
(0.342881 -0.0792686 0)
(0.365834 -0.109677 0)
(0.391364 -0.135397 0)
(0.415473 -0.15698 0)
(0.434843 -0.175783 0)
(0.448847 -0.191492 0)
(0.456848 -0.203286 0)
(0.45724 -0.20918 0)
(0.448755 -0.205818 0)
(0.431422 -0.189371 0)
(0.407055 -0.157331 0)
(-0.0954566 -0.175157 0)
(-0.0806918 -0.161665 0)
(-0.0505764 -0.141612 0)
(-0.013447 -0.118158 0)
(0.0454762 -0.0805381 0)
(0.0926129 -0.0503977 0)
(0.136121 -0.028353 0)
(0.174952 -0.00959199 0)
(0.207474 0.00831232 0)
(0.233367 0.0258328 0)
(0.253879 0.0425275 0)
(0.269987 0.0583896 0)
(0.282335 0.0731334 0)
(0.29185 0.0855468 0)
(0.299333 0.0925822 0)
(0.304855 0.0913241 0)
(0.307112 0.079033 0)
(0.306087 0.0548667 0)
(0.303736 0.0211616 0)
(0.303987 -0.0165471 0)
(0.312915 -0.0506688 0)
(0.330535 -0.0772726 0)
(0.354558 -0.0975318 0)
(0.380068 -0.114516 0)
(0.403264 -0.129555 0)
(0.423063 -0.144373 0)
(0.438146 -0.158332 0)
(0.447859 -0.170962 0)
(0.452235 -0.181084 0)
(0.451005 -0.186627 0)
(0.443498 -0.184774 0)
(0.429918 -0.172393 0)
(0.411215 -0.14709 0)
(-0.0381387 -0.207148 0)
(-0.0215038 -0.193599 0)
(0.00627669 -0.175015 0)
(0.0372719 -0.152646 0)
(0.0783001 -0.12399 0)
(0.117726 -0.0950037 0)
(0.157108 -0.0691787 0)
(0.19379 -0.0465257 0)
(0.225834 -0.0260796 0)
(0.251802 -0.00671586 0)
(0.272427 0.01118 0)
(0.288653 0.026659 0)
(0.300365 0.0387335 0)
(0.307238 0.0460247 0)
(0.309186 0.0462015 0)
(0.30695 0.0369002 0)
(0.301802 0.0178304 0)
(0.296705 -0.00785196 0)
(0.296811 -0.033895 0)
(0.306487 -0.0544262 0)
(0.323749 -0.0687363 0)
(0.345227 -0.0805485 0)
(0.368046 -0.0905835 0)
(0.389225 -0.101174 0)
(0.407093 -0.11176 0)
(0.42076 -0.122523 0)
(0.429608 -0.133491 0)
(0.433873 -0.144334 0)
(0.434465 -0.152547 0)
(0.431182 -0.157337 0)
(0.42326 -0.15646 0)
(0.411205 -0.147476 0)
(0.396341 -0.128726 0)
(0.0249187 -0.244058 0)
(0.0464371 -0.231091 0)
(0.0780001 -0.212243 0)
(0.112195 -0.189343 0)
(0.14363 -0.164746 0)
(0.17514 -0.137632 0)
(0.206994 -0.110148 0)
(0.237427 -0.0842918 0)
(0.264749 -0.0610269 0)
(0.287128 -0.0406996 0)
(0.304044 -0.0229072 0)
(0.315688 -0.00904241 0)
(0.322097 -0.000333289 0)
(0.322711 0.00188006 0)
(0.317374 -0.00370691 0)
(0.30812 -0.0159805 0)
(0.299781 -0.0312339 0)
(0.298002 -0.044536 0)
(0.305119 -0.0531335 0)
(0.318944 -0.0579712 0)
(0.335583 -0.0619216 0)
(0.353023 -0.0662686 0)
(0.369753 -0.0718267 0)
(0.383991 -0.0785639 0)
(0.395038 -0.0860683 0)
(0.402442 -0.0940443 0)
(0.405515 -0.102532 0)
(0.40596 -0.111496 0)
(0.403916 -0.118596 0)
(0.397814 -0.123264 0)
(0.388347 -0.123587 0)
(0.376702 -0.117814 0)
(0.364201 -0.105054 0)
(0.0794802 -0.286448 0)
(0.1031 -0.276602 0)
(0.134101 -0.259928 0)
(0.167737 -0.237423 0)
(0.201763 -0.210603 0)
(0.234489 -0.181405 0)
(0.264516 -0.152125 0)
(0.290869 -0.124569 0)
(0.31281 -0.0996078 0)
(0.329698 -0.0779944 0)
(0.340722 -0.0601166 0)
(0.345343 -0.0471902 0)
(0.343657 -0.0398925 0)
(0.335262 -0.0387314 0)
(0.322676 -0.0423139 0)
(0.310912 -0.0473206 0)
(0.304558 -0.0501231 0)
(0.305491 -0.0490879 0)
(0.312235 -0.0459242 0)
(0.322414 -0.0432239 0)
(0.333611 -0.0420333 0)
(0.344675 -0.042706 0)
(0.353845 -0.045008 0)
(0.360614 -0.0490413 0)
(0.364405 -0.0535813 0)
(0.365206 -0.0589221 0)
(0.363358 -0.0662535 0)
(0.361426 -0.0748694 0)
(0.357913 -0.0826031 0)
(0.3503 -0.0877932 0)
(0.339748 -0.0892161 0)
(0.328638 -0.0854977 0)
(0.317553 -0.0777192 0)
(0.122926 -0.332824 0)
(0.148195 -0.32556 0)
(0.180543 -0.309545 0)
(0.215383 -0.285762 0)
(0.250139 -0.256345 0)
(0.28307 -0.223576 0)
(0.312849 -0.189793 0)
(0.33814 -0.157307 0)
(0.357756 -0.127835 0)
(0.370645 -0.102171 0)
(0.375963 -0.0818746 0)
(0.37372 -0.0678862 0)
(0.364555 -0.0594423 0)
(0.350353 -0.0551174 0)
(0.334875 -0.0515735 0)
(0.322408 -0.0463673 0)
(0.31566 -0.0388271 0)
(0.314739 -0.030027 0)
(0.31775 -0.0216159 0)
(0.322879 -0.0148763 0)
(0.32803 -0.010473 0)
(0.332239 -0.00882098 0)
(0.334333 -0.00934296 0)
(0.333691 -0.0120977 0)
(0.329622 -0.0162522 0)
(0.32272 -0.0216748 0)
(0.315742 -0.0305949 0)
(0.311296 -0.0395387 0)
(0.305047 -0.0478434 0)
(0.294063 -0.0527892 0)
(0.282594 -0.0540658 0)
(0.27066 -0.0516668 0)
(0.261607 -0.0526609 0)
(0.153807 -0.38457 0)
(0.181607 -0.378524 0)
(0.216141 -0.360653 0)
(0.253118 -0.332392 0)
(0.289484 -0.296064 0)
(0.323473 -0.255056 0)
(0.353083 -0.21316 0)
(0.376697 -0.173689 0)
(0.39392 -0.139119 0)
(0.403503 -0.10933 0)
(0.403806 -0.0850957 0)
(0.396182 -0.0675232 0)
(0.382781 -0.0545816 0)
(0.36609 -0.0442048 0)
(0.349782 -0.0339027 0)
(0.336584 -0.0223112 0)
(0.327793 -0.00960807 0)
(0.322821 0.00260974 0)
(0.320064 0.012924 0)
(0.317961 0.0207026 0)
(0.315348 0.0257357 0)
(0.311971 0.0282865 0)
(0.306484 0.0289592 0)
(0.297974 0.0273353 0)
(0.285902 0.0237607 0)
(0.271356 0.017532 0)
(0.262008 0.00539762 0)
(0.256046 -0.00532712 0)
(0.245154 -0.0131539 0)
(0.231317 -0.0159114 0)
(0.217317 -0.0143234 0)
(0.205728 -0.0220822 0)
(0.214052 -0.0404112 0)
(0.167233 -0.438425 0)
(0.197715 -0.430679 0)
(0.235451 -0.407698 0)
(0.27611 -0.371093 0)
(0.315989 -0.32465 0)
(0.351809 -0.273569 0)
(0.38149 -0.222127 0)
(0.403355 -0.173947 0)
(0.417935 -0.132139 0)
(0.42475 -0.0977175 0)
(0.42111 -0.0695609 0)
(0.409303 -0.0480789 0)
(0.393018 -0.0310534 0)
(0.374694 -0.0157667 0)
(0.357252 -0.000701035 0)
(0.342159 0.01424 0)
(0.329263 0.0282538 0)
(0.31772 0.040271 0)
(0.307127 0.0497485 0)
(0.296927 0.0567611 0)
(0.286712 0.0614975 0)
(0.27579 0.0645391 0)
(0.262937 0.0658054 0)
(0.247126 0.0650305 0)
(0.22841 0.0615893 0)
(0.210346 0.0516884 0)
(0.201051 0.0390107 0)
(0.190721 0.0285626 0)
(0.173439 0.0248581 0)
(0.154252 0.0264835 0)
(0.139046 0.0166889 0)
(0.151101 -0.0126086 0)
(0.187117 -0.0492778 0)
(0.15768 -0.476345 0)
(0.190604 -0.462531 0)
(0.231869 -0.431842 0)
(0.27648 -0.38638 0)
(0.318895 -0.332112 0)
(0.356544 -0.273581 0)
(0.387815 -0.214671 0)
(0.410262 -0.15907 0)
(0.42374 -0.110416 0)
(0.42911 -0.0706054 0)
(0.423772 -0.0388331 0)
(0.409579 -0.0136092 0)
(0.391186 0.00732371 0)
(0.370669 0.0260941 0)
(0.349658 0.0430086 0)
(0.329515 0.0577574 0)
(0.31073 0.0700103 0)
(0.292968 0.0800508 0)
(0.275717 0.0881438 0)
(0.25873 0.0943065 0)
(0.241944 0.0985869 0)
(0.224546 0.101544 0)
(0.20541 0.102962 0)
(0.183314 0.102313 0)
(0.160869 0.0959579 0)
(0.14718 0.0818523 0)
(0.13705 0.0690234 0)
(0.119662 0.0616147 0)
(0.0980783 0.0622919 0)
(0.0791563 0.0523609 0)
(0.0909551 0.0186962 0)
(0.131378 -0.029571 0)
(0.176453 -0.0723911 0)
(0.121403 -0.486772 0)
(0.152692 -0.465836 0)
(0.194457 -0.428365 0)
(0.240358 -0.377219 0)
(0.284437 -0.318602 0)
(0.324846 -0.25595 0)
(0.35945 -0.192584 0)
(0.385017 -0.131544 0)
(0.401023 -0.0769775 0)
(0.408044 -0.0315148 0)
(0.402808 0.00495519 0)
(0.386124 0.0347689 0)
(0.364825 0.0580077 0)
(0.342083 0.0765372 0)
(0.318371 0.0919065 0)
(0.294302 0.104436 0)
(0.270619 0.114453 0)
(0.247505 0.122506 0)
(0.225076 0.128823 0)
(0.20338 0.133378 0)
(0.182243 0.136569 0)
(0.160249 0.138811 0)
(0.135696 0.140064 0)
(0.11026 0.138072 0)
(0.0928401 0.124819 0)
(0.0834052 0.107908 0)
(0.0678906 0.0969713 0)
(0.0461565 0.0970868 0)
(0.0214139 0.0939452 0)
(0.0298819 0.0576045 0)
(0.0749058 -0.00304949 0)
(0.12283 -0.056943 0)
(0.165859 -0.0946469 0)
(0.0464028 -0.475958 0)
(0.071927 -0.447633 0)
(0.109844 -0.405563 0)
(0.15436 -0.350953 0)
(0.198411 -0.290655 0)
(0.240991 -0.227525 0)
(0.280408 -0.163847 0)
(0.312905 -0.101813 0)
(0.337081 -0.0437985 0)
(0.347299 0.00734802 0)
(0.340339 0.0495547 0)
(0.323859 0.0823156 0)
(0.303827 0.107911 0)
(0.282139 0.12739 0)
(0.258444 0.141941 0)
(0.233429 0.152598 0)
(0.208045 0.160451 0)
(0.18312 0.166032 0)
(0.158949 0.169638 0)
(0.135345 0.171816 0)
(0.111379 0.17334 0)
(0.0859502 0.17442 0)
(0.0589163 0.175544 0)
(0.0380382 0.164774 0)
(0.0283884 0.144423 0)
(0.0167594 0.12907 0)
(-0.00413239 0.127377 0)
(-0.0299453 0.131466 0)
(-0.0341197 0.10316 0)
(0.0151786 0.0313669 0)
(0.0686155 -0.0374458 0)
(0.11178 -0.0818567 0)
(0.148286 -0.111027 0)
(-0.0677307 -0.458401 0)
(-0.0541443 -0.421329 0)
(-0.0244329 -0.374696 0)
(0.0150894 -0.317343 0)
(0.0559294 -0.256215 0)
(0.0978272 -0.193905 0)
(0.138365 -0.13161 0)
(0.175671 -0.0701934 0)
(0.214807 -0.0057947 0)
(0.229814 0.0525358 0)
(0.230998 0.0969145 0)
(0.222136 0.130878 0)
(0.209415 0.15664 0)
(0.192814 0.175521 0)
(0.172711 0.188943 0)
(0.150455 0.198175 0)
(0.127334 0.203693 0)
(0.104301 0.206137 0)
(0.0807391 0.206902 0)
(0.0561675 0.207422 0)
(0.0302357 0.208187 0)
(0.00481416 0.208966 0)
(-0.0179893 0.199836 0)
(-0.0278537 0.17684 0)
(-0.0381208 0.158674 0)
(-0.0556488 0.155574 0)
(-0.0761326 0.158652 0)
(-0.0862732 0.145237 0)
(-0.05254 0.0776187 0)
(0.0122343 -0.0167045 0)
(0.0582022 -0.0669397 0)
(0.0943519 -0.0997859 0)
(0.124033 -0.120692 0)
(-0.205655 -0.43524 0)
(-0.204395 -0.388741 0)
(-0.184713 -0.337754 0)
(-0.154521 -0.284583 0)
(-0.12035 -0.228356 0)
(-0.084291 -0.170262 0)
(-0.0468986 -0.110506 0)
(-0.00984483 -0.0518329 0)
(0.0202138 0.0136864 0)
(0.0587559 0.0800869 0)
(0.0788426 0.128523 0)
(0.0857294 0.165161 0)
(0.0853334 0.192774 0)
(0.0782411 0.213683 0)
(0.066071 0.228268 0)
(0.0504429 0.236806 0)
(0.0322214 0.239874 0)
(0.0128262 0.239874 0)
(-0.0098298 0.239969 0)
(-0.0343002 0.240045 0)
(-0.0573358 0.238255 0)
(-0.0778824 0.228488 0)
(-0.08681 0.207301 0)
(-0.0943115 0.188923 0)
(-0.10737 0.181302 0)
(-0.124443 0.18288 0)
(-0.13268 0.172867 0)
(-0.113113 0.127569 0)
(-0.0491491 0.0214872 0)
(0.0049999 -0.0525396 0)
(0.0420203 -0.0891768 0)
(0.0723044 -0.112003 0)
(0.099666 -0.128589 0)
(-0.35028 -0.397563 0)
(-0.360731 -0.345867 0)
(-0.350114 -0.295684 0)
(-0.325764 -0.247618 0)
(-0.294135 -0.198796 0)
(-0.259403 -0.147128 0)
(-0.225913 -0.0925141 0)
(-0.194014 -0.0358274 0)
(-0.164238 0.0222869 0)
(-0.127852 0.0838982 0)
(-0.0943323 0.138669 0)
(-0.0717928 0.181888 0)
(-0.0584401 0.214366 0)
(-0.0534524 0.238325 0)
(-0.0551635 0.253803 0)
(-0.0622846 0.261685 0)
(-0.0744283 0.265342 0)
(-0.089299 0.266885 0)
(-0.107371 0.266759 0)
(-0.126411 0.261888 0)
(-0.14213 0.250944 0)
(-0.149746 0.233778 0)
(-0.152971 0.216658 0)
(-0.162329 0.20713 0)
(-0.173826 0.204126 0)
(-0.181228 0.195268 0)
(-0.164009 0.160584 0)
(-0.114212 0.0840113 0)
(-0.049803 -0.0297468 0)
(-0.00875273 -0.0820234 0)
(0.0236265 -0.107859 0)
(0.0518449 -0.125199 0)
(0.0781758 -0.137137 0)
(-0.497128 -0.363051 0)
(-0.523502 -0.307868 0)
(-0.520974 -0.259777 0)
(-0.498458 -0.216576 0)
(-0.46563 -0.174024 0)
(-0.429724 -0.129021 0)
(-0.394432 -0.0798953 0)
(-0.358423 -0.0256849 0)
(-0.321199 0.0317275 0)
(-0.284762 0.0883333 0)
(-0.250761 0.141197 0)
(-0.221716 0.185806 0)
(-0.199606 0.220539 0)
(-0.185307 0.246358 0)
(-0.178609 0.263889 0)
(-0.177671 0.274583 0)
(-0.181907 0.280544 0)
(-0.190834 0.282168 0)
(-0.203007 0.277762 0)
(-0.212425 0.267727 0)
(-0.214942 0.253373 0)
(-0.215996 0.239615 0)
(-0.219916 0.229957 0)
(-0.226824 0.224275 0)
(-0.229679 0.213326 0)
(-0.215058 0.183285 0)
(-0.17303 0.121602 0)
(-0.107661 0.017304 0)
(-0.0605158 -0.0638383 0)
(-0.0241065 -0.104753 0)
(0.00702086 -0.129615 0)
(0.0334205 -0.140884 0)
(0.0579716 -0.145972 0)
(-0.628029 -0.366759 0)
(-0.669098 -0.309562 0)
(-0.678093 -0.260532 0)
(-0.662492 -0.217233 0)
(-0.63229 -0.174845 0)
(-0.595139 -0.130401 0)
(-0.555762 -0.0822313 0)
(-0.512782 -0.0284987 0)
(-0.466308 0.0278161 0)
(-0.424492 0.0811424 0)
(-0.387353 0.130871 0)
(-0.354247 0.175188 0)
(-0.326858 0.211782 0)
(-0.306181 0.240377 0)
(-0.292611 0.261042 0)
(-0.285145 0.27416 0)
(-0.283035 0.279266 0)
(-0.284783 0.278701 0)
(-0.285966 0.273518 0)
(-0.284297 0.264764 0)
(-0.281749 0.255034 0)
(-0.281113 0.247172 0)
(-0.282289 0.240408 0)
(-0.280727 0.22749 0)
(-0.264794 0.198987 0)
(-0.225918 0.148327 0)
(-0.168279 0.0703175 0)
(-0.110676 -0.0352325 0)
(-0.0741001 -0.0931848 0)
(-0.0386 -0.133929 0)
(-0.00865506 -0.159111 0)
(0.0152948 -0.163313 0)
(0.0361519 -0.16356 0)
(-0.731693 -0.412304 0)
(-0.783268 -0.353871 0)
(-0.804595 -0.299519 0)
(-0.798365 -0.249622 0)
(-0.774896 -0.200826 0)
(-0.741825 -0.151732 0)
(-0.702012 -0.0998668 0)
(-0.65568 -0.0447139 0)
(-0.605491 0.0114502 0)
(-0.556749 0.0654627 0)
(-0.513187 0.114948 0)
(-0.47419 0.15848 0)
(-0.440907 0.194827 0)
(-0.414173 0.223011 0)
(-0.394604 0.242917 0)
(-0.381423 0.256201 0)
(-0.371131 0.26305 0)
(-0.36167 0.26479 0)
(-0.35448 0.263211 0)
(-0.348623 0.259578 0)
(-0.343728 0.255524 0)
(-0.339581 0.249623 0)
(-0.332818 0.236192 0)
(-0.314638 0.208519 0)
(-0.276982 0.1632 0)
(-0.22245 0.0963929 0)
(-0.163916 0.00493311 0)
(-0.119185 -0.0748392 0)
(-0.085101 -0.13188 0)
(-0.0511094 -0.175392 0)
(-0.0250774 -0.192683 0)
(-0.00625105 -0.192756 0)
(0.0111941 -0.188767 0)
(-0.809566 -0.478767 0)
(-0.85991 -0.422643 0)
(-0.888256 -0.359406 0)
(-0.891279 -0.297253 0)
(-0.877298 -0.237701 0)
(-0.85106 -0.180244 0)
(-0.816537 -0.123946 0)
(-0.776068 -0.0693922 0)
(-0.729998 -0.0157881 0)
(-0.677818 0.0372935 0)
(-0.627682 0.0868853 0)
(-0.582117 0.130425 0)
(-0.542624 0.166014 0)
(-0.509469 0.194092 0)
(-0.481283 0.215645 0)
(-0.457973 0.231564 0)
(-0.439854 0.242454 0)
(-0.425338 0.248712 0)
(-0.414187 0.251985 0)
(-0.405223 0.252298 0)
(-0.396119 0.248776 0)
(-0.383948 0.236662 0)
(-0.362582 0.210765 0)
(-0.325336 0.169949 0)
(-0.273643 0.111981 0)
(-0.216436 0.0353929 0)
(-0.166454 -0.0480222 0)
(-0.127138 -0.120822 0)
(-0.0931379 -0.181153 0)
(-0.0632015 -0.216976 0)
(-0.0443656 -0.225311 0)
(-0.030787 -0.22026 0)
(-0.016198 -0.213283 0)
(-0.870136 -0.535407 0)
(-0.909841 -0.48283 0)
(-0.933194 -0.415999 0)
(-0.939217 -0.344794 0)
(-0.931833 -0.27523 0)
(-0.913622 -0.21049 0)
(-0.887105 -0.150908 0)
(-0.85364 -0.0953665 0)
(-0.813969 -0.0427435 0)
(-0.766999 0.00859886 0)
(-0.7154 0.0565827 0)
(-0.66626 0.0993761 0)
(-0.621357 0.135658 0)
(-0.581203 0.165406 0)
(-0.547043 0.189351 0)
(-0.519046 0.207874 0)
(-0.496641 0.221882 0)
(-0.478542 0.231851 0)
(-0.464327 0.237143 0)
(-0.450289 0.236489 0)
(-0.432169 0.226981 0)
(-0.406888 0.204636 0)
(-0.369466 0.16897 0)
(-0.319891 0.118456 0)
(-0.264472 0.0516744 0)
(-0.211562 -0.0288173 0)
(-0.167691 -0.103389 0)
(-0.131014 -0.174209 0)
(-0.100109 -0.230287 0)
(-0.0782046 -0.254751 0)
(-0.0661662 -0.254311 0)
(-0.0558015 -0.246033 0)
(-0.0433991 -0.241634 0)
(-0.914603 -0.568989 0)
(-0.943169 -0.518631 0)
(-0.959436 -0.455178 0)
(-0.962724 -0.383313 0)
(-0.956836 -0.310869 0)
(-0.942535 -0.241416 0)
(-0.919586 -0.177229 0)
(-0.889564 -0.119347 0)
(-0.854078 -0.0665942 0)
(-0.814149 -0.0170371 0)
(-0.769512 0.0293913 0)
(-0.722767 0.071023 0)
(-0.677559 0.10781 0)
(-0.636376 0.138613 0)
(-0.600139 0.163892 0)
(-0.569142 0.184616 0)
(-0.543278 0.200536 0)
(-0.521315 0.210638 0)
(-0.500354 0.213163 0)
(-0.476597 0.207005 0)
(-0.446442 0.189323 0)
(-0.407799 0.159132 0)
(-0.359912 0.115543 0)
(-0.306186 0.056537 0)
(-0.252138 -0.01771 0)
(-0.205446 -0.0895072 0)
(-0.166442 -0.161382 0)
(-0.133714 -0.226575 0)
(-0.109377 -0.272784 0)
(-0.0958159 -0.285908 0)
(-0.0884836 -0.279184 0)
(-0.0809653 -0.272788 0)
(-0.0710987 -0.269193 0)
(-0.949302 -0.580149 0)
(-0.968705 -0.534283 0)
(-0.976866 -0.47582 0)
(-0.976598 -0.410296 0)
(-0.970615 -0.342112 0)
(-0.956528 -0.27312 0)
(-0.936763 -0.206142 0)
(-0.910924 -0.145307 0)
(-0.879386 -0.0902455 0)
(-0.843941 -0.0407298 0)
(-0.805404 0.00480254 0)
(-0.763998 0.0464631 0)
(-0.721475 0.0832227 0)
(-0.680088 0.114647 0)
(-0.641367 0.140153 0)
(-0.606591 0.160679 0)
(-0.575757 0.175121 0)
(-0.546764 0.181405 0)
(-0.516239 0.177773 0)
(-0.480905 0.165045 0)
(-0.439854 0.140676 0)
(-0.392373 0.103386 0)
(-0.339787 0.0516343 0)
(-0.286117 -0.0145892 0)
(-0.238623 -0.0814541 0)
(-0.198314 -0.149974 0)
(-0.164943 -0.214821 0)
(-0.137922 -0.270662 0)
(-0.121332 -0.305178 0)
(-0.115224 -0.308743 0)
(-0.112309 -0.299908 0)
(-0.105513 -0.293966 0)
(-0.095974 -0.285087 0)
(-0.972899 -0.576252 0)
(-0.98536 -0.535776 0)
(-0.990072 -0.482785 0)
(-0.988155 -0.425483 0)
(-0.979374 -0.363848 0)
(-0.964199 -0.300425 0)
(-0.945718 -0.237768 0)
(-0.922595 -0.17816 0)
(-0.894485 -0.121948 0)
(-0.862655 -0.0708806 0)
(-0.82768 -0.0245694 0)
(-0.789987 0.0178132 0)
(-0.750654 0.055283 0)
(-0.710583 0.0870556 0)
(-0.669178 0.112445 0)
(-0.627924 0.130275 0)
(-0.589017 0.139855 0)
(-0.551064 0.140413 0)
(-0.510326 0.132023 0)
(-0.465245 0.11339 0)
(-0.416604 0.0823868 0)
(-0.364502 0.0380324 0)
(-0.312211 -0.0186449 0)
(-0.265646 -0.0786239 0)
(-0.22469 -0.141463 0)
(-0.190963 -0.202569 0)
(-0.164247 -0.258392 0)
(-0.144108 -0.302349 0)
(-0.136093 -0.325989 0)
(-0.137173 -0.322383 0)
(-0.135856 -0.313973 0)
(-0.130335 -0.303023 0)
(-0.12373 -0.292907 0)
(-0.984901 -0.561076 0)
(-0.992322 -0.526479 0)
(-0.994732 -0.481856 0)
(-0.992349 -0.430547 0)
(-0.98336 -0.374916 0)
(-0.968561 -0.318825 0)
(-0.949995 -0.262561 0)
(-0.926717 -0.207152 0)
(-0.899272 -0.154332 0)
(-0.868594 -0.104331 0)
(-0.834547 -0.0585917 0)
(-0.797596 -0.0181731 0)
(-0.757748 0.0177252 0)
(-0.714994 0.0479023 0)
(-0.669876 0.0704569 0)
(-0.623248 0.0844592 0)
(-0.577073 0.0906375 0)
(-0.531351 0.0883373 0)
(-0.483264 0.0764703 0)
(-0.43271 0.0530031 0)
(-0.381113 0.0175847 0)
(-0.33089 -0.0279399 0)
(-0.28553 -0.0796125 0)
(-0.24498 -0.135391 0)
(-0.21081 -0.190949 0)
(-0.184805 -0.243192 0)
(-0.164865 -0.28859 0)
(-0.152965 -0.320488 0)
(-0.154534 -0.333247 0)
(-0.160319 -0.32695 0)
(-0.158689 -0.315051 0)
(-0.155258 -0.303224 0)
(-0.152316 -0.294671 0)
(-0.985941 -0.536422 0)
(-0.988723 -0.50785 0)
(-0.988133 -0.4718 0)
(-0.983982 -0.429375 0)
(-0.975599 -0.382157 0)
(-0.962139 -0.333424 0)
(-0.943263 -0.283952 0)
(-0.919412 -0.234587 0)
(-0.89117 -0.187205 0)
(-0.858813 -0.14238 0)
(-0.822584 -0.100813 0)
(-0.782776 -0.0635131 0)
(-0.739276 -0.0311617 0)
(-0.693141 -0.00403807 0)
(-0.644606 0.0162789 0)
(-0.594055 0.0294243 0)
(-0.543869 0.0340868 0)
(-0.494084 0.0300148 0)
(-0.443298 0.0160884 0)
(-0.392271 -0.00845207 0)
(-0.343647 -0.0422267 0)
(-0.298975 -0.0839032 0)
(-0.258878 -0.13109 0)
(-0.224808 -0.179598 0)
(-0.198675 -0.22629 0)
(-0.180128 -0.268824 0)
(-0.167024 -0.302311 0)
(-0.164265 -0.323846 0)
(-0.175663 -0.326835 0)
(-0.181115 -0.318128 0)
(-0.180594 -0.304414 0)
(-0.181118 -0.295188 0)
(-0.18459 -0.287184 0)
(-0.977286 -0.505187 0)
(-0.976856 -0.4817 0)
(-0.973218 -0.453095 0)
(-0.966322 -0.419917 0)
(-0.955849 -0.383006 0)
(-0.940878 -0.343406 0)
(-0.921002 -0.30253 0)
(-0.896226 -0.261662 0)
(-0.866577 -0.221662 0)
(-0.832131 -0.18327 0)
(-0.793224 -0.147336 0)
(-0.750339 -0.114329 0)
(-0.704024 -0.0851341 0)
(-0.655252 -0.0608526 0)
(-0.604435 -0.0418742 0)
(-0.55208 -0.0301058 0)
(-0.500086 -0.0259093 0)
(-0.44916 -0.0295962 0)
(-0.399266 -0.0417601 0)
(-0.351269 -0.063207 0)
(-0.306781 -0.0931229 0)
(-0.266819 -0.129476 0)
(-0.232862 -0.168861 0)
(-0.206345 -0.208223 0)
(-0.188194 -0.244883 0)
(-0.176399 -0.276832 0)
(-0.171858 -0.299518 0)
(-0.179043 -0.311681 0)
(-0.195338 -0.309078 0)
(-0.201321 -0.297309 0)
(-0.203757 -0.286673 0)
(-0.210375 -0.277786 0)
(-0.223515 -0.267224 0)
(-0.961615 -0.471009 0)
(-0.958043 -0.452062 0)
(-0.951721 -0.429187 0)
(-0.942091 -0.403296 0)
(-0.928795 -0.374774 0)
(-0.911351 -0.344246 0)
(-0.889286 -0.312594 0)
(-0.862361 -0.280434 0)
(-0.830553 -0.248489 0)
(-0.793988 -0.217346 0)
(-0.753067 -0.187754 0)
(-0.70829 -0.160206 0)
(-0.660261 -0.135411 0)
(-0.609887 -0.114071 0)
(-0.558066 -0.096778 0)
(-0.505518 -0.0851375 0)
(-0.453371 -0.0800559 0)
(-0.402935 -0.0818731 0)
(-0.354914 -0.0910605 0)
(-0.310154 -0.108014 0)
(-0.270004 -0.131758 0)
(-0.23575 -0.160274 0)
(-0.20872 -0.190665 0)
(-0.190264 -0.219934 0)
(-0.180253 -0.246928 0)
(-0.175571 -0.269073 0)
(-0.180519 -0.284226 0)
(-0.197498 -0.287703 0)
(-0.214277 -0.283372 0)
(-0.221942 -0.271067 0)
(-0.229084 -0.261376 0)
(-0.244143 -0.250462 0)
(-0.268253 -0.232012 0)
(-0.941184 -0.436398 0)
(-0.935265 -0.421532 0)
(-0.9263 -0.403953 0)
(-0.914087 -0.384114 0)
(-0.898201 -0.362634 0)
(-0.878174 -0.339851 0)
(-0.853602 -0.316314 0)
(-0.824269 -0.292361 0)
(-0.790275 -0.268368 0)
(-0.751729 -0.244711 0)
(-0.708934 -0.221725 0)
(-0.662491 -0.199768 0)
(-0.613074 -0.179265 0)
(-0.56163 -0.160742 0)
(-0.509241 -0.144911 0)
(-0.456907 -0.132796 0)
(-0.405678 -0.125544 0)
(-0.356775 -0.123924 0)
(-0.311342 -0.128379 0)
(-0.270596 -0.139079 0)
(-0.2359 -0.15531 0)
(-0.208415 -0.175333 0)
(-0.18919 -0.196716 0)
(-0.17932 -0.217367 0)
(-0.176913 -0.236261 0)
(-0.180641 -0.250084 0)
(-0.194411 -0.258954 0)
(-0.218057 -0.257499 0)
(-0.233661 -0.251043 0)
(-0.242237 -0.24075 0)
(-0.257347 -0.229655 0)
(-0.281117 -0.212827 0)
(-0.313816 -0.186055 0)
(-0.917675 -0.40186 0)
(-0.909868 -0.390986 0)
(-0.899076 -0.378165 0)
(-0.884704 -0.364014 0)
(-0.866551 -0.348825 0)
(-0.844234 -0.332941 0)
(-0.817374 -0.316656 0)
(-0.785729 -0.300215 0)
(-0.749427 -0.283623 0)
(-0.70877 -0.266713 0)
(-0.664194 -0.24948 0)
(-0.616348 -0.232371 0)
(-0.565865 -0.215509 0)
(-0.513844 -0.199057 0)
(-0.461518 -0.183679 0)
(-0.409925 -0.170345 0)
(-0.36036 -0.160221 0)
(-0.31402 -0.15432 0)
(-0.272209 -0.153399 0)
(-0.23642 -0.157685 0)
(-0.208259 -0.166614 0)
(-0.188844 -0.178352 0)
(-0.178506 -0.190831 0)
(-0.176593 -0.20339 0)
(-0.17991 -0.214838 0)
(-0.191577 -0.223047 0)
(-0.213845 -0.225479 0)
(-0.238335 -0.223524 0)
(-0.253436 -0.214924 0)
(-0.266119 -0.206135 0)
(-0.286892 -0.192007 0)
(-0.317752 -0.168461 0)
(-0.350867 -0.134376 0)
(-0.891281 -0.368317 0)
(-0.882964 -0.360708 0)
(-0.870752 -0.352223 0)
(-0.854774 -0.343144 0)
(-0.834678 -0.333677 0)
(-0.810259 -0.324412 0)
(-0.781283 -0.315124 0)
(-0.747508 -0.30564 0)
(-0.708981 -0.29566 0)
(-0.666083 -0.284889 0)
(-0.619959 -0.273133 0)
(-0.571399 -0.260501 0)
(-0.520663 -0.246981 0)
(-0.468889 -0.232225 0)
(-0.417707 -0.216649 0)
(-0.368286 -0.201462 0)
(-0.321807 -0.18781 0)
(-0.279578 -0.176859 0)
(-0.243024 -0.169701 0)
(-0.213755 -0.166754 0)
(-0.192924 -0.167442 0)
(-0.18086 -0.170304 0)
(-0.177431 -0.174283 0)
(-0.181189 -0.179297 0)
(-0.190863 -0.183711 0)
(-0.209688 -0.188266 0)
(-0.237931 -0.187729 0)
(-0.259733 -0.185295 0)
(-0.273885 -0.178372 0)
(-0.291322 -0.168547 0)
(-0.317123 -0.149885 0)
(-0.348091 -0.123004 0)
(-0.378529 -0.0813507 0)
(-0.861737 -0.33608 0)
(-0.85385 -0.331256 0)
(-0.841121 -0.326655 0)
(-0.82393 -0.322127 0)
(-0.802653 -0.318653 0)
(-0.776978 -0.315777 0)
(-0.746129 -0.31299 0)
(-0.710241 -0.309906 0)
(-0.669817 -0.30599 0)
(-0.625779 -0.301367 0)
(-0.579295 -0.29584 0)
(-0.531243 -0.287686 0)
(-0.481636 -0.276412 0)
(-0.431318 -0.262359 0)
(-0.382408 -0.245993 0)
(-0.336378 -0.228133 0)
(-0.294287 -0.209999 0)
(-0.257611 -0.192826 0)
(-0.227683 -0.177788 0)
(-0.205519 -0.165679 0)
(-0.191626 -0.156802 0)
(-0.185895 -0.151211 0)
(-0.187427 -0.148543 0)
(-0.19448 -0.147315 0)
(-0.210679 -0.147304 0)
(-0.236617 -0.148111 0)
(-0.26431 -0.148645 0)
(-0.282786 -0.145942 0)
(-0.29744 -0.141906 0)
(-0.317412 -0.129928 0)
(-0.345212 -0.109448 0)
(-0.371221 -0.0778089 0)
(-0.397401 -0.0334534 0)
(-0.828774 -0.305934 0)
(-0.823108 -0.302843 0)
(-0.810274 -0.301717 0)
(-0.793167 -0.302298 0)
(-0.771729 -0.304481 0)
(-0.74481 -0.307244 0)
(-0.712872 -0.310277 0)
(-0.676278 -0.31293 0)
(-0.636276 -0.314824 0)
(-0.594205 -0.315614 0)
(-0.549667 -0.312889 0)
(-0.502704 -0.305867 0)
(-0.454775 -0.294392 0)
(-0.407249 -0.279115 0)
(-0.361595 -0.260388 0)
(-0.319299 -0.238894 0)
(-0.281769 -0.21615 0)
(-0.250346 -0.193405 0)
(-0.226282 -0.171855 0)
(-0.210424 -0.152675 0)
(-0.202807 -0.137047 0)
(-0.202445 -0.125743 0)
(-0.207823 -0.117751 0)
(-0.220446 -0.110815 0)
(-0.243026 -0.108275 0)
(-0.271551 -0.107435 0)
(-0.293613 -0.109638 0)
(-0.308226 -0.110381 0)
(-0.323248 -0.106782 0)
(-0.344559 -0.0934027 0)
(-0.368067 -0.0724478 0)
(-0.38807 -0.0366647 0)
(-0.409999 0.0060209 0)
(-0.791389 -0.278136 0)
(-0.78956 -0.275937 0)
(-0.779347 -0.277976 0)
(-0.763348 -0.283284 0)
(-0.741993 -0.289969 0)
(-0.715546 -0.297808 0)
(-0.684443 -0.305994 0)
(-0.64959 -0.313543 0)
(-0.612513 -0.320025 0)
(-0.572411 -0.32304 0)
(-0.529281 -0.320819 0)
(-0.485242 -0.31396 0)
(-0.441199 -0.30237 0)
(-0.398029 -0.285785 0)
(-0.357192 -0.263968 0)
(-0.320524 -0.238328 0)
(-0.289247 -0.210941 0)
(-0.264278 -0.183344 0)
(-0.246644 -0.157201 0)
(-0.23679 -0.134237 0)
(-0.234385 -0.115035 0)
(-0.238328 -0.0981861 0)
(-0.247819 -0.0810733 0)
(-0.26909 -0.0695117 0)
(-0.293981 -0.0663475 0)
(-0.314289 -0.070289 0)
(-0.327076 -0.0755776 0)
(-0.337061 -0.0794218 0)
(-0.350552 -0.0749158 0)
(-0.370514 -0.0624853 0)
(-0.387089 -0.0387044 0)
(-0.400936 -0.00373868 0)
(-0.417082 0.0356158 0)