/*--------------------------------*- C++ -*----------------------------------*\
  =========                 |
  \\      /  F ield         | OpenFOAM: The Open Source CFD Toolbox
   \\    /   O peration     | Website:  https://openfoam.org
    \\  /    A nd           | Version:  10
     \\/     M anipulation  |
\*---------------------------------------------------------------------------*/
FoamFile
{
    format      ascii;
    class       surfaceScalarField;
    location    "0.751362";
    object      phi;
}
// * * * * * * * * * * * * * * * * * * * * * * * * * * * * * * * * * * * * * //

dimensions      [1 0 -1 0 0 0 0];

internalField   nonuniform List<scalar> 
32368
(
0.000256086
-0.000158625
0.000265768
-0.000147912
0.000273085
-0.000137069
0.000278115
-0.000127107
0.000280877
-0.000117956
0.000280579
-0.000109838
0.000276461
-0.000102589
0.000270447
-9.58914e-05
0.000264506
-9.06609e-05
0.000259259
-8.75978e-05
0.000254302
-8.68052e-05
0.000251134
-8.72263e-05
0.000247613
-8.8861e-05
0.000243664
-8.90385e-05
0.000240766
-8.7422e-05
0.000241151
-8.41316e-05
0.000242454
-7.88516e-05
0.00024199
-6.92853e-05
0.000239904
-5.5996e-05
0.000237146
-4.01343e-05
0.000233887
-2.23346e-05
0.000230953
-3.3404e-06
0.000228837
1.59691e-05
0.000227899
3.48691e-05
0.000227587
5.28014e-05
0.000227664
6.92738e-05
0.000228127
8.40412e-05
0.000228996
9.6241e-05
0.000228233
0.000104612
0.000222408
0.00010785
0.000214342
0.000104381
0.000209483
9.81655e-05
9.02775e-05
0.000209354
0.000259594
-0.000157583
0.000270094
-0.000145128
0.000278432
-0.000132331
0.000284725
-0.000120059
0.000288314
-0.000108603
0.000289385
-9.80823e-05
0.000287193
-8.90498e-05
0.000280978
-8.12894e-05
0.000272475
-7.45143e-05
0.000263721
-6.95171e-05
0.000255622
-6.707e-05
0.000248267
-6.69809e-05
0.000241773
-6.81537e-05
0.000235065
-6.94356e-05
0.000229775
-6.94024e-05
0.000229391
-6.76658e-05
0.000229822
-6.46838e-05
0.000227356
-5.66331e-05
0.000223373
-4.42674e-05
0.000218657
-2.89901e-05
0.000213134
-1.12536e-05
0.000208853
7.38404e-06
0.000206301
2.60283e-05
0.00020495
4.42286e-05
0.000204473
6.15652e-05
0.000205058
7.72547e-05
0.000206223
9.10871e-05
0.000208097
0.000102196
0.000208617
0.000109312
0.000204618
0.0001102
0.000200327
0.000106089
0.000199389
9.9598e-05
9.17298e-05
0.000202518
0.000259563
-0.000160438
0.000270859
-0.000145119
0.000280057
-0.000129788
0.000286945
-0.00011481
0.000291257
-0.000100391
0.000293015
-8.71017e-05
0.000292201
-7.54084e-05
0.000288322
-6.54957e-05
0.000279753
-5.74925e-05
0.000268393
-5.07997e-05
0.000257138
-4.63834e-05
0.000246563
-4.51038e-05
0.000236508
-4.60843e-05
0.000227098
-4.78578e-05
0.000219617
-4.89828e-05
0.000217849
-4.86876e-05
0.000218077
-4.79364e-05
0.000214415
-4.17909e-05
0.000208909
-3.07451e-05
0.000202098
-1.631e-05
0.000194475
6.64903e-07
0.000189239
1.83853e-05
0.000186168
3.60052e-05
0.000184815
5.32338e-05
0.000184709
6.96831e-05
0.000185791
8.44202e-05
0.000188
9.71984e-05
0.000190765
0.000106527
0.000191457
0.000111776
0.000189112
0.000110271
0.000188295
0.000105713
0.000190884
9.92975e-05
9.15065e-05
0.000196822
0.000256252
-0.000164844
0.000267246
-0.000146869
0.000276972
-0.000128832
0.000285087
-0.000110739
0.000290687
-9.36356e-05
0.000293711
-7.74526e-05
0.000293772
-6.2836e-05
0.000291066
-5.00201e-05
0.000284786
-3.96845e-05
0.00027288
-3.18339e-05
0.000258334
-2.54448e-05
0.00024466
-2.24802e-05
0.000232002
-2.27698e-05
0.000219934
-2.49915e-05
0.000209838
-2.70173e-05
0.000205694
-2.8096e-05
0.000206295
-2.87011e-05
0.000202114
-2.46447e-05
0.000195311
-1.5232e-05
0.000187286
-1.87483e-06
0.000178704
1.3331e-05
0.000172729
2.95521e-05
0.000168984
4.59754e-05
0.000167354
6.21564e-05
0.000167569
7.72218e-05
0.00016934
9.0824e-05
0.000172365
0.000101634
0.000175124
0.00010912
0.000175674
0.0001109
0.000175835
0.000108697
0.000178405
0.000103892
0.000184352
9.75993e-05
8.9775e-05
0.000192337
0.000247705
-0.000168939
0.00025834
-0.000149263
0.000268133
-0.000128741
0.00027667
-0.000108005
0.00028368
-8.78347e-05
0.000288376
-6.84909e-05
0.000290551
-5.07119e-05
0.000289099
-3.51978e-05
0.000284357
-2.2031e-05
0.000275205
-1.19408e-05
0.0002591
-4.92e-06
0.000241955
4.13722e-07
0.00022658
1.12843e-06
0.000212691
-1.04445e-06
0.000200367
-4.11973e-06
0.000193508
-6.55988e-06
0.000193882
-8.11133e-06
0.000189016
-5.57478e-06
0.000181008
2.02164e-06
0.000172888
1.30686e-05
0.000164447
2.62882e-05
0.000158624
4.08871e-05
0.000154826
5.59774e-05
0.000153099
7.09287e-05
0.00015375
8.45153e-05
0.000156016
9.61459e-05
0.000158569
0.00010477
0.000160562
0.000108792
0.000162156
0.00010877
0.000165318
0.0001059
0.000171243
0.000101203
0.000179712
9.50407e-05
8.69905e-05
0.00018969
0.000232693
-0.000171392
0.000244064
-0.000151386
0.000254253
-0.000129738
0.000263171
-0.000106688
0.000270569
-8.36372e-05
0.000275796
-6.12733e-05
0.000279074
-4.02273e-05
0.000280016
-2.16378e-05
0.000277027
-5.76992e-06
0.000270348
7.37029e-06
0.000257837
1.68624e-05
0.000238091
2.24138e-05
0.000219733
2.49989e-05
0.000204196
2.30755e-05
0.000190369
1.90896e-05
0.000180816
1.55089e-05
0.000180225
1.35065e-05
0.000175069
1.46977e-05
0.000167055
1.97565e-05
0.000159538
2.80983e-05
0.000151488
3.92205e-05
0.000146047
5.20562e-05
0.000142753
6.57312e-05
0.000141655
7.9271e-05
0.00014248
9.09858e-05
0.000144445
0.000100204
0.00014622
0.000105442
0.000148519
0.000107172
0.000152197
0.000106005
0.000158147
0.000102876
0.000166672
9.80429e-05
0.000176983
9.19461e-05
8.36779e-05
0.000189245
0.000216206
-0.000176917
0.000227937
-0.000155903
0.000237993
-0.000132225
0.000246538
-0.000106596
0.000253816
-8.06922e-05
0.000259073
-5.55117e-05
0.000262514
-3.15579e-05
0.000264823
-1.00304e-05
0.000264127
8.84772e-06
0.000258856
2.51097e-05
0.000249795
3.73216e-05
0.000232598
4.47067e-05
0.00021146
4.81838e-05
0.000194286
4.65932e-05
0.000179392
4.24366e-05
0.000167617
3.79013e-05
0.000166227
3.49615e-05
0.000161819
3.46482e-05
0.000154488
3.71852e-05
0.000147553
4.31232e-05
0.000139803
5.2047e-05
0.000134862
6.29497e-05
0.000132268
7.51739e-05
0.000131812
8.67327e-05
0.00013272
9.6061e-05
0.000134123
0.000102359
0.000136282
0.000105148
0.000140009
0.00010531
0.000145794
0.000103391
0.000153867
9.96954e-05
0.000164284
9.48653e-05
0.000176344
8.81056e-05
8.13704e-05
0.000194206
0.000200742
-0.0001832
0.00021185
-0.00016039
0.000220971
-0.000134177
0.000228337
-0.000106149
0.000234586
-7.78153e-05
0.000239323
-5.03701e-05
0.000242587
-2.41823e-05
0.000245478
-2.24062e-07
0.000246408
2.16612e-05
0.000243242
4.08443e-05
0.000236165
5.6015e-05
0.000223402
6.6133e-05
0.000202071
7.01582e-05
0.000183681
6.91784e-05
0.000168682
6.49542e-05
0.000156179
5.96265e-05
0.000154018
5.57664e-05
0.000150332
5.40822e-05
0.00014338
5.45991e-05
0.000136794
5.83194e-05
0.000129466
6.49038e-05
0.00012486
7.37893e-05
0.000123014
8.39864e-05
0.000123099
9.31743e-05
0.000124123
0.000100074
0.000125965
0.000103723
0.000129378
0.000104702
0.000134734
0.000103545
0.000142109
0.000100744
0.0001522
9.69606e-05
0.000164687
9.193e-05
0.000181524
8.66521e-05
8.20805e-05
0.00020658
0.000184151
-0.000186853
0.000194235
-0.000162058
0.000202038
-0.000133463
0.000207983
-0.000103533
0.000212819
-7.34978e-05
0.000217052
-4.4454e-05
0.000220161
-1.70828e-05
0.000223139
8.65004e-06
0.000225297
3.30237e-05
0.000224071
5.48672e-05
0.000218742
7.26223e-05
0.000209598
8.50707e-05
0.000191046
9.12104e-05
0.000171879
9.04962e-05
0.000157559
8.59225e-05
0.000145203
8.00646e-05
0.000141743
7.513e-05
0.000139302
7.27424e-05
0.00013303
7.18205e-05
0.000126714
7.35461e-05
0.000120504
7.81982e-05
0.000115774
8.47573e-05
0.000114709
9.21276e-05
0.000115378
9.88542e-05
0.000117081
0.000103186
0.000120149
0.000104765
0.000124806
0.000104177
0.000131692
0.000102203
0.0001416
9.97013e-05
0.000154374
9.61292e-05
0.000171845
9.22702e-05
0.000195286
8.7547e-05
7.99446e-05
0.000220038
0.000164116
-0.00018693
0.000172991
-0.000159328
0.000178935
-0.000127962
0.000183448
-9.67014e-05
0.00018711
-6.59805e-05
0.000190863
-3.66101e-05
0.000194743
-9.36318e-06
0.000198148
1.72235e-05
0.000201094
4.34105e-05
0.000201219
6.76509e-05
0.000197224
8.76243e-05
0.00019018
0.000102211
0.000175734
0.00011042
0.000157002
0.000109792
0.000143969
0.000104477
0.000133246
9.83871e-05
0.000128307
9.24497e-05
0.000127817
9.00227e-05
0.000122648
8.85751e-05
0.000117037
8.84319e-05
0.000112377
9.12881e-05
0.00010844
9.57826e-05
0.000107608
0.000100475
0.000108909
0.000104159
0.000111606
0.000106026
0.000116005
0.000105994
0.00012273
0.000105111
0.000133115
0.000103858
0.000146469
0.000101212
0.000164192
9.76083e-05
0.00018542
9.25401e-05
0.000208006
8.48885e-05
7.40935e-05
0.000229377
0.000138864
-0.000181095
0.000145097
-0.000150025
0.000149424
-0.000117435
0.000153224
-8.65477e-05
0.000156819
-5.59386e-05
0.000160969
-2.70292e-05
0.000166251
-8.29507e-07
0.000170956
2.60853e-05
0.00017477
5.33241e-05
0.000176435
7.90918e-05
0.000173712
0.000101344
0.000168188
0.000117825
0.000157187
0.000127606
0.000140146
0.000126981
0.000128352
0.000120943
0.000119421
0.000114449
0.000114426
0.00010776
0.000115067
0.000105176
0.000111576
0.000103848
0.000107166
0.000102366
0.00010443
0.000103217
0.000102699
0.000106136
0.000102243
0.000109005
0.000104079
0.000110156
0.000108225
0.000110335
0.000115735
0.000110233
0.000126772
0.000109415
0.000140058
0.000106895
0.000156224
0.000102646
0.000175485
9.70931e-05
0.000195748
8.91006e-05
0.000215612
7.83879e-05
6.53075e-05
0.000233919
0.000109544
-0.000171932
0.000115643
-0.00014296
0.000120672
-0.000113079
0.000124436
-8.18858e-05
0.00012696
-4.99011e-05
0.000129645
-1.95003e-05
0.000135905
8.0861e-06
0.000142346
3.51564e-05
0.00014771
6.28118e-05
0.000150129
9.01008e-05
0.00014849
0.000114015
0.000144436
0.000131803
0.000136304
0.000142645
0.000121695
0.000141855
0.000111769
0.000135018
0.000104707
0.000128267
0.000100329
0.000120847
0.000101844
0.000117814
0.000100331
0.000117007
9.76611e-05
0.000114706
9.63574e-05
0.000113844
9.68296e-05
0.000114975
9.84431e-05
0.000116307
0.000102506
0.00011645
0.000109776
0.000115877
0.000119946
0.000114412
0.000132686
0.000111772
0.000147462
0.000107286
0.000164341
0.000100978
0.000182714
9.27353e-05
0.00020114
8.22795e-05
0.000219297
6.98417e-05
5.58871e-05
0.000235988
8.05062e-05
-0.000169477
8.8207e-05
-0.000142396
9.45597e-05
-0.000112439
9.90422e-05
-7.97826e-05
0.000101508
-4.58574e-05
0.000102849
-1.34131e-05
0.000105887
1.57826e-05
0.000113638
4.37376e-05
0.00011971
7.223e-05
0.000122675
0.000100651
0.000121929
0.000125737
0.000119205
0.000144298
0.000113294
0.000155536
0.000101732
0.000153996
9.42266e-05
0.000146513
8.93772e-05
0.000139654
8.62329e-05
0.000131831
8.86439e-05
0.000127283
8.92163e-05
0.000127381
8.845e-05
0.000125007
8.87643e-05
0.000122816
9.11285e-05
0.000122042
9.51009e-05
0.000121536
0.000101643
0.000120305
0.000110896
0.000118387
0.000122608
0.00011527
0.000136407
0.000110663
0.000151899
0.000104188
0.00016879
9.59126e-05
0.00018625
8.58591e-05
0.00020403
7.40058e-05
0.00022002
6.07977e-05
4.60692e-05
0.000231198
4.99403e-05
-0.000170102
5.81859e-05
-0.000143553
6.53215e-05
-0.000113544
7.07503e-05
-7.93797e-05
7.40698e-05
-4.30716e-05
7.55922e-05
-8.02503e-06
7.77377e-05
2.27437e-05
8.48985e-05
5.12259e-05
9.09402e-05
8.10681e-05
9.40708e-05
0.000110753
9.42013e-05
0.00013639
9.29733e-05
0.000155105
8.91531e-05
0.000166235
8.09878e-05
0.000163393
7.6268e-05
0.000155533
7.38153e-05
0.000148496
7.25906e-05
0.00014042
7.52251e-05
0.000134524
7.81354e-05
0.000134029
7.97682e-05
0.000132095
8.2003e-05
0.000129254
8.61495e-05
0.000126967
9.20629e-05
0.000124722
0.000100344
0.000121819
0.000111031
0.000118128
0.000123798
0.000113261
0.000138337
0.00010688
0.000154241
9.88821e-05
0.000171122
8.92665e-05
0.000187888
7.80212e-05
0.000202292
6.50739e-05
0.000211075
5.11671e-05
3.88898e-05
0.000217988
1.61274e-05
-0.000171808
2.41906e-05
-0.000147325
3.1667e-05
-0.000118342
3.81845e-05
-8.23846e-05
4.29392e-05
-4.29101e-05
4.56621e-05
-4.54574e-06
4.84669e-05
2.87303e-05
5.52039e-05
5.85456e-05
6.07283e-05
8.95395e-05
6.38895e-05
0.000119922
6.49831e-05
0.000145381
6.55076e-05
0.000163944
6.41282e-05
0.000173931
5.98059e-05
0.000169082
5.8315e-05
0.000161388
5.85575e-05
0.000154614
5.93433e-05
0.000146695
6.25884e-05
0.000140172
6.7055e-05
0.000137048
7.10382e-05
0.000134206
7.56486e-05
0.000131394
8.18177e-05
0.000128419
8.96481e-05
0.000125034
9.93734e-05
0.000120833
0.000111143
0.000115562
0.000124737
0.000109157
0.000139689
0.000101305
0.000155523
9.20047e-05
0.000170641
8.10893e-05
0.000182082
6.84952e-05
0.000189512
5.61073e-05
0.000196781
4.56076e-05
3.66498e-05
0.00020486
-2.12886e-05
-0.000174818
-1.55468e-05
-0.000154145
-8.41755e-06
-0.000126613
-1.45266e-06
-8.80765e-05
5.58523e-06
-4.57891e-05
1.24314e-05
-5.06801e-06
1.76718e-05
3.21378e-05
2.3364e-05
6.53104e-05
2.80132e-05
9.72833e-05
3.15951e-05
0.000127579
3.44034e-05
0.000152454
3.74638e-05
0.000170097
3.91434e-05
0.000178139
3.8832e-05
0.000171518
4.04828e-05
0.000164532
4.32325e-05
0.000158147
4.63286e-05
0.000150332
5.10097e-05
0.000143213
5.63113e-05
0.000138097
6.23368e-05
0.000133824
6.92123e-05
0.000129751
7.7321e-05
0.000125289
8.69064e-05
0.000120581
9.80214e-05
0.000115481
0.000110587
0.000109374
0.000124448
0.000102054
0.000138646
9.32267e-05
0.000151435
8.25499e-05
0.000160102
7.09347e-05
0.000167324
6.05306e-05
0.000175398
5.19168e-05
0.000183761
4.41326e-05
3.82185e-05
0.000193227
-6.27647e-05
-0.000176218
-6.06532e-05
-0.000158363
-5.43684e-05
-0.00013268
-4.58121e-05
-9.4238e-05
-3.62708e-05
-5.02808e-05
-2.74593e-05
-7.47649e-06
-1.94435e-05
3.26709e-05
-1.33367e-05
6.98107e-05
-7.84691e-06
0.000102614
-2.04836e-06
0.000131902
3.52077e-06
0.000156308
9.19122e-06
0.000173057
1.41561e-05
0.000178098
1.81864e-05
0.000170557
2.29286e-05
0.000164866
2.83019e-05
0.000158906
3.39762e-05
0.000151155
4.04275e-05
0.000143969
4.73536e-05
0.000137818
5.49313e-05
0.000131808
6.316e-05
0.000125981
7.23769e-05
0.000120148
8.30258e-05
0.00011438
9.50336e-05
0.00010815
0.000107906
0.000100933
0.000120392
9.21091e-05
0.000129956
8.22252e-05
0.000137655
7.27623e-05
0.000145614
6.4562e-05
0.000154391
5.74767e-05
0.000162772
5.13633e-05
0.000173245
4.66949e-05
4.11797e-05
0.000182771
-0.00010309
-0.000174595
-0.000105416
-0.000158197
-0.000102493
-0.000134253
-9.45071e-05
-9.74315e-05
-8.37426e-05
-5.53181e-05
-7.317e-05
-1.13733e-05
-6.42721e-05
3.13366e-05
-5.53488e-05
6.97697e-05
-4.67808e-05
0.000103264
-3.81621e-05
0.000132369
-2.92096e-05
0.000156338
-1.94787e-05
0.000171579
-1.0104e-05
0.000172549
-1.73979e-06
0.000166393
6.2982e-06
0.000162518
1.42301e-05
0.000157217
2.22426e-05
0.000149672
3.06733e-05
0.000142361
3.92631e-05
0.000134972
4.80954e-05
0.00012759
5.75637e-05
0.00012066
6.79826e-05
0.000113939
7.9248e-05
0.000107057
9.07542e-05
9.9266e-05
0.000100438
9.05833e-05
0.000108823
8.20379e-05
0.000116773
7.43819e-05
0.000125013
6.78912e-05
0.00013352
6.22829e-05
0.000142646
5.77877e-05
0.000152882
5.36839e-05
0.000162007
4.82057e-05
4.15241e-05
0.000170117
-0.000141001
-0.00017002
-0.000147048
-0.000154453
-0.000147553
-0.000132534
-0.000141724
-9.84948e-05
-0.000132579
-5.8663e-05
-0.000121667
-1.59706e-05
-0.00011014
2.70038e-05
-9.81931e-05
6.59314e-05
-8.63304e-05
9.99601e-05
-7.43324e-05
0.000129215
-6.11717e-05
0.000152236
-4.63338e-05
0.000164876
-3.20451e-05
0.000162564
-2.04135e-05
0.000160298
-9.67932e-06
0.000157937
8.21278e-07
0.000152901
1.09811e-05
0.00014587
2.12216e-05
0.000138077
3.1387e-05
0.000129789
4.17102e-05
0.000121758
5.22593e-05
0.000113984
6.29551e-05
0.000105985
7.26633e-05
9.75709e-05
8.12753e-05
8.93623e-05
8.92105e-05
8.19902e-05
9.70666e-05
7.58131e-05
0.000105211
7.06886e-05
0.000113183
6.6424e-05
0.000122775
6.30056e-05
0.000132811
5.88817e-05
0.00014192
5.33889e-05
0.00015063
4.65193e-05
3.75608e-05
0.000155082
-0.00017349
-0.000162334
-0.000183222
-0.000145962
-0.000187574
-0.000127133
-0.000183859
-9.77216e-05
-0.00017638
-6.05749e-05
-0.000166453
-2.01967e-05
-0.000153059
2.10116e-05
-0.000138527
5.94577e-05
-0.000123739
9.36901e-05
-0.000108086
0.000122405
-9.02544e-05
0.000143007
-6.96457e-05
0.000150983
-5.2256e-05
0.000150633
-3.81599e-05
0.000151807
-2.49515e-05
0.000150449
-1.2295e-05
0.000145973
-6.66668e-08
0.000139522
1.18852e-05
0.000131476
2.3507e-05
0.000122729
3.47035e-05
0.000113913
4.51577e-05
0.000104983
5.41657e-05
9.63082e-05
6.2371e-05
8.86359e-05
7.01362e-05
8.22801e-05
7.7885e-05
7.71155e-05
8.54584e-05
7.28531e-05
9.36193e-05
6.94908e-05
0.000103057
6.63775e-05
0.000112809
6.20322e-05
0.000122773
5.63116e-05
0.00013162
4.89874e-05
0.000134673
3.87095e-05
2.9314e-05
0.000131655
-0.000195012
-0.000154322
-0.000204168
-0.000134705
-0.000215166
-0.000116632
-0.000216877
-9.31419e-05
-0.000211703
-6.08247e-05
-0.000202853
-2.39013e-05
-0.000189624
1.4332e-05
-0.000173723
5.09323e-05
-0.000156359
8.40508e-05
-0.00013615
0.000110336
-0.000111998
0.000126293
-8.87935e-05
0.000133605
-7.07117e-05
0.000138391
-5.47203e-05
0.000141702
-3.96389e-05
0.00014116
-2.51946e-05
0.000137301
-1.13039e-05
0.000131051
2.10611e-06
0.000122631
1.46105e-05
0.000113258
2.52771e-05
0.00010397
3.4595e-05
9.57133e-05
4.29006e-05
8.8787e-05
5.06952e-05
8.31478e-05
5.81326e-05
7.85822e-05
6.54781e-05
7.48523e-05
7.3931e-05
7.17691e-05
8.33683e-05
6.80596e-05
9.3095e-05
6.31375e-05
0.0001037
5.67084e-05
0.000112616
4.78516e-05
0.000113518
3.727e-05
0.000113341
2.9797e-05
2.52275e-05
0.000115517
-0.000213777
-0.000147227
-0.000217248
-0.000126321
-0.000226991
-0.000104968
-0.000236599
-8.35984e-05
-0.000234917
-5.84322e-05
-0.00022787
-2.64004e-05
-0.000215484
7.89401e-06
-0.000199178
4.06183e-05
-0.000178758
7.03969e-05
-0.000153392
9.25845e-05
-0.000127756
0.000108028
-0.000106204
0.000119027
-8.78276e-05
0.000126662
-7.03818e-05
0.000130598
-5.37357e-05
0.000130393
-3.77647e-05
0.000126772
-2.23879e-05
0.000120145
-8.71976e-06
0.000111177
3.14124e-06
0.000102722
1.32465e-05
9.57712e-05
2.20269e-05
8.98178e-05
2.98916e-05
8.48306e-05
3.7229e-05
8.05069e-05
4.48567e-05
7.67879e-05
5.35782e-05
7.30526e-05
6.29161e-05
6.84886e-05
7.34873e-05
6.26994e-05
8.42841e-05
5.49004e-05
9.1449e-05
4.47864e-05
9.28632e-05
3.53254e-05
9.54987e-05
2.92818e-05
9.9739e-05
2.58112e-05
2.4864e-05
0.000103462
-0.000229883
-0.000141608
-0.000229945
-0.00011959
-0.000231258
-9.85053e-05
-0.000235435
-7.605e-05
-0.000240139
-5.21067e-05
-0.000235826
-2.60865e-05
-0.000224886
2.36547e-06
-0.000208921
3.03462e-05
-0.000187514
5.59406e-05
-0.000163714
7.64696e-05
-0.000142117
9.29325e-05
-0.000122105
0.000105398
-0.000103018
0.000113614
-8.43275e-05
0.000117719
-6.64549e-05
0.000117521
-4.98075e-05
0.000114058
-3.47725e-05
0.000108278
-2.16176e-05
0.000101683
-1.0537e-05
9.57855e-05
-8.84795e-07
9.09411e-05
7.24534e-06
8.6937e-05
1.47758e-05
8.31072e-05
2.314e-05
7.89786e-05
3.20892e-05
7.4202e-05
4.19931e-05
6.83704e-05
5.31786e-05
6.10727e-05
6.34584e-05
5.14552e-05
6.86703e-05
4.12229e-05
7.29015e-05
3.359e-05
7.79054e-05
2.86287e-05
8.29364e-05
2.61782e-05
8.61857e-05
2.61072e-05
2.86777e-05
8.88647e-05
-0.00024353
-0.000134176
-0.000241692
-0.00011462
-0.000240068
-9.29098e-05
-0.000237899
-7.1954e-05
-0.000235242
-4.94191e-05
-0.000231081
-2.58973e-05
-0.000221711
-1.72719e-06
-0.000208169
2.23119e-05
-0.000190872
4.46336e-05
-0.000171633
6.39007e-05
-0.000152761
7.99188e-05
-0.000133698
9.22046e-05
-0.00011467
0.000100424
-9.6206e-05
0.000104818
-7.86875e-05
0.000105703
-6.28194e-05
0.00010384
-4.88308e-05
0.000100248
-3.68959e-05
9.58655e-05
-2.68059e-05
9.20141e-05
-1.79586e-05
8.88182e-05
-9.06948e-06
8.56693e-05
1.00296e-07
8.12241e-05
9.66988e-06
7.54231e-05
2.04738e-05
6.84334e-05
3.16205e-05
5.90724e-05
3.9853e-05
4.86505e-05
4.64052e-05
3.9918e-05
5.27838e-05
3.32107e-05
5.86282e-05
2.87825e-05
6.32855e-05
2.67422e-05
6.636e-05
2.74929e-05
7.00541e-05
3.11575e-05
3.6454e-05
7.33931e-05
-0.000257028
-0.000123763
-0.000253402
-0.000107545
-0.000248935
-8.89664e-05
-0.000244989
-6.78572e-05
-0.000239703
-4.73032e-05
-0.000232573
-2.59249e-05
-0.000223344
-4.45069e-06
-0.000211144
1.67861e-05
-0.000196405
3.67886e-05
-0.000179922
5.4619e-05
-0.000162493
6.96718e-05
-0.000144515
8.14942e-05
-0.000126539
8.98437e-05
-0.000109138
9.48684e-05
-9.28172e-05
9.69034e-05
-7.80565e-05
9.66333e-05
-6.53291e-05
9.50198e-05
-5.42383e-05
9.29066e-05
-4.40133e-05
9.04994e-05
-3.42262e-05
8.74108e-05
-2.43422e-05
8.31802e-05
-1.35725e-05
7.70503e-05
-2.39612e-06
6.82876e-05
7.77737e-06
5.82538e-05
1.61418e-05
4.93658e-05
2.39531e-05
4.14482e-05
3.06226e-05
3.5171e-05
3.60771e-05
3.07188e-05
3.99902e-05
2.8735e-05
4.38976e-05
2.94538e-05
4.78108e-05
3.24602e-05
5.08505e-05
3.67268e-05
4.20168e-05
5.32752e-05
-0.000260153
-0.000109893
-0.000262699
-9.62681e-05
-0.000261534
-8.05128e-05
-0.000255816
-6.32066e-05
-0.000248325
-4.41739e-05
-0.000240283
-2.49756e-05
-0.000230823
-5.61111e-06
-0.00021905
1.3306e-05
-0.000205332
3.12567e-05
-0.000189967
4.75714e-05
-0.000173494
6.15982e-05
-0.000156507
7.29559e-05
-0.000139579
8.16016e-05
-0.000123354
8.75857e-05
-0.000108175
9.11319e-05
-9.428e-05
9.26091e-05
-8.16937e-05
9.23153e-05
-7.012e-05
9.06615e-05
-5.90686e-05
8.80503e-05
-4.78191e-05
8.41844e-05
-3.60167e-05
7.78105e-05
-2.52591e-05
6.93036e-05
-1.57773e-05
6.09569e-05
-7.27958e-06
5.33402e-05
-2.33862e-07
4.63861e-05
5.38862e-06
4.03025e-05
9.4215e-06
3.61734e-05
1.30214e-05
3.38256e-05
1.65137e-05
3.29551e-05
1.97922e-05
3.32434e-05
2.35671e-05
3.48029e-05
2.78034e-05
3.77375e-05
4.22573e-05
3.20199e-05
-0.00025363
-9.46168e-05
-0.000259221
-8.22786e-05
-0.000261854
-6.89812e-05
-0.000261517
-5.41661e-05
-0.000257851
-3.8106e-05
-0.00025068
-2.14352e-05
-0.000240488
-4.47088e-06
-0.00022886
1.24067e-05
-0.000215343
2.86477e-05
-0.000200565
4.36144e-05
-0.000184875
5.68139e-05
-0.000168753
6.78436e-05
-0.000152624
7.6533e-05
-0.000136868
8.26989e-05
-0.000121685
8.65696e-05
-0.000107546
8.84416e-05
-9.43638e-05
8.86978e-05
-8.1678e-05
8.71108e-05
-6.95153e-05
8.36371e-05
-5.81628e-05
7.85581e-05
-4.78231e-05
7.25254e-05
-3.86984e-05
6.62829e-05
-3.16722e-05
6.01674e-05
-2.62858e-05
5.45878e-05
-2.28226e-05
4.98794e-05
-2.02155e-05
4.61314e-05
-1.8306e-05
4.28933e-05
-1.64662e-05
3.95713e-05
-1.34277e-05
3.66475e-05
-8.66221e-06
3.42537e-05
-2.20423e-06
3.30868e-05
5.20785e-06
3.39899e-05
3.92063e-05
1.12151e-05
-0.000239497
-7.95668e-05
-0.000246427
-6.7297e-05
-0.000252068
-5.55155e-05
-0.00025438
-4.30432e-05
-0.000253537
-2.95991e-05
-0.000249677
-1.562e-05
-0.00024251
-1.37761e-06
-0.000232465
1.30631e-05
-0.000220513
2.71726e-05
-0.000206782
4.05287e-05
-0.000191586
5.25219e-05
-0.000175811
6.28387e-05
-0.000159855
7.12424e-05
-0.000144151
7.7497e-05
-0.000128997
8.16849e-05
-0.000114679
8.36787e-05
-0.000101085
8.37247e-05
-8.88183e-05
8.22442e-05
-7.81351e-05
7.99942e-05
-6.88761e-05
7.70745e-05
-6.16552e-05
7.3213e-05
-5.64495e-05
6.93265e-05
-5.35707e-05
6.60075e-05
-5.20962e-05
6.30839e-05
-5.18724e-05
5.96706e-05
-5.22118e-05
5.55124e-05
-5.16618e-05
5.08964e-05
-4.95644e-05
4.54653e-05
-4.50154e-05
3.949e-05
-3.7658e-05
3.34641e-05
-2.83994e-05
2.91466e-05
-1.95993e-05
2.9019e-05
3.73361e-05
-1.51953e-05
-0.000222146
-6.60669e-05
-0.000228541
-5.29115e-05
-0.000233822
-4.17745e-05
-0.000237046
-3.09082e-05
-0.000237881
-1.96945e-05
-0.000236411
-8.23902e-06
-0.000232152
3.37794e-06
-0.000224837
1.52284e-05
-0.000214676
2.70771e-05
-0.000202462
3.84724e-05
-0.000188776
4.90052e-05
-0.000174089
5.82566e-05
-0.000158977
6.58598e-05
-0.000144079
7.182e-05
-0.000129915
7.62911e-05
-0.000116896
7.92679e-05
-0.00010542
8.0996e-05
-9.60331e-05
8.17688e-05
-8.87315e-05
8.16226e-05
-8.34784e-05
8.11039e-05
-8.06562e-05
8.03273e-05
-7.97995e-05
7.94729e-05
-8.08464e-05
7.78215e-05
-8.26748e-05
7.51443e-05
-8.44626e-05
7.14048e-05
-8.56155e-05
6.63674e-05
-8.50818e-05
5.99978e-05
-8.21633e-05
5.22065e-05
-7.62594e-05
4.31642e-05
-6.8272e-05
3.39471e-05
-6.01783e-05
2.76913e-05
-5.5105e-05
2.77609e-05
3.72644e-05
-5.33706e-05
-0.000205201
-5.34167e-05
-0.000208924
-3.99351e-05
-0.000214245
-2.76873e-05
-0.000218075
-1.78456e-05
-0.000219412
-8.64339e-06
-0.000218022
4.75183e-07
-0.000214583
9.53672e-06
-0.000208602
1.8997e-05
-0.000200206
2.85352e-05
-0.00018983
3.79733e-05
-0.000178107
4.69706e-05
-0.000165556
5.53538e-05
-0.000152758
6.28667e-05
-0.000140517
6.93815e-05
-0.000129333
7.48708e-05
-0.000119691
7.93941e-05
-0.00011185
8.30205e-05
-0.000106567
8.61896e-05
-0.000103611
8.90979e-05
-0.000102863
9.14995e-05
-0.000104145
9.26208e-05
-0.000106716
9.26978e-05
-0.000109978
9.15115e-05
-0.000113214
8.87525e-05
-0.000115722
8.43721e-05
-0.000116786
7.82529e-05
-0.000115714
7.0393e-05
-0.000112499
6.05349e-05
-0.000107816
4.96061e-05
-0.00010369
3.96472e-05
-0.000101618
3.20497e-05
-0.000100323
2.92593e-05
3.02322e-05
-8.91875e-05
-0.000191276
-4.27524e-05
-0.000189896
-2.73238e-05
-0.000192273
-1.50304e-05
-0.000196027
-4.51051e-06
-0.000198663
3.59548e-06
-0.000198769
1.0726e-05
-0.000196416
1.78365e-05
-0.000191819
2.51112e-05
-0.000185052
3.26057e-05
-0.000176568
4.03395e-05
-0.000167106
4.81479e-05
-0.000157311
5.59496e-05
-0.000147569
6.35383e-05
-0.000138606
7.07696e-05
-0.00013098
7.75127e-05
-0.000125411
8.40451e-05
-0.000122313
9.04544e-05
-0.000121525
9.65288e-05
-0.000122603
0.000101425
-0.000124992
0.000104853
-0.000128587
0.000106774
-0.000132858
0.000107313
-0.000136981
0.000106071
-0.000140351
0.000102808
-0.000142382
9.76111e-05
-0.000142513
9.02311e-05
-0.000141296
8.06778e-05
-0.000138891
6.98721e-05
-0.00013749
5.9192e-05
-0.000137931
4.92653e-05
-0.000137721
3.99181e-05
-0.000133041
3.14252e-05
2.34239e-05
-0.000115115
-0.00017548
-3.45773e-05
-0.000174692
-1.77901e-05
-0.000171566
-3.11321e-06
-0.00017237
7.71301e-06
-0.000175199
1.64734e-05
-0.000177412
2.29056e-05
-0.000177293
2.85569e-05
-0.00017442
3.39291e-05
-0.000169675
3.93649e-05
-0.000163651
4.55625e-05
-0.000157108
5.24855e-05
-0.000150554
6.01064e-05
-0.000144393
6.81239e-05
-0.000139453
7.65533e-05
-0.00013654
8.53971e-05
-0.000135654
9.42971e-05
-0.0001365
0.000102618
-0.000138749
0.000109962
-0.000142041
0.000115691
-0.000146129
0.000119554
-0.000150979
0.000122021
-0.000155666
0.000122508
-0.0001596
0.000120739
-0.000161821
0.000115949
-0.000162038
0.000108967
-0.000161417
9.99103e-05
-0.0001602
9.01313e-05
-0.000159387
7.98355e-05
-0.000159416
6.98104e-05
-0.000158645
5.95722e-05
-0.000154604
4.86984e-05
-0.000145065
3.57038e-05
2.08937e-05
-0.000126528
-0.000161812
-2.89591e-05
-0.000161508
-1.075e-05
-0.000160063
5.58175e-06
-0.000156463
1.97844e-05
-0.00015573
2.91534e-05
-0.000157493
3.55624e-05
-0.000159192
4.06734e-05
-0.000158861
4.49488e-05
-0.000155959
4.91738e-05
-0.000152681
5.38879e-05
-0.000149676
6.03931e-05
-0.000146854
6.80987e-05
-0.00014494
7.7042e-05
-0.000144889
8.71096e-05
-0.000146066
9.75616e-05
-0.000148049
0.000107704
-0.000151175
0.000117011
-0.000155068
0.000124874
-0.000159329
0.000130791
-0.00016437
0.000134948
-0.000169387
0.000137109
-0.000173084
0.000136257
-0.000174569
0.000132034
-0.00017477
0.000125503
-0.000175245
0.000118211
-0.000175326
0.000109665
-0.000174964
9.9878e-05
-0.000173738
8.95181e-05
-0.000170566
7.84624e-05
-0.000163207
6.66612e-05
-0.000150337
5.30963e-05
-0.00013314
3.81922e-05
2.19921e-05
-0.000114438
-0.000147003
-2.53631e-05
-0.000152581
-6.83682e-06
-0.000152512
1.26635e-05
-0.00015088
2.86541e-05
-0.000147462
4.13696e-05
-0.000144536
4.90552e-05
-0.000145121
5.31376e-05
-0.000146059
5.69596e-05
-0.000145696
6.08492e-05
-0.000144953
6.52695e-05
-0.000145327
7.1466e-05
-0.000146319
7.95369e-05
-0.000148904
8.95116e-05
-0.00015264
0.000100708
-0.000155991
0.000112211
-0.000159983
0.00012306
-0.000164303
0.000132629
-0.000168594
0.000140314
-0.000173361
0.000145836
-0.000178061
0.000149277
-0.000180842
0.00014882
-0.000182244
0.000145698
-0.000183761
0.00014126
-0.00018634
0.000135946
-0.000188269
0.000128898
-0.000189478
0.000120284
-0.000190161
0.000110873
-0.000189246
0.000100214
-0.000184076
8.74484e-05
-0.000172241
7.25886e-05
-0.00015258
5.61272e-05
-0.000128173
3.93276e-05
2.21827e-05
-0.000101964
-0.000138373
-2.31468e-05
-0.00014122
-4.10781e-06
-0.000147351
1.59451e-05
-0.000147359
3.58573e-05
-0.000145486
5.04575e-05
-0.000141727
6.15038e-05
-0.000138126
6.71876e-05
-0.000137859
6.97115e-05
-0.000138846
7.37393e-05
-0.000140875
7.86572e-05
-0.000144156
8.51604e-05
-0.000148376
9.36691e-05
-0.000154574
0.000104608
-0.000160019
0.000116689
-0.000164978
0.000128469
-0.000169965
0.000139393
-0.000174309
0.000148536
-0.000178528
0.000155112
-0.000182156
0.000158825
-0.000184563
0.000159685
-0.000186176
0.000158309
-0.000189989
0.000156486
-0.000194676
0.000153126
-0.000199225
0.000148021
-0.000204307
0.000142276
-0.000209761
0.000135649
-0.000216709
0.000130395
-0.000221936
0.000122817
-0.000219898
0.000110817
-0.000208835
9.20966e-05
-0.000187382
6.88817e-05
-0.000155791
4.45968e-05
1.92242e-05
-0.000118131
-0.000136764
-2.14926e-05
-0.000137318
-2.22487e-06
-0.000143147
1.84364e-05
-0.000147548
4.02816e-05
-0.000146252
5.79373e-05
-0.000143955
7.16354e-05
-0.000139714
8.09107e-05
-0.000135687
8.48885e-05
-0.000136292
8.7519e-05
-0.000139989
9.33295e-05
-0.000145145
0.000100518
-0.000151767
0.000109681
-0.000160049
0.000121374
-0.00016626
0.000133726
-0.000172027
0.000145426
-0.000176779
0.000155771
-0.000180432
0.00016344
-0.000182761
0.000167637
-0.000184404
0.000169321
-0.000187114
0.000170156
-0.000192167
0.000170388
-0.000197986
0.000169171
-0.000204706
0.000166509
-0.000213091
0.000164193
-0.00022887
0.000168234
-0.000248844
0.000173366
-0.000268448
0.000170783
-0.000280156
0.000159596
-0.000281992
0.000140728
-0.000273563
0.000116381
-0.000253414
8.74054e-05
-0.000220362
5.37084e-05
1.58013e-05
-0.000172364
-0.000139312
-1.99903e-05
-0.000139667
-3.34182e-07
-0.000143522
2.09928e-05
-0.000150364
4.35316e-05
-0.000150226
6.39404e-05
-0.000148451
8.00925e-05
-0.000145309
9.25854e-05
-0.000140012
9.9506e-05
-0.000137935
0.000102424
-0.000142005
0.000108619
-0.000147992
0.000116603