/*--------------------------------*- C++ -*----------------------------------*\
  =========                 |
  \\      /  F ield         | OpenFOAM: The Open Source CFD Toolbox
   \\    /   O peration     | Website:  https://openfoam.org
    \\  /    A nd           | Version:  10
     \\/     M anipulation  |
\*---------------------------------------------------------------------------*/
FoamFile
{
    format      ascii;
    class       volScalarField;
    location    "0.751362";
    object      T;
}
// * * * * * * * * * * * * * * * * * * * * * * * * * * * * * * * * * * * * * //

dimensions      [0 0 0 1 0 0 0];

internalField   nonuniform List<scalar> 
16320
(
0.00335269
0.00339606
0.00344664
0.00349234
0.00353578
0.00357684
0.00364072
0.00372256
0.00378932
0.00382139
0.00382314
0.00380384
0.00376193
0.00374285
0.003723
0.00368087
0.00359908
0.0035412
0.00352284
0.00352411
0.00353213
0.00354389
0.00354689
0.00354309
0.00353302
0.00352343
0.00352101
0.0035224
0.00354255
0.00361442
0.00379189
0.00398323
0.00410008
0.00344332
0.00346831
0.00349957
0.00352106
0.00354257
0.00356594
0.00358703
0.00363295
0.00370261
0.00376213
0.00379059
0.00378898
0.00376643
0.00374564
0.00372359
0.00366413
0.00354162
0.00347282
0.0034613
0.00346749
0.00349177
0.00352151
0.00353763
0.00354107
0.00354599
0.00354728
0.00355354
0.00356295
0.00359416
0.00368348
0.00386928
0.00403136
0.00411821
0.00350471
0.00351426
0.00352311
0.0035312
0.00353895
0.00355083
0.00355704
0.00356837
0.00360003
0.00366904
0.00372796
0.00375162
0.00375146
0.00374271
0.00372036
0.00364989
0.00349038
0.00339632
0.0033804
0.0033922
0.00343849
0.00348877
0.00351846
0.00353546
0.00354259
0.00355748
0.00356337
0.00358598
0.00362991
0.00376775
0.00394222
0.00407832
0.00412985
0.00352266
0.00353177
0.00352975
0.00352248
0.00351135
0.00350337
0.00349631
0.00349683
0.00350382
0.00354136
0.00362711
0.0036906
0.00371553
0.00371786
0.00370579
0.00364454
0.00346227
0.00332972
0.00330164
0.00331277
0.00336233
0.00342842
0.0034814
0.0035169
0.00353786
0.00355147
0.00357474
0.00360588
0.00370473
0.00386246
0.00402108
0.00411142
0.0041374
0.00354131
0.00354479
0.00353712
0.00352454
0.00349518
0.00346957
0.00344191
0.00341955
0.00341629
0.00342738
0.00348854
0.0036003
0.00366621
0.0036886
0.00368435
0.00363636
0.00345247
0.00329129
0.0032515
0.00326077
0.00330747
0.00337194
0.00342768
0.00347767
0.00351412
0.00353897
0.00357939
0.00366971
0.00380656
0.00396292
0.0040752
0.00413097
0.00412727
0.00360518
0.00359079
0.00356184
0.00353297
0.003498
0.00346185
0.0034304
0.00338892
0.00335897
0.00335695
0.00337543
0.00347067
0.0035963
0.00365513
0.00366178
0.00362778
0.00345469
0.00326456
0.00321037
0.00321683
0.00326123
0.00332523
0.00338219
0.00343114
0.00347375
0.00352845
0.00361689
0.00375315
0.00390259
0.00402476
0.0041029
0.00411866
0.00411582
0.00365138
0.00361051
0.00357029
0.00353753
0.00349919
0.00345765
0.00342757
0.00338404
0.0033311
0.00330813
0.00331204
0.00335811
0.00350438
0.00361571
0.00364383
0.00362099
0.0034641
0.00324969
0.00317957
0.00318213
0.00322387
0.00329272
0.00334406
0.00339093
0.00345177
0.00354084
0.00367634
0.00382281
0.00395341
0.00404674
0.00408866
0.00409215
0.00401557
0.00363509
0.0035878
0.00355395
0.00352965
0.00349876
0.0034577
0.00342759
0.00338612
0.00332121
0.00327412
0.00326706
0.00328797
0.00340244
0.00356637
0.00362528
0.00361349
0.00348273
0.0032454
0.00315675
0.00315284
0.00318949
0.00326517
0.00331487
0.00336696
0.00344934
0.00357173
0.0037161
0.00385068
0.00395896
0.00402476
0.00403464
0.00397975
0.00380689
0.00360072
0.00357077
0.00355142
0.00353517
0.00351703
0.00347796
0.00343387
0.00339156
0.00331824
0.00324962
0.00322709
0.00323624
0.00331116
0.00349945
0.00360064
0.00360214
0.00350601
0.00325737
0.00314093
0.00312759
0.00315257
0.00323416
0.00329464
0.0033578
0.00345602
0.00358668
0.00372277
0.00384149
0.00391509
0.00392754
0.00387705
0.00372248
0.00352213
0.00360001
0.00359877
0.00362152
0.00362625
0.00361194
0.00357294
0.00349154
0.00341718
0.00332353
0.00323278
0.003193
0.00319531
0.00324808
0.00343291
0.00357312
0.00359169
0.00352461
0.00328379
0.00313623
0.00310648
0.00311846
0.00317786
0.00326516
0.00334635
0.00345414
0.00357964
0.00369289
0.00375727
0.00375827
0.00370806
0.00358639
0.00345017
0.00334521
0.00369356
0.00376387
0.00387839
0.00390021
0.00387131
0.00379755
0.00364221
0.0034862
0.00334317
0.00322242
0.0031636
0.00316066
0.00320148
0.00338041
0.00355063
0.0035849
0.00353661
0.00331493
0.00314238
0.00309679
0.00309825
0.00312541
0.00320233
0.0033139
0.00342223
0.00351126
0.00354861
0.00354519
0.00351875
0.00345078
0.00337139
0.00331287
0.00328548
0.00395153
0.00407382
0.00414044
0.0041513
0.0041361
0.00407605
0.0038915
0.00360736
0.00337842
0.0032162
0.0031379
0.00312921
0.00316374
0.00333463
0.00352734
0.003577
0.00354728
0.00335353
0.00315639
0.00309792
0.00309245
0.00310347
0.00314754
0.00323174
0.00330634
0.00334487
0.00335365
0.00335007
0.00333691
0.0033068
0.00328592
0.00327902
0.00328322
0.004145
0.00418783
0.00420218
0.00420393
0.00419814
0.00416729
0.0040526
0.00373173
0.00341409
0.00320806
0.00311477
0.00310364
0.0031394
0.00331413
0.00351766
0.00357411
0.0035555
0.00340548
0.00318213
0.00310499
0.00309411
0.00310021
0.00312647
0.00317512
0.00321487
0.00324018
0.00325153
0.00326164
0.00326266
0.00326665
0.00327182
0.00328846
0.00333239
0.00418902
0.00419958
0.00419123
0.00419189
0.00419187
0.00417061
0.00407707
0.00376989
0.00340374
0.00318656
0.00308891
0.00307728
0.00311578
0.0033082
0.00351586
0.00357548
0.00356386
0.00346387
0.00323596
0.00312766
0.00310436
0.00310658
0.00312605
0.00316019
0.00318738
0.00320937
0.00322709
0.00324231
0.00325631
0.00327028
0.0033031
0.00338324
0.00350724
0.0041834
0.00414011
0.00407229
0.00406906
0.00410208
0.00410604
0.00402447
0.00370633
0.00335725
0.00314174
0.00305961
0.00305842
0.00310962
0.00332234
0.003523
0.00357987
0.00357155
0.00349367
0.0033162
0.00319156
0.00314304
0.00313191
0.00314059
0.00316606
0.00319276
0.00321434
0.00323522
0.00325395
0.00328152
0.00334223
0.00346552
0.0035892
0.00363648
0.004098
0.0039303
0.00378409
0.00377956
0.00387134
0.00393464
0.00387762
0.00355708
0.00326146
0.00309128
0.00303699
0.00303683
0.0031141
0.00335992
0.0035418
0.003588
0.00357922
0.00351608
0.00340114
0.00330369
0.00323494
0.0032049
0.00319997
0.00320996
0.00323152
0.00325121
0.00327826
0.00332502
0.00342515
0.00356912
0.0036677
0.00368881
0.00366007
0.003973
0.00371255
0.00349245
0.00346038
0.00355777
0.00365143
0.00360697
0.00333729
0.00313345
0.00302502
0.00300154
0.00302795
0.00313949
0.00341204
0.00356664
0.00360172
0.00359275
0.0035394
0.00344969
0.00337014
0.00332461
0.00331502
0.00331588
0.00331581
0.00332118
0.00334894
0.00342447
0.00355609
0.00367906
0.0037348
0.00373169
0.00367792
0.00358115
0.0039193
0.00362658
0.00335856
0.00327453
0.00327111
0.0033135
0.00329499
0.00310496
0.00302692
0.00299409
0.0029946
0.00303846
0.00320234
0.00349628
0.00360912
0.00362153
0.00360599
0.00354908
0.00347757
0.00344144
0.00342305
0.0034128
0.00340548
0.00341384
0.00346917
0.00357773
0.00369268
0.00376934
0.00378726
0.00376202
0.00367992
0.0036063
0.00358531
0.00390192
0.00360008
0.00331904
0.0031965
0.00314269
0.00311257
0.00307942
0.00301427
0.00299478
0.00298974
0.00300128
0.00307375
0.0033346
0.00356512
0.00363088
0.00363524
0.0036155
0.00356646
0.00353265
0.00350794
0.00349122
0.00349067
0.00352412
0.00361049
0.00371475
0.00379924
0.00383554
0.00382766
0.00377414
0.00368575
0.00363627
0.00363231
0.00368923
0.00392098
0.0036241
0.00332213
0.00318203
0.00311341
0.00305261
0.00301656
0.00300179
0.00299645
0.00299852
0.0030367
0.00317489
0.0034893
0.00362659
0.00366253
0.00366624
0.00363906
0.00360019
0.00357634
0.00356686
0.00358298
0.00364883
0.00374373
0.00382811
0.00387674
0.00388128
0.00385069
0.00377427
0.00370292
0.00367608
0.00368935
0.00380602
0.0041394
0.00399796
0.00383556
0.00348346
0.00325856
0.00315071
0.00308912
0.00304345
0.00302904
0.00302736
0.00305338
0.00315615
0.0034248
0.00363871
0.00370174
0.00371586
0.00370222
0.00366541
0.00364274
0.00364761
0.00369338
0.00377616
0.00385798
0.00391183
0.00392577
0.00390905
0.00385573
0.00377923
0.00373313
0.00372481
0.00377399
0.00398796
0.00439963
0.00468717
0.00401822
0.00396127
0.0037942
0.00346098
0.00328402
0.00320836
0.00315119
0.00313786
0.00313922
0.00323097
0.00344843
0.0036386
0.00371909
0.003744
0.00374838
0.00373745
0.00372228
0.00374672
0.00381713
0.00389269
0.00394305
0.00395982
0.00394922
0.00391382
0.00385089
0.00379545
0.00377395
0.00378952
0.00391232
0.00425788
0.00465066
0.00485584
0.0048959
0.00399249
0.00400287
0.00395836
0.00383896
0.0036046
0.00345913
0.00341341
0.00338828
0.00341126
0.00355571
0.0036754
0.00374563
0.00378055
0.00379887
0.00381478
0.00383188
0.00387009
0.00393247
0.00397342
0.00398707
0.00397727
0.00395025
0.00389833
0.00384731
0.00382455
0.00382502
0.00389399
0.0041385
0.00452945
0.00481343
0.00492382
0.00492601
0.00486602
0.00389519
0.00398812
0.0039915
0.00398659
0.00393487
0.00385148
0.00377327
0.00375978
0.00375447
0.00382605
0.00386339
0.00388471
0.0039067
0.0039255
0.0039506
0.00397203
0.00399177
0.0040019
0.00399625
0.00397436
0.00392706
0.00387596
0.00385605
0.0038564
0.00390402
0.00407881
0.00439846
0.00469307
0.00485627
0.00490133
0.00487833
0.00475442
0.00451711
0.00378897
0.00384424
0.00394215
0.00399278
0.00399552
0.00399799
0.00398123
0.00396253
0.00395841
0.00396983
0.0039783
0.003983
0.00399024
0.00399519
0.00399866
0.00399919
0.00399426
0.00397943
0.00393735
0.00389236
0.00387167
0.00387189
0.00391166
0.00404283
0.00429061
0.0045473
0.00471
0.00479787
0.00481287
0.00473463
0.00452386
0.00431223
0.00413524
0.00376393
0.00376183
0.00378027
0.00382629
0.00391513
0.00395383
0.00397384
0.00397633
0.00398128
0.00398271
0.00398559
0.00398623
0.00398617
0.00398225
0.003971
0.00395101
0.00392217
0.003895
0.00388447
0.00388378
0.00391019
0.00401198
0.00420345
0.00439328
0.00452654
0.0046286
0.00467429
0.00463377
0.00448113
0.00431454
0.00417557
0.00406139
0.00397738
0.00377825
0.00375383
0.00374861
0.00374858
0.00376197
0.00378265
0.0038332
0.00386947
0.00388453
0.00390086
0.0039058
0.00390644
0.00389869
0.00388936
0.00388167
0.00388022
0.00388436
0.00389547
0.0039216
0.00399128
0.00412606
0.00426317
0.00435718
0.00443184
0.00448092
0.0044707
0.0043699
0.00426628
0.00418294
0.00411375
0.00405277
0.00400348
0.00393234
0.00380422
0.00380416
0.0037726
0.00375436
0.00374952
0.00374869
0.00376195
0.00378174
0.00380226
0.0038109
0.00382646
0.00384012
0.00384947
0.00386349
0.00387759
0.00389704
0.00393093
0.0040019
0.00408563
0.00415524
0.00421938
0.00427153
0.00430524
0.00429098
0.00423909
0.00419568
0.00415848
0.00413048
0.00410247
0.00407452
0.00403781
0.00396657
0.0038206
0.00380315
0.00382582
0.0038277
0.00382747
0.00382381
0.00381849
0.00381087
0.00380905
0.00381732
0.00383241
0.00384782
0.00386554
0.00388847
0.00392068
0.0039581
0.00400533
0.00405575
0.00409831
0.00412684
0.00415182
0.00417049
0.00415381
0.00412506
0.00411003
0.00410554
0.00410424
0.00410059
0.00409771
0.00409107
0.00408138
0.00399364
0.00381423
0.00339821
0.00369395
0.00380347
0.0038329
0.00384217
0.0038522
0.00387011
0.00388536
0.00389081
0.00390572
0.00392198
0.00394246
0.00396157
0.00398723
0.00401159
0.00403171
0.00405349
0.00407205
0.00408479
0.00408289
0.00405469
0.00403412
0.00402803
0.00403276
0.00404768
0.00406305
0.00407836
0.00409164
0.00410271
0.00410087
0.00402294
0.00379748
0.00341764
0.0031433
0.00354107
0.00366404
0.00378885
0.00382473
0.00383812
0.00385033
0.00387914
0.00390245
0.00392848
0.00395291
0.00397781
0.00399344
0.00400633
0.00402108
0.00403268
0.00403903
0.00403378
0.00399382
0.00396702
0.00395684
0.00397024
0.00398277
0.00400582
0.0040345
0.00406219
0.00409345
0.00412619
0.00413513
0.00409164
0.0038988
0.00361934
0.00332254
0.0031319
0.00350558
0.00351622
0.00363034
0.00376864
0.0038099
0.00382576
0.0038407
0.00388056
0.00391906
0.00394998
0.00397564
0.00398766
0.00399715
0.00400122
0.00399531
0.00395878
0.00392244
0.00390577
0.00390225
0.00393056
0.00395258
0.00397824
0.0040106
0.0040534
0.00411209
0.00418292
0.00420717
0.00418545
0.00404642
0.00384676
0.00361845
0.00339174
0.00323304
0.00354197
0.00348619
0.00348485
0.00357305
0.00373455
0.00379386
0.00381598
0.00383409
0.00388503
0.00393723
0.00395544
0.00396019
0.00396026
0.00393977
0.00388992
0.00386642
0.00386018
0.00386138
0.0038968
0.00393145
0.00395889
0.0039998
0.00406862
0.00419274
0.00425906
0.00427963
0.00425544
0.00417411
0.00404507
0.00390542
0.00379058
0.00369368
0.00357919
0.00378782
0.00357294
0.00345885
0.00344885
0.00352247
0.00369356
0.00378251
0.00381736
0.00384975
0.00390854
0.00393091
0.00393215
0.00391138
0.00385422
0.00382208
0.00381695
0.00382419
0.00386047
0.00390645
0.00395068
0.00401131
0.00412578
0.00424302
0.00428666
0.00429374
0.00427838
0.00422916
0.004122
0.00399544
0.00387873
0.00381772
0.00379024
0.00374606
0.00392202
0.00380423
0.00356814
0.00344418
0.00343184
0.00350291
0.003672
0.00379143
0.00384471
0.00388953
0.00390398
0.00389892
0.00385626
0.00379671
0.00378289
0.00378631
0.00381915
0.00387625
0.00394482
0.00403242
0.00417981
0.00426297
0.00428473
0.00428877
0.00426702
0.00419483
0.00405871
0.0038658
0.00368563
0.00358075
0.00353533
0.00351696
0.00356084
0.00398829
0.00390638
0.00372476
0.00348212
0.00340501
0.00340668
0.00350307
0.00369482
0.00382839
0.00387524
0.00388565
0.00387217
0.00380651
0.0037606
0.00375578
0.00377623
0.00383569
0.00392799
0.00406094
0.00419084
0.00425591
0.00426829
0.00427116
0.00421244
0.00406383
0.0037601
0.003381
0.00312873
0.0029849
0.0029211
0.00289656
0.00290883
0.00297959
0.00401854
0.00394359
0.00379341
0.00354366
0.00339517
0.00336943
0.0034056
0.00355699
0.00376667
0.00384557
0.00385669
0.00383214
0.00376047
0.00373615
0.0037412
0.00378823
0.00388559
0.00404329
0.00417982
0.00423285
0.00424844
0.00424239
0.00414767
0.00390578
0.00335293
0.00302875
0.00288367
0.00280796
0.00278871
0.00279146
0.00280404
0.00280503
0.00280122
0.00402257
0.00394502
0.00378617
0.00354072
0.00339206
0.00336215
0.0033802
0.003502
0.00371918
0.00381312
0.00382556
0.0037971
0.00373688
0.00372363
0.00374178
0.00382005
0.00397612
0.00413588
0.00420139
0.00422199
0.00420788
0.00408208
0.00371962
0.00316705
0.00293734
0.0028339
0.00281172
0.00281227
0.00285165
0.00295977
0.00310019
0.00315612
0.00314277
0.00402081
0.003941
0.00378015
0.00353891
0.0033985
0.00336948
0.00338499
0.00350234
0.00370256
0.00377913
0.00378763
0.00375549
0.00371372
0.00370998
0.00374912
0.00386377
0.00404546
0.00415126
0.00418218
0.00417145
0.00405454
0.00367206
0.00316245
0.00293051
0.00285254
0.00283339
0.00284522
0.0029518
0.00320437
0.00338525
0.00344795
0.00344085
0.00336742
0.00401862
0.00394989
0.00380278
0.00357708
0.00343902
0.0034072
0.0034156
0.00352028
0.00370131
0.00376191
0.00376732
0.00373788
0.00370417
0.0037045
0.00375989
0.003905
0.0040715
0.00413133
0.00413652
0.00403559
0.00373882
0.00330434
0.00300085
0.00289611
0.00286617
0.00288418
0.00302825
0.00336907
0.00354348
0.00360058
0.00357822
0.00348858
0.00339102
0.00400474
0.00395607
0.00385024
0.00368847
0.00356629
0.00352779
0.00352318
0.00358826
0.00371052
0.00374404
0.00374441
0.00370667
0.00368341
0.00369278
0.0037675
0.00393533
0.0040539
0.00407402
0.00401976
0.0038422
0.00353097
0.00317452
0.00299112
0.00292896
0.00293631
0.00308438
0.00344245
0.00361391
0.00366531
0.00363323
0.00349347
0.00336926
0.00334014
0.00398086
0.00394624
0.00386782
0.00376074
0.00368366
0.00365417
0.00364752
0.00366832
0.00371577
0.00372761
0.00371049
0.00366585
0.00365579
0.00367848
0.00376934
0.00393061
0.00399068
0.0039884
0.00390899
0.00373398
0.00345339
0.00317241
0.00304135
0.00302758
0.00314578
0.00346098
0.00363839
0.00368709
0.00364965
0.00346672
0.00333803
0.003332
0.00338982
0.00394653
0.00391572
0.0038559
0.00378068
0.00372923
0.00370556
0.00369511
0.00369518
0.00370799
0.00370874
0.00367664
0.00364002
0.00363715
0.00366736
0.00377046
0.00389503
0.00392851
0.00392034
0.00385124
0.00367392
0.00343644
0.00323113
0.00318449
0.0032563
0.00346854
0.00364048
0.00368468
0.00364319
0.00341874
0.00331121
0.00335722
0.00348164
0.00360651
0.00391798
0.00387356
0.00381395
0.00376686
0.00373564
0.00371476
0.00369813
0.00368624
0.00367847
0.00365294
0.00361627
0.00360445
0.00360685
0.00364508
0.00375183
0.00384679
0.00386435
0.00385744
0.00378469
0.00366213
0.00346932
0.00338376
0.00340461
0.00351424
0.00362971
0.00366276
0.0036052
0.00338376
0.00331322
0.00337561
0.00351876
0.00362695
0.00369323
0.00387594
0.00378689
0.00372623
0.00371366
0.00370806
0.00369619
0.00367813
0.00364516
0.00358456
0.00354762
0.00353723
0.0035376
0.00355545
0.003609
0.00371477
0.00378835
0.00380358
0.00379581
0.003772
0.00366673
0.00355975
0.00354456
0.0035734
0.00361837
0.00362894
0.00355381
0.00335819
0.00331933
0.00338572
0.00353745
0.00360397
0.00365487
0.00370404
0.00387281
0.00376484
0.00361859
0.0035702
0.00357688
0.00358978
0.00358763
0.00355143
0.0035129
0.00349205
0.00348339
0.00348248
0.00350433
0.00356534
0.00366721
0.00374463
0.00375985
0.00377572
0.00374135
0.00369
0.003633
0.00361733
0.00361409
0.00360312
0.00349642
0.00333578
0.00331121
0.00338898
0.00350509
0.00355597
0.0035961
0.00362787
0.00367033
0.00388041
0.00378232
0.00360117
0.00344225
0.00338048
0.00337361
0.00338566
0.00339751
0.00341517
0.00343684
0.00344857
0.00345678
0.0034806
0.00354393
0.00364595
0.00370304
0.003749
0.00373764
0.0037344
0.00369838
0.00364853
0.00361437
0.00357605
0.00344437
0.00332338
0.00331258
0.00336248
0.00346609
0.00350438
0.00352774
0.00354597
0.00356846
0.00360293
0.00389832
0.00382313
0.00363031
0.00343205
0.0032935
0.0032333
0.0032226
0.00323402
0.00326683
0.00331722
0.00337221
0.00341549
0.00345862
0.0035266
0.00359798
0.00369736
0.00370612
0.00372482
0.00371165
0.00368456
0.00362072
0.00353332
0.00339185
0.00330718
0.00330062
0.0033471
0.00343452
0.0034718
0.00348921
0.0035072
0.00352453
0.00353996
0.00355674
0.00392153
0.00389077
0.00371191
0.0034692
0.00329745
0.003192
0.0031419
0.00313061
0.00314091
0.00317833
0.0032348
0.00331403
0.0033946
0.00347639
0.00359479
0.00362315
0.00367116
0.00365986
0.00363131
0.00356425
0.00345613
0.00333822
0.00329141
0.00329199
0.00332632
0.0034135
0.00346137
0.00348725
0.00349989
0.00352207
0.00353916
0.00354769
0.00355014
0.00393482
0.00395484
0.00384835
0.00358928
0.00334803
0.00320841
0.0031341
0.00309956
0.00309225
0.00309854
0.00313124
0.00318105
0.00326324
0.00336388
0.00342936
0.00347908
0.00347165
0.0034644
0.00341539
0.00335588
0.0033076
0.00328334
0.00328778
0.00331981
0.00340144
0.00347308
0.0035184
0.00354566
0.00357445
0.00359144
0.0035922
0.00358317
0.00356401
0.00388554
0.00399331
0.00398026
0.00380303
0.00351283
0.00328865
0.0031657
0.00311401
0.00309048
0.0030904
0.00309676
0.00312763
0.00317033
0.00323045
0.00327329
0.00329802
0.00330296
0.00330491
0.00329293
0.00328531
0.00328506
0.00328981
0.00332113
0.00340156
0.00351004
0.00359561
0.00366547
0.00374414
0.00380744
0.0038326
0.00380744
0.00372056
0.00364458
0.00367426
0.00398391
0.00405292
0.00400615
0.00380034
0.0035228
0.00330614
0.00318311
0.00313259
0.0031045
0.00311028
0.00312325
0.00315626
0.0031932
0.0032231
0.0032399
0.00325408
0.00327053
0.00328045
0.00329087
0.00331163
0.00335403
0.00344583
0.00359609
0.00374928
0.00390981
0.00411205
0.00432403
0.00443506
0.00446682
0.00435795
0.00414607
0.00389619
0.0034467
0.00380734
0.00406031
0.00411253
0.00405224
0.00386972
0.00363662
0.00342797
0.00328372
0.00321095
0.00316504
0.0031676
0.00318118
0.00320882
0.00323335
0.00324975
0.00326822
0.00329374
0.00332068
0.00336384
0.0034401
0.00356725
0.0037724
0.0040154
0.00425057
0.00450709
0.00474705
0.00491899
0.00499358
0.00501003
0.00493344
0.00476989
0.00449704
0.00334376
0.00350375
0.00392152
0.00412311
0.00416964
0.00412579
0.00400289
0.0038316
0.00366504
0.0035144
0.00339814
0.00333392
0.00331513
0.00331596
0.00332686
0.00334381
0.00337765
0.00343154
0.0035057
0.00362032
0.00380843
0.0040405
0.0042842
0.0045303
0.00476231
0.00497243
0.00512558
0.00519959
0.00521973
0.00519171
0.00511436
0.00500156
0.00484907
0.00333931
0.00336192
0.00356218
0.00400411
0.00417314
0.00422028
0.0042157
0.00416661
0.00406387
0.00396429
0.0038695
0.00376951
0.0036964
0.00365597
0.0036407
0.00365697
0.00371932
0.00382063
0.00395976
0.00413738
0.00433009
0.00453803
0.00474297
0.00493653
0.00509797
0.00521718
0.00528121
0.00529895
0.00527646
0.00522266
0.00514309
0.00504868
0.00493024
0.00339398
0.00335115
0.00337487
0.00361164
0.00406005
0.00421173
0.00425348
0.00430863
0.00431822
0.00429017
0.00426453
0.00424264
0.00420958
0.00418775
0.00417874
0.0041914
0.00424788
0.00434195
0.00446148
0.00460199
0.00475337
0.00490409
0.00504367
0.00515957
0.00524127
0.00528665
0.00530228
0.00528684
0.00522365
0.00512727
0.00501486
0.00491416
0.00484545
0.00345153
0.00342514
0.00336069
0.00338281
0.00364948
0.00408653
0.00421791
0.00430358
0.00437866
0.00442997
0.00446855
0.00450469
0.00453994
0.00457366
0.00460398
0.00463497
0.00467947
0.00474896
0.00483061
0.0049229
0.00501668
0.00510334
0.00517553
0.00522563
0.00525407
0.00526315
0.00522384
0.00511715
0.00497639
0.00481367
0.00463708
0.0044962
0.00443029
0.00344183
0.00350082
0.00345742
0.0033652
0.00339704
0.00365597
0.00405462
0.00421387
0.00434388
0.00443221
0.00451275
0.00458281
0.0046525
0.00472438
0.00479242
0.0048524
0.00490415
0.00496262
0.00502096
0.00508074
0.00513299
0.00517445
0.00520494
0.00522181
0.00521905
0.00516015
0.00505683
0.00496104
0.00478453
0.00450808
0.00420819
0.00400342
0.00390585
0.00338786
0.00347246
0.00354958
0.00346935
0.00337771
0.00340648
0.0036198
0.00398527
0.00414641
0.00434902
0.00448169
0.00457503
0.004656
0.00473309
0.004812
0.00488744
0.0049502
0.00500861
0.00506063
0.00510852
0.00514455
0.0051711
0.00518448
0.00517163
0.00509841
0.00500929
0.00493185
0.00477037
0.00439033
0.00390902
0.00362606
0.00350189
0.00346177
0.00341956
0.00342496
0.00350326
0.00357991
0.00348959
0.00338838
0.00340372
0.0035608
0.00389939
0.00404004
0.00429585
0.00448541
0.00460938
0.00469545
0.00475768
0.00483851
0.00491148
0.00497342
0.00502805
0.00507376
0.00509817
0.00510366
0.00507761
0.00498886
0.00490876
0.00483367
0.00464153
0.00415123
0.0036556
0.00340964
0.00329428
0.00325406
0.00324583
0.0035093
0.00348329
0.00347174
0.00354434
0.00358758
0.00350003
0.00339123
0.00339217
0.00351623
0.00379941
0.00391866
0.0041563
0.00442509
0.00457547
0.00465531
0.00468792
0.00473955
0.00478922
0.0048395
0.00487783
0.00488038
0.00486231
0.0048056
0.00475114
0.00468058
0.00443883
0.00390241
0.00348301
0.00330816
0.00322192
0.00312326
0.00306155
0.00305839
0.00366276
0.0036076
0.00354566
0.00353564
0.00357663
0.00359155
0.00350422
0.00338677
0.00337402
0.00347009
0.00369168
0.00380388
0.00399002
0.00426147
0.00446955
0.00455552
0.00457878
0.00458498
0.00459091
0.0045966
0.00459384
0.00458126
0.00455396
0.00448355
0.00423622
0.00377762
0.0034418
0.00330692
0.00323035
0.00303502
0.00272682
0.00260075
0.00263117
0.00378601
0.00376046
0.00369819
0.00361557
0.00358875
0.00360365
0.00359316
0.00349153
0.00337228
0.00335467
0.00342533
0.00358585
0.00368425
0.00383748
0.00407175
0.0042856
0.00438836
0.004416
0.0044134
0.00440746
0.00439207
0.00436271
0.00429252
0.00408575
0.00372315
0.00344395
0.003321
0.0032054
0.00287649
0.00239755
0.00220756
0.00218359
0.00223415
0.0038329
0.00386739
0.00385114
0.00377475
0.0036843
0.0036289
0.0036179
0.00358877
0.00344819
0.00335171
0.00333603
0.00338671
0.00349337
0.00357191
0.0036989
0.00388997
0.00406889
0.00417327
0.00420271
0.00419955
0.00417789
0.00411366
0.00395076
0.00367388
0.00344312
0.00333212
0.00319457
0.00276647
0.00226327
0.00209295
0.00207325
0.00208865
0.00213592
0.00383572
0.00391347
0.00392725
0.00390536
0.00384487
0.0037305
0.00365195
0.00362659
0.00357234
0.00340687
0.00333504
0.00331814
0.00335013
0.00341514
0.00347431
0.00357617
0.00370848
0.00385329
0.00391368
0.00391444
0.00389204
0.00380949
0.00361793
0.00342669
0.00332796
0.00322194
0.00282546
0.00227813
0.0020763
0.00204751
0.00206278
0.00209388
0.00213115
0.00381744
0.00391846
0.00395138
0.00394789
0.00391156
0.00386282
0.00375352
0.00366363
0.00362719
0.00355112
0.00337979
0.00331952
0.00329731
0.0033145
0.00335077
0.0033934
0.00345487
0.00356035
0.00362444
0.00362966
0.00360995
0.00352908
0.00338803
0.00330342
0.00324077
0.00299758
0.00242482
0.0021438
0.00209466
0.00213717
0.00220939
0.00223059
0.00223071
0.00378903
0.00391015
0.00395356
0.00395498
0.00393314
0.00387603
0.00383454
0.00374508
0.00365959
0.00361492
0.0035154
0.0033567
0.0032996
0.00327624
0.00328368
0.0032993
0.00331723
0.00335626
0.00339561
0.00340068
0.00338857
0.00333872
0.00327497
0.00323756
0.00312727
0.00268537
0.00227344
0.00217218
0.00224827
0.00246695
0.00255463
0.00253355
0.00243785
0.00377643
0.00390541
0.00394622
0.00394849
0.00392971
0.00387465
0.00383769
0.00379899
0.00371485
0.00364688
0.00359526
0.00346715
0.00333122
0.00327855
0.00325841
0.00325863
0.00325673
0.003257
0.00326058
0.00325803
0.00324559
0.00322339
0.00320533
0.00316335
0.00295445
0.00247961
0.00227159
0.00230627
0.00256244
0.00278301
0.00284078
0.00282078
0.00269536
0.00377826
0.00390457
0.00393027
0.00392715
0.0039025
0.00384966
0.00381405
0.00378834
0.00375008
0.00367602
0.00363134
0.00357082
0.00341806
0.00330713
0.00326067
0.00324526
0.00323478
0.00321966
0.00320491
0.00319025
0.00317861
0.00316721
0.00314788
0.00307411
0.00277602
0.00241695
0.00234057
0.00243722
0.00270205
0.00286709
0.00293357
0.00293957
0.00288601
0.00381778
0.00391003
0.00392199
0.00391409
0.00388365
0.00383179
0.00377778
0.00375267
0.00373691
0.00369735
0.00364449
0.0036075
0.00354305
0.00336179
0.00327987
0.00324637
0.00322883
0.00320773
0.00318301
0.00316015
0.00314306
0.00313293
0.00310869
0.00302127
0.00270756
0.00243384
0.00240246
0.00246955
0.00268325
0.00286573
0.00296191
0.00298725
0.00295616
0.00385798
0.00392021
0.00392473
0.00391533
0.00388371
0.00383716
0.00377095
0.00371523
0.00370483
0.00368877
0.00364903
0.00361738
0.003578
0.00351124
0.00332095
0.00325214
0.00322702
0.00320491
0.00317784
0.00314947
0.00313243
0.00311618
0.00309042
0.00300209
0.00270728
0.00249361
0.00247224
0.00251364
0.0026666
0.00286126
0.00297897
0.00300987
0.0029789
0.00389686
0.00393589
0.00394951
0.00394712
0.00392684
0.00387544
0.00379286
0.0037125
0.00366693
0.0036612
0.00364523
0.0036164
0.00359125
0.00355138
0.00344856
0.00329328
0.0032342
0.00320752
0.00318069
0.00315291
0.00313477
0.00312015
0.00308827
0.003006
0.00274622
0.00260763
0.00260119
0.00263185
0.0027472
0.00291736
0.00300915
0.00302182
0.00298265
0.00392753
0.00395782
0.00401958
0.00404862
0.00402968
0.00396936
0.00384364
0.00373209
0.00365007
0.00362681
0.00362496
0.00361213
0.00359295
0.00356936
0.00351734
0.00337904
0.0032621
0.00321713
0.00318788
0.00316624
0.00314888
0.00313461
0.00310993
0.00303679
0.00286498
0.00278489
0.0027873
0.00281425
0.00290138
0.00299855
0.00303339
0.0030256
0.00294489
0.00395413
0.00402417
0.00417442
0.00426235
0.00423451
0.00413979
0.00393586
0.00376635
0.00365292
0.0036053
0.00359792
0.00359766
0.00358956
0.00357494
0.00354623
0.00347654
0.00332473
0.00324185
0.00320085
0.00317653
0.00316222
0.00315089
0.00313564
0.00309664
0.00300057
0.00294913
0.00295105
0.00296778
0.00301366
0.00304282
0.00304198
0.00300135
0.00282311
0.00401234
0.00420327
0.00439775
0.00444317
0.00441711
0.00429935
0.00402809
0.00380254
0.00366218
0.00359378
0.00357446
0.00357493
0.00357802
0.00357267
0.00355655
0.00351929
0.00343005
0.00329044
0.00322357
0.00319192
0.00317241
0.00316203
0.00315265
0.00313155
0.00308266
0.00305369
0.00305167
0.00305635
0.00306302
0.00306082
0.00303077
0.00289597
0.00268118
0.00417762
0.00437871
0.00446856
0.00448906
0.00447086
0.0043685
0.0040704
0.00380991
0.00366505
0.00358859
0.00356065
0.00355827
0.00356291
0.00356511
0.00355914
0.00353941
0.00349329
0.00338942
0.00327115
0.00321765
0.00319066
0.00317817
0.00316792
0.00315318
0.00312991
0.00311166
0.00309774
0.00309128
0.00308163
0.00304853
0.00293417
0.00270181
0.00260374
0.00432871
0.00441818
0.00447488
0.00449088
0.00447586
0.0043915
0.00410462
0.00379951
0.00365637
0.00358342
0.00355677
0.00355365
0.00355911
0.00356535
0.00356257
0.00355181
0.00352494
0.0034661
0.00336873
0.00327591
0.00322269
0.00319794
0.00318347
0.00317301
0.00315663
0.00313401
0.00311935
0.0031017
0.00306325
0.00293877
0.00270398
0.00259529
0.00258062
0.0043604
0.00440268
0.00441892
0.00444834
0.00445101
0.00438908
0.00415005
0.00377927
0.00363717
0.00358279
0.00355975
0.00355707
0.0035625
0.00356888
0.00356902
0.003564
0.00354966
0.00351635
0.00344797
0.00335743
0.00329015
0.00325046
0.00322881
0.00320227
0.00317007
0.00314655
0.00312108
0.00306531
0.00289528
0.00267793
0.00258128
0.00257151
0.00260219
0.00433462
0.00427886
0.00428765
0.00436489
0.00440746
0.00435607
0.00415501
0.00378369
0.00363804
0.00359094
0.00357232
0.0035692
0.00357248
0.00357748
0.00357835
0.0035741
0.00356167
0.00354503
0.00351032
0.00344819
0.00338125
0.00331793
0.00326187
0.00321286
0.00317833
0.00313218
0.00301683
0.00277976
0.00261632
0.00256941
0.00257882
0.00264148
0.00284073
0.00417277
0.00403365
0.00409915
0.00426554
0.00432188
0.00429384
0.00412841
0.00384816
0.00366653
0.00361585
0.00359761
0.00359127
0.0035904
0.00359393
0.0035967
0.00359781
0.00358782
0.0035706
0.00354337
0.00348455
0.00339936
0.00332129
0.00325764
0.00318177
0.00303574
0.00282224
0.00265225
0.00259137
0.00260231
0.0026678
0.00286619
0.00313742
0.0033213
0.00384058
0.00372629
0.00385293
0.0040881
0.00418533
0.00420303
0.00411053
0.00396363
0.00379869
0.00371465
0.00367793
0.00365854
0.00365059
0.00364781
0.00363703
0.00362123
0.00359622
0.00356959
0.0035344
0.00346021
0.00333889
0.00317044
0.0029638
0.00278698
0.0026707
0.00264721
0.00268538
0.00285504
0.00320672
0.00353203
0.003758
0.00389827
0.00395581
0.00346473
0.00338487
0.0034971
0.00377773
0.00393772
0.00400027
0.00401857
0.00395584
0.00387285
0.0037989
0.00375177
0.00371081
0.00367564
0.00365124
0.00361755
0.00357782
0.00351345
0.00341075
0.00325529
0.00306212
0.00287446