/*--------------------------------*- C++ -*----------------------------------*\
  =========                 |
  \\      /  F ield         | OpenFOAM: The Open Source CFD Toolbox
   \\    /   O peration     | Website:  https://openfoam.org
    \\  /    A nd           | Version:  10
     \\/     M anipulation  |
\*---------------------------------------------------------------------------*/
FoamFile
{
    format      ascii;
    class       volScalarField;
    location    "0.150109";
    object      p;
}
// * * * * * * * * * * * * * * * * * * * * * * * * * * * * * * * * * * * * * //

dimensions      [1 -1 -2 0 0 0 0];

internalField   nonuniform List<scalar> 
16320
(
0.507076
0.488911
0.472878
0.457827
0.444211
0.432937
0.423816
0.416654
0.411104
0.407035
0.404117
0.403813
0.406051
0.411931
0.424712
0.452236
0.510566
0.624822
0.782426
0.862163
0.853795
0.831637
0.786888
0.7259
0.670914
0.626165
0.592851
0.588955
0.603027
0.644917
0.735348
0.851243
0.891888
0.505189
0.490658
0.477687
0.465126
0.452832
0.441417
0.431148
0.422102
0.414202
0.407598
0.401954
0.398794
0.40043
0.405251
0.416294
0.441056
0.492121
0.594052
0.752018
0.840151
0.836739
0.81771
0.775091
0.714511
0.662428
0.617774
0.585778
0.588631
0.604857
0.64901
0.741952
0.854451
0.889
0.499543
0.488831
0.479136
0.469243
0.458793
0.447925
0.437257
0.427218
0.417844
0.409338
0.401863
0.396893
0.398132
0.402623
0.412942
0.43691
0.486873
0.583707
0.720428
0.794967
0.796143
0.782769
0.748604
0.69396
0.645539
0.604406
0.580277
0.585563
0.604399
0.650509
0.743706
0.848194
0.873497
0.492306
0.48637
0.480082
0.472796
0.463907
0.453869
0.443448
0.433007
0.42274
0.412923
0.404053
0.398153
0.399365
0.403504
0.414631
0.440334
0.493221
0.589051
0.691622
0.743821
0.746041
0.736339
0.709948
0.664768
0.623598
0.588684
0.573658
0.580612
0.602268
0.649958
0.740993
0.834043
0.84829
0.486219
0.484877
0.481727
0.476443
0.46872
0.459755
0.449753
0.439182
0.428367
0.417593
0.407868
0.401897
0.403305
0.40819
0.421031
0.45109
0.511652
0.600142
0.666416
0.695866
0.695355
0.687105
0.665028
0.629867
0.596955
0.573211
0.564305
0.572218
0.596528
0.646529
0.734545
0.816463
0.819832
0.484993
0.485795
0.485047
0.481181
0.473794
0.465571
0.455802
0.445109
0.433944
0.422592
0.412615
0.40748
0.409616
0.41601
0.432233
0.469224
0.540011
0.608068
0.644719
0.654822
0.652004
0.641552
0.61979
0.594282
0.57214
0.557105
0.553066
0.561728
0.587234
0.638759
0.726078
0.796968
0.795669
0.487402
0.489965
0.490742
0.487623
0.480148
0.47197
0.462295
0.451183
0.439524
0.427791
0.418106
0.414856
0.417639
0.426922
0.449352
0.497433
0.570676
0.612754
0.625247
0.62346
0.615369
0.598719
0.581171
0.563743
0.551116
0.541761
0.540914
0.549992
0.575289
0.627473
0.716691
0.778384
0.770415
0.495536
0.498884
0.499939
0.497003
0.489133
0.480112
0.47022
0.458152
0.445542
0.433344
0.4243
0.423913
0.42788
0.441503
0.474271
0.539512
0.599173
0.61559
0.613327
0.601549
0.581834
0.565695
0.551109
0.541911
0.534094
0.527942
0.528533
0.537843
0.561533
0.614758
0.707078
0.760326
0.742446
0.512048
0.51366
0.514218
0.509709
0.501041
0.49008
0.479863
0.466368
0.452683
0.439856
0.431994
0.433804
0.441269
0.461905
0.51012
0.59094
0.623512
0.621165
0.607887
0.581348
0.559736
0.542799
0.53343
0.526567
0.520264
0.515709
0.516729
0.525565
0.547716
0.600944
0.697446
0.74245
0.712377
0.530669
0.531583
0.532621
0.525996
0.517414
0.505121
0.49202
0.476249
0.460903
0.447785
0.44217
0.445247
0.457174
0.488925
0.558363
0.646028
0.653159
0.638746
0.604658
0.570792
0.545716
0.530084
0.522078
0.514661
0.508721
0.504692
0.505453
0.513364
0.534569
0.587022
0.688518
0.726234
0.679492
0.554217
0.555156
0.55696
0.547725
0.535506
0.520941
0.504494
0.487369
0.470875
0.457505
0.454209
0.458847
0.476477
0.522596
0.617878
0.694369
0.685929
0.652301
0.602393
0.565097
0.53695
0.524174
0.513937
0.505167
0.498746
0.494769
0.495114
0.502054
0.523598
0.576199
0.681135
0.708495
0.642425
0.578574
0.576996
0.572728
0.566038
0.552904
0.535543
0.51719
0.498847
0.481763
0.468831
0.468375
0.475354
0.500524
0.563667
0.684449
0.737068
0.716987
0.659119
0.601159
0.558784
0.533821
0.519187
0.506354
0.496374
0.489232
0.485198
0.485673
0.492849
0.51613
0.572195
0.676801
0.68522
0.601644
0.595644
0.592704
0.587174
0.576743
0.563254
0.547095
0.529424
0.511337
0.494051
0.48203
0.484005
0.495186
0.530277
0.612935
0.751364
0.77664
0.738951
0.658344
0.598019
0.552709
0.530561
0.513228
0.498514
0.487378
0.479747
0.475733
0.477218
0.486166
0.513566
0.580143
0.669995
0.651489
0.558329
0.623374
0.611263
0.599876
0.587434
0.573874
0.557574
0.540026
0.522204
0.506164
0.497422
0.50159
0.517693
0.564045
0.668452
0.813457
0.809873
0.748849
0.653883
0.591098
0.546796
0.524697
0.505388
0.489113
0.477239
0.469874
0.466754
0.470438
0.485084
0.521883
0.599864
0.646426
0.597232
0.526654
0.657104
0.631815
0.613729
0.597826
0.581983
0.565758
0.548309
0.530364
0.514472
0.50738
0.514257
0.538333
0.598175
0.725772
0.865142
0.834459
0.743005
0.644022
0.579127
0.539146
0.515821
0.494194
0.477757
0.466686
0.459923
0.459247
0.467888
0.493654
0.550388
0.612401
0.596618
0.5379
0.505858
0.68528
0.646065
0.623028
0.605992
0.589385
0.571463
0.553468
0.53516
0.519316
0.513604
0.522919
0.552923
0.627642
0.775399
0.896701
0.839865
0.72413
0.626932
0.564027
0.527984
0.501845
0.480457
0.465653
0.455781
0.450162
0.454827
0.474054
0.521185
0.593864
0.603174
0.531014
0.488795
0.490193
0.697788
0.648003
0.620805
0.604223
0.58992
0.573989
0.554932
0.535324
0.518225
0.513814
0.52473
0.560083
0.646884
0.805533
0.896097
0.82521
0.687297
0.599007
0.543197
0.509774
0.483711
0.465093
0.451555
0.442784
0.442221
0.457431
0.497753
0.574224
0.618679
0.559795
0.478538
0.456992
0.472625
0.685827
0.621828
0.589615
0.574276
0.564788
0.554683
0.541245
0.523469
0.507315
0.506152
0.519856
0.561744
0.659493
0.810987
0.87027
0.78214
0.641976
0.566242
0.516042
0.485184
0.463396
0.446349
0.434778
0.4298
0.439845
0.473413
0.547719
0.622779
0.604525
0.503504
0.450902
0.438074
0.452752
0.642327
0.56303
0.522418
0.505158
0.499512
0.496563
0.492599
0.485513
0.477964
0.481745
0.499429
0.550303
0.65694
0.787373
0.793222
0.697413
0.582627
0.521785
0.482447
0.457934
0.438494
0.424794
0.4162
0.420263
0.447964
0.51353
0.61183
0.630244
0.5488
0.47463
0.437549
0.427181
0.434659
0.589274
0.504608
0.457844
0.433433
0.421979
0.419628
0.420715
0.423019
0.427847
0.439402
0.465729
0.527885
0.633718
0.711754
0.683858
0.600504
0.520066
0.475304
0.446103
0.426983
0.41068
0.400755
0.399736
0.420061
0.475025
0.575082
0.637303
0.58816
0.513524
0.46177
0.432243
0.421204
0.421761
0.558904
0.477096
0.428595
0.399438
0.380263
0.368594
0.362461
0.364759
0.373635
0.393387
0.429612
0.502868
0.590441
0.619171
0.579062
0.515496
0.462561
0.430118
0.409405
0.392832
0.381992
0.378192
0.388907
0.434217
0.52896
0.62292
0.610262
0.548887
0.495378
0.457714
0.431393
0.417496
0.414128
0.546538
0.469009
0.420578
0.389281
0.364942
0.345517
0.330603
0.326649
0.334283
0.355527
0.397668
0.474676
0.533795
0.531817
0.492588
0.449678
0.413186
0.388338
0.373911
0.360925
0.354773
0.359348
0.394545
0.474969
0.590316
0.612812
0.575317
0.526936
0.488771
0.458548
0.433361
0.416472
0.410125
0.543608
0.472003
0.423408
0.388935
0.361951
0.336051
0.315009
0.30404
0.309331
0.328248
0.371
0.440621
0.473159
0.460926
0.430804
0.39852
0.37209
0.352922
0.341302
0.331628
0.331349
0.355728
0.419528
0.539354
0.601348
0.58983
0.551177
0.51801
0.489059
0.461553
0.435344
0.41602
0.407325
0.556604
0.492394
0.442427
0.401964
0.364002
0.331212
0.302691
0.286068
0.289231
0.307379
0.351702
0.405539
0.424336
0.410777
0.386387
0.360542
0.33716
0.323307
0.313442
0.308934
0.321265
0.370078
0.474666
0.579131
0.591223
0.56917
0.539935
0.516485
0.492311
0.464189
0.436034
0.415373
0.405292
0.581401
0.523612
0.468947
0.411353
0.361843
0.316714
0.281698
0.263876
0.268251
0.293544
0.339611
0.376156
0.392891
0.378825
0.356926
0.33321
0.313774
0.300333
0.293232
0.29785
0.330617
0.410873
0.539692
0.58378
0.578856
0.558674
0.537082
0.518285
0.495377
0.465561
0.43552
0.413939
0.403213
0.613077
0.560011
0.490264
0.413541
0.342357
0.286628
0.253451
0.243956
0.255383
0.288357
0.32842
0.365685
0.371946
0.35941
0.337358
0.314174
0.29632
0.285137
0.284751
0.304211
0.360689
0.483338
0.570249
0.580526
0.57056
0.554676
0.538257
0.521
0.497257
0.465513
0.433534
0.411523
0.400575
0.646771
0.594038
0.501405
0.394206
0.30507
0.255632
0.235299
0.233336
0.250558
0.287238
0.32561
0.360735
0.361653
0.347934
0.32482
0.30289
0.285694
0.280825
0.290387
0.328545
0.425833
0.545948
0.578584
0.576659
0.567467
0.553766
0.540154
0.523328
0.497522
0.462775
0.4297
0.407959
0.39741
0.677747
0.620381
0.49284
0.35593
0.273418
0.239416
0.227253
0.227909
0.249788
0.290194
0.330979
0.359932
0.359666
0.341798
0.319534
0.297469
0.286599
0.287221
0.312182
0.384073
0.514258
0.573434
0.580795
0.575486
0.567329
0.5549
0.542234
0.523762
0.494932
0.457494
0.424027
0.403611
0.394359
0.705587
0.633908
0.463297
0.321724
0.256898
0.232079
0.223966
0.225781
0.253483
0.29654
0.342327
0.363426
0.361173
0.342087
0.319582
0.300699
0.295168
0.309636
0.363771
0.483131
0.566952
0.585197
0.583246
0.577147
0.568072
0.556578
0.54254
0.52212
0.488628
0.448982
0.416153
0.397928
0.390836
0.734196
0.633468
0.428393
0.3008
0.249499
0.229951
0.223322
0.22602
0.258579
0.305081
0.352443
0.370754
0.366146
0.344716
0.323834
0.313433
0.321213
0.363193
0.4654
0.562898
0.590865
0.592649
0.586991
0.579606
0.568973
0.556945
0.541547
0.517357
0.479213
0.437166
0.406325
0.39105
0.386619
0.758748
0.615337
0.400008
0.290083
0.247868
0.23275
0.228859
0.231854
0.265838
0.3137
0.360805
0.37943
0.376805
0.353259
0.340075
0.345736
0.381482
0.468534
0.568779
0.601323
0.604301
0.598168
0.590247
0.580715
0.568939
0.555525
0.537998
0.50821
0.465482
0.422926
0.395282
0.383559
0.382691
0.780966
0.589728
0.37878
0.287171
0.253604
0.241963
0.239189
0.241526
0.275175
0.3207
0.36615
0.387842
0.389951
0.375834
0.380768
0.417414
0.498778
0.588963
0.620254
0.620878
0.611585
0.601921
0.592131
0.58008
0.566928
0.551674
0.530143
0.493874
0.447545
0.406493
0.383125
0.375319
0.379441
0.797894
0.561563
0.37106
0.293419
0.265928
0.256373
0.254066
0.256028
0.286368
0.32616
0.368494
0.396488
0.407799
0.422625
0.469132
0.553213
0.633578
0.654851
0.646818
0.630852
0.61639
0.604262
0.591477
0.577737
0.562031
0.543893
0.516345
0.473681
0.425883
0.388792
0.370484
0.367487
0.376834
0.803725
0.540562
0.370831
0.305848
0.282447
0.274558
0.272904
0.273166
0.298921
0.332733
0.370331
0.40709
0.44547
0.525039
0.638339
0.701734
0.714201
0.690506
0.660812
0.637653
0.620155
0.60497
0.589418
0.57284
0.554177
0.530767
0.496359
0.448567
0.401272
0.370257
0.357626
0.361127
0.375772
0.800943
0.531479
0.381023
0.322883
0.301951
0.295359
0.294744
0.294395
0.314093
0.342636
0.376311
0.427726
0.528858
0.72857
0.801386
0.806871
0.762514
0.711648
0.672763
0.645349
0.624149
0.604666
0.585766
0.565564
0.542673
0.512873
0.469692
0.417866
0.375098
0.35185
0.345868
0.355855
0.376763
0.797809
0.532248
0.397867
0.34308
0.32231
0.316875
0.316046
0.317834
0.329377
0.354008
0.389729
0.472991
0.701605
0.921605
0.917777
0.872138
0.795888
0.732541
0.687513
0.655105
0.628554
0.604693
0.58138
0.556405
0.527238
0.488321
0.436975
0.385832
0.350647
0.33558
0.337901
0.354699
0.37784
0.806641
0.552131
0.421179
0.366111
0.34511
0.339118
0.338774
0.340829
0.344793
0.368862
0.415679
0.565344
0.895047
0.992575
0.983875
0.914395
0.830298
0.759202
0.707606
0.668715
0.636041
0.606352
0.576192
0.543832
0.505452
0.456332
0.401628
0.356359
0.330976
0.324186
0.333943
0.355897
0.374564
0.837176
0.593518
0.452857
0.392464
0.368697
0.361446
0.360658
0.362373
0.362477
0.391068
0.464088
0.704938
0.969366
1.00596
1.00551
0.949311
0.871477
0.796206
0.737158
0.689659
0.649111
0.611183
0.571874
0.52781
0.477885
0.422519
0.370933
0.334706
0.318
0.317766
0.332059
0.354003
0.372645
0.877442
0.648098
0.493841
0.421937
0.394341
0.384164
0.38282
0.384296
0.385386
0.424191
0.531219
0.802217
0.974156
1.00487
1.01166
0.982564
0.922423
0.850439
0.786878
0.728868
0.674799
0.622215
0.569958
0.512855
0.450896
0.391671
0.344619
0.316952
0.307236
0.313242
0.330143
0.349242
0.370792
0.917259
0.709725
0.539771
0.456861
0.422094
0.409329
0.407893
0.411206
0.415504
0.472724
0.606296
0.848997
0.963208
0.998057
1.01355
1.01069
0.979161
0.927756
0.871499
0.805645
0.729304
0.649786
0.572096
0.4936
0.420254
0.360044
0.320026
0.301042
0.297698
0.309105
0.32426
0.347356
0.367531
0.947684
0.77565
0.588179
0.492851
0.452843
0.438495
0.437527
0.446485
0.456187
0.536404
0.685407
0.870595
0.94895
0.982423
1.01209
1.02601
1.02644
1.00951
0.981486
0.927086
0.828709
0.700759
0.57525
0.467561
0.381128
0.325017
0.296037
0.285947
0.289129
0.301128
0.321169
0.343352
0.376674
0.963719
0.837119
0.637279
0.530834
0.48556
0.471637
0.469812
0.487336
0.505023
0.601994
0.759015
0.885897
0.936808
0.963568
0.999114
1.02999
1.05485
1.06949
1.07462
1.04971
0.956818
0.76949
0.556874
0.407149
0.328836
0.290241
0.274865
0.272103
0.281032
0.294648
0.318809
0.339308
0.394537
0.967875
0.888139
0.686615
0.56772
0.516708
0.503094
0.503186
0.524264
0.552962
0.638766
0.807703
0.890628
0.923498
0.946517
0.985051
1.02717
1.06861
1.10395
1.12838
1.15396
1.07735
0.792006
0.503372
0.357286
0.293868
0.268463
0.260797
0.263416
0.27214
0.291315
0.313657
0.346047
0.414596
0.96633
0.927874
0.733803
0.603309
0.547514
0.530174
0.539092
0.556966
0.589213
0.643677
0.816575
0.883558
0.912033
0.936409
0.980631
1.03092
1.08041
1.11919
1.15435
1.20547
1.12526
0.786896
0.485232
0.34215
0.281535
0.25922
0.253999
0.258073
0.268205
0.289166
0.309218
0.358786
0.429082
0.959296
0.948408
0.774715
0.635471
0.576167
0.557337
0.57021
0.585375
0.6244
0.673584
0.816615
0.871767
0.90035
0.937488
0.989807
1.04579
1.09408
1.12477
1.15441
1.21152
1.12004
0.791689
0.504668
0.356366
0.287635
0.261076
0.254593
0.256261
0.268015
0.288084
0.311148
0.373962
0.436995
0.94652
0.95578
0.807357
0.66365
0.601249
0.581026
0.596184
0.622583
0.662405
0.70894
0.818597
0.862269
0.894097
0.947117
1.00562
1.06192
1.09926
1.12391
1.14772
1.19106
1.09566
0.822285
0.56944
0.417262
0.323473
0.27725
0.260562
0.258183
0.268541
0.285676
0.318605
0.381261
0.43631
0.928772
0.957646
0.828443
0.684864
0.622304
0.601601
0.619834
0.656029
0.691903
0.741317
0.820818
0.858337
0.893671
0.964828
1.02378
1.07171
1.09646
1.11446
1.13494
1.15624
1.06336
0.839776
0.638821
0.508588
0.400842
0.317004
0.276923
0.266501
0.27086
0.286222
0.327195
0.380719
0.43329
0.90933
0.955528
0.838078
0.69552
0.634681
0.616784
0.6406
0.683615
0.715518
0.771488
0.819249
0.856533
0.894436
0.978766
1.04251
1.07339
1.089
1.1011
1.11926
1.12845
1.03952
0.848358
0.687194
0.591146
0.50462
0.398245
0.314573
0.283949
0.277822
0.287676
0.330378
0.377094
0.424206
0.898276
0.952025
0.840816
0.699755
0.641047
0.625685
0.652573
0.696897
0.74184
0.783649
0.797977
0.851443
0.895794
0.986892
1.05046
1.06411
1.07599
1.08268
1.1005
1.10565
1.02436
0.857855
0.720074
0.642094
0.593609
0.520709
0.392669
0.316436
0.293296
0.2919
0.32816
0.368025
0.406445
0.894639
0.950466
0.838392
0.70024
0.643325
0.629957
0.658758
0.703131
0.751432
0.784128
0.81252
0.847704
0.89503
0.984057
1.04391
1.04433
1.0506
1.05563
1.07177
1.07835
1.01045
0.868768
0.750486
0.682548
0.646748
0.618854
0.527956
0.382995
0.317411
0.302352
0.322083
0.351255
0.383346
0.89566
0.950162
0.828765
0.694659
0.641943
0.631891
0.662757
0.70657
0.754442
0.787024
0.82245
0.838985
0.891467
0.974762
1.02753
1.01647
1.01574
1.01971
1.03293
1.04075
0.988719
0.872497
0.77594
0.716212
0.683527
0.665508
0.64923
0.504816
0.368367
0.323202
0.318374
0.333534
0.359215
0.905963
0.95197
0.815319
0.685469
0.637767
0.63316
0.666296
0.709773
0.754592
0.796152
0.825848
0.834808
0.88737
0.955313
0.995987
0.981266
0.974628
0.975128
0.984494
0.993501
0.955034
0.871122
0.793225
0.744616
0.713592
0.697903
0.69553
0.64953
0.467429
0.35616
0.323864
0.320323
0.336932
0.925152
0.954654
0.79901
0.675498
0.633414
0.635069
0.670726
0.71444
0.758228
0.798091
0.823164
0.840702
0.874712
0.930418
0.952251
0.940433
0.927668
0.922548
0.930534
0.939397
0.915198
0.859131
0.798995
0.763174
0.73828
0.719142
0.708705
0.721374
0.623969
0.431616
0.343868
0.320502
0.318099
0.953415
0.954967
0.780399
0.665759
0.62957
0.638426
0.676468
0.720133
0.762783
0.800828
0.821445
0.844235
0.863953
0.90133
0.909376
0.894098
0.882037
0.864395
0.872776
0.882094
0.862299
0.825197
0.798264
0.770837
0.755016
0.738681
0.72342
0.723246
0.725698
0.58449
0.400585
0.33047
0.310297
0.988531
0.946892
0.760457
0.657782
0.628175
0.64411
0.683892
0.726853
0.767141
0.8028
0.822377
0.845725
0.856531
0.875887
0.869282
0.851916
0.836524
0.815402
0.805672
0.824925
0.818012
0.7963
0.779593
0.773517
0.764521
0.757427
0.738256
0.731751
0.733545
0.710879
0.532688
0.370635
0.315585
1.02764
0.926201
0.737734
0.65238
0.629978
0.652598
0.693245
0.734786
0.771609
0.803544
0.826
0.846731
0.85086
0.854869
0.836722
0.816288
0.796412
0.771423
0.760215
0.76527
0.763066
0.759784
0.761308
0.764222
0.767723
0.767675
0.754393
0.753144
0.744662
0.731944
0.675487
0.470418
0.34313
1.054
0.888916
0.714827
0.648834
0.635566
0.663716
0.70432
0.743956
0.777499
0.804676
0.829538
0.84652
0.845805
0.839825
0.814432
0.790539
0.76143
0.738091
0.718487
0.707463
0.709134
0.71639
0.735283
0.750554
0.765538
0.77294
0.766095
0.769925
0.760799
0.743507
0.713819
0.614534
0.40801
1.05622
0.843481
0.69444
0.647656
0.644535
0.676852
0.716681
0.754095
0.784522
0.807991
0.829321
0.842965
0.837388
0.830073
0.802102
0.773301
0.737817
0.713247
0.689796
0.678502
0.670018
0.680576
0.702641
0.73701
0.765495
0.776226
0.779152
0.78379
0.776124
0.756637
0.72779
0.67399
0.517618
1.01671
0.794334
0.679957
0.647968
0.65689
0.691401
0.730227
0.765507
0.792688
0.811992
0.828436
0.837895
0.833424
0.827491
0.796849
0.765337
0.729825
0.700166
0.674892
0.658695
0.653964
0.662734
0.686229
0.719406
0.754313
0.77656
0.785675
0.791373
0.786381
0.76645
0.732161
0.688179
0.599639
0.950121
0.750683
0.671274
0.651716
0.671185
0.706929
0.744957
0.778301
0.801879
0.816435
0.82887
0.834638
0.829347
0.818617
0.793589
0.762596
0.729976
0.694346
0.674702
0.659106
0.654659
0.66073
0.679875
0.708779
0.744056
0.772456
0.788434
0.800396
0.794029
0.773712
0.734308
0.691725
0.633095
0.869581
0.715939
0.666877
0.66036
0.686717
0.722824
0.759938
0.791409
0.811733
0.822951
0.831681
0.835202
0.829528
0.821354
0.795195
0.763873
0.732376
0.69893
0.678888
0.66598
0.662616
0.672198
0.684843
0.712777
0.734747
0.770808
0.79188
0.804972
0.799355
0.778545
0.736844
0.693071
0.644081
0.799452
0.694978
0.66642
0.673659
0.702599
0.737633
0.772797
0.801677
0.820869
0.831489
0.838054
0.840496
0.833748
0.826549
0.803924
0.770722
0.74139
0.713498
0.694558
0.685985
0.682497
0.690091
0.698675
0.723188
0.732864
0.766712
0.792019
0.805566
0.802321
0.782595
0.740942
0.69699
0.651029
0.747534
0.685113
0.672107
0.689237
0.717477
0.749638
0.780892
0.809076
0.829188
0.84126
0.8476
0.850568
0.844429
0.837804
0.8209
0.788728
0.762152
0.744859
0.73047
0.721859
0.71362
0.714303
0.716856
0.734544
0.737781
0.767413
0.793759
0.804595
0.801283
0.783365
0.745076
0.702424
0.656901
0.716446
0.682704
0.684628
0.704934
0.729788
0.75593
0.784532
0.813065
0.835121
0.850315
0.858116
0.863955
0.862927
0.859124
0.852167
0.826524
0.802823
0.78977
0.780605
0.76794
0.754248
0.744646
0.73989
0.750715
0.750645
0.775032
0.797768
0.805448
0.802079
0.785922
0.750421
0.710739
0.670547
0.701778
0.68833
0.700499
0.718244
0.737221
0.758139
0.785158
0.814001
0.837488
0.85564
0.868506
0.880512
0.885679
0.887214
0.887325
0.879632
0.862592
0.850219
0.839066
0.823304
0.803114
0.7831
0.766605
0.772582
0.769467
0.790457
0.808783
0.816255
0.810793
0.792607
0.761434
0.724791
0.693688
0.697435
0.701675
0.716053
0.728168
0.740365
0.756682
0.779169
0.807418
0.834196
0.857185
0.876085
0.894029
0.906098
0.910068
0.916503
0.919726
0.919318
0.914283
0.902531
0.883147
0.855788
0.824593
0.799453
0.79859
0.79073
0.807446
0.824925
0.83189
0.824529
0.804304
0.778829
0.746733
0.727204
0.702576
0.718007
0.72891
0.735278
0.740992
0.749791
0.766067
0.793138
0.822964
0.851843
0.877574
0.898734
0.92071
0.921381
0.932132
0.940096
0.942697
0.944134
0.940008
0.925322
0.89521
0.857482
0.82693
0.821053
0.815066
0.822501
0.843318
0.850447
0.843042
0.821439
0.797225
0.767865
0.757353
0.716022
0.73255
0.739039
0.73919
0.736792
0.738585
0.748371
0.772657
0.804291
0.838343
0.870187
0.895436
0.916351
0.924285
0.934001
0.940865
0.945251
0.942848
0.935453
0.921088
0.897257
0.86889
0.844629
0.839227
0.838182
0.839409
0.8594
0.866305
0.85887
0.837576
0.812386
0.7822
0.77194
0.72949
0.745175
0.749477
0.740645
0.728214
0.724258
0.728309
0.750095
0.782351
0.819311
0.854888
0.882765
0.904177
0.919101
0.92761
0.933949
0.938193
0.937386
0.931692
0.918843
0.898566
0.876634
0.855982
0.854715
0.857252
0.854662
0.871025
0.872504
0.866111
0.845151
0.818878
0.793453
0.773446
0.740191
0.755422
0.757422
0.740348
0.717642
0.708188
0.708686
0.727948
0.759625
0.797361
0.835213
0.866035
0.888999
0.906142
0.911447
0.918117
0.921541
0.921406
0.917848
0.910408
0.895131
0.880061
0.866699
0.869211
0.873435
0.869197
0.877965
0.873705
0.867191
0.843242
0.814764
0.791688
0.7675
0.747454
0.762852
0.76177
0.736051
0.7054
0.691774
0.690409
0.707445
0.737748
0.775117
0.813017
0.845885
0.87149
0.888427
0.889932
0.897997
0.901467
0.901959
0.900086
0.896858
0.888686
0.882845
0.88091
0.887083
0.881049
0.886073
0.879976
0.872593
0.854034
0.830545
0.793045
0.771269
0.746964
0.750572
0.767837
0.763523
0.727726
0.69175
0.676022
0.673724
0.688907
0.716979
0.751681
0.788407
0.82162
0.848416
0.869893
0.868953
0.877393
0.88172
0.884501
0.885919
0.885622
0.885359
0.88945
0.898168
0.909761
0.898035
0.891107
0.87072
0.860812
0.830884
0.802495
0.759412
0.739432
0.717915
0.749452
0.769604
0.759893
0.714345
0.676787
0.660853
0.658226
0.671982
0.697566
0.728684
0.762374
0.793813
0.820062
0.842323
0.848571
0.85726
0.862946
0.868877
0.874576
0.876608
0.891433
0.901306
0.92154
0.919703
0.913392
0.889966
0.871074
0.834627
0.794348
0.762607
0.721978
0.70487
0.686272
0.740932
0.764518
0.749563
0.696535
0.660281
0.645812
0.643307
0.65635
0.678809
0.706095
0.735069
0.76401
0.78878
0.810849
0.825168
0.836651
0.845559
0.85553
0.866746
0.876284
0.900101
0.919227
0.9322
0.93194
0.916163
0.892348
0.850184
0.802883
0.760917
0.72493
0.689518
0.673386
0.656806
0.722278
0.749647
0.73112
0.674874
0.641921
0.630207
0.628962
0.641808
0.660904
0.68399
0.709386
0.73439
0.757335
0.779596
0.799781
0.814927
0.828778
0.844846
0.862501
0.880151
0.906767
0.933168
0.944474
0.935542
0.917682
0.87579
0.826306
0.774266
0.730262
0.69116
0.665733
0.647764
0.631004
0.692027
0.722939
0.703552
0.650419
0.623138
0.614049
0.615499
0.627556
0.644547
0.663627
0.684323
0.705969
0.726884
0.751029
0.774206
0.794032
0.813807
0.835881
0.860324
0.886004
0.913824
0.938736
0.941594
0.935691
0.907095
0.858721
0.804845
0.751773
0.707666
0.669727
0.647563
0.628588
0.610378
0.651122
0.683579
0.666708
0.624597
0.604547
0.598357
0.602967
0.614231
0.628133
0.643899
0.660924
0.679431
0.699768
0.725256
0.750376
0.775476
0.801359
0.829127
0.858327
0.887836
0.915924
0.935229
0.938184
0.92466
0.892289
0.84332
0.787253
0.733748
0.690952
0.659493
0.63692
0.616809
0.596549
0.605368
0.633555
0.624058
0.597519
0.585815
0.58361
0.59065
0.601363
0.612898
0.625421
0.639252
0.655082
0.67594
0.701431
0.730747
0.761509
0.792202
0.824103
0.855944
0.885761
0.914153
0.930557
0.926457
0.910848
0.875566
0.827982
0.773645
0.721082
0.680847
0.654401
0.633557
0.613081
0.591076
0.561509
0.58052
0.578731
0.570104
0.566145
0.569789
0.578586
0.588725
0.598598
0.608674
0.619759
0.633585
0.65501
0.682431
0.715921
0.751882
0.786322
0.82049
0.853509
0.880878
0.906703
0.917532
0.913023
0.89365
0.858556
0.813007
0.764666
0.716065
0.678154
0.658355
0.637863
0.617444
0.594958
0.521889
0.531754
0.536776
0.541975
0.547708
0.556307
0.566629
0.576684
0.585621
0.594443
0.60404
0.618001
0.640253
0.67006
0.706835
0.745971
0.782844
0.818591
0.850895
0.875014
0.901289
0.903863
0.894116
0.874904
0.8414
0.798515
0.758115
0.718451
0.688699
0.665263
0.652069
0.632943
0.60882
0.486053
0.490346
0.501548
0.516996
0.530338
0.543166
0.55486
0.565633
0.574898
0.583901
0.594827
0.611001
0.634354
0.666097
0.704382
0.74342
0.780544
0.815554
0.845526
0.867828
0.886169
0.888806
0.882492
0.860517
0.824643
0.782738
0.746875
0.728948
0.707969
0.694228
0.680039
0.663773
0.638631
0.453859
0.456667
0.473872
0.496494
0.514933
0.530488
0.54438
0.555831
0.566306
0.577062
0.591018
0.610177
0.635906
0.668018
0.705434
0.742453
0.778084
0.810492
0.839022
0.862069
0.87491
0.877878
0.869316
0.845733
0.809957
0.771521
0.745635
0.737038
0.73378
0.725981
0.713708
0.700316
0.681496
0.42563
0.429758
0.452123
0.479613
0.501576
0.519341
0.534657
0.547391
0.559638
0.572771
0.589879
0.612696
0.640666
0.672791
0.707773
0.741826
0.774425
0.803228
0.829299
0.850496
0.862571
0.865748
0.858253
0.835667
0.804529
0.772382
0.75292
0.740909
0.743199
0.738755
0.742057
0.729084
0.716342
0.40132
0.407993
0.43443
0.4655
0.490398
0.509726
0.526186
0.539749
0.553826
0.569151
0.588965
0.614454
0.644638
0.676715
0.709465
0.740409
0.768735
0.793618
0.81592
0.837268
0.848884
0.848492
0.835793
0.815814
0.790539
0.76455
0.750157
0.744709
0.743152
0.743664
0.738599
0.744701
0.73275
0.380983
0.390132
0.419599
0.452967
0.479948
0.50042
0.518206
0.53278
0.548085
0.564936
0.586769
0.614517
0.647344
0.678085
0.709457
0.737564
0.761531
0.782939
0.802081
0.822805
0.833531
0.828098
0.817802
0.795768
0.778594
0.760554
0.746872
0.740328
0.739148
0.736565
0.735744
0.732105
0.717044
0.364399
0.375741
0.407084
0.441802
0.470284
0.491842
0.510485
0.525919
0.541972
0.560001
0.583413
0.613247
0.647674
0.678009
0.708582
0.733678
0.754652
0.773365
0.790348
0.810118
0.821648
0.81284
0.798183
0.78512
0.771289
0.753077
0.738635
0.728275
0.724113
0.717584
0.715802
0.711537
0.69983
0.351339
0.364493
0.396437
0.431334
0.460537
0.483086
0.502581
0.51871
0.535074
0.554585
0.578897
0.610612
0.6467
0.677113
0.706981
0.731292
0.751499
0.769438
0.785853
0.803682
0.81477
0.80619
0.793799
0.781722
0.768764
0.74748
0.726912
0.711089
0.702485
0.693484
0.6897
0.685827
0.674661
0.341194
0.355697
0.387882
0.422352
0.451534
0.474798
0.494647
0.511721
0.527526
0.54853
0.573816
0.607127
0.643144
0.676462
0.707052
0.73217
0.7531
0.771952
0.789785
0.807048
0.816307
0.813851
0.80301
0.785775
0.769113
0.740081
0.711333
0.690509
0.678026
0.666769
0.663748
0.660456
0.650234
0.333305
0.349083
0.381353
0.415111
0.443653
0.467759
0.487943
0.505974
0.522823
0.544971
0.569011
0.604228
0.64191
0.678864
0.708816
0.735551
0.759428
0.782387
0.803995
0.823471
0.834144
0.833039
0.820675
0.798412
0.76939
0.729494
0.693258
0.669097
0.653573
0.641636
0.639749
0.637005
0.628368
0.326997
0.344171
0.376709
0.410085
0.437627
0.462497
0.483381
0.503225
0.521582
0.545276
0.571601
0.605697
0.643575
0.68186
0.713746
0.74439
0.775266
0.807387
0.837851
0.860669
0.869679
0.862658
0.842154
0.813262
0.765914
0.715495
0.673692
0.646779
0.630885
0.617368
0.617654
0.61545
0.607832
0.321795
0.340364
0.373354
0.406685
0.434174
0.459439
0.481352
0.502645
0.522578
0.548033
0.575837
0.610881
0.649423
0.689322
0.724943
0.763847
0.806297
0.848494
0.884936
0.905694
0.908076
0.894449
0.867954
0.818324
0.7587
0.700561
0.655085
0.626545
0.610242
0.59715
0.597002
0.594694
0.587045
0.317472
0.337097
0.370677
0.404321
0.432508
0.458268
0.481161
0.503492
0.525619
0.551551
0.582049
0.620083
0.660947
0.703567
0.745164
0.794207
0.846427
0.893619
0.929236
0.94536
0.94149
0.923096
0.87989
0.817399
0.747436
0.684446
0.638036
0.609049
0.59313
0.581523
0.580365
0.576286
0.566131
0.313801
0.333846
0.368165
0.402587
0.431986
0.458292
0.482413
0.505571
0.5297
0.556178
0.589313
0.630023
0.67404
0.720859
0.770103
0.827515
0.885595
0.932701
0.963569
0.975327
0.963831
0.937172
0.88084
0.80732
0.730433
0.667387
0.624856
0.597682
0.581235
0.572036
0.569664
0.562754
0.549051
0.31081
0.330137
0.365187
0.401116
0.432233
0.459453
0.484828
0.508692
0.534966
0.562308
0.598653
0.643007
0.692071
0.741918
0.795235
0.856438
0.916409
0.962436
0.985998
0.990311
0.975716
0.935553
0.869253
0.788255
0.710881
0.653187
0.617451
0.592762
0.575593
0.568821
0.565775
0.557322
0.54043
0.308606
0.325921
0.36113
0.399041
0.432499
0.461162
0.487744
0.512724
0.540479
0.569021
0.60938
0.656321
0.711487
0.759106
0.815034
0.875668
0.933679
0.97752
0.998592
0.995663
0.972392
0.921902
0.848349
0.765272
0.694324
0.64604
0.614556
0.592113
0.57329
0.571655
0.56756
0.558337
0.538613
0.307069
0.32132
0.355681
0.395561
0.432088
0.46284
0.490947
0.517234
0.546272
0.576061
0.618711
0.667016
0.727918
0.770521
0.826636
0.88386
0.937201
0.980267
0.997482
0.99027
0.959879
0.899751
0.823519
0.745585
0.686198
0.643914
0.617363
0.598928
0.581343
0.58141
0.580001
0.572413
0.54314
0.306426
0.316791
0.348669
0.390113
0.430257
0.463678
0.493202
0.521299
0.551692
0.583784
0.624963
0.674773
0.740198
0.779049
0.832963
0.886882
0.936335
0.971589
0.985448
0.976267
0.941029
0.876154
0.803661
0.736373
0.684383
0.650843
0.628155
0.612224
0.59678
0.599994
0.606871
0.614128
0.58291
0.889886
0.857663
0.715598
0.578602
0.509007
0.484005
0.497428
0.535428
0.894484
0.829796
0.645712
0.515694
0.463471
0.446673
0.465344
0.504083
0.890279
0.777619
0.580672
0.46564
0.424885
0.415462
0.433777
0.465896
0.86572
0.719664
0.529102
0.429911
0.395085
0.38858
0.402035
0.429852
0.827287
0.661248
0.48737
0.40419
0.374696
0.370372
0.377342
0.397209
0.77981
0.606308
0.453744
0.386585
0.361667
0.354805
0.35596
0.371854
0.726685
0.554158
0.425484
0.374007
0.357636
0.353026
0.353147
0.363465
0.669288
0.508375
0.405708
0.36909
0.359493
0.359405
0.363158
0.374512
0.611786
0.471234
0.395113
0.371509
0.368902
0.376877
0.388546
0.399555
0.557406
0.445421
0.39468
0.381854
0.390823
0.408607
0.420696
0.428706
0.516746
0.435636
0.40403
0.404698
0.421786
0.443018
0.455274
0.460276
0.496136
0.443564
0.429588
0.440711
0.460946
0.481663
0.491919
0.493827
0.491735
0.467092
0.467163
0.482796
0.503443
0.520513
0.529788
0.52836
0.499385
0.49356
0.502939
0.521084
0.542039
0.556844