/*--------------------------------*- C++ -*----------------------------------*\
  =========                 |
  \\      /  F ield         | OpenFOAM: The Open Source CFD Toolbox
   \\    /   O peration     | Website:  https://openfoam.org
    \\  /    A nd           | Version:  10
     \\/     M anipulation  |
\*---------------------------------------------------------------------------*/
FoamFile
{
    format      ascii;
    class       surfaceScalarField;
    location    "0.150109";
    object      phi;
}
// * * * * * * * * * * * * * * * * * * * * * * * * * * * * * * * * * * * * * //

dimensions      [1 0 -1 0 0 0 0];

internalField   nonuniform List<scalar> 
32368
(
4.64506e-05
1.8185e-05
4.5703e-05
1.2734e-05
4.58262e-05
6.95513e-06
4.80101e-05
3.13477e-06
5.36479e-05
2.37605e-06
6.32284e-05
3.01691e-06
7.67488e-05
4.72236e-06
9.38459e-05
6.37246e-06
0.000113973
6.78962e-06
0.000136394
5.97412e-06
0.000158942
4.03572e-06
0.000180895
1.50809e-06
0.000202706
-1.35375e-06
0.000223265
-5.18006e-06
0.00024126
-9.37736e-06
0.00025299
-1.35868e-05
0.000255994
-1.77537e-05
0.000247623
-2.27301e-05
0.000259005
-3.94076e-05
0.000332255
-6.64664e-05
0.000395683
-8.41453e-05
0.000446605
-8.47109e-05
0.000486905
-7.45906e-05
0.00050581
-5.68585e-05
0.000508395
-3.88925e-05
0.000497743
-2.45287e-05
0.000469981
-2.13217e-05
0.000419474
-3.12914e-05
0.000379911
-4.94887e-05
0.000351579
-8.33152e-05
0.000312031
-0.000137157
0.000269608
-0.000197425
-0.000177743
0.000202125
4.12006e-05
3.42847e-05
4.17707e-05
2.9599e-05
4.40525e-05
2.33462e-05
4.86231e-05
1.79481e-05
5.6613e-05
1.44189e-05
6.8115e-05
1.24317e-05
8.33554e-05
1.12369e-05
0.000102036
1.01539e-05
0.000122907
8.26248e-06
0.000145237
5.48827e-06
0.000167932
2.05223e-06
0.000188963
-1.33568e-06
0.000209522
-5.17751e-06
0.000228817
-1.03121e-05
0.000247068
-1.61497e-05
0.000264711
-2.3883e-05
0.000283342
-3.54222e-05
0.000296002
-5.41589e-05
0.000318854
-8.06657e-05
0.000380784
-9.1185e-05
0.000429069
-8.4247e-05
0.000465064
-6.76216e-05
0.000490608
-4.6873e-05
0.000500339
-2.25467e-05
0.000496193
-6.83344e-07
0.000472586
1.44454e-05
0.000437951
1.40708e-05
0.000394993
2.70489e-06
0.000359791
-1.81193e-05
0.000335674
-5.31674e-05
0.000297481
-0.000105448
0.000251559
-0.00014821
-0.000115846
0.000177122
3.17929e-05
5.5839e-05
3.33091e-05
4.99234e-05
3.77918e-05
4.30511e-05
4.4964e-05
3.58037e-05
5.49763e-05
2.95516e-05
6.82209e-05
2.46344e-05
8.48924e-05
2.02716e-05
0.000104823
1.61479e-05
0.000126997
1.18677e-05
0.000150338
7.421e-06
0.000173365
3.06225e-06
0.000194567
-1.26588e-06
0.000214851
-6.56375e-06
0.00023906
-1.26933e-05
0.000266968
-2.06699e-05
0.000294526
-3.24901e-05
0.000318406
-5.121e-05
0.000328461
-8.27042e-05
0.000350394
-0.000109584
0.000395065
-0.000106464
0.000434907
-8.17021e-05
0.000464184
-5.12566e-05
0.000483719
-1.85709e-05
0.000488286
1.4395e-05
0.000474953
4.08502e-05
0.000443445
5.19499e-05
0.000406052
4.8593e-05
0.000368502
3.59863e-05
0.000338902
1.16353e-05
0.000318402
-2.48353e-05
0.000283179
-7.32639e-05
0.000234995
-9.88587e-05
-5.54159e-05
0.000159507
1.39646e-05
7.85964e-05
1.84149e-05
7.0839e-05
2.59073e-05
6.25394e-05
3.59259e-05
5.3887e-05
4.8436e-05
4.62926e-05
6.45273e-05
3.83641e-05
8.37697e-05
3.05464e-05
0.000105817
2.33891e-05
0.000129598
1.68979e-05
0.000153628
1.13164e-05
0.000178462
6.25805e-06
0.000203146
1.35935e-06
0.000229117
-4.93417e-06
0.000255655
-1.2564e-05
0.000284242
-2.25742e-05
0.00031089
-3.80988e-05
0.000329488
-6.37709e-05
0.000342937
-0.000102499
0.000368596
-0.000122589
0.000401752
-0.000106895
0.000432525
-7.22185e-05
0.000456496
-3.29343e-05
0.000468265
1.15126e-05
0.000464706
5.39019e-05
0.000444114
8.03916e-05
0.000410832
8.67941e-05
0.000375453
8.08001e-05
0.000345264
6.57779e-05
0.000321941
3.98295e-05
0.000302451
2.76675e-06
0.00027169
-4.10254e-05
0.000221813
-5.21226e-05
-2.10668e-06
0.00015438
-1.4863e-05
9.96904e-05
-4.32688e-06
8.8802e-05
8.057e-06
8.01503e-05
2.24964e-05
7.11179e-05
3.84525e-05
6.30618e-05
5.84198e-05
5.07962e-05
8.11211e-05
3.96063e-05
0.00010566
3.00837e-05
0.000131494
2.22993e-05
0.0001592
1.62439e-05
0.000188636
1.13183e-05
0.000217056
6.17838e-06
0.000243796
1.37561e-08
0.000270372
-8.74809e-06
0.000297175
-2.06089e-05
0.000319922
-3.9643e-05
0.000335147
-7.45439e-05
0.000353916
-0.000110413
0.000378552
-0.000117708
0.00040334
-9.362e-05
0.00042778
-5.67179e-05
0.000443916
-9.11645e-06
0.000441673
4.88354e-05
0.000428055
9.3541e-05
0.000400388
0.00011587
0.000371107
0.000118809
0.000341488
0.000109681
0.000320005
9.17065e-05
0.000304469
6.45693e-05
0.000286761
2.87578e-05
0.000262109
-1.03252e-05
0.00021017
-9.15241e-06
4.44502e-05
0.000149861
-5.07633e-05
0.000110794
-3.32599e-05
0.000102251
-1.46324e-05
9.40129e-05
5.79985e-06
8.48228e-05
2.79064e-05
7.46204e-05
5.23225e-05
5.86797e-05
7.93681e-05
4.53613e-05
0.000108401
3.53057e-05
0.000138396
2.74883e-05
0.000170624
2.2424e-05
0.000203099
1.84138e-05
0.000231822
1.37775e-05
0.000258541
7.73743e-06
0.000282465
-1.28671e-07
0.00030432
-1.42325e-05
0.000322968
-3.85574e-05
0.000338056
-7.98435e-05
0.000359907
-0.000104435
0.000379356
-9.93918e-05
0.000398508
-7.21473e-05
0.000414354
-3.15092e-05
0.000412754
3.00054e-05
0.000400991
9.05243e-05
0.000377787
0.000130743
0.000350513
0.000147313
0.000328678
0.000146105
0.000307896
0.000134054
0.000295944
0.000113087
0.000286725
8.51047e-05
0.000273554
5.11163e-05
0.000253811
1.80151e-05
0.000198259
2.82671e-05
8.05963e-05
0.000148334
-9.22401e-05
0.000111355
-6.48468e-05
0.000107378
-3.72113e-05
9.9653e-05
-8.80528e-06
8.99853e-05
1.87635e-05
8.06547e-05
5.06657e-05
6.13986e-05
8.44327e-05
4.72119e-05
0.000117436
3.86345e-05
0.000151657
3.2601e-05
0.000187761
2.99685e-05
0.000222646
2.81717e-05
0.00025008
2.50053e-05
0.000274396
2.02849e-05
0.000296446
1.27843e-05
0.000311346
-1.8199e-06
0.000323724
-3.47706e-05
0.000341692
-7.38027e-05
0.000359634
-8.47618e-05
0.000374941
-7.18212e-05
0.000390167
-4.3593e-05
0.000385716
1.40652e-05
0.000370485
7.93995e-05
0.00034869
0.000132757
0.000322309
0.00016277
0.000301164
0.000173419
0.000289033
0.000168431
0.00027826
0.000153757
0.000274938
0.000130093
0.000271029
0.000101159
0.00026367
6.96333e-05
0.000246808
4.31497e-05
0.000188177
5.75936e-05
0.000106919
0.000141414
-0.00012928
0.000103472
-9.34667e-05
0.000102829
-5.78376e-05
9.71318e-05
-2.10635e-05
8.87784e-05
1.68486e-05
7.87531e-05
5.76575e-05
5.66622e-05
9.69958e-05
4.53135e-05
0.000135925
4.07522e-05
0.000175185
3.9635e-05
0.000214247
4.07595e-05
0.00024802
4.21597e-05
0.000272308
4.11281e-05
0.000292114
3.84438e-05
0.00030696
3.19087e-05
0.000317144
1.40053e-05
0.000322724
-2.3622e-05
0.000341293
-5.07436e-05
0.000354055
-5.35745e-05
0.000368115
-3.79131e-05
0.000360362
1.12738e-05
0.000343654
7.21911e-05
0.000320038
0.000129106
0.000291495
0.000167606
0.000269789
0.000189906
0.000258252
0.000195493
0.00025609
0.000186981
0.000254781
0.00016926
0.000257738
0.000143542
0.000258698
0.000113655
0.00025601
8.47041e-05
0.00023905
6.475e-05
0.000176854
7.92989e-05
0.000123462
0.00012794
-0.000158304
9.60779e-05
-0.000117167
9.37463e-05
-7.22064e-05
8.69074e-05
-2.69715e-05
8.06115e-05
2.54345e-05
6.46048e-05
7.69236e-05
4.64927e-05
0.000126614
4.3786e-05
0.00017424
4.64973e-05
0.000215308
5.10812e-05
0.000251789
5.57014e-05
0.000279427
5.98734e-05
0.000298185
6.18013e-05
0.000309761
6.15492e-05
0.000314234
5.56262e-05
0.000313168
3.63456e-05
0.000317459
1.22898e-06
0.00033215
-1.65768e-05
0.000346131
-1.49507e-05
0.000341378
2.05691e-05
0.000323998
7.65371e-05
0.000300766
0.000131233
0.000267875
0.000170697
0.000242249
0.00019859
0.000228713
0.000213791
0.000226326
0.000214618
0.000231608
0.00020274
0.000237335
0.000181827
0.000244364
0.000154431
0.000250665
0.000123528
0.000251063
9.65743e-05
0.000229232
8.11725e-05
0.000160154
9.21989e-05
0.000126852
0.000104857
-0.000180393
8.67351e-05
-0.000136965
8.38825e-05
-8.41114e-05
7.35086e-05
-1.29166e-05
5.73893e-05
6.3669e-05
4.04244e-05
0.000128044
3.59158e-05
0.000179379
4.43302e-05
0.00022097
5.41893e-05
0.00025457
6.35691e-05
0.000282655
7.17106e-05
0.000301625
7.91655e-05
0.000314477
8.46328e-05
0.000319892
8.71751e-05
0.00031634
8.32745e-05
0.000303286
6.37809e-05
0.000310564
3.66107e-05
0.000325291
2.83536e-05
0.00033043
4.46995e-05
0.000315639
9.44806e-05
0.000291684
0.000143234
0.000255843
0.000181596
0.000223483
0.0002069
0.000204669
0.000226992
0.000199147
0.000236076
0.000203898
0.000231933
0.000214375
0.000216159
0.00022469
0.000192273
0.000234784
0.000163219
0.00024591
0.000131064
0.000248757
0.00010398
0.000214812
8.94386e-05
0.000134778
9.23502e-05
0.000115381
7.04257e-05
-0.000205687
8.09912e-05
-0.000152004
6.856e-05
-5.09846e-05
1.85204e-05
4.68811e-05
6.64112e-06
0.00011997
1.36216e-05
0.000170507
3.00187e-05
0.000212811
4.601e-05
0.000249063
6.11547e-05
0.000278457
7.49424e-05
0.000302064
8.66374e-05
0.000316114
9.79402e-05
0.000324308
0.000107232
0.000323628
0.000113308
0.000312389
0.000112787
0.000288844
9.71599e-05
0.000304846
8.17625e-05
0.000314955
8.05696e-05
0.000309945
0.0001197
0.000293
0.000166842
0.000256775
0.000206532
0.000215973
0.000224267
0.00018979
0.000241239
0.000178496
0.0002548
0.000179623
0.000257485
0.000188888
0.000247812
0.000202292
0.000228024
0.000215119
0.000201616
0.000227586
0.000170694
0.000242357
0.000136694
0.000244155
0.000106266
0.000190174
8.4858e-05
9.63808e-05
7.3036e-05
8.52484e-05
2.64619e-05
-0.000182612
5.63013e-05
-6.1126e-05
-1.80196e-05
3.50443e-05
-4.1576e-05
9.7344e-05
-1.92874e-05
0.000143636
3.17015e-06
0.000185216
2.22216e-05
0.000224009
4.08709e-05
0.000258844
5.96673e-05
0.000288017
7.81809e-05
0.000310286
9.46798e-05
0.000322128
0.000111786
0.000326333
0.000126106
0.000320842
0.000136829
0.000300751
0.000142474
0.00027259
0.000136486
0.000294862
0.000132635
0.000304683
0.000144329
0.000290375
0.000198018
0.000266265
0.000238132
0.000221075
0.000258077
0.000184889
0.000263352
0.000165799
0.00027457
0.000161217
0.000281294
0.000167112
0.000277113
0.000179001
0.000261715
0.000193602
0.000238492
0.000207585
0.000210224
0.000221433
0.000177201
0.000236665
0.000139091
0.000234232
9.95992e-05
0.000151439
6.21198e-05
4.68265e-05
3.02173e-05
3.85128e-05
-1.33175e-05
-5.62933e-05
-2.70043e-05
2.85409e-05
-7.13878e-05
6.47481e-05
-4.74638e-05
9.97988e-05
-2.48032e-05
0.000135034
-3.36583e-06
0.00016957
1.46306e-05
0.000203296
3.32872e-05
0.000235301
5.22405e-05
0.000264944
7.11633e-05
0.000291275
8.94679e-05
0.000310647
0.000111343
0.000315098
0.000133036
0.000309497
0.000153643
0.000279492
0.000168956
0.000253583
0.000181311
0.000281612
0.000190419
0.000286634
0.000219513
0.000269886
0.000273922
0.000235907
0.00030406
0.000189469
0.00030039
0.000160927
0.000299689
0.000149012
0.000305759
0.000149939
0.000305045
0.000158851
0.000293605
0.000172128
0.000273351
0.000187082
0.000247751
0.000201359
0.00021786
0.000214323
0.000181493
0.000227408
0.000133704
0.000209984
8.00622e-05
9.41348e-05
1.58918e-05
-1.54368e-05
-2.22625e-05
-1.49814e-05
-5.80813e-05
3.56088e-05
-7.66498e-05
5.29289e-05
-6.9483e-05
7.58743e-05
-4.90705e-05
0.000103
-2.85781e-05
0.000132264
-9.88053e-06
0.000162172
7.60719e-06
0.000191363
2.64273e-05
0.000218233
4.66666e-05
0.000239947
6.74586e-05
0.000255755
8.7202e-05
0.00027433
0.000109513
0.000284749
0.000133299
0.000280508
0.000163524
0.000248046
0.000193213
0.000232825
0.000227646
0.000268819
0.000252092
0.000265881
0.000301998
0.000246417
0.000337267
0.000204711
0.00035679
0.000162981
0.000337343
0.000142411
0.000333074
0.000137018
0.000332774
0.000141885
0.000324008
0.000152867
0.000306274
0.000166907
0.000282654
0.000180813
0.000255483
0.000193243
0.000223916
0.000203312
0.000180312
0.000212651
0.000116917
0.000168472
3.68145e-05
3.75582e-05
-4.7237e-05
-6.01509e-05
-6.7647e-05
-5.4578e-05
-9.05953e-05
6.11056e-05
-8.79251e-05
6.91738e-05
-7.09546e-05
8.40563e-05
-5.10373e-05
0.000105782
-3.32401e-05
0.000132413
-1.72681e-05
0.000159613
2.81747e-08
0.000186898
1.78568e-05
0.000211514
3.93891e-05
0.000230279
6.28306e-05
0.000239424
8.61594e-05
0.000246903
0.000109708
0.000253861
0.000135267
0.00024995
0.000169733
0.000214316
0.000217934
0.000215974
0.000273923
0.000243523
0.000316792
0.000245348
0.000376646
0.000217809
0.000395717
0.000174016
0.000397637
0.000140559
0.000369037
0.000127401
0.000361347
0.000127261
0.000353558
0.00013532
0.000338279
0.000147925
0.000316418
0.000162007
0.000290218
0.000173299
0.000261612
0.000181667
0.000224791
0.00018503
0.000170906
0.000178017
8.75241e-05
0.000114659
-2.63394e-05
-1.05259e-05
-0.00010022
-8.46597e-05
-0.000103387
-7.94446e-05
-0.000103961
8.14791e-05
-0.000103097
7.90238e-05
-7.8719e-05
8.96299e-05
-5.81795e-05
0.00010917
-4.15768e-05
0.00013357
-2.66203e-05
0.000159396
-1.0632e-05
0.000183938
7.62694e-06
0.000206529
2.91473e-05
0.000223755
5.50639e-05
0.00022996
8.20669e-05
0.000232151
0.000108867
0.00022906
0.000137573
0.000222214
0.000177065
0.000184876
0.000240413
0.000199891
0.000315924
0.000215431
0.000384616
0.000219621
0.000432478
0.000187572
0.000445045
0.00014542
0.000427371
0.000120666
0.000394116
0.000113813
0.000381554
0.000118733
0.000368535
0.000129705
0.000348906
0.000143121
0.000323982
0.000154882
0.000295485
0.000161415
0.000263489
0.000163691
0.000217638
0.000154546
0.000146998
0.000132978
3.31575e-05
5.8489e-05
-8.14139e-05
-3.65717e-05
-0.000131986
-9.13473e-05
-0.000124829
-9.55435e-05
-0.00010211
0.00010166
-0.000126801
9.17387e-05
-9.82534e-05
9.71817e-05
-7.65966e-05
0.000112435
-5.97787e-05
0.000133007
-4.42617e-05
0.00015614
-2.74671e-05
0.000178892
-7.41825e-06
0.000198346
1.61358e-05
0.000212852
4.3784e-05
0.000217489
7.30089e-05
0.000218005
0.000103317
0.000210776
0.000134245
0.000195762
0.000177232
0.000158063
0.000246816
0.000176767
0.000350765
0.000193489
0.00043578
0.000183821
0.000479142
0.00015336
0.000477863
0.000118005
0.000445026
0.000101678
0.000409778
0.00010168
0.000394423
0.0001111
0.000377745
0.000123715
0.000354629
0.000136185
0.000327355
0.000141532
0.000297008
0.000142776
0.00025773
0.000130729
0.000200981
0.000105819
0.000104347
7.96612e-05
-2.90698e-05
5.53206e-06
-0.00011386
-5.01788e-05
-0.000143237
-8.20829e-05
-0.000132486
-0.000104066
-9.2377e-05
0.000120702
-0.000162448
0.000102437
-0.000131209
0.000102849
-0.000109544
0.000113951
-9.29042e-05
0.000131048
-7.73396e-05
0.000150607
-5.85517e-05
0.00016963
-3.47505e-05
0.000186119
-6.84864e-06
0.000196673
2.42576e-05
0.000197653
5.60841e-05
0.000202328
9.02181e-05
0.000196728
0.000130428
0.000175084
0.000178838
0.000136625
0.000257046
0.000161137
0.000370329
0.000160074
0.000471501
0.00014144
0.000507087
0.000117073
0.000494263
9.11776e-05
0.000448637
8.41949e-05
0.000415783
9.06345e-05
0.000400181
0.000102784
0.000379626
0.00011569
0.000354271
0.000123157
0.000325516
0.000121862
0.000290987
0.000109549
0.000244949
7.96153e-05
0.000169002
5.59593e-05
4.56303e-05
1.37148e-05
-6.85453e-05
-2.56611e-05
-0.000131117
-5.48385e-05
-0.00014268
-7.06789e-05
-0.000131301
-0.000103187
-7.67717e-05
0.000130408
-0.000204173
0.000107347
-0.000173104
0.000104426
-0.000152168
0.000111509
-0.00013624
0.000124797
-0.000122038
0.000141388
-0.000102999
0.000156742
-7.54983e-05
0.000169199
-4.22189e-05
0.000176835
-6.49895e-06
0.000175432
3.03762e-05
0.000178579
6.37714e-05
0.000180691
0.000101122
0.000150711
0.000152143
0.000124401
0.000237801
0.00012529
0.000363057
0.000111267
0.000484649
9.62881e-05
0.000508432
7.87183e-05
0.000484783
6.57069e-05
0.000438313
6.86186e-05
0.000413398
7.92624e-05
0.000396344
9.29705e-05
0.000373545
0.000103287
0.000347059
0.000102107
0.000319001
9.11194e-05
0.000278895
5.6795e-05
0.000222035
2.38658e-05
0.000118428
-3.08668e-07
-4.04491e-06
-2.40675e-05
-9.36953e-05
-4.66156e-05
-0.000129944
-5.77916e-05
-0.000133563
-6.18245e-05
-0.00012084
-9.50346e-05
-6.29106e-05
0.000127751
-0.000239663
0.000104756
-0.000207931
0.000101934
-0.000186109
0.000108146
-0.000169357
0.000118299
-0.000155479
0.000130835
-0.000140268
0.000142105
-0.000114368
0.000150202
-7.98055e-05
0.000154464
-4.14491e-05
0.000153557
-2.43693e-06
0.000149979
3.22751e-05
0.000146618
6.33958e-05
0.000115277
0.000110309
9.4906e-05
0.000207181
6.4734e-05
0.000367167
5.89552e-05
0.000470041
5.29622e-05
0.000485542
4.42788e-05
0.000456227
4.37789e-05
0.000417956
5.37924e-05
0.000400625
6.72528e-05
0.000382354
8.02703e-05
0.000359795
8.33252e-05
0.000335049
7.31435e-05
0.000301463
4.22813e-05
0.000256581
1.36952e-06
0.000176675
-2.09832e-05
7.40825e-05
-3.65475e-05
-3.62642e-05
-5.34041e-05
-9.79674e-05
-6.06029e-05
-0.000120314
-6.06127e-05
-0.000119181
-5.71626e-05
-0.000102659
-8.15935e-05
-5.35642e-05
0.000123628
-0.00026913
0.000102093
-0.000236601
9.92014e-05
-0.000213071
0.000105278
-0.000194405
0.000114519
-0.000178972
0.000124251
-0.000164602
0.000130679
-0.000139142
0.000133725
-0.000106912
0.000133656
-7.05058e-05
0.00012991
-3.29489e-05
0.000120011
1.46333e-06
0.000104154
3.00767e-05
7.74241e-05
8.14474e-05
4.40833e-05
0.000211222
1.17539e-05
0.000368856
1.4098e-05
0.000441158
1.66602e-05
0.000446695
1.70335e-05
0.000415814
2.56439e-05
0.000390422
3.96103e-05
0.000377819
5.42439e-05
0.000360833
6.31852e-05
0.00034116
5.56093e-05
0.000317363
2.95429e-05
0.000279505
-2.20825e-05
0.000220768
-5.31974e-05
0.000134979
-5.59499e-05
3.49394e-05
-6.70869e-05
-4.91997e-05
-7.14516e-05
-9.12452e-05
-7.0433e-05
-0.000105957
-6.36514e-05
-0.000101308
-5.66806e-05
-8.66159e-05
-7.04335e-05
-5.25575e-05
0.000122064
-0.00029497
0.000101504
-0.000262265
9.72502e-05
-0.000236168
0.000102463
-0.000215969
0.000109704
-0.000197591
0.000117155
-0.00018196
0.000121548
-0.00015444
0.000120385
-0.000124273
0.000114337
-9.03368e-05
0.000103186
-5.45465e-05
8.53311e-05
-2.26972e-05
6.07942e-05
5.54251e-06
3.06878e-05
7.91291e-05
-1.06795e-05
0.000236842
-2.24078e-05
0.00036001
-1.6196e-05
0.000404869
-9.65405e-06
0.000402198
-3.03313e-06
0.000370606
1.04867e-05
0.000358505
2.69525e-05
0.000349679
3.96671e-05
0.000335533
3.85653e-05
0.000320811
1.84655e-05
0.00029057
-3.57825e-05
0.00025062
-8.22814e-05
0.000182348
-8.66898e-05
9.80068e-05
-8.26585e-05
1.33581e-05
-8.5226e-05
-5.07995e-05
-8.12006e-05
-7.95607e-05
-7.58789e-05
-8.9677e-05
-6.75569e-05
-8.59051e-05
-6.03282e-05
-7.36029e-05
-5.92601e-05
-5.47948e-05
0.000122894
-0.000317745
0.000103777
-0.00028455
9.72864e-05
-0.000255851
9.8006e-05
-0.000233147
0.000102482
-0.00021343
0.000106491
-0.000194607
0.00010862
-0.00016569
0.000104901
-0.000137015
9.31518e-05
-0.000104126
7.45926e-05
-6.90559e-05
4.87137e-05
-3.76632e-05
1.84074e-05
-4.5625e-06
-2.37288e-05
0.000108272
-4.87281e-05
0.00026396
-4.73727e-05
0.000345167
-3.77661e-05
0.000366676
-2.70336e-05
0.000354525
-1.62356e-05
0.000329778
-5.62854e-07
0.000326498
1.47957e-05
0.000319878
2.02908e-05
0.00031087
7.39964e-06
0.000291274
-3.93078e-05
0.000264834
-0.000103953
0.000216504
-0.000115041
0.000148865
-0.000105904
7.40088e-05
-9.7756e-05
4.65527e-06
-9.15709e-05
-4.35291e-05
-8.37717e-05
-6.51592e-05
-7.7282e-05
-7.3315e-05
-6.93463e-05
-7.04097e-05
-6.30357e-05
-6.08735e-05
-4.87063e-05
-5.71605e-05
0.000127312
-0.000337598
0.000109722
-0.000305529
9.99051e-05
-0.000274279
9.43562e-05
-0.000248542
9.14358e-05
-0.000223908
9.04899e-05
-0.000204612
8.92112e-05
-0.000175868
8.33402e-05
-0.000148875
6.77417e-05
-0.000115576
4.33204e-05
-7.9354e-05
1.46607e-05
-4.88699e-05
-2.64517e-05
1.28646e-05
-6.55206e-05
0.00015007
-7.14731e-05
0.000281813
-6.23491e-05
0.000328265
-4.86618e-05
0.000331918
-3.72144e-05
0.000309235
-2.43665e-05
0.000297926
-9.55049e-06
0.000298065
-3.71401e-08
0.000293827
-5.36573e-06
0.00028389
-3.97612e-05
0.00026736
-0.000112593
0.000238069
-0.000141579
0.000185968
-0.000131847
0.000122908
-0.000114783
6.07674e-05
-0.000100905
4.17768e-06
-8.90176e-05
-3.26807e-05
-7.89839e-05
-5.02283e-05
-7.38719e-05
-5.68399e-05
-6.79863e-05
-5.53241e-05
-6.20588e-05
-4.7649e-05
-3.61218e-05
-5.57519e-05
0.000135121
-0.000356159
0.000118313
-0.000326009
0.000101986
-0.000291396
8.48518e-05
-0.000257346
7.32033e-05
-0.000231912
6.51303e-05
-0.000212016
6.19617e-05
-0.00018668
5.56317e-05
-0.000160631
3.96773e-05
-0.000125354
1.74228e-05
-9.07943e-05
-2.00181e-05
-4.46752e-05
-7.00299e-05
4.53825e-05
-8.94416e-05
0.000195644
-8.31908e-05
0.000293451
-6.84624e-05
0.000313616
-5.39409e-05
0.000298468
-4.16646e-05
0.000277933
-2.91667e-05
0.0002743
-1.888e-05
0.000274813
-1.80234e-05
0.000269955
-4.04241e-05
0.000261509
-0.000105624
0.000246794
-0.000164969
0.000211909
-0.000158382
0.000161508
-0.000137622
0.000107552
-0.000114846
5.52105e-05
-9.54377e-05
7.77608e-06
-8.00825e-05
-2.13851e-05
-6.97437e-05
-3.58789e-05
-6.59508e-05
-4.08079e-05
-6.20036e-05
-3.96478e-05
-5.50228e-05
-3.31723e-05
-2.33545e-05
-4.83744e-05
0.000144301
-0.000373289
0.000126744
-0.000345507
9.68615e-05
-0.000307054
6.72554e-05
-0.000264762
4.49997e-05
-0.000236028
3.3295e-05
-0.000217427
3.26239e-05
-0.000196247
3.04283e-05
-0.000169827
1.88933e-05
-0.000136662
-8.42528e-06
-9.59943e-05
-5.04707e-05
-2.92122e-05
-0.000100091
8.91375e-05
-0.000101781
0.000235058
-8.68069e-05
0.000302532
-6.82319e-05
0.000299784
-5.4369e-05
0.000271025
-4.29939e-05
0.000258807
-3.47868e-05
0.00025775
-3.21945e-05
0.000255263
-4.48085e-05
0.000249958
-9.57804e-05
0.000245592
-0.000176913
0.000225858
-0.000185661
0.000188938
-0.000163563
0.000144216
-0.000136228
9.89451e-05
-0.000108236
5.35305e-05
-8.51109e-05
1.34411e-05
-6.78232e-05
-1.04323e-05
-5.83891e-05
-2.21031e-05
-5.59883e-05
-2.60738e-05
-5.30822e-05
-2.55001e-05
-4.53167e-05
-2.0728e-05
-1.36065e-05
-3.66641e-05
0.000152799
-0.000388829
0.000128037
-0.000363926
8.21539e-05
-0.00031228
3.82659e-05
-0.000268974
1.28713e-05
-0.000237896
6.77176e-06
-0.000219397
1.13408e-05
-0.000203112
1.22858e-05
-0.000177066
-7.81783e-07
-0.000145841
-2.97049e-05
-9.36633e-05
-8.06143e-05
-7.17422e-06
-0.000114101
0.000134673
-0.000105872
0.00026916
-8.43205e-05
0.000309923
-6.47876e-05
0.000284863
-5.2462e-05
0.000255188
-4.57718e-05
0.000247189
-4.41806e-05
0.000243237
-5.19483e-05
0.0002391
-9.01448e-05
0.000236195
-0.000170778
0.000230642
-0.000212056
0.000205806
-0.000191356
0.000170753
-0.000161117
0.000133276
-0.000129261
9.4186e-05
-9.79546e-05
5.39282e-05
-7.39459e-05
2.08812e-05
-5.61554e-05
1.32935e-06
-4.83768e-05
-8.7219e-06
-4.70701e-05
-1.30284e-05
-4.45748e-05
-1.37105e-05
-3.7251e-05
-1.16422e-05
-8.11822e-06
-2.62046e-05
0.000159837
-0.000403751
0.000121918
-0.000380432
5.56495e-05
-0.00031892
6.17692e-06
-0.000269561
-1.1108e-05
-0.000236204
-9.77271e-06
-0.000220894
-3.72694e-06
-0.00020772
-3.3531e-06
-0.000181526
-2.02278e-05
-0.000151534
-5.00028e-05
-8.75412e-05
-0.000106379
1.94267e-05
-0.00012098
0.000177365
-0.000104313
0.000299164
-7.9053e-05
0.000317601
-5.97415e-05
0.000275282
-5.21156e-05
0.000246414
-5.21904e-05
0.000237291
-5.94184e-05
0.000232581
-8.85523e-05
0.000227378
-0.000158039
0.000226796
-0.000227775
0.000212711
-0.000221239
0.000186991
-0.00018932
0.000157524
-0.000154949
0.00012632
-0.000119914
9.24492e-05
-8.84321e-05
5.65071e-05
-6.3068e-05
3.04912e-05
-4.72935e-05
1.3727e-05
-4.18608e-05
3.5836e-06
-4.17461e-05
-2.50557e-06
-3.93743e-05
-5.60786e-06
-3.29576e-05
-6.37181e-06
-6.20522e-06
-2.16672e-05
0.000165181
-0.000419562
0.000103298
-0.000387188
2.4031e-05
-0.000320611
-2.02902e-05
-0.000265429
-2.66234e-05
-0.000237344
-2.14513e-05
-0.000223089
-1.68718e-05
-0.000208575
-2.00373e-05
-0.000185798
-3.9408e-05
-0.000152495
-7.02381e-05
-7.75152e-05
-0.000119354
4.84049e-05
-0.000121348
0.000217234
-0.000100133
0.000327828
-7.31146e-05
0.000325956
-5.64173e-05
0.000269966
-5.52219e-05
0.000240258
-6.5213e-05
0.000231175
-9.06494e-05
0.000223824
-0.00015255
0.000221114
-0.000234194
0.000210466
-0.000246631
0.000193873
-0.000219274
0.000171226
-0.000183881
0.000148176
-0.000146936
0.000122799
-0.00010952
9.28806e-05
-7.86077e-05
6.26359e-05
-5.3842e-05
4.08841e-05
-4.0785e-05
2.60443e-05
-3.89114e-05
1.47447e-05
-4.03269e-05
5.80779e-06
-3.79734e-05
-8.86049e-08
-3.08546e-05
-3.43931e-06
-6.37701e-06
-1.89361e-05
0.00016353
-0.000436166
7.25224e-05
-0.000393228
-1.03501e-05
-0.000317861
-3.95193e-05
-0.00026583
-3.85099e-05
-0.000241525
-3.13031e-05
-0.000227235
-2.79109e-05
-0.000211241
-3.70259e-05
-0.000189474
-5.67945e-05
-0.000148825
-8.79636e-05
-6.46426e-05
-0.000125726
7.78283e-05
-0.000118134
0.000253581
-9.33833e-05
0.000356682
-6.81357e-05
0.000337198
-5.59126e-05
0.000268223
-6.69265e-05
0.000237191
-9.37861e-05
0.000225891
-0.000151211
0.000216243
-0.00023587
0.000204412
-0.000268235
0.000192289
-0.000247029
0.000176233
-0.000214048
0.000159666
-0.000176924
0.000142383
-0.000137832
0.000121117
-9.99186e-05
9.47427e-05
-6.90438e-05
7.0388e-05
-4.55408e-05
5.11016e-05
-3.50519e-05
3.63263e-05
-3.5365e-05
2.28661e-05
-3.7492e-05
1.12662e-05
-3.46488e-05
3.18902e-06
-2.74482e-05
-1.98814e-06
-6.4669e-06
-1.64303e-05
0.000146985
-0.000454189
3.85773e-05
-0.000396216
-3.71937e-05
-0.000314662
-5.35962e-05
-0.000268738
-4.99099e-05
-0.000246168
-4.152e-05
-0.000231713
-3.82041e-05
-0.000214875
-5.31911e-05
-0.00019398
-7.30162e-05
-0.000143098
-0.000102884
-4.90553e-05
-0.000129622
0.000106979
-0.000114133
0.000287812
-8.54751e-05
0.000386085
-6.50068e-05
0.000354621
-6.69324e-05
0.000269363
-9.53544e-05
0.000232784
-0.000152497
0.000215989
-0.00023734
0.000196755
-0.000285686
0.000185263
-0.000273484
0.000173558
-0.000242855
0.000162671
-0.000207594
0.000152145
-0.000169138
0.000139295
-0.000128237
0.000120881
-9.1807e-05
9.96741e-05
-5.96384e-05
7.74339e-05
-3.80723e-05
5.94559e-05
-2.99823e-05
4.34569e-05
-3.18919e-05
2.78983e-05
-3.4461e-05
1.47082e-05
-3.19447e-05
5.12131e-06
-2.44091e-05
-1.67822e-06
-5.67584e-06
-1.50655e-05
0.000117939
-0.000471029
-3.92245e-07
-0.000398438
-5.83923e-05
-0.000315655
-6.83819e-05
-0.000274379
-6.11735e-05
-0.000251939
-5.19055e-05
-0.000237505
-4.88919e-05
-0.000218906
-6.89156e-05
-0.000199056
-8.81648e-05
-0.000137374
-0.000113508
-2.98651e-05
-0.000131564
0.000135825
-0.000109776
0.000317087
-7.89773e-05
0.000412991
-7.36074e-05
0.00037148
-9.74141e-05
0.000266153
-0.000155144
0.0002193
-0.000240295
0.000191345
-0.000299401
0.000174801
-0.000294601
0.000165619
-0.000269136
0.000158755
-0.000236604
0.00015328
-0.000200554
0.000147208
-0.000159744
0.000137219
-0.000119161
0.00012216
-8.1152e-05
0.000103111
-4.98976e-05
8.24884e-05
-3.0512e-05
6.50624e-05
-2.53897e-05
4.71435e-05
-2.83e-05
2.98671e-05
-3.01606e-05
1.62928e-05
-2.83092e-05
6.63214e-06
-2.17493e-05
-1.88613e-06
-3.64682e-06
-1.48744e-05
8.10285e-05
-0.000491624
-3.35788e-05
-0.000402127
-7.82193e-05
-0.000323565
-8.26885e-05
-0.000281794
-7.32864e-05
-0.000259221
-6.26539e-05
-0.000243434
-6.0355e-05
-0.000223566
-8.25211e-05
-0.000201239
-0.000101487
-0.000129944
-0.000121989
-5.66534e-06
-0.000129602
0.000163504
-0.0001072
0.000343077
-8.51693e-05
0.000430812
-0.000107563
0.000375406
-0.000163614
0.000249998
-0.000246225
0.000186564
-0.000307196
0.000163383
-0.000311621
0.000153548
-0.000291557
0.000150295
-0.000262305
0.000148618
-0.000229096
0.000147218
-0.000191054
0.0001438
-0.000149447
0.000135409
-0.000108652
0.000122634
-6.95396e-05
0.000103964
-3.95706e-05
8.54356e-05
-2.27832e-05
6.66871e-05
-1.99707e-05
4.72458e-05
-2.25936e-05
2.94407e-05
-2.32281e-05
1.6434e-05
-2.25776e-05
8.52314e-06
-1.87936e-05
-1.06377e-06
1.84257e-07
-1.52269e-05
4.32128e-05
-0.000515938
-6.20073e-05
-0.000408589
-9.64769e-05
-0.000331008
-9.58045e-05
-0.000291423
-8.47846e-05
-0.000266519
-7.37276e-05
-0.000249125
-7.07957e-05
-0.000226135
-9.26282e-05
-0.000199585
-0.000110587
-0.000118266
-0.00012681
2.24527e-05
-0.000126847
0.000188598
-0.000109677
0.000367001
-0.000117646
0.000443178
-0.000187213
0.000358806
-0.000253125
0.000204219
-0.00031045
0.00014595
-0.000322391
0.000136399
-0.000309681
0.000136801
-0.000284802
0.000138788
-0.000254697
0.000141463
-0.000219443
0.000142871
-0.000178713
0.000140122
-0.00013692
0.000133059
-9.44061e-05
0.000119922
-5.63484e-05
0.00010306
-2.86456e-05
8.46369e-05
-1.47051e-05
6.54909e-05
-1.40288e-05
4.44271e-05
-1.62197e-05
2.66922e-05
-1.63235e-05
1.56264e-05
-1.61832e-05
9.91063e-06
-1.71126e-05
2.47607e-06
7.43582e-06
-1.8321e-05
5.15046e-06
-0.000556938
-8.79447e-05
-0.000430159
-0.000112781
-0.000344269
-0.000107928
-0.000304
-9.58604e-05
-0.000275669
-8.32493e-05
-0.000255308
-7.75141e-05
-0.000226023
-9.65016e-05
-0.000189864
-0.000117094
-0.000100438
-0.000128372
5.20938e-05
-0.000129741
0.000213169
-0.000134822
0.000379667
-0.000209337
0.000435954
-0.000288148
0.000295703
-0.000304324
0.000140985
-0.000324729
0.000108544
-0.000319291
0.000115026
-0.00030132
0.000123104
-0.000275922
0.000129581
-0.000243878
0.000135626
-0.000205227
0.000137668
-0.000163441
0.000135379
-0.000119951
0.000127663
-7.81704e-05
0.000115111
-4.11931e-05
9.86085e-05
-1.58443e-05
7.98349e-05
-6.29657e-06
5.8297e-05
-7.68021e-06
3.74615e-05
-1.00616e-05
2.32365e-05
-1.12607e-05
1.55312e-05
-1.2534e-05
1.07591e-05
-1.85283e-05
8.38907e-06
1.96215e-05
-2.50811e-05
-2.98955e-05
-0.000618538
-0.000110707
-0.000464297
-0.000128676
-0.000366633
-0.000121143
-0.000319729
-0.000106349
-0.00028725
-9.0944e-05
-0.000264541
-7.98633e-05
-0.000230276
-9.25472e-05
-0.00017976
-0.00011796
-8.21062e-05
-0.000128277
8.27212e-05
-0.000142177
0.000238706
-0.000210926
0.000391703
-0.000370211
0.000406453
-0.000305488
0.000205742
-0.00031462
8.53198e-05
-0.000315823
8.00271e-05
-0.000307946
9.62253e-05
-0.000290316
0.000110489
-0.000263279
0.000121229
-0.000228157
0.000128711
-0.000186905
0.000130691
-0.000144013
0.000128082
-0.000101673
0.000120163
-5.8229e-05
0.000107229
-2.50739e-05
9.00339e-05
-6.48712e-06
6.95858e-05
-2.8545e-06
4.74769e-05
-5.52166e-06
3.00372e-05
-7.79988e-06
1.99175e-05
-1.06452e-05
1.56336e-05
-1.57633e-05
1.27648e-05
-2.78556e-05
1.82932e-05
3.46985e-05
-3.83667e-05
-5.93733e-05
-0.000676548
-0.000130814
-0.000515091
-0.000144549
-0.00040205
-0.000133255
-0.000340232
-0.000116787
-0.000300663
-9.97563e-05
-0.000276064
-8.40542e-05
-0.000239568