/*--------------------------------*- C++ -*----------------------------------*\
  =========                 |
  \\      /  F ield         | OpenFOAM: The Open Source CFD Toolbox
   \\    /   O peration     | Website:  https://openfoam.org
    \\  /    A nd           | Version:  10
     \\/     M anipulation  |
\*---------------------------------------------------------------------------*/
FoamFile
{
    format      ascii;
    class       volScalarField;
    location    "0.150109";
    object      rho;
}
// * * * * * * * * * * * * * * * * * * * * * * * * * * * * * * * * * * * * * //

dimensions      [1 -3 0 0 0 0 0];

internalField   nonuniform List<scalar> 
16320
(
0.551593
0.537499
0.523438
0.511998
0.501139
0.491767
0.485322
0.479777
0.475434
0.470945
0.465389
0.462334
0.462103
0.465781
0.474875
0.495046
0.537806
0.624247
0.769513
0.883917
0.947231
0.963205
0.95099
0.905933
0.841945
0.782152
0.722188
0.679528
0.635899
0.646237
0.717311
0.811944
0.748477
0.547486
0.541226
0.530799
0.520201
0.510456
0.501913
0.493848
0.48716
0.479934
0.472263
0.465603
0.461499
0.463118
0.467647
0.477918
0.501683
0.560079
0.676794
0.862939
0.993336
1.01463
1.00193
0.969583
0.907303
0.840088
0.770579
0.697888
0.659702
0.626402
0.647808
0.728398
0.814975
0.733567
0.543805
0.535794
0.532305
0.525629
0.516243
0.506395
0.496908
0.48948
0.482631
0.476106
0.471368
0.46807
0.471434
0.484658
0.509653
0.556947
0.632459
0.749435
0.909673
1.00633
1.00419
0.988476
0.952875
0.889215
0.822803
0.748054
0.675377
0.638743
0.615853
0.647721
0.733537
0.80684
0.710255
0.544831
0.534496
0.529266
0.52357
0.518003
0.514423
0.506229
0.498336
0.491693
0.484516
0.479541
0.48434
0.498424
0.526392
0.553531
0.609416
0.67915
0.795064
0.924122
0.977678
0.967931
0.950494
0.917938
0.858491
0.794623
0.717568
0.653325
0.620394
0.608386
0.650136
0.738042
0.792611
0.682877
0.568311
0.537826
0.530564
0.527769
0.525099
0.519496
0.510782
0.501751
0.494222
0.490765
0.49818
0.511803
0.536074
0.560047
0.5994
0.649391
0.727723
0.834326
0.916446
0.937629
0.925325
0.909519
0.875731
0.81937
0.751463
0.676986
0.626578
0.600014
0.600662
0.651455
0.739583
0.772702
0.654458
0.573112
0.542149
0.535007
0.532374
0.527639
0.51419
0.505407
0.501765
0.499126
0.506234
0.521354
0.541333
0.565938
0.590353
0.633128
0.684904
0.774736
0.861151
0.895341
0.895685
0.885961
0.866711
0.827168
0.76976
0.699236
0.636081
0.599284
0.581104
0.592396
0.650581
0.739157
0.748304
0.630129
0.567139
0.544178
0.537413
0.53025
0.520273
0.513458
0.510619
0.510019
0.510782
0.527216
0.547797
0.576292
0.594216
0.627304
0.667183
0.73037
0.825532
0.870257
0.87423
0.867665
0.852724
0.82072
0.775394
0.710956
0.646679
0.598092
0.574273
0.564519
0.582925
0.647984
0.737861
0.723218
0.607361
0.551038
0.539391
0.535273
0.531255
0.526192
0.523522
0.522494
0.529208
0.540441
0.563549
0.588815
0.613321
0.634007
0.664587
0.709185
0.787076
0.869139
0.871407
0.861138
0.844627
0.813717
0.774877
0.715245
0.649684
0.59923
0.56615
0.553276
0.550252
0.57308
0.643768
0.735354
0.700441
0.584721
0.547317
0.547965
0.548606
0.546118
0.54414
0.551165
0.566282
0.596183
0.613811
0.627413
0.646293
0.66129
0.677217
0.705042
0.759354
0.857511
0.879925
0.87316
0.85701
0.81921
0.77952
0.722296
0.651762
0.59928
0.564387
0.543723
0.536352
0.538204
0.563429
0.63919
0.732377
0.680529
0.561745
0.569223
0.576461
0.591146
0.612845
0.63252
0.66757
0.681194
0.68548
0.680055
0.67239
0.679732
0.687322
0.702518
0.739588
0.813639
0.917453
0.906801
0.890633
0.852439
0.798837
0.737134
0.658707
0.599743
0.561652
0.539202
0.527005
0.523004
0.52813
0.555143
0.6341
0.728627
0.663172
0.538837
0.642263
0.689626
0.716511
0.720696
0.72148
0.716947
0.707446
0.700484
0.691999
0.682147
0.691605
0.700877
0.723396
0.773189
0.874603
0.956258
0.940475
0.906632
0.843419
0.775461
0.682024
0.606895
0.56249
0.53669
0.522146
0.514045
0.512122
0.519175
0.549278
0.631103
0.723954
0.644119
0.516231
0.725407
0.729733
0.694659
0.685249
0.67553
0.667572
0.666488
0.666647
0.669221
0.66739
0.685963
0.70304
0.735312
0.803871
0.93234
0.989075
0.967743
0.912595
0.830622
0.737233
0.632084
0.571567
0.538795
0.520397
0.50942
0.503335
0.503142
0.512089
0.54683
0.63199
0.722653
0.627215
0.495519
0.715935
0.647403
0.604039
0.581739
0.570908
0.561523
0.559265
0.560683
0.57003
0.586803
0.632695
0.674002
0.727693
0.826088
0.976231
1.01798
0.98273
0.906473
0.810242
0.687887
0.594665
0.548359
0.523325
0.508327
0.498343
0.49391
0.495859
0.507539
0.548254
0.642506
0.719458
0.606475
0.476593
0.663488
0.598245
0.570367
0.553451
0.541105
0.528284
0.517229
0.509437
0.506306
0.508063
0.538575
0.594941
0.689351
0.818739
1.00503
1.03674
0.992292
0.890714
0.779872
0.644141
0.56782
0.532173
0.511346
0.497242
0.488315
0.485446
0.489448
0.506206
0.558252
0.662946
0.700815
0.581809
0.466594
0.608296
0.585662
0.566774
0.550198
0.537386
0.526245
0.513538
0.500546
0.489296
0.484076
0.496539
0.538939
0.642373
0.816198
1.01737
1.04888
0.986881
0.862425
0.741273
0.609256
0.547668
0.518534
0.499944
0.486884
0.479161
0.479282
0.487459
0.51226
0.58582
0.673599
0.662107
0.560906
0.466007
0.612527
0.585704
0.570278
0.559977
0.54987
0.536975
0.522162
0.506566
0.491469
0.483543
0.489405
0.522118
0.619541
0.824917
1.02752
1.05394
0.965773
0.83137
0.702714
0.580395
0.529569
0.505293
0.489559
0.478329
0.471919
0.476939
0.491084
0.533552
0.6248
0.662354
0.607706
0.544169
0.477385
0.617285
0.590589
0.571725
0.559095
0.548301
0.536453
0.522399
0.508472
0.494328
0.488597
0.495453
0.531004
0.634271
0.852406
1.03137
1.04142
0.921769
0.794602
0.662257
0.554027
0.511743
0.493389
0.479903
0.469875
0.467867
0.479221
0.509468
0.575947
0.645211
0.624852
0.559711
0.525008
0.487178
0.61401
0.569737
0.547591
0.536587
0.529895
0.522931
0.512312
0.498233
0.484632
0.48534
0.512257
0.562841
0.688707
0.889172
1.03142
1.00437
0.872413
0.756383
0.620622
0.527515
0.495464
0.480585
0.469039
0.462397
0.466994
0.492537
0.549461
0.614328
0.636521
0.574428
0.531118
0.507174
0.477447
0.582289
0.52975
0.502334
0.489161
0.483545
0.481804
0.478308
0.471155
0.463704
0.468469
0.500254
0.600129
0.769682
0.948582
1.00318
0.929995
0.813101
0.706298
0.57466
0.501865
0.478854
0.466137
0.457151
0.456525
0.475082
0.526387
0.59935
0.617918
0.596487
0.546059
0.51345
0.486118
0.454285
0.545938
0.488358
0.455443
0.437122
0.42653
0.425779
0.425531
0.424639
0.425937
0.436167
0.472074
0.596833
0.789013
0.925353
0.910743
0.837112
0.750164
0.643493
0.5291
0.477703
0.459545
0.449305
0.445152
0.457916
0.499329
0.57593
0.61621
0.592939
0.571306
0.531658
0.498501
0.455975
0.416078
0.525096
0.468598
0.433742
0.411488
0.395453
0.38849
0.381116
0.381518
0.386451
0.401488
0.444465
0.57901
0.758006
0.841996
0.817007
0.747532
0.677169
0.577618
0.486981
0.45124
0.437187
0.432097
0.43841
0.471578
0.543904
0.607132
0.595118
0.574235
0.558336
0.52309
0.476074
0.421741
0.393471
0.516239
0.462819
0.427798
0.403944
0.384347
0.371481
0.356945
0.356471
0.361393
0.376027
0.426729
0.572018
0.717096
0.763187
0.730362
0.675503
0.603664
0.509854
0.448391
0.42395
0.414574
0.417886
0.444016
0.505566
0.585611
0.596756
0.574163
0.571431
0.55249
0.517916
0.463898
0.411137
0.388396
0.513955
0.46422
0.428894
0.403725
0.382447
0.364774
0.345123
0.343827
0.348035
0.3621
0.417009
0.565896
0.682503
0.705609
0.663275
0.604236
0.537317
0.45078
0.413967
0.398018
0.395621
0.41608
0.465739
0.551208
0.590212
0.579331
0.565593
0.569984
0.550847
0.516965
0.463019
0.411737
0.395996
0.521599
0.477043
0.441392
0.412196
0.38396
0.361228
0.336504
0.338766
0.34395
0.357406
0.414628
0.562387
0.666855
0.664487
0.61182
0.543884
0.466163
0.406467
0.385665
0.376295
0.387719
0.427488
0.507023
0.576455
0.580897
0.568155
0.563135
0.569132
0.551302
0.51859
0.472301
0.423648
0.407559
0.537074
0.496173
0.457711
0.416624
0.380952
0.347694
0.321187
0.330783
0.340146
0.359266
0.421306
0.572883
0.660057
0.636246
0.565307
0.49159
0.411624
0.377123
0.364944
0.365549
0.395271
0.458619
0.551155
0.578769
0.571945
0.56255
0.559585
0.564724
0.549426
0.51802
0.481865
0.432122
0.408627
0.55444
0.51592
0.467773
0.414052
0.361779
0.320973
0.299821
0.315899
0.341192
0.369255
0.434468
0.598845
0.657201
0.612379
0.529666
0.435482
0.379073
0.35766
0.353504
0.37032
0.419496
0.508752
0.571847
0.575951
0.56714
0.558709
0.555236
0.555331
0.53979
0.509491
0.475448
0.432774
0.404737
0.57083
0.530893
0.466466
0.393417
0.327914
0.291761
0.282976
0.307583
0.350697
0.383937
0.460389
0.623423
0.655748
0.591053
0.492058
0.398416
0.360522
0.350436
0.356869
0.390592
0.467559
0.553729
0.578503
0.57356
0.565014
0.555652
0.553781
0.549942
0.524518
0.486937
0.445131
0.41318
0.393428
0.583114
0.538177
0.453098
0.359175
0.297715
0.275247
0.27437
0.303707
0.369267
0.407557
0.498775
0.64814
0.662499
0.574694
0.457583
0.379805
0.356423
0.353517
0.373965
0.434811
0.531114
0.575767
0.580722
0.572967
0.565042
0.556629
0.554479
0.536499
0.500338
0.4509
0.402062
0.373322
0.363627
0.591716
0.538819
0.425633
0.328489
0.280982
0.263909
0.265584
0.304164
0.397681
0.441726
0.549243
0.670342
0.671061
0.568537
0.440022
0.375502
0.360731
0.370399
0.416223
0.507768
0.569789
0.584184
0.58283
0.57649
0.568309
0.560076
0.553658
0.526608
0.485443
0.431723
0.389033
0.359131
0.346598
0.606242
0.53326
0.398426
0.308963
0.269078
0.257169
0.261892
0.309405
0.426066
0.479669
0.595247
0.696384
0.686207
0.572162
0.43622
0.38257
0.379798
0.41213
0.493343
0.565487
0.586989
0.590568
0.588194
0.582387
0.573873
0.563538
0.550734
0.516087
0.469493
0.417745
0.380164
0.356374
0.338949
0.622191
0.521007
0.377874
0.297707
0.265472
0.256918
0.26763
0.324659
0.452446
0.518722
0.636897
0.727482
0.712843
0.591935
0.449869
0.40579
0.426026
0.491242
0.566998
0.592885
0.597519
0.597838
0.596091
0.589017
0.578102
0.56498
0.539955
0.498885
0.445532
0.399776
0.370386
0.352433
0.316876
0.639177
0.50937
0.364115
0.294351
0.266995
0.263057
0.275907
0.349241
0.487893
0.564427
0.67783
0.761643
0.752599
0.628359
0.48522
0.458808
0.509819
0.575463
0.601908
0.605038
0.603627
0.604466
0.600617
0.590086
0.575669
0.555778
0.521641
0.478201
0.427625
0.386098
0.362959
0.350145
0.311012
0.663413
0.501192
0.363383
0.300897
0.276676
0.272412
0.288844
0.375526
0.534699
0.620748
0.71076
0.794864
0.794815
0.690343
0.556691
0.549475
0.601625
0.620029
0.617768
0.611781
0.609307
0.60735
0.598612
0.585807
0.567871
0.540628
0.506755
0.461701
0.414555
0.377539
0.356843
0.349807
0.313357
0.690345
0.500442
0.370012
0.313228
0.287443
0.284575
0.303831
0.400317
0.574992
0.667754
0.744144
0.836875
0.858344
0.800622
0.665513
0.644807
0.653546
0.642944
0.627506
0.618468
0.613699
0.605405
0.591977
0.575793
0.557418
0.52888
0.495977
0.454218
0.411725
0.377969
0.354909
0.347205
0.315557
0.727375
0.512719
0.38542
0.331039
0.302904
0.297776
0.312343
0.405726
0.608745
0.714067
0.783716
0.896305
0.97382
0.959681
0.744693
0.70859
0.68389
0.657628
0.637532
0.626703
0.614737
0.599092
0.582665
0.568838
0.549052
0.521468
0.484218
0.437172
0.396358
0.367094
0.349613
0.340105
0.305222
0.787347
0.544028
0.413912
0.355672
0.3219
0.313591
0.320784
0.385632
0.615104
0.760219
0.830224
0.976699
1.16293
1.01021
0.794473
0.745737
0.708183
0.676104
0.651619
0.633896
0.61398
0.595529
0.580415
0.568182
0.54039
0.5038
0.454295
0.404038
0.367443
0.343483
0.335621
0.318396
0.268942
0.854826
0.605414
0.456188
0.384878
0.344133
0.33399
0.336603
0.384732
0.58969
0.806015
0.889143
1.10834
1.29088
0.940065
0.828226
0.772478
0.736883
0.701019
0.669226
0.643542
0.617932
0.59712
0.579165
0.550724
0.506922
0.453952
0.397236
0.351653
0.321114
0.300688
0.30058
0.271989
0.218535
0.919345
0.684125
0.523882
0.425912
0.371051
0.354568
0.356247
0.397959
0.58257
0.854217
0.976813
1.25451
1.23876
0.899836
0.840619
0.799512
0.773961
0.730711
0.690397
0.654494
0.620173
0.587521
0.551455
0.49319
0.428371
0.371193
0.3265
0.297332
0.280591
0.262772
0.249921
0.209947
0.19881
0.973527
0.760477
0.594607
0.481967
0.405159
0.376819
0.375512
0.417145
0.59712
0.914144
1.08531
1.31545
1.14891
0.876038
0.844786
0.829524
0.812849
0.762861
0.710949
0.657162
0.599638
0.542982
0.487248
0.434432
0.380313
0.331372
0.294797
0.272892
0.25916
0.242077
0.204558
0.187252
0.218465
1.02009
0.836115
0.656689
0.548696
0.452782
0.403741
0.39827
0.43843
0.62166
0.983584
1.20092
1.3303
1.08291
0.859853
0.844632
0.853408
0.838052
0.790679
0.715466
0.645011
0.581137
0.518745
0.470992
0.417785
0.364276
0.318107
0.285068
0.263837
0.241358
0.207169
0.179792
0.191421
0.280294
1.03858
0.906198
0.717644
0.605931
0.512303
0.43737
0.424078
0.461114
0.659149
1.05491
1.32297
1.34337
1.05458
0.847359
0.843951
0.856266
0.850419
0.803014
0.735525
0.680961
0.61191
0.552515
0.494491
0.443673
0.388778
0.341228
0.308018
0.269302
0.222495
0.180142
0.179951
0.213724
0.393761
1.04138
0.959976
0.77651
0.658804
0.579005
0.484547
0.452853
0.475962
0.671937
1.1257
1.43217
1.37964
1.05912
0.841099
0.834799
0.852023
0.856818
0.812479
0.762909
0.731029
0.706772
0.664217
0.573388
0.467119
0.392328
0.345057
0.298415
0.247454
0.193293
0.173819
0.187624
0.273015
0.493601
1.03588
1.00005
0.831005
0.707467
0.638728
0.555894
0.486012
0.494863
0.616008
1.1159
1.51894
1.4249
1.09033
0.842262
0.826266
0.847158
0.856723
0.802766
0.777226
0.813484
0.893107
0.798935
0.583089
0.442361
0.369982
0.314981
0.266405
0.212832
0.173996
0.176933
0.209495
0.366298
0.569067
1.0243
1.02752
0.87891
0.753261
0.690784
0.630433
0.547093
0.521681
0.581239
0.959147
1.53202
1.47558
1.16066
0.85998
0.826648
0.846213
0.852524
0.795093
0.789569
0.93532
1.05745
0.848761
0.585841
0.433655
0.348084
0.282282
0.231126
0.188928
0.178158
0.191505
0.262425
0.449643
0.618575
1.00652
1.03661
0.915023
0.792197
0.730286
0.688098
0.635342
0.572039
0.606813
0.909285
1.51731
1.53965
1.25517
0.910103
0.840307
0.851808
0.840129
0.794918
0.819936
1.06382
1.11639
0.876759
0.61557
0.451904
0.347637
0.267689
0.217064
0.194281
0.196625
0.224074
0.33294
0.517501
0.645693
0.983234
1.03726
0.940397
0.821382
0.761177
0.727897
0.698332
0.641528
0.657211
0.905042
1.48831
1.59042
1.36452
1.01413
0.862049
0.855241
0.83059
0.799157
0.89396
1.16575
1.13453
0.921693
0.694063
0.52451
0.394557
0.288714
0.231768
0.21851
0.226878
0.268198
0.403616
0.558035
0.655573
0.955024
1.03275
0.955331
0.841542
0.784261
0.757535
0.743384
0.691442
0.678976
0.864893
1.45298
1.60915
1.47478
1.17001
0.896057
0.861164
0.828002
0.812371
1.00183
1.21452
1.12952
0.936679
0.768925
0.634817
0.492104
0.357386
0.279402
0.261763
0.267991
0.323183
0.461428
0.577434
0.661979
0.929354
1.02448
0.960206
0.850472
0.797493
0.777305
0.778719
0.745765
0.683537
0.757037
1.33182
1.60266
1.56723
1.34814
0.959304
0.859592
0.826223
0.842564
1.10519
1.2218
1.12024
0.944013
0.802258
0.73139
0.627002
0.475577
0.351895
0.315162
0.316521
0.377187
0.4982
0.58644
0.657551
0.91533
1.01809
0.96058
0.853236
0.804021
0.787756
0.799613
0.797386
0.709414
0.683532
0.969373
1.56017
1.61807
1.5096
1.0541
0.862563
0.829313
0.891743
1.15924
1.21419
1.11045
0.958581
0.827182
0.773161
0.745986
0.640859
0.474881
0.384206
0.374201
0.423282
0.516233
0.585766
0.635203
0.909995
1.01514
0.956915
0.853006
0.80605
0.792099
0.809385
0.821788
0.765163
0.66633
0.757437
1.45264
1.62149
1.61082
1.16644
0.864357
0.824927
0.926043
1.16178
1.18827
1.09694
0.972484
0.860783
0.805469
0.786163
0.779876
0.652981
0.488864
0.43524
0.463764
0.52074
0.571248
0.604873
0.910227
1.01433
0.948664
0.847719
0.804429
0.794
0.81489
0.835282
0.809839
0.662148
0.648656
1.19636
1.58936
1.64006
1.27488
0.872395
0.816804
0.936144
1.13039
1.14416
1.0607
0.967071
0.889569
0.840633
0.812667
0.815742
0.828633
0.640898
0.512691
0.502487
0.521502
0.551631
0.570937
0.920834
1.01701
0.937982
0.839398
0.801036
0.795153
0.818895
0.843227
0.835039
0.718627
0.630617
0.868085
1.48275
1.62776
1.35645
0.884995
0.798374
0.913494
1.07804
1.07127
0.982522
0.918417
0.896222
0.871228
0.845203
0.831955
0.90143
0.827399
0.635067
0.545023
0.52773
0.529149
0.535484
0.94102
1.02314
0.926168
0.830481
0.797224
0.796498
0.823043
0.849733
0.847961
0.758799
0.643543
0.727131
1.28415
1.58442
1.41283
0.911508
0.774746
0.864894
1.01217
0.976962
0.868781
0.808036
0.848566
0.883548
0.876429
0.845892
0.851708
0.94513
0.814876
0.631617
0.548135
0.5247
0.502205
0.969422
1.02606
0.911902
0.822088
0.793799
0.799538
0.82761
0.854655
0.855206
0.785902
0.659679
0.685963
1.16904
1.52385
1.42921
0.950257
0.749929
0.796823
0.936196
0.902787
0.754244
0.691896
0.727517
0.84137
0.892321
0.869694
0.832309
0.959893
0.953936
0.791825
0.610044
0.528854
0.481518
1.00527
1.024
0.896111
0.815191
0.792724
0.803119
0.832398
0.856827
0.852106
0.796458
0.666578
0.670174
1.11718
1.47742
1.43397
1.03248
0.734767
0.725577
0.852864
0.846988
0.70258
0.64785
0.642608
0.721152
0.871001
0.905636
0.854268
0.907897
0.986911
0.946228
0.742454
0.569961
0.478526
1.04616
1.01381
0.879235
0.810915
0.794169
0.811526
0.839628
0.859465
0.847764
0.788808
0.666198
0.646997
1.07127
1.43879
1.43692
1.1396
0.75269
0.688435
0.767358
0.800895
0.673377
0.624628
0.616628
0.637672
0.788233
0.910046
0.902171
0.881503
0.968552
0.982799
0.907143
0.672564
0.505482
1.07662
0.989661
0.861396
0.809591
0.801002
0.821601
0.848998
0.863904
0.844073
0.777595
0.662119
0.618501
0.99406
1.40135
1.4282
1.23817
0.823836
0.673738
0.699843
0.755969
0.691661
0.645446
0.613774
0.612526
0.671679
0.861866
0.920436
0.880844
0.907315
0.989441
0.97019
0.841094
0.571783
1.09449
0.960867
0.846729
0.810125
0.808094
0.832835
0.859555
0.870622
0.844567
0.767412
0.638614
0.589937
0.836861
1.34042
1.40633
1.2925
0.978177
0.68905
0.675567
0.721735
0.710626
0.746439
0.681646
0.605194
0.64018
0.779667
0.902221
0.908614
0.902925
0.962653
0.986805
0.935671
0.70618
1.0796
0.924823
0.836471
0.812365
0.819657
0.845357
0.87086
0.879092
0.846797
0.761794
0.622393
0.573779
0.682226
1.20819
1.38
1.31453
1.12065
0.789404
0.68528
0.70093
0.713161
0.789488
0.825125
0.647601
0.620471
0.726961
0.828822
0.915566
0.913485
0.922192
0.974214
0.969632
0.832293
1.03947
0.892677
0.830961
0.816913
0.832337
0.860432
0.885055
0.887058
0.848014
0.761761
0.623168
0.563195
0.607735
0.948459
1.3009
1.30939
1.20175
0.926181
0.751285
0.729257
0.738775
0.812174
0.887505
0.780071
0.615134
0.702155
0.762034
0.88267
0.906839
0.913329
0.937925
0.967965
0.90162
0.980639
0.865728
0.828537
0.825123
0.846606
0.875161
0.897243
0.89368
0.847631
0.767125
0.648958
0.550847
0.576225
0.788751
1.16043
1.2992
1.23453
1.08303
0.871146
0.800033
0.800649
0.862715
0.932683
0.884913
0.64497
0.676966
0.740529
0.819328
0.879897
0.89691
0.91404
0.949154
0.93284
0.92547
0.84897
0.828952
0.837048
0.860908
0.888948
0.906563
0.896623
0.845071
0.77494
0.695326
0.549701
0.55932
0.688851
1.06328
1.27466
1.27989
1.19589
1.05806
0.923412
0.912058
0.960118
1.01697
0.973085
0.697595
0.653396
0.728132
0.762242
0.834292
0.869819
0.899293
0.921776
0.938433
0.884495
0.841235
0.834947
0.85135
0.874167
0.898278
0.912095
0.89994
0.844296
0.784463
0.729141
0.565366
0.547216
0.622396
0.982023
1.23599
1.30917
1.28364
1.22457
1.10589
1.07664
1.10643
1.13101
1.07033
0.759123
0.6488
0.712298
0.73013
0.775537
0.825429
0.878237
0.902038
0.933058
0.861603
0.840462
0.847098
0.865301
0.885229
0.903249
0.914358
0.902645
0.845849
0.795428
0.765999
0.598789
0.547314
0.58836
0.870927
1.17948
1.34034
1.36
1.34122
1.27982
1.24912
1.24686
1.23324
1.14948
0.828539
0.65871
0.693317
0.716213
0.739129
0.781305
0.859985
0.882968
0.928987
0.851469
0.847563
0.861054
0.876801
0.891685
0.904813
0.914123
0.903447
0.846708
0.80409
0.786957
0.669547
0.558152
0.577397
0.694692
1.05777
1.3258
1.43098
1.43769
1.4057
1.37499
1.35051
1.30889
1.21496
0.903791
0.682385
0.69335
0.721905
0.728301
0.755989
0.850544
0.880241
0.92444
0.848003
0.860194
0.874359
0.885127
0.894089
0.902971
0.909964
0.901222
0.847525
0.809428
0.800666
0.744636
0.576979
0.572151
0.617511
0.794978
1.16641
1.4027
1.49442
1.49133
1.46934
1.42714
1.36825
1.26913
0.984004
0.720203
0.696647
0.732949
0.729036
0.745478
0.837321
0.89416
0.954783
0.853289
0.87423
0.885241
0.890868
0.893592
0.895599
0.898212
0.887751
0.845471
0.811429
0.805031
0.785005
0.619032
0.574234
0.591334
0.646723
0.819961
1.13574
1.36359
1.46237
1.49995
1.4602
1.39237
1.30108
1.06908
0.772485
0.707293
0.746126
0.739563
0.742724
0.83169
0.899839
0.968224
0.86522
0.885766
0.893075
0.892634
0.887405
0.882582
0.879399
0.864993
0.830762
0.809831
0.803182
0.80052
0.706725
0.583216
0.576271
0.593874
0.644292
0.747763
0.990983
1.18523
1.34099
1.39108
1.35047
1.29693
1.12514
0.823296
0.720327
0.752956
0.7563
0.735259
0.804297
0.903809
0.980492
0.876026
0.895072
0.899771
0.891052
0.875541
0.8657
0.856167
0.838248
0.809641
0.79815
0.797154
0.795763
0.717615
0.604139
0.572355
0.575596
0.590171
0.622904
0.726627
0.938612
1.17329
1.32087
1.32594
1.2974
1.15479
0.850029
0.730864
0.74746
0.781188
0.730834
0.750039
0.88796
0.968483
0.882181
0.901018
0.903537
0.887781
0.861307
0.846512
0.83074
0.80361
0.784196
0.780883
0.786489
0.790754
0.716951
0.602269
0.565685
0.562637
0.568519
0.582834
0.630638
0.81116
1.08503
1.2808
1.31534
1.29434
1.14611
0.839926
0.733369
0.744996
0.804059
0.744487
0.702886
0.804961
0.909808
0.884822
0.904221
0.903795
0.879963
0.844551
0.825472
0.803028
0.774936
0.753824
0.760538
0.772311
0.784719
0.747624
0.591497
0.55445
0.548096
0.551323
0.558881
0.589368
0.743463
1.03792
1.24956
1.28827
1.25172
1.01772
0.770831
0.729001
0.757734
0.818752
0.779318
0.667906
0.675553
0.753896
0.884911
0.906663
0.902773
0.867621
0.826336
0.803479
0.7761
0.747486
0.72594
0.73484
0.751219
0.767909
0.775873
0.644963
0.548923
0.536261
0.538823
0.544286
0.565227
0.674125
0.981046
1.18515
1.20448
1.11063
0.827642
0.73732
0.73417
0.820664
0.853601
0.804536
0.655334
0.61094
0.612124
0.882427
0.906536
0.897135
0.850725
0.807401
0.780281
0.748067
0.720876
0.702408
0.7115
0.72426
0.742409
0.764031
0.723533
0.569064
0.53036
0.528963
0.534914
0.549447
0.615774
0.897822
1.03703
1.02116
0.840195
0.740071
0.730962
0.80655
0.881079
0.860209
0.793588
0.636736
0.564223
0.543565
0.874514
0.900573
0.885674
0.829694
0.786305
0.756056
0.718756
0.691014
0.677058
0.685768
0.694174
0.713239
0.73767
0.73418
0.616705
0.539184
0.525475
0.529863
0.544067
0.590809
0.781752
0.831744
0.78254
0.722426
0.725904
0.813927
0.888617
0.885946
0.840167
0.753875
0.601106
0.532421
0.50794
0.85812
0.88581
0.86603
0.807434
0.761533
0.730493
0.691664
0.663338
0.656778
0.661769
0.669053
0.685562
0.705699
0.722972
0.659678
0.553743
0.529853
0.533586
0.545788
0.587383
0.696814
0.7048
0.681763
0.707253
0.83018
0.901309
0.899922
0.861783
0.801612
0.689731
0.560631
0.50611
0.485146
0.831416
0.860704
0.837876
0.781854
0.737382
0.703786
0.666391
0.641971
0.641401
0.642338
0.648361
0.663731
0.677338
0.698868
0.678721
0.578792
0.541547
0.541506
0.554492
0.598337
0.64191
0.649968
0.688221
0.834667
0.907503
0.913213
0.866919
0.802966
0.721657
0.599029
0.519916
0.485052
0.469095
0.795667
0.824619
0.802446
0.755479
0.714195
0.679665
0.644551
0.626734
0.627467
0.625045
0.632717
0.649887
0.655162
0.675589
0.674906
0.600574
0.549996
0.547325
0.563771
0.601262
0.613645
0.64669
0.791042
0.895198
0.914833
0.860595
0.776328
0.689364
0.60315
0.535802
0.49469
0.473385
0.45891
0.755919
0.779018
0.761838
0.726256
0.690751
0.657752
0.626088
0.613334
0.613761
0.612196
0.620722
0.643237
0.638928
0.656694
0.659201
0.591681
0.548233
0.553567
0.570598
0.591893
0.605103
0.714134
0.859331
0.899836
0.842706
0.766899
0.716538
0.652776
0.566184
0.51526
0.488056
0.471016
0.456692
0.716371
0.729927
0.719847
0.695024
0.665458
0.636205
0.609058
0.600456
0.600179
0.602146
0.610894
0.634261
0.628206
0.640718
0.641801
0.578344
0.543194
0.554089
0.570108
0.573035
0.610405
0.796797
0.86606
0.815452
0.736266
0.692271
0.699359
0.68775
0.600015
0.527016
0.497932
0.481463
0.469222
0.678722
0.684149
0.679283
0.663035
0.6389
0.613858
0.591987
0.587694
0.587342
0.592173
0.601441
0.622378
0.618296
0.62588
0.620972
0.556666
0.538028
0.552566
0.564718
0.565555
0.701529
0.817325
0.778791
0.682554
0.626526
0.615263
0.658568
0.705699
0.697563
0.615222
0.557
0.533485
0.522703
0.643665
0.643832
0.64385
0.63347
0.613363
0.590014
0.575743
0.57598
0.577027
0.583887
0.595641
0.616212
0.610563
0.610719
0.589471
0.536157
0.53374
0.547586
0.550911
0.571081
0.747144
0.757956
0.644444
0.593097
0.573864
0.568525
0.570123
0.615372
0.736194
0.738619
0.693743
0.65051
0.624668
0.611061
0.610253
0.614548
0.608335
0.590106
0.57054
0.563969
0.565189
0.569936
0.579788
0.595194
0.613046
0.604514
0.58929
0.552634
0.523769
0.528242
0.536941
0.54701
0.619779
0.732938
0.667497
0.600422
0.595349
0.617368
0.622367
0.584077
0.547456
0.596386
0.759398
0.790842
0.766511
0.730965
0.58231
0.582647
0.591438
0.588046
0.572259
0.556863
0.554902
0.557156
0.564744
0.57725
0.595589
0.611563
0.594708
0.562472
0.530716
0.513109
0.518096
0.525396
0.546683
0.658066
0.693465
0.652916
0.643102
0.687337
0.716651
0.751586
0.734133
0.632864
0.536845
0.562546
0.739857
0.818852
0.811886
0.557198
0.560393
0.57271
0.572362
0.558991
0.546973
0.549031
0.551824
0.562013
0.576781
0.597289
0.614115
0.597615
0.538339
0.523159
0.504186
0.50684
0.515036
0.553725
0.662477
0.677711
0.665811
0.689286
0.671458
0.704446
0.763321
0.784631
0.764855
0.665273
0.519708
0.515676
0.647542
0.783001
0.536197
0.541931
0.557161
0.558884
0.547446
0.539903
0.54524
0.549682
0.562011
0.578649
0.600601
0.620474
0.607984
0.52624
0.51364
0.495589
0.498057
0.507674
0.570946
0.661474
0.671005
0.661523
0.611312
0.547997
0.596435
0.724771
0.786389
0.787582
0.753479
0.633513
0.504699
0.483293
0.511873
0.518693
0.526378
0.542412
0.545958
0.537321
0.533541
0.541146
0.548898
0.563556
0.58288
0.60484
0.624743
0.625111
0.5219
0.505318
0.488218
0.490494
0.499967
0.571349
0.652528
0.660891
0.620947
0.509035
0.503398
0.551914
0.695313
0.776787
0.785332
0.763859
0.673545
0.540843
0.479362
0.463464
0.504274
0.512754
0.528662
0.532892
0.52574
0.525039
0.534827
0.54638
0.563142
0.587661
0.610783
0.629118
0.638617
0.522141
0.500497
0.483819
0.485273
0.493744
0.565071
0.645156
0.650939
0.579138
0.497656
0.49688
0.546452
0.689371
0.775008
0.781989
0.75867
0.67373
0.539858
0.474805
0.447888
0.492313
0.50092
0.516173
0.518807
0.513265
0.516256
0.527994
0.542194
0.561829
0.592841
0.618276
0.63533
0.6523
0.534798
0.497467
0.48255
0.48131
0.487485
0.55616
0.638153
0.639597
0.577558
0.506447
0.506839
0.579808
0.728108
0.790227
0.783505
0.752766
0.660771
0.527483
0.462723
0.436416
0.482104
0.490723
0.502629
0.503904
0.499983
0.508034
0.521387
0.537064
0.560177
0.598449
0.626348
0.651812
0.672344
0.577499
0.497889
0.484764
0.482782
0.488678
0.538405
0.626969
0.622994
0.540116
0.510204
0.53782
0.67996
0.788657
0.80026
0.775466
0.734751
0.639863
0.511521
0.44859
0.425224
0.473301
0.481251
0.490817
0.490481
0.489159
0.501583
0.516453
0.534221
0.560113
0.603975
0.637325
0.665418
0.682293
0.607613
0.503257
0.489644
0.488806
0.493307
0.528474
0.600219
0.58028
0.515017
0.521574
0.642762
0.773172
0.809615
0.790943
0.756606
0.711067
0.61067
0.493709
0.434487
0.411323
0.46577
0.47313
0.48089
0.48106
0.482908
0.497292
0.511667
0.530998
0.559185
0.609574
0.647821
0.677232
0.686521
0.615881
0.510636
0.499428
0.50076
0.508365
0.533648
0.557593
0.529391
0.525598
0.614843
0.774543
0.82156
0.811095
0.773252
0.734713
0.680015
0.572655
0.475261
0.419244
0.391102
0.458964
0.465778
0.472607
0.475232
0.479776
0.495147
0.509326
0.528785
0.55751
0.61076
0.657062
0.688232
0.688211
0.618895
0.520643
0.51424
0.520606
0.528042
0.531269
0.533543
0.529157
0.591698
0.780795
0.833395
0.831763
0.797339
0.752131
0.708077
0.642182
0.530346
0.448808
0.400417
0.369984
0.452626
0.458606
0.465303
0.471117
0.47851
0.494549
0.509411
0.528844
0.558098
0.610853
0.664972
0.694983
0.669629
0.596924
0.524628
0.527173
0.537175
0.533174
0.531643
0.54326
0.594526
0.788293
0.846033
0.841495
0.819613
0.775559
0.729636
0.684354
0.611051
0.497271
0.41888
0.375739
0.349366
0.446561
0.451141
0.45817
0.467804
0.479621
0.496057
0.511468
0.530425
0.558853
0.609798
0.671217
0.699684
0.646812
0.550928
0.515336
0.528252
0.540443
0.543308
0.546368
0.601842
0.80104
0.859214
0.844215
0.824441
0.799743
0.758069
0.716819
0.669037
0.584721
0.468021
0.396055
0.357038
0.332745
0.44014
0.442845
0.450146
0.464012
0.481607
0.49901
0.516889
0.534773
0.562378
0.608042
0.673924
0.707605
0.64273
0.526564
0.512396
0.532068
0.550307
0.562414
0.608622
0.7909
0.863532
0.85135
0.812081
0.799331
0.782563
0.745799
0.706528
0.653606
0.552938
0.443646
0.383605
0.350208
0.325329
0.432817
0.433362
0.440331
0.458138
0.482761
0.502758
0.522498
0.540633
0.568243
0.608841
0.674745
0.717017
0.650302
0.524383
0.518707
0.541442
0.569938
0.639545
0.779004
0.853041
0.845062
0.814622
0.784092
0.781633
0.77032
0.736931
0.701024
0.64591
0.536203
0.432664
0.377253
0.346978
0.322817
0.424614
0.42332
0.429126
0.450566
0.481388
0.504374
0.524579
0.543972
0.572418
0.609895
0.669934
0.725283
0.668512
0.531225
0.532023
0.567937
0.649485
0.764291
0.829295
0.836997
0.811156
0.790528
0.764822
0.771641
0.765558
0.73851
0.70489
0.646985
0.531411
0.430512
0.381814
0.357856
0.334672
0.753176
0.770253
0.590513
0.545068
0.647801
0.695234
0.733219
0.788573
0.765146
0.784351
0.612874
0.558737
0.6406
0.679184
0.730624
0.801183
0.768521
0.761417
0.590994
0.533436
0.614208
0.673506
0.724669
0.779864
0.754656
0.734715
0.573073
0.500376
0.562303
0.6378
0.680106
0.719735
0.726488
0.705616
0.5559
0.47446
0.503954
0.587794
0.619671
0.630902
0.684976
0.674426
0.548299
0.464556
0.450571
0.514728
0.548035
0.531782
0.638879
0.63466
0.539279
0.478128
0.437354
0.443432
0.473292
0.462386
0.589721
0.588616
0.528416
0.495038
0.452464
0.42784
0.43922
0.44778
0.540978
0.545836
0.515607
0.50241
0.4912
0.451372
0.456815
0.457044
0.495441
0.507447
0.507786
0.511689
0.521093
0.511178
0.498769
0.490528
0.461061
0.472509
0.50008
0.526942
0.556093
0.561431
0.558144
0.532379
0.442303
0.452773
0.502837
0.546139
0.586475
0.606912
0.607245
0.590491
0.437661
0.449297
0.510412
0.563349
0.608913
0.638033
0.650097
0.638596
0.443672
0.45522
0.509622
0.574785
0.624528
0.656799
0.67759
0.674558
0.451621
0.465206
0.506906
0.577401
0.631934
0.67079
0.694896
0.699067
0.458705
0.473032
0.503217