/*--------------------------------*- C++ -*----------------------------------*\
  =========                 |
  \\      /  F ield         | OpenFOAM: The Open Source CFD Toolbox
   \\    /   O peration     | Website:  https://openfoam.org
    \\  /    A nd           | Version:  10
     \\/     M anipulation  |
\*---------------------------------------------------------------------------*/
FoamFile
{
    format      ascii;
    class       volScalarField;
    location    "0.150109";
    object      T;
}
// * * * * * * * * * * * * * * * * * * * * * * * * * * * * * * * * * * * * * //

dimensions      [0 0 0 1 0 0 0];

internalField   nonuniform List<scalar> 
16320
(
0.00320308
0.00316932
0.00314773
0.00311564
0.00308848
0.00306746
0.00304271
0.00302587
0.00301284
0.00301144
0.00302556
0.00304326
0.00306165
0.00308146
0.00311623
0.00318297
0.00330781
0.00348749
0.00354276
0.00339853
0.00314059
0.00300835
0.00288304
0.00279186
0.00277649
0.0027894
0.00286028
0.00301988
0.00330417
0.00347717
0.0035719
0.00365293
0.00415189
0.0032151
0.00315874
0.00313564
0.0031154
0.00309095
0.00306432
0.00304192
0.00301897
0.00300708
0.0030072
0.00300798
0.00301087
0.00301265
0.0030194
0.00303502
0.00306322
0.00306152
0.00305831
0.00303642
0.00294697
0.00287341
0.00284365
0.00278536
0.00274391
0.00274744
0.00279336
0.00292457
0.00310892
0.00336445
0.00349075
0.00354912
0.00365306
0.00422256
0.00320069
0.00317889
0.00313626
0.00311052
0.00309654
0.00308197
0.00306602
0.00304109
0.00301657
0.00299566
0.00297052
0.00295445
0.00294253
0.00289452
0.00282312
0.00273333
0.00268224
0.00271378
0.00275943
0.00275246
0.00276241
0.00275919
0.00273735
0.0027192
0.00273363
0.0028152
0.00299367
0.0031942
0.00341949
0.00349928
0.00353259
0.00366287
0.0042851
0.00314838
0.00317056
0.00316049
0.0031464
0.00312042
0.00307415
0.00305217
0.00302751
0.00299566
0.00296944
0.0029358
0.00286427
0.0027918
0.00267087
0.00260996
0.00251758
0.0025304
0.00258145
0.00260767
0.00265086
0.00268554
0.00269925
0.0026948
0.00269804
0.00273437
0.00285847
0.00305941
0.00326086
0.00344924
0.00348333
0.00349822
0.00366642
0.00432828
0.00298099
0.00314126
0.00316357
0.00314544
0.00311018
0.00308361
0.00306798
0.0030498
0.00302
0.00296479
0.00285264
0.00273606
0.00262134
0.00253952
0.00244743
0.00242031
0.00244975
0.00250629
0.00253369
0.00258588
0.00261834
0.00263224
0.00264596
0.00267844
0.00276788
0.00295018
0.003138
0.00332288
0.00346031
0.00345794
0.00346055
0.00368162
0.00436473
0.00294856
0.00312211
0.00315892
0.00314924
0.00312871
0.00315483
0.00314231
0.00309086
0.00302926
0.00290859
0.00275757
0.00262275
0.00252187
0.00245531
0.0023787
0.00238707
0.00242864
0.00246029
0.00250897
0.00254731
0.00256418
0.00257912
0.00261075
0.00269
0.00285097
0.00305168
0.00321557
0.00336811
0.00345392
0.00342097
0.00342263
0.00371088
0.00439963
0.00299441
0.00313717
0.0031817
0.00320418
0.00321557
0.00320275
0.00315454
0.00308234
0.0029982
0.0028272
0.00265938
0.00250824
0.0024489
0.00237129
0.00234669
0.00237304
0.00240863
0.00245331
0.00249195
0.00250363
0.00251444
0.0025418
0.00261153
0.00276282
0.0029694
0.00315612
0.00328189
0.00339462
0.00343864
0.00337399
0.00338432
0.00375007
0.00441969
0.00313334
0.00322263
0.00325429
0.00325964
0.00323889
0.00319538
0.00313569
0.00301645
0.00287247
0.00267926
0.00251078
0.00240825
0.00235148
0.0023147
0.00233014
0.00238835
0.00240202
0.00246141
0.00248161
0.00248153
0.00249138
0.00254368
0.0026847
0.00290629
0.00310555
0.00324914
0.00332847
0.00340571
0.00341408
0.00332727
0.00335031
0.00378218
0.00442416
0.00325976
0.00326615
0.00326588
0.00325199
0.00320831
0.00309813
0.00295256
0.00272561
0.00256964
0.0024427
0.00232896
0.00228568
0.00227033
0.00228272
0.00234068
0.00240114
0.00246895
0.00247872
0.00247145
0.0024726
0.0025019
0.00261841
0.00285169
0.00306152
0.00321189
0.00330477
0.00335681
0.00340247
0.00338712
0.00327581
0.0033181
0.00380132
0.00441859
0.00324829
0.00321303
0.00313933
0.00299051
0.00285022
0.00263641
0.00251667
0.00242077
0.00236145
0.0023204
0.00226655
0.00225712
0.00226745
0.00230338
0.00239111
0.00245347
0.0025097
0.00249887
0.0024715
0.00248962
0.00257949
0.00280392
0.00303308
0.00319277
0.00328732
0.00333677
0.00336736
0.00338687
0.00335516
0.0032256
0.00329248
0.00381562
0.00439381
0.00300664
0.00280489
0.00270842
0.00264804
0.00258615
0.00253172
0.00248471
0.00242423
0.00237091
0.00233685
0.00228829
0.00228108
0.00229498
0.00235502
0.00246153
0.00253005
0.00254124
0.00250686
0.00248857
0.00253908
0.00274314
0.00300937
0.00318353
0.00327964
0.00332814
0.00335363
0.00336857
0.00336938
0.00332139
0.00318116
0.0032782
0.00383252
0.00433603
0.00277902
0.00275501
0.0028727
0.00287814
0.0028518
0.00279518
0.00270378
0.00260727
0.00250829
0.00244766
0.00237907
0.00235587
0.00237174
0.00244315
0.00255788
0.00259652
0.00258146
0.00251652
0.00252174
0.00264091
0.00294262
0.00316498
0.0032745
0.00332344
0.0033462
0.00335873
0.00336332
0.00335338
0.00328868
0.00315463
0.00326321
0.00380652
0.00423051
0.00289886
0.0031899
0.00338701
0.00345436
0.00343758
0.00339476
0.00329837
0.00317763
0.00301987
0.00286217
0.00266545
0.00255989
0.00253903
0.00258525
0.00268171
0.00265825
0.00261996
0.00253053
0.00257167
0.00279958
0.00310869
0.00326106
0.00331909
0.00334069
0.00335427
0.00335606
0.0033533
0.00333756
0.00326384
0.0031461
0.00324474
0.0037429
0.00408184
0.00327363
0.00356011
0.00366455
0.00369823
0.00369529
0.00367746
0.00363786
0.00357161
0.00348331
0.00341132
0.00324502
0.00303188
0.00285093
0.00284471
0.00282014
0.00272183
0.00262948
0.00255785
0.00264089
0.00295773
0.00321967
0.00330892
0.00333279
0.00334413
0.00335271
0.00335012
0.00334896
0.0033389
0.00325729
0.00315274
0.00321388
0.00357665
0.00393278
0.00376385
0.00375886
0.00377294
0.0037859
0.00377344
0.0037459
0.0037202
0.00369185
0.00366356
0.00365202
0.00360862
0.00348037
0.00324455
0.00309826
0.00296294
0.002772
0.00262326
0.00260192
0.00272213
0.00308334
0.00328168
0.00332074
0.00332966
0.00333975
0.00334439
0.00333864
0.0033444
0.00335774
0.00327355
0.00316773
0.00313965
0.00334138
0.00378225
0.00389813
0.00384337
0.00380658
0.0037706
0.00373468
0.00370807
0.00369318
0.00368097
0.00368171
0.0037009
0.00372289
0.00368986
0.00352984
0.00327513
0.0030407
0.00277658
0.00261249
0.00262749
0.00279663
0.00316965
0.00330188
0.00331303
0.00331415
0.00332004
0.00332365
0.00332275
0.00336346
0.00340353
0.00331176
0.00317298
0.00304457
0.00312973
0.00357777
0.00393868
0.00382301
0.0037834
0.00376553
0.00374876
0.00372808
0.00370127
0.00366829
0.00365273
0.00366412
0.00369018
0.0036751
0.00355358
0.00329269
0.00302731
0.00276092
0.00259798
0.00262661
0.00285788
0.00320598
0.00329342
0.00328446
0.00327847
0.0032834
0.0032933
0.00332586
0.00340417
0.00347386
0.00334101
0.00312152
0.00297897
0.00303289
0.00338021
0.00389183
0.00380285
0.00375168
0.00372902
0.00371373
0.00369585
0.00368106
0.00366077
0.00364737
0.0036337
0.00353598
0.0034775
0.00333649
0.00317791
0.00293991
0.00271335
0.00256396
0.0026084
0.00289716
0.00320469
0.00325878
0.00323608
0.00322978
0.00323866
0.00328173
0.003349
0.00347324
0.00353222
0.00330914
0.00305409
0.00295804
0.00300957
0.00330407
0.00384354
0.00370318
0.0036236
0.00359823
0.00359934
0.00359102
0.00358839
0.00359047
0.00359144
0.00358303
0.00347854
0.00319501
0.00297391
0.00289214
0.00275505
0.0026129
0.00249666
0.00257405
0.00292518
0.00317929
0.00319062
0.00317525
0.00317217
0.00320753
0.0032854
0.00339919
0.00355684
0.00355379
0.00320573
0.00302851
0.00296922
0.00306185
0.00333376
0.00376087
0.00360023
0.00350265
0.00345489
0.00344711
0.00343395
0.00344485
0.003471
0.00349991
0.00351013
0.00343746
0.00308177
0.00279851
0.00268001
0.00261628
0.00249946
0.00241555
0.00257361
0.00293773
0.00311434
0.00311379
0.00310779
0.00312881
0.00319625
0.0033147
0.00347916
0.00360355
0.00345621
0.00313189
0.00302627
0.00302118
0.00321859
0.00353188
0.00370862
0.00354748
0.00344294
0.00338225
0.00335045
0.00330584
0.00331374
0.00333123
0.00336873
0.00341398
0.00336785
0.00302609
0.00271405
0.00256221
0.00246952
0.00240276
0.00238005
0.00259454
0.00292924
0.00303328
0.00304439
0.00304962
0.00309086
0.00320825
0.00338856
0.0035749
0.00357295
0.00333048
0.0030914
0.00304882
0.00315727
0.00344921
0.00366721
0.00368879
0.00353089
0.00342548
0.00335782
0.00330837
0.00324076
0.00322715
0.00319279
0.00322292
0.00329433
0.003247
0.00289135
0.00259365
0.00242798
0.00234996
0.00231947
0.00238487
0.00265386
0.00290553
0.00296631
0.00298169
0.00299621
0.00309608
0.00327342
0.00351228
0.00357803
0.00349129
0.00321298
0.00308244
0.00308489
0.00325493
0.00352951
0.00367921
0.00368531
0.00354271
0.00343972
0.00335665
0.00329756
0.00320993
0.00318026
0.00308109
0.00309681
0.00315855
0.00309986
0.00271296
0.00241555
0.00227605
0.00226308
0.00229804
0.00241286
0.0027279
0.00287268
0.0029031
0.00291823
0.00297889
0.00313858
0.00340935
0.00355003
0.00354743
0.00339548
0.00316657
0.00309346
0.00311081
0.00327603
0.00352053
0.00358396
0.00371812
0.00359641
0.00349245
0.0033978
0.00330318
0.00319476
0.00313418
0.00294228
0.00292997
0.00299658
0.00295549
0.00251253
0.00221714
0.00215394
0.00220045
0.00230974
0.00252007
0.00277142
0.00283179
0.00286056
0.00288709
0.00301636
0.00326193
0.00350046
0.00354622
0.00349051
0.00334074
0.00316197
0.00311146
0.00311878
0.00321674
0.00341623
0.00346491
0.00377186
0.00367697
0.00356982
0.00344021
0.00330951
0.00317384
0.00305591
0.00277953
0.00274783
0.0028469
0.00280865
0.00228779
0.00207398
0.00207457
0.00219992
0.00236172
0.00265601
0.00277481
0.00279962
0.002839
0.00291437
0.00312155
0.00341182
0.00351446
0.00352639
0.00346028
0.00334417
0.00319776
0.00314152
0.00313144
0.00314917
0.00333767
0.00343812
0.00385278
0.00378206
0.00365181
0.00347998
0.00329724
0.00311146
0.00294542
0.00269078
0.002608
0.00272094
0.00263382
0.00212769
0.00197195
0.00204496
0.00221923
0.00251371
0.00272366
0.00277778
0.00280664
0.00286228
0.00299584
0.00331024
0.00347455
0.00351196
0.0035053
0.00345914
0.00337774
0.00326889
0.00320974
0.00318354
0.00317712
0.0033132
0.00344845
0.00394782
0.00389871
0.00374526
0.00349128
0.00324156
0.00305282
0.00289724
0.00264322
0.00248937
0.00260673
0.00246426
0.00201613
0.00192163
0.00205109
0.00230007
0.00264888
0.0027611
0.00279216
0.00283519
0.00293079
0.00317334
0.00343533
0.00348478
0.00350312
0.00349941
0.00347246
0.00339855
0.00331567
0.00330495
0.0033114
0.0033635
0.00344026
0.00351955
0.00404975
0.00401649
0.0037899
0.00345281
0.00319992
0.00303071
0.00288594
0.00261468
0.00235692
0.00248092
0.00231212
0.00193493
0.00189159
0.00207227
0.00243311
0.00272894
0.00280171
0.00283087
0.00290864
0.00307771
0.0033737
0.00347017
0.00348472
0.00349961
0.00349839
0.00347347
0.00340734
0.00340156
0.00344664
0.00353525
0.00367463
0.00376698
0.00377876
0.00415481
0.00409918
0.00379261
0.00341253
0.00318564
0.00306405
0.00293828
0.00258638
0.00222089
0.00233908
0.00217166
0.00188901
0.00187529
0.00209649
0.00253059
0.00279019
0.00285101
0.0029127
0.0030452
0.00331523
0.00346694
0.00349033
0.00348677
0.00348826
0.00348284
0.00346253
0.00341432
0.0034546
0.00350714
0.00362358
0.00372718
0.0038607
0.003929
0.00421968
0.00413904
0.00374636
0.00339223
0.00323076
0.00311551
0.00297114
0.00254526
0.00211461
0.00221609
0.00206303
0.00185503
0.00185914
0.00209921
0.00258661
0.00285461
0.00294683
0.00307055
0.00328693
0.00346833
0.0035073
0.00349656
0.00347716
0.00346765
0.00345454
0.00344352
0.00342617
0.00349286
0.00355642
0.00364627
0.00372406
0.00382331
0.00397433
0.00424901
0.00411513
0.00368838
0.00339505
0.00325324
0.00315653
0.00297952
0.00248829
0.00204722
0.00210714
0.00197387
0.00181728
0.00184177
0.00207938
0.00263392
0.00296864
0.00311998
0.00332323
0.00349523
0.00353388
0.00352383
0.00348621
0.00345013
0.00343518
0.00342906
0.00342598
0.00347166
0.00354942
0.0036403
0.00368606
0.00371849
0.00379201
0.00420797
0.00425721
0.00403397
0.00362462
0.00339929
0.00330954
0.00320489
0.00302059
0.00240965
0.00196516
0.00197972
0.00188214
0.00177426
0.00180535
0.00208402
0.00273424
0.00316994
0.00340883
0.00356602
0.00359049
0.00357551
0.00353022
0.00346962
0.00343506
0.0034252
0.00343138
0.00345856
0.00354107
0.00359849
0.00364659
0.00366834
0.00367788
0.00373479
0.0042509
0.00419059
0.00390399
0.0035579
0.00339769
0.00334893
0.00327915
0.00306476
0.00237553
0.00186607
0.00183075
0.00180643
0.00173801
0.00178769
0.00213306
0.00293627
0.00350799
0.00366934
0.00367997
0.00364813
0.0035929
0.00352479
0.00346657
0.00344275
0.00343629
0.00344846
0.00350533
0.00355023
0.00357469
0.00357949
0.00358815
0.00361748
0.0036604
0.00419011
0.00405653
0.00376361
0.003492
0.0034022
0.00342373
0.00336163
0.00312962
0.00237759
0.00181138
0.00173617
0.00173399
0.0016949
0.0018083
0.00228496
0.00334202
0.0037919
0.00380766
0.00374203
0.00366922
0.00359237
0.00352094
0.00348178
0.00346923
0.00346641
0.00346403
0.00349672
0.00348697
0.00344094
0.00339582
0.00341319
0.00351096
0.003624
0.00414917
0.00383669
0.00361177
0.00344454
0.00339844
0.00347333
0.00345601
0.00328796
0.0025282
0.00179778
0.00167189
0.00167303
0.00166274
0.00189223
0.0026452
0.00374954
0.00396755
0.00388486
0.00377049
0.00367683
0.00358795
0.00353763
0.0035167
0.00350283
0.00346423
0.00344381
0.00342686
0.00337976
0.00333042
0.0032974
0.00333959
0.00344697
0.00364564
0.00430097
0.00353059
0.00340884
0.00334922
0.00336094
0.00348873
0.00352077
0.00343282
0.00287171
0.00186577
0.00162251
0.00163561
0.00168735
0.00210209
0.00317867
0.00402505
0.00407487
0.0039158
0.00377513
0.00367621
0.00360087
0.00356699
0.0035379
0.00349008
0.00341206
0.00339949
0.00337724
0.00335145
0.00332728
0.00332502
0.00340412
0.00350795
0.00388157
0.00489512
0.00328788
0.00317764
0.0032169
0.00331438
0.00349418
0.00353779
0.00350676
0.00308669
0.00203727
0.00159454
0.00162892
0.00177726
0.00241587
0.00367891
0.00413909
0.00412441
0.00392599
0.00377348
0.00368411
0.00362058
0.00358639
0.00353816
0.00346641
0.00344068
0.00347418
0.00350255
0.00352281
0.00353091
0.0035913
0.00375658
0.00387103
0.00455918
0.00597199
0.00317287
0.00302282
0.00301191
0.00321066
0.00346218
0.00355187
0.00352743
0.00317272
0.00216793
0.00159514
0.0016554
0.0019579
0.00272657
0.0038952
0.00416776
0.00413711
0.00392329
0.00379659
0.00372028
0.00367149
0.00364686
0.00362461
0.0036133
0.00372887
0.00388702
0.00396606
0.00395846
0.00392226
0.00394883
0.00421348
0.00462942
0.00587505
0.00653086
0.0031404
0.0029694
0.00289382
0.00305031
0.00339125
0.00355221
0.00355209
0.00320991
0.00224879
0.00161682
0.00170542
0.00212487
0.00295432
0.00399671
0.00417256
0.00412711
0.00395398
0.00388429
0.0038564
0.00386447
0.00392102
0.00399272
0.00407574
0.00411326
0.00413094
0.00411831
0.00407315
0.00404685
0.00413065
0.00450858
0.0056234
0.00649852
0.00591374
0.00313305
0.00295759
0.00286394
0.00290112
0.00324814
0.00353251
0.00356847
0.00326793
0.00232882
0.0016746
0.00175907
0.00222367
0.00309914
0.00404432
0.00418113
0.00412643
0.00407096
0.00408835
0.00424416
0.00435201
0.00437264
0.00436445
0.00423223
0.00411658
0.00401972
0.00394363
0.00391157
0.00397563
0.00429762
0.00519871
0.00628402
0.00632264
0.00456872
0.00317934
0.00298234
0.00285571
0.00283404
0.00307989
0.00349325
0.00359479
0.00337375
0.00241142
0.0017717
0.00180514
0.00225806
0.0031353
0.00403966
0.00417847
0.00417498
0.00420546
0.00438028
0.00464944
0.00474364
0.00471877
0.00441915
0.00405333
0.00367189
0.00341573
0.00331875
0.00334875
0.00369964
0.00452779
0.00582439
0.00621862
0.00559759
0.00333309
0.00322443
0.00303837
0.00285954
0.00280748
0.00292196
0.00339145
0.00361477
0.00356755
0.00261877
0.0018633
0.00184659
0.00223734
0.00308189
0.00399162
0.00417011
0.00421207
0.00428961
0.00458647
0.00490791
0.00500322
0.00471698
0.00403652
0.00338394
0.00303697
0.00292041
0.00293076
0.00320932
0.00383135
0.00506586
0.00590637
0.00592046
0.00433034
0.002785
0.00325555
0.00309436
0.00287888
0.00279603
0.00281866
0.00315334
0.00360741
0.0036913
0.00312768
0.00199448
0.00185278
0.00217784
0.00295114
0.00391557
0.00415386
0.00422467
0.00434601
0.00479154
0.00505852
0.00494258
0.00420307
0.00345407
0.00300793
0.00281419
0.00276748
0.00296972
0.00341094
0.0043124
0.00544964
0.00573677
0.00521668
0.00329166
0.00253849
0.0032871
0.0031464
0.00290904
0.00279067
0.00276164
0.00293017
0.00343333
0.00371995
0.00353209
0.00233828
0.00185714
0.00208634
0.00273791
0.00379395
0.00413332
0.0042448
0.00441568
0.00490455
0.00509403
0.00449066
0.00370772
0.00323032
0.00288592
0.00274907
0.00281814
0.00319962
0.0038291
0.00475949
0.00524537
0.00526116
0.00410557
0.00278024
0.00241692
0.00332082
0.00318783
0.00295001
0.00279497
0.00274897
0.00282216
0.0031271
0.00356552
0.00358527
0.0025811
0.00187524
0.00197285
0.00249933
0.00358913
0.00410418
0.00427774
0.00453751
0.0049301
0.00490564
0.00396803
0.00349568
0.00314621
0.00285655
0.00274767
0.00288291
0.00339822
0.00408669
0.00459586
0.00474937
0.00447963
0.00325623
0.00251785
0.00235811
0.00335418
0.00321058
0.00299136
0.00281519
0.00275221
0.00278125
0.00297462
0.0033814
0.00351183
0.00272932
0.00191642
0.00188905
0.00228306
0.00325405
0.00406456
0.00432629
0.00461133
0.00490019
0.00447333
0.00355992
0.00336492
0.00310849
0.00285866
0.00277185
0.00285656
0.00334594
0.00391717
0.00411691
0.00412413
0.00371135
0.00275041
0.00238054
0.00231893
0.00338851
0.0032309
0.0030215
0.00283558
0.00276475
0.00276707
0.0029052
0.00330584
0.00355062
0.00298645
0.00196835
0.00185856
0.00211137
0.00287325
0.00398094
0.00433615
0.00461396
0.00477997
0.00394725
0.00331712
0.00328021
0.00312383
0.00289473
0.00279146
0.00283812
0.00309059
0.00345338
0.00354736
0.0035216
0.0030858
0.00247068
0.00229729
0.0022806
0.00340922
0.00324978
0.00304112
0.00284947
0.00277295
0.00276475
0.00286629
0.00319391
0.00364731
0.0035508
0.00214331
0.00186216
0.00198852
0.00252963
0.0037865
0.00435089
0.00459245
0.00455342
0.00352862
0.00321808
0.00323324
0.00313123
0.00298455
0.00281617
0.0028042
0.00291771
0.00311475
0.00313921
0.00305829
0.00265743
0.00231058
0.00224047
0.00224782
0.00341937
0.00325818
0.00304987
0.00285753
0.00277803
0.00276744
0.00284357
0.00304519
0.00364355
0.00399463
0.00286822
0.00190151
0.00192897
0.00227783
0.00347225
0.00429841
0.00452067
0.00423034
0.00330773
0.00317284
0.00321418
0.00311817
0.00303312
0.00289363
0.00277258
0.00283104
0.00288108
0.0028697
0.00273096
0.0024028
0.0022149
0.00218911
0.00222948
0.00342549
0.00326232
0.00305273
0.00286028
0.00278088
0.00277105
0.00283586
0.00298119
0.00342176
0.00410026
0.00373768
0.00203329
0.00192326
0.00212857
0.00311828
0.00420978
0.00443746
0.00397187
0.00321435
0.003162
0.00320956
0.00311269
0.00303782
0.00295256
0.0028664
0.00276488
0.00281716
0.00272972
0.00254101
0.00227159
0.00215507
0.00214246
0.00220821
0.00342853
0.00326385
0.00304392
0.00285518
0.0027805
0.00277291
0.0028338
0.00294738
0.00324595
0.00414139
0.00441783
0.00244346
0.00195433
0.00207087
0.00280826
0.00405972
0.00433291
0.00379533
0.0031839
0.00316937
0.00324783
0.00314354
0.00303922
0.00296858
0.0029306
0.00284259
0.00272992
0.00274447
0.00250345
0.00224111
0.00212714
0.00210672
0.0021922
0.00342802
0.00326145
0.00302864
0.00284534
0.00277411
0.00277445
0.002835
0.00293285
0.00314861
0.00386017
0.00456298
0.00335072
0.00208522
0.00204489
0.00255838
0.00386331
0.0042535
0.00371937
0.00318195
0.00323133
0.00338681
0.00330486
0.00308386
0.00297793
0.00294173
0.00292287
0.00268843
0.00273526
0.00256454
0.0022769
0.00213828
0.00210923
0.00219235
0.00342553
0.00325106
0.00300591
0.00283406
0.00276835
0.00277811
0.00283947
0.00292953
0.00311557
0.00366471
0.0044568
0.0040285
0.00237337
0.00204608
0.00234842
0.00359486
0.00417203
0.00371655
0.00320327
0.00335032
0.00367044
0.00370461
0.00328074
0.00300959
0.00293507
0.0029622
0.00289927
0.0026594
0.002668
0.00238099
0.00218584
0.00212831
0.00220697
0.00342676
0.00324286
0.00298182
0.00282171
0.00276342
0.00278218
0.00284797
0.00293587
0.00310773
0.00355046
0.0043387
0.00428821
0.00257498
0.00206089
0.00221698
0.00327837
0.00409808
0.00377976
0.00324825
0.00340442
0.00398345
0.00415557
0.00382312
0.0031922
0.00294815
0.00295941
0.00302845
0.00262529
0.00265064
0.00257195
0.00228796
0.00217726
0.00224532
0.00342628
0.0032219
0.00295683
0.00281149
0.00276104
0.00279444
0.00286266
0.00295575
0.00313686
0.00351203
0.00429867
0.00439699
0.00267136
0.00206566
0.00211219
0.00287493
0.00396682
0.00391563
0.00329149
0.00339353
0.00405674
0.00428268
0.00422703
0.00373729
0.00305833
0.00291408
0.00301111
0.00280828
0.00258978
0.00261766
0.00249987
0.00226577
0.00229787
0.0034226
0.00318318
0.00292354
0.00280311
0.00276393
0.00280193
0.00287683
0.00297883
0.00317129
0.00354938
0.00432007
0.00455992
0.00276741
0.00207021
0.00202892
0.00249578
0.00368668
0.0039043
0.00345185
0.0033293
0.00394837
0.00423821
0.00430181
0.00417577
0.00339363
0.00293919
0.00291355
0.00297693
0.00267886
0.00259494
0.00259451
0.00243705
0.00236519
0.00341109
0.0031296
0.00289143
0.00279243
0.00276466
0.00281472
0.00289053
0.00300052
0.00320947
0.00360563
0.0043653
0.00476882
0.00296464
0.00208812
0.00198692
0.00222463
0.00322035
0.00381709
0.00357711
0.00326072
0.00357231
0.00386726
0.00417407
0.00426944
0.00397117
0.00312478
0.00290003
0.00304553
0.00292163
0.00261824
0.00256357
0.00254575
0.0024863
0.00336244
0.00305862
0.00285762
0.00278552
0.00277907
0.00283171
0.00290513
0.00301794
0.00323657
0.00366853
0.00452479
0.00497872
0.00348648
0.00215768
0.00198727
0.00208465
0.00262812
0.00360664
0.00355768
0.00327557
0.00328518
0.00317684
0.0035916
0.00424319
0.00416633
0.00346891
0.003009
0.00300562
0.00299498
0.00273862
0.00256974
0.00250983
0.00255392
0.00328131
0.00299267
0.00283233
0.00277918
0.00279238
0.00284973
0.00292162
0.00303409
0.00326165
0.00371388
0.00463776
0.00508814
0.00425649
0.0023864
0.00201192
0.0020286
0.00226915
0.00309041
0.00343147
0.00327434
0.00319507
0.00292488
0.00289776
0.00387062
0.00423588
0.00372201
0.0033029
0.00301166
0.00299948
0.00289585
0.00261858
0.00247291
0.00251031
0.00318479
0.00293006
0.00281471
0.00277969
0.00280968
0.00286268
0.00293275
0.0030571
0.00329473
0.00373437
0.00463441
0.00516361
0.00475485
0.00300729
0.00212552
0.00202928
0.00211646
0.00261213
0.00312911
0.00314912
0.00308757
0.00283458
0.00266914
0.00316585
0.00421453
0.00383314
0.003605
0.00315952
0.00305085
0.00295166
0.00272787
0.00248993
0.00244658
0.00308969
0.00288143
0.00280445
0.00278853
0.00282625
0.00287779
0.00295109
0.00308555
0.00333672
0.00373785
0.00446534
0.00528292
0.00501595
0.00362831
0.00238764
0.00204861
0.00206702
0.00224858
0.00271532
0.00290046
0.00288359
0.00271484
0.00255842
0.00280651
0.00396929
0.00396728
0.0037259
0.00342324
0.00316535
0.00302447
0.00280882
0.00254422
0.00240573
0.00300984
0.00285228
0.00280113
0.00280417
0.00284358
0.0028912
0.00297017
0.00311533
0.0033845
0.00373854
0.0041995
0.00532749
0.00519384
0.00418078
0.00263439
0.00210676
0.00201831
0.00207882
0.00228724
0.00258841
0.00260731
0.00250435
0.00239376
0.00258949
0.00366044
0.00408855
0.00379
0.00368233
0.00335077
0.00313489
0.00287076
0.0026346
0.00241719
0.00294476
0.00283765
0.00280475
0.00282081
0.00285975
0.00290773
0.00298308
0.00313249
0.00342194
0.00373656
0.00405036
0.00524195
0.00537673
0.00469018
0.00291261
0.00222344
0.00202843
0.00202183
0.00207842
0.00227434
0.00230946
0.00224944
0.0022084
0.00239119
0.00338633
0.00412128
0.00388276
0.00383965
0.00359996
0.00330673
0.00295599
0.00271324
0.00245304
0.00289728
0.00283027
0.00281601
0.00283854
0.00287247
0.002916
0.00298957
0.0031385
0.0034401
0.00372471
0.0039033
0.00502725
0.00549353
0.00508775
0.00340924
0.00244162
0.00208698
0.00202338
0.0020279
0.00209071
0.0021039
0.00208088
0.00209043
0.00227556
0.00315672
0.00409958
0.00400921
0.0039184
0.00378103
0.00350488
0.00304038
0.00280465
0.00251498
0.00287174
0.00282969
0.00283459
0.0028542
0.00288071
0.00291947
0.00299272
0.00313933
0.00344634
0.00370766
0.00384535
0.00458214
0.00552889
0.00535387
0.00445045
0.00289751
0.00226694
0.0020702
0.0020335
0.00204071
0.00203512
0.00202039
0.00204071
0.00221563
0.00296644
0.00403611
0.00406438
0.00393967
0.00387894
0.00365306
0.00311925
0.00286896
0.00261456
0.00286563
0.00284219
0.00285344
0.00286642
0.00288522
0.0029198
0.00298347
0.00312162
0.00342949
0.00368986
0.00381249
0.00418332
0.00547179
0.00554213
0.00517134
0.00403104
0.00274619
0.00227107
0.00210428
0.00206335
0.00202936
0.0020132
0.00203583
0.00219247
0.00279992
0.00390636
0.00412587
0.00395463
0.00394068
0.00375923
0.00324089
0.00290981
0.00265378
0.00286887
0.00286165
0.00286897
0.00287576
0.00288927
0.00291703
0.00297168
0.00311295
0.00339154
0.00365782
0.00379827
0.00398908
0.00518232
0.00559068
0.00549235
0.00506486
0.00400583
0.00289648
0.00240194
0.0022047
0.00207951
0.0020461
0.00206932
0.00219877
0.00265641
0.00370989
0.00415438
0.00397145
0.0039718
0.00385355
0.0033399
0.00297327
0.00272544
0.00288346
0.00288159
0.00288332
0.00288534
0.00289292
0.00291581
0.00296514
0.00311235
0.00337327
0.00360696
0.00377496
0.00389742
0.00451779
0.00552193
0.00564722
0.0055201
0.00511185
0.00439331
0.00328904
0.00270777
0.00233133
0.00217634
0.00217919
0.00225464
0.00259565
0.00355248
0.004157
0.00400881
0.00395683
0.00396915
0.00351933
0.00301547
0.00274317
0.00290146
0.00290078
0.00290229
0.00289615
0.00289799
0.00291501
0.00296395
0.00311787
0.00336685
0.00357666
0.00373664
0.00386523
0.00439011
0.00530079
0.00564695
0.00565352
0.00553896
0.00524338
0.0044676
0.0034109
0.00266846
0.00231244
0.00224935
0.00229542
0.00258655
0.00350328
0.00415249
0.00406718
0.00386307
0.0040293
0.00380407
0.00311345
0.00278261
0.00292348
0.00292126
0.00292083
0.00290565
0.00290311
0.00291494
0.00297237
0.00315623
0.00337512
0.00355781
0.00370014
0.003816
0.00432042
0.00524227
0.00561398
0.00568569
0.00564785
0.00550833
0.00507112
0.0039106
0.00287449
0.00239412
0.00229586
0.00233987
0.00265533
0.00360571
0.00417127
0.00408625
0.00375786
0.00394647
0.00403888
0.00342684
0.00293929
0.00294335
0.00293954
0.00293676
0.00291446
0.00291021
0.00291995
0.00299564
0.00318083
0.00340998
0.00355108
0.00366793
0.00375588
0.00406156
0.00523339
0.00559253
0.00570864
0.00569715
0.00562317
0.00532122
0.00420318
0.00298332
0.00246173
0.00238253
0.00246928
0.00301639
0.0040052
0.00420588
0.00401245
0.00363443
0.00371332
0.00413711
0.00397796
0.00345225
0.00295534
0.00295078
0.00294684
0.00292248
0.0029168
0.00293157
0.00302467
0.00321123
0.00344128
0.00356414
0.00365677
0.00372799
0.00381006
0.00469943
0.00551567
0.00570075
0.00570162
0.0056622
0.00546117
0.00457743
0.00314444
0.00261494
0.0025982
0.00285412
0.00378063
0.00421103
0.00413234
0.00365474
0.00339156
0.00347544
0.00403765
0.00421709
0.00408646
0.00295923
0.00295799
0.00295127
0.00292572
0.00292063
0.00295099
0.00306583
0.00324797
0.00346027
0.00356844
0.00366765
0.00372554
0.00373981
0.00405634
0.00519567
0.0056319
0.00568424
0.00565963
0.00554608
0.00496019
0.00345949
0.00302828
0.00314438
0.00381401
0.00430029
0.00424221
0.00376303
0.00330059
0.00321752
0.00334827
0.00395074
0.00435284
0.00439905
0.00295206
0.00295789
0.00294882
0.00292509
0.00292585
0.00297623
0.00311854
0.0033095
0.0034933
0.00358756
0.00368955
0.00373231
0.0037257
0.00384814
0.00466207
0.00540656
0.00560669
0.00562581
0.00555077
0.00516787
0.00401177
0.00385077
0.00415065
0.00449478
0.00439752
0.00381999
0.00333359
0.00315761
0.00315563
0.00335051
0.00399676
0.00440679
0.00450546
0.00293272
0.0029487
0.0029415
0.00291226
0.00293702
0.00300595
0.00316842
0.0033712
0.00350618
0.00360129
0.00369433
0.00373245
0.00373923
0.00375718
0.00422428
0.00512772
0.00545
0.0055168
0.00550617
0.00522096
0.00453412
0.00461326
0.00482693
0.00460895
0.00385153
0.00338564
0.00319926
0.00313045
0.00317416
0.00349151
0.00413749
0.0044595
0.00453183
0.00290013
0.00292659
0.0029257
0.00289856
0.00294446
0.00304002
0.00321819
0.00340605
0.00350138
0.00359976
0.00367755
0.00370602
0.00373916
0.00374435
0.00397447
0.00478002
0.00523599
0.00537842
0.00540605
0.00515946
0.00496024
0.00503228
0.00476705
0.00390601
0.00348272
0.00327638
0.0032348
0.00326215
0.00341674
0.00389551
0.00433973
0.00451536
0.00453369
0.00285131
0.00288835
0.0028949
0.00288066
0.00294936
0.00306746
0.00325949
0.00341478
0.00348798
0.00358939
0.00363962
0.00364268
0.00372151
0.00374044
0.00387391
0.004499
0.0050767
0.00527825
0.00530473
0.00514497
0.00520063
0.0050389
0.0041324
0.00359896
0.00339842
0.00341435
0.00353332
0.00370862
0.0039915
0.00428864
0.00448607
0.00453994
0.00452932
0.00279035
0.00283368
0.00285415
0.00286666
0.00295497
0.00309154
0.00328707
0.00341628
0.00347939
0.00355956
0.0035883
0.00354845
0.00368612
0.00372165
0.00386245
0.00448437
0.00503482
0.00518711
0.00522672
0.00521419
0.00526385
0.00454023
0.00375646
0.00352693
0.00362015
0.00376181
0.00376198
0.00384888
0.00418992
0.00442519
0.00452304
0.0045352
0.00450956
0.00273107
0.0027711
0.00280124
0.00285804
0.00296429
0.00312055
0.00330996
0.00341622
0.00347511
0.00352206
0.00353485
0.00348057
0.00363295
0.00371113
0.00388668
0.00452978
0.00504382
0.0051595
0.00521633
0.00535609
0.00517561
0.00401224
0.00367323
0.00381841
0.00406301
0.00409196
0.00380965
0.00362774
0.00393804
0.00435261
0.00446346
0.00446836
0.00441796
0.00267917
0.00270816
0.00275332
0.00284811
0.00298697
0.00315762
0.00333504
0.00341901
0.00347408
0.00349764
0.00349934
0.00345978
0.00360802
0.00373024
0.00396606
0.00466918
0.00506972
0.00516175
0.00524999
0.00539081
0.00447644
0.0038532
0.00400025
0.0044662
0.00467926
0.00452206
0.00401096
0.00354725
0.00344001
0.00376769
0.00407899
0.00413387
0.00405833
0.0026311
0.00265365
0.0027142
0.00284364
0.00301265
0.00320763
0.00335791
0.00342169
0.00347143
0.00348437
0.00347952
0.00345482
0.00362005
0.00380023
0.00416351
0.00483121
0.00509543
0.00518937
0.0053476
0.0052948
0.00413263
0.0040858
0.00477133
0.0050553
0.00500693
0.00479712
0.0045645
0.00412736
0.00335071
0.00327488
0.00341546
0.00355533
0.00356217
0.00258792
0.00260737
0.0026867
0.00284371
0.00304043
0.00323969
0.00336326
0.00342659
0.0034621
0.0034679
0.00345984
0.00346798
0.00366522
0.00394978
0.00444768
0.00493904
0.00513224
0.0052594