/*--------------------------------*- C++ -*----------------------------------*\
  =========                 |
  \\      /  F ield         | OpenFOAM: The Open Source CFD Toolbox
   \\    /   O peration     | Website:  https://openfoam.org
    \\  /    A nd           | Version:  10
     \\/     M anipulation  |
\*---------------------------------------------------------------------------*/
FoamFile
{
    format      ascii;
    class       volVectorField;
    location    "0.150109";
    object      U;
}
// * * * * * * * * * * * * * * * * * * * * * * * * * * * * * * * * * * * * * //

dimensions      [0 1 -1 0 0 0 0];

internalField   nonuniform List<vector> 
16320
(
(0.109879 0.0251002 0)
(0.110592 0.0122796 0)
(0.111613 -0.00113376 0)
(0.117173 -0.00911872 0)
(0.129215 -0.00856601 0)
(0.151615 -0.0043389 0)
(0.184114 0.0032596 0)
(0.226802 0.0108084 0)
(0.278314 0.015414 0)
(0.337453 0.0163467 0)
(0.401314 0.0141714 0)
(0.466806 0.00979516 0)
(0.531608 0.00247972 0)
(0.590536 -0.00610718 0)
(0.634533 -0.0150073 0)
(0.648756 -0.0220893 0)
(0.610506 -0.0248329 0)
(0.50852 -0.0233361 0)
(0.414192 -0.0408268 0)
(0.415862 -0.0828853 0)
(0.47248 -0.111212 0)
(0.536561 -0.121646 0)
(0.613501 -0.118054 0)
(0.693395 -0.104827 0)
(0.765458 -0.0882175 0)
(0.825106 -0.0741718 0)
(0.859332 -0.0723313 0)
(0.859788 -0.0917963 0)
(0.824842 -0.130934 0)
(0.741361 -0.192524 0)
(0.603502 -0.270816 0)
(0.49419 -0.341996 0)
(0.408959 -0.356936 0)
(0.0986927 0.0543838 0)
(0.0989473 0.0449709 0)
(0.103235 0.0324242 0)
(0.113128 0.0218116 0)
(0.130876 0.0165705 0)
(0.157743 0.0151505 0)
(0.19491 0.0162444 0)
(0.241799 0.0176251 0)
(0.296962 0.0162311 0)
(0.358994 0.0119606 0)
(0.425245 0.00510857 0)
(0.490796 -0.00276794 0)
(0.552373 -0.0125086 0)
(0.606825 -0.0244129 0)
(0.646989 -0.0372752 0)
(0.660444 -0.0508133 0)
(0.63048 -0.0650247 0)
(0.543091 -0.0796756 0)
(0.456819 -0.0974561 0)
(0.446735 -0.108846 0)
(0.489306 -0.110493 0)
(0.544392 -0.0997749 0)
(0.613887 -0.0818 0)
(0.688147 -0.0577059 0)
(0.755756 -0.0319956 0)
(0.80885 -0.0114196 0)
(0.832993 -0.00949348 0)
(0.827026 -0.0299969 0)
(0.789338 -0.0700718 0)
(0.703548 -0.13356 0)
(0.570062 -0.211362 0)
(0.47287 -0.271034 0)
(0.378966 -0.261927 0)
(0.0754388 0.101047 0)
(0.0779307 0.0911891 0)
(0.0850569 0.0774413 0)
(0.0991946 0.0636259 0)
(0.121844 0.0521669 0)
(0.153333 0.0436697 0)
(0.194928 0.0370021 0)
(0.245914 0.0309733 0)
(0.30437 0.0237747 0)
(0.368568 0.0148776 0)
(0.435554 0.00508588 0)
(0.49998 -0.00530185 0)
(0.557885 -0.0173354 0)
(0.608378 -0.0314087 0)
(0.644733 -0.0475848 0)
(0.657061 -0.0669556 0)
(0.629811 -0.0912103 0)
(0.551149 -0.121688 0)
(0.478663 -0.139071 0)
(0.471075 -0.130189 0)
(0.508059 -0.10923 0)
(0.557244 -0.0801305 0)
(0.620316 -0.0470195 0)
(0.689708 -0.00922912 0)
(0.74964 0.0294772 0)
(0.790524 0.0553172 0)
(0.803083 0.0594151 0)
(0.790751 0.0405117 0)
(0.751149 -0.00581025 0)
(0.665472 -0.075809 0)
(0.541589 -0.154304 0)
(0.458635 -0.198725 0)
(0.357983 -0.160013 0)
(0.0244531 0.157667 0)
(0.0386032 0.144206 0)
(0.0521747 0.126679 0)
(0.0732741 0.10894 0)
(0.101989 0.0936103 0)
(0.13813 0.0784344 0)
(0.184542 0.0641199 0)
(0.240581 0.050456 0)
(0.303608 0.0369908 0)
(0.371536 0.0242467 0)
(0.440636 0.0121914 0)
(0.503391 -0.000455006 0)
(0.557364 -0.0150761 0)
(0.603152 -0.031379 0)
(0.634542 -0.0508103 0)
(0.64262 -0.0759533 0)
(0.609506 -0.110168 0)
(0.542649 -0.152257 0)
(0.495858 -0.164852 0)
(0.500238 -0.143514 0)
(0.534379 -0.10618 0)
(0.576296 -0.0609495 0)
(0.630659 -0.00905519 0)
(0.689468 0.0463015 0)
(0.736427 0.0932 0)
(0.764442 0.120701 0)
(0.769222 0.124955 0)
(0.754378 0.1046 0)
(0.713784 0.055272 0)
(0.631575 -0.0208701 0)
(0.522017 -0.0986541 0)
(0.452926 -0.12548 0)
(0.349175 -0.0570538 0)
(-0.0466755 0.207418 0)
(-0.0232187 0.193548 0)
(0.00324416 0.174494 0)
(0.0350372 0.153817 0)
(0.0709389 0.135082 0)
(0.115012 0.110546 0)
(0.171247 0.0882672 0)
(0.236039 0.0680397 0)
(0.30662 0.0503432 0)
(0.379188 0.035992 0)
(0.447788 0.0228328 0)
(0.506943 0.00882136 0)
(0.557004 -0.00744733 0)
(0.598532 -0.0255926 0)
(0.625022 -0.0476323 0)
(0.624021 -0.0783495 0)
(0.583501 -0.123775 0)
(0.532374 -0.166706 0)
(0.512585 -0.171618 0)
(0.528715 -0.141368 0)
(0.560079 -0.0946047 0)
(0.594697 -0.0363554 0)
(0.637183 0.0370932 0)
(0.679675 0.107522 0)
(0.710187 0.161684 0)
(0.726492 0.19112 0)
(0.727886 0.19348 0)
(0.713438 0.168217 0)
(0.674896 0.112703 0)
(0.598296 0.0326877 0)
(0.507841 -0.0442344 0)
(0.451799 -0.0537437 0)
(0.341272 0.0454886 0)
(-0.135867 0.240805 0)
(-0.0987825 0.230591 0)
(-0.0568058 0.212305 0)
(-0.0118087 0.190786 0)
(0.0376093 0.168115 0)
(0.0950084 0.136011 0)
(0.165004 0.10726 0)
(0.240338 0.0835531 0)
(0.318264 0.0645369 0)
(0.393117 0.0501439 0)
(0.459993 0.0372837 0)
(0.515786 0.0236693 0)
(0.562416 0.00766698 0)
(0.59937 -0.0116543 0)
(0.617572 -0.0369685 0)
(0.601471 -0.0745531 0)
(0.556268 -0.129291 0)
(0.523826 -0.16311 0)
(0.525421 -0.158709 0)
(0.547951 -0.123194 0)
(0.575095 -0.0705323 0)
(0.601887 0.00654879 0)
(0.628342 0.09791 0)
(0.650966 0.178984 0)
(0.6669 0.236345 0)
(0.677259 0.264519 0)
(0.680364 0.260291 0)
(0.671033 0.226411 0)
(0.637977 0.163427 0)
(0.568943 0.0802599 0)
(0.498515 0.00707023 0)
(0.44669 0.016246 0)
(0.332559 0.125587 0)
(-0.235695 0.259715 0)
(-0.181557 0.252061 0)
(-0.119159 0.235084 0)
(-0.0567079 0.213609 0)
(0.0064171 0.191626 0)
(0.0849043 0.151459 0)
(0.170628 0.117517 0)
(0.256537 0.0937072 0)
(0.340039 0.0764545 0)
(0.415756 0.0645832 0)
(0.479949 0.0548862 0)
(0.531427 0.0432565 0)
(0.572554 0.0296196 0)
(0.60207 0.0111868 0)
(0.606788 -0.0177904 0)
(0.572437 -0.0654555 0)
(0.528736 -0.120322 0)
(0.515556 -0.141835 0)
(0.529984 -0.12978 0)
(0.552712 -0.0912659 0)
(0.574508 -0.0240223 0)
(0.590043 0.0739135 0)
(0.598678 0.175034 0)
(0.604874 0.258488 0)
(0.61269 0.314297 0)
(0.62372 0.335683 0)
(0.633339 0.321317 0)
(0.632537 0.276912 0)
(0.60711 0.206122 0)
(0.546034 0.120694 0)
(0.493005 0.0545404 0)
(0.439577 0.0769326 0)
(0.321478 0.197002 0)
(-0.331339 0.255996 0)
(-0.25804 0.254007 0)
(-0.175334 0.239514 0)
(-0.0943028 0.219573 0)
(-0.0160607 0.197697 0)
(0.0961965 0.143743 0)
(0.194503 0.110605 0)
(0.28786 0.093816 0)
(0.371761 0.0851023 0)
(0.445068 0.0806413 0)
(0.504239 0.0770853 0)
(0.550099 0.0695535 0)
(0.584653 0.0599458 0)
(0.601416 0.0433458 0)
(0.58432 0.0105811 0)
(0.534155 -0.0486461 0)
(0.499393 -0.0936715 0)
(0.501645 -0.104698 0)
(0.519473 -0.0882938 0)
(0.540194 -0.0352983 0)
(0.554106 0.0585593 0)
(0.556143 0.163457 0)
(0.550422 0.262487 0)
(0.54825 0.342885 0)
(0.557013 0.391656 0)
(0.574091 0.401237 0)
(0.592704 0.374521 0)
(0.601174 0.319579 0)
(0.583767 0.241504 0)
(0.529571 0.15508 0)
(0.487546 0.0957998 0)
(0.428728 0.126353 0)
(0.304208 0.2537 0)
(-0.403464 0.235666 0)
(-0.314121 0.232944 0)
(-0.214625 0.214894 0)
(-0.114304 0.192386 0)
(-0.0136674 0.160966 0)
(0.137699 0.10765 0)
(0.237598 0.0941576 0)
(0.329004 0.0930633 0)
(0.408109 0.0963661 0)
(0.476369 0.100561 0)
(0.52901 0.103131 0)
(0.56799 0.10139 0)
(0.593948 0.0958672 0)
(0.593385 0.0804484 0)
(0.548164 0.0435799 0)
(0.489773 -0.0184668 0)
(0.4675 -0.0527464 0)
(0.475087 -0.0572546 0)
(0.492673 -0.0194599 0)
(0.513664 0.0621536 0)
(0.521927 0.159052 0)
(0.512173 0.258974 0)
(0.49726 0.353812 0)
(0.495483 0.427872 0)
(0.509021 0.464065 0)
(0.533618 0.459001 0)
(0.561172 0.419685 0)
(0.578126 0.355312 0)
(0.568101 0.270659 0)
(0.520046 0.18324 0)
(0.48192 0.129926 0)
(0.409942 0.164627 0)
(0.270236 0.29062 0)
(-0.443754 0.199783 0)
(-0.341401 0.185624 0)
(-0.225496 0.161008 0)
(-0.111498 0.140244 0)
(0.0692676 0.0931725 0)
(0.195559 0.0755089 0)
(0.289551 0.0826375 0)
(0.373681 0.0949686 0)
(0.447001 0.108803 0)
(0.508701 0.12154 0)
(0.554445 0.130688 0)
(0.585944 0.136044 0)
(0.600053 0.135085 0)
(0.578183 0.120476 0)
(0.505289 0.0799607 0)
(0.442117 0.0274531 0)
(0.426416 0.00920996 0)
(0.43943 0.0212388 0)
(0.467783 0.0820687 0)
(0.49097 0.167604 0)
(0.488459 0.263486 0)
(0.466206 0.359546 0)
(0.449502 0.449398 0)
(0.452113 0.5104 0)
(0.472352 0.529453 0)
(0.504287 0.509086 0)
(0.539036 0.458363 0)
(0.562373 0.385837 0)
(0.5582 0.294727 0)
(0.515531 0.204538 0)
(0.473584 0.153812 0)
(0.376597 0.184435 0)
(0.209653 0.297548 0)
(-0.431971 0.164289 0)
(-0.320335 0.146421 0)
(-0.188323 0.116904 0)
(0.00720148 0.0562221 0)
(0.156436 0.0466913 0)
(0.257029 0.0573405 0)
(0.344056 0.0795616 0)
(0.420992 0.10363 0)
(0.487622 0.126846 0)
(0.541457 0.147472 0)
(0.579299 0.162998 0)
(0.601742 0.174518 0)
(0.600652 0.177148 0)
(0.552641 0.162471 0)
(0.457513 0.119177 0)
(0.395522 0.081427 0)
(0.390369 0.076361 0)
(0.412649 0.114688 0)
(0.449664 0.188669 0)
(0.466738 0.280838 0)
(0.451321 0.373559 0)
(0.422214 0.466683 0)
(0.41 0.5452 0)
(0.419817 0.587566 0)
(0.447161 0.588035 0)
(0.48465 0.553267 0)
(0.524076 0.492472 0)
(0.551076 0.412095 0)
(0.549623 0.313097 0)
(0.51001 0.215882 0)
(0.455555 0.160399 0)
(0.316632 0.175168 0)
(0.114971 0.26187 0)
(-0.368277 0.136618 0)
(-0.245592 0.085661 0)
(-0.000621261 -0.0423303 0)
(0.124844 -0.0243191 0)
(0.220526 0.0123005 0)
(0.31074 0.0494759 0)
(0.391768 0.0847711 0)
(0.46331 0.117689 0)
(0.524397 0.148649 0)
(0.570849 0.176075 0)
(0.600999 0.197285 0)
(0.61349 0.213297 0)
(0.594531 0.218084 0)
(0.517375 0.203162 0)
(0.407191 0.161491 0)
(0.349415 0.140228 0)
(0.358851 0.149237 0)
(0.392234 0.213337 0)
(0.431106 0.302377 0)
(0.439251 0.397664 0)
(0.411066 0.488126 0)
(0.383434 0.574468 0)
(0.379536 0.635812 0)
(0.39788 0.657625 0)
(0.431481 0.640588 0)
(0.472358 0.593281 0)
(0.513714 0.523752 0)
(0.541159 0.434992 0)
(0.537966 0.324373 0)
(0.496172 0.213214 0)
(0.41667 0.140089 0)
(0.21453 0.118805 0)
(-0.00855914 0.17299 0)
(-0.250355 0.0444186 0)
(0.0158918 -0.143454 0)
(0.0886966 -0.10138 0)
(0.171009 -0.0488873 0)
(0.25548 0.00197208 0)
(0.34127 0.0460625 0)
(0.423963 0.0873042 0)
(0.498923 0.126987 0)
(0.561359 0.165015 0)
(0.60305 0.198843 0)
(0.624558 0.226623 0)
(0.623917 0.247444 0)
(0.583176 0.255415 0)
(0.475722 0.241254 0)
(0.356133 0.208216 0)
(0.306869 0.203442 0)
(0.331024 0.233085 0)
(0.375728 0.318638 0)
(0.411019 0.420434 0)
(0.407384 0.514565 0)
(0.371422 0.602506 0)
(0.35127 0.676398 0)
(0.3579 0.717658 0)
(0.384248 0.719646 0)
(0.42238 0.687648 0)
(0.464944 0.63016 0)
(0.505899 0.55257 0)
(0.529238 0.452618 0)
(0.516787 0.322003 0)
(0.46531 0.186722 0)
(0.342964 0.0820694 0)
(0.0601771 0.0104835 0)
(-0.131073 0.0300967 0)
(0.0369783 -0.130633 0)
(0.0962761 -0.139766 0)
(0.139305 -0.101635 0)
(0.197727 -0.0587067 0)
(0.269052 -0.0168643 0)
(0.349004 0.0286797 0)
(0.432294 0.0764926 0)
(0.511777 0.125909 0)
(0.578846 0.174189 0)
(0.621979 0.217105 0)
(0.640337 0.253845 0)
(0.628034 0.27976 0)
(0.563299 0.29143 0)
(0.427831 0.279212 0)
(0.307154 0.259564 0)
(0.271286 0.271161 0)
(0.307095 0.324194 0)
(0.361366 0.429416 0)
(0.387189 0.538447 0)
(0.369117 0.6301 0)
(0.334673 0.711695 0)
(0.326204 0.768709 0)
(0.342989 0.788903 0)
(0.375735 0.773157 0)
(0.417007 0.729226 0)
(0.459407 0.663318 0)
(0.496306 0.577344 0)
(0.508217 0.460635 0)
(0.477905 0.295987 0)
(0.407236 0.127264 0)
(0.229237 -0.0247486 0)
(-0.0749464 -0.106912 0)
(-0.222943 -0.105666 0)
(0.139966 -0.156481 0)
(0.140291 -0.141725 0)
(0.167887 -0.104402 0)
(0.21479 -0.0651483 0)
(0.2763 -0.0294117 0)
(0.347826 0.0108703 0)
(0.425775 0.0588401 0)
(0.505131 0.114091 0)
(0.575804 0.173227 0)
(0.623077 0.229883 0)
(0.639856 0.279348 0)
(0.616668 0.31351 0)
(0.529422 0.327833 0)
(0.376048 0.319607 0)
(0.261679 0.314 0)
(0.240656 0.33984 0)
(0.284964 0.419205 0)
(0.346253 0.539238 0)
(0.357617 0.649826 0)
(0.326554 0.740214 0)
(0.302046 0.811959 0)
(0.306029 0.848857 0)
(0.331378 0.849034 0)
(0.369521 0.818855 0)
(0.412302 0.765247 0)
(0.451383 0.690262 0)
(0.477948 0.591786 0)
(0.466411 0.447825 0)
(0.412607 0.23688 0)
(0.30458 0.0172411 0)
(0.0992534 -0.15076 0)
(-0.142134 -0.205272 0)
(-0.264317 -0.192393 0)
(0.188733 -0.186179 0)
(0.17228 -0.148996 0)
(0.186305 -0.107688 0)
(0.224001 -0.0726968 0)
(0.277943 -0.0416384 0)
(0.343476 -0.00846048 0)
(0.414643 0.034975 0)
(0.487944 0.0908458 0)
(0.556301 0.156715 0)
(0.604743 0.224387 0)
(0.621455 0.28647 0)
(0.588984 0.333137 0)
(0.482321 0.355021 0)
(0.323804 0.354961 0)
(0.220655 0.365261 0)
(0.214189 0.406583 0)
(0.264177 0.522066 0)
(0.324325 0.645609 0)
(0.319367 0.751885 0)
(0.283482 0.841346 0)
(0.272824 0.899386 0)
(0.287869 0.915832 0)
(0.321206 0.899363 0)
(0.36328 0.85779 0)
(0.403954 0.794108 0)
(0.433399 0.70615 0)
(0.438228 0.584781 0)
(0.393401 0.396354 0)
(0.315439 0.140101 0)
(0.183153 -0.108962 0)
(4.52315e-05 -0.256586 0)
(-0.164468 -0.277085 0)
(-0.259342 -0.243933 0)
(0.237954 -0.225493 0)
(0.204428 -0.177286 0)
(0.20774 -0.133343 0)
(0.23765 -0.0966068 0)
(0.284322 -0.0635622 0)
(0.342309 -0.0291423 0)
(0.406229 0.0122519 0)
(0.470372 0.0663871 0)
(0.527954 0.133765 0)
(0.568489 0.205742 0)
(0.580828 0.272349 0)
(0.542046 0.32515 0)
(0.425576 0.354479 0)
(0.272382 0.36788 0)
(0.183883 0.400409 0)
(0.192363 0.477877 0)
(0.245009 0.625051 0)
(0.287549 0.742533 0)
(0.270583 0.843955 0)
(0.24062 0.929938 0)
(0.245419 0.971599 0)
(0.271108 0.97013 0)
(0.310858 0.940101 0)
(0.352873 0.887945 0)
(0.385241 0.811088 0)
(0.394668 0.702509 0)
(0.360757 0.541325 0)
(0.284478 0.299194 0)
(0.178092 0.00458087 0)
(0.0702735 -0.214618 0)
(-0.064856 -0.322229 0)
(-0.166101 -0.319549 0)
(-0.229278 -0.27205 0)
(0.288746 -0.297419 0)
(0.242372 -0.248362 0)
(0.235086 -0.204984 0)
(0.256368 -0.165793 0)
(0.294778 -0.128329 0)
(0.344032 -0.0867033 0)
(0.398899 -0.0360466 0)
(0.454549 0.0263694 0)
(0.500716 0.100996 0)
(0.524687 0.177714 0)
(0.523219 0.246337 0)
(0.476066 0.2972 0)
(0.363117 0.326735 0)
(0.227634 0.354469 0)
(0.161909 0.426842 0)
(0.170075 0.560137 0)
(0.21496 0.719537 0)
(0.234507 0.825871 0)
(0.214828 0.924157 0)
(0.198716 1.00284 0)
(0.21974 1.02838 0)
(0.254174 1.0111 0)
(0.296871 0.969236 0)
(0.333216 0.90473 0)
(0.348024 0.809414 0)
(0.320848 0.666601 0)
(0.242854 0.452155 0)
(0.153036 0.174808 0)
(0.051443 -0.114692 0)
(-0.0198722 -0.286389 0)
(-0.110051 -0.348565 0)
(-0.162204 -0.337731 0)
(-0.197489 -0.285088 0)
(0.332992 -0.411309 0)
(0.276421 -0.377701 0)
(0.263238 -0.343349 0)
(0.279385 -0.304644 0)
(0.311603 -0.259856 0)
(0.353437 -0.206081 0)
(0.398555 -0.137482 0)
(0.442092 -0.0564416 0)
(0.475812 0.0345927 0)
(0.486666 0.126577 0)
(0.466321 0.203913 0)
(0.403847 0.25088 0)
(0.294488 0.278864 0)
(0.191083 0.328169 0)
(0.141206 0.452492 0)
(0.13022 0.646045 0)
(0.165554 0.797867 0)
(0.169037 0.892348 0)
(0.154766 0.989689 0)
(0.159039 1.05857 0)
(0.194647 1.06807 0)
(0.234138 1.0371 0)
(0.275403 0.983708 0)
(0.29764 0.903046 0)
(0.280181 0.779213 0)
(0.203261 0.588472 0)
(0.102774 0.336061 0)
(0.0157331 0.0285718 0)
(-0.0392319 -0.190633 0)
(-0.0933099 -0.310773 0)
(-0.141305 -0.34784 0)
(-0.16302 -0.33623 0)
(-0.176632 -0.285509 0)
(0.3506 -0.53867 0)
(0.292525 -0.522943 0)
(0.282449 -0.501306 0)
(0.303231 -0.471065 0)
(0.336878 -0.427342 0)
(0.374734 -0.366948 0)
(0.412148 -0.283048 0)
(0.442853 -0.180299 0)
(0.461039 -0.068882 0)
(0.455554 0.0455841 0)
(0.410642 0.136402 0)
(0.326433 0.181735 0)
(0.22468 0.214713 0)
(0.150097 0.299696 0)
(0.091682 0.494116 0)
(0.0758192 0.722183 0)
(0.101181 0.851963 0)
(0.0996253 0.939793 0)
(0.0979911 1.03729 0)
(0.122052 1.09438 0)
(0.167973 1.08848 0)
(0.208741 1.04657 0)
(0.241504 0.980341 0)
(0.237114 0.875845 0)
(0.171698 0.70976 0)
(0.0598266 0.477349 0)
(-0.0391173 0.19524 0)
(-0.0852242 -0.0670161 0)
(-0.112229 -0.221754 0)
(-0.144992 -0.304575 0)
(-0.166767 -0.328548 0)
(-0.173328 -0.317138 0)
(-0.172254 -0.27257 0)
(0.350069 -0.638746 0)
(0.296645 -0.629568 0)
(0.288799 -0.614443 0)
(0.313042 -0.593838 0)
(0.35188 -0.561209 0)
(0.392498 -0.508178 0)
(0.427691 -0.4235 0)
(0.449503 -0.311106 0)
(0.453292 -0.183977 0)
(0.425497 -0.0573918 0)
(0.350253 0.0488035 0)
(0.2479 0.102946 0)
(0.159389 0.156842 0)
(0.0948908 0.293265 0)
(0.0180039 0.564699 0)
(0.0157471 0.774957 0)
(0.0333036 0.884142 0)
(0.0347549 0.971437 0)
(0.048116 1.06455 0)
(0.0870692 1.10751 0)
(0.138673 1.09015 0)
(0.175632 1.03843 0)
(0.188155 0.953154 0)
(0.139812 0.813501 0)
(0.0265251 0.597646 0)
(-0.0894835 0.335022 0)
(-0.131567 0.0979573 0)
(-0.149193 -0.105047 0)
(-0.168612 -0.221984 0)
(-0.180073 -0.278151 0)
(-0.188813 -0.295882 0)
(-0.190249 -0.285178 0)
(-0.183194 -0.246502 0)
(0.346469 -0.708837 0)
(0.299255 -0.698655 0)
(0.290072 -0.681843 0)
(0.311463 -0.662273 0)
(0.348931 -0.638557 0)
(0.38886 -0.597466 0)
(0.424337 -0.521969 0)
(0.440185 -0.41128 0)
(0.43164 -0.282652 0)
(0.383544 -0.148511 0)
(0.274556 -0.0374529 0)
(0.163508 0.033833 0)
(0.0886251 0.123608 0)
(-0.00380475 0.362132 0)
(-0.0516161 0.632452 0)
(-0.0429544 0.802202 0)
(-0.02944 0.900432 0)
(-0.0202147 0.988446 0)
(0.00464394 1.07038 0)
(0.053664 1.09992 0)
(0.106583 1.07441 0)
(0.12779 1.00927 0)
(0.104558 0.89573 0)
(0.000978208 0.70581 0)
(-0.126061 0.456394 0)
(-0.190147 0.238214 0)
(-0.191455 0.0405597 0)
(-0.196579 -0.118727 0)
(-0.200452 -0.199678 0)
(-0.201274 -0.240617 0)
(-0.205765 -0.25544 0)
(-0.207525 -0.24683 0)
(-0.19727 -0.210822 0)
(0.34438 -0.763278 0)
(0.30517 -0.751283 0)
(0.294207 -0.729975 0)
(0.3052 -0.706939 0)
(0.331383 -0.685485 0)
(0.362767 -0.653761 0)
(0.39325 -0.585732 0)
(0.40081 -0.478576 0)
(0.380938 -0.352961 0)
(0.317575 -0.218461 0)
(0.187376 -0.10019 0)
(0.0716958 -0.00994965 0)
(-0.0135488 0.158406 0)
(-0.0970106 0.45651 0)
(-0.106449 0.6761 0)
(-0.0944417 0.815099 0)
(-0.0820145 0.907128 0)
(-0.0647019 0.991094 0)
(-0.0313761 1.05766 0)
(0.0212035 1.07566 0)
(0.0656548 1.0404 0)
(0.0572983 0.954827 0)
(-0.0189005 0.79769 0)
(-0.152683 0.563864 0)
(-0.237725 0.354461 0)
(-0.246504 0.177003 0)
(-0.226696 0.0132502 0)
(-0.220754 -0.108793 0)
(-0.20995 -0.167474 0)
(-0.206695 -0.199178 0)
(-0.210383 -0.212006 0)
(-0.212035 -0.20482 0)
(-0.201433 -0.170476 0)
(0.342699 -0.801815 0)
(0.314303 -0.787902 0)
(0.30076 -0.762401 0)
(0.298337 -0.737782 0)
(0.304634 -0.721354 0)
(0.316037 -0.702052 0)
(0.333083 -0.643589 0)
(0.328655 -0.536814 0)
(0.298921 -0.409969 0)
(0.225003 -0.274863 0)
(0.0851664 -0.145076 0)
(-0.0150671 -0.0074976 0)
(-0.113738 0.254905 0)
(-0.157947 0.52612 0)
(-0.148353 0.703627 0)
(-0.135823 0.82032 0)
(-0.121221 0.907331 0)
(-0.0997235 0.981999 0)
(-0.0609117 1.03255 0)
(-0.0140107 1.03781 0)
(0.00872918 0.985558 0)
(-0.0462744 0.868275 0)
(-0.168476 0.660734 0)
(-0.275843 0.44958 0)
(-0.299132 0.287958 0)
(-0.272258 0.143342 0)
(-0.240895 0.00662988 0)
(-0.221436 -0.086195 0)
(-0.200667 -0.132376 0)
(-0.195702 -0.158197 0)
(-0.200476 -0.167688 0)
(-0.201936 -0.160955 0)
(-0.190785 -0.130757 0)
(0.345516 -0.824063 0)
(0.328184 -0.80912 0)
(0.309227 -0.781627 0)
(0.28346 -0.764161 0)
(0.259379 -0.763635 0)
(0.243628 -0.767338 0)
(0.242133 -0.724205 0)
(0.234225 -0.608758 0)
(0.200405 -0.465754 0)
(0.123792 -0.317792 0)
(-0.0049933 -0.153492 0)
(-0.10974 0.0617548 0)
(-0.177734 0.346335 0)
(-0.193355 0.578808 0)
(-0.177023 0.723553 0)
(-0.164976 0.823433 0)
(-0.148949 0.903159 0)
(-0.124608 0.965689 0)
(-0.0877534 0.999058 0)
(-0.0592635 0.98546 0)
(-0.0740831 0.909369 0)
(-0.183513 0.744978 0)
(-0.302303 0.531483 0)
(-0.348181 0.375645 0)
(-0.325386 0.248651 0)
(-0.278839 0.12684 0)
(-0.238147 0.0118459 0)
(-0.20544 -0.0607995 0)
(-0.179869 -0.0993005 0)
(-0.173787 -0.119785 0)
(-0.179293 -0.1256 0)
(-0.180125 -0.117765 0)
(-0.167414 -0.0918147 0)
(0.352524 -0.838229 0)
(0.344836 -0.825408 0)
(0.311695 -0.805156 0)
(0.249763 -0.806075 0)
(0.187263 -0.833026 0)
(0.142997 -0.864368 0)
(0.132048 -0.826975 0)
(0.141432 -0.681169 0)
(0.114492 -0.508027 0)
(0.0409702 -0.334527 0)
(-0.0917571 -0.11119 0)
(-0.174416 0.154158 0)
(-0.212454 0.427807 0)
(-0.212819 0.623055 0)
(-0.193404 0.741816 0)
(-0.180651 0.828641 0)
(-0.166736 0.898703 0)
(-0.145188 0.94463 0)
(-0.120342 0.957404 0)
(-0.12025 0.919519 0)
(-0.192994 0.803298 0)
(-0.324921 0.60591 0)
(-0.389653 0.443236 0)
(-0.378647 0.329892 0)
(-0.3295 0.226573 0)
(-0.272895 0.120979 0)
(-0.223556 0.0225947 0)
(-0.1807 -0.0366766 0)
(-0.154656 -0.0697849 0)
(-0.149767 -0.0851895 0)
(-0.155931 -0.0892149 0)
(-0.154527 -0.0801939 0)
(-0.136826 -0.0579185 0)
(0.361912 -0.850784 0)
(0.357029 -0.846625 0)
(0.297758 -0.843236 0)
(0.18655 -0.875317 0)
(0.0828224 -0.933493 0)
(0.0327182 -0.968695 0)
(0.0353444 -0.918831 0)
(0.0675819 -0.731938 0)
(0.0430662 -0.524766 0)
(-0.0354949 -0.317637 0)
(-0.159921 -0.047168 0)
(-0.208809 0.242882 0)
(-0.229881 0.496834 0)
(-0.219753 0.662395 0)
(-0.197843 0.759423 0)
(-0.186473 0.836096 0)
(-0.179875 0.890785 0)
(-0.168773 0.91792 0)
(-0.164335 0.906393 0)
(-0.213449 0.829458 0)
(-0.335555 0.66409 0)
(-0.42758 0.497304 0)
(-0.429241 0.388882 0)
(-0.383631 0.302261 0)
(-0.319797 0.214529 0)
(-0.257935 0.121174 0)
(-0.201112 0.0378596 0)
(-0.155034 -0.0108158 0)
(-0.132634 -0.039615 0)
(-0.132925 -0.0541372 0)
(-0.140704 -0.0594839 0)
(-0.136521 -0.0527298 0)
(-0.111464 -0.0357269 0)
(0.368035 -0.865802 0)
(0.357733 -0.875619 0)
(0.256115 -0.899728 0)
(0.0863102 -0.968679 0)
(-0.0293074 -1.03322 0)
(-0.0546004 -1.04377 0)
(-0.0376462 -0.979216 0)
(0.00264083 -0.763083 0)
(-0.0220994 -0.516904 0)
(-0.103768 -0.282167 0)
(-0.20306 0.019058 0)
(-0.224852 0.321192 0)
(-0.234939 0.556553 0)
(-0.216509 0.696902 0)
(-0.193041 0.776578 0)
(-0.187723 0.841239 0)
(-0.19469 0.877294 0)
(-0.200061 0.881334 0)
(-0.236825 0.831565 0)
(-0.346831 0.696219 0)
(-0.454517 0.536093 0)
(-0.478006 0.428525 0)
(-0.438773 0.35376 0)
(-0.37431 0.284388 0)
(-0.303063 0.207754 0)
(-0.238291 0.123949 0)
(-0.177413 0.0562314 0)
(-0.134002 0.0162256 0)
(-0.119842 -0.00776469 0)
(-0.127981 -0.0234209 0)
(-0.140168 -0.0309979 0)
(-0.134334 -0.0296527 0)
(-0.103815 -0.0227394 0)
(0.367217 -0.884232 0)
(0.337888 -0.909587 0)
(0.178723 -0.969221 0)
(-0.0285377 -1.05775 0)
(-0.120344 -1.10287 0)
(-0.122136 -1.0911 0)
(-0.0938865 -1.00872 0)
(-0.0621898 -0.777822 0)
(-0.0772869 -0.491334 0)
(-0.157828 -0.235088 0)
(-0.220083 0.0860621 0)
(-0.226025 0.387387 0)
(-0.230325 0.606741 0)
(-0.205563 0.726131 0)
(-0.183844 0.792167 0)
(-0.189746 0.838631 0)
(-0.217481 0.851555 0)
(-0.257649 0.817769 0)
(-0.357094 0.706718 0)
(-0.475457 0.5539 0)
(-0.52032 0.449853 0)
(-0.492492 0.383412 0)
(-0.432182 0.329084 0)
(-0.357376 0.2725 0)
(-0.283672 0.205869 0)
(-0.216043 0.132692 0)
(-0.154288 0.0801892 0)
(-0.116486 0.0476199 0)
(-0.111423 0.0250499 0)
(-0.1269 0.00524686 0)
(-0.142322 -0.00944026 0)
(-0.134582 -0.0172568 0)
(-0.105524 -0.0226065 0)
(0.356977 -0.900966 0)
(0.29368 -0.943893 0)
(0.0745612 -1.0363 0)
(-0.131977 -1.12003 0)
(-0.195521 -1.14801 0)
(-0.179595 -1.12247 0)
(-0.138883 -1.02061 0)
(-0.119922 -0.774494 0)
(-0.124859 -0.453193 0)
(-0.195869 -0.185367 0)
(-0.223288 0.144357 0)
(-0.219305 0.44098 0)
(-0.216895 0.643694 0)
(-0.188288 0.747448 0)
(-0.175957 0.798547 0)
(-0.202938 0.818862 0)
(-0.265154 0.79296 0)
(-0.364878 0.698723 0)
(-0.490436 0.554078 0)
(-0.55463 0.450204 0)
(-0.542033 0.393826 0)
(-0.487898 0.35103 0)
(-0.415864 0.311253 0)
(-0.336988 0.265055 0)
(-0.26367 0.207144 0)
(-0.193155 0.146745 0)
(-0.133347 0.105358 0)
(-0.101543 0.0774797 0)
(-0.102224 0.0520701 0)
(-0.122271 0.027603 0)
(-0.135988 0.00632545 0)
(-0.124142 -0.00975647 0)
(-0.0927821 -0.0261486 0)
(0.337204 -0.913691 0)
(0.223682 -0.976298 0)
(-0.0401415 -1.0873 0)
(-0.220818 -1.15784 0)
(-0.261697 -1.17585 0)
(-0.231869 -1.13889 0)
(-0.179306 -1.01876 0)
(-0.165882 -0.753927 0)
(-0.166174 -0.409102 0)
(-0.221647 -0.134836 0)
(-0.220473 0.19344 0)
(-0.209381 0.483137 0)
(-0.197522 0.668547 0)
(-0.167822 0.755523 0)
(-0.177566 0.783025 0)
(-0.243682 0.761349 0)
(-0.361677 0.674562 0)
(-0.498482 0.538385 0)
(-0.580226 0.434548 0)
(-0.583558 0.384733 0)
(-0.540538 0.354775 0)
(-0.473038 0.328205 0)
(-0.395572 0.299453 0)
(-0.317716 0.261486 0)
(-0.244993 0.211339 0)
(-0.172748 0.164878 0)
(-0.115528 0.130705 0)
(-0.0898476 0.102904 0)
(-0.0949459 0.0732899 0)
(-0.117924 0.0420847 0)
(-0.12931 0.0149876 0)
(-0.117554 -0.00595675 0)
(-0.0862094 -0.0233591 0)
(0.305436 -0.922261 0)
(0.134966 -1.0056 0)
(-0.148598 -1.11875 0)
(-0.299539 -1.1773 0)
(-0.320014 -1.18723 0)
(-0.278103 -1.13965 0)
(-0.217379 -1.0029 0)
(-0.200944 -0.720077 0)
(-0.19823 -0.362472 0)
(-0.23527 -0.0828473 0)
(-0.21427 0.23673 0)
(-0.197704 0.513857 0)
(-0.17684 0.682479 0)
(-0.153756 0.743573 0)
(-0.204346 0.726961 0)
(-0.333514 0.639054 0)
(-0.491555 0.508847 0)
(-0.593067 0.405865 0)
(-0.614816 0.361336 0)
(-0.585176 0.34165 0)
(-0.527425 0.328036 0)
(-0.454636 0.313359 0)
(-0.376929 0.292975 0)
(-0.301264 0.261116 0)
(-0.226089 0.220763 0)
(-0.151317 0.184468 0)
(-0.0982974 0.154116 0)
(-0.0772301 0.123101 0)
(-0.087455 0.0880944 0)
(-0.109489 0.0522288 0)
(-0.115545 0.0207874 0)
(-0.104123 -0.0059439 0)
(-0.0747259 -0.0193052 0)
(0.261076 -0.926725 0)
(0.0344496 -1.02884 0)
(-0.241566 -1.13075 0)
(-0.364859 -1.17951 0)
(-0.36963 -1.18215 0)
(-0.319981 -1.1268 0)
(-0.252626 -0.977164 0)
(-0.224499 -0.680244 0)
(-0.216728 -0.316606 0)
(-0.238029 -0.0311793 0)
(-0.210947 0.276948 0)
(-0.185824 0.534238 0)
(-0.160771 0.680069 0)
(-0.16143 0.696848 0)
(-0.278818 0.603523 0)
(-0.457717 0.469129 0)
(-0.584577 0.367424 0)
(-0.628001 0.325654 0)
(-0.616696 0.316163 0)
(-0.572823 0.31355 0)
(-0.509199 0.310984 0)
(-0.435857 0.304772 0)
(-0.360497 0.290144 0)
(-0.284571 0.263796 0)
(-0.204451 0.233247 0)
(-0.128975 0.201021 0)
(-0.0787837 0.169247 0)
(-0.0610743 0.132932 0)
(-0.0729981 0.0935394 0)
(-0.090793 0.0569154 0)
(-0.092057 0.027264 0)
(-0.0813165 -0.00628683 0)
(-0.0611984 -0.00862207 0)
(0.204406 -0.931917 0)
(-0.0611885 -1.04233 0)
(-0.316672 -1.12748 0)
(-0.416317 -1.16723 0)
(-0.410247 -1.16523 0)
(-0.356006 -1.1042 0)
(-0.281526 -0.947333 0)
(-0.236917 -0.642325 0)
(-0.224155 -0.272224 0)
(-0.23351 0.0181155 0)
(-0.207312 0.31091 0)
(-0.177683 0.542906 0)
(-0.161608 0.651544 0)
(-0.21269 0.591116 0)
(-0.382135 0.436809 0)
(-0.54259 0.316848 0)
(-0.617156 0.278177 0)
(-0.625714 0.277128 0)
(-0.600999 0.286294 0)
(-0.552802 0.294732 0)
(-0.488324 0.300276 0)
(-0.416645 0.299284 0)
(-0.341787 0.287602 0)
(-0.261054 0.267324 0)
(-0.175564 0.240538 0)
(-0.102584 0.208535 0)
(-0.0552935 0.172682 0)
(-0.0412489 0.130343 0)
(-0.0539704 0.0874279 0)
(-0.0656904 0.0536216 0)
(-0.0667146 0.0322821 0)
(-0.0542369 -0.000228706 0)
(-0.0626251 0.00992714 0)
(0.138003 -0.942881 0)
(-0.140939 -1.04511 0)
(-0.370541 -1.11327 0)
(-0.452447 -1.14574 0)
(-0.440526 -1.14103 0)
(-0.384749 -1.07811 0)
(-0.305061 -0.919169 0)
(-0.240393 -0.612678 0)
(-0.220992 -0.226274 0)
(-0.223889 0.071096 0)
(-0.201009 0.335641 0)
(-0.181755 0.535947 0)
(-0.20018 0.579737 0)
(-0.291211 0.443272 0)
(-0.453697 0.282861 0)
(-0.566565 0.212639 0)
(-0.604951 0.222024 0)
(-0.602365 0.243712 0)
(-0.575686 0.26357 0)
(-0.526889 0.28046 0)
(-0.463381 0.291442 0)
(-0.392818 0.292929 0)
(-0.314508 0.283752 0)
(-0.227038 0.266335 0)
(-0.14073 0.23911 0)
(-0.069474 0.20576 0)
(-0.0279737 0.166824 0)
(-0.0225902 0.121339 0)
(-0.0365225 0.0800808 0)
(-0.0426206 0.0529074 0)
(-0.0495674 0.0364429 0)
(-0.0421625 0.0162692 0)
(-0.0824367 0.0480383 0)
(0.0697807 -0.96044 0)
(-0.196899 -1.0405 0)
(-0.40405 -1.09173 0)
(-0.474613 -1.11921 0)
(-0.460508 -1.11519 0)
(-0.404758 -1.05413 0)
(-0.323276 -0.899558 0)
(-0.23962 -0.594331 0)
(-0.210681 -0.185887 0)
(-0.20973 0.120604 0)
(-0.19901 0.352224 0)
(-0.214723 0.506497 0)
(-0.267434 0.467764 0)
(-0.352411 0.311059 0)
(-0.468958 0.16225 0)
(-0.546113 0.146464 0)
(-0.567361 0.181131 0)
(-0.566733 0.215084 0)
(-0.541264 0.243426 0)
(-0.492959 0.26616 0)
(-0.430655 0.279517 0)
(-0.358041 0.281758 0)
(-0.274059 0.274633 0)
(-0.184273 0.256017 0)
(-0.0993505 0.228664 0)
(-0.0384998 0.193804 0)
(-0.0130379 0.1506 0)
(-0.0181331 0.106387 0)
(-0.0319181 0.0724966 0)
(-0.0363631 0.0549426 0)
(-0.0495482 0.0406557 0)
(-0.0680396 0.0438035 0)
(-0.142075 0.113375 0)
(0.0154139 -0.975285 0)
(-0.227281 -1.03175 0)
(-0.416894 -1.06654 0)
(-0.485407 -1.09019 0)
(-0.472719 -1.08933 0)
(-0.418811 -1.0342 0)
(-0.337139 -0.88815 0)
(-0.239833 -0.592273 0)
(-0.200829 -0.161652 0)
(-0.19759 0.160389 0)
(-0.213393 0.360613 0)
(-0.274571 0.453319 0)
(-0.317171 0.372253 0)
(-0.379529 0.213768 0)
(-0.44909 0.088859 0)
(-0.497574 0.10272 0)
(-0.517568 0.144632 0)
(-0.519949 0.186293 0)
(-0.496777 0.220764 0)
(-0.450524 0.24584 0)
(-0.388709 0.259849 0)
(-0.313617 0.263729 0)
(-0.228443 0.258177 0)
(-0.143011 0.241077 0)
(-0.0704248 0.214902 0)
(-0.0279393 0.177391 0)
(-0.0191576 0.13197 0)
(-0.0312659 0.0931841 0)
(-0.0431231 0.0696812 0)
(-0.0508544 0.0622441 0)
(-0.084258 0.0557617 0)
(-0.140324 0.10334 0)
(-0.260242 0.204079 0)
(-0.017705 -0.974116 0)
(-0.232671 -1.01377 0)
(-0.414617 -1.03766 0)
(-0.487496 -1.05835 0)
(-0.481209 -1.06245 0)
(-0.431937 -1.01695 0)
(-0.35296 -0.88157 0)
(-0.248292 -0.600385 0)
(-0.19032 -0.162031 0)
(-0.192008 0.190414 0)
(-0.250048 0.359702 0)
(-0.322765 0.400157 0)
(-0.339138 0.312912 0)
(-0.374023 0.151079 0)
(-0.416561 0.0551717 0)
(-0.446918 0.0688904 0)
(-0.464035 0.109246 0)
(-0.466518 0.152959 0)
(-0.44775 0.188587 0)
(-0.405422 0.215233 0)
(-0.345116 0.232521 0)
(-0.27026 0.240908 0)
(-0.190148 0.237811 0)
(-0.114727 0.224438 0)
(-0.0571321 0.200365 0)
(-0.0319726 0.160144 0)
(-0.0345761 0.11591 0)
(-0.0510949 0.0838345 0)
(-0.0696353 0.0719546 0)
(-0.0932869 0.0819986 0)
(-0.154365 0.112696 0)
(-0.255323 0.208017 0)
(-0.397057 0.290148 0)
(-0.0302527 -0.957197 0)
(-0.222865 -0.9873 0)
(-0.403744 -1.00354 0)
(-0.485517 -1.02328 0)
(-0.489689 -1.03301 0)
(-0.447936 -1.00011 0)
(-0.375074 -0.878436 0)
(-0.26858 -0.614752 0)
(-0.19195 -0.180458 0)
(-0.198065 0.208872 0)
(-0.28823 0.354958 0)
(-0.347141 0.370656 0)
(-0.340913 0.279984 0)
(-0.355756 0.111562 0)
(-0.385417 0.0361403 0)
(-0.404192 0.042218 0)
(-0.412753 0.0740729 0)
(-0.413193 0.108217 0)
(-0.39629 0.138106 0)
(-0.35507 0.165559 0)
(-0.296045 0.188616 0)
(-0.226718 0.202041 0)
(-0.158024 0.200534 0)
(-0.104751 0.18477 0)
(-0.0728389 0.157179 0)
(-0.0650571 0.123246 0)