/*--------------------------------*- C++ -*----------------------------------*\
  =========                 |
  \\      /  F ield         | OpenFOAM: The Open Source CFD Toolbox
   \\    /   O peration     | Website:  https://openfoam.org
    \\  /    A nd           | Version:  10
     \\/     M anipulation  |
\*---------------------------------------------------------------------------*/
FoamFile
{
    format      ascii;
    class       volScalarField;
    location    "0.299102";
    object      T;
}
// * * * * * * * * * * * * * * * * * * * * * * * * * * * * * * * * * * * * * //

dimensions      [0 0 0 1 0 0 0];

internalField   nonuniform List<scalar> 
16320
(
0.00198898
0.00206753
0.00206603
0.00174271
0.00151046
0.00151355
0.00171553
0.00222575
0.00313631
0.00367521
0.0037474
0.0037444
0.0038146
0.0039191
0.00398324
0.00416648
0.00463335
0.00562069
0.00615178
0.0064408
0.00682132
0.00753411
0.00837553
0.00869195
0.00875614
0.00864747
0.00827226
0.00768276
0.00705253
0.00653347
0.00607349
0.0056681
0.00544634
0.00533952
0.00528124
0.00525295
0.00516224
0.00499259
0.00460479
0.00372851
0.00289201
0.00253456
0.00243429
0.00265854
0.00315812
0.00372738
0.00428373
0.00477047
0.00503626
0.00516315
0.00523781
0.00531831
0.00547926
0.00585722
0.00680696
0.00835817
0.009428
0.00970169
0.00955191
0.00890173
0.0084471
0.00781552
0.00634288
0.00457644
0.00351037
0.00319543
0.00313101
0.00343393
0.00497039
0.00935353
0.0136189
0.0151622
0.0183078
0.0195276
0.0115374
0.00478676
0.00275522
0.00212471
0.00185041
0.00171744
0.00165194
0.00161867
0.00159483
0.00158251
0.0015801
0.00162096
0.00178055
0.00217266
0.00241245
0.00252079
0.0025256
0.0024076
0.00237085
0.00264641
0.00323096
0.00333483
0.00257434
0.00186593
0.00184631
0.00194586
0.00227876
0.00311919
0.00379949
0.00358337
0.0027576
0.00207105
0.00177914
0.00181187
0.00189102
0.00178773
0.00168063
0.0016384
0.00165014
0.00211089
0.00205811
0.0020144
0.00175319
0.00148932
0.0014672
0.00162194
0.00204165
0.00273968
0.00343598
0.00369758
0.00379388
0.00397189
0.00402346
0.00403636
0.00404977
0.00419808
0.00467995
0.00540719
0.00574908
0.00618606
0.00663897
0.00708539
0.00727561
0.00731961
0.00720014
0.00691423
0.00649048
0.00608172
0.00577449
0.00552177
0.00533768
0.00525512
0.00521868
0.00515629
0.00497641
0.00448703
0.00326695
0.00217501
0.0017245
0.00158034
0.00155933
0.00195993
0.00211652
0.00252586
0.00297226
0.00337618
0.00378087
0.00425214
0.00468478
0.00499431
0.00516618
0.00533393
0.00564438
0.006408
0.00792001
0.00907414
0.00941091
0.00930091
0.00886447
0.0084105
0.00737295
0.00567828
0.00422737
0.00343627
0.00321384
0.00318995
0.00351211
0.00500762
0.00889465
0.0127885
0.0150137
0.019148
0.0200136
0.0126636
0.00491886
0.00274599
0.00212326
0.00187601
0.00175652
0.00170207
0.00167818
0.00166535
0.00163616
0.00160074
0.0015975
0.00166767
0.00201235
0.00241428
0.00251173
0.00251261
0.00238743
0.00235539
0.00259756
0.00316691
0.00328512
0.00287421
0.00205202
0.00195564
0.00204577
0.0024333
0.00334986
0.00428799
0.00475057
0.00411
0.00265135
0.00195053
0.00179901
0.00188269
0.00184528
0.00174181
0.00168828
0.00170967
0.0022582
0.00207118
0.00198712
0.00177103
0.00148047
0.00142806
0.00153144
0.00185864
0.00238843
0.00308335
0.00360787
0.00381804
0.00402615
0.00409925
0.00414235
0.00415398
0.00409477
0.00419504
0.00467286
0.0049899
0.00543379
0.00609902
0.0063971
0.00648448
0.00647933
0.00636364
0.00613934
0.00583615
0.00556391
0.00539253
0.00526631
0.00518845
0.00515287
0.00508264
0.00481672
0.004059
0.00242559
0.00169037
0.00146248
0.0014246
0.00160361
0.00238238
0.00299792
0.00344342
0.00323929
0.00328399
0.00345084
0.00371404
0.00397568
0.00425569
0.00451308
0.00472368
0.00492313
0.00530577
0.00625263
0.0078052
0.00891082
0.00922256
0.00914098
0.00882213
0.00816519
0.00678446
0.00531019
0.00407651
0.00349745
0.00335979
0.00336517
0.00365833
0.00492912
0.00812687
0.0113091
0.0144925
0.0194655
0.0204408
0.0133052
0.00496125
0.00274277
0.00214644
0.00193002
0.00182708
0.00178355
0.00177256
0.001781
0.00176509
0.00170885
0.00164064
0.00164168
0.00180379
0.00235619
0.0024966
0.00249429
0.00234439
0.00233691
0.00252862
0.00306893
0.00324265
0.00307397
0.00242202
0.00218673
0.00225252
0.00254971
0.00335
0.00436509
0.00514057
0.00514498
0.00372647
0.00226653
0.00187783
0.00189175
0.00189029
0.00181622
0.00180731
0.00191579
0.00242549
0.00210588
0.00198467
0.00180065
0.00148611
0.0014042
0.00146414
0.00171477
0.0021277
0.00267785
0.00337236
0.00379695
0.00398004
0.00401539
0.00409736
0.0043035
0.00426303
0.00405391
0.00417632
0.00439286
0.00461539
0.00533228
0.00597696
0.00608838
0.00603477
0.00589272
0.00570693
0.00548468
0.00530256
0.00520127
0.00513877
0.00509733
0.00503753
0.00476713
0.0038949
0.00228237
0.00159104
0.00140781
0.00139746
0.00164132
0.00236572
0.00311511
0.00363011
0.00485241
0.00525898
0.00511846
0.00468866
0.00413758
0.00410676
0.00422521
0.00439371
0.00453954
0.00476083
0.00522386
0.00629844
0.00785678
0.00887035
0.00909804
0.00899069
0.00859352
0.00767286
0.00634206
0.00510923
0.00412186
0.00372827
0.00363513
0.00361323
0.00378489
0.00470908
0.00736333
0.0102177
0.0140702
0.019406
0.0206766
0.013448
0.00493166
0.00274487
0.00219549
0.00201015
0.00192732
0.00189909
0.0019261
0.00198512
0.00198009
0.00191294
0.00175889
0.00167426
0.00172743
0.00216241
0.00248953
0.00247821
0.00228607
0.00230175
0.00244853
0.00296196
0.00317436
0.0031176
0.00281052
0.00243939
0.00247239
0.00266461
0.00327855
0.00434582
0.00530016
0.0054351
0.00467738
0.00266654
0.0020038
0.00192783
0.00192742
0.00191024
0.00205183
0.00247232
0.00266716
0.00217082
0.00199146
0.00183656
0.00150796
0.00139661
0.00142356
0.00161437
0.00195163
0.00238932
0.00302615
0.00358172
0.00376574
0.00373652
0.00398813
0.00443403
0.00452307
0.00401844
0.0039729
0.00405698
0.00407909
0.004488
0.00544267
0.00579292
0.00579987
0.00563923
0.00546835
0.00529699
0.00517284
0.00510406
0.00506218
0.00500644
0.00479284
0.00407517
0.00257602
0.00165868
0.00140066
0.00136759
0.00150235
0.00197452
0.00249467
0.00273573
0.00329971
0.00535821
0.00743141
0.00713104
0.00663882
0.0056186
0.00464821
0.00440305
0.0044503
0.00455723
0.0047768
0.0052812
0.00650911
0.00805296
0.00885506
0.00892509
0.00859145
0.00792091
0.00707879
0.00611633
0.00528731
0.00464101
0.0040989
0.00382976
0.00369793
0.00379831
0.00445294
0.00665408
0.00939829
0.0135206
0.0191526
0.0207366
0.013199
0.00473706
0.00272216
0.00224144
0.00210016
0.00205001
0.0020479
0.00217998
0.0023216
0.002346
0.00225116
0.00200291
0.00176372
0.00172937
0.00199027
0.00247399
0.00246908
0.00224622
0.00226041
0.00236127
0.00276749
0.00311082
0.00310922
0.00301502
0.00271069
0.00267589
0.00280765
0.00326166
0.00426148
0.00541711
0.00553527
0.00488179
0.00295368
0.00213912
0.00197883
0.00197136
0.00204116
0.00254388
0.00390998
0.00302693
0.00230265
0.00201729
0.00187077
0.00155533
0.00139956
0.00140495
0.00155035
0.00181546
0.00220118
0.00269805
0.00310375
0.00327535
0.00349844
0.00406047
0.00465023
0.00474018
0.00404702
0.0038594
0.00390907
0.00381397
0.00395183
0.00479105
0.00552064
0.00563068
0.00551726
0.00534762
0.00520386
0.00511021
0.00505013
0.0050026
0.00487882
0.00442869
0.00327091
0.00193983
0.00145023
0.00134321
0.00134246
0.00147047
0.00159468
0.0016102
0.00173362
0.00232965
0.00446174
0.00825624
0.00939097
0.00914264
0.00806278
0.00596118
0.00492159
0.00472337
0.00475257
0.00494854
0.00558324
0.00711725
0.00842034
0.00878636
0.00856411
0.00773235
0.00707808
0.00661634
0.00627506
0.00595466
0.0052351
0.00429945
0.00386653
0.0036706
0.00372546
0.00426157
0.00622744
0.00888661
0.0130012
0.0188184
0.0206826
0.0125321
0.00446146
0.00266601
0.00227209
0.00218491
0.00216859
0.00227175
0.00255476
0.0028195
0.00290947
0.00281827
0.00248664
0.00196679
0.00177181
0.0018878
0.00241923
0.00246951
0.0022405
0.00223516
0.00229465
0.00254577
0.00297884
0.00308229
0.00305318
0.00289509
0.00284261
0.00294257
0.00326957
0.0041901
0.00552995
0.00554852
0.0048785
0.00301855
0.00220567
0.00202174
0.00202499
0.00222903
0.00329033
0.00537857
0.00346427
0.00254318
0.00208354
0.00189609
0.00164106
0.0014169
0.00140234
0.0015167
0.00171882
0.00203522
0.0024621
0.00279065
0.00305084
0.00365808
0.004713
0.00521732
0.00498484
0.00411117
0.00379719
0.00384462
0.00369584
0.00368331
0.00428614
0.00524879
0.00550001
0.0054597
0.00529201
0.00515911
0.00507633
0.00500828
0.00493117
0.00469936
0.00399964
0.00263016
0.00166235
0.00135955
0.00129452
0.00128949
0.00130278
0.001295
0.00131232
0.00145455
0.00186272
0.00318082
0.0071883
0.0101834
0.0103339
0.0093156
0.00729804
0.00603934
0.00548228
0.00541789
0.00562397
0.00657892
0.00803783
0.00857791
0.00851483
0.00780586
0.00707299
0.00672119
0.00655516
0.00647931
0.0063078
0.00559621
0.00436365
0.00375804
0.00347873
0.00352178
0.0040509
0.00604032
0.00872601
0.0127981
0.018581
0.0205496
0.0120698
0.00430733
0.00262594
0.00228645
0.00224022
0.00225536
0.00252672
0.00299743
0.00331343
0.00336751
0.0032825
0.00296131
0.00231661
0.00187573
0.00185297
0.00223766
0.00247018
0.00224533
0.00222054
0.00225125
0.00239624
0.00277404
0.00300922
0.00304238
0.00297732
0.00295401
0.00303655
0.00329975
0.00419536
0.0055911
0.00554966
0.00456567
0.00293716
0.00222016
0.0020562
0.00208457
0.00245192
0.00408116
0.00598435
0.00388593
0.00289606
0.00220861
0.00193661
0.00174283
0.00147296
0.00140782
0.00150505
0.0016623
0.00190314
0.00227283
0.00258013
0.00307406
0.00428335
0.00528897
0.00544285
0.00510323
0.00415906
0.00375741
0.00380316
0.00365302
0.00356313
0.00400014
0.00502308
0.00541699
0.00543215
0.00528352
0.00514365
0.00505769
0.00497766
0.00486584
0.0045346
0.00368384
0.00233668
0.00158324
0.00132853
0.00125422
0.00123668
0.00123486
0.00124347
0.00127494
0.00137073
0.00168597
0.00267862
0.00548601
0.0100587
0.0107818
0.0103395
0.00874315
0.00764222
0.00710374
0.0070128
0.00726374
0.00805237
0.00849247
0.00842854
0.00782705
0.0071892
0.00685704
0.00673363
0.00673691
0.00679471
0.00661726
0.00567083
0.00438048
0.0036831
0.00331449
0.00329867
0.00379535
0.00586546
0.00875402
0.0128592
0.0184391
0.0203283
0.0120803
0.00428084
0.00259707
0.00229012
0.00226242
0.00230628
0.00268999
0.00323445
0.00348315
0.00352842
0.0034949
0.00329496
0.00275414
0.00207478
0.00187699
0.002085
0.00246438
0.00225114
0.00220735
0.00221982
0.00230173
0.00257608
0.00287436
0.00299347
0.00298159
0.00301294
0.00309637
0.00335047
0.00443116
0.00579637
0.00551856
0.00386522
0.00271124
0.00220048
0.00209697
0.00215824
0.00264757
0.00452977
0.00617783
0.00423227
0.00327953
0.00237179
0.00200683
0.00183662
0.00159572
0.0014331
0.00150883
0.00163846
0.00182581
0.00213169
0.00247899
0.00321948
0.00472011
0.00545963
0.00548494
0.00510179
0.00413265
0.00371394
0.00376911
0.00365041
0.00350846
0.00385284
0.00486516
0.00537611
0.00542291
0.0052875
0.00514656
0.00505364
0.004959
0.00481576
0.0044266
0.00355623
0.00231331
0.0015866
0.00133146
0.00125235
0.00123368
0.00123384
0.00124905
0.00127852
0.00136206
0.00164565
0.00252319
0.004367
0.00851492
0.0108739
0.0109683
0.0100672
0.00932942
0.00888701
0.00871589
0.00872117
0.00871687
0.00847852
0.00790955
0.00738284
0.00706916
0.00694173
0.0069975
0.00721763
0.007271
0.00687409
0.00564915
0.00448521
0.00372429
0.00328982
0.00318932
0.00358821
0.00557675
0.00881006
0.0129679
0.0182523
0.0200216
0.0127786
0.00442839
0.002596
0.00227238
0.00226438
0.00232361
0.00277608
0.00331672
0.00350944
0.00354324
0.00352371
0.00340418
0.00304072
0.00234691
0.00198262
0.00202997
0.00240939
0.0022478
0.00219432
0.00219701
0.00224334
0.00243075
0.00274318
0.00291032
0.00296631
0.00303016
0.00312923
0.00343072
0.00477757
0.00599586
0.0054434
0.00346834
0.00253478
0.00217909
0.00215449
0.00226142
0.00287568
0.0048219
0.00620917
0.00446893
0.00361818
0.00256466
0.00209406
0.00191637
0.00175712
0.00151665
0.00154081
0.00164159
0.00180136
0.00206663
0.00247914
0.00353271
0.0049948
0.0055357
0.00545504
0.00499624
0.00403984
0.00366212
0.003752
0.00365899
0.00348303
0.00378572
0.00477378
0.00535204
0.00542136
0.00530227
0.00515769
0.00505638
0.00494737
0.00479188
0.00440634
0.00357088
0.00235813
0.00162141
0.00135324
0.00126728
0.00124798
0.0012544
0.00128961
0.0013302
0.00138569
0.00166122
0.00257482
0.00409942
0.0068505
0.0104391
0.0110077
0.0108426
0.0104874
0.0101746
0.00986277
0.009403
0.00886181
0.00827053
0.00773891
0.00738896
0.00724398
0.00731712
0.00755616
0.007692
0.00763964
0.00702197
0.0058252
0.00496518
0.00404868
0.00339298
0.00315655
0.0034476
0.00523823
0.00887228
0.0129848
0.0179396
0.0196606
0.0140379
0.00483392
0.00264142
0.00225303
0.00222725
0.00228669
0.00279574
0.00330908
0.00344622
0.00347322
0.00347418
0.00338693
0.00308625
0.00253103
0.00210043
0.00203126
0.00227416
0.0022312
0.00218275
0.00217819
0.00220824
0.00234378
0.00264718
0.00282048
0.00291206
0.00301752
0.00314473
0.00356175
0.00525041
0.00626866
0.00544194
0.00335717
0.00249177
0.00221634
0.0022163
0.00237457
0.00310123
0.00502199
0.00612206
0.00460069
0.0038557
0.00275952
0.00217349
0.00199241
0.00190997
0.00166839
0.00163178
0.00167729
0.00181845
0.00208336
0.00261884
0.00405202
0.0052913
0.00557559
0.00532176
0.00473617
0.00388573
0.0036068
0.00375371
0.00368376
0.00347113
0.00374276
0.0047138
0.0053446
0.00542813
0.00532566
0.00517843
0.00506547
0.00494957
0.00479353
0.0044228
0.00363632
0.00248965
0.00171066
0.00141181
0.00131387
0.00129606
0.00131972
0.00137201
0.00139183
0.00141267
0.00176005
0.00276561
0.0039617
0.00566537
0.00848427
0.0106549
0.0109444
0.0108144
0.010639
0.0103283
0.00963831
0.00889646
0.00827272
0.00784058
0.00769791
0.00773018
0.00783661
0.00794567
0.00797136
0.0078637
0.00723443
0.00645055
0.00597483
0.00485046
0.00369774
0.00317096
0.00331915
0.00476111
0.00871246
0.0128586
0.0174749
0.0192988
0.015163
0.00530995
0.00271334
0.00222781
0.00217092
0.00221916
0.00273941
0.00328627
0.00339464
0.00337615
0.00328173
0.00318847
0.00300832
0.00257982
0.00216897
0.00205674
0.00217416
0.00220659
0.00216717
0.00216463
0.00218648
0.0022856
0.00254371
0.00271799
0.00283945
0.00297865
0.00314717
0.00375096
0.00578903
0.00655911
0.005459
0.00334647
0.00250405
0.00228864
0.00230098
0.00250089
0.00336157
0.00517166
0.00592525
0.00465323
0.00398749
0.00290139
0.00223509
0.0020562
0.00201241
0.0017943
0.00174316
0.00178219
0.00192273
0.00225278
0.00315297
0.00469912
0.00552017
0.00556856
0.00504465
0.00439479
0.00373892
0.00355156
0.00376474
0.00371865
0.00346331
0.00370197
0.00465117
0.00533849
0.00544258
0.00535
0.00519995
0.00508221
0.00495716
0.00480385
0.0044678
0.00378459
0.00276327
0.00189945
0.00153229
0.00141838
0.00140666
0.00145948
0.00148926
0.00139013
0.00140573
0.00177638
0.00270432
0.00366662
0.00525443
0.00707
0.00935235
0.0105805
0.0106461
0.0105603
0.010313
0.00966059
0.00892788
0.00842216
0.00816828
0.00807879
0.00806577
0.00808439
0.00810566
0.00809347
0.00799502
0.00772039
0.00761252
0.00731223
0.00606535
0.00414954
0.00323569
0.00320024
0.00414156
0.00799761
0.0124291
0.016839
0.0189077
0.0157093
0.00566509
0.00278404
0.00221541
0.00211943
0.00213797
0.00259173
0.00325838
0.00341765
0.00335483
0.00304797
0.00280777
0.00273231
0.0025597
0.0022155
0.002106
0.0021364
0.00218778
0.00215956
0.00216047
0.00218041
0.00225468
0.00246647
0.00262382
0.00275346
0.0028914
0.00314282
0.00402224
0.0063116
0.00678328
0.00546199
0.00348563
0.00261543
0.00238301
0.00240163
0.00265354
0.00364255
0.00526271
0.00552266
0.004662
0.00404585
0.00300837
0.00231041
0.00212579
0.00209124
0.00192223
0.0019158
0.00201611
0.00224765
0.00282747
0.00410721
0.00524134
0.00564553
0.00551432
0.00471952
0.00408787
0.00360738
0.00350993
0.00379502
0.00377048
0.00345935
0.00365516
0.00457701
0.00532797
0.00545387
0.00537203
0.00522592
0.00510013
0.00497511
0.00482903
0.00454419
0.00397749
0.00309583
0.00220309
0.0017721
0.00165051
0.00165666
0.00170796
0.00159421
0.0013296
0.00129416
0.00140496
0.00177831
0.00224032
0.00346674
0.00589237
0.00832368
0.00935625
0.00962481
0.00975952
0.00973266
0.00942808
0.00885893
0.00847802
0.00827495
0.00820207
0.00813669
0.00812729
0.00810268
0.00808552
0.0080304
0.00805883
0.00816011
0.00809683
0.00710615
0.00466485
0.00337283
0.00314246
0.00368402
0.00671269
0.0114182
0.0159093
0.018475
0.0158055
0.00587833
0.00285222
0.0022125
0.00208625
0.00207681
0.0024151
0.00316787
0.00343723
0.00337752
0.00296315
0.00259681
0.00249269
0.00244495
0.00224576
0.00214745
0.00213865
0.00217761
0.00216045
0.00216057
0.00217934
0.00224454
0.00239949
0.00251874
0.00263587
0.00281482
0.00318634
0.00456684
0.00693502
0.00697736
0.00535589
0.00355045
0.0027472
0.00249058
0.00250855
0.00280587
0.00391581
0.00520181
0.00511714
0.00466083
0.00408008
0.00316637
0.00245825
0.00225673
0.00223191
0.00216934
0.00227045
0.00251378
0.00297932
0.00382097
0.00491285
0.00554916
0.00565357
0.00536798
0.00439663
0.00383467
0.00350181
0.00348268
0.00384193
0.00382617
0.00345118
0.00358945
0.00444174
0.00530515
0.00545889
0.00539131
0.00525149
0.00512523
0.00499871
0.00485796
0.00462679
0.00417506
0.00343459
0.00257723
0.00215671
0.00207601
0.00210029
0.00209598
0.00168472
0.00126738
0.00117586
0.00117467
0.00127376
0.0013982
0.00172859
0.00265725
0.00664208
0.00860593
0.00879711
0.00884084
0.00883819
0.00878146
0.00858311
0.00840479
0.00826712
0.00819193
0.00814203
0.0080974
0.00807695
0.00804977
0.00807151
0.00814608
0.00832553
0.00830424
0.007571
0.00516762
0.00358817
0.00314337
0.0034229
0.00551294
0.0101217
0.0149068
0.0180654
0.015694
0.00596952
0.00291822
0.00222594
0.00207351
0.00204355
0.00226754
0.00300501
0.00346094
0.0034445
0.00299732
0.00251206
0.00235854
0.00231338
0.00224753
0.0021761
0.0021614
0.00217834
0.0021647
0.00216077
0.00217727
0.00222372
0.0023123
0.0024099
0.00257978
0.00282074
0.00341249
0.00566792
0.00753035
0.00713074
0.00495382
0.00355479
0.00286183
0.00262338
0.00264692
0.00300888
0.0042309
0.00502163
0.00476048
0.00466348
0.00414774
0.00340714
0.00275272
0.00255406
0.00254755
0.00265052
0.00287792
0.00328191
0.00390192
0.00471849
0.0053992
0.00563123
0.00561399
0.00506865
0.0041125
0.00364132
0.00341657
0.00346819
0.00390285
0.00389972
0.0034404
0.00350633
0.0042373
0.00525093
0.00545688
0.00541219
0.00527029
0.00514677
0.00502625
0.00489345
0.00470352
0.00435719
0.00375773
0.00298341
0.00263216
0.0026057
0.00267988
0.00261349
0.00186357
0.00128923
0.00115803
0.00114326
0.0011816
0.00123273
0.00134333
0.00166116
0.00262024
0.00735459
0.00823929
0.00845518
0.00848415
0.00846171
0.00839677
0.00829098
0.0082186
0.00814686
0.00811205
0.00806868
0.00804552
0.00805731
0.00810734
0.00823862
0.00843172
0.00843404
0.00787758
0.00572263
0.00391888
0.00321986
0.00333027
0.00468991
0.00868446
0.0138454
0.0176677
0.0155403
0.00611963
0.00299918
0.00225666
0.00207525
0.00203228
0.00217678
0.00279841
0.00349422
0.00356928
0.00315418
0.00252421
0.00229964
0.00223652
0.00221819
0.0021865
0.0021806
0.00218245
0.00217329
0.00215674
0.00215701
0.00217825
0.00225906
0.00240409
0.0025928
0.00293299
0.00415091
0.00724467
0.00806288
0.00706859
0.00462906
0.00351121
0.0029809
0.00278283
0.00281191
0.00323697
0.00447354
0.00479692
0.00441365
0.00468973
0.00429492
0.00372101
0.00322787
0.00310386
0.00313376
0.00333984
0.00366537
0.00413962
0.00471789
0.00529326
0.00557135
0.00561902
0.00549972
0.00467969
0.00386992
0.00349614
0.0033466
0.00346182
0.00397555
0.00399704
0.00343211
0.00343004
0.003968
0.00510964
0.00544624
0.00543938
0.00529755
0.00516711
0.0050541
0.00492583
0.00477268
0.00451303
0.00402291
0.00338324
0.00313086
0.00317461
0.00333313
0.00325898
0.002231
0.00138114
0.00117661
0.00115368
0.00118252
0.00121637
0.00128272
0.00150904
0.00205492
0.00440033
0.00685554
0.00776738
0.008073
0.0081663
0.0081683
0.00813771
0.00809411
0.00804428
0.00802198
0.00800391
0.00800808
0.0080299
0.00810129
0.00823761
0.00845663
0.00854392
0.00823858
0.00657776
0.00445184
0.00342452
0.00337805
0.00416604
0.00725965
0.0128984
0.0173499
0.0156052
0.00660186
0.00314995
0.00229512
0.0020887
0.00203802
0.00212722
0.00262156
0.00348106
0.00371133
0.00343448
0.00264829
0.00230418
0.00220747
0.00218125
0.00217864
0.00218067
0.00218342
0.0021773
0.0021216
0.00212303
0.00217571
0.00227554
0.00243681
0.00269382
0.00344046
0.00616497
0.00854779
0.00845527
0.00666576
0.00448927
0.00347963
0.00304341
0.00294504
0.0029964
0.00347411
0.0046041
0.00467224
0.0041224
0.00477456
0.00450741
0.00409871
0.00380827
0.00375417
0.00384152
0.004099
0.00443725
0.00483906
0.0052558
0.00551941
0.00558238
0.00555494
0.00521721
0.00430857
0.00367181
0.00338498
0.00329418
0.00345863
0.0040508
0.00409759
0.00341109
0.00333684
0.00369721
0.00474544
0.00540595
0.00545413
0.00534865
0.00519845
0.00507528
0.00495918
0.00482413
0.00461915
0.00424045
0.00376349
0.00359689
0.00373433
0.00397392
0.00393505
0.00278886
0.0015931
0.00125304
0.0012055
0.0012294
0.0012566
0.00128038
0.00150259
0.00202175
0.00289196
0.00439222
0.00580944
0.00677861
0.00729958
0.00753523
0.00765551
0.00770061
0.00772892
0.0077598
0.00780512
0.00786491
0.00793589
0.0080383
0.00819244
0.00842699
0.00864536
0.00855566
0.00759684
0.00520889
0.00378197
0.00350831
0.00389606
0.00596018
0.011466
0.016974
0.0158962
0.00752137
0.00339157
0.00233927
0.0020965
0.00204249
0.00210495
0.00249969
0.00339973
0.00384801
0.00373645
0.00298139
0.00238058
0.00221551
0.00217012
0.00215977
0.0021672
0.00217209
0.00216479
0.00210357
0.00213192
0.00220246
0.00233826
0.00256839
0.00315277
0.00530328
0.00854475
0.00917121
0.00863232
0.00649231
0.00445433
0.00345652
0.00304651
0.00299568
0.0030971
0.00370786
0.00466775
0.00462379
0.00395379
0.00490494
0.00472914
0.00448423
0.00436873
0.00435873
0.0045
0.00473667
0.00500466
0.0052888
0.0054897
0.00556064
0.0055485
0.00536452
0.00477283
0.0040142
0.00351851
0.00330249
0.00325755
0.00344775
0.0041036
0.00419593
0.00336392
0.00317865
0.00343289
0.00422108
0.00526401
0.00544954
0.00539638
0.00526739
0.00512563
0.00499057
0.00486728
0.00470896
0.00443853
0.00412511
0.00403606
0.00424328
0.00452141
0.00450636
0.00337063
0.00186551
0.00138536
0.00131621
0.00137104
0.00128857
0.0013204
0.00163061
0.00222093
0.00268167
0.00333658
0.00406625
0.00475104
0.00533382
0.00582885
0.0062356
0.00656086
0.006829
0.00706532
0.00728488
0.00748803
0.00768253
0.00786795
0.00808326
0.00834069
0.00865615
0.00867563
0.00817613
0.00607476
0.00425792
0.00369396
0.00385813
0.00521728
0.00991618
0.0164926
0.016357
0.00913253
0.00383931
0.00241359
0.00210099
0.00204301
0.00209443
0.00244682
0.0032672
0.0039557
0.00399427
0.00347978
0.00263049
0.00227575
0.00218322
0.00216219
0.00216418
0.00216848
0.00216577
0.00211756
0.00217459
0.00229589
0.00252901
0.00310606
0.00499898
0.00838535
0.00949242
0.00939017
0.00867446
0.00673251
0.00468853
0.00349968
0.00301107
0.002983
0.00314839
0.00390424
0.00467298
0.00457619
0.00386917
0.00502082
0.00492586
0.00482814
0.00479681
0.00484097
0.00498724
0.00516479
0.00534515
0.00550027
0.00556427
0.00554644
0.005412
0.00498206
0.00437778
0.00377702
0.00339792
0.00324337
0.00322871
0.00342563
0.00413311
0.00429756
0.00331649
0.00298147
0.00314571
0.00368947
0.00486961
0.00539768
0.00541032
0.0053366
0.00521918
0.0050776
0.00494239
0.00483103
0.00464579
0.00447369
0.00444751
0.00467932
0.0049315
0.00490676
0.00377289
0.00206164
0.00157285
0.00155143
0.00136712
0.0012815
0.0013567
0.00171825
0.00228561
0.00255398
0.0029069
0.00335828
0.00386876
0.00437505
0.0048644
0.00533055
0.00576559
0.00617338
0.00653096
0.00685781
0.00715177
0.00742966
0.00769111
0.00796017
0.00823458
0.00858901
0.00873272
0.0084675
0.00688432
0.00479273
0.00392197
0.00392983
0.00477512
0.00841994
0.0158042
0.0167915
0.0115111
0.0046804
0.00258643
0.00211772
0.00204307
0.00208695
0.00242174
0.00318731
0.00403623
0.00419967
0.00393964
0.00317669
0.00249679
0.00225457
0.00219203
0.0021811
0.00218467
0.00219133
0.00218565
0.00231773
0.00259512
0.00328184
0.00524845
0.00845934
0.00957677
0.00965644
0.00945382
0.00903008
0.0078129
0.00542686
0.00377728
0.00300575
0.00289512
0.00310414
0.00395801
0.00459239
0.00450062
0.00385279
0.00512167
0.00509159
0.00507573
0.00509626
0.00516906
0.00529798
0.00541805
0.00552996
0.00557836
0.00557843
0.00546403
0.00508427
0.00455461
0.00405053
0.00360212
0.00331268
0.00320065
0.00320682
0.00340164
0.00414405
0.00438872
0.00330954
0.00283042
0.00287126
0.00322108
0.00414204
0.00515261
0.00538461
0.0053596
0.00530042
0.0052068
0.0050876
0.00500006
0.00487725
0.00479437
0.00481258
0.00502322
0.00521722
0.00514387
0.00400575
0.00227376
0.00179947
0.00169902
0.00131889
0.00121998
0.00129559
0.00149773
0.00176766
0.00196321
0.00221304
0.0025761
0.00304728
0.00361001
0.0041904
0.0047372
0.00524753
0.0057093
0.00613197
0.00650635
0.00684394
0.00716479
0.00747334
0.00779006
0.00809394
0.00845638
0.00870579
0.00857648
0.00755581
0.00532167
0.0041627
0.00403043
0.00453137
0.00721781
0.0144289
0.0171063
0.014211
0.00607504
0.00290336
0.00215452
0.00204465
0.00207909
0.00239124
0.00313971
0.00407656
0.00435608
0.00427779
0.003805
0.00304599
0.00249827
0.00231192
0.00226955
0.0022719
0.00231261
0.00244073
0.00283198
0.00374235
0.00595452
0.00867134
0.00960781
0.00973621
0.00964306
0.00947199
0.00918221
0.0084689
0.00637767
0.00437939
0.00312768
0.00278809
0.00293053
0.0037412
0.00430977
0.00428537
0.00379513
0.00522539
0.00522934
0.00525742
0.00531921
0.00540458
0.00550515
0.00559004
0.00563582
0.00564179
0.00557835
0.00532435
0.00479235
0.00419216
0.00377461
0.0034564
0.00325236
0.00317196
0.00319223
0.00338181
0.0041406
0.00445735
0.00335055
0.00274493
0.00267052
0.00287586
0.00344824
0.00445063
0.00520304
0.00533527
0.00532171
0.00528998
0.00523198
0.0051778
0.00510619
0.00507084
0.00511082
0.0052735
0.00539894
0.00527494
0.00422796
0.00264436
0.00209441
0.00166559
0.00119942
0.00113874
0.0011468
0.00117781
0.00126651
0.00147654
0.00178749
0.00211805
0.00246707
0.00291322
0.00343946
0.00400337
0.00455714
0.00509379
0.00558536
0.00602956
0.00641902
0.00679001
0.00716278
0.00752988
0.00789828
0.00826842
0.00859965
0.00854175
0.00787725
0.00580579
0.00441233
0.00413135
0.00443179
0.00639045
0.0127061
0.0169792
0.0158109
0.00799872
0.00337527
0.00223761
0.00205866
0.00207992
0.00237024
0.00311399
0.00409813
0.00447706
0.00449849
0.0042908
0.00378452
0.00309846
0.00268272
0.00257799
0.00258962
0.00276959
0.00337229
0.0046002
0.00693147
0.00890939
0.00961438
0.00973053
0.00968188
0.00958767
0.00944802
0.00919905
0.00869283
0.00737024
0.00522292
0.00358795
0.00278288
0.00275357
0.00317075
0.00375879
0.00383022
0.00361691
0.00536511
0.0053824
0.00543517
0.00550953
0.00559357
0.00569005
0.00573854
0.0057521
0.00572822
0.00560858
0.00527229
0.00460951
0.00395328
0.00357529
0.00334158
0.00320758
0.00315406
0.00318645
0.00336648
0.00411484
0.00451101
0.00348683
0.00272976
0.00256989
0.00266724
0.00296571
0.0036301
0.00453546
0.00514514
0.00528479
0.00529746
0.00529667
0.00529341
0.00527794
0.00527837
0.00532597
0.00543616
0.00550082
0.00534789
0.00445226
0.00303832
0.00230184
0.0015758
0.00112058
0.00107746
0.00107163
0.00109473
0.00116899
0.00137655
0.00171077
0.00204566
0.00237337
0.00272825
0.00313747
0.00362082
0.00412174
0.00461499
0.00510979
0.00558484
0.00603958
0.00647927
0.00691352
0.00732653
0.0077289
0.00809623
0.00845459
0.00844031
0.00798047
0.00617909
0.00466638
0.00424743
0.00442007
0.00586406
0.0111271
0.0165942
0.0164769
0.00993493
0.00396108
0.00237382
0.00208658
0.00209353
0.00235888
0.00310313
0.0041161
0.00456182
0.00465312
0.00462867
0.00445119
0.00405199
0.00358941
0.00344392
0.0035549
0.00421879
0.00593045
0.00773408
0.00908776
0.00957808
0.00967103
0.00965425
0.00958172
0.00948306
0.00935066
0.00914439
0.00874868
0.00792641
0.00615704
0.0045427
0.0031013
0.00270848
0.00278476
0.00322647
0.00340265
0.00338172
0.00557751
0.00557877
0.00564548
0.00572985
0.00581939
0.00590238
0.00593013
0.00592899
0.00587291
0.00569923
0.0053162
0.00459969
0.00384795
0.00345504
0.0032634
0.00317725
0.00315058
0.00318862
0.00336085
0.0040598
0.0045503
0.00375188
0.00275485
0.00254463
0.00256777
0.00271385
0.00306846
0.00367049
0.00444537
0.00501835
0.00522448
0.00528356
0.00531467
0.00534664
0.00538619
0.00544337
0.00551941
0.00554501
0.00538419
0.00462089
0.00341493
0.00232412
0.00140685
0.00108633
0.00105449
0.0010477
0.00107429
0.00115773
0.00138833
0.00176379
0.00210202
0.00242913
0.00275435
0.00312405
0.00351099
0.00392546
0.0043933
0.0049238
0.00547701
0.00600866
0.00650233
0.00694679
0.00733395
0.00768371
0.00799511
0.00831986
0.0083272
0.00795692
0.00636867
0.00487018
0.0043589
0.00443926
0.00547725
0.00970124
0.0158046
0.0164377
0.0114467
0.0045468
0.00254088
0.00212863
0.00211918
0.002358
0.00309785
0.00412839
0.00462775
0.00479018
0.00490525
0.00511639
0.00516654
0.00510499
0.00517607
0.00564806
0.00679706
0.00834657
0.00914677
0.0095071
0.00958359
0.009585
0.0095009
0.00937559
0.0092552
0.00912716
0.00895872
0.00865946
0.00802084
0.00684644
0.00548679
0.0039042
0.00286363
0.00270607
0.00280707
0.00307494
0.00316659
0.00586823
0.0058313
0.00589381
0.00597442
0.0060752
0.0061432
0.00616051
0.00614691
0.00606983
0.00587161
0.00544003
0.00467148
0.00387814
0.00346217
0.00325916
0.00317982
0.00315818
0.00319727
0.00336204
0.00399273
0.00457471
0.00405355
0.00287874
0.00256607
0.00254571
0.0026204
0.00279489
0.00311538
0.00361108
0.0042529
0.00482792
0.00512198
0.00526283
0.00533539
0.00540475
0.00547402
0.00553943
0.00554887
0.0053863
0.00474989
0.00372463
0.00233771
0.00130875
0.00107705
0.00104847
0.00104308
0.00107277
0.0011923
0.00153026
0.00196329
0.00232955
0.00262393
0.00288437
0.00312365
0.00343043
0.00386186
0.00439964
0.00500577
0.00562849
0.00621028
0.00671609
0.00710844
0.00740674
0.0076609
0.007898
0.00816355
0.00817721
0.00784803
0.00637637
0.00497834
0.00443388
0.00445384
0.00516516
0.00836369
0.0146289
0.0161783
0.0125536
0.00508496
0.00272828
0.00219513
0.00216305
0.00238105
0.00311299
0.00415644
0.00471412
0.00492259
0.00518923
0.005824
0.00639398
0.00661177
0.00690259
0.00755079
0.00848621
0.00914071
0.00938284
0.00945163
0.00944229
0.00928925
0.00903643
0.00886418
0.00878674
0.00870174
0.00859311
0.00839402
0.00795707
0.00705023