/*--------------------------------*- C++ -*----------------------------------*\
  =========                 |
  \\      /  F ield         | OpenFOAM: The Open Source CFD Toolbox
   \\    /   O peration     | Website:  https://openfoam.org
    \\  /    A nd           | Version:  11
     \\/     M anipulation  |
\*---------------------------------------------------------------------------*/
FoamFile
{
    format      ascii;
    class       volScalarField;
    location    "9";
    object      mag(U);
}
// * * * * * * * * * * * * * * * * * * * * * * * * * * * * * * * * * * * * * //

dimensions      [0 1 -1 0 0 0 0];

internalField   nonuniform List<scalar> 
9600
(
0.99134
0.990244
0.989855
0.989099
0.988379
0.987845
0.987297
0.987382
0.987767
0.98842
0.989344
0.990634
0.992245
0.993918
0.99579
0.997854
1.00038
1.00276
1.0052
1.00849
1.01152
1.0126
1.01344
1.01585
1.01722
1.01711
1.01632
1.01487
1.01257
1.00741
0.993256
0.9755
0.965241
0.961746
0.96439
0.974124
0.997843
1.00778
1.04128
1.04724
0.992061
0.992054
0.992016
0.991968
0.991726
0.99169
0.991946
0.992673
0.99348
0.994787
0.996467
0.998322
1.00018
1.0026
1.00565
1.00883
1.0118
1.01482
1.01793
1.0206
1.02311
1.0266
1.02982
1.03098
1.03103
1.03121
1.03186
1.03219
1.03192
1.02987
1.02751
1.0274
1.02671
1.02414
1.02364
1.02478
1.0307
1.03785
1.0576
1.06685
0.991995
0.992002
0.991955
0.991768
0.991749
0.991897
0.992293
0.993186
0.994042
0.995121
0.996653
0.998444
1.00066
1.00282
1.00545
1.00871
1.01215
1.01515
1.01762
1.02011
1.0236
1.02749
1.03006
1.03058
1.03034
1.03056
1.03181
1.03408
1.03563
1.03558
1.03434
1.03142
1.02725
1.02119
1.01917
1.01951
1.02664
1.03617
1.05396
1.06637
0.991983
0.992011
0.991959
0.991763
0.991729
0.991848
0.992381
0.992961
0.994368
0.995558
0.996986
0.998599
1.00154
1.00385
1.00635
1.0088
1.01246
1.01608
1.01861
1.02047
1.02341
1.02667
1.02937
1.03091
1.03175
1.03184
1.0322
1.03275
1.03371
1.03357
1.03233
1.03079
1.03089
1.03044
1.0328
1.03331
1.03861
1.0461
1.05598
1.06926
0.991863
0.991925
0.991829
0.991607
0.991593
0.991826
0.992427
0.993256
0.994561
0.995715
0.997428
0.999207
1.00164
1.00398
1.00686
1.00946
1.01222
1.01515
1.01877
1.02182
1.02416
1.02579
1.02754
1.03045
1.03311
1.03389
1.03375
1.03273
1.03174
1.03128
1.03186
1.03268
1.03459
1.03531
1.03717
1.03525
1.03741
1.04156
1.05005
1.06544
0.99176
0.991822
0.991707
0.991461
0.991605
0.991813
0.992665
0.993303
0.99486
0.995917
0.997533
0.99915
1.0022
1.00437
1.00736
1.00921
1.01268
1.01599
1.01974
1.02156
1.02357
1.02578
1.02883
1.0311
1.03288
1.03357
1.03346
1.03295
1.03254
1.03214
1.03208
1.03221
1.03281
1.0329
1.03378
1.03537
1.03716
1.04432
1.04862
1.06543
0.991594
0.991675
0.991532
0.991343
0.991555
0.991779
0.992714
0.993322
0.995055
0.996143
0.997992
0.999317
1.00238
1.0051
1.00775
1.00943
1.01289
1.01615
1.01993
1.02192
1.02404
1.02607
1.02875
1.03073
1.03289
1.03431
1.03444
1.03412
1.03351
1.03268
1.03186
1.03139
1.03159
1.03162
1.03251
1.03459
1.03453
1.04031
1.04122
1.05766
0.991326
0.991493
0.991419
0.991207
0.991447
0.991672
0.992683
0.993473
0.995167
0.996201
0.998114
0.999708
1.0026
1.00475
1.00801
1.01037
1.01319
1.01586
1.01972
1.02258
1.02497
1.02675
1.02835
1.03012
1.03268
1.03493
1.03545
1.03518
1.03421
1.03292
1.03245
1.03166
1.03122
1.03064
1.03021
1.03153
1.02965
1.03565
1.03549
1.05276
0.991228
0.991323
0.991315
0.991105
0.991387
0.991592
0.992774
0.993373
0.995231
0.996394
0.998619
0.999936
1.00266
1.00521
1.00887
1.01077
1.01357
1.01595
1.02005
1.02324
1.02541
1.02706
1.02883
1.03054
1.03267
1.03481
1.03617
1.03622
1.0357
1.03441
1.03393
1.03228
1.0311
1.02977
1.02816
1.02914
1.02709
1.03195
1.02918
1.04296
0.990923
0.991043
0.991127
0.990874
0.991149
0.991421
0.992721
0.993261
0.995274
0.996417
0.99879
1.00007
1.00301
1.00521
1.00877
1.01123
1.01426
1.01642
1.01995
1.02308
1.02578
1.02788
1.02968
1.03084
1.03236
1.03423
1.03641
1.03733
1.03727
1.03582
1.03467
1.03262
1.0312
1.02988
1.02716
1.02717
1.02459
1.02764
1.02389
1.03528
0.990802
0.990828
0.991001
0.990745
0.991096
0.991313
0.992756
0.993357
0.995287
0.996376
0.998949
1.00069
1.0034
1.00545
1.00902
1.01204
1.01522
1.01722
1.01991
1.02331
1.0265
1.02849
1.0306
1.03138
1.03275
1.03414
1.03672
1.038
1.03847
1.03744
1.03635
1.03464
1.03233
1.03075
1.027
1.02599
1.02252
1.02457
1.02043
1.02905
0.990262
0.990417
0.990639
0.990373
0.990876
0.990992
0.992454
0.99327
0.995101
0.996162
0.998988
1.00079
1.00367
1.00582
1.00909
1.01197
1.01554
1.01802
1.02042
1.02324
1.02667
1.02857
1.03104
1.03203
1.0337
1.0342
1.03613
1.03763
1.03935
1.0391
1.03806
1.03656
1.03348
1.03176
1.02744
1.02578
1.02105
1.02162
1.01724
1.02339
0.990102
0.990136
0.990493
0.990177
0.990832
0.990894
0.992367
0.993198
0.99531
0.996273
0.998799
1.00108
1.00418
1.00655
1.00951
1.0124
1.01628
1.01891
1.02175
1.02381
1.02732
1.02885
1.03174
1.03268
1.03483
1.03508
1.03667
1.03783
1.03973
1.04069
1.03964
1.03921
1.03615
1.03436
1.0297
1.02704
1.02071
1.01979
1.01388
1.01848
0.989678
0.989561
0.989998
0.989613
0.990285
0.990504
0.99176
0.992839
0.994919
0.996272
0.998473
1.00096
1.00415
1.00666
1.01003
1.01233
1.01631
1.0192
1.02282
1.02421
1.02755
1.02885
1.03225
1.03302
1.03537
1.0356
1.03702
1.03795
1.0394
1.04141
1.04077
1.04128
1.03856
1.03694
1.03223
1.02919
1.02194
1.01955
1.01159
1.01399
0.989407
0.989212
0.989809
0.989387
0.990164
0.990257
0.991806
0.992994
0.994745
0.996537
0.99859
1.00104
1.00466
1.00703
1.01097
1.01303
1.01722
1.02011
1.02403
1.02536
1.02858
1.02961
1.0328
1.03365
1.03593
1.03662
1.03798
1.03911
1.0399
1.04241
1.04222
1.04345
1.04169
1.0407
1.03621
1.03311
1.02574
1.02194
1.012
1.01152
0.988613
0.988478
0.989056
0.988785
0.989464
0.989618
0.991002
0.992363
0.99439
0.995944
0.998332
1.00035
1.00456
1.00687
1.01114
1.01327
1.01751
1.02002
1.02436
1.02591
1.02949
1.0303
1.03261
1.0337
1.03558
1.03717
1.03813
1.03982
1.04021
1.04262
1.043
1.04479
1.04363
1.04331
1.03931
1.03659
1.0297
1.02541
1.01485
1.01078
0.988202
0.988106
0.988801
0.988565
0.989146
0.989776
0.990732
0.992141
0.99473
0.996169
0.999144
1.00089
1.00487
1.00725
1.0119
1.0143
1.0186
1.02085
1.02555
1.0273
1.03089
1.03214
1.03393
1.03487
1.03589
1.03768
1.0386
1.04085
1.04135
1.04382
1.04436
1.04687
1.04643
1.0471
1.04389
1.04173
1.03541
1.03081
1.02082
1.01413
0.987001
0.987053
0.987527
0.987607
0.988037
0.988703
0.990202
0.991054
0.99393
0.995334
0.998669
1.00055
1.00465
1.00697
1.01167
1.01428
1.01892
1.02126
1.02571
1.02787
1.03094
1.03257
1.03427
1.03568
1.03615
1.03751
1.03813
1.04031
1.04103
1.04399
1.04498
1.04807
1.04811
1.04961
1.04749
1.04575
1.04051
1.03557
1.02702
1.01835
0.986463
0.986706
0.987161
0.987389
0.988014
0.988358
0.990331
0.991257
0.994162
0.995612
0.999207
1.00132
1.00572
1.00828
1.01309
1.01553
1.02038
1.02296
1.02718
1.02974
1.03224
1.03415
1.03531
1.03711
1.03732
1.03861
1.03913
1.04073
1.0416
1.04454
1.04604
1.04992
1.05085
1.05317
1.05249
1.05149
1.04798
1.043
1.03593
1.02603
0.984705
0.985097
0.985696
0.985746
0.98672
0.986986
0.989021
0.990064
0.99328
0.994963
0.998656
1.00095
1.00538
1.00824
1.01319
1.01606
1.02048
1.02382
1.0273
1.03058
1.03277
1.035
1.03557
1.03725
1.03723
1.03796
1.03856
1.03987
1.04111
1.04406
1.04558
1.04966
1.05188
1.05497
1.05637
1.05575
1.05468
1.04943
1.04528
1.03362
0.984136
0.984607
0.98549
0.98532
0.986557
0.986896
0.989154
0.990221
0.993647
0.995599
0.999539
1.00222
1.00678
1.01001
1.01495
1.01858
1.02242
1.02671
1.02952
1.03321
1.03473
1.0374
1.03746
1.03893
1.03855
1.03877
1.03904
1.03959
1.04074
1.04378
1.04618
1.05034
1.05356
1.05717
1.06071
1.06138
1.06303
1.05851
1.05695
1.04432
0.982089
0.982354
0.983636
0.983426
0.984857
0.985165
0.987546
0.988945
0.992302
0.99471
0.998678
1.00179
1.00633
1.01054
1.01484
1.01996
1.02325
1.02808
1.03057
1.03496
1.03569
1.03869
1.03815
1.03943
1.03876
1.03838
1.03832
1.03834
1.0391
1.04116
1.04401
1.04807
1.05314
1.05708
1.06312
1.06429
1.06929
1.06561
1.06781
1.0556
0.981868
0.981951
0.983364
0.983108
0.984657
0.985226
0.987502
0.989491
0.992846
0.995796
0.999698
1.00392
1.00746
1.01338
1.01697
1.02301
1.02601
1.03194
1.03378
1.03873
1.03919
1.04226
1.04158
1.04199
1.04115
1.04001
1.03889
1.03831
1.03861
1.03976
1.04281
1.04636
1.05214
1.05672
1.06486
1.06798
1.07602
1.07422
1.08021
1.06827
0.979455
0.979409
0.980997
0.980909
0.982223
0.983355
0.985311
0.988162
0.990789
0.995321
0.99813
1.00391
1.00718
1.01371
1.01711
1.02412
1.02692
1.03353
1.03497
1.04065
1.04102
1.04376
1.04339
1.04343
1.04214
1.04033
1.03852
1.03709
1.03665
1.03667
1.03937
1.04203
1.04845
1.05319
1.06289
1.06735
1.07893
1.07928
1.08967
1.08009
0.979071
0.979436
0.98038
0.981402
0.981564
0.984213
0.985243
0.989393
0.991489
0.997006
0.999884
1.00629
1.00993
1.01684
1.02084
1.02827
1.03098
1.03816
1.03995
1.04476
1.04603
1.04805
1.04759
1.04691
1.04523
1.04288
1.0401
1.03727
1.03596
1.03476
1.0368
1.03841
1.04482
1.04948
1.06006
1.06614
1.08041
1.08377
1.09862
1.09329
0.974494
0.976742
0.976502
0.978797
0.978747
0.981788
0.982626
0.987361
0.989808
0.995312
0.999452
1.00537
1.01014
1.01734
1.02157
1.02962
1.03327
1.03966
1.04297
1.0469
1.04896
1.05
1.05002
1.04878
1.04643
1.04332
1.03988
1.03589
1.03333
1.03045
1.03131
1.03162
1.03707
1.04113
1.0517
1.05886
1.07514
1.0819
1.10119
1.10187
0.972927
0.976074
0.975822
0.978607
0.978838
0.981905
0.984604
0.987955
0.992474
0.997622
1.00244
1.00919
1.01412
1.02174
1.02733
1.03405
1.04042
1.04509
1.05037
1.05304
1.05597
1.05658
1.05638
1.05471
1.05177
1.04762
1.04324
1.03765
1.03344
1.02846
1.02713
1.02518
1.02883
1.0314
1.04129
1.04867
1.06557
1.07541
1.09811
1.10669
0.968278
0.970975
0.971874
0.973314
0.975667
0.977632
0.98114
0.985272
0.990012
0.995894
1.00172
1.0083
1.0152
1.0217
1.02995
1.03579
1.04346
1.04797
1.05396
1.05665
1.05962
1.06022
1.05985
1.05805
1.05445
1.04961
1.04419
1.03732
1.03137
1.02479
1.02119
1.01659
1.0173
1.01732
1.02423
1.03059
1.04562
1.05799
1.0808
1.09778
0.969858
0.971105
0.97278
0.974058
0.9768
0.978911
0.983863
0.987319
0.993928
0.999161
1.0072
1.01263
1.02229
1.028
1.03797
1.04366
1.0524
1.05765
1.06362
1.0671
1.06966
1.07068
1.06988
1.0677
1.06357
1.05804
1.05113
1.04324
1.03509
1.02622
1.01956
1.01206
1.00843
1.00536
1.00721
1.0115
1.02091
1.03474
1.05283
1.07785
0.963457
0.965062
0.9681
0.968513
0.972943
0.97475
0.98073
0.984222
0.992496
0.997174
1.00753
1.01302
1.02423
1.03021
1.04123
1.04764
1.05695
1.06302
1.06899
1.07338
1.07588
1.07717
1.07635
1.07424
1.0696
1.06392
1.05613
1.04718
1.03752
1.02663
1.01691
1.00728
0.998916
0.9931
0.987167
0.989068
0.987943
1.00162
1.00749
1.04115
0.964322
0.96534
0.96972
0.970478
0.975966
0.977992
0.985495
0.989635
0.998888
1.00487
1.01596
1.02269
1.03472
1.04244
1.05319
1.06176
1.07044
1.07797
1.08392
1.08897
1.09132
1.09311
1.0917
1.0899
1.08459
1.07865
1.06986
1.06049
1.04855
1.03719
1.02318
1.01247
0.99698
0.989172
0.973743
0.972569
0.959128
0.969407
0.962098
0.993207
0.953874
0.956151
0.960709
0.96368
0.968761
0.973479
0.981274
0.987265
0.997823
1.00484
1.01708
1.02537
1.03724
1.04795
1.05868
1.06918
1.07825
1.08708
1.09304
1.0993
1.10149
1.10431
1.10244
1.10128
1.09531
1.09028
1.0796
1.07137
1.05648
1.04629
1.02748
1.01686
0.995813
0.986084
0.963315
0.958044
0.935607
0.937193
0.91837
0.937317
0.952447
0.957026
0.961955
0.965655
0.972206
0.977567
0.986709
0.994204
1.00607
1.0169
1.02881
1.04216
1.05378
1.06691
1.07777
1.09033
1.09913
1.10993
1.11544
1.12334
1.12505
1.12932
1.1264
1.1273
1.11944
1.11674
1.10433
1.0982
1.08113
1.07195
1.05128
1.03931
1.01543
1.00239
0.975201
0.96331
0.934021
0.9256
0.893649
0.896687
0.942001
0.946208
0.954378
0.959192
0.968487
0.975668
0.985932
0.996676
1.008
1.02145
1.03352
1.04859
1.06061
1.07669
1.08776
1.10275
1.11146
1.12441
1.12932
1.13953
1.13983
1.14668
1.14234
1.14507
1.13648
1.13511
1.12297
1.11785
1.10177
1.09281
1.0724
1.06009
1.03508
1.0204
0.991741
0.975298
0.943426
0.92684
0.892658
0.877583
0.940417
0.947462
0.954064
0.962706
0.971105
0.983099
0.993729
1.00996
1.02274
1.04199
1.05621
1.07656
1.0897
1.10953
1.12046
1.13878
1.14702
1.16284
1.16711
1.17965
1.17964
1.18787
1.18406
1.18746
1.1802
1.17938
1.16828
1.1635
1.14997
1.14121
1.125
1.11176
1.09183
1.0744
1.04981
1.02988
1.0008
0.976901
0.947253
0.919213
0.928936
0.942881
0.953044
0.967053
0.977245
0.993449
1.00499
1.02355
1.03651
1.05787
1.07218
1.09517
1.10909
1.13184
1.14356
1.16427
1.17228
1.19016
1.19344
1.20771
1.20635
1.21609
1.21111
1.21545
1.20883
1.20766
1.20093
1.19525
1.18783
1.17929
1.16947
1.15846
1.14438
1.1298
1.10959
1.09171
1.06742
1.04493
1.02151
0.992158
0.923429
0.937896
0.949744
0.970184
0.985515
1.01017
1.02882
1.05676
1.07642
1.10389
1.12227
1.14783
1.16389
1.18737
1.20015
1.22113
1.22924
1.24717
1.24987
1.26449
1.26133
1.2729
1.26451
1.27345
1.26149
1.2686
1.2547
1.26086
1.24563
1.25077
1.234
1.23701
1.21775
1.21505
1.19494
1.18312
1.1591
1.14055
1.11306
1.10456
0.930805
0.959229
0.975692
1.00336
1.02083
1.04743
1.06663
1.09268
1.11506
1.14126
1.16474
1.19032
1.21176
1.23479
1.25203
1.2713
1.28303
1.29801
1.30328
1.31404
1.31273
1.32014
1.313
1.31823
1.30712
1.31231
1.29975
1.30706
1.29512
1.30533
1.29398
1.30673
1.29282
1.30453
1.28188
1.28698
1.24964
1.24642
1.19113
1.18507
0.95216
0.993663
1.02544
1.06897
1.10325
1.14167
1.1787
1.21161
1.24927
1.2779
1.31098
1.33582
1.36303
1.38309
1.4042
1.4189
1.43337
1.44181
1.44887
1.44987
1.44936
1.44226
1.43493
1.42223
1.41011
1.39354
1.37789
1.36239
1.34724
1.33751
1.32756
1.32465
1.32294
1.32766
1.33834
1.33765
1.35153
1.33814
1.27799
1.27065
1.11223
1.14988
1.18742
1.22535
1.26237
1.29752
1.32986
1.35898
1.38602
1.40505
1.42774
1.43657
1.45413
1.45759
1.47147
1.46773
1.47432
1.4605
1.45775
1.43529
1.42182
1.39105
1.36277
1.32447
1.28072
1.23601
1.18071
1.1316
1.06593
1.02125
0.944306
0.904516
0.835698
0.781076
0.769367
0.660591
0.249301
0.0216304
0.144523
0.218747
1.09076
1.10674
1.12834
1.1418
1.21106
1.31442
1.15348
0.869486
0.762857
0.749067
0.846956
1.02082
1.12021
1.12261
1.08184
1.05797
1.04487
1.03902
1.0303
1.02928
1.02475
1.02432
1.02192
1.02143
1.02095
1.02022
1.01964
1.01935
1.01812
1.01802
1.01709
1.01695
1.01638
1.01588
1.01541
1.01469
1.01448
1.01376
1.01354
1.01066
1.09554
1.10534
1.12138
1.11134
1.16385
1.23736
1.1166
0.886332
0.794406
0.764131
0.852374
1.03786
1.16162
1.16068
1.10565
1.06876
1.0524
1.04374
1.03355
1.03157
1.02676
1.02574
1.02339
1.02239
1.02195
1.02115
1.02048
1.02032
1.01909
1.019
1.01796
1.01784
1.01709
1.01683
1.01612
1.01562
1.01516
1.01486
1.01453
1.01246
1.08648
1.09213
1.09933
1.06779
1.10044
1.19444
1.09962
0.885543
0.795572
0.761005
0.857438
1.05236
1.20837
1.20265
1.13171
1.07909
1.05941
1.04698
1.03593
1.03293
1.02804
1.02661
1.02441
1.0229
1.02256
1.02146
1.02102
1.02068
1.01954
1.01943
1.01835
1.01823
1.01733
1.01721
1.01638
1.01602
1.01558
1.01564
1.01517
1.01341
1.08519
1.08532
1.08275
1.04029
1.03837
1.09069
1.03016
0.875052
0.782871
0.755329
0.846513
1.05257
1.23929
1.25075
1.16243
1.09152
1.0672
1.05215
1.03926
1.03502
1.02967
1.02765
1.0256
1.02347
1.02314
1.02192
1.02151
1.02112
1.02004
1.01989
1.01876
1.01863
1.0177
1.0176
1.01667
1.01653
1.01595
1.01606
1.01613
1.01722
1.07407
1.06989
1.05615
1.00084
0.977544
1.03847
0.978988
0.842112
0.754858
0.727777
0.819853
1.04358
1.25632
1.29726
1.19687
1.10552
1.07516
1.05666
1.04246
1.03683
1.03145
1.02889
1.02705
1.02472
1.02417
1.02264
1.02237
1.0217
1.0208
1.02057
1.01933
1.01911
1.01823
1.01805
1.0172
1.01718
1.01655
1.01641
1.0157
1.01393
1.06603
1.05834
1.03811
0.977823
0.916669
0.930714
0.892266
0.797284
0.723725
0.693652
0.775345
1.01871
1.25886
1.32047
1.22863
1.12206
1.08232
1.06126
1.04626
1.03927
1.03366
1.0304
1.02851
1.0261
1.02551
1.02386
1.02341
1.0226
1.02184
1.02157
1.02031
1.02008
1.01911
1.01887
1.01795
1.01771
1.01717
1.01736
1.01727
1.01836
1.05351
1.04025
1.01563
0.945243
0.86813
0.867945
0.844202
0.762205
0.693584
0.653171
0.72982
1.01246
1.26911
1.32305
1.25222
1.13999
1.08938
1.06393
1.04918
1.04018
1.03529
1.03153
1.0294
1.02729
1.02645
1.0249
1.02436
1.02346
1.02267
1.02228
1.02109
1.02081
1.01973
1.01952
1.01869
1.01834
1.01768
1.01738
1.01683
1.0154
1.04387
1.02688
0.999504
0.933785
0.834253
0.793031
0.777407
0.730872
0.668799
0.631698
0.715355
1.03698
1.28819
1.31225
1.249
1.15345
1.09494
1.06624
1.05228
1.04109
1.03661
1.03243
1.02989
1.02804
1.02695
1.02547
1.02481
1.02388
1.02313
1.02269
1.02165
1.02126
1.02015
1.01974
1.01907
1.01858
1.01821
1.01812
1.01815
1.0186
1.03347
1.01285
0.982112
0.919872
0.819304
0.776082
0.764229
0.723724
0.67257
0.651887
0.767532
1.11523
1.32066
1.29289
1.22129
1.16097
1.09993
1.06679
1.05417
1.04178
1.03751
1.03345
1.03048
1.02901
1.02752
1.02616
1.02538
1.0244
1.02359
1.02303
1.02212
1.02164
1.02067
1.02013
1.01958
1.01881
1.01834
1.018
1.01783
1.01695
1.02438
1.00389
0.969922
0.918579
0.832157
0.77381
0.755647
0.73458
0.705953
0.723192
0.877369
1.18817
1.32139
1.26028
1.17564
1.15391
1.10072
1.06549
1.05531
1.04289
1.03817
1.03488
1.03148
1.03016
1.02847
1.0273
1.02656
1.02545
1.02461
1.02395
1.02319
1.02247
1.02164
1.02068
1.02013
1.01957
1.01919
1.0188
1.01865
1.01872
1.01528
0.995071
0.958529
0.915298
0.849895
0.806408
0.793229
0.783329
0.779336
0.834363
0.999552
1.20757
1.29723
1.227
1.13611
1.12461
1.09646
1.06285
1.05462
1.04285
1.03826
1.03586
1.03245
1.0315
1.02953
1.0286
1.02769
1.02671
1.02591
1.02509
1.02443
1.02366
1.02293
1.02222
1.02111
1.02055
1.01958
1.01912
1.01861
1.01806
1.00916
0.988073
0.955395
0.920223
0.876489
0.83667
0.823541
0.835222
0.857025
0.931001
1.04935
1.19488
1.25599
1.18981
1.09435
1.07846
1.08741
1.05695
1.05057
1.04203
1.03658
1.03544
1.03241
1.03196
1.03005
1.02908
1.02815
1.02732
1.02656
1.02565
1.02501
1.02424
1.02353
1.02302
1.02216
1.02169
1.02066
1.02015
1.01954
1.01934
1.00347
0.982062
0.955465
0.924266
0.893406
0.875652
0.866771
0.882298
0.90965
0.973951
1.06127
1.16768
1.20891
1.15574
1.05219
1.03269
1.07116
1.04732
1.04374
1.04042
1.03429
1.03438
1.03164
1.03139
1.03036
1.02917
1.02858
1.02764
1.02701
1.026
1.02544
1.02471
1.02399
1.02352
1.02268
1.02213
1.02115
1.02066
1.01996
1.01936
0.999895
0.980942
0.962778
0.938362
0.91568
0.904844
0.901477
0.919394
0.944427
0.995514
1.06084
1.12988
1.15556
1.11514
1.00172
0.988868
1.04525
1.03626
1.03555
1.03724
1.0322
1.03359
1.03127
1.03092
1.03095
1.02984
1.02932
1.02813
1.02755
1.02655
1.02581
1.02509
1.02441
1.02388
1.02322
1.02265
1.02188
1.02114
1.02062
1.02031
0.999505
0.982259
0.969916
0.952902
0.937525
0.938288
0.941022
0.956892
0.973119
1.00728
1.04549
1.08874
1.10356
1.06771
0.951706
0.947595
1.01523
1.0248
1.0243
1.03305
1.03002
1.03299
1.03177
1.03105
1.03129
1.03059
1.03023
1.02947
1.02882
1.02796
1.02698
1.02628
1.02526
1.02463
1.02379
1.02312
1.02258
1.02183
1.02111
1.02046
1.00163
0.989359
0.982311
0.974613
0.967815
0.969529
0.977011
0.992545
1.00306
1.01652
1.036
1.05079
1.0557
1.0111
0.899817
0.904857
0.983556
1.00964
1.01044
1.02571
1.02559
1.02958
1.03097
1.03049
1.03118
1.03077
1.03062
1.03028
1.02963
1.02911
1.02844
1.02782
1.02678
1.02611
1.0252
1.02449
1.02364
1.02298
1.02225
1.02175
1.00643
0.997606
0.995081
0.992043
0.999117
1.00857
1.01936
1.03163
1.04054
1.0392
1.02913
1.02002
1.00872
0.950499
0.851068
0.864218
0.956716
0.990404
0.996554
1.01487
1.0192
1.02367
1.02805
1.02878
1.03047
1.03063
1.03072
1.03066
1.0302
1.02965
1.02917
1.02871
1.02798
1.02742
1.02649
1.02581
1.02481
1.02405
1.02307
1.02256
1.01212
1.01093
1.01351
1.01714
1.02989
1.04579
1.06083
1.0708
1.08056
1.04704
1.01537
0.986328
0.955141
0.881081
0.79996
0.829489
0.932855
0.967572
0.98374
1.00335
1.01303
1.01857
1.02432
1.02622
1.02888
1.02986
1.0305
1.03076
1.0307
1.03019
1.02975
1.02934
1.02867
1.02822
1.02731
1.0267
1.02581
1.02496
1.02437
1.02352
1.02249
1.02502
1.03034
1.04377
1.06187
1.08848
1.10849
1.11961
1.11225
1.0447
0.99025
0.938113
0.883336
0.799818
0.754925
0.805633
0.90965
0.947074
0.972942
0.993499
1.00731
1.01447
1.02067
1.02362
1.02719
1.02898
1.03009
1.03071
1.03093
1.0306
1.03026
1.02979
1.02933
1.02871
1.02795
1.02723
1.02644
1.02557
1.02518
1.02475
1.03308
1.04388
1.05183
1.07671
1.09974
1.13422
1.16012
1.18197
1.12118
1.02771
0.942595
0.867745
0.792831
0.715868
0.716784
0.791443
0.886847
0.928844
0.961474
0.984152
0.998455
1.01061
1.01712
1.02215
1.02567
1.02814
1.02956
1.03055
1.03113
1.03116
1.03108
1.03043
1.0301
1.0293
1.0288
1.02799
1.02744
1.02634
1.02589
1.02533
1.04787
1.06265
1.07495
1.10392
1.14111
1.19394
1.2275
1.22031
1.118
0.982232
0.864073
0.772832
0.687618
0.648816
0.694529
0.789572
0.868056
0.91256
0.949569
0.974232
0.989224
1.00528
1.01349
1.01984
1.02359
1.02686
1.02905
1.03035
1.03145
1.03162
1.03209
1.03148
1.03131
1.03048
1.02995
1.02898
1.02871
1.02778
1.02743
1.0268
1.06249
1.07944
1.10578
1.1373
1.18718
1.26052
1.29992
1.23829
1.07917
0.891127
0.748467
0.657168
0.601784
0.616493
0.69283
0.794334
0.856358
0.900737
0.938984
0.965256
0.982769
0.998574
1.00907
1.01655
1.02218
1.02567
1.02861
1.02998
1.03161
1.03189
1.03278
1.03253
1.03272
1.03195
1.03158
1.03028
1.02972
1.02874
1.02832
1.02772
1.08284
1.09882
1.13257
1.16976
1.24951
1.34441
1.34605
1.22177
0.975864
0.747214
0.607718
0.560642
0.575641
0.625786
0.714411
0.799761
0.853451
0.897389
0.931399
0.958766
0.978203
0.992264
1.00492
1.01288
1.01977
1.02348
1.0276
1.02914
1.03137
1.0317
1.03299
1.03276
1.03332
1.03263
1.03258
1.0316
1.03122
1.03019
1.0299
1.02939
1.09841
1.12039
1.16376
1.212
1.33209
1.41322
1.34791
1.13565
0.808308
0.594144
0.521671
0.569304
0.617763
0.672594
0.749347
0.809494
0.856424
0.901684
0.929174
0.955779
0.975913
0.988721
1.00066
1.00945
1.01649
1.02125
1.0261
1.02779
1.03094
1.03139
1.03319
1.03308
1.03401
1.03322
1.03339
1.03236
1.03223
1.03118
1.03094
1.03034
1.11383
1.14419
1.19138
1.26382
1.41749
1.4241
1.30351
0.998545
0.694248
0.605242
0.635004
0.676992
0.696
0.736429
0.79103
0.829845
0.870022
0.910366
0.936504
0.958182
0.976122
0.990077
0.999055
1.00973
1.01526
1.02078
1.02553
1.02759
1.03105
1.03166
1.03379
1.03381
1.03522
1.03472
1.03535
1.03431
1.03448
1.03341
1.03331
1.03262
1.12423
1.15873
1.20745
1.31949
1.43379
1.35887
1.13088
0.944858
0.841404
0.823913
0.798057
0.776994
0.771865
0.8041
0.835338
0.864774
0.897165
0.924236
0.950837
0.965963
0.982211
0.996506
1.00216
1.01333
1.01766
1.02314
1.02768
1.03029
1.03274
1.03412
1.03549
1.03551
1.0369
1.03603
1.0368
1.03557
1.03562
1.03453
1.0345
1.03405
1.12962
1.16597
1.22001
1.33909
1.32206
1.16043
1.04012
0.993039
0.948237
0.924217
0.86366
0.855977
0.84571
0.87366
0.886355
0.914142
0.930673
0.946237
0.970034
0.98207
0.993045
1.00489
1.0099
1.01762
1.02299
1.02657
1.03068
1.03311
1.03422
1.03657
1.03683
1.0376
1.03831
1.03767
1.03816
1.03724
1.03728
1.03633
1.03612
1.03556
1.12097
1.14335
1.20708
1.26057
1.12456
1.00693
0.995696
0.977373
0.951116
0.929484
0.887257
0.90816
0.920564
0.944688
0.946826
0.967755
0.967845
0.981593
0.993544
1.0039
1.00991
1.0165
1.02097
1.02447
1.02846
1.03038
1.03282
1.03536
1.03573
1.03775
1.03755
1.0381
1.0383
1.03792
1.03833
1.03799
1.03815
1.0381
1.03778
1.03825
1.09097
1.10694
1.15128
1.08161
0.898263
0.880732
0.89419
0.890467
0.891727
0.879735
0.886791
0.922798
0.956959
0.996342
1.01702
1.02184
1.02028
1.02306
1.02385
1.03183
1.03363
1.03468
1.0361
1.03665
1.03649
1.0386
1.03812
1.04082
1.04092
1.04225
1.04287
1.04262
1.04349
1.04253
1.04299
1.04207
1.04158
1.04101
1.03973
1.04029
1.03396
1.03995
1.02758
0.879951
0.711468
0.711734
0.744002
0.758604
0.778679
0.806433
0.858111
0.912417
0.969338
1.01554
1.05874
1.07617
1.08402
1.06787
1.06998
1.06642
1.0667
1.06292
1.06003
1.0599
1.05489
1.05582
1.05235
1.05394
1.05171
1.05215
1.05186
1.0511
1.05175
1.04992
1.05058
1.04844
1.04808
1.04673
1.04569
1.04595
0.968524
0.951796
0.89428
0.722525
0.549907
0.548913
0.574617
0.597155
0.641717
0.699805
0.783627
0.86724
0.953069
1.01677
1.07305
1.10599
1.12697
1.12252
1.11803
1.10686
1.10864
1.0978
1.09468
1.08842
1.08317
1.07798
1.07397
1.0712
1.06712
1.06625
1.06316
1.0625
1.05975
1.05824
1.05629
1.05395
1.05225
1.05021
1.04946
1.0488
0.902972
0.862391
0.79486
0.646164
0.469065
0.43331
0.416518
0.428662
0.470598
0.542071
0.653672
0.774371
0.895145
0.995331
1.07047
1.11673
1.14973
1.16194
1.15852
1.14969
1.14467
1.13531
1.12827
1.1175
1.11349
1.10002
1.09773
1.08739
1.08465
1.0795
1.07625
1.07413
1.07053
1.06943
1.06562
1.06455
1.06088
1.06009
1.05854
1.05775
0.860313
0.806654
0.751175
0.668334
0.512895
0.439353
0.374413
0.324725
0.302115
0.341723
0.458602
0.609157
0.77453
0.925723
1.03569
1.10786
1.15341
1.17677
1.18868
1.18456
1.17444
1.17242
1.1591
1.1528
1.14363
1.1339
1.12651
1.11589
1.11033
1.10066
1.09655
1.08917
1.08562
1.07971
1.07653
1.07301
1.07022
1.06841
1.06657
1.06684
0.841255
0.799446
0.74524
0.704207
0.621782
0.538135
0.493853
0.441873
0.352331
0.261083
0.249801
0.367179
0.566053
0.770901
0.940895
1.05937
1.13093
1.17553
1.20151
1.21242
1.21184
1.20455
1.20035
1.19035
1.18028
1.17447
1.1618
1.15692
1.14452
1.13855
1.12831
1.12159
1.1142
1.10576
1.1013
1.095
1.09248
1.0873
1.08717
1.0839
0.88208
0.854448
0.813245
0.777321
0.735311
0.673311
0.632278
0.617036
0.607233
0.537464
0.409498
0.289207
0.324085
0.525426
0.753485
0.933563
1.06198
1.14275
1.19321
1.22223
1.23692
1.23974
1.23716
1.23181
1.22433
1.21624
1.20925
1.19847
1.18991
1.18253
1.17079
1.16585
1.15557
1.1482
1.13855
1.13179
1.12212
1.11617
1.1089
1.10634
0.972237
0.954575
0.936246
0.912649
0.866768
0.80824
0.748073
0.709552
0.722195
0.77003
0.757707
0.678949
0.52745
0.388582
0.479475
0.696241
0.887362
1.0225
1.12069
1.17896
1.22342
1.24443
1.25649
1.25989
1.26022
1.25461
1.2507
1.24295
1.23825
1.23222
1.22511
1.21806
1.21479
1.20755
1.20206
1.19365
1.18416
1.17483
1.16222
1.15595
1.07747
1.05256
1.02188
0.963171
0.911529
0.863089
0.79154
0.742325
0.729755
0.746066
0.791328
0.833417
0.833207
0.791483
0.673103
0.505689
0.491351
0.640628
0.819718
0.969327
1.06477
1.1404
1.19172
1.22391
1.24152
1.25024
1.25725
1.25803
1.25781
1.25489
1.25241
1.24834
1.24417
1.23963
1.23693
1.23257
1.22869
1.22345
1.21602
1.21017
1.136
1.07772
1.03139
0.963375
0.899334
0.834003
0.747863
0.692541
0.687509
0.685016
0.68721
0.699849
0.709181
0.690343
0.663853
0.649483
0.606551
0.474828
0.376001
0.411623
0.542767
0.674714
0.820367
0.963322
1.06997
1.12489
1.18135
1.20732
1.23049
1.24441
1.25374
1.25555
1.25592
1.25061
1.24823
1.24308
1.24528
1.24583
1.24709
1.2531
1.14722
1.01156
0.886908
0.775173
0.674687
0.551507
0.447314
0.389916
0.304202
0.262599
0.289806
0.359
0.422597
0.449488
0.45673
0.456015
0.428655
0.4071
0.398198
0.368818
0.345606
0.297528
0.150971
0.194557
0.343812
0.506521
0.637569
0.756853
0.849208
0.914383
0.978415
1.02518
1.07641
1.1135
1.14613
1.17543
1.19566
1.21813
1.23241
1.24051
0.232042
0.232374
0.229951
0.267929
0.306527
0.346848
0.380166
0.405556
0.42299
0.428542
0.420573
0.403124
0.372914
0.330773
0.288673
0.244594
0.217983
0.201702
0.185073
0.204535
0.22527
0.246988
0.248602
0.257295
0.301709
0.315071
0.262268
0.228093
0.497259
0.611735
0.664879
0.709682
0.746667
0.779108
0.815812
0.849803
0.89208
0.933671
0.98545
1.03554
1.00962
1.00325
0.998344
0.99141
0.986193
0.98288
0.982824
0.986872
0.994906
1.0048
1.01405
1.01684
1.01696
1.01541
1.01391
1.01311
1.01317
1.01307
1.01298
1.01269
1.01243
1.01209
1.01179
1.01148
1.01116
1.01081
1.01044
1.01007
1.00969
1.0093
1.00887
1.00841
1.00792
1.00744
1.00696
1.00649
1.00604
1.0056
1.00519
1.00493
1.01282
1.01937
1.02196
1.02624
1.0272
1.02797
1.02768
1.02554
1.02114
1.01613
1.01371
1.01316
1.01366
1.01457
1.01546
1.01563
1.0155
1.0152
1.01483
1.01448
1.01412
1.0137
1.01324
1.01281
1.01236
1.01188
1.0114
1.01099
1.01061
1.01021
1.00971
1.00915
1.00861
1.00806
1.00749
1.00691
1.00638
1.00592
1.00553
1.00524
1.00905
1.00563
1.00456
1.00443
1.00664
1.00865
1.01087
1.01251
1.01348
1.01398
1.01392
1.01441
1.0149
1.01543
1.01566
1.0157
1.01561
1.01538
1.01509
1.01477
1.01443
1.01406
1.01366
1.01322
1.01279
1.01232
1.01183
1.01142
1.01109
1.01072
1.01023
1.0097
1.00911
1.0086
1.00805
1.00751
1.00697
1.00659
1.0062
1.00589
1.02154
1.02555
1.02724
1.02797
1.02811
1.02739
1.02535
1.02246
1.01941
1.01697
1.016
1.01591
1.01616
1.0162
1.01614
1.01596
1.01573
1.01551
1.01528
1.01502
1.0147
1.01429
1.01382
1.01336
1.01292
1.01246
1.01201
1.01162
1.01127
1.01087
1.01039
1.00986
1.00928
1.00872
1.00821
1.00764
1.0071
1.00672
1.00635
1.00605
1.01032
1.01077
1.01145
1.0122
1.01324
1.01348
1.01403
1.01443
1.01477
1.01508
1.01525
1.01569
1.01596
1.01613
1.01609
1.01608
1.01603
1.01582
1.01542
1.0151
1.01491
1.01469
1.01433
1.01375
1.01327
1.01281
1.01244
1.01208
1.01174
1.01137
1.01088
1.01038
1.00984
1.0093
1.00877
1.00829
1.00769
1.00727
1.00686
1.00652
1.02151
1.02337
1.02409
1.0243
1.0241
1.02332
1.02219
1.02093
1.01971
1.01866
1.01789
1.0174
1.01711
1.01696
1.0169
1.01677
1.01649
1.01611
1.01571
1.01536
1.01508
1.0148
1.01439
1.01386
1.01336
1.01292
1.01255
1.01209
1.01172
1.01143
1.01093
1.01041
1.00985
1.00931
1.00886
1.00832
1.0078
1.00738
1.00705
1.00671
1.01327
1.01435
1.01462
1.01502
1.01525
1.01539
1.01591
1.0162
1.01649
1.01661
1.01665
1.01675
1.01678
1.0169
1.01693
1.01696
1.01672
1.01635
1.01597
1.01575
1.01555
1.01528
1.01481
1.01433
1.01386
1.01352
1.01306
1.01275
1.01231
1.01201
1.01152
1.01101
1.01045
1.01
1.0094
1.00887
1.00836
1.00799
1.00751
1.0071
1.02025
1.02125
1.02155
1.02183
1.0215
1.02109
1.02049
1.02
1.01948
1.01913
1.01871
1.01835
1.01798
1.01774
1.01762
1.01754
1.01729
1.01675
1.01635
1.01601
1.01573
1.0154
1.01492
1.01441
1.01398
1.0135
1.01316
1.0128
1.01248
1.01203
1.01155
1.01107
1.01054
1.01011
1.00953
1.00903
1.00856
1.00816
1.00775
1.00731
1.01603
1.01633
1.01635
1.01664
1.01689
1.01724
1.01748
1.01763
1.0177
1.01786
1.01792
1.01799
1.01789
1.01789
1.01791
1.01787
1.01753
1.01722
1.01696
1.01679
1.01648
1.0161
1.01561
1.01523
1.01472
1.01429
1.01387
1.01358
1.01321
1.01284
1.0123
1.01174
1.01128
1.01079
1.01021
1.0097
1.00914
1.0087
1.00829
1.008
1.01945
1.02019
1.02034
1.02053
1.02045
1.02044
1.02013
1.01997
1.01965
1.01962
1.01931
1.01914
1.01873
1.0187
1.01854
1.0184
1.01788
1.0176
1.01737
1.01703
1.01661
1.01625
1.01582
1.01534
1.01493
1.01444
1.01404
1.01369
1.01335
1.01293
1.01246
1.01192
1.01149
1.011