/*--------------------------------*- C++ -*----------------------------------*\
  =========                 |
  \\      /  F ield         | OpenFOAM: The Open Source CFD Toolbox
   \\    /   O peration     | Website:  https://openfoam.org
    \\  /    A nd           | Version:  11
     \\/     M anipulation  |
\*---------------------------------------------------------------------------*/
FoamFile
{
    format      ascii;
    class       surfaceScalarField;
    location    "9";
    object      phi;
}
// * * * * * * * * * * * * * * * * * * * * * * * * * * * * * * * * * * * * * //

dimensions      [0 3 -1 0 0 0 0];

internalField   nonuniform List<scalar> 
18960
(
0.0887847
0.000437962
-0.0892227
0.0883848
0.000399947
0.0880211
0.000363676
0.087674
0.000347035
0.0873656
0.000308409
0.0870746
0.000291071
0.0868233
0.000251249
0.0866244
0.000198863
0.0864571
0.000167328
0.0863471
0.000109978
0.086267
8.01264e-05
0.0862442
2.28064e-05
0.0862442
-1.61339e-08
0.0862874
-4.31724e-05
0.0863622
-7.48439e-05
0.0864835
-0.000121215
0.0866249
-0.000141413
0.0867759
-0.000150992
0.0869851
-0.000209229
0.0872378
-0.000252669
0.0873989
-0.000161178
0.0874954
-9.6438e-05
0.0876611
-0.000165676
0.0878874
-0.000226354
0.0880376
-0.000150229
0.0881127
-7.50658e-05
0.0881454
-3.26826e-05
0.0881492
-3.79759e-06
0.0880291
0.000120128
0.087475
0.000554087
0.0863835
0.00109151
0.0853405
0.00104292
0.0847658
0.000574736
0.0849195
-0.000153659
0.0855036
-0.00058411
0.0871544
-0.00165082
0.0889411
-0.00178675
0.0910674
-0.00212621
0.0937822
-0.00271482
-0.00185673
0.0956389
0.0888707
0.000791056
-0.0892238
0.0885447
0.000725949
0.0882448
0.00066356
0.0879631
0.000628738
0.087697
0.000574473
0.0874726
0.000515478
0.087282
0.000441844
0.0871182
0.000362665
0.0870038
0.000281719
0.0869285
0.000185302
0.0869248
8.38721e-05
0.086917
3.05378e-05
0.0869773
-6.0284e-05
0.0870927
-0.000158532
0.087245
-0.000227209
0.0874323
-0.00030848
0.087616
-0.000325087
0.0878422
-0.000377197
0.0880639
-0.000430969
0.088261
-0.000449738
0.0885266
-0.000426784
0.0888304
-0.0004003
0.0890591
-0.000394374
0.0891887
-0.000355911
0.0892966
-0.000258126
0.089446
-0.000224443
0.0896364
-0.000223107
0.0898074
-0.000174779
0.0899372
-9.69519e-06
0.0900525
0.000438737
0.0902443
0.000899714
0.0904105
0.000876734
0.0903024
0.000682856
0.0902129
-6.41285e-05
0.0902305
-0.000601761
0.0904955
-0.00191576
0.0912789
-0.00257018
0.0923808
-0.00322812
0.0939771
-0.00431111
-0.0038745
0.0959949
0.0888951
0.00114493
-0.089249
0.0885725
0.00104855
0.0882716
0.000964429
0.0879903
0.000910016
0.0877295
0.000835275
0.0874932
0.000751836
0.0872944
0.000640597
0.0871279
0.000529147
0.0870175
0.000392172
0.086977
0.000225781
0.086957
0.000103925
0.087018
-3.05194e-05
0.08707
-0.000112311
0.0871699
-0.000258392
0.0873226
-0.000379882
0.0875114
-0.000497265
0.0877099
-0.000523618
0.0878697
-0.000537026
0.088033
-0.000594208
0.0882692
-0.000685943
0.0885621
-0.000719694
0.0888476
-0.000685777
0.0890173
-0.000564129
0.0890718
-0.000410376
0.0891593
-0.000345644
0.0893135
-0.00037861
0.0895811
-0.000490784
0.0899351
-0.000528776
0.0902439
-0.000318488
0.0905395
0.000143205
0.0906799
0.000759227
0.0906487
0.000907991
0.0904593
0.00087228
0.0900966
0.000298536
0.0900084
-0.00051355
0.0900449
-0.00195222
0.0908831
-0.00340841
0.0917474
-0.0040924
0.093367
-0.00593077
-0.00540501
0.0948975
0.0888394
0.00150497
-0.0891995
0.088539
0.00134897
0.0882361
0.00126735
0.0879643
0.00118183
0.0877142
0.00108538
0.0875151
0.000950928
0.0873413
0.000814351
0.0872227
0.000647749
0.0871388
0.00047612
0.0870839
0.000280652
0.0870542
0.00013366
0.0870919
-6.82554e-05
0.0871813
-0.000201754
0.0872553
-0.000332368
0.087359
-0.000483542
0.0875307
-0.000668942
0.0877527
-0.000745676
0.087944
-0.000728337
0.0880971
-0.000747301
0.088272
-0.000860871
0.0885342
-0.000981813
0.0887968
-0.00094839
0.0890324
-0.00079973
0.0892141
-0.000592114
0.089337
-0.000468541
0.089446
-0.00048762
0.0896014
-0.000646133
0.0898232
-0.000750612
0.0901212
-0.00061647
0.0904127
-0.000148349
0.0906658
0.000506131
0.0908759
0.000697976
0.0911305
0.000617621
0.0912055
0.000223521
0.0912804
-0.000588425
0.0911191
-0.00179089
0.0915786
-0.00386793
0.0920655
-0.00457929
0.0930593
-0.00692458
-0.00692548
0.0945798
0.0888505
0.00184055
-0.0891861
0.0885292
0.00167023
0.0882335
0.00156307
0.087972
0.00144337
0.0877312
0.00132613
0.0875373
0.00114482
0.0873568
0.000994831
0.0872495
0.000755088
0.0871595
0.000566123
0.0870976
0.000342537
0.0871104
0.000120881
0.0871366
-9.44945e-05
0.0871993
-0.000264386
0.0873024
-0.000435539
0.0874455
-0.000626618
0.0875809
-0.000804288
0.0877316
-0.000896432
0.0879475
-0.000944202
0.0881595
-0.000959341
0.0883671
-0.00106849
0.0885013
-0.001116
0.0886563
-0.00110334
0.0888793
-0.00102273
0.0891922
-0.00090504
0.0894476
-0.000723945
0.0895864
-0.00062639
0.0896379
-0.000697643
0.0896881
-0.000800842
0.0898781
-0.000806491
0.0902149
-0.000485067
0.0906788
4.2207e-05
0.0910911
0.000285672
0.0914737
0.000235051
0.0917206
-2.3379e-05
0.0916936
-0.000561454
0.0913978
-0.00149507
0.0912154
-0.00368557
0.091371
-0.00473485
0.0919711
-0.00752476
-0.00812799
0.0931736
0.0888213
0.00217023
-0.0891509
0.0885311
0.00196039
0.088251
0.00184315
0.0879979
0.0016965
0.0877658
0.00155818
0.087572
0.00133869
0.0874147
0.00115213
0.0873006
0.000869189
0.0872241
0.000642548
0.0871966
0.000370071
0.0871846
0.000132902
0.0872299
-0.000139833
0.0873123
-0.000346749
0.0874078
-0.000531096
0.0874936
-0.000712392
0.0876145
-0.000925147
0.0878066
-0.00108857
0.0880261
-0.00116371
0.0882028
-0.00113607
0.0883197
-0.00118537
0.088489
-0.00128524
0.0887137
-0.00132809
0.088971
-0.00128003
0.0892163
-0.0011503
0.0894122
-0.000919864
0.0895688
-0.000782999
0.0896771
-0.000805917
0.0898001
-0.00092385
0.0899791
-0.000985511
0.0902705
-0.000776516
0.0906139
-0.000301135
0.0909588
-5.92888e-05
0.0912601
-6.62167e-05
0.0915043
-0.00026754
0.0916672
-0.000724349
0.0916464
-0.00147433
0.0915264
-0.00356554
0.0915296
-0.00473805
0.091762
-0.00775717
-0.00900915
0.0926432
0.0888254
0.00248906
-0.0891442
0.088537
0.00224882
0.0882638
0.00211636
0.088025
0.00193526
0.087796
0.00178715
0.0876105
0.00152421
0.0874512
0.00131142
0.0873437
0.000976774
0.0872923
0.000693878
0.0872581
0.000404266
0.0872365
0.000154509
0.0872794
-0.000182677
0.0873759
-0.000443305
0.0874592
-0.000614357
0.0875472
-0.000800391
0.087663
-0.00104099
0.087855
-0.0012805
0.0880591
-0.00136788
0.088228
-0.00130496
0.0883579
-0.00131522
0.0885096
-0.00143702
0.0887087
-0.00152711
0.0889215
-0.00149291
0.089165
-0.00139373
0.0894207
-0.0011756
0.0896185
-0.000980824
0.0897457
-0.00093309
0.0898702
-0.00104831
0.0900079
-0.00112329
0.0902557
-0.00102427
0.0905703
-0.000615716
0.0908852
-0.000374262
0.0911879
-0.000368852
0.0914469
-0.000526554
0.0916322
-0.000909654
0.0916773
-0.00151942
0.0913124
-0.0032007
0.0910622
-0.00448778
0.090799
-0.00749404
-0.00928493
0.0910748
0.0887792
0.00280671
-0.0890968
0.0885073
0.00252073
0.0882602
0.00236348
0.088023
0.00217246
0.0878128
0.00199731
0.0876361
0.00170088
0.0875086
0.00143894
0.0874154
0.00106997
0.08736
0.000749342
0.0873091
0.000455149
0.087327
0.0001366
0.0873674
-0.000223121
0.0874364
-0.000512265
0.0875185
-0.000696455
0.0876366
-0.000918472
0.0877528
-0.00115727
0.0878715
-0.00139919
0.0880432
-0.00153958
0.0882598
-0.00152151
0.0884202
-0.00147566
0.0885802
-0.00159701
0.0887073
-0.00165414
0.0888761
-0.00166174
0.0891217
-0.00163936
0.0894272
-0.00148111
0.0896999
-0.00125344
0.0898638
-0.00109699
0.0899643
-0.00114889
0.0900837
-0.00124267
0.0902863
-0.00122684
0.0905938
-0.000923207
0.090852
-0.000632457
0.0910852
-0.000602103
0.0912812
-0.000722493
0.0914488
-0.00107733
0.0915208
-0.00159142
0.091237
-0.00291683
0.0909766
-0.00422739
0.0905794
-0.00709687
-0.00918599
0.0904805
0.0888088
0.00311396
-0.089116
0.0885142
0.00281534
0.0882722
0.00260543
0.0880516
0.00239302
0.0878679
0.00218109
0.087695
0.00187372
0.0875716
0.00156233
0.0874855
0.00115614
0.0874422
0.000792571
0.08743
0.000467386
0.0874325
0.00013407
0.0874383
-0.000228863
0.0875131
-0.000587134
0.0876382
-0.000821467
0.0877342
-0.0010145
0.0878124
-0.00123545
0.0879222
-0.00150903
0.0880791
-0.00169647
0.0882918
-0.00173424
0.0884817
-0.00166552
0.0885945
-0.00170989
0.0887353
-0.0017949
0.0889041
-0.00183056
0.0891074
-0.00184268
0.089385
-0.00175869
0.0897036
-0.00157204
0.0899192
-0.00131258
0.0900726
-0.00130229
0.0902031
-0.00137319
0.0903945
-0.00141816
0.0906678
-0.00119654
0.0909081
-0.000872788
0.0911144
-0.000808418
0.0912451
-0.000853132
0.0913812
-0.00121347
0.0914607
-0.00167092
0.0912252
-0.0026813
0.090816
-0.00381816
0.0900363
-0.00631722
-0.00870657
0.0895569
0.0887514
0.00340978
-0.0890472
0.0885001
0.00306669
0.0882616
0.00284389
0.0880463
0.00260834
0.087867
0.00236033
0.0877236
0.00201718
0.0876118
0.00167405
0.0875374
0.00123058
0.0874945
0.000835447
0.0874865
0.000475391
0.0874846
0.000135966
0.087509
-0.000253232
0.0875731
-0.000651207
0.0876548
-0.00090317
0.0877684
-0.00112816
0.0878826
-0.0013496
0.0879853
-0.00161173
0.0881247
-0.00183584
0.0883045
-0.00191413
0.0884842
-0.00184517
0.0886524
-0.0018781
0.0888048
-0.00194728
0.0889322
-0.00195802
0.0890841
-0.00199452
0.0893082
-0.00198277
0.0896383
-0.00190213
0.0899629
-0.00163724
0.0901968
-0.00153617
0.0903518
-0.00152823
0.0905016
-0.00156789
0.0907149
-0.00140986
0.0909254
-0.00108332
0.0911151
-0.00099808
0.091254
-0.000992014
0.0912932
-0.00125274
0.0913454
-0.00172313
0.0912129
-0.00254877
0.0909229
-0.00352812
0.0900667
-0.00546102
-0.00814492
0.089505
0.0888072
0.00369728
-0.0890947
0.0885277
0.00334612
0.0882919
0.0030797
0.088105
0.00279526
0.0879285
0.00253688
0.0878128
0.00213283
0.0877007
0.00178616
0.0876205
0.0013108
0.08759
0.000865897
0.0875766
0.000488856
0.0875953
0.000117259
0.0876211
-0.000279108
0.0876516
-0.00068168
0.0877425
-0.000994065
0.0878799
-0.00126555
0.0879934
-0.0014631
0.0880776
-0.00169591
0.088156
-0.00191423
0.0883061
-0.00206424
0.0885281
-0.00206719
0.0886965
-0.00204648
0.0888543
-0.00210509
0.0889875
-0.00209121
0.0891143
-0.00212136
0.0893081
-0.00217648
0.0895977
-0.00219175
0.0899655
-0.00200506
0.0902667
-0.00183738
0.0904779
-0.00173942
0.0906215
-0.00171147
0.0908752
-0.00166355
0.0910884
-0.00129659
0.0912687
-0.0011783
0.0914219
-0.00114529
0.0914318
-0.0012626
0.0914169
-0.00170829
0.0912567
-0.00238853
0.0910201
-0.0032915
0.0902689
-0.00470987
-0.00736627
0.0894903
0.0887419
0.00398235
-0.089027
0.0885116
0.00357641
0.0882797
0.00331166
0.0881037
0.00297119
0.0879513
0.00268933
0.0878361
0.00224796
0.0877366
0.00188566
0.0876792
0.00136827
0.0876186
0.000926432
0.0876361
0.000471382
0.0876451
0.000108224
0.0876675
-0.00030146
0.0877174
-0.000731627
0.0877878
-0.00106437
0.0879001
-0.00137794
0.0880346
-0.00159758
0.0881504
-0.0018117
0.088234
-0.00199782
0.0883554
-0.0021856
0.0885246
-0.00223648
0.0887119
-0.00223373
0.088854
-0.00224724
0.0890202
-0.00225739
0.0891578
-0.00225893
0.0893146
-0.0023333
0.0895237
-0.00240079
0.0898729
-0.00235433
0.0902309
-0.00219533
0.09057
-0.00207851
0.0907854
-0.00192692
0.0910172
-0.00189535
0.0912634
-0.00154272
0.0914085
-0.00132342
0.0915531
-0.00128991
0.0915739
-0.00128338
0.0915219
-0.00165633
0.0912914
-0.00215799
0.0910587
-0.00305877
0.0904987
-0.00414986
-0.00661688
0.0897493
0.0888161
0.00424261
-0.0890764
0.0885595
0.00383306
0.0883522
0.00351891
0.0881823
0.00314113
0.0880365
0.00283517
0.0879217
0.00236271
0.087835
0.00197239
0.0877795
0.00142375
0.0877258
0.000980137
0.0877238
0.000473379
0.087743
8.90536e-05
0.0877787
-0.000337145
0.0878389
-0.000791914
0.0878972
-0.00112261
0.0880022
-0.00148297
0.0881254
-0.00172077
0.0882427
-0.00192904
0.0883438
-0.00209887
0.0884343
-0.00227607
0.0885805
-0.00238275
0.0887417
-0.00239494
0.088899
-0.00240455
0.0890751
-0.00243349
0.0892245
-0.00240833
0.0893985
-0.00250724
0.089558
-0.00256035
0.0898651
-0.00266143
0.0902056
-0.0025358
0.0906116
-0.00248446
0.0909082
-0.00222359
0.0911758
-0.00216289
0.0915101
-0.0018771
0.0917216
-0.00153489
0.0918599
-0.00142823
0.0919102
-0.00133365
0.0918572
-0.00160328
0.0915949
-0.00189571
0.0912344
-0.00269832
0.0907252
-0.00364066
-0.00576086
0.0898692
0.0887729
0.00449257
-0.0890228
0.0885556
0.00405032
0.0883614
0.00371314
0.0881909
0.00331157
0.0880637
0.00296238
0.0879529
0.00247354
0.0878647
0.00206055
0.0878176
0.00147084
0.0877897
0.0010081
0.0877664
0.000496675
0.0878006
5.48477e-05
0.0878386
-0.000375189
0.0878914
-0.000844692
0.0879726
-0.00120375
0.0880574
-0.00156784
0.0881628
-0.00182613
0.0883036
-0.00206984
0.0884123
-0.00220755
0.0885276
-0.00239145
0.0885996
-0.00245471
0.0887585
-0.0025538
0.0888857
-0.00253179
0.0890889
-0.00263669
0.0892401
-0.00255952
0.0894257
-0.00269281
0.0895728
-0.00270751
0.0898162
-0.00290478
0.0901339
-0.00285351
0.0905338
-0.00288433
0.0909466
-0.00263639
0.0912874
-0.00250375
0.0916778
-0.0022675
0.0919923
-0.00184934
0.0922168
-0.00165275
0.092302
-0.0014189
0.092265
-0.0015662
0.0920329
-0.00166369
0.0916086
-0.00227404
0.0909724
-0.00300439
-0.00488829
0.0900998
0.0888433
0.00475275
-0.0891035
0.088624
0.00426955
0.0884325
0.00390464
0.0882889
0.00345522
0.0881545
0.00309678
0.0880606
0.00256745
0.0879896
0.00213156
0.0879211
0.00153931
0.0879011
0.00102808
0.0878894
0.000508349
0.0879111
3.31494e-05
0.0879424
-0.000406494
0.0880206
-0.000922887
0.0880892
-0.00127232
0.0881764
-0.00165503
0.0882733
-0.00192305
0.0884077
-0.00220427
0.0885243
-0.0023241
0.0886221
-0.00248928
0.0886932
-0.0025258
0.088822
-0.00268264
0.0889475
-0.00265722
0.0891195
-0.00280873
0.0892713
-0.00271126
0.0894524
-0.00287398
0.0896287
-0.00288376
0.089854
-0.00313009
0.0901488
-0.00314835
0.0905056
-0.00324112
0.0909946
-0.00312539
0.0913833
-0.00289243
0.0918279
-0.00271213
0.0922644
-0.00228581
0.0926313
-0.00201961
0.0928164
-0.00160407
0.0928663
-0.00161613
0.0927069
-0.00150423
0.0923678
-0.00193497
0.091642
-0.00227853
-0.00401224
0.0907659
0.088803
0.00496608
-0.0890163
0.0886122
0.00446034
0.08844
0.00407683
0.0882982
0.00359701
0.0881805
0.00321446
0.0880799
0.00266813
0.0880328
0.00217861
0.0879632
0.00160895
0.0879425
0.00104874
0.0879282
0.000522682
0.0879435
1.78072e-05
0.0880001
-0.0004631
0.0880672
-0.000989957
0.0881488
-0.0013539
0.0882503
-0.00175656
0.0883335
-0.00200623
0.0884519
-0.00232268
0.0885476
-0.00241978
0.0886918
-0.00263347
0.088758
-0.00259201
0.0888932
-0.00281788
0.0889491
-0.0027131
0.0890838
-0.0029434
0.08924
-0.00286751
0.0894382
-0.00307219
0.0896427
-0.00308825
0.0898396
-0.00332694
0.0901549
-0.00346365
0.0904471
-0.00353335
0.0909414
-0.00361971
0.0914023
-0.00335327
0.0919034
-0.00321324
0.0924031
-0.00278552
0.0928821
-0.00249867
0.0932361
-0.00195806
0.0934426
-0.00182257
0.0934174
-0.00147909
0.0932466
-0.00176412
0.0925847
-0.00161667
-0.00315817
0.0917307
0.0888981
0.00519844
-0.0891305
0.0887071
0.00465137
0.0885482
0.00423576
0.0884095
0.00373571
0.0883209
0.00330299
0.08821
0.00277904
0.0881665
0.00222219
0.0881167
0.00165866
0.0881108
0.00105466
0.08809
0.000543522
0.0881244
-1.66375e-05
0.0881505
-0.00048922
0.0882082
-0.00104761
0.088276
-0.00142173
0.0883874
-0.00186789
0.0884596
-0.00207842
0.0885786
-0.00244178
0.0886525
-0.0024936
0.0887955
-0.00277645
0.0888871
-0.00268368
0.0890045
-0.00293522
0.0890851
-0.00279378
0.0891687
-0.003027
0.0892729
-0.0029717
0.0894154
-0.00321467
0.0896423
-0.00331517
0.0898544
-0.00353903
0.0901759
-0.00378511
0.090485
-0.00384251
0.0909109
-0.00404552
0.091439
-0.00388147
0.0920046
-0.00377876
0.0925812
-0.00336218
0.0931602
-0.00307762
0.0936622
-0.00246014
0.0940629
-0.00222318
0.0941918
-0.00160805
0.0942086
-0.00178087
0.0938049
-0.00121305
-0.00248887
0.0931356
0.0888485
0.00538165
-0.0890317
0.0886734
0.0048264
0.0885357
0.00437352
0.0883963
0.00387504
0.0883209
0.00337841
0.0882369
0.00286309
0.0881867
0.00227235
0.0881443
0.00170107
0.0881275
0.00107143
0.0881375
0.000533602
0.0881744
-5.36142e-05
0.0882069
-0.000521676
0.088258
-0.0010987
0.0883145
-0.00147821
0.0884426
-0.00199602
0.0885175
-0.0021533
0.0886406
-0.0025649
0.0887152
-0.00256821
0.0888458
-0.00290705
0.0889233
-0.00276116
0.0890287
-0.00304067
0.0891282
-0.00289328
0.0892045
-0.00310329
0.0893256
-0.00309278
0.0894129
-0.00330195
0.0895934
-0.00349564
0.0897671
-0.00371274
0.0900709
-0.00408893
0.0904221
-0.00419372
0.0908546
-0.00447797
0.0913635
-0.00439041
0.0919909
-0.00440616
0.0926292
-0.00400045
0.0933268
-0.00377527
0.093941
-0.0030743
0.0945221
-0.0028043
0.0948798
-0.00196579
0.0951007
-0.00200177
0.0950019
-0.00111418
-0.00197186
0.0944849
0.089005
0.00556838
-0.0891917
0.0888218
0.00500957
0.0887029
0.00449248
0.0885848
0.00399309
0.0884928
0.00347045
0.0884265
0.00292937
0.0883821
0.00231679
0.0883372
0.00174594
0.0883214
0.00108718
0.088327
0.000528064
0.0883751
-0.000101766
0.0884026
-0.000549181
0.08849
-0.00118608
0.0885246
-0.00151281
0.0886234
-0.00209475
0.0886991
-0.00222903
0.0888091
-0.00267491
0.0888847
-0.00264378
0.0889762
-0.00299864
0.0890721
-0.00285703
0.0891239
-0.00309249
0.0892221
-0.00299144
0.0892779
-0.00315909
0.0894187
-0.0032336
0.0894733
-0.00335659
0.0896472
-0.00366947
0.0898187
-0.00388424
0.0900297
-0.00429994
0.0903556
-0.00451961
0.0907792
-0.00490156
0.0912898
-0.00490102
0.091947
-0.00506343
0.092669
-0.00472244
0.0934772
-0.00458344
0.0942452
-0.00384228
0.0950077
-0.00356679
0.0955904
-0.00254858
0.0960239
-0.00243528
0.0962263
-0.00131652
-0.00175241
0.0960068
0.0889136
0.0057392
-0.0890845
0.08877
0.00515318
0.0886536
0.00460889
0.0885528
0.00409392
0.0884889
0.00353433
0.0884228
0.00299547
0.0883849
0.0023547
0.088367
0.00176382
0.0883815
0.00107275
0.0883731
0.000536393
0.0884417
-0.00017038
0.0884781
-0.000585539
0.0885558
-0.00126383
0.0886066
-0.0015636
0.0887111
-0.00219924
0.0887809
-0.00229878
0.0888832
-0.00277719
0.0889606
-0.00272124
0.089033
-0.00307106
0.0891347
-0.00295869
0.0891845
-0.00314224
0.0892789
-0.00308587
0.0892971
-0.0031773
0.0894028
-0.00333933
0.089467
-0.00342075
0.0895734
-0.00377587
0.0897329
-0.00404375
0.0899452
-0.00451225
0.0902447
-0.00481906
0.0906231
-0.00527999
0.0911175
-0.00539545
0.0917691
-0.00571497
0.0925457
-0.00549906
0.0934312
-0.00546898
0.0943834
-0.00479447
0.0952957
-0.00447902
0.0961381
-0.00339105
0.096836
-0.00313317
0.0973644
-0.00184488
-0.00181568
0.0974276
0.0891369
0.00588367
-0.0892813
0.0889846
0.00530541
0.088872
0.0047215
0.0887775
0.00418844
0.0887084
0.00360346
0.0886686
0.00303524
0.0886381
0.00238519
0.088612
0.00178987
0.0886317
0.00105304
0.0886412
0.000526916
0.0886986
-0.000227776
0.0887494
-0.000636301
0.0888275
-0.00134192
0.0888903
-0.00162642
0.088962
-0.00227096
0.0890578
-0.00239461
0.0891166
-0.00283601
0.0892348
-0.00283935
0.089238
-0.00307427
0.089353
-0.00307377
0.0893372
-0.00312638
0.0894516
-0.00320025
0.0894436
-0.00316931
0.0894926
-0.00338834
0.0895406
-0.00346881
0.0896008
-0.00383606
0.0897087
-0.00415166
0.0898507
-0.00465425
0.0900945
-0.00506282
0.090475
-0.0056605
0.090949
-0.00586945
0.091571
-0.00633701
0.0923488
-0.00627686
0.0932731
-0.00639325
0.0943562
-0.00587753
0.0954582
-0.00558107
0.0965988
-0.00453165
0.0975551
-0.00408943
0.0984272
-0.00271697
-0.00225924
0.0988707
0.0890484
0.00602153
-0.0891862
0.0889278
0.005426
0.0888333
0.004816
0.0887595
0.00426226
0.0887026
0.00366035
0.0886567
0.00308107
0.0886592
0.00238272
0.0886387
0.00181034
0.0886793
0.00101253
0.0887021
0.000504126
0.0887762
-0.000301901
0.0888269
-0.000687053
0.0889263
-0.00144133
0.0890177
-0.0017178
0.0890829
-0.00233614
0.0892123
-0.00252404
0.0892326
-0.00285629
0.0893604
-0.00296712
0.0893688
-0.0030827
0.0894625
-0.00316748
0.0894568
-0.00312065
0.0894957
-0.00323912
0.0895119
-0.00318553
0.0895256
-0.00340203
0.0895491
-0.00349231
0.0895641
-0.00385104
0.0896438
-0.00423139
0.0897154
-0.00472584
0.0898906
-0.00523799
0.0901524
-0.00592232
0.0905819
-0.006299
0.0911834
-0.00693845
0.0919946
-0.00708808
0.0929399
-0.00733856
0.094104
-0.00704165
0.0953302
-0.00680722
0.0967272
-0.00592863
0.097987
-0.00534929
0.0992726
-0.00400261
-0.00305689
0.10007
0.0893363
0.00617417
-0.0894889
0.0892161
0.00554618
0.0891204
0.00491163
0.0890545
0.00432819
0.0890089
0.00370594
0.0889641
0.00312592
0.0889831
0.00236368
0.0889709
0.00182261
0.0890203
0.000963129
0.0890365
0.000487921
0.0891096
-0.000375034
0.089199
-0.000776424
0.0892412
-0.0014836
0.0893966
-0.0018732
0.0893977
-0.00233717
0.0895582
-0.00268461
0.0895597
-0.00285779
0.0897086
-0.00311595
0.0896886
-0.00306273
0.0897673
-0.00324623
0.0897618
-0.00311515
0.08978
-0.00325732
0.0897566
-0.00316211
0.0897263
-0.00337172
0.0897012
-0.00346717
0.0896603
-0.00381018
0.0896456
-0.00421672
0.0896754
-0.00475564
0.0897615
-0.00532409
0.0899028
-0.00606358
0.0902486
-0.00664479
0.0907052
-0.00739505
0.0914479
-0.00783079
0.0923648
-0.00825549
0.0935864
-0.00826323
0.0949311
-0.00815193
0.0965387
-0.00753625
0.0980995
-0.00691003
0.0997899
-0.00569299
-0.00430374
0.101037
0.0892626
0.006274
-0.0893624
0.0891567
0.00565206
0.0890948
0.00497353
0.0890148
0.00440816
0.0890039
0.00371686
0.0889651
0.00316469
0.0890086
0.00232023
0.0890156
0.0018156
0.089063
0.000915743
0.0891615
0.00038944
0.089177
-0.000390612
0.089345
-0.000944388
0.0893528
-0.00149135
0.0895289
-0.00204933
0.0895357
-0.00234398
0.0896979
-0.00284682
0.089715
-0.00287493
0.0898202
-0.00322107
0.089865
-0.00310758
0.0898982
-0.00327937
0.0899193
-0.00313628
0.089907
-0.00324505
0.0898978
-0.00315291
0.0898553
-0.00332919
0.0898017
-0.00341358
0.0897057
-0.00371419
0.0896305
-0.0041415
0.0895768
-0.00470191
0.0895697
-0.00531706
0.0896042
-0.00609801
0.0897996
-0.00684018
0.0901198
-0.00771525
0.0907466
-0.0084576
0.0915435
-0.00905247
0.0927241
-0.00944378
0.0940839
-0.00951173
0.0958415
-0.00929384
0.0976389
-0.0087075
0.0997702
-0.00782422
-0.00613849
0.101605
0.0896495
0.00638784
-0.0897633
0.0895394
0.00576215
0.0894828
0.00503013
0.0894055
0.00448545
0.0894176
0.00370475
0.0894221
0.00316026
0.0894076
0.00233469
0.0895014
0.00172185
0.0894893
0.000927821
0.0896468
0.000231887
0.0896211
-0.000364875
0.0898094
-0.00113273
0.0898167
-0.00149862
0.0899908
-0.00222338
0.0900163
-0.00236958
0.090132
-0.00296251
0.0901883
-0.00293115
0.0902421
-0.00327492
0.0902729
-0.00313839
0.0902987
-0.00330518
0.0902962
-0.00313372
0.090264
-0.00321285
0.0902234
-0.00311238
0.09013
-0.00323573
0.0900413
-0.00332494
0.0899139
-0.00358679
0.0897443
-0.00397187
0.0895835
-0.00454113
0.0894868
-0.00522034
0.0894027
-0.00601389
0.0894538
-0.0068913
0.0895788
-0.0078402
0.0899724
-0.00885124
0.0905931
-0.0096732
0.091603
-0.0104536
0.0928605
-0.0107693
0.0946157
-0.0110491
0.0965531
-0.0106448
0.0989732
-0.0102444
-0.00856149
0.101396
0.0895424
0.00644981
-0.0896044
0.0894736
0.00583098
0.0894381
0.00506558
0.0894368
0.00448677
0.089408
0.00373356
0.0894839
0.00308434
0.0894464
0.00237213
0.0896048
0.00156351
0.089565
0.000967601
0.0897499
4.70438e-05
0.0897818
-0.000396865
0.0899436
-0.00129451
0.0900229
-0.00157787
0.0901399
-0.00234042
0.0902415
-0.00247112
0.0903207
-0.00304177
0.0904002
-0.00301062
0.0904556
-0.00333028
0.0905142
-0.00319701
0.0905154
-0.00330636
0.090525
-0.00314333
0.0904676
-0.00315544
0.0904216
-0.00306643
0.0903027
-0.00311686
0.0901768
-0.00319896
0.0900044
-0.00341442
0.0898043
-0.00377175
0.0895447
-0.00428158
0.0893104
-0.00498607
0.0890794
-0.0057829
0.0889728
-0.0067847
0.088909
-0.00777631
0.0890488
-0.00899108
0.0893854
-0.0100098
0.0901068
-0.011175
0.0911525
-0.0118149
0.0927644
-0.0126609
0.0946584
-0.0125388
0.0972486
-0.0128346
-0.0113479
0.100035
0.0899983
0.00652055
-0.090069
0.0899781
0.00585112
0.0899245
0.00511921
0.0899827
0.00442861
0.0899437
0.00377258
0.090064
0.00296398
0.0900566
0.00237954
0.0901964
0.00142367
0.0902466
0.00091743
0.0903711
-7.7474e-05
0.0904619
-0.000487599
0.0905746
-0.00140724
0.0906754
-0.00167864
0.0907704
-0.00243545
0.0908822
-0.00258288
0.090928
-0.00308764
0.0910327
-0.00311532
0.0910341
-0.00333165
0.0911106
-0.00327352
0.09107
-0.00326575
0.0911011
-0.00317446
0.0910029
-0.00305719
0.0909464
-0.00301001
0.0908047
-0.00297511
0.0906261
-0.0030204
0.0903991
-0.00318739
0.0901251
-0.00349774
0.0897794
-0.0039359
0.0894292
-0.0046359
0.0890216
-0.0053753
0.0886695
-0.00643257
0.0883393
-0.00744611
0.0881512
-0.00880293
0.0880933
-0.00995198
0.088401
-0.0114827
0.0890125
-0.0124264
0.0902164
-0.0138648
0.0918136
-0.0141361
0.0942874
-0.0153083
-0.0142472
0.0971867
0.0898487
0.00660022
-0.0899284
0.0898956
0.00580429
0.0898569
0.0051579
0.0899534
0.00433207
0.0899742
0.00375179
0.0900795
0.00285866
0.0901595
0.00229954
0.0902792
0.00130403
0.0904046
0.000791963
0.0905284
-0.000201251
0.090678
-0.000637207
0.090778
-0.00150721
0.0909473
-0.00184792
0.0910091
-0.00249728
0.0911923
-0.00276607
0.0912012
-0.00309654
0.091344
-0.00325814
0.0913355
-0.00332311
0.0914439
-0.00338201
0.091404
-0.00322584
0.0914204
-0.00319083
0.0913489
-0.00298571
0.0912685
-0.0029296
0.0911286
-0.00283517
0.0909459
-0.00283773
0.0906808
-0.00292223
0.0903993
-0.00321624
0.0899878
-0.00352442
0.0895453
-0.00419346
0.089003
-0.00483297
0.0884626
-0.00589213
0.087839
-0.0068225
0.0873218
-0.00828572
0.0868313
-0.00946152
0.0865914
-0.0112428
0.0865833
-0.0124183
0.0871026
-0.0143841
0.0880801
-0.0151136
0.0899163
-0.0171446
-0.0169147
0.0925838
0.0906928
0.00665631
-0.0907489
0.0907073
0.00578986
0.0907033
0.00516187
0.0907509
0.00428446
0.0908119
0.00369085
0.0909318
0.0027387
0.0910419
0.00218948
0.0911492
0.0011967
0.0913066
0.00063451
0.091383
-0.000277582
0.0915907
-0.000844884
0.0916228
-0.00153932
0.091868
-0.00209315
0.0918968
-0.00252611
0.0920929
-0.00296213
0.0920969
-0.00310059
0.0922349
-0.00339605
0.0922529
-0.00334117
0.0922954
-0.00342455
0.0922955
-0.00322592
0.0922603
-0.00315558
0.0922398
-0.00296521
0.0921246
-0.00281444
0.0919718
-0.00268239
0.0917972
-0.00266309
0.0914935
-0.00261855
0.0911468
-0.00286949
0.0906905
-0.00306812
0.0901713
-0.00367429
0.0894865
-0.00414816
0.0887501
-0.00515571
0.087882
-0.0059544
0.0869939
-0.00739766
0.0860623
-0.00852994
0.0852141
-0.0103946
0.084506
-0.0117103
0.0840719
-0.01395
0.0841101
-0.0151518
0.0846541
-0.0176886
-0.0186673
0.0864068
0.090584
0.00664267
-0.0905704
0.0906768
0.00569708
0.0907493
0.00508936
0.0908363
0.00419751
0.0909673
0.00355981
0.0910747
0.00263134
0.0912926
0.00197152
0.0913972
0.00109217
0.0916563
0.000375403
0.0917116
-0.00033288
0.0919787
-0.00111207
0.0920683
-0.00162886
0.0923043
-0.00232914
0.0923709
-0.00259271
0.0925183
-0.00310958
0.0926115
-0.00319383
0.09271
-0.00349447
0.0927706
-0.00340184
0.0927913
-0.00344523
0.092854
-0.00328865
0.0928193
-0.00312085
0.0927954
-0.00294127
0.0927528
-0.00277189
0.0926092
-0.0025388
0.0924517
-0.00250559
0.0922105
-0.0023773
0.0918952
-0.00255422
0.0914415
-0.00261439
0.0908771
-0.00310993
0.090163
-0.00343399
0.0893113
-0.00430405
0.0883138
-0.00495692
0.0871461
-0.0062299
0.0858822
-0.0072661
0.0844335
-0.00894584
0.0830827
-0.0103595
0.0816068
-0.0124741
0.0805658
-0.0141108
0.079454
-0.0165768
-0.0189148
0.0797015
0.0917526
0.00653414
-0.0916441
0.0918402
0.00560945
0.0920572
0.00487238
0.0921315
0.00412325
0.0923179
0.00337338
0.0923303
0.00261895
0.0925892
0.00171258
0.0926615
0.00101989
0.0929787
5.82245e-05
0.0931087
-0.000462865
0.0933141
-0.00131752
0.0934623
-0.00177702
0.093619
-0.00248586
0.0937809
-0.00275457
0.0938675
-0.00319614
0.0940005
-0.00332691
0.0940287
-0.00352266
0.0941288
-0.00350194
0.0941362
-0.00345258
0.0941534
-0.00330586
0.0941641
-0.00313155
0.0941268
-0.00290405
0.0940781
-0.00272319
0.0939781
-0.00243881
0.09385
-0.00237748
0.0936418
-0.00216904
0.0933571
-0.00226955
0.0929593
-0.00221657
0.0924137
-0.00256433
0.0917362
-0.00275656
0.0908135
-0.00338135
0.0897732
-0.00391661
0.0883763
-0.00483297
0.0869233
-0.00581306
0.085044
-0.00706663
0.0832004
-0.00851578
0.0808889
-0.0101626
0.0788176
-0.0120395
0.0762801
-0.0140393
-0.017005
0.0743703
0.0917241
0.0062727
-0.0914626
0.0918403
0.00549324
0.0921458
0.00456681
0.0923599
0.00390922
0.0927216
0.00301162
0.0929738
0.00236678
0.0932823
0.0014041
0.0934844
0.000817719
0.0936441
-0.000101482
0.0938613
-0.000679975
0.0940803
-0.00153656
0.0942939
-0.00199059
0.0944001
-0.00259206
0.0946026
-0.0029571
0.0946788
-0.00327237
0.0948204
-0.00346849
0.09487
-0.00357231
0.0949465
-0.00357839
0.0949828
-0.00348891
0.0950266
-0.00334964
0.0950452
-0.00315012
0.0950483
-0.00290718
0.0950343
-0.00270922
0.0950134
-0.00241789
0.0949251
-0.00228917
0.0948236
-0.00206754
0.0945852
-0.00203113
0.0943292
-0.00196054
0.0938384
-0.00207352
0.0933102
-0.00222835
0.0924204
-0.00249162
0.0915003
-0.0029965
0.0901157
-0.00344833
0.0886677
-0.00436509
0.0866776
-0.00507657
0.0845854
-0.00642355
0.0819332
-0.00751037
0.0791701
-0.00927644
0.0758419
-0.0107111
-0.0134488
0.0722856
0.0934282
0.00609191
-0.0932474
0.0935356
0.00538587
0.093696
0.00440641
0.0938657
0.00373954
0.0940767
0.00280059
0.0943307
0.00211272
0.0946028
0.001132
0.0949706
0.000449932
0.0953092
-0.00044001
0.0956599
-0.00103074
0.0958633
-0.00173989
0.0961441
-0.00227142
0.0963357
-0.00278363
0.0965245
-0.00314594
0.0966627
-0.00341057
0.0967707
-0.00357652
0.0968565
-0.00365811
0.0969324
-0.00365422
0.0969957
-0.00355224
0.097063
-0.00341691
0.0971057
-0.00319288
0.0971779
-0.0029794
0.0971854
-0.0027167
0.097289
-0.00252147
0.0972632
-0.00226342
0.0973375
-0.00214184
0.09722
-0.0019136
0.0971737
-0.00191427
0.0968482
-0.00174799
0.0965502
-0.00193034
0.095906
-0.00184744
0.0951819
-0.00227242
0.0940699
-0.00233626
0.0927385
-0.00303376
0.0909562
-0.00329424
0.0888862
-0.00435358
0.0862255
-0.00484967
0.0832821
-0.00633299
0.0795849
-0.00701393
-0.00924482
0.075381
0.0941758
0.00562242
-0.0937063
0.0946875
0.00487416
0.0951803
0.00391357
0.095683
0.00323692
0.0961564
0.00232711
0.0965925
0.00167671
0.0968924
0.000832067
0.0970905
0.000251777
0.0972645
-0.000613992
0.0974652
-0.00123138
0.0976852
-0.00195997
0.0978073
-0.00239349
0.0979365
-0.00291287
0.0979955
-0.00320487
0.0980909
-0.00350602