/*--------------------------------*- C++ -*----------------------------------*\
  =========                 |
  \\      /  F ield         | OpenFOAM: The Open Source CFD Toolbox
   \\    /   O peration     | Website:  https://openfoam.org
    \\  /    A nd           | Version:  11
     \\/     M anipulation  |
\*---------------------------------------------------------------------------*/
FoamFile
{
    format      ascii;
    class       volVectorField;
    location    "9";
    object      U;
}
// * * * * * * * * * * * * * * * * * * * * * * * * * * * * * * * * * * * * * //

dimensions      [0 1 -1 0 0 0 0];

internalField   nonuniform List<vector> 
9600
(
(0.99134 0.000439514 -3.21329e-21)
(0.990244 0.000127599 0)
(0.989855 9.81632e-06 -3.13013e-21)
(0.989099 0.000112438 3.09255e-21)
(0.988379 -1.21631e-05 0)
(0.987845 0.000210167 1.43703e-21)
(0.987297 0.000118528 -2.78172e-21)
(0.987382 2.96926e-05 1.33509e-21)
(0.987767 -8.00089e-05 1.14953e-21)
(0.98842 -0.000203628 -1.15227e-21)
(0.989344 -0.000378839 7.3639e-24)
(0.990634 -0.000515071 0)
(0.992245 -0.000658217 0)
(0.993918 -0.000860645 -2.04458e-22)
(0.995789 -0.00119344 9.27933e-23)
(0.997853 -0.00144187 1.13508e-22)
(1.00038 -0.00140035 0)
(1.00276 -0.00153874 0)
(1.0052 -0.00200106 -3.59195e-25)
(1.00849 -0.00212699 0)
(1.01152 -0.00135677 0)
(1.0126 -0.000549865 6.02549e-25)
(1.01344 -0.00116965 -1.22848e-24)
(1.01585 -0.00208874 2.8508e-22)
(1.01722 -0.0014109 -2.80839e-22)
(1.01711 -0.000878752 -1.94464e-22)
(1.01632 -0.000498815 1.94731e-22)
(1.01487 -0.000251474 1.74009e-22)
(1.01257 0.000269886 -1.71086e-22)
(1.00741 0.00182032 0)
(0.993248 0.00406253 0)
(0.975491 0.00415594 2.74521e-22)
(0.965239 0.0020074 -6.07897e-22)
(0.961746 1.05618e-05 3.31606e-22)
(0.96439 -0.000870921 0)
(0.974114 -0.00445346 6.65301e-24)
(0.997837 -0.00359487 8.08786e-22)
(1.00777 -0.00438488 -7.97666e-22)
(1.04127 -0.00350229 -5.01646e-24)
(1.04724 0.000767737 -7.70959e-23)
(0.992061 0.000401901 -3.25947e-21)
(0.992054 0.000341526 1.09708e-23)
(0.992016 0.000285028 9.32457e-23)
(0.991968 0.000131658 3.16243e-21)
(0.991726 9.47609e-05 1.48873e-21)
(0.99169 -0.000121628 -1.4924e-21)
(0.991946 -0.000290805 2.16904e-23)
(0.992673 -0.000480248 1.04489e-23)
(0.99348 -0.000560211 -1.15006e-21)
(0.994787 -0.000638691 1.1699e-21)
(0.996467 -0.000606231 -7.68854e-24)
(0.998322 -0.000700216 1.25778e-23)
(1.00018 -0.000619594 2.6986e-22)
(1.0026 -0.000602402 -4.70592e-22)
(1.00565 -0.000393032 1.92735e-22)
(1.00883 -0.00047397 8.13755e-24)
(1.0118 -0.000520175 -7.06105e-24)
(1.01482 -0.000282207 -7.8995e-23)
(1.01793 -0.000126404 7.84455e-23)
(1.0206 -7.36763e-05 0)
(1.02311 -3.29689e-05 0)
(1.0266 -4.17121e-05 1.58389e-22)
(1.02982 0.000129758 -1.56383e-22)
(1.03098 0.000655577 -2.41561e-24)
(1.03103 0.000851884 0)
(1.03121 0.00100044 -2.18155e-22)
(1.03186 0.00115462 5.12707e-23)
(1.03219 0.00145036 -5.0551e-23)
(1.03192 0.00187351 2.06174e-22)
(1.02986 0.00381672 8.14056e-25)
(1.02749 0.00582742 1.3363e-22)
(1.02738 0.00558922 -1.34046e-22)
(1.0267 0.0041512 3.03454e-22)
(1.02414 0.000475742 -6.71101e-22)
(1.02364 -0.00170646 3.57523e-22)
(1.02476 -0.00631324 -6.77823e-24)
(1.03067 -0.00791815 -6.87509e-24)
(1.03781 -0.00951068 0)
(1.0575 -0.0144453 5.12588e-24)
(1.06679 -0.0114592 -3.85307e-22)
(0.991995 0.00047481 0)
(0.992002 0.00026891 3.27436e-21)
(0.991955 0.000113186 -3.2454e-21)
(0.991768 0.000114283 0)
(0.991749 4.14087e-05 0)
(0.991897 2.2049e-07 -4.57139e-23)
(0.992293 -7.21145e-05 -6.61121e-23)
(0.993186 -0.00018492 0)
(0.994042 -0.000481947 -1.1944e-21)
(0.995121 -0.000957377 1.14233e-21)
(0.996652 -0.00146619 0)
(0.998443 -0.00170446 -1.28816e-23)
(1.00066 -0.00208757 1.02784e-23)
(1.00282 -0.00261298 0)
(1.00545 -0.0030508 -9.69434e-23)
(1.0087 -0.00329392 9.47933e-23)
(1.01215 -0.00313495 -1.38676e-24)
(1.01514 -0.00338426 9.73173e-25)
(1.01761 -0.00375774 5.57887e-23)
(1.0201 -0.00367279 -5.74066e-23)
(1.02359 -0.00321727 -7.87674e-23)
(1.02749 -0.00264544 8.26285e-23)
(1.03006 -0.0024746 -2.60031e-24)
(1.03058 -0.00223912 3.05922e-22)
(1.03034 -0.00152914 -3.00987e-22)
(1.03056 -0.000963261 -2.15437e-22)
(1.03181 -0.000718253 2.27055e-22)
(1.03408 -0.000386193 -2.31823e-22)
(1.03563 0.000933011 2.3141e-22)
(1.03558 0.00313852 -8.39497e-25)
(1.03433 0.00554559 0)
(1.0314 0.00591686 2.32869e-22)
(1.02723 0.00605019 -5.61506e-22)
(1.02118 0.00338919 3.23893e-22)
(1.01917 0.000935136 4.34722e-22)
(1.0195 -0.00543676 -1.33404e-21)
(1.0266 -0.00886474 -2.91864e-23)
(1.03609 -0.0130347 9.41779e-22)
(1.05381 -0.017538 -1.36123e-23)
(1.06624 -0.0165135 -2.36977e-24)
(0.991983 0.000637107 -6.73012e-21)
(0.992011 0.000331741 3.34262e-21)
(0.991959 0.000215925 3.23495e-21)
(0.991763 0.000160903 -3.24757e-21)
(0.991729 1.05396e-05 0)
(0.991848 -0.000292821 1.50843e-21)
(0.992381 -0.000628098 -1.42446e-21)
(0.99296 -0.00111898 1.31765e-21)
(0.994367 -0.00152398 -1.21489e-22)
(0.995556 -0.00217314 -1.16148e-21)
(0.996983 -0.00235998 -8.48363e-22)
(0.998595 -0.00274559 1.61799e-21)
(1.00154 -0.00272352 -4.47096e-22)
(1.00385 -0.00300431 -4.43249e-22)
(1.00635 -0.00312454 1.7514e-22)
(1.00879 -0.00348336 -1.07248e-23)
(1.01245 -0.00336548 1.24048e-23)
(1.01608 -0.00280633 2.29657e-24)
(1.01861 -0.00240037 1.64726e-24)
(1.02047 -0.00263861 0)
(1.02341 -0.00301515 0)
(1.02667 -0.00267283 -2.66e-24)
(1.02937 -0.00127115 0)
(1.03091 0.000300588 0)
(1.03175 0.000728634 5.09632e-24)
(1.03184 0.000379392 -8.18958e-24)
(1.0322 -0.0003488 1.85245e-22)
(1.03275 -0.000463247 6.27173e-23)
(1.03371 0.000472654 -2.69727e-22)
(1.03357 0.00298221 2.78369e-23)
(1.03231 0.00610715 -2.78619e-23)
(1.03076 0.00720942 3.97168e-24)
(1.03087 0.007177 2.81738e-22)
(1.03043 0.00545959 -2.89942e-22)
(1.0328 0.00172942 -4.19215e-22)
(1.0333 -0.00371975 -5.18074e-22)
(1.03853 -0.0125068 -5.60887e-23)
(1.04602 -0.0131546 9.96591e-22)
(1.05572 -0.0232568 1.39011e-23)
(1.06907 -0.0201643 1.2004e-23)
(0.991863 0.000600904 0)
(0.991925 0.000232942 3.43676e-21)
(0.991829 6.83329e-05 -6.77394e-21)
(0.991607 5.29803e-06 3.29918e-21)
(0.991593 -0.000203545 0)
(0.991826 -0.000615402 0)
(0.992427 -0.00092445 0)
(0.993255 -0.0014279 4.07239e-23)
(0.994559 -0.00195023 -1.11827e-21)
(0.995712 -0.00230949 1.16018e-21)
(0.997424 -0.00283745 -3.01878e-23)
(0.999201 -0.00342987 6.79251e-22)
(1.00163 -0.00395703 -9.67328e-22)
(1.00397 -0.00418918 2.61876e-22)
(1.00685 -0.00467271 0)
(1.00945 -0.0052181 -2.38368e-23)
(1.01221 -0.00537678 2.29513e-23)
(1.01514 -0.00515288 -2.35559e-24)
(1.01876 -0.00492429 0)
(1.02181 -0.00506992 0)
(1.02415 -0.00502723 8.73445e-23)
(1.02578 -0.00445032 -8.73222e-23)
(1.02753 -0.00372623 0)
(1.03045 -0.00286498 3.45194e-22)
(1.03311 -0.0016062 -3.55056e-22)
(1.03389 -0.000749239 -2.6156e-22)
(1.03375 -0.000701226 2.50968e-22)
(1.03273 -0.000832371 -2.84873e-22)
(1.03174 -0.000107207 3.03718e-22)
(1.03128 0.00222739 4.06068e-24)
(1.03185 0.00535432 0)
(1.03266 0.00693373 -4.10907e-24)
(1.03457 0.00692436 -2.76197e-22)
(1.03529 0.00571905 2.82985e-22)
(1.03717 0.00298019 -1.28844e-23)
(1.03525 -0.00151674 0)
(1.03735 -0.0107805 0)
(1.04144 -0.0154921 1.09494e-21)
(1.04972 -0.0262533 -1.05575e-21)
(1.06508 -0.027683 3.56011e-23)
(0.99176 0.000734625 -3.42528e-21)
(0.991822 0.000208089 -1.07853e-22)
(0.991707 7.52586e-05 1.06408e-22)
(0.991461 -0.000195914 1.02811e-22)
(0.991605 -0.0003739 0)
(0.991813 -0.00089942 0)
(0.992664 -0.0013144 0)
(0.993301 -0.00203682 1.20233e-21)
(0.994857 -0.00248151 -2.52808e-21)
(0.995911 -0.00339866 1.09623e-21)
(0.997525 -0.00402392 0)
(0.999139 -0.00470818 6.68772e-22)
(1.00219 -0.00490296 -6.94293e-22)
(1.00436 -0.00544 -1.55235e-22)
(1.00734 -0.0058345 1.5549e-22)
(1.00919 -0.00611112 1.74905e-26)
(1.01266 -0.00599375 2.94799e-24)
(1.01597 -0.00577077 0)
(1.01973 -0.00533408 -4.08025e-24)
(1.02155 -0.00518025 0)
(1.02356 -0.00492753 1.43985e-24)
(1.02577 -0.00436483 6.16143e-24)
(1.02882 -0.00352473 0)
(1.0311 -0.00238701 -3.81647e-22)
(1.03288 -0.00108979 3.80442e-22)
(1.03357 -0.000185716 -2.67408e-22)
(1.03346 9.43861e-05 3.00716e-22)
(1.03295 6.70684e-05 3.21824e-22)
(1.03254 0.000372865 -3.25833e-22)
(1.03214 0.00178825 9.49677e-25)
(1.03207 0.00435508 -2.42908e-24)
(1.03219 0.00577166 -4.75516e-24)
(1.03279 0.00602573 2.5763e-22)
(1.03288 0.00571093 -6.06087e-22)
(1.03377 0.00410177 3.54133e-22)
(1.03537 0.000903083 0)
(1.03712 -0.00881729 3.31535e-23)
(1.04424 -0.0130282 -3.65336e-23)
(1.04829 -0.0262502 -3.62491e-23)
(1.06501 -0.0298384 1.23362e-21)
(0.991594 0.000570761 -1.79437e-22)
(0.991675 -4.81912e-05 -6.91866e-21)
(0.991532 -0.000158047 1.96117e-22)
(0.991343 -0.000446102 3.29576e-21)
(0.991555 -0.000636939 0)
(0.991778 -0.00130622 9.69439e-23)
(0.992713 -0.00167884 9.13546e-23)
(0.993319 -0.00260468 0)
(0.995049 -0.0034299 1.2431e-21)
(0.996134 -0.00414256 -1.03128e-21)
(0.997981 -0.00471448 0)
(0.999301 -0.00562832 4.83705e-23)
(1.00236 -0.00626006 -2.42558e-22)
(1.00508 -0.00654126 2.43175e-22)
(1.00773 -0.00662679 0)
(1.0094 -0.00726389 -5.63812e-23)
(1.01286 -0.00777934 5.69842e-23)
(1.01612 -0.00766999 0)
(1.01991 -0.00669165 8.59089e-23)
(1.0219 -0.00624026 -7.72608e-23)
(1.02402 -0.00625259 -3.03212e-24)
(1.02605 -0.00614326 -1.29508e-23)
(1.02874 -0.00539759 1.34696e-23)
(1.03072 -0.00422026 4.07684e-22)
(1.03289 -0.00231894 -4.06375e-22)
(1.03431 -0.000944023 -2.06034e-23)
(1.03444 -0.000293318 -2.50788e-22)
(1.03412 -0.000316889 2.77489e-22)
(1.03351 -9.70515e-05 2.36562e-22)
(1.03268 0.00115069 -2.37954e-22)
(1.03185 0.00407472 2.49265e-24)
(1.03137 0.00601296 1.94956e-24)
(1.03157 0.00654593 0)
(1.0316 0.00622781 -1.68533e-23)
(1.0325 0.00469247 -4.43814e-22)
(1.03459 0.00183781 -5.98022e-22)
(1.03451 -0.00690582 -1.52808e-22)
(1.04023 -0.0126044 1.19213e-21)
(1.04088 -0.0265704 -1.35651e-21)
(1.05714 -0.0331774 1.39588e-21)
(0.991326 0.000627311 3.63164e-21)
(0.991493 -0.000168665 1.77435e-23)
(0.991419 -0.000347595 -6.93354e-21)
(0.991207 -0.000672198 3.36227e-21)
(0.991447 -0.00092422 0)
(0.991671 -0.00163211 -9.97599e-23)
(0.99268 -0.00228223 -1.43142e-21)
(0.993467 -0.00343127 2.82832e-21)
(0.995158 -0.00417725 -2.40491e-21)
(0.996188 -0.00500361 1.10457e-21)
(0.998097 -0.00578106 0)
(0.999685 -0.00678318 6.40605e-22)
(1.00257 -0.00748948 -6.49224e-22)
(1.00472 -0.00755454 -1.18153e-22)
(1.00798 -0.00801018 1.29125e-22)
(1.01033 -0.0085186 0)
(1.01315 -0.00900222 6.51942e-25)
(1.01582 -0.00863794 0)
(1.01969 -0.00787895 -9.56221e-24)
(1.02256 -0.0070067 3.00253e-24)
(1.02495 -0.00702535 1.59629e-24)
(1.02673 -0.00653364 6.8065e-24)
(1.02833 -0.00574868 -1.38463e-23)
(1.03011 -0.00468153 4.41712e-22)
(1.03268 -0.00304307 -4.53579e-22)
(1.03493 -0.00125028 -3.39396e-22)
(1.03545 -9.87871e-05 3.35159e-22)
(1.03518 3.65689e-05 4.06007e-22)
(1.03421 0.000323741 -7.14818e-22)
(1.03292 0.00154969 4.36243e-22)
(1.03244 0.00369525 -1.57514e-22)
(1.03165 0.00533026 3.01102e-24)
(1.0312 0.0059296 0)
(1.03062 0.00579988 1.75771e-23)
(1.0302 0.00479426 0)
(1.03153 0.00296028 0)
(1.02964 -0.00359936 0)
(1.03561 -0.00910112 1.30703e-21)
(1.03524 -0.0227974 -1.38444e-21)
(1.05227 -0.0319586 -9.21751e-23)
(0.991228 0.000379457 -3.57151e-21)
(0.991323 -0.000480896 -1.33052e-24)
(0.991315 -0.000725574 -3.76712e-21)
(0.991104 -0.00109941 3.6477e-21)
(0.991386 -0.00137517 -2.09597e-22)
(0.99159 -0.00221019 -1.65637e-21)
(0.99277 -0.00296982 1.37743e-21)
(0.993365 -0.00408624 -8.7593e-23)
(0.995218 -0.00517932 -1.25692e-21)
(0.996376 -0.00597506 2.20266e-21)
(0.998595 -0.00690889 -1.08192e-21)
(0.999905 -0.00791955 0)
(1.00262 -0.00873513 -5.0723e-23)
(1.00517 -0.00915758 -1.10424e-23)
(1.00883 -0.00930072 2.9765e-24)
(1.01072 -0.00963302 -9.75929e-23)
(1.01352 -0.0100754 9.7039e-23)
(1.0159 -0.0101874 0)
(1.02001 -0.00936411 1.0611e-23)
(1.02321 -0.0082094 2.11735e-25)
(1.02538 -0.00779304 0)
(1.02703 -0.00735856 -7.81607e-24)
(1.02881 -0.0066624 -1.58353e-23)
(1.03052 -0.00582198 -1.45838e-23)
(1.03266 -0.00438396 2.72798e-23)
(1.03481 -0.00248714 0)
(1.03617 -0.000460054 0)
(1.03622 0.00031234 -4.80518e-22)
(1.0357 0.0005325 4.51507e-22)
(1.03441 0.00100257 1.78929e-23)
(1.03393 0.00317414 0)
(1.03226 0.00567755 -5.48501e-23)
(1.03108 0.00682751 2.3008e-22)
(1.02974 0.00720374 -4.64113e-22)
(1.02814 0.00589814 2.87406e-22)
(1.02913 0.00431472 -5.51534e-23)
(1.02709 -0.000680811 -1.16038e-21)
(1.03193 -0.00661973 1.22918e-21)
(1.02898 -0.0204892 1.5753e-21)
(1.04252 -0.0303852 -3.11594e-21)
(0.990923 0.000344827 -3.80989e-21)
(0.991043 -0.000654087 7.04727e-21)
(0.991126 -0.00103795 -1.06509e-22)
(0.990873 -0.00146329 -3.8452e-21)
(0.991147 -0.00183183 2.16444e-22)
(0.991417 -0.00279238 1.03201e-22)
(0.992715 -0.00358044 9.66749e-23)
(0.993248 -0.00509957 1.33455e-21)
(0.995255 -0.00619723 -1.53208e-22)
(0.996392 -0.00707459 -1.18982e-21)
(0.998758 -0.00795023 -7.78067e-22)
(1.00003 -0.00903843 2.53556e-22)
(1.00296 -0.0101414 8.73053e-22)
(1.00516 -0.0103446 -3.00827e-22)
(1.00872 -0.0105122 9.13267e-23)
(1.01117 -0.0107805 -9.39093e-24)
(1.0142 -0.0112515 0)
(1.01636 -0.0114826 1.66176e-22)
(1.01989 -0.0107851 -2.75336e-22)
(1.02304 -0.0094327 1.00032e-22)
(1.02574 -0.00870777 0)
(1.02785 -0.00810697 2.74914e-22)
(1.02965 -0.00728634 -2.50419e-22)
(1.03082 -0.00656721 5.06282e-22)
(1.03235 -0.00533088 -4.74068e-22)
(1.03422 -0.00355583 -3.79078e-22)
(1.03641 -0.00123316 7.71757e-22)
(1.03733 -8.23598e-05 1.9949e-22)
(1.03727 0.000702204 -5.07203e-22)
(1.03582 0.00147838 -3.96296e-23)
(1.03466 0.00331748 0)
(1.0326 0.00577805 -5.19669e-24)
(1.03118 0.00681604 0)
(1.02985 0.00745385 2.59939e-22)
(1.02714 0.00656462 -2.96334e-22)
(1.02716 0.00484146 -1.00189e-21)
(1.02459 0.00122256 9.2524e-22)
(1.02764 -0.0031116 0)
(1.0238 -0.0135735 -1.53407e-21)
(1.03494 -0.0263679 1.63013e-21)
(0.990802 -2.73984e-05 -4.25905e-21)
(0.990827 -0.00107036 2.40962e-22)
(0.991 -0.00151777 -3.69421e-21)
(0.990743 -0.00205392 4.16461e-21)
(0.991093 -0.00249204 0)
(0.991307 -0.00355898 0)
(0.992745 -0.00464205 0)
(0.993339 -0.00599991 0)
(0.99526 -0.00739634 -1.19509e-21)
(0.996342 -0.00828583 1.19859e-21)
(0.998906 -0.00925596 0)
(1.00064 -0.010348 -4.64354e-23)
(1.00334 -0.0114183 -2.19671e-22)
(1.00538 -0.0119605 1.90415e-22)
(1.00894 -0.0123033 0)
(1.01197 -0.0122473 -1.56447e-22)
(1.01514 -0.0124962 1.77119e-22)
(1.01714 -0.0126282 0)
(1.01984 -0.0122217 6.90918e-24)
(1.02325 -0.0108748 0)
(1.02645 -0.00972342 0)
(1.02845 -0.0090349 -9.43575e-24)
(1.03057 -0.00801015 -1.90608e-23)
(1.03136 -0.00710835 -3.71105e-23)
(1.03273 -0.00607467 -6.73708e-23)
(1.03413 -0.00486373 -5.10389e-22)
(1.03672 -0.00237612 4.23911e-22)
(1.038 -0.000524689 -6.48443e-22)
(1.03847 0.000834406 5.98823e-22)
(1.03744 0.001498 2.18564e-23)
(1.03635 0.00311331 0)
(1.03462 0.00603013 3.93801e-24)
(1.0323 0.00751419 0)
(1.03071 0.00874151 0)
(1.02696 0.0086866 3.86506e-23)
(1.02597 0.00709364 1.00194e-21)
(1.02251 0.00381833 -2.06205e-21)
(1.02457 -0.000160619 2.51666e-21)
(1.0204 -0.00810081 1.87056e-22)
(1.02882 -0.0218815 -1.69435e-21)
(0.990262 -0.000198 1.19563e-22)
(0.990416 -0.00136022 7.89546e-21)
(0.990637 -0.00187393 -7.68711e-21)
(0.99037 -0.00263178 -1.00306e-22)
(0.990871 -0.00314776 5.42984e-21)
(0.990982 -0.00446027 -1.75771e-21)
(0.99244 -0.00524943 0)
(0.993245 -0.00706413 -1.37006e-21)
(0.995066 -0.00836283 1.70024e-22)
(0.996115 -0.00963914 1.20826e-21)
(0.998933 -0.0104728 -5.69897e-23)
(1.00072 -0.0116035 4.2895e-23)
(1.00359 -0.0127428 5.82048e-23)
(1.00573 -0.013347 0)
(1.009 -0.013713 0)
(1.01188 -0.013648 0)
(1.01545 -0.0137447 2.26748e-24)
(1.01793 -0.0136171 0)
(1.02033 -0.0133472 -2.2691e-23)
(1.02317 -0.0123296 4.52905e-24)
(1.02661 -0.0111264 -4.97494e-24)
(1.02852 -0.0100637 9.73076e-24)
(1.031 -0.00858211 1.96571e-23)
(1.032 -0.00746351 6.52019e-22)
(1.03368 -0.00672965 -5.77055e-22)
(1.03418 -0.00577628 -4.64203e-22)
(1.03612 -0.00398488 4.35645e-22)
(1.03763 -0.00174714 -3.9199e-24)
(1.03935 0.000212373 4.78055e-22)
(1.0391 0.00187263 -4.86781e-22)
(1.03806 0.00316895 0)
(1.03654 0.006291 0)
(1.03345 0.00822445 6.54675e-23)
(1.03172 0.00930848 1.28301e-22)
(1.02739 0.0100712 -5.09614e-22)
(1.02574 0.00872884 -5.70768e-22)
(1.02103 0.00615976 -3.82082e-22)
(1.02162 0.00217438 1.21581e-21)
(1.01723 -0.00325874 1.60876e-21)
(1.02325 -0.0166318 -1.59711e-21)
(0.990102 -0.000718453 0)
(0.990134 -0.00197914 2.53072e-22)
(0.99049 -0.00257524 -2.46045e-22)
(0.990171 -0.00346914 0)
(0.990824 -0.00406754 0)
(0.990879 -0.00545136 0)
(0.992345 -0.00656297 -2.02884e-22)
(0.993163 -0.00836874 -1.83715e-22)
(0.995263 -0.00970689 1.2155e-21)
(0.99621 -0.01117 -1.28927e-21)
(0.998726 -0.012107 5.88483e-23)
(1.00099 -0.0131293 5.13464e-22)
(1.00408 -0.0143368 -7.36798e-22)
(1.00644 -0.0148493 1.49441e-22)
(1.00939 -0.0156587 4.17542e-24)
(1.01228 -0.0154809 -2.31629e-22)
(1.01616 -0.0153166 2.26377e-22)
(1.0188 -0.0149495 0)
(1.02165 -0.014598 1.60691e-23)
(1.02372 -0.013849 -4.67558e-24)
(1.02725 -0.0123409 5.1359e-24)
(1.02879 -0.0109923 0)
(1.03169 -0.00971423 0)
(1.03265 -0.00830169 0)
(1.0348 -0.00742019 0)
(1.03506 -0.00632702 -5.53718e-22)
(1.03666 -0.00514142 1.08495e-21)
(1.03783 -0.00291365 -1.18584e-21)
(1.03973 -0.00093756 8.04979e-22)
(1.04069 0.00160729 3.96258e-22)
(1.03964 0.00293853 -4.00717e-22)
(1.03919 0.0061607 1.20931e-22)
(1.03611 0.00898759 -1.23516e-22)
(1.03431 0.0104357 7.29201e-24)
(1.02963 0.011771 0)
(1.02698 0.0112675 -8.2275e-22)
(1.02066 0.010021 -1.97484e-22)
(1.01977 0.00611596 1.14461e-21)
(1.01388 0.00122058 1.48205e-21)
(1.01843 -0.0102372 -3.37328e-21)
(0.989677 -0.00101017 -4.6553e-21)
(0.989558 -0.00241538 3.84371e-21)
(0.989993 -0.00313542 -3.87029e-21)
(0.989604 -0.00416166 -3.85789e-21)
(0.990273 -0.00483053 3.87581e-21)
(0.990483 -0.00645187 2.24056e-22)
(0.991732 -0.00743824 2.0953e-22)
(0.992793 -0.00953588 2.33204e-24)
(0.99486 -0.01081 -1.22623e-21)
(0.996194 -0.0124643 1.30259e-21)
(0.998382 -0.0134842 0)
(1.00085 -0.0146 0)
(1.00402 -0.0158791 0)
(1.00653 -0.0164051 1.26656e-23)
(1.00989 -0.0170346 -2.14181e-23)
(1.01219 -0.0170033 -2.86085e-23)
(1.01617 -0.0167883 0)
(1.01907 -0.0162405 0)
(1.0227 -0.0158246 0)
(1.0241 -0.0146965 0)
(1.02746 -0.01348 -6.22671e-24)
(1.02878 -0.0120203 0)
(1.03219 -0.0108849 0)
(1.03298 -0.00890347 8.09376e-22)
(1.03534 -0.00799781 -1.07592e-23)
(1.03558 -0.00668259 -6.96721e-22)
(1.037 -0.00615168 0)
(1.03794 -0.00406246 -8.01745e-22)
(1.0394 -0.00272791 1.87619e-22)
(1.04141 0.000715431 6.72383e-22)
(1.04077 0.00257585 -2.41735e-23)
(1.04127 0.00554765 0)
(1.03852 0.00935636 -3.34473e-23)
(1.03688 0.0115049 1.26985e-22)
(1.03214 0.0136367 -1.01773e-22)
(1.0291 0.0135188 3.37542e-23)
(1.02185 0.0136361 -5.06706e-23)
(1.0195 0.0104187 1.17085e-21)
(1.01157 0.00611157 -1.13979e-21)
(1.01398 -0.00446686 0)
(0.989405 -0.00176702 -4.53453e-21)
(0.989207 -0.00328431 3.96636e-21)
(0.9898 -0.00414688 -1.4488e-22)
(0.989373 -0.00531515 -8.10451e-21)
(0.990145 -0.00607051 3.98953e-21)
(0.990226 -0.00780214 -2.31447e-22)
(0.991766 -0.00891321 0)
(0.992931 -0.011179 2.25191e-24)
(0.994665 -0.0125836 -1.07043e-21)
(0.996435 -0.0142276 1.31127e-21)
(0.998471 -0.0154181 0)
(1.0009 -0.0164686 0)
(1.0045 -0.0178312 1.1229e-22)
(1.00686 -0.0183726 -8.93706e-23)
(1.01079 -0.018922 0)
(1.01285 -0.0189737 -3.4051e-22)
(1.01704 -0.0188692 3.57289e-22)
(1.01995 -0.0179341 0)
(1.02389 -0.0172317 0)
(1.02524 -0.0159926 6.47513e-24)
(1.02847 -0.0149968 6.4445e-24)
(1.02953 -0.0131384 0)
(1.03273 -0.0120539 0)
(1.0336 -0.00988678 -5.2668e-23)
(1.03589 -0.00902602 -4.94304e-23)
(1.03659 -0.00737813 0)
(1.03796 -0.00712387 -5.94105e-22)
(1.0391 -0.00516448 5.9888e-22)
(1.03989 -0.00386456 0)
(1.04241 -0.000997657 0)
(1.04222 0.0017842 0)
(1.04344 0.00451661 0)
(1.04165 0.00865175 0)
(1.04063 0.0117845 5.13361e-23)
(1.0361 0.015167 -5.00261e-23)
(1.03299 0.0158227 -3.48633e-23)
(1.0256 0.0170355 9.97851e-22)
(1.02182 0.0154243 -9.55697e-22)
(1.01192 0.0128897 0)
(1.01151 0.00341057 -8.83742e-23)
(0.988611 -0.00219717 2.88376e-22)
(0.98847 -0.00390687 4.65927e-21)
(0.989045 -0.00476574 -4.40667e-21)
(0.988766 -0.00617674 -3.84129e-21)
(0.989439 -0.00701649 6.07864e-21)
(0.989579 -0.00883867 -1.72704e-21)
(0.990949 -0.0102194 -1.44344e-21)
(0.992288 -0.0121933 3.33446e-21)
(0.994292 -0.0139427 -3.98063e-22)
(0.995823 -0.0155232 -1.32385e-21)
(0.998188 -0.0169552 0)
(1.00019 -0.0180986 0)
(1.00437 -0.0195948 -1.96563e-23)
(1.00667 -0.0199815 1.06467e-22)
(1.01093 -0.0207613 -1.0632e-22)
(1.01307 -0.0203786 -4.28848e-22)
(1.0173 -0.0205697 4.29541e-22)
(1.01984 -0.0193374 0)
(1.02419 -0.0186 0)
(1.02577 -0.0166952 -6.70957e-24)
(1.02937 -0.0160332 -7.96038e-24)
(1.03021 -0.01368 0)
(1.03253 -0.0131504 0)
(1.03365 -0.0105626 9.56499e-22)
(1.03553 -0.00986937 -9.5455e-22)
(1.03714 -0.00791181 -7.85264e-22)
(1.0381 -0.00756189 7.82054e-22)
(1.0398 -0.00624685 -1.53889e-22)
(1.0402 -0.00486791 8.78143e-22)
(1.04262 -0.00298805 -8.75368e-22)
(1.043 0.000591296 0)
(1.04478 0.0033054 0)
(1.0436 0.00760813 -1.61953e-22)
(1.04325 0.0111602 1.35789e-22)
(1.03919 0.015889 -1.22583e-22)
(1.03643 0.0179443 1.49334e-22)
(1.02949 0.0206383 -8.61619e-22)
(1.02522 0.0198189 1.87079e-21)
(1.01464 0.0204201 2.41081e-22)
(1.01072 0.0109036 -1.1635e-21)
(0.988197 -0.00328433 0)
(0.988092 -0.00517904 4.2546e-21)
(0.988782 -0.00618005 -9.25846e-21)
(0.988534 -0.00780057 4.15951e-21)
(0.989108 -0.00872381 -2.60695e-22)
(0.989719 -0.0105789 -2.12707e-21)
(0.990657 -0.0122308 1.43879e-21)
(0.992041 -0.0140877 0)
(0.9946 -0.0161043 -1.08428e-21)
(0.996014 -0.0175718 1.1219e-21)
(0.998958 -0.019253 0)
(1.00068 -0.0203684 3.80898e-22)
(1.00463 -0.0219577 -3.82124e-22)
(1.007 -0.0224249 0)
(1.01164 -0.0229604 3.05093e-22)
(1.01405 -0.0227006 -3.41462e-22)
(1.01835 -0.0225866 -4.00541e-23)
(1.02063 -0.0212723 0)
(1.02534 -0.0206625 2.99114e-23)
(1.02714 -0.018182 0)
(1.03074 -0.017641 -7.87398e-25)
(1.03204 -0.0146925 -3.74422e-23)
(1.03383 -0.0140917 -7.51445e-23)
(1.0348 -0.0116342 0)
(1.03583 -0.0110851 0)
(1.03764 -0.00919593 -8.87967e-22)
(1.03856 -0.0086102 1.64881e-21)
(1.04082 -0.00761212 5.83669e-22)
(1.04133 -0.00604162 -2.33305e-21)
(1.04381 -0.00506271 9.95567e-22)
(1.04436 -0.00154589 0)
(1.04687 0.00142173 0)
(1.04641 0.00600424 0)
(1.04705 0.00984296 1.49012e-23)
(1.04378 0.0152944 -6.78589e-25)
(1.04157 0.0184938 -2.09433e-23)
(1.03515 0.023092 -5.82194e-22)
(1.03055 0.0230589 6.84361e-22)
(1.02047 0.0268917 -5.67148e-23)
(1.01396 0.0188083 -1.29501e-21)
(0.986993 -0.00390255 -5.41795e-21)
(0.987035 -0.00594335 3.00156e-22)
(0.987502 -0.00706202 4.57659e-21)
(0.987569 -0.00868035 -8.72834e-21)
(0.987987 -0.00989307 6.79346e-21)
(0.988636 -0.0115474 -2.10316e-21)
(0.990109 -0.0135978 4.65462e-22)
(0.990935 -0.0153492 1.5243e-21)
(0.993772 -0.0177335 -2.97187e-21)
(0.995148 -0.0192305 2.39143e-21)
(0.998448 -0.0209973 -9.818e-22)
(1.00031 -0.0220151 -3.11081e-22)
(1.00437 -0.0237657 3.0748e-22)
(1.00668 -0.0241837 0)
(1.01135 -0.0252717 3.69906e-23)
(1.01399 -0.0241213 -6.14474e-22)
(1.01862 -0.0246709 6.57105e-22)
(1.02101 -0.0224118 -4.8225e-22)
(1.02547 -0.0223783 4.17128e-22)
(1.02769 -0.0191755 -9.59491e-24)
(1.03077 -0.0187651 3.28805e-22)
(1.03246 -0.0153973 -9.31765e-22)
(1.03417 -0.0145367 6.43801e-22)
(1.03561 -0.011878 1.22998e-21)
(1.03609 -0.0111659 -1.22533e-21)
(1.03746 -0.00998465 -1.01139e-21)
(1.03809 -0.00921599 8.8031e-22)
(1.04027 -0.00908161 1.03852e-22)
(1.04101 -0.00706894 7.63271e-23)
(1.04397 -0.00643166 8.93974e-22)
(1.04497 -0.00349189 -9.96853e-22)
(1.04807 -0.000783245 0)
(1.0481 0.00410264 4.9847e-23)
(1.04958 0.00798704 -1.39462e-22)
(1.04739 0.014381 1.34169e-22)
(1.04559 0.0180381 -2.66654e-24)
(1.04021 0.0250474 -5.2261e-22)
(1.03524 0.0259536 -2.45796e-22)
(1.0265 0.0325334 1.7032e-21)
(1.018 0.0267893 -8.64649e-22)
(0.986448 -0.00547744 6.52536e-22)
(0.986676 -0.00766616 4.93364e-21)
(0.987119 -0.00910272 -4.35739e-21)
(0.987331 -0.0107011 -5.87821e-22)
(0.987938 -0.0122769 0)
(0.988262 -0.0137761 0)
(0.9902 -0.0161097 -2.40492e-22)
(0.991095 -0.017935 0)
(0.993956 -0.0202193 1.26966e-21)
(0.995372 -0.0218563 -2.09197e-21)
(0.998922 -0.0238652 9.56811e-22)
(1.00101 -0.0247228 2.33509e-23)
(1.00537 -0.0265542 7.23051e-24)
(1.00793 -0.0267062 -3.01567e-23)
(1.0127 -0.0280935 0)
(1.01518 -0.0267935 0)
(1.02002 -0.0271088 5.59085e-23)
(1.02267 -0.0245256 -6.82175e-23)
(1.02689 -0.0245626 3.58109e-23)
(1.02953 -0.0209476 9.98012e-24)
(1.03204 -0.020191 0)
(1.03401 -0.0168479 0)
(1.03519 -0.0157901 1.86854e-22)
(1.03703 -0.0131395 1.30918e-21)
(1.03725 -0.0118949 -1.49068e-21)
(1.03855 -0.0110442 0)
(1.03908 -0.00990933 1.27028e-22)
(1.04068 -0.0103078 -1.07349e-22)
(1.04156 -0.00911852 -1.31686e-21)
(1.0445 -0.00885718 1.23896e-21)
(1.04602 -0.00612692 1.06977e-22)
(1.04991 -0.00425694 0)
(1.05085 0.000884481 -5.17399e-23)
(1.05316 0.00467851 -3.68026e-23)
(1.05242 0.0120201 1.22661e-23)
(1.05137 0.0161782 -1.07494e-22)
(1.04769 0.0248162 -2.18958e-22)
(1.04265 0.0269365 2.90505e-22)
(1.0353 0.0360077 3.26151e-23)
(1.02552 0.0324778 -5.77167e-23)
(0.984685 -0.00633015 -5.95419e-21)
(0.98506 -0.0085211 5.1676e-21)
(0.985642 -0.0102878 -1.05114e-20)
(0.985676 -0.0117889 1.0421e-20)
(0.986626 -0.0136033 -4.81256e-21)
(0.986869 -0.015225 -2.08224e-21)
(0.988865 -0.0175447 2.09453e-21)
(0.989873 -0.0194512 1.58494e-21)
(0.993036 -0.0220064 -2.68597e-21)
(0.994683 -0.0235982 2.18914e-21)
(0.998317 -0.0260366 -9.24301e-22)
(1.00059 -0.0267138 -2.43073e-23)
(1.00496 -0.0288933 1.56179e-22)
(1.00783 -0.0285856 2.69992e-22)
(1.01273 -0.0304171 -4.83111e-22)
(1.01566 -0.0284862 -9.27647e-22)
(1.02006 -0.0293276 8.19564e-22)
(1.02349 -0.0261169 -8.6267e-24)
(1.02697 -0.0259992 -4.59904e-23)
(1.03034 -0.0223158 0)
(1.03256 -0.0210689 1.3602e-23)
(1.03485 -0.0174245 0)
(1.03545 -0.0158548 -1.0201e-22)
(1.03716 -0.0140329 -1.03458e-23)
(1.03716 -0.0116231 -1.28369e-21)
(1.0379 -0.011573 1.46253e-21)
(1.03851 -0.0103819 -1.12365e-21)
(1.03981 -0.0108862 -8.94017e-22)
(1.04106 -0.00996001 2.01012e-21)
(1.04401 -0.0103578 8.00479e-23)
(1.04555 -0.00811907 0)
(1.04964 -0.00718184 6.39063e-22)
(1.05188 -0.00235471 -6.36111e-22)
(1.05497 0.000903426 3.82424e-23)
(1.05633 0.00889114 0)
(1.05566 0.0134733 0)
(1.05441 0.0237453 0)
(1.04908 0.0271498 0)
(1.04458 0.0382138 -5.38531e-22)
(1.03289 0.0387332 1.02395e-21)
(0.984099 -0.0085647 5.63698e-21)
(0.984547 -0.0108684 -5.96217e-22)
(0.985405 -0.0129434 -1.0709e-20)
(0.985215 -0.014411 -5.72002e-23)
(0.98642 -0.0164568 5.04276e-21)
(0.986727 -0.0182585 0)
(0.988941 -0.0205472 0)
(0.989962 -0.0226605 0)
(0.993322 -0.0254038 1.08034e-21)
(0.995237 -0.0268402 -1.41164e-21)
(0.999099 -0.0296495 3.84607e-23)
(1.00177 -0.0299695 1.8719e-23)
(1.00626 -0.0324365 -7.16255e-24)
(1.00951 -0.0317221 5.53344e-23)
(1.01439 -0.0337512 -1.43873e-23)
(1.01809 -0.0315206 -8.34e-24)
(1.02192 -0.0320533 0)
(1.02631 -0.0288316 1.76542e-22)
(1.02914 -0.028016 4.8017e-23)
(1.03292 -0.0244228 1.47453e-23)
(1.03448 -0.0225518 -5.14899e-22)
(1.03722 -0.0194461 5.49875e-22)
(1.03733 -0.0162082 -1.2967e-22)
(1.03882 -0.014991 1.13922e-22)
(1.03848 -0.0124425 -2.25701e-22)
(1.0387 -0.0120536 -1.33029e-21)
(1.03898 -0.0113217 1.5136e-21)
(1.03952 -0.0120396 2.14576e-21)
(1.04067 -0.0118333 -6.64268e-22)
(1.0437 -0.0128676 -1.77137e-21)
(1.04612 -0.0109375 0)
(1.05028 -0.0110131 -1.15378e-22)
(1.05354 -0.00702343 0)
(1.05716 -0.00455116 -2.44008e-22)
(1.06071 0.00312074 4.47962e-22)
(1.06135 0.00813237 -2.84981e-22)
(1.06285 0.0193551 1.21765e-22)
(1.05823 0.0244815 9.39437e-24)
(1.05628 0.037495 -1.98651e-22)
(1.04353 0.0407407 2.35195e-22)
(0.982041 -0.00972872 -3.8581e-22)
(0.98228 -0.0120901 6.46997e-21)
(0.983531 -0.0143591 -5.77922e-21)
(0.983296 -0.0159818 3.40869e-22)
(0.984692 -0.0180094 0)
(0.984962 -0.0200031 -2.97895e-22)
(0.987289 -0.0225273 0)
(0.988644 -0.0243802 1.86772e-21)
(0.991912 -0.0278261 -5.78972e-22)
(0.994289 -0.0289535 -1.1335e-21)
(0.998156 -0.0322932 -4.01623e-23)
(1.00127 -0.0323193 -1.5145e-25)
(1.00572 -0.0351419 0)
(1.00997 -0.0339982 6.08413e-22)
(1.0142 -0.0360488 -5.73681e-22)
(1.01939 -0.0339877 -1.18619e-21)
(1.02269 -0.0339161 1.34647e-21)
(1.02761 -0.0309229 -9.7631e-23)
(1.03015 -0.0292546 4.33079e-22)
(1.03463 -0.0260962 -5.11198e-22)
(1.03545 -0.0225073 1.6421e-23)
(1.03849 -0.0204255 -1.4286e-22)
(1.03802 -0.0165092 1.35208e-22)
(1.03933 -0.0146579 -1.46869e-22)
(1.03869 -0.0121247 1.24734e-22)
(1.03831 -0.0118002 -2.28895e-21)
(1.03826 -0.0112297 1.98532e-21)
(1.03827 -0.0118092 2.5151e-21)
(1.03903 -0.0122297 -2.57832e-21)
(1.04106 -0.0141451 -1.22489e-22)
(1.04393 -0.0132819 0)
(1.04797 -0.0143187 9.64531e-22)
(1.05308 -0.0112056 -7.51771e-22)
(1.05704 -0.00940561 -3.1433e-22)
(1.06312 -0.00279829 2.87252e-22)
(1.06429 0.00243852 0)
(1.0692 0.0135319 8.04069e-23)
(1.06541 0.0204137 -8.43717e-23)
(1.06726 0.034372 0)
(1.05476 0.0421466 6.17128e-24)
(0.981787 -0.0125872 5.20645e-23)
(0.981835 -0.0151143 -6.77778e-21)
(0.983206 -0.017615 5.83442e-21)
(0.982915 -0.0194652 -1.17876e-20)
(0.98442 -0.0216146 8.52569e-21)
(0.984945 -0.0235364 -2.29832e-21)
(0.987138 -0.0268001 0)
(0.989086 -0.0283107 -2.36595e-22)
(0.992328 -0.0320739 -1.03798e-21)
(0.995249 -0.033003 1.10213e-21)
(0.999021 -0.0367748 2.42866e-23)
(1.00326 -0.036521 4.04708e-22)
(1.00668 -0.039532 -8.53336e-22)
(1.01264 -0.0386818 5.12904e-22)
(1.01619 -0.0397366 0)
(1.0223 -0.038191 0)
(1.02534 -0.0369517 -9.75208e-23)
(1.03136 -0.0346064 9.09757e-22)
(1.03331 -0.0310398 -1.48161e-21)
(1.03833 -0.0289291 5.79655e-22)
(1.03891 -0.0241218 -6.7516e-22)
(1.04204 -0.0213543 6.44581e-22)
(1.04144 -0.0171779 1.76135e-22)
(1.04188 -0.0153689 2.68044e-21)
(1.04108 -0.0124383 -2.52091e-21)
(1.03994 -0.0116539 -2.15711e-21)
(1.03883 -0.0113857 3.18356e-23)
(1.03824 -0.0121235 -1.05276e-21)
(1.03853 -0.0130137 3.41376e-21)
(1.03965 -0.0154516 2.74988e-22)
(1.04269 -0.015897 -2.22337e-22)
(1.0462 -0.0183175 1.57282e-22)
(1.052 -0.0171286 -9.1604e-23)
(1.05659 -0.0164727 -3.68008e-22)
(1.0648 -0.0114044 4.83423e-22)
(1.06796 -0.00654426 -1.4203e-22)
(1.07601 0.00373532 0)
(1.07415 0.011889 0)
(1.07988 0.0267848 0)