/*--------------------------------*- C++ -*----------------------------------*\
  =========                 |
  \\      /  F ield         | OpenFOAM: The Open Source CFD Toolbox
   \\    /   O peration     | Website:  https://openfoam.org
    \\  /    A nd           | Version:  11
     \\/     M anipulation  |
\*---------------------------------------------------------------------------*/
FoamFile
{
    format      ascii;
    class       volVectorField;
    location    "5";
    object      U;
}
// * * * * * * * * * * * * * * * * * * * * * * * * * * * * * * * * * * * * * //

dimensions      [0 1 -1 0 0 0 0];

internalField   nonuniform List<vector> 
9600
(
(0.08264874 0.0012510777 1.3192975e-23)
(0.075821935 -0.0013501074 -5.2733548e-23)
(0.07866398 -0.0045620912 0)
(0.085842318 -0.006783369 -6.4536967e-23)
(0.090166249 -0.0068766348 4.021885e-24)
(0.092698241 -0.0063420982 6.0520539e-23)
(0.094036825 -0.0058074222 0)
(0.094932848 -0.0053906722 0)
(0.095646308 -0.0050218321 0)
(0.096359799 -0.0047454327 0)
(0.097143378 -0.0044877432 0)
(0.098049343 -0.0042616614 0)
(0.099146604 -0.0040438462 0)
(0.10041884 -0.0038059962 -2.16346e-24)
(0.10190762 -0.003558357 9.2394638e-25)
(0.10356159 -0.0032864074 1.2395077e-24)
(0.10514425 -0.002968384 0)
(0.10658098 -0.0025822253 6.2927407e-24)
(0.10775007 -0.002131446 -1.0235977e-23)
(0.10846402 -0.0016252044 3.9432323e-24)
(0.10860591 -0.0010559542 -4.7782958e-24)
(0.10812915 -0.00044180437 1.4270917e-23)
(0.10714142 0.00021410436 -9.4933122e-24)
(0.10581144 0.00078049107 -1.5932891e-23)
(0.10432337 0.0012597839 1.5932889e-23)
(0.1028011 0.0016895632 0)
(0.10131954 0.002055737 0)
(0.10002364 0.0023682199 0)
(0.09896575 0.0026851255 0)
(0.098080818 0.0029372699 9.5857023e-24)
(0.097395957 0.0032296454 -9.5856984e-24)
(0.096808894 0.0034221978 -6.8801047e-24)
(0.09632051 0.003777844 1.3152752e-23)
(0.095959294 0.0038860142 -6.2726417e-24)
(0.095526313 0.0042660714 0)
(0.095104713 0.0044353578 0)
(0.094786461 0.0051009896 0)
(0.093773727 0.0052693535 0)
(0.092409578 0.0072219979 -1.8083873e-23)
(0.081901131 0.0063995183 3.4723334e-23)
(0.090180231 -0.00013184045 -6.5360868e-23)
(0.089441058 -0.00091396631 6.5353695e-23)
(0.093117137 0.00056621612 0)
(0.095780008 0.0038354137 6.1718097e-23)
(0.096426546 0.0057783071 -4.6207436e-24)
(0.096657248 0.0061095561 -5.7051466e-23)
(0.096888184 0.0058492027 2.5223329e-23)
(0.097488055 0.0054558536 -4.8960853e-23)
(0.098043371 0.0050588305 1.8632681e-24)
(0.098702288 0.0047289962 2.1852783e-23)
(0.09948505 0.0043963581 0)
(0.10040592 0.0040686729 1.2563397e-23)
(0.10153306 0.0037347844 -1.2563317e-23)
(0.10282375 0.0034036738 0)
(0.10432177 0.0030377294 0)
(0.10593657 0.0027476954 -6.1797616e-24)
(0.10743743 0.0024420342 6.1797743e-24)
(0.10879285 0.0021141954 0)
(0.10989313 0.0018240681 0)
(0.11054564 0.001525151 0)
(0.11061328 0.0011556134 0)
(0.11021464 0.00075200846 0)
(0.1092477 0.00021590319 -9.1648091e-24)
(0.10793506 -0.00028833048 9.1648833e-24)
(0.1064554 -0.00076763187 0)
(0.10492813 -0.0012058057 0)
(0.1034058 -0.0016465509 1.9111258e-23)
(0.10204129 -0.0020667995 -1.9111327e-23)
(0.10090377 -0.0024739493 0)
(0.099952112 -0.002832558 0)
(0.099210358 -0.0031947042 0)
(0.098583566 -0.0034677122 0)
(0.0980353 -0.0038382428 0)
(0.097664091 -0.0039982989 0)
(0.09723495 -0.004385979 0)
(0.096785938 -0.0047850575 1.0040075e-23)
(0.096684279 -0.0051679883 1.2469785e-24)
(0.095540428 -0.0060209533 1.4951179e-24)
(0.095970897 -0.005369818 4.4427759e-24)
(0.092754384 -0.0057308659 -1.7211803e-23)
(0.090459034 -0.00022303327 1.3190136e-23)
(0.089780118 -0.0023424105 -7.2894781e-23)
(0.091300226 -0.0037286397 0)
(0.092308258 -0.0052855907 0)
(0.094399937 -0.0062122967 0)
(0.096385957 -0.0064790901 -5.9536039e-23)
(0.097745968 -0.0062531201 5.9536481e-23)
(0.098797185 -0.0059202934 0)
(0.099579857 -0.0055310445 0)
(0.10036297 -0.0052523993 0)
(0.10119568 -0.0050223011 -1.8915116e-23)
(0.10214166 -0.0048199302 1.8914959e-23)
(0.10326835 -0.004645911 0)
(0.10455116 -0.0044447161 -1.8069289e-24)
(0.10603153 -0.0042332679 3.8734001e-26)
(0.10766265 -0.003932364 1.768179e-24)
(0.10920212 -0.0035680836 0)
(0.11061022 -0.0031141851 6.6877734e-24)
(0.11176817 -0.0025193751 -1.0843944e-23)
(0.11252123 -0.0017841561 4.1561536e-24)
(0.11273887 -0.00097681599 0)
(0.11232323 -9.9617057e-05 1.0062434e-23)
(0.11140019 0.00073415448 -1.0062328e-23)
(0.11010733 0.0014095766 -1.736532e-23)
(0.10865474 0.0019435813 1.7364887e-23)
(0.10715288 0.002409489 0)
(0.10566237 0.0027449013 0)
(0.10432046 0.0029968443 0)
(0.10321365 0.0032510802 0)
(0.102264 0.0034473432 1.2401175e-23)
(0.10151329 0.0036963699 -1.2401258e-23)
(0.10088834 0.0038443005 -9.3008366e-24)
(0.10035326 0.0041597848 1.7777409e-23)
(0.099925473 0.0042583005 -8.4765891e-24)
(0.099522346 0.0047386544 0)
(0.098889558 0.0048764289 0)
(0.098539993 0.0057708576 0)
(0.097461651 0.0057890046 -1.6749044e-23)
(0.095673047 0.0072237476 -3.4225037e-24)
(0.091243027 0.0046223852 2.0158342e-23)
(0.094459387 -0.0023780751 0)
(0.095322152 -0.002770248 0)
(0.097652283 -0.0012088532 0)
(0.098973976 0.0020724597 0)
(0.098701029 0.004428134 0)
(0.098166869 0.0053782786 -5.1804292e-23)
(0.097986018 0.0054908947 5.1753831e-23)
(0.098050633 0.0052936438 0)
(0.098473797 0.004896396 0)
(0.099124682 0.0044770075 0)
(0.099905883 0.0040427875 0)
(0.10084131 0.0036075523 0)
(0.10199602 0.0031503766 0)
(0.10329702 0.0027272735 2.6996465e-25)
(0.10481142 0.0022577865 -2.6996121e-25)
(0.10642107 0.0019822847 0)
(0.10787236 0.0017134392 -5.653617e-24)
(0.10919309 0.0014623704 1.3096639e-23)
(0.11026198 0.0013663816 -7.4431669e-24)
(0.11092561 0.0013244448 0)
(0.11089621 0.0011947163 0)
(0.11058023 0.0010355389 0)
(0.10980593 0.00068544543 0)
(0.10851494 0.00030315037 -1.7599236e-23)
(0.1070723 -0.00013398377 1.7599132e-23)
(0.10558013 -0.00053367588 1.275153e-23)
(0.10404825 -0.0010040584 -1.2751614e-23)
(0.1026349 -0.0015155127 -1.6183855e-23)
(0.10143717 -0.0020061518 1.6184057e-23)
(0.10041829 -0.0024820146 0)
(0.099603154 -0.0029151947 0)
(0.098951038 -0.0033138989 -5.665459e-24)
(0.098353537 -0.0037279151 1.019747e-23)
(0.098019015 -0.0040243152 -4.5320258e-24)
(0.097686388 -0.0043430045 0)
(0.097386241 -0.005050203 0)
(0.097646416 -0.0052581408 0)
(0.097339927 -0.0059296554 0)
(0.097937728 -0.003856074 -1.565985e-23)
(0.096739341 -0.0042531167 3.2982551e-23)
(0.096054429 -0.0028805372 0)
(0.095557801 -0.0022048136 0)
(0.094843334 -0.0019950633 0)
(0.093955618 -0.0030241844 6.8636712e-23)
(0.094579552 -0.0046651844 -3.0912855e-24)
(0.096181682 -0.005897165 -6.5608064e-23)
(0.097545088 -0.0062030086 0)
(0.098784735 -0.0061439216 0)
(0.099716809 -0.0059262938 -2.5543486e-23)
(0.10058001 -0.0056770996 2.5543257e-23)
(0.10146676 -0.0054575124 1.9227495e-23)
(0.10244912 -0.0052830997 -1.9227205e-23)
(0.10359238 -0.0051430804 9.1880316e-24)
(0.10486609 -0.0049693885 -9.1879026e-24)
(0.10631965 -0.0047742122 0)
(0.10790038 -0.0044255846 0)
(0.10934023 -0.0040394036 0)
(0.11069081 -0.0035135861 -7.2342744e-24)
(0.11180034 -0.0027666258 7.234544e-24)
(0.11252705 -0.001864345 0)
(0.11276935 -0.00086707441 5.3645378e-24)
(0.11233005 0.00019197163 -5.3642676e-24)
(0.11143118 0.001171717 0)
(0.11020789 0.0019422279 1.8930754e-23)
(0.108823 0.0025060016 -1.8930601e-23)
(0.10738678 0.0030020636 0)
(0.10593262 0.0033200529 0)
(0.10460009 0.0035264204 0)
(0.10350011 0.0037279855 1.7846569e-23)
(0.10254443 0.0038757918 -1.7846901e-23)
(0.10177963 0.0040758855 0)
(0.10113413 0.0042155394 0)
(0.10062441 0.0044921705 0)
(0.10003967 0.0045622183 2.0295804e-23)
(0.099696427 0.0051654739 -2.0295485e-23)
(0.099055515 0.0052139759 0)
(0.098323258 0.0059959534 0)
(0.096554457 0.0054617535 1.6120171e-23)
(0.09552412 0.0059487349 -1.6110102e-23)
(0.093896954 0.0031975229 0)
(0.09734504 -0.0030543384 0)
(0.098134822 -0.0019002907 -7.227394e-23)
(0.098680944 -0.001223227 1.3750621e-22)
(0.099771446 0.00058181301 -6.5247486e-23)
(0.1004351 0.0027752263 0)
(0.099594959 0.0040501741 -5.09221e-23)
(0.09902285 0.0046850017 7.4628495e-23)
(0.098925076 0.0047222416 -4.55492e-23)
(0.099021124 0.0044907874 2.1270093e-24)
(0.099541943 0.0040247205 1.9753172e-23)
(0.10031419 0.0034798127 1.3364573e-23)
(0.10124101 0.0029331786 -1.3364325e-23)
(0.1024097 0.0023575241 0)
(0.10371981 0.0018490413 0)
(0.10525544 0.0013022525 -5.0770819e-24)
(0.10687957 0.0010715052 -3.8539263e-24)
(0.10829739 0.0007981228 8.931101e-24)
(0.10962287 0.00073190387 0)
(0.11068581 0.00084335222 0)
(0.11135613 0.0010663382 0)
(0.11128636 0.0011952607 0)
(0.1109534 0.0012707398 0)
(0.11030312 0.0011798733 -1.053286e-23)
(0.1090948 0.00097291868 1.0532899e-23)
(0.10766486 0.00060830411 1.6647439e-23)
(0.10619248 0.0002932068 -1.6647276e-23)
(0.10463488 -0.0001675475 0)
(0.10317234 -0.00074772534 0)
(0.10192352 -0.0013138335 1.3533849e-23)
(0.10085259 -0.001909609 -3.3887283e-24)
(0.099975637 -0.0024315484 -1.0145591e-23)
(0.099279819 -0.0029699721 0)
(0.098707877 -0.0034167558 0)
(0.098360097 -0.0039338146 0)
(0.098134699 -0.0042093717 0)
(0.098195965 -0.0050740983 0)
(0.098652837 -0.0048727482 0)
(0.098637707 -0.0050292365 1.0227969e-23)
(0.098881365 -0.0025946286 -1.0226353e-23)
(0.097975105 -0.0029961716 1.2976555e-23)
(0.098184964 -0.0025784899 0)
(0.09791834 -0.0010735905 -7.4045601e-23)
(0.097163045 -0.00089824221 1.4429953e-22)
(0.095473653 -0.0014741795 -1.3951314e-22)
(0.095403885 -0.0029824731 1.412628e-24)
(0.096193052 -0.0047149931 6.7865629e-23)
(0.097387418 -0.0056438026 0)
(0.098646775 -0.0059907753 0)
(0.099719727 -0.0060618116 0)
(0.10073398 -0.0059916655 0)
(0.10169361 -0.0058121141 -1.9283804e-23)
(0.10272652 -0.0056670118 1.9283382e-23)
(0.10390473 -0.0055589252 0)
(0.10517799 -0.0054111827 0)
(0.10663029 -0.005215337 0)
(0.10816978 -0.00482665 0)
(0.10953235 -0.0044216533 -5.9520047e-24)
(0.11085855 -0.0037698985 1.3931453e-23)
(0.11192302 -0.0029041677 -1.2827202e-23)
(0.11264 -0.0018764646 4.8478547e-24)
(0.11290951 -0.00071184609 0)
(0.11244833 0.0004491332 1.1652231e-23)
(0.11155337 0.0015260542 -1.1651591e-23)
(0.11036163 0.0024167986 -2.0685343e-23)
(0.10902801 0.0029910269 2.0685052e-23)
(0.10764971 0.0035039351 1.6382785e-23)
(0.10621153 0.0038086245 -1.6382891e-23)
(0.10488002 0.0039748009 0)
(0.10377912 0.0041303129 0)
(0.10282162 0.0042346129 0)
(0.10203203 0.0043920819 0)
(0.10138717 0.0045092787 1.4499319e-23)
(0.10081125 0.0047559382 -1.2597563e-24)
(0.1001956 0.004803497 -1.324008e-23)
(0.099733539 0.0053831711 2.2300498e-23)
(0.098806919 0.0053724769 -2.230133e-23)
(0.097784011 0.0057201707 0)
(0.096094056 0.004616248 -1.6311151e-23)
(0.095879861 0.0045298013 1.6299004e-23)
(0.095109473 0.0020526046 0)
(0.098903284 -0.0020082623 0)
(0.099356075 -0.00070704563 7.1988036e-23)
(0.099519844 -0.0007007481 -7.1908033e-23)
(0.099576052 -0.00023498769 6.0278162e-23)
(0.10048248 0.00099107771 -1.1567504e-22)
(0.10047453 0.0024156512 4.3542948e-24)
(0.099992053 0.0034276367 5.1007609e-23)
(0.099767617 0.0037479114 0)
(0.099788176 0.003678385 0)
(0.10003359 0.0033195008 0)
(0.10075153 0.0026976037 -1.2112038e-23)
(0.10165881 0.0020462406 1.2113324e-23)
(0.10282991 0.0013680718 0)
(0.10414991 0.00078182859 2.5769751e-24)
(0.10571246 0.0002094028 -8.9898801e-24)
(0.10735369 -3.0420941e-05 6.4130025e-24)
(0.10876691 -0.00018193465 0)
(0.1101326 -7.6011835e-05 9.250956e-24)
(0.11121024 0.00024925917 -9.251524e-24)
(0.11189508 0.00072941703 0)
(0.11189737 0.0011637627 0)
(0.11150787 0.0014777839 0)
(0.1108318 0.0016459129 0)
(0.10963991 0.0016901396 -2.0939864e-23)
(0.1082414 0.0014741725 2.0939454e-23)
(0.10681455 0.0012541343 0)
(0.10524073 0.00083475759 0)
(0.10372813 0.00021736542 -1.9771358e-23)
(0.10242083 -0.00041307127 4.6791963e-24)
(0.10130299 -0.0011142845 2.6266728e-23)
(0.10036721 -0.0017489441 -1.1173911e-23)
(0.099625542 -0.0024097674 -5.5902944e-24)
(0.099143667 -0.0029151209 9.5272104e-24)
(0.098703302 -0.0036526428 -3.9369877e-24)
(0.098727973 -0.0039201161 0)
(0.098930962 -0.0045378003 0)
(0.099361072 -0.0039399717 0)
(0.099378686 -0.0037087044 0)
(0.099320233 -0.0014457371 0)
(0.09836713 -0.0019269403 0)
(0.099381988 -0.0014431868 0)
(0.099441864 -0.00023162961 0)
(0.099056032 -0.00041007823 0)
(0.097624753 -0.00065506129 6.8441486e-23)
(0.096828145 -0.0018081678 -6.8476319e-23)
(0.096455259 -0.0033284669 -6.7267252e-23)
(0.09732436 -0.0047106999 9.9308894e-23)
(0.098518975 -0.0055201574 -6.1947896e-23)
(0.099655256 -0.0059034469 2.6978362e-24)
(0.10080677 -0.0061086576 2.7206809e-23)
(0.10187343 -0.0060816676 1.9047326e-23)
(0.10296452 -0.0059875228 -5.5205416e-24)
(0.10419508 -0.0059207681 -6.6676646e-24)
(0.10548596 -0.0058001471 -6.8579748e-24)
(0.10695911 -0.0055968496 0)
(0.10848801 -0.0051964514 -9.2044484e-24)
(0.10981344 -0.0046943157 9.204643e-24)
(0.11113086 -0.0039534691 0)
(0.11218665 -0.0029868724 -5.3734325e-24)
(0.11286139 -0.0018508593 5.3738984e-24)
(0.11313957 -0.00052890555 0)
(0.11270989 0.00074105875 1.2762651e-23)
(0.11180552 0.0018699896 -2.4992439e-23)
(0.11060222 0.0028149648 1.2230026e-23)
(0.10927027 0.0034514621 0)
(0.10793898 0.0039538774 0)
(0.10651356 0.004242986 0)
(0.10517091 0.0043743322 2.7380794e-23)
(0.10405598 0.0044874192 -3.5151694e-24)
(0.1030816 0.0045484545 -2.3867133e-23)
(0.10228942 0.0046679342 0)
(0.1015757 0.0047232489 0)
(0.100973 0.0049770096 0)
(0.10029633 0.0049578463 2.760639e-23)
(0.099660241 0.005375369 -2.7599465e-23)
(0.098376976 0.005107791 2.1025618e-23)
(0.097440813 0.0050017559 -2.1022893e-23)
(0.096329568 0.0035941585 1.6843207e-23)
(0.096501616 0.0032962904 -3.4292094e-23)
(0.096101537 0.0012158776 1.7440797e-23)
(0.099738164 -0.0010313347 -5.157767e-23)
(0.1001503 -6.6943957e-06 -7.5610532e-23)
(0.10004145 -0.0003179374 -6.7408083e-23)
(0.099704777 -0.00037728074 1.3027871e-22)
(0.099854589 -0.00023089408 -6.2823838e-23)
(0.10034259 0.00070354215 0)
(0.10059568 0.0018350995 0)
(0.1004943 0.002390391 0)
(0.10054733 0.002451883 0)
(0.10068415 0.0022536507 0)
(0.10119157 0.0016819176 -1.1136852e-23)
(0.10209506 0.00094265001 1.1141688e-23)
(0.10327266 0.00019152416 0)
(0.10460761 -0.00044813124 3.7448647e-24)
(0.10620049 -0.0010104007 -3.7448007e-24)
(0.10787137 -0.0012374123 0)
(0.1093136 -0.0012413505 0)
(0.1107137 -0.00095555815 1.0413676e-23)
(0.11185362 -0.00040924561 -1.0414484e-23)
(0.11248734 0.0003489983 0)
(0.11255324 0.0010767709 -6.8419146e-24)
(0.11219149 0.0016545697 6.8412693e-24)
(0.1114685 0.0021202888 0)
(0.11026738 0.002409154 -2.3306914e-23)
(0.10885954 0.0024126428 2.3306149e-23)
(0.10745075 0.0023191847 0)
(0.10586273 0.0019669845 0)
(0.10430442 0.0013497273 -2.2690595e-23)
(0.10293867 0.00067441486 2.2691232e-23)
(0.10177443 -0.00011050084 0)
(0.10078421 -0.00085824036 0)
(0.10004038 -0.0016298985 -6.3952444e-24)
(0.099524615 -0.0022072052 1.8705463e-24)
(0.099264409 -0.0030862759 4.5250116e-24)
(0.099326396 -0.0032550473 0)
(0.09946336 -0.003495211 0)
(0.099762354 -0.0027073382 0)
(0.099599555 -0.0023142633 -9.5055505e-24)
(0.09933963 -0.00043241737 9.4929852e-24)
(0.098386613 -0.001056936 0)
(0.10002528 -0.00072755961 7.5963515e-23)
(0.10048875 0.00017670876 -1.5026052e-22)
(0.10022337 -0.00012185422 7.4262732e-23)
(0.099231954 -0.00041857577 6.8529579e-23)
(0.098275504 -0.0012630205 -1.3645811e-22)
(0.097339436 -0.0022499317 6.7900722e-23)
(0.097632741 -0.0036630448 -3.2708652e-23)
(0.098602593 -0.0048519099 6.3200286e-23)
(0.099671486 -0.0055217351 -3.0491736e-23)
(0.10083854 -0.0059860249 -2.358784e-23)
(0.10200216 -0.0062182875 5.062854e-24)
(0.10317494 -0.0062693315 3.0843662e-23)
(0.10447148 -0.0062615807 -1.2319803e-23)
(0.10580142 -0.0061707494 0)
(0.10731578 -0.0059645057 0)
(0.10887479 -0.0055424821 0)
(0.11020269 -0.0049396181 0)
(0.1115344 -0.0041090511 0)
(0.11258807 -0.0030247415 0)
(0.11323515 -0.0017820355 0)
(0.11352643 -0.00034667982 0)
(0.11310399 0.001051252 0)
(0.11218467 0.0022449991 1.3571627e-23)
(0.11097441 0.0032118641 -1.3569731e-23)
(0.10961251 0.0038869211 2.2896288e-23)
(0.10828524 0.0043951912 -2.2895719e-23)
(0.10685024 0.0046707342 0)
(0.10547978 0.0047670908 0)
(0.10433268 0.0048363043 -2.6800435e-23)
(0.1033205 0.0048526973 2.6801475e-23)
(0.10253896 0.0049221731 2.1177233e-23)
(0.10166771 0.0048920978 -2.117811e-23)
(0.10115591 0.0051181196 0)
(0.10027319 0.0049701773 0)
(0.099500856 0.0051183486 -2.5561841e-23)
(0.098098035 0.0045184666 4.7153443e-23)
(0.097505958 0.0041037372 -2.158722e-23)
(0.096939203 0.0026068437 -1.6985143e-23)
(0.097282985 0.002341532 -4.2871689e-26)
(0.096990373 0.00073100317 3.392433e-24)
(0.10021605 -0.00050442222 -7.6594859e-23)
(0.10086047 0.00031803679 7.659572e-23)
(0.10070001 -1.0560194e-05 -6.9892187e-23)
(0.099870961 -0.00051016548 1.3621934e-22)
(0.099722544 -0.00075517172 -6.6168801e-23)
(0.099824021 -0.00062603031 0)
(0.10045421 3.7779893e-05 0)
(0.10087335 0.00072653471 0)
(0.10111896 0.00093336861 0)
(0.1013273 0.00082641578 0)
(0.10171163 0.00036741803 0)
(0.10257885 -0.00038674556 -4.7895283e-24)
(0.1037643 -0.0011589927 4.7893394e-24)
(0.10511748 -0.0018181702 5.0236323e-24)
(0.10674675 -0.0023361199 -5.0235579e-24)
(0.1084646 -0.0025176444 0)
(0.10994633 -0.0023613423 0)
(0.11139419 -0.0018822473 1.1824162e-23)
(0.11256368 -0.001107456 -1.1825284e-23)
(0.11322446 -7.2428729e-05 0)
(0.11330587 0.00096118069 0)
(0.1129111 0.0018079803 0)
(0.11217663 0.0025915233 0)
(0.11098453 0.003131704 -2.6287377e-23)
(0.10954806 0.003372968 2.6286161e-23)
(0.10811992 0.0034454336 0)
(0.1065121 0.0031916032 0)
(0.1049062 0.0026130652 0)
(0.1034908 0.0019202908 0)
(0.10225913 0.001077711 0)
(0.10127044 0.00025232459 0)
(0.10043482 -0.00062494544 -8.0347975e-24)
(0.10002109 -0.0012999907 1.3956687e-23)
(0.099763186 -0.0021066557 -5.9220058e-24)
(0.099792262 -0.0021577566 8.9022071e-24)
(0.099761992 -0.0021373135 -1.7626134e-23)
(0.099892943 -0.0013315352 8.7459148e-24)
(0.099502511 -0.00097145099 0)
(0.0991667 0.00036972103 0)
(0.098334289 -0.00038997731 0)
(0.1003647 -0.00037441863 0)
(0.10114861 0.00037840291 7.5995768e-23)
(0.1010577 4.8170269e-05 -1.4746612e-22)
(0.10009421 -0.00043271478 7.1631688e-23)
(0.099277159 -0.0011679447 0)
(0.09860027 -0.0018052217 6.6951762e-23)
(0.09845644 -0.0028379795 -6.6949487e-23)
(0.098942969 -0.0041252077 0)
(0.099809332 -0.0050567903 0)
(0.10089456 -0.0057233573 0)
(0.10211523 -0.0062290141 1.753752e-23)
(0.10337579 -0.0065190954 -1.7536663e-23)
(0.1047495 -0.0066086548 2.3847967e-24)
(0.10613826 -0.006567259 -2.3847261e-24)
(0.10772099 -0.0063608718 -8.6854319e-24)
(0.10934865 -0.0059178768 -5.2186528e-24)
(0.11071831 -0.0052092127 1.3904875e-23)
(0.11208688 -0.0042713746 -1.1972175e-23)
(0.11315958 -0.0030613429 1.1973421e-23)
(0.11379722 -0.0016934503 0)
(0.11407471 -0.00014440952 7.9937605e-24)
(0.11366633 0.0013761737 -7.9927717e-24)
(0.1127381 0.002649207 0)
(0.11148047 0.0036478577 2.8298768e-23)
(0.1100791 0.0043550686 -2.829804e-23)
(0.1087232 0.0048793903 0)
(0.10725056 0.0051481888 0)
(0.10582318 0.0052072139 0)
(0.10462375 0.0052268828 2.9794444e-23)
(0.10354781 0.0051834699 -3.5359615e-24)
(0.10273875 0.0051935643 -2.6260839e-23)
(0.10177958 0.0050503638 0)
(0.10117949 0.0051837377 0)
(0.10017354 0.0048216517 3.1281834e-23)
(0.099382121 0.0046912776 -3.1280545e-23)
(0.098229887 0.0037563972 0)
(0.097955601 0.003236459 0)
(0.097731519 0.0018756839 1.6639898e-23)
(0.09801432 0.0017513449 -5.1825788e-25)
(0.09772095 0.00055271036 -1.6083331e-23)
(0.10045338 -0.00030548777 -7.8721917e-23)
(0.10136872 0.00041849359 1.560997e-22)
(0.1013605 0.00011620737 -7.7297784e-23)
(0.10035067 -0.0005944455 7.0060736e-23)
(0.099732332 -0.001210074 -7.0130605e-23)
(0.099747308 -0.0014376187 -6.2339709e-23)
(0.10004117 -0.0014755542 9.018948e-23)
(0.10073569 -0.0010951569 -5.2030888e-23)
(0.10130168 -0.00079138549 2.4127849e-23)
(0.1017327 -0.00085404659 0)
(0.10231785 -0.0012822783 0)
(0.10314444 -0.0019471707 3.6599257e-24)
(0.10432706 -0.0026705071 -3.6597685e-24)
(0.10570226 -0.0033121839 0)
(0.10737454 -0.0037448055 0)
(0.10915513 -0.003847037 -1.6819407e-23)
(0.11069047 -0.0035150607 1.6820322e-23)
(0.11218544 -0.0028287528 0)
(0.11338473 -0.0018192474 0)
(0.11407177 -0.00051510023 0)
(0.11417967 0.00083108515 0)
(0.11375207 0.0019524282 0)
(0.11297373 0.0030445627 -1.629401e-23)
(0.1117609 0.003839022 1.6294014e-23)
(0.11030043 0.0043235227 0)
(0.10884051 0.0045839239 0)
(0.10720359 0.0044666362 3.9104095e-23)
(0.10554605 0.0039671704 -7.4922063e-24)
(0.10408817 0.0032951017 -3.1613781e-23)
(0.10276982 0.0024229126 0)
(0.10180914 0.001579945 0)
(0.10084098 0.00060842261 0)
(0.10056036 -8.3747562e-05 0)
(0.10012853 -0.0007638873 0)
(0.10007964 -0.00072578303 0)
(0.099864257 -0.00065753583 1.1640043e-23)
(0.099782933 2.3912702e-05 -1.1647932e-23)
(0.099270587 0.00019458795 0)
(0.098980977 0.00095283886 0)
(0.098343668 0.0001158483 0)
(0.10049316 -0.00029726362 8.0182913e-23)
(0.10155741 0.00040246962 -8.0183283e-23)
(0.10163616 8.5949391e-05 0)
(0.10077127 -0.00060499579 7.2018805e-23)
(0.099826968 -0.0013629542 -1.4210381e-22)
(0.099406984 -0.0018631204 6.9997358e-23)
(0.099372477 -0.0025483669 -3.2096361e-23)
(0.099590005 -0.003595186 6.2071577e-23)
(0.10015923 -0.0046387066 -2.9975903e-23)
(0.10110704 -0.0055371208 0)
(0.10229624 -0.0062611616 -1.5967451e-23)
(0.10358377 -0.0067517193 2.4190012e-23)
(0.10504011 -0.0069848738 -8.2230641e-24)
(0.10652417 -0.0070377049 0)
(0.10819609 -0.0068349432 0)
(0.10993037 -0.0063774591 0)
(0.11138788 -0.005558515 0)
(0.11281284 -0.0044887376 0)
(0.11392604 -0.0031362086 0)
(0.1145684 -0.001614843 0)
(0.11482788 6.6796044e-05 0)
(0.11441044 0.0017066045 0)
(0.11349266 0.0031128693 0)
(0.11224126 0.0041756568 0)
(0.11073094 0.0049095055 0)
(0.10927022 0.0054680076 0)
(0.10773115 0.0057388036 0)
(0.10622545 0.0057558053 3.833585e-23)
(0.10494996 0.0057229902 -7.1442524e-23)
(0.10377653 0.0055855945 3.3107065e-23)
(0.10291713 0.0055313456 0)
(0.10187128 0.0052291146 0)
(0.10118948 0.0052165197 0)
(0.1001354 0.0045805078 0)
(0.0994391 0.0042319931 -2.6192225e-23)
(0.09865311 0.0030837587 4.7829417e-23)
(0.098557452 0.0025870305 -2.1635026e-23)
(0.098404126 0.0015443948 -1.6136963e-23)
(0.098533011 0.0015461089 1.6113378e-23)
(0.098199828 0.00060171606 0)
(0.10049253 -0.00034259881 0)
(0.10168384 0.00034423255 0)
(0.10185149 1.3852106e-05 0)
(0.10106947 -0.00069680016 0)
(0.0999935 -0.0015787266 0)
(0.099688055 -0.0020749874 0)
(0.099886305 -0.0025344474 0)
(0.10053579 -0.0026879007 0)
(0.10128885 -0.0026226611 0)
(0.10199638 -0.0027328575 0)
(0.10276343 -0.0031269013 0)
(0.10367971 -0.0037088346 0)
(0.10492802 -0.0043370065 0)
(0.10637086 -0.0049182522 0)
(0.10810274 -0.0052166713 -1.4292791e-23)
(0.10996214 -0.0052063517 1.4293133e-23)
(0.11156701 -0.0046713855 -1.3056164e-23)
(0.11310748 -0.0037598333 2.8892123e-23)
(0.11434591 -0.0025109166 -1.583647e-23)
(0.11505389 -0.00094994946 0)
(0.11519472 0.00070242162 0)
(0.11473928 0.0021075586 0)
(0.11389858 0.0034445737 0)
(0.11265621 0.0045063857 -3.4750568e-23)
(0.11116246 0.0052609717 3.475057e-23)
(0.10962467 0.0056919221 2.7446785e-23)
(0.10795452 0.0057446451 -2.7440419e-23)
(0.10623719 0.0053626899 0)
(0.1047314 0.0047683984 0)
(0.10332806 0.0038925485 2.3832293e-23)
(0.10235559 0.003111958 -2.3833289e-23)
(0.10130305 0.0020484281 0)
(0.1010291 0.0014904631 1.1415908e-23)
(0.10041216 0.00081802976 -1.1416701e-23)
(0.10018729 0.00090044695 0)
(0.099838515 0.0008115601 0)
(0.099559123 0.0012069617 0)
(0.099098106 0.001118257 0)
(0.098896224 0.0014005759 0)
(0.09842655 0.0005695482 0)
(0.10045682 -0.00043942004 -8.4238088e-23)
(0.10173623 0.00023334442 1.6777512e-22)
(0.10202281 -0.0001149329 -8.3311744e-23)
(0.10136571 -0.00079981949 7.663496e-23)
(0.10023743 -0.0017560296 -7.6745704e-23)
(0.099813898 -0.0023136998 -6.9956652e-23)
(0.099914548 -0.0028441228 1.024266e-22)
(0.10021284 -0.0036298451 -6.1986804e-23)
(0.10070254 -0.0045521151 2.9510764e-23)
(0.10148758 -0.0055406596 0)
(0.10257939 -0.006422008 0)
(0.10386814 -0.007083957 5.0395315e-24)
(0.10539963 -0.0074703299 -5.0392949e-24)
(0.10699861 -0.0076415996 0)
(0.10878171 -0.0074518486 0)
(0.11064549 -0.0069825834 0)
(0.11222668 -0.0060492259 1.4089522e-23)
(0.11374731 -0.0048183731 -1.409184e-23)
(0.1149403 -0.0032931788 0)
(0.11559921 -0.0015817179 0)
(0.11581559 0.00026961637 0)
(0.11538204 0.002043675 0)
(0.11444846 0.0036135599 -2.028546e-23)
(0.11316399 0.004803346 2.0285468e-23)
(0.11162059 0.0056502748 0)
(0.11008994 0.0062585742 0)
(0.10839618 0.0064934996 5.1421728e-23)
(0.10671774 0.0064817646 -7.7211771e-24)
(0.10534335 0.0063987994 -6.4790914e-24)
(0.104041 0.0061220503 -3.7207463e-23)
(0.10311361 0.0059988557 0)
(0.10196798 0.0054755339 0)
(0.10126449 0.0052952211 0)
(0.10024345 0.0044146943 0)
(0.099707965 0.0039341634 0)
(0.099165953 0.0027595742 2.1404831e-23)
(0.099073807 0.0023451031 -3.3085488e-24)
(0.098829276 0.0016347832 -1.8069447e-23)
(0.098817614 0.0016613765 0)
(0.098446583 0.00083461745 0)
(0.10038808 -0.00059039393 6.7579497e-24)
(0.10171731 7.5409286e-05 -8.7244253e-23)
(0.10214772 -0.00029312105 0)
(0.10163617 -0.0009214554 0)
(0.10043627 -0.0020033521 0)
(0.099943092 -0.0025993893 0)
(0.099969563 -0.0032820432 0)
(0.10048243 -0.0039528138 0)
(0.10121056 -0.0042966692 0)
(0.10209223 -0.0046263381 0)
(0.10307231 -0.0050679293 0)
(0.10416925 -0.0055984051 -5.3117228e-25)
(0.10555062 -0.0061329564 5.3114708e-25)
(0.10711114 -0.0066030229 1.1233316e-23)
(0.1089257 -0.0067332164 -2.9186511e-23)
(0.11090785 -0.0065698519 1.7954687e-23)
(0.11266466 -0.0058122503 -1.575357e-23)
(0.11426912 -0.0046612949 3.4595152e-23)
(0.11552891 -0.00315383 -2.9493138e-23)
(0.11622739 -0.0013351889 1.0652699e-23)
(0.11638224 0.00060530528 -1.173358e-23)
(0.11591247 0.0022929735 3.4829109e-23)
(0.11499807 0.0038800626 -2.3095511e-23)
(0.11369871 0.0051493683 -4.074738e-23)
(0.11214145 0.0060711951 4.0747386e-23)
(0.11055157 0.0067499962 3.2480198e-23)
(0.10883014 0.007028333 -3.2480182e-23)
(0.10700299 0.0067570587 0)
(0.10542575 0.0062997963 0)
(0.1039292 0.0054616594 2.9922568e-23)
(0.10290088 0.004801608 -2.9923737e-23)
(0.10181269 0.0036821692 -1.8937334e-23)
(0.10129867 0.0033039294 3.4400678e-23)
(0.10070938 0.0025234531 -1.5464107e-23)
(0.10024847 0.0025386189 0)
(0.099740445 0.0021469287 -1.9855875e-23)
(0.09938834 0.0021891186 1.985079e-23)
(0.099046544 0.0018249454 0)
(0.098906966 0.0018309031 0)
(0.098523123 0.0010089036 0)
(0.10028396 -0.00078863488 -8.4562095e-23)
(0.10163517 -0.00013821421 8.9160679e-23)
(0.102221 -0.00052242062 -8.9062803e-23)
(0.10185334 -0.0010918968 0)
(0.10066144 -0.0022400902 0)
(0.10006494 -0.0029209806 0)
(0.10010727 -0.0036580931 0)
(0.10058555 -0.0043504 0)
(0.10118065 -0.0050762248 0)
(0.10195191 -0.0059814684 0)
(0.10298488 -0.0069006122 0)
(0.10428818 -0.007681347 0)
(0.10587464 -0.0081788658 0)
(0.10759289 -0.0084630395 1.2569026e-23)
(0.10952115 -0.0082909334 -1.2571144e-23)
(0.11159048 -0.0078224404 2.7533278e-23)
(0.11338123 -0.0067386205 -2.7537379e-23)
(0.11497411 -0.0052902377 2.0647118e-23)
(0.11621589 -0.0035497696 -2.0647145e-23)
(0.11688618 -0.0016128364 0)
(0.11705992 0.00044427556 0)
(0.11658952 0.0023717032 0)
(0.11563022 0.0041048068 0)
(0.11430005 0.0054936871 -4.4416559e-23)
(0.11271138 0.0065163345 4.4416567e-23)
(0.11107486 0.0072543524 0)
(0.10929073 0.0075773276 0)
(0.10746697 0.0075092534 0)
(0.10588434 0.0073167218 0)
(0.10438864 0.0068784432 0)
(0.1033573 0.0066898829 0)
(0.1021607 0.0058884467 -2.5215637e-23)
(0.10139206 0.0055955574 2.5216398e-23)
(0.10054052 0.0045331881 0)
(0.10006523 0.00402877 0)
(0.099531639 0.0029867151 0)
(0.099343893 0.002653446 0)
(0.099043582 0.0020982956 0)
(0.098935769 0.0020575332 0)
(0.098572581 0.0012527112 0)
(0.10014828 -0.0010313578 -9.4006803e-23)
(0.10149654 -0.00040413477 1.86813e-22)
(0.10225201 -0.00079489508 -9.2564454e-23)
(0.10202303 -0.0013137018 8.6349302e-23)
(0.10091947 -0.0025047777 -8.6480666e-23)
(0.10022094 -0.0032930634 -7.7860424e-23)
(0.10019823 -0.0041073986 1.1333266e-22)
(0.10065265 -0.0049435759 -6.6479389e-23)
(0.1013126 -0.0056893697 3.1007242e-23)
(0.10221385 -0.0063609132 0)
(0.10336085 -0.0069530531 0)
(0.10463891 -0.0075107144 -2.4131203e-24)
(0.10620611 -0.007966972 -1.3057321e-23)
(0.10801057 -0.0083543098 1.5475308e-23)
(0.10998681 -0.0083182383 0)
(0.11211402 -0.0079932531 -3.1242039e-23)
(0.11400557 -0.0069684338 3.1242078e-23)
(0.115661 -0.0054999484 0)
(0.11694823 -0.0037007854 -1.2805099e-23)
(0.11763859 -0.001635373 1.2805118e-23)
(0.11778726 0.0005682849 0)
(0.11729446 0.0025391504 2.7507369e-23)
(0.11631872 0.0043706722 -5.3730068e-23)
(0.11496618 0.0058385804 2.6222688e-23)
(0.11333983 0.0069731179 0)
(0.11164952 0.0078012534 0)
(0.10982802 0.0082159404 6.6836299e-23)
(0.10790838 0.0081655389 -1.0716776e-23)
(0.10624062 0.0079052845 -5.6119397e-23)
(0.10460546 0.0070867714 0)
(0.10343399 0.0065988378 0)
(0.10229257 0.0054597568 0)
(0.10155169 0.0051468313 0)
(0.10081418 0.0042492801 3.3383911e-23)
(0.1003274 0.0040206192 -3.3385023e-23)
(0.099700504 0.0032930445 2.3626414e-23)
(0.099414442 0.0030401032 -2.3626362e-23)
(0.099089096 0.0024425743 0)
(0.098965845 0.0023369406 0)
(0.098604324 0.0015170072 0)
(0.099981675 -0.0013302268 -9.457431e-23)
(0.10129613 -0.00073186228 0)
(0.10224328 -0.0011117781 0)
(0.10214652 -0.0016089463 0)
(0.1012135 -0.0027837615 0)
(0.10037565 -0.003735066 0)
(0.10030282 -0.0046285893 0)
(0.10077488 -0.0055282356 -3.1794837e-23)
(0.10145272 -0.0062837044 3.1794872e-23)
(0.10235232 -0.0070664824 0)
(0.10349357 -0.0079003568 0)
(0.10487954 -0.0087057659 0)
(0.10657216 -0.0092882485 0)
(0.108509 -0.0096240531 1.7612399e-23)
(0.11058889 -0.0094171954 -4.405495e-23)
(0.11280645 -0.0088678677 6.1727153e-23)
(0.11479793 -0.0076140044 -3.528464e-23)
(0.11648253 -0.0059233431 0)
(0.11778057 -0.0039427331 0)
(0.11846444 -0.0017440463 0)
(0.11859244 0.00057323208 0)
(0.11808695 0.0026848695 0)
(0.11707175 0.0046339218 0)
(0.11569429 0.0062051749 0)
(0.11405365 0.0074402853 0)
(0.11229373 0.0083495657 0)
(0.11041692 0.0088567919 0)
(0.10842206 0.008850878 0)