/*--------------------------------*- C++ -*----------------------------------*\
  =========                 |
  \\      /  F ield         | OpenFOAM: The Open Source CFD Toolbox
   \\    /   O peration     | Website:  https://openfoam.org
    \\  /    A nd           | Version:  10
     \\/     M anipulation  |
\*---------------------------------------------------------------------------*/
FoamFile
{
    format      ascii;
    class       volScalarField;
    location    "0.19995";
    object      p;
}
// * * * * * * * * * * * * * * * * * * * * * * * * * * * * * * * * * * * * * //

dimensions      [1 -1 -2 0 0 0 0];

internalField   nonuniform List<scalar> 
15708
(
2.385
2.39238
2.40037
2.40916
2.41897
2.42995
2.44219
2.45561
2.46993
2.4847
2.49934
2.51316
2.52553
2.53591
2.54394
2.54945
2.55249
2.55324
2.55216
2.54951
2.54567
2.54106
2.53607
2.53104
2.52627
2.52201
2.51845
2.5157
2.51382
2.5128
2.51259
2.51302
2.51408
2.51562
2.51756
2.51985
2.52249
2.52555
2.52916
2.53348
2.53868
2.54493
2.55236
2.56099
2.57072
2.58132
2.59242
2.60356
2.61421
2.62386
2.63209
2.3888
2.3956
2.4025
2.40971
2.41749
2.42611
2.43576
2.44653
2.45835
2.47097
2.48398
2.49684
2.50899
2.51988
2.52909
2.53634
2.54155
2.54478
2.54626
2.54627
2.54522
2.5433
2.54093
2.53839
2.53594
2.5338
2.53211
2.53096
2.53035
2.53024
2.53048
2.53103
2.53172
2.53245
2.53313
2.53371
2.53422
2.53479
2.53558
2.53681
2.53875
2.54164
2.54573
2.55115
2.55794
2.56605
2.57521
2.5851
2.59525
2.60519
2.61445
2.39301
2.39918
2.40502
2.41075
2.41667
2.42311
2.43036
2.43865
2.44806
2.45853
2.46981
2.48153
2.4932
2.50434
2.51447
2.52326
2.53051
2.53615
2.54028
2.54309
2.54483
2.54576
2.54616
2.54627
2.5463
2.54639
2.54665
2.54711
2.54775
2.54847
2.54914
2.54963
2.54983
2.54965
2.54902
2.54781
2.54618
2.54431
2.54239
2.5407
2.53956
2.53933
2.5402
2.54252
2.54643
2.55203
2.55913
2.56757
2.57698
2.58692
2.59694
2.3975
2.40299
2.40777
2.41209
2.4163
2.42076
2.42584
2.43185
2.43902
2.44742
2.45697
2.46743
2.47845
2.48958
2.5004
2.51051
2.51962
2.52757
2.53432
2.53994
2.54459
2.54844
2.55171
2.55455
2.55711
2.55949
2.56172
2.56378
2.56559
2.56704
2.56799
2.56828
2.56791
2.56675
2.56465
2.56165
2.55793
2.55372
2.54925
2.54484
2.54085
2.53768
2.53568
2.53524
2.53639
2.53952
2.54455
2.55144
2.55993
2.56964
2.58017
2.40219
2.40689
2.4106
2.4136
2.41624
2.41892
2.42207
2.42605
2.43118
2.43766
2.44554
2.45471
2.46494
2.4759
2.48717
2.49836
2.50913
2.51923
2.52849
2.53689
2.54444
2.55125
2.5574
2.56301
2.56812
2.57276
2.57691
2.58047
2.58335
2.5854
2.58646
2.58643
2.58542
2.58313
2.57954
2.57477
2.56905
2.56262
2.5558
2.54891
2.54238
2.5366
2.532
2.52898
2.52786
2.52875
2.53174
2.53706
2.54453
2.55386
2.56469
2.407
2.41081
2.41343
2.41517
2.41639
2.41749
2.41895
2.42114
2.42447
2.42922
2.43555
2.44347
2.45287
2.4635
2.47503
2.48708
2.49928
2.51131
2.52293
2.53397
2.54436
2.55405
2.56306
2.57137
2.57896
2.58578
2.59173
2.59667
2.60046
2.60294
2.60397
2.60356
2.60173
2.59828
2.59322
2.58674
2.57913
2.57068
2.56173
2.55265
2.54387
2.53584
2.52899
2.52376
2.52051
2.51959
2.52091
2.52477
2.53112
2.54001
2.55099
2.41184
2.41468
2.4162
2.41676
2.41668
2.41642
2.41642
2.41707
2.41881
2.42205
2.427
2.43377
2.44235
2.45257
2.4642
2.47689
2.49028
2.50401
2.51775
2.53124
2.54428
2.55672
2.56844
2.57932
2.58925
2.59809
2.60567
2.61181
2.61634
2.61909
2.61995
2.61908
2.61635
2.61173
2.60525
2.59718
2.58783
2.57756
2.56674
2.55577
2.54509
2.53517
2.52646
2.5194
2.51441
2.51186
2.51201
2.51448
2.52002
2.52838
2.53941
2.41668
2.41846
2.41889
2.41833
2.41708
2.4156
2.4143
2.41371
2.41423
2.41611
2.41985
2.42562
2.43343
2.44323
2.45483
2.46797
2.48231
2.49746
2.51305
2.52872
2.54416
2.5591
2.5733
2.58654
2.59858
2.60921
2.6182
2.62533
2.63041
2.63329
2.63386
2.63248
2.62884
2.62307
2.61526
2.60572
2.59484
2.58298
2.57055
2.558
2.54577
2.53434
2.52416
2.51569
2.50935
2.50556
2.50467
2.50638
2.51123
2.51914
2.53025
2.42145
2.42213
2.42152
2.41986
2.41757
2.41497
2.4126
2.41095
2.41048
2.4114
2.41412
2.419
2.42613
2.43551
2.44703
2.46048
2.47554
2.49184
2.50895
2.52646
2.54396
2.56106
2.57742
2.59269
2.60655
2.61869
2.62883
2.63673
2.64218
2.64504
2.64525
2.64329
2.63879
2.63195
2.62293
2.61209
2.59986
2.58667
2.57293
2.55912
2.54568
2.53311
2.52185
2.51237
2.50511
2.50051
2.49893
2.5002
2.50464
2.5124
2.52367
2.42611
2.42573
2.42405
2.42137
2.41806
2.41453
2.41127
2.40876
2.4075
2.40775
2.40969
2.41388
2.42042
2.42944
2.44085
2.45449
2.47007
2.48723
2.50553
2.5245
2.54365
2.5625
2.58061
2.59751
2.61282
2.62612
2.63713
2.64555
2.65118
2.6539
2.65372
2.65116
2.64589
2.63805
2.62796
2.61602
2.60267
2.58839
2.57363
2.55887
2.54458
2.53121
2.51926
2.5092
2.50146
2.49647
2.49462
2.49579
2.50018
2.50805
2.51966
2.43069
2.42923
2.42646
2.42278
2.41855
2.41421
2.41023
2.40708
2.4052
2.40499
2.40641
2.41014
2.41626
2.42499
2.43628
2.45003
2.46596
2.48373
2.50286
2.52287
2.54321
2.56334
2.5827
2.60079
2.61711
2.63121
2.64275
2.65145
2.65708
2.65955
2.65899
2.6558
2.64985
2.64114
2.63014
2.61728
2.60304
2.58795
2.57245
2.55704
2.54219
2.52841
2.51617
2.50594
2.49815
2.49321
2.49153
2.49292
2.49766
2.50594
2.51816
2.43519
2.43251
2.42874
2.42406
2.41901
2.41398
2.40944
2.40581
2.40352
2.40299
2.40415
2.40762
2.4135
2.42206
2.43329
2.44709
2.46323
2.48135
2.50098
2.5216
2.54265
2.56352
2.58363
2.60238
2.61925
2.63375
2.64549
2.65421
2.65967
2.66181
2.66088
2.6571
2.65044
2.64104
2.6293
2.61572
2.60084
2.58515
2.56917
2.55339
2.53833
2.52449
2.51233
2.50233
2.49491
2.49048
2.48943
2.4913
2.49682
2.50602
2.51901
2.43946
2.43568
2.43074
2.42519
2.4194
2.41379
2.4088
2.40484
2.40232
2.40165
2.40273
2.40613
2.41198
2.42053
2.43176
2.44561
2.46185
2.48009
2.49989
2.52071
2.54198
2.56307
2.58336
2.60226
2.6192
2.63367
2.64528
2.65376
2.65889
2.6606
2.65928
2.65494
2.64772
2.63769
2.62535
2.61123
2.59588
2.57984
2.56363
2.54777
2.5328
2.51921
2.5075
2.49813
2.49151
2.48804
2.48802
2.49079
2.49746
2.50789
2.52196
2.44354
2.43846
2.43254
2.42612
2.41964
2.41354
2.4082
2.40404
2.40145
2.40079
2.40195
2.4055
2.4115
2.42019
2.43154
2.44546
2.46171
2.47989
2.49956
2.5202
2.54122
2.56201
2.58197
2.6005
2.61702
2.63105
2.64218
2.65015
2.65476
2.65593
2.65422
2.64936
2.6415
2.63098
2.61818
2.60368
2.58807
2.57187
2.55565
2.53996
2.52534
2.51234
2.50143
2.49309
2.48771
2.48568
2.48683
2.49118
2.49947
2.51145
2.52685
2.44719
2.44098
2.43402
2.42678
2.41968
2.41313
2.40753
2.40327
2.40073
2.40025
2.40163
2.4055
2.41185
2.42088
2.43247
2.4465
2.46267
2.48064
2.49993
2.52003
2.54039
2.56043
2.57956
2.5972
2.61284
2.62598
2.63632
2.64353
2.64745
2.64802
2.64579
2.64037
2.63204
2.62101
2.60783
2.59308
2.57732
2.56112
2.54507
2.52976
2.51577
2.50365
2.49391
2.48699
2.48331
2.48302
2.48574
2.49232
2.5026
2.51641
2.53326
2.45053
2.44312
2.43515
2.4271
2.41939
2.41242
2.4066
2.40233
2.39998
2.39981
2.40156
2.40592
2.41289
2.42239
2.43432
2.44849
2.46457
2.48219
2.50089
2.52017
2.53952
2.5584
2.57627
2.59261
2.60695
2.61886
2.62805
2.63423
2.63725
2.63709
2.63425
2.62832
2.61936
2.60789
2.59439
2.57945
2.56363
2.54752
2.53178
2.51703
2.5039
2.49296
2.48474
2.47969
2.47805
2.47974
2.48485
2.49392
2.50662
2.52241
2.54081
2.45342
2.44481
2.43583
2.42695
2.41861
2.41122
2.40523
2.40102
2.39896
2.39919
2.4016
2.40667
2.41436
2.42448
2.43685
2.45121
2.46718
2.48436
2.50231
2.52055
2.53862
2.55602
2.57229
2.58698
2.59968
2.61004
2.61779
2.62268
2.62456
2.62365
2.61997
2.61326
2.60377
2.59184
2.57802
2.56286
2.54697
2.531
2.51564
2.5016
2.48954
2.48008
2.47374
2.47095
2.47167
2.47572
2.48392
2.49598
2.51121
2.52912
2.54915
2.45582
2.44599
2.43594
2.42616
2.41713
2.40931
2.40316
2.39908
2.39746
2.39823
2.40148
2.40745
2.41602
2.42691
2.43983
2.45441
2.47026
2.48695
2.50404
2.52109
2.53768
2.55339
2.56781
2.5806
2.5914
2.59996
2.60602
2.6094
2.60997
2.60806
2.60332
2.59568
2.58551
2.57312
2.55889
2.54342
2.52738
2.51151
2.49656
2.48332
2.47253
2.46483
2.46078
2.46058
2.46374
2.47126
2.48299
2.49814
2.51608
2.53623
2.55793
2.45769
2.44654
2.43531
2.42453
2.41472
2.4064
2.40008
2.39626
2.39518
2.39665
2.4009
2.40799
2.41766
2.42945
2.443
2.45786
2.47359
2.48975
2.50592
2.52168
2.53668
2.55057
2.56301
2.57373
2.58248
2.58905
2.59325
2.59494
2.59408
2.59083
2.58477
2.57606
2.56502
2.55198
2.53721
2.52124
2.50487
2.48901
2.47435
2.46198
2.45266
2.44704
2.44563
2.44794
2.45484
2.46635
2.48176
2.5002
2.52102
2.54348
2.56684
2.45894
2.44634
2.43374
2.42176
2.41103
2.40213
2.39566
2.39217
2.39177
2.39409
2.39956
2.40807
2.41901
2.43186
2.44612
2.46131
2.47694
2.49257
2.50778
2.52222
2.53558
2.5476
2.55802
2.56662
2.57325
2.57774
2.57997
2.57986
2.57748
2.57247
2.5649
2.55495
2.54277
2.52872
2.5131
2.49642
2.47945
2.46326
2.44887
2.43736
2.42966
2.4265
2.42775
2.43352
2.44487
2.46072
2.48005
2.50202
2.52583
2.55062
2.57557
2.45944
2.44515
2.43093
2.4175
2.40561
2.39598
2.38937
2.38632
2.38668
2.39013
2.39727
2.40742
2.41984
2.43389
2.44897
2.46454
2.4801
2.4952
2.50947
2.52259
2.53433
2.54452
2.55295
2.55946
2.56398
2.5664
2.56662
2.56477
2.56042
2.55359
2.54438
2.53288
2.51922
2.50368
2.48672
2.46894
2.45098
2.43411
2.41967
2.40898
2.40311
2.40266
2.40695
2.41744
2.43375
2.45423
2.4778
2.5035
2.53036
2.55742
2.58385
2.45904
2.44271
2.42647
2.41119
2.39784
2.38735
2.38056
2.37804
2.37937
2.38447
2.39362
2.40576
2.4199
2.43531
2.45132
2.46735
2.48288
2.49748
2.51084
2.5227
2.53291
2.54133
2.54786
2.55239
2.5549
2.55532
2.55374
2.54981
2.5435
2.53482
2.52379
2.51045
2.49484
2.47727
2.45823
2.43861
2.41917
2.40114
2.38621
2.37616
2.37242
2.37471
2.38336
2.39953
2.42124
2.4468
2.47495
2.50455
2.53443
2.56365
2.59142
2.4575
2.43864
2.41979
2.4021
2.38681
2.37519
2.3683
2.36656
2.36916
2.37648
2.38823
2.40275
2.41893
2.4359
2.45298
2.46955
2.48509
2.49924
2.51174
2.52243
2.53119
2.53799
2.54279
2.54551
2.54617
2.54484
2.54133
2.53545
2.52722
2.51667
2.50367
2.48826
2.4703
2.4501
2.42813
2.40557
2.38346
2.3636
2.34736
2.33772
2.3368
2.34224
2.35674
2.37931
2.40713
2.43836
2.47149
2.50503
2.53786
2.56908
2.59803
2.45455
2.43242
2.41013
2.38918
2.37135
2.35827
2.3513
2.35079
2.35514
2.36561
2.38064
2.39805
2.41663
2.43545
2.45376
2.47096
2.48658
2.50034
2.51206
2.52167
2.52912
2.53447
2.53772
2.53884
2.53795
2.53497
2.52963
2.522
2.512
2.4996
2.48471
2.467
2.44677
2.42356
2.39811
2.37123
2.34451
2.32126
2.30239
2.29258
2.29479
2.30496
2.32645
2.35624
2.39106
2.42868
2.46709
2.50469
2.54041
2.57345
2.60341
2.45021
2.42386
2.39675
2.37131
2.35002
2.33486
2.3279
2.32918
2.33631
2.35108
2.37018
2.3912
2.41274
2.43376
2.45348
2.47141
2.48719
2.50063
2.51168
2.52032
2.52662
2.5307
2.53263
2.53241
2.5302
2.52568
2.51885
2.50973
2.49817
2.4842
2.46771
2.44809
2.42587
2.40041
2.37075
2.33921
2.30594
2.27716
2.25125
2.23879
2.24602
2.26215
2.29264
2.33091
2.3735
2.41786
2.46166
2.5033
2.54171
2.57644
2.60726
2.44551
2.41371
2.38049
2.34881
2.32214
2.30402
2.29654
2.30001
2.31154
2.33198
2.35625
2.38175
2.40689
2.43053
2.45196
2.47076
2.48679
2.50001
2.51047
2.51828
2.5236
2.52661
2.52741
2.52618
2.52277
2.51705
2.50903
2.49866
2.48604
2.47104
2.45377
2.43349
2.40817
2.38065
2.34533
2.30752
2.26782
2.22807
2.19125
2.17811
2.19533
2.2167
2.2558
2.30288
2.35374
2.40524
2.45472
2.50038
2.54139
2.57765
2.60926
2.44266
2.40437
2.36213
2.3221
2.28766
2.26719
2.25463
2.2629
2.28025
2.30783
2.33862
2.36956
2.39891
2.42558
2.44896
2.46883
2.48524
2.49833
2.50832
2.51544
2.51995
2.52207
2.522
2.51996
2.51564
2.50904
2.50017
2.48898
2.47581
2.46048
2.44262
2.42139
2.39224
2.36041
2.32215
2.27779
2.22947
2.18056
2.13763
2.11648
2.12687
2.16529
2.21481
2.27363
2.33293
2.39167
2.44649
2.49583
2.53924
2.57679
2.60906
2.43874
2.40128
2.35668
2.30806
2.26029
2.21968
2.20339
2.22033
2.24425
2.27962
2.31759
2.35465
2.38874
2.41879
2.44432
2.4654
2.4823
2.49541
2.50507
2.51167
2.51554
2.51698
2.51629
2.5136
2.50869
2.50156
2.49226
2.48093
2.46753
2.45211
2.4322
2.40838
2.37783
2.34101
2.29834
2.25012
2.19782
2.14469
2.0952
2.06624
2.07361
2.11322
2.17894
2.24745
2.3146
2.37864
2.43746
2.48964
2.53491
2.57365
2.60653
2.44523
2.4011
2.34974
2.29358
2.23742
2.18743
2.16004
2.16927
2.20645
2.25102
2.29573
2.33846
2.37714
2.41046
2.43814
2.46046
2.47795
2.49117
2.50064
2.50684
2.51022
2.51117
2.51006
2.50698
2.50179
2.49449
2.48524
2.47372
2.45917
2.44227
2.422
2.39464
2.36117
2.32237
2.27814
2.2285
2.17408
2.11842
2.06583
2.0331
2.03597
2.08059
2.15218
2.22666
2.29866
2.36651
2.42798
2.48198
2.52845
2.56796
2.60129
2.44659
2.39891
2.34421
2.28441
2.22503
2.16484
2.12877
2.13534
2.17443
2.22544
2.27595
2.32335
2.36553
2.40133
2.43073
2.45415
2.47221
2.4856
2.49496
2.50089
2.50392
2.50451
2.5032
2.50007
2.49475
2.48706
2.47856
2.46282
2.44867
2.43466
2.40734
2.37881
2.34586
2.30712
2.2625
2.21265
2.15734
2.10189
2.05501
2.01477
2.01805
2.06866
2.1381
2.21329
2.28722
2.35632
2.41856
2.47318
2.52014
2.55999
2.59358
2.44802
2.39859
2.34204
2.28048
2.22092
2.15401
2.11928
2.1199
2.15716
2.2093
2.26194
2.31122
2.35495
2.39211
2.42258
2.44674
2.46522
2.47875
2.48804
2.49378
2.4966
2.49693
2.49549
2.49282
2.48786
2.47679
2.46983
2.4576
2.43452
2.41472
2.3924
2.36531
2.33313
2.29502
2.25079
2.20093
2.14767
2.09539
2.04943
2.01524
2.0242
2.0709
2.13641
2.20832
2.2803
2.34801
2.4094
2.46354
2.51028
2.55007
2.58372
2.45048
2.4004
2.34301
2.28126
2.21993
2.15918
2.11879
2.11961
2.15712
2.20456
2.25488
2.303
2.34632
2.38346
2.41412
2.43851
2.45716
2.47071
2.47991
2.48552
2.48835
2.48878
2.48677
2.4818
2.48271
2.47703
2.452
2.43703
2.42105
2.40194
2.37945
2.35355
2.3226
2.28603
2.24328
2.19529
2.1447
2.09576
2.05342
2.02956
2.03818
2.07922
2.1399
2.20751
2.2758
2.34073
2.40024
2.45313
2.49915
2.53861
2.57215
2.45441
2.40495
2.34829
2.28743
2.22659
2.17007
2.13313
2.13274
2.16259
2.20649
2.25333
2.29853
2.33986
2.37571
2.40565
2.42969
2.44817
2.46157
2.4706
2.47609
2.47906
2.47986
2.48142
2.48047
2.46249
2.45299
2.43859
2.42248
2.40606
2.38769
2.36693
2.34289
2.31382
2.27939
2.23899
2.19364
2.14609
2.10111
2.06482
2.04843
2.05479
2.09183
2.1462
2.20812
2.27209
2.33368
2.39074
2.44196
2.48699
2.52602
2.55954
2.45935
2.41131
2.35623
2.29761
2.23964
2.18828
2.15691
2.15047
2.17401
2.21199
2.25467
2.29658
2.33507
2.3688
2.39733
2.42053
2.43857
2.45167
2.46025
2.4653
2.47008
2.4708
2.46435
2.45784
2.44728
2.43479
2.42149
2.407
2.39147
2.37426
2.35506
2.33302
2.30609
2.27412
2.23633
2.19395
2.15018
2.10909
2.07959
2.06684
2.07155
2.10468
2.15291
2.20932
2.26848
2.32654
2.38078
2.43011
2.47396
2.51236
2.54521
2.46485
2.41907
2.36652
2.31021
2.25502
2.20785
2.18103
2.17129
2.18795
2.21964
2.25779
2.296
2.33125
2.3624
2.38905
2.41107
2.42845
2.44133
2.44969
2.45319
2.45395
2.45097
2.44631
2.43803
2.42824
2.41697
2.40461
2.39137
2.37708
2.36117
2.34331
2.32324
2.29854
2.26915
2.23435
2.19527
2.15456
2.11696
2.09181
2.08155
2.08806
2.11775
2.15999
2.21038
2.26479
2.31886
2.36998
2.41664
2.45879
2.49562
2.52875
2.4696
2.42656
2.37717
2.32423
2.2724
2.22897
2.20583
2.19249
2.20265
2.22802
2.26172
2.29635
2.32803
2.35624
2.38069
2.40131
2.41744
2.42882
2.43703
2.43908
2.43623
2.43139
2.42595
2.41829
2.40919
2.39909
2.388
2.37598
2.36291
2.34828
2.3315
2.3128
2.29031
2.26332
2.23157
2.19593
2.1588
2.12464
2.10407
2.09441
2.10338
2.12861
2.16712
2.21034
2.2593
2.30873
2.3562
2.40038
2.4429
2.48169
2.5056
2.47234
2.43205
2.38633
2.33735
2.28909
2.24789
2.22233
2.21624
2.22243
2.23511
2.26641
2.29707
2.32504
2.34989
2.37152
2.39041
2.40479
2.41534
2.41957
2.41861
2.41579
2.41163
2.40592
2.39905
2.39099
2.38188
2.37184
2.36089
2.34887
2.33537
2.31977
2.30163
2.28093
2.25573
2.22685
2.19465
2.16109
2.13049
2.11323
2.1127
2.10698
2.13848
2.17127
2.20821
2.25142
2.29727
2.34671
2.39155
2.42797
2.459
2.48681
2.47242
2.43419
2.39173
2.34708
2.30316
2.26502
2.24094
2.23359
2.23995
2.24329
2.27018
2.2982
2.32094
2.34248
2.36107
2.38047
2.39214
2.39811
2.39963
2.39839
2.39598
2.39224
2.38716
2.38097
2.37374
2.36549
2.35631
2.34621
2.33494
2.32219
2.30742
2.28994
2.26945
2.24589
2.21904
2.19004
2.16056
2.13472
2.1216
2.119
2.13338
2.15033
2.17615
2.2138
2.25624
2.29519
2.33138
2.36996
2.40426
2.43774
2.46677
2.46877
2.43242
2.39281
2.35199
2.31301
2.27922
2.25717
2.2485
2.24946
2.25976
2.28095
2.30128
2.32143
2.34147
2.35671
2.37147
2.37614
2.37966
2.38097
2.38
2.3779
2.37441
2.36981
2.36419
2.3576
2.35005
2.34155
2.33201
2.32121
2.30884
2.29445
2.27752
2.25758
2.23497
2.20976
2.18328
2.15759
2.13731
2.12766
2.12615
2.13694
2.14988
2.17542
2.20899
2.2451
2.28162
2.31435
2.34936
2.3852
2.41534
2.44503
2.46225
2.42693
2.38947
2.35279
2.31843
2.29015
2.27208
2.26433
2.26363
2.2728
2.28633
2.29983
2.31836
2.33459
2.34466
2.35541
2.36056
2.36348
2.36455
2.36362
2.36147
2.35818
2.35392
2.34875
2.34266
2.33562
2.32758
2.31836
2.30774
2.29542
2.28103
2.26421
2.24476
2.22286
2.1995
2.17555
2.15327
2.13776
2.13145
2.13129
2.14024
2.15421
2.17541
2.2045
2.23502
2.26874
2.29904
2.3312
2.36368
2.39337
2.42191
2.45292
2.41867
2.38358
2.35007
2.32035
2.29695
2.2831
2.2776
2.27724
2.28322
2.29356
2.30402
2.31665
2.32817
2.33609
2.34366
2.34754
2.34983
2.35014
2.34897
2.34669
2.3435
2.33949
2.33466
2.32894
2.32223
2.31443
2.30529
2.29459
2.28204
2.26736
2.25036
2.23109
2.21
2.18807
2.16658
2.14809
2.13683
2.13283
2.13426
2.14306
2.15727
2.17701
2.20116
2.2276
2.25585
2.28372
2.31257
2.34153
2.36986
2.39747
2.44174
2.40873
2.37613
2.34608
2.32044
2.30127
2.29088
2.28705
2.2873
2.29214
2.29956
2.30794
2.31664
2.32412
2.33037
2.33487
2.33716
2.33797
2.33751
2.3359
2.33345
2.33031
2.32648
2.3219
2.31644
2.30992
2.3022
2.29299
2.28206
2.26916
2.25412
2.23693
2.21788
2.19765
2.17732
2.15836
2.14363
2.1359
2.13365
2.13666
2.14566
2.15946
2.17725
2.19786
2.21984
2.24345
2.26763
2.2928
2.31873
2.34508
2.37151
2.42975
2.39839
2.36853
2.34202
2.3203
2.30465
2.29687
2.29422
2.29482
2.2987
2.30439
2.31065
2.31655
2.32148
2.32526
2.32738
2.32806
2.32767
2.32632
2.32424
2.32163
2.31851
2.31482
2.31044
2.30516
2.29876
2.29103
2.28168
2.27048
2.25725
2.24196
2.22477
2.2062
2.18707
2.1686
2.15229
2.14116
2.13618
2.13534
2.13968
2.14884
2.1617
2.17721
2.19428
2.21237
2.23115
2.25116
2.27238
2.2951
2.31917
2.3442
2.41802
2.38882
2.36198
2.33898
2.32076
2.30837
2.30229
2.30043
2.30112
2.30412
2.30825
2.31249
2.31618
2.31879
2.32028
2.32056
2.31983
2.31831
2.31622
2.31376
2.311
2.30793
2.30441
2.30023
2.29514
2.28886
2.28114
2.27168
2.26032
2.24695
2.23167
2.21484
2.19713
2.17949
2.16312
2.14972
2.14165
2.13852
2.1391
2.14433
2.15329
2.16488
2.17795
2.1915
2.20527
2.21954
2.23466
2.25172
2.27091
2.29247
2.3159
2.40756
2.381
2.35738
2.33778
2.32281
2.3129
2.30803
2.30661
2.30704
2.30903
2.31159
2.31381
2.31545
2.31596
2.31557
2.31416
2.3121
2.30961
2.30692
2.30417
2.30137
2.29843
2.29515
2.29126
2.28643
2.2804
2.27282
2.26347
2.25221
2.23905
2.22422
2.20823
2.19187
2.17616
2.16217
2.15153
2.14588
2.14416
2.146
2.15157
2.15989
2.16988
2.18036
2.19031
2.19938
2.2085
2.2188
2.23115
2.24645
2.26543
2.28715
2.39919
2.37565
2.35533
2.33894
2.32672
2.31869
2.31461
2.31318
2.31301
2.31375
2.31456
2.31487
2.31441
2.31298
2.31072
2.30781
2.30457
2.30127
2.29812
2.29521
2.2925
2.28983
2.28695
2.28351
2.27918
2.2736
2.26647
2.2576
2.24689
2.23447
2.2207
2.20618
2.19171
2.17809
2.16643
2.15858
2.15507
2.15441
2.15701
2.1624
2.16964
2.17765
2.18521
2.19126
2.19534
2.19866
2.2034
2.21073
2.22235
2.23856
2.25867
2.39352
2.3732
2.35602
2.34247
2.33252
2.32598
2.3222
2.32022
2.31917
2.31838
2.31732
2.31558
2.31301
2.3096
2.30558
2.30126
2.29697
2.293
2.28955
2.28664
2.28421
2.28202
2.27977
2.27706
2.27354
2.2688
2.26258
2.25473
2.24522
2.23421
2.22206
2.20947
2.19724
2.18625
2.17759
2.17244
2.17047
2.17071
2.17358
2.17825
2.18375
2.18905
2.19303
2.19468
2.19333
2.19005
2.18862
2.19058
2.19822
2.21197
2.23103
2.39085
2.37368
2.35949
2.34835
2.34016
2.3345
2.33064
2.32783
2.32542
2.32284
2.31969
2.31575
2.31101
2.30563
2.29992
2.29427
2.28906
2.28457
2.28096
2.27828
2.27634
2.2749
2.27361
2.272
2.26972
2.26635
2.26166
2.25544
2.24771
2.23877
2.22913
2.21943
2.21034
2.20261
2.197
2.19409
2.19324
2.19423
2.19687
2.20027
2.20333
2.20509
2.2048
2.20135
2.19411
2.18268
2.17297
2.16986
2.17295
2.18573
2.20495
2.39122
2.37711
2.36555
2.35642
2.34939
2.344
2.33961
2.33563
2.33153
2.32688
2.32146
2.3152
2.30824
2.30089
2.29355
2.28667
2.28066
2.2758
2.27225
2.27
2.26885
2.26851
2.26853
2.26848
2.26798
2.26659
2.26399
2.26024
2.25535
2.24959
2.24346
2.2374
2.2319
2.22766
2.22515
2.22427
2.22469
2.22617
2.2281
2.22944
2.22958
2.2271
2.22127
2.21139
2.19644
2.17647
2.15511
2.14529
2.14426
2.15779
2.18095
2.39454
2.38326
2.37382
2.36608
2.35965
2.35404
2.34873
2.34322
2.33714
2.33022
2.32237
2.31374
2.30456
2.29527
2.28639
2.27841
2.27174
2.26667
2.26336
2.26193
2.26178
2.26285
2.26463
2.26667
2.26853
2.26968
2.27023
2.2699
2.26881
2.26715
2.26517
2.26332
2.26199
2.26156
2.26217
2.26362
2.26554
2.26727
2.26815
2.26749
2.26394
2.2563
2.24353
2.22485
2.19999
2.16846
2.13326
2.10943
2.10275
2.12059
2.16045
2.4005
2.39148
2.38366
2.37678
2.37043
2.36417
2.35757
2.35025
2.34197
2.33262
2.3223
2.31127
2.29992
2.28881
2.27851
2.26957
2.26241
2.25729
2.25464
2.25406
2.25531
2.25813
2.26209
2.26672
2.27151
2.27625
2.28061
2.28455
2.288
2.29103
2.29385
2.29674
2.29993
2.30359
2.30766
2.31182
2.31538
2.31732
2.31764
2.31477
2.3074
2.29391
2.2728
2.24362
2.2061
2.15859
2.10348
2.06579
2.05438
2.08763
2.16331
2.63862
2.64331
2.64621
2.64749
2.64733
2.64609
2.64392
2.64126
2.6385
2.63593
2.6337
2.6319
2.6305
2.6294
2.62839
2.62729
2.62574
2.62356
2.62046
2.61628
2.61088
2.6042
2.5962
2.58692
2.57643
2.56484
2.62267
2.62962
2.63519
2.63941
2.64242
2.64439
2.64552
2.64604
2.64623
2.64629
2.64633
2.64636
2.64629
2.64603
2.64533
2.64403
2.64174
2.63838
2.63371
2.62767
2.62023
2.61139
2.60123
2.58984
2.57737
2.56398
2.60663
2.61566
2.62382
2.63101
2.63724
2.64256
2.64708
2.65093
2.65422
2.65704
2.65942
2.66131
2.66256
2.663
2.6625
2.66091
2.65776
2.65304
2.6467
2.63875
2.62924
2.61827
2.60598
2.59258
2.57824
2.56319
2.59109
2.602
2.61261
2.62269
2.63211
2.64081
2.64877
2.65596
2.66238
2.66799
2.6727
2.67637
2.67882
2.67983
2.67938
2.67735
2.67321
2.66704
2.65898
2.64912
2.63759
2.62459
2.61033
2.59506
2.57905
2.56254
2.5766
2.58918
2.60204
2.61486
2.62737
2.63937
2.65069
2.66116
2.67063
2.67891
2.68581
2.6911
2.69455
2.69598
2.69542
2.69277
2.68759
2.67993
2.67015
2.65845
2.64504
2.63017
2.61415
2.59726
2.57982
2.56211
2.56369
2.57771
2.59259
2.60792
2.62333
2.63843
2.65292
2.66647
2.67877
2.6895
2.69836
2.70503
2.70926
2.71088
2.71006
2.70673
2.7004
2.6913
2.6799
2.6665
2.6514
2.63491
2.61738
2.59917
2.58059
2.56199
2.55277
2.56802
2.58468
2.60226
2.62026
2.63818
2.65553
2.67183
2.68663
2.69947
2.70995
2.7177
2.72246
2.72407
2.72289
2.71871
2.71129
2.70086
2.68799
2.67309
2.65654
2.63872
2.62001
2.60079
2.58143
2.56226
2.54418
2.56048
2.57867
2.59818
2.6184
2.63873
2.65851
2.67713
2.69398
2.70851
2.72023
2.72872
2.73372
2.73514
2.73351
2.72847
2.72
2.70837
2.69423
2.6781
2.6604
2.64157
2.62202
2.60216
2.58237
2.563
2.53812
2.55535
2.57481
2.5959
2.61793
2.64017
2.66186
2.68226
2.70064
2.71636
2.72888
2.73774
2.74275
2.7438
2.74167
2.7358
2.72634
2.71369
2.69854
2.68145
2.66293
2.64343
2.62341
2.60328
2.58345
2.56426
2.5347
2.55275
2.57325
2.59556
2.61891
2.64252
2.66553
2.68711
2.70644
2.72282
2.73567
2.74456
2.74933
2.74991
2.74719
2.74059
2.73023
2.71675
2.70085
2.68312
2.6641
2.64429
2.62416
2.60414
2.58465
2.56601
2.53389
2.5527
2.574
2.59714
2.62136
2.64578
2.6695
2.69161
2.71127
2.72777
2.7405
2.74909
2.75338
2.75342
2.75013
2.74273
2.73167
2.71755
2.70115
2.68308
2.66388
2.6441
2.62423
2.60471
2.58593
2.56823
2.53548
2.55499
2.57694
2.60062
2.62524
2.6499
2.67369
2.6957
2.7151
2.73118
2.74336
2.75135
2.75495
2.75443
2.75042
2.74236
2.73067
2.71614
2.69948
2.68133
2.66227
2.64285
2.62359
2.60492
2.58724
2.57085
2.53936
2.55958
2.58197
2.60584
2.63039
2.65475
2.67802
2.69935
2.71794
2.73312
2.7444
2.75149
2.75423
2.75311
2.74833
2.73955
2.72739
2.71257
2.69585
2.67787
2.65922
2.64047
2.62215
2.60469
2.58846
2.57377
2.54523
2.56606
2.58872
2.61247
2.63657
2.66016
2.68242
2.70257
2.71989
2.73376
2.7438
2.74971
2.75141
2.74958
2.74394
2.73451
2.7219
2.70694
2.69032
2.67269
2.65469
2.63689
2.6198
2.60388
2.58947
2.57678
2.55267
2.57406
2.59682
2.62022
2.64353
2.66598
2.68683
2.7054
2.72104
2.73327
2.74173
2.74622
2.74672
2.74402
2.73749
2.72734
2.71437
2.69933
2.6829
2.66577
2.64858
2.63195
2.61639
2.60232
2.59005
2.57973
2.56128
2.5832
2.60592
2.62875
2.65102
2.67204
2.6912
2.70786
2.72151
2.73181
2.73848
2.7414
2.74067
2.73681
2.72917
2.7183
2.70496
2.68986
2.67364
2.65705
2.6408
2.62552
2.61174
2.59984
2.59002
2.58239
2.57068
2.59305
2.61561
2.63772
2.65877
2.6782
2.69544
2.70998
2.7215
2.72974
2.7345
2.73568
2.73368
2.72824
2.71934
2.70764
2.69382
2.67856
2.66249
2.64642
2.63117
2.6174
2.60564
2.59619
2.58917
2.58458
2.58049
2.60324
2.62554
2.64681
2.66655
2.68427
2.69949
2.71188
2.72124
2.72736
2.7301
2.72951
2.72587
2.71866
2.70835
2.69564
2.68107
2.66542
2.64929
2.63368
2.61943
2.60731
2.59782
2.59112
2.58726
2.58606
2.59037
2.61339
2.63534
2.65571
2.67411
2.69012
2.70335
2.71366
2.72088
2.72487
2.72559
2.72327
2.71748
2.70836
2.69649
2.68241
2.66673
2.65024
2.63384
2.6185
2.60523
2.59489
2.58794
2.58435
2.58405
2.58641
2.59996
2.62317
2.64471
2.66419
2.68127
2.69563
2.70702
2.71537
2.72055
2.72248
2.72131
2.71693
2.70885
2.69767
2.68388
2.66797
2.65063
2.63281
2.61563
2.60028
2.58797
2.57962
2.57553
2.57553
2.57882
2.58591
2.60899
2.6323
2.6534
2.67201
2.68787
2.70072
2.71045
2.71701
2.72032
2.72033
2.71736
2.71062
2.70024
2.6868
2.67061
2.65221
2.63243
2.61252
2.59391
2.57815
2.56679
2.56072
2.56001
2.56359
2.57222
2.5843
2.61717
2.64051
2.66116
2.67898
2.69376
2.70531
2.7136
2.71859
2.72021
2.71866
2.71366
2.70466
2.69192
2.67583
2.6567
2.63505
2.61179
2.58863
2.56749
2.5508
2.54057
2.53717
2.53999
2.54898
2.56364
2.58125
2.62427
2.64758
2.66781
2.68494
2.69883
2.70931
2.71639
2.72005
2.72023
2.71724
2.71037
2.69937
2.68435
2.66533
2.64317
2.61763
2.58954
2.56159
2.53589
2.51677
2.50745
2.50747
2.51486
2.53107
2.55262
2.57658
2.63004
2.65329
2.67316
2.68972
2.70291
2.71255
2.71868
2.72125
2.72029
2.71605
2.70772
2.69539
2.67845
2.65624
2.63114
2.601
2.56628
2.5317
2.49953
2.47802
2.46695
2.47098
2.48531
2.5097
2.53909
2.57029
2.63421
2.6574
2.677
2.69317
2.70584
2.71489
2.72032
2.722
2.72026
2.71511
2.7063
2.69344
2.67562
2.64802
2.61708
2.58221
2.54742
2.50827
2.46494
2.43288
2.42106
2.42776
2.45194
2.48505
2.5233
2.56255
2.63649
2.65967
2.67912
2.69503
2.7074
2.7161
2.72104
2.7222
2.71997
2.71475
2.70604
2.69248
2.6716
2.64915
2.61808
2.58022
2.53749
2.49111
2.4431
2.39988
2.37303
2.37884
2.41502
2.45991
2.50747
2.55477
2.63656
2.6598
2.67922
2.69507
2.7074
2.71601
2.72075
2.72177
2.71964
2.71467
2.70345
2.68887
2.6732
2.64749
2.61362
2.57291
2.52589
2.47462
2.42184
2.37403
2.34139
2.34459
2.37887
2.43782
2.49493
2.54902
2.63428
2.65762
2.6771
2.69305
2.70557
2.7144
2.71948
2.72071
2.71662
2.71183
2.70568
2.69035
2.66997
2.6429
2.60854
2.56683
2.51821
2.46489
2.41106
2.36179
2.3269
2.32577
2.36402
2.42495
2.48812
2.5469
2.62934
2.65288
2.67253
2.6887
2.70164
2.71108
2.71669
2.71733
2.71344
2.71062
2.70186
2.68606
2.66575
2.63896
2.60486
2.56314
2.51457
2.46128
2.40812
2.36042
2.32319
2.32579
2.36573
2.42521
2.48881
2.54958
2.62184
2.64563
2.66554
2.68183
2.69513
2.70445
2.70701
2.71137
2.70877
2.70345
2.69437
2.68038
2.66096
2.63522
2.60218
2.56164
2.51434
2.46334
2.41338
2.36945
2.33711
2.34225
2.37821
2.4354
2.49675
2.55689
2.61212
2.63618
2.65656
2.67247
2.68458
2.69083
2.70147
2.70032
2.69824
2.69407
2.6861
2.67355
2.65571
2.63159
2.60045
2.56203
2.51762
2.47011
2.42379
2.38377
2.35792
2.36423
2.39912
2.45141
2.50955
2.56715
2.60059
2.62488
2.64699
2.66357
2.67764
2.68111
2.68383
2.68637
2.68641
2.68344
2.67685
2.6659
2.64981
2.62759
2.5984
2.56224
2.52034
2.47577
2.43309
2.39922
2.38445
2.38978
2.42142
2.4688
2.5237
2.57831
2.58867
2.61219
2.63073
2.64965
2.66015
2.66614
2.67049
2.67317
2.6739
2.67194
2.66665
2.65718
2.64276
2.62248
2.59555
2.56192
2.52282
2.48154
2.44273
2.41699
2.40645
2.41313
2.44228
2.48619
2.53772
2.58931
2.572
2.5929
2.61675
2.63194
2.64236
2.64981
2.6556
2.65935
2.66066
2.65952
2.65512
2.64687
2.63376
2.61505
2.59005
2.55884
2.5227
2.48497
2.45119
2.43137
2.42237
2.43449
2.462
2.50171
2.55066
2.59917
2.55535
2.57529
2.59682
2.61284
2.62458
2.63355
2.64037
2.64482
2.64654
2.64594
2.6421
2.63436
2.62211
2.60417
2.58033
2.55107
2.51799
2.48385
2.4539
2.43857
2.43564
2.45048
2.47295
2.51711
2.56183
2.60685
2.5345
2.5584
2.57744
2.59406
2.60684
2.61699
2.62476
2.6297
2.63164
2.63125
2.62749
2.61971
2.60715
2.58944
2.5659
2.5378
2.50654
2.47547
2.45194
2.44202
2.43958
2.45207
2.47781
2.52472
2.56665
2.60871
2.51297
2.53847
2.55839
2.57534
2.58903
2.60018
2.60882
2.61407
2.61606
2.61555
2.6114
2.60295
2.58961
2.57098
2.54738
2.51938
2.48965
2.46265
2.44571
2.44028
2.44323
2.4603
2.48964
2.52636
2.56736
2.6131
2.49306
2.51772
2.5384
2.55615
2.5708
2.58304
2.59243
2.59788
2.59976
2.5989
2.59397
2.58441
2.56977
2.54998
2.52561
2.49807
2.47014
2.44805
2.43743
2.43492
2.44209
2.46172
2.49128
2.52853
2.56993
2.61193
2.47169
2.49613
2.51744
2.53608
2.55183
2.56517
2.57528
2.58081
2.58254
2.58119
2.57533
2.56449
2.54847
2.52755
2.50276
2.47608
2.45094
2.43454
2.42831
2.42863
2.43937
2.46111
2.49144
2.52812
2.56896
2.61123
2.44859
2.47321
2.49526
2.51474
2.53167
2.546
2.55692
2.56245
2.56405
2.56221
2.5555
2.54358
2.52651
2.505
2.48056
2.45572
2.43484
2.42308
2.4195
2.42349
2.43688
2.4602
2.49139
2.52826
2.56919
2.61204
2.42387
2.44868
2.4714
2.49177
2.50972
2.525
2.53661
2.54235
2.54394
2.54181
2.53458
2.5221
2.50474
2.48359
2.46054
2.43832
2.42249
2.41459
2.41282
2.41954
2.43452
2.45869
2.49009
2.52716
2.56838
2.61197
2.39747
2.4224
2.44568
2.46684
2.48562
2.50167
2.51395
2.52011
2.5219
2.51982
2.51268
2.50049
2.48398
2.46451
2.44418
2.42591
2.41406
2.40918
2.4089
2.41698
2.43281
2.45658
2.48748
2.52422
2.56575
2.61025
2.36952
2.3944
2.41808
2.43987
2.45926
2.47579
2.48868
2.49553
2.49783
2.49627
2.49002
2.47928
2.46495
2.44853
2.43212
2.41804
2.40931
2.40612
2.40689
2.4153
2.43011
2.4525
2.48172
2.51761
2.55941
2.60525