/*--------------------------------*- C++ -*----------------------------------*\
  =========                 |
  \\      /  F ield         | OpenFOAM: The Open Source CFD Toolbox
   \\    /   O peration     | Website:  https://openfoam.org
    \\  /    A nd           | Version:  10
     \\/     M anipulation  |
\*---------------------------------------------------------------------------*/
FoamFile
{
    format      ascii;
    class       surfaceScalarField;
    location    "0.19995";
    object      phi;
}
// * * * * * * * * * * * * * * * * * * * * * * * * * * * * * * * * * * * * * //

dimensions      [1 0 -1 0 0 0 0];

internalField   nonuniform List<scalar> 
31108
(
0.000347226
-7.44378e-05
0.000341956
-7.66155e-05
0.00033642
-7.8123e-05
0.000330608
-7.87522e-05
0.000324521
-7.8332e-05
0.000318197
-7.67369e-05
0.000311685
-7.38822e-05
0.000305124
-6.97633e-05
0.000298651
-6.44146e-05
0.000292492
-5.79752e-05
0.000286862
-5.06352e-05
0.000281982
-4.26443e-05
0.000278046
-3.42898e-05
0.000275197
-2.58659e-05
0.000273515
-1.76456e-05
0.000273013
-9.86715e-06
0.00027366
-2.71856e-06
0.000275375
3.65782e-06
0.000277965
9.23896e-06
0.000281396
1.394e-05
0.0002855
1.77515e-05
0.000290154
2.07144e-05
0.000295229
2.28623e-05
0.000300604
2.42555e-05
0.000306192
2.49481e-05
0.000311892
2.50439e-05
0.000317632
2.46199e-05
0.000323364
2.37664e-05
0.000329046
2.25918e-05
0.00033465
2.12068e-05
0.000340172
1.97456e-05
0.000345601
1.82777e-05
0.000350939
1.69736e-05
0.000356142
1.58989e-05
0.000361223
1.51892e-05
0.00036615
1.49364e-05
0.000370891
1.52567e-05
0.000375405
1.62047e-05
0.000379646
1.78425e-05
0.000383566
2.021e-05
0.000387125
2.33265e-05
0.000390295
2.71947e-05
0.00039308
3.1766e-05
0.000395496
3.69873e-05
0.000397588
4.27667e-05
0.000399449
4.89373e-05
0.000401196
5.53376e-05
0.00040292
6.17362e-05
0.000404748
6.79112e-05
0.000406802
7.35998e-05
7.86101e-05
0.000409093
0.000345584
-7.55602e-05
0.000340918
-7.76854e-05
0.000336135
-7.90987e-05
0.000331204
-7.96326e-05
0.000326096
-7.91337e-05
0.000320809
-7.75008e-05
0.000315358
-7.46441e-05
0.000309802
-7.05763e-05
0.00030424
-6.52998e-05
0.000298827
-5.89488e-05
0.000293736
-5.1666e-05
0.000289166
-4.36825e-05
0.000285306
-3.5261e-05
0.000282312
-2.6681e-05
0.000280294
-1.82206e-05
0.000279312
-1.01329e-05
0.000279368
-2.62972e-06
0.000280414
4.12234e-06
0.000282375
1.0035e-05
0.000285159
1.50363e-05
0.000288623
1.91308e-05
0.00029267
2.228e-05
0.000297208
2.45635e-05
0.000302115
2.59962e-05
0.000307291
2.66873e-05
0.000312665
2.67e-05
0.000318161
2.61473e-05
0.000323725
2.51375e-05
0.000329318
2.3792e-05
0.000334923
2.22259e-05
0.000340534
2.05759e-05
0.000346114
1.89808e-05
0.000351653
1.75564e-05
0.000357124
1.64031e-05
0.000362551
1.56016e-05
0.00036786
1.5316e-05
0.000373
1.56032e-05
0.00037792
1.65185e-05
0.000382571
1.80924e-05
0.000386873
2.03603e-05
0.000390813
2.33197e-05
0.000394307
2.69557e-05
0.000397347
3.12947e-05
0.000399955
3.62088e-05
0.000402118
4.16946e-05
0.000403951
4.75609e-05
0.000405484
5.37132e-05
0.000406888
5.99447e-05
0.00040825
6.60391e-05
0.000409662
7.1775e-05
7.69106e-05
0.000411279
0.000344023
-7.66232e-05
0.000339982
-7.85801e-05
0.000335957
-7.9783e-05
0.000331892
-8.01064e-05
0.000327741
-7.94204e-05
0.000323457
-7.76493e-05
0.000319029
-7.47197e-05
0.000314456
-7.06335e-05
0.000309798
-6.5411e-05
0.000305147
-5.91462e-05
0.000300637
-5.19671e-05
0.000296439
-4.40764e-05
0.000292722
-3.56994e-05
0.000289647
-2.71015e-05
0.000287349
-1.85513e-05
0.00028592
-1.0306e-05
0.000285404
-2.59188e-06
0.0002858
4.40429e-06
0.000287065
1.05616e-05
0.000289123
1.57955e-05
0.00029191
2.00695e-05
0.000295308
2.33728e-05
0.000299245
2.57424e-05
0.000303608
2.72282e-05
0.000308328
2.79068e-05
0.000313328
2.78743e-05
0.000318552
2.72355e-05
0.000323938
2.61275e-05
0.000329467
2.46804e-05
0.00033509
2.30429e-05
0.000340788
2.13477e-05
0.000346539
1.97331e-05
0.000352325
1.831e-05
0.000358121
1.71752e-05
0.000363872
1.64684e-05
0.000369554
1.62725e-05
0.000375086
1.6642e-05
0.000380414
1.76187e-05
0.000385462
1.92263e-05
0.00039015
2.14739e-05
0.000394406
2.43587e-05
0.000398165
2.78729e-05
0.000401451
3.19521e-05
0.000404217
3.65787e-05
0.000406474
4.16858e-05
0.00040828
4.7181e-05
0.000409686
5.29695e-05
0.000410787
5.88741e-05
0.000411763
6.46918e-05
0.000412657
7.02533e-05
7.53072e-05
0.000413597
0.000342638
-7.74978e-05
0.000339235
-7.91903e-05
0.000335965
-8.00851e-05
0.000332752
-8.01002e-05
0.000329523
-7.91459e-05
0.000326197
-7.71548e-05
0.000322733
-7.40891e-05
0.000319099
-6.99406e-05
0.000315305
-6.47459e-05
0.000311403
-5.85737e-05
0.000307492
-5.15412e-05
0.000303696
-4.38129e-05
0.000300171
-3.55883e-05
0.000297074
-2.71058e-05
0.000294548
-1.86167e-05
0.000292713
-1.03713e-05
0.00029165
-2.60054e-06
0.000291396
4.49578e-06
0.000291954
1.07806e-05
0.000293283
1.61425e-05
0.000295336
2.05308e-05
0.000298042
2.39267e-05
0.000301326
2.63574e-05
0.000305117
2.78732e-05
0.000309342
2.85563e-05
0.000313944
2.85062e-05
0.000318866
2.78481e-05
0.000324061
2.67232e-05
0.000329497
2.52745e-05
0.000335148
2.36602e-05
0.00034098
2.20274e-05
0.00034695
2.05162e-05
0.000352997
1.92112e-05
0.000359104
1.8265e-05
0.000365227
1.77711e-05
0.00037128
1.77683e-05
0.000377204
1.83212e-05
0.00038292
1.94615e-05
0.000388328
2.11869e-05
0.000393353
2.34936e-05
0.000397923
2.63562e-05
0.000401967
2.97602e-05
0.000405432
3.36626e-05
0.000408293
3.80376e-05
0.000410593
4.27378e-05
0.000412367
4.78203e-05
0.000413675
5.30996e-05
0.000414556
5.85309e-05
0.000415157
6.3924e-05
0.000415553
6.90961e-05
7.38595e-05
0.000415919
0.000341515
-7.80672e-05
0.000338791
-7.94168e-05
0.00033627
-7.99241e-05
0.000333871
-7.95605e-05
0.000331503
-7.82716e-05
0.000329072
-7.60044e-05
0.000326511
-7.27602e-05
0.000323746
-6.85121e-05
0.000320765
-6.33276e-05
0.000317575
-5.72523e-05
0.000314243
-5.04001e-05
0.000310859
-4.28982e-05
0.000307551
-3.49228e-05
0.000304471
-2.66807e-05
0.000301763
-1.8398e-05
0.000299564
-1.03111e-05
0.000297983
-2.64322e-06
0.000297096
4.40105e-06
0.000296943
1.06758e-05
0.000297526
1.60598e-05
0.000298826
2.04715e-05
0.000300806
2.38976e-05
0.000303415
2.6355e-05
0.0003066
2.78911e-05
0.000310309
2.85919e-05
0.000314498
2.85675e-05
0.000319118
2.79508e-05
0.000324135
2.68889e-05
0.000329514
2.55384e-05
0.000335212
2.40632e-05
0.000341191
2.26163e-05
0.000347401
2.13078e-05
0.000353717
2.02843e-05
0.000360163
1.9625e-05
0.000366672
1.94305e-05
0.000373125
1.97409e-05
0.00037943
2.05854e-05
0.000385486
2.19705e-05
0.000391216
2.38941e-05
0.000396536
2.6321e-05
0.000401343
2.92242e-05
0.000405596
3.25681e-05
0.000409217
3.6307e-05
0.000412195
4.0401e-05
0.000414479
4.47969e-05
0.000416184
4.93759e-05
0.00041736
5.41412e-05
0.000418048
5.89215e-05
0.000418312
6.37482e-05
0.000418288
6.83596e-05
7.26157e-05
0.000418068
0.000340746
-7.82453e-05
0.000338684
-7.91829e-05
0.000336895
-7.92409e-05
0.000335285
-7.84555e-05
0.000333734
-7.67766e-05
0.000332123
-7.42119e-05
0.000330406
-7.07409e-05
0.00032843
-6.6396e-05
0.00032618
-6.11847e-05
0.000323638
-5.52139e-05
0.000320839
-4.85697e-05
0.000317848
-4.13504e-05
0.000314765
-3.37077e-05
0.000311718
-2.58184e-05
0.000308862
-1.7879e-05
0.000306338
-1.01026e-05
0.000304274
-2.69676e-06
0.000302784
4.13676e-06
0.000301933
1.02622e-05
0.000301771
1.55397e-05
0.00030231
1.98831e-05
0.000303552
2.3267e-05
0.000305476
2.5706e-05
0.000308041
2.72528e-05
0.000311233
2.7988e-05
0.00031501
2.80289e-05
0.000319343
2.75171e-05
0.000324204
2.66019e-05
0.000329541
2.54485e-05
0.000335327
2.42198e-05
0.000341493
2.30703e-05
0.00034794
2.20927e-05
0.000354574
2.1449e-05
0.000361379
2.11927e-05
0.000368263
2.14013e-05
0.000375106
2.21077e-05
0.000381769
2.33281e-05
0.000388154
2.50405e-05
0.000394183
2.72287e-05
0.000399729
2.98469e-05
0.000404727
3.28425e-05
0.000409109
3.61743e-05
0.000412818
3.97841e-05
0.00041583
4.36269e-05
0.000418113
4.76516e-05
0.000419686
5.18065e-05
0.00042069
5.59252e-05
0.000421137
6.01486e-05
0.000421073
6.41833e-05
0.00042065
6.80544e-05
7.16152e-05
0.000419981
0.000340365
-7.79695e-05
0.000338985
-7.84432e-05
0.000337921
-7.80251e-05
0.000337069
-7.67787e-05
0.000336254
-7.46893e-05
0.000335412
-7.17804e-05
0.00033436
-6.80467e-05
0.000333084
-6.35654e-05
0.000331522
-5.83976e-05
0.000329561
-5.25281e-05
0.00032724
-4.60916e-05
0.000324598
-3.92003e-05
0.000321713
-3.19541e-05
0.000318708
-2.45153e-05
0.00031572
-1.70383e-05
0.000312903
-9.71866e-06
0.000310391
-2.72539e-06
0.000308335
3.73481e-06
0.00030681
9.57545e-06
0.000305925
1.4605e-05
0.000305726
1.8772e-05
0.000306236
2.20426e-05
0.000307471
2.4418e-05
0.000309442
2.59474e-05
0.000312127
2.67316e-05
0.000315507
2.68748e-05
0.000319592
2.6524e-05
0.000324324
2.58359e-05
0.00032966
2.4972e-05
0.000335569
2.40886e-05
0.000341941
2.33417e-05
0.000348649
2.28024e-05
0.000355624
2.26249e-05
0.000362811
2.28627e-05
0.000370075
2.35716e-05
0.000377292
2.47612e-05
0.000384289
2.64275e-05
0.000390961
2.85444e-05
0.000397245
3.10654e-05
0.000402971
3.39383e-05
0.000408082
3.70853e-05
0.000412538
4.0454e-05
0.000416257
4.39778e-05
0.000419214
4.76001e-05
0.000421415
5.12719e-05
0.000422842
5.49398e-05
0.000423546
5.85238e-05
0.000423794
6.19576e-05
0.000423428
6.51953e-05
0.000422603
6.82517e-05
7.09382e-05
0.000421383
0.000340411
-7.72149e-05
0.000339726
-7.71964e-05
0.000339404
-7.62921e-05
0.000339209
-7.45473e-05
0.000339134
-7.20536e-05
0.000338966
-6.87596e-05
0.000338581
-6.47643e-05
0.000337862
-6.01156e-05
0.000336777
-5.49002e-05
0.000335296
-4.91815e-05
0.000333352
-4.30176e-05
0.000330992
-3.64736e-05
0.000328271
-2.96921e-05
0.0003253
-2.27833e-05
0.000322213
-1.58811e-05
0.00031914
-9.12884e-06
0.000316224
-2.69249e-06
0.000313604
3.27149e-06
0.000311465
8.64779e-06
0.00030989
1.3311e-05
0.00030898
1.71917e-05
0.000308796
2.02531e-05
0.000309377
2.25041e-05
0.000310782
2.40011e-05
0.000312997
2.4823e-05
0.000316033
2.50975e-05
0.000319897
2.49599e-05
0.000324543
2.45603e-05
0.000329926
2.40601e-05
0.000335995
2.36061e-05
0.000342613
2.33418e-05
0.000349611
2.33428e-05
0.000356945
2.37103e-05
0.000364509
2.45132e-05
0.000372166
2.58053e-05
0.000379725
2.75529e-05
0.000387043
2.97449e-05
0.000393983
3.23404e-05
0.000400436
3.52634e-05
0.000406291
3.84581e-05
0.000411457
4.18206e-05
0.000415896
4.52796e-05
0.000419541
4.87705e-05
0.000422362
5.22188e-05
0.000424392
5.55496e-05
0.000425582
5.87388e-05
0.00042601
6.1715e-05
0.000425915
6.44104e-05
0.000425169
6.67984e-05
0.000423892
6.88875e-05
7.05793e-05
0.000422199
0.000340922
-7.59824e-05
0.000340948
-7.54949e-05
0.000341273
-7.40515e-05
0.000341801
-7.18524e-05
0.00034234
-6.88672e-05
0.000342764
-6.52108e-05
0.000342944
-6.09341e-05
0.000342735
-5.61209e-05
0.000342049
-5.08575e-05
0.000340893
-4.52506e-05
0.000339262
-3.93239e-05
0.000337103
-3.31934e-05
0.000334475
-2.6925e-05
0.000331477
-2.05921e-05
0.000328233
-1.43457e-05
0.000324877
-8.28015e-06
0.000321578
-2.53533e-06
0.000318494
2.78702e-06
0.000315765
7.57674e-06
0.000313551
1.17315e-05
0.000311998
1.52035e-05
0.000311171
1.79639e-05
0.000311159
2.0027e-05
0.000312046
2.14402e-05
0.000313849
2.22925e-05
0.000316603
2.27059e-05
0.000320307
2.28025e-05
0.00032492
2.27409e-05
0.000330402
2.26549e-05
0.000336667
2.26958e-05
0.000343575
2.29636e-05
0.000350894
2.35765e-05
0.000358594
2.45611e-05
0.000366551
2.60172e-05
0.00037459
2.79386e-05
0.000382475
3.03227e-05
0.000390096
3.31276e-05
0.000397244
3.62704e-05
0.000403824
3.96788e-05
0.000409755
4.32623e-05
0.00041488
4.6921e-05
0.000419215
5.05448e-05
0.000422699
5.4049e-05
0.00042529
5.73553e-05
0.000427011
6.03962e-05
0.000427887
6.3122e-05
0.000427961
6.54781e-05
0.000427387
6.74096e-05
0.000426247
6.89134e-05
0.000424533
6.99679e-05
7.05339e-05
0.000422385
0.000341882
-7.4367e-05
0.000342641
-7.33623e-05
0.000343615
-7.1416e-05
0.00034476
-6.86755e-05
0.000345897
-6.52488e-05
0.000346861
-6.11886e-05
0.000347481
-5.66154e-05
0.000347645
-5.16211e-05
0.00034729
-4.62991e-05
0.000346312
-4.07888e-05
0.000344881
-3.50923e-05
0.000342832
-2.93794e-05
0.000340227
-2.36239e-05
0.000337124
-1.79295e-05
0.000333711
-1.24083e-05
0.000330079
-7.13392e-06
0.000326392
-2.16721e-06
0.00032286
2.3715e-06
0.000319598
6.44707e-06
0.000316829
9.97152e-06
0.00031468
1.29127e-05
0.000313271
1.52689e-05
0.000312776
1.70551e-05
0.000313211
1.83333e-05
0.000314685
1.91771e-05
0.00031723
1.97104e-05
0.000320826
2.00483e-05
0.000325485
2.03311e-05
0.000331113
2.0691e-05
0.000337627
2.12515e-05
0.000344863
2.20961e-05
0.000352542
2.33598e-05
0.000360646
2.50157e-05
0.00036901
2.71766e-05
0.000377391
2.981e-05
0.000385646
3.29173e-05
0.000393498
3.63922e-05
0.000400816
4.01798e-05
0.000407497
4.41704e-05
0.000413363
4.82338e-05
0.000418406
5.22609e-05
0.000422529
5.61101e-05
0.000425736
5.97061e-05
0.000427996
6.29421e-05
0.000429314
6.57366e-05
0.000429732
6.80254e-05
0.000429328
6.97558e-05
0.000428242
7.09101e-05
0.000426605
7.14906e-05
0.000424396
7.14548e-05
7.08005e-05
0.000421681
0.000343358
-7.245e-05
0.000344756
-7.08972e-05
0.000346422
-6.84326e-05
0.000348189
-6.51811e-05
0.000349852
-6.12456e-05
0.000351234
-5.67696e-05
0.000352217
-5.1869e-05
0.000352645
-4.66729e-05
0.000352454
-4.12761e-05
0.000351643
-3.58157e-05
0.000350212
-3.03693e-05
0.000348142
-2.50183e-05
0.000345448
-1.97918e-05
0.000342216
-1.47844e-05
0.000338558
-1.00437e-05
0.000334618
-5.60709e-06
0.000330576
-1.52896e-06
0.00032657
2.13549e-06
0.000322857
5.37058e-06
0.000319598
8.14128e-06
0.000316937
1.04367e-05
0.000315073
1.22798e-05
0.000314138
1.36979e-05
0.000314232
1.47563e-05
0.000315475
1.55334e-05
0.000317891
1.61381e-05
0.000321476
1.66852e-05
0.000326253
1.72952e-05
0.000332102
1.80852e-05
0.000338917
1.91711e-05
0.000346506
2.05984e-05
0.00035458
2.25164e-05
0.00036315
2.49175e-05
0.000371908
2.78085e-05
0.000380704
3.12518e-05
0.000389243
3.51235e-05
0.000397303
3.93955e-05
0.000404776
4.39181e-05
0.000411423
4.8569e-05
0.000417243
5.32061e-05
0.000422087
5.77121e-05
0.000425893
6.19078e-05
0.000428697
6.56877e-05
0.000430463
6.89165e-05
0.000431272
7.15069e-05
0.000431102
7.33937e-05
0.000430075
7.44985e-05
0.000428432
7.49082e-05
0.000426172
7.44858e-05
0.000423308
7.33023e-05
7.13934e-05
0.000420016
0.000345212
-7.03045e-05
0.00034741
-6.82654e-05
0.000349725
-6.52209e-05
0.000352054
-6.14041e-05
0.000354195
-5.69595e-05
0.000355935
-5.20302e-05
0.000357161
-4.67667e-05
0.000357747
-4.13141e-05
0.000357612
-3.58068e-05
0.000356789
-3.03838e-05
0.00035524
-2.51207e-05
0.000353035
-2.01215e-05
0.000350144
-1.54315e-05
0.000346653
-1.11081e-05
0.000342685
-7.17628e-06
0.000338419
-3.6392e-06
0.00033396
-5.28435e-07
0.000329568
2.17857e-06
0.000325438
4.4691e-06
0.000321728
6.37283e-06
0.000318671
7.91493e-06
0.00031643
9.12766e-06
0.000315187
1.00697e-05
0.000315065
1.08066e-05
0.00031616
1.1428e-05
0.000318548
1.20266e-05
0.00032224
1.2712e-05
0.000327192
1.35906e-05
0.000333329
1.47654e-05
0.00034051
1.63368e-05
0.000348504
1.83519e-05
0.000357056
2.09107e-05
0.000366057
2.40287e-05
0.000375307
2.77607e-05
0.000384476
3.20264e-05
0.000393335
3.67853e-05
0.000401635
4.19215e-05
0.000409174
4.72912e-05
0.000415828
5.27616e-05
0.000421425
5.81263e-05
0.000425943
6.32245e-05
0.00042934
6.78799e-05
0.000431605
7.19299e-05
0.00043274
7.52353e-05
0.000432852
7.76743e-05
0.000431957
7.91837e-05
0.000430191
7.97059e-05
0.000427812
7.93009e-05
0.000424808
7.79278e-05
0.000421274
7.55356e-05
7.22858e-05
0.000417314
0.000347649
-6.8146e-05
0.000350531
-6.55133e-05
0.000353536
-6.19067e-05
0.000356412
-5.75011e-05
0.000358959
-5.24844e-05
0.000360993
-4.70514e-05
0.000362367
-4.13524e-05
0.000362985
-3.55877e-05
0.000362789
-2.99082e-05
0.000361801
-2.44554e-05
0.000359993
-1.93465e-05
0.000357497
-1.46736e-05
0.000354276
-1.05009e-05
0.000350413
-6.85482e-06
0.000346066
-3.75255e-06
0.000341368
-1.15576e-06
0.000336536
9.41693e-07
0.000331744
2.6019e-06
0.000327188
3.86969e-06
0.000323147
4.8101e-06
0.00031978
5.4817e-06
0.000317258
5.95301e-06
0.000315828
6.29728e-06
0.000315589
6.59542e-06
0.000316675
6.93992e-06
0.000319155
7.41963e-06
0.000323015
8.14062e-06
0.000328262
9.18837e-06
0.000334784
1.06648e-05
0.000342409
1.2655e-05
0.000350877
1.518e-05
0.00035995
1.83707e-05
0.000369522
2.22466e-05
0.000379264
2.67839e-05
0.000388873
3.19808e-05
0.000398052
3.77007e-05
0.000406547
4.38341e-05
0.000414152
5.02059e-05
0.000420653
5.66246e-05
0.000426015
6.28725e-05
0.000430107
6.87321e-05
0.000432887
7.39707e-05
0.000434469
7.8414e-05
0.00043483
8.18807e-05
0.000434057
8.42431e-05
0.000432261
8.53938e-05
0.000429565
8.54316e-05
0.000426305
8.41407e-05
0.000422485
8.17053e-05
0.000418118
7.8132e-05
7.34673e-05
0.000413441
0.000350488
-6.60404e-05
0.000354228
-6.2887e-05
0.000357902
-5.864e-05
0.000361298
-5.35803e-05
0.000364227
-4.79325e-05
0.000366459
-4.18902e-05
0.000367884
-3.56754e-05
0.000368428
-2.95036e-05
0.000367995
-2.35576e-05
0.000366678
-1.8021e-05
0.000364496
-1.30054e-05
0.00036154
-8.61521e-06
0.000357834
-4.93766e-06
0.000353465
-1.96874e-06
0.000348625
3.08138e-07
0.000343444
1.92242e-06
0.000338165
2.97505e-06
0.000332967
3.52448e-06
0.000328068
3.7007e-06
0.000323722
3.58167e-06
0.000320118
3.28099e-06
0.000317466
2.8899e-06
0.000315937
2.51562e-06
0.000315711
2.22871e-06
0.000316908
2.15593e-06
0.000319601
2.36037e-06
0.000323755
2.97928e-06
0.000329398
4.06257e-06
0.000336405
5.71092e-06
0.000344548
7.99829e-06
0.000353596
1.09895e-05
0.000363305
1.47294e-05
0.000373488
1.93139e-05
0.000383816
2.4737e-05
0.000393912
3.08821e-05
0.00040346
3.76899e-05
0.000412145
4.49537e-05
0.00041974
5.24943e-05
0.000426122
6.00648e-05
0.000431079
6.73788e-05
0.000434596
7.41799e-05
0.000436693
8.01915e-05
0.000437343
8.51592e-05
0.000436706
8.88911e-05
0.000434866
9.12414e-05
0.000431939
9.21342e-05
0.000428238
9.16084e-05
0.000423881
8.95015e-05
0.00041898
8.59508e-05
0.000413702
8.10262e-05
7.49376e-05
0.000408277
0.000353915
-6.43185e-05
0.000358493
-6.0504e-05
0.000362878
-5.5576e-05
0.0003668
-4.9789e-05
0.000370029
-4.33836e-05
0.000372388
-3.66163e-05
0.000373799
-2.97516e-05
0.000374108
-2.30443e-05
0.000373294
-1.6736e-05
0.000371503
-1.10176e-05
0.000368751
-6.01625e-06
0.000365174
-1.8547e-06
0.000360779
1.34438e-06
0.000355783
3.64366e-06
0.000350305
5.07786e-06
0.000344586
5.71004e-06
0.00033879
5.65847e-06
0.000333168
5.06784e-06
0.00032796
4.07471e-06
0.000323364
2.81597e-06
0.000319602
1.45337e-06
0.000316884
7.30718e-08
0.0003154
-1.16657e-06
0.00031532
-2.18035e-06
0.000316744
-2.84293e-06
0.000319723
-3.06345e-06
0.000324334
-2.75467e-06
0.000330468
-1.81206e-06
0.000338062
-1.5583e-07
0.000346885
2.28712e-06
0.000356594
5.5978e-06
0.000367063
9.8207e-06
0.000378008
1.51092e-05
0.000389009
2.13668e-05
0.000399687
2.85732e-05
0.000409641
3.6553e-05
0.000418547
4.51299e-05
0.000426195
5.40571e-05
0.000432272
6.29945e-05
0.000436749
7.16355e-05
0.000439595
7.9601e-05
0.000440714
8.65697e-05
0.000440267
9.22285e-05
0.000438421
9.63588e-05
0.000435287
9.87702e-05
0.000430988
9.94747e-05
0.000426062
9.83414e-05
0.000420422
9.53586e-05
0.00041434
9.06384e-05
0.000408005
8.43594e-05
7.67749e-05
0.000401712
0.000357868
-6.30649e-05
0.000363388
-5.86148e-05
0.00036852
-5.29164e-05
0.000372964
-4.62631e-05
0.000376501
-3.89382e-05
0.000378961
-3.12701e-05
0.000380169
-2.35829e-05
0.000380113
-1.61835e-05
0.000378796
-9.36861e-06
0.000376269
-3.31059e-06
0.000372774
1.70531e-06
0.00036837
5.69242e-06
0.000363138
8.48931e-06
0.000357308
1.00998e-05
0.000351103
1.06664e-05
0.000344707
1.0292e-05
0.000338367
9.11842e-06
0.000332305
7.32902e-06
0.000326753
5.11016e-06
0.000321946
2.64149e-06
0.000318105
1.00683e-07
0.000315409
-2.3771e-06
0.000314076
-4.62937e-06
0.000314218
-6.53083e-06
0.000315974
-7.9633e-06
0.000319429
-8.83218e-06
0.000324568
-9.02561e-06
0.000331346
-8.44596e-06
0.000339643
-6.9833e-06
0.000349269
-4.63222e-06
0.000359868
-1.12563e-06
0.000371247
3.51208e-06
0.000383086
9.38787e-06
0.000394892
1.65314e-05
0.000406264
2.48247e-05
0.000416732
3.41269e-05
0.000425942
4.42193e-05
0.000433551
5.47731e-05
0.000439387
6.53951e-05
0.000443267
7.56381e-05
0.000445123
8.50539e-05
0.000445106
9.32252e-05
0.000443342
9.97796e-05
0.000439982
0.000104414
0.000435178
0.000107013
0.000429512
0.000107566
0.000422905
0.000105759
0.00041576
0.000101795
0.000408339
9.58558e-05
0.000400873
8.81589e-05
7.9029e-05
0.000393674
0.00036243
-6.26559e-05
0.000369002
-5.74529e-05
0.000374966
-5.08565e-05
0.000379989
-4.31383e-05
0.000383811
-3.46833e-05
0.000386244
-2.58867e-05
0.000387194
-1.71382e-05
0.000386583
-8.83566e-06
0.00038452
-1.31135e-06
0.000381069
5.17808e-06
0.000376605
1.03873e-05
0.000371131
1.41925e-05
0.000364862
1.6581e-05
0.00035804
1.75479e-05
0.000350928
1.72158e-05
0.000343771
1.57903e-05
0.000336798
1.34525e-05
0.000330242
1.0418e-05
0.000324378
6.90646e-06
0.00031938
3.1447e-06
0.000315501
-6.72908e-07
0.000312928
-4.36765e-06
0.000311788
-7.7675e-06
0.00031226
-1.0734e-05
0.000314489
-1.31336e-05
0.000318476
-1.48627e-05
0.000324273
-1.57963e-05
0.000331826
-1.58288e-05
0.000340969
-1.48253e-05
0.000351581
-1.27379e-05
0.000363191
-9.31827e-06
0.000375706
-4.42941e-06
0.000388643
1.98801e-06
0.000401514
9.94706e-06
0.000413784
1.94155e-05
0.000424943
3.02065e-05
0.0004345
4.20635e-05
0.000442178
5.45746e-05
0.000447606
6.72297e-05
0.000450706
7.94506e-05
0.000451493
9.06849e-05
0.000450055
0.000100336
0.000446567
0.000107996
0.000441351
0.000113323
0.000434749
0.000116295
0.000427119
0.000116499
0.000418698
0.000113983
0.000409881
0.000109004
0.00040094
0.000101743
0.000392213
9.25635e-05
8.17692e-05
0.000384001
0.000367675
-6.33376e-05
0.000375471
-5.73196e-05
0.000382382
-4.95995e-05
0.000388001
-4.05891e-05
0.000392123
-3.07148e-05
0.000394496
-2.04659e-05
0.000395
-1.03503e-05
0.000393643
-8.68183e-07
0.00039058
7.58036e-06
0.000386018
1.46755e-05
0.000380271
2.01675e-05
0.000373455
2.38943e-05
0.000365929
2.58399e-05
0.000357925
2.61074e-05
0.000349738
2.48831e-05
0.000341697
2.23525e-05
0.000334001
1.87778e-05
0.000326938
1.44224e-05
0.000320727
9.54759e-06
0.00031556
4.40127e-06
0.000311677
-7.87874e-07
0.000309241
-5.82062e-06
0.000308391
-1.05188e-05
0.000309296
-1.47173e-05
0.00031204
-1.82856e-05
0.000316673
-2.11045e-05
0.000323269
-2.30323e-05
0.00033171
-2.39458e-05
0.00034188
-2.37121e-05
0.000353599
-2.21591e-05
0.000366517
-1.90432e-05
0.000380426
-1.41617e-05
0.000394728
-7.37198e-06
0.000408913
1.35704e-06
0.000422368
1.20709e-05
0.000434385
2.45504e-05
0.00044454
3.85018e-05
0.000452237
5.33359e-05
0.000457225
6.85632e-05
0.000459493
8.32051e-05
0.000458826
9.66663e-05
0.000455587
0.000108188
0.000450111
0.000117195
0.000442599
0.000123548
0.000433834
0.000126694
0.0004239
0.000126539
0.000413376
0.000123291
0.000402615
0.000117155
0.000391989
0.000108504
0.000381864
9.76739e-05
8.51054e-05
0.000372566
0.000373706
-6.55154e-05
0.000382917
-5.84929e-05
0.000390937
-4.944e-05
0.000397348
-3.88015e-05
0.000401733
-2.71039e-05
0.000403896
-1.49888e-05
0.000403789
-3.09274e-06
0.000401446
7.89636e-06
0.000397067
1.75374e-05
0.000391138
2.5448e-05
0.000383759
3.13236e-05
0.000375365
3.50014e-05
0.000366264
3.65138e-05
0.000356843
3.6042e-05
0.000347484
3.38058e-05
0.000338409
3.0096e-05
0.000329921
2.52058e-05
0.000322273
1.94401e-05
0.000315677
1.30988e-05
0.00031038
6.47119e-06
0.000306511
-1.93995e-07
0.00030426
-6.69419e-06
0.000303732
-1.2828e-05
0.000305095
-1.8431e-05
0.000308469
-2.33774e-05
0.00031384
-2.75133e-05
0.000321284
-3.06981e-05
0.000330787
-3.28066e-05
0.000342073
-3.3673e-05
0.000355165
-3.29462e-05
0.000369639
-3.0434e-05
0.000385238
-2.58696e-05
0.000401255
-1.89751e-05
0.000417148
-9.57371e-06
0.000432118
2.43246e-06
0.000445468
1.68615e-05
0.000456212
3.3304e-05
0.000464218
5.10944e-05
0.000468793
6.93522e-05
0.00046968
8.7087e-05
0.000467424
0.000103322
0.000461999
0.000117121
0.000453929
0.000127936
0.000443883
0.000135293
0.000432293
0.00013868
0.00041974
0.000138117
0.000406746
0.000133985
0.000393785
0.000126564
0.000381288
0.000116307
0.00036966
0.00010366
8.91408e-05
0.000359241
0.000380584
-6.96164e-05
0.000391539
-6.14123e-05
0.000401005
-5.0711e-05
0.000408286
-3.79838e-05
0.00041294
-2.3929e-05
0.000414858
-9.39295e-06
0.000413935
4.77313e-06
0.000410319
1.77448e-05
0.000404247
2.89406e-05
0.000396422
3.78843e-05
0.000387058
4.42096e-05
0.000376704
4.78334e-05
0.000365792
4.88453e-05
0.000354783
4.7546e-05
0.000344003
4.42015e-05
0.000333777
3.91803e-05
0.00032441
3.2837e-05
0.000316126
2.55335e-05
0.000309161
1.76158e-05
0.000303693
9.3915e-06
0.000299868
1.13067e-06
0.000297805
-6.96064e-06
0.000297636
-1.46776e-05
0.000299544
-2.18553e-05
0.000303533
-2.837e-05
0.000309692
-3.40584e-05
0.000318094
-3.87877e-05
0.000328746
-4.24401e-05
0.000341332
-4.46513e-05
0.000355982
-4.51442e-05
0.00037223
-4.36615e-05
0.000389818
-3.97673e-05
0.000407972
-3.31201e-05
0.000426122
-2.32297e-05
0.000443177
-9.9542e-06
0.000458087
6.72841e-06
0.000470117
2.61847e-05
0.000478383
4.75747e-05
0.000482303
6.97459e-05
0.000481947
9.13673e-05
0.000477486
0.0001111
0.000469353
0.000127742
0.000458151
0.000140716
0.000444921
0.000149141
0.000430085
0.000152688
0.000414428
0.00015167
0.000398611
0.000146464
0.000383189
0.000137515
0.000368677
0.000125375
0.00035542
0.000110679
9.39926e-05
0.00034378
0.000388485
-7.61625e-05
0.0004017
-6.66005e-05
0.000412901
-5.38255e-05
0.000421261
-3.83976e-05
0.000426258
-2.12704e-05
0.000427625
-3.5201e-06
0.000425504
1.35203e-05
0.00042019
2.90258e-05
0.000412079
4.21693e-05
0.000401963
5.23731e-05
0.000390203
5.92726e-05
0.000377479
6.27895e-05
0.000364427
6.32108e-05
0.000351517
6.08999e-05
0.000339133
5.62629e-05
0.000327658
4.97369e-05
0.000317323
4.17646e-05
0.000308386
3.27616e-05
0.00030104
2.312e-05
0.000295398
1.31641e-05
0.000291591
3.19995e-06
0.000289745
-6.6283e-06
0.000289975
-1.60625e-05
0.000292391
-2.49781e-05
0.000297045
-3.32459e-05
0.000304038
-4.07197e-05
0.000313463
-4.73228e-05
0.000325209
-5.2722e-05
0.000339286
-5.66466e-05
0.000355604
-5.88111e-05
0.000373829
-5.87857e-05
0.000393594
-5.60434e-05
0.000414345
-4.99919e-05
0.000435143
-4.00008e-05
0.000454794
-2.54889e-05
0.000472193
-6.47048e-06
0.000485743
1.66779e-05
0.000494577
4.25621e-05
0.000498124
6.97181e-05
0.000496278
9.62833e-05
0.000489227
0.000120431
0.000477546
0.000140731
0.000462784
0.000156111
0.000445545
0.000165722
0.00042684
0.000169451
0.00040765
0.000167741
0.000388684
0.000161159
0.000370536
0.000150308
0.000353785
0.000135965
0.000338868
0.000118883
9.97728e-05
0.000326025
0.00039739
-8.57864e-05
0.000413405
-7.46956e-05
0.000426885
-5.93348e-05
0.00043669
-4.041e-05
0.000442032
-1.92097e-05
0.000442952
2.66016e-06
0.000439304
2.35741e-05
0.000431696
4.22872e-05
0.000420924
5.78979e-05
0.000407787
6.9608e-05
0.000393026
7.70191e-05
0.000377506
8.03464e-05
0.000361921
7.99833e-05
0.000346864
7.6401e-05
0.000332734
7.01903e-05
0.000319872
6.18959e-05
0.000308518
5.20603e-05
0.000298882
4.11542e-05
0.000291113
2.96126e-05
0.00028533
1.77765e-05
0.000281588
5.95511e-06
0.000279955
-5.71726e-06
0.000280572
-1.7003e-05
0.00028348
-2.77966e-05
0.000288795
-3.80003e-05
0.000296619
-4.75219e-05
0.000306968
-5.6161e-05
0.000319932
-6.36012e-05
0.000335417
-6.96192e-05
0.000353342
-7.37462e-05
0.000373385
-7.56295e-05
0.000395221
-7.434e-05
0.000418454
-6.94556e-05
0.000442039
-5.97911e-05
0.000464667
-4.44057e-05
0.00048504
-2.3274e-05
0.000501183
3.90029e-06
0.000511454
3.53826e-05
0.000514859
6.89727e-05
0.00051139
0.000101968
0.000501589
0.000131623
0.000486307
0.000156536
0.000467194
0.000174765
0.000445412
0.000185726
0.000422263
0.000189648
0.000398944
0.00018694
0.000376397
0.000178485
0.000355377
0.00016527
0.000336347
0.000148288
0.000319685
0.000128424
0.000106551
0.000305658
0.00040666
-9.91494e-05
0.000426253
-8.64286e-05
0.000442732
-6.79859e-05
0.000454525
-4.46214e-05
0.000460556
-1.80432e-05
0.00046073
9.32935e-06
0.000455208
3.5298e-05
0.000444714
5.80953e-05
0.00043055
7.67739e-05
0.000413671
9.02277e-05
0.000395304
9.81563e-05
0.000376479
0.000101052
0.000358024
9.95593e-05
0.000340513
9.43631e-05
0.000324434
8.61758e-05
0.000310106
7.57661e-05
0.000297722
6.37548e-05
0.00028743
5.06954e-05
0.000279291
3.70531e-05
0.000273372
2.3172e-05
0.000269696
9.36667e-06
0.00026829
-4.27384e-06
0.000269268
-1.75214e-05
0.000272652
-3.03243e-05
0.000278606
-4.26545e-05
0.000287116
-5.43647e-05
0.000298401
-6.51995e-05
0.000312405
-7.49414e-05
0.000328887
-8.31747e-05
0.000347946
-8.93601e-05
0.000368994
-9.32867e-05
0.000391774
-9.34994e-05
0.000416588
-9.0289e-05
0.000442064
-8.14549e-05
0.000466911
-6.6043e-05
0.000490956
-4.3912e-05
0.000511527
-1.34384e-05
0.000524661
2.44736e-05
0.000528669
6.65674e-05
0.00052385
0.0001078
0.000511315
0.000144403
0.000492555
0.000174806
0.000469188
0.000196601
0.000442789
0.000209449
0.000414994
0.00021353
0.000387354
0.000209546
0.000361133
0.000198783
0.000337105
0.000182617
0.000315812
0.000162401
0.000297534
0.000139312
0.000114319
0.000282424
0.00041394
-0.000116531
0.000437281
-0.000102222
0.00045765
-8.07796e-05
0.000472629
-5.22785e-05
0.000480274
-1.87465e-05
0.000480076
1.61045e-05
0.000472429
4.88302e-05
0.000458632
7.69482e-05
0.000440485
9.95061e-05
0.000419294
0.000114923
0.00039669
0.000123391
0.000373995
0.000125547
0.000352218
0.000122407
0.000332044
0.000115038
0.000313928
0.000104376
0.000298107
9.13817e-05
0.000284709
7.68208e-05
0.000273806
6.13142e-05
0.000265356
4.53451e-05
0.000259368
2.92514e-05
0.000255784
1.33458e-05
0.00025462
-2.36391e-06
0.000255947
-1.76657e-05
0.00025976
-3.25909e-05
0.000266234
-4.71459e-05
0.000275364
-6.11153e-05
0.000287291
-7.43043e-05
0.000301815
-8.62334e-05
0.000318475
-9.64464e-05
0.000337173
-0.000104227
0.000357415
-0.000109686
0.000378928
-0.000111006
0.000402342
-0.000109506
0.000426438
-0.00010193
0.000452753
-8.89504e-05
0.000482183
-6.89707e-05
0.000509523
-3.81661e-05
0.000529501
5.57377e-06
0.000534609
6.07295e-05
0.0005265
0.000115328
0.000512504
0.000157759
0.000490271
0.000195477
0.000463097
0.000221214