/*--------------------------------*- C++ -*----------------------------------*\
  =========                 |
  \\      /  F ield         | OpenFOAM: The Open Source CFD Toolbox
   \\    /   O peration     | Website:  https://openfoam.org
    \\  /    A nd           | Version:  10
     \\/     M anipulation  |
\*---------------------------------------------------------------------------*/
FoamFile
{
    format      ascii;
    class       volScalarField;
    location    "0.19995";
    object      rho;
}
// * * * * * * * * * * * * * * * * * * * * * * * * * * * * * * * * * * * * * //

dimensions      [1 -3 0 0 0 0 0];

internalField   nonuniform List<scalar> 
15708
(
0.966729
0.968897
0.971228
0.973791
0.976628
0.979807
0.983317
0.987175
0.991273
0.995493
0.999664
1.00361
1.00713
1.01008
1.01237
1.01394
1.01481
1.01506
1.01475
1.01402
1.01289
1.01166
1.01021
1.00878
1.00743
1.00622
1.00521
1.00441
1.0039
1.00356
1.0035
1.00361
1.00389
1.00435
1.00488
1.00551
1.00627
1.00712
1.00818
1.00938
1.01089
1.01266
1.01478
1.01722
1.01999
1.02295
1.02609
1.02925
1.03217
1.03489
1.03724
0.967847
0.96982
0.971835
0.973946
0.976195
0.978693
0.981455
0.984566
0.987951
0.991582
0.995294
0.998985
1.00243
1.00555
1.00817
1.01024
1.01173
1.01265
1.01309
1.01311
1.01281
1.01229
1.01159
1.01091
1.01021
1.00959
1.00912
1.00877
1.0086
1.00856
1.00862
1.00875
1.00895
1.00913
1.00932
1.00948
1.00962
1.00978
1.00999
1.01036
1.01089
1.01176
1.01289
1.01444
1.01639
1.01865
1.02133
1.02395
1.02699
1.02962
1.03228
0.969066
0.970854
0.972572
0.974263
0.975967
0.977863
0.979912
0.982337
0.985013
0.988039
0.991268
0.99463
0.997963
1.00115
1.00404
1.00654
1.00861
1.01022
1.01139
1.01221
1.01271
1.013
1.01311
1.01315
1.01316
1.01318
1.01326
1.01338
1.01355
1.01375
1.01392
1.01406
1.01409
1.01405
1.01385
1.01348
1.01304
1.01248
1.01196
1.01148
1.01114
1.01109
1.01136
1.012
1.01313
1.01471
1.01672
1.01912
1.0217
1.02466
1.0273
0.97038
0.971929
0.973341
0.974631
0.975878
0.977185
0.97863
0.98038
0.982439
0.984854
0.987602
0.990606
0.993758
0.996955
1.00004
1.00293
1.00553
1.0078
1.00972
1.01132
1.01266
1.01377
1.01469
1.01551
1.01624
1.01691
1.01753
1.01811
1.01861
1.01901
1.01927
1.01935
1.01923
1.0189
1.01825
1.01743
1.01634
1.01515
1.01391
1.01263
1.01154
1.01062
1.01006
1.00994
1.01029
1.01117
1.01257
1.01455
1.01691
1.01977
1.02256
0.971685
0.973068
0.974214
0.975071
0.975879
0.976626
0.977557
0.978688
0.980186
0.982047
0.984324
0.986968
0.989906
0.993046
0.996278
0.999476
1.00255
1.00543
1.00807
1.01046
1.01261
1.01457
1.01632
1.01791
1.01936
1.02066
1.02184
1.02282
1.02363
1.0242
1.02448
1.02448
1.02418
1.02352
1.02248
1.02112
1.01949
1.0177
1.01569
1.01381
1.01191
1.0103
1.00902
1.00813
1.00786
1.00804
1.00895
1.01051
1.01261
1.01523
1.01837
0.973103
0.974226
0.974986
0.975508
0.975902
0.976193
0.976632
0.977293
0.978263
0.979618
0.981456
0.983734
0.986466
0.989506
0.992804
0.996263
0.999753
1.00319
1.0065
1.00964
1.01262
1.01533
1.01794
1.02028
1.02241
1.02436
1.02599
1.02741
1.02845
1.02912
1.02942
1.0293
1.02878
1.02778
1.02633
1.02448
1.02236
1.01992
1.01739
1.01486
1.01232
1.01008
1.00811
1.00667
1.00574
1.00546
1.0059
1.00688
1.00883
1.01132
1.01438
0.974515
0.975376
0.975753
0.97601
0.975943
0.975911
0.975898
0.976076
0.976595
0.977563
0.978981
0.980969
0.983433
0.986377
0.989708
0.993357
0.997186
1.00111
1.00503
1.00887
1.01257
1.01613
1.01943
1.02251
1.02537
1.02778
1.02991
1.03168
1.0329
1.03366
1.03393
1.03365
1.03287
1.03154
1.02973
1.02738
1.02484
1.0218
1.01878
1.01574
1.01262
1.00985
1.00739
1.00539
1.00396
1.00331
1.00326
1.00407
1.00563
1.00798
1.01126
0.975975
0.976411
0.976612
0.976394
0.976091
0.975643
0.975318
0.975096
0.975261
0.975803
0.976949
0.978563
0.980874
0.983661
0.987002
0.990794
0.994959
0.99924
1.00371
1.00815
1.01255
1.01682
1.02082
1.02451
1.02799
1.0309
1.03344
1.03545
1.03685
1.03763
1.03782
1.03742
1.03635
1.03471
1.0325
1.02982
1.02672
1.02337
1.01981
1.01631
1.01279
1.00957
1.00671
1.00431
1.00251
1.00153
1.00115
1.00172
1.00305
1.00544
1.0085
0.977374
0.977547
0.977307
0.976894
0.976205
0.975489
0.974766
0.974344
0.974159
0.974446
0.975232
0.976625
0.978798
0.981405
0.984798
0.988651
0.99295
0.997634
1.00258
1.00748
1.01249
1.01739
1.02196
1.02629
1.03017
1.03354
1.03646
1.03861
1.04017
1.04091
1.04103
1.04039
1.03919
1.03715
1.03466
1.03159
1.02803
1.02448
1.02035
1.01665
1.01272
1.0092
1.00603
1.00339
1.00123
1
0.999517
0.9999
1.00123
1.0034
1.00662
0.978635
0.978636
0.97805
0.977279
0.976359
0.975296
0.974427
0.973645
0.973341
0.973327
0.97394
0.975181
0.977066
0.97972
0.982906
0.987033
0.991331
0.996345
1.00157
1.0069
1.01248
1.0177
1.02283
1.02772
1.03185
1.03571
1.0387
1.0411
1.04266
1.04339
1.04334
1.04265
1.04111
1.03888
1.03608
1.03252
1.02902
1.0247
1.02074
1.01645
1.01246
1.00863
1.00521
1.0024
1.0002
0.998782
0.998264
0.998604
0.999938
1.00213
1.00558
0.98006
0.9796
0.978766
0.977702
0.976464
0.975223
0.974035
0.973237
0.972558
0.972573
0.972974
0.974062
0.975832
0.978403
0.981679
0.985616
0.990211
0.995347
1.00066
1.00658
1.01225
1.01802
1.02342
1.02861
1.03303
1.03719
1.04022
1.04277
1.04432
1.045
1.04481
1.04398
1.04211
1.03987
1.0365
1.03311
1.02888
1.02474
1.02034
1.01581
1.01181
1.00767
1.00435
1.00135
0.999208
0.997871
0.997322
0.997799
0.999146
1.00167
1.005
0.981295
0.980603
0.979412
0.977994
0.976596
0.975149
0.973789
0.972819
0.972057
0.97195
0.972284
0.973305
0.975032
0.977522
0.980772
0.984726
0.989521
0.99447
1.00032
1.00609
1.01213
1.01803
1.0237
1.02903
1.03374
1.03778
1.04107
1.04356
1.04501
1.04564
1.04537
1.04427
1.04248
1.0396
1.03647
1.03241
1.0284
1.02373
1.01937
1.01477
1.01052
1.00658
1.00316
1.00037
0.998164
0.997096
0.996686
0.997268
0.998904
1.00152
1.0054
0.982646
0.981445
0.97999
0.978377
0.976601
0.975078
0.973613
0.972465
0.971686
0.971557
0.971824
0.972841
0.974556
0.97705
0.980285
0.98433
0.988961
0.994304
0.999898
1.00578
1.01203
1.01789
1.02361
1.02904
1.03367
1.03784
1.04097
1.04342
1.04479
1.04533
1.04489
1.04375
1.04156
1.0388
1.0352
1.03124
1.02684
1.02234
1.0177
1.01308
1.00901
1.00498
1.00167
0.999113
0.997192
0.996308
0.996252
0.997061
0.99906
1.00213
1.00613
0.983681
0.9823
0.980554
0.978539
0.976687
0.975021
0.973335
0.972222
0.971421
0.971218
0.971552
0.972626
0.974371
0.976946
0.980161
0.98434
0.988828
0.994279
0.999731
1.00573
1.01167
1.01766
1.02325
1.02851
1.03309
1.0371
1.04019
1.04235
1.04374
1.04398
1.04356
1.04208
1.03992
1.03681
1.03327
1.02905
1.02474
1.01992
1.01538
1.01095
1.00667
1.00302
0.999976
0.997462
0.996123
0.995518
0.995758
0.997222
0.999561
1.00313
1.00746
0.984812
0.983016
0.980934
0.978794
0.976691
0.97474
0.973082
0.972022
0.971098
0.971004
0.971444
0.972506
0.974496
0.977067
0.980486
0.984447
0.989292
0.99426
0.999942
1.00562
1.01151
1.01718
1.0226
1.02752
1.03206
1.03556
1.03857
1.0406
1.0416
1.04188
1.0411
1.03964
1.03714
1.03417
1.0302
1.02619
1.02149
1.01696
1.0124
1.00777
1.00397
1.00051
0.997588
0.995683
0.9948
0.99457
0.995501
0.997412
1.00041
1.00451
1.00927
0.985684
0.983666
0.981262
0.978839
0.976491
0.974512
0.972841
0.971493
0.970946
0.970798
0.971288
0.972636
0.974697
0.977458
0.980938
0.985064
0.989682
0.994816
1.00014
1.00569
1.01123
1.01664
1.02164
1.02637
1.03026
1.03365
1.03631
1.03799
1.03883
1.03872
1.03799
1.03618
1.03374
1.03037
1.02642
1.02225
1.01756
1.01307
1.00829
1.0044
1.0003
0.997262
0.994787
0.993669
0.992971
0.993593
0.995173
0.997813
1.00152
1.00613
1.01141
0.986606
0.984053
0.98145
0.978747
0.976313
0.974026
0.97235
0.971096
0.970544
0.970518
0.971263
0.972809
0.975065
0.977965
0.981666
0.985767
0.990436
0.995362
1.0005
1.00586
1.01088
1.01603
1.02061
1.02473
1.02823
1.0313
1.03334
1.03484
1.0352
1.0351
1.03393
1.03201
1.02927
1.02581
1.02182
1.01749
1.01287
1.0081
1.00389
0.999481
0.996215
0.993312
0.991705
0.990728
0.991046
0.992245
0.994802
0.998254
1.00283
1.00795
1.01378
0.987295
0.984413
0.981511
0.978536
0.975637
0.973535
0.97154
0.970558
0.969921
0.970148
0.971093
0.972898
0.975438
0.978734
0.982335
0.986647
0.991309
0.996016
1.00109
1.00593
1.0107
1.01524
1.01937
1.0229
1.02603
1.02838
1.03007
1.03118
1.03112
1.03072
1.0293
1.027
1.02419
1.02043
1.0164
1.01191
1.00698
1.00274
0.997779
0.994336
0.991092
0.988688
0.987695
0.987568
0.988513
0.990986
0.994205
0.998953
1.00406
1.01
1.01616
0.98784
0.984664
0.981254
0.977928
0.97506
0.972368
0.97057
0.969555
0.969035
0.969509
0.970838
0.972847
0.975899
0.979264
0.983247
0.987669
0.99213
0.996923
1.00151
1.00609
1.01052
1.01443
1.01813
1.0209
1.02351
1.02546
1.02647
1.02713
1.02671
1.02579
1.02405
1.02139
1.0185
1.01428
1.01028
1.00521
1.00096
0.995111
0.992101
0.987608
0.984861
0.983574
0.982878
0.983607
0.985801
0.989112
0.993932
0.999266
1.00548
1.01188
1.01879
0.988265
0.984505
0.98066
0.97724
0.97371
0.971006
0.969204
0.968248
0.968038
0.968548
0.970243
0.972786
0.976099
0.979815
0.984169
0.988546
0.993131
0.997654
1.00203
1.0063
1.0102
1.01373
1.0166
1.01896
1.02106
1.02216
1.02282
1.02288
1.02205
1.02057
1.01847
1.0152
1.01213
1.0074
1.0034
0.997928
0.992928
0.988223
0.983903
0.980152
0.978045
0.977092
0.977272
0.979038
0.982681
0.98734
0.993226
0.999701
1.0067
1.01405
1.02115
0.988505
0.984123
0.980026
0.975766
0.972138
0.968926
0.967079
0.965998
0.966065
0.967121
0.969365
0.972531
0.97608
0.98047
0.984808
0.989405
0.994023
0.998316
1.00261
1.00646
1.00987
1.01285
1.01516
1.01707
1.01841
1.01906
1.01913
1.01854
1.01719
1.01518
1.01248
1.00894
1.00486
1.00044
0.995107
0.989858
0.984469
0.979088
0.974774
0.971514
0.970154
0.969615
0.970664
0.974003
0.978855
0.98511
0.992391
1.00009
1.00788
1.01585
1.02362
0.988293
0.983373
0.97845
0.973852
0.96957
0.966027
0.964417
0.963288
0.963655
0.9651
0.968126
0.971805
0.976004
0.980649
0.985486
0.990224
0.994839
0.999024
1.00298
1.00642
1.00962
1.01196
1.01381
1.01512
1.01589
1.01598
1.01542
1.01422
1.01247
1.0096
1.00652
1.002
0.997483
0.992341
0.98653
0.980629
0.974733
0.969035
0.964342
0.960907
0.960228
0.960867
0.963065
0.968302
0.974949
0.982654
0.991241
1.00011
1.00912
1.01761
1.02573
0.987634
0.981954
0.976447
0.970827
0.966061
0.96202
0.960491
0.95956
0.960174
0.962428
0.966061
0.970606
0.975535
0.980735
0.985833
0.990754
0.9954
0.999527
1.00334
1.00639
1.00918
1.01105
1.01241
1.01321
1.01348
1.01296
1.01183
1.01017
1.00762
1.00378
1.00077
0.994558
0.990515
0.984862
0.979067
0.971456
0.967401
0.96149
0.954372
0.950566
0.949181
0.949769
0.954275
0.961565
0.970542
0.980086
0.990244
1.00025
1.01014
1.01928
1.02776
0.986941
0.980072
0.97292
0.967001
0.961048
0.956854
0.954736
0.954124
0.955356
0.958903
0.963659
0.969036
0.974725
0.980477
0.986065
0.991248
0.995834
0.999898
1.00349
1.00622
1.00865
1.01001
1.01104
1.01135
1.01114
1.01012
1.00846
1.00586
1.0028
0.998079
0.994934
0.988182
0.987734
0.978509
0.977924
0.973849
0.980627
0.970443
0.964233
0.946997
0.942008
0.940186
0.943485
0.952773
0.964032
0.976281
0.98828
0.999816
1.01058
1.02035
1.02917
0.98782
0.977614
0.973262
0.968639
0.959742
0.952547
0.948893
0.947201
0.94884
0.953572
0.960173
0.966751
0.9734
0.979881
0.985927
0.991369
0.996039
0.999973
1.00347
1.00584
1.008
1.0089
1.00965
1.00954
1.00882
1.00724
1.0049
1.00168
0.998393
0.99319
0.991651
0.985045
0.997979
0.99035
1.02168
1.05569
1.12125
1.11122
1.07013
1.01626
0.972946
0.94742
0.942191
0.948045
0.959709
0.973088
0.986715
0.999563
1.01113
1.02136
1.03038
0.990222
0.995346
1.00083
1.0035
0.987454
0.971466
0.953658
0.945091
0.942926
0.947291
0.954894
0.963361
0.971592
0.978849
0.985453
0.991162
0.996013
0.999922
1.0032
1.00542
1.00719
1.00774
1.00806
1.00765
1.00651
1.00438
1.00144
0.997832
0.995655
0.991524
0.997451
1.00346
1.04842
1.14508
1.28537
1.47082
1.56553
1.54679
1.45457
1.44045
1.13511
0.998221
0.947332
0.940332
0.951739
0.967781
0.983678
0.998264
1.01096
1.02183
1.03103
1.04276
1.10139
1.19739
1.22741
1.20081
1.13481
1.03644
0.971968
0.946945
0.944957
0.950649
0.959589
0.968995
0.9775
0.984659
0.990688
0.995525
0.999464
1.00245
1.00476
1.00593
1.00666
1.00631
1.00567
1.00409
1.00146
0.998478
0.996298
0.99923
1.00432
1.04546
1.14467
1.33996
1.6136
1.75433
1.79475
1.7689
1.71476
1.67118
1.57182
1.50085
1.21133
1.02105
0.956692
0.951671
0.964112
0.980711
0.996466
1.00991
1.02138
1.0309
1.3667
1.55185
1.66544
1.65705
1.61235
1.49973
1.38583
1.11751
0.986028
0.946892
0.945607
0.954521
0.965106
0.974951
0.98306
0.989572
0.994696
0.998618
1.0015
1.00354
1.00453
1.0049
1.00445
1.00345
1.00136
0.998968
0.998248
1.00544
1.02959
1.08695
1.25882
1.61848
1.80509
1.86816
1.86219
1.82113
1.76784
1.69665
1.59855
1.53995
1.47146
1.30282
1.10428
0.996505
0.958574
0.962032
0.977523
0.994289
1.00845
1.02033
1.02999
1.83215
1.87142
1.8433
1.78733
1.70199
1.64569
1.51904
1.36649
1.12472
0.996888
0.95459
0.952116
0.961596
0.972066
0.980947
0.987936
0.993326
0.997336
1.00021
1.00215
1.003
1.00287
1.00244
1.00094
0.999164
0.999302
1.01052
1.0688
1.16686
1.44142
1.76967
1.90263
1.91308
1.88833
1.85018
1.80058
1.73051
1.62534
1.46496
1.37013
1.35146
1.25734
1.08402
0.990309
0.960674
0.962777
0.976841
0.992499
1.00661
1.01861
1.02828
1.94611
1.90758
1.85317
1.77822
1.67648
1.56314
1.47069
1.32036
1.13125
1.01615
0.966914
0.954227
0.959851
0.969754
0.97878
0.98592
0.991545
0.995734
0.998385
1.00033
1.0006
1.00074
0.999787
0.998644
0.999306
1.01426
1.08707
1.34947
1.63325
1.89613
1.94605
1.92965
1.90712
1.87594
1.83497
1.77964
1.69436
1.57165
1.37506
1.15503
1.16794
1.14403
1.04222
0.973918
0.954186
0.959138
0.97455
0.990299
1.00439
1.01633
1.02589
1.94931
1.90212
1.83731
1.74387
1.60546
1.4423
1.31745
1.22341
1.09074
0.999579
0.959391
0.951338
0.957402
0.9673
0.976335
0.983705
0.98936
0.99349
0.995999
0.997785
0.99838
0.997931
0.997023
0.998505
1.01392
1.11609
1.5083
1.86477
1.94815
1.95043
1.93678
1.92072
1.89865
1.86714
1.82339
1.76161
1.66337
1.51547
1.32461
1.09412
1.00741
1.01743
0.975699
0.94904
0.944562
0.955316
0.971445
0.987402
1.00135
1.01297
1.02239
1.94667
1.8942
1.81945
1.70872
1.55759
1.35839
1.19512
1.07357
1.02472
0.97244
0.949661
0.946821
0.95385
0.964423
0.973686
0.981164
0.986801
0.990899
0.993287
0.995042
0.995622
0.995101
0.996254
1.01075
1.11669
1.76475
1.94182
1.95195
1.95217
1.94321
1.92818
1.91395
1.89079
1.85846
1.81084
1.73913
1.62675
1.46664
1.25859
1.045
0.944592
0.938294
0.93171
0.92741
0.936157
0.950782
0.967971
0.983729
0.997546
1.00909
1.01855
1.94639
1.88983
1.8061
1.68045
1.51132
1.31264
1.1237
1.00304
0.965263
0.94915
0.938555
0.94182
0.95106
0.961476
0.970689
0.978032
0.983633
0.987575
0.990093
0.99214
0.992457
0.994517
1.01717
1.37059
1.84113
1.94064
1.95768
1.95295
1.94549
1.9343
1.9243
1.90832
1.88585
1.85274
1.80167
1.72067
1.592
1.41819
1.21371
1.01587
0.917784
0.899707
0.912557
0.914957
0.931435
0.947411
0.964542
0.980167
0.993657
1.00478
1.01501
1.94873
1.89117
1.80347
1.67089
1.48987
1.27929
1.09233
0.971966
0.936335
0.931978
0.931571
0.938635
0.948386
0.958444
0.967475
0.974761
0.980289
0.984301
0.987212
0.988964
0.997988
1.11764
1.56495
1.84509
1.94149
1.95505
1.95199
1.94464
1.93803
1.92701
1.91802
1.90278
1.88103
1.84826
1.79604
1.71102
1.57419
1.39023
1.18744
1.0043
0.898083
0.898222
0.897337
0.915605
0.927002
0.945413
0.961128
0.976457
0.990069
1.0041
1.02578
1.95599
1.90096
1.81446
1.67838
1.49112
1.27161
1.06859
0.956271
0.921642
0.924222
0.927389
0.937139
0.946477
0.955895
0.964481
0.971559
0.977474
0.983171
1.00148
1.08304
1.3652
1.65567
1.86536
1.93609
1.95203
1.94944
1.94294
1.93658
1.93022
1.9208
1.91163
1.89816
1.87831
1.84756
1.79707
1.71267
1.5738
1.38491
1.17853
0.995433
0.898037
0.893614
0.908123
0.910039
0.92947
0.941138
0.960214
0.97719
0.998981
1.04109
1.14918
1.96807
1.92274
1.854
1.7415
1.56732
1.34356
1.10135
0.960964
0.914835
0.927875
0.930882
0.936433
0.94583
0.953907
0.962753
0.970585
0.981586
1.02083
1.18816
1.56286
1.76913
1.88585
1.93104
1.94647
1.94455
1.93944
1.93456
1.92931
1.92169
1.91461
1.90518
1.8935
1.87596
1.84956
1.80646
1.73343
1.60782
1.42333
1.21385
1.02875
0.89767
0.909196
0.904679
0.919033
0.928401
0.951086
0.978214
1.02515
1.11642
1.34012
1.642
1.97579
1.94035
1.89076
1.81769
1.69632
1.51826
1.29021
1.05497
0.965591
0.920959
0.941569
0.941566
0.947699
0.956493
0.966411
0.985918
1.04861
1.30366
1.65022
1.83899
1.89558
1.9306
1.93732
1.93906
1.93461
1.93036
1.9259
1.92127
1.91355
1.90731
1.89803
1.88818
1.87321
1.85245
1.8215
1.77339
1.6926
1.55924
1.37816
1.1703
1.02225
0.924996
0.945865
0.960078
0.982818
1.03193
1.16184
1.33821
1.55009
1.73577
1.91156
1.98052
1.95138
1.91268
1.86298
1.78812
1.67078
1.50954
1.29987
1.09121
1.00385
0.952103
0.965939
0.972499
0.982707
1.01766
1.12022
1.43979
1.69863
1.86983
1.90286
1.92561
1.93003
1.93144
1.92868
1.92558
1.92238
1.91718
1.91296
1.90556
1.89985
1.89091
1.88095
1.86779
1.84997
1.82636
1.79407
1.74794
1.67519
1.57511
1.44389
1.30137
1.2294
1.1933
1.21744
1.26072
1.41616
1.56973
1.70097
1.81392
1.89706
1.96121
1.98085
1.957
1.92774
1.89144
1.85096
1.79172
1.70892
1.59076
1.43204
1.27772
1.15812
1.15235
1.14621
1.18857
1.33108
1.59215
1.79994
1.85972
1.91034
1.91561
1.92403
1.92331
1.92244
1.91985
1.91732
1.91354
1.90952
1.90401
1.89812
1.89158
1.88341
1.87321
1.86107
1.84553
1.82617
1.80252
1.7749
1.73922
1.69409
1.63685
1.57469
1.54223
1.5331
1.55646
1.60526
1.70711
1.79491
1.83864
1.90636
1.93249
1.96208
1.97678
1.95523
1.93087
1.90486
1.87678
1.84931
1.81617
1.77545
1.71206
1.6343
1.58101
1.55026
1.56404
1.60514
1.72807
1.82487
1.89157
1.89729
1.91377
1.91449
1.91704
1.91568
1.91422
1.91188
1.90935
1.90509
1.90172
1.89579
1.89024
1.88348
1.87527
1.86501
1.85333
1.83909
1.82256
1.80377
1.78448
1.76627
1.74753
1.72765
1.70919
1.70485
1.71244
1.73651
1.7699
1.81373
1.8561
1.88213
1.91271
1.93334
1.95382
1.97142
1.95161
1.9288
1.90825
1.88719
1.86937
1.85656
1.84441
1.82917
1.80925
1.7934
1.7937
1.7997
1.82111
1.86863
1.8888
1.90326
1.90503
1.90976
1.90957
1.91003
1.90842
1.90673
1.90407
1.90176
1.89744
1.89377
1.88826
1.88226
1.87549
1.86682
1.85667
1.84497
1.83145
1.81687
1.80153
1.78659
1.77649
1.76845
1.76289
1.76166
1.76643
1.77753
1.79774
1.81891
1.84251
1.86563
1.88522
1.90532
1.92367
1.94038
1.96498
1.94604
1.92542
1.90661
1.89139
1.87723
1.87006
1.86692
1.86338
1.86133
1.86176
1.86532
1.87207
1.88262
1.89358
1.90066
1.90271
1.90366
1.90427
1.9039
1.9033
1.90146
1.89958
1.89703
1.89456
1.89028
1.88643
1.88096
1.87479
1.86744
1.85878
1.84849
1.83693
1.82423
1.8109
1.79792
1.7866
1.78037
1.77659
1.77603
1.77982
1.78721
1.79832
1.8124
1.82914
1.84532
1.86048
1.8781
1.89311
1.91073
1.92569
1.95823
1.93984
1.9219
1.90514
1.89169
1.88229
1.87675
1.8752
1.8741
1.87646
1.879
1.88358
1.88819
1.89276
1.89643
1.89836
1.89886
1.89897
1.89879
1.89812
1.89688
1.89496
1.89301
1.89065
1.8878
1.88359
1.87979
1.87436
1.86762
1.86015
1.85136
1.84116
1.82999
1.81776
1.80619
1.79484
1.7867
1.78273
1.78088
1.78211
1.78733
1.79464
1.80437
1.81534
1.8277
1.84108
1.85306
1.86567
1.88128
1.89497
1.91071
1.95163
1.93488
1.91798
1.9042
1.89341
1.88505
1.88161
1.88029
1.88071
1.8824
1.88485
1.88818
1.89125
1.8934
1.89511
1.89554
1.8951
1.89449
1.89355
1.8922
1.8908
1.88905
1.88693
1.88483
1.88167
1.87781
1.87396
1.86808
1.86173
1.85375
1.84509
1.83506
1.82458
1.81326
1.80319
1.79383
1.78791
1.78527
1.78454
1.78682
1.79196
1.79898
1.80718
1.81566
1.82451
1.83389
1.84473
1.85413
1.86669
1.8795
1.89448
1.94583
1.93006
1.91626
1.90378
1.8951
1.88874
1.88585
1.88495
1.8854
1.88647
1.88819
1.89008
1.89181
1.89232
1.89281
1.89203
1.89112
1.88974
1.88827
1.88663
1.88518
1.88352
1.88189
1.87965
1.87617
1.87276
1.86917
1.86293
1.85682
1.84893
1.84054
1.83099
1.82125
1.81149
1.80257
1.79531
1.7912
1.78943
1.78978
1.79237
1.79704
1.80298
1.80931
1.81534
1.82149
1.82747
1.83417
1.84326
1.85124
1.86465
1.87674
1.94099
1.92742
1.91515
1.9051
1.89769
1.89277
1.89038
1.88963
1.88959
1.88992
1.89056
1.89122
1.89159
1.89077
1.89001
1.88847
1.88677
1.88496
1.8831
1.8815
1.88003
1.87835
1.87688
1.8749
1.87184
1.86896
1.86495
1.85958
1.85346
1.84611
1.83828
1.82957
1.82087
1.81285
1.80533
1.80002
1.79744
1.79606
1.79699
1.7995
1.80358
1.80831
1.81298
1.81676
1.81876
1.82122
1.82428
1.83045
1.83828
1.84745
1.86107
1.93756
1.92635
1.9157
1.90735
1.9017
1.89736
1.89533
1.89431
1.89366
1.89301
1.89268
1.89185
1.89095
1.88894
1.88709
1.88454
1.88222
1.87999
1.87805
1.87647
1.87496
1.87362
1.87247
1.87085
1.86856
1.8661
1.86243
1.85785
1.85223
1.8457
1.83892
1.83131
1.82427
1.81771
1.81219
1.80859
1.80714
1.80654
1.80799
1.81005
1.81292
1.81573
1.81766
1.81781
1.8166
1.81501
1.8157
1.81725
1.82331
1.83116
1.8451
1.93621
1.92676
1.91791
1.91116
1.90614
1.90272
1.90065
1.89906
1.89759
1.89607
1.89412
1.89227
1.88981
1.88666
1.8837
1.88041
1.87757
1.87497
1.87293
1.87141
1.87018
1.86938
1.86885
1.86777
1.86629
1.86438
1.86161
1.85807
1.85342
1.84819
1.84283
1.83722
1.83199
1.82746
1.8239
1.82178
1.82095
1.82079
1.82198
1.82312
1.82422
1.82468
1.8243
1.82244
1.81795
1.81057
1.80471
1.80476
1.80846
1.81658
1.83033
1.93673
1.92874
1.92141
1.91597
1.91186
1.90852
1.90607
1.90395
1.90123
1.89875
1.89531
1.89221
1.88806
1.88407
1.87983
1.87598
1.87256
1.8698
1.86773
1.86636
1.86566
1.86565
1.86575
1.86558
1.86527
1.86438
1.86278
1.86077
1.85773
1.85445
1.85109
1.84785
1.84449
1.84224
1.8407
1.83997
1.84019
1.84048
1.84119
1.84119
1.84056
1.83845
1.83448
1.82766
1.81746
1.80434
1.79085
1.78712
1.78929
1.79772
1.81587
1.93848
1.93232
1.92666
1.92158
1.91792
1.91471
1.91152
1.90852
1.90471
1.90073
1.89604
1.89147
1.88592
1.88079
1.87557
1.87113
1.8673
1.86437
1.86239
1.86149
1.86148
1.86227
1.86337
1.8644
1.86538
1.86601
1.86637
1.86632
1.86559
1.86471
1.86363
1.8628
1.86204
1.86202
1.86266
1.86329
1.86423
1.86466
1.86454
1.86339
1.86041
1.85489
1.84666
1.83519
1.81924
1.8009
1.77953
1.76648
1.76342
1.77768
1.80523
1.94242
1.93708
1.93221
1.92802
1.92437
1.92072
1.91681
1.91269
1.9077
1.90214
1.89623
1.88992
1.88334
1.87694
1.87104
1.86597
1.86177
1.85878
1.85713
1.85687
1.85774
1.85949
1.86171
1.86415
1.86689
1.86972
1.87243
1.87473
1.87671
1.87843
1.88017
1.88209
1.88401
1.88649
1.88909
1.89155
1.89357
1.8943
1.89381
1.89134
1.88609
1.87742
1.86446
1.8436
1.82197
1.78971
1.75089
1.72575
1.73062
1.75733
1.82419
1.03896
1.04041
1.0411
1.04154
1.04149
1.04113
1.04051
1.03981
1.03904
1.03835
1.03769
1.03723
1.03683
1.03657
1.03625
1.03596
1.03551
1.03491
1.03403
1.03288
1.03139
1.02951
1.02726
1.02466
1.02171
1.01841
1.03459
1.03651
1.03813
1.03924
1.0402
1.04067
1.04104
1.0412
1.04126
1.04129
1.04131
1.04134
1.04129
1.04122
1.04103
1.04067
1.04001
1.0391
1.03775
1.03611
1.03401
1.03155
1.02869
1.02549
1.02196
1.0182
1.03017
1.03255
1.035
1.03693
1.03871
1.04025
1.04149
1.04257
1.04352
1.04429
1.04498
1.04552
1.0459
1.046
1.04585
1.04536
1.04447
1.04318
1.0414
1.03919
1.03654
1.03346
1.03001
1.02625
1.0222
1.01796
1.02585
1.02873
1.03188
1.03459
1.03732
1.03975
1.04196
1.04402
1.04581
1.04737
1.04869
1.04973
1.05038
1.05069
1.05061
1.05002
1.04874
1.04707
1.04481
1.04207
1.03884
1.03522
1.0312
1.02695
1.02239
1.01779
1.02155
1.02534
1.02871
1.03257
1.0359
1.03939
1.04256
1.04544
1.04813
1.05042
1.05233
1.05383
1.05477
1.05518
1.05502
1.05435
1.05277
1.05064
1.04794
1.04461
1.04092
1.03675
1.03227
1.02749
1.02264
1.01758
1.01815
1.0219
1.02625
1.03046
1.0349
1.03906
1.0432
1.04695
1.0504
1.05338
1.05586
1.05763
1.05891
1.05926
1.05911
1.05817
1.05634
1.05392
1.05043
1.04695
1.04267
1.03801
1.0332
1.02796
1.02288
1.01749
1.01488
1.01931
1.02398
1.02886
1.03407
1.03904
1.04389
1.04849
1.05254
1.05616
1.05906
1.06117
1.06253
1.06298
1.06263
1.0615
1.05938
1.05638
1.0529
1.04872
1.04407
1.03898
1.03393
1.02837
1.02309
1.01754
1.01245
1.01729
1.02215
1.02788
1.03345
1.03923
1.0447
1.05002
1.05457
1.0587
1.0619
1.06425
1.06561
1.06605
1.06556
1.06417
1.06177
1.05846
1.05465
1.04999
1.04516
1.03982
1.03438
1.0288
1.02328
1.01771
1.01092
1.01556
1.0213
1.02716
1.03337
1.03971
1.0456
1.05144
1.0564
1.0609
1.06431
1.06673
1.0681
1.06848
1.06783
1.06617
1.0635
1.05991
1.05581
1.05086
1.0459
1.0402
1.03482
1.02899
1.02357
1.01807
1.00981
1.015
1.02071
1.02717
1.03366
1.04023
1.04674
1.05277
1.05813
1.06255
1.06624
1.0686
1.07003
1.07008
1.06934
1.06752
1.06459
1.06072
1.05647
1.05123
1.04617
1.04049
1.03492
1.02922
1.02385
1.01857
1.00963
1.01491
1.02105
1.02742
1.03451
1.04109
1.04799
1.05386
1.0596
1.06391
1.06758
1.06993
1.07105
1.07112
1.07016
1.06808
1.0649
1.0611
1.05627
1.0515
1.04578
1.04058
1.03473
1.02951
1.02405
1.01915
1.00997
1.01555
1.02201
1.02837
1.0356
1.0423
1.04911
1.05513
1.06056
1.06504
1.06829
1.07062
1.07154
1.0714
1.07025
1.06791
1.0648
1.06043
1.05597
1.0508
1.04546
1.04004
1.03452
1.02945
1.02443
1.01982
1.01113
1.01685
1.02321
1.03014
1.03682
1.04388
1.05019
1.05632
1.06129
1.0656
1.06872
1.07063
1.07134
1.07108
1.06967
1.06723
1.06369
1.05956
1.05481
1.04979
1.04461
1.03922
1.03416
1.02928
1.02469
1.02068
1.01286
1.01864
1.02531
1.03177
1.03878
1.04525
1.05164
1.05705
1.06198
1.06584
1.06851
1.07023
1.07061
1.07009
1.06846
1.06577
1.06223
1.0578
1.05336
1.04824
1.04315
1.03827
1.03332
1.02902
1.0249
1.02148
1.01489
1.02102
1.02739
1.03416
1.04062
1.04702
1.05275
1.05803
1.06223
1.06575
1.06796
1.06929
1.06931
1.0686
1.06663
1.06383
1.05999
1.05582
1.05101
1.04635
1.04138
1.03663
1.03233
1.02852
1.02492
1.02211
1.01735
1.02345
1.03008
1.03647
1.04283
1.0487
1.05407
1.05871
1.06245
1.06541
1.06704
1.06811
1.06763
1.06653
1.06448
1.06099
1.0577
1.05289
1.04858
1.04358
1.03913
1.03466
1.03096
1.02747
1.02482
1.02277
1.01993
1.02636
1.03277
1.03907
1.04504
1.05046
1.0553
1.05925
1.06257
1.06486
1.06602
1.06649
1.06579
1.06424
1.06157
1.05831
1.05417
1.04995
1.04504
1.04067
1.03607
1.03225
1.02897
1.02619
1.02441
1.02314
1.02273
1.02926
1.03558
1.04171
1.04719
1.05231
1.05632
1.05992
1.06262
1.06411
1.06509
1.06466
1.06362
1.06157
1.05857
1.05459
1.05112
1.04537
1.04159
1.03667
1.03258
1.02912
1.0264
1.02449
1.02358
1.02338
1.02552
1.03204
1.03851
1.04408
1.04949
1.05385
1.05755
1.06048
1.06255
1.06346
1.06381
1.06303
1.06128
1.05866
1.05503
1.05112
1.04608
1.04174
1.03655
1.03205
1.02818
1.02533
1.02304
1.02225
1.0223
1.02321
1.02826
1.03492
1.04107
1.04664
1.05153
1.05536
1.05864
1.06109
1.06249
1.06285
1.06261
1.06127
1.05865
1.05566
1.05133
1.04652
1.04162
1.03603
1.031
1.02641
1.02311
1.02034
1.01919
1.01917
1.0204
1.02275
1.0308
1.03754
1.04358
1.04889
1.05347
1.05675
1.05975
1.06162
1.06236
1.06228
1.06139
1.05919
1.05614
1.05189
1.04695
1.04158
1.03575
1.02985
1.02427
1.01929
1.01657
1.01417
1.01393
1.01525
1.01818
1.02184
1.03314
1.03996
1.04574
1.051
1.05507
1.05808
1.06065
1.06219
1.06216
1.06168
1.05994
1.05696
1.05338
1.04769
1.04357
1.03751
1.03241
1.02703
1.0194
1.01268
1.00888
1.00695
1.00736
1.01017
1.01501
1.02072
1.03524
1.04205
1.04772
1.05267
1.05647
1.05928
1.06147
1.06241
1.06186
1.06076
1.05849
1.05498
1.05177
1.04571
1.0484
1.04522
1.05121
1.04764
1.03405
1.02111
1.00897
1.00206
1.00075
1.00459
1.01114
1.01883
1.03688
1.0438
1.0492
1.05421
1.05728
1.0603
1.06202
1.06229
1.06125
1.06004
1.05732
1.05932
1.05277
1.07193
1.10071
1.12873
1.17937
1.18073
1.1598
1.11325
1.05642
1.01868
1.00206
1.00095
1.00739
1.01645
1.03799
1.04486
1.05027
1.05505
1.05799
1.06099
1.06198
1.06158
1.06103
1.06198
1.06216
1.07957
1.10391
1.20429
1.37932
1.50422
1.603
1.60093
1.535
1.50813
1.3031
1.11982
1.03717
1.00828
1.00553
1.01389
1.03894
1.04548
1.05124
1.05504
1.05854
1.06081
1.06125
1.06167
1.0645
1.07756
1.10263
1.18339
1.40077
1.69597
1.85338
1.90144
1.90402
1.86261
1.79076
1.73487
1.59102
1.43449
1.15662
1.04335
1.01422
1.01476
1.03884
1.04548
1.05115
1.05481
1.05818
1.0597
1.06098
1.06718
1.09517
1.15997
1.30163
1.62336
1.92026
2.01559
2.02356
1.99825
1.9513
1.88653
1.80278
1.68312
1.64655
1.55614
1.36695
1.13421
1.0382
1.01826
1.03797
1.0445
1.05015
1.05353
1.05695
1.05842
1.06747
1.11282
1.26014
1.50405
1.82018
2.02783
2.07783
2.06757
2.04005
2.00086
1.94068
1.84918
1.69409
1.52363
1.45139
1.4524
1.35217
1.16396
1.06675
1.03301
1.03635
1.04282
1.04813
1.05232
1.05406
1.0633
1.12356
1.377
1.76901
1.9788
2.08142
2.09844
2.087
2.06629
2.03456
1.98526
1.90581
1.78508
1.60944
1.3657
1.17312
1.24035
1.24122
1.13156
1.05546
1.03031
1.03398
1.04015
1.04561
1.04859
1.05462
1.12147
1.47629
1.93085
2.07168
2.10359
2.10564
2.098
2.08349
2.06119
2.02641
1.97307
1.8881
1.75866
1.5591
1.30264
1.09336
1.0597
1.09958
1.06145
1.03279
1.02565
1.03051
1.0365
1.04203
1.04637
1.11263
1.53016
1.99718
2.09693
2.10639
2.10709
2.10318
2.09389
2.07933
2.05724
2.02168
1.96609
1.87587
1.73639
1.54201
1.29362
1.06917
1.00435
1.0071
1.01687
1.01001
1.01836
1.02622
1.03281
1.04529
1.13802
1.67207
2.04582
2.09192
2.1011
2.10306
2.10226
2.09841
2.09058
2.07676
2.0542
2.01906
1.96316
1.87144
1.73043
1.53741
1.30888
1.09398
1.00046
0.983835
0.995404
1.00353
1.01753
1.02629
1.0632
1.24967
1.76532
2.02183
2.08014
2.09178
2.09553
2.09688
2.09645
2.09312
2.08591
2.07322
2.05205
2.01773
1.96231
1.87151
1.72988
1.53759
1.31795
1.12201
0.996236
0.992851
0.991126
1.00713
1.01967
1.0929
1.34007
1.80366
2.00254
2.06571
2.07999
2.08584
2.08924
2.09037
2.08977
2.0871
2.08107
2.07029
2.05313
2.02656
1.98472
1.91516
1.79313
1.60819
1.3832
1.16407
0.999642
1.00573
0.993614
1.01285
1.02115
1.51138
1.8573
1.97381
2.0513
2.06424
2.07385
2.07866
2.08209
2.08318
2.08268
2.08042
2.07512
2.06615
2.05206
2.03166
2.00302
1.96352
1.89997
1.79497
1.6178
1.36547
1.13433
1.04876
1.01783
1.02944
1.03001
1.84727
1.99576
2.02137
2.04884
2.05911
2.06552
2.07059
2.0744
2.07516
2.0748
2.07277
2.06736
2.05935
2.04645
2.02825
2.00346
1.97514
1.93954
1.89228
1.82638
1.71958
1.54864
1.33768
1.18424
1.19176
1.19085
1.9585
2.01081
2.02685
2.04196
2.05002
2.05729
2.06245
2.06559
2.06674
2.0662
2.06381
2.05806
2.04976
2.03775
2.02262
2.00513
1.98056
1.96008
1.94163
1.92197
1.89768
1.86004
1.81818
1.7839
1.74579
1.78152
1.98253
2.007
2.0198
2.03195
2.04016
2.04805
2.0535
2.05663
2.05769
2.05695
2.05391
2.04749
2.03831
2.02558
2.01008
1.99203
1.97623
1.95957
1.952
1.94854
1.9532
1.95709
1.96973
1.98661
2.00892
2.03231
1.98004
1.99743
2.0092
2.02131
2.02975
2.03828
2.04411
2.0469
2.04795
2.04686
2.04306
2.03606
2.02627
2.01301
1.99739
1.98027
1.96518
1.95392
1.95059
1.95039
1.9594