/*--------------------------------*- C++ -*----------------------------------*\
  =========                 |
  \\      /  F ield         | OpenFOAM: The Open Source CFD Toolbox
   \\    /   O peration     | Website:  https://openfoam.org
    \\  /    A nd           | Version:  10
     \\/     M anipulation  |
\*---------------------------------------------------------------------------*/
FoamFile
{
    format      ascii;
    class       volScalarField;
    location    "0.19995";
    object      T;
}
// * * * * * * * * * * * * * * * * * * * * * * * * * * * * * * * * * * * * * //

dimensions      [0 0 0 1 0 0 0];

internalField   nonuniform List<scalar> 
15708
(
0.008596
0.00860334
0.00861136
0.00862013
0.00863007
0.00864115
0.00865366
0.00866721
0.00868171
0.00869661
0.00871133
0.00872508
0.00873737
0.00874765
0.00875554
0.00876088
0.00876383
0.00876425
0.00876324
0.00876043
0.00875699
0.00875178
0.00874703
0.00874207
0.00873729
0.00873308
0.00872951
0.00872692
0.00872488
0.00872428
0.00872402
0.00872459
0.0087258
0.00872717
0.00872928
0.00873179
0.00873435
0.00873752
0.00874084
0.00874529
0.00875017
0.00875646
0.00876366
0.00877219
0.00878159
0.00879228
0.00880305
0.00881378
0.00882471
0.00883408
0.00884174
0.00859977
0.00860671
0.0086136
0.00862071
0.00862863
0.0086373
0.00864726
0.00865805
0.00867006
0.00868266
0.00869581
0.00870855
0.00872081
0.00873153
0.00874064
0.00874778
0.00875282
0.00875597
0.00875725
0.00875713
0.00875614
0.00875399
0.00875186
0.00874903
0.00874668
0.00874461
0.00874289
0.00874192
0.00874127
0.00874127
0.00874155
0.00874235
0.00874302
0.00874393
0.0087447
0.00874529
0.00874578
0.00874639
0.00874733
0.00874833
0.00875043
0.00875289
0.00875717
0.00876239
0.00876884
0.00877719
0.00878543
0.00879652
0.00880497
0.00881611
0.00882462
0.00860408
0.0086104
0.00861611
0.00862164
0.00862771
0.00863393
0.00864168
0.00864973
0.00865952
0.00866991
0.00868133
0.00869304
0.00870476
0.0087158
0.00872592
0.00873462
0.00874172
0.00874725
0.00875135
0.00875393
0.00875561
0.00875637
0.00875676
0.0087568
0.00875681
0.00875694
0.00875715
0.00875769
0.00875842
0.00875918
0.00875996
0.00876043
0.00876087
0.00876065
0.00876015
0.00875921
0.00875748
0.00875583
0.00875372
0.00875206
0.00875104
0.00875071
0.0087514
0.00875385
0.0087575
0.00876308
0.00877014
0.00877829
0.00878823
0.00879661
0.00880801
0.00860857
0.00861452
0.00861913
0.00862319
0.00862719
0.00863155
0.00863689
0.00864285
0.00865016
0.00865866
0.00866826
0.00867877
0.00868986
0.00870091
0.00871173
0.00872181
0.00873081
0.00873862
0.0087453
0.00875079
0.00875524
0.00875892
0.00876212
0.00876488
0.00876738
0.00876973
0.00877203
0.008774
0.00877598
0.00877743
0.00877847
0.00877877
0.00877851
0.00877741
0.0087758
0.00877262
0.00876929
0.00876511
0.00876048
0.00875635
0.00875209
0.0087491
0.00874705
0.00874656
0.00874746
0.00875068
0.00875589
0.00876242
0.00877122
0.00877981
0.00879167
0.00861384
0.00861841
0.00862155
0.00862468
0.00862697
0.00862993
0.00863292
0.00863712
0.00864218
0.00864878
0.00865666
0.00866585
0.00867615
0.00868714
0.00869838
0.00870956
0.00872026
0.00873026
0.00873946
0.0087477
0.00875515
0.00876165
0.00876767
0.00877312
0.00877814
0.0087828
0.00878679
0.00879048
0.00879331
0.00879538
0.0087966
0.00879654
0.00879566
0.00879356
0.00879028
0.00878571
0.00878016
0.00877363
0.00876755
0.00876018
0.00875408
0.00874814
0.00874334
0.0087406
0.0087391
0.00874057
0.00874302
0.00874787
0.00875552
0.00876492
0.00877496
0.00861848
0.00862218
0.00862484
0.00862644
0.00862731
0.00862866
0.00863
0.00863194
0.00863525
0.00864021
0.00864649
0.00865453
0.00866376
0.00867458
0.00868622
0.0086982
0.00871036
0.00872234
0.00873383
0.00874477
0.00875482
0.00876468
0.00877305
0.00878129
0.00878891
0.00879536
0.00880155
0.00880619
0.00881009
0.00881279
0.00881368
0.00881328
0.0088116
0.00880846
0.00880374
0.00879761
0.0087899
0.00878204
0.00877319
0.00876397
0.00875573
0.0087474
0.00874087
0.00873527
0.00873207
0.00873129
0.008732
0.00873687
0.00874192
0.00875108
0.00876233
0.00862332
0.00862584
0.00862794
0.00862765
0.00862796
0.00862732
0.00862743
0.00862817
0.00862979
0.0086328
0.00863793
0.00864447
0.00865319
0.00866349
0.00867525
0.00868789
0.00870133
0.00871501
0.00872867
0.00874202
0.00875494
0.0087669
0.00877861
0.00878929
0.00879851
0.00880777
0.00881521
0.00882084
0.00882569
0.00882849
0.00882912
0.00882854
0.00882605
0.00882177
0.00881539
0.00880811
0.00879822
0.00878936
0.00877841
0.00876701
0.00875734
0.00874708
0.00873831
0.00873121
0.0087264
0.00872316
0.0087241
0.00872565
0.00873128
0.00873985
0.00874954
0.00862767
0.00863018
0.00862994
0.00862988
0.00862809
0.00862678
0.00862499
0.00862485
0.00862524
0.00862716
0.00863038
0.00863672
0.00864409
0.0086543
0.00866597
0.00867903
0.00869291
0.00870849
0.00872384
0.00873956
0.00875471
0.00876915
0.00878328
0.00879663
0.00880767
0.00881877
0.0088274
0.00883422
0.00883942
0.00884239
0.00884268
0.00884146
0.00883833
0.0088329
0.0088255
0.00881616
0.00880589
0.00879432
0.00878256
0.00876982
0.00875815
0.00874667
0.00873625
0.00872776
0.00872145
0.00871676
0.008717
0.00871791
0.00872324
0.00872988
0.00874186
0.00863235
0.00863324
0.00863319
0.00863093
0.00862884
0.00862589
0.00862382
0.00862163
0.00862159
0.00862234
0.00862513
0.00863021
0.00863645
0.00864679
0.00865778
0.00867143
0.00868673
0.00870286
0.00871944
0.00873755
0.00875457
0.00877096
0.00878751
0.0088023
0.00881598
0.00882816
0.00883744
0.00884557
0.0088506
0.00885385
0.00885356
0.00885248
0.00884755
0.00884203
0.00883288
0.00882255
0.00881169
0.00879731
0.00878602
0.00877069
0.00875847
0.0087456
0.00873414
0.00872421
0.00871785
0.00871245
0.00871118
0.00871229
0.00871616
0.00872423
0.00873532
0.00863783
0.00863645
0.00863565
0.0086329
0.00862922
0.00862601
0.00862203
0.00862001
0.00861816
0.00861918
0.00862072
0.00862469
0.0086314
0.00864009
0.00865254
0.00866449
0.0086817
0.00869803
0.00871632
0.00873579
0.00875355
0.00877321
0.00879085
0.0088064
0.00882282
0.00883465
0.00884613
0.00885399
0.00885952
0.00886236
0.00886221
0.00885956
0.00885502
0.0088477
0.00883769
0.00882785
0.00881274
0.00880128
0.00878508
0.00877152
0.00875692
0.00874399
0.00873238
0.00872185
0.00871408
0.00870902
0.00870707
0.00870819
0.00871189
0.00872016
0.00873052
0.00864151
0.00864039
0.0086379
0.0086342
0.00863005
0.0086255
0.00862181
0.00861759
0.00861689
0.00861599
0.00861753
0.00862122
0.00862744
0.00863586
0.00864714
0.0086612
0.00867707
0.00869447
0.00871493
0.00873297
0.00875406
0.00877335
0.00879293
0.00880985
0.00882721
0.00883918
0.00885211
0.00885945
0.00886515
0.00886757
0.00886734
0.0088638
0.00885976
0.00884963
0.00884142
0.00882705
0.00881518
0.00879946
0.00878446
0.00877076
0.00875437
0.00874265
0.0087291
0.00871961
0.00871115
0.00870559
0.00870451
0.00870522
0.00871001
0.00871682
0.00873036
0.00864663
0.00864323
0.00864032
0.00863616
0.0086305
0.00862535
0.00862114
0.00861674
0.0086153
0.00861434
0.00861555
0.00861891
0.00862465
0.00863322
0.0086445
0.00865864
0.0086735
0.0086938
0.00871135
0.0087328
0.00875315
0.00877386
0.0087937
0.00881162
0.00882839
0.00884269
0.00885406
0.00886197
0.00886793
0.0088697
0.00886894
0.00886561
0.00885862
0.00885165
0.00883888
0.0088278
0.00881179
0.00879863
0.00878166
0.00876725
0.00875224
0.00873851
0.00872608
0.0087156
0.00870898
0.00870281
0.00870274
0.00870418
0.00870918
0.00871843
0.00872978
0.00864988
0.00864704
0.00864231
0.00863682
0.00863185
0.00862528
0.00862041
0.00861641
0.00861427
0.00861301
0.00861451
0.00861771
0.00862344
0.00863193
0.00864336
0.00865686
0.00867353
0.00869086
0.00871122
0.00873244
0.00875173
0.00877351
0.00879357
0.00881113
0.00882878
0.00884189
0.00885413
0.0088617
0.00886714
0.00886826
0.00886758
0.00886282
0.00885734
0.00884716
0.00883646
0.00882269
0.0088084
0.00879247
0.00877709
0.00876253
0.00874615
0.00873414
0.00872231
0.00871192
0.00870557
0.00870118
0.00870159
0.0087042
0.00871004
0.00871965
0.00873367
0.00865524
0.00864938
0.00864374
0.00863869
0.00863197
0.0086249
0.00862074
0.0086157
0.0086135
0.00861296
0.00861415
0.00861734
0.00862337
0.00863165
0.00864368
0.00865625
0.00867419
0.00869037
0.00871153
0.00873106
0.00875221
0.00877187
0.00879196
0.00880971
0.0088264
0.00883941
0.00885046
0.00885876
0.0088623
0.00886416
0.00886203
0.00885838
0.00885048
0.00884159
0.00882877
0.00881589
0.00879985
0.00878613
0.00876971
0.00875405
0.00874074
0.00872733
0.00871592
0.00870873
0.00870163
0.00869983
0.00870174
0.00870418
0.0087127
0.00872334
0.00873912
0.0086582
0.00865203
0.00864568
0.00863879
0.00863208
0.00862593
0.00862056
0.00861469
0.00861379
0.0086129
0.00861395
0.00861842
0.00862351
0.008633
0.0086441
0.00865897
0.00867355
0.00869316
0.00871097
0.00873141
0.0087507
0.00877061
0.00878926
0.00880705
0.00882109
0.00883546
0.00884457
0.0088515
0.00885608
0.0088556
0.00885473
0.00884904
0.00884237
0.00883062
0.00882009
0.00880442
0.00879124
0.00877489
0.00875917
0.00874643
0.00873105
0.00871899
0.0087105
0.00870298
0.0086978
0.00869879
0.00870018
0.0087065
0.00871621
0.00872856
0.0087455
0.00866235
0.00865387
0.00864679
0.00863954
0.00863279
0.0086254
0.00861938
0.00861602
0.00861244
0.00861315
0.00861509
0.00861876
0.00862546
0.00863494
0.00864669
0.00866058
0.00867681
0.00869373
0.00871262
0.0087313
0.0087502
0.00876831
0.00878633
0.00880127
0.00881655
0.00882781
0.00883608
0.00884247
0.00884543
0.00884588
0.00884251
0.00883808
0.00882874
0.0088188
0.00880691
0.00879198
0.00877826
0.00876178
0.00874891
0.00873165
0.00872169
0.00871005
0.00870291
0.00869499
0.00869537
0.00869584
0.00869993
0.00870857
0.00872055
0.00873522
0.00875306
0.00866448
0.00865647
0.00864753
0.00863981
0.00863157
0.00862542
0.00861881
0.00861484
0.00861237
0.00861339
0.00861544
0.00861991
0.00862744
0.00863791
0.00864927
0.00866402
0.00867937
0.00869655
0.00871437
0.00873116
0.00875009
0.00876539
0.00878164
0.00879619
0.00880935
0.00881814
0.00882688
0.00883054
0.00883378
0.0088316
0.00882915
0.0088229
0.00881427
0.00880353
0.00879077
0.00877628
0.00876159
0.00874783
0.00873123
0.00872081
0.00870724
0.00869951
0.00869132
0.00869008
0.00868984
0.00869355
0.00869993
0.00871192
0.00872505
0.00874264
0.00876125
0.00866691
0.00865748
0.00864738
0.00863886
0.00863229
0.00862294
0.00861857
0.00861265
0.00861249
0.00861323
0.00861654
0.00862191
0.00863009
0.0086398
0.00865393
0.00866762
0.00868256
0.0086999
0.00871527
0.0087324
0.00874843
0.00876318
0.00877696
0.00879021
0.00880015
0.00880903
0.00881505
0.00881702
0.00881945
0.00881639
0.00881253
0.00880635
0.00879589
0.00878595
0.00877204
0.00875771
0.00874503
0.00872693
0.00871808
0.00870188
0.00869244
0.00868645
0.00868086
0.00868128
0.00868414
0.00868891
0.00870189
0.00871336
0.00873129
0.00874946
0.00877084
0.0086687
0.00865724
0.00864744
0.00863841
0.00862876
0.00862287
0.00861613
0.00861143
0.00861218
0.00861323
0.00861669
0.0086243
0.00863185
0.00864416
0.00865716
0.00867081
0.00868706
0.00870179
0.00871817
0.00873309
0.00874652
0.00876051
0.00877128
0.00878408
0.0087914
0.00879702
0.00880261
0.00880267
0.00880336
0.0088002
0.00879452
0.00878779
0.00877494
0.00876666
0.00875041
0.00873921
0.00871937
0.00871501
0.00868997
0.00868588
0.00867712
0.0086686
0.00866972
0.00867148
0.00867656
0.00868806
0.00869996
0.00871782
0.00873609
0.00875818
0.00877868
0.00866939
0.00865789
0.00864709
0.00863465
0.00862752
0.00861961
0.00861241
0.00860836
0.00860877
0.00861257
0.00861719
0.00862513
0.00863489
0.00864785
0.00866009
0.00867527
0.00869006
0.00870524
0.00872009
0.00873314
0.00874552
0.00875633
0.00876732
0.00877644
0.00878096
0.00878684
0.00878875
0.0087879
0.00878689
0.00878257
0.00877477
0.00876888
0.0087536
0.00874607
0.00872668
0.00871629
0.00870065
0.00868497
0.00867215
0.00866442
0.00865565
0.00865285
0.0086557
0.00866061
0.00866877
0.0086838
0.00870015
0.00872037
0.00874213
0.00876393
0.00878813
0.00866903
0.00865706
0.00864268
0.00863245
0.00862205
0.00861602
0.00860866
0.0086073
0.00860799
0.00861102
0.00861675
0.00862508
0.00863805
0.00864928
0.00866453
0.00867911
0.00869334
0.00870866
0.00872098
0.00873306
0.00874399
0.00875332
0.00876237
0.00876823
0.00877211
0.00877483
0.00877496
0.00877372
0.00877049
0.00876436
0.00875609
0.00874706
0.00873527
0.00871976
0.00870704
0.00869062
0.00867463
0.00866229
0.00864902
0.00863968
0.00863074
0.00863391
0.00863998
0.00864788
0.00866307
0.0086805
0.00869957
0.00872215
0.00874754
0.00877178
0.0087951
0.00866951
0.00865502
0.00864071
0.00862686
0.00861699
0.00861075
0.00860058
0.00860157
0.00860308
0.00860861
0.00861465
0.00862556
0.00863891
0.00865275
0.00866689
0.00868182
0.00869593
0.00871044
0.00872246
0.00873372
0.00874133
0.00875007
0.00875654
0.0087608
0.0087628
0.00876338
0.00876286
0.00875971
0.00875315
0.00874811
0.00873664
0.00872965
0.00871469
0.00869813
0.00868211
0.00866467
0.00864756
0.00863359
0.00862166
0.00861607
0.00860858
0.00861115
0.0086228
0.00863434
0.00865307
0.00867584
0.00869964
0.00872561
0.00875088
0.00877794
0.00880276
0.00866985
0.00865308
0.00863461
0.00862112
0.00860851
0.00860259
0.00859125
0.0085933
0.00859723
0.00860358
0.00861361
0.00862542
0.00863961
0.0086541
0.00866972
0.0086849
0.00869878
0.0087122
0.00872252
0.00873301
0.00873919
0.00874644
0.00875116
0.00875368
0.00875361
0.00875354
0.0087512
0.0087453
0.00873895
0.00873584
0.00871684
0.00871726
0.00868966
0.00866809
0.00864118
0.00862798
0.00858451
0.00856532
0.00856991
0.00856889
0.008578
0.00859266
0.00860501
0.00862158
0.00864169
0.00866857
0.00869624
0.00872608
0.00875392
0.00878212
0.00880779
0.00866552
0.00864759
0.00863132
0.00860867
0.00859736
0.0085874
0.00858102
0.00858465
0.00858945
0.00859571
0.00860763
0.00862249
0.00863859
0.00865478
0.00867044
0.00868553
0.0087002
0.00871279
0.0087223
0.00873188
0.00873665
0.00874329
0.0087456
0.00874678
0.00874551
0.00874409
0.00874004
0.00873619
0.00872809
0.0087261
0.00870154
0.00869854
0.00863112
0.00862984
0.00854433
0.00848391
0.00833033
0.00833429
0.00831978
0.00843508
0.00848793
0.00854209
0.00859158
0.00861676
0.00864199
0.00866783
0.00869797
0.00872867
0.00875882
0.00878785
0.00881393
0.00864249
0.00863881
0.00858039
0.00852982
0.00853159
0.00854059
0.00854792
0.00856793
0.0085793
0.00859067
0.00860093
0.00861819
0.0086364
0.00865403
0.00867064
0.00868606
0.00870055
0.00871316
0.00872112
0.00873052
0.00873363
0.00873988
0.0087401
0.00874024
0.00873882
0.0087369
0.00873358
0.00872996
0.00871837
0.008715
0.0086706
0.00865933
0.00846954
0.00844521
0.00808508
0.00772056
0.00716572
0.00714019
0.00732994
0.00767579
0.00804339
0.00831942
0.00847835
0.00856663
0.00861715
0.00865749
0.00869261
0.00872603
0.00875856
0.00878934
0.00881659
0.00860499
0.00844938
0.00828748
0.00815541
0.00819382
0.00826367
0.00839065
0.00847948
0.00854156
0.00857739
0.00859765
0.00861433
0.00863151
0.00865166
0.00866946
0.0086856
0.00869939
0.00871145
0.00871931
0.00872716
0.00873019
0.00873579
0.00873578
0.00873511
0.00873317
0.00873187
0.00872964
0.00872494
0.00869987
0.0086834
0.00857147
0.00844975
0.00800326
0.00724396
0.00635756
0.00546639
0.00504733
0.00501892
0.00524893
0.00526862
0.00673869
0.00773739
0.00829685
0.00853304
0.00861698
0.00865954
0.00869486
0.00872719
0.00875899
0.00878942
0.00881778
0.00816195
0.00760632
0.00687356
0.00659183
0.0066379
0.0069611
0.00757955
0.00811198
0.0083902
0.00850953
0.00857144
0.00860391
0.00862594
0.00864597
0.0086658
0.00868297
0.0086982
0.00870955
0.00871831
0.00872304
0.00872846
0.00872949
0.00873229
0.00873074
0.00872949
0.00872947
0.00872459
0.00870454
0.00863308
0.00853614
0.00814069
0.00737049
0.00622051
0.0050969
0.00461205
0.00442204
0.0043915
0.00443075
0.00445681
0.00469164
0.00493763
0.00622827
0.00755795
0.00828061
0.00854141
0.00864347
0.00869192
0.00872703
0.00876064
0.00879036
0.0088182
0.00621735
0.00539147
0.00493044
0.00485317
0.00488449
0.00515693
0.00553981
0.00692276
0.00793042
0.00838834
0.00853964
0.00859518
0.008624
0.00864428
0.00866346
0.00868067
0.00869518
0.00870675
0.00871532
0.00872051
0.00872529
0.00872714
0.00872861
0.00872796
0.00872915
0.00872515
0.00869898
0.00859752
0.00835051
0.00786038
0.0067321
0.00518477
0.00458982
0.0043662
0.00430036
0.00430504
0.00433174
0.00440441
0.00456682
0.00467506
0.00491013
0.00565163
0.00687509
0.00785821
0.00841325
0.00861495
0.00868808
0.00872446
0.00875835
0.00878866
0.00881747
0.0046502
0.00447048
0.00444159
0.00447118
0.00458041
0.00463128
0.00495457
0.00553122
0.00683542
0.00786768
0.0083795
0.00855763
0.00861344
0.0086401
0.00866017
0.00867763
0.00869191
0.00870315
0.00871114
0.00871585
0.00872014
0.00872461
0.00872448
0.00872688
0.00872424
0.00869758
0.00856912
0.0080643
0.00734317
0.00590361
0.00476865
0.00438531
0.0043004
0.00428516
0.00429023
0.00431235
0.00437741
0.00454132
0.0049134
0.00517025
0.00524908
0.00576563
0.0069176
0.00783426
0.00833704
0.00856439
0.00866036
0.0087133
0.00875198
0.00878403
0.00881437
0.00438034
0.00438171
0.00440753
0.00447613
0.00462438
0.00482547
0.00504336
0.00563494
0.00669732
0.0076308
0.00820143
0.00848352
0.00858693
0.00862788
0.00865297
0.00867307
0.00868735
0.00869764
0.00870721
0.00871095
0.00871914
0.00871999
0.00872372
0.00872281
0.00869847
0.00854381
0.00794429
0.00635894
0.00522386
0.00447388
0.00431021
0.00429531
0.00428587
0.00428512
0.00429609
0.00433208
0.00443636
0.00465983
0.00520724
0.0060778
0.00602041
0.00630039
0.00714796
0.00791827
0.00835199
0.00855985
0.008647
0.00870168
0.0087425
0.00877646
0.00880871
0.0043757
0.00439371
0.00444147
0.00455646
0.00482002
0.00520363
0.00560491
0.00603752
0.00689089
0.00770108
0.00821483
0.00846487
0.00857039
0.00861655
0.00864555
0.00866636
0.00868192
0.00869326
0.00870385
0.00870835
0.008713
0.00871807
0.00872095
0.00869869
0.00854942
0.00773225
0.00570549
0.00459198
0.00435415
0.00431371
0.00430394
0.0042908
0.00428162
0.00428275
0.004301
0.00435322
0.00449877
0.00481762
0.00539089
0.00641766
0.00700101
0.00709198
0.00762926
0.00810759
0.00841155
0.00856381
0.00864181
0.0086932
0.00873477
0.00877142
0.00880528
0.00438605
0.00441541
0.00448691
0.00465176
0.00496592
0.00553832
0.00617719
0.00687919
0.00733469
0.00789902
0.00827313
0.00847501
0.00857079
0.008611
0.00863882
0.00865959
0.00867596
0.00868773
0.0086991
0.00870342
0.00870825
0.00871434
0.00869718
0.00855537
0.00774654
0.00489061
0.00439972
0.00435017
0.00432115
0.00430683
0.00429973
0.00428457
0.00428001
0.00428592
0.00431636
0.00439819
0.00459368
0.0049789
0.00568471
0.00676703
0.00751817
0.00772103
0.00800251
0.00829365
0.0084703
0.00857798
0.00863987
0.00868879
0.00872916
0.00876556
0.00879889
0.0043937
0.004434
0.00453026
0.00474282
0.00513331
0.00576023
0.00661425
0.00740854
0.00780626
0.00809993
0.00836526
0.00850345
0.00857229
0.00860931
0.0086351
0.0086559
0.00867205
0.00868472
0.00869442
0.00869576
0.00870339
0.0086882
0.00850001
0.0063058
0.0046602
0.00440418
0.00434021
0.00432197
0.00430915
0.00430098
0.00428576
0.00427774
0.004275
0.00428666
0.00433002
0.00444204
0.00469697
0.00516213
0.00592763
0.0070258
0.00780085
0.00810103
0.00819453
0.00840883
0.00849936
0.00858255
0.00863625
0.00868066
0.00872071
0.00875952
0.00878626
0.00439727
0.00444257
0.00455221
0.00479119
0.00523773
0.00596004
0.00688006
0.00770898
0.00808993
0.00826973
0.00843298
0.00852508
0.00857884
0.00861145
0.00863381
0.0086522
0.00866754
0.00867857
0.00868327
0.00868568
0.00862382
0.00770284
0.00548675
0.0046414
0.004392
0.00433928
0.00432235
0.00431271
0.00429951
0.00429298
0.00427822
0.00427212
0.00427164
0.00428712
0.00433844
0.00446773
0.00475916
0.00528594
0.0061021
0.00717064
0.00803698
0.00816426
0.00835958
0.00840746
0.00852646
0.00857437
0.00863083
0.00867135
0.00870644
0.00871806
0.0086454
0.00439074
0.00443394
0.0045444
0.00479596
0.00526931
0.00604964
0.00711156
0.00791136
0.00827161
0.00836795
0.00848272
0.00853655
0.00858207
0.00861106
0.00863068
0.00864679
0.00865641
0.0086519
0.00852283
0.00789224
0.00626299
0.00515795
0.00456944
0.0043876
0.00433431
0.00431991
0.00431221
0.00430254
0.00429093
0.00428312
0.0042711
0.00426457
0.00426382
0.00427936
0.00433212
0.00446608
0.00477004
0.00532606
0.0061844
0.007286
0.00810145
0.00825731
0.00828745
0.00846292
0.00848996
0.00858491
0.00859985
0.00861684
0.00857588
0.00835226
0.00766713
0.00437219
0.00439728
0.00446749
0.00465018
0.00505176
0.00578045
0.00697846
0.0079496
0.00838912
0.0083665
0.00846561
0.00854428
0.00857611
0.00860653
0.00861592
0.00862042
0.00858108
0.00828999
0.00714664
0.00543777
0.00479814
0.00449224
0.0043773
0.00432887
0.00431684
0.00431008
0.00430096
0.00429096
0.00428428
0.00427351
0.00426396
0.00425585
0.00425387
0.00426374
0.00430423
0.00441394
0.00467831
0.00520108
0.00603964
0.00709357
0.00816421
0.0081574
0.00834645
0.00837995
0.00847915
0.00845799
0.0083925
0.00815839
0.00762416
0.00645234
0.00531683
0.00435994
0.00436722
0.00439753
0.0044804
0.00470185
0.00515873
0.00600155
0.00731967
0.00801953
0.00845616
0.00838687
0.00850036
0.0085482
0.00856013
0.00855026
0.00844784
0.00799051
0.00645548
0.00510872
0.00458247
0.0044405
0.00435244
0.00432708
0.00431085
0.00430625
0.00429927
0.00429106
0.00428156
0.00427695
0.00426628
0.00425849
0.00424722
0.00424267
0.00424282
0.00425967
0.00431197
0.0044487
0.0047608
0.0053427
0.00629006
0.00718157
0.00805524
0.0079983
0.00801397
0.00798174
0.00775668
0.00703765
0.00622684
0.00545758
0.00493605
0.00453282
0.00434968
0.00434636
0.00435695
0.00438968
0.00448787
0.00472355
0.00517249
0.00598712
0.00715227
0.00778632
0.00830787
0.00828994
0.00831551
0.00830549
0.00808385
0.00740415
0.00578897
0.00491909
0.00447153
0.00439165
0.00433539
0.00431872
0.0043064
0.00430139
0.00429521
0.00428742
0.00428236
0.00427342
0.00426941
0.00425885
0.00425177
0.00424191
0.00423358
0.00422997
0.00423343
0.00425332
0.00430679
0.00444007
0.00469316
0.00511342
0.0057119
0.00609432
0.00635407
0.00633585
0.00623566
0.00564703
0.00517492
0.00485467
0.00461825
0.00447734
0.00438248
0.00434253
0.00433075
0.00432488
0.00433269
0.00435404
0.0044323
0.0046021
0.00492496
0.00547316
0.00616226
0.00686242
0.00695827
0.00705679
0.006864
0.00616901
0.00518976
0.00459969
0.00445842
0.00434267
0.00432896
0.00430622
0.00430151
0.00429511
0.00429072
0.0042844
0.00427912
0.0042726
0.00426751
0.00426094
0.00425286
0.00424469
0.00423633
0.00422664
0.00421955
0.00421616
0.00422031
0.00423554
0.0042818
0.00437603
0.00452584
0.00472835
0.00485712
0.00494407
0.00494505
0.00487309
0.00465689
0.00449261
0.00445212
0.00435947
0.00435488
0.00434193
0.00433998
0.00432487
0.00431184
0.00430362
0.00430421
0.00431487
0.00435894
0.00444371
0.00460682
0.00484556
0.0050387
0.00516896
0.00516472
0.00506772
0.00472751
0.00449726
0.00434818
0.00434043
0.00430499
0.0043017
0.00429204
0.00428911
0.00428465
0.00428045
0.00427501
0.00427171
0.00426452
0.00426092
0.00425387
0.00424634
0.00423818
0.00423009
0.00422019
0.00421136
0.0042049
0.00420244
0.00420436
0.00421713
0.00424976
0.00429833
0.00436301
0.00440266
0.00442629
0.00442331
0.00439993
0.00435839
0.00431578
0.00431563
0.00430581
0.00431335
0.00431904
0.00433529
0.00431815
0.00430582
0.00429099
0.00428401
0.00428125
0.00428479
0.00430263
0.00433781
0.00439707
0.00445601
0.00447559
0.00448513
0.00445443
0.00435592
0.00432337
0.00429762
0.00429782
0.00428775
0.00428605
0.00428084
0.00427864
0.0042751
0.00427222
0.00426695
0.00426433
0.00425823
0.00425381
0.00424757
0.00423959
0.00423188
0.0042231
0.0042135
0.00420447
0.00419615
0.00419032
0.00418929
0.00419104
0.0042022
0.00421829
0.00423865
0.00425522
0.00426735
0.00426618
0.00426718
0.00426595
0.00426512
0.00427412
0.004282
0.00429246
0.00430507
0.00432967
0.00431272
0.00429991
0.00428742
0.00427467
0.00427134
0.00426837
0.00426838
0.00427696
0.00429075
0.00430363
0.00431107
0.00431172
0.0043014
0.00428801
0.00428028
0.00427986
0.00427922
0.00427698
0.00427489
0.00427174
0.00427012
0.00426732
0.00426466
0.00426016
0.00425781
0.00425223
0.00424752
0.00424119
0.00423383
0.00422535
0.00421648
0.00420687
0.00419753
0.00418932
0.00418281
0.00418058
0.00418008
0.00418456
0.00419177
0.00420049
0.00421001
0.00421847
0.00422532
0.00422853
0.00423603
0.0042468
0.00425364
0.00426766
0.00427635
0.00429094
0.00432325
0.00430792
0.00429399
0.00428328
0.00427374
0.00426611
0.00426427
0.00426286
0.00426649
0.00426833
0.0042731
0.00427429
0.00427474
0.0042735
0.00427218
0.00427172
0.00427184
0.00427089
0.00426881
0.00426649
0.00426449
0.00426307
0.00426068
0.00425793
0.0042546
0.00425228
0.00424655
0.00424146
0.00423587
0.00422811
0.00421941
0.00421025
0.00420058
0.00419218
0.00418339
0.00417819
0.00417551
0.0041751
0.00417778
0.0041834
0.00418905
0.00419693
0.00420425
0.00421161
0.00421761
0.0042225
0.00423283
0.00424385
0.00425071
0.00426428
0.00427478
0.00431696
0.00430173
0.00429088
0.00427985
0.00427069
0.00426674
0.00426329
0.00426283
0.00426316
0.00426488
0.00426698
0.00426728
0.00426712
0.0042671
0.00426599
0.00426554
0.00426519
0.00426376
0.00426204
0.00426055
0.00425861
0.00425691
0.00425518
0.0042522
0.00424989
0.004247
0.00424135
0.00423708
0.00423026
0.00422336
0.00421432
0.0042054
0.00419571
0.00418802
0.00417977
0.00417555
0.00417366
0.0041737
0.00417656
0.00418142
0.00418687
0.00419296
0.00419914
0.00420553
0.00421143
0.00421699
0.00422078
0.00423144
0.00423879
0.00424987
0.00425937
0.00431108
0.00429834
0.00428636
0.00427861
0.00427067
0.00426677
0.00426431
0.00426372
0.00426349
0.00426476
0.00426559
0.0042654
0.00426454
0.00426432
0.00426251
0.00426166
0.00425991
0.00425844
0.00425679
0.00425541
0.00425351
0.00425183
0.00424942
0.00424729
0.00424619
0.0042427
0.00423672
0.00423342
0.00422623
0.00421946
0.00421063
0.00420215
0.00419332
0.0041857
0.00417938
0.00417563
0.00417422
0.00417499
0.00417776
0.00418255
0.00418781
0.00419333
0.00419885
0.00420397
0.00420713
0.00421077
0.00421497
0.00421752
0.00422812
0.00423318
0.00424624
0.0043068
0.00429457
0.00428513
0.00427775
0.00427201
0.00426835
0.0042662
0.00426528
0.00426504
0.00426567
0.00426572
0.00426479
0.00426314
0.00426233
0.00425989
0.00425798
0.00425585
0.00425382
0.0042522
0.00425043
0.00424873
0.00424757
0.00424553
0.00424365
0.00424252
0.00423867
0.00423444
0.00423004
0.0042239
0.00421726
0.00420912
0.00420153
0.00419389
0.00418627
0.0041812
0.00417836
0.00417754
0.00417948
0.00418236
0.00418695
0.00419148
0.00419592
0.00419967
0.00420253
0.00420572
0.00420639
0.00420839
0.00420814
0.00421225
0.00422193
0.00422866
0.00430424
0.00429252
0.00428515
0.00427914
0.00427363
0.0042714
0.00426904
0.00426767
0.00426722
0.00426723
0.00426603
0.00426469
0.00426198
0.00426023
0.00425699
0.00425476
0.00425205
0.00424975
0.00424772
0.00424591
0.00424479
0.00424376
0.00424218
0.00424082
0.00423944
0.00423619
0.00423289
0.00422861
0.00422355
0.00421771
0.00421024
0.00420378
0.00419664
0.00419073
0.00418686
0.00418525
0.00418481
0.00418666
0.00418884
0.00419308
0.00419698
0.00420067
0.00420384
0.00420664
0.00420686
0.00420425
0.00419992
0.00420008
0.00420072
0.00420889
0.00421308
0.00430244
0.00429247
0.00428652
0.00428133
0.00427765
0.00427497
0.00427254
0.00427098
0.00426987
0.00426853
0.00426714
0.00426404
0.00426086
0.00425803
0.00425418
0.00425115
0.0042479
0.00424545
0.00424337
0.00424181
0.00424101
0.00424012
0.0042389
0.00423836
0.00423747
0.00423552
0.00423305
0.00422945
0.00422553
0.00422064
0.00421467
0.00420913
0.00420388
0.00419955
0.00419705
0.00419636
0.00419664
0.00419893
0.00420121
0.00420507
0.00420838
0.00421069
0.004211
0.00420871
0.00420524
0.00420037
0.00419527
0.00418916
0.00418654
0.00419233
0.00419743
0.00430193
0.00429429
0.00428969
0.00428526
0.00428167
0.00427931
0.00427679
0.00427428
0.00427288
0.00426992
0.00426772
0.00426317
0.00425971
0.00425514
0.00425113
0.00424708
0.00424363
0.00424085
0.00423893
0.00423785
0.00423728
0.00423667
0.00423647
0.00423676
0.00423653
0.00423595
0.00423473
0.0042323
0.00423005
0.00422672
0.00422284
0.00421881
0.00421611
0.00421325
0.00421201
0.00421201
0.00421231
0.00421446
0.00421648
0.00421901
0.00422074
0.00422086
0.00421894
0.00421585
0.00421085
0.00420289
0.00419301
0.0041826
0.00417552
0.00418215
0.00418481
0.00430403
0.0042974
0.00429297
0.00429028
0.00428678
0.00428375
0.00428123
0.0042779
0.00427533
0.0042716
0.00426775
0.00426214
0.00425773
0.00425215
0.00424749
0.00424268
0.00423895
0.00423613
0.00423444
0.00423383
0.00423356
0.00423375
0.0042346
0.00423609
0.00423732
0.00423803
0.00423824
0.00423774
0.00423737
0.00423626
0.00423502
0.00423344
0.00423269
0.00423192
0.00423162
0.00423289
0.00423435
0.0042366
0.00423852
0.0042399
0.00424003
0.00423831
0.0042331
0.0042241
0.00421352
0.00419542
0.00417689
0.00416075
0.00415476
0.00415641
0.0041699
0.00430599
0.00430164
0.00429838
0.00429526
0.00429193
0.00428872
0.00428546
0.00428139
0.00427746
0.00427282
0.00426718
0.00426109
0.00425498
0.00424885
0.00424309
0.00423792
0.00423408
0.00423131
0.00423009
0.00422959
0.00422997
0.00423126
0.00423361
0.00423672
0.00423946
0.00424187
0.00424384
0.00424595
0.00424789
0.00424961
0.00425092
0.00425194
0.00425351
0.00425465
0.0042563
0.00425844
0.00426044
0.00426237
0.00426406
0.00426433
0.00426259
0.00425723
0.00424738
0.00424029
0.00421887
0.00420245
0.00418594
0.00417083
0.00413611
0.00413917
0.00413204
0.00884893
0.00885237
0.00885612
0.00885668
0.00885658
0.00885548
0.00885349
0.00885056
0.00884784
0.00884513
0.00884329
0.00884116
0.00883987
0.00883841
0.00883773
0.00883646
0.00883511
0.00883293
0.00882993
0.00882569
0.0088202
0.00881369
0.00880586
0.00879665
0.00878631
0.00877509
0.00883261
0.00883965
0.00884447
0.00884923
0.00885113
0.00885371
0.00885441
0.00885477
0.00885491
0.00885484
0.00885475
0.00885467
0.00885484
0.00885457
0.00885382
0.00885255
0.00885048
0.008847
0.00884275
0.00883649
0.00882935
0.00882059
0.00881066
0.00879946
0.00878728
0.00877399
0.00881628
0.00882637
0.00883302
0.00884071
0.00884641
0.0088512
0.0088558
0.00885945
0.0088624
0.00886524
0.00886738
0.00886904
0.00887003
0.00887058
0.00887022
0.00886902
0.00886612
0.00886131
0.00885524
0.00884742
0.00883811
0.00882743
0.00881542
0.0088022
0.00878822
0.00877329
0.00880061
0.0088129
0.00882186
0.0088327
0.00884107
0.00884961
0.00885737
0.00886395
0.00887016
0.00887563
0.00888007
0.0088835