/*--------------------------------*- C++ -*----------------------------------*\
  =========                 |
  \\      /  F ield         | OpenFOAM: The Open Source CFD Toolbox
   \\    /   O peration     | Website:  https://openfoam.org
    \\  /    A nd           | Version:  10
     \\/     M anipulation  |
\*---------------------------------------------------------------------------*/
FoamFile
{
    format      ascii;
    class       volVectorField;
    location    "0.19995";
    object      U;
}
// * * * * * * * * * * * * * * * * * * * * * * * * * * * * * * * * * * * * * //

dimensions      [0 1 -1 0 0 0 0];

internalField   nonuniform List<vector> 
15708
(
(0.463132 -0.0978136 0)
(0.45527 -0.100452 0)
(0.447026 -0.102196 0)
(0.43839 -0.102745 0)
(0.429318 -0.101886 0)
(0.419819 -0.0994479 0)
(0.40996 -0.0953445 0)
(0.399881 -0.0895715 0)
(0.389804 -0.0822505 0)
(0.380016 -0.0735872 0)
(0.370857 -0.0638839 0)
(0.362671 -0.0534974 0)
(0.355767 -0.042809 0)
(0.350392 -0.0321841 0)
(0.346703 -0.0219455 0)
(0.344758 -0.0123562 0)
(0.344528 -0.00361137 0)
(0.345881 0.0042013 0)
(0.34868 0.0109486 0)
(0.35275 0.0166837 0)
(0.357891 0.0213329 0)
(0.363898 0.0249992 0)
(0.370583 0.0276774 0)
(0.377771 0.0294597 0)
(0.385265 0.0304203 0)
(0.39293 0.0306549 0)
(0.400645 0.0302621 0)
(0.408307 0.0293446 0)
(0.415843 0.0280258 0)
(0.423202 0.0264355 0)
(0.430378 0.0247298 0)
(0.437334 0.0230273 0)
(0.444081 0.0214875 0)
(0.450617 0.0202263 0)
(0.456928 0.0194084 0)
(0.463017 0.0191558 0)
(0.468821 0.0196139 0)
(0.474298 0.0208656 0)
(0.479375 0.0229948 0)
(0.483967 0.0260515 0)
(0.488002 0.0300622 0)
(0.491408 0.0350227 0)
(0.494151 0.0408548 0)
(0.496243 0.0474704 0)
(0.497744 0.054727 0)
(0.498772 0.0624016 0)
(0.499502 0.0702605 0)
(0.500135 0.0780186 0)
(0.50089 0.0853914 0)
(0.501961 0.0920879 0)
(0.503503 0.0978729 0)
(0.460104 -0.0991786 0)
(0.453035 -0.101832 0)
(0.445849 -0.10356 0)
(0.438497 -0.104119 0)
(0.430902 -0.1033 0)
(0.423009 -0.100945 0)
(0.414813 -0.0969673 0)
(0.406355 -0.0913522 0)
(0.397756 -0.0841802 0)
(0.389215 -0.0756259 0)
(0.380991 -0.0659481 0)
(0.373382 -0.0554758 0)
(0.366682 -0.0445702 0)
(0.361157 -0.0335993 0)
(0.357005 -0.0229068 0)
(0.354345 -0.0127885 0)
(0.353212 -0.00347777 0)
(0.353563 0.00485704 0)
(0.355298 0.0121406 0)
(0.358251 0.0182975 0)
(0.362304 0.0233251 0)
(0.367267 0.0272323 0)
(0.372951 0.03008 0)
(0.379213 0.0319169 0)
(0.385878 0.0328345 0)
(0.392826 0.0329414 0)
(0.39993 0.032352 0)
(0.407105 0.0311908 0)
(0.414293 0.029601 0)
(0.421463 0.0277301 0)
(0.428584 0.0257437 0)
(0.435639 0.0237823 0)
(0.442629 0.0220272 0)
(0.449534 0.0205812 0)
(0.456368 0.0195891 0)
(0.463103 0.019212 0)
(0.46966 0.0195555 0)
(0.475969 0.0206941 0)
(0.481933 0.0226828 0)
(0.487453 0.0255685 0)
(0.49243 0.0293641 0)
(0.496732 0.0340483 0)
(0.5003 0.0396031 0)
(0.503126 0.0459064 0)
(0.505184 0.0528917 0)
(0.506559 0.0603307 0)
(0.507392 0.0680424 0)
(0.50785 0.0757681 0)
(0.508143 0.0832231 0)
(0.508482 0.0901381 0)
(0.509063 0.0962432 0)
(0.45712 -0.100519 0)
(0.450879 -0.103039 0)
(0.444755 -0.104593 0)
(0.438666 -0.104992 0)
(0.432504 -0.104056 0)
(0.426163 -0.10164 0)
(0.419568 -0.09767 0)
(0.412693 -0.0921298 0)
(0.405568 -0.0850759 0)
(0.398305 -0.0766516 0)
(0.391087 -0.0670754 0)
(0.384152 -0.0566363 0)
(0.377771 -0.0456701 0)
(0.372206 -0.0345337 0)
(0.367683 -0.0235762 0)
(0.36437 -0.0131127 0)
(0.362362 -0.00340559 0)
(0.361685 0.00534469 0)
(0.362297 0.0130049 0)
(0.364099 0.0194967 0)
(0.366975 0.0248099 0)
(0.370787 0.0289089 0)
(0.375386 0.0318747 0)
(0.380633 0.0337474 0)
(0.386391 0.034634 0)
(0.392548 0.0346405 0)
(0.399 0.0339017 0)
(0.40567 0.032571 0)
(0.412507 0.0308061 0)
(0.419482 0.0287773 0)
(0.426579 0.0266488 0)
(0.433776 0.0246054 0)
(0.441044 0.022782 0)
(0.448347 0.0213135 0)
(0.455727 0.0203352 0)
(0.463148 0.0199977 0)
(0.470462 0.0203822 0)
(0.477577 0.0215514 0)
(0.484393 0.0235356 0)
(0.490785 0.0263664 0)
(0.496612 0.0300379 0)
(0.501772 0.0345264 0)
(0.50613 0.0398139 0)
(0.509651 0.0457936 0)
(0.512287 0.0524116 0)
(0.514042 0.059478 0)
(0.515057 0.0668743 0)
(0.515435 0.0743524 0)
(0.515379 0.0816395 0)
(0.515099 0.088497 0)
(0.514814 0.094653 0)
(0.454316 -0.101681 0)
(0.448951 -0.103934 0)
(0.443899 -0.105176 0)
(0.439046 -0.105274 0)
(0.434262 -0.104084 0)
(0.429398 -0.101492 0)
(0.424323 -0.097435 0)
(0.41895 -0.0918969 0)
(0.413241 -0.0849305 0)
(0.407234 -0.0766488 0)
(0.401042 -0.0672373 0)
(0.394843 -0.0569429 0)
(0.388863 -0.0460677 0)
(0.38335 -0.0349472 0)
(0.378543 -0.023921 0)
(0.374646 -0.0133101 0)
(0.371807 -0.00339525 0)
(0.370109 0.00559798 0)
(0.369577 0.0135047 0)
(0.370171 0.0202221 0)
(0.371814 0.025706 0)
(0.374412 0.0299435 0)
(0.377853 0.0329785 0)
(0.382024 0.034874 0)
(0.386815 0.0357337 0)
(0.392136 0.0356812 0)
(0.397907 0.0348616 0)
(0.404065 0.033446 0)
(0.410567 0.031613 0)
(0.417388 0.0295524 0)
(0.424508 0.0274446 0)
(0.431882 0.0254644 0)
(0.439456 0.0237304 0)
(0.447212 0.0224054 0)
(0.455176 0.0216288 0)
(0.463272 0.021485 0)
(0.47133 0.0220482 0)
(0.47923 0.0233675 0)
(0.486846 0.0254622 0)
(0.494043 0.0283338 0)
(0.500668 0.0319666 0)
(0.506578 0.0363434 0)
(0.511631 0.0413904 0)
(0.515781 0.0470784 0)
(0.518924 0.0532531 0)
(0.521077 0.0598852 0)
(0.522318 0.0667867 0)
(0.522667 0.0738082 0)
(0.522337 0.0807112 0)
(0.521542 0.0872499 0)
(0.520491 0.0931865 0)
(0.45182 -0.102504 0)
(0.447376 -0.104375 0)
(0.443406 -0.105191 0)
(0.43976 -0.104881 0)
(0.436286 -0.103337 0)
(0.432803 -0.100477 0)
(0.429145 -0.0962629 0)
(0.425171 -0.0906714 0)
(0.420789 -0.0837637 0)
(0.415978 -0.0756332 0)
(0.410784 -0.0664348 0)
(0.405331 -0.0563822 0)
(0.399796 -0.0457388 0)
(0.394402 -0.0348084 0)
(0.389387 -0.0239096 0)
(0.384976 -0.013356 0)
(0.381358 -0.00343432 0)
(0.378671 0.0056145 0)
(0.376997 0.0136075 0)
(0.376361 0.0204144 0)
(0.37674 0.0259716 0)
(0.378084 0.030265 0)
(0.380323 0.0333264 0)
(0.38338 0.0352269 0)
(0.387179 0.0360739 0)
(0.391652 0.0360058 0)
(0.396741 0.0351835 0)
(0.402403 0.0337883 0)
(0.408604 0.0320157 0)
(0.415316 0.0300623 0)
(0.422508 0.0281202 0)
(0.430092 0.0263391 0)
(0.438026 0.0248687 0)
(0.446293 0.0238486 0)
(0.454857 0.0234083 0)
(0.463618 0.0235989 0)
(0.47239 0.0244786 0)
(0.481028 0.0260696 0)
(0.489388 0.0283799 0)
(0.497309 0.0313855 0)
(0.504632 0.0350557 0)
(0.511199 0.0393547 0)
(0.516862 0.0442241 0)
(0.521507 0.0496134 0)
(0.525083 0.0553859 0)
(0.527564 0.0614993 0)
(0.528968 0.0678056 0)
(0.529346 0.074163 0)
(0.528805 0.080482 0)
(0.527553 0.0864579 0)
(0.525807 0.0919023 0)
(0.449736 -0.102858 0)
(0.446255 -0.104255 0)
(0.443372 -0.104558 0)
(0.440895 -0.103758 0)
(0.438659 -0.101781 0)
(0.436451 -0.0985909 0)
(0.434092 -0.0941555 0)
(0.431399 -0.0884775 0)
(0.428222 -0.0815956 0)
(0.424507 -0.0736188 0)
(0.420246 -0.0646823 0)
(0.415506 -0.0549559 0)
(0.410423 -0.0446716 0)
(0.405184 -0.0340935 0)
(0.400018 -0.0235125 0)
(0.395157 -0.013224 0)
(0.390819 -0.00350488 0)
(0.38719 0.00540046 0)
(0.384405 0.0133027 0)
(0.382546 0.0200513 0)
(0.381656 0.025568 0)
(0.381735 0.0298329 0)
(0.382763 0.0328738 0)
(0.3847 0.0347667 0)
(0.387508 0.0356228 0)
(0.391149 0.0355918 0)
(0.395587 0.0348469 0)
(0.400795 0.0335806 0)
(0.406745 0.0319918 0)
(0.413406 0.0302837 0)
(0.420711 0.0286493 0)
(0.428569 0.0272103 0)
(0.436916 0.0261633 0)
(0.445709 0.0255865 0)
(0.45489 0.0256 0)
(0.464307 0.0262466 0)
(0.473764 0.0275569 0)
(0.48309 0.0295308 0)
(0.492115 0.0321552 0)
(0.500666 0.0353812 0)
(0.508581 0.0391657 0)
(0.515686 0.0434532 0)
(0.521827 0.0481764 0)
(0.526881 0.0532694 0)
(0.530748 0.0586587 0)
(0.533434 0.0642203 0)
(0.534921 0.0698415 0)
(0.535283 0.0754938 0)
(0.53457 0.0809714 0)
(0.532896 0.0861597 0)
(0.530519 0.0908524 0)
(0.448145 -0.102645 0)
(0.445669 -0.103497 0)
(0.443869 -0.103227 0)
(0.442522 -0.101882 0)
(0.441438 -0.0994207 0)
(0.440397 -0.0958432 0)
(0.439205 -0.0911267 0)
(0.437659 -0.0853309 0)
(0.435564 -0.0784908 0)
(0.432804 -0.0706747 0)
(0.429366 -0.0620233 0)
(0.425273 -0.0526957 0)
(0.420609 -0.0428723 0)
(0.41553 -0.0327932 0)
(0.410243 -0.0227007 0)
(0.404983 -0.0128726 0)
(0.399987 -0.00356126 0)
(0.395479 0.00500623 0)
(0.391637 0.0126204 0)
(0.388595 0.0191443 0)
(0.386465 0.0244935 0)
(0.385306 0.0286398 0)
(0.385146 0.0316094 0)
(0.385992 0.033477 0)
(0.387847 0.0343649 0)
(0.390702 0.0344234 0)
(0.394547 0.033835 0)
(0.399364 0.0327959 0)
(0.405128 0.0315082 0)
(0.411802 0.0301752 0)
(0.419273 0.0289815 0)
(0.427456 0.0280313 0)
(0.436263 0.0275198 0)
(0.4456 0.0275172 0)
(0.455394 0.0281039 0)
(0.465456 0.0293154 0)
(0.475558 0.031156 0)
(0.485512 0.0336103 0)
(0.495124 0.0366351 0)
(0.504205 0.0401712 0)
(0.512592 0.0441448 0)
(0.5201 0.0484839 0)
(0.526574 0.0531098 0)
(0.53189 0.0579453 0)
(0.535941 0.0629119 0)
(0.538659 0.0679284 0)
(0.540156 0.0728368 0)
(0.540394 0.0776639 0)
(0.53939 0.0821722 0)
(0.537348 0.0863942 0)
(0.534369 0.090096 0)
(0.447108 -0.101809 0)
(0.445667 -0.10207 0)
(0.444939 -0.101199 0)
(0.444676 -0.0992653 0)
(0.444671 -0.0963007 0)
(0.444699 -0.0922845 0)
(0.444534 -0.0872551 0)
(0.443941 -0.0812866 0)
(0.442771 -0.0744693 0)
(0.440864 -0.0668344 0)
(0.43812 -0.058514 0)
(0.434564 -0.0496299 0)
(0.430249 -0.0403579 0)
(0.425299 -0.0309045 0)
(0.419898 -0.0214658 0)
(0.414268 -0.0122806 0)
(0.408675 -0.00356796 0)
(0.403344 0.00445995 0)
(0.398501 0.0116028 0)
(0.394354 0.0177394 0)
(0.391058 0.0227874 0)
(0.388728 0.0267177 0)
(0.387443 0.0295558 0)
(0.387268 0.0313751 0)
(0.388243 0.0323048 0)
(0.390387 0.0324984 0)
(0.393717 0.0321353 0)
(0.398221 0.0314134 0)
(0.403878 0.0305318 0)
(0.410638 0.0296831 0)
(0.418335 0.0290423 0)
(0.426886 0.0287078 0)
(0.43619 0.0288315 0)
(0.446092 0.0294967 0)
(0.456496 0.0307715 0)
(0.467174 0.0326447 0)
(0.477881 0.0351152 0)
(0.488398 0.0381434 0)
(0.49851 0.0416583 0)
(0.508018 0.0455894 0)
(0.516746 0.0498314 0)
(0.524513 0.0542897 0)
(0.531163 0.0588719 0)
(0.536571 0.063488 0)
(0.540632 0.0680557 0)
(0.543271 0.0724956 0)
(0.544578 0.0767132 0)
(0.544543 0.0805861 0)
(0.543226 0.0840815 0)
(0.540743 0.0871712 0)
(0.537157 0.0897016 0)
(0.446663 -0.10035 0)
(0.446267 -0.100006 0)
(0.446608 -0.0985012 0)
(0.447381 -0.0959718 0)
(0.448382 -0.0924595 0)
(0.449391 -0.0879818 0)
(0.450125 -0.0826197 0)
(0.450342 -0.0764542 0)
(0.449895 -0.069589 0)
(0.448629 -0.0621366 0)
(0.446444 -0.0541561 0)
(0.443314 -0.0457824 0)
(0.439236 -0.0371493 0)
(0.434344 -0.0284112 0)
(0.428807 -0.019767 0)
(0.422835 -0.0113814 0)
(0.416684 -0.003462 0)
(0.410602 0.00382883 0)
(0.404852 0.0103263 0)
(0.39969 0.0159166 0)
(0.395325 0.0205232 0)
(0.391922 0.024126 0)
(0.389615 0.026759 0)
(0.388522 0.0284968 0)
(0.388722 0.0294625 0)
(0.390265 0.0298177 0)
(0.393182 0.0297323 0)
(0.397473 0.0293971 0)
(0.40311 0.029003 0)
(0.410028 0.0287265 0)
(0.418021 0.0287207 0)
(0.42698 0.0291014 0)
(0.436798 0.0299526 0)
(0.447295 0.0313802 0)
(0.458308 0.033419 0)
(0.469576 0.036052 0)
(0.480844 0.0392551 0)
(0.491852 0.0429464 0)
(0.50238 0.047054 0)
(0.512201 0.0514625 0)
(0.521132 0.056049 0)
(0.528999 0.0606979 0)
(0.535649 0.0653104 0)
(0.540971 0.0697779 0)
(0.544867 0.073995 0)
(0.547251 0.0778707 0)
(0.548195 0.081324 0)
(0.547716 0.0842564 0)
(0.545931 0.0866409 0)
(0.54292 0.0884644 0)
(0.53866 0.0896393 0)
(0.446814 -0.0983305 0)
(0.4475 -0.0973707 0)
(0.448897 -0.0952157 0)
(0.450671 -0.0920692 0)
(0.45262 -0.0879693 0)
(0.454481 -0.0830095 0)
(0.455976 -0.0772886 0)
(0.456858 -0.0709119 0)
(0.456954 -0.0639894 0)
(0.456152 -0.0566855 0)
(0.45433 -0.0490182 0)
(0.45144 -0.0411905 0)
(0.447508 -0.0332382 0)
(0.44259 -0.0252901 0)
(0.436855 -0.0175405 0)
(0.430515 -0.0101037 0)
(0.423829 -0.00312895 0)
(0.417074 0.00324905 0)
(0.410512 0.00891905 0)
(0.404449 0.0137893 0)
(0.399138 0.0178069 0)
(0.394795 0.0209655 0)
(0.391611 0.0233054 0)
(0.389739 0.0249085 0)
(0.3893 0.0258901 0)
(0.390378 0.0264062 0)
(0.393001 0.0266209 0)
(0.397192 0.0267112 0)
(0.402909 0.0268499 0)
(0.410062 0.0272032 0)
(0.418426 0.0278866 0)
(0.427845 0.0290484 0)
(0.438206 0.0307049 0)
(0.449307 0.0329832 0)
(0.460927 0.0358615 0)
(0.472781 0.0393605 0)
(0.484556 0.0433706 0)
(0.495993 0.0478275 0)
(0.506836 0.0526052 0)
(0.516842 0.0575842 0)
(0.525831 0.0626335 0)
(0.533649 0.0675993 0)
(0.540145 0.0723414 0)
(0.545182 0.0767226 0)
(0.548677 0.0806202 0)
(0.550574 0.0839356 0)
(0.550952 0.0865952 0)
(0.549857 0.0885425 0)
(0.547432 0.0897665 0)
(0.543731 0.0902314 0)
(0.538722 0.0898853 0)
(0.447574 -0.0958619 0)
(0.449365 -0.0942414 0)
(0.451825 -0.0914537 0)
(0.45457 -0.0876499 0)
(0.457393 -0.0829461 0)
(0.460006 -0.0774661 0)
(0.462129 -0.0713488 0)
(0.463519 -0.0647236 0)
(0.463977 -0.0577266 0)
(0.463445 -0.0505198 0)
(0.461784 -0.0431791 0)
(0.458952 -0.0358634 0)
(0.455015 -0.0286018 0)
(0.449943 -0.0215305 0)
(0.443916 -0.0147641 0)
(0.437183 -0.00838975 0)
(0.42998 -0.00248847 0)
(0.42259 0.00282264 0)
(0.415313 0.0075055 0)
(0.40848 0.0114911 0)
(0.402369 0.0147755 0)
(0.397253 0.0173631 0)
(0.393357 0.0193075 0)
(0.390876 0.0206982 0)
(0.389962 0.0216441 0)
(0.390726 0.0222888 0)
(0.393203 0.0227895 0)
(0.397419 0.0233024 0)
(0.403325 0.0239847 0)
(0.410797 0.0249847 0)
(0.419609 0.0263799 0)
(0.429554 0.0283472 0)
(0.440499 0.0308737 0)
(0.45223 0.034032 0)
(0.464473 0.0378612 0)
(0.476881 0.0422755 0)
(0.489118 0.0472178 0)
(0.500906 0.0525678 0)
(0.51197 0.0581774 0)
(0.522086 0.0638877 0)
(0.531025 0.0695336 0)
(0.538615 0.0749187 0)
(0.544711 0.079861 0)
(0.549219 0.0842045 0)
(0.552075 0.0878205 0)
(0.553245 0.0906031 0)
(0.552837 0.0924666 0)
(0.550931 0.0934311 0)
(0.547663 0.0934119 0)
(0.543071 0.0924189 0)
(0.537218 0.0904956 0)
(0.448959 -0.0930559 0)
(0.451891 -0.0907899 0)
(0.455397 -0.0873178 0)
(0.459114 -0.0828301 0)
(0.462748 -0.0774799 0)
(0.466008 -0.0714391 0)
(0.468619 -0.0648801 0)
(0.470352 -0.0579607 0)
(0.471006 -0.0508448 0)
(0.470536 -0.0436975 0)
(0.468825 -0.0366461 0)
(0.465867 -0.0298128 0)
(0.461713 -0.0232593 0)
(0.456324 -0.0170951 0)
(0.449916 -0.0113733 0)
(0.442726 -0.00613793 0)
(0.434987 -0.00144541 0)
(0.427007 0.00268424 0)
(0.41911 0.00622574 0)
(0.411625 0.0091904 0)
(0.404884 0.0115902 0)
(0.399171 0.0134697 0)
(0.394758 0.014903 0)
(0.39186 0.015974 0)
(0.390657 0.0167986 0)
(0.391275 0.0175043 0)
(0.393766 0.0182357 0)
(0.398144 0.0191298 0)
(0.404358 0.0203279 0)
(0.412239 0.0219578 0)
(0.421586 0.0240809 0)
(0.432151 0.0268499 0)
(0.443718 0.030274 0)
(0.45613 0.0344119 0)
(0.469014 0.0392524 0)
(0.481987 0.0447185 0)
(0.494704 0.0507204 0)
(0.506817 0.0570991 0)
(0.518033 0.0636862 0)
(0.528094 0.0702634 0)
(0.536782 0.0766075 0)
(0.543923 0.0825039 0)
(0.549406 0.0877447 0)
(0.553148 0.0921455 0)
(0.555112 0.0955489 0)
(0.55528 0.0978282 0)
(0.553858 0.0989122 0)
(0.550888 0.0988636 0)
(0.546503 0.0975662 0)
(0.540884 0.0950521 0)
(0.534057 0.0914514 0)
(0.450958 -0.0900875 0)
(0.455086 -0.0871629 0)
(0.459692 -0.0829635 0)
(0.464335 -0.0777487 0)
(0.468721 -0.0717066 0)
(0.472531 -0.0650478 0)
(0.475505 -0.0579675 0)
(0.477422 -0.0506734 0)
(0.478083 -0.0433694 0)
(0.477475 -0.0362345 0)
(0.4755 -0.0294143 0)
(0.472183 -0.0230365 0)
(0.4676 -0.0171852 0)
(0.461723 -0.0119204 0)
(0.454792 -0.00728263 0)
(0.447053 -0.00326558 0)
(0.438757 0.000140951 0)
(0.430207 0.00297627 0)
(0.421752 0.00525117 0)
(0.413751 0.00705632 0)
(0.406534 0.00843282 0)
(0.400419 0.00946888 0)
(0.395689 0.0102505 0)
(0.392578 0.0108743 0)
(0.391284 0.0114583 0)
(0.391947 0.012113 0)
(0.394617 0.01297 0)
(0.39931 0.0141492 0)
(0.405967 0.0157737 0)
(0.414387 0.0179625 0)
(0.424362 0.0207622 0)
(0.43563 0.0243181 0)
(0.447962 0.0286679 0)
(0.461124 0.0338402 0)
(0.474705 0.0397934 0)
(0.488279 0.0464486 0)
(0.501428 0.0536445 0)
(0.513802 0.0612099 0)
(0.525067 0.0689139 0)
(0.534948 0.0765099 0)
(0.543221 0.0837251 0)
(0.54973 0.0903053 0)
(0.554358 0.0959874 0)
(0.557055 0.100547 0)
(0.557819 0.103799 0)
(0.556694 0.105593 0)
(0.553975 0.105964 0)
(0.549697 0.104793 0)
(0.543958 0.102175 0)
(0.537045 0.0980999 0)
(0.5291 0.0926986 0)
(0.453608 -0.0871675 0)
(0.459004 -0.0835421 0)
(0.464719 -0.0785855 0)
(0.470299 -0.0725764 0)
(0.475383 -0.0657584 0)
(0.479669 -0.0583763 0)
(0.48289 -0.0506714 0)
(0.484814 -0.042906 0)
(0.485283 -0.0353183 0)
(0.484317 -0.0281123 0)
(0.481848 -0.0214553 0)
(0.477935 -0.0154895 0)
(0.472694 -0.010323 0)
(0.466128 -0.00597632 0)
(0.458507 -0.0024171 0)
(0.450097 0.000349708 0)
(0.441174 0.00240297 0)
(0.432066 0.00382409 0)
(0.423125 0.00474606 0)
(0.414726 0.00525414 0)
(0.407189 0.0054774 0)
(0.400857 0.0055201 0)
(0.396005 0.00548719 0)
(0.392887 0.00550454 0)
(0.391706 0.00567658 0)
(0.392606 0.00611886 0)
(0.39564 0.00694058 0)
(0.400814 0.00826102 0)
(0.408074 0.0101984 0)
(0.417159 0.0128541 0)
(0.427899 0.0162721 0)
(0.44003 0.0205741 0)
(0.453222 0.0258403 0)
(0.467237 0.0320672 0)
(0.481597 0.0391963 0)
(0.495805 0.0471228 0)
(0.509427 0.0556585 0)
(0.522045 0.0645993 0)
(0.533293 0.073655 0)
(0.54287 0.0825157 0)
(0.550553 0.0908474 0)
(0.556177 0.0983104 0)
(0.559665 0.104595 0)
(0.561005 0.109433 0)
(0.560227 0.112596 0)
(0.557539 0.113973 0)
(0.553167 0.11363 0)
(0.547213 0.111305 0)
(0.539919 0.107246 0)
(0.531496 0.101472 0)
(0.522263 0.0942381 0)
(0.456902 -0.0845353 0)
(0.463664 -0.0801639 0)
(0.470577 -0.0743732 0)
(0.477092 -0.0674737 0)
(0.482855 -0.0597579 0)
(0.487541 -0.0515108 0)
(0.49087 -0.043047 0)
(0.492635 -0.0346687 0)
(0.492711 -0.0266694 0)
(0.491157 -0.0192915 0)
(0.487942 -0.0127271 0)
(0.483163 -0.00712106 0)
(0.477003 -0.00257229 0)
(0.469529 0.000913885 0)
(0.461017 0.00334466 0)
(0.451795 0.00479427 0)
(0.44218 0.00542943 0)
(0.432503 0.00538869 0)
(0.423132 0.00485463 0)
(0.414414 0.0039698 0)
(0.406706 0.00290087 0)
(0.400307 0.00179231 0)
(0.395532 0.000776554 0)
(0.392619 -1.96213e-06 0)
(0.391762 -0.000430736 0)
(0.393083 -0.000388546 0)
(0.396657 0.000213116 0)
(0.402493 0.00149958 0)
(0.410515 0.00358055 0)
(0.420449 0.00653383 0)
(0.432098 0.0104613 0)
(0.445238 0.0154269 0)
(0.459506 0.0215636 0)
(0.47453 0.0288648 0)
(0.4898 0.0372578 0)
(0.504759 0.0466053 0)
(0.518897 0.0566945 0)
(0.531765 0.0672523 0)
(0.542933 0.0779257 0)
(0.552083 0.0883242 0)
(0.558962 0.098015 0)
(0.563438 0.106586 0)
(0.565467 0.113656 0)
(0.565073 0.118885 0)
(0.562405 0.122045 0)
(0.5578 0.123086 0)
(0.551397 0.121908 0)
(0.543412 0.118443 0)
(0.534218 0.112836 0)
(0.524109 0.105278 0)
(0.51352 0.0961493 0)
(0.460914 -0.0824542 0)
(0.469177 -0.0772693 0)
(0.477344 -0.0705505 0)
(0.484855 -0.0626282 0)
(0.491286 -0.0538344 0)
(0.496303 -0.0445332 0)
(0.499624 -0.0351027 0)
(0.501051 -0.0259184 0)
(0.500489 -0.0173503 0)
(0.498082 -0.009667 0)
(0.493874 -0.00307329 0)
(0.487934 0.00230544 0)
(0.480545 0.00623763 0)
(0.471896 0.00877187 0)
(0.4623 0.0100437 0)
(0.452129 0.0101845 0)
(0.44173 0.00936594 0)
(0.431451 0.00780994 0)
(0.421655 0.00572995 0)
(0.4127 0.00334845 0)
(0.404921 0.000860399 0)
(0.398623 -0.00154327 0)
(0.394085 -0.00369876 0)
(0.391544 -0.00547212 0)
(0.391183 -0.00672395 0)
(0.393129 -0.00734321 0)
(0.39744 -0.00721545 0)
(0.404128 -0.0062205 0)
(0.413102 -0.0042461 0)
(0.424079 -0.00123208 0)
(0.436864 0.00304131 0)
(0.451231 0.00858494 0)
(0.466769 0.0155347 0)
(0.483033 0.0239228 0)
(0.49942 0.0336748 0)
(0.515294 0.0446004 0)
(0.530092 0.0564958 0)
(0.543254 0.0689796 0)
(0.554308 0.0816213 0)
(0.56288 0.0938976 0)
(0.568732 0.105287 0)
(0.571739 0.115249 0)
(0.571904 0.123313 0)
(0.569361 0.129074 0)
(0.564426 0.132348 0)
(0.557426 0.133075 0)
(0.548571 0.130982 0)
(0.538201 0.126231 0)
(0.526809 0.118995 0)
(0.514845 0.109609 0)
(0.502778 0.0985101 0)
(0.465673 -0.0812233 0)
(0.475597 -0.0751716 0)
(0.485179 -0.0673751 0)
(0.493765 -0.0582274 0)
(0.500897 -0.0481129 0)
(0.506198 -0.0374869 0)
(0.509376 -0.0268188 0)
(0.510241 -0.0165957 0)
(0.508801 -0.00725458 0)
(0.505271 0.0010123 0)
(0.499682 0.0077286 0)
(0.492252 0.0128035 0)
(0.483316 0.0161608 0)
(0.473222 0.0178024 0)
(0.462344 0.0179106 0)
(0.451056 0.0166908 0)
(0.439756 0.0143684 0)
(0.42882 0.0112199 0)
(0.418609 0.0075223 0)
(0.409467 0.00353408 0)
(0.401707 -0.000492597 0)
(0.395619 -0.00435212 0)
(0.391457 -0.00785525 0)
(0.389445 -0.0108403 0)
(0.389753 -0.0131586 0)
(0.39249 -0.014697 0)
(0.397718 -0.0153178 0)
(0.405455 -0.0149043 0)
(0.415541 -0.0133124 0)
(0.427813 -0.0105055 0)
(0.442033 -0.00615562 0)
(0.457883 -0.000191664 0)
(0.474997 0.00751722 0)
(0.492806 0.0169943 0)
(0.510585 0.0281813 0)
(0.527643 0.0409069 0)
(0.543285 0.0548977 0)
(0.556848 0.0696898 0)
(0.567764 0.0847197 0)
(0.575625 0.0993204 0)
(0.58017 0.112802 0)
(0.581326 0.124497 0)
(0.579169 0.1338 0)
(0.574013 0.140294 0)
(0.566342 0.143833 0)
(0.556401 0.14412 0)
(0.544545 0.141033 0)
(0.531434 0.134854 0)
(0.517607 0.125877 0)
(0.503616 0.114575 0)
(0.489969 0.1014 0)
(0.471227 -0.0812415 0)
(0.483079 -0.0741842 0)
(0.494276 -0.0651277 0)
(0.504092 -0.0544716 0)
(0.511987 -0.0427021 0)
(0.517526 -0.0303871 0)
(0.520405 -0.0181346 0)
(0.520472 -0.00655876 0)
(0.517923 0.00393776 0)
(0.512824 0.0128293 0)
(0.50545 0.019796 0)
(0.496179 0.0246935 0)
(0.485379 0.0274716 0)
(0.473514 0.0282019 0)
(0.46109 0.0271105 0)
(0.448515 0.02446 0)
(0.436202 0.0205604 0)
(0.424547 0.0157454 0)
(0.413899 0.0103337 0)
(0.404591 0.0046414 0)
(0.396915 -0.00106142 0)
(0.391117 -0.00653502 0)
(0.38744 -0.0115698 0)
(0.386081 -0.0159891 0)
(0.38719 -0.0196333 0)
(0.390866 -0.0223761 0)
(0.397181 -0.0240696 0)
(0.406142 -0.0245702 0)
(0.417569 -0.0237268 0)
(0.431362 -0.0213893 0)
(0.447328 -0.0172685 0)
(0.465066 -0.0111374 0)
(0.484127 -0.00283788 0)
(0.503852 0.00769162 0)
(0.523449 0.0204341 0)
(0.542065 0.035197 0)
(0.558856 0.0516703 0)
(0.572987 0.0692434 0)
(0.583788 0.0872705 0)
(0.590766 0.104714 0)
(0.593686 0.120831 0)
(0.592513 0.134662 0)
(0.587493 0.145506 0)
(0.579216 0.153029 0)
(0.568108 0.15678 0)
(0.554519 0.156478 0)
(0.539232 0.152295 0)
(0.522995 0.144538 0)
(0.506487 0.133712 0)
(0.490312 0.120334 0)
(0.474966 0.10495 0)
(0.477696 -0.0829085 0)
(0.491795 -0.074712 0)
(0.504919 -0.0641131 0)
(0.516196 -0.0515721 0)
(0.524957 -0.0377003 0)
(0.530703 -0.0232223 0)
(0.533068 -0.00895633 0)
(0.532147 0.00447179 0)
(0.527976 0.0163003 0)
(0.520913 0.0261013 0)
(0.511324 0.0335067 0)
(0.499717 0.0382879 0)
(0.486641 0.0404481 0)
(0.472713 0.0402015 0)
(0.45849 0.0378272 0)
(0.444423 0.0336555 0)
(0.430975 0.0280884 0)
(0.418527 0.021498 0)
(0.407419 0.0142662 0)
(0.397955 0.00674259 0)
(0.390399 -0.000770959 0)
(0.384944 -0.00801553 0)
(0.381821 -0.0147731 0)
(0.381199 -0.0208485 0)
(0.38321 -0.0260863 0)
(0.387945 -0.030337 0)
(0.395481 -0.0334364 0)
(0.405819 -0.0352285 0)
(0.418813 -0.0355467 0)
(0.434417 -0.0340527 0)
(0.452458 -0.0304879 0)
(0.472501 -0.0245319 0)
(0.493979 -0.0158976 0)
(0.516212 -0.00444744 0)
(0.538174 0.00999023 0)
(0.558876 0.0271118 0)
(0.577239 0.0465468 0)
(0.592269 0.0675808 0)
(0.60298 0.0892123 0)
(0.608886 0.110324 0)
(0.609787 0.129699 0)
(0.605671 0.146182 0)
(0.597228 0.159041 0)
(0.585009 0.167747 0)
(0.569551 0.171602 0)
(0.551719 0.17061 0)
(0.532452 0.165126 0)
(0.512729 0.15562 0)
(0.493294 0.142735 0)
(0.474739 0.12706 0)
(0.457636 0.109284 0)
(0.485152 -0.0867545 0)
(0.501999 -0.0772334 0)
(0.51749 -0.0647236 0)
(0.530545 -0.0497868 0)
(0.540337 -0.0332039 0)
(0.546204 -0.0159302 0)
(0.547995 0.00105201 0)
(0.545592 0.016729 0)
(0.539362 0.0303472 0)
(0.529805 0.0413555 0)
(0.517402 0.0492709 0)
(0.502893 0.0539277 0)
(0.487089 0.0554238 0)
(0.470726 0.054102 0)
(0.454415 0.0502909 0)
(0.43868 0.044475 0)
(0.423965 0.0370894 0)
(0.410643 0.0285911 0)
(0.399038 0.019406 0)
(0.389412 0.00991347 0)
(0.381991 0.000445311 0)
(0.376915 -0.00873703 0)
(0.374384 -0.0174074 0)
(0.374553 -0.0253681 0)
(0.377524 -0.0324669 0)
(0.383395 -0.0385338 0)
(0.392249 -0.0434025 0)
(0.404071 -0.0469242 0)
(0.418862 -0.0487904 0)
(0.436589 -0.0486019 0)
(0.457019 -0.0460611 0)
(0.479787 -0.040721 0)
(0.504241 -0.0321399 0)
(0.529624 -0.0198976 0)
(0.554806 -0.00379747 0)
(0.578301 0.0161339 0)
(0.598904 0.0391872 0)
(0.615165 0.0645087 0)
(0.62599 0.0907485 0)
(0.63068 0.116493 0)
(0.628983 0.139953 0)
(0.621332 0.159783 0)
(0.608583 0.175159 0)
(0.591354 0.185033 0)
(0.57061 0.188916 0)
(0.547746 0.187063 0)
(0.524001 0.180014 0)
(0.500407 0.168491 0)
(0.477755 0.153203 0)
(0.456695 0.134965 0)
(0.437777 0.114554 0)
(0.493713 -0.0934305 0)
(0.513958 -0.0823217 0)
(0.532444 -0.0674345 0)
(0.547756 -0.0494231 0)
(0.558807 -0.0293157 0)
(0.564765 -0.00845465 0)
(0.565604 0.0119948 0)
(0.561254 0.0306337 0)
(0.552379 0.0465704 0)
(0.539584 0.0590684 0)
(0.523634 0.0676083 0)
(0.505617 0.0720842 0)
(0.486585 0.0728095 0)
(0.467386 0.0702065 0)
(0.44871 0.0647804 0)
(0.431105 0.0570943 0)
(0.414995 0.0476877 0)
(0.400743 0.0370952 0)
(0.388617 0.025786 0)
(0.378824 0.0141719 0)
(0.371545 0.00258465 0)
(0.366854 -0.00869581 0)
(0.364927 -0.0194632 0)
(0.365894 -0.0295279 0)
(0.369841 -0.0387425 0)
(0.376881 -0.0469389 0)
(0.387066 -0.0539886 0)
(0.4005 -0.059622 0)
(0.417281 -0.063465 0)
(0.437297 -0.0651541 0)
(0.460371 -0.0642253 0)
(0.486174 -0.0600922 0)
(0.51411 -0.052071 0)
(0.543303 -0.0394001 0)
(0.572464 -0.0215793 0)
(0.599912 0.00145472 0)
(0.623602 0.0290101 0)
(0.64189 0.0597451 0)
(0.653184 0.0919795 0)
(0.656522 0.123584 0)
(0.651747 0.152291 0)
(0.63977 0.176412 0)
(0.621563 0.19467 0)
(0.598022 0.205787 0)
(0.570982 0.209539 0)
(0.542334 0.206531 0)
(0.5135 0.19756 0)
(0.485616 0.183535 0)
(0.459518 0.165442 0)
(0.435869 0.144267 0)
(0.415149 0.120924 0)
(0.503313 -0.103688 0)
(0.527866 -0.0907477 0)
(0.550191 -0.072884 0)
(0.568457 -0.0508736 0)
(0.581101 -0.0261214 0)
(0.58735 -0.000423137 0)
(0.586887 0.024474 0)
(0.579948 0.0469055 0)
(0.567546 0.0657426 0)
(0.550567 0.0800164 0)
(0.530131 0.0891866 0)
(0.507812 0.0933788 0)
(0.484949 0.09308 0)
(0.462471 0.0889103 0)
(0.441124 0.0815529 0)
(0.421451 0.0716894 0)
(0.403854 0.059997 0)
(0.388627 0.0470718 0)
(0.375969 0.0334324 0)
(0.366009 0.0195104 0)
(0.358877 0.0056403 0)
(0.354585 -0.00790347 0)
(0.353248 -0.0209457 0)
(0.354987 -0.0333181 0)
(0.359887 -0.0448963 0)
(0.368028 -0.0555535 0)
(0.379569 -0.0651288 0)
(0.394701 -0.0732406 0)
(0.413443 -0.0795916 0)
(0.435722 -0.0837275 0)
(0.461389 -0.0850657 0)
(0.490138 -0.0827859 0)
(0.521497 -0.0759956 0)
(0.554628 -0.063534 0)
(0.588159 -0.0442869 0)
(0.62032 -0.0179876 0)
(0.648575 0.0151741 0)
(0.670244 0.0528078 0)
(0.683016 0.0928589 0)
(0.6854 0.132161 0)
(0.677415 0.167444 0)
(0.660362 0.197057 0)
(0.635471 0.2186 0)
(0.604419 0.230953 0)
(0.570057 0.234422 0)
(0.534827 0.229822 0)
(0.500314 0.218308 0)
(0.467775 0.201184 0)
(0.438104 0.179737 0)
(0.411868 0.155169 0)
(0.389424 0.128507 0)
(0.513215 -0.118447 0)
(0.543014 -0.103489 0)
(0.570311 -0.0819547 0)
(0.592642 -0.0547344 0)
(0.607691 -0.0238111 0)
(0.61436 0.00830193 0)
(0.61218 0.0390527 0)
(0.601962 0.0663401 0)
(0.585035 0.0888411 0)
(0.562633 0.105181 0)
(0.536631 0.114905 0)
(0.509166 0.118544 0)
(0.481802 0.116826 0)
(0.455591 0.110639 0)
(0.431277 0.100885 0)
(0.40939 0.0884398 0)
(0.390251 0.074102 0)
(0.374054 0.0585486 0)
(0.360895 0.0423366 0)
(0.350805 0.0259065 0)
(0.343836 0.00958564 0)
(0.339944 -0.00638999 0)
(0.339164 -0.021872 0)
(0.341625 -0.036741 0)
(0.347378 -0.0509329 0)
(0.356557 -0.0643339 0)
(0.36943 -0.0766884 0)
(0.386107 -0.0876984 0)
(0.406526 -0.0969803 0)
(0.430559 -0.103991 0)
(0.458009 -0.10812 0)
(0.488513 -0.108154 0)
(0.521789 -0.10343 0)
(0.55731 -0.0919827 0)
(0.593953 -0.0722621 0)
(0.63038 -0.0437529 0)
(0.664501 -0.00503873 0)
(0.691885 0.0413539 0)
(0.708486 0.0919684 0)
(0.71139 0.141674 0)
(0.701276 0.186018 0)
(0.679438 0.222479 0)
(0.647219 0.248001 0)
(0.60815 0.261802 0)
(0.566027 0.264648 0)
(0.523696 0.257784 0)
(0.483211 0.242912 0)
(0.445963 0.221888 0)
(0.412793 0.19637 0)
(0.384152 0.167825 0)
(0.360198 0.137392 0)
(0.520446 -0.138632 0)
(0.555873 -0.121795 0)
(0.589151 -0.0959544 0)
(0.617161 -0.0622038 0)
(0.636431 -0.0229935 0)
(0.644578 0.0177796 0)
(0.64091 0.0563507 0)
(0.626959 0.0898846 0)
(0.604487 0.116941 0)
(0.57534 0.135558 0)
(0.542595 0.14575 0)
(0.509069 0.148376 0)
(0.476533 0.144644 0)
(0.44614 0.135763 0)
(0.418639 0.123005 0)
(0.39447 0.107437 0)
(0.373818 0.0900036 0)
(0.356725 0.0714643 0)
(0.343151 0.0524005 0)
(0.333007 0.0332511 0)
(0.326241 0.0143034 0)
(0.322765 -0.00424242 0)
(0.32251 -0.0222971 0)
(0.325595 -0.039825 0)
(0.332093 -0.0568327 0)
(0.342236 -0.0731462 0)
(0.356224 -0.0885396 0)
(0.373994 -0.102651 0)
(0.39528 -0.11496 0)
(0.41959 -0.124801 0)
(0.446629 -0.131671 0)
(0.47563 -0.134042 0)
(0.506713 -0.131393 0)
(0.540186 -0.121967 0)
(0.574859 -0.102286 0)
(0.61126 -0.0742689 0)
(0.649196 -0.0326617 0)
(0.686513 0.0217835 0)
(0.711567 0.0851956 0)
(0.71936 0.150376 0)
(0.710565 0.205186 0)
(0.686356 0.251037 0)
(0.648832 0.281968 0)
(0.603099 0.297845 0)
(0.554064 0.300016 0)
(0.505379 0.290352 0)
(0.459606 0.27138 0)
(0.41831 0.245611 0)
(0.382299 0.215295 0)
(0.351852 0.182155 0)
(0.326881 0.147479 0)
(0.516844 -0.164197 0)
(0.556196 -0.14594 0)
(0.59478 -0.117101 0)
(0.629803 -0.0760593 0)
(0.657134 -0.0262611 0)
(0.670257 0.0265366 0)
(0.66713 0.0760054 0)
(0.650498 0.118211 0)
(0.622563 0.15108 0)
(0.58613 0.172386 0)
(0.546066 0.182839 0)
(0.505923 0.183849 0)
(0.467827 0.177197 0)
(0.433081 0.164718 0)
(0.402406 0.148095 0)
(0.37606 0.128715 0)
(0.354077 0.107644 0)
(0.336292 0.085704 0)
(0.32249 0.0634923 0)
(0.312432 0.0414115 0)
(0.305959 0.0196952 0)
(0.30294 -0.001533 0)
(0.303159 -0.0222627 0)
(0.30676 -0.0425883 0)
(0.313903 -0.062502 0)
(0.324804 -0.0818595 0)
(0.33944 -0.100345 0)
(0.357315 -0.117234 0)
(0.377667 -0.131908 0)
(0.399286 -0.143551 0)
(0.421526 -0.151839 0)
(0.44347 -0.155476 0)
(0.464826 -0.151936 0)
(0.487892 -0.143148 0)
(0.511285 -0.125881 0)
(0.536349 -0.100603 0)
(0.568692 -0.0640912 0)
(0.611004 -0.00792257 0)
(0.655158 0.0678099 0)
(0.6759 0.148822 0)
(0.67683 0.214628 0)
(0.660578 0.277761 0)
(0.624163 0.318061 0)
(0.577348 0.338105 0)
(0.525799 0.33995 0)
(0.474028 0.327008 0)
(0.4255 0.303122 0)