/*--------------------------------*- C++ -*----------------------------------*\
  =========                 |
  \\      /  F ield         | OpenFOAM: The Open Source CFD Toolbox
   \\    /   O peration     | Website:  https://openfoam.org
    \\  /    A nd           | Version:  11
     \\/     M anipulation  |
\*---------------------------------------------------------------------------*/
FoamFile
{
    format      ascii;
    class       volScalarField;
    location    "6.5";
    object      p;
}
// * * * * * * * * * * * * * * * * * * * * * * * * * * * * * * * * * * * * * //

dimensions      [0 2 -2 0 0 0 0];

internalField   nonuniform List<scalar> 
9600
(
0.0510372
0.051176
0.0512639
0.0511884
0.0509704
0.0505561
0.049955
0.0491741
0.0481318
0.0467342
0.0449992
0.0428955
0.0404843
0.0377122
0.0346082
0.0313941
0.0282485
0.0252295
0.0222618
0.0192628
0.0174404
0.0162296
0.0143601
0.01318
0.0134906
0.0133326
0.0133199
0.013568
0.013217
0.0121016
0.0102241
0.00775514
0.0049577
0.0020912
-0.000838985
-0.00364386
-0.00597588
-0.00729518
-0.00800265
-0.0090628
0.0511155
0.0512512
0.0512863
0.0511167
0.0507344
0.0502026
0.0495457
0.0486874
0.0475123
0.0460067
0.0441834
0.0420748
0.0396999
0.0369728
0.033938
0.0307966
0.0277243
0.024789
0.0221358
0.0193748
0.0172837
0.0159368
0.0143441
0.0133496
0.013273
0.0133493
0.0132971
0.0133866
0.0131223
0.0122368
0.0105971
0.00833954
0.00565958
0.00282451
-3.55721e-05
-0.00289996
-0.00548543
-0.0074486
-0.0085866
-0.0096005
0.0511981
0.0513063
0.0512857
0.0510611
0.0506619
0.050166
0.0495382
0.0486689
0.0475026
0.0460087
0.0441476
0.0419774
0.0395435
0.0368015
0.033809
0.0307042
0.0276562
0.0246744
0.0218588
0.0194135
0.0172814
0.0156645
0.0144052
0.0135402
0.0133154
0.013319
0.0134337
0.0137443
0.0137461
0.0130621
0.0116652
0.00962867
0.00712869
0.00438931
0.00158735
-0.00104862
-0.00368184
-0.00580343
-0.00732556
-0.00877792
0.0512815
0.051361
0.0512974
0.051018
0.050564
0.049998
0.049274
0.0483032
0.0470133
0.045387
0.0435027
0.041375
0.0389711
0.0362625
0.0332948
0.0302082
0.0271595
0.0242059
0.0215061
0.019017
0.0170705
0.0155003
0.0142276
0.0135601
0.0130805
0.0132357
0.0132952
0.0135387
0.0135098
0.0129076
0.0116272
0.00963842
0.00708808
0.0042092
0.00119774
-0.001716
-0.00441179
-0.00643217
-0.00768121
-0.00807778
0.0513676
0.0514201
0.0513134
0.0509713
0.0504562
0.0498599
0.049139
0.0481877
0.0469023
0.0453097
0.0433915
0.0411612
0.0387171
0.0359825
0.0330344
0.029965
0.0269075
0.0239253
0.0212632
0.0188564
0.0168313
0.0152644
0.0139486
0.0135372
0.0131928
0.0132112
0.0135073
0.0139346
0.0141732
0.0138895
0.0129495
0.0112693
0.00900387
0.00641243
0.00363987
0.000906745
-0.00182187
-0.00442595
-0.00654663
-0.00845249
0.0514575
0.0514798
0.0513308
0.0509318
0.0503722
0.0497686
0.0490387
0.048029
0.0466305
0.0448982
0.042922
0.0407373
0.0382944
0.0355794
0.03263
0.0295386
0.0264714
0.023521
0.0208718
0.0184172
0.0164973
0.0149579
0.0137389
0.0132428
0.0131003
0.0130858
0.01341
0.0138519
0.0141274
0.0139464
0.0130883
0.011452
0.00909576
0.00623358
0.00306616
-0.000114166
-0.00293935
-0.00525283
-0.00719022
-0.00753174
0.0515518
0.0515449
0.0513617
0.0509012
0.0503115
0.0497052
0.048965
0.0478735
0.0464184
0.044685
0.042713
0.0404637
0.0379883
0.0352326
0.0322708
0.0291775
0.0260771
0.0230777
0.0203896
0.0180248
0.0161049
0.014567
0.0134394
0.0129202
0.0129703
0.012964
0.0134929
0.0141378
0.0146687
0.0147894
0.0142911
0.0130164
0.0110032
0.00848307
0.00565143
0.0027034
-0.00014253
-0.00287558
-0.00544772
-0.00777999
0.0516529
0.0516137
0.051405
0.050898
0.0502829
0.0496594
0.0489102
0.0477674
0.0462375
0.0444572
0.042435
0.040143
0.0376359
0.0348738
0.0318954
0.0287525
0.0255816
0.0225645
0.0198681
0.0175355
0.0156603
0.0140973
0.0130157
0.0125125
0.0126528
0.0128274
0.0134128
0.0141805
0.014864
0.0151615
0.0148215
0.0136763
0.0116785
0.00893819
0.00568064
0.00215634
-0.00114884
-0.00385692
-0.00582152
-0.00690588
0.0517709
0.0516861
0.0514522
0.0509218
0.0502835
0.0496479
0.0488685
0.0477023
0.0461063
0.0442438
0.0421774
0.0398619
0.0373402
0.0345133
0.0314635
0.0282805
0.0250598
0.0220331
0.0193123
0.0169412
0.0150432
0.0134675
0.0124414
0.0119644
0.0122769
0.0125727
0.0132924
0.0142778
0.0152224
0.0158121
0.0158331
0.0150548
0.0134092
0.01101
0.00808497
0.00482321
0.00151267
-0.0016519
-0.00445874
-0.00684323
0.0519063
0.0517648
0.0515142
0.0509806
0.0503259
0.0496702
0.048868
0.0476562
0.045992
0.044076
0.0419557
0.0395965
0.0370092
0.0341087
0.031006
0.027791
0.0245114
0.0214109
0.0186373
0.0162652
0.0143473
0.0127554
0.0118021
0.0114018
0.0117551
0.01224
0.0131524
0.0142416
0.0154294
0.0163165
0.0166751
0.0162402
0.0148277
0.0124118
0.00919031
0.00544197
0.00151961
-0.00211156
-0.00493517
-0.00694618
0.0520608
0.0518626
0.0515997
0.0510756
0.0504052
0.0497336
0.0488913
0.0476381
0.045926
0.0439264
0.0417359
0.039315
0.0366559
0.0337085
0.0305255
0.0272381
0.02388
0.0207222
0.0179234
0.0155494
0.0134672
0.0118874
0.0109638
0.0105978
0.010965
0.0118308
0.0128803
0.0140438
0.0155968
0.0168339
0.0175931
0.0175515
0.0165272
0.0144358
0.0114725
0.00785729
0.00397993
0.000259506
-0.00323827
-0.00607631
0.0522453
0.0520032
0.0517295
0.0512122
0.0505326
0.0498395
0.0489485
0.0476426
0.045883
0.043809
0.0415215
0.0390401
0.0363078
0.0332673
0.0299816
0.0266262
0.0232132
0.0199773
0.017106
0.0146476
0.0124585
0.0108808
0.0100074
0.00967017
0.0101687
0.0112349
0.0124596
0.0138589
0.0156987
0.0172329
0.0183847
0.0188103
0.0182339
0.0165061
0.0137132
0.0099548
0.00561833
0.00107181
-0.00286241
-0.00578373
0.0524724
0.052184
0.0519009
0.0513934
0.0507149
0.0499805
0.0490451
0.0476888
0.0458597
0.0436897
0.0413232
0.0387709
0.0359188
0.032772
0.0294134
0.0259611
0.0224709
0.0191148
0.016145
0.0135873
0.0113562
0.00977443
0.00888143
0.00860091
0.00913377
0.0102958
0.011806
0.0135417
0.0156438
0.0174711
0.0191365
0.0200481
0.0200075
0.0187683
0.0163144
0.0126973
0.0083122
0.00344897
-0.000968478
-0.00465943
0.0527406
0.0524129
0.0521264
0.0516356
0.0509376
0.0501634
0.0491811
0.0477496
0.0458568
0.0436205
0.041142
0.038479
0.0355112
0.0322594
0.028793
0.025213
0.0216259
0.0181474
0.0150631
0.0124046
0.0101327
0.00848114
0.00753574
0.00732397
0.00785502
0.00921893
0.0110074
0.0130315
0.0154704
0.0176745
0.019801
0.0212214
0.021734
0.0211193
0.019176
0.0156595
0.0112633
0.00583212
0.000756798
-0.00398532
0.0530719
0.0526947
0.0524123
0.0519369
0.0512174
0.0503904
0.0493262
0.047859
0.0458818
0.0435465
0.0409493
0.0381646
0.0350909
0.0316852
0.0280939
0.0243706
0.0206745
0.0170679
0.013844
0.0110545
0.00870583
0.00696198
0.00599221
0.00588986
0.00645834
0.00790147
0.00991234
0.0122024
0.0149596
0.0176055
0.020271
0.0222831
0.0234262
0.023447
0.0221546
0.0192514
0.0150196
0.00920006
0.00325103
-0.00205034
0.0534878
0.0530609
0.0527673
0.0523024
0.0515547
0.0506581
0.0495355
0.0479871
0.045933
0.0434946
0.0407671
0.0378389
0.0346278
0.0310451
0.0273259
0.0234534
0.0195919
0.0158319
0.0124578
0.00953126
0.00710766
0.00530135
0.00425884
0.00416979
0.00481705
0.00629731
0.00844325
0.0110986
0.0142043
0.0173011
0.0204979
0.0231971
0.0250838
0.0258115
0.02532
0.0231737
0.0192929
0.0136265
0.00673126
0.000482142
0.0540034
0.0535134
0.0531906
0.052717
0.0519439
0.0509864
0.0497831
0.0481378
0.0459933
0.0434649
0.0405825
0.0374584
0.0341054
0.0303485
0.0264526
0.0224097
0.0183603
0.0144227
0.0108925
0.00783621
0.00526471
0.00337029
0.002284
0.00217549
0.00291318
0.00445813
0.00671014
0.00961298
0.013056
0.0166206
0.0203311
0.0237181
0.0264225
0.0280437
0.0284262
0.0272964
0.0240836
0.0192238
0.0124198
0.00501869
0.0545906
0.0540313
0.0536991
0.0531971
0.0523961
0.0513796
0.0500731
0.0483378
0.0460899
0.0434187
0.0403848
0.0370375
0.0335195
0.0295848
0.025464
0.0212266
0.0169941
0.0128499
0.0091028
0.00592026
0.00319057
0.00117619
6.49779e-05
-0.00010782
0.000678606
0.00228765
0.00465537
0.00770661
0.0113628
0.0154883
0.0198282
0.0238231
0.0273864
0.0300625
0.0314144
0.0314948
0.0294315
0.0256306
0.0193539
0.0110468
0.0552722
0.0546653
0.0542851
0.0537604
0.0529264
0.0518195
0.0504099
0.0485675
0.0462016
0.0433536
0.0401483
0.0365812
0.0328513
0.0286932
0.0243384
0.0198978
0.01544
0.011077
0.00705661
0.00371296
0.000884236
-0.00131628
-0.00251459
-0.00275213
-0.00196435
-0.00028103
0.00218999
0.00543334
0.00927164
0.0137729
0.0186775
0.0233886
0.0277156
0.0314479
0.0340065
0.0353455
0.0348122
0.0324608
0.0272816
0.0205924
0.0560649
0.055376
0.0549437
0.0543928
0.0535303
0.0523426
0.0507936
0.0488212
0.0463393
0.0432794
0.0398823
0.0360594
0.0320726
0.0277068
0.0230704
0.0183805
0.0136597
0.00909533
0.00478778
0.00117587
-0.00173607
-0.00409891
-0.00545716
-0.00576176
-0.0050105
-0.00326136
-0.000726271
0.0026544
0.00674292
0.0114607
0.0167678
0.0221481
0.027259
0.0319733
0.0359109
0.0387314
0.0397554
0.0394529
0.0360516
0.031864
0.0569487
0.0561795
0.0557261
0.0551377
0.0542133
0.0529416
0.0512424
0.0491045
0.0464482
0.0431864
0.0395553
0.0354406
0.0311707
0.0265711
0.0216212
0.016647
0.0116203
0.00680332
0.00227087
-0.001677
-0.00481304
-0.00728565
-0.00877776
-0.00919305
-0.00852261
-0.00681821
-0.00420231
-0.000692926
0.00354466
0.00855022
0.0141909
0.0200715
0.0259194
0.0315895
0.0364946
0.0408928
0.0434538
0.0453691
0.0445112
0.0429616
0.0579616
0.0571301
0.0566354
0.0560112
0.0549879
0.0535853
0.0517548
0.04941
0.0465404
0.0430355
0.0391429
0.0347531
0.0301316
0.0252323
0.0199621
0.0146819
0.00931818
0.0041722
-0.000592891
-0.00486481
-0.00828302
-0.0109348
-0.0125645
-0.0130984
-0.0125249
-0.0108836
-0.00826209
-0.00464899
-0.000324693
0.00486976
0.0108073
0.0171188
0.0234556
0.030005
0.0357752
0.0415426
0.0457552
0.0495367
0.0516721
0.0522397
0.0591551
0.0582302
0.0576581
0.0569715
0.055847
0.0543001
0.0522938
0.0497264
0.0466283
0.0428159
0.0386317
0.0339403
0.0289012
0.0236705
0.0180568
0.0123881
0.00666837
0.00114491
-0.00390367
-0.00846997
-0.0121626
-0.0150584
-0.0169568
-0.0176265
-0.0171416
-0.0155499
-0.0130028
-0.00942907
-0.00499537
0.000321909
0.00637359
0.0131362
0.0198438
0.027063
0.03374
0.0404018
0.0462204
0.0514766
0.0558707
0.0589014
0.0605237
0.0594755
0.0588277
0.0580774
0.0568344
0.0550915
0.0528655
0.0500561
0.046689
0.0425342
0.0379913
0.0329639
0.0274441
0.0218235
0.0158362
0.00973561
0.00365451
-0.00231155
-0.00770166
-0.0125823
-0.0166124
-0.0197149
-0.0218743
-0.0227804
-0.0224156
-0.0209226
-0.0183952
-0.0149409
-0.0105671
-0.00503455
0.00099519
0.00795277
0.0150017
0.0225952
0.0300606
0.0373678
0.0445321
0.0511008
0.0568984
0.0624704
0.0621165
0.0609531
0.0601941
0.0593114
0.0579309
0.0559504
0.0534414
0.0502925
0.0466699
0.0422029
0.0371594
0.0317503
0.0257624
0.0196237
0.0132173
0.00662351
0.000142305
-0.00628355
-0.0120835
-0.0172623
-0.0216915
-0.0250716
-0.0274426
-0.0286552
-0.0285184
-0.0271514
-0.0248037
-0.0213168
-0.017179
-0.0116777
-0.0055637
0.00141064
0.00877717
0.0164771
0.0245528
0.0324604
0.0404563
0.0479728
0.0549265
0.0614077
0.0639764
0.0626519
0.0617474
0.0606668
0.0591002
0.0568418
0.0540675
0.0505482
0.0465017
0.0417481
0.0361451
0.0302291
0.0237742
0.0170085
0.0101262
0.00298021
-0.0039792
-0.0108319
-0.0171597
-0.0226928
-0.0274543
-0.0311449
-0.0338023
-0.0352709
-0.0355136
-0.0342109
-0.0321195
-0.0287151
-0.0246116
-0.0193793
-0.0132482
-0.00642176
0.00113305
0.00892102
0.0172163
0.025457
0.0338307
0.0418998
0.0496371
0.0563949
0.0661576
0.0645858
0.0635165
0.0621571
0.0603508
0.0577945
0.0546102
0.0508138
0.0462138
0.0410038
0.0349132
0.0283123
0.0213517
0.0139122
0.0064034
-0.00128433
-0.00887198
-0.0161368
-0.0230002
-0.0289558
-0.034123
-0.0381028
-0.0411355
-0.0427758
-0.0434196
-0.0424567
-0.0405851
-0.0374823
-0.033392
-0.0285022
-0.0225236
-0.0158567
-0.00836201
-0.000549222
0.0077412
0.0161845
0.0247496
0.0330475
0.0409894
0.0477583
0.0685973
0.0667537
0.0654707
0.0638555
0.0616478
0.0588123
0.0550944
0.0508079
0.0457408
0.039833
0.0333067
0.0259834
0.0182535
0.0101984
0.00192788
-0.00634617
-0.0146458
-0.0224078
-0.029818
-0.0362146
-0.0418262
-0.0461003
-0.0494795
-0.0514436
-0.0523423
-0.0518935
-0.0501581
-0.047454
-0.0435724
-0.0389116
-0.0332919
-0.0268979
-0.019704
-0.0119142
-0.00369015
0.00472435
0.0132592
0.0214949
0.0294904
0.0363063
0.0715191
0.0693548
0.0675498
0.0656615
0.0630221
0.0597421
0.0556254
0.0505869
0.045004
0.0383787
0.0310222
0.0230865
0.0144788
0.0056375
-0.00349004
-0.0124334
-0.021429
-0.0297794
-0.0378062
-0.0446611
-0.0506614
-0.0554719
-0.0590304
-0.0614182
-0.0624707
-0.062475
-0.0610532
-0.0587551
-0.0553876
-0.0510926
-0.0459068
-0.0398687
-0.0330418
-0.0255575
-0.0175416
-0.00926184
-0.000790253
0.00735472
0.0152806
0.0219392
0.0748072
0.0723754
0.0700134
0.0675225
0.064493
0.0604786
0.0558566
0.0501542
0.0435502
0.0362897
0.0279607
0.0190631
0.00952907
-0.000187982
-0.0102683
-0.0200076
-0.0296983
-0.0387751
-0.0472397
-0.0547241
-0.0610744
-0.0663404
-0.0701717
-0.0728971
-0.0742918
-0.074623
-0.0737656
-0.071815
-0.0689463
-0.0651557
-0.060537
-0.05507
-0.0487506
-0.0417313
-0.033982
-0.0259597
-0.0176279
-0.00951512
-0.00201898
0.00390937
0.0783918
0.0753913
0.0727469
0.0695257
0.0657938
0.0613215
0.0559399
0.0496477
0.0420433
0.0336313
0.0242054
0.0141382
0.00344858
-0.00735929
-0.0184031
-0.029208
-0.0396192
-0.0494788
-0.0584107
-0.0664474
-0.0732084
-0.0788366
-0.0830693
-0.0860287
-0.0877813
-0.0884497
-0.0880195
-0.0865813
-0.0842269
-0.080957
-0.0772371
-0.0725466
-0.0669708
-0.0605947
-0.0534099
-0.0457039
-0.037564
-0.0298
-0.0223047
-0.0163194
0.0825989
0.0787659
0.0754203
0.0716013
0.0666918
0.0609258
0.0542355
0.0468417
0.038373
0.0288549
0.018275
0.00691747
-0.00494912
-0.0170375
-0.0290493
-0.0409623
-0.052199
-0.0627517
-0.0723034
-0.0807344
-0.0879141
-0.093761
-0.0982752
-0.101568
-0.103568
-0.104671
-0.10473
-0.104141
-0.102735
-0.100605
-0.0972136
-0.0933513
-0.0887311
-0.0833392
-0.0769284
-0.0701664
-0.0625141
-0.0548387
-0.0477221
-0.0415975
0.0873074
0.0827494
0.0788381
0.0746897
0.0694768
0.0628831
0.0547834
0.0454102
0.0350448
0.0235465
0.0110719
-0.00210351
-0.0155655
-0.0291585
-0.0424774
-0.0553379
-0.0675175
-0.0788324
-0.0889043
-0.0977739
-0.105217
-0.111202
-0.115814
-0.119123
-0.121327
-0.122551
-0.122869
-0.122648
-0.121567
-0.12036
-0.118518
-0.11653
-0.113412
-0.10953
-0.10469
-0.0988299
-0.0926725
-0.085741
-0.0787171
-0.073144
0.0915244
0.0850683
0.0793199
0.0731658
0.0660177
0.0575855
0.0479392
0.0370744
0.0251611
0.0122765
-0.00153441
-0.0161115
-0.0310796
-0.0463622
-0.0610257
-0.075086
-0.0880212
-0.0998479
-0.110306
-0.119175
-0.126687
-0.13265
-0.137043
-0.140416
-0.142417
-0.14378
-0.144484
-0.144758
-0.144781
-0.144689
-0.14431
-0.143545
-0.142285
-0.140093
-0.137432
-0.134042
-0.129725
-0.124682
-0.119793
-0.115552
0.0997986
0.0937931
0.0880904
0.0810452
0.0719547
0.0605838
0.0472748
0.032419
0.0166624
6.93288e-06
-0.0171437
-0.0343896
-0.0517855
-0.0691307
-0.0854816
-0.100975
-0.114913
-0.12716
-0.13787
-0.146481
-0.153465
-0.158901
-0.162452
-0.165146
-0.166753
-0.16761
-0.168544
-0.169053
-0.169703
-0.170692
-0.171406
-0.172595
-0.173604
-0.174201
-0.174936
-0.174876
-0.174157
-0.172918
-0.17114
-0.170093
0.0977861
0.0856198
0.0746434
0.0634577
0.0514708
0.0376987
0.0227821
0.0069779
-0.0102427
-0.0284858
-0.0476734
-0.0671317
-0.0865774
-0.105606
-0.123341
-0.139939
-0.154643
-0.167165
-0.177565
-0.185576
-0.191557
-0.195468
-0.197562
-0.19833
-0.198389
-0.197873
-0.197606
-0.197843
-0.198795
-0.200554
-0.203036
-0.206158
-0.209792
-0.2137
-0.21771
-0.221661
-0.225541
-0.229014
-0.232113
-0.235936
0.124079
0.113754
0.100522
0.0839504
0.0646382
0.0435951
0.0206091
-0.00273776
-0.0264745
-0.0497687
-0.0729274
-0.0959648
-0.117999
-0.139063
-0.158341
-0.175703
-0.190907
-0.203292
-0.212989
-0.219899
-0.224194
-0.226115
-0.226
-0.224348
-0.222062
-0.219615
-0.217815
-0.217456
-0.218834
-0.222248
-0.227792
-0.23506
-0.243492
-0.252671
-0.26257
-0.272708
-0.283463
-0.29475
-0.306769
-0.319568
0.0680916
0.0443562
0.0218565
-0.000574071
-0.0233363
-0.0467279
-0.071334
-0.0970108
-0.123865
-0.151485
-0.178988
-0.205738
-0.230938
-0.254186
-0.274956
-0.292831
-0.307235
-0.318019
-0.325003
-0.328406
-0.32836
-0.324925
-0.318661
-0.310061
-0.299953
-0.289462
-0.279742
-0.271763
-0.266573
-0.264403
-0.265993
-0.271135
-0.280163
-0.292313
-0.306736
-0.322651
-0.340522
-0.360484
-0.382245
-0.404122
0.148165
0.116926
0.0817749
0.0475144
0.0119778
-0.022497
-0.0571086
-0.091508
-0.125541
-0.158407
-0.189414
-0.218276
-0.244718
-0.268235
-0.2887
-0.305577
-0.318481
-0.326821
-0.330393
-0.328667
-0.321428
-0.308781
-0.291398
-0.270183
-0.24677
-0.222836
-0.200092
-0.179724
-0.163018
-0.151101
-0.144824
-0.145105
-0.15337
-0.169369
-0.190133
-0.211185
-0.230019
-0.239056
-0.235593
-0.227801
-0.189263
-0.227879
-0.268873
-0.318601
-0.373488
-0.428111
-0.481237
-0.531339
-0.57736
-0.617512
-0.651261
-0.681005
-0.709125
-0.734512
-0.755674
-0.770162
-0.77734
-0.776523
-0.76786
-0.751623
-0.728204
-0.698405
-0.662175
-0.620062
-0.573157
-0.523224
-0.472293
-0.422652
-0.376043
-0.334667
-0.299922
-0.273993
-0.257882
-0.25302
-0.259927
-0.274566
-0.294869
-0.300685
-0.296209
-0.293331
-0.00886897
-0.00741508
-0.00986886
-0.0128218
-0.0156787
-0.0193198
-0.0229127
-0.0234
-0.0194206
-0.0123967
-0.000913454
0.00534374
0.0110791
0.00971086
0.00991626
0.00707272
0.00562921
0.00399185
0.00276594
0.0018595
0.00110458
0.000661115
0.000275735
0.000139434
1.05331e-05
5.08521e-05
8.72029e-05
0.00017593
0.000251115
0.000347267
0.000485989
0.000597178
0.000731671
0.000842178
0.000989235
0.00113186
0.00130602
0.00139157
0.00105753
0.000819602
-0.0066365
-0.00789134
-0.0105711
-0.0140508
-0.0176067
-0.0219552
-0.0265546
-0.0275201
-0.0230258
-0.0144856
-0.00167905
0.00696291
0.0127733
0.0118991
0.0106595
0.00797248
0.00604205
0.00431511
0.0028123
0.00187151
0.0010099
0.000561173
0.000119624
-2.03303e-05
-0.000154018
-8.43609e-05
-5.14259e-05
5.0085e-05
0.000109622
0.000219595
0.000343297
0.000476687
0.000620016
0.000766416
0.000928266
0.00109398
0.00127919
0.00131335
0.00100096
0.00031251
-0.00743978
-0.00857105
-0.0114742
-0.015501
-0.0199405
-0.0252215
-0.0310334
-0.0325379
-0.0274105
-0.0168176
-0.00300758
0.00871315
0.0148085
0.0139809
0.0116546
0.00894619
0.00652882
0.0046889
0.00294006
0.00193983
0.00103859
0.000509433
2.8705e-05
-0.000154038
-0.000286469
-0.000220933
-0.000210451
-9.83716e-05
-4.42434e-05
8.50835e-05
0.000193752
0.000341811
0.00047654
0.000630752
0.00081039
0.00100944
0.00121361
0.00130668
0.00136809
0.00149227
-0.00618213
-0.00912648
-0.012684
-0.0173268
-0.0228199
-0.0292953
-0.0366237
-0.038612
-0.032663
-0.0194356
-0.00470876
0.0103599
0.0169734
0.0159555
0.0128738
0.00996136
0.00703951
0.00509732
0.00315011
0.00206105
0.00110927
0.000480974
-2.13796e-05
-0.000284547
-0.000417314
-0.000393951
-0.00038708
-0.000273611
-0.000209532
-5.30728e-05
4.19145e-05
0.000187472
0.000315297
0.000480435
0.000689987
0.00092318
0.00114524
0.00123418
0.00116299
0.000870754
-0.00737332
-0.00964632
-0.0139594
-0.0194325
-0.0262516
-0.0342951
-0.0436527
-0.046106
-0.0389144
-0.0224329
-0.00658111
0.0117503
0.019444
0.0177821
0.0142137
0.0109582
0.00756838
0.00551526
0.00341655
0.00220082
0.00113304
0.000402191
-0.000112752
-0.000444207
-0.000577449
-0.000597408
-0.000574162
-0.000458582
-0.00035885
-0.000192311
-8.47535e-05
8.02646e-05
0.000232205
0.000417149
0.000646369
0.000878101
0.00107798
0.00118807
0.00133079
0.00152733
-0.00629708
-0.0101207
-0.0152652
-0.0216477
-0.0302065
-0.0403786
-0.0523983
-0.0554661
-0.0462802
-0.0260466
-0.00847909
0.012975
0.02186
0.0195154
0.0155989
0.0118611
0.00820725
0.00589715
0.00370031
0.00229998
0.00109223
0.000270876
-0.000250277
-0.000604478
-0.000731066
-0.000806438
-0.000773412
-0.000674834
-0.000552966
-0.000383642
-0.00020636
2.15135e-05
0.000208856
0.000414111
0.000615359
0.000811576
0.000982523
0.00109325
0.00116888
0.00116267
-0.00772452
-0.010859
-0.0168841
-0.0242818
-0.0349524
-0.0480984
-0.0634198
-0.0671846
-0.0549697
-0.0304135
-0.0103453
0.0139067
0.0242747
0.0211982
0.0169598
0.0126982
0.00891797
0.00621764
0.00399376
0.00237445
0.00108243
0.000182082
-0.000390617
-0.000765561
-0.000935633
-0.0010695
-0.0010542
-0.000990116
-0.000848295
-0.000667497
-0.000425296
-0.000165522
4.83874e-05
0.000274824
0.000453607
0.000674551
0.00086423
0.00101388
0.00118053
0.00137061
-0.00679057
-0.0114621
-0.0190803
-0.0277139
-0.0409292
-0.058399
-0.0778844
-0.082072
-0.0653122
-0.0355395
-0.012395
0.0146779
0.0264595
0.0227004
0.0182543
0.0135483
0.00957903
0.00653054
0.00432848
0.00248622
0.00115063
0.000158831
-0.000486276
-0.000929972
-0.00116796
-0.00135167
-0.00136778
-0.00131186
-0.00118419
-0.00101734
-0.000780822
-0.000521843
-0.000277369
-1.11525e-05
0.0002236
0.000525293
0.000750039
0.000960039
0.00109726
0.00123625
-0.00816439
-0.0121036
-0.0213132
-0.0317746
-0.0482785
-0.0720976
-0.0976465
-0.101169
-0.0778005
-0.0415917
-0.0142916
0.014947
0.0280476
0.0239896
0.01944
0.0142083
0.0101254
0.00686239
0.0045539
0.00257273
0.00122548
0.000123927
-0.000554521
-0.00106242
-0.00132887
-0.00152371
-0.00155439
-0.00153222
-0.00143619
-0.00126746
-0.00105506
-0.000781539
-0.000529112
-0.000207301
7.77233e-05
0.000415664
0.000648666
0.000865747
0.000971869
0.00111074
-0.00798573
-0.012794
-0.0232856
-0.0360641
-0.0576278
-0.0916217
-0.123558
-0.126219
-0.0928494
-0.048782
-0.0164834
0.0151409
0.0288354
0.0248609
0.0203266
0.0145061
0.0105213
0.00709759
0.00461775
0.00257857
0.00119177
1.70195e-05
-0.000678761
-0.00121754
-0.00148476
-0.00167456
-0.00169892
-0.0016732
-0.00154334
-0.00134862
-0.00111239
-0.000829434
-0.000611352
-0.000291188
-5.18334e-05
0.000260822
0.000456953
0.000719187
0.000930215
0.00116262
-0.00909042
-0.0142913
-0.0251117
-0.0404405
-0.0699925
-0.121702
-0.158318
-0.157646
-0.110625
-0.0573991
-0.0190224
0.01532
0.0283053
0.0251178
0.020631
0.0146725
0.0107264
0.00712533
0.00453244
0.00240131
0.00095455
-0.000247472
-0.000999575
-0.00158213
-0.00187046
-0.00205656
-0.00203851
-0.00197554
-0.00176613
-0.00153136
-0.00125269
-0.00101052
-0.000822953
-0.000553079
-0.000364267
-7.16337e-05
0.000135614
0.000462451
0.000663287
0.000872106
-0.00852062
-0.0162921
-0.0269659
-0.0465606
-0.0875211
-0.154656
-0.208671
-0.194097
-0.130257
-0.0677139
-0.0220678
0.0158379
0.0263986
0.0243401
0.0201512
0.0147788
0.0106741
0.00707495
0.00433085
0.00216457
0.000618249
-0.000613298
-0.00148778
-0.00211988
-0.00245471
-0.00266549
-0.0026327
-0.00255543
-0.00228234
-0.00205901
-0.0017541
-0.00155998
-0.00130584
-0.00106839
-0.000789591
-0.000484267
-0.000216609
0.000203013
0.000559936
0.000972075
-0.00811512
-0.0181689
-0.0292156
-0.0550502
-0.120077
-0.192333
-0.270844
-0.235652
-0.150511
-0.0784072
-0.0262783
0.0156602
0.02309
0.0225873
0.0191131
0.0143628
0.010384
0.0069132
0.00415995
0.00203423
0.000367271
-0.000828251
-0.00183827
-0.00249118
-0.00288699
-0.00314836
-0.00315286
-0.00311013
-0.00283331
-0.00266788
-0.00232828
-0.00210294
-0.00171015
-0.00141609
-0.00101043
-0.000759748
-0.000396389
1.60664e-05
0.000310873
0.000620782
-0.00871735
-0.0193492
-0.0323515
-0.0625392
-0.151121
-0.250883
-0.344246
-0.278341
-0.169934
-0.0892055
-0.0302175
0.0124451
0.01882
0.0200461
0.0172994
0.0131962
0.00971728
0.00642271
0.0039313
0.00183931
0.000229878
-0.00091874
-0.00191021
-0.00257546
-0.00299293
-0.00330788
-0.0033743
-0.00338226
-0.00312652
-0.00299059
-0.00259552
-0.00233009
-0.00184839
-0.00150111
-0.00108969
-0.000881578
-0.000450693
-0.000126584
0.000214946
0.000688304
-0.00869428
-0.0200813
-0.0363595
-0.0719902
-0.175434
-0.329377
-0.420816
-0.313868
-0.186222
-0.0985362
-0.0334355
0.00456695
0.0131763
0.0162986
0.0142438
0.0113478
0.00827322
0.00545163
0.00328253
0.00128399
-8.2043e-05
-0.00127656
-0.00214475
-0.00281836
-0.00322587
-0.00354945
-0.0035966
-0.00362055
-0.0033781
-0.00324096
-0.00284832
-0.00258197
-0.00207831
-0.00176277
-0.00138479
-0.00112374
-0.000688444
-0.000457926
-9.87394e-05
0.000241642
-0.00756732
-0.0198001
-0.0369042
-0.0881348
-0.206788
-0.416615
-0.481998
-0.327832
-0.198961
-0.104996
-0.0390714
-0.00689539
0.00431398
0.010715
0.00991298
0.00863477
0.00600718
0.00389328
0.00202302
0.000238335
-0.000956236
-0.00218875
-0.00300213
-0.00365178
-0.00401751
-0.00424414
-0.00426491
-0.00420901
-0.00398902
-0.00382119
-0.00347121
-0.00317827
-0.00271768
-0.00241505
-0.00202068
-0.0016986
-0.00126599
-0.000958324
-0.000457265
2.18713e-05
-0.00435202
-0.0164494
-0.0268166
-0.102494
-0.243181
-0.465753
-0.487121
-0.324088
-0.201936
-0.10894
-0.0501376
-0.0211865
-0.00734395
0.00258064
0.00395457
0.00487271
0.00291193
0.00194142
0.000249438
-0.00105593
-0.00230324
-0.00334443
-0.0042248
-0.00474267
-0.00516384
-0.00520213
-0.00528812
-0.00503164
-0.00491851
-0.00463356
-0.00434879
-0.00396332
-0.0035711
-0.00320172
-0.00279326
-0.00237001
-0.00187327
-0.00148227
-0.000970546
-0.000644056
0.000607119
-0.0066057
-0.0145997
-0.0925977
-0.247511
-0.417516
-0.415754
-0.290266
-0.196306
-0.113941
-0.066507
-0.0391589
-0.0213452
-0.00882218
-0.00383237
-0.000219321
-0.000979093
-0.00030954
-0.00180391
-0.00231718
-0.00368822
-0.00426542
-0.0053138
-0.00559189
-0.00617405
-0.00601167
-0.00618108
-0.00577689
-0.00578815
-0.00533659
-0.00514659
-0.00463866
-0.00428673
-0.00375677
-0.0033346
-0.00282416
-0.00234223
-0.00188443
-0.00142159
-0.00118839
0.00955307
0.0102572
-0.00432553
-0.0625939
-0.200185
-0.322047
-0.302353
-0.241621
-0.180099
-0.120739
-0.0885314
-0.0613506
-0.0394633
-0.0241402
-0.0138755
-0.00709423
-0.00568544
-0.00335072
-0.00408581
-0.00370313
-0.00502084
-0.00511724
-0.00621883
-0.00623491
-0.00683198
-0.00656415
-0.0067915
-0.00635327
-0.00637069
-0.00584147
-0.00565696
-0.00512288
-0.00470547
-0.00409882
-0.00370571
-0.00314314
-0.00274553
-0.00225614
-0.00186294
-0.001652
0.0229286
0.0254202
0.0147267
-0.0306042
-0.130878
-0.217021
-0.213989
-0.20074
-0.167758
-0.140193
-0.117271
-0.0903395
-0.06404
-0.0435268
-0.0272186
-0.016507
-0.0113991
-0.00790356
-0.0069552
-0.00599012
-0.006681
-0.00648423
-0.00718565
-0.00713149
-0.00743793
-0.00728656
-0.0073613
-0.00701449
-0.00694684
-0.00642803
-0.00624288
-0.00568325
-0.00524693
-0.00465435
-0.00420776
-0.00366343
-0.00327776
-0.00272858
-0.00239171
-0.00215017
0.0393124
0.0396034
0.0388537
0.00660016
-0.0754409
-0.127518
-0.154705
-0.169423
-0.163991
-0.164581
-0.148491
-0.127114
-0.0972338
-0.0679111
-0.0446856
-0.0287022
-0.0188849
-0.0145372
-0.0108254
-0.00969223
-0.00893413
-0.00880623
-0.00876527
-0.00892626
-0.00872501
-0.00882766
-0.00853788
-0.0084201
-0.00816655
-0.00780303
-0.00752352
-0.00696317
-0.00646576
-0.00580934
-0.00528167
-0.00463113
-0.00413022
-0.0035114
-0.00309788
-0.0027904
0.0531288
0.0552962
0.0591272
0.0338215
-0.0281021
-0.0724623
-0.119642
-0.147446
-0.164827
-0.18363
-0.181601
-0.171434
-0.134899
-0.0982132
-0.0669952
-0.0445403
-0.0292825
-0.0221022
-0.0158635
-0.0141763
-0.0119904
-0.0120436
-0.0111204
-0.0115734
-0.0109195
-0.011126
-0.010467
-0.0105625
-0.0099811
-0.0097995
-0.00922537
-0.00873859
-0.00801602
-0.0073418
-0.00656349
-0.00586903
-0.00516563
-0.00450432
-0.00403721
-0.0036532
0.0630429
0.0686092
0.0697084
0.0473146
0.00199068
-0.0488936
-0.0976478
-0.135169
-0.170813
-0.20628
-0.220052
-0.215888
-0.181088
-0.139904
-0.0951643
-0.0638926
-0.0416614
-0.0301299
-0.0217043
-0.0182523
-0.0154014
-0.0147499
-0.0135106
-0.0137751
-0.0128639
-0.0129464
-0.0122089
-0.0120913
-0.011395
-0.0112502
-0.0104517
-0.0100148
-0.00916735
-0.00851157
-0.00766443
-0.00701065
-0.0061718
-0.00557612
-0.00492622
-0.00462863
0.0685243
0.0737153
0.0716509
0.0505388
0.0115024
-0.0394629
-0.0856468
-0.128719
-0.177275
-0.228656
-0.261456
-0.268715
-0.241029
-0.185735
-0.130383
-0.0865263
-0.0560345
-0.0387097
-0.0281378
-0.0218608
-0.0187086
-0.0165267
-0.015594
-0.0148701
-0.0141706
-0.0137584
-0.0131811
-0.0128057
-0.0123756
-0.011946
-0.0112678
-0.0108339
-0.0100666
-0.00946008
-0.00862362
-0.00797146
-0.00718079
-0.00651398
-0.00582236
-0.00569428
0.0688719
0.0714709
0.0660869
0.0454618
0.00971908
-0.0369867
-0.0796959
-0.124524
-0.1803
-0.247318
-0.298831
-0.322495
-0.307139
-0.241152
-0.174425
-0.115519
-0.0741286
-0.0495834
-0.0363527
-0.0272013
-0.0233485
-0.0197352
-0.0188761
-0.0171205
-0.0167392
-0.0156449
-0.0153633
-0.0145736
-0.0142806
-0.013436
-0.0129939
-0.0122763
-0.0115629
-0.010701
-0.00984725
-0.00909598
-0.00826506
-0.00756564
-0.00705199
-0.00691057
0.0642208
0.0631829
0.0553773
0.0368057
0.00450443
-0.0376601
-0.077355
-0.120598
-0.177147
-0.257491
-0.322501
-0.367214
-0.372376
-0.311725
-0.225553
-0.152399
-0.0971104
-0.0632913
-0.0460657
-0.0353756
-0.0295261
-0.025798
-0.0239518
-0.0222135
-0.0213816
-0.0201193
-0.0195902
-0.0184656
-0.0178167
-0.0167746
-0.0161935
-0.0150647
-0.0142062
-0.0130226
-0.0121408
-0.0111044
-0.0101283
-0.00926742
-0.00870403
-0.00838616
0.0552604
0.0524079
0.0425259
0.0251113
-0.00302421
-0.0405243
-0.0782056
-0.11807
-0.174766
-0.248282
-0.320584
-0.384615
-0.414956
-0.377679
-0.281273
-0.189221
-0.121157
-0.07582
-0.0535933
-0.04168
-0.0339057
-0.0305953
-0.0279648
-0.026963
-0.0255667
-0.0249653
-0.0239295
-0.0231051
-0.0221946
-0.0212942
-0.0202831
-0.0191132
-0.0179605
-0.0167316
-0.0155159
-0.0142241
-0.0130227
-0.0118407
-0.0108847
-0.0105397
0.0424575
0.038774
0.0268889
0.0104542
-0.0119282
-0.041759
-0.0792577
-0.119309
-0.16776
-0.229014
-0.296528
-0.355307
-0.388233
-0.372127
-0.305264
-0.212996
-0.13647
-0.0840556
-0.0560548
-0.0424411
-0.0341759
-0.0305026
-0.0285741
-0.0278728
-0.0271857
-0.0271376
-0.0264497
-0.0262763
-0.025513
-0.0249455
-0.0239785
-0.0231214
-0.0218975
-0.0206157
-0.0191748
-0.0178541
-0.0163444
-0.0148269
-0.0135743
-0.0132699
0.0265812
0.0226814
0.0101772
-0.00686389
-0.0264587
-0.0511802
-0.083309
-0.117474
-0.153468
-0.196461
-0.244386
-0.287281
-0.315615
-0.311701
-0.254064
-0.185079
-0.126712
-0.0829731
-0.0523125
-0.0392309
-0.032233
-0.0284758
-0.0273461
-0.0266382
-0.0268596
-0.0268051
-0.0269612
-0.026946
-0.02689
-0.0265789
-0.0261686
-0.0254872
-0.0244685
-0.0233195
-0.0219231
-0.0204876
-0.0189795
-0.0177257