/*--------------------------------*- C++ -*----------------------------------*\
  =========                 |
  \\      /  F ield         | OpenFOAM: The Open Source CFD Toolbox
   \\    /   O peration     | Website:  https://openfoam.org
    \\  /    A nd           | Version:  11
     \\/     M anipulation  |
\*---------------------------------------------------------------------------*/
FoamFile
{
    format      ascii;
    class       surfaceScalarField;
    location    "6.5";
    object      phi;
}
// * * * * * * * * * * * * * * * * * * * * * * * * * * * * * * * * * * * * * //

dimensions      [0 3 -1 0 0 0 0];

internalField   nonuniform List<scalar> 
18960
(
0.0890066
0.000402853
-0.0894095
0.0886256
0.000381038
0.088276
0.000349597
0.0879828
0.000293173
0.0877376
0.000245238
0.0875092
0.000228427
0.0873021
0.0002071
0.0871392
0.000162821
0.0870141
0.000125176
0.08694
7.41019e-05
0.0869033
3.66789e-05
0.0868997
3.54359e-06
0.0869265
-2.67532e-05
0.0869951
-6.86391e-05
0.0870946
-9.94461e-05
0.0872406
-0.000146019
0.0874709
-0.000230332
0.0876557
-0.000184747
0.0876044
5.12556e-05
0.0871137
0.00049071
0.0859497
0.00116404
0.0846396
0.00131009
0.0837999
0.00083965
0.0835858
0.000214157
0.0838362
-0.000250454
0.0846973
-0.000861032
0.0860285
-0.00133125
0.0874336
-0.00140507
0.088686
-0.00125246
0.0899494
-0.00126338
0.0910904
-0.00114099
0.0921334
-0.00104304
0.0928145
-0.000681033
0.0931938
-0.000379348
0.0932858
-9.19689e-05
0.0932699
1.59021e-05
0.0931151
0.000154763
0.0929463
0.000168855
0.092484
0.000462287
-0.000602605
0.0930866
0.089103
0.000727702
-0.0894278
0.0888023
0.000681662
0.0885175
0.000634403
0.0882471
0.000563645
0.0880038
0.000488507
0.0877994
0.000432796
0.0876434
0.000363079
0.0875477
0.000258593
0.0874847
0.000188167
0.0874225
0.000136294
0.0874301
2.90999e-05
0.0875273
-9.37017e-05
0.0876607
-0.000160118
0.0877635
-0.000171426
0.0878726
-0.000208601
0.0880244
-0.000297835
0.0881735
-0.000379407
0.0883805
-0.000391759
0.0885926
-0.000160831
0.0888078
0.000275489
0.0890336
0.000938259
0.0891475
0.00119624
0.0890284
0.00095869
0.0888559
0.000386638
0.088859
-0.000253511
0.0890567
-0.00105876
0.0895508
-0.00182537
0.0903395
-0.00219374
0.0912958
-0.00220876
0.0923223
-0.00228989
0.0933479
-0.0021666
0.0943514
-0.00204651
0.095241
-0.00157067
0.0960036
-0.00114192
0.0965324
-0.000620786
0.0969092
-0.000360886
0.097065
-1.00884e-06
0.0972175
1.63301e-05
0.0972585
0.000421271
9.72221e-05
0.0965587
0.0891359
0.00105043
-0.0894587
0.0888252
0.000992397
0.0885457
0.000913878
0.08831
0.000799404
0.0880902
0.000708227
0.0879086
0.000614487
0.087765
0.000506593
0.0876627
0.000360969
0.0875916
0.000259214
0.0875564
0.000171495
0.0875847
8.31949e-07
0.0876992
-0.000208166
0.0878022
-0.000263134
0.0879004
-0.000269641
0.0879556
-0.00026382
0.0880444
-0.000386629
0.0882858
-0.000620794
0.0886283
-0.000734248
0.0889688
-0.000501325
0.0891717
7.25872e-05
0.0891978
0.000912084
0.0890986
0.0012955
0.0887902
0.00126702
0.088423
0.000753923
0.0882677
-9.82292e-05
0.0884289
-0.00121999
0.0887582
-0.00215469
0.0894376
-0.00287307
0.0901837
-0.00295494
0.091082
-0.00318813
0.091879
-0.00296364
0.0927436
-0.00291113
0.0935602
-0.00238728
0.0943389
-0.00192053
0.0948807
-0.00116259
0.0952369
-0.000717097
0.0953979
-0.000162087
0.0955278
-0.000113555
0.0954778
0.000471261
1.87088e-05
0.0955564
0.0891394
0.00137504
-0.089464
0.0888477
0.00128406
0.0885661
0.00119548
0.0883355
0.00102997
0.088121
0.000922775
0.087956
0.00077951
0.0878066
0.000655966
0.0877026
0.000464979
0.0876366
0.000325158
0.0876525
0.00015559
0.0876365
1.68343e-05
0.0876855
-0.000257078
0.0877976
-0.000375244
0.0879393
-0.000411413
0.0880147
-0.000339231
0.0881106
-0.000482512
0.0882832
-0.000793382
0.0885663
-0.00101733
0.0888682
-0.00080323
0.0890707
-0.000129874
0.0892739
0.000708845
0.0894279
0.00114146
0.089598
0.00109698
0.0898035
0.00054844
0.0900126
-0.0003074
0.0903207
-0.00152809
0.0906716
-0.00250552
0.0912002
-0.00340165
0.0918332
-0.00358799
0.0926308
-0.00398575
0.0934274
-0.00376022
0.0943305
-0.00381422
0.0952132
-0.00326998
0.0961405
-0.00284778
0.0968921
-0.00191426
0.0975392
-0.00136419
0.0978481
-0.000470965
0.0980145
-0.000279932
0.0980579
0.000427814
0.000418846
0.0976578
0.0891684
0.00167142
-0.0894648
0.0888763
0.00157622
0.0886049
0.00146683
0.0883717
0.00126316
0.0881656
0.00112887
0.0879988
0.000946307
0.0878496
0.000805221
0.0877904
0.000524177
0.0877206
0.000394912
0.0876996
0.000176654
0.0877389
-2.24611e-05
0.0877872
-0.000305417
0.0878443
-0.000432371
0.087949
-0.000516113
0.0881249
-0.00051511
0.0883285
-0.000686088
0.0884441
-0.000908959
0.0884887
-0.00106193
0.0886093
-0.000923841
0.0889858
-0.000506403
0.0895038
0.000190825
0.0899672
0.000678079
0.0902097
0.000854439
0.0902899
0.000468297
0.0901791
-0.000196634
0.0900741
-0.00142306
0.0900297
-0.00246109
0.0901948
-0.0035668
0.0906113
-0.00400451
0.0911715
-0.00454596
0.0918849
-0.00447363
0.0925742
-0.00450345
0.0933046
-0.00400037
0.0940573
-0.00360049
0.0947741
-0.00263109
0.0953512
-0.00194132
0.0958178
-0.000937482
0.0961279
-0.000590045
0.0964268
0.000128855
0.000129086
0.0967166
0.0891769
0.00197106
-0.0894766
0.0888949
0.00185827
0.0886361
0.00172564
0.0884109
0.0014883
0.0882073
0.00133255
0.0880519
0.00110162
0.0879245
0.000932663
0.0878482
0.000600455
0.0877951
0.000448043
0.0878154
0.000156366
0.0877898
3.10414e-06
0.0878426
-0.000358244
0.0879407
-0.000530417
0.0880936
-0.000669015
0.0882042
-0.000625698
0.0882968
-0.00077872
0.0883821
-0.000994262
0.0885347
-0.00121456
0.0887846
-0.00117366
0.0890658
-0.000787631
0.0893742
-0.000117604
0.089699
0.000353299
0.0899591
0.000594294
0.090246
0.000181477
0.0905256
-0.000476251
0.0907928
-0.00169024
0.091041
-0.00270929
0.0913974
-0.00392323
0.0918788
-0.00448592
0.0925207
-0.00518787
0.0932495
-0.00520239
0.0941108
-0.00536478
0.0950153
-0.00490487
0.0960251
-0.00461027
0.0970073
-0.00361335
0.0979306
-0.00286455
0.0985476
-0.00155445
0.0989172
-0.000959652
0.099003
4.30569e-05
0.000365363
0.0987667
0.0891941
0.00226815
-0.0894912
0.0889338
0.00211848
0.0886836
0.00197592
0.0884735
0.00169836
0.088272
0.00153409
0.0881277
0.00124594
0.0879878
0.00107254
0.0879083
0.000679941
0.0878839
0.000472397
0.0878866
0.00015372
0.0878572
3.24744e-05
0.0878999
-0.000400916
0.0880265
-0.000657048
0.0881898
-0.000832288
0.0882879
-0.000723813
0.0883509
-0.000841677
0.0884584
-0.00110181
0.0886196
-0.00137578
0.0887877
-0.0013417
0.0890255
-0.00102545
0.0893134
-0.000405486
0.0896802
-1.35659e-05
0.0900562
0.000218336
0.0903921
-0.000154422
0.0906087
-0.000692864
0.0907003
-0.0017818
0.0907395
-0.00274856
0.0908204
-0.00400411
0.0910186
-0.00468409
0.0913877
-0.00555699
0.0919333
-0.00574797
0.0925755
-0.00600703
0.0932987
-0.00562808
0.0940213
-0.00533279
0.0947723
-0.00436435
0.0955204
-0.00361273
0.0962662
-0.00230022
0.0968259
-0.00151929
0.0973965
-0.000527551
-0.00012839
0.0978902
0.0892058
0.002555
-0.0894927
0.0889483
0.00237606
0.0887043
0.00221988
0.088491
0.00191166
0.0883142
0.00171092
0.0881778
0.00138227
0.0880608
0.00118954
0.08801
0.000730761
0.0879655
0.000516963
0.0879433
0.000175873
0.0879623
1.34437e-05
0.0880412
-0.000479756
0.0881201
-0.000735966
0.0882212
-0.000933438
0.0883548
-0.000857422
0.0884894
-0.000976209
0.0885771
-0.00118951
0.0886418
-0.00144047
0.0887793
-0.00147921
0.0890227
-0.00126883
0.0893663
-0.000749154
0.0897238
-0.000371038
0.0899784
-3.62588e-05
0.0901614
-0.000337386
0.0903149
-0.000846408
0.0905235
-0.00199044
0.0907878
-0.00301277
0.0911134
-0.00432978
0.0915376
-0.00510828
0.0920881
-0.00610748
0.0927966
-0.00645643
0.0936174
-0.00682789
0.0945546
-0.00656525
0.0956225
-0.00640072
0.0967483
-0.00549014
0.0978993
-0.00476374
0.0989069
-0.00330779
0.09967
-0.0022824
0.0999974
-0.000854969
-0.000154193
0.100023
0.0892508
0.00283195
-0.0895278
0.0889949
0.00263194
0.0887701
0.00244469
0.0885739
0.00210786
0.0884277
0.00185714
0.0882813
0.00152863
0.0881849
0.00128602
0.0881052
0.000810439
0.0880714
0.000550743
0.0880928
0.000154497
0.0881093
-3.09593e-06
0.088121
-0.000491399
0.0881973
-0.000812254
0.0883406
-0.00107681
0.0884861
-0.0010029
0.0885906
-0.00108075
0.088664
-0.00126287
0.0887299
-0.00150641
0.0888411
-0.00159042
0.0890548
-0.00148252
0.0893097
-0.00100401
0.0896039
-0.000665221
0.089899
-0.000331353
0.090154
-0.000592428
0.0903703
-0.00106271
0.0904449
-0.002065
0.0905351
-0.00310301
0.0907071
-0.00450175
0.0909764
-0.00537762
0.0913375
-0.00646855
0.0918205
-0.0069394
0.0924742
-0.00748159
0.093243
-0.00733414
0.0940607
-0.00721833
0.0949238
-0.00635329
0.0957214
-0.00556136
0.0966196
-0.00420597
0.0974746
-0.00313739
0.0983317
-0.00171211
-0.000785127
0.0989627
0.0892362
0.003104
-0.0895083
0.0890054
0.00286276
0.0887861
0.002664
0.0885941
0.0022999
0.0884451
0.00200612
0.0883325
0.00164124
0.0882309
0.00138765
0.0881721
0.000869218
0.0881406
0.00058221
0.0881529
0.000142253
0.0881665
-1.67083e-05
0.0882204
-0.000545342
0.0882982
-0.000890051
0.0883906
-0.00116923
0.0885229
-0.00113515
0.088665
-0.0012229
0.0887612
-0.00135902
0.0888521
-0.00159735
0.0889132
-0.00165147
0.0890187
-0.00158802
0.0892568
-0.00124211
0.0895775
-0.000985928
0.089879
-0.00063281
0.0900993
-0.000812791
0.0902269
-0.0011903
0.0902441
-0.00208216
0.090256
-0.00311493
0.0904064
-0.00465222
0.0907043
-0.0056755
0.0912234
-0.00698766
0.091868
-0.00758395
0.0927258
-0.00833938
0.0936942
-0.00830255
0.0948593
-0.00838343
0.0961173
-0.00761127
0.0974784
-0.00692252
0.0987851
-0.00551269
0.0999915
-0.00434378
0.100842
-0.00256275
-0.0012443
0.101301
0.0893174
0.00337632
-0.0895898
0.0890678
0.00311242
0.0888676
0.00286415
0.0887128
0.00245475
0.0885533
0.00216559
0.0884474
0.00174716
0.0883592
0.0014758
0.0882842
0.000944275
0.0882659
0.000600474
0.0882668
0.000141401
0.0883329
-8.28957e-05
0.0883633
-0.000575676
0.0883859
-0.000912708
0.0884778
-0.00126109
0.0886367
-0.0012941
0.0888024
-0.00138853
0.0888797
-0.00143637
0.0889333
-0.00165097
0.0889538
-0.00167192
0.0890606
-0.00169479
0.0892624
-0.00144395
0.0895429
-0.00126645
0.0898151
-0.000905014
0.0900188
-0.00101647
0.0902019
-0.00137335
0.090249
-0.00212934
0.0901898
-0.00305565
0.0901426
-0.00460506
0.0901997
-0.00573258
0.0904811
-0.00726908
0.090942
-0.00804487
0.0916377
-0.00903502
0.092536
-0.00920089
0.0935825
-0.0094299
0.0947099
-0.00873874
0.0958503
-0.00806292
0.0969403
-0.00660261
0.0980344
-0.00543789
0.0990889
-0.00361733
-0.00225453
0.100099
0.0892821
0.00364677
-0.0895526
0.0890844
0.00331012
0.0888794
0.00306916
0.0887179
0.00261628
0.0885861
0.00229742
0.0884979
0.00183536
0.0884177
0.001556
0.0883618
0.00100014
0.0883217
0.000640573
0.0883508
0.000112307
0.0883883
-0.000120373
0.0884178
-0.000605237
0.0884573
-0.000952157
0.0885533
-0.00135713
0.0886877
-0.00142849
0.0888671
-0.00156789
0.0889674
-0.00153669
0.0890351
-0.00171865
0.0890739
-0.00171071
0.0891267
-0.0017476
0.0892573
-0.00157459
0.0894597
-0.00146884
0.0897466
-0.00119195
0.0899766
-0.00124646
0.0901546
-0.00155129
0.0901829
-0.00215765
0.0900637
-0.0029365
0.0898839
-0.00442525
0.0897747
-0.00562338
0.0899298
-0.00742418
0.0902999
-0.008415
0.0910494
-0.00978447
0.092044
-0.0101955
0.0933533
-0.0107391
0.0948346
-0.0102201
0.0965045
-0.00973284
0.098141
-0.0082391
0.0997655
-0.00706242
0.101155
-0.00500708
-0.00318841
0.102089
0.08941
0.0038835
-0.0896467
0.0891833
0.00353684
0.088999
0.00325339
0.0888437
0.00277163
0.0887142
0.00242685
0.088613
0.00193659
0.0885501
0.00161896
0.0884892
0.00106102
0.088459
0.000670785
0.0884717
9.95997e-05
0.0885155
-0.000164243
0.0885718
-0.000661473
0.0886069
-0.000987286
0.088701
-0.00145123
0.0888158
-0.00154328
0.0889668
-0.00171887
0.0890654
-0.00163534
0.0891658
-0.00181902
0.0892006
-0.00174549
0.089264
-0.001811
0.0893332
-0.00164379
0.0895072
-0.00164286
0.0897205
-0.00140528
0.0898916
-0.00141758
0.0900356
-0.00169522
0.0900742
-0.00219626
0.0900452
-0.00290747
0.0898384
-0.00421845
0.08958
-0.00536505
0.0894537
-0.00729789
0.0895398
-0.00850103
0.0899457
-0.0101904
0.0906809
-0.0109307
0.0917621
-0.0118204
0.0931991
-0.011657
0.0948612
-0.0113949
0.0965773
-0.00995526
0.0981671
-0.00865223
0.0997334
-0.00657334
-0.00447541
0.10102
0.0893772
0.00411513
-0.0896088
0.0891914
0.00372265
0.089029
0.00341577
0.0888849
0.00291571
0.0887786
0.00253317
0.0886789
0.00203625
0.0886088
0.00168909
0.088581
0.00108886
0.0885535
0.000698279
0.0885491
0.000103966
0.0886025
-0.000217682
0.0886756
-0.000734532
0.0887033
-0.00101499
0.0887888
-0.00153676
0.0888848
-0.00163929
0.0890333
-0.00186727
0.0891754
-0.00177749
0.0892631
-0.00190674
0.0893242
-0.00180659
0.0893653
-0.00185208
0.0894316
-0.00171014
0.0895126
-0.00172385
0.0896617
-0.00155432
0.0897966
-0.00155255
0.0899222
-0.00182074
0.0899546
-0.00222872
0.0899111
-0.00286398
0.089715
-0.00402231
0.0894331
-0.00508312
0.0891103
-0.00697514
0.0889937
-0.00838439
0.0891516
-0.0103483
0.0896825
-0.0114617
0.0906684
-0.0128062
0.0921083
-0.0130969
0.0940041
-0.0132908
0.0962655
-0.0122166
0.0985011
-0.0108879
0.100804
-0.00887589
-0.00601069
0.102339
0.0895102
0.00434406
-0.0897391
0.0893274
0.00390543
0.0891669
0.00357622
0.0890307
0.00305199
0.0889043
0.00265948
0.0888248
0.00211574
0.0887509
0.00176307
0.0887095
0.00113022
0.0886918
0.000716
0.0887356
6.01382e-05
0.0887698
-0.000251887
0.0888382
-0.000802912
0.0888784
-0.00105516
0.0889474
-0.00160577
0.0890351
-0.00172703
0.0891942
-0.00202638
0.089315
-0.00189825
0.0894136
-0.00200535
0.0894798
-0.00187281
0.0895532
-0.00192539
0.0896244
-0.00178143
0.0896741
-0.00177356
0.0897331
-0.00161331
0.0897874
-0.0016068
0.089812
-0.00184531
0.0898274
-0.00224414
0.0897822
-0.00281882
0.0895846
-0.00382472
0.0893711
-0.0048696
0.0889989
-0.00660291
0.0887112
-0.00809669
0.0885173
-0.0101544
0.0887332
-0.0116776
0.0892689
-0.013342
0.090376
-0.014204
0.0918644
-0.0147791
0.0940919
-0.0144441
0.0963596
-0.0131556
0.0991116
-0.0116279
-0.00802285
0.101124
0.0895015
0.00453802
-0.0896955
0.0893414
0.00406558
0.0891937
0.00372387
0.0890541
0.00319161
0.0889404
0.00277322
0.0888768
0.00217931
0.0888208
0.00181911
0.0887968
0.00115415
0.0887734
0.000739428
0.0888246
8.95881e-06
0.0888536
-0.000280858
0.0889417
-0.000891031
0.0889926
-0.00110607
0.089066
-0.00167921
0.0891638
-0.00182483
0.0892622
-0.00212474
0.0893891
-0.00202513
0.0895015
-0.00211776
0.0896201
-0.00199148
0.0896506
-0.00195581
0.0897219
-0.00185282
0.0897309
-0.00178251
0.0897811
-0.00166356
0.0898001
-0.00162573
0.0897565
-0.00180176
0.0896826
-0.00217027
0.0895812
-0.00271735
0.0893832
-0.00362675
0.0891368
-0.0046232
0.0887579
-0.00622401
0.0884314
-0.00777021
0.0880615
-0.00978454
0.0879915
-0.0116076
0.0881883
-0.0135388
0.0889987
-0.0150144
0.0901829
-0.0159633
0.092355
-0.0166163
0.0947865
-0.0155871
0.0980972
-0.0149386
-0.0108844
0.100959
0.0896298
0.00474938
-0.0898412
0.089483
0.00421242
0.0893603
0.0038465
0.0892396
0.00331236
0.0891302
0.00288266
0.0890648
0.00224466
0.089035
0.00184892
0.0890243
0.00116488
0.0889995
0.000764235
0.0890114
-2.9454e-06
0.0890429
-0.000312434
0.0891465
-0.000994627
0.0892295
-0.001189
0.0893112
-0.00176098
0.0893682
-0.00188176
0.0894378
-0.00219439
0.0895765
-0.00216387
0.0896821
-0.00222331
0.0898133
-0.00212264
0.089869
-0.00201157
0.0899138
-0.00189762
0.089939
-0.00180771
0.0899557
-0.00168021
0.0899254
-0.00159547
0.0898138
-0.00169012
0.0896537
-0.00201018
0.0894652
-0.00252883
0.0891753
-0.00333689
0.0889144
-0.00436228
0.0884667
-0.00577625
0.0881239
-0.00742745
0.0876837
-0.00934437
0.0874305
-0.0113543
0.0872835
-0.0133918
0.087743
-0.0154739
0.088459
-0.0166793
0.0900737
-0.0182309
0.0921526
-0.017666
0.0951829
-0.0179689
-0.0142084
0.0985069
0.0896264
0.00491995
-0.089797
0.089486
0.00435279
0.0893741
0.0039584
0.0892711
0.00341539
0.0891803
0.00297345
0.0891259
0.00229905
0.089091
0.00188388
0.089096
0.00115989
0.0890746
0.000785574
0.0891047
-3.30415e-05
0.0891354
-0.000343109
0.0892305
-0.00108973
0.0893305
-0.00128904
0.0894103
-0.00184074
0.0895083
-0.00197982
0.0895711
-0.00225716
0.0896916
-0.00228438
0.0897808
-0.00231251
0.0899207
-0.00226252
0.0899859
-0.00207678
0.0900344
-0.00194608
0.0900359
-0.00180924
0.0900212
-0.00166554
0.0899831
-0.00155731
0.0898802
-0.00158723
0.0896734
-0.00180341
0.08943
-0.00228542
0.0890647
-0.0029716
0.0886957
-0.00399327
0.0881405
-0.00522105
0.0876385
-0.00692549
0.0870733
-0.00877917
0.0866683
-0.0109493
0.0862506
-0.012974
0.0863593
-0.0155827
0.0867786
-0.0170986
0.087969
-0.0194213
0.0898236
-0.0195207
0.0927759
-0.0209211
-0.0178392
0.0964066
0.089832
0.00509311
-0.0900052
0.0896793
0.00450551
0.0895624
0.00407528
0.0894885
0.00348929
0.0894084
0.00305359
0.0893717
0.00233569
0.0893347
0.00192085
0.0893399
0.00115477
0.0893598
0.000765629
0.0893982
-7.14347e-05
0.089427
-0.000371875
0.0894805
-0.00114327
0.0895732
-0.00138175
0.0896536
-0.0019211
0.0897784
-0.00210464
0.089863
-0.00234177
0.0899889
-0.00241025
0.090042
-0.00236559
0.0901235
-0.00234405
0.0902211
-0.00217434
0.0902737
-0.00199872
0.0902858
-0.00182139
0.0902685
-0.00164816
0.0901889
-0.00147777
0.0900634
-0.00146171
0.0898203
-0.00156025
0.0895396
-0.00200474
0.0890904
-0.00252246
0.0886417
-0.00354454
0.0880121
-0.00459147
0.0873309
-0.00624427
0.0865234
-0.00797163
0.0859133
-0.0103392
0.0852798
-0.0123406
0.084941
-0.0152439
0.085012
-0.0171695
0.0856932
-0.0201025
0.0869959
-0.0208235
0.0895572
-0.0234824
-0.0211238
0.0928418
0.0898059
0.00525522
-0.089968
0.089696
0.00461545
0.0895812
0.00419009
0.089516
0.00355451
0.089467
0.0031025
0.0894249
0.00237778
0.0894089
0.00193687
0.0894268
0.00113689
0.0894594
0.000732994
0.0894922
-0.00010423
0.0895702
-0.000449816
0.0896184
-0.00119145
0.0897038
-0.00146717
0.0897701
-0.00198743
0.0899062
-0.00224073
0.0899892
-0.00242479
0.0901397
-0.00256068
0.090221
-0.00244695
0.0903063
-0.00242937
0.0903728
-0.00224079
0.0904322
-0.00205812
0.090417
-0.00180618
0.0904153
-0.0016465
0.0903143
-0.00137678
0.0901857
-0.00133312
0.0899321
-0.00130658
0.0896005
-0.00167319
0.0891455
-0.0020674
0.0886429
-0.00304195
0.0879501
-0.00389868
0.0872181
-0.00551232
0.0862093
-0.00696281
0.0852606
-0.0093905
0.0842741
-0.0113541
0.0834575
-0.0144273
0.0828443
-0.0165563
0.0829251
-0.0201832
0.0834931
-0.0213915
0.0853894
-0.0253786
-0.0244177
0.0886833
0.0900844
0.00540805
-0.0902373
0.0899515
0.00474837
0.0898524
0.00428922
0.0897885
0.00361842
0.0897374
0.00315355
0.089723
0.00239223
0.089717
0.00194287
0.0897402
0.00111362
0.0897678
0.000705394
0.089821
-0.000157434
0.0898929
-0.000521676
0.0899633
-0.00126187
0.0900777
-0.00158157
0.090129
-0.00203869
0.0902389
-0.00235061
0.0903247
-0.00251064
0.0904376
-0.00267361
0.0905716
-0.00258088
0.0906488
-0.00250658
0.0907342
-0.0023262
0.0907764
-0.00210034
0.0907599
-0.00178967
0.0907164
-0.00160298
0.090634
-0.00129436
0.0905108
-0.00120992
0.0902783
-0.00107412
0.0899504
-0.00134525
0.0894461
-0.00156314
0.0888437
-0.00243954
0.0880727
-0.00312769
0.0872386
-0.00467817
0.0861773
-0.00590157
0.0849986
-0.00821173
0.0836796
-0.0100352
0.0824578
-0.0132054
0.0812297
-0.0153282
0.0804582
-0.0194118
0.080195
-0.0211283
0.0806133
-0.0257969
-0.0268357
0.0830313
0.0900897
0.00554419
-0.0902258
0.0899867
0.00485137
0.0899047
0.00437114
0.0898402
0.00368294
0.089804
0.00318972
0.0897976
0.00239864
0.0898022
0.00193827
0.0898361
0.00107976
0.0898851
0.000656368
0.0899402
-0.000212483
0.0900357
-0.000617173
0.0900878
-0.001314
0.0902475
-0.00174125
0.0903174
-0.00210859
0.0904486
-0.00248181
0.0905413
-0.00260335
0.0906326
-0.00276492
0.0907452
-0.00269348
0.0908447
-0.00260607
0.0909054
-0.00238693
0.0910052
-0.00220019
0.0910026
-0.001787
0.0909753
-0.00157572
0.0908725
-0.00119158
0.0907626
-0.00110003
0.0905156
-0.000827048
0.0902283
-0.00105795
0.0897297
-0.00106457
0.0891316
-0.00184143
0.0883169
-0.00231299
0.0873672
-0.00372853
0.0862255
-0.00475986
0.0849765
-0.00696274
0.0834686
-0.00852728
0.0818344
-0.0115713
0.0801527
-0.0136465
0.0783842
-0.0176433
0.0771776
-0.0199217
0.0759462
-0.0245655
-0.0276445
0.076755
0.0904621
0.00569495
-0.0906129
0.0903524
0.00496114
0.0902747
0.00444875
0.0902271
0.00373059
0.0901807
0.00323612
0.0901774
0.00240193
0.090193
0.00192268
0.0902274
0.00104534
0.0902921
0.000591724
0.0903278
-0.000248176
0.0904636
-0.000752998
0.0905165
-0.00136692
0.0906501
-0.00187488
0.0907467
-0.00220512
0.0908658
-0.00260091
0.0909948
-0.00273238
0.0910979
-0.00286799
0.0912184
-0.00281398
0.0913151
-0.00270277
0.0913663
-0.00243812
0.0914205
-0.0022544
0.091453
-0.00181945
0.0914593
-0.00158211
0.091371
-0.00110326
0.0912567
-0.000985672
0.0910427
-0.000613096
0.0907502
-0.000765456
0.0903116
-0.000625916
0.0897305
-0.00126037
0.0889085
-0.00149101
0.08797
-0.00278997
0.0867172
-0.00350705
0.0852567
-0.00550228
0.0836425
-0.00691308
0.0816283
-0.00955712
0.0797317
-0.0117498
0.0773108
-0.0152224
0.075329
-0.0179399
0.0729969
-0.0222335
-0.0261981
0.0715506
0.0904742
0.00577734
-0.0905566
0.0904112
0.00502413
0.0903522
0.00450775
0.0903094
0.00377339
0.0902872
0.00325836
0.0902848
0.00240428
0.090316
0.00189149
0.0903431
0.00101822
0.0904318
0.000503048
0.0904882
-0.000304625
0.0906357
-0.000900408
0.0907131
-0.00144441
0.0908601
-0.00202185
0.0909774
-0.00232244
0.091103
-0.00272648
0.0912252
-0.00285457
0.0913459
-0.00298867
0.0914544
-0.00292248
0.0916086
-0.00285704
0.0916759
-0.0025054
0.0917652
-0.00234368
0.0917683
-0.00182258
0.0918018
-0.00161561
0.0917578
-0.00105928
0.0916815
-0.000909328
0.091488
-0.000419644
0.0912615
-0.000538944
0.0908348
-0.00019915
0.0903265
-0.000752106
0.0895543
-0.000718784
0.0885817
-0.00181735
0.0874474
-0.00237284
0.0858632
-0.003918
0.0842421
-0.00529196
0.0820248
-0.00733982
0.0798473
-0.00957243
0.077011
-0.0123861
0.0743131
-0.0152419
0.0711411
-0.0190615
-0.0232305
0.0681734
0.0909416
0.00588915
-0.0910534
0.0908829
0.00508281
0.0908345
0.00455618
0.0908198
0.00378808
0.0908258
0.00325231
0.0908386
0.00239146
0.0908711
0.00185899
0.090906
0.000983383
0.0910206
0.000388466
0.0910466
-0.000330697
0.0911805
-0.00103423
0.0912601
-0.00152402
0.0913881
-0.0021499
0.0915395
-0.00247385
0.0916691
-0.00285604
0.0917999
-0.00298538
0.0919556
-0.00314433
0.0920388
-0.00300568
0.0921734
-0.00299165
0.0922685
-0.00260047
0.0923761
-0.00245132
0.0924183
-0.00186477
0.0924854
-0.00168271
0.0924529
-0.00102681
0.0924226
-0.00087895
0.0922555
-0.000252563
0.092084
-0.000367509
0.0917114
0.000173513
0.0912448
-0.000285539
0.0906513
-0.000125286
0.0896505
-0.000816493
0.0886405
-0.00136289
0.0870574
-0.00233485
0.0854833
-0.00371791
0.0832634
-0.00511995
0.0808874
-0.00719637
0.0778404
-0.0093391
0.0746742
-0.0120757
0.0708067
-0.015194
-0.0194718
0.0670481
0.0909238
0.00595315
-0.0909878
0.0908932
0.0051134
0.0908809
0.0045685
0.090896
0.00377302
0.0909512
0.00319709
0.0909671
0.00237556
0.0910836
0.00174246
0.091116
0.000950923
0.0912672
0.000237358
0.0913188
-0.000382338
0.0914386
-0.00115408
0.0915715
-0.00165683
0.0917031
-0.00228155
0.0918256
-0.00259631
0.0919881
-0.0030186
0.0920994
-0.00309664
0.0922755
-0.00332048
0.0923955
-0.00312563
0.0925713
-0.00316744
0.092664
-0.00269322
0.0928133
-0.00260064
0.0928859
-0.0019373
0.092992
-0.00178885
0.0930146
-0.00104937
0.0930692
-0.000933628
0.0929937
-0.000176972
0.092832
-0.000205857
0.0926694
0.000336112
0.0921516
0.000232223
0.0917526
0.000273801
0.0908633
7.27662e-05
0.0899904
-0.000489973
0.0885862
-0.000930647
0.0870344
-0.00216614
0.0849569
-0.00304246
0.0826199
-0.00485935
0.0796409
-0.00636007
0.0764011
-0.00883599
0.072202
-0.0109949
-0.0151069
0.0678372
0.0915846
0.00599058
-0.091622
0.0915321
0.00516594
0.0915984
0.00450218
0.0915727
0.00379873
0.0916772
0.00309257
0.0916615
0.00239124
0.0918234
0.00158056
0.0918759
0.000898476
0.0919976
0.000115604
0.0921186
-0.000503316
0.0922448
-0.00128024
0.092373
-0.00178502
0.0925162
-0.00242475
0.0926383
-0.00271845
0.0928054
-0.0031857
0.0929018
-0.00319309
0.0930722
-0.00349087
0.0931645
-0.00321792
0.0933354
-0.00333835
0.0934489
-0.00280674
0.0936098
-0.00276153
0.0937303
-0.0020578
0.0938542
-0.00191274
0.0939622
-0.00115739
0.0939898
-0.000961151
0.0941165
-0.000303691
0.0939397
-2.91065e-05
0.0939649
0.000310955
0.0935868
0.000610289
0.0932943
0.000566284
0.0926176
0.000749504
0.0918566
0.000271057
0.0907147
0.00021122
0.0893185
-0.000769925
0.0874902
-0.00121412
0.0853466
-0.00271575
0.0825504
-0.00356388
0.0794513
-0.00573694
0.0754243
-0.00696795
-0.0105065
0.0708239
0.0916018
0.0059401
-0.0915513
0.0915698
0.00519801
0.0916695
0.00440247
0.0916811
0.00378707
0.0918204
0.00295328
0.0918997
0.00231193
0.0920277
0.00145258
0.0921549
0.000771251
0.0922903
-1.9795e-05
0.0924458
-0.000658749
0.0926113
-0.00144578
0.0927591
-0.00193285
0.092951
-0.0026166
0.0930773
-0.00284481
0.09326
-0.00336839
0.0934009
-0.00333391
0.0935782
-0.00366826
0.0937337
-0.00337341
0.0938903
-0.00349492
0.0940817
-0.00299813
0.0942058
-0.00288568
0.0944272
-0.00227918
0.0945231
-0.00200864
0.0947903
-0.00142462
0.0948175
-0.000988301
0.0950736
-0.000559814
0.0950503
-5.74919e-06
0.095141
0.000220188
0.0949909
0.000760378
0.0948049
0.000752371
0.0944053
0.0011491
0.0938197
0.000856633
0.0929791
0.00105185
0.0918726
0.000336574
0.090345
0.000313427
0.0885763
-0.000947053
0.0861932
-0.00118076
0.0835049
-0.00304865
0.0799765
-0.00343953
-0.00622798
0.0756979
0.0924905
0.00587803
-0.0924284
0.0924811
0.00520747
0.0925421
0.00434146
0.0926546
0.00367451
0.0927335
0.00287435
0.0928919
0.00215356
0.0929941
0.0013504
0.0931425
0.000622808
0.0933294
-0.000206682
0.0934783
-0.000807573
0.0936749
-0.00164246
0.0938199
-0.00207778
0.0939955
-0.00279226
0.0941788
-0.00302807
0.0943291
-0.00351867
0.0945218
-0.00352663
0.0946313
-0.00377778
0.0948682
-0.0036103
0.0949527
-0.0035794
0.0952187
-0.00326413
0.0953159
-0.00298294
0.0956456
-0.00260887
0.0957432
-0.00210618
0.0960747
-0.0017561
0.0962133
-0.00112691
0.096471
-0.000817499
0.096624
-0.000158821
0.0967858
5.84344e-05
0.096864
0.000682173
0.0968474
0.000768923
0.0966807
0.00131583
0.0963967
0.00114061
0.0958295
0.00161905
0.0951085
0.00105763
0.0939892
0.00143265
0.0926528
0.000389353
0.0908124
0.000659629
0.0886624
-0.000898652
0.0859024
-0.000679512
-0.00276288
0.0824373
0.092526
0.00583711
-0.0924851
0.0926614
0.00507208
0.0927039
0.00429888
0.0928432
0.00353527
0.09299
0.00272752
0.0931976
0.00194598
0.093408
0.00114005
0.0935785
0.000452231
0.0937707
-0.000398856
0.0939891
-0.00102599
0.0941722
-0.00182555
0.0944243
-0.00232991
0.0945706
-0.00293848
0.0948095
-0.00326703
0.0949229
-0.00363202
0.0951882
-0.00379196
0.0952963
-0.00388585
0.0955637
-0.00387778
0.0956626
-0.00367823
0.0959944
-0.00359596
0.0961282
-0.00311678
0.0964631
-0.00294368
0.0967021
-0.00234518
0.0970443
-0.00209831
0.0973474
-0.00143006
0.0977188
-0.00118887
0.0980326
-0.000472674
0.0983565
-0.000265435
0.0986019
0.000436774
0.0988504
0.00052047
0.0989138
0.00125235
0.0989348
0.00111964
0.098705
0.0018489
0.0983378
0.00142482
0.097651
0.00211938
0.096732
0.00130839
0.0954762
0.0019154
0.0938337
0.000743865
0.0918584
0.00129581
-0.000218298
0.0893138
0.0939902
0.00578427
-0.0939374
0.0941076
0.00495476
0.0941915
0.00421498
0.0942949
0.00343185
0.0943895
0.00263285
0.0944891
0.0018464
0.0946622
0.000966938
0.0949142
0.000200262
0.0950954
-0.000580093
0.0953574
-0.00128794
0.0954701
-0.00193823
0.0957383
-0.0025981
0.0958491
-0.0030493
0.0961548
-0.00357274
0.0962669
-0.00374409
0.0965557
-0.00408075
0.0966692
-0.00399938
0.0969594
-0.004168
0.0971107
-0.00382949
0.0973817
-0.00386703
0.0976234
-0.00335841
0.0979622
-0.00328249
0.0982698
-0.00265286
0.0986601
-0.00248859
0.0990566
-0.00182655
0.0995283
-0.00166059
0.0999925
-0.000936789
0.100547
-0.000819785
0.101027
-4.32684e-05
0.101572
-2.45613e-05
0.10198
0.000844134
0.102368
0.000732172
0.102579
0.00163716
0.102685
0.00131943
0.102582
0.00222176
0.102253
0.00163785
0.101666
0.00250194
0.100756
0.00165383
0.099687
0.00236511
0.00151907
0.0979497
0.09412
0.00557871
-0.0939144
0.0943775
0.0046973
0.0946371
0.00395535
0.0949368
0.00313212
0.0951867
0.00238302
0.0955482
0.00148486
0.0957143
0.000800809
0.0959803
-6.57336e-05
0.0961041
-0.000703909
0.0964481
-0.00163186
0.0965915
-0.00208168
0.096895
-0.00290159
0.0970017
-0.00315603
0.0972521
-0.00382312
0.0973567
-0.00384864
0.0975834
-0.00430748
0.0977134
-0.0041294
0.0979225
-0.00437712
0.0980933
-0.00400023
0.0983493
-0.00412306
0.0985731
-0.00358215
0.0989113
-0.00362069
0.0992648
-0.0030064
0.0997553
-0.0029791
0.100234
-0.00230528
0.100847
-0.00227307
0.10146
-0.00155057
0.102157
-0.00151651
0.10288
-0.000766353
0.103583
-0.000727534
0.104325
0.000102698
0.104962
9.43408e-05
0.105614
0.000985304
0.106083
0.000850237
0.106565
0.00174022
0.106605
0.00159776
0.106826
0.00228117
0.106347
0.00213304
0.106057
0.00265476
0.0025888
0.104987
0.0961796
0.00558868
-0.0961895
0.0963087
0.0045682
0.096365
0.00389897
0.0965754
0.00292173
0.0967048
0.00225363
0.097023
0.00116664
0.0972923
0.000531513
0.0977478
-0.000521166
0.0980314
-0.000987516
0.0983513
-0.00195178
0.098576
-0.00230635
0.0988387
-0.00316435
0.0990628
-0.00338006
0.0992822
-0.00404254
0.0994801
-0.0040466
0.0996538
-0.00448112
0.0998254
-0.00430103
0.100022
-0.00457338
0.100227
-0.00420568
0.100483
-0.00437844
0.100759
-0.00385889
0.101109
-0.00396997
0.101507
-0.00340512
0.101999
-0.00347078
0.102598
-0.00290389
0.103261
-0.00293635
0.104079
-0.00236835
0.104926
-0.00236349
0.105924
-0.00176495
0.106929
-0.00173268
0.108065
-0.0010328
0.109176
-0.00101725
0.110448
-0.000286073
0.111465
-0.000166669
0.112703
0.000502123
0.113522
0.000778725
0.114561
0.00124209
0.115068
0.0016261
0.11569
0.0020323
0.00246015
0.115819
0.0971617
0.00505007
-0.0966231
0.0977182
0.00401175
0.0982284
0.00338878
0.0987338
0.00241626
0.0991628
0.00182469
0.0994798
0.000849667
0.0996935
0.000317782
0.0998805
-0.000708185
0.10013
-0.0012369
0.100346
-0.00216825
0.100573
-0.00253334
0.100719
-0.00331017
0.10086
-0.00352117
0.100941
-0.00412329
0.101075
-0.00418093
0.101142
-0.00454826
0.101299
-0.00445746
0.101379
-0.00465391