/*--------------------------------*- C++ -*----------------------------------*\
  =========                 |
  \\      /  F ield         | OpenFOAM: The Open Source CFD Toolbox
   \\    /   O peration     | Website:  https://openfoam.org
    \\  /    A nd           | Version:  11
     \\/     M anipulation  |
\*---------------------------------------------------------------------------*/
FoamFile
{
    format      ascii;
    class       volVectorField;
    location    "6.5";
    object      U;
}
// * * * * * * * * * * * * * * * * * * * * * * * * * * * * * * * * * * * * * //

dimensions      [0 1 -1 0 0 0 0];

internalField   nonuniform List<vector> 
9600
(
(0.993683 0.000335334 -4.96752e-21)
(0.993035 0.000303646 0)
(0.992134 0.000184467 -5.07688e-21)
(0.991486 -0.000170903 5.01554e-21)
(0.991352 -0.000520567 0)
(0.991479 -0.000654841 2.44648e-21)
(0.99177 -0.000810581 -4.8735e-21)
(0.992296 -0.000948123 2.40781e-21)
(0.993169 -0.00102984 2.32819e-21)
(0.994402 -0.00107159 -2.33371e-21)
(0.99596 -0.00105064 1.71755e-23)
(0.997788 -0.00107217 0)
(0.999686 -0.00114315 0)
(1.00174 -0.0012646 -9.05232e-22)
(1.00401 -0.0014313 7.97054e-23)
(1.00636 -0.00198829 8.29892e-22)
(1.00928 -0.00246461 0)
(1.0137 -0.00147839 0)
(1.01521 0.000155985 1.09209e-24)
(1.01363 0.0017355 0)
(1.00426 0.00465743 0)
(0.985433 0.00617193 -7.97826e-25)
(0.972254 0.00395182 1.42328e-24)
(0.966277 0.00217357 -3.40935e-22)
(0.965773 0.000740175 3.35911e-22)
(0.971353 -0.0020422 3.35097e-22)
(0.986687 -0.00582929 -3.39337e-22)
(1.0026 -0.0079318 -6.81383e-22)
(1.0172 -0.00953403 6.6967e-22)
(1.0309 -0.0109304 0)
(1.04437 -0.0124255 0)
(1.05651 -0.0132691 3.21409e-22)
(1.06512 -0.0136074 -4.93485e-22)
(1.06909 -0.0137392 1.75552e-22)
(1.06941 -0.0140913 0)
(1.06802 -0.0145301 -2.47697e-24)
(1.06519 -0.0152755 -6.45477e-22)
(1.0614 -0.0159332 6.39003e-22)
(1.05746 -0.0159165 6.2207e-24)
(1.0518 -0.0237539 1.73969e-21)
(0.994192 0.000249798 -5.12632e-21)
(0.994146 0.000151943 -8.7944e-23)
(0.994231 0.00011917 4.64132e-23)
(0.994498 3.72571e-05 5.18004e-21)
(0.995103 9.85988e-05 2.55143e-21)
(0.99586 0.000224076 -2.56411e-21)
(0.996582 0.00027593 3.94483e-23)
(0.997511 0.000218521 1.95352e-23)
(0.999214 7.11061e-05 -2.39581e-21)
(1.0007 -3.38187e-05 2.43888e-21)
(1.00223 -0.000240634 -1.79352e-23)
(1.0049 -0.000257695 3.38769e-23)
(1.008 -0.000405153 9.58663e-22)
(1.01075 -0.000433152 -1.90989e-21)
(1.01346 -0.000381232 9.32712e-22)
(1.01629 -0.000157505 7.65555e-22)
(1.01876 -0.000244198 -7.71193e-22)
(1.02126 -0.000629449 3.09917e-22)
(1.02409 3.82336e-05 -3.06159e-22)
(1.02715 0.0022242 0)
(1.02983 0.00459477 0)
(1.0313 0.00457022 -1.92366e-22)
(1.03108 0.00332197 1.89433e-22)
(1.02851 0.000156782 2.67885e-24)
(1.027 -0.0021993 0)
(1.02805 -0.00427932 3.50046e-22)
(1.03089 -0.00441386 3.16666e-24)
(1.03639 -0.00285828 3.45455e-22)
(1.04387 9.48735e-05 -6.78213e-22)
(1.05174 0.00165005 -1.01728e-23)
(1.06013 0.00433172 4.86198e-22)
(1.06689 0.00632739 -4.88212e-22)
(1.07254 0.00978392 2.2187e-22)
(1.07543 0.0126018 -2.87275e-22)
(1.0767 0.015488 6.96449e-23)
(1.07521 0.0169577 2.58782e-24)
(1.07303 0.0188669 4.50844e-24)
(1.06702 0.0196189 0)
(1.06257 0.0219492 -6.46941e-24)
(1.04945 0.0210842 8.53966e-22)
(0.994286 0.000175208 0)
(0.994302 0.0001257 5.31049e-21)
(0.994453 5.32056e-05 -5.23847e-21)
(0.994719 -0.000228167 0)
(0.995375 -0.000508413 0)
(0.996003 -0.000793671 -8.13846e-23)
(0.996673 -0.00107861 -1.20927e-22)
(0.997758 -0.00166474 0)
(0.999335 -0.00186539 -2.53069e-21)
(1.00105 -0.00196206 2.42155e-21)
(1.00272 -0.00235251 0)
(1.0053 -0.00313151 -3.46943e-23)
(1.00847 -0.0030948 3.27703e-23)
(1.01159 -0.00291867 0)
(1.01377 -0.00292704 -8.70402e-22)
(1.01543 -0.00351658 8.57325e-22)
(1.01799 -0.00383114 2.29042e-23)
(1.02287 -0.00317991 -5.14419e-24)
(1.02821 -0.00194628 -1.32925e-22)
(1.03196 0.000102173 1.37467e-22)
(1.03302 0.00366424 1.09723e-22)
(1.03194 0.0059309 -1.14185e-22)
(1.02929 0.00573394 2.97469e-24)
(1.02332 0.00439216 -3.56743e-22)
(1.0198 0.00167734 3.5107e-22)
(1.0206 -0.00257516 3.38148e-22)
(1.02506 -0.00819444 -3.5447e-22)
(1.03171 -0.0122568 7.27158e-22)
(1.0406 -0.0147334 -7.258e-22)
(1.05025 -0.016717 1.04154e-23)
(1.05967 -0.0178782 0)
(1.06796 -0.0185512 4.39406e-22)
(1.0756 -0.0177855 -7.44698e-22)
(1.08212 -0.0168045 3.00378e-22)
(1.08637 -0.0151367 1.53086e-23)
(1.08769 -0.0142425 2.30133e-22)
(1.08737 -0.0132057 2.41963e-22)
(1.08594 -0.0136213 -4.80341e-22)
(1.08323 -0.0118566 1.18889e-23)
(1.07391 -0.0139051 -1.19415e-24)
(0.994352 0.000127767 -1.07625e-20)
(0.994413 5.80581e-05 5.37471e-21)
(0.994596 -9.51873e-05 5.36713e-21)
(0.995012 -0.000520864 -5.40092e-21)
(0.995603 -0.000680103 0)
(0.996316 -0.000941862 2.72731e-21)
(0.997198 -0.00112878 -2.56992e-21)
(0.998187 -0.00146852 2.63508e-21)
(0.999578 -0.00164156 -7.78729e-23)
(1.00162 -0.00186536 -2.48992e-21)
(1.00388 -0.00233091 -2.21933e-21)
(1.00537 -0.00302254 4.54249e-21)
(1.00813 -0.00310888 -1.15889e-21)
(1.01162 -0.00281676 -1.96685e-21)
(1.01496 -0.00225084 9.46364e-22)
(1.01658 -0.00233995 8.07073e-22)
(1.01879 -0.0035874 -7.93905e-22)
(1.02214 -0.00474156 -1.02611e-23)
(1.027 -0.00325431 -4.62495e-24)
(1.03025 0.000199787 0)
(1.03251 0.00431825 0)
(1.03362 0.00613581 3.32387e-24)
(1.03503 0.00625999 0)
(1.03615 0.00369118 0)
(1.03944 -0.000362432 -5.56673e-24)
(1.04249 -0.00546363 1.1287e-23)
(1.04752 -0.00771152 -3.52959e-22)
(1.05111 -0.00957291 -3.45828e-22)
(1.05684 -0.00753367 7.54282e-22)
(1.0617 -0.0071374 -6.62142e-22)
(1.06836 -0.00361191 6.60637e-22)
(1.07282 -0.00209606 1.75514e-23)
(1.07876 0.00224872 2.89124e-22)
(1.0813 0.00571131 -3.0172e-22)
(1.08415 0.0113525 1.77864e-23)
(1.08256 0.01482 3.11432e-22)
(1.08073 0.019521 2.49026e-22)
(1.07434 0.0208007 -5.70332e-22)
(1.06938 0.0242709 -1.22743e-23)
(1.05709 0.023341 -1.3568e-23)
(0.994398 -1.13272e-05 0)
(0.994478 -0.000110516 5.68713e-21)
(0.994707 -0.000299374 -1.12069e-20)
(0.995172 -0.000785486 5.53624e-21)
(0.995854 -0.00105953 0)
(0.996601 -0.00143588 0)
(0.997245 -0.00165458 0)
(0.998405 -0.00242749 8.23134e-23)
(0.999872 -0.00285684 -2.4596e-21)
(1.00174 -0.00345973 2.54761e-21)
(1.00383 -0.00382704 -7.52093e-23)
(1.00634 -0.00471162 2.14578e-21)
(1.00854 -0.00504307 -3.26083e-21)
(1.01133 -0.00506304 1.04073e-21)
(1.0145 -0.00430102 0)
(1.01833 -0.00471179 7.6828e-22)
(1.02131 -0.00552954 -7.95235e-22)
(1.02289 -0.00574813 1.05244e-23)
(1.0242 -0.00461891 0)
(1.02709 -0.00160837 0)
(1.03333 0.00228164 -1.12386e-22)
(1.03863 0.00488072 1.12351e-22)
(1.04244 0.00518041 0)
(1.04357 0.00375066 -3.73284e-22)
(1.04309 0.000999116 3.84358e-22)
(1.04186 -0.00377661 3.72679e-22)
(1.04267 -0.00900488 -3.6025e-22)
(1.044 -0.0140823 7.57299e-22)
(1.04858 -0.0168509 -8.03495e-22)
(1.05436 -0.0197484 -2.40664e-23)
(1.06222 -0.0205677 0)
(1.06906 -0.0216052 -1.79877e-23)
(1.07579 -0.0203989 -4.09388e-22)
(1.08082 -0.0194627 4.21897e-22)
(1.0855 -0.0163424 -4.13264e-24)
(1.08786 -0.0145116 0)
(1.08883 -0.0113778 0)
(1.0876 -0.0106281 -5.89337e-22)
(1.08626 -0.0074245 5.60166e-22)
(1.07926 -0.00706863 -2.62418e-23)
(0.994365 -0.000135049 -5.49385e-21)
(0.994459 -0.000272654 -1.7693e-22)
(0.994764 -0.000464376 1.76884e-22)
(0.995283 -0.00110435 1.76484e-22)
(0.996016 -0.00133252 0)
(0.996692 -0.00184862 0)
(0.99747 -0.00229834 0)
(0.998399 -0.00326951 2.49794e-21)
(1.0003 -0.00339259 -5.4267e-21)
(1.00241 -0.00407066 2.4355e-21)
(1.00442 -0.00452119 0)
(1.00589 -0.00558735 2.17742e-21)
(1.0089 -0.00551291 -2.25444e-21)
(1.01209 -0.00542335 -9.75128e-22)
(1.01579 -0.0052932 9.76761e-22)
(1.01799 -0.00566077 2.63116e-23)
(1.02027 -0.00601909 -2.35688e-23)
(1.02223 -0.00618702 0)
(1.02578 -0.00527681 9.26498e-24)
(1.02936 -0.0035322 0)
(1.03317 -0.000147902 -1.83083e-24)
(1.03603 0.00264803 -6.62977e-24)
(1.03933 0.00480034 0)
(1.04083 0.00354544 3.88993e-22)
(1.04496 0.00115188 -3.88548e-22)
(1.04809 -0.00452401 3.55966e-22)
(1.0528 -0.00806968 -4.02627e-22)
(1.05571 -0.0124302 -7.72796e-22)
(1.06135 -0.0128977 7.70389e-22)
(1.06556 -0.0143426 -8.00838e-25)
(1.07249 -0.0120302 4.84329e-23)
(1.07658 -0.01064 -4.31787e-23)
(1.08365 -0.00656811 4.31506e-22)
(1.08669 -0.00302872 -6.91131e-22)
(1.09164 0.00344022 2.60165e-22)
(1.09121 0.00876419 0)
(1.09107 0.016079 -5.3276e-24)
(1.08454 0.0195991 1.40331e-23)
(1.07986 0.0240879 2.35908e-23)
(1.06669 0.0249338 -7.67062e-22)
(0.994403 -0.000382484 -1.89063e-22)
(0.994512 -0.000541813 -1.14443e-20)
(0.994854 -0.000796523 2.1821e-22)
(0.995384 -0.00155169 5.63987e-21)
(0.996293 -0.00179256 0)
(0.996819 -0.0025772 1.78377e-22)
(0.997727 -0.00280838 1.76293e-22)
(0.998531 -0.0039832 0)
(1.00062 -0.0043807 2.81028e-21)
(1.00271 -0.00537071 -2.32573e-21)
(1.00487 -0.00541872 0)
(1.00624 -0.00666037 1.47873e-22)
(1.00902 -0.007232 -1.07296e-21)
(1.01274 -0.00773712 1.07495e-21)
(1.01673 -0.00633424 0)
(1.01844 -0.00632596 7.8662e-22)
(1.02085 -0.00691943 -8.14133e-22)
(1.02296 -0.00794761 0)
(1.02656 -0.00718076 -1.60555e-22)
(1.02869 -0.00429091 1.41817e-22)
(1.0327 -0.000384651 3.71256e-24)
(1.03525 0.00227665 1.34213e-23)
(1.03973 0.0035953 -1.21956e-23)
(1.04318 0.00205182 -3.93732e-22)
(1.0469 -0.000363422 3.93178e-22)
(1.04844 -0.00469322 2.39295e-23)
(1.05105 -0.00911486 4.05578e-22)
(1.05209 -0.0147596 -4.5596e-22)
(1.05569 -0.0180534 -8.34122e-22)
(1.05892 -0.0218506 8.29783e-22)
(1.06536 -0.02293 -4.97265e-23)
(1.07107 -0.0244399 -4.02006e-24)
(1.07836 -0.0230777 0)
(1.08282 -0.0224652 -3.13465e-23)
(1.08761 -0.0185407 -2.39774e-22)
(1.08947 -0.0159912 9.23751e-23)
(1.09202 -0.0106362 3.2331e-22)
(1.09114 -0.00824755 -1.8551e-22)
(1.09079 -0.00350681 7.43203e-22)
(1.08467 -0.00143784 -7.55155e-22)
(0.994312 -0.000552178 5.98476e-21)
(0.994369 -0.000851975 1.72431e-22)
(0.99484 -0.00104317 -1.16995e-20)
(0.995288 -0.00191547 5.78587e-21)
(0.996267 -0.00230029 0)
(0.99687 -0.00310768 -1.83167e-22)
(0.997729 -0.00346626 -2.85785e-21)
(0.998708 -0.00492594 5.83309e-21)
(1.00097 -0.00544404 -5.33186e-21)
(1.0028 -0.00626738 2.54437e-21)
(1.00499 -0.00638829 0)
(1.00696 -0.00801849 2.26135e-21)
(1.00967 -0.00872898 -2.27157e-21)
(1.01253 -0.00853795 -9.41866e-22)
(1.0163 -0.00767386 1.00913e-21)
(1.01936 -0.00769207 0)
(1.02234 -0.00826539 4.81738e-25)
(1.02392 -0.00838669 0)
(1.02616 -0.00760002 1.88316e-23)
(1.02851 -0.00596278 -4.08795e-24)
(1.03302 -0.00278392 -1.88315e-24)
(1.03637 -0.000309824 -6.79536e-24)
(1.0404 0.00176579 1.25364e-23)
(1.04131 0.00110012 -3.92207e-22)
(1.04349 -0.000286463 4.02553e-22)
(1.04518 -0.00525809 3.95252e-22)
(1.05037 -0.00888865 -3.95868e-22)
(1.05339 -0.0141396 -8.47489e-22)
(1.05991 -0.0163048 1.77356e-21)
(1.06436 -0.0196482 -1.74049e-21)
(1.07254 -0.0194295 8.94693e-22)
(1.07739 -0.0192601 4.96305e-23)
(1.08575 -0.0158923 0)
(1.0898 -0.0127152 3.21821e-23)
(1.09687 -0.0063102 0)
(1.09809 -0.000502894 0)
(1.1013 0.00818599 0)
(1.0962 0.0148676 -5.63561e-22)
(1.09284 0.0215243 5.96465e-22)
(1.07984 0.0249959 5.21141e-23)
(0.994387 -0.000947621 -5.79146e-21)
(0.994435 -0.00131101 5.6083e-25)
(0.994938 -0.00152683 -6.46673e-21)
(0.99546 -0.00254029 6.32545e-21)
(0.99642 -0.00293352 -3.79617e-22)
(0.997039 -0.00393303 -3.17382e-21)
(0.998014 -0.00430383 2.62043e-21)
(0.999022 -0.00596593 -1.81826e-22)
(1.0008 -0.00623997 -2.94455e-21)
(1.00347 -0.00761063 5.43195e-21)
(1.00552 -0.00759341 -2.82514e-21)
(1.00767 -0.00925894 0)
(1.00952 -0.00965135 -2.16474e-22)
(1.01299 -0.0105532 -6.72828e-23)
(1.01708 -0.00910757 6.06808e-23)
(1.02053 -0.00875936 7.75713e-22)
(1.02315 -0.00874621 -8.06575e-22)
(1.02464 -0.00943925 0)
(1.02719 -0.00924044 -1.88088e-23)
(1.02896 -0.00745009 1.54861e-25)
(1.03317 -0.00389635 0)
(1.0352 -0.00106839 6.39461e-24)
(1.03881 0.0017148 1.18159e-23)
(1.04088 0.00105829 1.19179e-23)
(1.04428 -0.000761759 -2.42467e-23)
(1.04553 -0.0055122 0)
(1.0488 -0.00999512 0)
(1.05075 -0.0159128 9.13442e-22)
(1.05613 -0.0196953 -8.5221e-22)
(1.06004 -0.024353 -6.18585e-23)
(1.06679 -0.0261304 0)
(1.07223 -0.0282764 -9.30017e-22)
(1.08058 -0.0271828 1.6115e-21)
(1.08625 -0.0267638 -1.3214e-21)
(1.09274 -0.0225095 5.77794e-22)
(1.09465 -0.0194165 -3.86675e-23)
(1.09749 -0.0126764 1.95818e-23)
(1.09637 -0.00852386 -8.1759e-24)
(1.09735 -0.000857664 -7.09148e-22)
(1.09111 0.00256757 1.51732e-21)
(0.994252 -0.00124155 -6.34058e-21)
(0.994276 -0.00170475 1.18442e-20)
(0.994792 -0.0019397 -4.79738e-23)
(0.995385 -0.00298656 -6.70843e-21)
(0.996372 -0.00363918 3.90358e-22)
(0.997044 -0.00467878 1.93459e-22)
(0.998059 -0.0051408 1.90929e-22)
(0.998922 -0.00683744 2.93783e-21)
(1.001 -0.00770031 -1.1283e-22)
(1.00352 -0.0087325 -2.84756e-21)
(1.00594 -0.00879328 -2.41917e-21)
(1.00787 -0.0104169 3.14071e-22)
(1.01013 -0.011654 3.72275e-21)
(1.01337 -0.0116604 -2.17546e-21)
(1.01728 -0.0107 9.79305e-22)
(1.02072 -0.0101442 1.11262e-22)
(1.02394 -0.0102523 0)
(1.02588 -0.0104606 -3.2154e-22)
(1.02811 -0.00959676 4.71447e-22)
(1.02925 -0.00827533 -1.35735e-22)
(1.03229 -0.00521145 0)
(1.03476 -0.00282557 -2.03866e-22)
(1.03915 -0.000307045 1.85009e-22)
(1.04095 -0.000560354 -3.71468e-22)
(1.04356 -0.00175835 3.46285e-22)
(1.04334 -0.00537057 3.7984e-22)
(1.04617 -0.00980116 -8.68611e-22)
(1.04701 -0.0164437 -5.08967e-22)
(1.05311 -0.0197998 8.82399e-22)
(1.05746 -0.024539 1.29376e-22)
(1.06684 -0.0258301 0)
(1.07299 -0.0275294 1.28074e-22)
(1.08367 -0.0256162 0)
(1.08958 -0.0235531 6.74888e-22)
(1.09936 -0.0174923 -7.52502e-22)
(1.10255 -0.0113568 -4.4337e-22)
(1.10906 -0.00254413 4.18145e-22)
(1.10712 0.00581786 0)
(1.10703 0.0150291 7.24546e-22)
(1.09548 0.0231252 -7.59942e-22)
(0.994449 -0.00177953 -6.98316e-21)
(0.994449 -0.00224748 4.07443e-22)
(0.99494 -0.00260788 -6.46935e-21)
(0.995474 -0.00390321 7.31632e-21)
(0.99648 -0.00450014 0)
(0.997204 -0.00568154 0)
(0.998234 -0.00617185 0)
(0.999431 -0.00809524 0)
(1.00105 -0.00859505 -2.91542e-21)
(1.00374 -0.0102867 2.92523e-21)
(1.00634 -0.0101246 0)
(1.009 -0.0121448 -1.61501e-22)
(1.01072 -0.0124623 -1.30467e-21)
(1.01359 -0.0134688 1.15757e-21)
(1.01745 -0.0123127 0)
(1.02174 -0.0117063 7.87081e-22)
(1.02531 -0.0109953 -8.93602e-22)
(1.02714 -0.0111538 0)
(1.0289 -0.010553 -9.06109e-24)
(1.02972 -0.00928502 0)
(1.03268 -0.00674324 0)
(1.03491 -0.00440404 5.88884e-24)
(1.03872 -0.00123586 1.0841e-23)
(1.04002 -0.000818742 2.08904e-23)
(1.04267 -0.00143626 4.49281e-23)
(1.04327 -0.00469812 4.53565e-22)
(1.0459 -0.00901767 -3.79752e-22)
(1.0456 -0.0161648 1.03026e-21)
(1.04917 -0.0210928 -9.70548e-22)
(1.05259 -0.0278131 -6.76645e-23)
(1.06019 -0.0305802 0)
(1.06652 -0.034412 -6.85376e-23)
(1.07739 -0.0337212 0)
(1.08517 -0.0342351 0)
(1.09585 -0.0297063 8.28159e-23)
(1.10079 -0.0264868 8.07679e-22)
(1.10681 -0.0182891 -9.82668e-22)
(1.10553 -0.0128999 7.4709e-23)
(1.108 -0.00249682 -3.97142e-22)
(1.09977 0.00355574 6.26321e-22)
(0.994194 -0.00200089 4.63546e-23)
(0.994188 -0.00272993 1.34847e-20)
(0.994806 -0.00317717 -1.34336e-20)
(0.995186 -0.00459412 -3.39411e-22)
(0.996293 -0.00530759 9.99507e-21)
(0.996887 -0.00670414 -3.31639e-21)
(0.998165 -0.00719515 0)
(0.99929 -0.0090959 -3.11436e-21)
(1.00109 -0.0101503 1.28193e-22)
(1.00355 -0.0115435 3.00943e-21)
(1.00674 -0.0119307 -1.74292e-22)
(1.00913 -0.0131294 1.6418e-22)
(1.01104 -0.0142868 3.07135e-22)
(1.0139 -0.0148359 0)
(1.01796 -0.0141914 0)
(1.02185 -0.0134959 0)
(1.02583 -0.0124791 1.50183e-24)
(1.02791 -0.0123748 0)
(1.02989 -0.0109637 2.70838e-23)
(1.03097 -0.0100269 -3.76157e-24)
(1.03303 -0.00766389 3.17254e-24)
(1.03449 -0.0056315 -6.07295e-24)
(1.03793 -0.00246257 -1.11798e-23)
(1.03982 -0.00171718 -3.59754e-22)
(1.04261 -0.00240627 3.14204e-22)
(1.04289 -0.00497942 3.76954e-22)
(1.04449 -0.00833814 -3.49565e-22)
(1.04332 -0.0157998 -1.0609e-24)
(1.04559 -0.0208246 -1.04558e-21)
(1.04709 -0.028563 1.03545e-21)
(1.05444 -0.0317502 0)
(1.06057 -0.0364892 0)
(1.07364 -0.0365103 9.97133e-22)
(1.0822 -0.0363853 -1.4996e-22)
(1.09658 -0.0313617 -1.78061e-21)
(1.10335 -0.025427 -2.45823e-22)
(1.11437 -0.0158741 4.84736e-22)
(1.11571 -0.0070048 4.40997e-22)
(1.12076 0.00499446 -5.57396e-22)
(1.11055 0.0159109 5.5204e-22)
(0.9943 -0.00282499 0)
(0.994309 -0.00365855 4.36666e-22)
(0.994978 -0.0041205 -4.35412e-22)
(0.995402 -0.0056141 0)
(0.996362 -0.00640682 0)
(0.997059 -0.00794801 0)
(0.998399 -0.00845471 -4.19663e-22)
(0.99972 -0.0105541 -4.094e-22)
(1.00136 -0.011308 3.08848e-21)
(1.00408 -0.0134798 -3.28848e-21)
(1.00678 -0.0133529 1.79811e-22)
(1.00986 -0.0150977 2.43213e-21)
(1.01203 -0.015436 -3.96577e-21)
(1.01494 -0.0167361 1.2024e-21)
(1.01877 -0.0158211 -6.38095e-23)
(1.02252 -0.0154101 7.94804e-22)
(1.02663 -0.0136649 -8.01978e-22)
(1.02906 -0.0132639 0)
(1.03162 -0.0117855 -1.8313e-23)
(1.03256 -0.0106458 3.8888e-24)
(1.03441 -0.0083734 -3.27984e-24)
(1.03523 -0.00666529 0)
(1.03812 -0.00406057 0)
(1.03928 -0.00277806 0)
(1.04128 -0.00301429 0)
(1.04122 -0.00439109 3.81866e-22)
(1.04296 -0.00708847 -8.7724e-22)
(1.04225 -0.0134712 1.39765e-21)
(1.04353 -0.018938 -1.08473e-21)
(1.04318 -0.0284119 -1.19589e-21)
(1.0487 -0.0334062 1.18282e-21)
(1.05332 -0.041142 -1.38135e-21)
(1.06457 -0.0427731 1.54026e-21)
(1.07356 -0.0462006 1.70641e-22)
(1.08897 -0.0424833 0)
(1.09859 -0.0399583 -1.42495e-21)
(1.11269 -0.0300652 6.82818e-22)
(1.11547 -0.0231632 8.28312e-22)
(1.12271 -0.0102962 -3.73083e-22)
(1.11389 0.00030258 1.13532e-21)
(0.993871 -0.00323445 -7.75595e-21)
(0.99378 -0.00427876 6.74936e-21)
(0.994584 -0.00485077 -6.77345e-21)
(0.9949 -0.00654242 -7.12386e-21)
(0.996049 -0.00743668 7.17734e-21)
(0.996846 -0.00908092 4.41846e-22)
(0.997943 -0.00975833 4.33365e-22)
(0.9995 -0.011747 -7.55311e-25)
(1.00162 -0.0129338 -3.18601e-21)
(1.00387 -0.0146496 3.39327e-21)
(1.00694 -0.0153432 0)
(1.00981 -0.0165546 0)
(1.01279 -0.0171735 0)
(1.0152 -0.0183865 -1.24869e-21)
(1.01913 -0.0176866 1.17241e-21)
(1.0226 -0.017226 1.14324e-22)
(1.02706 -0.015266 0)
(1.03003 -0.0147251 0)
(1.03259 -0.0125867 0)
(1.03371 -0.011412 0)
(1.03554 -0.00901507 2.68067e-24)
(1.03638 -0.0076276 0)
(1.03788 -0.00472357 0)
(1.03856 -0.00306783 -2.90653e-22)
(1.03999 -0.0030606 -4.99681e-23)
(1.04007 -0.00423841 3.05091e-22)
(1.0411 -0.00668197 0)
(1.04029 -0.0124035 9.68373e-22)
(1.04127 -0.0172321 1.66856e-22)
(1.04025 -0.0273789 -1.18743e-21)
(1.04397 -0.0336787 8.69897e-23)
(1.04669 -0.042412 0)
(1.05723 -0.0464316 1.51975e-21)
(1.0654 -0.0505699 -4.62696e-22)
(1.08224 -0.0493283 -1.41496e-21)
(1.09313 -0.0463355 1.5275e-22)
(1.11223 -0.0365427 -1.14448e-22)
(1.11811 -0.0260179 4.1641e-22)
(1.13242 -0.0117171 -4.5402e-22)
(1.12566 0.0039554 0)
(0.993671 -0.00428942 -7.56997e-21)
(0.994086 -0.00548993 7.00263e-21)
(0.994736 -0.00613655 -5.40733e-23)
(0.995095 -0.00791357 -1.48829e-20)
(0.996127 -0.00882417 7.45509e-21)
(0.996992 -0.0106413 -4.56481e-22)
(0.998344 -0.0112868 0)
(0.999824 -0.0136536 -1.08746e-24)
(1.00163 -0.0144393 -2.86828e-21)
(1.00454 -0.0169587 3.50414e-21)
(1.00755 -0.0170564 0)
(1.01068 -0.0189646 0)
(1.01368 -0.0187084 1.40833e-21)
(1.01639 -0.0205218 -9.5282e-22)
(1.0201 -0.0193454 0)
(1.0239 -0.0194029 7.87808e-22)
(1.02851 -0.0170172 -8.47309e-22)
(1.03134 -0.0160348 0)
(1.03446 -0.0136493 0)
(1.03574 -0.0122776 -3.03074e-24)
(1.03793 -0.00954635 -2.77339e-24)
(1.03862 -0.00790293 0)
(1.03913 -0.00517348 0)
(1.03907 -0.00352778 1.55241e-23)
(1.03897 -0.00345624 1.65306e-23)
(1.03855 -0.00411436 0)
(1.03915 -0.00596638 4.08554e-22)
(1.03786 -0.0106808 -4.06013e-22)
(1.03916 -0.0151874 0)
(1.03767 -0.0243506 0)
(1.04063 -0.0311474 0)
(1.04177 -0.0427853 0)
(1.05044 -0.0484959 0)
(1.05751 -0.0569535 1.86662e-21)
(1.07293 -0.0578901 -1.65541e-21)
(1.0841 -0.0597859 -1.57559e-22)
(1.10486 -0.0528571 2.01127e-21)
(1.11368 -0.0444482 -1.83421e-21)
(1.13349 -0.0312033 0)
(1.12959 -0.0105269 6.79938e-24)
(0.992919 -0.00495076 4.8696e-22)
(0.993331 -0.00638493 8.26113e-21)
(0.994062 -0.00704805 -7.80775e-21)
(0.99452 -0.00885355 -7.21845e-21)
(0.995209 -0.00999514 1.158e-20)
(0.996409 -0.0119206 -3.36174e-21)
(0.997821 -0.0126604 -3.21149e-21)
(0.999332 -0.0150156 7.7126e-21)
(1.00159 -0.0161382 -6.08213e-22)
(1.00389 -0.0186233 -3.62763e-21)
(1.00773 -0.0190864 0)
(1.0104 -0.0207081 0)
(1.01421 -0.0205642 -1.68333e-22)
(1.01701 -0.0221584 -1.28242e-21)
(1.02086 -0.0213231 1.13313e-21)
(1.02433 -0.021406 8.37241e-22)
(1.02869 -0.0188149 -8.38594e-22)
(1.03197 -0.0174761 0)
(1.03554 -0.0147501 0)
(1.03702 -0.0129649 3.13917e-24)
(1.03888 -0.0102856 1.88589e-24)
(1.03953 -0.00815287 0)
(1.04008 -0.0055035 0)
(1.03956 -0.00341314 -1.75064e-22)
(1.03859 -0.00281845 1.74584e-22)
(1.037 -0.00326251 2.85813e-22)
(1.03653 -0.00479949 -2.8416e-22)
(1.03465 -0.00886016 1.05743e-22)
(1.03555 -0.0133327 -1.21195e-21)
(1.0336 -0.0221071 1.20787e-21)
(1.03739 -0.0301594 0)
(1.03671 -0.040581 0)
(1.04475 -0.0502769 1.92971e-21)
(1.04983 -0.0590571 2.62982e-22)
(1.06494 -0.0650177 -3.99249e-21)
(1.07508 -0.0670591 2.04409e-21)
(1.09767 -0.0659082 -2.80314e-21)
(1.1074 -0.0554634 4.03854e-21)
(1.13347 -0.0457339 -9.61714e-22)
(1.13511 -0.0184844 -5.28566e-22)
(0.992429 -0.00630614 0)
(0.993038 -0.00806031 7.59967e-21)
(0.994044 -0.0087224 -1.67544e-20)
(0.99473 -0.0106416 7.63413e-21)
(0.995597 -0.0116588 -5.04439e-22)
(0.99662 -0.0140166 -4.41261e-21)
(0.998161 -0.0147718 2.96299e-21)
(1.00018 -0.0173385 0)
(1.00222 -0.0181805 -3.0728e-21)
(1.00473 -0.021353 3.11179e-21)
(1.00784 -0.0212407 0)
(1.01142 -0.0235636 2.85663e-21)
(1.01519 -0.0227737 -2.86583e-21)
(1.01889 -0.024652 0)
(1.02276 -0.0235455 -8.5292e-22)
(1.02575 -0.0234282 9.85639e-22)
(1.03034 -0.0209331 4.46345e-23)
(1.03377 -0.0193639 0)
(1.03756 -0.0164237 -1.26441e-23)
(1.03972 -0.0139284 0)
(1.04126 -0.0111915 -6.20121e-25)
(1.042 -0.00840251 2.86779e-24)
(1.04225 -0.00544212 2.95187e-24)
(1.04124 -0.00293632 0)
(1.03975 -0.0017404 0)
(1.03675 -0.00198065 2.24472e-22)
(1.03527 -0.0034811 -5.50414e-22)
(1.03178 -0.0071363 -6.30927e-22)
(1.03214 -0.0114013 2.14644e-21)
(1.02893 -0.0193559 -1.17827e-21)
(1.03215 -0.0272023 0)
(1.03103 -0.0384635 0)
(1.03873 -0.0481954 0)
(1.04211 -0.0599642 -2.63175e-22)
(1.0568 -0.0687326 5.52267e-22)
(1.06642 -0.0745647 -2.4384e-22)
(1.08877 -0.0794296 -2.86218e-21)
(1.09992 -0.0724752 3.51972e-21)
(1.12669 -0.0692606 -1.50051e-22)
(1.13435 -0.0409924 -2.60024e-22)
(0.991247 -0.00721078 -9.16444e-21)
(0.992068 -0.00922325 5.29124e-22)
(0.992642 -0.0100545 8.45353e-21)
(0.993745 -0.0119245 -1.63845e-20)
(0.99474 -0.0129812 1.31456e-20)
(0.995784 -0.0155443 -4.1823e-21)
(0.997338 -0.0163937 1.01399e-21)
(0.999456 -0.0191278 3.8428e-21)
(1.00193 -0.0198253 -7.99809e-21)
(1.00439 -0.0231313 7.57005e-21)
(1.00757 -0.0232439 -3.4591e-21)
(1.01107 -0.0258549 -2.92323e-21)
(1.01529 -0.0250972 2.76061e-21)
(1.01909 -0.0266804 0)
(1.02349 -0.0251952 -1.3561e-22)
(1.02682 -0.0251149 8.00499e-22)
(1.03122 -0.0227976 -8.48201e-22)
(1.03467 -0.020942 2.30588e-22)
(1.03823 -0.0180308 -2.07034e-22)
(1.04078 -0.0145844 1.58078e-24)
(1.04259 -0.0115078 -2.43524e-23)
(1.04312 -0.00848386 3.30236e-23)
(1.04302 -0.00526897 -1.93433e-23)
(1.04177 -0.00237989 -1.19691e-23)
(1.04016 -0.000324719 1.1944e-23)
(1.03658 -4.21642e-05 1.45037e-22)
(1.03426 -0.000991161 -1.2664e-22)
(1.02941 -0.00394308 -3.40261e-23)
(1.02903 -0.00869171 -6.30717e-23)
(1.02325 -0.0151124 -1.45387e-21)
(1.02567 -0.0247202 1.64869e-21)
(1.02297 -0.0350959 0)
(1.03015 -0.0474632 -2.80564e-22)
(1.03235 -0.0589694 2.4904e-21)
(1.04631 -0.0732945 -4.9838e-21)
(1.05579 -0.079563 2.51795e-21)
(1.07809 -0.0905739 -4.64818e-21)
(1.09134 -0.0859765 8.62011e-22)
(1.12015 -0.0881958 6.06288e-21)
(1.13416 -0.0628398 -2.20192e-21)
(0.991275 -0.00890139 1.12021e-21)
(0.99203 -0.0112189 8.89335e-21)
(0.992521 -0.0121801 -7.82905e-21)
(0.993593 -0.0142123 -1.11063e-21)
(0.994803 -0.0153046 0)
(0.99614 -0.0180572 0)
(0.997876 -0.0189785 -5.28004e-22)
(0.999767 -0.0220623 0)
(1.00283 -0.0225217 3.80582e-21)
(1.00567 -0.0261704 -6.92587e-21)
(1.00903 -0.0259729 3.58167e-21)
(1.01251 -0.0290704 1.95516e-22)
(1.0164 -0.0282757 3.91069e-24)
(1.02027 -0.0295859 1.52777e-22)
(1.0255 -0.0282552 0)
(1.02927 -0.0275973 0)
(1.03395 -0.0254598 -3.96681e-23)
(1.03766 -0.0228781 2.75313e-23)
(1.04083 -0.0202393 -1.10353e-23)
(1.04319 -0.0162107 -1.64425e-24)
(1.04548 -0.012534 0)
(1.04615 -0.00894687 0)
(1.04616 -0.00523244 1.42828e-23)
(1.04407 -0.00169752 9.12823e-23)
(1.04232 0.000905284 -1.12212e-22)
(1.03758 0.00231705 0)
(1.03477 0.0015295 -1.84615e-23)
(1.02836 -0.000278307 3.53734e-23)
(1.027 -0.00508545 9.90416e-22)
(1.01993 -0.0109744 -9.19007e-22)
(1.02051 -0.0201081 -2.05549e-22)
(1.01491 -0.0308137 0)
(1.01994 -0.0441558 2.91389e-22)
(1.02056 -0.055934 3.33325e-22)
(1.0327 -0.072964 -3.42002e-22)
(1.04122 -0.0827694 -5.83056e-21)
(1.0634 -0.0980765 2.38071e-22)
(1.07852 -0.0993162 5.21941e-21)
(1.1102 -0.109758 3.21838e-22)
(1.12825 -0.0875649 -1.59328e-22)
(0.989456 -0.0103013 -1.01347e-20)
(0.990544 -0.012757 9.35195e-21)
(0.991271 -0.0137253 -1.93179e-20)
(0.992035 -0.0160182 1.98236e-20)
(0.993577 -0.0170563 -9.3247e-21)
(0.994762 -0.0200661 -4.48296e-21)
(0.996984 -0.020902 4.50918e-21)
(0.998898 -0.0242645 4.18318e-21)
(1.00184 -0.0247862 -7.65303e-21)
(1.00525 -0.0284725 7.67216e-21)
(1.00888 -0.0282614 -3.71292e-21)
(1.01284 -0.0313491 -2.03507e-22)
(1.01692 -0.0304197 -9.84464e-22)
(1.02064 -0.0319079 4.40785e-23)
(1.02584 -0.0307701 1.27559e-21)
(1.02998 -0.0295709 7.76487e-22)
(1.03498 -0.0274525 -6.86855e-22)
(1.03916 -0.0240046 -6.08392e-24)
(1.04291 -0.0212154 5.01302e-24)
(1.04504 -0.0172211 0)
(1.04712 -0.0129579 1.17016e-24)
(1.0475 -0.0086631 0)
(1.04775 -0.00459055 -1.1369e-23)
(1.04515 -0.000170508 -9.15531e-24)
(1.04328 0.00278942 -1.58476e-22)
(1.03784 0.00529203 1.87164e-22)
(1.03451 0.0048858 4.33694e-23)
(1.02694 0.00410063 3.83954e-22)
(1.02448 -0.00047838 -4.49426e-22)
(1.01637 -0.00504646 -7.02999e-23)
(1.01554 -0.0143635 0)
(1.00812 -0.0236976 -2.18494e-21)
(1.01006 -0.039043 2.17349e-21)
(1.00799 -0.0513078 -3.46746e-22)
(1.01673 -0.0706002 0)
(1.02252 -0.0837014 0)
(1.04173 -0.104996 0)
(1.05837 -0.10934 0)
(1.08768 -0.131353 -6.48623e-21)
(1.11748 -0.113853 1.00737e-20)
(0.989614 -0.0124624 9.89174e-21)
(0.990665 -0.0151711 -7.32093e-22)
(0.991508 -0.0162595 -1.97575e-20)
(0.992032 -0.0188459 -4.76286e-22)
(0.993925 -0.0199646 9.83279e-21)
(0.994816 -0.0232164 0)
(0.997603 -0.0240602 0)
(0.999515 -0.0278171 0)
(1.00273 -0.028275 3.59363e-21)
(1.00624 -0.0321593 -4.64897e-21)
(1.01017 -0.0321581 2.28946e-22)
(1.01444 -0.0349256 -3.11382e-21)
(1.01928 -0.0343988 2.94018e-21)
(1.02329 -0.0351541 -1.52431e-22)
(1.02844 -0.0344367 -9.18037e-24)
(1.03285 -0.0328017 -5.47519e-24)
(1.0377 -0.0310226 0)
(1.0421 -0.0271062 -3.98436e-23)
(1.04662 -0.0235679 -5.23169e-24)
(1.04897 -0.019189 1.2203e-24)
(1.05153 -0.0143992 -7.56127e-23)
(1.05147 -0.00911921 8.5477e-23)
(1.05153 -0.00468402 -3.17257e-23)
(1.04851 0.000523622 2.22056e-23)
(1.04674 0.00418722 -5.12429e-23)
(1.04092 0.00775471 -2.07925e-22)
(1.03704 0.00862141 2.59047e-22)
(1.02849 0.00892735 -1.54816e-22)
(1.02459 0.00470662 -3.92199e-22)
(1.01438 0.00147424 5.62025e-22)
(1.01156 -0.00786734 0)
(1.00256 -0.015382 2.1411e-22)
(1.00216 -0.0309743 0)
(0.996793 -0.0435693 2.75155e-21)
(1.0019 -0.0647352 -6.58825e-21)
(1.00524 -0.0784792 1.10624e-20)
(1.01707 -0.105764 -1.59641e-20)
(1.0346 -0.113233 8.38972e-21)
(1.05565 -0.14502 -7.22245e-21)
(1.0941 -0.138681 7.48083e-21)
(0.988302 -0.014044 -6.67288e-22)
(0.988598 -0.017146 1.17591e-20)
(0.989959 -0.0183618 -1.05081e-20)
(0.99004 -0.0211331 6.57063e-22)
(0.99222 -0.0222807 0)
(0.993274 -0.0257831 -6.36557e-22)
(0.995991 -0.0266625 0)
(0.998348 -0.0305807 5.17779e-21)
(1.00179 -0.0310267 -8.66799e-22)
(1.00553 -0.0350285 -3.81256e-21)
(1.00986 -0.0350178 -2.39092e-22)
(1.01418 -0.0377027 -2.09659e-22)
(1.01945 -0.0375287 0)
(1.02413 -0.0376198 -9.52615e-22)
(1.02963 -0.0370559 9.8706e-22)
(1.03455 -0.0348594 5.45371e-22)
(1.03965 -0.0329077 -6.19812e-22)
(1.04384 -0.0289575 1.70067e-23)
(1.04855 -0.0248963 3.04131e-23)
(1.05095 -0.0199731 -3.52225e-23)
(1.05391 -0.0147989 2.55004e-24)
(1.05406 -0.0084893 -3.43973e-23)
(1.05448 -0.00340708 3.31738e-23)
(1.05075 0.0025463 -4.76708e-23)
(1.04881 0.00664517 3.25957e-23)
(1.0424 0.0114645 -6.08889e-22)
(1.03816 0.0126615 5.35665e-22)
(1.02887 0.0150978 2.16874e-22)
(1.02402 0.0114332 -2.6878e-22)
(1.01263 0.00961011 1.56456e-23)
(1.0079 0.000580067 0)
(0.996608 -0.00601509 -2.17524e-21)
(0.993894 -0.0208928 1.68182e-21)
(0.987004 -0.0316856 3.15211e-21)
(0.986087 -0.0545347 -2.69514e-21)
(0.988964 -0.0683926 0)
(0.990762 -0.0998622 -8.34405e-21)
(1.00918 -0.112641 8.25216e-21)
(1.01714 -0.148389 0)
(1.06032 -0.162912 5.38481e-22)
(0.988762 -0.0170265 4.41304e-22)
(0.988861 -0.0203248 -1.19385e-20)
(0.990515 -0.0217039 1.10522e-20)
(0.99045 -0.0246423 -2.27828e-20)
(0.992786 -0.025912 1.71297e-20)
(0.993805 -0.0296717 -4.76681e-21)
(0.996706 -0.0306434 0)
(0.999229 -0.0348749 -6.19165e-22)
(1.00284 -0.0354965 -3.91467e-21)
(1.00676 -0.0394013 3.98363e-21)
(1.01176 -0.0398823 2.43625e-22)
(1.01624 -0.042116 -3.20616e-21)
(1.02183 -0.0426062 4.39432e-21)
(1.02691 -0.0419767 -1.35445e-21)
(1.03277 -0.0417511 0)
(1.03807 -0.0391871 0)
(1.04411 -0.0367928 2.59231e-23)
(1.04841 -0.0325381 3.39663e-23)
(1.0537 -0.0279167 -1.03385e-22)
(1.05617 -0.0222978 8.06359e-23)
(1.05905 -0.0170315 -1.83239e-22)
(1.05888 -0.00981376 1.70123e-22)
(1.06019 -0.00399045 6.32188e-23)
(1.05632 0.00356201 9.53099e-22)
(1.05415 0.00806053 -9.01098e-22)
(1.0473 0.014415 -7.70446e-22)
(1.04268 0.0163179 8.89499e-23)
(1.03281 0.020248 -1.19408e-22)
(1.02693 0.0180048 8.03678e-22)
(1.01467 0.0180737 -1.27695e-24)
(1.00757 0.0101745 4.63439e-23)
(0.995521 0.00585572 -1.32386e-22)
(0.987444 -0.00962973 2.70546e-22)
(0.980515 -0.0189165 3.3717e-21)
(0.971376 -0.0410081 -7.08126e-21)
(0.97425 -0.0556359 3.62531e-21)
(0.966211 -0.0850537 0)
(0.982855 -0.102833 0)
(0.980436 -0.138496 0)
(1.01975 -0.165684 1.13812e-20)
(0.986413 -0.0190823 0)
(0.986816 -0.0226561 1.18495e-20)
(0.988674 -0.0241641 -1.26823e-20)
(0.988587 -0.0273345 1.16819e-20)