/*--------------------------------*- C++ -*----------------------------------*\
  =========                 |
  \\      /  F ield         | OpenFOAM: The Open Source CFD Toolbox
   \\    /   O peration     | Website:  https://openfoam.org
    \\  /    A nd           | Version:  11
     \\/     M anipulation  |
\*---------------------------------------------------------------------------*/
FoamFile
{
    format      ascii;
    class       volScalarField;
    location    "2.5";
    object      mag(U);
}
// * * * * * * * * * * * * * * * * * * * * * * * * * * * * * * * * * * * * * //

dimensions      [0 1 -1 0 0 0 0];

internalField   nonuniform List<scalar> 
9600
(
0.997937
0.996936
0.995862
0.996008
0.997693
0.99412
0.96728
0.933465
0.920403
0.923876
0.941245
0.964149
0.984033
1.00053
1.01399
1.02494
1.03406
1.04155
1.04723
1.05163
1.05502
1.05733
1.05831
1.05758
1.05558
1.05258
1.04903
1.04455
1.0397
1.03435
1.0296
1.02488
1.02077
1.01662
1.01283
1.00945
1.00667
1.00432
1.00189
0.999382
0.998311
0.998242
0.998282
0.998012
0.996507
0.996416
0.997783
0.999617
0.997891
0.997152
1.00004
1.0074
1.01273
1.01605
1.01939
1.02373
1.02879
1.03336
1.03686
1.03962
1.04169
1.04326
1.04349
1.0424
1.04033
1.03724
1.03436
1.02917
1.02593
1.01894
1.01581
1.00935
1.00626
1.0006
0.998268
0.994292
0.991788
0.990037
0.988619
0.98737
0.998385
0.998219
0.998331
0.999135
1.00089
1.00136
0.998559
0.991795
0.978736
0.974493
0.977935
0.987428
0.999447
1.01129
1.02237
1.03198
1.03996
1.04666
1.05194
1.05618
1.05974
1.06186
1.06348
1.06313
1.06218
1.05892
1.05642
1.0511
1.04748
1.04141
1.03788
1.03225
1.02974
1.02489
1.02272
1.01852
1.01564
1.01304
1.00928
1.00506
0.998586
0.998692
0.999165
0.999874
1.00155
1.0038
1.00497
1.00856
1.01505
1.02071
1.02614
1.02989
1.03147
1.03162
1.03196
1.03262
1.03385
1.0366
1.03953
1.04205
1.04408
1.04564
1.04584
1.04432
1.04257
1.03912
1.03725
1.03238
1.02927
1.02367
1.01865
1.01388
1.00909
1.00377
1.00095
0.996752
0.994239
0.993586
0.991695
0.991353
0.998786
0.999032
0.999696
1.00051
1.00295
1.00862
1.01418
1.0158
1.01101
1.00342
0.997772
0.997259
1.00322
1.01222
1.02205
1.03135
1.03933
1.04597
1.05081
1.05484
1.05839
1.06018
1.06198
1.06238
1.0619
1.05905
1.05653
1.05166
1.0477
1.04226
1.03833
1.03363
1.03064
1.02655
1.02436
1.01957
1.01743
1.0131
1.01032
1.00493
0.99902
0.999459
1.00022
1.00185
1.00638
1.01068
1.01313
1.01704
1.02199
1.02714
1.03277
1.03733
1.0406
1.04131
1.04132
1.04164
1.04194
1.04271
1.04408
1.0455
1.04774
1.04887
1.04869
1.04776
1.04585
1.04238
1.04014
1.03604
1.03287
1.02783
1.02282
1.01763
1.01265
1.00725
1.00391
0.999686
0.997585
0.996742
0.994601
0.995126
0.999443
1.00026
1.00126
1.00301
1.00766
1.01323
1.01689
1.01961
1.02092
1.01985
1.01589
1.01163
1.01106
1.01579
1.02321
1.03129
1.03888
1.04566
1.0506
1.05431
1.05808
1.05972
1.06095
1.06193
1.06204
1.05997
1.05697
1.05279
1.04834
1.04324
1.03908
1.03491
1.03173
1.02812
1.02542
1.02128
1.01844
1.0134
1.0109
1.00485
1.00019
1.00085
1.00209
1.00498
1.00937
1.01349
1.01761
1.0213
1.02327
1.02723
1.03299
1.03873
1.04315
1.04589
1.04685
1.04801
1.04825
1.04914
1.04967
1.05007
1.05194
1.05322
1.05286
1.05146
1.0493
1.04637
1.04389
1.04007
1.03672
1.03205
1.02732
1.02179
1.01672
1.01133
1.00693
1.00297
1.00148
0.999388
0.997793
0.998684
1.00048
1.00132
1.00297
1.00614
1.01036
1.01476
1.01903
1.02168
1.02373
1.02578
1.02658
1.02616
1.02471
1.025
1.02801
1.03349
1.03948
1.04556
1.05114
1.05469
1.05815
1.06015
1.0613
1.06233
1.0629
1.06105
1.05833
1.05433
1.04929
1.04456
1.04014
1.03638
1.03265
1.02968
1.02618
1.02261
1.01911
1.01374
1.0111
1.00488
1.0008
1.00185
1.00359
1.00749
1.01173
1.01537
1.01937
1.02185
1.02365
1.02734
1.03255
1.03759
1.04319
1.04707
1.04906
1.0513
1.0528
1.0541
1.05538
1.05579
1.05641
1.05798
1.05856
1.05672
1.05358
1.05056
1.04822
1.0444
1.04076
1.03643
1.03163
1.02639
1.02112
1.01528
1.01007
1.00686
1.00468
1.00202
1.00132
1.0015
1.00139
1.00252
1.00477
1.00873
1.01295
1.017
1.0196
1.02106
1.02381
1.02777
1.03117
1.03329
1.03429
1.03473
1.03597
1.03878
1.04279
1.0475
1.05242
1.05588
1.05971
1.06151
1.06229
1.06345
1.0647
1.06309
1.06048
1.05664
1.05151
1.04629
1.04175
1.03774
1.0337
1.03099
1.02707
1.02387
1.01941
1.01391
1.01116
1.00496
1.0018
1.00325
1.00622
1.0098
1.014
1.01744
1.01957
1.02078
1.02265
1.02672
1.03209
1.03736
1.04216
1.0469
1.05077
1.05342
1.05604
1.05799
1.0597
1.06126
1.06201
1.06303
1.06448
1.06279
1.05961
1.056
1.0534
1.04936
1.0456
1.0412
1.03657
1.03089
1.02557
1.01962
1.01385
1.01033
1.00783
1.00566
1.00475
1.00348
1.00266
1.00468
1.00753
1.0109
1.01423
1.01691
1.01861
1.01965
1.02174
1.02651
1.03161
1.03618
1.04025
1.04298
1.04442
1.04632
1.04873
1.05184
1.05591
1.05902
1.06245
1.06461
1.06471
1.06594
1.06727
1.06607
1.06352
1.05968
1.05494
1.04911
1.04405
1.03983
1.03522
1.03242
1.02855
1.02487
1.01955
1.0144
1.01142
1.005
1.0031
1.00532
1.00816
1.01122
1.01396
1.01625
1.01744
1.01849
1.02074
1.02498
1.03066
1.03656
1.04218
1.04715
1.05189
1.05566
1.05906
1.0619
1.06403
1.06634
1.06793
1.06835
1.07036
1.06956
1.06663
1.06237
1.05935
1.05529
1.05115
1.04651
1.04191
1.03585
1.03018
1.02454
1.01835
1.01397
1.01163
1.00874
1.00779
1.00512
1.00424
1.00619
1.00894
1.01179
1.01384
1.01553
1.01658
1.01788
1.01988
1.02356
1.02952
1.03592
1.04255
1.04815
1.05166
1.05433
1.05675
1.05887
1.06185
1.06419
1.06682
1.06909
1.06911
1.06945
1.07112
1.07029
1.06766
1.06365
1.05928
1.05336
1.04754
1.04272
1.03759
1.03416
1.0302
1.02607
1.02059
1.01513
1.01188
1.00546
1.00434
1.00602
1.00865
1.01164
1.01316
1.01476
1.01585
1.01751
1.01957
1.02278
1.02856
1.03537
1.04283
1.04946
1.05499
1.05959
1.06345
1.06674
1.06923
1.07146
1.07384
1.07435
1.07628
1.07664
1.07429
1.07006
1.0664
1.06233
1.05771
1.05285
1.04805
1.04186
1.03552
1.02953
1.02364
1.01791
1.01576
1.01211
1.01035
1.00683
1.00526
1.00627
1.00891
1.01187
1.01323
1.01445
1.01575
1.01796
1.01998
1.0223
1.02758
1.03469
1.04243
1.05059
1.05676
1.06127
1.06491
1.06688
1.06942
1.07133
1.07339
1.0755
1.07594
1.07534
1.0764
1.07598
1.07345
1.06939
1.0647
1.05942
1.05276
1.04734
1.04132
1.03681
1.03226
1.02781
1.02253
1.01626
1.01284
1.00668
1.00475
1.00577
1.00807
1.01118
1.0126
1.01362
1.01529
1.01808
1.02049
1.02249
1.02679
1.03354
1.04139
1.04995
1.05734
1.06327
1.06822
1.07202
1.07495
1.07701
1.08015
1.08112
1.08266
1.0837
1.08252
1.0788
1.07499
1.07084
1.06575
1.06035
1.0547
1.04932
1.04193
1.03582
1.02903
1.02292
1.01976
1.01572
1.01284
1.00898
1.00566
1.0064
1.008
1.01114
1.01285
1.01371
1.0155
1.01849
1.0215
1.02354
1.02674
1.03286
1.04
1.04884
1.05778
1.06492
1.07103
1.075
1.07843
1.08036
1.08215
1.08372
1.08471
1.08362
1.08359
1.08303
1.08106
1.07725
1.07188
1.06676
1.05937
1.05391
1.04696
1.04179
1.03578
1.03134
1.0248
1.019
1.01468
1.00998
1.00409
1.00552
1.00696
1.01001
1.0122
1.01318
1.01508
1.01837
1.02209
1.02468
1.02752
1.03287
1.03965
1.04796
1.0574
1.06591
1.07298
1.07839
1.08309
1.08548
1.08847
1.09002
1.09131
1.09207
1.09194
1.08892
1.08494
1.08106
1.07551
1.06991
1.0628
1.05765
1.05011
1.04372
1.03618
1.02971
1.0244
1.02014
1.01582
1.01125
1.00497
1.00695
1.00769
1.00964
1.012
1.0133
1.01537
1.01884
1.02307
1.02655
1.02935
1.03418
1.04032
1.04755
1.05682
1.0662
1.07537
1.08206
1.08776
1.09115
1.09369
1.09503
1.09652
1.09585
1.09485
1.09354
1.09085
1.08759
1.08158
1.07666
1.06872
1.06254
1.05483
1.04893
1.04173
1.03665
1.02895
1.02361
1.01721
1.01313
1.00258
1.005
1.00589
1.00736
1.01038
1.01285
1.01548
1.01892
1.02336
1.02774
1.03134
1.03589
1.04162
1.04812
1.05678
1.06649
1.07679
1.0848
1.09201
1.09635
1.10002
1.102
1.10305
1.10348
1.10334
1.1016
1.09709
1.09343
1.08741
1.08238
1.07414
1.06784
1.05975
1.05326
1.04522
1.03826
1.03113
1.02589
1.01992
1.01513
1.00367
1.00604
1.00748
1.00858
1.0112
1.01384
1.01646
1.01972
1.02422
1.02901
1.03374
1.03871
1.0445
1.05041
1.05816
1.06704
1.07742
1.08687
1.09526
1.10148
1.10657
1.10925
1.11093
1.11106
1.10943
1.10824
1.10433
1.10125
1.09474
1.08998
1.08184
1.07485
1.06608
1.05906
1.05055
1.04466
1.03654
1.03021
1.02297
1.01751
1.00075
1.00293
1.00505
1.00664
1.00889
1.01192
1.01518
1.01905
1.02451
1.02996
1.03544
1.04156
1.04814
1.05413
1.06095
1.06889
1.07861
1.08806
1.09777
1.10544
1.11168
1.11632
1.11874
1.11975
1.11816
1.11784
1.11323
1.10991
1.10296
1.09781
1.08974
1.08271
1.07339
1.06592
1.0568
1.04932
1.04078
1.03427
1.02738
1.02072
1.00202
1.00416
1.00629
1.00853
1.01065
1.01357
1.01718
1.02104
1.02662
1.03252
1.03799
1.04433
1.0522
1.05904
1.06607
1.07296
1.0817
1.09027
1.09969
1.10858
1.11612
1.12264
1.12608
1.12957
1.12797
1.12785
1.12302
1.12006
1.11303
1.10726
1.09898
1.0917
1.08212
1.07414
1.06427
1.05612
1.04749
1.0397
1.03241
1.02503
0.998554
1.00062
1.00253
1.00513
1.00798
1.01127
1.01535
1.01978
1.02573
1.03266
1.03921
1.04596
1.05511
1.06393
1.07234
1.07935
1.08727
1.09532
1.10315
1.11215
1.11939
1.12801
1.13227
1.13822
1.13757
1.1389
1.1346
1.13203
1.12459
1.11891
1.1095
1.10251
1.0919
1.08386
1.07312
1.06491
1.05468
1.04671
1.03825
1.0305
0.999997
1.00238
1.00406
1.0066
1.0101
1.01424
1.01884
1.02343
1.02932
1.03676
1.04427
1.05085
1.05984
1.06958
1.07924
1.0876
1.09509
1.10382
1.10998
1.11868
1.12397
1.13323
1.13722
1.14503
1.14632
1.14945
1.14664
1.14476
1.13831
1.13232
1.12288
1.11504
1.1047
1.09529
1.08495
1.07456
1.06514
1.05436
1.04669
1.0366
0.994708
0.997768
1.00002
1.00251
1.006
1.01058
1.01614
1.02165
1.02808
1.03607
1.04544
1.05347
1.06217
1.07325
1.08349
1.0945
1.10227
1.11354
1.1196
1.12923
1.1323
1.14115
1.14357
1.15155
1.15302
1.15841
1.15701
1.158
1.1517
1.14825
1.13778
1.13086
1.11881
1.11008
1.09805
1.08798
1.07701
1.06646
1.05749
1.04641
0.996143
0.999592
1.00266
1.00562
1.00925
1.01382
1.02017
1.02681
1.03413
1.04246
1.05226
1.06248
1.07011
1.08214
1.09149
1.10463
1.11098
1.12398
1.1308
1.14284
1.14591
1.15376
1.15506
1.16125
1.16254
1.16666
1.16664
1.16885
1.16611
1.16332
1.15704
1.14853
1.13929
1.12764
1.11706
1.10342
1.0933
1.07885
1.07
1.05703
0.988983
0.992726
0.996193
0.999711
1.0047
1.0099
1.01639
1.02399
1.03174
1.04196
1.05089
1.06469
1.07235
1.08614
1.09473
1.11166
1.11889
1.13224
1.13882
1.1529
1.15937
1.16864
1.17025
1.17626
1.17634
1.18046
1.17879
1.18076
1.17792
1.17764
1.17277
1.16761
1.15903
1.14966
1.13833
1.12546
1.11426
1.09917
1.08939
1.07484
0.99182
0.99589
1.00006
1.00386
1.00896
1.01606
1.02217
1.03243
1.03914
1.05184
1.05984
1.07525
1.08413
1.09968
1.10754
1.12444
1.1345
1.14785
1.15501
1.16516
1.17469
1.18229
1.18947
1.1923
1.19727
1.19715
1.20066
1.19795
1.19812
1.19351
1.19161
1.18463
1.18033
1.17087
1.16263
1.14975
1.13943
1.12307
1.11295
1.09552
0.981872
0.986828
0.991202
0.996871
1.00196
1.01081
1.01706
1.02921
1.03693
1.05154
1.0605
1.07662
1.08792
1.10347
1.11459
1.12959
1.14112
1.15569
1.16525
1.17641
1.18411
1.19342
1.19995
1.2074
1.21144
1.21535
1.21843
1.22025
1.22062
1.21844
1.21529
1.20871
1.20387
1.19409
1.18831
1.17366
1.16787
1.14985
1.14221
1.12506
0.985119
0.992462
0.997038
1.00365
1.00988
1.0196
1.02769
1.04103
1.05064
1.06505
1.07849
1.09164
1.10877
1.12075
1.13811
1.14792
1.16385
1.17419
1.18894
1.19629
1.20812
1.21244
1.2243
1.22686
1.2364
1.23644
1.24382
1.24273
1.2488
1.24747
1.24875
1.24414
1.24061
1.23139
1.225
1.21216
1.20571
1.18996
1.18262
1.16627
0.971858
0.981485
0.987635
0.996071
1.00419
1.01461
1.02536
1.03882
1.05194
1.068
1.08195
1.09876
1.11419
1.13086
1.14568
1.16045
1.17348
1.18675
1.19896
1.21
1.21948
1.22708
1.23564
1.24144
1.25062
1.25402
1.26341
1.26288
1.27345
1.26852
1.27902
1.27118
1.27813
1.26823
1.26967
1.25719
1.25462
1.23848
1.2337
1.21325
0.982289
0.987583
0.997457
1.00406
1.01819
1.02804
1.04653
1.05909
1.08099
1.09328
1.11589
1.12838
1.15147
1.16304
1.18517
1.19516
1.21493
1.22283
1.23988
1.24631
1.25993
1.26436
1.27575
1.27827
1.2896
1.29116
1.30333
1.30459
1.31689
1.31714
1.32968
1.32656
1.33731
1.32848
1.33595
1.32268
1.32582
1.30916
1.30968
1.28857
0.966024
0.9776
0.992976
1.00387
1.01987
1.03257
1.05068
1.06635
1.08686
1.10516
1.12659
1.14577
1.16624
1.18357
1.20227
1.21708
1.23367
1.24474
1.25844
1.26619
1.27721
1.28212
1.29101
1.29426
1.30378
1.30546
1.31873
1.31956
1.33256
1.33974
1.34897
1.35831
1.36659
1.37427
1.37873
1.38427
1.38275
1.38247
1.37678
1.37156
0.971069
0.983183
1.002
1.02079
1.04397
1.06741
1.09135
1.11547
1.13692
1.15988
1.17907
1.20132
1.219
1.23923
1.25395
1.27094
1.28219
1.29509
1.30249
1.31125
1.31537
1.32108
1.32264
1.32802
1.32844
1.3362
1.33839
1.34956
1.35511
1.3697
1.37716
1.39602
1.40536
1.42666
1.43541
1.455
1.45907
1.47028
1.46867
1.47664
0.979853
1.00043
1.02363
1.04326
1.06537
1.08794
1.11215
1.13848
1.16351
1.19031
1.21359
1.23865
1.25876
1.28079
1.29657
1.31416
1.32476
1.33717
1.34254
1.3497
1.35101
1.35308
1.35151
1.35076
1.34833
1.34876
1.34812
1.35177
1.35585
1.361
1.37122
1.39258
1.40114
1.42237
1.42759
1.44707
1.44756
1.45757
1.4422
1.45961
1.02523
1.06212
1.10463
1.14379
1.1816
1.21692
1.25035
1.28302
1.31294
1.34197
1.36699
1.39056
1.40936
1.42702
1.439
1.44998
1.45409
1.457
1.45262
1.44566
1.43591
1.42003
1.40463
1.38191
1.36269
1.33925
1.31784
1.29988
1.2776
1.26657
1.24466
1.21723
1.18679
1.14991
1.07634
1.00055
0.901037
0.829688
0.738138
0.706737
1.18891
1.22252
1.25631
1.29131
1.32566
1.35748
1.38549
1.40871
1.42826
1.4429
1.45344
1.46171
1.46722
1.47104
1.46966
1.46444
1.45201
1.43496
1.41032
1.38201
1.34609
1.30757
1.2598
1.20969
1.15002
1.08971
1.02336
0.957963
0.89265
0.827653
0.765544
0.699931
0.610857
0.425819
0.212304
0.200299
0.28404
0.377577
0.412484
0.466076
0.99538
0.994462
0.994776
0.994617
0.995586
0.994569
0.991403
0.98765
0.986243
0.985933
0.986719
0.988191
0.990207
0.992793
0.995406
0.99773
0.999663
1.00111
1.00243
1.00349
1.00429
1.00489
1.00574
1.00657
1.00697
1.00702
1.00697
1.00674
1.00657
1.0064
1.00623
1.0062
1.00608
1.00571
1.00553
1.00526
1.00468
1.00451
1.00392
1.00804
0.995452
0.994968
0.994958
0.995047
0.995097
0.993834
0.990657
0.986745
0.985025
0.984891
0.985814
0.987403
0.98955
0.992324
0.995104
0.997565
0.999568
1.00101
1.00241
1.00372
1.00473
1.00549
1.00629
1.00683
1.00705
1.00716
1.0072
1.00708
1.0069
1.00673
1.00663
1.00659
1.00635
1.00605
1.00588
1.00559
1.00523
1.00469
1.0034
1.00268
0.997998
0.995976
0.994814
0.994415
0.994416
0.993697
0.990395
0.985918
0.983854
0.983854
0.984865
0.986585
0.988983
0.992052
0.995027
0.997626
0.999767
1.00128
1.00276
1.00412
1.00517
1.006
1.00701
1.00762
1.00764
1.00743
1.0074
1.00714
1.00689
1.00678
1.0068
1.0068
1.00658
1.0064
1.00619
1.00582
1.00554
1.00539
1.00539
1.00736
0.996763
0.99622
0.995072
0.994422
0.993966
0.993162
0.989664
0.985054
0.982673
0.982691
0.983748
0.985485
0.988016
0.99126
0.994375
0.997078
0.999345
1.00101
1.00272
1.00426
1.00554
1.00638
1.00733
1.00791
1.00784
1.00766
1.00758
1.0075
1.00735
1.00724
1.00724
1.00718
1.00693
1.00681
1.00651
1.00623
1.0058
1.00537
1.00456
1.00339
0.99924
0.997027
0.995167
0.993791
0.993478
0.992887
0.98912
0.984151
0.981417
0.981392
0.982573
0.984459
0.987243
0.990786
0.994109
0.997003
0.999401
1.00113
1.00289
1.00457
1.00606
1.00692
1.00779
1.00828
1.00826
1.00786
1.00762
1.00754
1.00748
1.00743
1.00758
1.00753
1.00718
1.00705
1.00669
1.00651
1.00625
1.00611
1.00604
1.00673
0.998293
0.997144
0.99548
0.993745
0.992917
0.99199
0.987939
0.982998
0.980264
0.980061
0.981226
0.983087
0.986018
0.989728
0.993217
0.996235
0.998891
1.00088
1.00293
1.0048
1.00628
1.00727
1.00794
1.00818
1.00823
1.0079
1.00773
1.00776
1.00786
1.00789
1.00806
1.00795
1.00757
1.00747
1.00701
1.00675
1.00646
1.00616
1.00558
1.00473
1.00022
0.997925
0.995965
0.993322
0.991866
0.990914
0.986779
0.981907
0.978955
0.978461
0.979741
0.981839
0.984988
0.988983
0.992766
0.995995
0.998837
1.00104
1.00324
1.00507
1.00658
1.00763
1.00819
1.00842
1.0085
1.00834
1.00808
1.00805
1.00807
1.00818
1.0083
1.0081
1.00777
1.00763
1.00728
1.00709
1.00692
1.00675
1.00666
1.00664
0.999586
0.997967
0.996222
0.992898
0.990548
0.989507
0.985305
0.98055
0.977705
0.976853
0.978081
0.980245
0.98356
0.987837
0.99188
0.995276
0.998403
1.00092
1.00332
1.00517
1.00677
1.00777
1.00813
1.00835
1.00845
1.00863
1.00883
1.00876
1.0086
1.0087
1.00878
1.00847
1.00822
1.00801
1.00763
1.00733
1.00714
1.00686
1.00656
1.006
1.00093
0.99868
0.996816
0.992344
0.989356
0.988285
0.983982
0.979111
0.976038
0.974872
0.976145
0.978624
0.982263
0.986931
0.991403
0.994929
0.99828
1.0011
1.00364
1.00556
1.00714
1.00789
1.00828
1.00844
1.00856
1.0088
1.0092
1.00911
1.00894
1.00909
1.00916
1.00883
1.00867
1.00836
1.00802
1.00776
1.00754
1.00733
1.00726
1.00691
1.00061
0.998624
0.996599
0.99158
0.988074
0.986843
0.982643
0.977592
0.974011
0.972621
0.973922
0.976733
0.98077
0.985761
0.990456
0.994023
0.997535
1.00077
1.00373
1.00579
1.00728
1.00779
1.00813
1.00839
1.00863
1.00904
1.00959
1.00962
1.00954
1.00974
1.00959
1.00917
1.00904
1.00876
1.00836
1.00807
1.00781
1.00755
1.00737
1.00701
1.00148
0.99928
0.996848
0.991772
0.986978
0.985005
0.981015
0.975973
0.971502
0.969918
0.971441
0.974615
0.97917
0.984685
0.98988
0.99355
0.997246
1.00087
1.0042
1.00626
1.00748
1.00795
1.00835
1.00873
1.00914
1.00973
1.01013
1.00989
1.00992
1.01007
1.00983
1.00955
1.00941
1.00917
1.00879
1.00852
1.00818
1.00791
1.00783
1.00745
1.00149
0.999209
0.996413
0.991573
0.985601
0.982936
0.979189
0.973999
0.968631
0.966869
0.968575
0.972251
0.977446
0.983337
0.988798
0.992622
0.996627
1.00066
1.00424
1.00625
1.00737
1.00785
1.00842
1.00894
1.00954
1.01032
1.01069
1.01047
1.01064
1.01065
1.01022
1.00986
1.00966
1.00948
1.00911
1.00885
1.00861
1.00822
1.008
1.00785
1.00202
0.999875
0.996787
0.992082
0.98474
0.980621
0.976956
0.971712
0.965528
0.96331
0.965238
0.969387
0.975491
0.982201
0.988179
0.992226
0.996572
1.00094
1.00463
1.00638
1.00748
1.00805
1.00879
1.00935
1.01007
1.01095
1.01125
1.01106
1.01114
1.01109
1.01054
1.01024
1.01011
1.00984
1.00955
1.00934
1.00903
1.00866
1.00833
1.00818
1.00257
0.999498
0.995769
0.991393
0.983634
0.978155
0.973975
0.968429
0.961876
0.959407
0.961429
0.966135
0.973252
0.98065
0.987055
0.991409
0.996359
1.00104
1.00447
1.00598
1.00715
1.00805
1.0091
1.0098
1.01067
1.01145
1.01162
1.01145
1.01173
1.01158
1.01106
1.01086
1.01075
1.01044
1.01012
1.00989
1.00961
1.00928
1.0088
1.00849
1.00292
1.00047
0.995968
0.991864
0.983215
0.975735
0.970313
0.96449
0.95795
0.954938
0.95694
0.962297
0.970785
0.979414
0.986298
0.990964
0.996569
1.0016
1.00463
1.00587
1.00717
1.00843
1.00975
1.0104
1.01112
1.01175
1.01192
1.01201
1.01235
1.01224
1.01175
1.01158
1.01143
1.01111
1.01072
1.01041
1.00996
1.0096
1.00922
1.00907
1.00365
1.00029
0.994976
0.990525
0.982186
0.97334
0.96615
0.959779
0.953382
0.949814
0.951484
0.957513
0.967627
0.977671
0.985368
0.990417
0.996414
1.00154
1.00433
1.00554
1.00725
1.00905
1.01048
1.01097
1.01177
1.01243
1.01277
1.0131
1.01333
1.01301
1.01255
1.01232
1.01207
1.01175
1.01146
1.01116
1.01061
1.01014
1.00976
1.00961
1.00378
1.00155
0.995427
0.990174
0.981756
0.971333
0.962019
0.954614
0.947926
0.943619
0.944923
0.951622
0.96371
0.976223
0.985018
0.990359
0.996673
1.00184
1.00441
1.00569
1.00772
1.01004
1.0113
1.01165
1.01255
1.0133
1.0135
1.01394
1.01389
1.01337
1.01307
1.0129
1.01255
1.01227
1.0119
1.01161
1.01115
1.01067
1.0103
1.01016
1.00579
1.00099
0.994645
0.988509
0.980496
0.969044
0.957822
0.949028
0.941299
0.935785
0.936402
0.943829
0.95833
0.974061
0.984706
0.990438
0.996585
1.00207
1.00457
1.00632
1.00853
1.01095
1.01195
1.01234
1.01328
1.01402
1.01414
1.01456
1.01434
1.01401
1.01368
1.01366
1.01327
1.0132
1.01291
1.01238
1.01193
1.01135
1.01098
1.01082
1.00529
1.00212
0.995776
0.988423
0.979675
0.967001
0.954182
0.943014
0.933539
0.926465
0.925728
0.933642
0.95114
0.971552
0.9848
0.990977
0.997287
1.00313
1.00539
1.00771
1.00961
1.01172
1.01262
1.01325
1.014
1.01468
1.01495
1.01538
1.015
1.01467
1.01433
1.01443
1.01403
1.01383
1.0137
1.01305
1.01273
1.01201
1.01162
1.01154
1.00767
1.0024
0.99532
0.987435
0.978287
0.965075
0.950751
0.936608
0.924646
0.915424
0.911922
0.919822
0.940816
0.967585
0.984767
0.991845
0.998195
1.00488
1.00683
1.00963
1.01105
1.01264
1.01353
1.01453
1.01514
1.01556
1.01603
1.01658
1.0162
1.01596
1.01558
1.01542
1.01518
1.01466
1.01453
1.01364
1.0134
1.01267
1.01231
1.01223
1.00744
1.0029
0.996457
0.987886
0.97759
0.963418
0.947781
0.930643
0.915308
0.903016
0.894976
0.901341
0.926616
0.962534
0.984784
0.993311
1.00031
1.00757
1.00913
1.01186
1.01278
1.01384
1.0148
1.01573
1.01635
1.01654
1.01706
1.01766
1.01716
1.01697
1.01654
1.01617
1.01598
1.01533
1.01529
1.01442
1.01412
1.01334
1.01307
1.01298
1.01092
1.00507
0.99748
0.987721
0.976613
0.961684
0.944729
0.925805
0.906419
0.888924
0.874237
0.87693
0.907119
0.955368
0.984445
0.995449
1.00274
1.01051
1.0117
1.01413
1.01455
1.01549
1.01669
1.01713
1.01777
1.01802
1.01866
1.01898
1.01856
1.0182
1.01794
1.01748
1.01728
1.0167
1.0164
1.01565
1.0151
1.01435
1.01402
1.01388
1.01264
1.00589
0.998328
0.988036
0.976634
0.960049
0.942002
0.922467
0.898804
0.873936
0.849896
0.846059
0.881742
0.945656
0.983304
0.997139
1.00566
1.0133
1.01459
1.01681
1.01687
1.01772
1.01902
1.01878
1.01933
1.01934
1.01982
1.01978
1.01979
1.01942
1.01937
1.01911
1.01883
1.01841
1.01793
1.01714
1.01644
1.01563
1.0152
1.01504
1.01644
1.0099
1.00167
0.989982
0.977956
0.959427
0.940002
0.920722
0.892966
0.859116
0.822643
0.808787
0.848859
0.930926
0.979731
0.997481
1.00725
1.01531
1.01714
1.0201
1.01991
1.02051
1.02174
1.02113
1.02166
1.02127
1.02192
1.02138
1.02144
1.02118
1.02085
1.02075
1.02032
1.01986
1.01941
1.01851
1.0179
1.01701
1.01653
1.01639
1.01993
1.01214
1.00341
0.991955
0.979297
0.959926
0.938861
0.919973
0.889347
0.846064
0.794435
0.765806
0.807437
0.908737
0.971911
0.995266
1.00716
1.01701
1.01998
1.02348
1.02331
1.02383
1.02477
1.02399
1.02439
1.02339
1.02427
1.02309
1.02309
1.02282
1.02214
1.02215
1.02134
1.02106
1.02042
1.01978
1.01904
1.01831
1.01773
1.0176
1.02466
1.01671
1.00774
0.997005
0.982261
0.962763
0.940354
0.92043
0.888102
0.835413
0.767319
0.718835
0.756178
0.875108
0.957178
0.988239
1.00415
1.01748
1.02241
1.02605
1.0263
1.02741
1.02801
1.02738
1.02796
1.0267
1.02734
1.02585
1.0258
1.02506
1.02425
1.024
1.02293
1.02273
1.02171
1.02121
1.02012
1.0195
1.01894
1.01888
1.03112
1.02276
1.01273
1.00332
0.986737
0.967723
0.946829
0.924255
0.889322
0.82717
0.742622
0.669846
0.694525
0.826289
0.933377
0.976133
0.997966
1.01554
1.02297
1.02724
1.02842
1.03039
1.03107
1.03077
1.03186
1.03089
1.03134
1.02977
1.02973
1.02851
1.028
1.02738
1.02593
1.02565
1.02385
1.02338
1.02189
1.0213
1.02083
1.02055
1.03985
1.03213
1.02316
1.0141
0.99805
0.978354
0.960304
0.934807
0.893466
0.820092
0.719558
0.620386
0.622381
0.75846
0.896883
0.957024
0.986211
1.00922
1.02061
1.02689
1.02968
1.03233
1.03381
1.03461
1.03611
1.03515
1.0353
1.03368
1.03393
1.03248
1.03221
1.03111
1.02929
1.02879
1.02651
1.02634
1.02463
1.02412
1.02346
1.02302
1.05029
1.04391
1.03724
1.0269
1.01436
0.996411
0.980873
0.953371
0.900361
0.812075
0.695479
0.570653
0.540829
0.670066
0.84205
0.927599
0.967554
0.998025
1.01588
1.02513
1.0305
1.03366
1.03603
1.03778
1.03875
1.03813
1.03859
1.03659
1.03689
1.03532
1.03491
1.03393
1.03244
1.03231
1.0302
1.03021
1.02837
1.02775
1.02673
1.02626
1.0669
1.05998
1.05545
1.04353
1.03383
1.02453
1.00855
0.976893
0.908433
0.800445
0.666548
0.519537
0.451106
0.564977
0.759156
0.882267
0.938725
0.980765
1.0078
1.02078
1.03022
1.03525
1.03836
1.041
1.04216
1.0421
1.04233
1.04026
1.04051
1.03912
1.03913
1.03905
1.03779
1.03776
1.03506
1.03495
1.03228
1.03174
1.03015
1.0298
1.08735
1.0844
1.07963
1.06955
1.06298
1.06486
1.04357
0.997293
0.911535
0.781176
0.627562
0.462913
0.354585
0.439936
0.651323
0.814899
0.895077
0.951762
0.991625
1.01123
1.02615
1.03572
1.04052
1.0455
1.04769
1.04829
1.04832
1.04761
1.04763
1.04721
1.04699
1.04652
1.04451
1.04366
1.04035
1.03994
1.03669
1.03647
1.03429
1.03438
1.11835
1.12273
1.1141
1.10878
1.11722
1.12104
1.08453
1.0103
0.899969
0.747263
0.572383
0.393389
0.251989
0.299879
0.520216
0.719276
0.832722
0.907219
0.962256
0.993546
1.01528
1.03134
1.03963
1.04707
1.05051
1.05315
1.05361
1.05483
1.05393
1.05418
1.05257
1.05201
1.04937
1.04881
1.04584
1.04569
1.04288
1.04269
1.04076
1.04179
1.162
1.16882
1.15894
1.16678
1.19505
1.17121
1.10613
1.00403
0.864138
0.6891
0.495044
0.304871
0.141567
0.142608
0.368209
0.601568
0.748059
0.845928
0.917578
0.96472
0.994153
1.01817
1.03117
1.04183
1.04789
1.05389
1.05465
1.05807
1.05651
1.05829
1.05605
1.05701
1.05425
1.05467
1.05237
1.05228
1.05043
1.04954
1.04795
1.04759
1.21947
1.2264
1.22285
1.25664
1.24383
1.18924
1.09743
0.964565
0.794971
0.597641
0.390685
0.201343
0.0741688
0.0355869
0.2272
0.465388
0.640688
0.764105
0.855631
0.921872
0.963393
0.997084
1.01713
1.03343
1.04278
1.05328
1.05552
1.06191
1.06114
1.06509
1.06274
1.06515
1.06248
1.06348
1.06199
1.06145
1.06045
1.05841
1.05869
1.05745
1.30045
1.29409
1.31343
1.30229
1.25794
1.18666
1.06479
0.895628
0.689747
0.467309
0.255991
0.125607
0.19591
0.243485
0.174199
0.306069
0.500392
0.659141
0.770287
0.860942
0.92022
0.965414
0.996091
1.02085
1.03436
1.05205
1.05668
1.06722
1.06768
1.07428
1.07391
1.07758
1.07688
1.07733
1.07753
1.07584
1.07575
1.0723
1.07135
1.06997
1.37325
1.38214
1.37725
1.34299
1.26915
1.14076
0.963244
0.744734
0.505002
0.279105
0.184202
0.249632
0.3754
0.413687
0.308869
0.302475
0.379875
0.549958
0.666898
0.773277
0.85541
0.916197
0.959272
0.997216
1.01513
1.0416
1.05128
1.06905
1.07247
1.08287
1.0855
1.09101
1.0944
1.0954
1.09789
1.09591
1.09759
1.09313
1.09175
1.08789
1.46835
1.44605
1.3936
1.29471
1.14657
0.958305
0.729883
0.465591
0.202477
0.126298
0.316856
0.486652
0.604472
0.672045
0.521232
0.337011
0.357289
0.409052
0.547774
0.650494
0.761672
0.84685
0.905875
0.96232
0.990164
1.02231
1.03574
1.05975
1.07177
1.08396
1.09304
1.09843
1.10646
1.109
1.11619
1.11676
1.12031
1.1206
1.12218
1.12052
1.39761
1.29579
1.11995
0.904367
0.692684
0.501365
0.341776
0.28778
0.363278
0.481957
0.584441
0.681774
0.771394
0.810451
0.780802
0.654425
0.357146
0.27054
0.420752
0.529039
0.613765
0.724095
0.793013
0.878452
0.935252
0.990215
1.02477
1.04788
1.06829
1.07991
1.09169
1.09688
1.10729
1.11054
1.11584
1.11946
1.12233
1.12809
1.13301
1.14345
0.570317
0.345826
0.212127
0.254061
0.372513
0.48195
0.554001
0.604592
0.650238
0.697612
0.736166
0.776777
0.801218
0.797779
0.759873
0.654609
0.556965
0.443663
0.429467
0.200994
0.24706
0.383301
0.501358
0.622264
0.751808
0.840687
0.917909
0.948915
0.998693
1.02938
1.0621
1.08522
1.10514
1.12706
1.14519
1.16298
1.17699
1.18821
1.19763
1.2028
0.530708
0.573578
0.608899
0.637759
0.66662
0.69762
0.72505
0.744141
0.750944
0.747687
0.736466
0.712613
0.686323
0.646545
0.599615
0.515108
0.444656
0.376028
0.373876
0.380269
0.377796
0.375266
0.373707
0.361397
0.349915
0.331508
0.131249
0.587491
0.622691
0.655835
0.691084
0.721443
0.770589
0.803341
0.857706
0.88774
0.943589
0.976875
1.04444
1.08696
1.01367
1.01341
1.0156
1.0161
1.0172
1.01753
1.01779
1.0183
1.01808
1.01868
1.01818
1.01879
1.0183
1.01867
1.01835
1.01846
1.01824
1.01809
1.01775
1.01735
1.01676
1.01593
1.01474
1.01301
1.01048
1.00674
1.00123
0.993706
0.984489
0.974869
0.968007
0.968072
0.979275
0.994951
1.00292
1.00312
1.00272
1.00273
1.00291
1.00344
0.997614
0.998458
0.997173
0.997075
0.997185
0.997002
0.997573
0.997131
0.997796
0.997354
0.997737
0.997572
0.997588
0.997654
0.997605
0.99764
0.997576
0.997596
0.997607
0.997641
0.997721
0.997933
0.998407
0.999325
1.00097
1.0035
1.00701
1.01134
1.0163
1.02126
1.02312
1.02333
1.01981
1.01096
1.00581
1.00428
1.00416
1.00402
1.00388
1.0037
1.0106
1.01176
1.01411
1.01495
1.01592
1.01699
1.01674
1.01771
1.0172
1.01798
1.01726
1.01804
1.01726
1.01777
1.01718
1.01735
1.01689
1.01661
1.01596
1.01526
1.01425
1.01294
1.01119
1.00895
1.00616
1.00276
0.998745
0.994617
0.992074
0.992988
0.995419
0.998849
1.00224
1.0035
1.00386
1.00356
1.00307
1.00338
1.00394
1.00406
1.00088
1.00124
1.00022
0.999955
0.999752
0.999435
0.999726
0.999547
0.999593
0.999821
0.999426
0.999903
0.999532
0.999937
0.999754
1.00002
1.00001
1.00033
1.00066
1.00115
1.00181
1.00278
1.00409
1.00592
1.00832
1.01118
1.01413
1.01697
1.02005
1.02158
1.02203
1.0207
1.01719
1.01406
1.01092
1.00742
1.00592
1.00547
1.00487
1.00452
1.00847
1.01053
1.01212
1.01378
1.01405
1.01516
1.01511
1.01586
1.01558
1.01623
1.01569
1.0162
1.01572
1.01586
1.01548
1.01544
1.01503
1.01453
1.01376
1.01284
1.01163
1.01015
1.00838
1.00633
1.00415
1.00191
0.999655
0.998114
0.998587
1.00043
1.0015
1.00315
1.00518
1.00586
1.00594
1.00568
1.00518
1.00524
1.00538
1.00512
1.00361
1.003
1.00285
1.00239
1.00231
1.00222
1.00209
1.0022
1.00198
1.00229
1.00202
1.00237
1.00214
1.00255
1.00239
1.00265
1.00277
1.00327
1.00379
1.00456
1.00547
1.00659
1.00789
1.00942
1.01109
1.01268
1.01381
1.01482
1.01653
1.01735
1.01702
1.01517
1.0138
1.01271
1.01101
1.00877
1.00712
1.00644
1.00583
1.00553
1.00739
1.00953
1.01051
1.01216
1.01253
1.01336
1.01356
1.01413
1.01404
1.01445
1.01422
1.0145
1.01415
1.0143
1.01398
1.01394
1.01343
1.01291
1.01204
1.01109
1.00995
1.00865
1.00716
1.00565
1.00418
1.00275
1.00149
1.00103
1.002
1.00324
1.00349
1.00434
1.00622
1.00698
1.00724
1.0072
1.00699
1.00669
1.00628
1.00598
1.00566
1.00491
1.00464
1.00483
1.00481
1.00477
1.00479
1.00479
1.00473
1.00487
1.00477
1.00497
1.00494
1.00505
1.00505
1.00528
1.00551
1.00605
1.00658
1.0073
1.00811
1.009
1.00992
1.0109
1.0119
1.01266
1.01294
1.01341
1.01403
1.01404
1.01304
1.01175
1.01126
1.01076
1.00951
1.00835
1.00756
1.00688
1.00648
1.00626
1.0072
1.00898
1.00964
1.01083
1.01125
1.01195
1.01221
1.01266
1.0127
1.01305
1.01295
1.01316
1.01306
1.01318
1.01298
1.01283
1.01239
1.01183
1.01105
1.0102
1.00923
1.0082
1.0071
1.00607
1.00528
1.00468
1.00428
1.00458
1.00562
1.00624
1.00608
1.0066
1.00766
1.00802
1.00811
1.0081
1.00788
1.00733
1.00679
1.00657
1.00698
1.00673
1.00652
1.00656
1.00677
1.00704
1.0072
1.00728
1.00736
1.0074
1.00739
1.00742
1.00733
1.00739
1.00746
1.00766
1.00792
1.00835
1.00881
1.00925
1.00976
1.01038
1.011
1.01163
1.01209
1.0122
1.01219
1.01244
1.01258
1.012
1.01079
1.01008
1.00981
1.00932
1.00869
1.0083
1.00782
1.00748
1.00709
1.00682
1.00744
1.00881
1.00933
1.0103
1.01062
1.01115
1.01134
1.01172
1.01179
1.01216
1.01219