/*--------------------------------*- C++ -*----------------------------------*\
  =========                 |
  \\      /  F ield         | OpenFOAM: The Open Source CFD Toolbox
   \\    /   O peration     | Website:  https://openfoam.org
    \\  /    A nd           | Version:  11
     \\/     M anipulation  |
\*---------------------------------------------------------------------------*/
FoamFile
{
    format      ascii;
    class       surfaceScalarField;
    location    "2.5";
    object      phi;
}
// * * * * * * * * * * * * * * * * * * * * * * * * * * * * * * * * * * * * * //

dimensions      [0 3 -1 0 0 0 0];

internalField   nonuniform List<scalar> 
18960
(
0.0893919
0.000413098
-0.089805
0.089002
0.000389903
0.0886682
0.00033379
0.0883235
0.000344731
0.0874895
0.000834009
0.0853109
0.00217858
0.0824185
0.00289237
0.0806466
0.00177196
0.0808269
-0.000180287
0.0821976
-0.00137069
0.0842857
-0.00208817
0.0861951
-0.00190939
0.0876289
-0.00143377
0.0886599
-0.00103105
0.089394
-0.000734063
0.0899266
-0.000532607
0.0903202
-0.000393577
0.0906014
-0.000281241
0.0908112
-0.000209791
0.0909677
-0.000156499
0.0910253
-5.75646e-05
0.0910353
-1.00503e-05
0.0909901
4.51846e-05
0.0908904
9.97413e-05
0.090724
0.000166356
0.0904941
0.000229937
0.090216
0.000278102
0.0899963
0.000219678
0.089786
0.000210315
0.0896864
9.96022e-05
0.0896119
7.45512e-05
0.089636
-2.41838e-05
0.0897472
-0.000111115
0.0898581
-0.000110972
0.090033
-0.000174841
0.0902916
-0.000258626
0.0905495
-0.000257861
0.0909935
-0.000444046
0.0914381
-0.000444597
-6.55578e-05
0.0915037
0.0894459
0.000697005
-0.0897298
0.0891463
0.000689569
0.0887796
0.000700409
0.0883117
0.000812662
0.0878063
0.00133944
0.0875658
0.00241908
0.0877223
0.00273587
0.0877157
0.00177852
0.0874176
0.00011781
0.087199
-0.00115204
0.086947
-0.00183619
0.0867631
-0.00172548
0.0867349
-0.00140561
0.086878
-0.00117413
0.0872495
-0.00110559
0.0878143
-0.0010974
0.0884271
-0.00100632
0.0889983
-0.000852495
0.0894822
-0.000693703
0.0898655
-0.000539779
0.090179
-0.000371021
0.0904047
-0.000235772
0.0904959
-4.59887e-05
0.0905036
9.19871e-05
0.090402
0.000268005
0.0902819
0.000350046
0.0900281
0.000531883
0.0897625
0.00048522
0.0893673
0.000605499
0.0890273
0.000439674
0.0886205
0.000481295
0.0882899
0.000306407
0.0878885
0.00029029
0.087683
9.45166e-05
0.0873737
0.00013455
0.0871906
-7.56003e-05
0.0870282
-9.54019e-05
0.0867481
-0.000164001
0.0868826
-0.000579072
-0.00072558
0.0875426
0.0894802
0.001008
-0.0897912
0.0891458
0.00102398
0.0888304
0.00101587
0.0884959
0.00114714
0.0878565
0.00197883
0.087101
0.00317454
0.0864081
0.0034288
0.0856651
0.00252156
0.08552
0.000262876
0.0858238
-0.00145582
0.0866306
-0.00264295
0.0877412
-0.0028361
0.0886667
-0.00233117
0.0894398
-0.00194714
0.0900408
-0.00170665
0.090467
-0.00152357
0.0907995
-0.0013388
0.0910338
-0.00108684
0.0912173
-0.00087724
0.0913641
-0.000686506
0.0914254
-0.000432335
0.0914498
-0.000260165
0.0914573
-5.35366e-05
0.0913813
0.000168003
0.0912494
0.000399914
0.0911103
0.000489161
0.0909236
0.000718583
0.0907947
0.000614091
0.0906472
0.000753059
0.0906016
0.000485204
0.0905677
0.000515205
0.0906144
0.000259692
0.0907139
0.000190813
0.0908638
-5.53368e-05
0.0910902
-9.1906e-05
0.0912802
-0.000265601
0.0916701
-0.00048526
0.0920222
-0.000516133
0.0920835
-0.000640414
-0.000570385
0.0919284
0.0895166
0.00135158
-0.0898602
0.0892044
0.00133613
0.0888634
0.00135695
0.0884502
0.00156027
0.0879805
0.00244854
0.0877921
0.003363
0.0880154
0.00320546
0.0887614
0.00177559
0.0894681
-0.000443896
0.0899569
-0.00194457
0.0898627
-0.00254876
0.0893797
-0.00235311
0.0888844
-0.00183584
0.0886025
-0.00166529
0.0885308
-0.00163495
0.0886378
-0.00163049
0.0889134
-0.00161442
0.0893028
-0.00147623
0.0897333
-0.0013078
0.090082
-0.00103522
0.0903652
-0.00071552
0.0905899
-0.000484839
0.0906927
-0.000156326
0.0907184
0.00014231
0.0906373
0.000480957
0.0905711
0.000555413
0.0904114
0.000878252
0.0901974
0.000828139
0.0898827
0.00106777
0.089533
0.000834814
0.0891119
0.000936347
0.0887674
0.00060419
0.0883302
0.000628034
0.088042
0.00023288
0.0877642
0.00018587
0.0875619
-6.33321e-05
0.0873102
-0.000233542
0.0872702
-0.000476122
0.0874442
-0.000814409
-0.00112649
0.0880003
0.0895793
0.00166664
-0.0898943
0.0892522
0.00166319
0.0889082
0.00170096
0.0884925
0.00197599
0.0881925
0.00274854
0.0882859
0.00326958
0.0885584
0.0029329
0.0887281
0.00160597
0.0884799
-0.000195694
0.0879662
-0.00143087
0.0876863
-0.0022689
0.0879674
-0.00263417
0.0886265
-0.002495
0.0893186
-0.00235733
0.0899207
-0.0022371
0.0903782
-0.00208803
0.0907154
-0.0019516
0.0909581
-0.00171886
0.0911081
-0.00145783
0.0912398
-0.00116694
0.0912978
-0.000773513
0.09135
-0.000537094
0.0913668
-0.000173046
0.0913767
0.000132345
0.0913153
0.000542408
0.0912238
0.000646897
0.0910831
0.00101898
0.0909815
0.000929662
0.0909173
0.00113199
0.0908741
0.000878005
0.0909392
0.000871228
0.0910004
0.000543007
0.0911623
0.000466154
0.0912954
9.97777e-05
0.0914735
7.81639e-06
0.0916644
-0.000254237
0.0920013
-0.000570494
0.0922524
-0.0007272
0.0922971
-0.000859117
-0.00090654
0.0920772
0.0896026
0.00200756
-0.0899435
0.0892709
0.00199488
0.0889646
0.00200728
0.0886783
0.00226227
0.088535
0.0028918
0.0885862
0.00321838
0.088922
0.00259708
0.0896039
0.000924079
0.0902001
-0.000791813
0.0906599
-0.00189076
0.0908132
-0.00242218
0.0906429
-0.00246381
0.0902603
-0.00211248
0.0898978
-0.00199477
0.0896793
-0.00201863
0.0896098
-0.00201853
0.0896802
-0.00202195
0.0898462
-0.00188485
0.090112
-0.00172362
0.0903978
-0.00145277
0.0906458
-0.00102153
0.0908417
-0.000732999
0.0909739
-0.000305267
0.091012
9.42847e-05
0.0909676
0.000586805
0.0908998
0.000714643
0.0908103
0.00110847
0.0906468
0.00109319
0.0904107
0.00136815
0.0900909
0.0011978
0.0896913
0.00127081
0.0893061
0.000928241
0.0888639
0.000908352
0.0885332
0.000430397
0.0882465
0.00029455
0.0880561
-6.3791e-05
0.0878389
-0.000353322
0.0878174
-0.000705739
0.087968
-0.00100966
-0.00146272
0.0885241
0.0896464
0.00232244
-0.0899613
0.0893756
0.00226571
0.0891112
0.00227162
0.0888671
0.00250644
0.0887881
0.00297081
0.0889454
0.00306107
0.089359
0.00218347
0.0898329
0.00045015
0.0899432
-0.000902098
0.0895764
-0.001524
0.0890089
-0.00185469
0.0886984
-0.00215323
0.0888714
-0.00228546
0.0893275
-0.00245094
0.0898296
-0.00252075
0.0902796
-0.0024685
0.0906318
-0.00237413
0.0909066
-0.00215961
0.091063
-0.00188004
0.091197
-0.00158681
0.0912803
-0.00110478
0.0913123
-0.00076498
0.0913252
-0.000318197
0.0914231
-3.65596e-06
0.091435
0.000574905
0.0913955
0.000754135
0.0912887
0.00121527
0.0912184
0.00116352
0.0911722
0.00141433
0.0911759
0.00119413
0.0912677
0.00117901
0.0913776
0.000818275
0.0915741
0.000711897
0.0917271
0.000277404
0.0918799
0.000141744
0.0920628
-0.000246669
0.0922616
-0.000552159
0.0924431
-0.00088718
0.0925158
-0.00108239
-0.001177
0.0922301
0.0897214
0.00262045
-0.0900194
0.0894586
0.00252851
0.0892551
0.00247513
0.0890648
0.00269678
0.0890131
0.00302244
0.0892362
0.00283797
0.0897731
0.00164665
0.0902212
1.97372e-06
0.0904668
-0.00114767
0.090698
-0.00175521
0.0909763
-0.00213299
0.0910857
-0.00226259
0.0909902
-0.00219002
0.0907351
-0.00219582
0.0905257
-0.00231138
0.0904146
-0.00235739
0.0903896
-0.00234913
0.0904661
-0.00223613
0.0905941
-0.00200804
0.0907772
-0.00176991
0.0910099
-0.00133741
0.0911944
-0.000949475
0.0912904
-0.000414276
0.0913009
-1.41387e-05
0.091318
0.000557833
0.0912794
0.000792748
0.0912364
0.00125827
0.0911227
0.00127721
0.0909518
0.00158525
0.0906819
0.00146396
0.0903462
0.00151479
0.0899405
0.00122397
0.0895329
0.00111948
0.0891854
0.00062485
0.0888727
0.000454453
0.0887142
-8.8161e-05
0.0885573
-0.000395194
0.0884859
-0.000815784
0.0885629
-0.00115945
-0.00177208
0.089158
0.0898001
0.00289904
-0.0900787
0.0895921
0.00273653
0.0894296
0.00263761
0.0892978
0.00282864
0.0893544
0.00296576
0.0896674
0.00252506
0.0901971
0.00111692
0.090552
-0.000352945
0.090669
-0.00126467
0.0905685
-0.00165472
0.0902803
-0.0018448
0.0899155
-0.00189781
0.0897151
-0.0019896
0.0897669
-0.00224759
0.0899897
-0.00253422
0.0902968
-0.00266449
0.0906065
-0.00265878
0.0908688
-0.00249848
0.091089
-0.00222826
0.0912156
-0.00189647
0.0913044
-0.00142618
0.0913768
-0.00102194
0.0914233
-0.000460762
0.0915258
-0.000116577
0.0915856
0.000497948
0.0916243
0.000754066
0.0915682
0.00131444
0.0914812
0.00136417
0.0914677
0.00159877
0.0914996
0.00143208
0.0916038
0.00141051
0.0917673
0.00106052
0.0919472
0.000939517
0.0921001
0.000472012
0.0922861
0.000268423
0.092369
-0.000171005
0.0925025
-0.000528731
0.0926325
-0.000945772
0.0927132
-0.00124019
-0.00142417
0.0923653
0.0898804
0.00315179
-0.0901332
0.0897017
0.00291529
0.089553
0.00278633
0.0894833
0.0028983
0.0895906
0.00285845
0.0899742
0.00214143
0.0904316
0.000659575
0.090668
-0.000589331
0.0907485
-0.00134523
0.0908569
-0.00176303
0.0909993
-0.00198723
0.0911529
-0.00205138
0.0912449
-0.00208166
0.0911487
-0.00215139
0.0910316
-0.00241712
0.0909871
-0.00261991
0.0909741
-0.00264581
0.0910492
-0.00257359
0.0911351
-0.00231419
0.0912256
-0.00198698
0.0914069
-0.00160744
0.0916089
-0.00122393
0.0917092
-0.000561106
0.0916918
-9.91523e-05
0.0916963
0.000493476
0.0916724
0.000777982
0.0916715
0.00131533
0.0916017
0.00143396
0.0914965
0.00170401
0.0912941
0.00163446
0.091016
0.0016886
0.0906692
0.00140731
0.0902814
0.0013273
0.0899221
0.000831357
0.0896247
0.000565831
0.0895168
-6.31307e-05
0.0893379
-0.000349792
0.0892483
-0.000856181
0.0893001
-0.00129201
-0.00198617
0.0898621
0.0900284
0.00337884
-0.0902554
0.0898912
0.00305247
0.0898008
0.00287679
0.0898217
0.0028773
0.0900067
0.00267346
0.0903763
0.00177182
0.0906729
0.000362968
0.090853
-0.00076937
0.0909818
-0.0014741
0.0909862
-0.00176739
0.0909116
-0.00191265
0.0907548
-0.00189461
0.0905575
-0.00188427
0.0904458
-0.0020397
0.0904581
-0.00242947
0.0905873
-0.00274914
0.0907633
-0.00282181
0.0909744
-0.00278461
0.0911636
-0.00250347
0.0913329
-0.00215623
0.0914408
-0.00171535
0.0915186
-0.00130174
0.0915853
-0.000627804
0.0917189
-0.000232749
0.0918227
0.000389667
0.0919045
0.000696188
0.0919247
0.00129518
0.0918825
0.00147607
0.0918383
0.00174824
0.0918509
0.00162187
0.0919694
0.00157014
0.0921169
0.0012598
0.0923247
0.00111951
0.0924968
0.000659231
0.0926754
0.000387191
0.0927039
-9.15996e-05
0.0927617
-0.000407576
0.0928395
-0.000934011
0.0928789
-0.00133145
-0.00163955
0.0925323
0.0901784
0.00355283
-0.0903524
0.0901015
0.00312939
0.0900037
0.00297462
0.0900559
0.00282502
0.0903191
0.00241031
0.0906382
0.00145277
0.090864
0.00013708
0.0909637
-0.000869008
0.0909501
-0.00146053
0.0909935
-0.00181079
0.0910834
-0.00200251
0.091191
-0.0020022
0.0912893
-0.00198264
0.0913849
-0.00213527
0.0914088
-0.00245336
0.0914198
-0.00276014
0.0914419
-0.00284393
0.0914972
-0.00283992
0.0915947
-0.0026009
0.0917051
-0.00226666
0.0918372
-0.00184743
0.0920021
-0.00146672
0.0921467
-0.00077231
0.0921725
-0.000258572
0.0921686
0.000393541
0.0921335
0.000731343
0.0921429
0.00128578
0.0921169
0.00150205
0.0920758
0.00178931
0.0919434
0.00175429
0.0917309
0.00178264
0.0914308
0.00155987
0.0910934
0.00145695
0.090752
0.0010006
0.0904391
0.0007001
0.0903291
1.84117e-05
0.0901985
-0.000277034
0.0901382
-0.000873697
0.0901427
-0.00133593
-0.00212943
0.0906326
0.0904549
0.00365253
-0.0905546
0.0903848
0.00319953
0.0903343
0.00302512
0.0903954
0.00276387
0.0906064
0.00219933
0.0908318
0.00122741
0.0909686
2.58223e-07
0.0909795
-0.00087995
0.0910032
-0.00148423
0.091069
-0.00187656
0.0911238
-0.0020573
0.0911865
-0.00206487
0.0912012
-0.00199737
0.0911529
-0.00208702
0.091114
-0.00241443
0.091113
-0.00275916
0.0911719
-0.00290284
0.0912842
-0.00295217
0.0914282
-0.00274493
0.0915889
-0.00242734
0.0916979
-0.00195648
0.0917965
-0.00156525
0.0918859
-0.000861714
0.0920254
-0.000398122
0.0921473
0.000271624
0.0922799
0.000598794
0.0923575
0.00120819
0.0923789
0.0014806
0.0923389
0.00182933
0.0923323
0.00176089
0.092393
0.00172198
0.0925578
0.00139507
0.0927414
0.00127329
0.0929228
0.000819189
0.0931046
0.000518347
0.0930545
6.84665e-05
0.0930999
-0.000322436
0.0931107
-0.000884445
0.0930916
-0.00131682
-0.00179196
0.0927541
0.0906603
0.00372563
-0.0907334
0.0905987
0.0032611
0.0905458
0.00307801
0.0906026
0.00270706
0.090808
0.00199396
0.0909716
0.00106375
0.0910157
-4.37569e-05
0.0910147
-0.000878978
0.091032
-0.00150157
0.0910642
-0.00190879
0.091181
-0.00217407
0.0913183
-0.00220211
0.0914549
-0.00213404
0.0916095
-0.00224157
0.091733
-0.00253795
0.0918045
-0.00283064
0.091874
-0.00297235
0.0919369
-0.00301506
0.0920432
-0.00285127
0.0921681
-0.0025522
0.0923012
-0.00208959
0.0924422
-0.00170628
0.0926087
-0.00102818
0.0926981
-0.000487571
0.0927144
0.000255322
0.0926679
0.000645321
0.092689
0.00118714
0.0927125
0.00145702
0.0927161
0.00182583
0.0926418
0.00183513
0.092489
0.00187477
0.0922453
0.00163879
0.0919555
0.00156313
0.0916432
0.00113142
0.0913476
0.000814023
0.0912085
0.000207496
0.0910993
-0.000213241
0.0910564
-0.000841531
0.0910843
-0.00134468
-0.00216746
0.0914598
0.0909498
0.00381347
-0.0910377
0.0908688
0.0033421
0.0908202
0.00312668
0.0908771
0.00265014
0.0910097
0.00186137
0.0911051
0.0009683
0.0910769
-1.55482e-05
0.091037
-0.000839034
0.0910325
-0.00149713
0.0911085
-0.00198474
0.0912455
-0.00231108
0.0914397
-0.00239629
0.091649
-0.00234334
0.0917639
-0.00235652
0.0917985
-0.00257254
0.0918016
-0.00283372
0.0917993
-0.00297007
0.0918345
-0.00305022
0.0918854
-0.00290218
0.0920041
-0.00267092
0.092093
-0.00217843
0.092192
-0.00180532
0.092292
-0.00112817
0.0924407
-0.000636265
0.0926059
9.00834e-05
0.0927654
0.000485818
0.0928688
0.00108377
0.092936
0.00138981
0.0929701
0.00179169
0.0929597
0.00184557
0.0929714
0.0018631
0.0930725
0.00153771
0.0932406
0.00139499
0.093445
0.000927025
0.0935722
0.000686828
0.0935938
0.000185901
0.0935255
-0.000144952
0.0935142
-0.000830226
0.0933804
-0.00121089
-0.00190761
0.0931205
0.0911415
0.00391644
-0.0912444
0.0910158
0.00346778
0.0909926
0.00314992
0.0910669
0.00257582
0.0911932
0.00173505
0.0912452
0.00091629
0.0912096
2.00819e-05
0.0911588
-0.000788236
0.0911333
-0.0014717
0.0912086
-0.00205998
0.0913434
-0.00244588
0.0915709
-0.00262382
0.0918046
-0.00257707
0.0920233
-0.0025752
0.0921832
-0.00273239
0.0922884
-0.00293893
0.0923618
-0.00304346
0.0924307
-0.00311917
0.0925228
-0.00299423
0.0926364
-0.00278458
0.0927779
-0.00231991
0.0929233
-0.00195069
0.0930878
-0.00129269
0.0932543
-0.000802739
0.0933023
4.20198e-05
0.0933008
0.00048732
0.0933234
0.00106119
0.0933729
0.0013403
0.0934038
0.00176078
0.0934366
0.00181283
0.0933344
0.0019652
0.0931482
0.00172399
0.0928889
0.00165422
0.0926329
0.00118311
0.0923701
0.000949582
0.0922444
0.000311632
0.0921998
-0.000100338
0.0921446
-0.000775076
0.0921516
-0.00121789
-0.00211214
0.0923561
0.0913391
0.00408152
-0.0915042
0.0912463
0.00356059
0.0912815
0.00311474
0.0913519
0.00250541
0.0914248
0.00166217
0.0914396
0.000901538
0.091381
7.86799e-05
0.0913198
-0.000727091
0.0912929
-0.00144483
0.0913208
-0.00208787
0.0914461
-0.00257115
0.0916682
-0.00284586
0.0919847
-0.00289367
0.0922503
-0.00284078
0.0924093
-0.00289139
0.0924858
-0.00301539
0.0925069
-0.00306456
0.0925028
-0.00311514
0.0925172
-0.00300857
0.0925965
-0.00286391
0.0926776
-0.00240104
0.0927702
-0.00204327
0.0928732
-0.00139565
0.092987
-0.000916561
0.0932127
-0.000183654
0.0933983
0.000301708
0.0935327
0.000926749
0.0936313
0.00124174
0.0937207
0.00167134
0.0937615
0.00177207
0.0937714
0.00195532
0.0938181
0.00167721
0.0939122
0.00156013
0.0940481
0.0010473
0.0941571
0.000840494
0.0942
0.000268802
0.094097
2.6797e-06
0.0940671
-0.000745254
0.0939175
-0.00106821
-0.0018851
0.0936904
0.0915223
0.004169
-0.0916097
0.0914638
0.00361901
0.0915017
0.00307692
0.091549
0.00245805
0.0915907
0.0016205
0.091597
0.000895236
0.0915378
0.000137837
0.0915033
-0.000692574
0.0914715
-0.00141305
0.0914721
-0.00208843
0.0915464
-0.00264542
0.0917568
-0.00305626
0.0920586
-0.00319553
0.0923663
-0.00314841
0.0925958
-0.00312097
0.0927575
-0.00317709
0.0928704
-0.00317737
0.0929637
-0.00320845
0.0930333
-0.00307816
0.0931483
-0.00297894
0.0933029
-0.00255566
0.0934665
-0.00220683
0.0936273
-0.00155649
0.0938357
-0.00112495
0.0939593
-0.000307254
0.094036
0.000224987
0.0940862
0.000876614
0.0941632
0.00116469
0.0942155
0.00161901
0.0942767
0.00171096
0.0942911
0.00194084
0.0942059
0.00176249
0.0939978
0.00176817
0.0937732
0.00127189
0.0935244
0.00108928
0.0934033
0.000389912
0.093393
1.30604e-05
0.0933664
-0.000718696
0.0933723
-0.00107415
-0.00196032
0.0934476
0.0918405
0.00428516
-0.0919566
0.0917566
0.00370289
0.0917806
0.00305294
0.0918417
0.0023969
0.0918498
0.00161241
0.0918407
0.000904325
0.0917873
0.000191289
0.0917401
-0.000645383
0.091714
-0.00138697
0.0916796
-0.00205407
0.0917053
-0.00267112
0.0918357
-0.00318665
0.0921212
-0.003481
0.0924622
-0.00348945
0.0927589
-0.00341763
0.0930069
-0.00342508
0.0931564
-0.00332687
0.0932629
-0.00331492
0.093312
-0.00312731
0.0933672
-0.00303412
0.0934249
-0.00261338
0.0935227
-0.00230467
0.0936183
-0.00165206
0.0937249
-0.00123154
0.0939221
-0.00050446
0.0941724
-2.52795e-05
0.0943707
0.000678293
0.0944902
0.00104517
0.0945939
0.00151533
0.094688
0.00161685
0.09472
0.00190881
0.0947811
0.00170143
0.0948549
0.00169431
0.0949453
0.00118157
0.0950005
0.00103401
0.0950222
0.000368267
0.0948821
0.00015317
0.0948361
-0.000672739
0.0947251
-0.000963101
-0.00184707
0.0946118
0.0919577
0.00435518
-0.0920277
0.0919621
0.00369846
0.0920106
0.00300449
0.09206
0.00234746
0.0920541
0.0016183
0.0920137
0.000944796
0.0919786
0.000226323
0.0919536
-0.000620383
0.091953
-0.00138635
0.0919178
-0.00201892
0.0919196
-0.00267285
0.092011
-0.00327803
0.092225
-0.00369505
0.0925654
-0.00382981
0.0929191
-0.00377142
0.0932127
-0.0037186
0.0934461
-0.00356032
0.0936222
-0.00349101
0.0937594
-0.00326449
0.0938682
-0.00314295
0.0940084
-0.00275353
0.0941631
-0.00245944
0.09435
-0.00183894
0.0945432
-0.00142471
0.0947315
-0.000692723
0.0948602
-0.000154055
0.0949895
0.000549027
0.0951164
0.000918234
0.0952032
0.00142859
0.0952736
0.00154638
0.0953518
0.00183069
0.095386
0.00166713
0.0952977
0.00178268
0.0951466
0.00133265
0.0949676
0.00121303
0.0948295
0.000506406
0.0947387
0.000243924
0.0946982
-0.000632235
0.094649
-0.000913953
-0.00191703
0.094719
0.0924432
0.0043789
-0.0924669
0.0924144
0.00372717
0.0923735
0.0030454
0.0923309
0.00239007
0.0922906
0.00165859
0.092282
0.000953415
0.0922654
0.000242899
0.0922534
-0.000608313
0.0922627
-0.00139568
0.0922686
-0.00202484
0.0922341
-0.00263837
0.092279
-0.00332287
0.0924113
-0.00382741
0.0926972
-0.00411568
0.093038
-0.00411219
0.0934257
-0.00410627
0.093749
-0.00388362
0.0940259
-0.00376794
0.0942065
-0.00344514
0.0943408
-0.0032772
0.0944148
-0.00282756
0.0945377
-0.00258237
0.0946602
-0.00196143
0.0947789
-0.00154335
0.0949246
-0.000838417
0.0951627
-0.00039217
0.0953724
0.000339308
0.0955822
0.000708386
0.0957033
0.00130749
0.0958478
0.00140192
0.0959123
0.00176616
0.0959943
0.00158515
0.0960665
0.00171045
0.0961352
0.00126403
0.0961706
0.00117757
0.0961471
0.000529954
0.0960472
0.00034375
0.0959486
-0.000533626
0.0958035
-0.000768854
-0.00178531
0.0956718
0.0925547
0.00439301
-0.0925689
0.092525
0.00375694
0.0924805
0.00308988
0.0924818
0.00238876
0.0925152
0.00162524
0.0925605
0.000908107
0.0925634
0.000239972
0.0925384
-0.000583298
0.0925449
-0.00140223
0.0925908
-0.00207066
0.0925836
-0.00263125
0.0925794
-0.00331866
0.0926723
-0.00392033
0.0928845
-0.00432789
0.0932091
-0.00443677
0.0936046
-0.00450176
0.0940004
-0.00427939
0.094351
-0.00411856
0.0946236
-0.0037177
0.0948285
-0.00348214
0.0949994
-0.00299849
0.0951354
-0.00271828
0.0953067
-0.00213277
0.0955199
-0.0017566
0.0957197
-0.00103815
0.095909
-0.000581461
0.0960881
0.000160206
0.0962681
0.000528314
0.0964354
0.00114018
0.0965748
0.0012626
0.0966613
0.00167961
0.0967401
0.00150639
0.0967666
0.00168396
0.0967552
0.00127543
0.0966477
0.00128499
0.0965724
0.000605302
0.0964697
0.000446446
0.0963702
-0.000434166
0.0962896
-0.000688169
-0.00171123
0.0962155
0.0930842
0.0044576
-0.0931488
0.0930568
0.00378438
0.0930224
0.00312423
0.0930097
0.00240144
0.0929778
0.00165718
0.0929689
0.000916974
0.0929493
0.000259583
0.0929008
-0.00053473
0.092901
-0.00140245
0.0929599
-0.00212955
0.0930142
-0.00268562
0.0930298
-0.00333422
0.0930568
-0.00394738
0.0932054
-0.00447647
0.0934372
-0.00466856
0.093785
-0.0048495
0.0942014
-0.00469584
0.0946349
-0.00455201
0.0949947
-0.00407758
0.0953411
-0.00382853
0.0955824
-0.00323979
0.0957848
-0.00292069
0.0959309
-0.00227882
0.0960845
-0.00191024
0.0962474
-0.00120101
0.0964636
-0.000797664
0.0966818
-5.80447e-05
0.0969287
0.000281458
0.0971439
0.000924969
0.0973358
0.00107069
0.0974885
0.00152694
0.0975762
0.00141871
0.0976225
0.00163763
0.0976992
0.00119874
0.097751
0.00123318
0.0977684
0.000587856
0.0977162
0.000498658
0.0976246
-0.000342534
0.0974513
-0.000514907
-0.0015457
0.0972858
0.0931718
0.00449953
-0.0932137
0.0931715
0.00378468
0.0931795
0.00311626
0.0931618
0.00241908
0.0931338
0.00168518
0.0931455
0.000905314
0.0932035
0.000201505
0.0932203
-0.000551489
0.0932521
-0.00143428
0.09336
-0.00223741
0.0934621
-0.00278773
0.0935238
-0.00339593
0.0935587
-0.00398229
0.0936364
-0.00455415
0.093795
-0.00482717
0.0940464
-0.00510089
0.094387
-0.00503646
0.0948369
-0.00500185
0.0952961
-0.00453685
0.0957051
-0.00423752
0.0960944
-0.00362902
0.0963892
-0.00321553
0.096625
-0.00251464
0.0968528
-0.00213797
0.0970658
-0.00141403
0.097304
-0.00103593
0.0975321
-0.000286161
0.0977679
4.56662e-05
0.0979908
0.000702075
0.09822
0.000841537
0.0984055
0.00134144
0.0985617
0.00126256
0.0986469
0.00155235
0.0986859
0.00115972
0.0986715
0.00124761
0.098661
0.000598361
0.0986213
0.000538362
0.0985482
-0.000269407
0.0984619
-0.000428676
-0.00139185
0.0983081
0.093829
0.00458078
-0.0939103
0.0938189
0.00379479
0.0938184
0.0031168
0.093795
0.00244247
0.0937664
0.00171376
0.0937561
0.000915628
0.0938012
0.00015635
0.0938378
-0.000588086
0.0938262
-0.00142267
0.0938747
-0.00228589
0.0939675
-0.00288053
0.0940582
-0.0034866
0.0941241
-0.00404827
0.0942203
-0.00465034
0.0943154
-0.00492225
0.0944833
-0.00526875
0.0947138
-0.00526697
0.095065
-0.00535304
0.0955149
-0.00498674
0.0960213
-0.00474393
0.0964938
-0.00410154
0.0969384
-0.00366013
0.0973367
-0.00291296
0.0976561
-0.00245736
0.0979042
-0.00166216
0.0981521
-0.00128379
0.0984062
-0.00054025
0.0986849
-0.000233059
0.0989501
0.000436936
0.0992076
0.000583967
0.0994281
0.001121
0.0996419
0.00104875
0.0997737
0.00142048
0.0998824
0.00105107
0.0999429
0.00118713
0.0999531
0.000588182
0.0999151
0.000576276
0.0998653
-0.000219529
0.0997435
-0.000306898
-0.00129524
0.0996469
0.0939356
0.00461071
-0.0939655
0.0939225
0.00380793
0.09393
0.00310923
0.0939417
0.00243078
0.0939644
0.00169107
0.094004
0.000876078
0.094077
8.33344e-05
0.0941712
-0.000682322
0.0941876
-0.00143905
0.0942586
-0.00235689
0.0943918
-0.00301371
0.0945814
-0.0036762
0.0947174
-0.00418432
0.0948722
-0.00480507
0.0949977
-0.0050478
0.0951243
-0.00539535
0.0952488
-0.00539148
0.0954886
-0.00559281
0.0958339
-0.00533199
0.0962854
-0.00519543
0.0968088
-0.00462502
0.0973758
-0.00422705
0.0978908
-0.00342801
0.0983821
-0.00294867
0.0987964
-0.00207643
0.0991626
-0.00165001
0.0994883
-0.000865955
0.0998038
-0.00054856
0.100084
0.000157051
0.100385
0.000282548
0.100664
0.00084187
0.100946
0.000766815
0.101185
0.00118128
0.10136
0.000876448
0.101433
0.00111431
0.101436
0.000584536
0.101383
0.000629457
0.101284
-0.00012018
0.101158
-0.000181342
-0.00109969
0.100963
0.0947784
0.004649
-0.0948167
0.09472
0.00386632
0.0946984
0.00313078
0.0947355
0.00239371
0.0947876
0.00163898
0.0948464
0.000817322
0.0949004
2.9312e-05
0.0950129
-0.000794834
0.0950396
-0.00146573
0.0951044
-0.00242175
0.0952056
-0.00311491
0.0953683
-0.00383883
0.095461
-0.00427708
0.0956296
-0.00497368
0.0957796
-0.00519778
0.0959348
-0.00555049
0.0960438
-0.0055005
0.0961789
-0.00572796
0.09639
-0.00554311
0.096721
-0.00552638
0.0971515
-0.00505551
0.0977126
-0.00478816
0.0983242
-0.00403967
0.098988
-0.00361241
0.0996008
-0.00268927
0.100176
-0.00222534
0.100644
-0.00133347
0.101113
-0.00101807
0.101509
-0.000238985
0.101887
-9.51842e-05
0.102201
0.000527792
0.102507
0.000461285
0.10273
0.000957497
0.102936
0.000670439
0.10306
0.000990517
0.103185
0.000459637
0.103168
0.000646128
0.103127
-7.92923e-05
0.103039
-9.25026e-05
-0.000948082
0.102887
0.0948257
0.00465511
-0.0948318
0.0948558
0.00383615
0.0948629
0.00312366
0.0949313
0.00232534
0.0950025
0.00156778
0.0951095
0.000710315
0.0951724
-3.36038e-05
0.0953108
-0.000933209
0.0954487
-0.00160366
0.0955875
-0.00256046
0.0957218
-0.00324921
0.0959432
-0.00406033
0.0960858
-0.00441965
0.0962273
-0.00511519
0.0964037
-0.00537418
0.0966514
-0.00579815
0.096879
-0.00572813
0.0970741
-0.00592302
0.0972496
-0.00571861
0.0975072
-0.00578399
0.0978013
-0.00534963
0.0982364
-0.00522323
0.0987786
-0.00458189
0.0994586
-0.00429246
0.100208
-0.00343897
0.101014
-0.00303122
0.10174
-0.00205894
0.102392
-0.00167078
0.102942
-0.000788422
0.103423
-0.000576569
0.103828
0.000123186
0.104145
0.00014415
0.104465
0.000637801
0.104682
0.000453191
0.104889
0.00078341
0.104966
0.000383128
0.105059
0.00055246
0.105016
-3.58329e-05
0.104951
-2.7731e-05
-0.000720479
0.104723
0.0959283
0.00467213
-0.0959453
0.0959512
0.00381329
0.0959846
0.0030902
0.0960471
0.00226282
0.0960734
0.00154156
0.0961829
0.000600809
0.0962642
-0.000114888
0.0964524
-0.00112149
0.0966027
-0.00175389
0.0967605
-0.00271828
0.0968659
-0.00335458
0.0970358
-0.00423025
0.0971941
-0.00457791
0.0972977
-0.00521882
0.0973964
-0.00547287
0.0975856
-0.00598737
0.0978088
-0.00595132
0.0981112
-0.0062254
0.0983293
-0.00593673
0.0986026
-0.00605729
0.0988492
-0.00559619
0.0992082
-0.00558232
0.0996086
-0.00498222
0.100152
-0.00483566
0.100802
-0.00408897
0.101601
-0.00383055
0.102474
-0.00293169
0.103411
-0.00260837
0.10427
-0.00164738
0.10505
-0.00135607
0.10567
-0.000496588
0.106219
-0.000405572
0.106597
0.000259741
0.106945
0.000106051
0.107176
0.00055206
0.107374
0.000185497
0.107516
0.000410528
0.10757
-9.01672e-05
0.107639
-9.72459e-05
-0.000660768
0.10758
0.0960019
0.00465527
-0.095985
0.0960973
0.00371783
0.0961677
0.00301988
0.0963253
0.00210518
0.096434
0.00143285
0.0965881
0.000446671
0.0966836
-0.00021032
0.0968576
-0.00129552
0.0970513
-0.00194758
0.0972737
-0.00294069
0.0974203
-0.0035012
0.0976124
-0.00442235
0.0978043
-0.00476979
0.0979879
-0.00540242
0.0981335
-0.00561846
0.098358
-0.00621186
0.0985783
-0.00617169
0.0988569
-0.00650401
0.0991812
-0.00626095
0.0995798
-0.00645588
0.0999957
-0.00601215
0.100347
-0.00593347
0.100814
-0.00544966
0.101207
-0.00522826
0.101777
-0.00465871
0.102367
-0.00442111
0.103182
-0.00374642
0.104014
-0.00344036
0.10507
-0.00270343
0.106038
-0.00232414
0.107102
-0.00156029
0.107925
-0.00122876
0.108726
-0.0005411
0.109228
-0.000396372
0.109715
6.52174e-05
0.109945
-4.45039e-05
0.110213
0.000142735
0.110255
-0.000132702
0.110306
-0.000147885
-0.000513022
0.110158
0.0976138
0.00464009
-0.0975986
0.0977017
0.0036299
0.0977334
0.00298821
0.0978312
0.00200734
0.0979183
0.00134573
0.0980758
0.000289159
0.0982738
-0.000408317
0.0984314
-0.00145307
0.0986019
-0.00211813
0.0987749
-0.00311362
0.0989138
-0.00364009
0.0990607
-0.00456928
0.0992295
-0.00493858
0.0994669
-0.00563986
0.0996229
-0.00577441
0.0998021
-0.00639113
0.0999935
-0.00636304
0.100238
-0.00674809
0.100445
-0.00646803
0.100712
-0.00672281
0.101086
-0.00638691
0.101593
-0.0064406
0.102106
-0.00596198
0.102707
-0.00582909
0.103338
-0.00529039
0.104016
-0.00509847
0.104727
-0.00445757
0.105514
-0.00422713
0.106366
-0.00355601
0.107347
-0.00330533
0.108435
-0.00264844
0.109584
-0.00237683
0.110727
-0.00168499
0.111787
-0.00145611
0.11278
-0.000927816
0.113531
-0.000795327
0.114153
-0.000478914
0.114454
-0.000434038
0.114776
-0.000469732
-0.0004526
0.114715
0.0977959
0.00445949
-0.0976153
0.098006
0.00341973
0.0982358
0.00275848
0.0984544
0.00178876
0.0986683
0.00113179
0.0988241
0.0001334
0.0989874
-0.000571662
0.0992019
-0.00166752
0.0994097
-0.00232595
0.0996095
-0.00331344
0.0998092
-0.00383982
0.0999379
-0.00469795
0.100113
-0.00511417
0.100275
-0.00580104
0.100483
-0.00598229
0.100593
-0.00650173
0.100804
-0.00657419
0.101014
-0.00695747
0.101338
-0.00679239
0.101596
-0.00698106
0.101925
-0.00671536
0.10229
-0.00680587
0.1028
-0.00647223
0.103372
-0.00640038
0.104118
-0.00603691
0.104914
-0.00589421
0.105904
-0.00544769
0.106892
-0.00521546
0.108018
-0.00468168
0.109047
-0.00433489
0.110207
-0.00380832
0.111279
-0.003448
0.112531
-0.0029374
0.113655
-0.00258058
0.114915
-0.00218693
0.115945
-0.00182599
0.117063
-0.00159625
0.117849
-0.00122083
0.118611
-0.001231
-0.000752546
0.118911
0.100084
0.00446692
-0.100092
0.100134
0.00337047
0.100208
0.00268447
0.100358
0.001639
0.100538
0.000950998
0.100874
-0.000202787
0.101101
-0.000798536
0.101339
-0.00190539
0.101489
-0.00247557
0.101708
-0.00353239
0.10188
-0.00401192
0.102069
-0.00488741
0.102211
-0.00525625
0.102359
-0.00594823
0.102522
-0.00614565
0.102647
-0.0066268
0.102741
-0.00666851
0.102853
-0.00706885
0.103056
-0.00699583
0.103296
-0.00722108
0.103632
-0.00705121
0.104008
-0.00718193
0.104545
-0.00700882
0.105185
-0.0070407
0.105962
-0.00681345
0.106784
-0.00671705
0.107795
-0.00645793
0.108865
-0.0062856
0.1102
-0.00601681
0.111531
-0.0056657
0.113118
-0.00539552
0.114526
-0.00485561
0.116154
-0.00456556
0.117521
-0.00394775
0.11909
-0.00375649
0.120393
-0.00312829
0.121838
-0.00304165
0.123093
-0.00247614
0.124313
-0.00245018
-0.0017442
0.125304
0.101051
0.00404705
-0.100631
0.10148
0.00294099
0.101877
0.00228817
0.102224
0.00129142
0.102483
0.000692467
0.102613
-0.000333429
0.102862
-0.00104677
0.103052
-0.00209575
0.103302
-0.00272555
0.103408
-0.00363784
0.103567
-0.00417125
0.103612
-0.00493286
0.10371
-0.00535408
0.103718
-0.00595657
0.103823
-0.00625013
0.103857
-0.00666049
0.103979
-0.00679132
0.103982
-0.00707169
0.104129
-0.00714301
0.104232
-0.00732407
0.104505
-0.00732335
0.104739
-0.00741676
0.1052
-0.00746936
0.105706
-0.00754647