/*--------------------------------*- C++ -*----------------------------------*\
  =========                 |
  \\      /  F ield         | OpenFOAM: The Open Source CFD Toolbox
   \\    /   O peration     | Website:  https://openfoam.org
    \\  /    A nd           | Version:  11
     \\/     M anipulation  |
\*---------------------------------------------------------------------------*/
FoamFile
{
    format      ascii;
    class       volVectorField;
    location    "2.5";
    object      U;
}
// * * * * * * * * * * * * * * * * * * * * * * * * * * * * * * * * * * * * * //

dimensions      [0 1 -1 0 0 0 0];

internalField   nonuniform List<vector> 
9600
(
(0.997937 0.000345994 -4.7289e-21)
(0.996936 0.00031207 0)
(0.995862 -0.000118271 -4.81354e-21)
(0.996008 -0.000130365 4.70825e-21)
(0.997691 0.002035 0)
(0.994061 0.0108495 2.37733e-21)
(0.967139 0.0165348 -4.7382e-21)
(0.933389 0.0118884 2.34094e-21)
(0.920403 0.000637296 2.17797e-21)
(0.923815 -0.0106512 -2.17729e-21)
(0.940987 -0.0220217 1.59912e-23)
(0.963582 -0.0330683 0)
(0.983215 -0.0401172 0)
(0.999595 -0.0433343 -7.66653e-22)
(1.01305 -0.043639 1.06038e-22)
(1.02406 -0.0424957 6.57795e-22)
(1.03327 -0.0403752 0)
(1.04086 -0.0378898 0)
(1.04663 -0.0354661 5.13589e-25)
(1.05112 -0.0328787 0)
(1.05459 -0.0302436 0)
(1.05697 -0.0277229 6.36919e-26)
(1.05802 -0.0245762 -4.26152e-25)
(1.05735 -0.0220973 1.87492e-22)
(1.05541 -0.0191802 -1.86015e-22)
(1.05244 -0.0170239 -2.29054e-22)
(1.04894 -0.0138304 2.30585e-22)
(1.04448 -0.0116817 4.26544e-22)
(1.03967 -0.00820476 -4.19104e-22)
(1.03433 -0.00598702 0)
(1.0296 -0.002476 0)
(1.02488 -0.000481681 -1.63747e-22)
(1.02077 0.00226469 2.59012e-22)
(1.01661 0.00434301 -9.69136e-23)
(1.01281 0.00624516 0)
(1.00942 0.00831079 5.54929e-25)
(1.00662 0.00956738 1.53678e-22)
(1.00425 0.0118555 -1.51295e-22)
(1.0018 0.0133425 -1.78008e-24)
(0.999155 0.0212858 -8.03761e-22)
(0.998311 0.000194747 -4.85981e-21)
(0.998242 0.000175165 -9.00279e-23)
(0.998282 0.000320514 3.71707e-23)
(0.998012 0.00070467 4.94184e-21)
(0.996503 0.00269527 2.44848e-21)
(0.996405 0.00464986 -2.44699e-21)
(0.997773 0.00456884 3.68199e-23)
(0.999617 -0.00018413 1.80293e-23)
(0.997881 -0.0044178 -2.09452e-21)
(0.997146 -0.00338385 2.11499e-21)
(1.00004 0.00187736 -1.6245e-23)
(1.0073 0.014142 3.05068e-23)
(1.01241 0.0253541 7.95441e-22)
(1.01553 0.0323723 -1.5547e-21)
(1.01877 0.0354927 7.4188e-22)
(1.02309 0.0362762 5.25861e-22)
(1.02817 0.035636 -5.29262e-22)
(1.03279 0.0344011 1.57458e-22)
(1.03634 0.0328618 -1.55123e-22)
(1.03916 0.0310749 0)
(1.04128 0.029394 0)
(1.04289 0.0276363 3.66077e-23)
(1.04319 0.0251306 -3.54887e-23)
(1.04214 0.0233748 -1.33329e-24)
(1.04011 0.0212239 0)
(1.03705 0.0196647 -2.39054e-22)
(1.03422 0.016977 -2.64522e-24)
(1.02907 0.0146628 -2.10203e-22)
(1.02587 0.0111332 4.38056e-22)
(1.01891 0.00827255 5.74946e-24)
(1.0158 0.00469976 -2.47704e-22)
(1.00935 0.00216366 2.48699e-22)
(1.00626 -0.00111137 -1.08278e-22)
(1.0006 -0.00296598 1.45542e-22)
(0.998254 -0.00522952 -3.85696e-23)
(0.994262 -0.00773727 -5.71438e-25)
(0.991749 -0.00877429 -1.1371e-24)
(0.989955 -0.0127171 0)
(0.988511 -0.0146211 1.85129e-24)
(0.987183 -0.0192301 -1.6206e-22)
(0.998385 2.03158e-05 0)
(0.998219 0.000250981 5.08439e-21)
(0.998331 0.000399783 -5.03148e-21)
(0.999135 0.000813729 0)
(1.00088 0.00359023 0)
(1.0013 0.0110343 -7.72021e-23)
(0.998457 0.0142477 -1.13486e-22)
(0.991722 0.0120258 0)
(0.978733 0.00222147 -2.32905e-21)
(0.97446 -0.00805311 2.23371e-21)
(0.977759 -0.0185404 0)
(0.986999 -0.0290987 -3.12875e-23)
(0.998749 -0.037347 2.87775e-23)
(1.0104 -0.0423899 0)
(1.02139 -0.0447219 -6.9779e-22)
(1.03099 -0.0452025 6.87339e-22)
(1.03904 -0.0437194 1.525e-23)
(1.04586 -0.0409616 -3.00341e-24)
(1.05125 -0.0380306 -5.7037e-23)
(1.05561 -0.0348201 5.9116e-23)
(1.05927 -0.0315476 7.32127e-24)
(1.06148 -0.0284635 -6.92887e-24)
(1.0632 -0.0244126 -8.60049e-25)
(1.06292 -0.0210832 1.93044e-22)
(1.06204 -0.0172884 -1.8946e-22)
(1.05882 -0.0148077 -2.33283e-22)
(1.05637 -0.0102999 2.442e-22)
(1.05107 -0.00823778 -4.69043e-22)
(1.04747 -0.00338635 4.68157e-22)
(1.04141 -0.00183056 -5.88771e-24)
(1.03788 0.0023815 0)
(1.03224 0.00367693 -2.35822e-22)
(1.02972 0.00697933 4.15179e-22)
(1.02486 0.00757497 -1.76756e-22)
(1.02267 0.0104194 -6.58809e-23)
(1.01846 0.0114654 9.21503e-23)
(1.01556 0.0126265 -1.08219e-22)
(1.01291 0.0162199 7.99741e-23)
(1.00916 0.015708 -3.52144e-24)
(1.00486 0.0199339 3.63985e-25)
(0.998586 2.65915e-05 -1.01101e-20)
(0.998692 0.000189732 5.11684e-21)
(0.999165 0.000379351 5.14149e-21)
(0.999873 0.00144683 -5.15691e-21)
(1.00153 0.00589066 0)
(1.00375 0.0095352 2.57281e-21)
(1.00493 0.00929086 -2.40366e-21)
(1.00856 0.00314687 2.35839e-21)
(1.01503 -0.00602384 -1.08331e-22)
(1.02065 -0.0113972 -2.20819e-21)
(1.02608 -0.0109923 -1.92128e-21)
(1.02989 -0.00234835 3.87573e-21)
(1.03141 0.0106682 -1.0102e-21)
(1.03143 0.0197877 -1.55479e-21)
(1.03166 0.0249229 7.28904e-22)
(1.03225 0.0276272 5.31354e-22)
(1.03346 0.0285002 -5.20227e-22)
(1.03621 0.028603 -5.82937e-24)
(1.03915 0.0282411 -2.11594e-24)
(1.04169 0.0275498 0)
(1.04373 0.0270561 0)
(1.04531 0.0262842 -2.88657e-25)
(1.04554 0.0249357 0)
(1.04405 0.0239032 0)
(1.04232 0.022748 3.59628e-24)
(1.0389 0.0215664 -7.74056e-24)
(1.03706 0.0197324 2.49806e-22)
(1.03223 0.0174813 2.13018e-22)
(1.02917 0.0144635 -5.01282e-22)
(1.02361 0.0111848 3.5869e-22)
(1.01862 0.0078171 -3.57848e-22)
(1.01387 0.00467677 -8.95105e-24)
(1.00909 0.00132424 -1.11345e-22)
(1.00377 -0.00125337 1.17792e-22)
(1.00094 -0.00379759 -1.22164e-23)
(0.996736 -0.00571369 -1.00648e-22)
(0.994205 -0.00820449 -4.82052e-23)
(0.993513 -0.0120064 1.57174e-22)
(0.991606 -0.0132926 3.60822e-24)
(0.991206 -0.0170632 4.17392e-24)
(0.998786 -0.000130272 0)
(0.999032 8.60102e-05 5.43391e-21)
(0.999696 0.000462172 -1.0752e-20)
(1.00051 0.00190145 5.29636e-21)
(1.00293 0.00601783 0)
(1.00857 0.0102955 0)
(1.01413 0.00960346 0)
(1.01579 0.00447814 7.53336e-23)
(1.011 -0.00455386 -2.29309e-21)
(1.00336 -0.010608 2.37908e-21)
(0.997651 -0.0155632 -6.82431e-23)
(0.997025 -0.0216219 1.94789e-21)
(1.00279 -0.0293407 -2.94167e-21)
(1.01157 -0.0364052 9.28573e-22)
(1.02124 -0.0406414 0)
(1.03047 -0.0426914 5.66623e-22)
(1.03844 -0.0429385 -5.86444e-22)
(1.04515 -0.041378 5.98526e-24)
(1.05009 -0.0389054 0)
(1.05424 -0.0354791 0)
(1.05792 -0.0316833 -7.91049e-24)
(1.0598 -0.0284385 7.90889e-24)
(1.06171 -0.0238758 0)
(1.0622 -0.019629 2.06025e-22)
(1.06179 -0.0149535 -2.13035e-22)
(1.05898 -0.0124225 -2.68241e-22)
(1.05651 -0.00725887 2.58763e-22)
(1.05165 -0.00507766 -5.07991e-22)
(1.0477 0.000360756 5.38866e-22)
(1.04226 0.0021048 1.41467e-23)
(1.03831 0.00661269 0)
(1.0336 0.00750977 9.17523e-24)
(1.03058 0.0114595 2.48342e-22)
(1.02649 0.0114146 -2.54519e-22)
(1.02426 0.0141913 2.93551e-24)
(1.01946 0.0146529 0)
(1.01731 0.0159028 0)
(1.01294 0.0181593 1.42413e-22)
(1.01016 0.0180615 -1.35596e-22)
(1.00472 0.0206 7.43924e-24)
(0.99902 -0.00023114 -5.18221e-21)
(0.999459 0.0001277 -1.69345e-22)
(1.00022 0.00075804 1.70046e-22)
(1.00185 0.00244864 1.69219e-22)
(1.00636 0.00609624 0)
(1.01065 0.00779145 0)
(1.01311 0.00586309 0)
(1.01704 -0.000703227 2.27273e-21)
(1.02196 -0.00764823 -4.92877e-21)
(1.02706 -0.0130599 2.19776e-21)
(1.03266 -0.0153641 0)
(1.03726 -0.0121795 1.82295e-21)
(1.0406 -0.00271457 -1.89037e-21)
(1.04129 0.00631749 -7.38148e-22)
(1.04124 0.01265 7.39366e-22)
(1.0415 0.0170326 1.88997e-23)
(1.04176 0.0195518 -1.51873e-23)
(1.04249 0.0212606 0)
(1.04384 0.0222366 4.04643e-24)
(1.04525 0.0227932 0)
(1.04747 0.0236082 -1.75428e-25)
(1.0486 0.0237613 8.17879e-25)
(1.04842 0.0239124 0)
(1.0475 0.0234612 -2.44921e-22)
(1.04559 0.0234474 2.48571e-22)
(1.04213 0.0227448 -2.70051e-22)
(1.03991 0.0220349 3.05355e-22)
(1.03584 0.0202507 5.36479e-22)
(1.03271 0.0179365 -5.36527e-22)
(1.02772 0.0148448 7.77144e-25)
(1.02276 0.0114472 -2.61669e-23)
(1.0176 0.00827918 2.16561e-23)
(1.01264 0.00446066 -1.4626e-22)
(1.00725 0.00155164 2.16353e-22)
(1.00391 -0.00161789 -7.03135e-23)
(0.999681 -0.00322758 0)
(0.997564 -0.00642905 -9.31131e-25)
(0.996696 -0.00959014 -2.25123e-24)
(0.994536 -0.0113578 -6.10419e-24)
(0.995019 -0.0146201 1.26682e-22)
(0.999443 -0.000171809 -1.93031e-22)
(1.00026 0.000150871 -1.09924e-20)
(1.00126 0.000638116 2.01241e-22)
(1.00301 0.002248 5.40512e-21)
(1.00765 0.00526982 0)
(1.01321 0.00696578 1.67831e-22)
(1.01688 0.00420016 1.62766e-22)
(1.0196 -0.00380587 0)
(1.02086 -0.0111449 2.59089e-21)
(1.01975 -0.0141646 -2.14341e-21)
(1.01578 -0.0152674 0)
(1.01148 -0.0176743 1.29987e-22)
(1.01081 -0.0224753 -9.41403e-22)
(1.01537 -0.0292669 9.43169e-22)
(1.02262 -0.0346457 0)
(1.03059 -0.0380195 5.76018e-22)
(1.03813 -0.0395168 -5.95662e-22)
(1.04493 -0.0390702 0)
(1.04993 -0.0375546 -6.76402e-23)
(1.05374 -0.0348107 5.95839e-23)
(1.05763 -0.030739 2.97362e-25)
(1.05937 -0.0273518 -1.96184e-24)
(1.0607 -0.0229542 5.05752e-24)
(1.06178 -0.0180639 2.35294e-22)
(1.06197 -0.012313 -2.36547e-22)
(1.05993 -0.00944624 -1.82889e-23)
(1.05696 -0.0039747 -3.0929e-22)
(1.05279 -0.00183528 3.47352e-22)
(1.04833 0.00370739 5.39376e-22)
(1.04322 0.00576689 -5.38025e-22)
(1.03903 0.0104403 2.68619e-23)
(1.03485 0.0113199 1.56125e-24)
(1.03161 0.0154995 0)
(1.02801 0.0153397 1.39015e-23)
(1.02526 0.0182922 2.12531e-22)
(1.02112 0.0178753 5.02741e-23)
(1.01827 0.0188586 -1.74649e-22)
(1.01321 0.0194908 -8.26793e-23)
(1.0107 0.02033 -2.32897e-22)
(1.00462 0.0214735 2.3524e-22)
(1.00019 -0.00034609 5.71864e-21)
(1.00085 -0.000193459 1.6403e-22)
(1.00209 0.000213368 -1.12627e-20)
(1.00498 0.00188555 5.54964e-21)
(1.00936 0.00423696 0)
(1.01348 0.00451452 -1.71949e-22)
(1.01761 -8.25285e-05 -2.63484e-21)
(1.02127 -0.00762762 5.38211e-21)
(1.02319 -0.0126539 -4.88894e-21)
(1.02712 -0.0148849 2.32428e-21)
(1.03286 -0.016297 0)
(1.03861 -0.0157275 1.90957e-21)
(1.04309 -0.0115594 -1.9207e-21)
(1.04588 -0.00555996 -7.06642e-22)
(1.04685 0.000374416 7.61382e-22)
(1.048 0.00542375 0)
(1.04821 0.00930581 4.53673e-25)
(1.04907 0.012485 0)
(1.04956 0.0150443 7.84397e-24)
(1.04993 0.0168594 -1.02468e-24)
(1.05177 0.0188968 -1.20447e-25)
(1.05302 0.0204725 1.14263e-24)
(1.05263 0.0221438 -5.19067e-24)
(1.05122 0.0223563 2.94215e-22)
(1.04904 0.0232601 -3.0529e-22)
(1.04611 0.0234184 -3.32998e-22)
(1.04362 0.0237028 3.32372e-22)
(1.03982 0.0227172 6.27157e-22)
(1.0365 0.0212786 -1.23407e-21)
(1.03188 0.0188741 1.05396e-21)
(1.0272 0.0155326 -5.00195e-22)
(1.02171 0.0125158 -2.44339e-23)
(1.01668 0.00862396 0)
(1.01132 0.00530298 -1.42757e-23)
(1.00693 0.00184897 0)
(1.00297 -0.000103082 0)
(1.00148 -0.00287891 0)
(0.999371 -0.00577948 1.25694e-22)
(0.997758 -0.00830171 -1.32126e-22)
(0.998622 -0.0111467 -1.31935e-23)
(1.00048 -0.000633293 -5.55392e-21)
(1.00132 -0.000686208 8.72569e-25)
(1.00297 -0.000441786 -6.23459e-21)
(1.00614 0.00118439 6.0754e-21)
(1.01036 0.00308617 -3.61417e-22)
(1.01476 0.00225485 -2.95957e-21)
(1.01902 -0.00377169 2.4496e-21)
(1.02162 -0.010883 -1.67752e-22)
(1.02361 -0.0153958 -2.70612e-21)
(1.02563 -0.0173476 4.9667e-21)
(1.02643 -0.0178239 -2.53483e-21)
(1.026 -0.0179396 0)
(1.02452 -0.0194715 -1.82336e-22)
(1.02473 -0.0236326 -5.46803e-23)
(1.02761 -0.0288213 4.64897e-23)
(1.03297 -0.0327193 5.58408e-22)
(1.03889 -0.0350028 -5.81984e-22)
(1.04495 -0.0355639 0)
(1.05057 -0.0345062 -7.56487e-24)
(1.05419 -0.0326323 1.552e-25)
(1.05775 -0.0290324 0)
(1.05984 -0.0254369 -1.69363e-24)
(1.06109 -0.0209302 -6.34336e-24)
(1.0622 -0.0164832 -8.07071e-24)
(1.06285 -0.00992228 1.93885e-23)
(1.06103 -0.00639507 0)
(1.05833 -0.000406741 0)
(1.05433 0.00195082 -6.9967e-22)
(1.04927 0.00715767 6.53993e-22)
(1.04452 0.00930821 3.99259e-23)
(1.04005 0.0140251 0)
(1.03627 0.0151875 5.10991e-22)
(1.03247 0.019119 -9.03837e-22)
(1.0295 0.0191923 7.85046e-22)
(1.02594 0.0222297 -3.61259e-22)
(1.0224 0.0209363 1.73385e-23)
(1.01889 0.0214046 1.77382e-22)
(1.01352 0.021203 -1.85465e-22)
(1.01086 0.0220634 1.74592e-22)
(1.00464 0.0219383 -4.64393e-22)
(1.0008 -0.000995333 -6.04682e-21)
(1.00185 -0.00140235 1.14052e-20)
(1.00359 -0.00129377 -5.31762e-23)
(1.00749 0.000192654 -6.4327e-21)
(1.01173 0.00123653 3.71643e-22)
(1.01537 -0.00107061 1.81865e-22)
(1.01934 -0.00790578 1.77308e-22)
(1.02175 -0.0141668 2.71417e-21)
(1.0235 -0.0175962 -1.17401e-22)
(1.02718 -0.0183767 -2.61462e-21)
(1.03238 -0.0184715 -2.1251e-21)
(1.03744 -0.0174663 3.38056e-22)
(1.04307 -0.0155864 3.13888e-21)
(1.04699 -0.0129142 -1.72415e-21)
(1.04902 -0.00947475 7.47363e-22)
(1.05129 -0.00528929 7.77584e-23)
(1.0528 -0.0011305 0)
(1.0541 0.00283141 -1.26915e-22)
(1.05536 0.00654577 1.63161e-22)
(1.05574 0.0101239 -3.15019e-23)
(1.05633 0.0132476 0)
(1.05786 0.0158116 1.12509e-22)
(1.05838 0.0194911 -1.04195e-22)
(1.05651 0.0210353 3.45634e-22)
(1.05334 0.0225437 -3.22297e-22)
(1.0503 0.0235731 -3.7138e-22)
(1.04793 0.0248007 8.22952e-22)
(1.04411 0.0247959 3.73676e-22)
(1.04048 0.0243432 -7.27183e-22)
(1.03618 0.0227218 -8.48283e-23)
(1.03144 0.0200195 0)
(1.02625 0.017144 -6.31165e-23)
(1.02103 0.01373 0)
(1.01523 0.0101075 -1.53061e-22)
(1.01005 0.00633888 1.84765e-22)
(1.00685 0.00424876 2.59817e-23)
(1.00468 0.00198888 -1.19213e-23)
(1.00202 -0.000828829 0)
(1.00131 -0.00384855 -9.25181e-23)
(1.00148 -0.00636964 9.90726e-23)
(1.00139 -0.00162143 -6.67498e-21)
(1.00252 -0.00228853 3.91832e-22)
(1.00477 -0.00231965 -6.22846e-21)
(1.00873 -0.00113706 7.03552e-21)
(1.01295 -0.000873274 0)
(1.01699 -0.00471321 0)
(1.01953 -0.01156 0)
(1.02092 -0.0166693 0)
(1.02363 -0.0192709 -2.67655e-21)
(1.02757 -0.0205138 2.68556e-21)
(1.03096 -0.0206719 0)
(1.03309 -0.020256 -1.40659e-22)
(1.03409 -0.0201369 -1.09267e-21)
(1.03452 -0.021076 9.62474e-22)
(1.03567 -0.0247507 0)
(1.03839 -0.0286111 5.48935e-22)
(1.04233 -0.0308373 -6.18945e-22)
(1.04701 -0.0319986 0)
(1.05196 -0.0310415 -3.17728e-24)
(1.05547 -0.0292857 0)
(1.05938 -0.0264643 0)
(1.06126 -0.0230148 -2.57529e-24)
(1.06213 -0.0183287 -8.33507e-24)
(1.06336 -0.0140341 -2.2027e-23)
(1.06468 -0.00715767 -4.92939e-23)
(1.06308 -0.00326784 -4.84429e-22)
(1.06048 0.00317338 4.03396e-22)
(1.05662 0.00633438 -8.97757e-22)
(1.05145 0.0111141 8.39207e-22)
(1.04621 0.0131869 4.50526e-23)
(1.0416 0.0174504 0)
(1.03757 0.0189632 3.3693e-23)
(1.03345 0.0227823 0)
(1.03073 0.0230651 0)
(1.02674 0.0259206 -3.32295e-23)
(1.02359 0.024088 -5.83737e-22)
(1.01911 0.0245715 8.39848e-22)
(1.01364 0.0233304 -3.72142e-22)
(1.01088 0.0237587 1.78745e-22)
(1.00471 0.0224832 -1.03937e-22)
(1.0018 -0.00230689 5.60248e-23)
(1.00324 -0.00353254 1.2961e-20)
(1.00621 -0.00356071 -1.29334e-20)
(1.0098 -0.00317449 -3.062e-22)
(1.01399 -0.00418884 9.5356e-21)
(1.01741 -0.00818777 -3.14761e-21)
(1.01947 -0.0145395 0)
(1.0206 -0.0193794 -2.8846e-21)
(1.02241 -0.0221257 1.38531e-22)
(1.02647 -0.0226178 2.76645e-21)
(1.03185 -0.0220851 -1.55652e-22)
(1.03716 -0.0203842 1.4328e-22)
(1.042 -0.0185058 2.60434e-22)
(1.04675 -0.0174536 0)
(1.05064 -0.0163138 0)
(1.05333 -0.0139815 0)
(1.05599 -0.0104517 1.71717e-24)
(1.05797 -0.00660836 0)
(1.0597 -0.00214223 8.83213e-24)
(1.06126 0.00240365 -3.50392e-25)
(1.06199 0.0067916 -6.6339e-25)
(1.06298 0.0103189 2.65567e-24)
(1.06436 0.0157952 8.59552e-24)
(1.06262 0.0190054 4.60381e-22)
(1.05939 0.0213478 -4.10551e-22)
(1.05574 0.0233345 -4.57306e-22)
(1.05309 0.0254278 4.21358e-22)
(1.04903 0.0264989 -4.45298e-24)
(1.04525 0.0271175 8.18255e-22)
(1.04086 0.0264693 -8.20708e-22)
(1.03628 0.024708 0)
(1.03065 0.0221868 0)
(1.02539 0.0193222 -3.07897e-22)
(1.0195 0.0158895 1.45368e-22)
(1.01378 0.0117559 3.4786e-22)
(1.01028 0.00957775 1.86914e-23)
(1.0078 0.0078996 -1.29661e-23)
(1.00565 0.00517371 -9.27239e-23)
(1.00475 0.00187792 4.62192e-23)
(1.00348 -0.000594085 -4.53585e-23)
(1.00265 -0.00375735 0)
(1.00467 -0.00526879 4.21044e-22)
(1.00752 -0.00521488 -4.20639e-22)
(1.01089 -0.00541426 0)
(1.01421 -0.00689732 0)
(1.01685 -0.011388 0)
(1.01846 -0.0175833 -3.92616e-22)
(1.01942 -0.021769 -3.80441e-22)
(1.02147 -0.023456 2.83456e-21)
(1.02622 -0.0242642 -3.01701e-21)
(1.03132 -0.0243651 1.60582e-22)
(1.03591 -0.0234811 2.09454e-21)
(1.04001 -0.0223664 -3.38155e-21)
(1.04275 -0.0220448 1.00226e-21)
(1.04415 -0.0238298 -4.87086e-23)
(1.04599 -0.0263352 5.32367e-22)
(1.04836 -0.0279189 -5.41957e-22)
(1.05144 -0.028917 0)
(1.05554 -0.0279309 -5.73501e-24)
(1.0587 -0.026222 3.61705e-25)
(1.06219 -0.0233423 6.84814e-25)
(1.06442 -0.0200465 0)
(1.0646 -0.0154493 0)
(1.06588 -0.0112687 0)
(1.06726 -0.00397349 0)
(1.06607 0.000277157 -5.34283e-22)
(1.0635 0.00683734 1.13605e-21)
(1.05962 0.0108237 -1.50932e-21)
(1.05482 0.0157654 1.09594e-21)
(1.04896 0.0178176 8.26562e-22)
(1.04383 0.0212848 -8.25175e-22)
(1.03957 0.0230455 7.15925e-22)
(1.03488 0.0265706 -7.84693e-22)
(1.03207 0.0269904 -6.55867e-23)
(1.02812 0.0298819 0)
(1.02448 0.0281789 6.87772e-22)
(1.01917 0.0280101 -3.01682e-22)
(1.01407 0.0259148 -4.1582e-22)
(1.01108 0.0261693 1.98225e-23)
(1.00472 0.0236036 -1.95573e-22)
(1.00309 -0.00527735 -7.42556e-21)
(1.0053 -0.00694152 6.5193e-21)
(1.00814 -0.00684352 -6.56201e-21)
(1.01119 -0.00743561 -6.84637e-21)
(1.01391 -0.0102661 6.88087e-21)
(1.01614 -0.014631 4.19199e-22)
(1.01724 -0.020071 4.05226e-22)
(1.01822 -0.0235852 -1.15044e-24)
(1.02041 -0.0259716 -2.92676e-21)
(1.02462 -0.027038 3.11597e-21)
(1.03031 -0.0268135 0)
(1.03625 -0.0251866 0)
(1.04193 -0.0229711 0)
(1.04692 -0.0218964 -9.85596e-22)
(1.05167 -0.0215201 9.19631e-22)
(1.05546 -0.0204557 7.84892e-23)
(1.05891 -0.0180647 0)
(1.0618 -0.0147371 0)
(1.06398 -0.010536 0)
(1.06633 -0.00554964 0)
(1.06793 3.15483e-05 -1.34734e-24)
(1.06834 0.00433704 0)
(1.0703 0.0110125 0)
(1.06944 0.0160907 6.00978e-22)
(1.06645 0.0198243 6.71329e-23)
(1.06213 0.0225887 -5.97939e-22)
(1.05904 0.0258027 0)
(1.05492 0.0277588 -1.09879e-21)
(1.05073 0.0296582 7.50532e-23)
(1.04608 0.0300328 1.09534e-21)
(1.04149 0.0296123 -5.6177e-23)
(1.03549 0.0274569 0)
(1.02986 0.0255022 -5.36128e-22)
(1.0243 0.0223284 3.06761e-22)
(1.01819 0.0182893 3.67298e-22)
(1.01384 0.0160054 -4.48552e-23)
(1.01153 0.0143366 3.18665e-23)
(1.00867 0.0122285 -1.23868e-22)
(1.00775 0.00894831 1.33404e-22)
(1.0051 0.00623722 0)
(1.00421 -0.00715933 -7.3017e-21)
(1.00615 -0.00900115 6.78518e-21)
(1.0089 -0.0088781 -8.69625e-23)
(1.01174 -0.0101881 -1.43515e-20)
(1.01375 -0.0132108 7.15409e-21)
(1.01538 -0.0174877 -4.33084e-22)
(1.01634 -0.0222682 0)
(1.01755 -0.0258099 -1.64892e-24)
(1.01949 -0.0282223 -2.63571e-21)
(1.02314 -0.0292076 3.22163e-21)
(1.0291 -0.029322 0)
(1.03554 -0.0282199 0)
(1.04221 -0.0265674 1.1794e-21)
(1.04784 -0.0254003 -8.01451e-22)
(1.05135 -0.0256879 0)
(1.05399 -0.0265846 5.05212e-22)
(1.05641 -0.0268723 -5.45596e-22)
(1.05852 -0.0271743 0)
(1.06154 -0.0258263 0)
(1.06392 -0.0238623 5.61381e-25)
(1.06662 -0.0205583 1.39386e-24)
(1.06895 -0.017016 0)
(1.06904 -0.0122793 0)
(1.06942 -0.00841759 -3.31318e-23)
(1.07112 -0.000516878 -3.74116e-23)
(1.07028 0.00430282 0)
(1.06761 0.0107093 -6.7925e-22)
(1.06354 0.0152325 6.84987e-22)
(1.05908 0.020718 0)
(1.0531 0.0233154 0)
(1.04721 0.0262696 0)
(1.04235 0.0276362 0)
(1.03713 0.0308471 0)
(1.03369 0.0313101 -7.93425e-22)
(1.02963 0.0343215 7.13474e-22)
(1.02554 0.0329463 4.63286e-23)
(1.02008 0.0323931 -6.5182e-22)
(1.01471 0.0292197 6.02165e-22)
(1.01146 0.0291014 0)
(1.00513 0.0256375 1.78962e-24)
(1.0043 -0.0092463 4.72052e-22)
(1.00596 -0.010606 8.02411e-21)
(1.00859 -0.0107285 -7.59641e-21)
(1.01156 -0.0125647 -6.94404e-21)
(1.01303 -0.0163573 1.1105e-20)
(1.01456 -0.0200946 -3.21397e-21)
(1.01555 -0.0245048 -3.00672e-21)
(1.01712 -0.0280109 7.19235e-21)
(1.01912 -0.030313 -5.8761e-22)
(1.02228 -0.0319259 -3.33721e-21)
(1.02804 -0.0326619 0)
(1.03488 -0.0318945 0)
(1.04241 -0.0294905 -1.43725e-22)
(1.0491 -0.027648 -1.02132e-21)
(1.05465 -0.0268384 8.99081e-22)
(1.05928 -0.0258343 5.21435e-22)
(1.06318 -0.0240621 -5.22156e-22)
(1.06653 -0.0213528 0)
(1.06909 -0.0174098 0)
(1.07138 -0.0128828 -5.81454e-25)
(1.07382 -0.00647884 -2.31573e-24)
(1.07435 -0.00156877 0)
(1.07627 0.00565594 0)
(1.07657 0.0120687 7.50914e-22)
(1.07414 0.0178048 -7.49869e-22)
(1.06984 0.0215741 -7.85205e-22)
(1.06608 0.0261065 7.83227e-22)
(1.06194 0.0288221 -1.9236e-22)
(1.05723 0.0319911 1.40744e-21)
(1.05233 0.0332421 -1.40269e-21)
(1.04748 0.0346761 0)
(1.04133 0.0333291 0)
(1.03502 0.0321295 -7.67128e-22)
(1.02911 0.0292596 8.76483e-23)
(1.0233 0.0262317 1.07183e-21)
(1.01764 0.0233234 -4.79563e-22)
(1.01551 0.0223344 5.49609e-22)
(1.01191 0.0199838 -8.00492e-22)
(1.01019 0.0178963 1.64412e-22)
(1.00673 0.0140061 1.44342e-22)
(1.0052 -0.0106589 0)
(1.0062 -0.0122017 7.39658e-21)
(1.00882 -0.0132305 -1.6277e-20)
(1.01175 -0.015788 7.39613e-21)
(1.01304 -0.019517 -4.84768e-22)
(1.01419 -0.0229229 -4.20365e-21)
(1.0154 -0.0267884 2.82871e-21)
(1.01752 -0.0299908 0)
(1.01945 -0.0327406 -2.83621e-21)
(1.0217 -0.0349945 2.87282e-21)
(1.02695 -0.0359735 0)
(1.03409 -0.0352025 2.48922e-21)
(1.0419 -0.0332393 -2.49724e-21)
(1.05013 -0.0311798 0)
(1.05634 -0.0298369 -6.11852e-22)
(1.06087 -0.0291775 7.13355e-22)
(1.06454 -0.027893 2.40835e-23)
(1.06654 -0.0270357 0)
(1.06913 -0.0250535 4.74365e-25)
(1.07109 -0.0225673 0)
(1.07323 -0.0186491 -4.81596e-25)
(1.0754 -0.0147512 -1.64375e-23)
(1.0759 -0.00928278 -4.13853e-23)
(1.07533 -0.00549043 0)
(1.0764 0.00209672 0)
(1.07595 0.00828749 -8.71747e-22)
(1.07335 0.0149766 1.74647e-21)
(1.06921 0.0197327 9.30829e-22)
(1.06439 0.0255793 -3.40135e-21)
(1.05902 0.0290248 1.59083e-21)
(1.05226 0.032432 0)
(1.04681 0.0333762 0)
(1.04069 0.0362704 0)
(1.03617 0.0363168 1.03493e-22)
(1.03152 0.0392096 -1.82797e-22)
(1.0271 0.0380828 6.68092e-23)
(1.02184 0.0374961 7.42432e-22)
(1.0157 0.0338142 -8.88571e-22)
(1.01229 0.0334151 2.63522e-23)
(1.00625 0.0294517 5.63007e-23)
(1.00467 -0.0125706 -8.94397e-21)
(1.00566 -0.014627 5.16927e-22)
(1.00794 -0.0163459 8.20537e-21)
(1.01101 -0.0187656 -1.58583e-20)
(1.01235 -0.0225226 1.26618e-20)
(1.0133 -0.0255682 -4.02126e-21)
(1.01488 -0.0289214 9.66084e-22)
(1.01756 -0.0324462 3.5844e-21)
(1.01988 -0.0353383 -7.42972e-21)
(1.02179 -0.0377825 6.98134e-21)
(1.02605 -0.0390701 -3.17552e-21)
(1.03279 -0.0393538 -2.56038e-21)
(1.0407 -0.0379182 2.42007e-21)
(1.04936 -0.0352945 0)
(1.05682 -0.0332829 -1.03804e-22)
(1.0628 -0.0314941 4.87155e-22)
(1.06782 -0.0291871 -5.12987e-22)
(1.07169 -0.0265958 2.60103e-23)
(1.07471 -0.0227266 -2.91773e-23)
(1.07684 -0.0189942 -2.213e-24)
(1.08008 -0.0124825 1.33811e-22)
(1.0811 -0.00703741 -4.58162e-22)
(1.08266 0.000489647 3.37893e-22)
(1.08367 0.00757447 9.50152e-22)
(1.08241 0.0155156 -9.487e-22)
(1.07861 0.0203342 -1.02223e-21)
(1.07467 0.0263739 8.85967e-22)
(1.07042 0.0300399 1.3145e-22)
(1.0652 0.0343328 1.13533e-22)
(1.05973 0.0363008 1.68887e-21)
(1.05396 0.0396 -1.8937e-21)
(1.04857 0.0397545 0)
(1.04117 0.0398262 1.6302e-22)
(1.03516 0.0370816 -8.70886e-22)
(1.02842 0.0353168 1.51618e-21)
(1.02243 0.0315324 -6.58627e-22)
(1.01928 0.0312145 8.70927e-22)
(1.01532 0.0286469 -2.08642e-22)
(1.01246 0.027732 -1.00569e-21)
(1.00871 0.0231725 3.51569e-22)
(1.00555 -0.0149932 1.09642e-21)
(1.00626 -0.017083 8.69791e-21)
(1.00782 -0.0192177 -7.66735e-21)
(1.0109 -0.0218941 -1.07708e-21)
(1.01252 -0.0256617 0)
(1.01331 -0.0285028 0)
(1.01501 -0.0316294 -5.04454e-22)
(1.01788 -0.0353541 0)
(1.02079 -0.0382064 3.53742e-21)
(1.02274 -0.0404381 -6.41585e-21)
(1.02586 -0.0423904 3.30624e-21)
(1.03195 -0.0433943 1.75878e-22)
(1.03913 -0.0424455 2.59675e-24)
(1.04808 -0.0398855 1.27177e-22)
(1.05714 -0.0367736 0)
(1.06436 -0.034497 0)
(1.07057 -0.0315414 -1.90943e-23)
(1.07461 -0.0291131 4.1038e-24)
(1.07812 -0.0259981 2.7665e-24)
(1.08011 -0.0230352 2.30286e-24)
(1.082 -0.018209 0)
(1.08363 -0.0138202 0)
(1.08469 -0.00716101 1.08488e-22)
(1.08362 -0.00295648 9.3359e-22)
(1.08358 0.00439595 -1.06936e-21)
(1.08297 0.0114438 0)
(1.08089 0.0192333 1.38758e-22)
(1.07697 0.0244584 -1.36656e-22)
(1.07144 0.0306517 -2.12061e-21)
(1.0662 0.0345922 1.97737e-21)
(1.05865 0.0390159 2.19885e-22)
(1.05315 0.0400467 0)
(1.04607 0.0431601 -1.69309e-22)
(1.04091 0.0428195 -1.65825e-22)
(1.03478 0.0454418 1.18709e-22)
(1.03039 0.044154 1.66181e-21)
(1.02385 0.0441676 -4.34287e-22)
(1.01823 0.0395345 -1.15517e-21)
(1.01392 0.0393573 -4.71422e-23)
(1.00937 0.0352138 2.13782e-23)
(1.00394 -0.0171691 -9.94004e-21)
(1.00533 -0.0197354 9.16762e-21)
(1.0067 -0.0227032 -1.89042e-20)
(1.00969 -0.0255121 1.92971e-20)
(1.01179 -0.0288722 -9.0524e-21)
(1.01269 -0.0315261 -4.33312e-21)
(1.0145 -0.034349 4.3589e-21)
(1.01765 -0.0381659 3.93423e-21)
(1.02126 -0.0411006 -7.17156e-21)
(1.02376 -0.043341 7.15041e-21)
(1.02651 -0.0454814 -3.44913e-21)
(1.03179 -0.0471276 -1.83067e-22)
(1.03858 -0.04713 -8.33705e-22)
(1.047 -0.0448401 9.56426e-23)
(1.05658 -0.0416861 1.02354e-21)
(1.0652 -0.03884 4.51308e-22)
(1.0724 -0.0352138 -3.99653e-22)
(1.07791 -0.0323058 -5.0483e-24)
(1.08274 -0.0275485 -8.23255e-24)
(1.08522 -0.0238262 0)
(1.08833 -0.0174029 5.58411e-24)
(1.08996 -0.0117227 0)
(1.0913 -0.00376812 -5.95411e-23)
(1.09206 0.00334853 -8.86799e-24)
(1.09187 0.0125895 -1.16923e-21)
(1.08876 0.0189498 1.32507e-21)
(1.08462 0.0262884 -1.33909e-21)
(1.08061 0.0313548 -1.44751e-21)
(1.07486 0.0374536 2.76555e-21)
(1.06916 0.0401683 1.40636e-22)
(1.06187 0.0443961 0)
(1.05666 0.0457339 1.82826e-21)
(1.04901 0.0479695 -1.81882e-21)
(1.04271 0.0459644 1.72486e-22)
(1.03517 0.045844 0)
(1.02888 0.0414595 0)
(1.02355 0.0417263 0)
(1.01942 0.0383181 0)
(1.0151 0.0381512 8.33031e-22)
(1.01071 0.0329756 -1.14311e-21)
(1.00476 -0.0205082 9.70102e-21)
(1.00668 -0.0234771 -7.32056e-22)
(1.00734 -0.0264471 -1.94078e-20)
(1.00923 -0.0289171 -4.2102e-22)
(1.0115 -0.0319163 9.59832e-21)
(1.01271 -0.0346774 0)
(1.01467 -0.0375794 0)
(1.01799 -0.0415659 0)
(1.02209 -0.0448158 3.37444e-21)
(1.02548 -0.0468356 -4.36241e-21)
(1.02819 -0.0488328 2.14451e-22)
(1.03292 -0.0510178 -2.78851e-21)
(1.03904 -0.0516636 2.63712e-21)
(1.04634 -0.0503854 -1.28223e-22)
(1.05577 -0.0471512 -6.65548e-24)
(1.0653 -0.043835 -4.2185e-24)
(1.07465 -0.0392306 0)
(1.08149 -0.0350736 7.6681e-24)
(1.08735 -0.0298309 8.59165e-24)
(1.09085 -0.0255035 4.97347e-24)
(1.09352 -0.0193466 -2.39896e-22)
(1.09493 -0.0146021 2.61141e-22)
(1.0965 -0.00660737 -7.95425e-23)
(1.09585 -0.00103936 8.03286e-23)
(1.09483 0.00653562 -1.83993e-22)
(1.09346 0.0133023 -1.33315e-21)
(1.09062 0.0224808 1.53105e-21)
(1.08721 0.0288192 2.99468e-21)
(1.08098 0.0360374 -5.05198e-22)
(1.07591 0.040257 -2.85821e-21)
(1.06773 0.0460109 0)
(1.06148 0.0473456 -3.04682e-22)
(1.05359 0.051136 0)
(1.0477 0.0506839 -1.40598e-21)
(1.04037 0.0532991 3.03909e-21)
(1.03535 0.0519602 -3.71952e-21)
(1.0276 0.0526951 4.24661e-21)
(1.0225 0.0475615 -1.89991e-21)
(1.01609 0.0477736 9.09575e-22)
(1.01226 0.0420207 -9.46757e-22)
(1.0023 -0.0236739 -6.57705e-22)
(1.00465 -0.0265436 1.16101e-20)
(1.00546 -0.029314 -1.03906e-20)
(1.00685 -0.0321792 6.48983e-22)
(1.00975 -0.0355826 0)
(1.01211 -0.0386732 -6.24385e-22)
(1.01463 -0.041444 0)
(1.01791 -0.045334 4.9489e-21)
(1.0222 -0.0487757 -8.63928e-22)
(1.02649 -0.0507054 -3.59954e-21)
(1.03001 -0.0523393 -2.23955e-22)
(1.03445 -0.054649 -1.94597e-22)
(1.04011 -0.0560817 0)
(1.04664 -0.0556362 -7.72592e-22)
(1.05546 -0.0527643 8.09565e-22)
(1.06534 -0.0496064 2.68219e-22)
(1.07589 -0.0441374 -3.05461e-22)
(1.08407 -0.0398245 -7.1738e-24)
(1.0915 -0.0334348 1.32113e-22)
(1.09598 -0.0285036 -1.53904e-22)
(1.09981 -0.0213921 7.11743e-24)
(1.10189 -0.0155329 -7.6202e-23)
(1.10303 -0.00726079 8.3173e-23)
(1.10348 -0.000120516 -1.0484e-22)
(1.10329 0.010109 1.00917e-22)
(1.10146 0.0175833 -2.26146e-21)
(1.09677 0.026557 2.04736e-21)
(1.09294 0.0326801 3.50504e-21)
(1.08665 0.0407232 -3.54032e-21)
(1.08146 0.0446524 -2.16914e-22)
(1.07296 0.0504244 0)
(1.06657 0.0520284 2.88327e-21)
(1.05826 0.0560877 -2.22761e-21)
(1.0518 0.055444 -1.90319e-21)
(1.04365 0.0573246 1.68603e-21)
(1.03689 0.0533478 0)
(1.02971 0.0541737 2.00186e-21)
(1.02466 0.0501377 -2.01687e-21)
(1.01867 0.0505587 0)
(1.01415 0.0447013 -5.99263e-23)
(1.00328 -0.02802 4.16328e-22)
(1.00557 -0.0308613 -1.1852e-20)
(1.00692 -0.0335549 1.09666e-20)
(1.00791 -0.0367327 -2.2564e-20)
(1.0104 -0.0401894 1.69083e-20)
(1.01292 -0.0431153 -4.69662e-21)
(1.01544 -0.0454523 0)
(1.01854 -0.0490119 -5.991e-22)
(1.02285 -0.0529914 -3.72831e-21)
(1.02752 -0.055357 3.7953e-21)
(1.03219 -0.0565618 2.3247e-22)
(1.03704 -0.0588585 -2.94447e-21)
(1.04275 -0.0604804 3.97893e-21)
(1.04864 -0.060949 -1.18711e-21)
(1.05654 -0.0586015 0)
(1.06557 -0.0559892 0)
(1.07622 -0.0508102 5.78734e-24)
(1.08592 -0.0454576 2.07313e-22)
(1.0946 -0.0380692 -3.85072e-22)
(1.10101 -0.0321401 1.93584e-22)
(1.10633 -0.0232595 -3.4225e-22)
(1.10912 -0.01709 3.25848e-22)
(1.1109 -0.00809104 1.11648e-22)
(1.11106 -0.000970654 2.03186e-21)
(1.1094 0.00819113 -1.91793e-21)
(1.10814 0.0151638 -2.12047e-21)
(1.10404 0.0252877 -2.69386e-22)
(1.10078 0.032174 -1.78392e-21)
(1.09396 0.0412749 4.61989e-21)
(1.089 0.0461149 4.83143e-22)
(1.08052 0.0533938 -4.76447e-22)
(1.07341 0.0556672 4.33598e-22)
(1.06437 0.0603286 -3.3771e-22)
(1.05737 0.0597906 -2.65697e-21)
(1.04866 0.0630414 4.634e-21)
(1.04285 0.0614113 -2.02059e-21)
(1.03459 0.0635922 0)
(1.02854 0.0586582 0)
(1.02124 0.0594288 0)
(1.01614 0.0528745 -1.33466e-21)
(1.00026 -0.0313745 0)
(1.00233 -0.0346393 1.18266e-20)
(1.00435 -0.0374218 -1.26783e-20)
(1.00582 -0.0405374 1.16184e-20)
(1.00793 -0.0438912 -1.3155e-20)
(1.01082 -0.047219 -7.12268e-22)
(1.01395 -0.0498642 6.87359e-22)
(1.01765 -0.0533617 0)
(1.02288 -0.0577332 4.52454e-21)
(1.02816 -0.0609205 -4.55116e-21)
(1.03358 -0.0619839 -2.438e-22)
(1.03961 -0.06373 3.22605e-21)
(1.04611 -0.0651939 -2.8573e-21)
(1.05206 -0.0660858 -7.17809e-22)
(1.05901 -0.0641949 8.41679e-22)
(1.06707 -0.0622974 1.44455e-23)
(1.07708 -0.0574268 0)
(1.08681 -0.0521442 2.46042e-23)
(1.0969 -0.0436052 -2.32156e-23)
(1.10483 -0.0367751 0)
(1.11135 -0.0272651 1.06657e-23)
(1.11615 -0.0195831 5.11121e-23)
(1.1187 -0.00954464 -1.17249e-22)
(1.11975 -0.00229047 0)
(1.11813 0.00831379 1.54867e-22)