/*--------------------------------*- C++ -*----------------------------------*\
  =========                 |
  \\      /  F ield         | OpenFOAM: The Open Source CFD Toolbox
   \\    /   O peration     | Website:  https://openfoam.org
    \\  /    A nd           | Version:  10
     \\/     M anipulation  |
\*---------------------------------------------------------------------------*/
FoamFile
{
    format      ascii;
    class       volVectorField;
    location    "0";
    object      C;
}
// * * * * * * * * * * * * * * * * * * * * * * * * * * * * * * * * * * * * * //

dimensions      [0 1 0 0 0 0 0];

internalField   nonuniform List<vector> 
15708
(
(0.00390625 0.00390625 0.05)
(0.0117188 0.00390625 0.05)
(0.0195313 0.00390625 0.05)
(0.0273438 0.00390625 0.05)
(0.0351563 0.00390625 0.05)
(0.0429688 0.00390625 0.05)
(0.0507813 0.00390625 0.05)
(0.0585938 0.00390625 0.05)
(0.0664063 0.00390625 0.05)
(0.0742188 0.00390625 0.05)
(0.0820314 0.00390625 0.05)
(0.0898439 0.00390625 0.05)
(0.0976564 0.00390625 0.05)
(0.105469 0.00390625 0.05)
(0.113281 0.00390625 0.05)
(0.121094 0.00390625 0.05)
(0.128906 0.00390625 0.05)
(0.136719 0.00390625 0.05)
(0.144531 0.00390625 0.05)
(0.152344 0.00390625 0.05)
(0.160156 0.00390625 0.05)
(0.167969 0.00390625 0.05)
(0.175781 0.00390625 0.05)
(0.183594 0.00390625 0.05)
(0.191406 0.00390625 0.05)
(0.199219 0.00390625 0.05)
(0.207032 0.00390625 0.05)
(0.214844 0.00390625 0.05)
(0.222657 0.00390625 0.05)
(0.230469 0.00390625 0.05)
(0.238282 0.00390625 0.05)
(0.246094 0.00390625 0.05)
(0.253907 0.00390625 0.05)
(0.261719 0.00390625 0.05)
(0.269532 0.00390625 0.05)
(0.277344 0.00390625 0.05)
(0.285157 0.00390625 0.05)
(0.292969 0.00390625 0.05)
(0.300782 0.00390625 0.05)
(0.308594 0.00390625 0.05)
(0.316407 0.00390625 0.05)
(0.324219 0.00390625 0.05)
(0.332032 0.00390625 0.05)
(0.339844 0.00390625 0.05)
(0.347657 0.00390625 0.05)
(0.355469 0.00390625 0.05)
(0.363282 0.00390625 0.05)
(0.371094 0.00390625 0.05)
(0.378907 0.00390625 0.05)
(0.386719 0.00390625 0.05)
(0.394532 0.00390625 0.05)
(0.00390625 0.0117188 0.05)
(0.0117188 0.0117188 0.05)
(0.0195313 0.0117188 0.05)
(0.0273438 0.0117188 0.05)
(0.0351563 0.0117188 0.05)
(0.0429688 0.0117188 0.05)
(0.0507813 0.0117188 0.05)
(0.0585938 0.0117188 0.05)
(0.0664063 0.0117188 0.05)
(0.0742188 0.0117188 0.05)
(0.0820314 0.0117188 0.05)
(0.0898439 0.0117188 0.05)
(0.0976564 0.0117188 0.05)
(0.105469 0.0117188 0.05)
(0.113281 0.0117188 0.05)
(0.121094 0.0117188 0.05)
(0.128906 0.0117188 0.05)
(0.136719 0.0117188 0.05)
(0.144531 0.0117188 0.05)
(0.152344 0.0117188 0.05)
(0.160156 0.0117188 0.05)
(0.167969 0.0117188 0.05)
(0.175781 0.0117188 0.05)
(0.183594 0.0117188 0.05)
(0.191406 0.0117188 0.05)
(0.199219 0.0117188 0.05)
(0.207032 0.0117188 0.05)
(0.214844 0.0117188 0.05)
(0.222657 0.0117188 0.05)
(0.230469 0.0117188 0.05)
(0.238282 0.0117188 0.05)
(0.246094 0.0117188 0.05)
(0.253907 0.0117188 0.05)
(0.261719 0.0117188 0.05)
(0.269532 0.0117188 0.05)
(0.277344 0.0117188 0.05)
(0.285157 0.0117188 0.05)
(0.292969 0.0117188 0.05)
(0.300782 0.0117188 0.05)
(0.308594 0.0117188 0.05)
(0.316407 0.0117188 0.05)
(0.324219 0.0117188 0.05)
(0.332032 0.0117188 0.05)
(0.339844 0.0117188 0.05)
(0.347657 0.0117188 0.05)
(0.355469 0.0117188 0.05)
(0.363282 0.0117188 0.05)
(0.371094 0.0117188 0.05)
(0.378907 0.0117188 0.05)
(0.386719 0.0117188 0.05)
(0.394532 0.0117188 0.05)
(0.00390625 0.0195313 0.05)
(0.0117188 0.0195313 0.05)
(0.0195313 0.0195313 0.05)
(0.0273438 0.0195313 0.05)
(0.0351563 0.0195313 0.05)
(0.0429688 0.0195313 0.05)
(0.0507813 0.0195313 0.05)
(0.0585938 0.0195313 0.05)
(0.0664063 0.0195313 0.05)
(0.0742188 0.0195313 0.05)
(0.0820314 0.0195313 0.05)
(0.0898439 0.0195313 0.05)
(0.0976564 0.0195313 0.05)
(0.105469 0.0195313 0.05)
(0.113281 0.0195313 0.05)
(0.121094 0.0195313 0.05)
(0.128906 0.0195313 0.05)
(0.136719 0.0195313 0.05)
(0.144531 0.0195313 0.05)
(0.152344 0.0195313 0.05)
(0.160156 0.0195313 0.05)
(0.167969 0.0195313 0.05)
(0.175781 0.0195313 0.05)
(0.183594 0.0195313 0.05)
(0.191406 0.0195313 0.05)
(0.199219 0.0195313 0.05)
(0.207032 0.0195313 0.05)
(0.214844 0.0195313 0.05)
(0.222657 0.0195313 0.05)
(0.230469 0.0195313 0.05)
(0.238282 0.0195313 0.05)
(0.246094 0.0195313 0.05)
(0.253907 0.0195313 0.05)
(0.261719 0.0195313 0.05)
(0.269532 0.0195313 0.05)
(0.277344 0.0195313 0.05)
(0.285157 0.0195313 0.05)
(0.292969 0.0195313 0.05)
(0.300782 0.0195313 0.05)
(0.308594 0.0195313 0.05)
(0.316407 0.0195313 0.05)
(0.324219 0.0195313 0.05)
(0.332032 0.0195313 0.05)
(0.339844 0.0195313 0.05)
(0.347657 0.0195313 0.05)
(0.355469 0.0195313 0.05)
(0.363282 0.0195313 0.05)
(0.371094 0.0195313 0.05)
(0.378907 0.0195313 0.05)
(0.386719 0.0195313 0.05)
(0.394532 0.0195313 0.05)
(0.00390625 0.0273438 0.05)
(0.0117188 0.0273438 0.05)
(0.0195313 0.0273438 0.05)
(0.0273438 0.0273438 0.05)
(0.0351563 0.0273438 0.05)
(0.0429688 0.0273438 0.05)
(0.0507813 0.0273438 0.05)
(0.0585938 0.0273438 0.05)
(0.0664063 0.0273438 0.05)
(0.0742188 0.0273438 0.05)
(0.0820314 0.0273438 0.05)
(0.0898439 0.0273438 0.05)
(0.0976564 0.0273438 0.05)
(0.105469 0.0273438 0.05)
(0.113281 0.0273438 0.05)
(0.121094 0.0273438 0.05)
(0.128906 0.0273438 0.05)
(0.136719 0.0273438 0.05)
(0.144531 0.0273438 0.05)
(0.152344 0.0273438 0.05)
(0.160156 0.0273438 0.05)
(0.167969 0.0273438 0.05)
(0.175781 0.0273438 0.05)
(0.183594 0.0273438 0.05)
(0.191406 0.0273438 0.05)
(0.199219 0.0273438 0.05)
(0.207032 0.0273438 0.05)
(0.214844 0.0273438 0.05)
(0.222657 0.0273438 0.05)
(0.230469 0.0273438 0.05)
(0.238282 0.0273438 0.05)
(0.246094 0.0273438 0.05)
(0.253907 0.0273438 0.05)
(0.261719 0.0273438 0.05)
(0.269532 0.0273438 0.05)
(0.277344 0.0273438 0.05)
(0.285157 0.0273438 0.05)
(0.292969 0.0273438 0.05)
(0.300782 0.0273438 0.05)
(0.308594 0.0273438 0.05)
(0.316407 0.0273438 0.05)
(0.324219 0.0273438 0.05)
(0.332032 0.0273438 0.05)
(0.339844 0.0273438 0.05)
(0.347657 0.0273438 0.05)
(0.355469 0.0273438 0.05)
(0.363282 0.0273438 0.05)
(0.371094 0.0273438 0.05)
(0.378907 0.0273438 0.05)
(0.386719 0.0273438 0.05)
(0.394532 0.0273438 0.05)
(0.00390625 0.0351563 0.05)
(0.0117188 0.0351563 0.05)
(0.0195313 0.0351563 0.05)
(0.0273438 0.0351563 0.05)
(0.0351563 0.0351563 0.05)
(0.0429688 0.0351563 0.05)
(0.0507813 0.0351563 0.05)
(0.0585938 0.0351563 0.05)
(0.0664063 0.0351563 0.05)
(0.0742188 0.0351563 0.05)
(0.0820314 0.0351563 0.05)
(0.0898439 0.0351563 0.05)
(0.0976564 0.0351563 0.05)
(0.105469 0.0351563 0.05)
(0.113281 0.0351563 0.05)
(0.121094 0.0351563 0.05)
(0.128906 0.0351563 0.05)
(0.136719 0.0351563 0.05)
(0.144531 0.0351563 0.05)
(0.152344 0.0351563 0.05)
(0.160156 0.0351563 0.05)
(0.167969 0.0351563 0.05)
(0.175781 0.0351563 0.05)
(0.183594 0.0351563 0.05)
(0.191406 0.0351563 0.05)
(0.199219 0.0351563 0.05)
(0.207032 0.0351563 0.05)
(0.214844 0.0351563 0.05)
(0.222657 0.0351563 0.05)
(0.230469 0.0351563 0.05)
(0.238282 0.0351563 0.05)
(0.246094 0.0351563 0.05)
(0.253907 0.0351563 0.05)
(0.261719 0.0351563 0.05)
(0.269532 0.0351563 0.05)
(0.277344 0.0351563 0.05)
(0.285157 0.0351563 0.05)
(0.292969 0.0351563 0.05)
(0.300782 0.0351563 0.05)
(0.308594 0.0351563 0.05)
(0.316407 0.0351563 0.05)
(0.324219 0.0351563 0.05)
(0.332032 0.0351563 0.05)
(0.339844 0.0351563 0.05)
(0.347657 0.0351563 0.05)
(0.355469 0.0351563 0.05)
(0.363282 0.0351563 0.05)
(0.371094 0.0351563 0.05)
(0.378907 0.0351563 0.05)
(0.386719 0.0351563 0.05)
(0.394532 0.0351563 0.05)
(0.00390625 0.0429688 0.05)
(0.0117188 0.0429688 0.05)
(0.0195313 0.0429688 0.05)
(0.0273438 0.0429688 0.05)
(0.0351563 0.0429688 0.05)
(0.0429688 0.0429688 0.05)
(0.0507813 0.0429688 0.05)
(0.0585938 0.0429688 0.05)
(0.0664063 0.0429688 0.05)
(0.0742188 0.0429688 0.05)
(0.0820314 0.0429688 0.05)
(0.0898439 0.0429688 0.05)
(0.0976564 0.0429688 0.05)
(0.105469 0.0429688 0.05)
(0.113281 0.0429688 0.05)
(0.121094 0.0429688 0.05)
(0.128906 0.0429688 0.05)
(0.136719 0.0429688 0.05)
(0.144531 0.0429688 0.05)
(0.152344 0.0429688 0.05)
(0.160156 0.0429688 0.05)
(0.167969 0.0429688 0.05)
(0.175781 0.0429688 0.05)
(0.183594 0.0429688 0.05)
(0.191406 0.0429688 0.05)
(0.199219 0.0429688 0.05)
(0.207032 0.0429688 0.05)
(0.214844 0.0429688 0.05)
(0.222657 0.0429688 0.05)
(0.230469 0.0429688 0.05)
(0.238282 0.0429688 0.05)
(0.246094 0.0429688 0.05)
(0.253907 0.0429688 0.05)
(0.261719 0.0429688 0.05)
(0.269532 0.0429688 0.05)
(0.277344 0.0429688 0.05)
(0.285157 0.0429688 0.05)
(0.292969 0.0429688 0.05)
(0.300782 0.0429688 0.05)
(0.308594 0.0429688 0.05)
(0.316407 0.0429688 0.05)
(0.324219 0.0429688 0.05)
(0.332032 0.0429688 0.05)
(0.339844 0.0429688 0.05)
(0.347657 0.0429688 0.05)
(0.355469 0.0429688 0.05)
(0.363282 0.0429688 0.05)
(0.371094 0.0429688 0.05)
(0.378907 0.0429688 0.05)
(0.386719 0.0429688 0.05)
(0.394532 0.0429688 0.05)
(0.00390625 0.0507813 0.05)
(0.0117188 0.0507813 0.05)
(0.0195313 0.0507813 0.05)
(0.0273438 0.0507813 0.05)
(0.0351563 0.0507813 0.05)
(0.0429688 0.0507813 0.05)
(0.0507813 0.0507813 0.05)
(0.0585938 0.0507813 0.05)
(0.0664063 0.0507813 0.05)
(0.0742188 0.0507813 0.05)
(0.0820314 0.0507813 0.05)
(0.0898439 0.0507813 0.05)
(0.0976564 0.0507813 0.05)
(0.105469 0.0507813 0.05)
(0.113281 0.0507813 0.05)
(0.121094 0.0507813 0.05)
(0.128906 0.0507813 0.05)
(0.136719 0.0507813 0.05)
(0.144531 0.0507813 0.05)
(0.152344 0.0507813 0.05)
(0.160156 0.0507813 0.05)
(0.167969 0.0507813 0.05)
(0.175781 0.0507813 0.05)
(0.183594 0.0507813 0.05)
(0.191406 0.0507813 0.05)
(0.199219 0.0507813 0.05)
(0.207032 0.0507813 0.05)
(0.214844 0.0507813 0.05)
(0.222657 0.0507813 0.05)
(0.230469 0.0507813 0.05)
(0.238282 0.0507813 0.05)
(0.246094 0.0507813 0.05)
(0.253907 0.0507813 0.05)
(0.261719 0.0507813 0.05)
(0.269532 0.0507813 0.05)
(0.277344 0.0507813 0.05)
(0.285157 0.0507813 0.05)
(0.292969 0.0507813 0.05)
(0.300782 0.0507813 0.05)
(0.308594 0.0507813 0.05)
(0.316407 0.0507813 0.05)
(0.324219 0.0507813 0.05)
(0.332032 0.0507813 0.05)
(0.339844 0.0507813 0.05)
(0.347657 0.0507813 0.05)
(0.355469 0.0507813 0.05)
(0.363282 0.0507813 0.05)
(0.371094 0.0507813 0.05)
(0.378907 0.0507813 0.05)
(0.386719 0.0507813 0.05)
(0.394532 0.0507813 0.05)
(0.00390625 0.0585938 0.05)
(0.0117188 0.0585938 0.05)
(0.0195313 0.0585938 0.05)
(0.0273438 0.0585938 0.05)
(0.0351563 0.0585938 0.05)
(0.0429688 0.0585938 0.05)
(0.0507813 0.0585938 0.05)
(0.0585938 0.0585938 0.05)
(0.0664063 0.0585938 0.05)
(0.0742188 0.0585938 0.05)
(0.0820314 0.0585938 0.05)
(0.0898439 0.0585938 0.05)
(0.0976564 0.0585938 0.05)
(0.105469 0.0585938 0.05)
(0.113281 0.0585938 0.05)
(0.121094 0.0585938 0.05)
(0.128906 0.0585938 0.05)
(0.136719 0.0585938 0.05)
(0.144531 0.0585938 0.05)
(0.152344 0.0585938 0.05)
(0.160156 0.0585938 0.05)
(0.167969 0.0585938 0.05)
(0.175781 0.0585938 0.05)
(0.183594 0.0585938 0.05)
(0.191406 0.0585938 0.05)
(0.199219 0.0585938 0.05)
(0.207032 0.0585938 0.05)
(0.214844 0.0585938 0.05)
(0.222657 0.0585938 0.05)
(0.230469 0.0585938 0.05)
(0.238282 0.0585938 0.05)
(0.246094 0.0585938 0.05)
(0.253907 0.0585938 0.05)
(0.261719 0.0585938 0.05)
(0.269532 0.0585938 0.05)
(0.277344 0.0585938 0.05)
(0.285157 0.0585938 0.05)
(0.292969 0.0585938 0.05)
(0.300782 0.0585938 0.05)
(0.308594 0.0585938 0.05)
(0.316407 0.0585938 0.05)
(0.324219 0.0585938 0.05)
(0.332032 0.0585938 0.05)
(0.339844 0.0585938 0.05)
(0.347657 0.0585938 0.05)
(0.355469 0.0585938 0.05)
(0.363282 0.0585938 0.05)
(0.371094 0.0585938 0.05)
(0.378907 0.0585938 0.05)
(0.386719 0.0585938 0.05)
(0.394532 0.0585938 0.05)
(0.00390625 0.0664063 0.05)
(0.0117188 0.0664063 0.05)
(0.0195313 0.0664063 0.05)
(0.0273438 0.0664063 0.05)
(0.0351563 0.0664063 0.05)
(0.0429688 0.0664063 0.05)
(0.0507813 0.0664063 0.05)
(0.0585938 0.0664063 0.05)
(0.0664063 0.0664063 0.05)
(0.0742188 0.0664063 0.05)
(0.0820314 0.0664063 0.05)
(0.0898439 0.0664063 0.05)
(0.0976564 0.0664063 0.05)
(0.105469 0.0664063 0.05)
(0.113281 0.0664063 0.05)
(0.121094 0.0664063 0.05)
(0.128906 0.0664063 0.05)
(0.136719 0.0664063 0.05)
(0.144531 0.0664063 0.05)
(0.152344 0.0664063 0.05)
(0.160156 0.0664063 0.05)
(0.167969 0.0664063 0.05)
(0.175781 0.0664063 0.05)
(0.183594 0.0664063 0.05)
(0.191406 0.0664063 0.05)
(0.199219 0.0664063 0.05)
(0.207032 0.0664063 0.05)
(0.214844 0.0664063 0.05)
(0.222657 0.0664063 0.05)
(0.230469 0.0664063 0.05)
(0.238282 0.0664063 0.05)
(0.246094 0.0664063 0.05)
(0.253907 0.0664063 0.05)
(0.261719 0.0664063 0.05)
(0.269532 0.0664063 0.05)
(0.277344 0.0664063 0.05)
(0.285157 0.0664063 0.05)
(0.292969 0.0664063 0.05)
(0.300782 0.0664063 0.05)
(0.308594 0.0664063 0.05)
(0.316407 0.0664063 0.05)
(0.324219 0.0664063 0.05)
(0.332032 0.0664063 0.05)
(0.339844 0.0664063 0.05)
(0.347657 0.0664063 0.05)
(0.355469 0.0664063 0.05)
(0.363282 0.0664063 0.05)
(0.371094 0.0664063 0.05)
(0.378907 0.0664063 0.05)
(0.386719 0.0664063 0.05)
(0.394532 0.0664063 0.05)
(0.00390625 0.0742188 0.05)
(0.0117188 0.0742188 0.05)
(0.0195313 0.0742188 0.05)
(0.0273438 0.0742188 0.05)
(0.0351563 0.0742188 0.05)
(0.0429688 0.0742188 0.05)
(0.0507813 0.0742188 0.05)
(0.0585938 0.0742188 0.05)
(0.0664063 0.0742188 0.05)
(0.0742188 0.0742188 0.05)
(0.0820314 0.0742188 0.05)
(0.0898439 0.0742188 0.05)
(0.0976564 0.0742188 0.05)
(0.105469 0.0742188 0.05)
(0.113281 0.0742188 0.05)
(0.121094 0.0742188 0.05)
(0.128906 0.0742188 0.05)
(0.136719 0.0742188 0.05)
(0.144531 0.0742188 0.05)
(0.152344 0.0742188 0.05)
(0.160156 0.0742188 0.05)
(0.167969 0.0742188 0.05)
(0.175781 0.0742188 0.05)
(0.183594 0.0742188 0.05)
(0.191406 0.0742188 0.05)
(0.199219 0.0742188 0.05)
(0.207032 0.0742188 0.05)
(0.214844 0.0742188 0.05)
(0.222657 0.0742188 0.05)
(0.230469 0.0742188 0.05)
(0.238282 0.0742188 0.05)
(0.246094 0.0742188 0.05)
(0.253907 0.0742188 0.05)
(0.261719 0.0742188 0.05)
(0.269532 0.0742188 0.05)
(0.277344 0.0742188 0.05)
(0.285157 0.0742188 0.05)
(0.292969 0.0742188 0.05)
(0.300782 0.0742188 0.05)
(0.308594 0.0742188 0.05)
(0.316407 0.0742188 0.05)
(0.324219 0.0742188 0.05)
(0.332032 0.0742188 0.05)
(0.339844 0.0742188 0.05)
(0.347657 0.0742188 0.05)
(0.355469 0.0742188 0.05)
(0.363282 0.0742188 0.05)
(0.371094 0.0742188 0.05)
(0.378907 0.0742188 0.05)
(0.386719 0.0742188 0.05)
(0.394532 0.0742188 0.05)
(0.00390625 0.0820314 0.05)
(0.0117188 0.0820314 0.05)
(0.0195313 0.0820314 0.05)
(0.0273438 0.0820314 0.05)
(0.0351563 0.0820314 0.05)
(0.0429688 0.0820314 0.05)
(0.0507813 0.0820314 0.05)
(0.0585938 0.0820314 0.05)
(0.0664063 0.0820314 0.05)
(0.0742188 0.0820314 0.05)
(0.0820314 0.0820314 0.05)
(0.0898439 0.0820314 0.05)
(0.0976564 0.0820314 0.05)
(0.105469 0.0820314 0.05)
(0.113281 0.0820314 0.05)
(0.121094 0.0820314 0.05)
(0.128906 0.0820314 0.05)
(0.136719 0.0820314 0.05)
(0.144531 0.0820314 0.05)
(0.152344 0.0820314 0.05)
(0.160156 0.0820314 0.05)
(0.167969 0.0820314 0.05)
(0.175781 0.0820314 0.05)
(0.183594 0.0820314 0.05)
(0.191406 0.0820314 0.05)
(0.199219 0.0820314 0.05)
(0.207032 0.0820314 0.05)
(0.214844 0.0820314 0.05)
(0.222657 0.0820314 0.05)
(0.230469 0.0820314 0.05)
(0.238282 0.0820314 0.05)
(0.246094 0.0820314 0.05)
(0.253907 0.0820314 0.05)
(0.261719 0.0820314 0.05)
(0.269532 0.0820314 0.05)
(0.277344 0.0820314 0.05)
(0.285157 0.0820314 0.05)
(0.292969 0.0820314 0.05)
(0.300782 0.0820314 0.05)
(0.308594 0.0820314 0.05)
(0.316407 0.0820314 0.05)
(0.324219 0.0820314 0.05)
(0.332032 0.0820314 0.05)
(0.339844 0.0820314 0.05)
(0.347657 0.0820314 0.05)
(0.355469 0.0820314 0.05)
(0.363282 0.0820314 0.05)
(0.371094 0.0820314 0.05)
(0.378907 0.0820314 0.05)
(0.386719 0.0820314 0.05)
(0.394532 0.0820314 0.05)
(0.00390625 0.0898439 0.05)
(0.0117188 0.0898439 0.05)
(0.0195313 0.0898439 0.05)
(0.0273438 0.0898439 0.05)
(0.0351563 0.0898439 0.05)
(0.0429688 0.0898439 0.05)
(0.0507813 0.0898439 0.05)
(0.0585938 0.0898439 0.05)
(0.0664063 0.0898439 0.05)
(0.0742188 0.0898439 0.05)
(0.0820314 0.0898439 0.05)
(0.0898439 0.0898439 0.05)
(0.0976564 0.0898439 0.05)
(0.105469 0.0898439 0.05)
(0.113281 0.0898439 0.05)
(0.121094 0.0898439 0.05)
(0.128906 0.0898439 0.05)
(0.136719 0.0898439 0.05)
(0.144531 0.0898439 0.05)
(0.152344 0.0898439 0.05)
(0.160156 0.0898439 0.05)
(0.167969 0.0898439 0.05)
(0.175781 0.0898439 0.05)
(0.183594 0.0898439 0.05)
(0.191406 0.0898439 0.05)
(0.199219 0.0898439 0.05)
(0.207032 0.0898439 0.05)
(0.214844 0.0898439 0.05)
(0.222657 0.0898439 0.05)
(0.230469 0.0898439 0.05)
(0.238282 0.0898439 0.05)
(0.246094 0.0898439 0.05)
(0.253907 0.0898439 0.05)
(0.261719 0.0898439 0.05)
(0.269532 0.0898439 0.05)
(0.277344 0.0898439 0.05)
(0.285157 0.0898439 0.05)
(0.292969 0.0898439 0.05)
(0.300782 0.0898439 0.05)
(0.308594 0.0898439 0.05)
(0.316407 0.0898439 0.05)
(0.324219 0.0898439 0.05)
(0.332032 0.0898439 0.05)
(0.339844 0.0898439 0.05)
(0.347657 0.0898439 0.05)
(0.355469 0.0898439 0.05)
(0.363282 0.0898439 0.05)
(0.371094 0.0898439 0.05)
(0.378907 0.0898439 0.05)
(0.386719 0.0898439 0.05)
(0.394532 0.0898439 0.05)
(0.00390625 0.0976564 0.05)
(0.0117188 0.0976564 0.05)
(0.0195313 0.0976564 0.05)
(0.0273438 0.0976564 0.05)
(0.0351563 0.0976564 0.05)
(0.0429688 0.0976564 0.05)
(0.0507813 0.0976564 0.05)
(0.0585938 0.0976564 0.05)
(0.0664063 0.0976564 0.05)
(0.0742188 0.0976564 0.05)
(0.0820314 0.0976564 0.05)
(0.0898439 0.0976564 0.05)
(0.0976564 0.0976564 0.05)
(0.105469 0.0976564 0.05)
(0.113281 0.0976564 0.05)
(0.121094 0.0976564 0.05)
(0.128906 0.0976564 0.05)
(0.136719 0.0976564 0.05)
(0.144531 0.0976564 0.05)
(0.152344 0.0976564 0.05)
(0.160156 0.0976564 0.05)
(0.167969 0.0976564 0.05)
(0.175781 0.0976564 0.05)
(0.183594 0.0976564 0.05)
(0.191406 0.0976564 0.05)
(0.199219 0.0976564 0.05)
(0.207032 0.0976564 0.05)
(0.214844 0.0976564 0.05)
(0.222657 0.0976564 0.05)
(0.230469 0.0976564 0.05)
(0.238282 0.0976564 0.05)
(0.246094 0.0976564 0.05)
(0.253907 0.0976564 0.05)
(0.261719 0.0976564 0.05)
(0.269532 0.0976564 0.05)
(0.277344 0.0976564 0.05)
(0.285157 0.0976564 0.05)
(0.292969 0.0976564 0.05)
(0.300782 0.0976564 0.05)
(0.308594 0.0976564 0.05)
(0.316407 0.0976564 0.05)
(0.324219 0.0976564 0.05)
(0.332032 0.0976564 0.05)
(0.339844 0.0976564 0.05)
(0.347657 0.0976564 0.05)
(0.355469 0.0976564 0.05)
(0.363282 0.0976564 0.05)
(0.371094 0.0976564 0.05)
(0.378907 0.0976564 0.05)
(0.386719 0.0976564 0.05)
(0.394532 0.0976564 0.05)
(0.00390625 0.105469 0.05)
(0.0117188 0.105469 0.05)
(0.0195313 0.105469 0.05)
(0.0273438 0.105469 0.05)
(0.0351563 0.105469 0.05)
(0.0429688 0.105469 0.05)
(0.0507813 0.105469 0.05)
(0.0585938 0.105469 0.05)
(0.0664063 0.105469 0.05)
(0.0742188 0.105469 0.05)
(0.0820314 0.105469 0.05)
(0.0898439 0.105469 0.05)
(0.0976564 0.105469 0.05)
(0.105469 0.105469 0.05)
(0.113281 0.105469 0.05)
(0.121094 0.105469 0.05)
(0.128906 0.105469 0.05)
(0.136719 0.105469 0.05)
(0.144531 0.105469 0.05)
(0.152344 0.105469 0.05)
(0.160156 0.105469 0.05)
(0.167969 0.105469 0.05)
(0.175781 0.105469 0.05)
(0.183594 0.105469 0.05)
(0.191406 0.105469 0.05)
(0.199219 0.105469 0.05)
(0.207032 0.105469 0.05)
(0.214844 0.105469 0.05)
(0.222657 0.105469 0.05)
(0.230469 0.105469 0.05)
(0.238282 0.105469 0.05)
(0.246094 0.105469 0.05)
(0.253907 0.105469 0.05)
(0.261719 0.105469 0.05)
(0.269532 0.105469 0.05)
(0.277344 0.105469 0.05)
(0.285157 0.105469 0.05)
(0.292969 0.105469 0.05)
(0.300782 0.105469 0.05)
(0.308594 0.105469 0.05)
(0.316407 0.105469 0.05)
(0.324219 0.105469 0.05)
(0.332032 0.105469 0.05)
(0.339844 0.105469 0.05)
(0.347657 0.105469 0.05)
(0.355469 0.105469 0.05)
(0.363282 0.105469 0.05)
(0.371094 0.105469 0.05)
(0.378907 0.105469 0.05)
(0.386719 0.105469 0.05)
(0.394532 0.105469 0.05)
(0.00390625 0.113281 0.05)
(0.0117188 0.113281 0.05)
(0.0195313 0.113281 0.05)
(0.0273438 0.113281 0.05)
(0.0351563 0.113281 0.05)
(0.0429688 0.113281 0.05)
(0.0507813 0.113281 0.05)
(0.0585938 0.113281 0.05)
(0.0664063 0.113281 0.05)
(0.0742188 0.113281 0.05)
(0.0820314 0.113281 0.05)
(0.0898439 0.113281 0.05)
(0.0976564 0.113281 0.05)
(0.105469 0.113281 0.05)
(0.113281 0.113281 0.05)
(0.121094 0.113281 0.05)
(0.128906 0.113281 0.05)
(0.136719 0.113281 0.05)
(0.144531 0.113281 0.05)
(0.152344 0.113281 0.05)
(0.160156 0.113281 0.05)
(0.167969 0.113281 0.05)
(0.175781 0.113281 0.05)
(0.183594 0.113281 0.05)
(0.191406 0.113281 0.05)
(0.199219 0.113281 0.05)
(0.207032 0.113281 0.05)
(0.214844 0.113281 0.05)
(0.222657 0.113281 0.05)
(0.230469 0.113281 0.05)
(0.238282 0.113281 0.05)
(0.246094 0.113281 0.05)
(0.253907 0.113281 0.05)
(0.261719 0.113281 0.05)
(0.269532 0.113281 0.05)
(0.277344 0.113281 0.05)
(0.285157 0.113281 0.05)
(0.292969 0.113281 0.05)
(0.300782 0.113281 0.05)
(0.308594 0.113281 0.05)
(0.316407 0.113281 0.05)
(0.324219 0.113281 0.05)
(0.332032 0.113281 0.05)
(0.339844 0.113281 0.05)
(0.347657 0.113281 0.05)
(0.355469 0.113281 0.05)
(0.363282 0.113281 0.05)
(0.371094 0.113281 0.05)
(0.378907 0.113281 0.05)
(0.386719 0.113281 0.05)
(0.394532 0.113281 0.05)
(0.00390625 0.121094 0.05)
(0.0117188 0.121094 0.05)
(0.0195313 0.121094 0.05)
(0.0273438 0.121094 0.05)
(0.0351563 0.121094 0.05)
(0.0429688 0.121094 0.05)
(0.0507813 0.121094 0.05)
(0.0585938 0.121094 0.05)
(0.0664063 0.121094 0.05)
(0.0742188 0.121094 0.05)
(0.0820314 0.121094 0.05)
(0.0898439 0.121094 0.05)
(0.0976564 0.121094 0.05)
(0.105469 0.121094 0.05)
(0.113281 0.121094 0.05)
(0.121094 0.121094 0.05)
(0.128906 0.121094 0.05)
(0.136719 0.121094 0.05)
(0.144531 0.121094 0.05)
(0.152344 0.121094 0.05)
(0.160156 0.121094 0.05)
(0.167969 0.121094 0.05)
(0.175781 0.121094 0.05)
(0.183594 0.121094 0.05)
(0.191406 0.121094 0.05)
(0.199219 0.121094 0.05)
(0.207032 0.121094 0.05)
(0.214844 0.121094 0.05)
(0.222657 0.121094 0.05)
(0.230469 0.121094 0.05)
(0.238282 0.121094 0.05)
(0.246094 0.121094 0.05)
(0.253907 0.121094 0.05)
(0.261719 0.121094 0.05)
(0.269532 0.121094 0.05)
(0.277344 0.121094 0.05)
(0.285157 0.121094 0.05)
(0.292969 0.121094 0.05)
(0.300782 0.121094 0.05)
(0.308594 0.121094 0.05)
(0.316407 0.121094 0.05)
(0.324219 0.121094 0.05)
(0.332032 0.121094 0.05)
(0.339844 0.121094 0.05)
(0.347657 0.121094 0.05)
(0.355469 0.121094 0.05)
(0.363282 0.121094 0.05)
(0.371094 0.121094 0.05)
(0.378907 0.121094 0.05)
(0.386719 0.121094 0.05)
(0.394532 0.121094 0.05)
(0.00390625 0.128906 0.05)
(0.0117188 0.128906 0.05)
(0.0195313 0.128906 0.05)
(0.0273438 0.128906 0.05)
(0.0351563 0.128906 0.05)
(0.0429688 0.128906 0.05)
(0.0507813 0.128906 0.05)
(0.0585938 0.128906 0.05)
(0.0664063 0.128906 0.05)
(0.0742188 0.128906 0.05)
(0.0820314 0.128906 0.05)
(0.0898439 0.128906 0.05)
(0.0976564 0.128906 0.05)
(0.105469 0.128906 0.05)
(0.113281 0.128906 0.05)
(0.121094 0.128906 0.05)
(0.128906 0.128906 0.05)
(0.136719 0.128906 0.05)
(0.144531 0.128906 0.05)
(0.152344 0.128906 0.05)
(0.160156 0.128906 0.05)
(0.167969 0.128906 0.05)
(0.175781 0.128906 0.05)
(0.183594 0.128906 0.05)
(0.191406 0.128906 0.05)
(0.199219 0.128906 0.05)
(0.207032 0.128906 0.05)
(0.214844 0.128906 0.05)
(0.222657 0.128906 0.05)
(0.230469 0.128906 0.05)
(0.238282 0.128906 0.05)
(0.246094 0.128906 0.05)
(0.253907 0.128906 0.05)
(0.261719 0.128906 0.05)
(0.269532 0.128906 0.05)
(0.277344 0.128906 0.05)
(0.285157 0.128906 0.05)
(0.292969 0.128906 0.05)
(0.300782 0.128906 0.05)
(0.308594 0.128906 0.05)
(0.316407 0.128906 0.05)
(0.324219 0.128906 0.05)
(0.332032 0.128906 0.05)
(0.339844 0.128906 0.05)
(0.347657 0.128906 0.05)
(0.355469 0.128906 0.05)
(0.363282 0.128906 0.05)
(0.371094 0.128906 0.05)
(0.378907 0.128906 0.05)
(0.386719 0.128906 0.05)
(0.394532 0.128906 0.05)
(0.00390625 0.136719 0.05)
(0.0117188 0.136719 0.05)
(0.0195313 0.136719 0.05)
(0.0273438 0.136719 0.05)
(0.0351563 0.136719 0.05)
(0.0429688 0.136719 0.05)
(0.0507813 0.136719 0.05)
(0.0585938 0.136719 0.05)
(0.0664063 0.136719 0.05)
(0.0742188 0.136719 0.05)
(0.0820314 0.136719 0.05)
(0.0898439 0.136719 0.05)
(0.0976564 0.136719 0.05)
(0.105469 0.136719 0.05)
(0.113281 0.136719 0.05)
(0.121094 0.136719 0.05)
(0.128906 0.136719 0.05)
(0.136719 0.136719 0.05)
(0.144531 0.136719 0.05)
(0.152344 0.136719 0.05)
(0.160156 0.136719 0.05)
(0.167969 0.136719 0.05)
(0.175781 0.136719 0.05)
(0.183594 0.136719 0.05)
(0.191406 0.136719 0.05)
(0.199219 0.136719 0.05)
(0.207032 0.136719 0.05)
(0.214844 0.136719 0.05)
(0.222657 0.136719 0.05)
(0.230469 0.136719 0.05)
(0.238282 0.136719 0.05)
(0.246094 0.136719 0.05)
(0.253907 0.136719 0.05)
(0.261719 0.136719 0.05)
(0.269532 0.136719 0.05)
(0.277344 0.136719 0.05)
(0.285157 0.136719 0.05)
(0.292969 0.136719 0.05)
(0.300782 0.136719 0.05)
(0.308594 0.136719 0.05)
(0.316407 0.136719 0.05)
(0.324219 0.136719 0.05)
(0.332032 0.136719 0.05)
(0.339844 0.136719 0.05)
(0.347657 0.136719 0.05)
(0.355469 0.136719 0.05)
(0.363282 0.136719 0.05)
(0.371094 0.136719 0.05)
(0.378907 0.136719 0.05)
(0.386719 0.136719 0.05)
(0.394532 0.136719 0.05)
(0.00390625 0.144531 0.05)
(0.0117188 0.144531 0.05)
(0.0195313 0.144531 0.05)
(0.0273438 0.144531 0.05)
(0.0351563 0.144531 0.05)
(0.0429688 0.144531 0.05)
(0.0507813 0.144531 0.05)
(0.0585938 0.144531 0.05)
(0.0664063 0.144531 0.05)
(0.0742188 0.144531 0.05)
(0.0820314 0.144531 0.05)
(0.0898439 0.144531 0.05)
(0.0976564 0.144531 0.05)
(0.105469 0.144531 0.05)
(0.113281 0.144531 0.05)
(0.121094 0.144531 0.05)
(0.128906 0.144531 0.05)
(0.136719 0.144531 0.05)
(0.144531 0.144531 0.05)
(0.152344 0.144531 0.05)
(0.160156 0.144531 0.05)
(0.167969 0.144531 0.05)
(0.175781 0.144531 0.05)
(0.183594 0.144531 0.05)
(0.191406 0.144531 0.05)
(0.199219 0.144531 0.05)
(0.207032 0.144531 0.05)
(0.214844 0.144531 0.05)
(0.222657 0.144531 0.05)
(0.230469 0.144531 0.05)
(0.238282 0.144531 0.05)
(0.246094 0.144531 0.05)
(0.253907 0.144531 0.05)
(0.261719 0.144531 0.05)
(0.269532 0.144531 0.05)
(0.277344 0.144531 0.05)
(0.285157 0.144531 0.05)
(0.292969 0.144531 0.05)
(0.300782 0.144531 0.05)
(0.308594 0.144531 0.05)
(0.316407 0.144531 0.05)
(0.324219 0.144531 0.05)
(0.332032 0.144531 0.05)
(0.339844 0.144531 0.05)
(0.347657 0.144531 0.05)
(0.355469 0.144531 0.05)
(0.363282 0.144531 0.05)
(0.371094 0.144531 0.05)
(0.378907 0.144531 0.05)
(0.386719 0.144531 0.05)
(0.394532 0.144531 0.05)
(0.00390625 0.152344 0.05)
(0.0117188 0.152344 0.05)
(0.0195313 0.152344 0.05)
(0.0273438 0.152344 0.05)
(0.0351563 0.152344 0.05)
(0.0429688 0.152344 0.05)
(0.0507813 0.152344 0.05)
(0.0585938 0.152344 0.05)
(0.0664063 0.152344 0.05)
(0.0742188 0.152344 0.05)
(0.0820314 0.152344 0.05)
(0.0898439 0.152344 0.05)
(0.0976564 0.152344 0.05)
(0.105469 0.152344 0.05)
(0.113281 0.152344 0.05)
(0.121094 0.152344 0.05)
(0.128906 0.152344 0.05)
(0.136719 0.152344 0.05)
(0.144531 0.152344 0.05)
(0.152344 0.152344 0.05)
(0.160156 0.152344 0.05)
(0.167969 0.152344 0.05)
(0.175781 0.152344 0.05)
(0.183594 0.152344 0.05)
(0.191406 0.152344 0.05)
(0.199219 0.152344 0.05)
(0.207032 0.152344 0.05)
(0.214844 0.152344 0.05)
(0.222657 0.152344 0.05)
(0.230469 0.152344 0.05)
(0.238282 0.152344 0.05)
(0.246094 0.152344 0.05)
(0.253907 0.152344 0.05)
(0.261719 0.152344 0.05)
(0.269532 0.152344 0.05)
(0.277344 0.152344 0.05)
(0.285157 0.152344 0.05)
(0.292969 0.152344 0.05)
(0.300782 0.152344 0.05)
(0.308594 0.152344 0.05)
(0.316407 0.152344 0.05)
(0.324219 0.152344 0.05)
(0.332032 0.152344 0.05)
(0.339844 0.152344 0.05)
(0.347657 0.152344 0.05)
(0.355469 0.152344 0.05)
(0.363282 0.152344 0.05)
(0.371094 0.152344 0.05)
(0.378907 0.152344 0.05)
(0.386719 0.152344 0.05)
(0.394532 0.152344 0.05)
(0.00390625 0.160156 0.05)
(0.0117188 0.160156 0.05)
(0.0195313 0.160156 0.05)
(0.0273438 0.160156 0.05)
(0.0351563 0.160156 0.05)
(0.0429688 0.160156 0.05)
(0.0507813 0.160156 0.05)
(0.0585938 0.160156 0.05)
(0.0664063 0.160156 0.05)
(0.0742188 0.160156 0.05)
(0.0820314 0.160156 0.05)
(0.0898439 0.160156 0.05)
(0.0976564 0.160156 0.05)
(0.105469 0.160156 0.05)
(0.113281 0.160156 0.05)
(0.121094 0.160156 0.05)
(0.128906 0.160156 0.05)
(0.136719 0.160156 0.05)
(0.144531 0.160156 0.05)
(0.152344 0.160156 0.05)
(0.160156 0.160156 0.05)
(0.167969 0.160156 0.05)
(0.175781 0.160156 0.05)
(0.183594 0.160156 0.05)
(0.191406 0.160156 0.05)
(0.199219 0.160156 0.05)
(0.207032 0.160156 0.05)
(0.214844 0.160156 0.05)
(0.222657 0.160156 0.05)
(0.230469 0.160156 0.05)
(0.238282 0.160156 0.05)
(0.246094 0.160156 0.05)
(0.253907 0.160156 0.05)
(0.261719 0.160156 0.05)
(0.269532 0.160156 0.05)
(0.277344 0.160156 0.05)
(0.285157 0.160156 0.05)
(0.292969 0.160156 0.05)
(0.300782 0.160156 0.05)
(0.308594 0.160156 0.05)
(0.316407 0.160156 0.05)
(0.324219 0.160156 0.05)
(0.332032 0.160156 0.05)
(0.339844 0.160156 0.05)
(0.347657 0.160156 0.05)
(0.355469 0.160156 0.05)
(0.363282 0.160156 0.05)
(0.371094 0.160156 0.05)
(0.378907 0.160156 0.05)
(0.386719 0.160156 0.05)
(0.394532 0.160156 0.05)
(0.00390625 0.167969 0.05)
(0.0117188 0.167969 0.05)
(0.0195313 0.167969 0.05)
(0.0273438 0.167969 0.05)
(0.0351563 0.167969 0.05)
(0.0429688 0.167969 0.05)
(0.0507813 0.167969 0.05)
(0.0585938 0.167969 0.05)
(0.0664063 0.167969 0.05)
(0.0742188 0.167969 0.05)
(0.0820314 0.167969 0.05)
(0.0898439 0.167969 0.05)
(0.0976564 0.167969 0.05)
(0.105469 0.167969 0.05)
(0.113281 0.167969 0.05)
(0.121094 0.167969 0.05)
(0.128906 0.167969 0.05)
(0.136719 0.167969 0.05)
(0.144531 0.167969 0.05)
(0.152344 0.167969 0.05)
(0.160156 0.167969 0.05)
(0.167969 0.167969 0.05)
(0.175781 0.167969 0.05)
(0.183594 0.167969 0.05)
(0.191406 0.167969 0.05)
(0.199219 0.167969 0.05)
(0.207032 0.167969 0.05)
(0.214844 0.167969 0.05)
(0.222657 0.167969 0.05)
(0.230469 0.167969 0.05)
(0.238282 0.167969 0.05)
(0.246094 0.167969 0.05)
(0.253907 0.167969 0.05)
(0.261719 0.167969 0.05)
(0.269532 0.167969 0.05)
(0.277344 0.167969 0.05)
(0.285157 0.167969 0.05)
(0.292969 0.167969 0.05)
(0.300782 0.167969 0.05)
(0.308594 0.167969 0.05)
(0.316407 0.167969 0.05)
(0.324219 0.167969 0.05)
(0.332032 0.167969 0.05)
(0.339844 0.167969 0.05)
(0.347657 0.167969 0.05)
(0.355469 0.167969 0.05)
(0.363282 0.167969 0.05)
(0.371094 0.167969 0.05)
(0.378907 0.167969 0.05)
(0.386719 0.167969 0.05)
(0.394532 0.167969 0.05)
(0.00390625 0.175781 0.05)
(0.0117188 0.175781 0.05)
(0.0195313 0.175781 0.05)
(0.0273438 0.175781 0.05)
(0.0351563 0.175781 0.05)
(0.0429688 0.175781 0.05)
(0.0507813 0.175781 0.05)
(0.0585938 0.175781 0.05)
(0.0664063 0.175781 0.05)
(0.0742188 0.175781 0.05)