/*--------------------------------*- C++ -*----------------------------------*\
  =========                 |
  \\      /  F ield         | OpenFOAM: The Open Source CFD Toolbox
   \\    /   O peration     | Website:  https://openfoam.org
    \\  /    A nd           | Version:  10
     \\/     M anipulation  |
\*---------------------------------------------------------------------------*/
FoamFile
{
    format      ascii;
    class       volScalarField;
    location    "0.750416";
    object      rho;
}
// * * * * * * * * * * * * * * * * * * * * * * * * * * * * * * * * * * * * * //

dimensions      [1 -3 0 0 0 0 0];

internalField   nonuniform List<scalar> 
16320
(
0.415686
0.393194
0.364438
0.329753
0.288744
0.253803
0.232369
0.225247
0.226179
0.236117
0.274761
0.430296
0.54897
0.545703
0.480913
0.348447
0.242405
0.198622
0.190099
0.187082
0.185989
0.185438
0.185182
0.185459
0.186128
0.187446
0.189669
0.193023
0.197577
0.203577
0.211618
0.221994
0.235085
0.254469
0.279071
0.313284
0.36333
0.433987
0.543235
0.69613
0.903568
1.09807
1.25174
1.38565
1.47397
1.53903
1.5516
1.53142
1.46776
1.41334
1.31215
1.18368
0.931376
0.721571
0.552807
0.395688
0.276352
0.215475
0.199201
0.202283
0.225903
0.267547
0.288764
0.291421
0.265558
0.24711
0.258599
0.309406
0.381285
0.466709
0.560339
0.63092
0.653701
0.649436
0.619682
0.534137
0.369265
0.214194
0.16918
0.169967
0.210555
0.333403
0.477689
0.62757
0.739267
0.788524
0.818524
0.820805
0.80598
0.801487
0.821693
0.84516
0.855407
0.83065
0.813927
0.826474
0.833141
0.79502
0.633485
0.577552
0.612143
0.665508
0.63102
0.473159
0.323103
0.301634
0.369595
0.62732
0.768008
0.816313
0.818881
0.761977
0.629755
0.450882
0.43243
0.406061
0.367927
0.316772
0.270648
0.238132
0.227612
0.224638
0.226878
0.240214
0.307012
0.493093
0.546764
0.508726
0.39679
0.279531
0.21202
0.191937
0.186902
0.18481
0.183542
0.182645
0.18222
0.182282
0.182817
0.184075
0.186046
0.188754
0.19231
0.197141
0.203589
0.211758
0.223862
0.23903
0.260428
0.291197
0.332638
0.396901
0.492046
0.634724
0.821713
1.01562
1.19988
1.34649
1.44341
1.50478
1.48148
1.4501
1.38773
1.33288
1.19536
1.00253
0.772158
0.576935
0.395545
0.269345
0.213535
0.202811
0.209316
0.241776
0.279414
0.292911
0.288969
0.254476
0.246937
0.267306
0.318309
0.376627
0.458108
0.554413
0.625836
0.64762
0.642796
0.613179
0.531408
0.371862
0.216514
0.169296
0.166373
0.19348
0.281545
0.403041
0.550931
0.680868
0.752787
0.789585
0.798603
0.791893
0.767784
0.777181
0.804882
0.826365
0.831345
0.806491
0.808013
0.81572
0.810402
0.726117
0.626735
0.634151
0.685918
0.691509
0.59738
0.375536
0.297715
0.323981
0.561702
0.723259
0.775602
0.781882
0.738653
0.612995
0.467054
0.450021
0.426462
0.390357
0.342501
0.293948
0.254237
0.238917
0.231129
0.229106
0.236334
0.275873
0.418451
0.535468
0.513784
0.426752
0.308924
0.228619
0.195853
0.187357
0.184369
0.182779
0.181608
0.18094
0.180762
0.180947
0.181599
0.182672
0.184151
0.18645
0.189789
0.19428
0.200251
0.208687
0.219728
0.235106
0.256338
0.284992
0.328478
0.391832
0.483693
0.609945
0.762197
0.939932
1.1223
1.27974
1.3706
1.4243
1.38553
1.37569
1.29117
1.21472
0.99549
0.819511
0.566816
0.371702
0.251998
0.210473
0.206464
0.219525
0.259559
0.289158
0.296185
0.281391
0.246109
0.248724
0.279922
0.318611
0.366454
0.448425
0.546814
0.615285
0.634171
0.625968
0.59158
0.508778
0.36179
0.216434
0.16786
0.1615
0.175995
0.2327
0.330095
0.467962
0.610409
0.703
0.753043
0.767329
0.764743
0.742041
0.73628
0.755006
0.792274
0.807196
0.805427
0.793674
0.799668
0.803672
0.78148
0.690133
0.672401
0.703761
0.721521
0.670608
0.479717
0.303928
0.296941
0.499698
0.691347
0.742705
0.747015
0.701551
0.590724
0.476141
0.459157
0.436721
0.402863
0.357162
0.307903
0.270153
0.256497
0.246108
0.238311
0.240929
0.280518
0.411714
0.513041
0.513239
0.434455
0.326365
0.23618
0.197298
0.187481
0.184157
0.182402
0.181022
0.180117
0.179582
0.17928
0.179331
0.179675
0.180275
0.181447
0.183378
0.186291
0.190408
0.196311
0.204326
0.215677
0.231182
0.252651
0.284327
0.329179
0.392195
0.478979
0.591084
0.729696
0.89263
1.06429
1.20057
1.28647
1.32225
1.27482
1.26805
1.13591
1.04187
0.748284
0.555362
0.329
0.233013
0.20858
0.21143
0.235929
0.276816
0.296207
0.297532
0.266728
0.242182
0.251679
0.288184
0.314364
0.358948
0.441831
0.53806
0.599472
0.614462
0.600787
0.554887
0.462685
0.329753
0.208995
0.166295
0.15718
0.161841
0.189134
0.261964
0.384145
0.530293
0.641656
0.711604
0.731822
0.729355
0.709419
0.692138
0.701827
0.74012
0.777217
0.788417
0.784126
0.785324
0.792887
0.791944
0.750618
0.734127
0.750186
0.759293
0.712369
0.562443
0.332847
0.291629
0.436665
0.66759
0.720776
0.719945
0.658464
0.559009
0.483332
0.465354
0.443788
0.412262
0.370527
0.319711
0.289498
0.277797
0.267446
0.257601
0.255038
0.297044
0.423356
0.496541
0.500151
0.434503
0.327152
0.236013
0.197543
0.18781
0.184302
0.182297
0.18069
0.179345
0.178339
0.177567
0.176922
0.176419
0.176121
0.176237
0.176844
0.178143
0.180341
0.183758
0.188939
0.19662
0.207491
0.223113
0.24582
0.277667
0.321839
0.382744
0.464624
0.572133
0.705759
0.86271
1.00091
1.11372
1.13934
1.15886
1.09885
1.10192
0.866421
0.758994
0.429547
0.270822
0.216431
0.209881
0.220618
0.257658
0.291105
0.301169
0.293413
0.25177
0.240623
0.257356
0.291806
0.313916
0.354633
0.425647
0.51091
0.572078
0.591558
0.576005
0.525905
0.433653
0.307412
0.205863
0.166316
0.156094
0.155245
0.162762
0.202106
0.308443
0.448982
0.575334
0.663384
0.693898
0.69349
0.67675
0.650293
0.653874
0.680524
0.740558
0.766302
0.774931
0.773933
0.780145
0.787159
0.777606
0.777874
0.790959
0.792169
0.739807
0.603524
0.384449
0.290127
0.39005
0.649342
0.707325
0.6987
0.615081
0.524258
0.487564
0.467364
0.447106
0.421324
0.382794
0.336221
0.315091
0.305824
0.294963
0.289402
0.291992
0.34468
0.447255
0.486946
0.484052
0.426424
0.321525
0.231872
0.198451
0.189065
0.185034
0.182118
0.180052
0.17834
0.176984
0.175824
0.174729
0.173722
0.172814
0.172072
0.171618
0.171571
0.172083
0.173467
0.176044
0.180327
0.186999
0.19713
0.212079
0.233183
0.262735
0.30468
0.362877
0.442049
0.545097
0.668787
0.787709
0.885232
0.934061
0.918809
0.943261
0.79784
0.780112
0.483166
0.31296
0.227571
0.209746
0.214744
0.240097
0.279532
0.3012
0.304421
0.280223
0.240464
0.240446
0.262948
0.290301
0.310517
0.340112
0.382261
0.445805
0.519643
0.559311
0.55419
0.516483
0.43194
0.30689
0.207985
0.168598
0.156581
0.153978
0.155734
0.17163
0.250165
0.381715
0.513328
0.616555
0.659452
0.665431
0.654705
0.619585
0.612675
0.625015
0.683711
0.739414
0.758048
0.7659
0.769451
0.777906
0.784804
0.797248
0.810145
0.808008
0.753866
0.630051
0.418358
0.29385
0.361419
0.635985
0.701671
0.681203
0.578995
0.497406
0.49162
0.468749
0.448947
0.428487
0.392895
0.356047
0.345836
0.34137
0.339712
0.341575
0.355951
0.410843
0.464424
0.479952
0.467106
0.405909
0.307971
0.230069
0.201767
0.193143
0.18589
0.18136
0.179147
0.177467
0.176188
0.175046
0.173871
0.172645
0.171426
0.170293
0.16931
0.168531
0.167982
0.167826
0.168195
0.169646
0.172706
0.178087
0.186744
0.199384
0.217621
0.244292
0.28222
0.334387
0.402663
0.485207
0.56868
0.638011
0.665139
0.66553
0.621848
0.590486
0.43952
0.31459
0.232444
0.209986
0.21222
0.229263
0.265631
0.297363
0.307788
0.302413
0.260443
0.23575
0.241616
0.268011
0.290962
0.306252
0.31269
0.318914
0.35059
0.43435
0.506549
0.532317
0.510912
0.444401
0.323962
0.221094
0.177137
0.160254
0.154542
0.155047
0.164367
0.217125
0.340467
0.47347
0.578403
0.628331
0.638211
0.630605
0.600557
0.582714
0.587546
0.623871
0.703748
0.741012
0.755684
0.761814
0.769739
0.783502
0.801592
0.818274
0.816614
0.761482
0.642171
0.440687
0.30479
0.346516
0.625543
0.700441
0.664237
0.550819
0.481266
0.498537
0.472725
0.453568
0.438432
0.404879
0.375502
0.371296
0.373765
0.388889
0.409241
0.423227
0.448899
0.464956
0.464876
0.441899
0.378439
0.295756
0.233111
0.20782
0.194341
0.184805
0.180866
0.178843
0.177252
0.176069
0.175049
0.174022
0.172953
0.171838
0.170735
0.169754
0.168702
0.167702
0.166959
0.166384
0.166172
0.166536
0.167908
0.17136
0.177664
0.187772
0.203014
0.224724
0.254387
0.292251
0.337583
0.383896
0.419932
0.430077
0.422802
0.394867
0.343183
0.274268
0.22599
0.208361
0.210899
0.225352
0.25415
0.289335
0.309384
0.3122
0.291105
0.244221
0.233694
0.243641
0.271728
0.29005
0.291891
0.280707
0.272083
0.278003
0.32764
0.427793
0.490096
0.496902
0.461189
0.371824
0.255708
0.198186
0.171196
0.158821
0.157109
0.163545
0.204803
0.32423
0.458576
0.557486
0.606548
0.615678
0.608263
0.582589
0.558991
0.559674
0.578464
0.657218
0.720305
0.744591
0.757153
0.763476
0.781157
0.802039
0.820664
0.812875
0.750783
0.648698
0.452735
0.312709
0.342682
0.619276
0.702444
0.647865
0.526306
0.474641
0.509705
0.481964
0.461955
0.449604
0.419864
0.39142
0.388078
0.395613
0.425468
0.444453
0.451668
0.455457
0.456339
0.44656
0.415868
0.359396
0.294766
0.242129
0.212594
0.192691
0.18464
0.18152
0.179703
0.178589
0.1785
0.179661
0.182006
0.186247
0.194495
0.204278
0.205457
0.202419
0.1932
0.181629
0.173985
0.16937
0.167029
0.166262
0.166394
0.167815
0.171636
0.178886
0.189847
0.204479
0.222567
0.242652
0.26272
0.27728
0.279072
0.273977
0.258149
0.232916
0.212665
0.205246
0.210011
0.226001
0.248584
0.280633
0.308474
0.317115
0.31182
0.271739
0.236454
0.233857
0.246164
0.273828
0.281564
0.279222
0.265842
0.260018
0.26047
0.271405
0.337296
0.427801
0.472188
0.462292
0.418872
0.325168
0.239263
0.194088
0.170446
0.164916
0.167556
0.200926
0.318757
0.453933
0.548705
0.592957
0.599655
0.591954
0.568993
0.54315
0.54084
0.551131
0.609807
0.694809
0.734215
0.752362
0.759701
0.778086
0.801343
0.819563
0.801048
0.73583
0.649085
0.460432
0.31846
0.344942
0.622572
0.70313
0.629997
0.508718
0.47338
0.526328
0.497729
0.47443
0.464079
0.440282
0.405529
0.398486
0.404843
0.436839
0.458004
0.460983
0.459114
0.45175
0.433912
0.400488
0.35205
0.296602
0.250355
0.212612
0.193717
0.188049
0.186204
0.186902
0.192327
0.206944
0.246937
0.359063
0.484224
0.559999
0.593259
0.596552
0.581826
0.543246
0.476618
0.384305
0.300929
0.232963
0.185737
0.170312
0.167223
0.167219
0.168937
0.173046
0.179357
0.187191
0.195365
0.203064
0.208354
0.209573
0.208082
0.204614
0.201162
0.202084
0.21061
0.228601
0.249183
0.274757
0.30501
0.32126
0.322657
0.303328
0.254907
0.234084
0.235975
0.251827
0.270104
0.273947
0.270143
0.261481
0.257989
0.257703
0.259693
0.278932
0.36217
0.432295
0.45214
0.434261
0.388829
0.307904
0.231728
0.190388
0.180253
0.181328
0.208592
0.326527
0.459163
0.548282
0.582699
0.584719
0.576507
0.555788
0.531538
0.52712
0.533506
0.571882
0.666335
0.722698
0.746443
0.758926
0.775434
0.796346
0.807828
0.77225
0.72129
0.64261
0.453931
0.323605
0.351515
0.631316
0.702532
0.61042
0.500679
0.47623
0.549958
0.523347
0.494662
0.480788
0.464084
0.424302
0.400488
0.3994
0.4211
0.456652
0.464382
0.46149
0.452014
0.429822
0.394728
0.350975
0.301471
0.251744
0.213854
0.202121
0.200392
0.208943
0.240558
0.349698
0.552806
0.716058
0.784568
0.79339
0.774978
0.702504
0.603619
0.546025
0.532574
0.538474
0.540713
0.516612
0.451121
0.359018
0.251843
0.185936
0.170335
0.168279
0.168817
0.170983
0.174782
0.179882
0.184599
0.188168
0.190653
0.193029
0.196585
0.201943
0.213545
0.233811
0.254575
0.27431
0.301095
0.323397
0.329652
0.324716
0.290086
0.247724
0.23613
0.239726
0.254523
0.265831
0.268358
0.265675
0.26095
0.258453
0.258051
0.25856
0.264065
0.304914
0.387378
0.433732
0.434124
0.412644
0.365344
0.283584
0.216307
0.200322
0.202845
0.246902
0.385262
0.504888
0.559556
0.574732
0.569675
0.560196
0.541589
0.523015
0.517886
0.522479
0.549552
0.643605
0.715722
0.745754
0.763375
0.775543
0.790528
0.788652
0.740415
0.708067
0.6344
0.4362
0.328256
0.369687
0.650098
0.698984
0.589858
0.497603
0.480339
0.579686
0.561904
0.530956
0.504244
0.489507
0.461543
0.410537
0.388787
0.387502
0.413178
0.448131
0.453295
0.447019
0.428895
0.39405
0.348959
0.298849
0.246137
0.222525
0.219819
0.241053
0.335447
0.554961
0.73605
0.804624
0.800875
0.739524
0.603988
0.453582
0.363243
0.319547
0.302228
0.298476
0.304963
0.327937
0.39104
0.440788
0.444809
0.409529
0.318643
0.212897
0.176524
0.17086
0.171304
0.174317
0.179956
0.185555
0.189985
0.193968
0.198978
0.20748
0.221966
0.243028
0.262267
0.279604
0.300123
0.323566
0.336017
0.337095
0.324414
0.281101
0.248436
0.241948
0.246033
0.257426
0.263681
0.265352
0.264148
0.261633
0.26042
0.260076
0.259844
0.261986
0.276134
0.343539
0.407437
0.427507
0.417228
0.389744
0.325975
0.2435
0.223066
0.228565
0.30529
0.457361
0.537743
0.564652
0.564187
0.555016
0.542823
0.531373
0.519327
0.514174
0.518436
0.539158
0.62263
0.70973
0.748251
0.769242
0.779021
0.788327
0.76294
0.722605
0.70094
0.617968
0.409914
0.333581
0.39354
0.676484
0.694264
0.576366
0.499771
0.484907
0.612585
0.610369
0.591975
0.551208
0.516109
0.497552
0.463449
0.406
0.366211
0.357937
0.367089
0.400396
0.410126
0.404288
0.382612
0.338341
0.280833
0.242215
0.234874
0.256953
0.375967
0.610194
0.758868
0.781994
0.75545
0.646789
0.484027
0.370927
0.331191
0.310919
0.299856
0.293641
0.290498
0.285803
0.281469
0.286312
0.324184
0.400658
0.435486
0.429401
0.352639
0.237223
0.188102
0.18034
0.181231
0.190097
0.200817
0.21061
0.219855
0.230543
0.243875
0.259304
0.274939
0.289728
0.304908
0.324062
0.340238
0.345335
0.343636
0.324738
0.279256
0.254367
0.250291
0.253634
0.259666
0.263145
0.264691
0.264505
0.264393
0.265248
0.265953
0.264998
0.264262
0.269007
0.305181
0.377198
0.41491
0.414828
0.396526
0.343129
0.263116
0.246857
0.263232
0.391216
0.51313
0.55152
0.556852
0.549124
0.54
0.533731
0.528784
0.521517
0.515439
0.520121
0.538711
0.613115
0.709498
0.754066
0.777911
0.789674
0.782561
0.733547
0.715792
0.696872
0.585853
0.383605
0.341766
0.428893
0.703178
0.684904
0.565015
0.501251
0.486457
0.644891
0.661364
0.665638
0.640528
0.579883
0.527118
0.500428
0.469958
0.422167
0.352838
0.313595
0.303915
0.30542
0.313093
0.30904
0.292581
0.255461
0.242033
0.252965
0.34236
0.572082
0.73386
0.759668
0.731339
0.621592
0.471809
0.39554
0.367754
0.333288
0.313456
0.310982
0.323188
0.341111
0.342861
0.328709
0.307457
0.306147
0.337267
0.423575
0.471051
0.464651
0.364426
0.260685
0.222155
0.212996
0.219312
0.230687
0.244115
0.256726
0.269082
0.281166
0.293291
0.303806
0.314863
0.328722
0.34351
0.352078
0.353428
0.349278
0.325979
0.283029
0.263382
0.258702
0.259812
0.262218
0.264512
0.266043
0.267963
0.271291
0.275509
0.276861
0.274784
0.270461
0.269779
0.283831
0.346835
0.39757
0.408955
0.395872
0.347073
0.277727
0.27189
0.3229
0.481258
0.54477
0.554571
0.545133
0.537122
0.533727
0.533283
0.531919
0.528821
0.521558
0.526583
0.547479
0.625393
0.721356
0.765828
0.790538
0.797616
0.759879
0.718799
0.715915
0.686794
0.523071
0.368797
0.353188
0.479046
0.720722
0.66916
0.55737
0.499659
0.479746
0.698892
0.695509
0.726365
0.737576
0.71261
0.619386
0.530591
0.493856
0.471736
0.438889
0.381821
0.293697
0.256505
0.243504
0.237881
0.234962
0.234883
0.243834
0.290649
0.471619
0.680798
0.747557
0.734373
0.663974
0.541199
0.447165
0.406691
0.35063
0.316357
0.313145
0.329316
0.371233
0.404174
0.414484
0.415065
0.398331
0.371234
0.370366
0.436118
0.508137
0.520792
0.464799
0.354646
0.290613
0.26615
0.260339
0.263973
0.273403
0.285001
0.296814
0.30787
0.317901
0.327387
0.336432
0.347063
0.356539
0.359914
0.359881
0.353137
0.325815
0.287564
0.269533
0.263394
0.263203
0.265028
0.267624
0.271498
0.2778
0.285795
0.290408
0.290086
0.285705
0.275918
0.272857
0.278774
0.32628
0.385818
0.404212
0.392897
0.340816
0.293827
0.301209
0.42547
0.538086
0.555804
0.544343
0.535571
0.532756
0.536126
0.545352
0.545432
0.543793
0.533372
0.537407
0.56253
0.649251
0.741052
0.781117
0.803504
0.794239
0.733588
0.719321
0.720731
0.65519
0.443926
0.36945
0.369624
0.537465
0.731317
0.650523
0.560028
0.502097
0.458937
0.8814
0.774096
0.776323
0.817356
0.829538
0.79287
0.648778
0.516967
0.473897
0.455059
0.440129
0.401081
0.303556
0.240971
0.227568
0.224481
0.229999
0.258925
0.358066
0.584606
0.733795
0.753461
0.727161
0.647626
0.539092
0.463989
0.398786
0.329381
0.317463
0.324628
0.356205
0.396293
0.420968
0.434219
0.446702
0.458098
0.467325
0.474155
0.49592
0.532714
0.538481
0.50889
0.422872
0.35802
0.324624
0.311765
0.307218
0.308514
0.313702
0.321107
0.329008
0.336606
0.343956
0.351334
0.359616
0.364682
0.365514
0.364037
0.353672
0.320494
0.285662
0.269653
0.265054
0.266411
0.270145
0.276784
0.288393
0.300461
0.30695
0.307623
0.303951
0.291368
0.278486
0.274779
0.279086
0.322843
0.385238
0.404484
0.391039
0.333818
0.313203
0.354548
0.527013
0.564043
0.550918
0.537017
0.532689
0.541945
0.576277
0.578838
0.576625
0.566437
0.545375
0.551513
0.58433
0.684475
0.763867
0.798891
0.812324
0.765906
0.724495
0.73294
0.72114
0.572647
0.404408
0.377438
0.39283
0.614113
0.733517
0.631713
0.569692
0.512222
0.435463
1.04971
0.959494
0.876633
0.874361
0.905151
0.907044
0.839389
0.644217
0.481175
0.440324
0.43224
0.433243
0.409007
0.303651
0.235838
0.226486
0.234876
0.285144
0.440129
0.666484
0.770552
0.772786
0.739927
0.65901
0.567721
0.488987
0.38373
0.335602
0.333181
0.3554
0.396453
0.420013
0.429868
0.435428
0.440862
0.454102
0.473285
0.495562
0.51775
0.529444
0.534336
0.515956
0.459116
0.412247
0.385058
0.369075
0.358423
0.351664
0.347814
0.347952
0.349918
0.353348
0.358339
0.364304
0.368919
0.370094
0.369264
0.363897
0.342985
0.300121
0.274502
0.266703
0.268388
0.273946
0.285724
0.304649
0.319536
0.327436
0.327383
0.323734
0.312927
0.292928
0.28016
0.276776
0.281582
0.327518
0.389941
0.406971
0.386612
0.33316
0.334422
0.474706
0.582394
0.56739
0.540169
0.534214
0.551113
0.614575
0.631598
0.625029
0.60458
0.571039
0.557292
0.571944
0.625802
0.731921
0.788117
0.814648
0.797261
0.735449
0.737662
0.74855
0.667834
0.455848
0.400023
0.39589
0.429401
0.685584
0.728696
0.626195
0.583871
0.521662
0.433407
1.08422
1.06495
1.01165
0.956867
0.955651
0.964958
0.949253
0.830157
0.585465
0.420026
0.396187
0.418592
0.432504
0.396423
0.271163
0.239387
0.244426
0.313428
0.516274
0.722725
0.800206
0.798065
0.772553
0.712572
0.627272
0.515808
0.401563
0.381928
0.402092
0.478386
0.531005
0.545959
0.547841
0.523795
0.479093
0.461721
0.457669
0.460718
0.477236
0.496257
0.505332
0.505051
0.476604
0.446142
0.431262
0.416112
0.402733
0.391618
0.382464
0.37631
0.372971
0.372127
0.37262
0.374141
0.374122
0.372501
0.367531
0.349708
0.306874
0.276048
0.267434
0.270506
0.27904
0.300208
0.325041
0.343775
0.350337
0.350055
0.346867
0.337339
0.318019
0.297484
0.284366
0.28138
0.288698
0.343379
0.40212
0.410667
0.374259
0.34358
0.38033
0.575212
0.60101
0.549705
0.536178
0.557027
0.640674
0.669762
0.66245
0.636829
0.601528
0.572146
0.576691
0.61499
0.698613
0.769509
0.807949
0.810893
0.752338
0.740877
0.763039
0.726641
0.510802
0.427849
0.416446
0.415203
0.484497
0.720838
0.720605
0.633274
0.599443
0.537946
0.446013
1.02696
1.06506
1.05714
1.03056
1.00757
1.0006
0.992569
0.924696
0.721493
0.45052
0.375544
0.375858
0.423517
0.432339
0.347991
0.259094
0.255726
0.331249
0.564145
0.771702
0.84948
0.852696
0.835524
0.795584
0.711734
0.580438
0.521425
0.53374
0.642681
0.841912
0.964036
1.01351
1.02786
0.998885
0.890928
0.727889
0.588511
0.493698
0.459704
0.453443
0.464752
0.473824
0.475465
0.458866
0.448696
0.437508
0.425341
0.414119
0.403945
0.395176
0.38847
0.383594
0.380085
0.377307
0.373744
0.366641
0.345803
0.302272
0.273911
0.267941
0.272844
0.288778
0.3197
0.348903
0.367389
0.374508
0.378133
0.378355
0.373493
0.360659
0.338533
0.312284
0.295154
0.292078
0.304079
0.369241
0.417376
0.414229
0.368907
0.366162
0.494765
0.63381
0.604807
0.537462
0.55002
0.656871
0.695674
0.690635
0.66706
0.630209
0.598023
0.591871
0.624746
0.689354
0.750157
0.794732
0.809747
0.765085
0.747095
0.772523
0.768699
0.55918
0.452401
0.444856
0.44293
0.432707
0.558468
0.735839
0.717447
0.644182
0.616631
0.560259
0.469642
0.884836
1.01173
1.04178
1.04314
1.03443
1.0273
1.01432
0.953124
0.768452
0.478342
0.363329
0.357092
0.385873
0.43439
0.404701
0.287897
0.269655
0.340892
0.592389
0.815794
0.911627
0.928965
0.918155
0.893316
0.827788
0.753088
0.74622
0.806833
0.959934
1.14977
1.2824
1.35869
1.40156
1.42249
1.41745
1.35396
1.22197
1.0212
0.780868
0.564826
0.453221
0.414721
0.410059
0.436527
0.440318
0.435889
0.426497
0.41686
0.407331
0.39862
0.390256
0.383501
0.378087
0.371341
0.35811
0.328229
0.289165
0.270656
0.269649
0.279011
0.308983
0.340152
0.365561
0.384599
0.402677
0.420247
0.431156
0.43484
0.429123
0.412179
0.378186
0.339583
0.315636
0.312315
0.331749
0.400374
0.430342
0.41601
0.370355
0.394438
0.591878
0.65445
0.575597
0.539958
0.644082
0.718862
0.71794
0.696985
0.663943
0.632446
0.623518
0.640392
0.693178
0.738388
0.77696
0.801204
0.771421
0.759486
0.779793
0.792081
0.604328
0.464147
0.479287
0.488283
0.458452
0.455753
0.609911
0.746199
0.721226
0.656634
0.633878
0.584122
0.49511
0.656926
0.930954
1.01006
1.02812
1.0322
1.0282
1.0134
0.947629
0.767314
0.475765
0.360023
0.348832
0.365385
0.424082
0.433408
0.326023
0.285069
0.341973
0.607626
0.861607
0.985092
1.02354
1.02402
1.01348
0.990844
0.976932
0.996691
1.06514
1.15987
1.24689
1.33219
1.41765
1.47843
1.51929
1.54949
1.56741
1.55122
1.48203
1.35014
1.16082
0.93315
0.701624
0.476313
0.376011
0.353375
0.368789
0.391077
0.394954
0.391024
0.3851
0.376835
0.365947
0.351895
0.328242
0.297417
0.275844
0.271268
0.277016
0.301458
0.329122
0.351356
0.370256
0.400688
0.438254
0.469209
0.485738
0.493566
0.495701
0.491097
0.470458
0.433446
0.384653
0.351126
0.345951
0.372374
0.427512
0.438534
0.411334
0.381951
0.466534
0.652281
0.66319
0.562265
0.584052
0.728437
0.746619
0.732073
0.705645
0.676265
0.662506
0.670432
0.700238
0.732961
0.76418
0.788933
0.773669
0.77212
0.788931
0.80515
0.643937
0.462132
0.500364
0.538652
0.50867
0.470417
0.489979
0.636168
0.758242
0.736168
0.670384
0.649049
0.608069
0.523515
0.556075
0.809034
0.967096
1.01051
1.02202
1.01937
1.00028
0.913712
0.66513
0.403317
0.356531
0.346486
0.354562
0.403923
0.442832
0.36525
0.299193
0.333552
0.593107
0.889834
1.05002
1.10987
1.12514
1.12685
1.12777
1.13566
1.15416
1.17721
1.19162
1.19336
1.19348
1.22106
1.27339
1.35562
1.47364
1.54547
1.57128
1.54626
1.46432
1.32659
1.14899
1.00167
0.902365
0.758317
0.52434
0.355847
0.323412
0.317584
0.315995
0.314525
0.30954
0.298311
0.285923
0.277356
0.275393
0.280408
0.30122
0.326081
0.34177
0.353488
0.376381
0.422519
0.459703
0.484804
0.502314
0.513916
0.520574
0.524246
0.527476
0.526624
0.508372
0.458021
0.408382
0.394546
0.415586
0.446128
0.444195
0.412173
0.409937
0.556699
0.680931
0.651702
0.568975
0.670395
0.768434
0.768906
0.749512
0.724455
0.707115
0.70469
0.71571
0.736525
0.758753
0.779141
0.780964
0.784013
0.797581
0.805735
0.646908
0.437611
0.513825
0.560351
0.555953
0.522797
0.501167
0.51184
0.647263
0.769118
0.762589
0.68773
0.663266
0.632048
0.555646
0.558429
0.738177
0.901117
0.980801
1.00841
1.00556
0.952553
0.748958
0.45898
0.369921
0.354845
0.349826
0.351945
0.392812
0.444953
0.399394
0.312897
0.324793
0.551422
0.889107
1.09624
1.17589
1.19467
1.19493
1.19129
1.1747
1.14221
1.09532
1.00546
0.879099
0.803052
0.783001
0.788095
0.874634
1.06093
1.28547
1.4154
1.45895
1.44596
1.30792
1.08363
0.964935
0.926539
0.899876
0.845253
0.701115
0.446903
0.343928
0.314901
0.303068
0.296937
0.291829
0.290046
0.297128
0.31533
0.336955
0.34696
0.350873
0.358019
0.387245
0.431425
0.459507
0.479021
0.496125
0.512073
0.524801
0.532781
0.538722
0.548481
0.558651
0.557829
0.539463
0.491768
0.456911
0.454852
0.461444
0.449437
0.417597
0.436875
0.609483
0.697979
0.641237
0.585651
0.722432
0.798486
0.793923
0.772573
0.753823
0.742982
0.741301
0.749622
0.765352
0.779826
0.790443
0.798657
0.806656
0.802049
0.639974
0.426715
0.531697
0.568502
0.572062
0.563063
0.544281
0.525101
0.527675
0.620321
0.770463
0.78662
0.711032
0.680452
0.658353
0.598038
0.638414
0.793884
0.907951
0.961951
0.97139
0.930918
0.758985
0.472974
0.374795
0.360929
0.359252
0.359645
0.359117
0.386241
0.443134
0.43011
0.328991
0.320746
0.489255
0.859142
1.10619
1.21222
1.23433
1.23009
1.20749
1.15132
1.03706
0.85215
0.650507
0.52051
0.479207
0.463248
0.46002
0.481643
0.582618
0.808941
1.08007
1.22445
1.25675
1.17404
0.88609
0.700681
0.709164
0.762111
0.825818
0.829195
0.740497
0.587774
0.463498
0.404432
0.381532
0.373509
0.376019
0.380407
0.371079
0.358146
0.355356
0.362863
0.396702
0.429066
0.44859
0.463006
0.479301
0.496103
0.513425
0.528458
0.539878
0.549546
0.560864
0.574154
0.579215
0.577882
0.562818
0.529314
0.496602
0.481215
0.455861
0.430567
0.462413
0.639811
0.711416
0.649505
0.609448
0.758289
0.826235
0.821977
0.800484
0.786955
0.778784
0.777085
0.783469
0.793599
0.804952
0.812174
0.815095
0.797684
0.647306
0.442274
0.526929
0.571915
0.575108
0.570325
0.563725
0.553192
0.54009
0.539509
0.587211
0.746786
0.805088
0.763234
0.702807
0.682083
0.644442
0.713513
0.821092
0.868207
0.87192
0.821759
0.668935
0.431613
0.368371
0.361381
0.365405
0.380769
0.383329
0.37679
0.386117
0.44473
0.452695
0.354653
0.320733
0.420997
0.791015
1.09316
1.22109
1.25049
1.24423
1.20172
1.0785
0.850625
0.607526
0.488608
0.454339
0.440233
0.423333
0.411628
0.4084
0.41749
0.463071
0.6812
0.940273
1.05628
1.06726
0.87378
0.574648
0.500338
0.528848
0.647059
0.726383
0.750303
0.683871
0.59715
0.532469
0.487062
0.451851
0.420393
0.386417
0.363399
0.357086
0.367104
0.399546
0.421317
0.431948
0.44176
0.45536
0.47364
0.494346
0.516155
0.536157
0.551755
0.563359
0.571142
0.579449
0.588069
0.592165
0.591343
0.580981
0.552656
0.514806
0.471023
0.444218
0.477688
0.656764
0.7234
0.666117
0.628618
0.782211
0.854391
0.851298
0.831346
0.821806
0.817334
0.817687
0.822489
0.824495
0.828188
0.822555
0.78477
0.631385
0.465884
0.500284
0.569126
0.572769
0.561675
0.553759
0.552635
0.552741
0.54569
0.544431
0.562609
0.669401
0.805238
0.818934
0.739704
0.703175
0.680247
0.685803
0.69706
0.684831
0.602677
0.478991
0.385074
0.359659
0.360868
0.372985
0.400886
0.426
0.423283
0.404463
0.39863
0.447533
0.466038
0.387887
0.326727
0.366466
0.679297
1.04673
1.21986
1.26051
1.25112
1.17199
0.982682
0.733581
0.54108
0.474798
0.454071
0.444841
0.428371
0.40696
0.394617
0.389972
0.394975
0.432784
0.649891
0.884724
0.966738
0.901802
0.582319
0.443117
0.427568
0.49791
0.578495
0.626635
0.643487
0.592882
0.529578
0.478662
0.431952
0.391601
0.361958
0.356041
0.367523
0.396698
0.410831
0.414856
0.418631
0.426956
0.44537
0.472874
0.503391
0.533857
0.559369
0.576628
0.585554
0.587729
0.588157
0.59194
0.598068
0.60178
0.601913
0.593806
0.568151
0.500802
0.460577
0.485938
0.660575
0.734701
0.687151
0.634593
0.768036
0.880902
0.882165
0.865939
0.861553
0.859722
0.858617
0.853781
0.84751
0.830612
0.769378
0.600605
0.467317
0.471628
0.559066
0.568694
0.546191
0.519352
0.512441
0.515671
0.531248
0.538428
0.541822
0.548595
0.583081
0.730543
0.822534
0.814405
0.734475
0.705375
0.469993
0.447582
0.403141
0.363842
0.355231
0.355589
0.367582
0.389009
0.414167
0.44644
0.462405
0.458177
0.431321
0.418042
0.450978
0.477657
0.425221
0.33903
0.340716
0.537353
0.951456
1.19744
1.26509
1.25992
1.18268
1.0016
0.763734
0.575922
0.507171
0.487114
0.477565
0.454787
0.419468
0.393818
0.381106
0.376321
0.381143
0.424416
0.665059
0.871023
0.92418
0.705234
0.433787
0.388661
0.389675
0.437139
0.481193
0.510019
0.50336
0.45752
0.403377
0.365602
0.350691
0.351987
0.369122
0.394215
0.399656
0.397079
0.392238
0.39486
0.412404
0.448007
0.496561
0.548579
0.597557
0.631748
0.648799
0.642783
0.629256
0.615287
0.607025
0.605911
0.608461
0.611157
0.611014
0.601395
0.55227
0.483362
0.483415
0.627431
0.735454
0.715299
0.647274
0.710263
0.897122
0.912153
0.901977
0.896165
0.891774
0.884897
0.870742
0.839408
0.757746
0.574798
0.459947
0.456208
0.538303
0.561788
0.538507
0.48683
0.449191
0.438432
0.441427
0.473378
0.498546
0.521667
0.532269
0.545735
0.595344
0.755806
0.831775
0.817145
0.737956
0.347873
0.344693
0.345844
0.351602
0.363539
0.38288
0.403127
0.413847
0.434143
0.46994
0.481935
0.476648
0.452849
0.440433
0.456629
0.487775
0.461641
0.362322
0.33427
0.419897
0.791468
1.13262
1.25664
1.26721
1.20776
1.05022
0.838029
0.664148
0.586648
0.557886
0.525791
0.475346
0.424404
0.397334
0.378988
0.369681
0.367129
0.374891
0.438131
0.725611
0.914332
0.868536
0.514788
0.387966
0.36432
0.359926
0.363107
0.371724
0.372814
0.363654
0.347275
0.343335
0.348506
0.372888
0.392492
0.391918
0.380885
0.363367
0.360738
0.375392
0.419368
0.494937
0.58959
0.673586
0.727103
0.759036
0.779755
0.77701
0.740205
0.689551
0.652535
0.631891
0.623985
0.621658
0.620633
0.618349
0.598314
0.518793
0.489049
0.554348
0.708487
0.733123
0.662125
0.656148
0.869055
0.929419
0.927088
0.918975
0.911408
0.893448
0.853103
0.755452
0.558459
0.450565
0.443889
0.500681
0.549375
0.544142
0.480859
0.409831
0.36436
0.34882
0.349687
0.376161
0.414758
0.463543
0.496721
0.519026
0.53879
0.598916
0.766175
0.843025
0.828419
0.338653
0.346309
0.361624
0.385054
0.407189
0.415527
0.417065
0.425594
0.448595
0.488595
0.506883
0.502801
0.478824
0.465926
0.472475
0.499869
0.48796
0.402997
0.340769
0.359876
0.579
0.990758
1.21363
1.26077
1.23201
1.12825
0.968654
0.812761
0.706939
0.635393
0.565847
0.49122
0.428495
0.395752
0.377566
0.367428
0.363005
0.361644
0.371573
0.471611
0.804547
0.925353
0.75022
0.451704
0.375051
0.353524
0.344829
0.341265
0.339445
0.338449
0.339447
0.350912
0.379244
0.392949
0.38873
0.371907
0.338096
0.32773
0.336064
0.377655
0.485753
0.607663
0.689458
0.729333
0.750716
0.770933
0.797847
0.826106
0.848613
0.834265
0.767055
0.701322
0.666963
0.6481
0.636492
0.630457
0.62259
0.577972
0.505559
0.511894
0.633732
0.728052
0.691343
0.645645
0.729242
0.922558
0.940437
0.930517
0.915454
0.877501
0.780558
0.574821
0.445006
0.427028
0.458089
0.522964
0.54282
0.51264
0.408485
0.338983
0.309369
0.302536
0.303863
0.311595
0.327198
0.359969
0.412124
0.465063
0.503111
0.531443
0.597937
0.770821
0.852356
0.354162
0.376443
0.40279
0.423626
0.434025
0.437998
0.438224
0.440906
0.455229
0.495187
0.522938
0.525572
0.508044
0.492391
0.494378
0.511672
0.507323
0.452424
0.362058
0.344022
0.423945
0.751908
1.09302
1.2222
1.23005
1.17001
1.06252
0.936064
0.818081
0.713463
0.617984
0.512385
0.432993
0.392754
0.372607
0.365889
0.361478
0.358766
0.358713
0.372053
0.566216