/*--------------------------------*- C++ -*----------------------------------*\
  =========                 |
  \\      /  F ield         | OpenFOAM: The Open Source CFD Toolbox
   \\    /   O peration     | Website:  https://openfoam.org
    \\  /    A nd           | Version:  10
     \\/     M anipulation  |
\*---------------------------------------------------------------------------*/
FoamFile
{
    format      ascii;
    class       volScalarField;
    location    "0.750416";
    object      T;
}
// * * * * * * * * * * * * * * * * * * * * * * * * * * * * * * * * * * * * * //

dimensions      [0 0 0 1 0 0 0];

internalField   nonuniform List<scalar> 
16320
(
0.00515866
0.00553994
0.00606836
0.00680214
0.00786709
0.0090493
0.00997825
0.0103797
0.0104163
0.0100491
0.00869018
0.00558136
0.00440416
0.0044582
0.00508465
0.00703894
0.0101437
0.0123941
0.0129495
0.0131389
0.0131768
0.0131583
0.0131031
0.0129972
0.0128547
0.0126636
0.0124132
0.0120973
0.0117223
0.0112861
0.0107727
0.0101895
0.00955155
0.00876747
0.00795311
0.00706108
0.00608094
0.005083
0.00407329
0.00321222
0.00253183
0.00212906
0.00187178
0.00166981
0.00152747
0.00140888
0.00133724
0.00129902
0.00130285
0.00131074
0.00137904
0.00150584
0.00188843
0.00243677
0.00317317
0.00443798
0.00640712
0.00827003
0.00899344
0.00889729
0.00807259
0.00690508
0.00650841
0.00659477
0.00738653
0.00809996
0.00786959
0.00668451
0.00550037
0.00453791
0.00378792
0.00334141
0.0031772
0.00313068
0.00320382
0.00363284
0.00515692
0.00879971
0.0110682
0.0109467
0.00878345
0.00548725
0.00376653
0.00281187
0.00233884
0.00215552
0.00205274
0.00204014
0.00208919
0.00212721
0.00210872
0.00208537
0.0020954
0.00219073
0.00226391
0.00225556
0.00226636
0.00241615
0.00305421
0.0033846
0.00322822
0.00300894
0.00322317
0.00437558
0.00648122
0.00700455
0.00575135
0.0034056
0.00278704
0.00261632
0.00259087
0.0027601
0.00329355
0.00478837
0.00507923
0.00549805
0.00615795
0.00724361
0.00856937
0.00982818
0.0103642
0.0105776
0.0105464
0.0100269
0.00789801
0.00494976
0.00449504
0.00485764
0.00624214
0.00887012
0.0116981
0.0129112
0.0132287
0.0133283
0.0133522
0.0133343
0.0132703
0.0131618
0.0130141
0.0128142
0.0125685
0.0122813
0.0119522
0.0115636
0.0111092
0.0106022
0.00996374
0.00928167
0.00848636
0.00757373
0.00662611
0.00556453
0.00451271
0.00351249
0.00272013
0.00219895
0.00185237
0.00162011
0.0014663
0.00135462
0.00132368
0.00130877
0.00133142
0.0013637
0.00150539
0.00176598
0.00229724
0.00306998
0.00449051
0.00664486
0.00842487
0.00890948
0.00867417
0.00761945
0.00667959
0.00648922
0.00673258
0.00779575
0.00819496
0.00769817
0.00657303
0.00562932
0.00466753
0.00385997
0.00339246
0.00322593
0.00317838
0.00324996
0.0036604
0.00512786
0.00870972
0.01106
0.0111775
0.00954791
0.00649482
0.00446979
0.00321147
0.00254594
0.00225959
0.00212331
0.00208241
0.00210144
0.00218065
0.00218106
0.00213777
0.00211394
0.00213683
0.00223187
0.00225879
0.00226828
0.00231952
0.00262504
0.00307612
0.00307461
0.00288758
0.00291168
0.00343414
0.00556201
0.00706618
0.00655054
0.0037937
0.00295521
0.00275192
0.00271536
0.0028539
0.00339477
0.0046701
0.00493653
0.00529915
0.00587724
0.00678318
0.00798367
0.00930686
0.00997404
0.0103799
0.0105405
0.0102845
0.00886925
0.00589341
0.0046396
0.00486159
0.00586076
0.00809462
0.0109275
0.0127359
0.0132672
0.0134188
0.0134559
0.0134488
0.0133944
0.0132954
0.0131651
0.012999
0.0128042
0.0125858
0.0123199
0.0119989
0.011625
0.0111916
0.0106644
0.0100676
0.00936327
0.00855729
0.0076814
0.00666365
0.00559504
0.00454243
0.00360271
0.00286892
0.00229185
0.00188118
0.001612
0.00146803
0.0013651
0.00136384
0.00134946
0.00141445
0.00149346
0.00181172
0.00219483
0.00315884
0.00482455
0.00719336
0.00864063
0.00883595
0.00836214
0.00717588
0.00652959
0.0065023
0.00699844
0.0081585
0.00822508
0.00743494
0.00663503
0.00584132
0.00480778
0.00394113
0.00347152
0.00331123
0.00327835
0.00338058
0.00383343
0.00528285
0.00872553
0.0111621
0.0115159
0.0104875
0.00786
0.00546773
0.00379419
0.00285154
0.00242749
0.00222819
0.00216194
0.00216028
0.00223066
0.00226516
0.0022336
0.00215697
0.00214826
0.00218666
0.0022529
0.00227019
0.00229571
0.00240321
0.00275458
0.00286947
0.00278742
0.00276866
0.00303515
0.00433635
0.00691208
0.00714395
0.00426087
0.00309276
0.00287728
0.00284886
0.00301675
0.00354277
0.0046444
0.00490905
0.00525268
0.00578048
0.00659943
0.00772715
0.00887165
0.00940164
0.00985651
0.0102409
0.0101941
0.00881135
0.00605206
0.00489707
0.00491848
0.00581528
0.00772736
0.0106514
0.0127119
0.0133185
0.0134823
0.0135207
0.0135187
0.0134736
0.013393
0.0132906
0.0131599
0.0130082
0.0128406
0.0126377
0.0123909
0.0120915
0.0117342
0.0112971
0.0107822
0.0101567
0.00943154
0.00859944
0.00762295
0.00657514
0.00551367
0.00450697
0.00363583
0.00291573
0.00234428
0.00192104
0.00165754
0.0015109
0.00143773
0.00146644
0.00145713
0.00161949
0.00176459
0.00241126
0.00323821
0.00555199
0.00789108
0.00882537
0.00871937
0.00789453
0.00680339
0.00645784
0.00656749
0.00747104
0.00839357
0.00821536
0.00729902
0.00678939
0.0060136
0.00491435
0.0040297
0.00358229
0.00343381
0.00343083
0.00361711
0.00422905
0.00581472
0.00905895
0.0112792
0.0118351
0.0114023
0.00967579
0.00690256
0.00463917
0.00329819
0.00267181
0.00236522
0.00226762
0.00225786
0.00231767
0.00238331
0.00236718
0.00226732
0.00218645
0.00218948
0.0022355
0.00227053
0.00228873
0.00233404
0.00250221
0.00260667
0.00259666
0.0026185
0.00284999
0.00368279
0.00633146
0.00728535
0.00488488
0.00321197
0.00297569
0.00296938
0.00323365
0.00377309
0.00465348
0.00492884
0.00526072
0.0057479
0.00646934
0.00756203
0.00840705
0.00880681
0.00919375
0.00959579
0.00975121
0.00842681
0.00596076
0.00512061
0.00510074
0.00586834
0.00776845
0.0107248
0.0127565
0.0133439
0.0135078
0.013553
0.0135591
0.013538
0.0134851
0.0134103
0.0133236
0.0132255
0.0131138
0.0129755
0.0128073
0.0125987
0.0123398
0.0120162
0.0116046
0.0110821
0.0104452
0.0096698
0.00874349
0.00771634
0.00663784
0.00556252
0.00455933
0.00367302
0.00294144
0.00236597
0.00199628
0.00175446
0.00168076
0.00163159
0.00171175
0.00170278
0.00211829
0.00239967
0.0043145
0.00689459
0.00862118
0.00887839
0.00846713
0.00733278
0.00655862
0.00644563
0.00675916
0.00801569
0.00854542
0.00812015
0.00727724
0.00685727
0.00613149
0.00513319
0.00426746
0.00377352
0.00358482
0.00359648
0.00383489
0.00452926
0.00625483
0.00922184
0.0112982
0.0119289
0.0118862
0.0112347
0.00896417
0.00579835
0.00391432
0.00299526
0.00254804
0.00239726
0.0023733
0.00242179
0.00251975
0.00251367
0.00243167
0.00225799
0.0022123
0.00222537
0.00226765
0.00229329
0.0023187
0.00239303
0.00244148
0.00245166
0.00250594
0.00274525
0.00343743
0.00549483
0.00735181
0.00549476
0.00331973
0.00304986
0.00307998
0.00348942
0.00406198
0.00470438
0.00500624
0.00532681
0.00573724
0.00638613
0.00732697
0.00786558
0.00813971
0.00847428
0.00867579
0.00864832
0.00737165
0.00572592
0.005288
0.00532769
0.00603148
0.00795671
0.0109716
0.0127455
0.0132899
0.0134773
0.0135794
0.0136114
0.0136104
0.0135769
0.0135243
0.0134645
0.0133975
0.0133246
0.0132427
0.0131449
0.0130243
0.0128717
0.0126664
0.0123901
0.0120172
0.0115218
0.0108748
0.0100644
0.00911853
0.00806335
0.00692609
0.00578701
0.00471901
0.00379199
0.00305355
0.00255245
0.00223352
0.00207435
0.00209716
0.00204114
0.00236355
0.00237841
0.0039231
0.00598577
0.00832188
0.00900912
0.00879049
0.00791076
0.00684543
0.00643089
0.00647869
0.00716755
0.00850509
0.00864623
0.00802746
0.00737752
0.00698394
0.00643311
0.00574664
0.0049171
0.00417715
0.0038141
0.00376083
0.00392977
0.0045731
0.00629383
0.00915811
0.0111711
0.0119099
0.0119971
0.01175
0.0105605
0.00717508
0.00462555
0.00337484
0.00275482
0.00253136
0.00247741
0.00250224
0.00263166
0.00266499
0.00262224
0.00241773
0.00226148
0.00224167
0.00226264
0.00229918
0.00232431
0.0023556
0.00237219
0.00239041
0.00246045
0.00270458
0.00331208
0.00507262
0.00731566
0.00597632
0.00341551
0.00309978
0.00318625
0.00374138
0.00433043
0.00476678
0.00510107
0.00542149
0.00576568
0.0063618
0.0070674
0.0073192
0.00744405
0.00750387
0.00749217
0.00722598
0.00629449
0.00560186
0.00543442
0.0055771
0.00638419
0.00835278
0.011102
0.0125697
0.0130301
0.0134251
0.0136377
0.0136742
0.0136641
0.013618
0.0135573
0.0134966
0.0134396
0.0133839
0.0133258
0.0132631
0.0131941
0.0131183
0.0130231
0.0128981
0.0127029
0.0124045
0.0119683
0.0113637
0.0106024
0.00967959
0.00859249
0.00740822
0.00622185
0.00513444
0.00422556
0.00356947
0.00314545
0.00298088
0.00294674
0.00313539
0.00323777
0.00439779
0.00607846
0.00828821
0.00915068
0.00901555
0.00837283
0.00725007
0.00652915
0.00639169
0.00662512
0.00781268
0.0087776
0.0086874
0.00795016
0.0074196
0.00712701
0.00703152
0.006916
0.00628186
0.00502509
0.00424052
0.00394597
0.00400616
0.00447926
0.00599538
0.00865012
0.0106646
0.0116625
0.0119749
0.0118226
0.0110462
0.00828281
0.00520552
0.00367559
0.00295036
0.0026669
0.00258906
0.00259786
0.00271009
0.00279256
0.00277472
0.00262816
0.00235499
0.00227171
0.00227325
0.00230429
0.00233675
0.00235322
0.00235861
0.00237324
0.00244716
0.00269636
0.00327727
0.0048614
0.00711903
0.00629372
0.0035069
0.00313735
0.00330172
0.00397492
0.00452963
0.00480818
0.00517444
0.0054905
0.00576791
0.00632284
0.00686198
0.00698121
0.00696055
0.00670884
0.00639443
0.00620666
0.00587184
0.00568231
0.00567774
0.00594643
0.00688942
0.00873368
0.010983
0.0122175
0.0129531
0.0135003
0.013665
0.0136815
0.0136586
0.0135993
0.0135232
0.0134442
0.0133676
0.0132961
0.0132278
0.0131585
0.0131072
0.0130658
0.0130168
0.0129653
0.0128962
0.012794
0.0126267
0.0123219
0.0118435
0.0111739
0.0103067
0.00928578
0.00817815
0.00709248
0.00611428
0.00534854
0.00485982
0.00471377
0.00476771
0.00503746
0.00580479
0.00721897
0.00871444
0.00939686
0.00922435
0.00863454
0.00765582
0.00675186
0.00637106
0.00640487
0.00698072
0.00843568
0.00894994
0.00869485
0.00790866
0.00749629
0.00751911
0.00786038
0.00812213
0.00793216
0.00669267
0.00505831
0.00432586
0.0041601
0.00436273
0.00526992
0.00751237
0.00956786
0.0109487
0.0116808
0.0116927
0.0111274
0.00879976
0.00548368
0.00381037
0.00307337
0.00277245
0.00269057
0.00269584
0.00279298
0.00290653
0.00290521
0.0028219
0.00251295
0.00232592
0.00229624
0.00231409
0.00235466
0.002364
0.00236673
0.00238255
0.00248182
0.00276301
0.00328188
0.00479044
0.00701925
0.00643333
0.00358222
0.00316621
0.00342614
0.00420834
0.00465006
0.00481263
0.00519411
0.00551832
0.00576049
0.00624777
0.00674493
0.00684825
0.00674174
0.00628208
0.00602407
0.00593584
0.00588736
0.00586595
0.00596686
0.00635798
0.00728225
0.00878211
0.0105833
0.0119392
0.0130521
0.0134957
0.013595
0.0135915
0.0135272
0.0133801
0.0131374
0.0128077
0.0123598
0.0116908
0.010997
0.010807
0.0108547
0.0112649
0.0118825
0.0123158
0.0125736
0.0126837
0.0126849
0.0126323
0.0124918
0.0121886
0.011673
0.0109858
0.0101828
0.00934036
0.00855321
0.00788346
0.00744911
0.00737603
0.00747913
0.00788061
0.0086918
0.00945389
0.00971711
0.00942806
0.00874397
0.00792812
0.00702958
0.00642704
0.00631058
0.00650982
0.00756639
0.00882105
0.00903417
0.00868381
0.00790638
0.0077699
0.00789781
0.00832983
0.00852428
0.00849062
0.00810299
0.00646004
0.00500311
0.00442712
0.00440645
0.00473576
0.00595033
0.00796368
0.0096941
0.010919
0.0111722
0.0108874
0.00899058
0.00559409
0.00386163
0.00313091
0.00284382
0.00276876
0.00277415
0.00286219
0.00299192
0.00300782
0.002963
0.00270568
0.00241032
0.00232983
0.00233457
0.0023742
0.00238789
0.00239067
0.00241431
0.00255267
0.00286024
0.00332753
0.00477752
0.00698308
0.00647716
0.00361176
0.00320679
0.00357291
0.00440577
0.00472159
0.0047683
0.00514616
0.00549843
0.00571246
0.00610041
0.00666449
0.00682722
0.00673973
0.00625119
0.00596462
0.00591594
0.00591898
0.00598128
0.0061762
0.00662106
0.00744097
0.00872381
0.0102208
0.0119143
0.0129556
0.0132224
0.0132234
0.0130386
0.0125289
0.0115088
0.00953564
0.00648427
0.00475173
0.00405537
0.00378632
0.00372894
0.00378639
0.00401579
0.00453371
0.00556873
0.00705189
0.00905022
0.0112876
0.0122856
0.0124912
0.0124833
0.0123496
0.0120519
0.0116229
0.0111322
0.0106612
0.0102484
0.00997277
0.00988886
0.00992169
0.0100373
0.0101516
0.0100337
0.00956495
0.00878344
0.00802216
0.00726464
0.00655701
0.00625995
0.00629619
0.00678155
0.00815821
0.00900146
0.00903392
0.00856184
0.00807032
0.00803099
0.00819888
0.00849987
0.00861884
0.00860807
0.00849473
0.00783118
0.00596068
0.00488945
0.00455954
0.00462593
0.00503969
0.00622741
0.00815794
0.00981715
0.0102599
0.0100919
0.0086787
0.00548186
0.00382653
0.00313942
0.00289906
0.00284456
0.00285342
0.00293562
0.00306266
0.0030924
0.00306882
0.00289116
0.0025235
0.00237878
0.00236835
0.00239995
0.00242674
0.00244321
0.00249231
0.00269386
0.00297075
0.00341963
0.00492587
0.00697459
0.00645109
0.00361516
0.0032566
0.00374
0.00453637
0.00475504
0.00466253
0.00500189
0.00538941
0.00563201
0.0059076
0.00651236
0.00692639
0.00696019
0.00659118
0.00607183
0.00594095
0.00593336
0.00600131
0.00624186
0.00671053
0.00744472
0.00855449
0.010126
0.0118016
0.0123763
0.0123707
0.0117517
0.0101076
0.00687531
0.00429738
0.00325832
0.00291318
0.00282481
0.00284206
0.00309137
0.00355729
0.00390165
0.00397869
0.00391225
0.00387583
0.00404437
0.00462833
0.00582249
0.00828441
0.0111942
0.0122343
0.0123937
0.0123617
0.0122122
0.011951
0.0116139
0.0113138
0.0110869
0.010919
0.0107505
0.0105101
0.0101701
0.00957405
0.00871683
0.00796298
0.00736777
0.00671135
0.00626442
0.00618134
0.00633705
0.00716511
0.00848987
0.00900674
0.00896557
0.00853872
0.00825478
0.00824313
0.00837281
0.00854862
0.00863202
0.00862464
0.00856269
0.00831403
0.00712179
0.0055092
0.00480959
0.00468603
0.00481184
0.00531015
0.00670604
0.00868887
0.00927727
0.00905851
0.00736728
0.00465067
0.00348171
0.00307861
0.00294255
0.00292449
0.00294243
0.00302088
0.00312285
0.00315968
0.003149
0.003026
0.00264035
0.00243007
0.00240257
0.00242726
0.00247393
0.00251374
0.00261019
0.00286933
0.00308711
0.00353231
0.00521886
0.00698888
0.00623147
0.00356651
0.00332243
0.00392678
0.00462951
0.00477941
0.00450803
0.00474787
0.00511851
0.00547285
0.00569987
0.00608214
0.0068569
0.00723348
0.00723555
0.00674386
0.00618029
0.0060464
0.00605746
0.00622847
0.00668165
0.00743594
0.00856755
0.0102867
0.0112763
0.0113212
0.0102353
0.00728136
0.00434741
0.00321292
0.00286972
0.00281589
0.00298291
0.00357341
0.00467736
0.00578994
0.00655322
0.00689298
0.00693966
0.00675691
0.00626803
0.0052534
0.00468169
0.00464675
0.00506465
0.00653257
0.00978222
0.0118157
0.0122257
0.012211
0.0120125
0.0116406
0.0112869
0.0110128
0.0107663
0.0104665
0.0100052
0.00933313
0.00848482
0.00782663
0.00731625
0.00680464
0.00631524
0.00609925
0.00611819
0.0064146
0.00746689
0.00854388
0.00886383
0.00880408
0.00850349
0.00837467
0.00838053
0.00845677
0.00855702
0.00859467
0.00858444
0.00854745
0.00841103
0.00789237
0.00626449
0.00517421
0.00481439
0.00481658
0.00503654
0.00589644
0.00777313
0.0083824
0.00807881
0.00599064
0.00392601
0.00327015
0.00305264
0.00300017
0.00300703
0.00304233
0.0030908
0.00316048
0.00320232
0.00320191
0.00312324
0.00277051
0.0024952
0.00244463
0.00246595
0.00252422
0.00258652
0.00276663
0.00301192
0.00318917
0.00370308
0.0056591
0.00699701
0.00595079
0.00348527
0.00339765
0.00407906
0.00467752
0.00480202
0.00433049
0.00443505
0.00465794
0.0050771
0.00547238
0.00569729
0.00611723
0.00696246
0.00766005
0.00777309
0.00748581
0.00678695
0.00653008
0.00652675
0.0067968
0.00757638
0.00901422
0.0103514
0.0105913
0.00960387
0.00649904
0.00395112
0.00310463
0.00293116
0.00295772
0.00337204
0.00442668
0.00571547
0.00636156
0.00672956
0.00692282
0.00702757
0.00706946
0.00715914
0.00725146
0.0071153
0.00628305
0.00511514
0.00472837
0.0048264
0.00590105
0.00880111
0.0111225
0.0116291
0.0115886
0.0110574
0.0104786
0.00999091
0.0095611
0.0090995
0.00857578
0.00803023
0.007545
0.00713691
0.00676589
0.00636016
0.00606384
0.00599347
0.00606066
0.00647011
0.00758293
0.00841282
0.00863521
0.00860459
0.00848764
0.00844168
0.00844364
0.00848078
0.00849732
0.00846479
0.00841891
0.00840553
0.00836492
0.00813665
0.00708981
0.00563891
0.00501406
0.00489714
0.00500666
0.00566255
0.00725585
0.00763057
0.00705836
0.00469704
0.00350401
0.00318981
0.00309608
0.00308485
0.00309496
0.00310297
0.00312029
0.00316781
0.0032243
0.00323556
0.00318141
0.00286951
0.00255496
0.00249077
0.00250847
0.00256434
0.00268358
0.00295676
0.00311904
0.00328551
0.00399185
0.00616601
0.00695339
0.00555279
0.00341251
0.00350027
0.0042249
0.00473335
0.00485553
0.00415468
0.00412842
0.00417387
0.00439735
0.0048907
0.00538685
0.00565355
0.00597914
0.00659533
0.00780961
0.00866933
0.00881047
0.00860765
0.00825973
0.00824441
0.00860638
0.00976428
0.0102342
0.00971869
0.00711364
0.00420893
0.00320715
0.00300991
0.00304287
0.0034964
0.00452569
0.00533416
0.00568141
0.00622631
0.00657726
0.00659435
0.00631049
0.00596292
0.0059115
0.00615628
0.00658679
0.00663077
0.0060473
0.00485227
0.00439463
0.00448283
0.00574385
0.00806231
0.00948049
0.00990326
0.00962662
0.00915287
0.00864639
0.00821301
0.00782126
0.00746559
0.00713511
0.00686824
0.00661049
0.00632073
0.00604594
0.00590637
0.0059039
0.00600929
0.0064933
0.00754262
0.00818667
0.00841676
0.00846228
0.00845971
0.00844795
0.00844299
0.00840709
0.00831048
0.00817394
0.00810838
0.0081272
0.00819623
0.00814146
0.00764862
0.00618365
0.00528364
0.00501943
0.0050701
0.0056545
0.00694458
0.00698725
0.00580943
0.00382584
0.00330362
0.00317375
0.00316344
0.00315606
0.00313542
0.00311607
0.00312048
0.00315134
0.00322815
0.00325318
0.0031992
0.002883
0.00258524
0.00252981
0.00254875
0.00262246
0.00284901
0.00310452
0.00320113
0.00341753
0.00456664
0.00653383
0.00685164
0.00505439
0.00338501
0.00363845
0.00434634
0.00481891
0.00499415
0.00384845
0.00392897
0.00381797
0.00379974
0.00395266
0.00454025
0.00525396
0.00558435
0.00578138
0.00614666
0.0069805
0.00895327
0.0101037
0.0104891
0.0105951
0.010601
0.0104932
0.0100176
0.00833562
0.00507632
0.0034564
0.00306303
0.00303073
0.00327212
0.00393451
0.00469281
0.00510545
0.00587025
0.00646373
0.00650139
0.00615187
0.00543433
0.00498428
0.00485582
0.00484912
0.005067
0.00546257
0.00551785
0.00471755
0.00408772
0.00401566
0.00452597
0.00595236
0.00727844
0.00795703
0.00813993
0.00802792
0.00774727
0.00742378
0.00711587
0.00684489
0.00661219
0.0064046
0.00621905
0.00602012
0.00585948
0.00581332
0.00583444
0.00598158
0.00653512
0.00747678
0.00805581
0.00832533
0.00841148
0.00842456
0.00839856
0.00831538
0.00814414
0.00791677
0.00777794
0.00775841
0.00783504
0.00805545
0.00807722
0.00782211
0.00660795
0.00548653
0.005126
0.00516182
0.00581778
0.00663293
0.00636027
0.00444359
0.00342944
0.00324049
0.00323327
0.00321945
0.00318336
0.00312789
0.00306073
0.00306577
0.00310069
0.00321092
0.00325717
0.00319435
0.00285875
0.0025992
0.00256599
0.00259443
0.00272322
0.00304226
0.00319097
0.0032654
0.00367328
0.00549338
0.0066411
0.0066649
0.0045771
0.00338693
0.00379692
0.00438643
0.00486424
0.00528983
0.00305251
0.00350154
0.0035214
0.00336287
0.00331574
0.00345526
0.00417849
0.00516296
0.00555723
0.00572571
0.00586676
0.00637798
0.00833927
0.010374
0.0108547
0.0108884
0.0105293
0.00927441
0.00663885
0.00401897
0.00312955
0.00296162
0.00299212
0.00328719
0.00388071
0.00445455
0.00514154
0.00615628
0.00636648
0.0061972
0.00562452
0.00504324
0.00474551
0.00460778
0.00449589
0.00440917
0.00435214
0.00432931
0.00417746
0.00392812
0.00391433
0.00416488
0.00502677
0.00594415
0.0065582
0.00682823
0.00692613
0.00689134
0.00676801
0.00659941
0.0064262
0.00626577
0.00611738
0.00597713
0.0058326
0.00575232
0.00574938
0.00579507
0.00600419
0.00667823
0.00756984
0.0081015
0.00832667
0.00836522
0.00831861
0.00816941
0.00786987
0.00756444
0.00739984
0.00736576
0.00742394
0.00770044
0.00800361
0.00804765
0.00784713
0.00671391
0.00553389
0.00516666
0.00523733
0.00600371
0.00628641
0.00546258
0.00360433
0.00327878
0.00327043
0.00327659
0.00323722
0.0031323
0.00291715
0.00289969
0.00292764
0.00302267
0.00320493
0.00325262
0.00316365
0.00279865
0.00260983
0.00259791
0.00265543
0.00291541
0.0031737
0.00322016
0.00335164
0.00430311
0.00614389
0.00661545
0.0063789
0.00406897
0.00342523
0.00396421
0.00437077
0.00483066
0.00563852
0.00251929
0.00277121
0.00303712
0.00303662
0.00291673
0.00288463
0.00308246
0.00396564
0.00523434
0.00566501
0.00573525
0.00569083
0.00599781
0.00802851
0.0102352
0.0105669
0.0101112
0.00825973
0.00529076
0.00344665
0.00290968
0.00282458
0.00288465
0.00317477
0.00362854
0.00416962
0.00527008
0.00598315
0.00600565
0.00559998
0.00500949
0.00472556
0.00462536
0.00458515
0.00455994
0.00446719
0.00432873
0.00417884
0.00404256
0.00399145
0.00398422
0.00414494
0.00466742
0.00519873
0.00556164
0.00579595
0.00596021
0.00606577
0.00612148
0.00610545
0.00605564
0.00598146
0.00588406
0.00577663
0.00569842
0.00568207
0.00570688
0.00581769
0.00621682
0.00715984
0.0079129
0.00823262
0.00827134
0.00818759
0.00791699
0.00746927
0.00714478
0.00697723
0.0069687
0.00702294
0.00723053
0.00767972
0.00797916
0.00801707
0.00781042
0.00665236
0.00550297
0.00517597
0.00534443
0.00607516
0.00593944
0.00412539
0.00327052
0.00326347
0.00333726
0.00329537
0.00313113
0.00276635
0.00267314
0.00270672
0.00282928
0.00305395
0.00320809
0.00322045
0.00304249
0.00270505
0.00261934
0.00263691
0.00279597
0.00312839
0.00320663
0.00324069
0.00371289
0.00550741
0.00631639
0.00640967
0.00591725
0.0037177
0.00349839
0.00405211
0.00431889
0.00479695
0.00572693
0.00235308
0.0024093
0.00253142
0.00265238
0.0026237
0.00256218
0.00256914
0.00290856
0.00409682
0.00566828
0.00599659
0.00566595
0.00547647
0.00597151
0.00868194
0.00977506
0.00951609
0.00735493
0.00442346
0.00310901
0.00274322
0.00268616
0.0027183
0.00289455
0.00324477
0.00391892
0.00496368
0.0052251
0.00493304
0.00411924
0.00370799
0.00361247
0.00361087
0.00380744
0.00421026
0.00442226
0.00451001
0.00453398
0.00443272
0.00430515
0.00425399
0.00427099
0.00453065
0.00483621
0.0049935
0.00516328
0.00532192
0.00546047
0.00557734
0.00565312
0.00568733
0.00568424
0.00566236
0.00562838
0.00562327
0.0056507
0.00574319
0.00606789
0.00695579
0.00780926
0.00814967
0.00815207
0.00799828
0.00752017
0.00700714
0.0066659
0.00656037
0.00656525
0.00660995
0.00676635
0.00713817
0.00758698
0.00788766
0.00791544
0.00765156
0.0063786
0.00537041
0.00516958
0.00556792
0.00595257
0.00528129
0.00342472
0.00318182
0.00337549
0.00336909
0.00316864
0.00270138
0.0025507
0.00256943
0.00268999
0.00289273
0.00311337
0.00317538
0.0030776
0.00281129
0.00266215
0.00264383
0.00273878
0.00305248
0.00319326
0.0031867
0.00343036
0.0049617
0.00596921
0.00616678
0.00620939
0.00531257
0.003589
0.00358434
0.00405826
0.0042567
0.00470113
0.00561765
0.00237087
0.00229675
0.00230784
0.002343
0.00236176
0.00233902
0.0023222
0.0024699
0.00315881
0.00506413
0.00608427
0.00609051
0.00541318
0.00531057
0.00660606
0.00882391
0.00890868
0.00681862
0.0039731
0.00285752
0.00254035
0.00248005
0.00248221
0.00256545
0.00283536
0.00344625
0.00381224
0.00371708
0.00306402
0.00234237
0.00204519
0.00195272
0.00193512
0.00200635
0.00226721
0.00280499
0.00352463
0.00427128
0.00464253
0.00474759
0.00466507
0.00458772
0.0045699
0.00472636
0.00481888
0.00492475
0.00504842
0.00516963
0.00528353
0.00538346
0.00545882
0.00551129
0.00554714
0.00557693
0.0056258
0.00573914
0.00610658
0.00701195
0.00780209
0.00805607
0.00800679
0.00766597
0.00701698
0.00651069
0.00624464
0.00616485
0.00612103
0.00611267
0.00617161
0.006357
0.00673275
0.00725494
0.00762905
0.00765788
0.00729992
0.00596429
0.00520832
0.00516695
0.00569968
0.00563941
0.00410966
0.00312441
0.00317703
0.00346915
0.00330554
0.00270709
0.00250835
0.00250178
0.00259333
0.00277036
0.00297302
0.00307982
0.00301004
0.0028286
0.0027072
0.00266682
0.00272517
0.00298879
0.00315732
0.00314477
0.00325357
0.00456475
0.0056934
0.00583397
0.00589102
0.00604494
0.00467371
0.00355928
0.00364379
0.00403653
0.00418308
0.00455713
0.00537754
0.00261824
0.00230108
0.00222974
0.002207
0.00219609
0.00217692
0.00217368
0.00229301
0.0028416
0.00459774
0.00608852
0.00622674
0.0057771
0.00515114
0.00554742
0.00777469
0.00828596
0.0065074
0.00372074
0.00266234
0.00233744
0.00225421
0.00224146
0.00227308
0.00243132
0.00264051
0.00266498
0.00245488
0.0020593
0.001727
0.00155768
0.00147928
0.00144519
0.00143725
0.00145696
0.00154157
0.00172608
0.00208398
0.00274431
0.00382357
0.00479594
0.00525707
0.00531953
0.00498456
0.00492104
0.00494724
0.00503446
0.00513251
0.00523421
0.00532958
0.00542467
0.00550225
0.00556574
0.00565498
0.00585989
0.00639344
0.00728014
0.00782315
0.00791906
0.00772895
0.00708086
0.00652533
0.00616506
0.00594237
0.00573588
0.0055318
0.00540407
0.00535165
0.00540131
0.00559119
0.00605464
0.00670117
0.00716592
0.00719597
0.00672737
0.00553158
0.00508723
0.00518871
0.00573347
0.00529186
0.00346834
0.00305209
0.00336931
0.00349044
0.00286192
0.00251069
0.00247712
0.00253484
0.00266859
0.0028311
0.00292563
0.00292521
0.00279414
0.00272729
0.00270256
0.00273224
0.00294653
0.00309554
0.00310895
0.003147
0.00424169
0.00558042
0.00545915
0.00540378
0.00577727
0.00581931
0.00434139
0.00355226
0.00366609
0.00400258
0.00410909
0.00440818
0.00513521
0.0033817
0.00239457
0.0022038
0.00215098
0.0021209
0.00210136
0.00210774
0.00223656
0.00276174
0.00449675
0.0059927
0.00622967
0.00597065
0.00516516
0.0050713
0.00675119
0.00770782
0.00638999
0.00357653
0.00249122
0.0021444
0.00203406
0.00200465
0.00200157
0.00202955
0.00204708
0.00200156
0.00187172
0.0017248
0.00161039
0.00151773
0.00143769
0.00138978
0.00136461
0.00135215
0.00135089
0.00137708
0.00144952
0.00159826
0.00186997
0.00233477
0.00310646
0.00457446
0.00577949
0.00612114
0.00583468
0.00548304
0.00540757
0.00544032
0.00550219
0.00560116
0.00574735
0.0059583
0.0063676
0.00702108
0.00758356
0.00773947
0.00761446
0.00706731
0.00654389
0.0062194
0.00600034
0.00563843
0.00523497
0.00495021
0.00481825
0.00475468
0.00472767
0.00475101
0.00492625
0.00530949
0.00594366
0.00647248
0.00652989
0.00602841
0.0052109
0.00502918
0.00529409
0.00561799
0.00453051
0.0031799
0.00305021
0.00350358
0.00329244
0.00258888
0.0024815
0.00250411
0.00258678
0.00270572
0.00278849
0.00280802
0.00276279
0.00273249
0.00272604
0.00275056
0.00291578
0.00302934
0.00306445
0.0030979
0.00399996
0.00562341
0.00525933
0.00494116
0.00526912
0.00571085
0.00548589
0.00421929
0.00353692
0.00362989
0.0039584
0.00404791
0.00426602
0.00488462
0.00388425
0.00266285
0.0022266
0.0021219
0.00208383
0.00207006
0.00209074
0.00227725
0.00312813
0.00520758
0.00594403
0.00616362
0.00605173
0.00533028
0.00488248
0.00594057
0.00724173
0.0064756
0.00362123
0.00239192
0.00200283
0.00187387
0.00182683
0.00180667
0.00179433
0.00177645
0.0017458
0.00171393
0.00170022
0.00170867
0.00171854
0.00169201
0.00163602
0.0015481
0.00143256
0.00137656
0.00136296
0.00139004
0.0014706
0.00162544
0.00187841
0.00215536
0.0023944
0.00284865
0.00412901
0.00601447
0.00659055
0.00668659
0.00669357
0.00669639
0.00677441
0.00699949
0.00728104
0.00749804
0.00754709
0.00741299
0.00693462
0.00644132
0.00619883
0.00606684
0.00578454
0.00524592
0.00491157
0.00473701
0.00463364
0.00456769
0.00452427
0.00448862
0.00444341
0.00442348
0.00454943
0.00501279
0.00559059
0.00575526
0.00543268
0.0050261
0.00500485
0.00533539
0.00529582
0.00384891
0.0030882
0.00315974
0.00354065
0.00295182
0.0025339
0.00250305
0.00254812
0.00262677
0.00269454
0.00272663
0.00273299
0.00272736
0.00273761
0.00276789
0.0028691
0.00296501
0.00301683
0.00308664
0.00398691
0.00592809
0.0051301
0.00477502
0.00486318
0.00520134
0.00543534
0.00532155
0.00420007
0.00352654
0.00353856
0.00389164
0.00399131
0.0041304
0.00462427
0.00377573
0.00284604
0.00233022
0.00213842
0.00207167
0.00206541
0.00216841
0.00274727
0.00449399
0.00561306
0.0058945
0.00602337
0.00601671
0.00540765
0.00479722
0.0053694
0.00684696
0.00659687
0.00385408
0.00238202
0.00191635
0.0017721
0.00172968
0.00171762
0.00171535
0.00173513
0.00178182
0.00185965
0.00203142
0.00233861
0.00257205
0.00265169
0.00265477
0.00240946
0.001993
0.0016553
0.00151125
0.00146876
0.00148017
0.00163402
0.00197128
0.00220651
0.00229517
0.00236321
0.00252018
0.0030559
0.00474703
0.0061353
0.00667279
0.00690923
0.00702157
0.00711217
0.0071257
0.00694111
0.00654234
0.00612919
0.00596464
0.00593118
0.00586627
0.00549306
0.00500907
0.00479228
0.00468973
0.00461282
0.00453643
0.00447034
0.00442262
0.00437346
0.00428085
0.00417981
0.00415991
0.00427654
0.00466174
0.00499318
0.00499214
0.0048927
0.0049884
0.00532233
0.00503252
0.00356676
0.0030663
0.00328159
0.00353665
0.00283183
0.00253916
0.00253664
0.00259432
0.00265185
0.00269125
0.00271512
0.00272633
0.00273474
0.00276754
0.00282588
0.00289672
0.00296759
0.00308283
0.00398886
0.00606121
0.00495325
0.00471147
0.00474819
0.00487171
0.00506613
0.00525579
0.0052258
0.00443359
0.0035588
0.0034609
0.00379296
0.00391622
0.00398703
0.00431332
0.0032418
0.00260165
0.00227672
0.00214934
0.00212439
0.00221058
0.00270554
0.00433236
0.0054742
0.00570692
0.00576423
0.00579347
0.0058318
0.0054402
0.00476776
0.00493855
0.00644962
0.00663353
0.00432705
0.00246092
0.0019009
0.00172756
0.00168814
0.00168488
0.00170951
0.001787
0.00197922
0.00240568
0.00314966
0.00392475
0.00428576
0.00444867
0.00450383
0.004331
0.00361637
0.00262036
0.00196905
0.00173802
0.00168851
0.00180045
0.00237784
0.00299798
0.00295471
0.00274552
0.00253402
0.0025263
0.00283477
0.00357178
0.00451349
0.00514393
0.00542468
0.00551577
0.0054575
0.00537321
0.00548749
0.00568775
0.00574755
0.00565987
0.00522782
0.00489413
0.00475859
0.00470141
0.0046385
0.0045723
0.004492
0.00441452
0.00434716
0.0042758
0.0041796
0.00406412
0.00400739
0.00399773
0.00408788
0.00432759
0.00459686
0.00472442
0.00496247
0.00522113
0.0048219
0.00345531
0.00307069
0.00332334
0.00350586
0.00280223
0.00256166
0.00257017
0.00263453
0.00267614
0.00270374
0.00272138
0.00273128
0.00275062
0.0027846
0.00284477
0.0029255
0.00308387
0.00391701
0.00582794
0.00497462
0.00467008
0.00472221
0.00482559
0.00492703
0.00504456
0.0051689
0.00516908
0.00473297
0.00370698
0.00340945
0.00355797
0.0038136
0.0038665
0.00401655
0.00286316
0.00248916
0.00235819
0.00234888
0.00249448
0.00307099