/*--------------------------------*- C++ -*----------------------------------*\
  =========                 |
  \\      /  F ield         | OpenFOAM: The Open Source CFD Toolbox
   \\    /   O peration     | Website:  https://openfoam.org
    \\  /    A nd           | Version:  10
     \\/     M anipulation  |
\*---------------------------------------------------------------------------*/
FoamFile
{
    format      ascii;
    class       volVectorField;
    location    "0.750416";
    object      U;
}
// * * * * * * * * * * * * * * * * * * * * * * * * * * * * * * * * * * * * * //

dimensions      [0 1 -1 0 0 0 0];

internalField   nonuniform List<vector> 
16320
(
(-0.304746 -0.126205 0)
(-0.280525 -0.139353 0)
(-0.250271 -0.146325 0)
(-0.214041 -0.143897 0)
(-0.170911 -0.128607 0)
(-0.118073 -0.0961331 0)
(-0.0658066 -0.055223 0)
(-0.0213146 -0.0117174 0)
(0.0175902 0.036285 0)
(0.0476797 0.0844712 0)
(0.0631173 0.131072 0)
(0.0643756 0.175184 0)
(0.0592031 0.201974 0)
(0.0614263 0.220996 0)
(0.0601134 0.240651 0)
(0.0586436 0.258955 0)
(0.0631989 0.271689 0)
(0.0729748 0.276778 0)
(0.0810166 0.272523 0)
(0.0932678 0.26051 0)
(0.111351 0.249145 0)
(0.13221 0.241284 0)
(0.153569 0.237318 0)
(0.174101 0.23658 0)
(0.193316 0.238134 0)
(0.211301 0.241509 0)
(0.228165 0.246499 0)
(0.244202 0.252913 0)
(0.259373 0.260082 0)
(0.273651 0.267624 0)
(0.286967 0.275141 0)
(0.298978 0.28176 0)
(0.3091 0.288269 0)
(0.316772 0.295805 0)
(0.321873 0.305094 0)
(0.323895 0.317608 0)
(0.3239 0.335068 0)
(0.320601 0.358993 0)
(0.311215 0.389139 0)
(0.294326 0.424137 0)
(0.274399 0.462635 0)
(0.260938 0.501509 0)
(0.258729 0.536269 0)
(0.267012 0.563765 0)
(0.284948 0.584695 0)
(0.310627 0.599212 0)
(0.341347 0.608094 0)
(0.375268 0.608558 0)
(0.410412 0.600985 0)
(0.44295 0.584489 0)
(0.471058 0.560474 0)
(0.490697 0.529738 0)
(0.502462 0.493387 0)
(0.514113 0.443497 0)
(0.521902 0.375211 0)
(0.521081 0.289887 0)
(0.520664 0.191159 0)
(0.521498 0.0945784 0)
(0.502898 0.0211727 0)
(0.456323 -0.0210635 0)
(0.406772 -0.0315012 0)
(0.36478 -0.0305249 0)
(0.319901 -0.0400373 0)
(0.282224 -0.0644717 0)
(0.239385 -0.109543 0)
(0.190235 -0.165684 0)
(0.148479 -0.215211 0)
(0.121069 -0.241049 0)
(0.101088 -0.253726 0)
(0.0875509 -0.257561 0)
(0.0846854 -0.256209 0)
(0.0891604 -0.252936 0)
(0.0969695 -0.248564 0)
(0.107952 -0.242825 0)
(0.119186 -0.238347 0)
(0.129396 -0.245775 0)
(0.127361 -0.281747 0)
(0.105453 -0.346337 0)
(0.0732578 -0.406518 0)
(0.0478937 -0.430645 0)
(0.0438303 -0.418577 0)
(0.0488774 -0.38422 0)
(0.061734 -0.353393 0)
(0.0703108 -0.32844 0)
(0.0796845 -0.307916 0)
(0.0881504 -0.286537 0)
(0.0962774 -0.258966 0)
(0.107513 -0.223656 0)
(0.121302 -0.177949 0)
(0.138711 -0.122453 0)
(0.159695 -0.0661695 0)
(0.181127 -0.0160927 0)
(0.202509 0.0234793 0)
(0.218905 0.051945 0)
(0.2276 0.0671372 0)
(0.230113 0.0671297 0)
(0.228734 0.0536178 0)
(0.22548 0.0291485 0)
(0.197224 0.00620396 0)
(0.140964 -0.0372887 0)
(0.0908717 -0.104449 0)
(0.0480753 -0.184615 0)
(-0.0035258 -0.273379 0)
(-0.0531865 -0.361364 0)
(-0.0950058 -0.458027 0)
(-0.1168 -0.495199 0)
(-0.108956 -0.454353 0)
(-0.100211 -0.370264 0)
(-0.100763 -0.305475 0)
(-0.104586 -0.258918 0)
(-0.112654 -0.222127 0)
(-0.118288 -0.189725 0)
(-0.126613 -0.148579 0)
(-0.310938 -0.131265 0)
(-0.288639 -0.148415 0)
(-0.260824 -0.159721 0)
(-0.228221 -0.162561 0)
(-0.190643 -0.153609 0)
(-0.145821 -0.127552 0)
(-0.0904156 -0.0830778 0)
(-0.0404545 -0.0323717 0)
(-0.000820277 0.0232976 0)
(0.0294028 0.0861565 0)
(0.0449256 0.145138 0)
(0.0504424 0.191647 0)
(0.0451153 0.223957 0)
(0.0420196 0.241235 0)
(0.0388091 0.254286 0)
(0.033217 0.26572 0)
(0.0321746 0.274018 0)
(0.0383208 0.273004 0)
(0.0458437 0.262158 0)
(0.0556812 0.243845 0)
(0.0715081 0.226723 0)
(0.0901486 0.215573 0)
(0.10937 0.210534 0)
(0.127831 0.209822 0)
(0.145044 0.211924 0)
(0.161198 0.215868 0)
(0.176556 0.221303 0)
(0.191647 0.228089 0)
(0.206555 0.235836 0)
(0.221334 0.244271 0)
(0.235648 0.253054 0)
(0.248988 0.261846 0)
(0.260904 0.270578 0)
(0.270703 0.279786 0)
(0.278159 0.289933 0)
(0.282827 0.302414 0)
(0.285281 0.318674 0)
(0.28538 0.338695 0)
(0.282194 0.364593 0)
(0.275693 0.397948 0)
(0.267337 0.439711 0)
(0.259415 0.485673 0)
(0.256018 0.527346 0)
(0.261616 0.561475 0)
(0.277133 0.586925 0)
(0.300919 0.60419 0)
(0.32916 0.613734 0)
(0.360568 0.616732 0)
(0.393448 0.609875 0)
(0.424379 0.592785 0)
(0.450915 0.56714 0)
(0.473085 0.533991 0)
(0.488971 0.494449 0)
(0.499323 0.444516 0)
(0.50678 0.377355 0)
(0.508624 0.295467 0)
(0.513053 0.199148 0)
(0.515122 0.110092 0)
(0.490546 0.0474975 0)
(0.441295 0.0141695 0)
(0.395596 0.00828894 0)
(0.354888 0.00317953 0)
(0.31294 -0.0158367 0)
(0.27654 -0.0475459 0)
(0.230811 -0.104067 0)
(0.181481 -0.16196 0)
(0.144362 -0.209615 0)
(0.118779 -0.234419 0)
(0.0964315 -0.248881 0)
(0.0838233 -0.252797 0)
(0.0823416 -0.250315 0)
(0.0873897 -0.245223 0)
(0.095391 -0.238871 0)
(0.106675 -0.23134 0)
(0.118015 -0.224651 0)
(0.128418 -0.227576 0)
(0.130907 -0.254637 0)
(0.11935 -0.308811 0)
(0.0925777 -0.366881 0)
(0.0652786 -0.40025 0)
(0.0569689 -0.400385 0)
(0.0602122 -0.377325 0)
(0.0707944 -0.348473 0)
(0.0788152 -0.324777 0)
(0.089524 -0.305364 0)
(0.0997211 -0.286368 0)
(0.109226 -0.26142 0)
(0.12149 -0.228765 0)
(0.13743 -0.187376 0)
(0.155735 -0.133651 0)
(0.175624 -0.0749015 0)
(0.196577 -0.0201034 0)
(0.216806 0.0258765 0)
(0.234542 0.0597096 0)
(0.246069 0.0822889 0)
(0.250956 0.0898757 0)
(0.250704 0.0835237 0)
(0.249672 0.0655864 0)
(0.236847 0.039751 0)
(0.196239 0.00454496 0)
(0.146242 -0.0556592 0)
(0.103818 -0.135421 0)
(0.056652 -0.223071 0)
(-0.00743048 -0.322711 0)
(-0.0588934 -0.432748 0)
(-0.09871 -0.51203 0)
(-0.102939 -0.488748 0)
(-0.09394 -0.39658 0)
(-0.0969636 -0.322555 0)
(-0.101358 -0.271831 0)
(-0.10983 -0.230848 0)
(-0.115484 -0.194264 0)
(-0.12251 -0.1487 0)
(-0.315842 -0.130945 0)
(-0.296095 -0.152041 0)
(-0.271025 -0.167331 0)
(-0.241738 -0.174201 0)
(-0.208239 -0.16912 0)
(-0.169773 -0.14778 0)
(-0.124278 -0.107521 0)
(-0.0750817 -0.0526841 0)
(-0.036096 0.00741648 0)
(-0.0041492 0.0831839 0)
(0.0134284 0.158823 0)
(0.0188129 0.217718 0)
(0.0180978 0.248813 0)
(0.0152572 0.262117 0)
(0.0117174 0.270603 0)
(0.00588863 0.275316 0)
(0.00322064 0.276748 0)
(0.00624014 0.270025 0)
(0.0132404 0.25367 0)
(0.0216069 0.229173 0)
(0.0343275 0.206754 0)
(0.0494017 0.192566 0)
(0.064957 0.186475 0)
(0.0798473 0.185653 0)
(0.0937545 0.187935 0)
(0.106877 0.191912 0)
(0.119547 0.197093 0)
(0.132343 0.20339 0)
(0.145441 0.210555 0)
(0.158975 0.218685 0)
(0.172725 0.227481 0)
(0.18627 0.237087 0)
(0.19928 0.247335 0)
(0.211073 0.258479 0)
(0.221228 0.271027 0)
(0.2293 0.285868 0)
(0.235356 0.304102 0)
(0.239248 0.326355 0)
(0.241416 0.353535 0)
(0.242116 0.386205 0)
(0.242922 0.424143 0)
(0.24507 0.465622 0)
(0.24995 0.507397 0)
(0.258614 0.545589 0)
(0.27236 0.575987 0)
(0.291781 0.597758 0)
(0.317747 0.611086 0)
(0.346704 0.615947 0)
(0.375658 0.611049 0)
(0.404181 0.594225 0)
(0.430795 0.569173 0)
(0.453413 0.535366 0)
(0.471138 0.493729 0)
(0.483927 0.44274 0)
(0.491928 0.383891 0)
(0.496049 0.295779 0)
(0.502369 0.20334 0)
(0.504836 0.124465 0)
(0.473535 0.0725555 0)
(0.425337 0.0468955 0)
(0.383527 0.0423458 0)
(0.342629 0.0294289 0)
(0.305466 0.00291179 0)
(0.267964 -0.0375182 0)
(0.219708 -0.101199 0)
(0.17349 -0.159816 0)
(0.141387 -0.202502 0)
(0.11523 -0.228817 0)
(0.0917207 -0.245205 0)
(0.0812406 -0.249235 0)
(0.0813654 -0.24539 0)
(0.0867602 -0.23818 0)
(0.0946823 -0.229708 0)
(0.106091 -0.22054 0)
(0.117202 -0.212033 0)
(0.126957 -0.212235 0)
(0.131801 -0.232716 0)
(0.127889 -0.276753 0)
(0.107721 -0.32921 0)
(0.0825102 -0.367651 0)
(0.0714759 -0.378248 0)
(0.0720468 -0.366794 0)
(0.0795842 -0.341357 0)
(0.0863461 -0.319907 0)
(0.0982771 -0.302161 0)
(0.110314 -0.285393 0)
(0.121604 -0.263 0)
(0.134524 -0.232517 0)
(0.151568 -0.193229 0)
(0.17108 -0.143032 0)
(0.191043 -0.0838991 0)
(0.211204 -0.0246424 0)
(0.230044 0.025919 0)
(0.246979 0.0661675 0)
(0.259532 0.0934946 0)
(0.266217 0.108334 0)
(0.267248 0.108173 0)
(0.264805 0.0953218 0)
(0.258768 0.071153 0)
(0.235053 0.0397841 0)
(0.192283 -0.0139416 0)
(0.151627 -0.0871041 0)
(0.110205 -0.174959 0)
(0.0485084 -0.273858 0)
(-0.0166736 -0.391482 0)
(-0.0746828 -0.511502 0)
(-0.0903986 -0.517031 0)
(-0.086945 -0.42203 0)
(-0.091752 -0.336626 0)
(-0.0976488 -0.283006 0)
(-0.106633 -0.238876 0)
(-0.11218 -0.198707 0)
(-0.119444 -0.147085 0)
(-0.319532 -0.126397 0)
(-0.303119 -0.151067 0)
(-0.281565 -0.16998 0)
(-0.256211 -0.180534 0)
(-0.227661 -0.17896 0)
(-0.19507 -0.161006 0)
(-0.157317 -0.122323 0)
(-0.117777 -0.0653154 0)
(-0.0854159 0.000316661 0)
(-0.0564614 0.0795577 0)
(-0.033231 0.164418 0)
(-0.0235391 0.235332 0)
(-0.0225897 0.271594 0)
(-0.0205639 0.279671 0)
(-0.0197715 0.286515 0)
(-0.0234105 0.285594 0)
(-0.0246365 0.280254 0)
(-0.020972 0.266734 0)
(-0.0146894 0.245402 0)
(-0.00960143 0.215829 0)
(4.10395e-05 0.189504 0)
(0.0113422 0.173035 0)
(0.0229199 0.165832 0)
(0.0341159 0.164739 0)
(0.0447108 0.166844 0)
(0.0546354 0.170622 0)
(0.0643454 0.175372 0)
(0.0743018 0.180937 0)
(0.0848574 0.187245 0)
(0.0961673 0.194563 0)
(0.108121 0.202781 0)
(0.120443 0.212139 0)
(0.133064 0.222726 0)
(0.14543 0.234541 0)
(0.157468 0.248322 0)
(0.16857 0.264653 0)
(0.178563 0.284357 0)
(0.187294 0.308327 0)
(0.195053 0.337376 0)
(0.202452 0.371353 0)
(0.210455 0.410005 0)
(0.220175 0.4509 0)
(0.232208 0.491088 0)
(0.246949 0.527296 0)
(0.264323 0.557922 0)
(0.284802 0.581692 0)
(0.307572 0.598753 0)
(0.333036 0.60593 0)
(0.358892 0.603163 0)
(0.385738 0.589507 0)
(0.411502 0.564575 0)
(0.433858 0.532083 0)
(0.453708 0.489818 0)
(0.471247 0.448304 0)
(0.474327 0.374086 0)
(0.471579 0.287914 0)
(0.493254 0.204107 0)
(0.489702 0.138164 0)
(0.451349 0.0963905 0)
(0.407024 0.0800045 0)
(0.368462 0.0713734 0)
(0.328319 0.0504877 0)
(0.295967 0.0178782 0)
(0.256813 -0.0343113 0)
(0.208353 -0.0994873 0)
(0.167124 -0.157619 0)
(0.139327 -0.194857 0)
(0.111841 -0.22437 0)
(0.0892945 -0.242786 0)
(0.081215 -0.246978 0)
(0.0826434 -0.241489 0)
(0.0881017 -0.231871 0)
(0.0956008 -0.221309 0)
(0.106911 -0.210784 0)
(0.117865 -0.201347 0)
(0.127183 -0.198588 0)
(0.133654 -0.212785 0)
(0.134917 -0.248467 0)
(0.121189 -0.29515 0)
(0.0988503 -0.335316 0)
(0.0863612 -0.353463 0)
(0.085061 -0.350024 0)
(0.08874 -0.331069 0)
(0.0939037 -0.313545 0)
(0.107005 -0.29851 0)
(0.120907 -0.283782 0)
(0.13392 -0.263238 0)
(0.147818 -0.234908 0)
(0.16491 -0.197041 0)
(0.184619 -0.149385 0)
(0.205251 -0.0913441 0)
(0.224238 -0.0296691 0)
(0.242039 0.0258214 0)
(0.25708 0.0707457 0)
(0.269416 0.103252 0)
(0.277023 0.123032 0)
(0.278621 0.128555 0)
(0.275774 0.120153 0)
(0.270231 0.0996307 0)
(0.253578 0.0676688 0)
(0.222403 0.0194516 0)
(0.187048 -0.047087 0)
(0.148896 -0.130973 0)
(0.0955238 -0.231509 0)
(0.0311906 -0.345262 0)
(-0.0422612 -0.485854 0)
(-0.0728319 -0.535983 0)
(-0.0795019 -0.44639 0)
(-0.0847886 -0.347216 0)
(-0.0935099 -0.290863 0)
(-0.103027 -0.244774 0)
(-0.108449 -0.201799 0)
(-0.117392 -0.144391 0)
(-0.323789 -0.117213 0)
(-0.311578 -0.145134 0)
(-0.294675 -0.167255 0)
(-0.274317 -0.181077 0)
(-0.251286 -0.182437 0)
(-0.225715 -0.166154 0)
(-0.196421 -0.127765 0)
(-0.167761 -0.0705243 0)
(-0.142371 -0.000596982 0)
(-0.117921 0.0817909 0)
(-0.093374 0.165979 0)
(-0.0771203 0.239619 0)
(-0.0694628 0.280664 0)
(-0.0601255 0.291763 0)
(-0.053791 0.297175 0)
(-0.0549141 0.293375 0)
(-0.0524299 0.282433 0)
(-0.0463211 0.262792 0)
(-0.0406331 0.23571 0)
(-0.0380973 0.202745 0)
(-0.0310626 0.174295 0)
(-0.0230677 0.156384 0)
(-0.0147242 0.148048 0)
(-0.00642381 0.146384 0)
(0.00142256 0.148172 0)
(0.00883388 0.151749 0)
(0.0161478 0.156116 0)
(0.0236612 0.161019 0)
(0.0316361 0.166508 0)
(0.0402713 0.172835 0)
(0.049625 0.180174 0)
(0.0595704 0.188714 0)
(0.0701799 0.198624 0)
(0.0811889 0.210088 0)
(0.0929177 0.223795 0)
(0.105179 0.240407 0)
(0.117625 0.260682 0)
(0.130486 0.28535 0)
(0.143524 0.314784 0)
(0.157124 0.348973 0)
(0.171915 0.387705 0)
(0.188581 0.429177 0)
(0.207278 0.470036 0)
(0.227745 0.50693 0)
(0.249453 0.537609 0)
(0.272176 0.561504 0)
(0.295952 0.578477 0)
(0.319843 0.588309 0)
(0.34414 0.588565 0)
(0.368531 0.576358 0)
(0.393543 0.553798 0)
(0.41759 0.520046 0)
(0.443042 0.488717 0)
(0.448916 0.425558 0)
(0.442106 0.353172 0)
(0.468448 0.272679 0)
(0.483285 0.202827 0)
(0.467007 0.150775 0)
(0.426173 0.1206 0)
(0.387083 0.110403 0)
(0.349652 0.0941827 0)
(0.314048 0.0659332 0)
(0.284292 0.0277179 0)
(0.243393 -0.0360788 0)
(0.198182 -0.0995645 0)
(0.163971 -0.1534 0)
(0.138038 -0.188814 0)
(0.110206 -0.220622 0)
(0.0899734 -0.240937 0)
(0.0829987 -0.245727 0)
(0.0853883 -0.238814 0)
(0.0914647 -0.226712 0)
(0.0986315 -0.213999 0)
(0.109536 -0.202228 0)
(0.120844 -0.193299 0)
(0.130043 -0.188536 0)
(0.136766 -0.196613 0)
(0.139401 -0.22436 0)
(0.132023 -0.265644 0)
(0.11555 -0.305636 0)
(0.104482 -0.329136 0)
(0.0988949 -0.331062 0)
(0.0982565 -0.315355 0)
(0.103211 -0.305856 0)
(0.117336 -0.294826 0)
(0.132709 -0.281893 0)
(0.147146 -0.262377 0)
(0.161879 -0.235403 0)
(0.178621 -0.198822 0)
(0.197378 -0.152861 0)
(0.21763 -0.0953534 0)
(0.236329 -0.0330483 0)
(0.252375 0.0272503 0)
(0.265988 0.0752744 0)
(0.276322 0.112182 0)
(0.283457 0.135619 0)
(0.285612 0.145743 0)
(0.282589 0.141474 0)
(0.275789 0.123924 0)
(0.260915 0.0926642 0)
(0.236899 0.0472346 0)
(0.207616 -0.0160505 0)
(0.173608 -0.0956356 0)
(0.126561 -0.19328 0)
(0.0705916 -0.308098 0)
(0.00093619 -0.44444 0)
(-0.0552333 -0.542593 0)
(-0.0701539 -0.467318 0)
(-0.0760311 -0.353777 0)
(-0.0890945 -0.294566 0)
(-0.0992353 -0.24739 0)
(-0.105083 -0.2023 0)
(-0.117376 -0.141103 0)
(-0.328494 -0.103285 0)
(-0.321379 -0.133706 0)
(-0.310229 -0.158129 0)
(-0.29587 -0.174017 0)
(-0.278792 -0.17754 0)
(-0.260862 -0.160964 0)
(-0.241925 -0.122366 0)
(-0.223289 -0.0669599 0)
(-0.203929 0.00250938 0)
(-0.181743 0.0835811 0)
(-0.15696 0.166522 0)
(-0.134899 0.238608 0)
(-0.117953 0.280682 0)
(-0.101184 0.296258 0)
(-0.090344 0.300764 0)
(-0.0866717 0.295074 0)
(-0.0802877 0.280059 0)
(-0.0716772 0.256035 0)
(-0.0664947 0.224385 0)
(-0.0646936 0.189396 0)
(-0.0587664 0.160194 0)
(-0.0519909 0.141248 0)
(-0.04553 0.131857 0)
(-0.0392241 0.129553 0)
(-0.0333573 0.131141 0)
(-0.0278804 0.134456 0)
(-0.0224788 0.138402 0)
(-0.0169238 0.142634 0)
(-0.0110328 0.147327 0)
(-0.00469324 0.152748 0)
(0.0020677 0.159242 0)
(0.00913238 0.166918 0)
(0.016657 0.175837 0)
(0.024755 0.186248 0)
(0.0340469 0.198935 0)
(0.0448185 0.214553 0)
(0.057083 0.234194 0)
(0.0713151 0.258565 0)
(0.0873659 0.287591 0)
(0.105541 0.320947 0)
(0.126198 0.358738 0)
(0.149168 0.399404 0)
(0.174268 0.44017 0)
(0.200609 0.477669 0)
(0.227064 0.509331 0)
(0.253617 0.534358 0)
(0.279688 0.551938 0)
(0.306138 0.561487 0)
(0.328613 0.562157 0)
(0.352033 0.553173 0)
(0.377241 0.530287 0)
(0.409027 0.504498 0)
(0.420734 0.453995 0)
(0.421778 0.387522 0)
(0.444891 0.321834 0)
(0.456628 0.255297 0)
(0.464901 0.203084 0)
(0.436645 0.164372 0)
(0.400015 0.147034 0)
(0.364931 0.133896 0)
(0.329292 0.110464 0)
(0.301287 0.0765366 0)
(0.270892 0.028882 0)
(0.230567 -0.0395997 0)
(0.192571 -0.100219 0)
(0.162925 -0.148223 0)
(0.138009 -0.184875 0)
(0.111799 -0.21745 0)
(0.0930976 -0.238804 0)
(0.0849042 -0.244765 0)
(0.0876881 -0.237212 0)
(0.0960156 -0.223287 0)
(0.103864 -0.208458 0)
(0.113864 -0.194977 0)
(0.124625 -0.186441 0)
(0.134036 -0.18155 0)
(0.141378 -0.184743 0)
(0.146757 -0.204725 0)
(0.144518 -0.23939 0)
(0.131969 -0.277785 0)
(0.12115 -0.306264 0)
(0.115688 -0.313848 0)
(0.111097 -0.299161 0)
(0.114716 -0.296635 0)
(0.130873 -0.290931 0)
(0.146956 -0.279447 0)
(0.162084 -0.260388 0)
(0.177104 -0.233792 0)
(0.192843 -0.197954 0)
(0.210815 -0.153019 0)
(0.229275 -0.0965408 0)
(0.24672 -0.034432 0)
(0.260835 0.0281296 0)
(0.272646 0.0808101 0)
(0.281623 0.120393 0)
(0.287022 0.147364 0)
(0.288619 0.160518 0)
(0.285279 0.159955 0)
(0.277559 0.144781 0)
(0.263843 0.115383 0)
(0.24349 0.071875 0)
(0.217975 0.0108204 0)
(0.187022 -0.0665265 0)
(0.143982 -0.162318 0)
(0.0963669 -0.275824 0)
(0.0376033 -0.407668 0)
(-0.0317441 -0.532438 0)
(-0.0576449 -0.480766 0)
(-0.0664178 -0.356069 0)
(-0.0845679 -0.294152 0)
(-0.0954428 -0.24638 0)
(-0.102903 -0.199506 0)
(-0.119368 -0.136282 0)
(-0.332411 -0.0834806 0)
(-0.330993 -0.115625 0)
(-0.326525 -0.141795 0)
(-0.319013 -0.159066 0)
(-0.307592 -0.163745 0)
(-0.297216 -0.147346 0)
(-0.28873 -0.109242 0)
(-0.27785 -0.0567101 0)
(-0.263176 0.00928108 0)
(-0.24203 0.0849999 0)
(-0.214961 0.163831 0)
(-0.188216 0.231851 0)
(-0.164085 0.274077 0)
(-0.141758 0.292807 0)
(-0.127022 0.297147 0)
(-0.117662 0.289611 0)
(-0.107366 0.271728 0)
(-0.0969547 0.245696 0)
(-0.091637 0.211904 0)
(-0.0883528 0.176191 0)
(-0.0810115 0.146315 0)
(-0.0738919 0.125969 0)
(-0.0683492 0.115632 0)
(-0.0632286 0.113238 0)
(-0.0588295 0.11485 0)
(-0.0546387 0.118021 0)
(-0.0503509 0.121882 0)
(-0.0459121 0.125848 0)
(-0.0413118 0.130254 0)
(-0.0365941 0.135243 0)
(-0.0319549 0.141355 0)
(-0.0276774 0.148619 0)
(-0.0235465 0.156769 0)
(-0.0190733 0.165814 0)
(-0.013378 0.176534 0)
(-0.00587298 0.190031 0)
(0.00372325 0.207559 0)
(0.015966 0.229863 0)
(0.0311469 0.257094 0)
(0.0501601 0.288771 0)
(0.0737769 0.324945 0)
(0.101043 0.363821 0)
(0.131237 0.403403 0)
(0.163048 0.440556 0)
(0.195195 0.472694 0)
(0.226315 0.498203 0)
(0.255853 0.515561 0)
(0.284523 0.524252 0)
(0.312907 0.521466 0)
(0.336306 0.512856 0)
(0.367293 0.493231 0)
(0.387104 0.458553 0)
(0.39991 0.395476 0)
(0.421535 0.349331 0)
(0.434973 0.284778 0)
(0.450091 0.245045 0)
(0.433965 0.206432 0)
(0.404563 0.183463 0)
(0.373103 0.169374 0)
(0.34036 0.14974 0)
(0.310831 0.120165 0)
(0.288434 0.0817601 0)
(0.257738 0.0213539 0)
(0.222422 -0.0444188 0)
(0.190409 -0.101692 0)
(0.164907 -0.144092 0)
(0.14205 -0.180896 0)
(0.119107 -0.213087 0)
(0.100628 -0.235174 0)
(0.088892 -0.242699 0)
(0.0894345 -0.234757 0)
(0.100428 -0.22159 0)
(0.111082 -0.205465 0)
(0.120908 -0.190058 0)
(0.132194 -0.180096 0)
(0.143373 -0.175892 0)
(0.151382 -0.175103 0)
(0.157032 -0.186257 0)
(0.158508 -0.215333 0)
(0.15015 -0.250883 0)
(0.139852 -0.281746 0)
(0.132133 -0.293559 0)
(0.126259 -0.285441 0)
(0.132868 -0.286765 0)
(0.148007 -0.286045 0)
(0.163649 -0.27595 0)
(0.178711 -0.256854 0)
(0.193492 -0.229893 0)
(0.208015 -0.194193 0)
(0.224502 -0.149324 0)
(0.240451 -0.0947135 0)
(0.254921 -0.0325954 0)
(0.267453 0.0304163 0)
(0.27716 0.0876363 0)
(0.284265 0.129073 0)
(0.287565 0.158339 0)
(0.288037 0.173953 0)
(0.284036 0.175665 0)
(0.275383 0.162529 0)
(0.26229 0.134567 0)
(0.244106 0.0918542 0)
(0.221836 0.0328844 0)
(0.193528 -0.0429674 0)
(0.152747 -0.137812 0)
(0.111003 -0.248901 0)
(0.062865 -0.379386 0)
(-0.00315895 -0.508968 0)
(-0.0442854 -0.48504 0)
(-0.0576131 -0.353971 0)
(-0.0804208 -0.289843 0)
(-0.092226 -0.24209 0)
(-0.102535 -0.193324 0)
(-0.123199 -0.12868 0)
(-0.333742 -0.0580427 0)
(-0.338889 -0.0913739 0)
(-0.341432 -0.118625 0)
(-0.340404 -0.136629 0)
(-0.334494 -0.141996 0)
(-0.33027 -0.127805 0)
(-0.329089 -0.0921547 0)
(-0.323744 -0.043112 0)
(-0.312332 0.0177091 0)
(-0.292241 0.0849472 0)
(-0.264 0.155166 0)
(-0.233461 0.217444 0)
(-0.204933 0.260305 0)
(-0.179676 0.281017 0)
(-0.161207 0.285611 0)
(-0.146244 0.277001 0)
(-0.132397 0.257866 0)
(-0.120601 0.231008 0)
(-0.112977 0.197476 0)
(-0.104935 0.161809 0)
(-0.0946524 0.130042 0)
(-0.086645 0.108004 0)
(-0.0801281 0.0978223 0)
(-0.0754198 0.0962584 0)
(-0.0720538 0.097653 0)
(-0.0685687 0.0995469 0)
(-0.0651255 0.102647 0)
(-0.0619292 0.105163 0)
(-0.0589137 0.107701 0)
(-0.0562425 0.110619 0)
(-0.0542212 0.117186 0)
(-0.053298 0.126045 0)
(-0.0531616 0.136453 0)
(-0.0525972 0.148311 0)
(-0.0501781 0.160577 0)
(-0.0454005 0.173588 0)
(-0.0385033 0.18849 0)
(-0.0294422 0.206769 0)
(-0.0176309 0.229089 0)
(-0.00169247 0.255867 0)
(0.0199465 0.288309 0)
(0.0473188 0.324686 0)
(0.0796169 0.362486 0)
(0.11465 0.398871 0)
(0.150519 0.430658 0)
(0.186265 0.455792 0)
(0.220753 0.473032 0)
(0.254196 0.480966 0)
(0.286707 0.47743 0)
(0.320198 0.462296 0)
(0.347171 0.443779 0)
(0.370626 0.395771 0)
(0.396287 0.361608 0)
(0.417189 0.311174 0)
(0.427553 0.277765 0)
(0.417697 0.242487 0)
(0.397873 0.217546 0)
(0.37262 0.201349 0)
(0.34423 0.183361 0)
(0.317103 0.158459 0)
(0.296296 0.124256 0)
(0.275857 0.0784008 0)
(0.24632 0.0107509 0)
(0.219294 -0.050676 0)
(0.192816 -0.103555 0)
(0.171425 -0.141807 0)
(0.151538 -0.177299 0)
(0.132598 -0.208197 0)
(0.1164 -0.231588 0)
(0.103873 -0.243117 0)
(0.0955853 -0.237962 0)
(0.103758 -0.221286 0)
(0.119172 -0.205269 0)
(0.130564 -0.188347 0)
(0.141333 -0.175632 0)
(0.153608 -0.170531 0)
(0.163687 -0.170515 0)
(0.169115 -0.173029 0)
(0.171117 -0.194616 0)
(0.168574 -0.226017 0)
(0.161926 -0.256856 0)
(0.153685 -0.272207 0)
(0.146631 -0.270098 0)
(0.155532 -0.278038 0)
(0.16829 -0.280519 0)
(0.182125 -0.271055 0)
(0.196546 -0.251202 0)
(0.210343 -0.223545 0)
(0.223346 -0.187404 0)
(0.237652 -0.142403 0)
(0.250578 -0.0891571 0)
(0.261757 -0.0276282 0)
(0.272288 0.035659 0)
(0.278331 0.0943482 0)
(0.283282 0.138658 0)
(0.285515 0.169193 0)
(0.283802 0.186398 0)
(0.278629 0.188977 0)
(0.269454 0.177623 0)
(0.256366 0.150507 0)
(0.239135 0.108059 0)
(0.219246 0.0498178 0)
(0.193818 -0.0246855 0)
(0.155502 -0.119884 0)
(0.119193 -0.227989 0)
(0.0796843 -0.35487 0)
(0.0209987 -0.484796 0)
(-0.0289738 -0.480973 0)
(-0.0499755 -0.347854 0)
(-0.0773102 -0.282015 0)
(-0.0901985 -0.234962 0)
(-0.104541 -0.184107 0)
(-0.12921 -0.118378 0)
(-0.330856 -0.0275113 0)
(-0.342025 -0.0617294 0)
(-0.35137 -0.0897461 0)
(-0.356643 -0.108427 0)
(-0.356194 -0.115198 0)
(-0.356806 -0.105038 0)
(-0.359479 -0.0730732 0)
(-0.356914 -0.0291528 0)
(-0.348423 0.0241934 0)
(-0.330054 0.0805648 0)
(-0.302086 0.141291 0)
(-0.271084 0.197483 0)
(-0.240628 0.238882 0)
(-0.213372 0.260557 0)
(-0.190925 0.265792 0)
(-0.171809 0.257155 0)
(-0.15539 0.23797 0)
(-0.140662 0.211416 0)
(-0.126731 0.178206 0)
(-0.111389 0.141436 0)
(-0.0973873 0.107133 0)
(-0.0862626 0.0854194 0)
(-0.0798626 0.0773592 0)
(-0.0790359 0.077515 0)
(-0.08187 0.0785239 0)
(-0.0846002 0.0762697 0)
(-0.0889172 0.074182 0)
(-0.0961277 0.0701408 0)
(-0.104562 0.0720017 0)
(-0.109554 0.0737188 0)
(-0.106329 0.0779321 0)
(-0.100585 0.0815329 0)
(-0.0928534 0.0838803 0)
(-0.0856628 0.0900777 0)
(-0.0818794 0.104023 0)
(-0.0790019 0.123785 0)
(-0.074788 0.147805 0)
(-0.0684269 0.175804 0)
(-0.0591929 0.201905 0)
(-0.0457763 0.226568 0)
(-0.0271291 0.253898 0)
(-0.00372926 0.28506 0)
(0.0262586 0.320034 0)
(0.0610111 0.355309 0)
(0.0978517 0.386833 0)
(0.136597 0.413082 0)
(0.175926 0.431827 0)
(0.214866 0.441422 0)
(0.25393 0.439799 0)
(0.293186 0.427418 0)
(0.326712 0.401363 0)
(0.355403 0.373548 0)
(0.380977 0.338332 0)
(0.392752 0.304029 0)
(0.387633 0.270648 0)
(0.377205 0.246762 0)
(0.361617 0.229053 0)
(0.339572 0.211273 0)
(0.31761 0.189986 0)
(0.29801 0.160589 0)
(0.284517 0.122504 0)
(0.264973 0.0657401 0)
(0.241308 -0.000273489 0)
(0.220943 -0.0575363 0)
(0.199587 -0.106397 0)
(0.18325 -0.141926 0)
(0.166998 -0.175636 0)
(0.152497 -0.204751 0)
(0.138704 -0.229541 0)
(0.128176 -0.24464 0)
(0.120167 -0.245824 0)
(0.117492 -0.227719 0)
(0.128626 -0.206222 0)
(0.142838 -0.189175 0)
(0.152953 -0.173801 0)
(0.164157 -0.165188 0)
(0.174871 -0.166299 0)
(0.18229 -0.170483 0)
(0.182953 -0.180967 0)
(0.183831 -0.205249 0)
(0.182271 -0.234388 0)
(0.176442 -0.252139 0)
(0.170803 -0.256371 0)
(0.180753 -0.270334 0)
(0.191853 -0.274985 0)
(0.203053 -0.26457 0)
(0.215023 -0.243773 0)
(0.226534 -0.214973 0)
(0.237495 -0.177964 0)
(0.249023 -0.132619 0)
(0.258663 -0.0803567 0)
(0.266209 -0.0198024 0)
(0.273632 0.0431725 0)
(0.276586 0.10193 0)
(0.27872 0.149602 0)
(0.279326 0.180691 0)
(0.275482 0.198249 0)
(0.269307 0.2013 0)
(0.259715 0.190398 0)
(0.246124 0.163025 0)
(0.229517 0.11992 0)
(0.211969 0.0615864 0)
(0.188233 -0.0126736 0)
(0.153151 -0.107997 0)
(0.123751 -0.212929 0)
(0.0910891 -0.336535 0)
(0.0373635 -0.462501 0)
(-0.0148401 -0.46782 0)
(-0.0436089 -0.337468 0)
(-0.0756778 -0.27094 0)
(-0.0899724 -0.224606 0)
(-0.109312 -0.172121 0)
(-0.138489 -0.10535 0)
(-0.320932 0.00794292 0)
(-0.337824 -0.0273027 0)
(-0.353294 -0.0567534 0)
(-0.364862 -0.0766666 0)
(-0.37006 -0.0858937 0)
(-0.373575 -0.0814895 0)
(-0.378262 -0.0543266 0)
(-0.378721 -0.0168077 0)
(-0.373459 0.0275826 0)
(-0.358147 0.0738133 0)
(-0.331608 0.123619 0)
(-0.301433 0.172772 0)
(-0.270501 0.210603 0)
(-0.241218 0.232029 0)
(-0.215326 0.237863 0)
(-0.19267 0.229947 0)
(-0.172391 0.211443 0)
(-0.153279 0.184941 0)
(-0.131744 0.150936 0)
(-0.109385 0.110275 0)
(-0.092407 0.0753352 0)
(-0.0850785 0.0591445 0)
(-0.0884377 0.0570311 0)
(-0.102547 0.0642084 0)
(-0.128473 0.0703388 0)
(-0.159668 0.077631 0)
(-0.188191 0.0761253 0)
(-0.20017 0.0685244 0)
(-0.198073 0.062393 0)
(-0.190297 0.0568815 0)
(-0.179996 0.0522759 0)
(-0.169635 0.0510158 0)
(-0.157162 0.0527012 0)
(-0.14081 0.0607842 0)
(-0.122131 0.0773294 0)
(-0.104336 0.0986654 0)
(-0.0886779 0.12221 0)
(-0.080277 0.143462 0)
(-0.0808188 0.167902 0)
(-0.0769205 0.196169 0)
(-0.0639314 0.222569 0)
(-0.0442592 0.250269 0)
(-0.0189969 0.279831 0)
(0.0121153 0.311477 0)
(0.0485037 0.34252 0)
(0.0878009 0.368867 0)
(0.129598 0.389298 0)
(0.172697 0.401665 0)
(0.216013 0.403972 0)
(0.258099 0.394603 0)
(0.294241 0.373637 0)
(0.32248 0.348568 0)
(0.340323 0.317761 0)
(0.344694 0.288463 0)
(0.343865 0.26749 0)
(0.338763 0.250758 0)
(0.325719 0.233112 0)
(0.310311 0.214557 0)
(0.295301 0.189973 0)
(0.284442 0.157145 0)
(0.274816 0.11319 0)
(0.257653 0.0484336 0)
(0.242739 -0.0132167 0)
(0.225987 -0.0669676 0)
(0.210725 -0.110601 0)
(0.199335 -0.145178 0)
(0.187985 -0.177141 0)
(0.17722 -0.205218 0)
(0.16657 -0.228906 0)
(0.158234 -0.243157 0)
(0.151281 -0.246486 0)
(0.145506 -0.235717 0)
(0.146875 -0.210479 0)
(0.156111 -0.19067 0)
(0.167013 -0.174056 0)
(0.175983 -0.162032 0)
(0.185075 -0.160222 0)
(0.192832 -0.16802 0)
(0.197196 -0.177445 0)
(0.196063 -0.190971 0)
(0.197443 -0.216581 0)
(0.194403 -0.235158 0)
(0.190002 -0.24499 0)
(0.201195 -0.263479 0)
(0.213224 -0.266062 0)
(0.222919 -0.254998 0)
(0.231999 -0.234049 0)
(0.240951 -0.204117 0)
(0.249343 -0.166046 0)
(0.25753 -0.120151 0)
(0.263454 -0.0686102 0)
(0.267239 -0.00917037 0)
(0.271257 0.0532277 0)
(0.271391 0.111979 0)
(0.269793 0.161307 0)
(0.268223 0.192099 0)
(0.262874 0.209429 0)
(0.25539 0.212217 0)
(0.244953 0.199875 0)
(0.230893 0.171218 0)
(0.215212 0.126787 0)
(0.199865 0.0678557 0)
(0.177627 -0.0079802 0)
(0.147312 -0.101645 0)
(0.124835 -0.203269 0)
(0.0978194 -0.325204 0)
(0.0488092 -0.443233 0)
(-0.00450875 -0.445864 0)
(-0.0391148 -0.322063 0)
(-0.0756033 -0.256465 0)
(-0.0923256 -0.210459 0)
(-0.117149 -0.157619 0)
(-0.150256 -0.0903448 0)
(-0.301511 0.0460296 0)
(-0.323127 0.0106929 0)
(-0.343387 -0.0210052 0)
(-0.361009 -0.0437161 0)
(-0.372892 -0.0558528 0)
(-0.378447 -0.0568595 0)
(-0.38304 -0.04008 0)
(-0.385918 -0.00723328 0)
(-0.384675 0.0278884 0)
(-0.375165 0.066749 0)
(-0.352811 0.10369 0)
(-0.324 0.143403 0)
(-0.29314 0.176248 0)
(-0.26204 0.196146 0)
(-0.232773 0.202572 0)
(-0.206629 0.195806 0)
(-0.18239 0.177894 0)
(-0.156937 0.150556 0)
(-0.129429 0.113674 0)
(-0.109512 0.072425 0)
(-0.105486 0.0515174 0)
(-0.123303 0.057245 0)
(-0.157273 0.0716504 0)
(-0.199477 0.077723 0)
(-0.227146 0.0752064 0)
(-0.234925 0.0730409 0)
(-0.235005 0.0717717 0)
(-0.232406 0.070004 0)
(-0.226994 0.0642004 0)
(-0.215667 0.0596506 0)
(-0.197107 0.0602244 0)
(-0.175963 0.0655761 0)
(-0.155098 0.0718092 0)
(-0.132293 0.0813328 0)
(-0.11239 0.0934395 0)
(-0.0996941 0.109797 0)
(-0.0944745 0.123497 0)
(-0.0899852 0.13903 0)
(-0.0825442 0.15591 0)
(-0.0825706 0.171088 0)
(-0.0840644 0.191194 0)
(-0.0721277 0.218317 0)
(-0.0514854 0.24477 0)
(-0.0245359 0.271105 0)
(0.00945324 0.298 0)
(0.0484526 0.321533 0)
(0.0897094 0.340055 0)
(0.132956 0.352296 0)
(0.176215 0.355714 0)
(0.216796 0.34899 0)
(0.250841 0.3329 0)
(0.274171 0.31304 0)
(0.289252 0.294506 0)
(0.300518 0.27843 0)
(0.305021 0.264239 0)
(0.30217 0.247971 0)
(0.295104 0.231627 0)
(0.286571 0.21174 0)
(0.278887 0.184227 0)
(0.275723 0.147764 0)
(0.268031 0.0961469 0)
(0.255925 0.0310846 0)
(0.248744 -0.0274612 0)
(0.236194 -0.0780628 0)
(0.2259 -0.117593 0)
(0.218866 -0.151671 0)
(0.211993 -0.182046 0)
(0.20491 -0.208567 0)
(0.196915 -0.229343 0)
(0.189656 -0.241445 0)
(0.182961 -0.243892 0)
(0.176538 -0.235891 0)
(0.171045 -0.215659 0)
(0.173817 -0.190132 0)
(0.181462 -0.174379 0)
(0.188244 -0.160906 0)
(0.195322 -0.15504 0)
(0.201434 -0.161317 0)
(0.207557 -0.174434 0)
(0.208684 -0.185197 0)
(0.207898 -0.204706 0)
(0.207148 -0.22274 0)
(0.202748 -0.237439 0)
(0.21466 -0.256964 0)
(0.227415 -0.256108 0)
(0.235565 -0.244464 0)
(0.243506 -0.22274 0)
(0.250787 -0.191365 0)
(0.256831 -0.151855 0)
(0.261454 -0.105348 0)
(0.263432 -0.0541858 0)
(0.263668 0.00432736 0)
(0.264375 0.065614 0)
(0.261801 0.123409 0)
(0.254995 0.17202 0)
(0.250935 0.202588 0)
(0.245263 0.218638 0)
(0.236084 0.219835 0)
(0.224821 0.205167 0)
(0.211134 0.174856 0)
(0.197179 0.128871 0)
(0.183365 0.0691856 0)
(0.162962 -0.00900972 0)
(0.139341 -0.100609 0)
(0.123687 -0.198383 0)
(0.101405 -0.319743 0)
(0.056596 -0.425432 0)
(0.000989344 -0.417153 0)
(-0.0371709 -0.301899 0)
(-0.0773779 -0.238569 0)
(-0.0979947 -0.192768 0)
(-0.127992 -0.140493 0)
(-0.163346 -0.0742079 0)
(-0.27016 0.085282 0)
(-0.296739 0.0490768 0)
(-0.319934 0.0157999 0)
(-0.341961 -0.0108579 0)
(-0.360601 -0.0275467 0)
(-0.373161 -0.0344559 0)
(-0.377047 -0.0294155 0)
(-0.377544 -0.00754552 0)
(-0.376863 0.0229066 0)
(-0.371939 0.0541426 0)
(-0.359883 0.0826659 0)
(-0.335958 0.111009 0)
(-0.306252 0.137428 0)
(-0.274088 0.154787 0)
(-0.241438 0.160501 0)
(-0.2106 0.154773 0)
(-0.181537 0.13718 0)
(-0.15181 0.110093 0)
(-0.129193 0.0747811 0)
(-0.127832 0.0541593 0)
(-0.152207 0.0627317 0)
(-0.197124 0.0729447 0)
(-0.236055 0.0776413 0)
(-0.253963 0.0819017 0)
(-0.259484 0.0857585 0)
(-0.260151 0.083103 0)
(-0.256081 0.07375 0)
(-0.246588 0.0626276 0)
(-0.234874 0.052054 0)