/*--------------------------------*- C++ -*----------------------------------*\
  =========                 |
  \\      /  F ield         | OpenFOAM: The Open Source CFD Toolbox
   \\    /   O peration     | Website:  https://openfoam.org
    \\  /    A nd           | Version:  11
     \\/     M anipulation  |
\*---------------------------------------------------------------------------*/
FoamFile
{
    format      ascii;
    class       volScalarField;
    location    "8";
    object      p;
}
// * * * * * * * * * * * * * * * * * * * * * * * * * * * * * * * * * * * * * //

dimensions      [0 2 -2 0 0 0 0];

internalField   nonuniform List<scalar> 
9600
(
0.0553527
0.0562515
0.0576521
0.0594791
0.0615822
0.0637927
0.0658782
0.067638
0.0689796
0.0698139
0.0698189
0.0687449
0.0661158
0.0615717
0.0547501
0.0459051
0.0353029
0.0232759
0.0106769
-0.000397763
-0.00841501
-0.0121912
-0.0116664
-0.00737074
-0.000576121
0.00714209
0.0133274
0.0182342
0.0229354
0.0272138
0.0317796
0.0373457
0.0436604
0.0518968
0.0622013
0.0728903
0.0814674
0.0871444
0.079696
0.0441042
0.0558753
0.0571189
0.0588546
0.0608862
0.0630914
0.0652692
0.0671788
0.0686962
0.0697854
0.0703494
0.0700289
0.0683543
0.0652369
0.060258
0.053215
0.0443809
0.0338248
0.0219898
0.00977321
-0.000877353
-0.00866977
-0.0123635
-0.0120029
-0.00798692
-0.00172229
0.00576716
0.011941
0.0168469
0.0213956
0.0253478
0.0292883
0.0341295
0.0395552
0.0459176
0.0552099
0.0665489
0.0785752
0.0865342
0.0889529
0.0772174
0.0562686
0.0575701
0.0593591
0.0613255
0.0633611
0.0653304
0.0670719
0.0684634
0.0694338
0.069829
0.0693403
0.067706
0.0645771
0.0596422
0.052599
0.0437415
0.0332684
0.0215973
0.00952071
-0.00104312
-0.00879432
-0.012594
-0.0124102
-0.00845606
-0.00249274
0.00486741
0.0110923
0.0160205
0.020799
0.0250099
0.0291728
0.0342134
0.0399656
0.0462662
0.0536075
0.0633869
0.0752404
0.0830693
0.0843851
0.0784305
0.0567683
0.058214
0.0602016
0.0623197
0.0644436
0.066448
0.0681503
0.0694577
0.0702987
0.0705492
0.069816
0.0678599
0.0643073
0.0589235
0.0516796
0.0427812
0.0323065
0.0206376
0.00865735
-0.00175242
-0.00943529
-0.0131757
-0.0130644
-0.0092956
-0.00336253
0.00400328
0.0103203
0.0150661
0.019489
0.02334
0.026831
0.0311662
0.0361668
0.0418585
0.0488501
0.058929
0.0704132
0.0827379
0.0853177
0.0865287
0.0573674
0.0589329
0.0610518
0.0631869
0.0651896
0.0669597
0.0683991
0.0694602
0.0700615
0.0700417
0.0690783
0.0669431
0.0633707
0.0581131
0.050826
0.0418653
0.0313917
0.019813
0.00794362
-0.00233764
-0.00995602
-0.013721
-0.0136973
-0.0100618
-0.00413652
0.0031342
0.00953554
0.014232
0.0182821
0.0222152
0.0260915
0.0305033
0.0358669
0.0411936
0.0470333
0.0541768
0.0645144
0.0775112
0.0836203
0.0883719
0.0580559
0.059715
0.0619136
0.0640476
0.0659731
0.0676327
0.0689988
0.0700406
0.0706233
0.0705268
0.0694871
0.0672292
0.0632765
0.0575689
0.0500618
0.0410156
0.0305249
0.0189441
0.00710307
-0.00317636
-0.0108196
-0.0146175
-0.0146509
-0.0111031
-0.00513826
0.00171582
0.00865179
0.0136297
0.0173484
0.0207309
0.0240406
0.0278946
0.0328237
0.0379176
0.0437304
0.0503295
0.0594959
0.0718043
0.0814404
0.0881138
0.0588239
0.0605461
0.0627882
0.064923
0.0667844
0.0683204
0.0695609
0.0704445
0.0707838
0.0704028
0.0690191
0.0664214
0.0624261
0.0567697
0.0492369
0.0401295
0.0295838
0.0179646
0.00611037
-0.00417663
-0.0117929
-0.015639
-0.0156795
-0.0121511
-0.00614657
0.00076364
0.00785287
0.0129871
0.0163496
0.0192558
0.0224347
0.0263008
0.0311843
0.0361942
0.0413351
0.0471841
0.0544447
0.0642302
0.076135
0.0850528
0.0596616
0.0614173
0.0636873
0.0658172
0.0675938
0.0690015
0.0701051
0.0708352
0.0710259
0.0705423
0.0691117
0.066519
0.0622414
0.0562721
0.048537
0.0392868
0.0286424
0.0169191
0.00501128
-0.00533248
-0.0129324
-0.0168341
-0.0168896
-0.013382
-0.00733272
-0.000268195
0.00685099
0.0122104
0.0155815
0.0181907
0.0207932
0.0239787
0.0285038
0.0334814
0.0383585
0.0441874
0.0506242
0.0581224
0.0694572
0.0797499
0.060553
0.0623287
0.0646123
0.0667102
0.0684005
0.0696842
0.0706538
0.0712522
0.0713165
0.0706906
0.0690357
0.0661188
0.0616764
0.0555937
0.047737
0.0383744
0.0276054
0.0157346
0.00376179
-0.00669666
-0.0143243
-0.0183138
-0.018323
-0.0148012
-0.00857143
-0.00124744
0.00594959
0.0113776
0.0150131
0.0170681
0.019113
0.02176
0.0259594
0.0310846
0.035775
0.0413434
0.0471371
0.0525387
0.0607153
0.0710507
0.0614973
0.0632805
0.0655563
0.0676078
0.0692115
0.0703753
0.071225
0.071703
0.0716289
0.0708413
0.0690104
0.0659494
0.061344
0.0550663
0.0470295
0.0374816
0.0265517
0.0144718
0.00239276
-0.00823065
-0.0159039
-0.0199803
-0.019954
-0.0163738
-0.00992656
-0.00229342
0.00503672
0.0105568
0.0144181
0.016209
0.0177841
0.019765
0.0231899
0.0281384
0.032747
0.038109
0.0438117
0.0487333
0.0540292
0.0625171
0.0624832
0.0642624
0.0665164
0.0685176
0.0700364
0.0710876
0.0718239
0.0721823
0.0719746
0.0710139
0.0690297
0.0658047
0.0609953
0.0545029
0.0462506
0.0365024
0.0253985
0.0130603
0.00085771
-0.00999355
-0.0177343
-0.021915
-0.0218782
-0.0181842
-0.0114888
-0.0035363
0.00412569
0.0100102
0.0138696
0.0155564
0.0164596
0.0177042
0.020225
0.0248622
0.0296578
0.0348659
0.0404509
0.0452287
0.0488499
0.0543203
0.0635127
0.0652758
0.0675034
0.069448
0.0708808
0.0718296
0.0724535
0.0726871
0.0723675
0.0712315
0.0690865
0.0657053
0.0606694
0.0539469
0.045485
0.0354848
0.0241655
0.0115274
-0.000862352
-0.0119467
-0.0198136
-0.0240999
-0.0240838
-0.0201992
-0.0132449
-0.00490984
0.00321424
0.0096322
0.0132631
0.0151632
0.0153309
0.0158557
0.0174793
0.0214037
0.0261771
0.0313506
0.0366602
0.0416545
0.0455287
0.0486752
0.0645867
0.066325
0.0685183
0.0704046
0.0717592
0.0726036
0.0731234
0.0732425
0.0727962
0.0715053
0.0691909
0.0656395
0.0603805
0.0533939
0.0446993
0.0343849
0.0227984
0.00983101
-0.00277438
-0.0141421
-0.0221899
-0.0265543
-0.0266184
-0.0225045
-0.0152353
-0.00647401
0.00217184
0.00918861
0.0128788
0.0150173
0.0145601
0.0143022
0.014905
0.0177638
0.0220835
0.0274293
0.032681
0.0377232
0.0421129
0.044636
0.0657107
0.0674095
0.0695656
0.0713994
0.0726812
0.073424
0.0738433
0.0738479
0.0732689
0.0718636
0.069364
0.0655884
0.0601273
0.052838
0.0438644
0.0332096
0.0212951
0.00796882
-0.00491033
-0.0165911
-0.0248753
-0.0293061
-0.029484
-0.0251601
-0.0175122
-0.00820179
0.00105357
0.00859734
0.0130127
0.01496
0.0140818
0.0129472
0.012393
0.0142722
0.0178457
0.0230669
0.0282293
0.033205
0.0380797
0.0408296
0.0668877
0.0685475
0.0706579
0.0724287
0.0736445
0.0743167
0.0746349
0.0745088
0.0738027
0.0723071
0.0696052
0.0655623
0.0598609
0.0522517
0.0429824
0.0319362
0.0196413
0.00591549
-0.00732002
-0.0193118
-0.0278734
-0.0324428
-0.0327047
-0.0282088
-0.0201205
-0.0101507
-0.00027345
0.00798249
0.0133171
0.0150068
0.0140593
0.0122064
0.0103156
0.010873
0.0134258
0.0181584
0.0233118
0.0281355
0.0334508
0.0366966
0.0681189
0.0697384
0.0718047
0.0735138
0.0746758
0.0752857
0.0755071
0.0752679
0.0744229
0.0728111
0.0698935
0.0655609
0.0596004
0.0516415
0.0420075
0.0305437
0.0178146
0.00363897
-0.0100216
-0.0223172
-0.0312492
-0.0359264
-0.0363039
-0.0317311
-0.0231161
-0.0124652
-0.0018056
0.00731298
0.0134911
0.0155768
0.0145392
0.0120706
0.0088134
0.00767962
0.00893405
0.0127495
0.0179794
0.0227851
0.0280666
0.03144
0.0694137
0.0709818
0.0730233
0.0746865
0.0758103
0.076336
0.0764548
0.0761553
0.0751639
0.0733413
0.0702184
0.065574
0.0593422
0.0509831
0.040923
0.0290041
0.0157654
0.00113249
-0.0130493
-0.0256473
-0.0350124
-0.0398464
-0.0403286
-0.0357419
-0.0265988
-0.0151408
-0.00363674
0.00643624
0.0136115
0.0165837
0.0154875
0.012459
0.00810598
0.00486801
0.0047619
0.0071772
0.011813
0.016642
0.0219319
0.0257068
0.0707776
0.0723095
0.0743369
0.0759582
0.0770451
0.0775252
0.0775132
0.0771284
0.0760202
0.0739488
0.0706002
0.0655888
0.0590341
0.0502626
0.039717
0.0273065
0.0134722
-0.00167726
-0.0163978
-0.0293456
-0.0392053
-0.0442727
-0.0447931
-0.0402841
-0.0308356
-0.0182061
-0.00579047
0.0053741
0.0135287
0.0180105
0.0170823
0.0134392
0.0084455
0.00308051
0.000767042
0.00134846
0.00516887
0.0100092
0.0151384
0.018903
0.0722502
0.0737432
0.0757694
0.0773643
0.0783883
0.0788509
0.0787368
0.0782031
0.0769666
0.0746307
0.0710213
0.0655645
0.0586381
0.0495124
0.038335
0.0254211
0.0108661
-0.0048194
-0.0201371
-0.0334485
-0.0438268
-0.0492377
-0.0497702
-0.045372
-0.0358056
-0.0221751
-0.00838731
0.00409729
0.0135125
0.0193635
0.0193054
0.0155749
0.00944218
0.00229964
-0.00237337
-0.00431717
-0.00200207
0.00259998
0.00750872
0.0111988
0.0738548
0.0753318
0.0773353
0.0789193
0.079897
0.0803003
0.0801234
0.0794235
0.0780239
0.075322
0.0714582
0.0656784
0.0580815
0.0486229
0.0368024
0.0232421
0.00796675
-0.00826633
-0.0243846
-0.0380681
-0.0488662
-0.0548115
-0.0554091
-0.0509555
-0.0413763
-0.0271645
-0.0115859
0.00211386
0.0133735
0.0206694
0.0222205
0.018746
0.0116644
0.00267892
-0.00422375
-0.00905454
-0.00952575
-0.0061121
-0.00110909
0.00282498
0.0756149
0.0770809
0.0790521
0.0806306
0.0815897
0.0819181
0.081656
0.080769
0.0791536
0.0761539
0.0717645
0.0657346
0.0575549
0.0474975
0.0350232
0.0208101
0.00464902
-0.012157
-0.0289673
-0.0433833
-0.0544077
-0.0609433
-0.0618819
-0.057256
-0.0474076
-0.0330586
-0.016186
-0.000567504
0.0128094
0.0220501
0.0255578
0.0225441
0.0157961
0.00510539
-0.00516505
-0.012878
-0.0164434
-0.0154743
-0.0110873
-0.00691634
0.077571
0.0790121
0.0809876
0.0825605
0.0834535
0.0837582
0.0833801
0.0822507
0.0802883
0.0771061
0.0722145
0.065671
0.0568157
0.0461929
0.0330154
0.0179366
0.00102429
-0.0167012
-0.0339919
-0.0492763
-0.0607562
-0.0675808
-0.0691416
-0.0645651
-0.0542584
-0.039747
-0.0220883
-0.00419427
0.0112116
0.0228337
0.0294657
0.0277717
0.0212391
0.00974394
-0.00388407
-0.0156678
-0.0226921
-0.0249058
-0.0224134
-0.0184604
0.0797528
0.0811888
0.0831245
0.0847495
0.0856365
0.0857817
0.0852389
0.0838814
0.0815806
0.0779939
0.0725479
0.0655288
0.0560058
0.044518
0.0307103
0.0145864
-0.00307409
-0.0218026
-0.0397012
-0.0556657
-0.0679794
-0.0749673
-0.0770955
-0.0730165
-0.0623818
-0.0474363
-0.0291244
-0.00942354
0.0086897
0.0225711
0.0326096
0.0343819
0.0286229
0.0165422
0.00105765
-0.0158128
-0.0277149
-0.0343678
-0.0349375
-0.0319801
0.0821727
0.0836476
0.085622
0.087162
0.0880393
0.0880769
0.0873083
0.0857101
0.0829386
0.0789797
0.0729655
0.0651439
0.0549851
0.0425505
0.0279359
0.0107447
-0.00775107
-0.0275038
-0.046326
-0.0625745
-0.075963
-0.0835352
-0.0857537
-0.0824544
-0.0719937
-0.0565825
-0.0375037
-0.0164825
0.00443558
0.0215449
0.0345137
0.0404827
0.037946
0.0264512
0.00992568
-0.0111523
-0.0300582
-0.0426875
-0.0484363
-0.0479519
0.0849585
0.0864265
0.0884767
0.0899502
0.0906808
0.0906377
0.089584
0.0876418
0.0844198
0.0797767
0.0732367
0.0646026
0.0536645
0.0401233
0.0246402
0.00635303
-0.0133208
-0.0337405
-0.0537837
-0.070634
-0.0844526
-0.0931872
-0.0956254
-0.0928633
-0.0831239
-0.0675207
-0.0476627
-0.0255459
-0.00218577
0.0187817
0.0353372
0.0453468
0.0473182
0.039492
0.023407
-0.000519986
-0.0255488
-0.0480913
-0.0614611
-0.0664194
0.0882076
0.0896328
0.0916462
0.0930942
0.0937272
0.0934959
0.092101
0.0896561
0.0858946
0.0805713
0.0733806
0.0637228
0.0519488
0.0373422
0.0204784
0.00137688
-0.0197733
-0.0409651
-0.0618157
-0.0799662
-0.0939269
-0.103717
-0.106922
-0.104497
-0.0957599
-0.080507
-0.0600062
-0.0368647
-0.0115138
0.0128554
0.0338666
0.0488737
0.0557661
0.0536731
0.0409434
0.0174536
-0.0118642
-0.0445958
-0.0718797
-0.0868558
0.0919155
0.0932881
0.0952644
0.0967373
0.0971903
0.0965888
0.0947519
0.0917768
0.0874289
0.0811618
0.07324
0.0625479
0.049488
0.0340137
0.0155856
-0.00469769
-0.0269139
-0.0496453
-0.0708007
-0.0901943
-0.104881
-0.115205
-0.119641
-0.11774
-0.109941
-0.0956691
-0.0750457
-0.0510178
-0.0241924
0.00327763
0.0285207
0.0491251
0.0622616
0.0669084
0.0602364
0.0420123
0.013405
-0.0265675
-0.0658527
-0.10115
0.0962002
0.0975862
0.0995093
0.100805
0.100911
0.0999061
0.0976744
0.0939419
0.0888473
0.0816629
0.0725521
0.0609371
0.0464513
0.0295017
0.00999484
-0.0121573
-0.0351514
-0.0592671
-0.0814042
-0.101297
-0.117232
-0.128035
-0.133689
-0.132816
-0.125888
-0.11294
-0.0931689
-0.0686779
-0.04078
-0.0107729
0.0183487
0.0443388
0.0644655
0.0767712
0.0784392
0.06871
0.0457393
0.00952101
-0.0365039
-0.0873629
0.101194
0.102495
0.104346
0.105296
0.10511
0.103527
0.100641
0.0960995
0.0900373
0.0818016
0.0714547
0.0583824
0.0426112
0.0238644
0.00294146
-0.0206581
-0.0452552
-0.0701106
-0.0936296
-0.113833
-0.130922
-0.142618
-0.149077
-0.149827
-0.144163
-0.132483
-0.114323
-0.0903749
-0.0619742
-0.0302627
0.00215185
0.0331455
0.0596318
0.0801869
0.0913621
0.0927715
0.0790355
0.0548922
0.0116869
-0.036487
0.107102
0.108089
0.109775
0.110433
0.109695
0.107399
0.103743
0.09815
0.0909951
0.0814108
0.0694972
0.0548274
0.037269
0.0170437
-0.00609112
-0.0307266
-0.0571549
-0.0826954
-0.10721
-0.128441
-0.145899
-0.158915
-0.166388
-0.168535
-0.164817
-0.154947
-0.138798
-0.116438
-0.08859
-0.0559886
-0.0212315
0.0140209
0.0460519
0.0743545
0.0947852
0.107545
0.107229
0.0961168
0.0669638
0.0276427
0.113928
0.114504
0.115848
0.116115
0.114812
0.11156
0.106782
0.100229
0.0913227
0.0802315
0.0663377
0.0499314
0.0301297
0.00821583
-0.016875
-0.0432603
-0.0708972
-0.0976864
-0.122658
-0.144879
-0.16278
-0.176821
-0.185713
-0.18928
-0.187805
-0.18046
-0.167081
-0.147158
-0.121325
-0.0891677
-0.0535157
-0.0150213
0.021898
0.0564534
0.0857352
0.107525
0.121894
0.122988
0.113514
0.0868849
0.121951
0.121952
0.122717
0.122207
0.119874
0.115601
0.109194
0.101163
0.0903929
0.0774164
0.0613361
0.042557
0.0208712
-0.00354622
-0.0303722
-0.0585885
-0.0872335
-0.115254
-0.140589
-0.163374
-0.181983
-0.196492
-0.206984
-0.212176
-0.213212
-0.208765
-0.199346
-0.182957
-0.160408
-0.130617
-0.0951504
-0.0558198
-0.0150763
0.0241619
0.0609447
0.0914046
0.115305
0.129532
0.135535
0.11975
0.131296
0.130488
0.130383
0.129161
0.125572
0.120117
0.112051
0.101291
0.0883621
0.0725827
0.0540185
0.0325878
0.00838163
-0.0185455
-0.047163
-0.0773116
-0.107015
-0.135742
-0.161572
-0.184323
-0.203646
-0.218479
-0.230063
-0.23715
-0.240985
-0.240389
-0.235209
-0.224414
-0.206304
-0.181348
-0.148577
-0.109782
-0.0671512
-0.0238774
0.017209
0.0561733
0.0894543
0.115311
0.131794
0.130243
0.141658
0.139833
0.138201
0.135105
0.129831
0.122007
0.1116
0.0983999
0.0827062
0.063841
0.0421823
0.0179869
-0.00887214
-0.0382817
-0.0690015
-0.10053
-0.13101
-0.160016
-0.186067
-0.208648
-0.227685
-0.243056
-0.254841
-0.26402
-0.271056
-0.275157
-0.275748
-0.271492
-0.260721
-0.241914
-0.215369
-0.180324
-0.138707
-0.0931432
-0.0454469
-0.000981416
0.040916
0.0776886
0.105413
0.123069
0.154757
0.15151
0.148324
0.143081
0.135248
0.124386
0.110276
0.0931682
0.0734128
0.0510376
0.0256417
-0.00209068
-0.0317935
-0.0634629
-0.0961964
-0.128904
-0.159945
-0.18886
-0.214168
-0.235728
-0.253922
-0.268201
-0.280383
-0.290446
-0.300383
-0.309854
-0.317711
-0.322929
-0.321774
-0.313816
-0.296314
-0.270046
-0.235517
-0.192464
-0.144199
-0.0925706
-0.0421799
0.00478708
0.0474517
0.0810454
0.16453
0.157787
0.151509
0.143355
0.131811
0.117115
0.0994962
0.0788076
0.0549475
0.0284825
-0.000373721
-0.0313963
-0.0638807
-0.0975649
-0.131479
-0.164539
-0.195366
-0.222874
-0.246962
-0.266251
-0.282123
-0.294193
-0.30528
-0.316023
-0.327284
-0.34125
-0.355991
-0.371345
-0.383461
-0.391512
-0.39069
-0.380093
-0.359671
-0.329038
-0.288455
-0.239356
-0.184789
-0.12842
-0.0764099
-0.0323502
0.188561
0.178488
0.165838
0.150114
0.130292
0.106843
0.0808588
0.0527182
0.0226043
-0.00961974
-0.0434935
-0.0786379
-0.114551
-0.150585
-0.18558
-0.218414
-0.24789
-0.272766
-0.292885
-0.307488
-0.317926
-0.325934
-0.333538
-0.343244
-0.354642
-0.370642
-0.39057
-0.412379
-0.435973
-0.459546
-0.482177
-0.499308
-0.50782
-0.503069
-0.482935
-0.45002
-0.406488
-0.356172
-0.30231
-0.247599
0.161944
0.143492
0.124791
0.104716
0.0820685
0.0560958
0.0267802
-0.00568759
-0.0408217
-0.0779519
-0.116383
-0.155081
-0.193472
-0.230729
-0.265964
-0.297979
-0.325363
-0.346186
-0.360543
-0.367937
-0.37085
-0.37057
-0.371405
-0.37543
-0.385747
-0.403163
-0.422743
-0.443137
-0.463573
-0.486154
-0.521478
-0.572017
-0.628888
-0.674899
-0.7044
-0.717843
-0.720956
-0.712873
-0.697661
-0.674516
0.22476
0.193129
0.158158
0.12272
0.0866404
0.0491073
0.0101183
-0.0303258
-0.0716439
-0.113295
-0.154262
-0.193481
-0.230092
-0.263095
-0.292527
-0.317719
-0.337651
-0.350794
-0.357329
-0.357021
-0.352493
-0.344562
-0.337287
-0.333362
-0.341079
-0.362809
-0.399035
-0.439818
-0.447292
-0.431663
-0.430302
-0.457001
-0.502416
-0.547789
-0.592523
-0.633703
-0.669924
-0.698176
-0.718052
-0.725652
-0.0371822
-0.0713422
-0.109613
-0.157245
-0.208251
-0.259475
-0.309371
-0.358817
-0.406262
-0.449984
-0.485972
-0.51507
-0.539195
-0.560068
-0.575855
-0.58582
-0.588215
-0.582922
-0.569566
-0.549867
-0.524059
-0.492723
-0.45757
-0.425267
-0.404975
-0.400249
-0.424509
-0.449656
-0.455387
-0.458908
-0.46177
-0.46852
-0.477861
-0.490137
-0.504147
-0.518598
-0.53218
-0.544185
-0.553162
-0.55482
-0.0470185
-0.119904
-0.425382
-0.338501
-0.160025
-0.0640886
-0.0184273
-0.00295434
0.00335233
0.00264953
0.00277476
0.00211351
0.00186746
0.00140858
0.000867279
0.000416268
3.48897e-05
-0.000251964
-0.000420481
-0.000548808
-0.000565797
-0.000615382
-0.00058822
-0.000511146
-0.000388443
-0.00019272
-1.35754e-05
0.000177881
0.000358425
0.00052694
0.000665638
0.000778669
0.000868472
0.00103221
0.00119357
0.00139149
0.00141449
0.00132049
0.000515421
0.00124404
-0.0159367
-0.0958487
-0.36977
-0.289188
-0.146135
-0.063918
-0.0222131
-0.00697884
0.00112697
0.00162518
0.00252848
0.00176646
0.00192978
0.00134809
0.000902873
0.000320122
1.87801e-05
-0.000421991
-0.000547447
-0.000700099
-0.000673174
-0.0007211
-0.000585415
-0.000545467
-0.000340238
-0.000201636
5.21363e-06
0.000159105
0.000376481
0.000518746
0.000671546
0.000741158
0.000879791
0.00103232
0.00123046
0.0013785
0.0014823
0.00132829
0.000913033
0.00102517
0.0126507
-0.067841
-0.293382
-0.228495
-0.131396
-0.063799
-0.0284186
-0.0124504
-0.00219151
0.000180833
0.00200613
0.00156025
0.00200129
0.00145928
0.00101493
0.000335701
3.1162e-05
-0.00052457
-0.000652515
-0.000842858
-0.000830905
-0.000830754
-0.000713757
-0.00063428
-0.000457819
-0.000328267
-0.000121891
4.11318e-05
0.000238582
0.000395696
0.000556366
0.000652713
0.000824255
0.00097854
0.00116595
0.00132222
0.00144446
0.00139328
0.00123384
0.00135757
0.0383468
-0.0395222
-0.221153
-0.172785
-0.113908
-0.0642905
-0.0368498
-0.0198863
-0.00674032
-0.00177173
0.0013055
0.0014282
0.00209515
0.00165129
0.00117854
0.00049348
0.00016251
-0.000463793
-0.000631316
-0.000903805
-0.000952856
-0.000968647
-0.000908609
-0.000810782
-0.000697655
-0.000540824
-0.000357703
-0.000211288
-4.80477e-05
0.000141712
0.000316205
0.00047255
0.000657596
0.000838073
0.00104685
0.00124002
0.00138681
0.00141617
0.00142223
0.00166374
0.0566151
-0.0134738
-0.154306
-0.126608
-0.0966785
-0.0662185
-0.0479427
-0.0294798
-0.0131238
-0.0045141
0.000267816
0.00113201
0.00209752
0.00181749
0.0013807
0.000738891
0.000360656
-0.000297703
-0.00051894
-0.000891772
-0.000967183
-0.00102993
-0.000983937
-0.000889832
-0.000782493
-0.000623811
-0.000469917
-0.000351613
-0.000186514
-6.50413e-06
0.000161381
0.000340128
0.000546909
0.000762154
0.000994229
0.00118065
0.00133294
0.00138125
0.00129574
0.00117442
0.0719912
0.00619625
-0.0947566
-0.0886926
-0.0815546
-0.070699
-0.0632341
-0.0422338
-0.0220696
-0.00854951
-0.00125976
0.000546235
0.00192327
0.00190154
0.00155241
0.000931071
0.000464464
-0.000204321
-0.000420982
-0.000847019
-0.00089162
-0.000982791
-0.000909296
-0.000825417
-0.000696893
-0.000548137
-0.000388909
-0.000277851
-0.000104629
2.55064e-05
0.00017231
0.00033609
0.000532808
0.000720174
0.000936647
0.00110375
0.00127032
0.00140069
0.00156693
0.00185455
0.0820427
0.0194527
-0.0513641
-0.0611661
-0.0705615
-0.079166
-0.0802619
-0.0576345
-0.0330911
-0.0136656
-0.00328609
-0.000287007
0.00166183
0.00190675
0.00163951
0.00099554
0.000404113
-0.000229517
-0.000425492
-0.000869406
-0.00087576
-0.00100968
-0.000932153
-0.000883747
-0.000751616
-0.000626785
-0.000454261
-0.000340977
-0.000160145
-7.07613e-05
7.2703e-05
0.00020695
0.000383144
0.000538519
0.000732753
0.000905003
0.00110203
0.00124086
0.00119105
0.00102594
0.0835881
0.0246137
-0.0246466
-0.0404281
-0.0648869
-0.0892812
-0.0979883
-0.0765235
-0.0476697
-0.0203317
-0.00601721
-0.000880104
0.00142319
0.00195368
0.00181084
0.00105548
0.000350855
-0.000264707
-0.000566992
-0.00102629
-0.0010899
-0.00131463
-0.00127652
-0.00130611
-0.0012047
-0.00110327
-0.000922828
-0.000787627
-0.00056553
-0.000451235
-0.000263789
-0.0001174
6.46778e-05
0.000240445
0.000447038
0.000659439
0.000895839
0.00112834
0.00143737
0.00179364
0.0794027
0.0259316
-0.0104333
-0.0262643
-0.0640565
-0.0996142
-0.119008
-0.101494
-0.0668136
-0.0291077
-0.00935839
-0.00106971
0.00135191
0.00228815
0.00232353
0.00142809
0.000574919
-0.00013117
-0.000673309
-0.00112605
-0.00135678
-0.00167317
-0.00171621
-0.0017678
-0.00170254
-0.00157804
-0.00140188
-0.00119017
-0.000931955
-0.000733526
-0.000516732
-0.00031187
-0.000122968
6.7598e-05
0.00027221
0.000509832
0.00073754
0.000908706
0.000974136
0.00105627
0.0714295
0.0215889
-0.00271035
-0.0173989
-0.0662327
-0.110416
-0.143079
-0.133109
-0.0875168
-0.0412115
-0.01274
-0.0015387
0.00153702
0.00295695
0.00306866
0.00208936
0.00109839
0.000318126
-0.000470799
-0.000839817
-0.00126577
-0.00159689
-0.0017132
-0.00172364
-0.00171725
-0.0015443
-0.00140979
-0.00112587
-0.00090867
-0.000661303
-0.000457723
-0.000225937
-8.60211e-05
0.000108636
0.000290685
0.000491432
0.000670456
0.000883205
0.00121114
0.00161238
0.0613695
0.0189996
0.000305317
-0.0115663
-0.0696358
-0.12112
-0.167493
-0.167923
-0.108848
-0.0572684
-0.0168124
-0.00276052
0.00196291
0.00362791
0.00357292
0.00253683
0.00164998
0.000811549
-0.000132044
-0.000355043
-0.000941632
-0.00124066
-0.00147162
-0.00146099
-0.00154508
-0.00136177
-0.00129242
-0.00100594
-0.000869101
-0.000616596
-0.000422499
-0.000172555
-1.18403e-05
0.000190326
0.000319539
0.000471919
0.000619158
0.000796987
0.000913214
0.0010338
0.0533556
0.0177257
0.00161059
-0.00717391
-0.0752139
-0.129654
-0.189066
-0.200266
-0.135727
-0.0701754
-0.0231617
-0.0033554
0.00239749
0.00399893
0.00373365
0.00258474
0.00182287
0.000869372
-8.23058e-05
-0.000349821
-0.00104841
-0.00138055
-0.00173211
-0.00175574
-0.00188096
-0.00172292
-0.00168459
-0.00146626
-0.00134773
-0.00107289
-0.000832517
-0.000537449
-0.000323691
-8.40348e-05
5.3131e-05
0.00022034
0.000382772
0.000615418
0.000929547
0.00131237
0.0473824
0.0176567
0.00137187
-0.0148388
-0.071947
-0.13283
-0.202482
-0.22179
-0.164377
-0.0769762
-0.0305667
-0.00146696
0.00294822
0.0044719
0.00444649
0.00292435
0.00181923
0.000749491
-0.000311643
-0.000867965
-0.00158248
-0.00206963
-0.00239781
-0.00255009
-0.00260109
-0.00252033
-0.00243465
-0.00229517
-0.0020884
-0.00183034
-0.00155767
-0.0012783
-0.000985751
-0.000736556
-0.000525408
-0.000278689
-2.27847e-05
0.000295582
0.000586793
0.000808163
0.0431978
0.0187749
-0.000287361
-0.0242308
-0.0733457
-0.133975
-0.19831
-0.220615
-0.172344
-0.0817865
-0.033536
0.00244378
0.00479632
0.00613421
0.00627602
0.00416566
0.00258802
0.00125186
-6.0922e-05
-0.000854351
-0.00166353
-0.00228168
-0.00256994
-0.00287989
-0.0028468
-0.00285998
-0.0027166
-0.00264195
-0.00239482
-0.00223534
-0.00198403
-0.00177043
-0.00147535
-0.001264
-0.000975194
-0.000709229
-0.000369984
-2.42563e-05
0.000363133
0.000810922
0.0388799
0.0167924
-0.00302578
-0.0274669
-0.0741074
-0.130419
-0.174897
-0.192412
-0.151488
-0.0808347
-0.0263679
0.00475736
0.00853923
0.00878168
0.00835189
0.00611067
0.00414503
0.00233851
0.000823423
-0.000184017
-0.0011823
-0.00187044
-0.0022315
-0.00255972
-0.00257004
-0.00260001
-0.00248339
-0.00241456
-0.00221111
-0.00211849
-0.00191665
-0.00175814
-0.00151731
-0.00136547
-0.00110889
-0.000850937
-0.000505707
-0.000198843
0.000123806
0.000408926
0.0333544
0.0135145
-0.00907861
-0.0312714
-0.0685587
-0.114741
-0.14767
-0.156756
-0.124797
-0.0674396
-0.0144914
0.00472551
0.0139455
0.0122532
0.00988876
0.00787306
0.00525216
0.00303788
0.00118755
-0.000216036
-0.00125234
-0.00199014
-0.0023666
-0.00264905
-0.00275269
-0.00271378
-0.0026338
-0.0024791
-0.00227933
-0.00208753
-0.00186971
-0.00166369
-0.00147294
-0.00129536
-0.00108431
-0.000844166
-0.000575656
-0.000287325
-4.00318e-07
0.000180216
0.0270843
0.00919018
-0.015913
-0.0386023
-0.0690952
-0.102894
-0.125999
-0.129003
-0.100771
-0.0440497
-0.00633246
0.00983843
0.0198552
0.0171311
0.0118428
0.00931289
0.00584621
0.0032238
0.00100201
-0.000672632
-0.00174578
-0.00258355
-0.0030351
-0.00343141
-0.00362154
-0.00359819
-0.00356378
-0.00333293
-0.00308798
-0.00273413
-0.00243314
-0.00210553
-0.00186361
-0.0015823
-0.00136859
-0.00108001
-0.000829703
-0.000508922
-0.000249054
-8.44921e-05
0.0203866
0.00384331
-0.0235933
-0.0479777
-0.0745099
-0.102441
-0.114933
-0.104857
-0.0763122
-0.0287525
0.00454233
0.0227529
0.0245176
0.0226133
0.0156891
0.011608
0.00762445
0.00421288
0.00181785
-0.000142154
-0.00153231
-0.00257637
-0.00331071
-0.00389253
-0.00419291
-0.00437235
-0.00443296
-0.00429836
-0.00408861
-0.00376545
-0.0034272
-0.00307047
-0.00274313
-0.00241473
-0.00205609
-0.00166218
-0.00131742
-0.000940092
-0.000676285
-0.000496473
0.012221
-0.00335846
-0.0330347
-0.0604017
-0.0845739
-0.105459
-0.110068
-0.0883551
-0.0559669
-0.0145878
0.0169283
0.0350402
0.0294759
0.0282797
0.0213818
0.0153247
0.0107933
0.00644696
0.00370636
0.00119299
-0.000649907
-0.00186824
-0.00282416
-0.00349443
-0.00398649
-0.0043504
-0.00455552
-0.00462638
-0.00457077
-0.00440428
-0.00414273
-0.003861
-0.00354017
-0.0032059
-0.00271587
-0.00229829
-0.00183032
-0.00142652
-0.00113828
-0.000964692
0.0027818
-0.0136531
-0.0453186
-0.077164
-0.0997643
-0.111678
-0.108629
-0.08107
-0.0413038
-0.00384982
0.0278847
0.0432532
0.0381076
0.0335248
0.026631
0.0189978
0.0135573
0.00870357
0.00517485
0.00223861
-3.87648e-06
-0.00152777
-0.0026302
-0.00326116
-0.00375779
-0.00409444
-0.00431301
-0.00446721
-0.00446975
-0.00444519
-0.00430691
-0.00414144
-0.00389376
-0.00356506
-0.00313226
-0.0027245
-0.00223597
-0.00186064
-0.00155905
-0.00140229
-0.00753139
-0.0272239
-0.0620807
-0.100586
-0.124133
-0.12923
-0.113263
-0.0787534
-0.0329532
0.00424379
0.0372478
0.0501528
0.0484135
0.0375491
0.0306744
0.0221746
0.0156945
0.0102816
0.00581127
0.00261255
2.77214e-05
-0.00176449
-0.00296684
-0.00368708
-0.00411155
-0.00437028
-0.00453218
-0.00459868
-0.00460729
-0.00458683
-0.0044918
-0.00436552
-0.00414111
-0.00382313
-0.00343806
-0.00306023
-0.00264067
-0.00228411
-0.00198582
-0.00185683
-0.0200312
-0.0449697
-0.0861122
-0.13346
-0.163674
-0.159339
-0.129991
-0.0821312
-0.0286223
0.011515
0.0439728
0.05641
0.055747
0.0430368
0.0355746
0.0259461
0.0180801
0.0118308
0.00657492
0.00291342
6.61343e-05
-0.00200211
-0.00347421
-0.00440674
-0.00496354
-0.00532831
-0.00553537
-0.00555645
-0.00553214
-0.00539935
-0.00526102
-0.00502432
-0.00474274
-0.00438021
-0.00403052
-0.00363122
-0.003215
-0.00283756
-0.00253058
-0.00241416
-0.0355886
-0.0680619
-0.122188
-0.181672
-0.219416
-0.208834
-0.158721
-0.0941098
-0.0295923
0.0171138
0.0471898
0.0605509
0.0609311
0.0507028
0.0410253
0.030077
0.0208197
0.0140543
0.00821931
0.0040623
0.000749277
-0.00175077
-0.00369156
-0.00498956
-0.00587349
-0.00645639
-0.00678679
-0.00687713
-0.00684728
-0.006703
-0.00649909
-0.00617031
-0.00582342
-0.00544566
-0.00504475
-0.00456556
-0.00406844
-0.00358765
-0.0032303
-0.00309821
-0.0551381
-0.0989974
-0.172136
-0.250676
-0.29877
-0.277843
-0.201027
-0.115789
-0.0374685
0.0175769
0.0486549
0.0645753
0.0654191
0.055371
0.0442866
0.0337365
0.0240848
0.0169722
0.010708
0.00611062
0.00190859
-0.00126889
-0.0036711
-0.00530953
-0.00643207
-0.00720065
-0.00766677
-0.00793505
-0.00797772
-0.00791808
-0.00772534
-0.00745398
-0.00712824
-0.00673578
-0.00625297
-0.00568319
-0.00501811
-0.00441831
-0.00399705
-0.00391571
-0.0801048
-0.143302
-0.246664
-0.35216
-0.413257
-0.368574
-0.256084
-0.146787
-0.0519796
0.0122854
0.048075
0.0672978
0.0668809
0.0567
0.0463885
0.0364606
0.0275363
0.0196248
0.0129275
0.00765896
0.00284971
-0.000796322
-0.00340371
-0.00538196
-0.00670147
-0.00758686
-0.00816754
-0.00859223
-0.00882688
-0.00893388
-0.00887065
-0.008692
-0.00839981
-0.00800012
-0.00751586
-0.00685762
-0.00612155
-0.00545739
-0.00500353
-0.00496895
-0.120322
-0.2099
-0.348593
-0.500726
-0.562849
-0.481113
-0.320739
-0.188019
-0.0692711
0.000947393
0.043894
0.0642987
0.0649823
0.0566901
0.0477252
0.0373113
0.0288353
0.0204064
0.013686
0.00809901
0.00338615
-0.000340308
-0.00313307
-0.00542001
-0.0069921
-0.00813503
-0.00889679
-0.0095483
-0.0100053
-0.0102399
-0.0102795
-0.010143
-0.00989419
-0.009554
-0.00905338
-0.00836972
-0.00765417
-0.00698587
-0.00646441
-0.00629097
-0.173348
-0.288634
-0.468083
-0.669463
-0.714556
-0.590979
-0.379029
-0.222694
-0.099371
-0.0169447
0.032298
0.0538806
0.0581504
0.0531362
0.0454664
0.0355025
0.0277403
0.0196426
0.0133301
0.00775861
0.00273732
-0.0010218
-0.0042218
-0.00661377
-0.00840393
-0.00971546
-0.0106493
-0.0113938
-0.0118482
-0.0120461
-0.0120862
-0.0119821
-0.0117722
-0.0113723
-0.0107568
-0.0100479
-0.00928752
-0.00855847
-0.00801636
-0.00788818
-0.19218
-0.330279
-0.515835
-0.723054
-0.761102
-0.620164
-0.421053
-0.253415
-0.12601
-0.0402404
0.0118318
0.0360729
0.0445566
0.0440819
0.0388499
0.0316622
0.0251555
0.0174032
0.0117652
0.00579665
0.000681279
-0.00306172
-0.00650733
-0.00879709
-0.0106346
-0.0119006
-0.0127855
-0.0133931
-0.0137181
-0.0137707
-0.0137198
-0.0135653
-0.0132778
-0.012768
-0.0120995
-0.0114011
-0.0106915
-0.0100543
-0.0096343
-0.00960841
-0.137946
-0.243322
-0.426353
-0.570798
-0.602625
-0.515821
-0.391297
-0.254326
-0.142116
-0.0647233
-0.0158799
0.0117339
0.0251416
0.0292868
0.0278439
0.0244382
0.0194797
0.0134417
0.00879139
0.00329169
-0.000783396
-0.00441635
-0.00751864
-0.00987729
-0.0116523
-0.0131071
-0.014074
-0.0146211
-0.0148705
-0.0150309
-0.0150545
-0.014947
-0.014676
-0.0141952
-0.0135794
-0.0129928
-0.0124391
-0.0119281