/*--------------------------------*- C++ -*----------------------------------*\
  =========                 |
  \\      /  F ield         | OpenFOAM: The Open Source CFD Toolbox
   \\    /   O peration     | Website:  https://openfoam.org
    \\  /    A nd           | Version:  11
     \\/     M anipulation  |
\*---------------------------------------------------------------------------*/
FoamFile
{
    format      ascii;
    class       surfaceScalarField;
    location    "8";
    object      phi;
}
// * * * * * * * * * * * * * * * * * * * * * * * * * * * * * * * * * * * * * //

dimensions      [0 3 -1 0 0 0 0];

internalField   nonuniform List<scalar> 
18960
(
0.0473842
0.000478294
-0.0478625
0.0468313
0.000552895
0.0462668
0.000564471
0.0457616
0.000505257
0.0452774
0.000484138
0.0447402
0.000537248
0.0442204
0.000519743
0.0438443
0.000376175
0.0435524
0.00029183
0.0432233
0.000329081
0.0429486
0.000274736
0.0428699
7.86868e-05
0.0428872
-1.72909e-05
0.0429812
-9.39367e-05
0.0431683
-0.000187185
0.043548
-0.00037967
0.0440087
-0.000460673
0.0444517
-0.000442976
0.0450297
-0.000577998
0.0458236
-0.000793947
0.0464156
-0.000592001
0.0466008
-0.000185148
0.0465107
9.00873e-05
0.0462616
0.000249053
0.0456397
0.000621902
0.0444399
0.00119985
0.0429334
0.00150649
0.0416193
0.00131406
0.0403273
0.00129196
0.0392098
0.0011176
0.0381973
0.00101245
0.0375729
0.000624437
0.0371462
0.000426634
0.0374928
-0.000346602
0.0384249
-0.00093203
0.0410736
-0.00264871
0.0439895
-0.00291596
0.0507558
-0.0067663
0.0618686
-0.0111128
-0.00704295
0.0689116
0.0476377
0.000744539
-0.047904
0.0473577
0.000832943
0.0469995
0.000922604
0.0466482
0.000856618
0.0463062
0.00082609
0.0459791
0.000864318
0.0456453
0.000853568
0.0453246
0.000696939
0.0450226
0.000593785
0.0448032
0.000548475
0.0446335
0.000444429
0.0445159
0.00019626
0.0445009
-2.2329e-06
0.0446017
-0.000194766
0.0448859
-0.000471398
0.0453449
-0.000838614
0.0457584
-0.000874205
0.0462896
-0.000974182
0.0468323
-0.00112064
0.0473959
-0.00135761
0.0480856
-0.00128164
0.0488009
-0.000900467
0.0491771
-0.000286137
0.049314
0.000112144
0.0493077
0.000628233
0.0492566
0.00125091
0.0487622
0.0020009
0.0479151
0.00216116
0.0467177
0.00248936
0.0455848
0.00225049
0.0444894
0.00210789
0.0438921
0.00122176
0.0433792
0.000939539
0.0431543
-0.000121708
0.0427365
-0.000514323
0.0428804
-0.00279251
0.0432661
-0.00330176
0.0430442
-0.00654433
0.047889
-0.0159576
-0.0147137
0.0555597
0.0475306
0.00114826
-0.0479343
0.0471538
0.0012097
0.0467592
0.00131728
0.0462877
0.00132805
0.0458216
0.0012922
0.0454271
0.00125887
0.0450948
0.00118581
0.0447798
0.00101197
0.0445251
0.000848436
0.044347
0.000726655
0.0442618
0.000529597
0.0442647
0.000193385
0.0443512
-8.87523e-05
0.0445633
-0.000406844
0.0448783
-0.000786444
0.0453418
-0.00130209
0.0458645
-0.00139696
0.0464622
-0.0015718
0.0469839
-0.00164243
0.0474329
-0.0018066
0.04788
-0.00172875
0.0485504
-0.00157082
0.0491806
-0.000916319
0.0496422
-0.000349499
0.0498633
0.000407123
0.050065
0.00104926
0.0499579
0.00210794
0.049384
0.00273508
0.0480873
0.0037861
0.046615
0.00372276
0.0447828
0.00394013
0.043355
0.00264952
0.0420007
0.00229387
0.0415444
0.000334547
0.0413771
-0.000346993
0.04142
-0.00283542
0.0435558
-0.00543759
0.0436312
-0.0066197
0.0474539
-0.0197803
-0.0206603
0.0534005
0.0474341
0.0015501
-0.0478359
0.0470864
0.00155737
0.046699
0.00170472
0.0462846
0.00174243
0.0459326
0.00164421
0.0456608
0.00153059
0.0453803
0.00146639
0.0451248
0.00126743
0.0448716
0.00110167
0.0446984
0.000899828
0.0445949
0.000633111
0.0445961
0.000192158
0.0446554
-0.000148081
0.0448051
-0.000556524
0.0450864
-0.00106773
0.0455146
-0.00173029
0.0459585
-0.00184084
0.0465046
-0.00211791
0.0470435
-0.00218136
0.0475606
-0.00232371
0.0478902
-0.00205832
0.0483756
-0.00205621
0.0489505
-0.00149121
0.049603
-0.00100204
0.0500346
-2.44231e-05
0.0504397
0.000644092
0.0505825
0.00196514
0.0504606
0.00285701
0.0497645
0.00448218
0.0488599
0.00462744
0.0476582
0.00514181
0.0465906
0.00371714
0.0453085
0.00357597
0.0441388
0.0015042
0.0431568
0.000634986
0.0416199
-0.00129849
0.0418407
-0.00565841
0.0411702
-0.00594922
0.0401102
-0.0187203
-0.0243066
0.0437565
0.047395
0.0019608
-0.0478057
0.0470174
0.00193488
0.0466185
0.00210363
0.0462032
0.00215778
0.0458229
0.00202446
0.0454743
0.0018792
0.0451385
0.00180221
0.0448469
0.00155907
0.0446295
0.001319
0.0444963
0.00103304
0.0444237
0.000705714
0.0444115
0.000204399
0.0445133
-0.00024987
0.0447727
-0.000815947
0.0450813
-0.00137635
0.0454901
-0.00213909
0.0459479
-0.00229866
0.0465175
-0.00268749
0.0470895
-0.00275336
0.0476551
-0.00288925
0.0480058
-0.00240904
0.0483229
-0.00237339
0.0486859
-0.00185421
0.0493213
-0.00163737
0.0499302
-0.000633339
0.0506091
-3.48307e-05
0.0510871
0.0014872
0.0514501
0.00249394
0.0511914
0.00474087
0.0503684
0.00545045
0.0487334
0.00677682
0.0470544
0.00539615
0.0452382
0.0053922
0.0437395
0.00300283
0.043058
0.00131648
0.041811
-5.1408e-05
0.0415303
-0.00537771
0.0415378
-0.00595681
0.0395157
-0.0166982
-0.0257354
0.0409446
0.0472442
0.00237295
-0.0476564
0.046867
0.00231211
0.0464774
0.00249326
0.0460951
0.00254005
0.0457208
0.00239877
0.045415
0.00218496
0.0451353
0.00208191
0.0449191
0.00177533
0.0447478
0.00149028
0.0446388
0.00114208
0.0445848
0.000759707
0.0446793
0.000109829
0.0447609
-0.000331455
0.0450038
-0.00105879
0.0452784
-0.00165093
0.0456536
-0.00251437
0.0460577
-0.00270278
0.0465975
-0.00322728
0.0471064
-0.00326226
0.0476332
-0.00341605
0.0480067
-0.00278247
0.0483503
-0.00271703
0.0486152
-0.00211913
0.0491698
-0.00219192
0.049769
-0.00123257
0.050576
-0.000841792
0.0512014
0.000861819
0.0517391
0.00195624
0.0518571
0.0046229
0.0515899
0.00571763
0.0506851
0.00768155
0.0494587
0.00662259
0.0479835
0.00686736
0.0460733
0.00491307
0.0447465
0.00264324
0.0428848
0.00181033
0.0412475
-0.00374044
0.0402815
-0.00499074
0.0369619
-0.0133786
-0.0247215
0.0359479
0.047187
0.00278387
-0.0475979
0.0468107
0.00268844
0.0464247
0.00287923
0.0460441
0.00292069
0.0456874
0.00275547
0.0453581
0.00251422
0.0450985
0.00234158
0.0448849
0.00198889
0.0447111
0.00166406
0.0446247
0.00122849
0.0445832
0.000801231
0.044614
7.89889e-05
0.0447124
-0.000429822
0.0449896
-0.00133598
0.0452909
-0.00195223
0.0456777
-0.00290121
0.0461234
-0.00314848
0.0466614
-0.00376521
0.0471146
-0.00371553
0.0476226
-0.00392404
0.0480347
-0.00319457
0.0484228
-0.00310513
0.0486745
-0.00237081
0.0490517
-0.00256913
0.0495867
-0.00176756
0.0503798
-0.00163492
0.0511964
4.51859e-05
0.0520213
0.00113136
0.0525591
0.00408508
0.0526446
0.00563214
0.0519319
0.0083943
0.0505683
0.00798622
0.0490824
0.00835318
0.0469007
0.00709483
0.0454091
0.00413476
0.0437536
0.00346589
0.04179
-0.00177686
0.0406768
-0.00387749
0.0375297
-0.0102316
-0.0218812
0.0346895
0.0470322
0.00318754
-0.0474359
0.0466453
0.00307541
0.0462744
0.00325014
0.0459297
0.00326535
0.0455708
0.00311438
0.0452794
0.00280558
0.0450386
0.00258238
0.0448541
0.00217346
0.044714
0.00180412
0.0446542
0.00128826
0.0446273
0.000828152
0.0447678
-6.14672e-05
0.0448894
-0.000551428
0.0451586
-0.00160524
0.0454563
-0.00224992
0.0458352
-0.00328009
0.0462306
-0.00354385
0.0467312
-0.00426584
0.0471535
-0.00413781
0.0476118
-0.0043824
0.0480024
-0.00358511
0.0483936
-0.00349631
0.0486564
-0.00263369
0.0489657
-0.00287836
0.0494198
-0.00222171
0.0501464
-0.00236151
0.0510947
-0.000903085
0.0519982
0.000227817
0.0527335
0.00334978
0.0531285
0.00523716
0.0530644
0.00845842
0.0521492
0.00890142
0.0512075
0.00929489
0.0491902
0.00911214
0.0473512
0.00597368
0.0455245
0.00529263
0.0428214
0.000926216
0.0405459
-0.00160192
0.0370005
-0.0066862
-0.0170077
0.0321269
0.046975
0.00359152
-0.0473789
0.0465857
0.00346468
0.0462183
0.00361751
0.0458785
0.00360521
0.0455386
0.0034542
0.0452566
0.00308762
0.0450328
0.00280619
0.0448635
0.00234273
0.0447337
0.00193393
0.0446971
0.00132488
0.0447098
0.000815498
0.0448035
-0.000155255
0.0449306
-0.000678505
0.0452248
-0.00189938
0.0455218
-0.00254697
0.0459247
-0.003683
0.046312
-0.00393114
0.0467932
-0.00474705
0.0472168
-0.00456143
0.0476288
-0.00479433
0.0479937
-0.00395003
0.0483852
-0.0038878
0.0487201
-0.00296864
0.0490041
-0.00316232
0.0494156
-0.00263321
0.0499689
-0.00291478
0.05089
-0.00182419
0.0519409
-0.000823137
0.0530214
0.00226928
0.0536943
0.0045643
0.0540906
0.00806207
0.0533585
0.00963353
0.0525972
0.0100562
0.0507936
0.0109157
0.0486739
0.00809334
0.0469248
0.00704169
0.044377
0.00347402
0.0419228
0.000852273
0.0386419
-0.00340525
-0.0115879
0.0332221
0.0468016
0.00399149
-0.0472016
0.0464325
0.00383379
0.0460647
0.00398531
0.0457401
0.00392985
0.0454386
0.00375564
0.0451846
0.00334163
0.044994
0.00299679
0.0448365
0.0025002
0.0447402
0.00203025
0.0447325
0.00133263
0.0447599
0.000788017
0.0448881
-0.00028346
0.045063
-0.000853319
0.0453435
-0.00217995
0.0456382
-0.00284164
0.0460313
-0.00407615
0.0464268
-0.00432657
0.0468478
-0.00516803
0.0472524
-0.00496612
0.0476486
-0.0051905
0.0479988
-0.00430023
0.0483181
-0.00420711
0.0486709
-0.00332142
0.0489228
-0.00341417
0.0493249
-0.00303536
0.0497546
-0.00334448
0.0506314
-0.00270095
0.0516975
-0.00188924
0.0530719
0.000894812
0.0539575
0.0036787
0.0547845
0.00723511
0.0543934
0.0100246
0.0539441
0.0105056
0.0526701
0.0121897
0.0506867
0.0100768
0.0489827
0.00874575
0.046504
0.0059527
0.0437626
0.00359366
0.039978
0.000379409
-0.00639899
0.0347891
0.0467467
0.00438883
-0.0471441
0.0463679
0.00421266
0.0460213
0.00433192
0.045708
0.0042431
0.0454106
0.00405305
0.0451833
0.00356897
0.0449969
0.00318316
0.0448671
0.00263003
0.0447826
0.00211468
0.0447946
0.00132069
0.0448342
0.000748432
0.0449959
-0.000445184
0.0451763
-0.00103373
0.0454694
-0.00247308
0.0457552
-0.00312737
0.0461523
-0.00447331
0.0465348
-0.00470906
0.0469228
-0.005556
0.0472932
-0.00533651
0.0476848
-0.00558214
0.0480301
-0.00464554
0.0483033
-0.00448022
0.0486231
-0.00364126
0.0488705
-0.00366154
0.0492911
-0.003456
0.0497012
-0.00375461
0.0504782
-0.00347795
0.0514387
-0.00284973
0.0529147
-0.000581212
0.0540992
0.00249421
0.05548
0.00585429
0.0555271
0.00997753
0.0552337
0.010799
0.0545071
0.0129162
0.0525706
0.0120133
0.0506938
0.0106225
0.0483083
0.00833825
0.0460511
0.00585082
0.0424977
0.00393284
-0.0021199
0.0382186
0.0465628
0.00477667
-0.0469507
0.0462107
0.00456481
0.0458655
0.00467712
0.0455708
0.00453783
0.0453235
0.0043003
0.0451091
0.00378333
0.044943
0.00334928
0.0448579
0.0027151
0.0447884
0.00218426
0.0448282
0.00128082
0.0448948
0.000681923
0.0450826
-0.000633033
0.0452768
-0.00122797
0.0455734
-0.00276964
0.04588
-0.00343402
0.0462393
-0.0048326
0.0466346
-0.00510436
0.047032
-0.00595341
0.0473894
-0.00569388
0.0476773
-0.00587004
0.0480241
-0.00499233
0.0482754
-0.00473153
0.0486171
-0.0039829
0.0488211
-0.00386563
0.0491918
-0.00382663
0.0495561
-0.00411894
0.0502456
-0.00416746
0.051122
-0.00372612
0.0526966
-0.00215577
0.0540516
0.00113915
0.0556502
0.00425574
0.0565535
0.0090742
0.0564669
0.0108857
0.0560094
0.0133737
0.0546187
0.0134039
0.0529184
0.0123228
0.0506541
0.0106026
0.0485774
0.00792749
0.0452054
0.00730486
0.00125165
0.0418338
0.0465091
0.00515815
-0.0468906
0.0461475
0.00492641
0.0458335
0.00499118
0.0455574
0.00481394
0.0453076
0.00455006
0.0451289
0.003962
0.0449788
0.00349945
0.0449004
0.00279345
0.0448658
0.00221886
0.0449145
0.00123215
0.0450083
0.000588132
0.0452095
-0.000834278
0.0454212
-0.0014397
0.0457352
-0.00308359
0.0460208
-0.00371965
0.046371
-0.00518279
0.0467393
-0.00547264
0.04712
-0.00633413
0.0474903
-0.00606413
0.0477293
-0.00610911
0.0480485
-0.00531148
0.0482525
-0.00493556
0.0485701
-0.00430045
0.0487786
-0.00407422
0.0490861
-0.00413403
0.0494357
-0.00446857
0.0500742
-0.00480594
0.050812
-0.00446393
0.0522908
-0.00363464
0.0540252
-0.000595207
0.0556821
0.00259885
0.0571383
0.00761801
0.0577315
0.0102924
0.0577364
0.0133689
0.0565823
0.014558
0.0552908
0.0136143
0.0528526
0.0130409
0.0508806
0.0098994
0.0479109
0.0102746
0.00434956
0.0448129
0.0463203
0.00551601
-0.0466781
0.0459754
0.00527125
0.0456845
0.00528215
0.0454323
0.0050661
0.0452214
0.00476092
0.0450572
0.00412625
0.0449451
0.0036115
0.0448875
0.0028511
0.0448829
0.00222343
0.0449666
0.00114845
0.0450951
0.000459656
0.0452955
-0.00103466
0.0455278
-0.00167197
0.0458292
-0.00338505
0.0461556
-0.00404601
0.0464889
-0.00551614
0.0468678
-0.00585147
0.0471773
-0.00664368
0.0475542
-0.00644098
0.047778
-0.00633295
0.0481087
-0.00564215
0.0482389
-0.00506578
0.0485145
-0.00457611
0.0486778
-0.00423742
0.0489735
-0.00442978
0.0492592
-0.00475423
0.0498655
-0.00541231
0.0506868
-0.00528518
0.0518355
-0.00478337
0.0536651
-0.00242485
0.0556354
0.000628618
0.0575472
0.00570614
0.0585049
0.00933478
0.0593859
0.0124879
0.0586553
0.0152886
0.0575545
0.0147151
0.055564
0.0150313
0.0537106
0.0117528
0.051031
0.0129543
0.00716921
0.0482113
0.0462862
0.00586282
-0.0466331
0.0459602
0.00559728
0.045682
0.00556034
0.0454347
0.00531339
0.0452402
0.00495541
0.0450919
0.00427461
0.0449979
0.00370549
0.0449671
0.00288186
0.0449967
0.00219383
0.0450927
0.00105247
0.045225
0.000327335
0.0454433
-0.00125293
0.0456838
-0.00191249
0.0459823
-0.0036835
0.0463166
-0.00438031
0.0466326
-0.00583216
0.0470004
-0.00621927
0.0472942
-0.00693745
0.0476553
-0.00680211
0.0478522
-0.00652986
0.0481684
-0.00595831
0.0482638
-0.00516125
0.0484783
-0.00479057
0.0485689
-0.00432803
0.0488037
-0.00466463
0.0491778
-0.00512826
0.0496153
-0.00584985
0.0504029
-0.00607279
0.0514775
-0.00585798
0.0532552
-0.00420253
0.0552623
-0.00137844
0.0577317
0.00323675
0.0591126
0.00795379
0.0604894
0.0111111
0.0606629
0.0151151
0.06001
0.015368
0.0583986
0.0166428
0.0568606
0.0132908
0.0542922
0.0155227
0.0104539
0.0510075
0.0460708
0.00619399
-0.046402
0.0457726
0.00589552
0.0455205
0.00581236
0.0453146
0.00551937
0.0451583
0.00511165
0.0450289
0.00440401
0.0449678
0.00376661
0.0449735
0.00287619
0.045025
0.00214231
0.0451516
0.000925898
0.0453137
0.000165212
0.0455354
-0.00147465
0.0458144
-0.00219144
0.0461048
-0.00397396
0.0464525
-0.00472803
0.0467646
-0.00614419
0.0471376
-0.00659232
0.0473893
-0.00718913
0.047775
-0.00718776
0.0479195
-0.00667444
0.048242
-0.00628074
0.048322
-0.00524126
0.0484512
-0.00491984
0.0485962
-0.00447297
0.0486805
-0.00474892
0.0489385
-0.00538632
0.0493431
-0.00625444
0.0501391
-0.00686875
0.051105
-0.00682389
0.052777
-0.0058745
0.0547182
-0.00331969
0.0575295
0.000425444
0.0595502
0.00593313
0.0613112
0.0093501
0.062286
0.0141404
0.0624134
0.0152405
0.0609932
0.018063
0.0596032
0.0146808
0.0583002
0.0168257
0.013165
0.055589
0.0460573
0.00651978
-0.0463831
0.0457751
0.00617771
0.0455182
0.00606928
0.0453366
0.00570094
0.0451975
0.00525081
0.0451055
0.00449597
0.0450797
0.00379239
0.0450928
0.00286314
0.0451696
0.00206549
0.0453044
0.000791074
0.0454896
-1.99421e-05
0.0456923
-0.00167739
0.046007
-0.00250612
0.0462649
-0.00423185
0.046641
-0.0051042
0.0469049
-0.00640809
0.0473082
-0.00699555
0.0475081
-0.00738906
0.0478819
-0.00756151
0.0480356
-0.00682814
0.0482673
-0.00651253
0.0484339
-0.00540787
0.0484657
-0.0049516
0.0485519
-0.00455913
0.048578
-0.00477503
0.0487141
-0.00552248
0.0490235
-0.00656386
0.0496882
-0.00753341
0.0506377
-0.00777338
0.0522486
-0.00748546
0.0541971
-0.00526815
0.0570329
-0.00241033
0.059745
0.00322105
0.061875
0.00722005
0.0633064
0.0127089
0.0644465
0.0141004
0.0639792
0.0185303
0.0625929
0.0160671
0.061552
0.0178666
0.015394
0.0593229
0.0458275
0.00681613
-0.0461239
0.0455687
0.00643661
0.0453718
0.0062661
0.0452138
0.00585901
0.0451293
0.00533532
0.0450561
0.00456916
0.0450559
0.00379252
0.045114
0.00280503
0.0452175
0.001962
0.0453737
0.000634917
0.0455896
-0.00023588
0.0457873
-0.00187508
0.0461629
-0.00288171
0.0463835
-0.00445241
0.0468106
-0.00553131
0.0470421
-0.00663959
0.0474458
-0.00739928
0.047667
-0.00761032
0.047949
-0.00784349
0.0481506
-0.00702971
0.0483266
-0.00668857
0.0484806
-0.00556183
0.0485218
-0.00499278
0.0485789
-0.00461619
0.0485611
-0.00475729
0.0485344
-0.00549575
0.0486843
-0.00671374
0.0491913
-0.00804045
0.0500893
-0.00867138
0.0515628
-0.00895896
0.0535214
-0.00722672
0.0562516
-0.00514057
0.0593743
9.83863e-05
0.0623362
0.00425816
0.0641981
0.010847
0.0657997
0.0124988
0.0665483
0.0177818
0.0656614
0.0169539
0.0648377
0.0186904
0.0171078
0.0631239
0.0458315
0.00709421
-0.0461096
0.0455876
0.00668055
0.0454286
0.00642512
0.0452841
0.00600345
0.0452195
0.00540001
0.0451757
0.00461289
0.0451845
0.00378378
0.0452796
0.00270991
0.0453994
0.00184225
0.0455228
0.000511494
0.0458241
-0.000537185
0.0459615
-0.00201251
0.0463782
-0.0032984
0.0466055
-0.00467967
0.046989
-0.00591485
0.0472553
-0.00690593
0.0476153
-0.00775918
0.0478466
-0.00784169
0.0480944
-0.00809124
0.0482983
-0.00723361
0.0484199
-0.0068102
0.0485778
-0.0057197
0.0485844
-0.00499936
0.0485577
-0.00458951
0.0485312
-0.00473077
0.0484361
-0.00540065
0.0483834
-0.00666108
0.0486295
-0.00828655
0.0493347
-0.00937661
0.0507877
-0.010412
0.0526943
-0.00913329
0.0554239
-0.00787015
0.0585382
-0.0030159
0.0621855
0.000610871
0.0650253
0.00800715
0.0669717
0.0105525
0.0685845
0.016169
0.0685552
0.0169833
0.0681919
0.0190537
0.0183145
0.0669853
0.0456277
0.00732916
-0.0458626
0.0454328
0.00687543
0.045293
0.00656494
0.0451904
0.00610604
0.0451485
0.00544188
0.0451512
0.00461017
0.0451972
0.00373782
0.0452755
0.00263154
0.0454861
0.00163165
0.0455752
0.000422477
0.0459261
-0.000888095
0.0461399
-0.00222632
0.0465276
-0.00368609
0.0467872
-0.00493932
0.0471364
-0.00626402
0.047441
-0.00721052
0.0477231
-0.00804126
0.0480146
-0.00813324
0.0481844
-0.008261
0.0484594
-0.00750867
0.0485048
-0.00685558
0.04867
-0.00588496
0.0487045
-0.00503384
0.0485921
-0.00447709
0.0484742
-0.00461283
0.0483524
-0.00527892
0.0481409
-0.00644958
0.0482263
-0.00837194
0.0485835
-0.00973384
0.0497629
-0.0115913
0.0515157
-0.0108861
0.0543121
-0.0106666
0.057591
-0.00629486
0.0614474
-0.00324545
0.0652441
0.00421037
0.0678667
0.00792985
0.0702436
0.0137921
0.0712645
0.0159623
0.0714849
0.0188334
0.0190703
0.070729
0.0457028
0.00754183
-0.0459155
0.0455153
0.00706295
0.0454024
0.00667782
0.045331
0.00617747
0.045306
0.00546682
0.0452885
0.00462775
0.0454041
0.00362221
0.0454351
0.00260054
0.045709
0.00135773
0.0458453
0.000286196
0.0461857
-0.00122849
0.0464099
-0.00245055
0.0467528
-0.00402897
0.0470648
-0.00525137
0.0473682
-0.00656739
0.0476958
-0.00753814
0.0479046
-0.00825003
0.0482427
-0.00847133
0.0483226
-0.00834093
0.048602
-0.0077881
0.0486572
-0.00691075
0.0487367
-0.00596446
0.0488111
-0.00510827
0.0486982
-0.00436412
0.0484744
-0.00438902
0.0482563
-0.00506081
0.0479516
-0.00614488
0.0477777
-0.00819813
0.0478357
-0.0097918
0.048633
-0.0123886
0.0501961
-0.0124492
0.0527491
-0.0132196
0.0561963
-0.00974211
0.0601374
-0.0071865
0.0648591
-0.000511305
0.0684259
0.00436299
0.0714185
0.0107996
0.073323
0.0140578
0.0745591
0.0175972
0.0192609
0.0743685
0.045502
0.00770625
-0.0456664
0.0453497
0.00721518
0.0452736
0.006754
0.0452357
0.00621537
0.0452391
0.00546336
0.0452652
0.00460164
0.0454273
0.00346009
0.0455438
0.0024841
0.0457835
0.00111803
0.0459648
0.000104913
0.0462752
-0.00153893
0.0466065
-0.00278189
0.0469004
-0.00432283
0.0472718
-0.00562279
0.047523
-0.00681854
0.0478953
-0.00791046
0.0480524
-0.00840716
0.0483944
-0.00881329
0.048508
-0.00845453
0.0486965
-0.00797663
0.0488256
-0.00703986
0.0488536
-0.00599244
0.0488673
-0.00512199
0.0488272
-0.00432402
0.0485536
-0.00411545
0.0481967
-0.00470389
0.0478021
-0.00575022
0.0473881
-0.00778416
0.0471992
-0.00960291
0.0475293
-0.0127186
0.0486323
-0.0135522
0.0507305
-0.0153178
0.0542664
-0.013278
0.0582721
-0.0111922
0.063357
-0.00559624
0.0682393
-0.000519241
0.0723316
0.0067072
0.0749959
0.0113935
0.0771352
0.0154579
0.0186462
0.0777499
0.0456135
0.00787623
-0.0457835
0.045507
0.00732171
0.0454367
0.00682426
0.0453904
0.00626165
0.0454596
0.00539418
0.0455483
0.00451289
0.0456785
0.00332992
0.0458265
0.00233612
0.0460427
0.000901787
0.046331
-0.00018338
0.046587
-0.00179492
0.0469485
-0.00314336
0.0471888
-0.00456313
0.0476146
-0.00604865
0.0478216
-0.0070255
0.0481767
-0.00826557
0.0483484
-0.00857886
0.048584
-0.0090489
0.0487662
-0.00863674
0.048872
-0.0080824
0.0489794
-0.00714726
0.049071
-0.00608404
0.0489916
-0.00504253
0.0489707
-0.00430313
0.0487127
-0.00385752
0.0482691
-0.00426022
0.0477356
-0.00521671
0.0471211
-0.00716969
0.0465826
-0.00906443
0.0463589
-0.0124949
0.0470889
-0.0142821
0.0484689
-0.0166978
0.0515986
-0.0164077
0.0556519
-0.0152455
0.0610639
-0.0110083
0.0665231
-0.00597848
0.0723079
0.000922417
0.0763165
0.00738497
0.0794004
0.012374
0.0172358
0.0808108
0.0453788
0.00798378
-0.0454863
0.0453034
0.00739712
0.0452989
0.00682877
0.0453517
0.00620884
0.0454394
0.00530648
0.0455479
0.00440435
0.0457215
0.00315637
0.0459404
0.00211714
0.0461484
0.000693815
0.0465049
-0.000539886
0.0467427
-0.00203272
0.0471643
-0.00356497
0.047413
-0.00481177
0.047833
-0.0064687
0.0480925
-0.00728499
0.0483724
-0.0085454
0.0486255
-0.00883203
0.0487766
-0.0092
0.0489423
-0.00880244
0.0490799
-0.00821994
0.0491268
-0.00719418
0.0492826
-0.00623989
0.0491989
-0.00495878
0.0491431
-0.00424732
0.0489207
-0.00363518
0.0484381
-0.00377757
0.0477718
-0.0045504
0.0469867
-0.00638461
0.0462044
-0.00828215
0.0453371
-0.0116276
0.0454849
-0.0144299
0.046183
-0.017396
0.0485294
-0.0187541
0.0519653
-0.0186813
0.0576568
-0.0166997
0.0636009
-0.0119226
0.0705472
-0.00602387
0.0764058
0.00152631
0.081073
0.0077068
0.014634
0.0836749
0.0456057
0.00805249
-0.0456744
0.0455731
0.00742974
0.04557
0.00683188
0.0456393
0.00613946
0.045752
0.00519379
0.0458996
0.00425675
0.0460577
0.0029983
0.0463384
0.00183645
0.0465383
0.000493927
0.0469801
-0.000981718
0.0472099
-0.00226247
0.0476143
-0.00396944
0.0478997
-0.00509718
0.0482346
-0.00680361
0.0485353
-0.00758568
0.0487218
-0.00873183
0.0489682
-0.00907844
0.0491338
-0.00936563
0.0492206
-0.00888922
0.0493883
-0.00838764
0.0493715
-0.00717743
0.0494951
-0.00636342
0.0495179
-0.00498156
0.0493975
-0.00412694
0.0491988
-0.00343648
0.0487385
-0.00331727
0.0479772
-0.00378913
0.0469717
-0.00537914
0.0460022
-0.00731262
0.0446749
-0.0103002
0.0439836
-0.0137387
0.0437601
-0.0171725
0.0453509
-0.0203449
0.0477537
-0.0210842
0.0527672
-0.0217133
0.058901
-0.0180564
0.0668465
-0.0139693
0.0746416
-0.00626885
0.0815078
0.000840642
0.010525
0.0856167
0.0453353
0.00810959
-0.0453924
0.0453621
0.0074029
0.0454283
0.00676573
0.0455302
0.00603753
0.0456786
0.00504539
0.0458966
0.00403875
0.0461203
0.0027746
0.0464904
0.00146634
0.046723
0.000261299
0.0471348
-0.00139349
0.047483
-0.0026107
0.0478363
-0.00432267
0.0482248
-0.00548568
0.0484911
-0.00706997
0.0488446
-0.00793914
0.0490809
-0.00896815
0.0492165
-0.00921402
0.0493812
-0.00953038
0.0495043
-0.00901229
0.0496315
-0.00851482
0.0496587
-0.00720464
0.0497144
-0.00641911
0.0498083
-0.00507553
0.0496866
-0.00400517
0.0495025
-0.00325244
0.0491176
-0.00293237
0.048433
-0.00310448
0.0472437
-0.0041898
0.0460535
-0.00612247
0.044387
-0.00863373
0.0430748
-0.0124265
0.0416764
-0.0157741
0.0418676
-0.0205361
0.0431895
-0.0224061
0.0468896
-0.0254134
0.0522801
-0.0234468
0.0604871
-0.0221764
0.0696857
-0.0154675
0.0793755
-0.00884913
0.00347878
0.0864218
0.0457397
0.00815421
-0.0457843
0.0457688
0.00737382
0.0458525
0.00668207
0.0459911
0.00589888
0.046175
0.00486149
0.0464792
0.00373458
0.0466632
0.00259063
0.0470214
0.00110812
0.0473204
-3.77482e-05
0.0476971
-0.00177013
0.0480884
-0.003002
0.0483938
-0.00462811
0.0488241
-0.00591603
0.0490301
-0.00727591
0.0493269
-0.00823597
0.0495507
-0.00919189
0.0496604
-0.00932373
0.0497938
-0.00966383
0.0498781
-0.00909653
0.049927
-0.00856381
0.0500595
-0.00733709
0.0500253
-0.00638487
0.0501629
-0.00521314
0.0501272
-0.00396951
0.0499611
-0.00308632
0.0496026
-0.0025739
0.0490596
-0.0025615
0.0478206
-0.00295076
0.0464349
-0.00473675
0.0444565
-0.00665541
0.0425534
-0.0105233
0.0404309
-0.0136516
0.0389498
-0.019055
0.0385804
-0.0220366
0.0403191
-0.0271522
0.0441766
-0.0273042
0.0512162
-0.029216
0.0605052
-0.0247565
0.0726176
-0.0209616
-0.00793988
0.0840363
0.0455192
0.00808002
-0.045445
0.0456227
0.00727034
0.0457731
0.00653169
0.0460308
0.00564119
0.0462092
0.00468304
0.0465415
0.00340232
0.0468052
0.00232688
0.0471889
0.000724463
0.0476109
-0.000459727
0.0479473
-0.00210655
0.0483941
-0.00344879
0.0487461
-0.00498016
0.0491308
-0.00630073
0.0494286
-0.00757372
0.049701
-0.00850833
0.0498207
-0.00931156
0.050057
-0.00956004
0.0500228
-0.00962962
0.0502093
-0.00928305
0.0501475
-0.00850205
0.0503281
-0.00751765
0.0503526
-0.00640937
0.0504696
-0.00533015
0.050519
-0.00401893
0.0504659
-0.00303321
0.0501356
-0.00224358
0.0497322
-0.0021581
0.0487129
-0.00193143
0.04726
-0.00328392
0.0451713
-0.00456668
0.0426953
-0.00804731
0.0399549
-0.0109112
0.0371819
-0.016282
0.0349939
-0.0198487
0.034118
-0.0262763
0.0353247
-0.0285109
0.0397201
-0.0336115
0.0469045
-0.0319409
0.0591322
-0.0331893
-0.0233132
0.0745055
0.0461442
0.00795851
-0.0460227
0.0463082
0.00710633
0.0464853
0.00635462
0.0467473
0.00537923
0.0469672
0.00446309
0.0473157
0.00305381
0.0476744
0.00196818
0.0480067
0.000392167
0.0484534
-0.000906373
0.0487832
-0.0024364
0.0492605
-0.00392608
0.0495537
-0.00527333
0.0499945
-0.00674154
0.0501491
-0.00772837
0.0504803
-0.00883947
0.050454
-0.00928531
0.0506836
-0.00978959
0.0505964
-0.00954244
0.050703
-0.00938966
0.0506553
-0.00845432
0.0507596
-0.00762199
0.0508697
-0.00651943
0.0509374
-0.00539782
0.0510433
-0.0041249
0.0511612
-0.00315105
0.0509799
-0.00206228
0.0506096
-0.00178784
0.0498346
-0.0011564
0.0485458
-0.00199517
0.0466059
-0.00262671
0.0439049
-0.00534634
0.0406445
-0.00765086
0.0368778
-0.0125153
0.0331671
-0.0161379
0.0296733
-0.0227824
0.0277466
-0.0265842
0.0278657
-0.0337306
0.0314571
-0.0355322
0.0384838
-0.040216
-0.0366868
0.0518574
0.0458031
0.00779971
-0.0456443
0.0460674
0.00684207
0.0463313
0.00609065
0.0466898
0.00502077
0.0471141
0.00403875
0.0474986
0.00266932
0.0480347
0.00143206
0.0483571
6.98061e-05
0.0489554
-0.00150468
0.0492947
-0.00277569
0.0498713
-0.00450268
0.0501146
-0.00551663
0.0505632
-0.00719013
0.0507087
-0.00787383
0.0509939
-0.00912476
0.0510049
-0.00929623
0.051097
-0.00988169
0.0511137
-0.0095592
0.0510408
-0.00931674
0.051096
-0.00850951
0.0511643
-0.00769029
0.0512705
-0.00662563
0.0514546
-0.00558197
0.0516481
-0.00431832
0.0518911
-0.00339412
0.0519877
-0.00215885
0.0518202
-0.00162032
0.0513092
-0.00064545
0.0502963
-0.000982247
0.0486378
-0.000968169
0.0461063
-0.00281489
0.0428517
-0.00439627
0.038499
-0.00816258
0.0339219
-0.0115609
0.0282086
-0.0170691
0.0237707
-0.0221463
0.0187179
-0.0286779
0.0180484
-0.0348627
0.016985
-0.0391526
-0.0403065
0.0206048
0.0468858
0.00759533
-0.0466814
0.047167
0.00656086
0.0475459
0.00571173
0.0478279
0.00473875
0.0483022
0.00356443
0.0486011
0.00237047
0.0491846
0.000848487
0.0495672
-0.00031275
0.0501143
-0.00205176
0.0505435
-0.00320493
0.0509591
-0.00491824
0.0513181
-0.00587567
0.0515563
-0.0074283
0.051806
-0.00812355
0.0518147
-0.00913345
0.0519561
-0.00943763
0.0518473
-0.00977292
0.0518457
-0.00955763
0.051688
-0.00915897
0.0517005
-0.00852205
0.0517239
-0.00771363
0.0518258
-0.00672755
0.0520465
-0.00580266
0.0523699
-0.00464177
0.0527103
-0.00373451
0.0529958
-0.00244435
0.0531249
-0.00174944
0.0530165
-0.000536975
0.0523509
-0.000316654
0.0512133
0.000169351
0.0490481
-0.00064966
0.0463721
-0.00172022
0.0420085
-0.00379903
0.0374259
-0.00697828
0.0306893
-0.0103324
0.0244224
-0.0158794
0.0161418
-0.0203973
0.00969848
-0.0284194
0.00125794
-0.0307121
-0.0318927
-0.00715585
0.0468561
0.00721919
-0.04648
0.0472279
0.00618909
0.0477433
0.00519631
0.0482046
0.00427744
0.0488356
0.00293346
0.0493469
0.00185916
0.0497972
0.000398219
0.0504143
-0.000929917
0.0508165
-0.00245391
0.0514358
-0.00382425
0.0517094
-0.00519185
0.0521946
-0.00636082
0.0522731
-0.00750679
0.0525778
-0.00842826
0.0525113
-0.00906697
0.0525899
-0.00951626
0.0524137
-0.00959666
0.0523481
-0.00949209
0.0522075
-0.00901833
0.0521603
-0.00847484
0.0521561
-0.00770944
0.0523068
-0.0068783
0.0525706
-0.00606643
0.0530232
-0.00509435
0.0534858
-0.00419716
0.0541485
-0.00310697
0.0544778
-0.0020788
0.0549544
-0.0010136
0.0546446
-6.83984e-06
0.0543185
0.000495479
0.0526828
0.000985993
0.0507551
0.000207495
0.0472777
-0.000321607
0.0430375
-0.00273804
0.037225
-0.00451994
0.0300063
-0.00866061
0.0214911
-0.0118821
0.0114858
-0.0184141
0.000489777
-0.0197161
-0.0208215
-0.0105814
0.0483444
0.00676606
-0.0478912
0.0487466
0.00578685
0.0491946
0.00474832
0.0497672
0.00370482
0.0501992
0.00250149
0.0508995
0.00115883
0.0513897
-9.19224e-05
0.0521136
-0.00165382
0.0525103
-0.00285068
0.0530989
-0.00441277
0.0533916
-0.00548458
0.0538053
-0.00677455
0.0539297
-0.00763118
0.0540208
-0.00851938
0.0539538
-0.00899998
0.0538385
-0.00940093
0.0536273
-0.00938542
0.0534048
-0.00926959
0.0531709
-0.00878448
0.0530202
-0.00832409
0.0529562
-0.00764546
0.0531141
-0.0070362
0.0533378
-0.00629016
0.0539676
-0.00572415
0.0544953
-0.00472487
0.0554906
-0.00410228
0.0561472
-0.00273539
0.0570819
-0.0019483
0.057512
-0.000436891
0.0577651
0.000242311
0.0573025
0.00144861
0.0560701
0.00143986
0.0540464
0.00170214
0.0507124
0.000596005
0.0462546
-6.21582e-05
0.0403323
-0.00273834
0.0329265
-0.00447629
0.0231629
-0.00865055
0.0140195
-0.0105726
-0.0114709
0.00466884
0.0490442
0.00606221
-0.0483404
0.049826
0.00500505
0.0505341
0.00404027
0.0514071
0.00283183
0.0520521
0.00185645
0.0527457
0.000465268
0.0533015
-0.000647796
0.0539121
-0.0022644
0.0544462
-0.0033848
0.0548295
-0.00479607
0.0551556
-0.00581064
0.0553147
-0.00693365
0.0553791
-0.00769557
0.0552867
-0.00842697
0.055114
-0.0088273
0.0547997
-0.00908667
0.0544953
-0.00908098
0.0540948
-0.00886908
0.0538447
-0.00853439
0.053556
-0.00803542
0.0534617
-0.00755115
0.053528
-0.00710244
0.0538926
-0.00665477
0.0544886
-0.00632012
0.0553706
-0.00560696
0.0564569
-0.00518851
0.0577264
-0.00400488
0.058995
-0.00321688
0.0602995
-0.00174141
0.0613696
-0.000827815
0.0619934
0.000824858
0.0621183
0.00131492
0.0612678
0.00255266