/*--------------------------------*- C++ -*----------------------------------*\
  =========                 |
  \\      /  F ield         | OpenFOAM: The Open Source CFD Toolbox
   \\    /   O peration     | Website:  https://openfoam.org
    \\  /    A nd           | Version:  11
     \\/     M anipulation  |
\*---------------------------------------------------------------------------*/
FoamFile
{
    format      ascii;
    class       volVectorField;
    location    "8";
    object      U;
}
// * * * * * * * * * * * * * * * * * * * * * * * * * * * * * * * * * * * * * //

dimensions      [0 1 -1 0 0 0 0];

internalField   nonuniform List<vector> 
9600
(
(0.964266 0.00156171 4.79878e-21)
(0.961736 0.00227131 0)
(0.957393 0.00275979 0)
(0.952469 0.00330861 8.45741e-23)
(0.949136 0.00410864 0)
(0.945228 0.00522684 -9.17514e-23)
(0.937574 0.00546245 -3.05415e-21)
(0.931692 0.00522866 3.06982e-21)
(0.928932 0.00499041 -3.20618e-21)
(0.926561 0.00526945 3.22032e-21)
(0.920994 0.0048764 0)
(0.917968 0.00293789 -3.12459e-21)
(0.919007 0.00190948 3.15341e-21)
(0.921909 0.00120094 -4.40997e-23)
(0.926353 0.000559194 1.19697e-21)
(0.93301 -0.000688602 -1.18663e-21)
(0.943918 -0.0019239 0)
(0.953286 -0.00237252 -2.01186e-22)
(0.964008 -0.00325944 2.0136e-22)
(0.980617 -0.00425306 2.9597e-26)
(1.00024 -0.00287608 -3.96004e-25)
(1.00843 -0.000557382 -1.38953e-22)
(1.00732 -0.000299756 1.38567e-22)
(1.00342 -0.000262796 0)
(0.994385 0.001217 0)
(0.972355 0.00323224 2.38177e-22)
(0.93574 0.00312708 1.30495e-22)
(0.903568 0.00201219 -3.83041e-22)
(0.873501 0.000574903 1.61948e-23)
(0.846804 -0.0010888 -1.91305e-23)
(0.824317 -0.00440939 0)
(0.809773 -0.00801638 1.89691e-21)
(0.802886 -0.0130894 -1.86227e-21)
(0.805473 -0.0166134 -2.60324e-21)
(0.826521 -0.0203788 2.58863e-21)
(0.857795 -0.0234761 9.84792e-23)
(0.917697 -0.0156838 0)
(0.966239 -0.0132702 7.42081e-21)
(1.1259 0.00133121 -7.48906e-21)
(1.21973 0.0422186 8.28877e-23)
(0.967197 3.47455e-05 2.37211e-22)
(0.965847 0.000201576 0)
(0.964057 0.000101984 0)
(0.961698 -0.000719801 -2.61889e-22)
(0.958122 -0.00155758 -5.93467e-21)
(0.955811 -0.00208608 9.33269e-21)
(0.953182 -0.00233749 -3.09693e-21)
(0.95018 -0.00327406 -1.00749e-22)
(0.947797 -0.00368112 -1.02789e-22)
(0.945983 -0.00359797 0)
(0.946151 -0.00361111 -1.02061e-22)
(0.947104 -0.0034953 -3.26718e-21)
(0.949462 -0.00319242 4.65418e-21)
(0.953534 -0.00323351 -1.5101e-21)
(0.958884 -0.00329256 -2.03546e-23)
(0.969845 -0.00373646 0)
(0.980645 -0.00300787 -3.12773e-22)
(0.991727 -0.00230721 3.38682e-22)
(1.00516 -0.00236502 -2.70092e-23)
(1.01721 -0.00289048 2.69857e-23)
(1.03092 -0.00224018 -6.34654e-23)
(1.04931 -0.000819977 6.03331e-23)
(1.06149 0.00135224 0)
(1.06337 0.00251525 1.16418e-22)
(1.06227 0.00398884 -1.15813e-22)
(1.05817 0.0064521 2.42373e-24)
(1.04881 0.00914843 -3.3735e-22)
(1.02882 0.00879091 3.33781e-22)
(1.0003 0.0100165 -4.81206e-23)
(0.968437 0.0102542 -1.24515e-21)
(0.936949 0.0126199 1.34021e-21)
(0.910632 0.0132134 -1.76735e-21)
(0.891481 0.0168283 1.73178e-21)
(0.879291 0.0140101 -6.73596e-23)
(0.876376 0.0122714 5.77376e-21)
(0.879415 0.000482795 -5.64666e-21)
(0.910554 -0.00673342 0)
(0.958786 -0.0361982 7.98682e-21)
(1.06285 -0.078618 -8.05524e-21)
(1.22124 -0.0826414 -3.01282e-22)
(0.965432 0.000390798 5.01632e-21)
(0.96436 0.00104869 -1.67099e-22)
(0.96276 0.00189132 0)
(0.960673 0.0023811 1.7934e-22)
(0.957285 0.00310791 0)
(0.954925 0.00409597 -3.34149e-21)
(0.953007 0.00456809 -7.4912e-23)
(0.950359 0.00446462 3.3621e-21)
(0.947901 0.00441939 1.05154e-22)
(0.946419 0.00433541 0)
(0.946391 0.00383474 3.16394e-22)
(0.947063 0.00228112 -3.22098e-21)
(0.949809 0.000915268 3.34627e-21)
(0.954145 -0.000143151 1.37575e-22)
(0.959683 -0.00184157 -8.0561e-23)
(0.969272 -0.00400342 3.34964e-23)
(0.980775 -0.00474482 -3.41036e-22)
(0.993849 -0.00587411 1.47566e-22)
(1.00796 -0.00664068 1.97108e-22)
(1.01972 -0.00793477 1.3607e-25)
(1.02952 -0.00774769 -8.86347e-25)
(1.04256 -0.00607086 -1.53068e-22)
(1.05849 -0.00288693 1.55411e-22)
(1.06943 -0.000160509 1.35953e-22)
(1.07323 0.00303051 -1.35707e-22)
(1.07271 0.00614767 0)
(1.06862 0.0103679 -8.84119e-24)
(1.05658 0.0126033 4.89199e-23)
(1.02726 0.0149499 3.22416e-23)
(0.992065 0.0132664 -1.1212e-22)
(0.955709 0.0102281 -1.29373e-22)
(0.923451 0.00222152 1.89126e-21)
(0.898826 -0.00347492 2.89705e-22)
(0.885526 -0.0104992 -1.99375e-21)
(0.883041 -0.0112008 -1.60257e-22)
(0.885161 -0.0176148 0)
(0.901978 -0.0167442 -2.11411e-22)
(0.954312 -0.0183245 7.77592e-21)
(1.00688 -0.0612666 -7.68451e-21)
(1.16172 -0.0487618 2.19834e-22)
(0.965539 0.00103622 3.35485e-22)
(0.964072 0.00144332 -1.74787e-22)
(0.962156 0.00217223 0)
(0.959719 0.00232678 0)
(0.956209 0.00191374 -5.93644e-21)
(0.953868 0.00114432 6.16471e-21)
(0.952094 0.000617511 3.15864e-21)
(0.949436 -0.000456816 -3.17292e-21)
(0.947343 -0.00137159 3.4848e-21)
(0.946229 -0.00196009 -3.28412e-21)
(0.946292 -0.00289653 -2.17008e-22)
(0.947402 -0.00409735 -1.04879e-22)
(0.950284 -0.00495628 -1.01365e-22)
(0.955031 -0.00626845 -9.36002e-23)
(0.960715 -0.00776852 1.35991e-21)
(0.970197 -0.00972887 -2.13051e-22)
(0.981637 -0.00943099 -1.31744e-21)
(0.99367 -0.00960837 3.37242e-22)
(1.00797 -0.00894381 -3.62234e-24)
(1.02217 -0.00865359 -3.43527e-25)
(1.03226 -0.00762035 7.30302e-23)
(1.04069 -0.00728768 -2.39372e-22)
(1.05311 -0.0039961 1.77786e-22)
(1.06638 -0.00126002 1.5398e-23)
(1.07535 0.00276969 0)
(1.07847 0.0060085 0)
(1.07771 0.0112725 -3.19806e-22)
(1.07102 0.0142032 3.39288e-22)
(1.05186 0.0206246 -1.07117e-21)
(1.02273 0.0215286 1.14567e-21)
(0.992081 0.0258832 8.70441e-23)
(0.958924 0.0231144 -1.01078e-22)
(0.929557 0.0258356 1.10792e-22)
(0.901093 0.0178921 -2.21996e-21)
(0.8889 0.0132028 7.45121e-21)
(0.88104 -0.000896115 -1.14393e-20)
(0.890504 -0.0220917 5.98419e-21)
(0.937354 -0.026041 -4.7441e-22)
(0.982596 -0.092536 7.44793e-22)
(1.12091 -0.108807 -5.09568e-22)
(0.964635 0.000933756 5.16594e-21)
(0.963063 0.00124738 -4.52854e-24)
(0.961066 0.00219251 0)
(0.958292 0.00263558 0)
(0.955258 0.00259785 -4.00973e-22)
(0.953279 0.00269096 6.26707e-22)
(0.95147 0.00309746 -3.24165e-21)
(0.949251 0.00295814 6.77327e-21)
(0.947493 0.00289817 -3.53638e-21)
(0.946724 0.00233253 -2.22315e-22)
(0.947084 0.00171493 0)
(0.948235 -0.00010221 -6.67938e-21)
(0.950606 -0.00145927 6.72889e-21)
(0.955433 -0.00306833 -1.59805e-21)
(0.962495 -0.00534749 1.33138e-21)
(0.970516 -0.0086703 -1.3624e-22)
(0.981054 -0.00900628 -3.84259e-22)
(0.993508 -0.0102826 1.53155e-22)
(1.00789 -0.0108303 1.81481e-22)
(1.02313 -0.0114713 2.09212e-25)
(1.03552 -0.00962825 7.74386e-23)
(1.04247 -0.00919519 -2.56737e-22)
(1.04994 -0.00696754 1.68169e-22)
(1.06036 -0.00472835 -1.57884e-23)
(1.07226 0.000364212 -7.55329e-24)
(1.08066 0.00392637 1.64568e-22)
(1.08573 0.0104962 -1.34643e-22)
(1.08404 0.0159705 -2.30984e-24)
(1.0746 0.0254783 -5.69866e-23)
(1.05008 0.0273131 0)
(1.01691 0.0291066 -7.98528e-23)
(0.979825 0.0197361 0)
(0.945499 0.0164818 -3.2979e-22)
(0.913682 0.00535755 0)
(0.897946 0.00184324 0)
(0.887257 -0.00276219 -5.84445e-21)
(0.887653 -0.0207798 6.16109e-21)
(0.915598 -0.0194197 8.68193e-21)
(0.938806 -0.0658793 -8.23466e-21)
(1.0592 -0.0987356 5.19391e-22)
(0.964127 0.00183469 0)
(0.962383 0.00201895 -4.98179e-24)
(0.959957 0.00315878 0)
(0.95749 0.00388441 0)
(0.954703 0.003745 -6.77341e-21)
(0.952335 0.00321703 2.90352e-21)
(0.950662 0.00312132 7.08109e-21)
(0.94871 0.00202605 -3.59252e-21)
(0.946976 0.000740785 0)
(0.946461 -0.00057632 0)
(0.946697 -0.00212562 0)
(0.948414 -0.00450571 -2.99939e-21)
(0.950796 -0.00644222 3.24814e-21)
(0.955531 -0.0091754 1.62173e-21)
(0.963616 -0.0112562 -1.5991e-21)
(0.971377 -0.0141252 -8.85873e-22)
(0.981419 -0.0142677 6.78355e-22)
(0.99413 -0.0158348 3.31671e-22)
(1.0085 -0.0155533 -1.31752e-23)
(1.02198 -0.0155762 1.3182e-23)
(1.03491 -0.0123066 -2.37298e-24)
(1.04367 -0.0114643 -1.26965e-23)
(1.05105 -0.00808395 2.54338e-23)
(1.05855 -0.00736498 0)
(1.06998 -0.00202543 7.75097e-24)
(1.08009 0.000795946 -1.38156e-22)
(1.08839 0.00908324 8.01072e-23)
(1.08906 0.0140919 7.71669e-22)
(1.08441 0.0251296 -1.75118e-21)
(1.06606 0.0292809 9.31422e-22)
(1.0402 0.0388842 1.59104e-21)
(1.00402 0.0358652 -1.17402e-21)
(0.969434 0.0390561 2.21685e-22)
(0.930471 0.0297794 2.09549e-21)
(0.907537 0.0197854 2.71633e-21)
(0.888737 0.0136438 -4.44762e-21)
(0.8806 -0.0149022 0)
(0.898959 -0.0198602 7.50154e-21)
(0.913243 -0.0681351 1.2852e-21)
(1.01972 -0.116572 -8.77904e-21)
(0.963034 0.00178638 6.65659e-21)
(0.961148 0.00186752 -5.38244e-24)
(0.958665 0.00327173 0)
(0.956236 0.00401494 0)
(0.953455 0.003709 6.58248e-21)
(0.951345 0.00320975 -6.62053e-21)
(0.949637 0.00288916 3.68783e-21)
(0.948117 0.00182566 5.0043e-22)
(0.946676 0.00116299 -3.7645e-21)
(0.946472 0.000111408 3.73607e-21)
(0.947181 -0.00096024 -3.28661e-21)
(0.948861 -0.00335228 -3.70931e-21)
(0.951659 -0.00463369 3.92751e-21)
(0.956343 -0.00775681 0)
(0.964064 -0.0101422 1.39211e-21)
(0.971546 -0.0140807 -2.31754e-21)
(0.982245 -0.0147822 6.31767e-22)
(0.994803 -0.0169355 1.6165e-22)
(1.00934 -0.0166184 1.54526e-22)
(1.02112 -0.0168738 6.66673e-24)
(1.03533 -0.0130166 -9.21719e-23)
(1.04457 -0.0120906 -1.22293e-22)
(1.05343 -0.00854304 1.89521e-22)
(1.05842 -0.00873927 2.51106e-22)
(1.06754 -0.00410478 -2.50613e-22)
(1.07687 -0.00192238 1.17863e-22)
(1.08843 0.00654787 -1.14433e-22)
(1.09243 0.012426 -4.26995e-23)
(1.0925 0.026951 0)
(1.07956 0.0346064 -1.18181e-21)
(1.05799 0.0457286 9.61973e-22)
(1.02279 0.040211 1.35203e-21)
(0.990343 0.0401853 -1.52366e-21)
(0.950091 0.0311749 -2.27115e-21)
(0.920213 0.0194272 1.76714e-21)
(0.897513 0.0174147 -1.99341e-23)
(0.880445 -0.00704149 0)
(0.887091 -0.0137339 6.3221e-21)
(0.887253 -0.0424115 9.45373e-23)
(0.957613 -0.0960283 -6.44604e-21)
(0.96227 0.00274739 5.38235e-21)
(0.960289 0.00279665 -4.06748e-22)
(0.957722 0.00433793 6.79177e-21)
(0.955253 0.00496239 -6.84599e-21)
(0.952711 0.00476364 4.47442e-22)
(0.950757 0.00396504 -4.60626e-22)
(0.949056 0.00350795 0)
(0.947768 0.00233702 2.89317e-21)
(0.946418 0.0013432 -3.88094e-21)
(0.946354 -0.000446713 0)
(0.947005 -0.00214647 2.79336e-21)
(0.948896 -0.00579087 -3.30608e-21)
(0.951905 -0.00805054 -1.31164e-24)
(0.956485 -0.0123194 0)
(0.964609 -0.0147798 1.23479e-21)
(0.972251 -0.0186642 -1.09835e-21)
(0.983778 -0.0191717 -3.21996e-22)
(0.994796 -0.0217657 1.67272e-22)
(1.01009 -0.0205302 1.61466e-22)
(1.02101 -0.0210369 -3.80955e-24)
(1.03507 -0.0167375 0)
(1.04417 -0.015703 -2.08977e-22)
(1.05414 -0.0109966 2.07508e-22)
(1.05905 -0.0113582 0)
(1.06641 -0.00698868 2.80167e-23)
(1.07453 -0.00641804 0)
(1.08804 0.0027852 -2.18576e-22)
(1.09391 0.00905953 1.08526e-21)
(1.09711 0.0242512 -8.78415e-22)
(1.08676 0.0323431 2.51468e-22)
(1.07296 0.0473237 1.09341e-21)
(1.04045 0.0488951 -2.81381e-21)
(1.00969 0.0528383 1.61258e-21)
(0.970206 0.0505864 -1.92371e-21)
(0.934341 0.0352705 6.37467e-21)
(0.910025 0.0329619 -4.70012e-21)
(0.877414 0.00848681 0)
(0.876379 -0.00375638 7.0732e-21)
(0.867199 -0.0342017 1.58566e-21)
(0.92159 -0.0903318 -8.64234e-21)
(0.960907 0.00265711 0)
(0.959022 0.00274532 8.21988e-22)
(0.956316 0.00424112 0)
(0.954019 0.00489899 9.10456e-22)
(0.951505 0.00479357 6.60664e-21)
(0.949742 0.00380017 -3.74049e-21)
(0.948188 0.00321327 -3.89249e-21)
(0.947044 0.00179897 4.95848e-22)
(0.945942 0.000638458 0)
(0.94614 -0.001528 0)
(0.946906 -0.00330798 4.33094e-21)
(0.948975 -0.00688282 -4.33322e-21)
(0.952719 -0.00843062 -6.63875e-22)
(0.956885 -0.0133212 -1.99356e-22)
(0.965335 -0.0156629 1.24515e-21)
(0.972592 -0.0203619 -1.11125e-21)
(0.98493 -0.0210662 -3.14961e-22)
(0.99502 -0.0239875 1.73593e-22)
(1.01142 -0.0226315 1.52802e-22)
(1.02159 -0.0231933 -1.13685e-23)
(1.03521 -0.0181704 -6.89213e-24)
(1.04354 -0.016838 -2.83084e-22)
(1.05497 -0.0113002 2.98796e-22)
(1.06024 -0.0115502 2.83134e-23)
(1.06757 -0.00771728 -6.23804e-23)
(1.07381 -0.00794213 0)
(1.08532 -0.000848189 -2.71872e-22)
(1.09322 0.00551025 1.69958e-22)
(1.10171 0.0220773 1.09287e-22)
(1.09378 0.0333678 -2.43585e-22)
(1.08337 0.0519736 1.40947e-22)
(1.05537 0.0569934 1.50101e-21)
(1.02574 0.0586118 -1.69441e-21)
(0.989973 0.0599877 4.2914e-22)
(0.947769 0.044293 2.55153e-22)
(0.922825 0.0404992 -5.37751e-21)
(0.884399 0.0211243 4.79691e-21)
(0.876126 0.00801481 6.08949e-21)
(0.85588 -0.0133616 -6.00161e-21)
(0.878637 -0.0559631 0)
(0.960144 0.00374472 0)
(0.95817 0.00372975 0)
(0.955242 0.00531072 8.25826e-21)
(0.953148 0.0059419 -1.59623e-20)
(0.950699 0.00576342 7.66708e-21)
(0.949074 0.00450511 0)
(0.94757 0.00368041 4.07114e-21)
(0.94666 0.00197345 1.15656e-23)
(0.945413 0.000459544 -3.62241e-21)
(0.94585 -0.00202795 0)
(0.947099 -0.00387476 -5.03996e-22)
(0.948716 -0.00834674 4.83579e-22)
(0.953163 -0.0105073 2.17313e-21)
(0.957551 -0.0160937 -1.52113e-21)
(0.965756 -0.018784 0)
(0.973058 -0.0238511 9.5232e-22)
(0.986199 -0.0241656 -1.36213e-21)
(0.995894 -0.0277562 4.59649e-22)
(1.01161 -0.0258147 -1.26549e-22)
(1.02195 -0.0261535 -7.73976e-25)
(1.03605 -0.0208722 1.4972e-22)
(1.04327 -0.0196996 -1.34657e-22)
(1.05468 -0.0140268 3.92043e-23)
(1.06007 -0.0138226 -2.91601e-23)
(1.06772 -0.0105789 3.45262e-23)
(1.07318 -0.0109743 0)
(1.08312 -0.00562701 0)
(1.09147 0.000214649 8.08702e-23)
(1.10417 0.0171225 -8.99175e-22)
(1.09971 0.0313022 1.01712e-21)
(1.09381 0.0496125 0)
(1.07113 0.0607778 -1.37628e-21)
(1.04018 0.0639549 1.40888e-21)
(1.00656 0.0719483 -1.94562e-21)
(0.96257 0.0595566 1.72171e-21)
(0.939204 0.0543685 -4.03947e-21)
(0.895271 0.0385603 4.55902e-21)
(0.878472 0.0260184 0)
(0.844202 0.00526627 0)
(0.854928 -0.0341156 7.81049e-22)
(0.958689 0.00362435 -8.67194e-23)
(0.956784 0.00361597 7.99784e-21)
(0.953872 0.0052577 -9.35213e-22)
(0.951722 0.00569184 -9.8572e-22)
(0.949558 0.00561589 -8.14973e-21)
(0.948221 0.00405374 1.23531e-20)
(0.946601 0.00304447 -4.18547e-21)
(0.945982 0.00118826 4.25285e-21)
(0.945096 -0.000421589 -5.35411e-21)
(0.945029 -0.00348049 -4.72077e-21)
(0.947134 -0.00537775 8.78136e-21)
(0.948424 -0.0104592 -8.40512e-21)
(0.953888 -0.0125764 3.85578e-21)
(0.957456 -0.018907 0)
(0.966855 -0.0213474 0)
(0.973399 -0.027017 -1.23115e-21)
(0.987881 -0.0274383 8.52597e-22)
(0.99666 -0.0308352 2.94136e-22)
(1.01228 -0.0288694 -3.5336e-23)
(1.02223 -0.0293008 3.97611e-23)
(1.03753 -0.0231935 -8.13636e-24)
(1.0436 -0.0215654 -3.38601e-22)
(1.05442 -0.0156164 2.97774e-22)
(1.05899 -0.0148423 4.5733e-22)
(1.06795 -0.0117802 -4.56147e-22)
(1.07331 -0.0122035 0)
(1.08342 -0.00856017 0)
(1.09011 -0.003588 7.4449e-23)
(1.10456 0.0109248 -8.87953e-22)
(1.10418 0.026805 8.8559e-22)
(1.10289 0.047455 1.14079e-21)
(1.08708 0.0667927 2.51029e-22)
(1.0529 0.070421 -1.11939e-21)
(1.0258 0.0822974 -1.59714e-21)
(0.979044 0.0736208 5.33543e-21)
(0.954954 0.0656067 -3.2421e-21)
(0.905278 0.0521236 -5.50695e-22)
(0.885467 0.0401341 5.32879e-21)
(0.845506 0.0272498 -4.61495e-21)
(0.843025 -0.00585584 -9.53525e-23)
(0.957844 0.00479734 -7.33026e-21)
(0.95585 0.00468445 1.41084e-20)
(0.952938 0.00632953 2.42837e-22)
(0.95061 0.00663256 -1.63077e-20)
(0.948653 0.00639856 1.04195e-20)
(0.947531 0.0046148 0)
(0.945668 0.00330537 0)
(0.945204 0.00115892 1.10796e-21)
(0.944871 -0.000651872 5.51787e-22)
(0.944202 -0.00435603 -3.22393e-21)
(0.946968 -0.00644487 4.34315e-21)
(0.948275 -0.0122349 -3.93473e-21)
(0.9542 -0.0144467 5.75601e-21)
(0.957785 -0.0213005 -1.38166e-21)
(0.967726 -0.0238381 1.27943e-21)
(0.974184 -0.0303728 -2.0848e-21)
(0.98794 -0.0303687 5.65487e-22)
(0.997796 -0.0340333 1.74825e-22)
(1.01447 -0.0316881 1.32466e-22)
(1.02274 -0.0318357 -5.10858e-23)
(1.03724 -0.02579 0)
(1.04328 -0.0233365 -3.3372e-22)
(1.05496 -0.0176984 3.83702e-22)
(1.05893 -0.0161528 0)
(1.06778 -0.0142865 0)
(1.07264 -0.0144474 2.68705e-23)
(1.08285 -0.0126958 1.75105e-22)
(1.089 -0.00832743 -3.50809e-22)
(1.10311 0.00379578 1.0158e-22)
(1.10914 0.0229127 0)
(1.10631 0.04115 -1.08299e-21)
(1.09937 0.0682494 9.53814e-22)
(1.07295 0.0750041 -2.45743e-22)
(1.04422 0.0872176 0)
(0.995117 0.0870064 0)
(0.9711 0.0804111 -4.52166e-21)
(0.922268 0.069179 4.56153e-21)
(0.899221 0.056888 4.49682e-21)
(0.85053 0.0499211 -6.33676e-21)
(0.839663 0.0167773 -7.29493e-22)
(0.956359 0.00462648 -7.65237e-21)
(0.954372 0.00444632 8.72348e-21)
(0.95156 0.00611185 0)
(0.949442 0.00622567 2.12784e-21)
(0.947214 0.00591545 -2.18837e-21)
(0.946411 0.00384193 5.60396e-21)
(0.945201 0.00254873 -5.66204e-21)
(0.94366 -8.88889e-05 9.08092e-24)
(0.94455 -0.0020928 -4.54247e-21)
(0.943828 -0.0060637 7.90406e-21)
(0.946844 -0.00848304 -3.38426e-21)
(0.94794 -0.0149555 4.56356e-21)
(0.954564 -0.0170588 -2.2305e-21)
(0.958222 -0.0248148 -2.2831e-21)
(0.968494 -0.0273034 0)
(0.974905 -0.0339334 0)
(0.988796 -0.0343908 0)
(0.998524 -0.0378942 -5.79834e-23)
(1.01603 -0.0350747 6.97314e-23)
(1.02431 -0.0347156 0)
(1.03822 -0.0285782 -2.00769e-22)
(1.04352 -0.0255763 -2.31564e-22)
(1.05504 -0.0200584 -2.4374e-23)
(1.0587 -0.0175856 4.02652e-22)
(1.06713 -0.0160969 0)
(1.07176 -0.0164155 -1.00124e-22)
(1.08136 -0.0154506 2.54061e-22)
(1.09016 -0.0120486 -1.79305e-22)
(1.09922 -0.00463331 -9.93421e-25)
(1.11452 0.0166697 0)
(1.11234 0.0348151 -9.16548e-22)
(1.11108 0.0638328 9.10094e-22)
(1.08662 0.0782484 4.66673e-22)
(1.0654 0.0955108 -9.86237e-22)
(1.01563 0.0976559 3.95872e-21)
(0.988963 0.0942449 -3.0201e-21)
(0.940997 0.0867829 0)
(0.911475 0.0701388 5.37219e-21)
(0.863139 0.0704059 -4.67547e-21)
(0.841131 0.0359239 -6.21327e-22)
(0.95539 0.0058266 0)
(0.953394 0.00554103 8.34655e-21)
(0.950408 0.00708595 2.45623e-22)
(0.948232 0.00713297 -1.09904e-20)
(0.946379 0.00657037 9.15628e-21)
(0.944959 0.00416449 -9.25266e-21)
(0.944457 0.00259796 1.17458e-21)
(0.943005 -0.000457392 3.55779e-21)
(0.943644 -0.00263158 -5.96894e-21)
(0.942948 -0.0072891 5.79178e-21)
(0.946637 -0.00999498 -9.08775e-21)
(0.947621 -0.0171053 3.92309e-21)
(0.954298 -0.0193233 1.88242e-21)
(0.958141 -0.027778 -1.89382e-21)
(0.969079 -0.0300055 -1.66319e-21)
(0.975838 -0.0372815 2.22262e-21)
(0.990235 -0.0376065 -1.17114e-21)
(0.999394 -0.0411407 2.33686e-22)
(1.01677 -0.0383611 -8.18066e-24)
(1.02515 -0.0369473 9.55659e-24)
(1.04015 -0.0311725 -2.30649e-22)
(1.04454 -0.0266981 1.71054e-22)
(1.05478 -0.0221571 -6.46544e-24)
(1.05773 -0.0186442 8.35261e-22)
(1.06523 -0.0176323 -7.19576e-22)
(1.0716 -0.0177412 1.0824e-22)
(1.07838 -0.019756 -3.22928e-24)
(1.09268 -0.0158233 7.39742e-23)
(1.09936 -0.0100788 -1.03216e-21)
(1.11425 0.00636618 -3.52735e-23)
(1.11712 0.0267107 9.5143e-22)
(1.12254 0.05843 8.24002e-22)
(1.10095 0.0776642 -1.03766e-21)
(1.08094 0.0976786 -1.08252e-21)
(1.04387 0.110741 1.58223e-21)
(1.00483 0.104746 0)
(0.962386 0.105277 0)
(0.931303 0.0872325 4.86286e-21)
(0.879925 0.0912214 -3.73402e-21)
(0.8511 0.058215 1.21896e-21)
(0.953673 0.00544593 -8.31103e-23)
(0.951918 0.00526386 7.41151e-21)
(0.948892 0.00647029 1.12895e-21)
(0.946753 0.0063822 1.15255e-21)
(0.945406 0.00569982 1.19319e-20)
(0.943687 0.00313462 -6.00232e-21)
(0.943289 0.00128618 -6.15281e-21)
(0.941918 -0.00198349 0)
(0.943265 -0.00448561 1.2311e-21)
(0.942204 -0.00974341 3.56409e-21)
(0.94615 -0.012621 -6.00288e-21)
(0.947309 -0.020215 -4.28993e-21)
(0.954625 -0.0227156 4.83643e-21)
(0.958379 -0.0315895 0)
(0.969605 -0.0341641 1.68233e-21)
(0.976564 -0.0413927 -1.30886e-21)
(0.991553 -0.0419762 -2.2391e-22)
(1.00075 -0.0449989 2.62519e-22)
(1.01831 -0.0423381 -1.29546e-22)
(1.02672 -0.0400614 1.07405e-22)
(1.04153 -0.0342044 1.62782e-23)
(1.04635 -0.0289085 0)
(1.05456 -0.0239004 6.82252e-23)
(1.05826 -0.0200281 -1.17028e-22)
(1.06194 -0.01992 9.4137e-23)
(1.07126 -0.0197394 -2.60899e-22)
(1.07771 -0.0220487 5.07231e-23)
(1.09067 -0.0205844 1.32673e-22)
(1.09953 -0.0168165 0)
(1.11549 -0.00249005 0)
(1.12103 0.0172895 -8.88674e-22)
(1.12668 0.0488049 8.81855e-22)
(1.12077 0.0756456 0)
(1.09289 0.095254 -3.60283e-22)
(1.07059 0.117348 -2.13796e-21)
(1.02702 0.118136 -6.40284e-22)
(0.985736 0.121911 2.65819e-21)
(0.956884 0.102718 3.41581e-21)
(0.906316 0.114188 -3.85966e-21)
(0.859887 0.0775924 -7.23454e-23)
(0.95249 0.00663442 -8.79467e-21)
(0.950673 0.00629189 8.90231e-21)
(0.947664 0.00736553 -1.16459e-21)
(0.945461 0.0070604 0)
(0.94385 0.00617592 -1.12418e-20)
(0.942536 0.00324171 1.51899e-20)
(0.942194 0.00112403 -3.85605e-21)
(0.940327 -0.00281166 0)
(0.942233 -0.00569819 1.14935e-20)
(0.941141 -0.0112996 -5.93444e-21)
(0.945427 -0.0145011 -5.0147e-21)
(0.946604 -0.0229155 -4.42824e-21)
(0.954282 -0.0254391 5.91319e-21)
(0.958192 -0.0349118 -1.53509e-21)
(0.969992 -0.0376033 1.68105e-21)
(0.977164 -0.0449099 -1.44711e-21)
(0.992625 -0.045738 -1.94619e-22)
(1.0021 -0.0482741 2.47859e-22)
(1.01935 -0.0459694 6.28654e-23)
(1.02986 -0.0421874 -1.33847e-22)
(1.04124 -0.0372195 -3.5759e-23)
(1.05046 -0.0292397 -6.58419e-22)
(1.05324 -0.0261013 7.43186e-22)
(1.05943 -0.0203498 9.95102e-22)
(1.06164 -0.0205204 -1.0837e-21)
(1.06766 -0.0222149 2.56266e-22)
(1.07401 -0.0246372 -2.31249e-22)
(1.08907 -0.0249718 0)
(1.09865 -0.0219398 -1.15123e-21)
(1.11563 -0.0120934 1.04552e-22)
(1.12647 0.00643022 -1.40068e-22)
(1.13014 0.0350046 9.23429e-22)
(1.13597 0.0694855 0)
(1.11092 0.0917633 -4.08213e-22)
(1.08664 0.120991 3.72188e-22)
(1.0586 0.126065 1.66196e-22)
(1.00785 0.139288 -2.45976e-22)
(0.974261 0.11701 0)
(0.934907 0.132786 0)
(0.885404 0.105673 -9.91513e-22)
(0.950791 0.00604271 -9.23523e-21)
(0.948935 0.00552735 9.35805e-21)
(0.94598 0.00657606 0)
(0.943774 0.00608083 0)
(0.942526 0.00485017 0)
(0.940628 0.00181711 0)
(0.94136 -0.000806014 0)
(0.939252 -0.00484628 0)
(0.94147 -0.00819888 -8.02044e-21)
(0.940331 -0.0144066 9.34273e-21)
(0.945064 -0.0178136 4.94067e-21)
(0.946142 -0.0265065 -9.99596e-22)
(0.954352 -0.0296429 -2.57686e-21)
(0.958378 -0.0392201 -2.52873e-21)
(0.970625 -0.0425211 -1.69436e-21)
(0.978544 -0.0495533 6.11849e-22)
(0.992816 -0.050737 6.83843e-22)
(1.00595 -0.0522184 2.66331e-22)
(1.01821 -0.0509371 1.32326e-22)
(1.03459 -0.044919 -1.8101e-22)
(1.04105 -0.0408885 -2.35367e-24)
(1.05298 -0.0316532 -8.574e-22)
(1.0556 -0.0267269 1.58524e-21)
(1.05964 -0.0221555 -5.36842e-22)
(1.06111 -0.0212555 0)
(1.06507 -0.02339 -1.54382e-22)
(1.07072 -0.027262 -2.52878e-23)
(1.08536 -0.0307451 0)
(1.09679 -0.0284055 -9.84677e-22)
(1.1131 -0.0219237 9.54609e-22)
(1.13209 -0.00360949 2.71781e-22)
(1.1347 0.0195665 0)
(1.14508 0.0591136 0)
(1.13579 0.084478 -3.39238e-22)
(1.10225 0.119118 3.35889e-22)
(1.08117 0.129686 -9.83263e-23)
(1.03924 0.154158 1.09286e-22)
(0.998025 0.134596 2.378e-21)
(0.963783 0.147818 -2.57004e-21)
(0.909224 0.127962 4.65827e-22)
(0.94935 0.00718818 0)
(0.947499 0.00646739 0)
(0.944235 0.00724209 0)
(0.942111 0.00641837 0)
(0.941064 0.00498428 0)
(0.938603 0.00165407 6.99138e-21)
(0.939805 -0.00167294 -5.64954e-21)
(0.937425 -0.00604423 -5.63448e-21)
(0.940012 -0.00964943 1.26512e-20)
(0.938798 -0.016527 -2.95761e-21)
(0.944103 -0.0203115 -6.12434e-21)
(0.945211 -0.0295155 1.24849e-21)
(0.953327 -0.0334307 5.64319e-22)
(0.959211 -0.0426644 -4.81295e-22)
(0.968995 -0.046886 1.29976e-21)
(0.981861 -0.0529727 -1.43394e-21)
(0.990964 -0.0556575 -1.1511e-22)
(1.01012 -0.055265 1.15418e-22)
(1.01946 -0.0546636 1.4352e-22)
(1.03617 -0.047868 -2.41611e-22)
(1.04388 -0.0431707 -2.70829e-24)
(1.05422 -0.0333087 1.03294e-22)
(1.05705 -0.0277395 -2.08653e-22)
(1.06053 -0.0224644 1.41164e-21)
(1.06164 -0.0211637 -1.35915e-21)
(1.0627 -0.0239895 3.50897e-22)
(1.06696 -0.0289789 -8.30722e-24)
(1.07826 -0.0342821 8.27494e-24)
(1.09492 -0.0344189 1.28791e-22)
(1.10835 -0.0312777 0)
(1.13359 -0.0162693 -1.1431e-21)
(1.14331 0.00327646 1.94921e-21)
(1.14847 0.0430262 -8.0644e-22)
(1.15456 0.074415 0)
(1.12779 0.115414 0)
(1.10159 0.127244 -5.40207e-22)
(1.06679 0.163474 6.36246e-22)
(1.02384 0.151699 -1.6299e-21)
(0.993571 0.163357 1.72694e-21)
(0.935288 0.148468 2.52379e-22)
(0.947587 0.00633525 0)
(0.945685 0.00533622 0)
(0.943331 0.00597465 1.10308e-20)
(0.940065 0.00500046 -1.26038e-20)
(0.939631 0.00300284 1.15881e-20)
(0.937024 -0.00025105 -1.46695e-20)
(0.938586 -0.00404454 -7.42227e-21)
(0.935979 -0.00905449 -1.4352e-21)
(0.938961 -0.0129874 7.46692e-21)
(0.937791 -0.0202172 0)
(0.94277 -0.0245352 1.39445e-21)
(0.946852 -0.0336947 -6.21268e-21)
(0.950709 -0.0388916 4.35592e-21)
(0.961805 -0.0471751 4.99304e-22)
(0.96803 -0.0533526 3.78431e-22)
(0.983425 -0.057946 1.02895e-23)
(0.992989 -0.0612527 -1.35502e-23)
(1.01178 -0.0603207 3.1596e-22)
(1.02211 -0.0593968 6.53623e-23)
(1.03873 -0.0511458 -2.73869e-22)
(1.04663 -0.0466403 2.65328e-23)
(1.05649 -0.0358147 -1.01104e-21)
(1.05925 -0.0286041 1.00912e-21)
(1.06125 -0.024072 -2.17362e-22)
(1.06133 -0.0216471 0)
(1.06126 -0.0234758 -1.98061e-22)
(1.06473 -0.0299179 8.55274e-23)
(1.07097 -0.037286 6.13769e-22)
(1.08831 -0.041487 4.69385e-22)
(1.10507 -0.042127 -2.61176e-21)
(1.12819 -0.027995 2.86292e-21)
(1.15189 -0.0133692 -2.3055e-21)
(1.15556 0.0242163 1.15484e-21)
(1.16754 0.0553246 0)
(1.15263 0.108309 0)
(1.12962 0.122768 0)
(1.09843 0.163573 -1.34094e-22)
(1.05081 0.165032 8.41024e-22)
(1.02289 0.178275 -7.1666e-22)
(0.965094 0.169891 -3.81504e-22)
(0.945697 0.00723138 -1.08037e-20)
(0.943259 0.00608906 1.09656e-20)
(0.941518 0.00611891 0)
(0.937926 0.0051642 1.47343e-21)
(0.937741 0.00256753 0)
(0.93469 -0.00108247 3.1061e-21)
(0.936501 -0.00513623 -1.25139e-20)
(0.933855 -0.0108594 9.54872e-21)
(0.936559 -0.0151008 -2.96227e-21)
(0.937824 -0.0225574 4.67144e-21)
(0.938863 -0.0285463 3.77974e-24)
(0.94703 -0.0362219 6.42965e-21)
(0.950072 -0.0444288 -5.13174e-21)
(0.961619 -0.0510717 -5.01487e-22)
(0.968073 -0.0579789 -3.93943e-22)
(0.984233 -0.062638 1.2155e-23)
(0.994087 -0.066215 -4.9783e-23)
(1.01294 -0.0641132 3.46708e-22)
(1.02485 -0.0639609 -6.79644e-22)
(1.04014 -0.0541265 3.32534e-22)
(1.05086 -0.0486131 5.86422e-22)
(1.05708 -0.0380314 -1.724e-21)
(1.06324 -0.0291196 4.09043e-23)
(1.0624 -0.0226632 1.126e-21)
(1.06071 -0.0213873 -2.29411e-22)
(1.05988 -0.0231338 -1.0987e-21)
(1.06124 -0.0291439 8.01455e-22)
(1.06593 -0.0387782 -7.92066e-24)
(1.07961 -0.0442224 -1.34657e-22)
(1.09958 -0.0533386 -2.04265e-22)
(1.12033 -0.0417633 -4.83364e-22)
(1.15175 -0.0321292 0)
(1.16463 0.00503595 -2.09242e-22)
(1.1793 0.0326916 0)
(1.17735 0.0911785 -9.08828e-23)
(1.15373 0.115545 0)
(1.13205 0.159724 3.55256e-22)
(1.08399 0.172558 -5.40131e-22)
(1.05594 0.192511 7.68855e-22)
(0.995393 0.187809 4.01926e-23)
(0.943657 0.0058555 9.94471e-21)
(0.941142 0.00447243 0)
(0.93947 0.00418641 1.54503e-21)
(0.935928 0.00290203 -1.4266e-20)
(0.935951 7.57744e-05 1.28398e-20)
(0.932846 -0.00404146 -3.29235e-21)
(0.934164 -0.00833299 1.4882e-20)
(0.933819 -0.0142189 -1.67198e-20)
(0.932631 -0.0202151 1.63388e-21)
(0.938215 -0.0263322 1.59088e-21)
(0.938084 -0.03483 -7.60784e-22)
(0.946317 -0.0416886 -7.04095e-22)
(0.949499 -0.0502493 2.26703e-21)
(0.962166 -0.057139 -1.761e-21)
(0.969152 -0.0645855 0)
(0.985828 -0.0686658 1.46004e-23)
(0.996235 -0.0727036 -1.55913e-23)
(1.01468 -0.0698349 0)
(1.02895 -0.0681737 4.01636e-22)
(1.04152 -0.0601951 -4.02048e-22)
(1.05552 -0.0505537 -3.58824e-23)
(1.05924 -0.0413562 0)
(1.06584 -0.0309359 0)
(1.06528 -0.0226756 0)
(1.06136 -0.0205343 5.23974e-22)
(1.05839 -0.0224232 3.28706e-22)
(1.05798 -0.0272446 -3.62031e-22)
(1.0599 -0.0400552 3.68779e-22)
(1.07124 -0.0474222 2.68888e-22)
(1.08821 -0.0609919 -2.38428e-22)
(1.11206 -0.055711 -1.52193e-21)
(1.14719 -0.0531715 4.1262e-21)
(1.16885 -0.0181069 -1.58055e-21)
(1.18665 0.00638267 -1.2231e-24)
(1.20185 0.0656922 1.54325e-21)
(1.18052 0.102319 -1.43195e-21)
(1.16689 0.150307 -2.54985e-22)
(1.11996 0.172322 -2.4473e-21)
(1.09428 0.199305 5.34511e-22)
(1.03028 0.206186 1.53095e-21)
(0.941092 0.00637552 1.48847e-21)
(0.938411 0.00487592 -1.58267e-21)
(0.936768 0.00418924 4.08236e-23)
(0.933135 0.00254532 1.65941e-21)
(0.932852 -0.000733906 0)
(0.931603 -0.00455474 -3.48433e-21)
(0.92909 -0.0110776 7.08694e-21)
(0.932599 -0.0161789 8.7155e-21)
(0.930157 -0.0239163 -7.04346e-21)
(0.935628 -0.0292858 1.70044e-21)
(0.935507 -0.0389752 0)
(0.945088 -0.0458374 -4.74029e-21)
(0.948407 -0.0560481 8.48295e-21)
(0.961602 -0.0623133 -1.82489e-21)
(0.968801 -0.0699771 -3.64108e-22)
(0.986336 -0.0748449 5.46656e-22)
(0.998143 -0.0763446 -4.21122e-22)
(1.01576 -0.0767433 0)
(1.03255 -0.0705633 0)
(1.04399 -0.064811 0)
(1.05827 -0.0532626 4.67729e-23)
(1.06316 -0.0419716 0)
(1.06806 -0.0325412 -1.54889e-21)
(1.06732 -0.0219419 4.28773e-21)
(1.06244 -0.017902 -3.02413e-21)
(1.05723 -0.0197786 -4.98693e-22)
(1.05459 -0.0250104 0)
(1.05312 -0.037837 0)
(1.06209 -0.0481616 -2.30748e-23)
(1.07754 -0.0661908 2.56564e-21)
(1.09842 -0.0662713 8.98672e-22)
(1.13341 -0.0744243 -2.35379e-21)
(1.17096 -0.0453823 -5.34964e-22)
(1.18737 -0.0214963 -5.28462e-22)
(1.21921 0.0317089 2.4664e-22)
(1.21012 0.0761895 -3.25003e-22)
(1.204 0.136224 0)
(1.15791 0.167283 4.05947e-22)
(1.13556 0.200766 -3.22565e-21)
(1.06927 0.21909 3.37471e-21)
(0.938678 0.00418303 -1.45527e-20)
(0.935861 0.00255518 1.64292e-21)
(0.93421 0.00107352 -1.71221e-21)
(0.93193 -9.4257e-05 1.81793e-21)
(0.928687 -0.00422956 -1.86344e-21)
(0.930502 -0.00899409 1.30321e-20)
(0.927088 -0.0153655 -1.50895e-20)
(0.93088 -0.0207604 0)
(0.92845 -0.0292587 1.8595e-21)
(0.934756 -0.0352453 5.11596e-21)
(0.934624 -0.0459924 -6.96998e-21)
(0.944672 -0.0531079 -6.44831e-21)
(0.948373 -0.0623502 7.43674e-21)
(0.962153 -0.0710346 -2.41037e-21)
(0.970566 -0.0760958 3.04234e-23)
(0.987832 -0.0832481 0)
(1.00146 -0.0829746 3.33846e-22)
(1.01855 -0.0834294 2.94638e-22)
(1.0354 -0.0765543 -7.48145e-22)
(1.04945 -0.0692526 0)
(1.061 -0.0578948 -4.90095e-23)
(1.06817 -0.0445784 -1.84935e-21)
(1.07148 -0.033599 2.33904e-21)
(1.07095 -0.0233265 -4.70199e-22)
(1.06502 -0.0161414 0)
(1.05748 -0.0167339 1.1448e-21)
(1.05221 -0.0215917 0)
(1.04741 -0.0340631 0)
(1.05227 -0.0463153 -1.92558e-22)
(1.06424 -0.0714649 0)
(1.08538 -0.0753569 -7.11397e-22)
(1.11217 -0.0891301 2.14464e-21)
(1.16262 -0.0761545 -1.51236e-21)
(1.18609 -0.0558408 2.9057e-22)
(1.22672 -0.00622997 1.28002e-21)
(1.2315 0.0393139 -9.25217e-22)
(1.24458 0.104313 0)