/*--------------------------------*- C++ -*----------------------------------*\
  =========                 |
  \\      /  F ield         | OpenFOAM: The Open Source CFD Toolbox
   \\    /   O peration     | Website:  https://openfoam.org
    \\  /    A nd           | Version:  10
     \\/     M anipulation  |
\*---------------------------------------------------------------------------*/
FoamFile
{
    format      ascii;
    class       volVectorField;
    location    "0.599261";
    object      C;
}
// * * * * * * * * * * * * * * * * * * * * * * * * * * * * * * * * * * * * * //

dimensions      [0 1 0 0 0 0 0];

internalField   nonuniform List<vector> 
16320
(
(0.00390625 0.00390625 0.05)
(0.0117187 0.00390625 0.05)
(0.0195312 0.00390625 0.05)
(0.0273437 0.00390625 0.05)
(0.0351562 0.00390625 0.05)
(0.0429687 0.00390625 0.05)
(0.0507812 0.00390625 0.05)
(0.0585937 0.00390625 0.05)
(0.0664062 0.00390625 0.05)
(0.0742187 0.00390625 0.05)
(0.0820312 0.00390625 0.05)
(0.0898437 0.00390625 0.05)
(0.0976562 0.00390625 0.05)
(0.105469 0.00390625 0.05)
(0.113281 0.00390625 0.05)
(0.121094 0.00390625 0.05)
(0.128906 0.00390625 0.05)
(0.136719 0.00390625 0.05)
(0.144531 0.00390625 0.05)
(0.152344 0.00390625 0.05)
(0.160156 0.00390625 0.05)
(0.167969 0.00390625 0.05)
(0.175781 0.00390625 0.05)
(0.183594 0.00390625 0.05)
(0.191406 0.00390625 0.05)
(0.199219 0.00390625 0.05)
(0.207031 0.00390625 0.05)
(0.214844 0.00390625 0.05)
(0.222656 0.00390625 0.05)
(0.230469 0.00390625 0.05)
(0.238281 0.00390625 0.05)
(0.246094 0.00390625 0.05)
(0.253906 0.00390625 0.05)
(0.261719 0.00390625 0.05)
(0.269531 0.00390625 0.05)
(0.277344 0.00390625 0.05)
(0.285156 0.00390625 0.05)
(0.292969 0.00390625 0.05)
(0.300781 0.00390625 0.05)
(0.308594 0.00390625 0.05)
(0.316406 0.00390625 0.05)
(0.324219 0.00390625 0.05)
(0.332031 0.00390625 0.05)
(0.339844 0.00390625 0.05)
(0.347656 0.00390625 0.05)
(0.355469 0.00390625 0.05)
(0.363281 0.00390625 0.05)
(0.371094 0.00390625 0.05)
(0.378906 0.00390625 0.05)
(0.386719 0.00390625 0.05)
(0.394531 0.00390625 0.05)
(0.402344 0.00390625 0.05)
(0.410156 0.00390625 0.05)
(0.417969 0.00390625 0.05)
(0.425781 0.00390625 0.05)
(0.433594 0.00390625 0.05)
(0.441406 0.00390625 0.05)
(0.449218 0.00390625 0.05)
(0.457031 0.00390625 0.05)
(0.464843 0.00390625 0.05)
(0.472656 0.00390625 0.05)
(0.480468 0.00390625 0.05)
(0.488281 0.00390625 0.05)
(0.496093 0.00390625 0.05)
(0.503906 0.00390625 0.05)
(0.511718 0.00390625 0.05)
(0.519531 0.00390625 0.05)
(0.527343 0.00390625 0.05)
(0.535156 0.00390625 0.05)
(0.542968 0.00390625 0.05)
(0.550781 0.00390625 0.05)
(0.558593 0.00390625 0.05)
(0.566406 0.00390625 0.05)
(0.574218 0.00390625 0.05)
(0.582031 0.00390625 0.05)
(0.589843 0.00390625 0.05)
(0.597656 0.00390625 0.05)
(0.605468 0.00390625 0.05)
(0.613281 0.00390625 0.05)
(0.621093 0.00390625 0.05)
(0.628906 0.00390625 0.05)
(0.636718 0.00390625 0.05)
(0.644531 0.00390625 0.05)
(0.652343 0.00390625 0.05)
(0.660156 0.00390625 0.05)
(0.667968 0.00390625 0.05)
(0.675781 0.00390625 0.05)
(0.683593 0.00390625 0.05)
(0.691406 0.00390625 0.05)
(0.699218 0.00390625 0.05)
(0.707031 0.00390625 0.05)
(0.714843 0.00390625 0.05)
(0.722656 0.00390625 0.05)
(0.730468 0.00390625 0.05)
(0.738281 0.00390625 0.05)
(0.746093 0.00390625 0.05)
(0.753906 0.00390625 0.05)
(0.761718 0.00390625 0.05)
(0.769531 0.00390625 0.05)
(0.777343 0.00390625 0.05)
(0.785156 0.00390625 0.05)
(0.792968 0.00390625 0.05)
(0.800781 0.00390625 0.05)
(0.808593 0.00390625 0.05)
(0.816406 0.00390625 0.05)
(0.824218 0.00390625 0.05)
(0.832031 0.00390625 0.05)
(0.839843 0.00390625 0.05)
(0.847656 0.00390625 0.05)
(0.855468 0.00390625 0.05)
(0.863281 0.00390625 0.05)
(0.871093 0.00390625 0.05)
(0.878906 0.00390625 0.05)
(0.00390625 0.0117188 0.05)
(0.0117187 0.0117188 0.05)
(0.0195312 0.0117188 0.05)
(0.0273437 0.0117188 0.05)
(0.0351562 0.0117188 0.05)
(0.0429687 0.0117188 0.05)
(0.0507812 0.0117188 0.05)
(0.0585937 0.0117188 0.05)
(0.0664062 0.0117188 0.05)
(0.0742187 0.0117188 0.05)
(0.0820312 0.0117188 0.05)
(0.0898437 0.0117188 0.05)
(0.0976562 0.0117188 0.05)
(0.105469 0.0117188 0.05)
(0.113281 0.0117188 0.05)
(0.121094 0.0117188 0.05)
(0.128906 0.0117188 0.05)
(0.136719 0.0117188 0.05)
(0.144531 0.0117188 0.05)
(0.152344 0.0117188 0.05)
(0.160156 0.0117188 0.05)
(0.167969 0.0117188 0.05)
(0.175781 0.0117188 0.05)
(0.183594 0.0117188 0.05)
(0.191406 0.0117188 0.05)
(0.199219 0.0117188 0.05)
(0.207031 0.0117188 0.05)
(0.214844 0.0117188 0.05)
(0.222656 0.0117188 0.05)
(0.230469 0.0117188 0.05)
(0.238281 0.0117188 0.05)
(0.246094 0.0117188 0.05)
(0.253906 0.0117188 0.05)
(0.261719 0.0117188 0.05)
(0.269531 0.0117188 0.05)
(0.277344 0.0117188 0.05)
(0.285156 0.0117188 0.05)
(0.292969 0.0117188 0.05)
(0.300781 0.0117188 0.05)
(0.308594 0.0117188 0.05)
(0.316406 0.0117188 0.05)
(0.324219 0.0117188 0.05)
(0.332031 0.0117188 0.05)
(0.339844 0.0117188 0.05)
(0.347656 0.0117188 0.05)
(0.355469 0.0117188 0.05)
(0.363281 0.0117188 0.05)
(0.371094 0.0117188 0.05)
(0.378906 0.0117188 0.05)
(0.386719 0.0117188 0.05)
(0.394531 0.0117188 0.05)
(0.402344 0.0117188 0.05)
(0.410156 0.0117188 0.05)
(0.417969 0.0117188 0.05)
(0.425781 0.0117188 0.05)
(0.433594 0.0117188 0.05)
(0.441406 0.0117188 0.05)
(0.449218 0.0117188 0.05)
(0.457031 0.0117188 0.05)
(0.464843 0.0117188 0.05)
(0.472656 0.0117188 0.05)
(0.480468 0.0117188 0.05)
(0.488281 0.0117188 0.05)
(0.496093 0.0117188 0.05)
(0.503906 0.0117188 0.05)
(0.511718 0.0117188 0.05)
(0.519531 0.0117188 0.05)
(0.527343 0.0117188 0.05)
(0.535156 0.0117188 0.05)
(0.542968 0.0117188 0.05)
(0.550781 0.0117188 0.05)
(0.558593 0.0117188 0.05)
(0.566406 0.0117188 0.05)
(0.574218 0.0117188 0.05)
(0.582031 0.0117188 0.05)
(0.589843 0.0117188 0.05)
(0.597656 0.0117188 0.05)
(0.605468 0.0117188 0.05)
(0.613281 0.0117188 0.05)
(0.621093 0.0117188 0.05)
(0.628906 0.0117188 0.05)
(0.636718 0.0117188 0.05)
(0.644531 0.0117188 0.05)
(0.652343 0.0117188 0.05)
(0.660156 0.0117188 0.05)
(0.667968 0.0117188 0.05)
(0.675781 0.0117188 0.05)
(0.683593 0.0117188 0.05)
(0.691406 0.0117188 0.05)
(0.699218 0.0117188 0.05)
(0.707031 0.0117188 0.05)
(0.714843 0.0117188 0.05)
(0.722656 0.0117188 0.05)
(0.730468 0.0117188 0.05)
(0.738281 0.0117188 0.05)
(0.746093 0.0117188 0.05)
(0.753906 0.0117188 0.05)
(0.761718 0.0117188 0.05)
(0.769531 0.0117188 0.05)
(0.777343 0.0117188 0.05)
(0.785156 0.0117188 0.05)
(0.792968 0.0117188 0.05)
(0.800781 0.0117188 0.05)
(0.808593 0.0117188 0.05)
(0.816406 0.0117188 0.05)
(0.824218 0.0117188 0.05)
(0.832031 0.0117188 0.05)
(0.839843 0.0117188 0.05)
(0.847656 0.0117188 0.05)
(0.855468 0.0117188 0.05)
(0.863281 0.0117188 0.05)
(0.871093 0.0117188 0.05)
(0.878906 0.0117188 0.05)
(0.00390625 0.0195313 0.05)
(0.0117187 0.0195313 0.05)
(0.0195312 0.0195313 0.05)
(0.0273437 0.0195313 0.05)
(0.0351562 0.0195313 0.05)
(0.0429687 0.0195313 0.05)
(0.0507812 0.0195313 0.05)
(0.0585937 0.0195313 0.05)
(0.0664062 0.0195313 0.05)
(0.0742187 0.0195313 0.05)
(0.0820312 0.0195313 0.05)
(0.0898437 0.0195313 0.05)
(0.0976562 0.0195313 0.05)
(0.105469 0.0195313 0.05)
(0.113281 0.0195313 0.05)
(0.121094 0.0195313 0.05)
(0.128906 0.0195313 0.05)
(0.136719 0.0195313 0.05)
(0.144531 0.0195313 0.05)
(0.152344 0.0195313 0.05)
(0.160156 0.0195313 0.05)
(0.167969 0.0195313 0.05)
(0.175781 0.0195313 0.05)
(0.183594 0.0195313 0.05)
(0.191406 0.0195313 0.05)
(0.199219 0.0195313 0.05)
(0.207031 0.0195313 0.05)
(0.214844 0.0195313 0.05)
(0.222656 0.0195313 0.05)
(0.230469 0.0195313 0.05)
(0.238281 0.0195313 0.05)
(0.246094 0.0195313 0.05)
(0.253906 0.0195313 0.05)
(0.261719 0.0195313 0.05)
(0.269531 0.0195313 0.05)
(0.277344 0.0195313 0.05)
(0.285156 0.0195313 0.05)
(0.292969 0.0195313 0.05)
(0.300781 0.0195313 0.05)
(0.308594 0.0195313 0.05)
(0.316406 0.0195313 0.05)
(0.324219 0.0195313 0.05)
(0.332031 0.0195313 0.05)
(0.339844 0.0195313 0.05)
(0.347656 0.0195313 0.05)
(0.355469 0.0195313 0.05)
(0.363281 0.0195313 0.05)
(0.371094 0.0195313 0.05)
(0.378906 0.0195313 0.05)
(0.386719 0.0195313 0.05)
(0.394531 0.0195313 0.05)
(0.402344 0.0195313 0.05)
(0.410156 0.0195313 0.05)
(0.417969 0.0195313 0.05)
(0.425781 0.0195313 0.05)
(0.433594 0.0195313 0.05)
(0.441406 0.0195313 0.05)
(0.449218 0.0195313 0.05)
(0.457031 0.0195313 0.05)
(0.464843 0.0195313 0.05)
(0.472656 0.0195313 0.05)
(0.480468 0.0195313 0.05)
(0.488281 0.0195313 0.05)
(0.496093 0.0195313 0.05)
(0.503906 0.0195313 0.05)
(0.511718 0.0195313 0.05)
(0.519531 0.0195313 0.05)
(0.527343 0.0195313 0.05)
(0.535156 0.0195313 0.05)
(0.542968 0.0195313 0.05)
(0.550781 0.0195313 0.05)
(0.558593 0.0195313 0.05)
(0.566406 0.0195313 0.05)
(0.574218 0.0195313 0.05)
(0.582031 0.0195313 0.05)
(0.589843 0.0195313 0.05)
(0.597656 0.0195313 0.05)
(0.605468 0.0195313 0.05)
(0.613281 0.0195313 0.05)
(0.621093 0.0195313 0.05)
(0.628906 0.0195313 0.05)
(0.636718 0.0195313 0.05)
(0.644531 0.0195313 0.05)
(0.652343 0.0195313 0.05)
(0.660156 0.0195313 0.05)
(0.667968 0.0195313 0.05)
(0.675781 0.0195313 0.05)
(0.683593 0.0195313 0.05)
(0.691406 0.0195313 0.05)
(0.699218 0.0195313 0.05)
(0.707031 0.0195313 0.05)
(0.714843 0.0195313 0.05)
(0.722656 0.0195313 0.05)
(0.730468 0.0195313 0.05)
(0.738281 0.0195313 0.05)
(0.746093 0.0195313 0.05)
(0.753906 0.0195313 0.05)
(0.761718 0.0195313 0.05)
(0.769531 0.0195313 0.05)
(0.777343 0.0195313 0.05)
(0.785156 0.0195313 0.05)
(0.792968 0.0195313 0.05)
(0.800781 0.0195313 0.05)
(0.808593 0.0195313 0.05)
(0.816406 0.0195313 0.05)
(0.824218 0.0195313 0.05)
(0.832031 0.0195313 0.05)
(0.839843 0.0195313 0.05)
(0.847656 0.0195313 0.05)
(0.855468 0.0195313 0.05)
(0.863281 0.0195313 0.05)
(0.871093 0.0195313 0.05)
(0.878906 0.0195313 0.05)
(0.00390625 0.0273438 0.05)
(0.0117187 0.0273438 0.05)
(0.0195312 0.0273438 0.05)
(0.0273437 0.0273438 0.05)
(0.0351562 0.0273438 0.05)
(0.0429687 0.0273438 0.05)
(0.0507812 0.0273438 0.05)
(0.0585937 0.0273438 0.05)
(0.0664062 0.0273438 0.05)
(0.0742187 0.0273438 0.05)
(0.0820312 0.0273438 0.05)
(0.0898437 0.0273438 0.05)
(0.0976562 0.0273438 0.05)
(0.105469 0.0273438 0.05)
(0.113281 0.0273438 0.05)
(0.121094 0.0273438 0.05)
(0.128906 0.0273438 0.05)
(0.136719 0.0273438 0.05)
(0.144531 0.0273438 0.05)
(0.152344 0.0273438 0.05)
(0.160156 0.0273438 0.05)
(0.167969 0.0273438 0.05)
(0.175781 0.0273438 0.05)
(0.183594 0.0273438 0.05)
(0.191406 0.0273438 0.05)
(0.199219 0.0273438 0.05)
(0.207031 0.0273438 0.05)
(0.214844 0.0273438 0.05)
(0.222656 0.0273438 0.05)
(0.230469 0.0273438 0.05)
(0.238281 0.0273438 0.05)
(0.246094 0.0273438 0.05)
(0.253906 0.0273438 0.05)
(0.261719 0.0273438 0.05)
(0.269531 0.0273438 0.05)
(0.277344 0.0273438 0.05)
(0.285156 0.0273438 0.05)
(0.292969 0.0273438 0.05)
(0.300781 0.0273438 0.05)
(0.308594 0.0273438 0.05)
(0.316406 0.0273438 0.05)
(0.324219 0.0273438 0.05)
(0.332031 0.0273438 0.05)
(0.339844 0.0273438 0.05)
(0.347656 0.0273438 0.05)
(0.355469 0.0273438 0.05)
(0.363281 0.0273438 0.05)
(0.371094 0.0273438 0.05)
(0.378906 0.0273438 0.05)
(0.386719 0.0273438 0.05)
(0.394531 0.0273438 0.05)
(0.402344 0.0273438 0.05)
(0.410156 0.0273438 0.05)
(0.417969 0.0273438 0.05)
(0.425781 0.0273438 0.05)
(0.433594 0.0273438 0.05)
(0.441406 0.0273438 0.05)
(0.449218 0.0273438 0.05)
(0.457031 0.0273438 0.05)
(0.464843 0.0273438 0.05)
(0.472656 0.0273438 0.05)
(0.480468 0.0273438 0.05)
(0.488281 0.0273438 0.05)
(0.496093 0.0273438 0.05)
(0.503906 0.0273438 0.05)
(0.511718 0.0273438 0.05)
(0.519531 0.0273438 0.05)
(0.527343 0.0273438 0.05)
(0.535156 0.0273438 0.05)
(0.542968 0.0273438 0.05)
(0.550781 0.0273438 0.05)
(0.558593 0.0273438 0.05)
(0.566406 0.0273438 0.05)
(0.574218 0.0273438 0.05)
(0.582031 0.0273438 0.05)
(0.589843 0.0273438 0.05)
(0.597656 0.0273438 0.05)
(0.605468 0.0273438 0.05)
(0.613281 0.0273438 0.05)
(0.621093 0.0273438 0.05)
(0.628906 0.0273438 0.05)
(0.636718 0.0273438 0.05)
(0.644531 0.0273438 0.05)
(0.652343 0.0273438 0.05)
(0.660156 0.0273438 0.05)
(0.667968 0.0273438 0.05)
(0.675781 0.0273438 0.05)
(0.683593 0.0273438 0.05)
(0.691406 0.0273438 0.05)
(0.699218 0.0273438 0.05)
(0.707031 0.0273438 0.05)
(0.714843 0.0273438 0.05)
(0.722656 0.0273438 0.05)
(0.730468 0.0273438 0.05)
(0.738281 0.0273438 0.05)
(0.746093 0.0273438 0.05)
(0.753906 0.0273438 0.05)
(0.761718 0.0273438 0.05)
(0.769531 0.0273438 0.05)
(0.777343 0.0273438 0.05)
(0.785156 0.0273438 0.05)
(0.792968 0.0273438 0.05)
(0.800781 0.0273438 0.05)
(0.808593 0.0273438 0.05)
(0.816406 0.0273438 0.05)
(0.824218 0.0273438 0.05)
(0.832031 0.0273438 0.05)
(0.839843 0.0273438 0.05)
(0.847656 0.0273438 0.05)
(0.855468 0.0273438 0.05)
(0.863281 0.0273438 0.05)
(0.871093 0.0273438 0.05)
(0.878906 0.0273438 0.05)
(0.00390625 0.0351563 0.05)
(0.0117187 0.0351563 0.05)
(0.0195312 0.0351563 0.05)
(0.0273437 0.0351563 0.05)
(0.0351562 0.0351563 0.05)
(0.0429687 0.0351563 0.05)
(0.0507812 0.0351563 0.05)
(0.0585937 0.0351563 0.05)
(0.0664062 0.0351563 0.05)
(0.0742187 0.0351563 0.05)
(0.0820312 0.0351563 0.05)
(0.0898437 0.0351563 0.05)
(0.0976562 0.0351563 0.05)
(0.105469 0.0351563 0.05)
(0.113281 0.0351563 0.05)
(0.121094 0.0351563 0.05)
(0.128906 0.0351563 0.05)
(0.136719 0.0351563 0.05)
(0.144531 0.0351563 0.05)
(0.152344 0.0351563 0.05)
(0.160156 0.0351563 0.05)
(0.167969 0.0351563 0.05)
(0.175781 0.0351563 0.05)
(0.183594 0.0351563 0.05)
(0.191406 0.0351563 0.05)
(0.199219 0.0351563 0.05)
(0.207031 0.0351563 0.05)
(0.214844 0.0351563 0.05)
(0.222656 0.0351563 0.05)
(0.230469 0.0351563 0.05)
(0.238281 0.0351563 0.05)
(0.246094 0.0351563 0.05)
(0.253906 0.0351563 0.05)
(0.261719 0.0351563 0.05)
(0.269531 0.0351563 0.05)
(0.277344 0.0351563 0.05)
(0.285156 0.0351563 0.05)
(0.292969 0.0351563 0.05)
(0.300781 0.0351563 0.05)
(0.308594 0.0351563 0.05)
(0.316406 0.0351563 0.05)
(0.324219 0.0351563 0.05)
(0.332031 0.0351563 0.05)
(0.339844 0.0351563 0.05)
(0.347656 0.0351563 0.05)
(0.355469 0.0351563 0.05)
(0.363281 0.0351563 0.05)
(0.371094 0.0351563 0.05)
(0.378906 0.0351563 0.05)
(0.386719 0.0351563 0.05)
(0.394531 0.0351563 0.05)
(0.402344 0.0351563 0.05)
(0.410156 0.0351563 0.05)
(0.417969 0.0351563 0.05)
(0.425781 0.0351563 0.05)
(0.433594 0.0351563 0.05)
(0.441406 0.0351563 0.05)
(0.449218 0.0351563 0.05)
(0.457031 0.0351563 0.05)
(0.464843 0.0351563 0.05)
(0.472656 0.0351563 0.05)
(0.480468 0.0351563 0.05)
(0.488281 0.0351563 0.05)
(0.496093 0.0351563 0.05)
(0.503906 0.0351563 0.05)
(0.511718 0.0351563 0.05)
(0.519531 0.0351563 0.05)
(0.527343 0.0351563 0.05)
(0.535156 0.0351563 0.05)
(0.542968 0.0351563 0.05)
(0.550781 0.0351563 0.05)
(0.558593 0.0351563 0.05)
(0.566406 0.0351563 0.05)
(0.574218 0.0351563 0.05)
(0.582031 0.0351563 0.05)
(0.589843 0.0351563 0.05)
(0.597656 0.0351563 0.05)
(0.605468 0.0351563 0.05)
(0.613281 0.0351563 0.05)
(0.621093 0.0351563 0.05)
(0.628906 0.0351563 0.05)
(0.636718 0.0351563 0.05)
(0.644531 0.0351563 0.05)
(0.652343 0.0351563 0.05)
(0.660156 0.0351563 0.05)
(0.667968 0.0351563 0.05)
(0.675781 0.0351563 0.05)
(0.683593 0.0351563 0.05)
(0.691406 0.0351563 0.05)
(0.699218 0.0351563 0.05)
(0.707031 0.0351563 0.05)
(0.714843 0.0351563 0.05)
(0.722656 0.0351563 0.05)
(0.730468 0.0351563 0.05)
(0.738281 0.0351563 0.05)
(0.746093 0.0351563 0.05)
(0.753906 0.0351563 0.05)
(0.761718 0.0351563 0.05)
(0.769531 0.0351563 0.05)
(0.777343 0.0351563 0.05)
(0.785156 0.0351563 0.05)
(0.792968 0.0351563 0.05)
(0.800781 0.0351563 0.05)
(0.808593 0.0351563 0.05)
(0.816406 0.0351563 0.05)
(0.824218 0.0351563 0.05)
(0.832031 0.0351563 0.05)
(0.839843 0.0351563 0.05)
(0.847656 0.0351563 0.05)
(0.855468 0.0351563 0.05)
(0.863281 0.0351563 0.05)
(0.871093 0.0351563 0.05)
(0.878906 0.0351563 0.05)
(0.00390625 0.0429688 0.05)
(0.0117187 0.0429688 0.05)
(0.0195312 0.0429688 0.05)
(0.0273437 0.0429688 0.05)
(0.0351562 0.0429688 0.05)
(0.0429687 0.0429688 0.05)
(0.0507812 0.0429688 0.05)
(0.0585937 0.0429688 0.05)
(0.0664062 0.0429688 0.05)
(0.0742187 0.0429688 0.05)
(0.0820312 0.0429688 0.05)
(0.0898437 0.0429688 0.05)
(0.0976562 0.0429688 0.05)
(0.105469 0.0429688 0.05)
(0.113281 0.0429688 0.05)
(0.121094 0.0429688 0.05)
(0.128906 0.0429688 0.05)
(0.136719 0.0429688 0.05)
(0.144531 0.0429688 0.05)
(0.152344 0.0429688 0.05)
(0.160156 0.0429688 0.05)
(0.167969 0.0429688 0.05)
(0.175781 0.0429688 0.05)
(0.183594 0.0429688 0.05)
(0.191406 0.0429688 0.05)
(0.199219 0.0429688 0.05)
(0.207031 0.0429688 0.05)
(0.214844 0.0429688 0.05)
(0.222656 0.0429688 0.05)
(0.230469 0.0429688 0.05)
(0.238281 0.0429688 0.05)
(0.246094 0.0429688 0.05)
(0.253906 0.0429688 0.05)
(0.261719 0.0429688 0.05)
(0.269531 0.0429688 0.05)
(0.277344 0.0429688 0.05)
(0.285156 0.0429688 0.05)
(0.292969 0.0429688 0.05)
(0.300781 0.0429688 0.05)
(0.308594 0.0429688 0.05)
(0.316406 0.0429688 0.05)
(0.324219 0.0429688 0.05)
(0.332031 0.0429688 0.05)
(0.339844 0.0429688 0.05)
(0.347656 0.0429688 0.05)
(0.355469 0.0429688 0.05)
(0.363281 0.0429688 0.05)
(0.371094 0.0429688 0.05)
(0.378906 0.0429688 0.05)
(0.386719 0.0429688 0.05)
(0.394531 0.0429688 0.05)
(0.402344 0.0429688 0.05)
(0.410156 0.0429688 0.05)
(0.417969 0.0429688 0.05)
(0.425781 0.0429688 0.05)
(0.433594 0.0429688 0.05)
(0.441406 0.0429688 0.05)
(0.449218 0.0429688 0.05)
(0.457031 0.0429688 0.05)
(0.464843 0.0429688 0.05)
(0.472656 0.0429688 0.05)
(0.480468 0.0429688 0.05)
(0.488281 0.0429688 0.05)
(0.496093 0.0429688 0.05)
(0.503906 0.0429688 0.05)
(0.511718 0.0429688 0.05)
(0.519531 0.0429688 0.05)
(0.527343 0.0429688 0.05)
(0.535156 0.0429688 0.05)
(0.542968 0.0429688 0.05)
(0.550781 0.0429688 0.05)
(0.558593 0.0429688 0.05)
(0.566406 0.0429688 0.05)
(0.574218 0.0429688 0.05)
(0.582031 0.0429688 0.05)
(0.589843 0.0429688 0.05)
(0.597656 0.0429688 0.05)
(0.605468 0.0429688 0.05)
(0.613281 0.0429688 0.05)
(0.621093 0.0429688 0.05)
(0.628906 0.0429688 0.05)
(0.636718 0.0429688 0.05)
(0.644531 0.0429688 0.05)
(0.652343 0.0429688 0.05)
(0.660156 0.0429688 0.05)
(0.667968 0.0429688 0.05)
(0.675781 0.0429688 0.05)
(0.683593 0.0429688 0.05)
(0.691406 0.0429688 0.05)
(0.699218 0.0429688 0.05)
(0.707031 0.0429688 0.05)
(0.714843 0.0429688 0.05)
(0.722656 0.0429688 0.05)
(0.730468 0.0429688 0.05)
(0.738281 0.0429688 0.05)
(0.746093 0.0429688 0.05)
(0.753906 0.0429688 0.05)
(0.761718 0.0429688 0.05)
(0.769531 0.0429688 0.05)
(0.777343 0.0429688 0.05)
(0.785156 0.0429688 0.05)
(0.792968 0.0429688 0.05)
(0.800781 0.0429688 0.05)
(0.808593 0.0429688 0.05)
(0.816406 0.0429688 0.05)
(0.824218 0.0429688 0.05)
(0.832031 0.0429688 0.05)
(0.839843 0.0429688 0.05)
(0.847656 0.0429688 0.05)
(0.855468 0.0429688 0.05)
(0.863281 0.0429688 0.05)
(0.871093 0.0429688 0.05)
(0.878906 0.0429688 0.05)
(0.00390625 0.0507813 0.05)
(0.0117187 0.0507813 0.05)
(0.0195312 0.0507813 0.05)
(0.0273437 0.0507813 0.05)
(0.0351562 0.0507813 0.05)
(0.0429687 0.0507813 0.05)
(0.0507812 0.0507813 0.05)
(0.0585937 0.0507813 0.05)
(0.0664062 0.0507813 0.05)
(0.0742187 0.0507813 0.05)
(0.0820312 0.0507813 0.05)
(0.0898437 0.0507813 0.05)
(0.0976562 0.0507813 0.05)
(0.105469 0.0507813 0.05)
(0.113281 0.0507813 0.05)
(0.121094 0.0507813 0.05)
(0.128906 0.0507813 0.05)
(0.136719 0.0507813 0.05)
(0.144531 0.0507813 0.05)
(0.152344 0.0507813 0.05)
(0.160156 0.0507813 0.05)
(0.167969 0.0507813 0.05)
(0.175781 0.0507813 0.05)
(0.183594 0.0507813 0.05)
(0.191406 0.0507813 0.05)
(0.199219 0.0507813 0.05)
(0.207031 0.0507813 0.05)
(0.214844 0.0507813 0.05)
(0.222656 0.0507813 0.05)
(0.230469 0.0507813 0.05)
(0.238281 0.0507813 0.05)
(0.246094 0.0507813 0.05)
(0.253906 0.0507813 0.05)
(0.261719 0.0507813 0.05)
(0.269531 0.0507813 0.05)
(0.277344 0.0507813 0.05)
(0.285156 0.0507813 0.05)
(0.292969 0.0507813 0.05)
(0.300781 0.0507813 0.05)
(0.308594 0.0507813 0.05)
(0.316406 0.0507813 0.05)
(0.324219 0.0507813 0.05)
(0.332031 0.0507813 0.05)
(0.339844 0.0507813 0.05)
(0.347656 0.0507813 0.05)
(0.355469 0.0507813 0.05)
(0.363281 0.0507813 0.05)
(0.371094 0.0507813 0.05)
(0.378906 0.0507813 0.05)
(0.386719 0.0507813 0.05)
(0.394531 0.0507813 0.05)
(0.402344 0.0507813 0.05)
(0.410156 0.0507813 0.05)
(0.417969 0.0507813 0.05)
(0.425781 0.0507813 0.05)
(0.433594 0.0507813 0.05)
(0.441406 0.0507813 0.05)
(0.449218 0.0507813 0.05)
(0.457031 0.0507813 0.05)
(0.464843 0.0507813 0.05)
(0.472656 0.0507813 0.05)
(0.480468 0.0507813 0.05)
(0.488281 0.0507813 0.05)
(0.496093 0.0507813 0.05)
(0.503906 0.0507813 0.05)
(0.511718 0.0507813 0.05)
(0.519531 0.0507813 0.05)
(0.527343 0.0507813 0.05)
(0.535156 0.0507813 0.05)
(0.542968 0.0507813 0.05)
(0.550781 0.0507813 0.05)
(0.558593 0.0507813 0.05)
(0.566406 0.0507813 0.05)
(0.574218 0.0507813 0.05)
(0.582031 0.0507813 0.05)
(0.589843 0.0507813 0.05)
(0.597656 0.0507813 0.05)
(0.605468 0.0507813 0.05)
(0.613281 0.0507813 0.05)
(0.621093 0.0507813 0.05)
(0.628906 0.0507813 0.05)
(0.636718 0.0507813 0.05)
(0.644531 0.0507813 0.05)
(0.652343 0.0507813 0.05)
(0.660156 0.0507813 0.05)
(0.667968 0.0507813 0.05)
(0.675781 0.0507813 0.05)
(0.683593 0.0507813 0.05)
(0.691406 0.0507813 0.05)
(0.699218 0.0507813 0.05)
(0.707031 0.0507813 0.05)
(0.714843 0.0507813 0.05)
(0.722656 0.0507813 0.05)
(0.730468 0.0507813 0.05)
(0.738281 0.0507813 0.05)
(0.746093 0.0507813 0.05)
(0.753906 0.0507813 0.05)
(0.761718 0.0507813 0.05)
(0.769531 0.0507813 0.05)
(0.777343 0.0507813 0.05)
(0.785156 0.0507813 0.05)
(0.792968 0.0507813 0.05)
(0.800781 0.0507813 0.05)
(0.808593 0.0507813 0.05)
(0.816406 0.0507813 0.05)
(0.824218 0.0507813 0.05)
(0.832031 0.0507813 0.05)
(0.839843 0.0507813 0.05)
(0.847656 0.0507813 0.05)
(0.855468 0.0507813 0.05)
(0.863281 0.0507813 0.05)
(0.871093 0.0507813 0.05)
(0.878906 0.0507813 0.05)
(0.00390625 0.0585938 0.05)
(0.0117187 0.0585938 0.05)
(0.0195312 0.0585938 0.05)
(0.0273437 0.0585938 0.05)
(0.0351562 0.0585938 0.05)
(0.0429687 0.0585938 0.05)
(0.0507812 0.0585938 0.05)
(0.0585937 0.0585938 0.05)
(0.0664062 0.0585938 0.05)
(0.0742187 0.0585938 0.05)
(0.0820312 0.0585938 0.05)
(0.0898437 0.0585938 0.05)
(0.0976562 0.0585938 0.05)
(0.105469 0.0585938 0.05)
(0.113281 0.0585938 0.05)
(0.121094 0.0585938 0.05)
(0.128906 0.0585938 0.05)
(0.136719 0.0585938 0.05)
(0.144531 0.0585938 0.05)
(0.152344 0.0585938 0.05)
(0.160156 0.0585938 0.05)
(0.167969 0.0585938 0.05)
(0.175781 0.0585938 0.05)
(0.183594 0.0585938 0.05)
(0.191406 0.0585938 0.05)
(0.199219 0.0585938 0.05)
(0.207031 0.0585938 0.05)
(0.214844 0.0585938 0.05)
(0.222656 0.0585938 0.05)
(0.230469 0.0585938 0.05)
(0.238281 0.0585938 0.05)
(0.246094 0.0585938 0.05)
(0.253906 0.0585938 0.05)
(0.261719 0.0585938 0.05)
(0.269531 0.0585938 0.05)
(0.277344 0.0585938 0.05)
(0.285156 0.0585938 0.05)
(0.292969 0.0585938 0.05)
(0.300781 0.0585938 0.05)
(0.308594 0.0585938 0.05)
(0.316406 0.0585938 0.05)
(0.324219 0.0585938 0.05)
(0.332031 0.0585938 0.05)
(0.339844 0.0585938 0.05)
(0.347656 0.0585938 0.05)
(0.355469 0.0585938 0.05)
(0.363281 0.0585938 0.05)
(0.371094 0.0585938 0.05)
(0.378906 0.0585938 0.05)
(0.386719 0.0585938 0.05)
(0.394531 0.0585938 0.05)
(0.402344 0.0585938 0.05)
(0.410156 0.0585938 0.05)
(0.417969 0.0585938 0.05)
(0.425781 0.0585938 0.05)
(0.433594 0.0585938 0.05)
(0.441406 0.0585938 0.05)
(0.449218 0.0585938 0.05)
(0.457031 0.0585938 0.05)
(0.464843 0.0585938 0.05)
(0.472656 0.0585938 0.05)
(0.480468 0.0585938 0.05)
(0.488281 0.0585938 0.05)
(0.496093 0.0585938 0.05)
(0.503906 0.0585938 0.05)
(0.511718 0.0585938 0.05)
(0.519531 0.0585938 0.05)
(0.527343 0.0585938 0.05)
(0.535156 0.0585938 0.05)
(0.542968 0.0585938 0.05)
(0.550781 0.0585938 0.05)
(0.558593 0.0585938 0.05)
(0.566406 0.0585938 0.05)
(0.574218 0.0585938 0.05)
(0.582031 0.0585938 0.05)
(0.589843 0.0585938 0.05)
(0.597656 0.0585938 0.05)
(0.605468 0.0585938 0.05)
(0.613281 0.0585938 0.05)
(0.621093 0.0585938 0.05)
(0.628906 0.0585938 0.05)
(0.636718 0.0585938 0.05)
(0.644531 0.0585938 0.05)
(0.652343 0.0585938 0.05)
(0.660156 0.0585938 0.05)
(0.667968 0.0585938 0.05)
(0.675781 0.0585938 0.05)
(0.683593 0.0585938 0.05)
(0.691406 0.0585938 0.05)
(0.699218 0.0585938 0.05)
(0.707031 0.0585938 0.05)
(0.714843 0.0585938 0.05)
(0.722656 0.0585938 0.05)
(0.730468 0.0585938 0.05)
(0.738281 0.0585938 0.05)
(0.746093 0.0585938 0.05)
(0.753906 0.0585938 0.05)
(0.761718 0.0585938 0.05)
(0.769531 0.0585938 0.05)
(0.777343 0.0585938 0.05)
(0.785156 0.0585938 0.05)
(0.792968 0.0585938 0.05)
(0.800781 0.0585938 0.05)
(0.808593 0.0585938 0.05)
(0.816406 0.0585938 0.05)
(0.824218 0.0585938 0.05)
(0.832031 0.0585938 0.05)
(0.839843 0.0585938 0.05)
(0.847656 0.0585938 0.05)
(0.855468 0.0585938 0.05)
(0.863281 0.0585938 0.05)
(0.871093 0.0585938 0.05)
(0.878906 0.0585938 0.05)
(0.00390625 0.0664063 0.05)
(0.0117187 0.0664063 0.05)
(0.0195312 0.0664063 0.05)
(0.0273437 0.0664063 0.05)
(0.0351562 0.0664063 0.05)
(0.0429687 0.0664063 0.05)
(0.0507812 0.0664063 0.05)
(0.0585937 0.0664063 0.05)
(0.0664062 0.0664063 0.05)
(0.0742187 0.0664063 0.05)
(0.0820312 0.0664063 0.05)
(0.0898437 0.0664063 0.05)
(0.0976562 0.0664063 0.05)
(0.105469 0.0664063 0.05)
(0.113281 0.0664063 0.05)
(0.121094 0.0664063 0.05)
(0.128906 0.0664063 0.05)
(0.136719 0.0664063 0.05)
(0.144531 0.0664063 0.05)
(0.152344 0.0664063 0.05)
(0.160156 0.0664063 0.05)
(0.167969 0.0664063 0.05)
(0.175781 0.0664063 0.05)
(0.183594 0.0664063 0.05)
(0.191406 0.0664063 0.05)
(0.199219 0.0664063 0.05)
(0.207031 0.0664063 0.05)
(0.214844 0.0664063 0.05)
(0.222656 0.0664063 0.05)
(0.230469 0.0664063 0.05)
(0.238281 0.0664063 0.05)
(0.246094 0.0664063 0.05)
(0.253906 0.0664063 0.05)
(0.261719 0.0664063 0.05)
(0.269531 0.0664063 0.05)
(0.277344 0.0664063 0.05)
(0.285156 0.0664063 0.05)
(0.292969 0.0664063 0.05)
(0.300781 0.0664063 0.05)
(0.308594 0.0664063 0.05)
(0.316406 0.0664063 0.05)
(0.324219 0.0664063 0.05)
(0.332031 0.0664063 0.05)
(0.339844 0.0664063 0.05)
(0.347656 0.0664063 0.05)
(0.355469 0.0664063 0.05)
(0.363281 0.0664063 0.05)
(0.371094 0.0664063 0.05)
(0.378906 0.0664063 0.05)
(0.386719 0.0664063 0.05)
(0.394531 0.0664063 0.05)
(0.402344 0.0664063 0.05)
(0.410156 0.0664063 0.05)
(0.417969 0.0664063 0.05)
(0.425781 0.0664063 0.05)
(0.433594 0.0664063 0.05)
(0.441406 0.0664063 0.05)
(0.449218 0.0664063 0.05)
(0.457031 0.0664063 0.05)
(0.464843 0.0664063 0.05)
(0.472656 0.0664063 0.05)
(0.480468 0.0664063 0.05)
(0.488281 0.0664063 0.05)
(0.496093 0.0664063 0.05)
(0.503906 0.0664063 0.05)
(0.511718 0.0664063 0.05)
(0.519531 0.0664063 0.05)
(0.527343 0.0664063 0.05)
(0.535156 0.0664063 0.05)
(0.542968 0.0664063 0.05)
(0.550781 0.0664063 0.05)
(0.558593 0.0664063 0.05)
(0.566406 0.0664063 0.05)
(0.574218 0.0664063 0.05)
(0.582031 0.0664063 0.05)
(0.589843 0.0664063 0.05)
(0.597656 0.0664063 0.05)
(0.605468 0.0664063 0.05)
(0.613281 0.0664063 0.05)
(0.621093 0.0664063 0.05)
(0.628906 0.0664063 0.05)
(0.636718 0.0664063 0.05)
(0.644531 0.0664063 0.05)
(0.652343 0.0664063 0.05)
(0.660156 0.0664063 0.05)
(0.667968 0.0664063 0.05)
(0.675781 0.0664063 0.05)
(0.683593 0.0664063 0.05)
(0.691406 0.0664063 0.05)
(0.699218 0.0664063 0.05)
(0.707031 0.0664063 0.05)
(0.714843 0.0664063 0.05)
(0.722656 0.0664063 0.05)
(0.730468 0.0664063 0.05)
(0.738281 0.0664063 0.05)
(0.746093 0.0664063 0.05)
(0.753906 0.0664063 0.05)
(0.761718 0.0664063 0.05)
(0.769531 0.0664063 0.05)
(0.777343 0.0664063 0.05)
(0.785156 0.0664063 0.05)
(0.792968 0.0664063 0.05)
(0.800781 0.0664063 0.05)
(0.808593 0.0664063 0.05)
(0.816406 0.0664063 0.05)
(0.824218 0.0664063 0.05)
(0.832031 0.0664063 0.05)
(0.839843 0.0664063 0.05)
(0.847656 0.0664063 0.05)
(0.855468 0.0664063 0.05)
(0.863281 0.0664063 0.05)
(0.871093 0.0664063 0.05)
(0.878906 0.0664063 0.05)
(0.00390625 0.0742188 0.05)
(0.0117187 0.0742188 0.05)
(0.0195312 0.0742188 0.05)
(0.0273437 0.0742188 0.05)
(0.0351562 0.0742188 0.05)
(0.0429687 0.0742188 0.05)
(0.0507812 0.0742188 0.05)
(0.0585937 0.0742188 0.05)
(0.0664062 0.0742188 0.05)
(0.0742187 0.0742188 0.05)
(0.0820312 0.0742188 0.05)
(0.0898437 0.0742188 0.05)
(0.0976562 0.0742188 0.05)
(0.105469 0.0742188 0.05)
(0.113281 0.0742188 0.05)
(0.121094 0.0742188 0.05)
(0.128906 0.0742188 0.05)
(0.136719 0.0742188 0.05)
(0.144531 0.0742188 0.05)
(0.152344 0.0742188 0.05)
(0.160156 0.0742188 0.05)
(0.167969 0.0742188 0.05)
(0.175781 0.0742188 0.05)
(0.183594 0.0742188 0.05)
(0.191406 0.0742188 0.05)
(0.199219 0.0742188 0.05)
(0.207031 0.0742188 0.05)
(0.214844 0.0742188 0.05)
(0.222656 0.0742188 0.05)
(0.230469 0.0742188 0.05)
(0.238281 0.0742188 0.05)
(0.246094 0.0742188 0.05)
(0.253906 0.0742188 0.05)
(0.261719 0.0742188 0.05)
(0.269531 0.0742188 0.05)
(0.277344 0.0742188 0.05)
(0.285156 0.0742188 0.05)
(0.292969 0.0742188 0.05)
(0.300781 0.0742188 0.05)
(0.308594 0.0742188 0.05)
(0.316406 0.0742188 0.05)
(0.324219 0.0742188 0.05)
(0.332031 0.0742188 0.05)
(0.339844 0.0742188 0.05)
(0.347656 0.0742188 0.05)
(0.355469 0.0742188 0.05)
(0.363281 0.0742188 0.05)
(0.371094 0.0742188 0.05)
(0.378906 0.0742188 0.05)
(0.386719 0.0742188 0.05)
(0.394531 0.0742188 0.05)
(0.402344 0.0742188 0.05)
(0.410156 0.0742188 0.05)
(0.417969 0.0742188 0.05)
(0.425781 0.0742188 0.05)
(0.433594 0.0742188 0.05)
(0.441406 0.0742188 0.05)
(0.449218 0.0742188 0.05)
(0.457031 0.0742188 0.05)
(0.464843 0.0742188 0.05)
(0.472656 0.0742188 0.05)
(0.480468 0.0742188 0.05)
(0.488281 0.0742188 0.05)
(0.496093 0.0742188 0.05)
(0.503906 0.0742188 0.05)
(0.511718 0.0742188 0.05)
(0.519531 0.0742188 0.05)
(0.527343 0.0742188 0.05)
(0.535156 0.0742188 0.05)
(0.542968 0.0742188 0.05)
(0.550781 0.0742188 0.05)
(0.558593 0.0742188 0.05)
(0.566406 0.0742188 0.05)
(0.574218 0.0742188 0.05)
(0.582031 0.0742188 0.05)
(0.589843 0.0742188 0.05)
(0.597656 0.0742188 0.05)
(0.605468 0.0742188 0.05)
(0.613281 0.0742188 0.05)
(0.621093 0.0742188 0.05)
(0.628906 0.0742188 0.05)
(0.636718 0.0742188 0.05)
(0.644531 0.0742188 0.05)
(0.652343 0.0742188 0.05)
(0.660156 0.0742188 0.05)
(0.667968 0.0742188 0.05)
(0.675781 0.0742188 0.05)
(0.683593 0.0742188 0.05)
(0.691406 0.0742188 0.05)
(0.699218 0.0742188 0.05)
(0.707031 0.0742188 0.05)
(0.714843 0.0742188 0.05)
(0.722656 0.0742188 0.05)
(0.730468 0.0742188 0.05)
(0.738281 0.0742188 0.05)
(0.746093 0.0742188 0.05)
(0.753906 0.0742188 0.05)
(0.761718 0.0742188 0.05)
(0.769531 0.0742188 0.05)
(0.777343 0.0742188 0.05)
(0.785156 0.0742188 0.05)