/*--------------------------------*- C++ -*----------------------------------*\
  =========                 |
  \\      /  F ield         | OpenFOAM: The Open Source CFD Toolbox
   \\    /   O peration     | Website:  https://openfoam.org
    \\  /    A nd           | Version:  10
     \\/     M anipulation  |
\*---------------------------------------------------------------------------*/
FoamFile
{
    format      ascii;
    class       volScalarField;
    location    "0.599261";
    object      p;
}
// * * * * * * * * * * * * * * * * * * * * * * * * * * * * * * * * * * * * * //

dimensions      [1 -1 -2 0 0 0 0];

internalField   nonuniform List<scalar> 
16320
(
0.357548
0.364493
0.372673
0.381771
0.391781
0.402629
0.413982
0.425377
0.436374
0.446418
0.4553
0.462515
0.469207
0.475599
0.482021
0.489173
0.504038
0.522288
0.539463
0.553437
0.562769
0.569409
0.574404
0.57882
0.582675
0.586042
0.588947
0.591387
0.593383
0.594928
0.596022
0.59667
0.596899
0.596729
0.596182
0.59526
0.593973
0.592304
0.590204
0.587596
0.584318
0.580127
0.574957
0.56858
0.561203
0.553865
0.546413
0.539302
0.532801
0.526946
0.52185
0.518268
0.515165
0.513347
0.512897
0.513823
0.516185
0.519849
0.52494
0.531738
0.540157
0.549606
0.559129
0.568543
0.578031
0.588523
0.599295
0.60764
0.609603
0.604822
0.594767
0.582134
0.569778
0.560755
0.557073
0.553902
0.550943
0.548503
0.545386
0.539785
0.531474
0.520488
0.508348
0.497528
0.490062
0.487878
0.490396
0.497864
0.513902
0.53359
0.550885
0.562896
0.566555
0.561142
0.551048
0.539704
0.529947
0.523265
0.519238
0.518425
0.519929
0.523636
0.529259
0.535268
0.542024
0.548045
0.558584
0.570852
0.58384
0.594952
0.603559
0.61142
0.621587
0.361794
0.368207
0.376017
0.384574
0.394057
0.404551
0.415851
0.42738
0.438518
0.448698
0.457538
0.464995
0.471602
0.478086
0.484579
0.491349
0.50344
0.521611
0.539135
0.554366
0.564833
0.571917
0.576762
0.581006
0.584653
0.587792
0.590461
0.592675
0.594445
0.595779
0.59669
0.597198
0.597327
0.597093
0.596498
0.595556
0.59427
0.592633
0.590607
0.588127
0.585076
0.581334
0.576874
0.571512
0.565382
0.558808
0.552017
0.545099
0.538755
0.532646
0.52778
0.523284
0.519927
0.517882
0.51722
0.517956
0.520075
0.523456
0.528335
0.534681
0.542253
0.549996
0.557888
0.565889
0.574747
0.585497
0.597301
0.607248
0.611459
0.60851
0.599842
0.587479
0.574788
0.564645
0.559157
0.556209
0.553039
0.549938
0.547981
0.541501
0.532196
0.52015
0.507287
0.495893
0.487467
0.4827
0.483675
0.489761
0.502295
0.521933
0.543571
0.557421
0.562683
0.558513
0.547744
0.53627
0.526372
0.519713
0.514867
0.513586
0.515202
0.519337
0.525843
0.532331
0.538607
0.54448
0.554509
0.566594
0.580067
0.591739
0.600178
0.607006
0.615509
0.370331
0.375678
0.382843
0.390862
0.399763
0.409734
0.42068
0.432054
0.443112
0.453484
0.461457
0.469224
0.475737
0.482055
0.4885
0.495492
0.504542
0.522681
0.539978
0.555737
0.567037
0.57454
0.579327
0.583451
0.586933
0.589885
0.592348
0.59436
0.595944
0.597109
0.59787
0.598253
0.598277
0.597982
0.597348
0.596392
0.595121
0.593533
0.591602
0.589287
0.586522
0.583224
0.579272
0.574586
0.569199
0.563104
0.556853
0.550325
0.543882
0.538085
0.532528
0.527851
0.524299
0.522074
0.521295
0.521927
0.523927
0.5273
0.532098
0.538108
0.544686
0.550825
0.55705
0.563765
0.572181
0.582911
0.595459
0.60676
0.612961
0.61163
0.604452
0.592537
0.579478
0.568555
0.561732
0.5588
0.555605
0.552326
0.549881
0.543347
0.533648
0.520923
0.507578
0.495745
0.486593
0.480256
0.479704
0.483843
0.492935
0.511456
0.53452
0.553243
0.560337
0.556945
0.547489
0.534744
0.523526
0.515885
0.510283
0.507699
0.508623
0.513079
0.520275
0.52818
0.534444
0.540974
0.550147
0.561706
0.575689
0.588327
0.597508
0.604192
0.611388
0.384048
0.387602
0.393715
0.400956
0.409267
0.41862
0.428906
0.439604
0.450097
0.45992
0.468159
0.475467
0.481601
0.487567
0.49378
0.500537
0.508842
0.525516
0.54214
0.557878
0.569449
0.57712
0.582295
0.586252
0.589586
0.592338
0.594589
0.596398
0.5978
0.598811
0.599444
0.599715
0.599657
0.599322
0.598669
0.597716
0.596478
0.594964
0.593157
0.591026
0.588512
0.58553
0.581982
0.577761
0.572828
0.567259
0.561227
0.555157
0.548929
0.542625
0.536975
0.532166
0.528498
0.526215
0.525411
0.526035
0.528092
0.531625
0.536415
0.54204
0.547144
0.55206
0.556814
0.56242
0.570116
0.580218
0.592186
0.604001
0.612075
0.612764
0.607161
0.596445
0.583585
0.572484
0.564796
0.561721
0.558473
0.555028
0.552425
0.545827
0.535834
0.522879
0.509549
0.497549
0.487619
0.479806
0.477564
0.479485
0.48737
0.502915
0.525821
0.54859
0.559869
0.558013
0.548407
0.535531
0.522984
0.51363
0.507154
0.503219
0.503268
0.506846
0.513736
0.522643
0.529671
0.536961
0.545045
0.556101
0.570496
0.584174
0.594561
0.602068
0.609218
0.4025
0.404315
0.408646
0.414779
0.42229
0.430959
0.440418
0.450121
0.459841
0.46898
0.477211
0.48359
0.489258
0.494769
0.500615
0.507135
0.515164
0.530451
0.545934
0.560983
0.572425
0.580204
0.585511
0.589551
0.592693
0.595184
0.597162
0.598739
0.599944
0.600795
0.601297
0.601457
0.60133
0.600954
0.600298
0.599371
0.598195
0.596774
0.595093
0.593123
0.590823
0.588121
0.584901
0.58102
0.5764
0.571186
0.565617
0.559473
0.553173
0.546981
0.541314
0.536475
0.532823
0.530597
0.529845
0.530561
0.532809
0.536475
0.541234
0.545959
0.549911
0.553432
0.557126
0.562131
0.569028
0.578105
0.589228
0.6007
0.610123
0.612858
0.608786
0.599721
0.58746
0.576427
0.568362
0.565017
0.561605
0.558015
0.555544
0.548994
0.539107
0.526378
0.513335
0.501017
0.490225
0.480792
0.476501
0.477432
0.483969
0.496554
0.519804
0.544995
0.561333
0.560954
0.551009
0.537475
0.52416
0.51394
0.506627
0.502096
0.501355
0.503647
0.509084
0.517421
0.524671
0.532433
0.539885
0.550018
0.564322
0.578893
0.590662
0.599652
0.607619
0.426812
0.425661
0.427668
0.432209
0.438628
0.446436
0.455042
0.463663
0.472407
0.480866
0.488548
0.49356
0.498769
0.50385
0.509199
0.515427
0.523317
0.537484
0.551551
0.565385
0.57629
0.58395
0.589329
0.59338
0.596199
0.598367
0.600027
0.601326
0.6023
0.602969
0.603327
0.603367
0.603165
0.602739
0.602101
0.601237
0.600146
0.598828
0.597252
0.595406
0.593285
0.590824
0.587897
0.584293
0.579986
0.574952
0.569482
0.563486
0.557296
0.551223
0.545661
0.540967
0.537478
0.535414
0.534777
0.535675
0.538067
0.54172
0.54626
0.549557
0.55254
0.555149
0.55813
0.562729
0.568895
0.576533
0.585121
0.595798
0.606225
0.611367
0.609321
0.60215
0.59088
0.580437
0.572154
0.568536
0.5649
0.561188
0.559149
0.552734
0.543443
0.531458
0.51882
0.505941
0.49393
0.482367
0.476503
0.477149
0.482866
0.494858
0.517133
0.545165
0.565393
0.56719
0.556498
0.541564
0.527169
0.516245
0.508448
0.503732
0.502501
0.503716
0.507586
0.513815
0.520182
0.527776
0.534787
0.54406
0.557407
0.572546
0.585676
0.596517
0.605865
0.457001
0.45264
0.451439
0.453589
0.458411
0.465005
0.472505
0.480157
0.487648
0.495397
0.502278
0.505331
0.510297
0.515099
0.519815
0.525607
0.533712
0.546487
0.558867
0.571291
0.58134
0.58864
0.593907
0.597665
0.600133
0.601853
0.603116
0.604077
0.604778
0.605219
0.605401
0.605319
0.605028
0.604548
0.60398
0.603237
0.602271
0.601067
0.599572
0.59783
0.595891
0.593664
0.591037
0.587758
0.583661
0.578704
0.573018
0.567063
0.561029
0.555208
0.549952
0.54561
0.542476
0.540676
0.540255
0.541295
0.543597
0.547244
0.550552
0.552873
0.555113
0.557185
0.559947
0.56381
0.569166
0.575481
0.582888
0.592316
0.602599
0.608869
0.609069
0.603544
0.593892
0.584202
0.576063
0.572074
0.568221
0.564562
0.562902
0.557162
0.548951
0.537967
0.52562
0.511848
0.49837
0.484431
0.477834
0.478015
0.483614
0.496248
0.517921
0.549377
0.572793
0.57721
0.565283
0.549155
0.533629
0.521763
0.513471
0.508348
0.506253
0.506085
0.508042
0.512407
0.517238
0.523853
0.53006
0.538173
0.550211
0.565555
0.579893
0.592614
0.603469
0.493069
0.484479
0.480158
0.479206
0.481781
0.486656
0.49266
0.498993
0.505194
0.512043
0.517956
0.519279
0.524278
0.528871
0.532763
0.537735
0.546397
0.557022
0.567893
0.57874
0.587778
0.594548
0.599358
0.602536
0.604433
0.605584
0.606356
0.606889
0.607223
0.607363
0.607311
0.607124
0.60672
0.605998
0.605264
0.604379
0.603295
0.601994
0.600462
0.599065
0.597703
0.595963
0.593453
0.590365
0.586455
0.581579
0.575946
0.570036
0.564177
0.558699
0.553935
0.550151
0.54753
0.546117
0.545966
0.547063
0.549104
0.552355
0.554075
0.556012
0.557704
0.55936
0.561924
0.565303
0.569585
0.574793
0.581876
0.59013
0.599056
0.60564
0.60716
0.60166
0.596157
0.587336
0.579514
0.575321
0.571291
0.56757
0.566455
0.561656
0.554672
0.544872
0.532716
0.517804
0.502964
0.486988
0.479562
0.480077
0.486302
0.500498
0.524259
0.558539
0.585851
0.591927
0.578725
0.559037
0.542068
0.530053
0.52125
0.515232
0.511713
0.509901
0.510002
0.512295
0.515586
0.520957
0.525992
0.533311
0.543361
0.558674
0.573911
0.588236
0.600253
0.532719
0.520785
0.512829
0.50902
0.508545
0.511196
0.515116
0.520178
0.52498
0.52956
0.535049
0.536919
0.540936
0.545204
0.548226
0.553297
0.560706
0.569819
0.57883
0.587932
0.595692
0.601619
0.605881
0.607616
0.608977
0.609486
0.609648
0.609614
0.609491
0.609363
0.609135
0.608975
0.608694
0.608324
0.608696
0.608882
0.608724
0.607913
0.605877
0.60348
0.600736
0.597984
0.59474
0.592085
0.588235
0.583237
0.577672
0.57191
0.566354
0.561388
0.557286
0.554214
0.552225
0.551281
0.551376
0.552334
0.553859
0.556136
0.55719
0.558832
0.560279
0.561871
0.564058
0.566959
0.570527
0.574662
0.580157
0.587405
0.595294
0.601911
0.605434
0.601711
0.59589
0.589263
0.582637
0.578078
0.573943
0.570224
0.569392
0.565298
0.559297
0.550746
0.53887
0.522898
0.50688
0.490561
0.481039
0.483234
0.491288
0.508875
0.538415
0.575198
0.607152
0.611778
0.594596
0.570158
0.55215
0.539678
0.530195
0.522953
0.517921
0.514318
0.512608
0.513142
0.5148
0.519003
0.522762
0.528929
0.537757
0.552679
0.568378
0.58382
0.596665
0.571791
0.559216
0.548732
0.541536
0.538275
0.538312
0.538953
0.543399
0.546898
0.550308
0.554296
0.557874
0.55907
0.563406
0.565786
0.571934
0.577121
0.584325
0.591481
0.598675
0.604827
0.609431
0.612615
0.613365
0.613751
0.613511
0.612923
0.612226
0.611632
0.611225
0.61187
0.611594
0.611489
0.611955
0.612889
0.613343
0.613387
0.612029
0.609399
0.606576
0.603689
0.600698
0.597404
0.593264
0.58855
0.583056
0.577487
0.572056
0.567083
0.562874
0.559618
0.557382
0.556108
0.555683
0.556002
0.556786
0.558078
0.558772
0.559999
0.56142
0.562658
0.564327
0.566204
0.568685
0.571801
0.575937
0.58075
0.586509
0.592182
0.597666
0.601967
0.600208
0.595641
0.589424
0.583934
0.579688
0.575793
0.572177
0.571247
0.567476
0.562569
0.555404
0.544152
0.527136
0.509432
0.494272
0.483515
0.487974
0.499178
0.522626
0.560024
0.601687
0.633042
0.633639
0.611526
0.583239
0.56381
0.550009
0.539531
0.530799
0.524217
0.518837
0.515498
0.514242
0.514725
0.517836
0.520664
0.526146
0.533683
0.547582
0.563649
0.579476
0.592989
0.605514
0.595957
0.585507
0.576003
0.570171
0.567102
0.564752
0.567897
0.570329
0.572692
0.575808
0.579301
0.578317
0.58364
0.585851
0.591325
0.595003
0.60034
0.605491
0.610658
0.614956
0.618045
0.619616
0.619434
0.618841
0.617734
0.616102
0.614627
0.615043
0.615083
0.615225
0.616533
0.617378
0.617844
0.618055
0.616833
0.615353
0.61303
0.611076
0.609441
0.604927
0.600712
0.596794
0.59224
0.586524
0.580759
0.575308
0.57033
0.566146
0.562907
0.560674
0.559374
0.55888
0.559024
0.559588
0.560287
0.561441
0.561386
0.562564
0.563723
0.564861
0.566416
0.568013
0.570117
0.572794
0.57669
0.58059
0.586916
0.589673
0.593573
0.597514
0.598971
0.593811
0.588851
0.584675
0.580592
0.576914
0.573676
0.571662
0.568412
0.564809
0.559078
0.547929
0.529925
0.511068
0.497329
0.487959
0.494803
0.511008
0.542727
0.588737
0.633271
0.659078
0.653351
0.626112
0.596861
0.576792
0.561375
0.549046
0.538714
0.530255
0.523263
0.5183
0.515234
0.515429
0.517301
0.519361
0.524417
0.530733
0.543729
0.55962
0.575345
0.589174
0.632603
0.62788
0.620264
0.61078
0.602401
0.596698
0.592188
0.592981
0.594618
0.596552
0.59813
0.599941
0.601063
0.604797
0.608068
0.610257
0.614016
0.617388
0.62025
0.623221
0.625499
0.627009
0.626227
0.625456
0.624106
0.621959
0.618898
0.618918
0.618128
0.617819
0.617626
0.618007
0.616606
0.616976
0.617477
0.616822
0.614883
0.611065
0.606614
0.601934
0.601327
0.596375
0.592579
0.587526
0.581694
0.575909
0.570904
0.566857
0.563713
0.561648
0.560525
0.560223
0.560547
0.561288
0.562174
0.563006
0.563653
0.563736
0.564761
0.565751
0.566904
0.568186
0.569561
0.571227
0.573108
0.574908
0.577245
0.579036
0.587383
0.589539
0.591609
0.59427
0.591476
0.585438
0.583605
0.580302
0.576752
0.573278
0.570207
0.567034
0.56586
0.560907
0.549762
0.531135
0.512586
0.500177
0.494221
0.504326
0.527447
0.56862
0.621718
0.663452
0.680266
0.667946
0.639064
0.611861
0.590557
0.573186
0.558781
0.546027
0.535938
0.527378
0.520941
0.516234
0.516794
0.517495
0.518832
0.52332
0.528734
0.540846
0.556263
0.571468
0.585519
0.649707
0.651694
0.649851
0.643422
0.634496
0.626657
0.621254
0.617713
0.619471
0.620999
0.621645
0.62275
0.62525
0.62331
0.628186
0.62969
0.633519
0.634614
0.634853
0.635405
0.635805
0.634597
0.633142
0.631605
0.62914
0.62476
0.624005
0.621974
0.618266
0.616579
0.613676
0.614174
0.616765
0.616713
0.615361
0.613588
0.61029
0.604987
0.599085
0.593917
0.590477
0.587471
0.582715
0.578222
0.5734
0.568792
0.564944
0.561948
0.560252
0.559486
0.559539
0.560237
0.561377
0.562708
0.563941
0.565018
0.565533
0.565788
0.566648
0.567498
0.568685
0.569686
0.570802
0.571944
0.57328
0.575182
0.577435
0.579249
0.580991
0.586145
0.586926
0.587597
0.587949
0.583712
0.579608
0.578648
0.575499
0.572132
0.569206
0.565963
0.565916
0.560712
0.549441
0.530489
0.51434
0.50308
0.502834
0.516984
0.54754
0.598624
0.653368
0.687339
0.694268
0.678263
0.65263
0.626275
0.603356
0.584009
0.567538
0.553033
0.541086
0.530993
0.523378
0.517895
0.5184
0.5183
0.518859
0.522906
0.527519
0.538702
0.553344
0.567921
0.581996
0.659144
0.668643
0.671719
0.67129
0.665364
0.656501
0.650128
0.642429
0.643536
0.645573
0.64753
0.646364
0.645476
0.645497
0.64529
0.648359
0.648405
0.648655
0.64698
0.64556
0.644343
0.641519
0.639727
0.637207
0.632308
0.630241
0.627157
0.619688
0.615287
0.613304
0.608122
0.611615
0.612559
0.612588
0.610938
0.610021
0.606917
0.601184
0.593737
0.586985
0.578498
0.574
0.569694
0.566333
0.563124
0.560227
0.557992
0.55669
0.556371
0.556929
0.558191
0.559848
0.561732
0.563607
0.5652
0.566637
0.567091
0.567596
0.568245
0.569
0.570101
0.570909
0.571829
0.572612
0.573612
0.574902
0.57646
0.578637
0.579791
0.583246
0.582783
0.581345
0.583692
0.5809
0.574633
0.575835
0.573408
0.570487
0.567334
0.564105
0.564782
0.55945
0.547554
0.528929
0.517219
0.506201
0.512752
0.532057
0.571084
0.628513
0.678841
0.703072
0.703737
0.688022
0.664018
0.638389
0.614255
0.593338
0.575145
0.55898
0.545138
0.534073
0.525513
0.520969
0.519917
0.519381
0.519442
0.523056
0.52685
0.537028
0.550607
0.564514
0.578444
0.660404
0.67761
0.689097
0.693609
0.692631
0.686227
0.678843
0.673918
0.666988
0.670169
0.67203
0.672144
0.667964
0.665078
0.664551
0.663059
0.662065
0.660668
0.657506
0.654683
0.650909
0.648262
0.645835
0.640966
0.637476
0.634105
0.625365
0.614184
0.609852
0.602682
0.60479
0.605909
0.607682
0.608783
0.605046
0.605217
0.602784
0.596557
0.587354
0.576297
0.566565
0.560314
0.556723
0.554332
0.552703
0.551664
0.551266
0.551612
0.552762
0.554589
0.556852
0.55936
0.561896
0.564246
0.566223
0.567894
0.56833
0.569139
0.569592
0.570299
0.571241
0.571978
0.572613
0.573101
0.573829
0.574768
0.575767
0.576894
0.57817
0.579213
0.578638
0.57698
0.577519
0.575552
0.569533
0.571551
0.570493
0.567916
0.564411
0.560674
0.562771
0.556963
0.543778
0.527006
0.519469
0.512651
0.52271
0.547681
0.595184
0.653226
0.694727
0.710792
0.708539
0.694637
0.672461
0.647265
0.62248
0.60049
0.580985
0.563664
0.54816
0.53679
0.527351
0.524551
0.521875
0.520724
0.520307
0.523562
0.526621
0.535792
0.547978
0.561013
0.574609
0.655963
0.677296
0.698635
0.71196
0.717198
0.715243
0.708434
0.701312
0.69781
0.693827
0.696972
0.696985
0.691846
0.685422
0.681077
0.673706
0.672069
0.669175
0.665227
0.661451
0.657088
0.654478
0.651414
0.644133
0.642195
0.634415
0.618506
0.605467
0.59842
0.595797
0.596569
0.597309
0.600931
0.602755
0.599423
0.600062
0.597465
0.590522
0.578917
0.565175
0.553263
0.546943
0.544107
0.542976
0.54344
0.544234
0.545563
0.547444
0.549861
0.552702
0.555799
0.558965
0.561997
0.564711
0.567099
0.568778
0.569409
0.570187
0.570683
0.571422
0.572156
0.572784
0.573168
0.573644
0.574134
0.57458
0.575077
0.575585
0.576014
0.574927
0.577642
0.574578
0.570516
0.571156
0.567999
0.56435
0.566425
0.564864
0.560963
0.556229
0.56015
0.553013
0.538317
0.526101
0.520793
0.520519
0.533205
0.564192
0.616441
0.668886
0.703492
0.710957
0.708938
0.696836
0.676589
0.652268
0.627482
0.604975
0.58464
0.566219
0.550132
0.539018
0.53072
0.527205
0.524095
0.522283
0.521239
0.523996
0.526575
0.534774
0.545417
0.557378
0.570517
0.641579
0.669094
0.696589
0.721496
0.737763
0.742824
0.740099
0.73237
0.725791
0.723805
0.721718
0.721042
0.715524
0.705222
0.695583
0.687835
0.680374
0.676138
0.671421
0.666815
0.662656
0.659765
0.655402
0.648508
0.644892
0.631358
0.609866
0.595243
0.585578
0.584218
0.584046
0.587775
0.593353
0.596236
0.592748
0.593878
0.590639
0.581849
0.567716
0.551731
0.540732
0.534916
0.533081
0.533773
0.535933
0.538427
0.541282
0.544396
0.547779
0.551378
0.555065
0.558684
0.562029
0.56494
0.567817
0.569173
0.570231
0.570944
0.57155
0.572289
0.572918
0.573402
0.573857
0.574143
0.574364
0.574448
0.574548
0.57451
0.574447
0.573773
0.574047
0.571413
0.566932
0.566739
0.563966
0.558246
0.561821
0.561435
0.557615
0.553188
0.554692
0.546172
0.533651
0.527143
0.520849
0.527039
0.544174
0.581357
0.632919
0.678862
0.700176
0.70567
0.704795
0.69414
0.675613
0.65281
0.629098
0.606625
0.585887
0.566913
0.551227
0.541134
0.53525
0.530117
0.526387
0.523676
0.522051
0.524184
0.526443
0.533651
0.542787
0.553527
0.565944
0.622741
0.648694
0.683988
0.718283
0.748076
0.76743
0.773038
0.768339
0.758104
0.750493
0.747442
0.744279
0.736084
0.72617
0.710907
0.698274
0.689084
0.682317
0.676756
0.671568
0.667312
0.663939
0.657897
0.654071
0.646117
0.626019
0.601487
0.582941
0.572697
0.570803
0.570457
0.577131
0.585541
0.589887
0.58473
0.586658
0.582288
0.570812
0.554663
0.538784
0.528783
0.525209
0.52413
0.526603
0.530161
0.534139
0.538503
0.542492
0.546496
0.550569
0.554626
0.558515
0.562047
0.565334
0.567735
0.5693
0.570556
0.571404
0.572196
0.573042
0.573773
0.574151
0.574335
0.574443
0.574422
0.574267
0.57402
0.573464
0.573168
0.572315
0.569488
0.569941
0.565698
0.562016
0.560432
0.555131
0.556667
0.557373
0.553388
0.553128
0.548036
0.539137
0.530263
0.526082
0.524512
0.53305
0.555959
0.597602
0.645551
0.679847
0.69384
0.697525
0.697161
0.687803
0.671211
0.649947
0.62756
0.605602
0.585058
0.567791
0.550785
0.542479
0.537737
0.532671
0.528263
0.524812
0.522877
0.524173
0.526353
0.532427
0.540059
0.54948
0.560756
0.612913
0.625941
0.65913
0.703683
0.746819
0.783148
0.804478
0.806351
0.79444
0.779794
0.772881
0.763636
0.755296
0.742872
0.725202
0.709382
0.697209
0.68582
0.680647
0.675347
0.670956
0.667249
0.66016
0.657745
0.646351
0.622044
0.594545
0.572009
0.561061
0.55804
0.559025
0.566999
0.57779
0.583633
0.577365
0.580085
0.572844
0.559053
0.542333
0.527636
0.519023
0.515942
0.517098
0.521568
0.526819
0.532169
0.536795
0.541291
0.54578
0.550139
0.554347
0.558361
0.562152
0.565764
0.566788
0.568999
0.570481
0.571673
0.572704
0.573554
0.574163
0.574452
0.574356
0.574359
0.574212
0.574055
0.57367
0.57284
0.571907
0.570367
0.567451
0.569246
0.565524
0.559137
0.558352
0.555103
0.551365
0.553136
0.54821
0.551238
0.54501
0.534087
0.529508
0.524577
0.528551
0.540807
0.569393
0.611289
0.651535
0.675895
0.685807
0.688125
0.686955
0.678182
0.663529
0.644471
0.623517
0.602298
0.582791
0.567205
0.552928
0.546545
0.54054
0.534797
0.529712
0.525732
0.523626
0.524097
0.52603
0.531083
0.537492
0.545515
0.555233
0.60237
0.61332
0.632823
0.676735
0.733543
0.787941
0.829107
0.840688
0.828392
0.807435
0.794065
0.779949
0.769622
0.754898
0.739461
0.719256
0.702989
0.691735
0.683533
0.678087
0.673329
0.66945
0.661732
0.659315
0.645944
0.620207
0.591603
0.56598
0.553671
0.549788
0.550795
0.55879
0.569984
0.575774
0.571708
0.573827
0.559105
0.542523
0.524277
0.513964
0.510354
0.510518
0.513726
0.517815
0.523554
0.530673
0.536686
0.541802
0.546532
0.550741
0.554821
0.558549
0.561841
0.564651
0.566206
0.568494
0.570283
0.571683
0.572777
0.573642
0.573953
0.574402
0.574767
0.574577
0.574023
0.573542
0.573028
0.572082
0.570742
0.568888
0.566687
0.567274
0.564239
0.558263
0.557525
0.555091
0.549194
0.55049
0.544399
0.549739
0.541152
0.530729
0.527773
0.525862
0.53244
0.550775
0.582672
0.62196
0.655092
0.671278
0.677392
0.678346
0.675446
0.666902
0.653489
0.636214
0.616669
0.597024
0.579491
0.566178
0.555352
0.54937
0.542745
0.536394
0.530906
0.526744
0.52447
0.524403
0.525892
0.530055
0.53529
0.541955
0.550178
0.590855
0.600193
0.616607
0.647735
0.705464
0.779221
0.839563
0.862534
0.850894
0.826622
0.808063
0.791541
0.778881
0.763471
0.748284
0.726955
0.709085
0.695976
0.684742
0.679281
0.674522
0.670485
0.66263
0.65907
0.645191
0.620812
0.592886
0.566599
0.553041
0.548725
0.548879
0.556002
0.565383
0.567686
0.567239
0.563031
0.543884
0.524466
0.508282
0.50053
0.498011
0.49992
0.506011
0.515104
0.524354
0.531171
0.536108
0.541251
0.54607
0.55032
0.554108
0.557613
0.560765
0.5635
0.565585
0.567844
0.569744
0.571214
0.572134
0.573305
0.57432
0.574349
0.574129
0.57393
0.573645
0.573175
0.572462
0.571326
0.569761
0.568023
0.566615
0.566135
0.563213
0.558337
0.557512
0.555782
0.548821
0.549786
0.544167
0.545946
0.535388
0.528512
0.52496
0.5283
0.538054
0.561125
0.593713
0.630968
0.657484
0.667189
0.669486
0.668668
0.663838
0.654766
0.641872
0.625815
0.607828
0.590541
0.576848
0.566844
0.558722
0.551125
0.543618
0.537158
0.531897
0.527823
0.525519
0.525072
0.526111
0.529212
0.533495
0.538842
0.545314
0.579208
0.586872
0.601357
0.629765
0.681841
0.758521
0.832897
0.864238
0.853999
0.830609
0.811992
0.797092
0.78349
0.768688
0.751751
0.73329
0.713039
0.697642
0.687104
0.679517
0.67486
0.670549
0.662713
0.658399
0.646189
0.623674
0.598079
0.572293
0.558649
0.554478
0.554605
0.56019
0.565178
0.567631
0.564273
0.55378
0.532976
0.512234
0.497937
0.491931
0.490453
0.494332
0.503104
0.513413
0.52284
0.531013
0.537067
0.542646
0.546479
0.550153
0.553637
0.556942
0.559986
0.562609
0.564774
0.566765
0.568616
0.570303
0.572022
0.572761
0.57342
0.573782
0.573851
0.573694
0.57334
0.572826
0.572
0.570713
0.56905
0.567513
0.566312
0.565764
0.562939
0.558881
0.557961
0.556732
0.549122
0.549333
0.548866
0.542626
0.531851
0.52848
0.523953
0.529675
0.544158
0.568512
0.604816
0.638282
0.659103
0.664131
0.663232
0.659607
0.652798
0.642665
0.629666
0.614456
0.598467
0.5851
0.576678
0.568596
0.559742
0.551542
0.544121
0.537898
0.532877
0.529148
0.526997
0.526186
0.526755
0.528841
0.532076
0.536234
0.540978
0.568832
0.575545
0.587542
0.612997
0.662017
0.735537
0.811307
0.845718
0.838012
0.822543
0.809705
0.797051
0.783837
0.769646
0.753135
0.736168
0.715516
0.69927
0.688245
0.67934
0.674646
0.670378
0.663048
0.657536
0.648415
0.630735
0.60988
0.586561
0.57406
0.570394
0.570557
0.574494
0.577755
0.578784
0.572812
0.558744
0.537002
0.514916
0.498325
0.49078
0.488863
0.492748
0.502451
0.514298
0.524698
0.532665
0.538583
0.542881
0.546904
0.550811
0.553839
0.556798
0.559579
0.561913
0.563933
0.566406
0.568373
0.569511
0.57081
0.572037
0.572951
0.573254
0.573256
0.573103
0.572805
0.572369
0.571557
0.570257
0.568669
0.567339
0.566138
0.5655
0.562999
0.559879
0.558564
0.557993
0.549764
0.547475
0.551471
0.543548
0.53094
0.527977
0.524078
0.531287
0.549789
0.575341
0.613532
0.644552
0.660286
0.662753
0.658415
0.651704
0.642566
0.631074
0.617997
0.604032
0.592615
0.584329
0.576792
0.568168
0.559547
0.551497
0.544493
0.538788
0.534113
0.530664
0.528655
0.527746
0.527913
0.528987
0.531239
0.534215
0.53732
0.559991
0.565941
0.578325
0.602941
0.648594
0.715578
0.780168
0.807716
0.810708
0.808919
0.80233
0.792601
0.780969
0.767817
0.752526
0.736555
0.716712
0.700295
0.689021
0.679104
0.674585
0.670606
0.665594
0.655709
0.651165
0.639809
0.625282
0.608364
0.598622
0.595134
0.59513
0.597536
0.598384
0.597666
0.592136
0.579528
0.559098
0.535403
0.51386
0.501793
0.497715
0.499083
0.507233
0.518337
0.528039
0.535155
0.540668
0.545274
0.548634
0.55129
0.553802
0.55653
0.559104
0.561708
0.563502
0.565059
0.567055
0.568453
0.569817
0.570954
0.571907
0.571528
0.571548
0.571585
0.571535
0.571436
0.57084
0.569807
0.568594
0.567485
0.566194
0.565337
0.563357
0.561078
0.559537
0.559185
0.550632
0.544837
0.553027
0.543589
0.529636
0.527104
0.524178
0.532522
0.552952
0.581657
0.619681
0.649593
0.661834
0.662204
0.654643
0.644755
0.633187
0.620407
0.607933
0.597914
0.589703
0.582766
0.575
0.566409
0.558276
0.551174
0.544957
0.539619
0.535479
0.532282
0.53045
0.529565
0.529362
0.529902
0.530984
0.532704
0.534455
0.553809
0.559493
0.571883
0.597764
0.641024
0.699378
0.748779
0.775962
0.790165
0.794722
0.792525
0.785846
0.776246
0.764609
0.750275
0.734933
0.717586
0.701094
0.689003
0.680945
0.674624
0.671403
0.667578
0.658829
0.654635
0.648405
0.640234
0.630118
0.625131
0.620283
0.617815
0.618034
0.616534
0.613545
0.609923
0.603166
0.59028
0.567331
0.542155
0.523126
0.514718
0.513316
0.519098
0.528621
0.535018
0.540483
0.544575
0.548357
0.551452
0.553936
0.556002
0.55796
0.559892
0.561526
0.562715
0.564368
0.565637
0.567483
0.567906
0.568492
0.56925
0.570818
0.57156
0.571832
0.571728
0.571131
0.57022
0.569221
0.568518
0.56765
0.566786
0.564177
0.565285
0.56271
0.560743
0.560493
0.551517
0.544024
0.552315
0.54135
0.527775
0.525711
0.523731
0.533615
0.554396
0.586048
0.623811
0.652312
0.663554
0.661188
0.651316
0.638243
0.624492
0.611674
0.601819
0.593832
0.587166
0.580097
0.571891
0.563713
0.556682
0.55061
0.545286
0.540662
0.536778
0.533956
0.532217
0.531397
0.531098
0.531265
0.531221
0.53167
0.532387
0.55072
0.556941
0.570636
0.595418
0.634329
0.682414
0.722418
0.752443
0.772101
0.781566
0.783074
0.778981
0.771046
0.760619
0.748609
0.733447
0.718221
0.702714
0.690774
0.683253
0.676263
0.673447
0.670979
0.665723
0.661015
0.659468
0.654747
0.6491
0.646919
0.641924
0.636376
0.63187
0.62722
0.622485
0.617238
0.613326
0.608331
0.594213
0.57438
0.551145
0.536994
0.53271
0.535724
0.541123
0.544711
0.548279
0.551423
0.554082
0.55614
0.55747
0.558614
0.559523
0.56064
0.561886
0.562259
0.56373
0.564582
0.565468
0.566922
0.566951
0.566988
0.567544
0.568305
0.568972
0.569569
0.5699
0.569985
0.569626
0.568567
0.567093
0.567325
0.565191
0.56608
0.56417
0.561793
0.56154
0.552494
0.544207
0.550882
0.538795
0.526123
0.524325
0.524278
0.534627
0.554555
0.586991
0.625358
0.653764
0.66344
0.659345
0.646772
0.631236
0.616846
0.606033
0.597662
0.590749
0.584148
0.576242
0.567928
0.560781
0.554804
0.549703
0.545255
0.54138
0.538073
0.535517
0.533917
0.53315
0.532791
0.532556
0.532269
0.531553
0.531119
0.549616
0.556531
0.570506
0.593879
0.626931
0.664635
0.701234
0.732668
0.755285
0.768221
0.77262
0.77086
0.765181
0.756603
0.746272
0.73363
0.719917
0.705848
0.694378
0.686202
0.681069
0.677722
0.67613
0.674485
0.669937
0.670884
0.670392
0.666853
0.665276
0.659799
0.651939
0.644261
0.637416
0.631755
0.626535
0.62143
0.615663
0.608314
0.597834
0.580045
0.561716
0.554637
0.556332
0.551609
0.557166
0.559182
0.561299
0.562564
0.562851
0.562661
0.56228
0.562141
0.562339
0.561356
0.561848
0.561764
0.562769
0.562599
0.562875
0.563308
0.56387
0.564609
0.565499
0.566647
0.567888
0.568983
0.569634
0.569442
0.569503
0.569904
0.567815
0.567793
0.565684
0.565041
0.562495
0.561784
0.552794
0.544169
0.549645
0.537181
0.524723
0.52284
0.52456
0.535363
0.5541
0.584837
0.62418
0.652903
0.661281
0.655051
0.640508
0.624342
0.611758
0.602211
0.594465
0.587516
0.579435
0.57114
0.56374
0.557577
0.552604
0.548366
0.544715
0.541601
0.538993
0.536953
0.535558
0.534799
0.534393
0.534072
0.534649
0.532184
0.530903
0.54978
0.556859
0.569726
0.589789
0.617159
0.649433
0.683271
0.714182
0.738263
0.7541
0.761504
0.762493
0.759678
0.753635
0.745477
0.734858
0.72332
0.711223
0.700774
0.692747
0.688484
0.684574
0.683455
0.683887
0.683658
0.680446
0.684586
0.684373
0.681163
0.67555
0.665688
0.656803
0.648379
0.642031
0.63667
0.631854
0.627455
0.623374
0.613742
0.60375
0.586358
0.575002
0.571939
0.56702
0.570901
0.572375
0.573182
0.573094
0.571523
0.569521
0.567653
0.564747
0.563104
0.561486
0.5599
0.559461
0.55885
0.558349
0.558331
0.558783
0.559626
0.560816
0.562405
0.564084
0.565723
0.567575
0.569266
0.570231
0.570835
0.571413
0.570879
0.569006
0.567233
0.565116
0.562358
0.561382
0.552005
0.542952
0.548068
0.535962
0.523381
0.521103
0.524035
0.534975
0.553973
0.579744
0.620372
0.649187
0.656461
0.648949
0.634691
0.620001
0.608601
0.599577
0.591402
0.583056
0.574103
0.566063
0.559364
0.554058
0.550042
0.546537
0.543657
0.54133
0.539411
0.53795
0.536955
0.536308
0.535912
0.535457
0.534633
0.533652
0.531571
0.550415
0.557324
0.568468
0.585389
0.608224
0.636071
0.666431
0.696022
0.721259
0.739804
0.750753
0.754668
0.755097
0.752121
0.746559
0.738367
0.729185
0.719144
0.709972
0.702403
0.697637
0.695385
0.694655
0.694742
0.695817
0.696366
0.694145
0.69835
0.695167
0.689296
0.679852
0.669455
0.661607
0.654241
0.648149
0.643442
0.639574
0.636661
0.631337
0.623572
0.608281
0.593531
0.587393
0.582165
0.584499
0.585278
0.584829
0.582756
0.57963
0.576072
0.572042
0.568291
0.565037
0.56162
0.558899
0.556668
0.55503
0.553831
0.5533
0.553583
0.554617
0.556286
0.558239
0.560708
0.56334
0.566097
0.568705
0.570856
0.572335
0.57325
0.573184
0.571576
0.569286
0.565313
0.561774
0.559836
0.550037
0.541294
0.544884
0.533856
0.521554
0.518387
0.523122
0.533737
0.553855
0.574811
0.613139
0.642749
0.650059
0.64262
0.631171
0.617441
0.606977
0.597301
0.587496
0.577986
0.568857
0.561065
0.554955
0.550411
0.546769
0.544184
0.542171
0.540513
0.539263
0.538417
0.53787
0.537529
0.537146
0.536648
0.535979
0.536674
0.532783
0.551949
0.558189
0.567713
0.581683
0.600545
0.62397
0.650701
0.678613
0.704464
0.725395
0.739749
0.747415
0.751387
0.752157
0.749665
0.744384
0.737357
0.729261
0.721376
0.714464
0.709585
0.707206