/*--------------------------------*- C++ -*----------------------------------*\
  =========                 |
  \\      /  F ield         | OpenFOAM: The Open Source CFD Toolbox
   \\    /   O peration     | Website:  https://openfoam.org
    \\  /    A nd           | Version:  10
     \\/     M anipulation  |
\*---------------------------------------------------------------------------*/
FoamFile
{
    format      ascii;
    class       surfaceScalarField;
    location    "1.000237";
    object      phi;
}
// * * * * * * * * * * * * * * * * * * * * * * * * * * * * * * * * * * * * * //

dimensions      [1 0 -1 0 0 0 0];

internalField   nonuniform List<scalar> 
32368
(
-2.85697e-05
-3.12027e-05
-2.03662e-05
-1.72751e-05
-1.41984e-05
-4.07056e-06
-1.04639e-05
7.99645e-06
-1.01528e-05
1.86153e-05
-1.37832e-05
3.30351e-05
-1.25994e-05
5.32581e-05
-9.04234e-06
5.99842e-05
-2.18547e-06
6.0805e-05
4.21153e-06
5.3341e-05
6.71862e-06
4.35713e-05
9.66833e-06
4.21751e-05
1.32101e-05
4.5035e-05
1.74861e-05
4.84893e-05
2.24969e-05
5.28183e-05
2.77415e-05
5.78906e-05
3.28405e-05
6.2133e-05
3.76883e-05
6.54385e-05
4.20292e-05
6.77597e-05
4.56559e-05
6.93277e-05
4.86988e-05
7.04538e-05
5.16008e-05
7.15217e-05
5.44155e-05
7.29076e-05
5.71969e-05
7.43803e-05
6.00712e-05
7.60163e-05
6.35242e-05
7.77152e-05
6.82112e-05
7.96278e-05
7.50281e-05
8.22421e-05
8.38291e-05
8.59705e-05
9.3992e-05
9.05987e-05
0.000103765
9.45978e-05
0.000111627
9.7702e-05
0.00012416
0.000101249
0.000128585
0.000104141
0.000135233
0.000104751
0.000133982
0.00010686
0.000137759
0.000103628
0.000138109
0.000104839
0.000139274
0.000103105
0.000135971
0.00010274
0.000135664
9.97249e-05
0.000130108
9.74829e-05
0.000126834
9.34792e-05
0.000123607
8.99892e-05
0.000120509
8.62756e-05
0.000118459
8.20246e-05
0.000118266
7.89782e-05
0.000119494
7.66131e-05
0.000122827
7.57991e-05
0.000129943
7.61109e-05
0.000147981
8.16879e-05
0.000190179
9.63099e-05
0.000250506
0.000123969
0.000315557
0.000169225
0.000362056
0.000216647
0.000383617
0.000253835
0.000386874
0.000271083
0.000379376
0.000276959
0.000342078
0.000271356
0.00026572
0.000244599
0.000186762
0.00019247
0.000145401
0.000140104
0.000118241
0.000107578
9.29488e-05
7.7642e-05
6.96658e-05
4.43293e-05
5.04677e-05
1.10437e-05
3.65597e-05
-2.04602e-05
2.60209e-05
-4.69814e-05
1.86827e-05
-6.595e-05
1.45263e-05
-7.80195e-05
1.26618e-05
-8.57461e-05
1.25807e-05
-9.0772e-05
1.35246e-05
-9.42331e-05
1.49784e-05
-9.5716e-05
1.69767e-05
-9.52272e-05
1.94466e-05
-9.29639e-05
2.26733e-05
-8.87542e-05
2.67047e-05
-8.3012e-05
3.21997e-05
-7.7699e-05
4.17755e-05
-7.59527e-05
4.97117e-05
-8.01213e-05
5.41453e-05
-8.36163e-05
5.49579e-05
-8.42894e-05
5.39131e-05
-8.27907e-05
5.16225e-05
-8.033e-05
4.67567e-05
-7.53943e-05
3.87745e-05
-6.47921e-05
3.55037e-05
-5.19344e-05
3.52562e-05
-4.51984e-05
4.01165e-05
-4.27141e-05
5.21929e-05
-4.89144e-05
6.7091e-05
-5.89391e-05
8.26621e-05
-6.39089e-05
9.74934e-05
-6.04362e-05
0.000114644
-5.08451e-05
0.000130351
-3.94141e-05
0.000140295
-2.7344e-05
0.000143408
-1.76889e-05
0.000140774
-1.41406e-05
0.000131748
-1.96447e-05
0.000112817
-3.57373e-05
8.91068e-05
-6.00225e-05
6.49179e-05
-9.64167e-05
3.76771e-05
-0.000143991
9.36858e-06
-0.000184318
-8.56494e-06
-0.000153345
-1.96011e-05
-0.000136905
-2.5444e-05
-0.000152844
-2.81293e-05
-0.000124353
-3.30956e-05
-8.70631e-05
-4.06788e-05
-6.31551e-05
-5.54252e-05
-4.86972e-05
-4.10352e-05
-6.83054e-05
-3.45577e-05
-3.49952e-05
-2.60019e-05
-2.04496e-05
-1.86787e-05
-6.71561e-06
-1.38232e-05
5.44898e-06
-1.10983e-05
1.65949e-05
-1.2404e-05
2.73744e-05
-1.41283e-05
4.68293e-05
-1.16706e-05
6.19965e-05
-6.96212e-06
6.59926e-05
-4.75512e-07
6.34627e-05
5.69462e-06
5.36568e-05
8.15455e-06
4.45625e-05
1.12844e-05
4.32883e-05
1.50628e-05
4.55838e-05
1.96573e-05
4.85812e-05
2.48622e-05
5.26927e-05
3.01488e-05
5.75177e-05
3.52416e-05
6.14445e-05
4.0086e-05
6.47985e-05
4.44608e-05
6.76936e-05
4.80895e-05
6.97759e-05
5.13717e-05
7.08433e-05
5.42631e-05
7.14114e-05
5.70673e-05
7.1783e-05
5.99434e-05
7.25945e-05
6.28711e-05
7.39141e-05
6.59219e-05
7.52328e-05
6.93333e-05
7.63387e-05
7.35492e-05
7.71363e-05
7.81084e-05
7.80855e-05
8.23449e-05
7.86516e-05
8.6374e-05
7.88759e-05
9.03168e-05
7.93652e-05
9.30316e-05
7.91531e-05
9.49261e-05
7.88125e-05
9.59585e-05
7.88054e-05
9.58055e-05
7.76952e-05
9.61651e-05
7.73659e-05
9.58683e-05
7.67547e-05
9.5678e-05
7.6548e-05
9.50826e-05
7.57134e-05
9.40813e-05
7.49058e-05
9.34096e-05
7.40126e-05
9.33253e-05
7.28083e-05
9.33901e-05
7.15689e-05
9.38394e-05
7.02572e-05
9.49514e-05
6.89045e-05
9.64198e-05
6.79534e-05
0.00010034
6.81529e-05
0.000106568
6.99167e-05
0.000117794
7.45242e-05
0.000140836
8.43757e-05
0.000181356
0.00010352
0.000242712
0.000135779
0.000311378
0.00018081
0.000362104
0.000230827
0.000384897
0.000268371
0.000388012
0.000286347
0.00037467
0.000291161
0.000327551
0.000280699
0.000243189
0.00024418
0.000176551
0.000185936
0.000140584
0.000135315
0.000113725
9.95277e-05
8.89133e-05
6.45029e-05
6.7424e-05
2.78775e-05
5.05576e-05
-6.84814e-06
3.80639e-05
-3.69028e-05
2.90523e-05
-5.92587e-05
2.36509e-05
-7.3492e-05
2.13012e-05
-8.23278e-05
2.09833e-05
-8.85057e-05
2.18963e-05
-9.27138e-05
2.3308e-05
-9.4698e-05
2.50219e-05
-9.46258e-05
2.6945e-05
-9.30553e-05
2.92147e-05
-8.93066e-05
3.20585e-05
-8.37862e-05
3.53234e-05
-7.75784e-05
4.03874e-05
-7.22445e-05
4.86923e-05
-7.13141e-05
5.60728e-05
-7.57343e-05
6.01808e-05
-7.94675e-05
6.09056e-05
-8.02057e-05
6.00443e-05
-7.79755e-05
5.70359e-05
-7.39879e-05
5.05897e-05
-6.62931e-05
4.56517e-05
-5.63354e-05
4.40251e-05
-4.85342e-05
4.56206e-05
-4.42288e-05
5.62977e-05
-4.52449e-05
7.00701e-05
-5.44986e-05
8.30598e-05
-5.89768e-05
9.34617e-05
-5.65491e-05
0.000104548
-4.65608e-05
0.000118568
-3.43936e-05
0.000130274
-2.20765e-05
0.000135667
-1.13073e-05
0.000134523
-5.21224e-06
0.000128042
-6.96518e-06
0.000114749
-1.90662e-05
9.47575e-05
-4.13393e-05
7.35164e-05
-7.44143e-05
4.90096e-05
-0.000118942
2.10263e-05
-0.000160728
-1.6518e-07
-0.000141172
-1.27317e-05
-0.000125539
-2.05051e-05
-0.00014082
-2.4678e-05
-0.000115486
-3.03241e-05
-7.88978e-05
-3.74724e-05
-5.53761e-05
-5.05391e-05
-3.97482e-05
-3.04748e-05
-6.49406e-05
-4.33523e-05
-3.90411e-05
-3.28149e-05
-2.38554e-05
-2.47595e-05
-9.43827e-06
-1.91677e-05
2.74053e-06
-1.50528e-05
1.43348e-05
-1.37315e-05
2.46701e-05
-1.6085e-05
3.92337e-05
-1.50597e-05
5.948e-05
-1.12401e-05
6.75035e-05
-5.34593e-06
6.90928e-05
9.87751e-07
6.2687e-05
6.53246e-06
5.15833e-05
9.24856e-06
4.36916e-05
1.27863e-05
4.30623e-05
1.68976e-05
4.49196e-05
2.18473e-05
4.78202e-05
2.7275e-05
5.20354e-05
3.27468e-05
5.69702e-05
3.81644e-05
6.10262e-05
4.33337e-05
6.45335e-05
4.79271e-05
6.76581e-05
5.20179e-05
7.04131e-05
5.52067e-05
7.24237e-05
5.80769e-05
7.37737e-05
6.08264e-05
7.44062e-05
6.33398e-05
7.40343e-05
6.5946e-05
7.3427e-05
6.85409e-05
7.31452e-05
7.13015e-05
7.34059e-05
7.38066e-05
7.37432e-05
7.58471e-05
7.354e-05
7.75196e-05
7.27643e-05
7.88555e-05
7.20126e-05
7.95872e-05
7.09479e-05
7.99415e-05
7.0022e-05
7.99326e-05
6.92655e-05
7.93613e-05
6.86173e-05
7.86243e-05
6.81157e-05
7.81445e-05
6.75515e-05
7.78778e-05
6.75121e-05
7.78066e-05
6.73819e-05
7.82737e-05
6.74092e-05
7.92204e-05
6.77744e-05
8.04574e-05
6.77588e-05
8.23915e-05
6.76043e-05
8.44226e-05
6.77809e-05
8.63127e-05
6.7245e-05
8.90021e-05
6.72762e-05
9.20905e-05
6.73772e-05
9.94854e-05
6.98901e-05
0.000108815
7.56208e-05
0.000125558
8.39101e-05
0.00015442
9.94905e-05
0.000199929
0.00012557
0.000260507
0.000164375
0.000324523
0.000212112
0.000369212
0.000258728
0.000386159
0.000291005
0.000386982
0.000304531
0.000365512
0.000305574
0.000303904
0.000288997
0.000219733
0.000236163
0.000167548
0.000172079
0.000136781
0.000124865
0.000110829
8.71308e-05
8.68065e-05
4.6661e-05
6.67866e-05
8.08804e-06
5.18298e-05
-2.63988e-05
4.07101e-05
-5.23284e-05
3.36869e-05
-6.89817e-05
3.0416e-05
-7.92996e-05
2.97488e-05
-8.64019e-05
3.04293e-05
-9.13274e-05
3.16274e-05
-9.37119e-05
3.31965e-05
-9.40444e-05
3.4869e-05
-9.3498e-05
3.62543e-05
-9.02888e-05
3.7852e-05
-8.453e-05
3.99627e-05
-7.79028e-05
4.27666e-05
-7.18299e-05
4.83392e-05
-6.83652e-05
5.59712e-05
-7.16168e-05
6.23043e-05
-7.57089e-05
6.5443e-05
-7.72388e-05
6.56484e-05
-7.55959e-05
6.40281e-05
-7.16078e-05
5.94388e-05
-6.52821e-05
5.59101e-05
-5.79368e-05
5.41841e-05
-5.16093e-05
5.40313e-05
-4.73186e-05
6.1379e-05
-4.54125e-05
7.51347e-05
-5.02283e-05
8.58431e-05
-5.39341e-05
9.32931e-05
-5.13884e-05
9.85978e-05
-4.19574e-05
0.000107184
-2.86514e-05
0.000117698
-1.55715e-05
0.000124454
-3.99864e-06
0.000124604
4.13033e-06
0.000119157
5.12254e-06
0.000108866
-3.81315e-06
9.27666e-05
-2.38845e-05
7.49419e-05
-5.43399e-05
5.40682e-05
-9.64362e-05
2.84515e-05
-0.000138261
5.3961e-06
-0.000125226
-7.1178e-06
-0.00011382
-1.65776e-05
-0.000128256
-2.21016e-05
-0.00010511
-2.86299e-05
-7.01021e-05
-3.57031e-05
-4.7673e-05
-4.64081e-05
-3.15856e-05
-2.14831e-05
-6.15673e-05
-5.45971e-05
-4.22253e-05
-4.17027e-05
-2.75523e-05
-3.22267e-05
-1.26933e-05
-2.61396e-05
6.995e-10
-2.11438e-05
1.18397e-05
-1.84754e-05
2.24158e-05
-1.96092e-05
3.59072e-05
-2.00902e-05
5.57746e-05
-1.61276e-05
6.70047e-05
-1.06274e-05
7.06737e-05
-3.6221e-06
6.77372e-05
2.4904e-06
5.79265e-05
7.18524e-06
4.69459e-05
1.04381e-05
4.14476e-05
1.44699e-05
4.15863e-05
1.90657e-05
4.34683e-05
2.43975e-05
4.63591e-05
3.00136e-05
5.05663e-05
3.57854e-05
5.56873e-05
4.14031e-05
6.02257e-05
4.67118e-05
6.40027e-05
5.16206e-05
6.73541e-05
5.60159e-05
7.01127e-05
6.00479e-05
7.26156e-05
6.31345e-05
7.45379e-05
6.5688e-05
7.58481e-05
6.77201e-05
7.63388e-05
6.96201e-05
7.5924e-05
7.15241e-05
7.46606e-05
7.33299e-05
7.31176e-05
7.47369e-05
7.16966e-05
7.58247e-05
7.06881e-05
7.64657e-05
6.9863e-05
7.66162e-05
6.90006e-05
7.6409e-05
6.82622e-05
7.59708e-05
6.75473e-05
7.52811e-05
6.72807e-05
7.44004e-05
6.69838e-05
7.35052e-05
6.65423e-05
7.33604e-05
6.65967e-05
7.35167e-05
6.68448e-05
7.45156e-05
6.70909e-05
7.60489e-05
6.78508e-05
7.77999e-05
6.82297e-05
8.01245e-05
6.84027e-05
8.27711e-05
6.90099e-05
8.49409e-05
6.92646e-05
8.69966e-05
6.88332e-05
9.15528e-05
7.06886e-05
9.69543e-05
7.22613e-05
0.000108571
7.93284e-05
0.000121591
8.82261e-05
0.000146465
0.000101298
0.000184224
0.000125898
0.000236035
0.000161655
0.000296788
0.000206815
0.000351445
0.000254977
0.000382406
0.000295348
0.000391484
0.000316689
0.000386294
0.000324661
0.000352167
0.000320052
0.000273716
0.000284718
0.000201755
0.000217284
0.000163991
0.000155954
0.000136691
0.000113368
0.000109884
6.85523e-05
8.62889e-05
2.42175e-05
6.75778e-05
-1.51166e-05
5.36182e-05
-4.50292e-05
4.45179e-05
-6.44837e-05
3.99481e-05
-7.64409e-05
3.85565e-05
-8.43865e-05
3.88122e-05
-8.98721e-05
3.96335e-05
-9.26628e-05
4.11937e-05
-9.36277e-05
4.28484e-05
-9.42786e-05
4.35409e-05
-9.16928e-05
4.38981e-05
-8.57471e-05
4.43936e-05
-7.84586e-05
4.5972e-05
-7.17846e-05
4.97854e-05
-6.78222e-05
5.77218e-05
-7.01878e-05
6.43909e-05
-7.45478e-05
6.81907e-05
-7.58533e-05
6.91798e-05
-7.39957e-05
6.85024e-05
-6.96055e-05
6.56184e-05
-6.40742e-05
6.38992e-05
-5.80748e-05
6.34438e-05
-5.28894e-05
6.46237e-05
-4.98047e-05
7.02428e-05
-4.88853e-05
8.04704e-05
-4.89348e-05
8.87879e-05
-4.86404e-05
9.34875e-05
-4.45571e-05
9.50498e-05
-3.53306e-05
9.77033e-05
-2.21209e-05
0.000104285
-8.04586e-06
0.000110356
4.54907e-06
0.000110964
1.43202e-05
0.000106098
1.70588e-05
9.77103e-05
1.0112e-05
8.49804e-05
-8.26275e-06
7.07599e-05
-3.7149e-05
5.42629e-05
-7.78057e-05
3.20765e-05
-0.000118291
9.12658e-06
-0.000108228
-3.25307e-06
-0.00010171
-1.38521e-05
-0.000115694
-2.02871e-05
-9.36839e-05
-2.75635e-05
-6.04024e-05
-3.48175e-05
-3.9591e-05
-4.44057e-05
-2.39276e-05
-1.31645e-05
-5.81336e-05
-6.8344e-05
-4.40052e-05
-5.54079e-05
-3.16896e-05
-4.25363e-05
-1.65916e-05
-3.51242e-05
-2.93404e-06
-2.91939e-05
9.25446e-06
-2.5878e-05
2.06202e-05
-2.72055e-05
3.39128e-05
-2.71021e-05
5.35334e-05
-2.21973e-05
6.52713e-05
-1.60821e-05
6.96122e-05
-8.83157e-06
6.86052e-05
-1.58837e-06
6.0109e-05
4.18856e-06
4.82582e-05
8.35242e-06
4.01092e-05
1.23239e-05
3.83458e-05
1.67833e-05
3.91788e-05
2.17508e-05
4.12087e-05
2.7353e-05
4.40087e-05
3.3087e-05
4.78882e-05
3.91313e-05
5.2917e-05
4.49206e-05
5.80027e-05
5.01863e-05
6.26179e-05
5.51474e-05
6.62713e-05
5.96145e-05
6.93402e-05
6.34921e-05
7.18615e-05
6.69913e-05
7.37721e-05
6.99809e-05
7.51843e-05
7.23178e-05
7.61499e-05
7.39666e-05
7.65392e-05
7.51098e-05
7.62908e-05
7.59278e-05
7.55317e-05
7.64396e-05
7.45831e-05
7.66836e-05
7.35358e-05
7.65972e-05
7.23627e-05
7.61368e-05
7.13222e-05
7.5564e-05
7.05624e-05
7.49712e-05
6.99901e-05
7.42458e-05
7.01801e-05
7.35212e-05
7.02623e-05
7.3346e-05
7.03336e-05
7.37204e-05
7.12554e-05
7.49258e-05
7.21842e-05
7.69863e-05
7.44962e-05
7.91857e-05
7.63072e-05
8.19161e-05
7.76457e-05
8.54533e-05
7.99013e-05
8.8953e-05
8.26911e-05
9.14103e-05
8.43365e-05
9.5947e-05
8.51788e-05
9.98154e-05
8.55761e-05
0.000107178
8.52974e-05
0.00012358
9.4088e-05
0.000144288
0.000109343
0.000179752
0.000130177
0.000227353
0.000164676
0.000284115
0.00020864
0.000340172
0.000256979
0.000379396
0.000300909
0.000395418
0.000329095
0.000398294
0.000341785
0.000382254
0.000344107
0.000325358
0.000325477
0.000244842
0.000264469
0.000199186
0.000193889
0.000169212
0.000145223
0.000138293
9.47594e-05
0.000108857
4.24807e-05
8.49349e-05
-3.05806e-06
6.73766e-05
-3.76035e-05
5.57955e-05
-5.99364e-05
4.9625e-05
-7.34691e-05
4.72664e-05
-8.22897e-05
4.68832e-05
-8.84264e-05
4.71637e-05
-9.16322e-05
4.88701e-05
-9.35826e-05
5.03773e-05
-9.52054e-05
5.0316e-05
-9.2619e-05
4.95196e-05
-8.6359e-05
4.86172e-05
-7.88063e-05
4.87392e-05
-7.22053e-05
5.14084e-05
-6.80175e-05
5.94298e-05
-6.98063e-05
6.61917e-05
-7.42275e-05
7.0184e-05
-7.52525e-05
7.16491e-05
-7.30968e-05
7.15716e-05
-6.87362e-05
7.05961e-05
-6.37917e-05
7.03036e-05
-5.86704e-05
7.15377e-05
-5.42816e-05
7.7305e-05
-5.29797e-05
8.36283e-05
-5.22566e-05
8.82855e-05
-4.88943e-05
9.12294e-05
-4.38466e-05
9.20928e-05
-3.66037e-05
9.06628e-05
-2.65758e-05
8.91358e-05
-1.36978e-05
9.04162e-05
4.16243e-07
9.4264e-05
1.4731e-05
9.4599e-05
2.53221e-05
9.02382e-05
2.9006e-05
8.30935e-05
2.27699e-05
7.34522e-05
5.18502e-06
6.29891e-05
-2.32529e-05
5.08192e-05
-6.30954e-05
3.19014e-05
-0.000100009
1.06405e-05
-8.95501e-05
-1.0135e-06
-8.99922e-05
-1.19448e-05
-0.000102627
-1.91696e-05
-8.10779e-05
-2.68393e-05
-5.01727e-05
-3.40784e-05
-3.11424e-05
-4.28161e-05
-1.61855e-05
-5.22629e-06
-5.41444e-05
-8.2443e-05
-4.3224e-05
-7.43109e-05
-3.34444e-05
-6.05226e-05
-2.06489e-05
-4.85537e-05
-6.54558e-06
-4.0804e-05
7.11501e-06
-3.60942e-05
2.01587e-05
-3.72695e-05
3.34943e-05
-3.56303e-05
5.14346e-05
-2.90047e-05
6.21744e-05
-2.14749e-05
6.67977e-05
-1.31513e-05
6.63278e-05
-5.00471e-06
5.81034e-05
1.27859e-06
4.62029e-05
6.20533e-06
3.68868e-05
1.04955e-05
3.46992e-05
1.5017e-05
3.48311e-05
1.97994e-05
3.61711e-05
2.48999e-05
3.83162e-05
3.048e-05
4.1027e-05
3.62542e-05
4.43809e-05
4.21599e-05
4.84705e-05
4.79418e-05
5.33276e-05
5.33937e-05
5.83918e-05
5.82816e-05
6.32202e-05
6.23915e-05
6.71974e-05
6.60827e-05
7.01249e-05
6.93252e-05
7.22358e-05
7.20878e-05
7.37886e-05
7.44115e-05
7.48432e-05
7.63021e-05
7.52931e-05
7.78922e-05
7.57316e-05
7.89267e-05
7.58713e-05
7.96592e-05
7.6153e-05
7.98459e-05
7.64254e-05
7.98228e-05
7.65056e-05
7.96548e-05
7.71113e-05
7.95121e-05
7.7747e-05
7.95299e-05
7.91017e-05
7.95858e-05
8.05562e-05
8.02196e-05
8.22848e-05
8.16067e-05
8.4878e-05
8.41795e-05
8.70274e-05
8.81518e-05
9.09011e-05
9.22198e-05
9.49389e-05
9.67189e-05
9.82784e-05
0.000102336
0.000102003
0.00010839
0.000105781
0.000114176
0.000111299
0.000116605
0.000112406
0.000120385
0.000116833
0.000122867
0.000119575
0.000132499
0.000118913
0.000150535
0.000126944
0.000178861
0.000141752
0.000223042
0.000171763
0.000277283
0.000213791
0.000332255
0.00026146
0.000376221
0.000307616
0.000399317
0.000341455
0.000406965
0.00035865
0.000402124
0.000364902
0.000368355
0.000356753
0.000293187
0.000308793
0.000243233
0.000238048
0.000210429
0.000183197
0.000173888
0.00012536
0.000135105
6.3368e-05
0.000103816
9.50803e-06
8.14735e-05
-3.02355e-05
6.69433e-05
-5.52426e-05
5.90056e-05
-7.01809e-05
5.56843e-05
-7.99809e-05
5.45025e-05
-8.68927e-05
5.42724e-05
-9.06644e-05
5.62832e-05
-9.41943e-05
5.70461e-05
-9.61359e-05
5.58566e-05
-9.25761e-05
5.3492e-05
-8.53124e-05
5.1555e-05
-7.80286e-05
5.10461e-05
-7.24804e-05
5.32926e-05
-6.96474e-05
6.09226e-05
-7.18445e-05
6.73673e-05
-7.54911e-05
7.13355e-05
-7.5963e-05
7.32817e-05
-7.36369e-05
7.44286e-05
-6.99974e-05
7.56035e-05
-6.57671e-05
7.75646e-05
-6.14435e-05
8.29691e-05
-5.89698e-05
9.03004e-05
-5.6437e-05
9.36908e-05
-5.17738e-05
9.35913e-05
-4.46814e-05
9.14196e-05
-3.65195e-05
8.78194e-05
-2.72922e-05
8.33769e-05
-1.6456e-05
7.9013e-05
-3.51892e-06
7.55915e-05
1.12786e-05
7.69123e-05
2.54318e-05
7.64428e-05
3.67767e-05
7.24554e-05
4.06414e-05
6.66728e-05
3.40842e-05
5.98901e-05
1.63297e-05
5.30992e-05
-1.26012e-05
4.45773e-05
-5.18885e-05
2.80904e-05
-8.30216e-05
1.04613e-05
-7.19566e-05
1.52548e-07
-7.91548e-05
-1.09223e-05
-8.97189e-05
-1.87859e-05
-6.75575e-05
-2.66158e-05
-3.96882e-05
-3.34255e-05
-2.26243e-05
-4.07173e-05
-8.75526e-06
1.34483e-06
-4.94534e-05
-9.20539e-05
-4.01593e-05
-8.86328e-05
-3.23699e-05
-8.12408e-05
-2.18328e-05
-7.03791e-05
-8.97721e-06
-6.0863e-05
5.12378e-06
-5.33999e-05
1.95642e-05
-5.05889e-05
3.38877e-05
-4.42826e-05
4.84838e-05
-3.54112e-05
5.744e-05
-2.6542e-05
6.2099e-05
-1.67181e-05
6.19291e-05
-7.32356e-06
5.40424e-05
-3.3027e-07
4.22803e-05
4.87829e-06
3.29757e-05
9.41055e-06
3.06428e-05
1.39205e-05
3.0512e-05
1.86416e-05
3.14714e-05
2.35274e-05
3.32104e-05
2.85416e-05
3.54677e-05
3.3648e-05
3.81585e-05
3.88814e-05
4.12852e-05
4.42637e-05
4.47519e-05
4.95934e-05
4.83998e-05
5.48764e-05
5.26101e-05
5.96342e-05
5.70952e-05
6.38607e-05
6.17101e-05
6.74616e-05
6.5768e-05
7.03829e-05
6.90787e-05
7.26577e-05
7.14204e-05
7.4696e-05
7.28293e-05
7.64284e-05
7.40357e-05
7.78609e-05
7.47786e-05
7.91806e-05
7.5706e-05
8.00844e-05
7.66479e-05
8.09467e-05
7.74469e-05
8.18931e-05
7.90873e-05
8.28616e-05
8.09638e-05
8.40944e-05
8.3508e-05
8.56042e-05
8.63722e-05
8.80339e-05
8.9888e-05
9.10379e-05
9.43873e-05
9.50209e-05
9.85173e-05
0.000100573
0.000104207
0.000106696
0.000110402
0.000113218
0.000116523
0.000120268
0.000122631
0.000128965
0.000128528
0.000136982
0.000137581
0.00014296
0.000141981
0.000150602
0.000148624
0.000156706
0.000154001
0.000157198
0.000156268
0.000169863
0.000160133
0.000188883
0.000170306
0.000225625
0.000190544
0.000273581
0.000226133
0.000326786
0.000270004
0.000373703
0.000316654
0.00040325
0.000354466
0.000415279
0.000375677
0.000417804
0.000384798
0.000400559
0.000382695
0.000341141
0.000346658
0.00029375
0.000283191
0.000257884
0.000225624
0.000215275
0.000158832
0.000163608
8.58155e-05
0.000122944
2.17967e-05
9.46964e-05
-2.31382e-05
7.69405e-05
-5.03602e-05
6.75411e-05
-6.63447e-05
6.34558e-05
-7.73819e-05
6.13985e-05
-8.50332e-05
6.11772e-05
-8.99911e-05
6.33152e-05
-9.55339e-05
6.25187e-05
-9.63132e-05
5.91941e-05
-9.07273e-05
5.48821e-05
-8.23629e-05
5.24252e-05
-7.62497e-05
5.21647e-05
-7.27247e-05
5.60955e-05
-7.34208e-05
6.31656e-05
-7.72893e-05
6.86798e-05
-7.95971e-05
7.24944e-05
-7.94667e-05
7.56505e-05
-7.76355e-05
7.88943e-05
-7.51316e-05
8.2356e-05
-7.17993e-05
8.85038e-05
-6.90004e-05
9.47066e-05
-6.46503e-05
9.68371e-05
-5.67319e-05
9.49366e-05
-4.71273e-05
9.06436e-05
-3.68894e-05
8.52255e-05
-2.67968e-05
7.90591e-05
-1.64557e-05
7.24075e-05
-5.14569e-06
6.5601e-05
8.33356e-06
6.00278e-05
2.31007e-05
5.89706e-05
3.69601e-05
5.72989e-05
4.85408e-05
5.36061e-05
5.15338e-05
4.94959e-05
4.3584e-05
4.58234e-05
2.47169e-05
4.25982e-05
-5.33598e-06
3.70586e-05
-4.38934e-05
2.25273e-05
-6.73818e-05
9.41874e-06
-5.81283e-05
-1.49619e-07
-6.88837e-05
-1.12347e-05
-7.74088e-05
-1.92549e-05
-5.35223e-05
-2.68059e-05
-2.93323e-05
-3.28273e-05
-1.43623e-05
-3.82317e-05
-2.1136e-06
6.93723e-06
-4.46003e-05
-9.75714e-05
-3.48063e-05
-9.6483e-05
-2.94024e-05
-9.28564e-05
-2.0706e-05
-8.68352e-05
-9.77947e-06
-7.87894e-05
3.08422e-06
-6.982e-05
1.67803e-05
-6.15296e-05
3.03621e-05
-5.12013e-05
4.24663e-05
-4.05845e-05
5.09373e-05
-2.99593e-05
5.52298e-05
-1.87369e-05
5.45117e-05
-8.36847e-06
4.71592e-05
-6.68719e-07
3.65786e-05
4.70437e-06
2.8297e-05
9.19921e-06
2.63507e-05
1.37636e-05
2.63797e-05
1.84476e-05
2.72034e-05
2.32181e-05
2.86881e-05
2.79685e-05
3.07425e-05
3.26086e-05
3.32355e-05
3.71461e-05
3.59951e-05
4.15248e-05
3.89663e-05
4.57363e-05
4.20285e-05
5.0019e-05
4.53276e-05
5.43787e-05
4.86581e-05
5.85189e-05
5.19917e-05
6.2548e-05
5.53949e-05
6.615e-05
5.89113e-05
6.91332e-05
6.27075e-05
7.16049e-05
6.58597e-05
7.36361e-05
6.89332e-05
7.52086e-05
7.11504e-05
7.66296e-05
7.32115e-05
7.76715e-05
7.50983e-05
7.88357e-05
7.67092e-05
8.01599e-05
7.89962e-05
8.16473e-05
8.1402e-05
8.34957e-05
8.44571e-05
8.59616e-05
8.7953e-05
8.94843e-05
9.2379e-05
9.37721e-05
9.80711e-05
9.90986e-05
0.000103878
0.000106
0.000111288
0.000113902
0.000119383
0.000122659
0.000128296
0.000131946
0.000137302
0.000143223
0.000146432
0.000154648
0.00015904
0.000164932
0.000167853
0.000176048
0.000178357
0.000184289
0.000187859
0.000189585
0.000193074
0.000198019
0.000197545
0.000212206
0.000206429
0.000240202
0.000224409
0.000280591
0.000252157
0.000328986
0.00028982
0.000375126
0.000332898
0.00040796
0.000370438
0.000423627
0.000393643
0.000430698
0.000403915
0.000424252
0.000403771
0.000384239
0.000379597
0.000343704
0.000325316
0.000307724
0.000266139
0.000258154
0.000192203
0.000192012
0.00010794
0.000139828
3.28873e-05
0.00010555
-1.64711e-05
8.51622e-05
-4.50588e-05
7.47613e-05
-6.21119e-05
7.0112e-05
-7.43482e-05
6.72505e-05
-8.28759e-05
6.8259e-05
-9.02418e-05
6.92966e-05
-9.64462e-05
6.57705e-05
-9.44394e-05
5.93603e-05
-8.64152e-05
5.39645e-05
-7.86259e-05
5.15114e-05
-7.49243e-05
5.29791e-05
-7.49412e-05
5.91497e-05
-7.99905e-05
6.52741e-05
-8.49273e-05
7.01321e-05
-8.67611e-05
7.47772e-05
-8.72729e-05
7.98125e-05
-8.69255e-05
8.5584e-05
-8.55665e-05
9.2178e-05
-8.27187e-05
9.72539e-05
-7.64631e-05
9.74876e-05
-6.56345e-05
9.37753e-05
-5.27415e-05
8.78248e-05
-3.95975e-05
8.08037e-05
-2.71782e-05
7.34325e-05
-1.58323e-05
6.55406e-05
-4.6905e-06
5.7058e-05
7.35813e-06
4.86697e-05
2.1133e-05
4.20124e-05
3.51919e-05
3.93895e-05
4.86891e-05
3.69842e-05
5.9762e-05
3.41453e-05
6.07671e-05
3.23335e-05
5.06256e-05
3.22194e-05
2.96075e-05
3.28842e-05
-2.04321e-06
2.96119e-05
-3.8173e-05
1.65802e-05
-5.18623e-05
7.33854e-06
-4.71727e-05
-1.95578e-06
-5.93884e-05
-1.28786e-05
-6.43096e-05
-2.05493e-05
-3.96711e-05
-2.73538e-05
-1.94135e-05
-3.23452e-05
-6.64075e-06
-3.55549e-05
3.28465e-06
1.11158e-05
-3.98619e-05
-9.59982e-05
-2.83536e-05
-9.78301e-05
-2.43519e-05
-9.59961e-05
-1.83637e-05
-9.17146e-05
-9.70529e-06
-8.54158e-05
1.00133e-06
-7.66028e-05
1.27477e-05
-6.6159e-05
2.45721e-05
-5.45983e-05
3.49971e-05
-4.24993e-05
4.24844e-05
-2.99456e-05
4.55165e-05
-1.7455e-05
4.34919e-05
-6.94657e-06
3.6869e-05
2.15587e-07
2.88026e-05
5.30003e-06
2.3107e-05
9.98963e-06
2.22503e-05
1.46799e-05
2.2404e-05
1.94389e-05
2.31166e-05
2.41568e-05
2.45199e-05
2.86978e-05
2.65617e-05
3.29325e-05
2.91021e-05
3.68662e-05
3.19309e-05
4.05439e-05
3.48446e-05
4.39984e-05
3.77235e-05
4.73337e-05
4.06306e-05
5.05231e-05
4.34721e-05
5.34786e-05
4.62296e-05
5.62949e-05
4.88997e-05
5.93635e-05
5.14901e-05
6.21913e-05
5.42312e-05
6.48165e-05
5.64104e-05
6.74238e-05
5.93001e-05
6.95702e-05
6.17972e-05
7.17034e-05
6.51708e-05
7.33375e-05
6.85315e-05
7.49356e-05
7.15983e-05
7.65826e-05
7.52531e-05
7.83059e-05
7.87842e-05
8.03701e-05
8.26751e-05
8.30508e-05
8.71367e-05
8.68889e-05
9.25997e-05
9.15455e-05
9.90724e-05
9.73148e-05
0.000105695
0.000104663
0.000113918
0.000113472
0.000122863
0.000123699
0.0001332
0.000134995
0.000144209
0.000148717
0.00015632
0.000163482
0.000172022
0.000178024
0.000185462
0.000193583
0.000200744
0.000206671
0.00021555
0.00021579
0.000225701
0.000225147
0.00023277
0.000239864
0.000242696
0.000264044
0.000259438
0.000297684
0.000283569
0.000339255
0.000315793
0.000381085
0.000353857
0.000413864
0.000388814
0.00043163
0.000411912
0.000441211
0.000422093
0.000442203
0.00042389
0.000419898
0.000403921
0.000392054
0.000363185
0.000353949
0.000301078
0.000297952
0.000221274
0.000214209
0.000125093
0.000151672
4.06586e-05
0.000112514
-1.07926e-05
9.05022e-05
-3.97745e-05
8.01143e-05
-5.76476e-05
7.50357e-05
-7.09535e-05
7.26946e-05
-8.08825e-05
7.51944e-05
-9.11483e-05
7.27516e-05
-9.51878e-05
6.55537e-05
-8.95389e-05
5.65498e-05
-8.02593e-05
5.11652e-05
-7.54925e-05
4.99278e-05
-7.56554e-05
5.46389e-05
-8.1434e-05
6.08526e-05
-8.88365e-05
6.62498e-05
-9.4541e-05
7.17312e-05
-9.77193e-05
7.8287e-05
-0.000100826
8.53195e-05
-0.000101678
9.11212e-05
-9.84882e-05
9.45116e-05
-9.02002e-05
9.31555e-05
-7.72453e-05
8.83964e-05
-6.19932e-05
8.12388e-05
-4.61323e-05
7.31504e-05
-3.05841e-05
6.47468e-05
-1.66047e-05
5.60756e-05
-4.24026e-06
4.672e-05
7.88187e-06
3.69016e-05
2.05737e-05
2.83166e-05
3.34755e-05
2.15756e-05
4.69939e-05
1.83028e-05
6.08571e-05
1.61597e-05
6.96981e-05
1.51242e-05
6.75977e-05
1.62355e-05
5.4587e-05
1.98472e-05
3.06653e-05
2.37357e-05
-2.45149e-06
2.13859e-05
-3.29223e-05
1.09414e-05
-3.73245e-05
4.40391e-06
-3.88745e-05
-4.74502e-06
-5.08133e-05
-1.53433e-05
-5.02238e-05
-2.24981e-05
-2.63831e-05
-2.81816e-05
-1.02397e-05
-3.14986e-05
6.99755e-08
-3.27732e-05
7.78631e-06
1.38672e-05
-3.52189e-05
-8.79574e-05
-2.22736e-05
-9.06225e-05
-1.93112e-05
-9.04698e-05
-1.48476e-05
-8.71367e-05
-8.87706e-06
-8.18458e-05
-9.90633e-07
-7.42042e-05
8.15981e-06
-6.40834e-05
1.75825e-05
-5.20133e-05
2.5754e-05
-3.85635e-05
3.13741e-05
-2.51882e-05
3.34759e-05
-1.33084e-05
3.18203e-05
-3.90259e-06
2.7438e-05
2.44422e-06
2.28212e-05
7.1418e-06
1.91313e-05
1.18302e-05
1.83779e-05
1.66741e-05
1.84285e-05
2.16111e-05
1.89982e-05
2.6394e-05
2.04047e-05
3.07599e-05
2.26485e-05
3.46295e-05
2.55401e-05
3.799e-05
2.87197e-05
4.09492e-05
3.18424e-05
4.36842e-05
3.47811e-05
4.61871e-05
3.76181e-05
4.84809e-05
4.03225e-05
5.05661e-05
4.28765e-05
5.24435e-05
4.52774e-05
5.43418e-05
4.74644e-05
5.59856e-05
4.96834e-05
5.75545e-05
5.13432e-05
5.91371e-05
5.34143e-05
6.08758e-05
5.5122e-05
6.27913e-05
5.71811e-05
6.46321e-05
5.95533e-05
6.66382e-05
6.18348e-05
6.8899e-05
6.5209e-05
7.12292e-05
6.92743e-05
7.40183e-05
7.42166e-05
7.73747e-05
7.99888e-05
8.15832e-05
8.66743e-05
8.64953e-05
9.44767e-05
9.24923e-05
0.000102507
9.99027e-05
0.000112089
0.000108744
0.000122484
0.000119363
0.000134609
0.000131433
0.000147122
0.000146165
0.000160674
0.000162941
0.000177717
0.000180823
0.000194079
0.000200608
0.000213313
0.000219036
0.000233121
0.000233366
0.000249328
0.000246402
0.000261208
0.000263161
0.000274533
0.000286193
0.000292186
0.000315947
0.00031509
0.00035175
0.000343052
0.000389013
0.000376652
0.000419921
0.000408383
0.000438897
0.00042964
0.000450319
0.000439678
0.000456187
0.000440728
0.000447899
0.000426675
0.000427602
0.000388301
0.000390486
0.000325787
0.000322806
0.00023846
0.00022517
0.000132641
0.000155126
4.53166e-05
0.00011391
-6.2601e-06
9.2657e-05
-3.45165e-05
8.33368e-05
-5.31677e-05
7.80969e-05
-6.73579e-05
7.87326e-05
-8.07894e-05
7.95419e-05
-9.05515e-05
7.2471e-05
-8.98611e-05
6.09116e-05
-8.14187e-05
5.16935e-05
-7.45941e-05
4.75299e-05
-7.42794e-05
4.9833e-05
-8.07291e-05
5.49057e-05
-9.11821e-05
6.00902e-05
-9.88184e-05
6.59785e-05
-0.000107816
7.30362e-05
-0.000113628
7.9659e-05
-0.000117046
8.41088e-05
-0.000113715
8.51507e-05
-0.000104553
8.24626e-05
-9.0674e-05
7.70315e-05
-7.39686e-05
6.98753e-05
-5.64746e-05
6.13053e-05
-3.83721e-05
5.21471e-05
-2.09518e-05
4.2902e-05
-5.63367e-06
3.33389e-05
7.79722e-06
2.26757e-05
2.13068e-05
1.29683e-05
3.32438e-05
4.71588e-06
4.5206e-05
-6.57029e-07
5.77342e-05
-3.46185e-06
7.13835e-05
-4.05542e-06
7.63967e-05
-2.12432e-06
7.08624e-05
2.16861e-06
5.51193e-05
9.01485e-06
2.80619e-05
1.48918e-05
-5.17811e-06
1.27622e-05
-2.67755e-05
6.09936e-06
-2.64792e-05
4.58628e-07
-3.16653e-05
-9.16225e-06
-4.25412e-05
-1.87337e-05
-3.60282e-05
-2.48786e-05
-1.41614e-05
-2.94504e-05
-1.8854e-06
-3.13037e-05
5.97331e-06
-2.98943e-05
1.13238e-05
1.4931e-05
-3.07641e-05
-8.05694e-05
-1.70641e-05
-8.07462e-05
-1.47165e-05
-8.10646e-05
-1.16486e-05
-7.8127e-05
-7.31087e-06
-7.23047e-05
-2.06459e-06
-6.39324e-05
4.33227e-06
-5.35639e-05
1.1236e-05
-4.24212e-05
1.7515e-05
-3.0995e-05
2.19295e-05
-1.93842e-05
2.40043e-05
-9.20536e-06
2.36562e-05
-1.38401e-06
2.13076e-05
4.56167e-06
1.83028e-05
9.3209e-06
1.55208e-05
1.41866e-05
1.47262e-05
1.92984e-05
1.45558e-05
2.44892e-05
1.4995e-05
2.93358e-05
1.65487e-05
3.34318e-05
1.93169e-05
3.66252e-05
2.29232e-05
3.90097e-05
2.67078e-05
4.10288e-05
2.99915e-05
4.29318e-05
3.28429e-05
4.47232e-05
3.56557e-05
4.63686e-05
3.82753e-05
4.79519e-05
4.07406e-05
4.93764e-05
4.31233e-05
5.06867e-05
4.53468e-05
5.18106e-05
4.74178e-05
5.27352e-05
4.90554e-05
5.35552e-05
5.08282e-05
5.42286e-05
5.22021e-05
5.50551e-05
5.35129e-05
5.57801e-05
5.50163e-05
5.66668e-05
5.63356e-05
5.82736e-05
5.83614e-05
6.02973e-05
6.09825e-05
6.28289e-05
6.38985e-05
6.63571e-05
6.81017e-05
7.08741e-05
7.36645e-05
7.60615e-05
8.05341e-05
8.27326e-05
8.94511e-05
9.0457e-05
0.00010023
9.98875e-05
0.000112107
0.000111066
0.000126606
0.000123705
0.000142333
0.000139203
0.000159217
0.000156875
0.000179166
0.00017612
0.000197767
0.000198039
0.000218762
0.000220419
0.000241025
0.000240187
0.00026187
0.00025828
0.000279553
0.000278521
0.000298124
0.000302759
0.000318675
0.000331196
0.00034277
0.000363082
0.000368291
0.00039704
0.000398702
0.000425933
0.000427231
0.000444533
0.000446623
0.00045715
0.000455293
0.000463964
0.000455351
0.000463821
0.000439626
0.000446386
0.000402315
0.000406138
0.00033466
0.000326377
0.000244808
0.000218647
0.00013419
0.000148253
4.36808e-05
0.00010962
-2.9838e-06
9.18759e-05
-2.94801e-05
8.4064e-05
-4.88143e-05
8.09686e-05
-6.50209e-05
8.4655e-05
-8.08786e-05
7.94404e-05
-8.67525e-05
6.75072e-05