/*--------------------------------*- C++ -*----------------------------------*\
  =========                 |
  \\      /  F ield         | OpenFOAM: The Open Source CFD Toolbox
   \\    /   O peration     | Website:  https://openfoam.org
    \\  /    A nd           | Version:  10
     \\/     M anipulation  |
\*---------------------------------------------------------------------------*/
FoamFile
{
    format      ascii;
    class       volVectorField;
    location    "1.000237";
    object      U;
}
// * * * * * * * * * * * * * * * * * * * * * * * * * * * * * * * * * * * * * //

dimensions      [0 1 -1 0 0 0 0];

internalField   nonuniform List<vector> 
16320
(
(-0.149113 -0.132707 0)
(-0.124637 -0.078722 0)
(-0.0967496 -0.0164292 0)
(-0.065543 0.0502674 0)
(-0.0428895 0.101473 0)
(-0.042922 0.135684 0)
(-0.0425255 0.152962 0)
(-0.0351457 0.170787 0)
(-0.0239998 0.194646 0)
(0.00250413 0.220253 0)
(0.0353196 0.257873 0)
(0.0567532 0.295647 0)
(0.0792578 0.322104 0)
(0.104717 0.34382 0)
(0.132019 0.364184 0)
(0.160325 0.383847 0)
(0.189761 0.402112 0)
(0.219552 0.418438 0)
(0.248968 0.432928 0)
(0.2769 0.446573 0)
(0.302813 0.461015 0)
(0.327334 0.476103 0)
(0.351092 0.492648 0)
(0.37404 0.509342 0)
(0.395716 0.525313 0)
(0.416025 0.539144 0)
(0.434248 0.546884 0)
(0.449278 0.546098 0)
(0.460514 0.536286 0)
(0.46893 0.523076 0)
(0.474575 0.500358 0)
(0.472578 0.489373 0)
(0.472956 0.472373 0)
(0.469593 0.470106 0)
(0.464537 0.455806 0)
(0.460239 0.448282 0)
(0.456642 0.435624 0)
(0.452785 0.426482 0)
(0.447477 0.413336 0)
(0.443678 0.404519 0)
(0.442012 0.391704 0)
(0.440688 0.383299 0)
(0.438278 0.369975 0)
(0.442727 0.362694 0)
(0.448305 0.353915 0)
(0.456723 0.347218 0)
(0.466397 0.33963 0)
(0.474888 0.331302 0)
(0.484599 0.324861 0)
(0.494372 0.321992 0)
(0.499772 0.321464 0)
(0.508861 0.330734 0)
(0.514958 0.340569 0)
(0.515711 0.348333 0)
(0.517669 0.35343 0)
(0.51918 0.35614 0)
(0.515533 0.355426 0)
(0.50806 0.352993 0)
(0.497389 0.346854 0)
(0.471297 0.333087 0)
(0.425794 0.319691 0)
(0.375197 0.288719 0)
(0.330226 0.241929 0)
(0.289009 0.184013 0)
(0.248466 0.109381 0)
(0.203293 0.0139054 0)
(0.154594 -0.0927156 0)
(0.116201 -0.190762 0)
(0.0875833 -0.273125 0)
(0.0678275 -0.338076 0)
(0.0577558 -0.384505 0)
(0.0555405 -0.414123 0)
(0.0585357 -0.430457 0)
(0.0639894 -0.435693 0)
(0.0714899 -0.431017 0)
(0.0811784 -0.416811 0)
(0.0931599 -0.393213 0)
(0.108502 -0.36177 0)
(0.123865 -0.326554 0)
(0.139099 -0.29881 0)
(0.152877 -0.28056 0)
(0.162405 -0.269147 0)
(0.168608 -0.263352 0)
(0.170788 -0.260707 0)
(0.170847 -0.258966 0)
(0.170573 -0.253983 0)
(0.167918 -0.239478 0)
(0.16311 -0.221527 0)
(0.160719 -0.201135 0)
(0.157008 -0.183919 0)
(0.156602 -0.174031 0)
(0.159692 -0.16077 0)
(0.165085 -0.142187 0)
(0.173625 -0.118039 0)
(0.183071 -0.090657 0)
(0.191677 -0.0643294 0)
(0.198428 -0.0428284 0)
(0.20156 -0.0289648 0)
(0.1994 -0.0255194 0)
(0.192408 -0.0352093 0)
(0.178502 -0.0602115 0)
(0.150744 -0.100049 0)
(0.113081 -0.158013 0)
(0.077328 -0.228855 0)
(0.0452034 -0.30657 0)
(0.000216574 -0.379088 0)
(-0.0449966 -0.39678 0)
(-0.0509484 -0.338579 0)
(-0.0558686 -0.275945 0)
(-0.0687651 -0.211619 0)
(-0.081399 -0.15116 0)
(-0.0938816 -0.104027 0)
(-0.106819 -0.077232 0)
(-0.173145 -0.144042 0)
(-0.150249 -0.0919141 0)
(-0.123028 -0.0304966 0)
(-0.0920083 0.0375104 0)
(-0.0621858 0.0971039 0)
(-0.0464676 0.137504 0)
(-0.0452648 0.163629 0)
(-0.0407418 0.176593 0)
(-0.0313044 0.193641 0)
(-0.0172699 0.214768 0)
(0.0117892 0.239466 0)
(0.0439255 0.273793 0)
(0.0668512 0.304401 0)
(0.0908245 0.325807 0)
(0.117818 0.344357 0)
(0.145909 0.362259 0)
(0.174652 0.379392 0)
(0.203762 0.394916 0)
(0.232743 0.409128 0)
(0.261752 0.42284 0)
(0.290375 0.436861 0)
(0.318485 0.451282 0)
(0.34556 0.466616 0)
(0.371114 0.482192 0)
(0.39592 0.498772 0)
(0.420185 0.5156 0)
(0.443067 0.528857 0)
(0.463151 0.535879 0)
(0.479515 0.534647 0)
(0.491804 0.526816 0)
(0.500122 0.512582 0)
(0.503346 0.494489 0)
(0.503275 0.479586 0)
(0.501007 0.45841 0)
(0.495022 0.446128 0)
(0.487754 0.430121 0)
(0.479274 0.421558 0)
(0.470116 0.407082 0)
(0.461479 0.400764 0)
(0.4548 0.390742 0)
(0.450675 0.387148 0)
(0.447451 0.37785 0)
(0.446706 0.375542 0)
(0.449792 0.3707 0)
(0.455495 0.366169 0)
(0.462763 0.360449 0)
(0.470757 0.353985 0)
(0.477352 0.346703 0)
(0.484878 0.341839 0)
(0.492655 0.337044 0)
(0.499211 0.336979 0)
(0.506596 0.343249 0)
(0.512024 0.347434 0)
(0.515856 0.355315 0)
(0.518604 0.363213 0)
(0.519567 0.368294 0)
(0.517609 0.37069 0)
(0.511981 0.371423 0)
(0.501897 0.366388 0)
(0.484414 0.355695 0)
(0.452416 0.343446 0)
(0.404898 0.322738 0)
(0.358361 0.279831 0)
(0.318436 0.222528 0)
(0.280477 0.15122 0)
(0.241393 0.0629831 0)
(0.196005 -0.0423327 0)
(0.156655 -0.145803 0)
(0.12682 -0.236576 0)
(0.106042 -0.310455 0)
(0.0954032 -0.365298 0)
(0.0931526 -0.401252 0)
(0.0960499 -0.421234 0)
(0.101311 -0.42885 0)
(0.107979 -0.426178 0)
(0.115604 -0.414362 0)
(0.124057 -0.394731 0)
(0.134638 -0.368023 0)
(0.147082 -0.336646 0)
(0.157899 -0.304144 0)
(0.168502 -0.281583 0)
(0.178787 -0.267983 0)
(0.186264 -0.259746 0)
(0.190595 -0.254367 0)
(0.19236 -0.249507 0)
(0.192671 -0.242698 0)
(0.190755 -0.230833 0)
(0.187277 -0.212988 0)
(0.185231 -0.193797 0)
(0.181179 -0.176845 0)
(0.177321 -0.166433 0)
(0.177505 -0.157234 0)
(0.178102 -0.140127 0)
(0.181131 -0.1179 0)
(0.185961 -0.091102 0)
(0.190709 -0.0634673 0)
(0.194722 -0.0391756 0)
(0.196013 -0.0217958 0)
(0.192779 -0.0139778 0)
(0.185705 -0.0182089 0)
(0.174532 -0.0366976 0)
(0.15289 -0.0705048 0)
(0.121843 -0.121292 0)
(0.0909085 -0.188066 0)
(0.0645535 -0.266804 0)
(0.0265285 -0.339582 0)
(-0.0280543 -0.371765 0)
(-0.0395905 -0.322157 0)
(-0.0468717 -0.261206 0)
(-0.0632683 -0.197914 0)
(-0.0783579 -0.138212 0)
(-0.0903273 -0.0909075 0)
(-0.102989 -0.0616414 0)
(-0.202646 -0.152436 0)
(-0.181882 -0.104326 0)
(-0.155472 -0.0442906 0)
(-0.124838 0.0227028 0)
(-0.0931678 0.0867979 0)
(-0.0651756 0.134802 0)
(-0.0543621 0.16751 0)
(-0.0502617 0.18424 0)
(-0.0404399 0.19506 0)
(-0.029661 0.210863 0)
(-0.0114525 0.229801 0)
(0.0200119 0.254351 0)
(0.0510577 0.28409 0)
(0.0756785 0.306857 0)
(0.102262 0.324276 0)
(0.131194 0.341029 0)
(0.160146 0.357877 0)
(0.189 0.37368 0)
(0.218167 0.388012 0)
(0.246951 0.40198 0)
(0.274813 0.415958 0)
(0.302418 0.429903 0)
(0.329711 0.44345 0)
(0.357292 0.45724 0)
(0.386342 0.472084 0)
(0.414475 0.486339 0)
(0.439999 0.499016 0)
(0.462586 0.508689 0)
(0.482568 0.514424 0)
(0.499433 0.515123 0)
(0.511657 0.509971 0)
(0.51832 0.499822 0)
(0.520516 0.487445 0)
(0.51913 0.473061 0)
(0.514211 0.45848 0)
(0.506564 0.445675 0)
(0.496115 0.433773 0)
(0.484691 0.423567 0)
(0.47398 0.414977 0)
(0.46491 0.408251 0)
(0.458186 0.402089 0)
(0.453844 0.396374 0)
(0.4524 0.391884 0)
(0.453942 0.387074 0)
(0.458088 0.381538 0)
(0.464009 0.375041 0)
(0.47011 0.368278 0)
(0.475879 0.361447 0)
(0.481603 0.356753 0)
(0.487772 0.353477 0)
(0.493849 0.354413 0)
(0.499326 0.358048 0)
(0.504245 0.36348 0)
(0.509144 0.370397 0)
(0.513921 0.376113 0)
(0.517623 0.380802 0)
(0.517888 0.384285 0)
(0.512522 0.386103 0)
(0.502874 0.38374 0)
(0.48953 0.376068 0)
(0.468407 0.363753 0)
(0.430258 0.347194 0)
(0.382606 0.313598 0)
(0.343693 0.25802 0)
(0.309043 0.188659 0)
(0.274364 0.105179 0)
(0.234787 0.00413391 0)
(0.196593 -0.102205 0)
(0.166806 -0.199956 0)
(0.1456 -0.282423 0)
(0.134277 -0.345579 0)
(0.131628 -0.388104 0)
(0.134016 -0.411982 0)
(0.138254 -0.421602 0)
(0.143721 -0.419996 0)
(0.149627 -0.408897 0)
(0.155145 -0.390726 0)
(0.161248 -0.36691 0)
(0.169005 -0.338527 0)
(0.177383 -0.308777 0)
(0.185231 -0.282994 0)
(0.192675 -0.267644 0)
(0.199786 -0.257043 0)
(0.205409 -0.249531 0)
(0.20893 -0.242264 0)
(0.210427 -0.233423 0)
(0.20915 -0.221031 0)
(0.205045 -0.204461 0)
(0.202904 -0.185933 0)
(0.200772 -0.169878 0)
(0.195981 -0.156133 0)
(0.193003 -0.146893 0)
(0.190417 -0.13265 0)
(0.187721 -0.112415 0)
(0.187498 -0.0870818 0)
(0.188024 -0.0590132 0)
(0.18859 -0.0327543 0)
(0.187283 -0.0127736 0)
(0.182327 -0.00159333 0)
(0.174414 -0.00165331 0)
(0.163753 -0.0155701 0)
(0.145592 -0.0448088 0)
(0.120342 -0.0903165 0)
(0.0950876 -0.153121 0)
(0.0745575 -0.229877 0)
(0.0437406 -0.302391 0)
(-0.0100979 -0.340199 0)
(-0.0303298 -0.301269 0)
(-0.0397263 -0.243029 0)
(-0.0594164 -0.181041 0)
(-0.0768316 -0.123234 0)
(-0.0883017 -0.0767304 0)
(-0.100379 -0.0470672 0)
(-0.233995 -0.156377 0)
(-0.216769 -0.113022 0)
(-0.192568 -0.0580954 0)
(-0.16291 0.00721674 0)
(-0.130008 0.0723092 0)
(-0.0972604 0.125921 0)
(-0.0748487 0.163973 0)
(-0.0654468 0.187294 0)
(-0.0547373 0.196878 0)
(-0.0415008 0.208122 0)
(-0.0281892 0.22202 0)
(-0.00524588 0.239829 0)
(0.0277411 0.263998 0)
(0.0584443 0.286251 0)
(0.0861721 0.302885 0)
(0.116321 0.318598 0)
(0.147644 0.335234 0)
(0.177063 0.352123 0)
(0.205591 0.368006 0)
(0.234503 0.381873 0)
(0.263035 0.395471 0)
(0.290537 0.409579 0)
(0.317171 0.42347 0)
(0.343739 0.438025 0)
(0.369948 0.451936 0)
(0.395986 0.463886 0)
(0.422717 0.474382 0)
(0.449228 0.483036 0)
(0.473382 0.489288 0)
(0.492621 0.491507 0)
(0.506249 0.489745 0)
(0.515058 0.484875 0)
(0.519838 0.478091 0)
(0.520428 0.469643 0)
(0.51728 0.460258 0)
(0.510738 0.450842 0)
(0.500725 0.442108 0)
(0.489187 0.433724 0)
(0.477655 0.42636 0)
(0.46749 0.419809 0)
(0.45957 0.413881 0)
(0.454178 0.407732 0)
(0.451748 0.401491 0)
(0.45215 0.395137 0)
(0.455057 0.388547 0)
(0.459747 0.381144 0)
(0.465157 0.373034 0)
(0.469923 0.367443 0)
(0.475141 0.361723 0)
(0.481332 0.36345 0)
(0.486017 0.36559 0)
(0.49084 0.370892 0)
(0.496241 0.376136 0)
(0.501182 0.384491 0)
(0.506317 0.391145 0)
(0.511444 0.395797 0)
(0.514106 0.398178 0)
(0.511232 0.399517 0)
(0.502289 0.399034 0)
(0.490104 0.393546 0)
(0.474653 0.382431 0)
(0.447121 0.365136 0)
(0.404608 0.34006 0)
(0.364593 0.288821 0)
(0.333673 0.22145 0)
(0.30315 0.141747 0)
(0.270262 0.0467561 0)
(0.235187 -0.0604264 0)
(0.206187 -0.164056 0)
(0.185117 -0.254449 0)
(0.17328 -0.325569 0)
(0.169736 -0.374239 0)
(0.170743 -0.401883 0)
(0.17312 -0.413308 0)
(0.176608 -0.412202 0)
(0.180197 -0.400839 0)
(0.182705 -0.383117 0)
(0.185154 -0.360699 0)
(0.188295 -0.334492 0)
(0.192316 -0.3073 0)
(0.197336 -0.283929 0)
(0.203238 -0.267891 0)
(0.210514 -0.255579 0)
(0.215946 -0.246111 0)
(0.219923 -0.236971 0)
(0.222359 -0.225861 0)
(0.222334 -0.212667 0)
(0.218876 -0.195853 0)
(0.215573 -0.177659 0)
(0.21372 -0.161183 0)
(0.210379 -0.145363 0)
(0.205038 -0.132166 0)
(0.198981 -0.119239 0)
(0.192091 -0.101006 0)
(0.186666 -0.0773919 0)
(0.182653 -0.0500461 0)
(0.179359 -0.0227823 0)
(0.174609 -0.000998518 0)
(0.166977 0.0127754 0)
(0.157695 0.0156307 0)
(0.147316 0.00454104 0)
(0.131875 -0.0218893 0)
(0.111518 -0.0639727 0)
(0.0921834 -0.123949 0)
(0.0776198 -0.198622 0)
(0.0530122 -0.26719 0)
(0.00316274 -0.30632 0)
(-0.0228796 -0.277099 0)
(-0.0346576 -0.222086 0)
(-0.0570296 -0.16136 0)
(-0.0762856 -0.106364 0)
(-0.0880174 -0.0618289 0)
(-0.098889 -0.0332075 0)
(-0.26401 -0.155795 0)
(-0.251685 -0.117379 0)
(-0.231885 -0.0689694 0)
(-0.204138 -0.0093492 0)
(-0.171172 0.0543465 0)
(-0.135277 0.110636 0)
(-0.105638 0.153977 0)
(-0.0890178 0.182162 0)
(-0.0738281 0.195546 0)
(-0.0563497 0.204859 0)
(-0.0423927 0.214962 0)
(-0.0237921 0.227762 0)
(0.00442455 0.245419 0)
(0.0391941 0.265786 0)
(0.0704576 0.280525 0)
(0.102055 0.294205 0)
(0.135592 0.309867 0)
(0.168999 0.326696 0)
(0.199132 0.344433 0)
(0.227279 0.36161 0)
(0.255518 0.377238 0)
(0.282876 0.391508 0)
(0.309678 0.40498 0)
(0.335673 0.418529 0)
(0.360246 0.431677 0)
(0.384141 0.444501 0)
(0.407848 0.456169 0)
(0.430723 0.465625 0)
(0.451919 0.471405 0)
(0.470745 0.473563 0)
(0.48658 0.47293 0)
(0.498279 0.470601 0)
(0.505474 0.46634 0)
(0.507985 0.460561 0)
(0.506414 0.453637 0)
(0.501654 0.446497 0)
(0.492686 0.439069 0)
(0.481952 0.432427 0)
(0.471573 0.425987 0)
(0.462018 0.420292 0)
(0.453941 0.414373 0)
(0.447887 0.408803 0)
(0.445226 0.403018 0)
(0.445463 0.396942 0)
(0.447636 0.390769 0)
(0.450893 0.384601 0)
(0.456735 0.379084 0)
(0.462015 0.373712 0)
(0.470136 0.371348 0)
(0.477511 0.367781 0)
(0.480447 0.369466 0)
(0.482175 0.373651 0)
(0.486943 0.384818 0)
(0.493803 0.393477 0)
(0.499238 0.402811 0)
(0.504451 0.408765 0)
(0.507887 0.411566 0)
(0.507041 0.412214 0)
(0.499829 0.411545 0)
(0.488355 0.407713 0)
(0.474781 0.397827 0)
(0.455574 0.380619 0)
(0.420881 0.358091 0)
(0.381595 0.312396 0)
(0.354261 0.248396 0)
(0.328234 0.172315 0)
(0.299983 0.0827188 0)
(0.269204 -0.0227511 0)
(0.242603 -0.130256 0)
(0.222805 -0.227341 0)
(0.210921 -0.305416 0)
(0.206243 -0.359453 0)
(0.205033 -0.390252 0)
(0.204445 -0.402996 0)
(0.205053 -0.401914 0)
(0.205508 -0.389775 0)
(0.204395 -0.372164 0)
(0.203109 -0.350487 0)
(0.202483 -0.326448 0)
(0.202451 -0.301818 0)
(0.204374 -0.281113 0)
(0.209389 -0.265374 0)
(0.216667 -0.25361 0)
(0.222115 -0.243567 0)
(0.226568 -0.232851 0)
(0.229384 -0.219872 0)
(0.229807 -0.204875 0)
(0.227899 -0.186918 0)
(0.224832 -0.167802 0)
(0.221295 -0.149739 0)
(0.216559 -0.133473 0)
(0.209738 -0.118019 0)
(0.200954 -0.102938 0)
(0.191161 -0.0849897 0)
(0.181654 -0.0626643 0)
(0.173472 -0.0363912 0)
(0.165917 -0.00882043 0)
(0.156467 0.0144888 0)
(0.146749 0.0290355 0)
(0.136644 0.0329936 0)
(0.126085 0.0237077 0)
(0.113446 -0.00156777 0)
(0.0978146 -0.0421987 0)
(0.0845074 -0.101052 0)
(0.0756042 -0.17355 0)
(0.0557679 -0.236334 0)
(0.0103463 -0.272721 0)
(-0.0178715 -0.249992 0)
(-0.0316509 -0.198581 0)
(-0.0559305 -0.139237 0)
(-0.0765007 -0.0879751 0)
(-0.0885554 -0.0464906 0)
(-0.0979276 -0.01935 0)
(-0.29056 -0.150412 0)
(-0.281188 -0.116421 0)
(-0.266667 -0.0742113 0)
(-0.244617 -0.0234765 0)
(-0.213946 0.0348545 0)
(-0.177035 0.0909578 0)
(-0.142094 0.136918 0)
(-0.117359 0.169898 0)
(-0.0956916 0.188756 0)
(-0.073544 0.199151 0)
(-0.0562674 0.207537 0)
(-0.0375154 0.21619 0)
(-0.0111886 0.227625 0)
(0.0241488 0.243795 0)
(0.0565103 0.256825 0)
(0.0903782 0.268134 0)
(0.125656 0.282144 0)
(0.161575 0.298364 0)
(0.196908 0.31569 0)
(0.229174 0.334647 0)
(0.257628 0.35336 0)
(0.283593 0.371162 0)
(0.308852 0.388054 0)
(0.333332 0.403082 0)
(0.356377 0.416429 0)
(0.378501 0.42843 0)
(0.400043 0.439228 0)
(0.419988 0.448657 0)
(0.437922 0.455975 0)
(0.453842 0.460804 0)
(0.467378 0.463206 0)
(0.477593 0.463222 0)
(0.483976 0.461224 0)
(0.486562 0.457496 0)
(0.486085 0.452751 0)
(0.482343 0.447446 0)
(0.475524 0.441873 0)
(0.467188 0.437205 0)
(0.458502 0.432506 0)
(0.450323 0.428012 0)
(0.443798 0.423232 0)
(0.439398 0.418911 0)
(0.437044 0.414433 0)
(0.437037 0.409714 0)
(0.439251 0.404962 0)
(0.443452 0.40056 0)
(0.447959 0.396965 0)
(0.45346 0.391916 0)
(0.457508 0.389278 0)
(0.462439 0.383266 0)
(0.46805 0.382015 0)
(0.476699 0.387442 0)
(0.483079 0.393274 0)
(0.487442 0.403743 0)
(0.493512 0.412592 0)
(0.497517 0.418656 0)
(0.500596 0.422433 0)
(0.500641 0.423358 0)
(0.495341 0.42225 0)
(0.484802 0.418727 0)
(0.471674 0.409536 0)
(0.457276 0.393234 0)
(0.429605 0.369932 0)
(0.394379 0.328729 0)
(0.370534 0.268706 0)
(0.349024 0.196493 0)
(0.324955 0.112648 0)
(0.298287 0.0102569 0)
(0.274679 -0.0997357 0)
(0.257143 -0.202028 0)
(0.245728 -0.285601 0)
(0.239642 -0.343571 0)
(0.235396 -0.376534 0)
(0.230792 -0.389998 0)
(0.22767 -0.387999 0)
(0.224422 -0.37524 0)
(0.219375 -0.357717 0)
(0.213956 -0.337035 0)
(0.209159 -0.315369 0)
(0.206228 -0.294113 0)
(0.206881 -0.276322 0)
(0.211383 -0.261013 0)
(0.218149 -0.250368 0)
(0.223576 -0.240413 0)
(0.228126 -0.228737 0)
(0.23112 -0.214171 0)
(0.231911 -0.196771 0)
(0.230683 -0.176988 0)
(0.227477 -0.156604 0)
(0.221721 -0.137731 0)
(0.214744 -0.1207 0)
(0.206013 -0.103589 0)
(0.19529 -0.0858887 0)
(0.183112 -0.0665278 0)
(0.170531 -0.0443273 0)
(0.159055 -0.0186024 0)
(0.145685 0.0100692 0)
(0.132824 0.0334173 0)
(0.121907 0.0475248 0)
(0.111888 0.050931 0)
(0.102088 0.0412954 0)
(0.0917898 0.016334 0)
(0.0814509 -0.0248713 0)
(0.0739722 -0.0840383 0)
(0.0698246 -0.153539 0)
(0.0527448 -0.208292 0)
(0.0122049 -0.240887 0)
(-0.0150475 -0.220045 0)
(-0.0309364 -0.172325 0)
(-0.0560901 -0.115427 0)
(-0.0773204 -0.06857 0)
(-0.0891581 -0.0306859 0)
(-0.0974625 -0.00502185 0)
(-0.312475 -0.140817 0)
(-0.304355 -0.11056 0)
(-0.292245 -0.0728911 0)
(-0.274453 -0.0285862 0)
(-0.24897 0.0221662 0)
(-0.215301 0.0741081 0)
(-0.178106 0.119734 0)
(-0.145586 0.154629 0)
(-0.116813 0.177237 0)
(-0.0908893 0.189911 0)
(-0.0700622 0.198487 0)
(-0.0483924 0.204393 0)
(-0.0205865 0.21052 0)
(0.015109 0.219706 0)
(0.048692 0.231224 0)
(0.0837339 0.240629 0)
(0.120405 0.252577 0)
(0.157471 0.267986 0)
(0.194582 0.28546 0)
(0.230251 0.303722 0)
(0.263279 0.323004 0)
(0.293209 0.343122 0)
(0.319563 0.363292 0)
(0.342082 0.381907 0)
(0.361989 0.398698 0)
(0.380774 0.414087 0)
(0.398989 0.426932 0)
(0.415647 0.437044 0)
(0.430294 0.444533 0)
(0.443434 0.449852 0)
(0.454599 0.45331 0)
(0.462829 0.454959 0)
(0.467717 0.45515 0)
(0.469307 0.45404 0)
(0.468275 0.452274 0)
(0.464913 0.449833 0)
(0.45905 0.447897 0)
(0.451818 0.445801 0)
(0.44433 0.443782 0)
(0.437401 0.441332 0)
(0.431986 0.438633 0)
(0.428196 0.435552 0)
(0.426321 0.431954 0)
(0.426495 0.428219 0)
(0.428598 0.4244 0)
(0.432367 0.420531 0)
(0.436462 0.41641 0)
(0.441056 0.412254 0)
(0.445385 0.408301 0)
(0.450172 0.406259 0)
(0.458727 0.404648 0)
(0.463452 0.408366 0)
(0.470794 0.410488 0)
(0.480461 0.417471 0)
(0.484998 0.421879 0)
(0.489924 0.427596 0)
(0.493245 0.431296 0)
(0.493237 0.432535 0)
(0.488891 0.43104 0)
(0.479162 0.426842 0)
(0.466445 0.417712 0)
(0.454336 0.401976 0)
(0.43182 0.376956 0)
(0.401999 0.338889 0)
(0.381247 0.282911 0)
(0.364292 0.214553 0)
(0.344197 0.136262 0)
(0.320628 0.0374984 0)
(0.301027 -0.0733955 0)
(0.286651 -0.17916 0)
(0.276244 -0.266172 0)
(0.26844 -0.32636 0)
(0.26006 -0.360203 0)
(0.250786 -0.373813 0)
(0.24323 -0.369634 0)
(0.235854 -0.356783 0)
(0.22667 -0.339675 0)
(0.216976 -0.321037 0)
(0.20795 -0.302041 0)
(0.202741 -0.284767 0)
(0.203106 -0.269969 0)
(0.207212 -0.256504 0)
(0.21325 -0.247127 0)
(0.218752 -0.237143 0)
(0.223296 -0.224148 0)
(0.225886 -0.207568 0)
(0.226474 -0.188025 0)
(0.224661 -0.167073 0)
(0.219925 -0.146406 0)
(0.213874 -0.126078 0)
(0.205746 -0.106264 0)
(0.194817 -0.0863403 0)
(0.181486 -0.0664149 0)
(0.166892 -0.0458011 0)
(0.152057 -0.0232705 0)
(0.136514 0.00341093 0)
(0.119537 0.0316618 0)
(0.104496 0.0542865 0)
(0.0934805 0.0670343 0)
(0.0842601 0.0685756 0)
(0.0761032 0.0571094 0)
(0.069006 0.0306343 0)
(0.0641391 -0.0122304 0)
(0.0620822 -0.0722965 0)
(0.0616151 -0.136859 0)
(0.0453024 -0.18216 0)
(0.0101702 -0.209788 0)
(-0.0140059 -0.188916 0)
(-0.033179 -0.143892 0)
(-0.0578311 -0.0907212 0)
(-0.0788536 -0.0487312 0)
(-0.0897736 -0.0147718 0)
(-0.097201 0.00929085 0)
(-0.327113 -0.128216 0)
(-0.320837 -0.10241 0)
(-0.309694 -0.0695442 0)
(-0.292981 -0.0304012 0)
(-0.270022 0.0136014 0)
(-0.239601 0.0601612 0)
(-0.204083 0.10324 0)
(-0.168476 0.138055 0)
(-0.135298 0.162259 0)
(-0.105916 0.177117 0)
(-0.0808109 0.18669 0)
(-0.0553235 0.191545 0)
(-0.0244153 0.193528 0)
(0.0136921 0.196526 0)
(0.0480125 0.204046 0)
(0.0836119 0.211938 0)
(0.121164 0.22221 0)
(0.158873 0.236379 0)
(0.196485 0.254048 0)
(0.233229 0.273825 0)
(0.267875 0.294525 0)
(0.299602 0.315312 0)
(0.328086 0.335613 0)
(0.353048 0.355489 0)
(0.375158 0.374743 0)
(0.393733 0.39309 0)
(0.40868 0.409037 0)
(0.420681 0.421988 0)
(0.430855 0.432822 0)
(0.440158 0.441472 0)
(0.447927 0.4473 0)
(0.453406 0.450748 0)
(0.456084 0.451956 0)
(0.456294 0.452113 0)
(0.454584 0.451871 0)
(0.451268 0.451105 0)
(0.445794 0.450473 0)
(0.438828 0.449805 0)
(0.431689 0.449013 0)
(0.425127 0.447968 0)
(0.420004 0.446852 0)
(0.416454 0.445563 0)
(0.414664 0.443664 0)
(0.414714 0.441437 0)
(0.416474 0.438809 0)
(0.419727 0.435939 0)
(0.423626 0.432756 0)
(0.428241 0.429441 0)
(0.433346 0.426654 0)
(0.43882 0.42491 0)
(0.445789 0.423998 0)
(0.452473 0.423845 0)
(0.459602 0.428981 0)
(0.466343 0.431726 0)
(0.473922 0.435437 0)
(0.4811 0.439121 0)
(0.484516 0.440962 0)
(0.484672 0.440908 0)
(0.48067 0.438207 0)
(0.4716 0.432677 0)
(0.459397 0.422837 0)
(0.447541 0.406597 0)
(0.429117 0.380645 0)
(0.404874 0.343168 0)
(0.386427 0.29076 0)
(0.373623 0.227279 0)
(0.357451 0.153708 0)
(0.335837 0.0587358 0)
(0.320527 -0.051522 0)
(0.310355 -0.158534 0)
(0.301038 -0.246804 0)
(0.290631 -0.307324 0)
(0.276928 -0.341225 0)
(0.262985 -0.353441 0)
(0.251183 -0.346706 0)
(0.239245 -0.334246 0)
(0.22554 -0.31835 0)
(0.210958 -0.302466 0)
(0.198404 -0.287226 0)
(0.192228 -0.274233 0)
(0.192056 -0.261847 0)
(0.195879 -0.25254 0)
(0.201335 -0.244307 0)
(0.206499 -0.233524 0)
(0.210105 -0.218645 0)
(0.211616 -0.200476 0)
(0.210625 -0.180459 0)
(0.207215 -0.159135 0)
(0.203126 -0.136697 0)
(0.196694 -0.11319 0)
(0.186763 -0.0897279 0)
(0.173562 -0.0668076 0)
(0.158069 -0.0448161 0)
(0.141791 -0.0230593 0)
(0.124505 0.000728816 0)
(0.10488 0.0284759 0)
(0.0858747 0.0559382 0)
(0.0708911 0.0765169 0)
(0.0616629 0.086244 0)
(0.0544282 0.0846006 0)
(0.0492193 0.0701729 0)
(0.0465351 0.0408387 0)
(0.0473608 -0.00467865 0)
(0.0501469 -0.0652931 0)
(0.0520393 -0.122228 0)
(0.0350998 -0.157865 0)
(0.0044508 -0.17775 0)
(-0.0153923 -0.158346 0)
(-0.0382038 -0.114219 0)
(-0.0612942 -0.0661414 0)
(-0.0811648 -0.0293549 0)
(-0.0905457 0.000903174 0)
(-0.0974391 0.0229907 0)
(-0.332575 -0.113087 0)
(-0.328626 -0.0921321 0)
(-0.318814 -0.0647453 0)
(-0.303141 -0.0313422 0)
(-0.281049 0.00679572 0)
(-0.252381 0.0476302 0)
(-0.218646 0.086696 0)
(-0.182698 0.120153 0)
(-0.147652 0.145165 0)
(-0.115064 0.16166 0)
(-0.0846232 0.171151 0)
(-0.0535747 0.174012 0)
(-0.0189255 0.172559 0)
(0.0203706 0.170096 0)
(0.0534752 0.175375 0)
(0.0905879 0.182334 0)
(0.129055 0.191437 0)
(0.16725 0.204672 0)
(0.20518 0.222511 0)
(0.241599 0.243645 0)
(0.275482 0.266444 0)
(0.306497 0.289631 0)
(0.334615 0.312286 0)
(0.359777 0.3342 0)
(0.382156 0.354615 0)
(0.401193 0.372824 0)
(0.416631 0.38915 0)
(0.429298 0.403557 0)
(0.439091 0.416511 0)
(0.445769 0.427576 0)
(0.449538 0.436204 0)
(0.450813 0.442469 0)
(0.450169 0.447507 0)
(0.4484 0.451247 0)
(0.445026 0.454045 0)
(0.440351 0.455468 0)
(0.434102 0.455858 0)
(0.426724 0.455767 0)
(0.419499 0.455689 0)
(0.413401 0.45562 0)
(0.408837 0.455474 0)
(0.405431 0.455063 0)
(0.403512 0.454027 0)
(0.403225 0.452556 0)
(0.404549 0.450602 0)
(0.407408 0.448829 0)
(0.411103 0.446972 0)
(0.415684 0.444745 0)
(0.421027 0.442725 0)
(0.426816 0.440864 0)
(0.433546 0.439599 0)
(0.440686 0.439551 0)
(0.4479 0.441925 0)
(0.455416 0.444547 0)
(0.463114 0.44823 0)
(0.46963 0.449824 0)
(0.473483 0.450054 0)
(0.473711 0.448123 0)
(0.470002 0.443739 0)
(0.461636 0.436425 0)
(0.449914 0.425226 0)
(0.438545 0.407766 0)
(0.422142 0.380774 0)
(0.402469 0.343137 0)
(0.387418 0.29397 0)
(0.378027 0.234933 0)
(0.364721 0.166208 0)
(0.344865 0.0738383 0)
(0.333628 -0.0343108 0)
(0.327449 -0.140479 0)
(0.318383 -0.227697 0)
(0.303883 -0.286573 0)
(0.284291 -0.319479 0)
(0.266762 -0.327408 0)
(0.251296 -0.320157 0)
(0.234082 -0.30798 0)
(0.214954 -0.294394 0)
(0.194757 -0.281481 0)
(0.180655 -0.271345 0)
(0.175372 -0.262216 0)
(0.175054 -0.254451 0)
(0.178236 -0.249028 0)
(0.182961 -0.241271 0)
(0.186358 -0.229411 0)
(0.187781 -0.2136 0)
(0.186858 -0.194835 0)
(0.184808 -0.173906 0)
(0.182019 -0.15042 0)
(0.176675 -0.124654 0)
(0.167881 -0.0976065 0)
(0.155725 -0.0706783 0)
(0.140821 -0.0451957 0)
(0.124229 -0.021671 0)
(0.106255 0.0021402 0)
(0.085271 0.0279779 0)
(0.0645917 0.0543936 0)
(0.0457292 0.0805597 0)
(0.0338386 0.0979553 0)
(0.027943 0.103026 0)
(0.0238983 0.0974691 0)
(0.0230402 0.0793109 0)
(0.0255257 0.0460053 0)
(0.0317631 -0.00243428 0)
(0.0384836 -0.0615807 0)
(0.0408296 -0.107354 0)
(0.0239283 -0.135104 0)
(-0.00440938 -0.145447 0)
(-0.0206371 -0.127648 0)
(-0.0450391 -0.0842822 0)
(-0.0667116 -0.0418217 0)
(-0.084181 -0.0101754 0)
(-0.0914787 0.0157279 0)
(-0.0978568 0.0354857 0)
(-0.32793 -0.0957755 0)
(-0.32603 -0.080072 0)
(-0.317722 -0.0587368 0)
(-0.302814 -0.0317331 0)
(-0.281386 0.00043564 0)
(-0.253866 0.0359993 0)
(-0.221438 0.071278 0)
(-0.185893 0.102149 0)
(-0.149779 0.125883 0)
(-0.114495 0.141779 0)
(-0.0796315 0.149798 0)
(-0.0434007 0.149797 0)
(-0.0055929 0.145531 0)
(0.0323599 0.140912 0)
(0.0662471 0.14561 0)
(0.104546 0.151352 0)
(0.144444 0.15912 0)
(0.183876 0.172019 0)
(0.222147 0.190819 0)
(0.257451 0.21418 0)
(0.288784 0.239934 0)
(0.316448 0.265738 0)
(0.341389 0.290662 0)
(0.364027 0.314778 0)
(0.384298 0.337538 0)
(0.401915 0.358086 0)
(0.416748 0.376409 0)
(0.428949 0.392356 0)
(0.438344 0.405178 0)
(0.445102 0.415686 0)
(0.448658 0.424509 0)
(0.45038 0.431999 0)
(0.449538 0.438914 0)
(0.445957 0.44462 0)
(0.440383 0.449367 0)
(0.433144 0.453016 0)
(0.424778 0.456101 0)
(0.41638 0.459597 0)
(0.408947 0.462781 0)
(0.402503 0.465477 0)
(0.397282 0.46727 0)
(0.393354 0.467648 0)
(0.390968 0.467487 0)
(0.390245 0.466527 0)
(0.391725 0.465024 0)
(0.395093 0.463278 0)
(0.399013 0.461021 0)
(0.403548 0.45862 0)
(0.408846 0.456768 0)
(0.414662 0.455033 0)
(0.421322 0.453562 0)
(0.428586 0.452996 0)
(0.435886 0.453808 0)
(0.443468 0.455151 0)
(0.451179 0.456607 0)
(0.45759 0.457171 0)
(0.461138 0.456167 0)
(0.461028 0.452696 0)
(0.457268 0.446818 0)
(0.449443 0.437917 0)
(0.438434 0.425135 0)
(0.426679 0.406394 0)
(0.412297 0.377576 0)
(0.396262 0.34056 0)
(0.384014 0.293114 0)
(0.377782 0.239257 0)
(0.365874 0.173003 0)
(0.34676 0.0844057 0)
(0.340187 -0.0211228 0)
(0.33715 -0.124789 0)
(0.326736 -0.208501 0)
(0.306157 -0.264504 0)
(0.282138 -0.29414 0)
(0.261983 -0.296499 0)
(0.242758 -0.290076 0)
(0.219918 -0.278514 0)
(0.193958 -0.267903 0)
(0.170026 -0.259319 0)
(0.156983 -0.255112 0)
(0.152488 -0.251447 0)
(0.153345 -0.249111 0)
(0.155443 -0.245737 0)
(0.157831 -0.238006 0)
(0.157968 -0.225802 0)
(0.157165 -0.20904 0)
(0.155335 -0.189046 0)
(0.152023 -0.165452 0)
(0.146355 -0.138997 0)
(0.137545 -0.110174 0)
(0.125966 -0.080104 0)
(0.112255 -0.0504029 0)
(0.0967911 -0.0227986 0)
(0.0793996 0.00286909 0)
(0.0583667 0.0286717 0)
(0.0365563 0.0542172 0)
(0.0160458 0.0804251 0)
(0.00150647 0.104512 0)
(-0.00424387 0.115386 0)
(-0.00632251 0.115393 0)
(-0.00533403 0.106041 0)
(-0.000710854 0.0834054 0)
(0.00686396 0.0458772 0)
(0.0177657 -0.0044085 0)
(0.0268486 -0.0587293 0)
(0.0266293 -0.0900478 0)
(0.0123991 -0.112405 0)
(-0.0143936 -0.114999 0)
(-0.029647 -0.0968047 0)
(-0.0532958 -0.0548576 0)
(-0.0740038 -0.0183913 0)
(-0.0889714 0.0081412 0)
(-0.0935337 0.0291651 0)
(-0.0985721 0.0469454 0)
(-0.311817 -0.0759723 0)
(-0.311924 -0.066152 0)
(-0.305212 -0.0506852 0)
(-0.291867 -0.0308221 0)
(-0.271484 -0.00651149 0)
(-0.244964 0.0216528 0)
(-0.213253 0.0519269 0)
(-0.178178 0.0798761 0)
(-0.141631 0.101799 0)
(-0.104929 0.116278 0)
(-0.0676232 0.123018 0)
(-0.0287772 0.121902 0)
(0.00814474 0.11745 0)
(0.0446569 0.112419 0)
(0.0810649 0.11433 0)
(0.121165 0.117439 0)
(0.1628 0.123482 0)
(0.203868 0.136509 0)
(0.242038 0.157512 0)
(0.274466 0.18392 0)
(0.300105 0.213543 0)
(0.320631 0.242122 0)
(0.338561 0.26811 0)
(0.355462 0.292682 0)
(0.371268 0.316487 0)
(0.385728 0.338733 0)
(0.398897 0.359505 0)
(0.410409 0.378822 0)
(0.42006 0.395477 0)
(0.427884 0.409251 0)
(0.433173 0.420619 0)
(0.436014 0.429378 0)
(0.43603 0.435194 0)
(0.433497 0.43958 0)
(0.428892 0.443443 0)
(0.422862 0.447077 0)
(0.416366 0.450884 0)
(0.408827 0.455813 0)
(0.400736 0.460668 0)
(0.393454 0.465102 0)
(0.386621 0.469283 0)
(0.381607 0.473418 0)
(0.378722 0.476634 0)
(0.377324 0.479268 0)
(0.378034 0.480733 0)
(0.380374 0.479799 0)
(0.384142 0.476661 0)
(0.389622 0.473244 0)
(0.395991 0.470105 0)
(0.402319 0.467371 0)
(0.409012 0.465334 0)
(0.416185 0.464253 0)
(0.42334 0.463961 0)
(0.430784 0.463883 0)
(0.438326 0.463718 0)
(0.444368 0.462718 0)
(0.447238 0.459966 0)
(0.446633 0.45498 0)
(0.442875 0.447786 0)
(0.435421 0.437432 0)
(0.424974 0.422609 0)
(0.412791 0.401896 0)
(0.399334 0.372274 0)
(0.386057 0.334847 0)
(0.377135 0.290384 0)
(0.373042 0.24069 0)
(0.361606 0.17831 0)
(0.343891 0.0901709 0)
(0.339095 -0.0114542 0)
(0.337978 -0.1101 0)
(0.323483 -0.188746 0)
(0.296184 -0.24141 0)
(0.271146 -0.263139 0)
(0.249939 -0.26372 0)
(0.225124 -0.256898 0)
(0.195444 -0.247547 0)
(0.162583 -0.240184 0)
(0.139921 -0.23809 0)
(0.129613 -0.241462 0)
(0.127467 -0.244428 0)
(0.127324 -0.245227 0)
(0.126798 -0.243273 0)
(0.126059 -0.234581 0)
(0.123973 -0.22113 0)
(0.120781 -0.202743 0)
(0.115324 -0.180548 0)
(0.108013 -0.154597 0)
(0.0982184 -0.12546 0)
(0.086343 -0.0944511 0)
(0.0730098 -0.062302 0)
(0.0586605 -0.0316221 0)
(0.0427377 -0.0018244 0)
(0.0212967 0.027522 0)
(-0.00111312 0.0575163 0)
(-0.0202983 0.082194 0)
(-0.0352846 0.104603 0)
(-0.0414096 0.120657 0)
(-0.0409263 0.12483 0)
(-0.0379735 0.121559 0)
(-0.0308941 0.10892 0)
(-0.0212732 0.0833854 0)
(-0.00859475 0.0421161 0)
(0.00653278 -0.0105083 0)
(0.0152246 -0.0548538 0)
(0.0109073 -0.072242 0)
(-0.0024646 -0.0866983 0)
(-0.0260311 -0.0872449 0)
(-0.0411063 -0.0670681 0)
(-0.0630825 -0.0261116 0)
(-0.0831098 0.00471194 0)
(-0.0958029 0.0254322 0)
(-0.0986302 0.0419444 0)
(-0.100975 0.0563357 0)
(-0.28546 -0.0527355 0)
(-0.286513 -0.0497883 0)
(-0.280851 -0.040993 0)
(-0.268659 -0.0264252 0)
(-0.250107 -0.0088577 0)
(-0.226467 0.0106317 0)
(-0.197724 0.0324944 0)
(-0.164863 0.0547629 0)
(-0.128563 0.0744704 0)
(-0.0910816 0.0886406 0)
(-0.0549139 0.0955594 0)
(-0.0177871 0.0953813 0)
(0.018216 0.0900882 0)
(0.0523718 0.0844579 0)
(0.0893254 0.082718 0)
(0.128291 0.0826368 0)
(0.168579 0.087436 0)
(0.203856 0.0980113 0)
(0.226321 0.123513 0)
(0.236595 0.154371 0)
(0.247103 0.184814 0)
(0.256548 0.209998 0)
(0.264179 0.229516 0)
(0.275612 0.248463 0)
(0.290242 0.26816 0)
(0.306322 0.288456 0)
(0.324054 0.309775 0)
(0.342608 0.3332 0)
(0.360447 0.357422 0)
(0.376437 0.380235 0)
(0.388619 0.401343 0)
(0.396347 0.417392 0)
(0.400675 0.428659 0)
(0.402471 0.43689 0)
(0.401751 0.443223 0)
(0.398748 0.44753 0)
(0.394619 0.450683 0)
(0.38952 0.453524 0)
(0.383616 0.456713 0)
(0.378213 0.460177 0)
(0.374393 0.464382 0)
(0.371156 0.469911 0)
(0.368684 0.474793 0)
(0.367685 0.479914 0)