/*--------------------------------*- C++ -*----------------------------------*\
  =========                 |
  \\      /  F ield         | OpenFOAM: The Open Source CFD Toolbox
   \\    /   O peration     | Website:  https://openfoam.org
    \\  /    A nd           | Version:  10
     \\/     M anipulation  |
\*---------------------------------------------------------------------------*/
FoamFile
{
    format      ascii;
    class       volScalarField;
    location    "0.55123";
    object      p;
}
// * * * * * * * * * * * * * * * * * * * * * * * * * * * * * * * * * * * * * //

dimensions      [1 -1 -2 0 0 0 0];

internalField   nonuniform List<scalar> 
16320
(
0.864918
0.860579
0.853017
0.842168
0.829388
0.815466
0.802845
0.792226
0.785516
0.78413
0.788219
0.798007
0.810668
0.824505
0.837471
0.848156
0.856283
0.862755
0.868005
0.872594
0.877297
0.881088
0.884508
0.885952
0.885588
0.884009
0.879321
0.872532
0.863538
0.851997
0.839608
0.823717
0.807774
0.876586
0.871823
0.86306
0.852082
0.839458
0.825188
0.813465
0.802939
0.795632
0.792866
0.794842
0.801371
0.811124
0.821879
0.832709
0.842548
0.851173
0.858482
0.865121
0.871235
0.876966
0.881548
0.884916
0.886547
0.886557
0.885541
0.881767
0.876118
0.86825
0.857967
0.845302
0.831095
0.81421
0.89054
0.888537
0.880707
0.870476
0.857317
0.842197
0.830142
0.819385
0.811142
0.806408
0.805598
0.808471
0.814463
0.82285
0.831833
0.840697
0.849352
0.857496
0.865191
0.871988
0.878098
0.883189
0.886763
0.888771
0.889641
0.889394
0.887057
0.883107
0.876737
0.868121
0.854935
0.840959
0.823236
0.897183
0.89759
0.89771
0.892261
0.878528
0.864507
0.849558
0.83913
0.829534
0.82277
0.819364
0.819142
0.82145
0.826296
0.833258
0.841107
0.849424
0.857856
0.865855
0.873386
0.880347
0.886102
0.890324
0.893314
0.895563
0.896587
0.896343
0.894282
0.889569
0.882019
0.868374
0.853738
0.834892
0.904916
0.908894
0.908884
0.903874
0.898146
0.884913
0.871962
0.857905
0.847756
0.83959
0.834018
0.831214
0.8307
0.832269
0.836114
0.842377
0.849948
0.858358
0.867003
0.875792
0.883614
0.890276
0.895885
0.900615
0.904939
0.90817
0.910121
0.90999
0.906739
0.897694
0.885561
0.86908
0.849385
0.907449
0.913159
0.91561
0.914393
0.909607
0.902118
0.889314
0.876703
0.863508
0.854622
0.847539
0.842632
0.839705
0.838655
0.839754
0.843868
0.850085
0.858335
0.867638
0.877349
0.886739
0.895462
0.90346
0.910842
0.917858
0.923905
0.928532
0.92929
0.925505
0.917212
0.903979
0.886263
0.866492
0.904592
0.912227
0.916788
0.917485
0.915323
0.909631
0.900798
0.889468
0.877132
0.866324
0.858189
0.851748
0.847049
0.843452
0.843083
0.844702
0.849873
0.858014
0.867707
0.878715
0.890248
0.90179
0.913243
0.924457
0.93524
0.944113
0.95032
0.950008
0.946574
0.937354
0.922564
0.904794
0.882841
0.895581
0.904306
0.910688
0.913549
0.913112
0.910155
0.903396
0.894501
0.884403
0.874344
0.865256
0.857518
0.851663
0.847056
0.843751
0.844512
0.849836
0.857677
0.868239
0.881069
0.89563
0.91098
0.926654
0.942227
0.956319
0.966313
0.971482
0.971955
0.967219
0.955913
0.940623
0.920756
0.898013
0.881393
0.889759
0.897187
0.901629
0.902525
0.901267
0.8966
0.889593
0.881874
0.87559
0.867284
0.859355
0.852578
0.847752
0.844482
0.844443
0.847939
0.856576
0.869471
0.885762
0.903763
0.923102
0.942554
0.960901
0.976672
0.988483
0.993565
0.992216
0.985205
0.972706
0.954882
0.933983
0.910052
0.862357
0.868585
0.87592
0.881836
0.883941
0.883582
0.882199
0.877582
0.873052
0.867913
0.86293
0.856425
0.850405
0.845886
0.843367
0.843833
0.848954
0.859143
0.87386
0.892152
0.913818
0.93768
0.961597
0.983042
0.999353
1.00941
1.01221
1.00869
0.999471
0.984326
0.965056
0.941896
0.916553
0.84444
0.847104
0.851253
0.855133
0.857558
0.858486
0.858415
0.857709
0.855669
0.852923
0.849793
0.847126
0.843563
0.840795
0.840138
0.842962
0.851039
0.864165
0.882214
0.904803
0.930699
0.95771
0.983108
1.00429
1.01916
1.02656
1.02652
1.02056
1.00786
0.989639
0.968074
0.944045
0.916409
0.824624
0.822084
0.822213
0.823267
0.825607
0.827464
0.828716
0.830061
0.830729
0.831219
0.831166
0.831005
0.831631
0.832912
0.836076
0.843022
0.854862
0.872054
0.894533
0.921354
0.95044
0.978982
1.00395
1.02326
1.03525
1.03935
1.03568
1.02559
1.00978
0.989423
0.965684
0.937963
0.909775
0.805525
0.798041
0.793697
0.791606
0.791751
0.792952
0.794966
0.798257
0.80171
0.80419
0.808434
0.812374
0.817265
0.823882
0.833013
0.845127
0.861592
0.883867
0.911001
0.94126
0.972048
1.00038
1.02325
1.03892
1.04656
1.04621
1.0391
1.02538
1.00653
0.982579
0.954004
0.926159
0.899722
0.786537
0.774789
0.766462
0.761254
0.758626
0.75904
0.760945
0.764707
0.770198
0.776774
0.783173
0.792867
0.803241
0.815418
0.830556
0.849393
0.872606
0.900504
0.931562
0.96344
0.993581
1.01929
1.03867
1.05012
1.05343
1.04885
1.03727
1.02022
0.996085
0.967422
0.938517
0.912679
0.889053
0.765986
0.751962
0.740245
0.731951
0.727606
0.727279
0.729082
0.733676
0.740351
0.749278
0.760766
0.774009
0.790762
0.809851
0.832026
0.857507
0.887267
0.919726
0.953115
0.984842
1.01298
1.03511
1.0499
1.05656
1.05521
1.04625
1.0304
1.00606
0.977771
0.949036
0.923099
0.899337
0.878191
0.747029
0.729967
0.715939
0.705872
0.700146
0.699704
0.70203
0.708088
0.715163
0.726383
0.741441
0.759459
0.781853
0.808102
0.836718
0.869274
0.904127
0.939404
0.973066
1.00328
1.02827
1.04628
1.05592
1.05773
1.0519
1.0379
1.01427
0.98629
0.957758
0.931432
0.907628
0.886306
0.868455
0.734153
0.715177
0.699948
0.68943
0.683187
0.682292
0.684464
0.69119
0.699129
0.7114
0.728735
0.75148
0.779417
0.810625
0.845439
0.883141
0.9208
0.95664
0.989327
1.01731
1.03879
1.05179
1.05632
1.05404
1.04205
1.02042
0.993428
0.965428
0.93848
0.914116
0.893438
0.875403
0.860865
0.728161
0.708519
0.693369
0.682375
0.677055
0.676443
0.679174
0.685995
0.696443
0.708426
0.726926
0.751632
0.782306
0.817553
0.8567
0.896478
0.934495
0.96978
1.00093
1.02582
1.04317
1.05096
1.05195
1.04312
1.02381
0.998381
0.971224
0.944404
0.919265
0.89808
0.881541
0.866864
0.85442
0.72643
0.70638
0.691138
0.6815
0.677879
0.680036
0.686268
0.694739
0.70531
0.716432
0.733668
0.757999
0.789762
0.827496
0.866995
0.906365
0.943715
0.977331
1.0059
1.02772
1.04098
1.04554
1.0406
1.0244
1.00071
0.97494
0.948836
0.924326
0.901922
0.885577
0.871617
0.859312
0.848845
0.730736
0.70992
0.694745
0.687143
0.687962
0.694458
0.705906
0.718474
0.730644
0.739378
0.752447
0.773234
0.801653
0.836235
0.874073
0.911312
0.946169
0.977541
1.00406
1.02364
1.03279
1.03261
1.02042
0.999262
0.975674
0.95098
0.927425
0.905623
0.888292
0.874626
0.862591
0.852307
0.84351
0.740498
0.719288
0.70553
0.70018
0.705633
0.71913
0.737954
0.758173
0.775431
0.781299
0.785482
0.79589
0.815284
0.84217
0.874752
0.909606
0.942919
0.972288
0.996922
1.01143
1.01502
1.00847
0.991974
0.971898
0.949333
0.927435
0.906324
0.88892
0.875216
0.863773
0.853836
0.845261
0.837836
0.755259
0.733316
0.722306
0.720663
0.730382
0.751558
0.781898
0.813512
0.836528
0.837603
0.825162
0.819049
0.825151
0.843762
0.871163
0.902913
0.933808
0.962367
0.980723
0.987542
0.986674
0.976163
0.961231
0.942083
0.921237
0.903401
0.887372
0.873632
0.862389
0.852763
0.844419
0.837221
0.830981
0.774527
0.754192
0.743768
0.745951
0.762809
0.793927
0.836613
0.881216
0.909796
0.903763
0.867792
0.841266
0.832424
0.840109
0.860442
0.889907
0.919114
0.941739
0.952736
0.954759
0.950709
0.941022
0.927253
0.909226
0.894926
0.880363
0.867298
0.856347
0.846873
0.839455
0.832694
0.827019
0.822159
0.796721
0.778967
0.771736
0.776127
0.799452
0.841308
0.896556
0.952459
0.989259
0.976577
0.912448
0.857441
0.833452
0.830995
0.848055
0.869308
0.892819
0.90916
0.91463
0.91543
0.911087
0.901808
0.890155
0.877829
0.865955
0.854822
0.844694
0.836586
0.83009
0.824783
0.820133
0.816116
0.812635
0.821942
0.809017
0.804107
0.814165
0.843757
0.891666
0.957194
1.02605
1.072
1.05727
0.959684
0.872707
0.834552
0.820366
0.824661
0.840144
0.855256
0.866799
0.872245
0.872807
0.866532
0.861405
0.852939
0.844182
0.835538
0.829005
0.822577
0.817551
0.813834
0.810752
0.807836
0.805466
0.803007
0.84974
0.841929
0.841691
0.856598
0.891946
0.946947
1.01794
1.09861
1.15253
1.14756
1.02853
0.894721
0.827492
0.802363
0.796115
0.80235
0.812588
0.821689
0.825574
0.824807
0.823397
0.820081
0.815807
0.811236
0.80808
0.804649
0.802019
0.800039
0.798752
0.79742
0.796334
0.795108
0.793445
0.875794
0.872183
0.879677
0.900743
0.940708
0.999232
1.0753
1.16103
1.22311
1.22952
1.10292
0.928317
0.826564
0.781382
0.765229
0.763383
0.768425
0.774483
0.778275
0.779231
0.78145
0.781801
0.781566
0.782314
0.78311
0.783495
0.784245
0.784282
0.785207
0.785635
0.785651
0.785308
0.78424
0.898186
0.898724
0.910333
0.935461
0.976483
1.03367
1.10593
1.18689
1.24863
1.26324
1.1641
0.980068
0.840042
0.770361
0.739601
0.728705
0.726915
0.730689
0.73393
0.738575
0.744567
0.748739
0.752998
0.758483
0.762049
0.765763
0.768857
0.77132
0.773685
0.775318
0.776056
0.776105
0.775368
0.912434
0.915748
0.929359
0.955397
0.994817
1.04744
1.10916
1.1717
1.21684
1.23105
1.17211
1.03083
0.874312
0.773288
0.723707
0.701727
0.693887
0.694212
0.698203
0.706616
0.714863
0.722622
0.731478
0.739064
0.745508
0.751309
0.756234
0.760202
0.763669
0.766132
0.767339
0.767742
0.767772
0.919071
0.922756
0.936744
0.96274
0.99895
1.04285
1.09023
1.13374
1.1614
1.16765
1.13129
1.04197
0.913861
0.794494
0.723274
0.688662
0.67323
0.66919
0.67323
0.683196
0.693094
0.703687
0.714989
0.723849
0.732361
0.739523
0.745671
0.750777
0.75459
0.757952
0.759744
0.760574
0.759494
0.920498
0.92412
0.937052
0.958769
0.988632
1.02334
1.05774
1.08612
1.10185
1.1013
1.07621
1.02139
0.933809
0.827438
0.73979
0.690339
0.665872
0.656703
0.658935
0.667229
0.677496
0.690445
0.70242
0.712065
0.72177
0.729865
0.736645
0.742096
0.747014
0.750508
0.752379
0.7525
0.75206
0.91762
0.919154
0.929193
0.94669
0.970134
0.996034
1.02067
1.03952
1.04918
1.04699
1.0304
0.997556
0.941655
0.85913
0.7684
0.703719
0.668482
0.654774
0.65167
0.656985
0.667222
0.680719
0.692098
0.703028
0.712954
0.721312
0.728533
0.734356
0.739222
0.742481
0.744109
0.7448
0.744859
0.911807
0.911658
0.91835
0.93133
0.94904
0.96876
0.987503
1.00176
1.00871
1.00809
0.99883
0.980316
0.946769
0.887478
0.803791
0.72661
0.679798
0.6572
0.649525
0.649925
0.660856
0.673259
0.68378
0.695261
0.704985
0.713577
0.720372
0.726558
0.730495
0.733268
0.735223
0.736174
0.735926
0.905604
0.90456
0.908805
0.918584
0.932185
0.947608
0.962361
0.974127
0.981158
0.982414
0.978882
0.970732
0.952218
0.911164
0.838541
0.755285
0.693893
0.66282
0.64968
0.647014
0.655424
0.665949
0.676842
0.687732
0.697486
0.705742
0.711402
0.717031
0.720847
0.723012
0.724435
0.724647
0.723345
0.900311
0.89917
0.902779
0.911119
0.922424
0.934996
0.947015
0.956781
0.963199
0.96702
0.968382
0.966486
0.958149
0.931467
0.86953
0.784493
0.710123
0.669209
0.650391
0.646132
0.650947
0.659001
0.669781
0.679991
0.689798
0.696132
0.702103
0.706414
0.708791
0.70982
0.709978
0.708607
0.705514
0.896795
0.896397
0.900346
0.908496
0.918582
0.92958
0.939213
0.947464
0.953081
0.9583
0.963333
0.966741
0.965871
0.949243
0.896785
0.812212
0.726761
0.675361
0.652069
0.644633
0.645851
0.652166
0.662003
0.672217
0.680118
0.686309
0.691669
0.694271
0.695228
0.69521
0.693617
0.690524
0.685638
0.895122
0.895535
0.900291
0.908722
0.918437
0.928714
0.936374
0.942767
0.948437
0.954414
0.962115
0.97051
0.974537
0.966102
0.92165
0.838846
0.743326
0.680659
0.654679
0.641708
0.640134
0.645075
0.65394
0.66287
0.670126
0.676155
0.679818
0.681276
0.681572
0.680337
0.677042
0.672236
0.665924
0.893447
0.895756
0.901971
0.911155
0.920684
0.930155
0.936522
0.942511
0.947737
0.953739
0.964885
0.977438
0.985192
0.982467
0.94616
0.864945
0.76061
0.686041
0.654854
0.638236
0.634495
0.637848
0.645433
0.653712
0.65975
0.664711
0.667414
0.668367
0.668194
0.665831
0.661982
0.656433
0.649491
0.891563
0.896142
0.903624
0.913892
0.92396
0.933442
0.938625
0.944868
0.950778
0.958268
0.971868
0.987858
0.998804
0.99933
0.971018
0.892234
0.778283
0.693279
0.652889
0.634901
0.629373
0.630544
0.637391
0.643114
0.648789
0.653243
0.65541
0.656032
0.655414
0.653083
0.649061
0.643541
0.636878
0.886641
0.894383
0.903728
0.915418
0.926629
0.937181
0.942082
0.949195
0.956439
0.965821
0.980534
0.999185
1.01424
1.01862
0.997454
0.922455
0.797582
0.703584
0.650815
0.631782
0.62416
0.623028
0.627707
0.633592
0.638743
0.642136
0.643699
0.644191
0.643541
0.64127
0.637466
0.632381
0.626353
0.876047
0.887716
0.901144
0.914608
0.927616
0.939779
0.946049
0.954979
0.964067
0.975463
0.991619
1.01281
1.03283
1.04092
1.0275
0.957749
0.825371
0.708452
0.653831
0.629018
0.618991
0.616631
0.620082
0.623255
0.627063
0.630476
0.631991
0.63242
0.631821
0.629808
0.626458
0.621962
0.616586
0.857797
0.87441
0.893638
0.909584
0.92557
0.940834
0.949733
0.96091
0.972061
0.985544
1.00347
1.02717
1.05257
1.06543
1.06069
0.999044
0.859045
0.727564
0.655983
0.627087
0.61389
0.610279
0.610727
0.614193
0.61664
0.618475
0.619884
0.620286
0.61978
0.61804
0.615322
0.611616
0.606781
0.831321
0.853619
0.879213
0.900505
0.920198
0.93883
0.951735
0.965164
0.978923
0.994174
1.01389
1.03966
1.06986
1.09007
1.09467
1.04703
0.906817
0.747813
0.665558
0.626488
0.609577
0.603691
0.602342
0.603483
0.60572
0.606566
0.607334
0.60739
0.607005
0.60568
0.603443
0.600028
0.595432
0.799648
0.827007
0.858428
0.887495
0.910909
0.933092
0.952137
0.966622
0.982827
1.00003
1.02108
1.04817
1.08123
1.11175
1.12446
1.09634
0.970202
0.788563
0.677749
0.628816
0.605257
0.596297
0.593315
0.592969
0.592536
0.592638
0.593528
0.593844
0.59388
0.592122
0.589253
0.586483
0.582648
0.76696
0.796661
0.833434
0.870274
0.897502
0.924353
0.948159
0.964688
0.983348
1.00197
1.0237
1.05104
1.08513
1.12304
1.14293
1.13748
1.04098
0.850357
0.704885
0.635412
0.604851
0.590466
0.58549
0.582425
0.582065
0.581445
0.580655
0.57889
0.577112
0.574782
0.572161
0.570452
0.568694
0.737056
0.767467
0.806531
0.848242
0.88116
0.911747
0.939622
0.958721
0.979541
0.999372
1.02114
1.04724
1.08
1.11832
1.14506
1.1538
1.09904
0.933395
0.753695
0.650697
0.605197
0.583107
0.572632
0.567513
0.564743
0.563156
0.561829
0.560458
0.558728
0.557227
0.556459
0.555999
0.555607
0.713269
0.742022
0.779932
0.823176
0.862677
0.894895
0.925494
0.949646
0.970822
0.991459
1.01243
1.03618
1.06505
1.09837
1.1268
1.13903
1.11597
1.00993
0.826875
0.683265
0.617144
0.578342
0.562913
0.553618
0.548093
0.545101
0.543622
0.543205
0.542139
0.541887
0.542576
0.543341
0.544265
0.696
0.721726
0.755422
0.798877
0.842163
0.874981
0.907457
0.936128
0.957338
0.977675
0.99773
1.01839
1.04187
1.06794
1.09153
1.10201
1.09326
1.02989
0.89877
0.743573
0.636377
0.584441
0.557501
0.54425
0.537604
0.533847
0.531785
0.53065
0.530355
0.530635
0.531309
0.53252
0.534147
0.683779
0.705991
0.735966
0.776691
0.819963
0.854155
0.887077
0.917172
0.940008
0.960053
0.978052
0.995463
1.01366
1.03226
1.04841
1.05541
1.05133
1.01581
0.930916
0.805107
0.683349
0.603003
0.563288
0.54193
0.531858
0.52615
0.523158
0.521656
0.521221
0.521658
0.522687
0.524186
0.525979
0.675628
0.694791
0.721044
0.756809
0.79726
0.834084
0.865239
0.894784
0.920036
0.93875
0.955344
0.969986
0.983684
0.996592
1.00591
1.00951
1.00531
0.983354
0.932165
0.844852
0.735121
0.640001
0.578577
0.546333
0.530654
0.522451
0.518234
0.51611
0.515436
0.515533
0.516562
0.518019
0.519687
0.670651
0.687532
0.710045
0.739603
0.777413
0.814705
0.843358
0.87201
0.897328
0.915957
0.931231
0.943402
0.953688
0.962221
0.967715
0.969191
0.964901
0.950794
0.916508
0.857123
0.772383
0.679584
0.60594
0.559327
0.534668
0.522525
0.516331
0.513275
0.511959
0.511704
0.512461
0.513767
0.515155
0.668346
0.682684
0.701591
0.726438
0.760716
0.795919
0.823539
0.850373
0.874199
0.893479
0.906914
0.917263
0.925101
0.930688
0.933463
0.933719
0.930036
0.919871
0.898486
0.85777
0.794818
0.714376
0.63607
0.578707
0.544042
0.52598
0.516937
0.512399
0.510281
0.509563
0.50979
0.510842
0.511901
0.667598
0.679527
0.696179
0.718123
0.747045
0.778746
0.807206
0.830507
0.852578
0.871078
0.884147
0.892809
0.898911
0.90242
0.90368
0.903094
0.899842
0.892553
0.878716
0.851939
0.806844
0.741638
0.66738
0.602682
0.55857
0.5329
0.519832
0.513217
0.510031
0.50873
0.508472
0.509076
0.509806
0.667958
0.678017
0.692882
0.712035
0.73598
0.764833
0.792499
0.813179
0.833354
0.850385
0.863095
0.871221
0.87572
0.878022
0.878243
0.877057
0.874113
0.868808
0.859149
0.842254
0.8106
0.761142
0.696138
0.629803
0.577404
0.543974
0.525387
0.515899
0.511219
0.509087
0.508387
0.50854
0.509209
0.669486
0.677725
0.690678
0.70734
0.727591
0.753319
0.779031
0.799393
0.816708
0.831945
0.843888
0.851565
0.855353
0.856691
0.856496
0.85498
0.852298
0.848148
0.841487
0.829757
0.809158
0.772643
0.719947
0.657586
0.600139
0.558855
0.534063
0.520598
0.513894
0.510685
0.509476
0.509322
0.509882
0.67159
0.678288
0.689396
0.704506
0.722644
0.743971
0.767668
0.788132
0.802701
0.815932
0.826483
0.833738
0.837209
0.838058
0.837522
0.836139
0.83365
0.830214
0.825329
0.817402
0.803493
0.777839
0.73729
0.68316
0.625334
0.57744
0.546119
0.527814
0.518406
0.513772
0.511809
0.511305
0.511768
0.673851
0.679472
0.689033
0.70256
0.718619
0.736872
0.758235
0.777782
0.791383
0.802209
0.811027
0.817359
0.820634
0.821275
0.820486
0.819017
0.816881
0.814199
0.810648
0.805226
0.795988
0.778453
0.748107
0.703885
0.650414
0.599341
0.561158
0.537837
0.52484
0.518464
0.515743
0.514786
0.51506
0.676246
0.681056
0.689478
0.701326
0.715831
0.731692
0.749711
0.768138
0.782053
0.790444
0.797251
0.80212
0.804987
0.805534
0.804698
0.803498
0.801743
0.799668
0.797132
0.79328
0.788201
0.775933
0.753712
0.718536
0.67176
0.621362
0.5789
0.550053
0.533569
0.525094
0.521208
0.51964
0.520132
0.678708
0.682834
0.690322
0.700903
0.714071
0.728375
0.743535
0.759234
0.771885
0.780414
0.785069
0.788071
0.789888
0.790011
0.789612
0.788635
0.787328
0.786015
0.784653
0.782866
0.779868
0.771974
0.755945
0.728101
0.687891
0.641156
0.597282
0.565024
0.54499
0.533802
0.528167
0.526104
0.526553
0.681141
0.684885
0.691613
0.701209
0.712805
0.725621
0.738908
0.75227
0.76302
0.770813
0.774263
0.775518
0.775663
0.775089
0.774301
0.773396
0.772513
0.771921
0.771744
0.77158
0.770749
0.767047
0.756777
0.735725
0.700779
0.656187
0.612419
0.577901
0.556172
0.543949
0.538052
0.535381
0.534508
0.683628
0.687092
0.693276
0.701888
0.71232
0.723654
0.735335
0.746644
0.754926
0.761347
0.764095
0.764106
0.762816
0.760809
0.758953
0.757476
0.756498
0.756195
0.756616
0.75776
0.758825
0.757984
0.753223
0.739728
0.712391
0.672624
0.629077
0.59319
0.568932
0.554226
0.547187
0.544962
0.544804
0.686154
0.689367
0.695002
0.702795
0.712128
0.721938
0.732012
0.741183
0.747702
0.752328
0.754274
0.753521
0.751047
0.747561
0.744277
0.74162
0.73981
0.739015
0.73931
0.740617
0.74252
0.743926
0.743073
0.735079
0.714406
0.680988
0.641211
0.605898
0.580585
0.565061
0.556772
0.553072
0.552689
0.688625
0.691733
0.696894
0.703792
0.711723
0.720056
0.728561
0.735913
0.740998
0.743709
0.744516
0.743153
0.73968
0.735178
0.730632
0.72661
0.723603
0.721799
0.721367
0.722264
0.724146
0.726883
0.728416
0.723788
0.708485
0.67994
0.644125
0.610592
0.586393
0.57182
0.563156
0.560484
0.560568
0.690905
0.693969
0.69861
0.704398
0.711014
0.718039
0.724729
0.730257
0.733817
0.735053
0.734545
0.732714
0.728545
0.723185
0.717767
0.712685
0.708521
0.705584
0.704073
0.704087
0.705283
0.706454
0.709719
0.706512
0.692392
0.666285
0.633423
0.603537
0.583614
0.57159
0.565805
0.563462
0.564496
0.692749
0.695565
0.699438
0.704344
0.709588
0.715283
0.720156
0.723886
0.72596
0.725952
0.724532
0.721611
0.716948
0.711364
0.705351
0.699659
0.694563
0.690569
0.687849
0.686437
0.686
0.687482
0.683381
0.675534
0.662352
0.641191
0.615279
0.591266
0.574221
0.563693
0.560251
0.560569
0.562611
0.693646
0.696142
0.699465
0.703367
0.707557
0.711446
0.714612
0.716562
0.717232
0.71637
0.713968
0.709829
0.705033
0.699291
0.693125
0.687157
0.681547
0.676606
0.672394
0.668614
0.664277
0.658154
0.649179
0.640691
0.629174
0.613325
0.594347
0.575406
0.56047
0.551599
0.548056
0.549736
0.55358
0.693868
0.696005
0.698551
0.701435
0.7042
0.706385
0.707808
0.708166
0.707504
0.705616
0.702241
0.69776
0.692473
0.686904
0.68085
0.67508
0.669484
0.663906
0.658343
0.651845
0.643705
0.633678
0.623992
0.614806
0.604409
0.595917
0.581322
0.565537
0.551186
0.540343
0.53477
0.534339
0.53872
0.693356
0.694837
0.696552
0.698275
0.699534
0.700033
0.699799
0.698717
0.696728
0.693738
0.689747
0.6848
0.679424
0.674047
0.66873
0.663219
0.658035
0.652598
0.646534
0.638866
0.629082
0.617588
0.607236
0.601978
0.593169
0.589031
0.576866
0.562213
0.547823
0.535371
0.526407
0.52159
0.52328
0.691696
0.692557
0.693333
0.693727
0.69344
0.692355
0.690545
0.688039
0.684793
0.680921
0.676469
0.671408
0.666189
0.660892
0.656513
0.652069
0.647824
0.643184
0.637514
0.630949
0.62194
0.612979
0.602885
0.599333
0.592243
0.58952
0.580715
0.566619
0.551672
0.537118
0.524445
0.515777
0.513462
0.688693
0.689001
0.688729
0.687797
0.685931
0.683223
0.67993
0.676101
0.671971
0.667431
0.662619
0.657619
0.652632
0.648535
0.644763
0.642108
0.639555
0.637068
0.633877
0.630565
0.6234
0.616969
0.609726
0.606445
0.60048
0.598324
0.590836
0.576724
0.561243
0.545191
0.529036
0.517345
0.510502
0.684303
0.684062
0.682638
0.680276
0.676837
0.672696
0.66806
0.663194
0.658366
0.653487
0.648623
0.644071
0.639918
0.636784
0.634921
0.634145
0.634584
0.635608
0.63571
0.634937
0.632198
0.629614
0.625741
0.622388
0.616406
0.613564
0.605385
0.590447
0.574846
0.557395
0.538166
0.525286
0.514144
0.678442
0.677284
0.674987
0.671165
0.666361
0.660914
0.655168
0.649587
0.644286
0.639542
0.635102
0.63135
0.628541
0.627147
0.627704
0.629489
0.633676
0.638681
0.642944
0.647262
0.650669
0.651735
0.650259
0.646391
0.638802
0.634546
0.623821
0.606961
0.591098
0.571225
0.551282
0.536952
0.522403
0.670556
0.668995
0.665665
0.660758
0.654758
0.648118
0.641706
0.635835
0.630659
0.626396
0.622954
0.620543
0.619826
0.620816
0.623859
0.630108
0.637749
0.647318
0.658807
0.67046
0.678509
0.682002
0.681263
0.6771
0.66656
0.659911
0.644824
0.626366
0.608795
0.585
0.568305
0.550753
0.532684
0.661581
0.65932
0.655232
0.649375
0.642231
0.635135
0.628482
0.622729
0.618207
0.615009
0.613166
0.612974
0.614702
0.619001
0.625821
0.635417
0.648882
0.66564
0.685455
0.703064
0.714287
0.718687
0.717542
0.712237
0.698871
0.686239
0.667031
0.649621
0.627424
0.60309
0.584908
0.564522
0.542894
0.651523
0.648588
0.643836
0.637298
0.630057
0.62264
0.616137
0.611145
0.607886
0.606432
0.60687
0.609313
0.614384
0.622206
0.633341
0.649135
0.671033
0.696431
0.722408
0.743308
0.755506
0.75881
0.756122
0.747339
0.734291
0.715028
0.695168
0.674859
0.644839
0.624913
0.601521
0.577222
0.552782
0.640977
0.637195
0.631932
0.625536
0.618315
0.611586
0.606107
0.602404
0.600846
0.60157
0.604565
0.610317
0.61873
0.631386
0.649606
0.674126
0.703577
0.736495
0.76506
0.786511
0.798232
0.799583
0.795454
0.783269
0.76496
0.744428
0.72503
0.693962
0.670416
0.644091
0.616723
0.588538
0.561537
0.630569
0.625871
0.620568
0.614302
0.608278
0.60304
0.599298
0.597429
0.597711
0.600617
0.60651
0.615533
0.628876
0.647918
0.673293
0.704461
0.738767
0.773162
0.802736
0.824107
0.83441
0.834506
0.828251
0.813941
0.793954
0.775496
0.745052
0.720116
0.691667
0.661077
0.630399
0.599017
0.569195
0.620843
0.615638
0.610174
0.604952
0.600553
0.597605
0.596116
0.596054
0.598272
0.603357
0.61207
0.624955
0.642754
0.666186
0.695412
0.729382
0.764468
0.797451
0.827823
0.849078
0.858906
0.858547
0.852515
0.838201
0.821946
0.793829
0.769678
0.741397
0.710088
0.676821
0.641998
0.608348
0.575617
0.612522
0.606837
0.602064
0.598782
0.596527
0.595679
0.595781
0.597603
0.601697
0.608697
0.619656
0.634869
0.654774
0.679731
0.709348
0.742545
0.776505
0.808648
0.838461
0.859471
0.870924
0.872082
0.867115
0.856704
0.834635
0.812376
0.788321
0.759243
0.726082
0.690774
0.651375
0.616267
0.580999
0.605199
0.600116
0.597402
0.596358
0.595724
0.596663
0.598669
0.60211
0.607352
0.615196
0.626714
0.64228
0.662321
0.687154
0.716309
0.747768
0.778629
0.809849
0.838216
0.860606
0.872729
0.876284
0.874442
0.860896
0.845203
0.823958
0.802329
0.773793
0.739952
0.702026
0.659026
0.622694
0.585788
0.59948
0.596487
0.595848
0.596407
0.597921
0.60068
0.603967
0.608286
0.614395
0.622951
0.634482
0.649659
0.668889
0.692344
0.719469
0.749057
0.778319
0.808722
0.836317
0.857277
0.871224
0.877853
0.872231
0.865129
0.849152
0.83197
0.810277
0.783404
0.750244
0.711483
0.66622
0.627481
0.589869
0.595878
0.595213
0.596454
0.599097
0.602418
0.606321
0.610885
0.616243
0.62284
0.631582
0.642858
0.65741
0.675589
0.697616
0.723545
0.753653
0.783298
0.810192
0.835404
0.856615
0.870221
0.874841
0.873442
0.864641
0.851511
0.834183
0.814016
0.789258
0.757225
0.718306
0.674475
0.629398
0.593522
0.594054
0.595636
0.599445
0.603844
0.608606
0.614113
0.619696
0.625626
0.632736
0.641537
0.652986
0.667614
0.686063
0.708739
0.734716
0.761501
0.789926
0.817051
0.841867
0.857611
0.872438
0.877331
0.873555
0.865117
0.851421
0.834571
0.815218
0.792057
0.761477
0.723262
0.680191
0.632254
0.595298
0.593581
0.598127
0.604895
0.609363
0.616258
0.623304
0.629721
0.636347
0.644317
0.653803
0.665498
0.680342
0.698814
0.721378
0.7483
0.776825
0.805596
0.831175
0.84984
0.86844
0.879525
0.881395
0.877004
0.866213
0.851505
0.83356
0.814037
0.792322
0.763281
0.727042
0.683138
0.638303
0.596165
0.594446
0.601784
0.610958
0.616815
0.625438
0.633508
0.641113
0.649079
0.658003
0.668846
0.681612
0.697325
0.716976
0.740777
0.768055
0.795486
0.820513
0.844661
0.863309
0.878117
0.887751
0.887633
0.881092
0.867797
0.850904
0.831138
0.810856
0.790299
0.762875
0.729512
0.687844
0.644384
0.598526
0.596403
0.606337
0.617733
0.625198
0.635331
0.644388
0.653297
0.6625
0.67285
0.684854
0.698594
0.715232
0.735101
0.757821
0.783302
0.810711
0.836459
0.858077
0.875357
0.886499
0.89359
0.892761
0.884233
0.866982
0.847449
0.827208
0.806416
0.787457
0.761275
0.731121
0.693177
0.648157
0.605252
0.59904
0.611444
0.624871
0.633761
0.645267
0.655457
0.66543
0.676264
0.687103
0.699516
0.713375
0.72955
0.748829
0.771354
0.797046
0.823189
0.847924
0.867323
0.882072
0.892135
0.895875
0.890053
0.87909
0.862723
0.84179
0.820092
0.799096
0.780917
0.758027
0.731789
0.698153
0.655359
0.614963
0.602013
0.61662
0.631992
0.642016
0.65483
0.665959
0.676067
0.689756
0.700547
0.712283
0.725903
0.741423
0.758983
0.780084
0.804592
0.830745
0.853328
0.87144
0.884169
0.888664
0.891554
0.888199
0.877608
0.859297
0.835823
0.811843
0.790733
0.771121
0.75153
0.732148
0.702853
0.663627
0.622949
0.60517
0.621511
0.638736
0.649452
0.663745
0.675853
0.686745
0.700445
0.710744
0.721905
0.734293
0.747824
0.764681
0.784536
0.808863
0.831973
0.852984
0.869557
0.880071
0.886949
0.888816
0.884441
0.872865
0.853827
0.829573
0.804802
0.783766
0.764957
0.746493
0.725064
0.705977
0.670704
0.632227
0.60844
0.625578
0.644652
0.656052
0.671637
0.684529
0.695809
0.708724
0.718482
0.729178
0.738229
0.751581
0.767065
0.78589
0.808437
0.829643
0.849384
0.866007
0.876389
0.882054
0.883268
0.879174
0.867938
0.850041
0.824732
0.79974
0.779089
0.760769
0.743038
0.723855
0.707336
0.678016
0.644592
0.611733
0.628678
0.648956
0.662376
0.678331
0.691764
0.70288
0.715095
0.72396
0.733401
0.741077
0.752866
0.766599
0.785097
0.804282
0.824478
0.84299
0.858164
0.869103
0.874018
0.874998
0.870128
0.859521
0.843098
0.823093
0.802078
0.778335
0.758343
0.741797
0.72735
0.710827
0.687767
0.659997
0.61332
0.630887
0.650973
0.669337
0.683727
0.697529
0.708486
0.720009
0.727905
0.735887
0.743055
0.752731
0.764913
0.78147
0.798333
0.816555
0.833327
0.847298
0.856759
0.861163
0.862411
0.857164
0.847522
0.833152
0.81669
0.800542
0.786364
0.77218
0.757938
0.742141
0.723897
0.70199
0.677318
0.615026
0.633139
0.653211
0.673634
0.687626
0.702077
0.713168
0.723851
0.731069
0.737881
0.744189
0.752106
0.762644
0.776099
0.791575
0.807812
0.823084
0.835699
0.844016
0.847665
0.844834
0.84052
0.833343
0.822582
0.812048
0.801452
0.791001
0.7792
0.766929
0.754579
0.737979
0.716664
0.694384
0.61673
0.635171
0.654451
0.675721
0.691366
0.705965
0.717728
0.726846
0.734202
0.740019
0.745212
0.751494
0.759958
0.771013
0.784535
0.798407
0.811775
0.822656
0.830097
0.833903
0.834973
0.831702
0.822826
0.815423
0.807857
0.798462
0.788914
0.783097
0.776812
0.766014
0.751324
0.73012
0.710061
0.618795
0.635835
0.655195
0.675913
0.695246
0.708898
0.721349
0.730284
0.737856
0.742765
0.746939
0.751781
0.758303
0.76738
0.778724
0.790569
0.802332
0.812516
0.819622
0.823618
0.824798
0.822838
0.818418
0.813755
0.806092
0.799983
0.79529
0.791143
0.783116
0.769172
0.754046
0.738241
0.719162
0.620662
0.636695
0.656242
0.676319
0.697327
0.7113
0.724825
0.734612
0.741561
0.746567
0.749983
0.753584
0.758593
0.765934
0.775667
0.786303
0.796962
0.807209
0.814403
0.819201
0.821212
0.821517
0.818287
0.81256
0.806991
0.803056
0.800338
0.796025
0.788838
0.778226
0.764021
0.74557
0.720429
0.622919
0.638378
0.656502
0.676395
0.697036
0.715395
0.728038
0.738782
0.746363
0.751615
0.754803
0.757648
0.761219
0.767099
0.775175
0.785137
0.795195
0.805445
0.812497
0.817905
0.820939
0.816943
0.815133
0.813749
0.81176
0.809129
0.805643
0.801304
0.795828
0.787497
0.777399
0.760988
0.730564
0.790055
0.76773
0.740538
0.71137
0.68307
0.653432
0.627068
0.609025
0.795678
0.772493
0.744649
0.715335
0.686652
0.658965
0.634135
0.61509
0.804057
0.779413
0.751423
0.721916
0.693321
0.667335
0.644684
0.627342
0.814915
0.789024
0.760666
0.731485
0.703821
0.679838
0.660164
0.647055
0.828048
0.801106
0.772786
0.74461
0.718573
0.696737
0.680752
0.67064
0.842295
0.815432
0.787621
0.760871
0.737208
0.718728
0.7054
0.6989
0.857921
0.831111
0.804089
0.779028
0.757905
0.742286
0.732286
0.727045
0.872548
0.845791
0.819746
0.796456
0.777598
0.764018
0.755964
0.751527
0.883751
0.857155
0.83201
0.810223
0.793069
0.780858
0.773476
0.769452
0.889401
0.862899
0.838841
0.818524
0.802697
0.791406
0.784048
0.779552
0.888793
0.863028
0.840632
0.822068
0.807536
0.79676
0.7894
0.784395
0.883267
0.859646
0.839424
0.822725
0.809593
0.799705
0.792655
0.787851
0.875971
0.855028
0.836869
0.822359
0.810756
0.801892
0.795397
0.790847
0.867893
0.849554
0.83407
0.821509
0.811516
0.803715
0.797875
0.793628
0.859847
0.844384
0.831421
0.820616
0.811932
0.804984