/*--------------------------------*- C++ -*----------------------------------*\
  =========                 |
  \\      /  F ield         | OpenFOAM: The Open Source CFD Toolbox
   \\    /   O peration     | Website:  https://openfoam.org
    \\  /    A nd           | Version:  10
     \\/     M anipulation  |
\*---------------------------------------------------------------------------*/
FoamFile
{
    format      ascii;
    class       volScalarField;
    location    "0.55123";
    object      T;
}
// * * * * * * * * * * * * * * * * * * * * * * * * * * * * * * * * * * * * * //

dimensions      [0 0 0 1 0 0 0];

internalField   nonuniform List<scalar> 
16320
(
0.00318281
0.00311177
0.00306468
0.00306317
0.00313682
0.0033694
0.00359411
0.00367377
0.0036957
0.00370525
0.00372302
0.00373859
0.0037324
0.00368489
0.00362184
0.00358772
0.0035683
0.00356634
0.00358166
0.00362409
0.0037394
0.00401849
0.00421203
0.00424424
0.00419408
0.00399379
0.0037644
0.00360115
0.00337361
0.00330813
0.00337467
0.00356955
0.00357966
0.0032652
0.00316179
0.00306876
0.00304524
0.00313521
0.00348323
0.00375368
0.00382862
0.00382004
0.00378521
0.00375177
0.00369539
0.00360449
0.00353344
0.00349787
0.00348917
0.00349394
0.00350497
0.00352932
0.00356962
0.00366928
0.00388863
0.00400496
0.00401351
0.00396333
0.00380372
0.00367215
0.00349362
0.00332857
0.00331051
0.00341097
0.00359748
0.00359542
0.00362722
0.00346854
0.00325567
0.00312458
0.00318007
0.00350727
0.00383645
0.00394482
0.00393413
0.00388373
0.00379039
0.00365895
0.00348754
0.00340222
0.0033762
0.00339368
0.00343119
0.00347113
0.00350298
0.00354136
0.00362647
0.00377551
0.00383707
0.00383595
0.00379158
0.00367975
0.00355695
0.00339073
0.00331421
0.00332883
0.00349024
0.00363708
0.00361533
0.00404717
0.00400238
0.00378957
0.00345304
0.0032918
0.00341965
0.00378967
0.00398176
0.0040058
0.00397504
0.00387735
0.00367337
0.00347037
0.00335118
0.00330069
0.0033018
0.0033385
0.00339907
0.00345141
0.00349955
0.00357572
0.00366725
0.00369424
0.0036858
0.00363715
0.00353743
0.00342416
0.00334086
0.00332425
0.00338847
0.00360147
0.00367243
0.00361663
0.00415907
0.00420026
0.00417776
0.00405076
0.00369883
0.00347188
0.00358669
0.00390174
0.00402228
0.00402316
0.00397221
0.00375836
0.00349614
0.00335654
0.00328814
0.00326275
0.00327128
0.00330953
0.00335376
0.00340659
0.00346963
0.00352113
0.00353182
0.00352188
0.00347683
0.00341098
0.00336436
0.00334432
0.00336998
0.00353644
0.00369368
0.00369493
0.00357651
0.00416805
0.00423045
0.00424104
0.00422924
0.00416673
0.00390024
0.00359743
0.00363158
0.00389966
0.00401437
0.00400765
0.00391533
0.00362632
0.00340673
0.0033049
0.00326446
0.0032561
0.00326618
0.00328562
0.00331785
0.00336055
0.00339013
0.00340053
0.00339997
0.00338888
0.00337609
0.00336894
0.00338804
0.00351665
0.00370309
0.00373875
0.00368397
0.00343457
0.00415358
0.00421907
0.0042424
0.00424209
0.00423295
0.00419824
0.00401625
0.00373959
0.0037308
0.00386369
0.0039837
0.00396036
0.00383853
0.00358756
0.00339279
0.00329866
0.0032679
0.00326731
0.00327442
0.00329102
0.00331863
0.00334032
0.00335895
0.00337451
0.00338409
0.00339184
0.00342803
0.00355399
0.00372553
0.00377307
0.00373787
0.00354986
0.003268
0.00411427
0.00415801
0.00417809
0.00418812
0.00419933
0.00421093
0.00420535
0.00408884
0.00381188
0.00378174
0.00383805
0.00393145
0.00389412
0.00378369
0.00361313
0.00344566
0.00334116
0.00330288
0.00329372
0.00330255
0.00332546
0.00334758
0.00337038
0.00339566
0.00342935
0.00349912
0.00363667
0.00376747
0.00379919
0.00376363
0.00361222
0.00339846
0.00321803
0.00400152
0.00401386
0.00401174
0.00401446
0.00402786
0.00406828
0.00416023
0.0041893
0.00412468
0.0038782
0.00380771
0.0038259
0.00386743
0.00383103
0.00375497
0.00365019
0.00354039
0.00345186
0.003401
0.00338407
0.00339716
0.00342341
0.00346206
0.00352339
0.00361632
0.00372608
0.00380138
0.0038141
0.00377427
0.00364794
0.00351594
0.00338771
0.00323243
0.00375481
0.00373994
0.00371739
0.00371789
0.00373282
0.00377103
0.00386002
0.00404776
0.00411634
0.00408572
0.0039026
0.00382001
0.00380971
0.00381141
0.00378769
0.00374154
0.00368586
0.00363308
0.00359742
0.00357878
0.00358871
0.00361963
0.00366932
0.00373094
0.00379237
0.00383385
0.00383915
0.00381601
0.00373349
0.00363454
0.00358879
0.0034948
0.00327728
0.00343002
0.00341002
0.0033891
0.0033938
0.00341379
0.00346654
0.0035365
0.00368993
0.00396885
0.00406304
0.00404453
0.00391053
0.00382074
0.00379821
0.00378698
0.00376726
0.00374636
0.00372537
0.00371532
0.00371716
0.0037345
0.00376459
0.00379899
0.00383273
0.00386143
0.003879
0.00387787
0.00386605
0.00386949
0.00389019
0.00379284
0.00343238
0.00317314
0.00330736
0.00328463
0.00325114
0.00323547
0.00324034
0.00325527
0.00330509
0.00338846
0.00359709
0.00392681
0.00402829
0.00401645
0.00391677
0.00382171
0.00379566
0.00378474
0.00377662
0.00377442
0.00377821
0.00379126
0.00381472
0.00384134
0.00387089
0.00390704
0.00394831
0.00399803
0.00408101
0.00419074
0.00420821
0.00401254
0.00349627
0.00322162
0.00313506
0.00328569
0.00324276
0.00319637
0.00316354
0.00315914
0.00316634
0.00319011
0.00323761
0.00333746
0.00359382
0.00392526
0.00401225
0.00400483
0.00392969
0.00384587
0.00382329
0.00381876
0.0038226
0.00383814
0.00386421
0.0039002
0.00394561
0.00401081
0.00409063
0.00419577
0.00432559
0.00442603
0.00437699
0.00410857
0.00348408
0.00325103
0.0032532
0.00347743
0.00328091
0.00322164
0.00316243
0.00311099
0.00308785
0.00309059
0.00311256
0.00317143
0.0032311
0.00335922
0.00367842
0.0039541
0.00402456
0.00402558
0.00398235
0.00393238
0.00392358
0.00393499
0.00397056
0.00402526
0.00409099
0.00417838
0.00426295
0.00435182
0.00447908
0.0045252
0.00442106
0.0040547
0.00346121
0.00334252
0.00349898
0.00374096
0.00378988
0.00326559
0.00320764
0.00314745
0.00309404
0.00305747
0.00304411
0.00304814
0.00308935
0.00318139
0.00326091
0.00343346
0.00380555
0.00400356
0.00407438
0.00409076
0.00408135
0.00408723
0.00411365
0.00416377
0.00423885
0.00430742
0.00438185
0.00446219
0.00455582
0.00456263
0.00442988
0.00390964
0.00350438
0.00347753
0.00373921
0.00387102
0.00389921
0.00391991
0.0032539
0.00321027
0.0031611
0.00310959
0.00306536
0.00304009
0.00303585
0.00305338
0.00312924
0.00323322
0.0033432
0.0035923
0.00394407
0.00408001
0.0041545
0.00419222
0.00422443
0.00427255
0.00433441
0.00437482
0.00445536
0.00454348
0.00458819
0.0045627
0.00438502
0.00380834
0.00358679
0.00360074
0.00387683
0.00397772
0.00401219
0.00409716
0.00427875
0.00326061
0.00328241
0.00327586
0.00323661
0.0031687
0.003113
0.00308334
0.00308808
0.00314727
0.00324702
0.00334895
0.00352585
0.00381271
0.00406601
0.00417894
0.00425798
0.00432079
0.00436733
0.00441741
0.00451664
0.00458926
0.00460927
0.00455899
0.00431712
0.00379469
0.00365049
0.0037082
0.00398061
0.00408629
0.00415009
0.00436116
0.00461989
0.00468848
0.00334496
0.00349357
0.00353638
0.00349997
0.00341087
0.00333348
0.00327169
0.00322632
0.00323136
0.00329527
0.00337899
0.00353879
0.00378172
0.00403346
0.00419505
0.00429604
0.0043696
0.00444739
0.00455853
0.00462152
0.00462339
0.00454435
0.00422831
0.00379036
0.00370654
0.00379928
0.00406947
0.00418604
0.00434268
0.00472442
0.00489315
0.00491265
0.00487985
0.00345591
0.00367573
0.00383002
0.0037904
0.0037046
0.0036553
0.00360731
0.00352167
0.00342635
0.00342163
0.00345894
0.00357991
0.00380007
0.00404441
0.00422068
0.0043432
0.00445634
0.00458653
0.00463019
0.00461743
0.0045106
0.00410359
0.00379862
0.00375446
0.00387777
0.00418543
0.00433218
0.00464036
0.00511198
0.0052564
0.00527462
0.00524204
0.00513705
0.00349762
0.0037259
0.00396128
0.00405658
0.00404395
0.00407555
0.00402017
0.00388628
0.00367528
0.00357017
0.00356571
0.00366787
0.00387069
0.00409933
0.00428628
0.00446211
0.00459496
0.0046243
0.00460296
0.00444334
0.00400119
0.00381613
0.00380123
0.00395788
0.004297
0.00446165
0.00484948
0.00527986
0.00540946
0.00542955
0.00541047
0.00533447
0.00518792
0.00350701
0.00373552
0.00398579
0.00417843
0.00432417
0.00440708
0.00436538
0.00417476
0.0038955
0.00373438
0.00370893
0.0038139
0.00401146
0.00424126
0.00446651
0.00457613
0.00459497
0.00456188
0.00433934
0.00394215
0.00382383
0.00384007
0.00403512
0.00435846
0.00451335
0.00488744
0.00521443
0.0053231
0.00534988
0.00533969
0.00527204
0.00513364
0.00497069
0.00350389
0.00368062
0.00396877
0.00420732
0.00444965
0.00459474
0.00460298
0.00444055
0.00422427
0.00407329
0.00402597
0.00415345
0.00434427
0.00449011
0.0045455
0.00455266
0.00446139
0.00412014
0.00387079
0.00381295
0.00388066
0.00408543
0.00437886
0.00452656
0.00483693
0.00497034
0.00500044
0.00497767
0.00490769
0.00477088
0.0045867
0.00443429
0.00433243
0.00349195
0.00356481
0.00380089
0.00416296
0.00446573
0.00467574
0.00476696
0.00472376
0.0046112
0.00451435
0.00448325
0.00450545
0.0045211
0.00450648
0.00447076
0.00429587
0.00395123
0.00380973
0.00379536
0.00390641
0.00413852
0.00437883
0.00451895
0.004665
0.00469223
0.00464814
0.0045203
0.0043717
0.00421408
0.00410108
0.00405408
0.00403482
0.00402621
0.00352081
0.00353496
0.00361973
0.00387425
0.00431778
0.00466465
0.0048493
0.00492303
0.00492041
0.00484062
0.00470177
0.00457292
0.00447652
0.00432421
0.00398427
0.00380067
0.00374622
0.00379973
0.00391998
0.00417761
0.0043126
0.0044487
0.00450223
0.00449911
0.00438561
0.00422394
0.00405577
0.00397566
0.00395239
0.00394931
0.00395479
0.0039707
0.00397525
0.00363052
0.00355945
0.00357745
0.00366384
0.00387444
0.00432358
0.00472895
0.00490906
0.00495526
0.00487791
0.00465752
0.00439271
0.00404217
0.00378692
0.00370227
0.00369264
0.00379638
0.00394405
0.00413853
0.00423359
0.00435171
0.00438053
0.00435355
0.00423997
0.00408843
0.00396119
0.00391171
0.00390406
0.00390695
0.0039404
0.00396945
0.00397778
0.00397901
0.00389607
0.00371637
0.00363183
0.00363209
0.00372108
0.00387588
0.00413858
0.00445937
0.00458726
0.00454051
0.0042324
0.00389406
0.00372611
0.0036748
0.00370266
0.00378032
0.00396054
0.00404057
0.00414861
0.00423912
0.00426954
0.00424516
0.00416707
0.00404603
0.0039335
0.00389455
0.00388947
0.00390733
0.00396288
0.00399076
0.003996
0.00399462
0.00397998
0.0040408
0.00398873
0.00388787
0.00378576
0.00374298
0.00380564
0.0039089
0.00405366
0.00416045
0.00419046
0.00405287
0.00385833
0.00375349
0.00372962
0.00381964
0.00390578
0.00395892
0.00403585
0.00411605
0.00415266
0.00414968
0.00410552
0.00401629
0.00391677
0.00388148
0.0038784
0.00390461
0.00396018
0.00398175
0.00398402
0.00398261
0.00397007
0.00396524
0.00407029
0.00406131
0.00406717
0.00407028
0.00404609
0.00400916
0.00400499
0.0040629
0.00412797
0.00417568
0.0041292
0.00400121
0.00392077
0.00388324
0.00387805
0.00388936
0.0039219
0.00397677
0.00403636
0.00405664
0.00404591
0.00399011
0.00389922
0.00385207
0.00384638
0.00386121
0.00391342
0.00394596
0.00395461
0.00395896
0.00396878
0.00398858
0.00403267
0.00406287
0.0040615
0.00409057
0.00413514
0.00418039
0.00423339
0.00427791
0.00431578
0.00434746
0.00437891
0.00434464
0.00423212
0.00404971
0.00392785
0.00385933
0.00384018
0.00385924
0.00392083
0.00397168
0.00398316
0.0039537
0.00387901
0.0038087
0.00379379
0.00379394
0.00381992
0.00386375
0.00389331
0.00391723
0.00396633
0.00402656
0.004104
0.0042334
0.0039892
0.00393684
0.00398177
0.00407784
0.00418259
0.00426763
0.00433477
0.00438043
0.00441054
0.00441085
0.0043756
0.00425897
0.00410753
0.00393063
0.00384615
0.00381373
0.00383552
0.00390112
0.00392978
0.00391976
0.00386306
0.00377106
0.00372187
0.00371535
0.00372237
0.00375515
0.00381058
0.00388149
0.0039569
0.00404871
0.00416696
0.00430243
0.00439511
0.00397971
0.00384063
0.00377322
0.00381098
0.00394058
0.00409394
0.00420837
0.0042881
0.00431728
0.00433108
0.00428647
0.00422048
0.00409479
0.00395998
0.00386267
0.00382663
0.00386352
0.00390133
0.00390084
0.00385595
0.00376156
0.0036666
0.00363624
0.0036359
0.00366586
0.00373239
0.00382566
0.00393208
0.00405434
0.00418601
0.00430444
0.00438014
0.0044065
0.004024
0.00383518
0.00370022
0.00365696
0.00368777
0.00378679
0.00394178
0.00409305
0.00417847
0.00420342
0.00419749
0.00414358
0.00407822
0.0039842
0.00391516
0.0038836
0.00390808
0.00391146
0.00386192
0.0037744
0.00365107
0.00358284
0.00357305
0.00359056
0.00365365
0.00375369
0.00387803
0.00401371
0.00413946
0.00422829
0.00428261
0.00429803
0.00427765
0.00408051
0.00387843
0.00369203
0.00362233
0.00361299
0.00363716
0.00368018
0.00377419
0.00393796
0.00405312
0.00408843
0.00409066
0.00406506
0.00403163
0.0039951
0.00396423
0.00395779
0.00390808
0.00380985
0.0036757
0.00356558
0.00352972
0.00353048
0.00357544
0.00366831
0.00379461
0.00393525
0.00406124
0.00411817
0.00414711
0.0041383
0.00405694
0.00388165
0.00409897
0.00395982
0.00373267
0.00362857
0.00361201
0.00362036
0.00362599
0.00363106
0.00365626
0.00377888
0.00394024
0.00401386
0.00404535
0.00405903
0.00406553
0.00403261
0.00397744
0.0038809
0.00373877
0.00358777
0.00350554
0.00349073
0.00350934
0.00358228
0.0037009
0.00384594
0.00395425
0.00400461
0.00401014
0.00395438
0.0037964
0.00354859
0.00324674
0.00408648
0.00401209
0.00382596
0.00370164
0.00368675
0.00370289
0.00369242
0.00364134
0.00358996
0.00356605
0.00363634
0.00381429
0.00395126
0.00403408
0.00407318
0.00406372
0.00397951
0.00383857
0.00365986
0.00352173
0.00346272
0.00345855
0.00349974
0.0035984
0.00373964
0.00384678
0.00388769
0.00388076
0.00381253
0.0036583
0.00342787
0.00313435
0.00287776
0.0039842
0.00402328
0.0039143
0.00380264
0.00380302
0.00389247
0.00395641
0.00388314
0.00369178
0.00354853
0.00352191
0.00357022
0.00370383
0.0038882
0.00402591
0.00406783
0.00397268
0.00378337
0.00358072
0.00346215
0.00342895
0.00343136
0.00349185
0.00361114
0.00373361
0.00379028
0.00379179
0.00376255
0.00365764
0.00349686
0.00327542
0.00305062
0.00283634
0.00381784
0.0039858
0.003949
0.00386027
0.00385439
0.00398822
0.00423663
0.00429545
0.00411044
0.00370679
0.00354476
0.00352884
0.00362374
0.00382876
0.00403066
0.00408713
0.00394904
0.00370419
0.00350804
0.00340672
0.00338689
0.00339844
0.00348044
0.00360146
0.00370984
0.00371983
0.00372568
0.00368569
0.00360066
0.00346412
0.00330418
0.00312605
0.00296769
0.00348207
0.00386341
0.00395336
0.00389653
0.00388961
0.00403418
0.00436642
0.00448238
0.00441382
0.00400381
0.00369091
0.00362522
0.00367984
0.00391186
0.00408967
0.00412356
0.00390069
0.00361002
0.00343916
0.00335816
0.00334786
0.00337586
0.00347017
0.00359819
0.00366099
0.00368697
0.00368004
0.00366049
0.00359111
0.00350364
0.00340729
0.00332723
0.00325575
0.00323097
0.00369909
0.00390212
0.00392065
0.00393272
0.00408913
0.00444519
0.00455887
0.00453096
0.004291
0.00397298
0.00389626
0.00392856
0.00414264
0.00421018
0.00414535
0.00379845
0.00350771
0.00336525
0.00331421
0.00330705
0.00334984
0.00345624
0.00357031
0.00364813
0.00364746
0.00365359
0.00363414
0.00360576
0.0035554
0.00351857
0.00348049
0.00344108
0.00316655
0.00339235
0.00381743
0.00392637
0.0039584
0.0041238
0.00448265
0.00458542
0.00456826
0.00442933
0.00429736
0.0042637
0.00427399
0.00430573
0.00428566
0.00405237
0.00368811
0.00343371
0.00329121
0.00326816
0.00326262
0.00332278
0.00344004
0.00356048
0.00360012
0.00361822
0.00361765
0.00361729
0.00359614
0.0035671
0.00353834
0.00351223
0.00347148
0.00316047
0.00321104
0.00367967
0.00389533
0.00397474
0.00413894
0.00449246
0.00458872
0.00457352
0.00446885
0.00440628
0.00438759
0.00437936
0.00434442
0.00421099
0.00395459
0.00359478
0.00333772
0.00325526
0.00321018
0.00322009
0.00329737
0.00342201
0.00352102
0.00358044
0.00357929
0.00358861
0.00358404
0.00357684
0.00355151
0.00352591
0.0034899
0.00344631
0.00317976
0.00314807
0.00343461
0.00384249
0.0039789
0.00413478
0.00447447
0.00457838
0.00456307
0.00446926
0.00441585
0.00439167
0.00435522
0.00426709
0.00410163
0.00383307
0.00350078
0.00329604
0.00318018
0.0031553
0.0031637
0.00326504
0.00338069
0.00349174
0.00353768
0.0035623
0.00355998
0.00356448
0.00355436
0.00353624
0.0034989
0.00344165
0.00335036
0.00321643
0.00313063
0.00323706
0.00374311
0.00396005
0.00410834
0.00442216
0.00453589
0.00452929
0.0044451
0.00437675
0.00433629
0.00425775
0.0041358
0.00392493
0.00368021
0.00341848
0.00320971
0.0031298
0.00308506
0.00311733
0.00321382
0.00331808
0.00341619
0.00349961
0.00351787
0.00353231
0.00352344
0.00351161
0.00346707
0.00337594
0.00322113
0.00305089
0.00322592
0.00313573
0.00313966
0.00356111
0.00391379
0.00406894
0.00436398
0.00450562
0.00450646
0.00443381
0.00435331
0.00428651
0.00415369
0.00397829
0.00374772
0.00353494
0.00333485
0.00316308
0.00305471
0.00301065
0.00302471
0.00312073
0.00320905
0.00330239
0.00336713
0.00340176
0.00338362
0.00334484
0.00324254
0.00307751
0.00291202
0.00283121
0.00280766
0.00322426
0.00317382
0.00308459
0.00333694
0.00383455
0.00402368
0.00426997
0.00447417
0.00449279
0.00444148
0.0043495
0.00427194
0.00411355
0.00390495
0.00366773
0.00346208
0.00326506
0.0030622
0.00290029
0.00283657
0.00281436
0.00284297
0.00289148
0.00291156
0.0029184
0.00288694
0.00282871
0.00274851
0.00270381
0.00269423
0.00270437
0.00276043
0.0028158
0.0031995
0.00320805
0.00306359
0.00315978
0.00371367
0.00396666
0.00416099
0.00442509
0.00447746
0.00445647
0.00438713
0.00429924
0.00415788
0.0039518
0.00375279
0.00355463
0.00336198
0.00312754
0.0029138
0.00273836
0.002665
0.00262561
0.00260537
0.00259713
0.00258975
0.00258817
0.00260257
0.0026342
0.00269995
0.00279099
0.00290491
0.00299118
0.0030457
0.00317268
0.00321835
0.00307011
0.00306005
0.00350717
0.0038847
0.00405011
0.00434237
0.00446659
0.00447348
0.00444158
0.00437696
0.00427774
0.00413758
0.00403176
0.00391186
0.00373396
0.00345738
0.00312318
0.00291754
0.00279525
0.00272142
0.00271565
0.00271077
0.00274747
0.0028156
0.00289484
0.00298546
0.00304858
0.00308134
0.00308278
0.00308353
0.00308168
0.00312853
0.0032248
0.0031387
0.00299612
0.00328668
0.00378059
0.00396132
0.00419517
0.00444112
0.00448632
0.00448717
0.00446233
0.00440015
0.00431358
0.0042549
0.00419136
0.0041047
0.00394162
0.00368896
0.00344665
0.00321805
0.00315382
0.00310429
0.00310068
0.00311868
0.00313422
0.00314063
0.00314308
0.00313947
0.00312859
0.00311063
0.00308976
0.00307424
0.00308518
0.00321996
0.00321097
0.00297134
0.00309486
0.00364698
0.00387576
0.00402502
0.00435036
0.00448702
0.00452889
0.00454133
0.0045436
0.00452965
0.00451934
0.00450582
0.0044429
0.00430483
0.00412502
0.00385814
0.00361885
0.0034618
0.00337128
0.00332252
0.00330442
0.00328337
0.00326823
0.00324345
0.00321303
0.00317683
0.00314143
0.00310562
0.00306919
0.00305389
0.0032144
0.00324459
0.0029918
0.00298099
0.00345046
0.00378007
0.00390605
0.00415083
0.00443289
0.004526
0.00458703
0.00468582
0.00476136
0.00486511
0.00499883
0.0050442
0.00503899
0.0048596
0.00459907
0.00429239
0.00405158
0.0038546
0.00375585
0.00368069
0.00361812
0.00355886
0.00348792
0.00341517
0.00333248
0.00325325
0.00316215
0.00309158
0.0030358
0.00318985
0.00327439
0.00308817
0.00292285
0.00322386
0.0036837
0.00381742
0.00394909
0.00430851
0.004477
0.0045606
0.00467981
0.00480408
0.00493224
0.0051116
0.00527537
0.0053497
0.00537665
0.00526607
0.00503905
0.00476255
0.00453741
0.00435742
0.00424605
0.00414355
0.00403899
0.00391816
0.00378266
0.0036304
0.00347503
0.00331598
0.00317195
0.00302996
0.00315107
0.00328118
0.00324479
0.00290298
0.00304129
0.00355867
0.00373596
0.0038114
0.00408215
0.0043755
0.00449862
0.00459895
0.00475544
0.00487594
0.00505196
0.00524349
0.00538519
0.00544217
0.0054544
0.00535562
0.0051734
0.00496094
0.00478471
0.0046525
0.00455905
0.00447126
0.00436983
0.00423777
0.00406759
0.00385309
0.00361334
0.00336604
0.00303032
0.00312921
0.00328293
0.0033139
0.00295306
0.00293605
0.0033616
0.00366117
0.00371918
0.00385641
0.00420528
0.00440387
0.00450776
0.00463902
0.00476003
0.00489508
0.00508001
0.00526027
0.00538544
0.00543771
0.00543303
0.00534193
0.00519498
0.0050331
0.00490815
0.00481567
0.00475099
0.00467787
0.00458465
0.00445086
0.00426132
0.00400991
0.00370769
0.00304295
0.00311935
0.00326042
0.00334942
0.00309682
0.00290003
0.00313073
0.00357447
0.00365508
0.00368236
0.00396816
0.00425357
0.00441038
0.0045134
0.00463495
0.00473205
0.00487734
0.00506442
0.00522964
0.00533995
0.00538815
0.00536784
0.00527798
0.00515515
0.00504975
0.00495372
0.00490364
0.00484911
0.00479219
0.0047048
0.00456945
0.00436597
0.00408535
0.00304633
0.00311685
0.00322606
0.00335638
0.0033304
0.00291221
0.00298575
0.00344063
0.00361203
0.00359211
0.00372082
0.00403853
0.00427222
0.00438239
0.00449699
0.00458335
0.00467731
0.00482976
0.00500894
0.00517429
0.00526763
0.00530369
0.00525106
0.00517367
0.00508118
0.00501148
0.00496282
0.00492729
0.00489085
0.00484655
0.00477472
0.0046495
0.00443324
0.00304611
0.0031204
0.00320932
0.00335294
0.00342015
0.00302842
0.00293535
0.00321235
0.00356279
0.00355214
0.00354617
0.00378085
0.00407538
0.00424045
0.00433916
0.00443136
0.00449888
0.00460046
0.00478184
0.0049716
0.00511213
0.00517533
0.00516317
0.00508285
0.00500568
0.00494291
0.00491512
0.0049119
0.00490577
0.00488778
0.00485293
0.00478956
0.00468134
0.00304233
0.00311747
0.00320394
0.00331665
0.00344277
0.00327578
0.00293731
0.00303922
0.00346265
0.00354609
0.00347176
0.00354408
0.00380537
0.00405758
0.00416263
0.00423457
0.00430693
0.00438907
0.00453496
0.00471914
0.00491107
0.00502624
0.00507197
0.00501184
0.00491292
0.0048204
0.00476091
0.00473728
0.00475236
0.0048035
0.00482405
0.00481769
0.00477272
0.00303607
0.00311046
0.00320188
0.0032976
0.00343479
0.00347281
0.00304417
0.00298002
0.00324655
0.00354193
0.0034435
0.00339824
0.00353729
0.00378677
0.00398731
0.00408041
0.00414334
0.00421292
0.00430981
0.00444251
0.00461385
0.0047767
0.00488063
0.0049093
0.00484433
0.00474511
0.00465124
0.00458584
0.00455879
0.00455731
0.00461708
0.00471274
0.00473912
0.00303342
0.00309802
0.00319231
0.00328901
0.00339963
0.00351802
0.00330236
0.00299982
0.0030713
0.00345684
0.00348358
0.00334475
0.00335635
0.0035042
0.00370462
0.00387498
0.00397213
0.00403959
0.00410718
0.00418884
0.00428749
0.00439198
0.00448499
0.00454548
0.00455613
0.00452619
0.00447903
0.00443479
0.00440686
0.00438743
0.00438132
0.0044336
0.00458096
0.00303319
0.00308467
0.00317445
0.00328686
0.00338461
0.00351335
0.00351603
0.00311224
0.00303149
0.00324678
0.00347883
0.0033808
0.00328522
0.00331943
0.00342195
0.00354935
0.00366425
0.00374979
0.00380459
0.00382771
0.00382099
0.00379219
0.00373219
0.00366595
0.00361901
0.00358658
0.00357412
0.0036404
0.00382142
0.00407548
0.00416348
0.00420035
0.00426137
0.00304447
0.00307915
0.00315078
0.00327749
0.00337872
0.00347309
0.00357145
0.0033896
0.00308013
0.00310939
0.00338788
0.0034248
0.00329655
0.00324676
0.00327255
0.00331564
0.00336444
0.00339983
0.00340551
0.00339343
0.00335925
0.00332244
0.00329235
0.00326851
0.00324259
0.0031971
0.00314219
0.0031004
0.00309103
0.00313949
0.00331152
0.00364033
0.00394296
0.00306441
0.00307815
0.00314043
0.00326057
0.00337878
0.00345563
0.00357111
0.00356034
0.00322797
0.00310109
0.0032214
0.00340547
0.00335157
0.00324454
0.00321261
0.00321641
0.00322911
0.00323499
0.0032345
0.00323079
0.00323558
0.00326456
0.00331801
0.0033581
0.00336091
0.00332978
0.00327667
0.00321965
0.00313881
0.00303983
0.00295688
0.00301775
0.0031654
0.0030913
0.0030893
0.00313826
0.00324747
0.00336713
0.00346007
0.00353507
0.00360251
0.00349002
0.00316084
0.00314925
0.00331312
0.00335936
0.00328672
0.00321916
0.00319546
0.00319055
0.00319747
0.00321616
0.00325762
0.00334197
0.00344984
0.00349444
0.00344352
0.00331864
0.00323346
0.00320048
0.00320628
0.00322181
0.00321785
0.00309729
0.00291354
0.00291816
0.00312248
0.00311738
0.00314715
0.00324433
0.00336163
0.00346559
0.00351711
0.00359623
0.00358998
0.00336179
0.00317349
0.00320693
0.00333147
0.00332885
0.00326258
0.00321359
0.0032148
0.00322662
0.00325865
0.00331414
0.00335875
0.00334018
0.00314394
0.00275386
0.00252656
0.00244618
0.002475
0.00263502
0.00290616
0.00313244
0.00323027
0.00310667
0.0029004
0.0031605
0.00315282
0.00317566
0.00325403
0.00336296
0.00345939
0.00352673
0.00356942
0.00360423
0.00354705
0.00327396
0.00319669
0.00325899
0.003316
0.00330219
0.00324427
0.00321722
0.00322013
0.00323449
0.00323773
0.00316374
0.0028022
0.00237193
0.00220964
0.0021335
0.00208033
0.00205394
0.00209336
0.00224689
0.00264156
0.00309538
0.0032196
0.0030667
0.00320431
0.00319721
0.00321649
0.00329124
0.00338807
0.00345887
0.00353713
0.00355942
0.00360427
0.00359186
0.00346231
0.00322614
0.00320656
0.00326162
0.00328949
0.00327236
0.00322488
0.00318207
0.00311795
0.00295483
0.00262059
0.0023332
0.00217715
0.00213855
0.00208946
0.00202635
0.00197504
0.00196467
0.00200269
0.00214968
0.00260153
0.00309996
0.00317328
0.0032543
0.00324745
0.00326662
0.0033513
0.00343413
0.00348827
0.00353453
0.00357925
0.00360645
0.00360138
0.00356055
0.00334171
0.00321472
0.00321455
0.00325427
0.00326344
0.0032406
0.00317984
0.00304614
0.00282764
0.00257279
0.00234555
0.00230279
0.00232823
0.00226799
0.00209908
0.00197573
0.00194199
0.00195728
0.00201927
0.00222047
0.00275012
0.00312183
0.0033088
0.00330437
0.0033265
0.00342116
0.00350141
0.00353413
0.00354803
0.00358575
0.00360742
0.00360305
0.00358676
0.00351355
0.0032857
0.00320999
0.00321461
0.00324225
0.0032376
0.00319116
0.00306121
0.00284402
0.00258686
0.00250267
0.00261897
0.00276622
0.00269244
0.00236333
0.00208359
0.00196486
0.00195472
0.00199186
0.0021199
0.00247315
0.0029586
0.0033682
0.00336999
0.00339624
0.00349115
0.00357456
0.00358616
0.00358847
0.00358938
0.00361471
0.00361106
0.00359631
0.00356182
0.00343766
0.00324224
0.00320109
0.00321169
0.00322697
0.00321044
0.00312372
0.00289783
0.00268091
0.00270351
0.00288665
0.00301868
0.00296107
0.00261908
0.00221822
0.00203911
0.0020036
0.00201923
0.00210631
0.00238935
0.00283953
0.00343469
0.00344018
0.00347826
0.00356511
0.00361001
0.00361568
0.00360854
0.00359882
0.00361292
0.0036112
0.00360144
0.0035814
0.00352587
0.00333394
0.00321587
0.00319265
0.00320402
0.00320595
0.00317808
0.00302318
0.00289427
0.00291901
0.00305171
0.00313643
0.00308766
0.00275302
0.0023004
0.00210209
0.00207442
0.00210083
0.00219883
0.00242359
0.00280662
0.00350707
0.00351625
0.00356656
0.00360798
0.0036234
0.00362234
0.00361297
0.00360048
0.0036054
0.00360702
0.00360171
0.00358715
0.00355927
0.00348
0.00327907
0.00319792
0.00318435
0.00319861
0.00319725
0.00314889
0.0030891
0.00310298
0.00317669
0.00320984
0.00315582
0.00280867
0.00234755
0.00215882
0.00214441
0.00219848
0.00239952
0.00266907
0.00291241
0.00358048
0.00359041
0.00360972
0.00362215
0.00362571
0.00362117
0.0036098
0.00359717
0.00359331
0.00359778
0.00359764
0.00358735
0.00357373
0.00353923
0.00341982
0.00323664
0.00318987
0.00319088
0.00320851
0.0032077
0.00320416
0.00322159
0.00326615
0.00326431
0.00318677
0.00280799
0.00236184
0.00221798
0.00222711
0.00234174
0.00266756
0.0029809
0.00313341
0.00364398
0.00362541
0.00362303
0.00362376
0.00361429
0.00359713
0.00358262
0.00357356
0.00357255
0.0035797
0.00358617
0.00358454
0.00357885
0.00356637
0.00351765
0.0033391
0.00322274
0.00320077
0.00321973
0.00324447
0.00326479
0.00330573
0.00331629
0.00329707
0.00317256
0.00272056
0.00235773
0.00228901
0.00234186
0.002616
0.00305999
0.00325455
0.00327112
0.0036706
0.00363296
0.00362465
0.00360627
0.00356544
0.00354178
0.00353236
0.00353277
0.00353857
0.00355538
0.00357638
0.00358307
0.00358625
0.00359013
0.0035817
0.00351699
0.00331965
0.00323665
0.00324278
0.00325852
0.00329643
0.00333166
0.00332714
0.00328529
0.00307083
0.00256996
0.00236959
0.00238126
0.00256092
0.00304591
0.00334905
0.00342492
0.00340783
0.00367547
0.00363127
0.00360455
0.00354925
0.00352426
0.00351824
0.00351544
0.00351406
0.0035203
0.0035307
0.00355813
0.00357486
0.00358882
0.00361149
0.00362315
0.00361162
0.00351416
0.00331169
0.00327679
0.0032766
0.00329819
0.00331287
0.00329432
0.00319355
0.00281475
0.00247409
0.00244033
0.00255787
0.00301186
0.00342336
0.00355687
0.0035748
0.00352614
0.00366645
0.0036015
0.00355433
0.00351919
0.00351645
0.00351732
0.00351944
0.00352071
0.00352581
0.00353316
0.00355466
0.00357573
0.00359754
0.00363209
0.00368008
0.00370214
0.00366772
0.00346827
0.00333306
0.00327695
0.00326322
0.00323176
0.00316588
0.00295055
0.00257083
0.0024942
0.00258126
0.00299617
0.00344222
0.00361849
0.00367859
0.0036782
0.00362339
0.00363044
0.00355857
0.00352947
0.00351481
0.00352701
0.00354362
0.00354842
0.00354711
0.00354825
0.00355173
0.00357038
0.0035922
0.00361924
0.0036728
0.00374443
0.00379693
0.00378153
0.00363533
0.00341958
0.00327117
0.00320846
0.00314316
0.00296807
0.00263928
0.00253497
0.00260635
0.00300715
0.00347411
0.00363277
0.00369163
0.0037352
0.00373664
0.00369737
0.00358574
0.00353677
0.00352524
0.00352965
0.00357945
0.00361202
0.00361107
0.00360037
0.00359185
0.00359279
0.00360998
0.00363717
0.00366959
0.00374039
0.00381941
0.00386843
0.0038727
0.00375813
0.00342029
0.00323557
0.00313125
0.00293713
0.00266954
0.00257319
0.00264108
0.00305234
0.00349415
0.00363763
0.0036715
0.00369567
0.00375849
0.00378106
0.00374304
0.00355578
0.00353157
0.00353472
0.00358931
0.00370183
0.00374202
0.00373486
0.00372832
0.0037197
0.00371648
0.00373808
0.00377572
0.00381175
0.00390423
0.00399032
0.00406078
0.00399566
0.00371939
0.00335415
0.00313464
0.00290602
0.00266654
0.00260104
0.00267568
0.00311999
0.00353629
0.00361854
0.00357584
0.00355011
0.00358237
0.00373131
0.00381948
0.00378225
0.00354654
0.0035344
0.0035779
0.00372228
0.0038797
0.00392421
0.00394277
0.0040298
0.00410017
0.00416966
0.00418117
0.00419982
0.00420865
0.00425125
0.00424381
0.00414374
0.00394172
0.00355197
0.00316348
0.00284706
0.00264158
0.00261128
0.00271482
0.00321941
0.00356723
0.00357596
0.0034794
0.00337414
0.00336961
0.00343835
0.0036845
0.00383424
0.00380356
0.00354675
0.00355459
0.00366941
0.00388451
0.00408171
0.00417362
0.00430206
0.00441456
0.00444537
0.00444687
0.00442479
0.00438283
0.0043421
0.00429552
0.00422337
0.00403648
0.00363671
0.00309042
0.00274615
0.00261301
0.00261565
0.00277883
0.00332888
0.00359043
0.00357254
0.00348145
0.00339791
0.0033242
0.00329582
0.00332423
0.00353793
0.00381432
0.00381789
0.0035537
0.00359885
0.00378374
0.00406624
0.00429497
0.00440565
0.0044708
0.00448097
0.00447242
0.00442765
0.00437806
0.00431804
0.00424847
0.00414142
0.00392203
0.00340286
0.00290259
0.00267979