/*--------------------------------*- C++ -*----------------------------------*\
  =========                 |
  \\      /  F ield         | OpenFOAM: The Open Source CFD Toolbox
   \\    /   O peration     | Website:  https://openfoam.org
    \\  /    A nd           | Version:  10
     \\/     M anipulation  |
\*---------------------------------------------------------------------------*/
FoamFile
{
    format      ascii;
    class       volVectorField;
    location    "0.55123";
    object      U;
}
// * * * * * * * * * * * * * * * * * * * * * * * * * * * * * * * * * * * * * //

dimensions      [0 1 -1 0 0 0 0];

internalField   nonuniform List<vector> 
16320
(
(0.170433 -0.325923 0)
(0.166383 -0.292657 0)
(0.166972 -0.24497 0)
(0.170543 -0.189912 0)
(0.174651 -0.134506 0)
(0.17556 -0.0812771 0)
(0.169979 -0.0312546 0)
(0.157035 0.0172637 0)
(0.137857 0.0624742 0)
(0.112654 0.106093 0)
(0.0818926 0.149207 0)
(0.0481676 0.192581 0)
(0.0193769 0.237181 0)
(0.00237794 0.280982 0)
(-0.000184464 0.323982 0)
(0.0100865 0.366883 0)
(0.0294625 0.410579 0)
(0.0541876 0.454023 0)
(0.0803561 0.495433 0)
(0.107504 0.53253 0)
(0.133155 0.560228 0)
(0.15713 0.574665 0)
(0.180911 0.572207 0)
(0.203341 0.549487 0)
(0.221717 0.508338 0)
(0.237701 0.453478 0)
(0.24919 0.38929 0)
(0.253368 0.319258 0)
(0.251851 0.247627 0)
(0.248801 0.179569 0)
(0.243849 0.117613 0)
(0.231706 0.0535375 0)
(0.213047 -0.00616326 0)
(0.132576 -0.341153 0)
(0.126383 -0.312776 0)
(0.125777 -0.267626 0)
(0.129812 -0.212349 0)
(0.135121 -0.156257 0)
(0.135813 -0.100769 0)
(0.127663 -0.0443816 0)
(0.11619 0.0108653 0)
(0.0981385 0.062511 0)
(0.0739472 0.111959 0)
(0.0452938 0.159369 0)
(0.0162039 0.20548 0)
(-0.00663977 0.24921 0)
(-0.0194868 0.289122 0)
(-0.0205802 0.327228 0)
(-0.0105737 0.366159 0)
(0.00824926 0.407397 0)
(0.0317674 0.448965 0)
(0.0570652 0.488729 0)
(0.0839448 0.52422 0)
(0.10995 0.550449 0)
(0.135772 0.563386 0)
(0.162057 0.559393 0)
(0.186279 0.536805 0)
(0.207041 0.497738 0)
(0.224935 0.446583 0)
(0.237832 0.385868 0)
(0.244267 0.319064 0)
(0.246134 0.251058 0)
(0.247548 0.186052 0)
(0.246208 0.124877 0)
(0.238695 0.0623791 0)
(0.227512 0.00554038 0)
(0.125255 -0.34763 0)
(0.115336 -0.325463 0)
(0.112554 -0.287212 0)
(0.115985 -0.236079 0)
(0.122173 -0.180897 0)
(0.122633 -0.124466 0)
(0.113637 -0.0617522 0)
(0.101569 -0.00106883 0)
(0.0831515 0.0568054 0)
(0.0587913 0.111477 0)
(0.0311733 0.162884 0)
(0.00437378 0.211267 0)
(-0.0164939 0.254486 0)
(-0.0287687 0.291894 0)
(-0.0308168 0.327187 0)
(-0.0232418 0.363359 0)
(-0.00732444 0.401409 0)
(0.014282 0.44111 0)
(0.0385039 0.47895 0)
(0.0651671 0.512514 0)
(0.0917682 0.536684 0)
(0.119003 0.547853 0)
(0.146657 0.542444 0)
(0.171877 0.520044 0)
(0.194109 0.482813 0)
(0.213004 0.434198 0)
(0.226714 0.375954 0)
(0.235241 0.31217 0)
(0.240442 0.2471 0)
(0.245964 0.18533 0)
(0.248632 0.123647 0)
(0.246432 0.0637897 0)
(0.241782 0.0099555 0)
(0.161005 -0.351733 0)
(0.142074 -0.332218 0)
(0.130958 -0.297351 0)
(0.129301 -0.251467 0)
(0.132691 -0.201012 0)
(0.133329 -0.145592 0)
(0.125203 -0.0811859 0)
(0.110396 -0.0136316 0)
(0.0908923 0.0493675 0)
(0.0651043 0.107885 0)
(0.0362715 0.16201 0)
(0.00911913 0.211954 0)
(-0.012725 0.255308 0)
(-0.0272181 0.292293 0)
(-0.0322601 0.326291 0)
(-0.0282139 0.360189 0)
(-0.016146 0.395312 0)
(0.00275804 0.432161 0)
(0.0256497 0.467304 0)
(0.0514347 0.497874 0)
(0.0783096 0.519325 0)
(0.106329 0.52817 0)
(0.134261 0.521262 0)
(0.159721 0.49884 0)
(0.182481 0.46283 0)
(0.201555 0.41569 0)
(0.215961 0.359575 0)
(0.226481 0.298312 0)
(0.235214 0.235947 0)
(0.243634 0.176346 0)
(0.24952 0.113993 0)
(0.25352 0.0570976 0)
(0.255001 0.00665909 0)
(0.237433 -0.35705 0)
(0.215287 -0.336562 0)
(0.193412 -0.303242 0)
(0.173279 -0.259857 0)
(0.163193 -0.209793 0)
(0.160363 -0.157009 0)
(0.153527 -0.0967587 0)
(0.138556 -0.0285541 0)
(0.116171 0.0410801 0)
(0.0889711 0.103713 0)
(0.0582104 0.159848 0)
(0.0275058 0.210906 0)
(0.00271938 0.255357 0)
(-0.0153952 0.29272 0)
(-0.0248487 0.326262 0)
(-0.0252712 0.3582 0)
(-0.0174299 0.390667 0)
(-0.00205732 0.424053 0)
(0.018582 0.455366 0)
(0.0430244 0.481924 0)
(0.0696207 0.499794 0)
(0.0973297 0.505499 0)
(0.124595 0.496647 0)
(0.14955 0.473702 0)
(0.171901 0.438132 0)
(0.190798 0.39166 0)
(0.205772 0.337009 0)
(0.218005 0.278054 0)
(0.230022 0.218694 0)
(0.240603 0.157649 0)
(0.249831 0.0972979 0)
(0.25859 0.0430432 0)
(0.265042 -0.00232789 0)
(0.331059 -0.361013 0)
(0.308883 -0.337321 0)
(0.283704 -0.304093 0)
(0.256506 -0.2617 0)
(0.227977 -0.211667 0)
(0.205136 -0.157367 0)
(0.190902 -0.0986834 0)
(0.175941 -0.033574 0)
(0.155194 0.0333097 0)
(0.125573 0.0996312 0)
(0.0927916 0.158907 0)
(0.0589296 0.210704 0)
(0.0283515 0.256258 0)
(0.00528393 0.295106 0)
(-0.00913169 0.328665 0)
(-0.0145102 0.358763 0)
(-0.0111201 0.388229 0)
(0.000154871 0.417393 0)
(0.0177085 0.444103 0)
(0.0399611 0.466022 0)
(0.0650584 0.479388 0)
(0.0913898 0.48114 0)
(0.117256 0.469596 0)
(0.141061 0.445098 0)
(0.162242 0.408778 0)
(0.180445 0.362369 0)
(0.196243 0.309085 0)
(0.210911 0.252873 0)
(0.224106 0.19323 0)
(0.237042 0.131478 0)
(0.250674 0.0746998 0)
(0.261528 0.0230824 0)
(0.270121 -0.0141936 0)
(0.423577 -0.36786 0)
(0.404544 -0.337939 0)
(0.381033 -0.299538 0)
(0.35306 -0.254386 0)
(0.320131 -0.204187 0)
(0.283083 -0.150541 0)
(0.246019 -0.094239 0)
(0.218706 -0.0341388 0)
(0.195414 0.0316425 0)
(0.168446 0.0977463 0)
(0.134981 0.159281 0)
(0.0986991 0.213613 0)
(0.0641079 0.259481 0)
(0.0345832 0.298898 0)
(0.0134454 0.332689 0)
(0.00284874 0.362373 0)
(0.00155755 0.388759 0)
(0.00849596 0.41289 0)
(0.0224376 0.43409 0)
(0.0415689 0.450306 0)
(0.0639745 0.458275 0)
(0.0878512 0.455292 0)
(0.111478 0.440113 0)
(0.133388 0.413012 0)
(0.153245 0.375399 0)
(0.171273 0.329397 0)
(0.188468 0.277022 0)
(0.203589 0.219755 0)
(0.218167 0.159173 0)
(0.235098 0.1011 0)
(0.250027 0.0472764 0)
(0.26196 0.00378692 0)
(0.271075 -0.026789 0)
(0.50397 -0.378964 0)
(0.488539 -0.341438 0)
(0.468231 -0.296227 0)
(0.444242 -0.24521 0)
(0.414898 -0.189448 0)
(0.3797 -0.132451 0)
(0.338205 -0.075513 0)
(0.293272 -0.018664 0)
(0.25426 0.041185 0)
(0.218273 0.102559 0)
(0.182115 0.163816 0)
(0.143519 0.219386 0)
(0.104853 0.266753 0)
(0.0705823 0.305331 0)
(0.0438769 0.338093 0)
(0.0263718 0.366213 0)
(0.0188752 0.390272 0)
(0.0210945 0.410543 0)
(0.0310401 0.426118 0)
(0.0464184 0.435698 0)
(0.0652807 0.437383 0)
(0.0859238 0.428988 0)
(0.106767 0.409505 0)
(0.126818 0.379192 0)
(0.14587 0.339126 0)
(0.163354 0.290792 0)
(0.179897 0.236615 0)
(0.196757 0.178809 0)
(0.214579 0.121986 0)
(0.231855 0.0687738 0)
(0.246657 0.0231025 0)
(0.257179 -0.0127064 0)
(0.262689 -0.0392889 0)
(0.564517 -0.393305 0)
(0.552856 -0.34918 0)
(0.536346 -0.297082 0)
(0.517242 -0.239231 0)
(0.494094 -0.17707 0)
(0.465254 -0.112768 0)
(0.431047 -0.0512796 0)
(0.390125 0.0085132 0)
(0.337959 0.0648824 0)
(0.285087 0.121644 0)
(0.237468 0.177257 0)
(0.192244 0.230465 0)
(0.148725 0.277594 0)
(0.109206 0.316221 0)
(0.0772455 0.346849 0)
(0.0546249 0.371151 0)
(0.0417003 0.390919 0)
(0.037829 0.406204 0)
(0.041898 0.41597 0)
(0.0526013 0.419168 0)
(0.0676318 0.41438 0)
(0.0847713 0.39962 0)
(0.102517 0.374259 0)
(0.119835 0.339055 0)
(0.136732 0.29514 0)
(0.154542 0.244591 0)
(0.173739 0.191408 0)
(0.19208 0.137978 0)
(0.209227 0.08687 0)
(0.224889 0.0416762 0)
(0.235452 0.00405374 0)
(0.239109 -0.0259048 0)
(0.24008 -0.0473372 0)
(0.59945 -0.411181 0)
(0.591793 -0.363008 0)
(0.579642 -0.305128 0)
(0.565654 -0.240278 0)
(0.549082 -0.171286 0)
(0.526879 -0.0999576 0)
(0.499275 -0.030269 0)
(0.465489 0.0351716 0)
(0.41845 0.0961725 0)
(0.360592 0.153091 0)
(0.300591 0.205176 0)
(0.245384 0.252725 0)
(0.194785 0.295724 0)
(0.149473 0.332084 0)
(0.111466 0.359919 0)
(0.0827631 0.379714 0)
(0.0641682 0.392735 0)
(0.0550654 0.400264 0)
(0.054118 0.40232 0)
(0.0598734 0.397894 0)
(0.0698067 0.385317 0)
(0.0822047 0.363285 0)
(0.0966383 0.331941 0)
(0.112679 0.292662 0)
(0.12997 0.247648 0)
(0.148522 0.199579 0)
(0.166765 0.150538 0)
(0.182107 0.102825 0)
(0.19427 0.0610849 0)
(0.2021 0.025145 0)
(0.204299 -0.00715632 0)
(0.202179 -0.0325934 0)
(0.197741 -0.0499773 0)
(0.607186 -0.433217 0)
(0.604885 -0.381953 0)
(0.598696 -0.320231 0)
(0.590024 -0.249847 0)
(0.578848 -0.17422 0)
(0.563451 -0.0955458 0)
(0.542066 -0.0165612 0)
(0.514322 0.0578709 0)
(0.47691 0.127471 0)
(0.425468 0.189884 0)
(0.36288 0.243703 0)
(0.299225 0.288357 0)
(0.240956 0.325312 0)
(0.188529 0.355102 0)
(0.143508 0.376769 0)
(0.108312 0.390265 0)
(0.0838421 0.396403 0)
(0.0694889 0.395916 0)
(0.0635009 0.389093 0)
(0.0641801 0.375453 0)
(0.0695947 0.354357 0)
(0.0786057 0.32584 0)
(0.0907047 0.290726 0)
(0.105103 0.250234 0)
(0.120655 0.206516 0)
(0.135821 0.162251 0)
(0.148194 0.119454 0)
(0.156192 0.0799336 0)
(0.15913 0.0456086 0)
(0.156643 0.0133949 0)
(0.150052 -0.0133657 0)
(0.143708 -0.0334397 0)
(0.137868 -0.0480905 0)
(0.5961 -0.451056 0)
(0.59754 -0.398601 0)
(0.595894 -0.335453 0)
(0.592242 -0.262724 0)
(0.58666 -0.182344 0)
(0.578126 -0.0968184 0)
(0.563479 -0.00960278 0)
(0.540562 0.074725 0)
(0.51015 0.152754 0)
(0.467909 0.224195 0)
(0.411487 0.28364 0)
(0.34628 0.329616 0)
(0.281102 0.362478 0)
(0.221522 0.384456 0)
(0.169906 0.397302 0)
(0.128517 0.402193 0)
(0.0982476 0.400061 0)
(0.0782942 0.39105 0)
(0.0670569 0.375367 0)
(0.0629847 0.353272 0)
(0.0644672 0.325245 0)
(0.0702541 0.292073 0)
(0.0791278 0.254921 0)
(0.0897271 0.215283 0)
(0.100402 0.174798 0)
(0.108567 0.135479 0)
(0.111143 0.0983112 0)
(0.107896 0.0658742 0)
(0.0997026 0.0370808 0)
(0.0925421 0.00981934 0)
(0.0851497 -0.0128006 0)
(0.0766851 -0.0297527 0)
(0.0672091 -0.0422787 0)
(0.56552 -0.467346 0)
(0.570158 -0.416185 0)
(0.572057 -0.353321 0)
(0.573082 -0.279644 0)
(0.573621 -0.195372 0)
(0.572258 -0.103468 0)
(0.564964 -0.00778806 0)
(0.547501 0.0861996 0)
(0.522145 0.173709 0)
(0.48663 0.252346 0)
(0.437136 0.319798 0)
(0.376148 0.369008 0)
(0.30945 0.400267 0)
(0.244272 0.415998 0)
(0.186599 0.42012 0)
(0.139733 0.415472 0)
(0.104008 0.40337 0)
(0.0784019 0.38472 0)
(0.0617617 0.360473 0)
(0.0529903 0.33148 0)
(0.0504963 0.298623 0)
(0.0523982 0.262955 0)
(0.0567677 0.225493 0)
(0.0612338 0.188044 0)
(0.063488 0.151893 0)
(0.0611785 0.118551 0)
(0.0533024 0.0885866 0)
(0.0417996 0.0594435 0)
(0.0341979 0.0299559 0)
(0.0244875 0.00638545 0)
(0.0119372 -0.00908028 0)
(-0.00170336 -0.0181079 0)
(-0.0103248 -0.030158 0)
(0.518684 -0.488748 0)
(0.525176 -0.439169 0)
(0.530166 -0.377296 0)
(0.535639 -0.303125 0)
(0.541699 -0.216531 0)
(0.547169 -0.119214 0)
(0.548352 -0.0146148 0)
(0.538373 0.0907932 0)
(0.516699 0.190008 0)
(0.484975 0.277113 0)
(0.440565 0.350545 0)
(0.382898 0.404529 0)
(0.318262 0.43528 0)
(0.251824 0.446016 0)
(0.190249 0.441845 0)
(0.138193 0.427382 0)
(0.0968312 0.404867 0)
(0.0661337 0.376723 0)
(0.0449251 0.344869 0)
(0.0317675 0.31072 0)
(0.0248213 0.2752 0)
(0.0213834 0.239251 0)
(0.0196535 0.204171 0)
(0.0166955 0.171831 0)
(0.00703018 0.140271 0)
(-0.00520644 0.113483 0)
(-0.020802 0.0846656 0)
(-0.0330124 0.0545651 0)
(-0.0442704 0.0318061 0)
(-0.0597471 0.0184513 0)
(-0.0712994 0.00759823 0)
(-0.0738535 -0.0102633 0)
(-0.0665697 -0.0315966 0)
(0.457794 -0.514012 0)
(0.465061 -0.465524 0)
(0.472958 -0.404836 0)
(0.482435 -0.331392 0)
(0.493496 -0.243881 0)
(0.505304 -0.142239 0)
(0.514738 -0.0295939 0)
(0.513044 0.0861811 0)
(0.496216 0.198365 0)
(0.465712 0.297103 0)
(0.422594 0.376218 0)
(0.367356 0.434194 0)
(0.304026 0.465465 0)
(0.238356 0.472074 0)
(0.17578 0.460058 0)
(0.120791 0.435719 0)
(0.0753986 0.403704 0)
(0.0406978 0.367815 0)
(0.0157695 0.330694 0)
(-0.00130054 0.293767 0)
(-0.0130226 0.258428 0)
(-0.0226306 0.225139 0)
(-0.0341334 0.194704 0)
(-0.0472802 0.169411 0)
(-0.0655268 0.142922 0)
(-0.0839526 0.113213 0)
(-0.0992061 0.0845552 0)
(-0.110375 0.0634267 0)
(-0.122478 0.0479867 0)
(-0.129421 0.0298309 0)
(-0.127477 0.00472235 0)
(-0.114513 -0.0218333 0)
(-0.0978526 -0.0446257 0)
(0.385336 -0.542014 0)
(0.393752 -0.495035 0)
(0.403568 -0.436323 0)
(0.416185 -0.36507 0)
(0.431785 -0.278588 0)
(0.44907 -0.174257 0)
(0.464398 -0.0535455 0)
(0.470228 0.0743214 0)
(0.458484 0.199538 0)
(0.428816 0.310546 0)
(0.384988 0.397565 0)
(0.329712 0.457333 0)
(0.266968 0.488063 0)
(0.202547 0.490908 0)
(0.14058 0.472647 0)
(0.0851305 0.440188 0)
(0.0386087 0.401168 0)
(0.00205552 0.360448 0)
(-0.0258595 0.320687 0)
(-0.0467795 0.284624 0)
(-0.0662986 0.25209 0)
(-0.0847006 0.224807 0)
(-0.104612 0.201161 0)
(-0.126275 0.17514 0)
(-0.147078 0.144907 0)
(-0.161042 0.116576 0)
(-0.16871 0.0947866 0)
(-0.176216 0.0749316 0)
(-0.178654 0.0500021 0)
(-0.17366 0.0184038 0)
(-0.159151 -0.0124619 0)
(-0.144469 -0.0351064 0)
(-0.13241 -0.0500277 0)
(0.305119 -0.566663 0)
(0.313774 -0.522593 0)
(0.32469 -0.466674 0)
(0.339414 -0.397751 0)
(0.358818 -0.313567 0)
(0.38147 -0.209013 0)
(0.402551 -0.0827937 0)
(0.413604 0.056849 0)
(0.404339 0.194924 0)
(0.374107 0.318157 0)
(0.327468 0.412932 0)
(0.270277 0.474061 0)
(0.207945 0.502624 0)
(0.145419 0.501361 0)
(0.0857459 0.477823 0)
(0.03189 0.440701 0)
(-0.0140741 0.397945 0)
(-0.0515055 0.355923 0)
(-0.0827551 0.317699 0)
(-0.11129 0.285376 0)
(-0.137773 0.258938 0)
(-0.162734 0.236094 0)
(-0.188109 0.209245 0)
(-0.208828 0.178446 0)
(-0.219904 0.150206 0)
(-0.224303 0.126751 0)
(-0.227649 0.101995 0)
(-0.226239 0.0714674 0)
(-0.21885 0.0348592 0)
(-0.205782 0.00122539 0)
(-0.192973 -0.0209092 0)
(-0.184585 -0.0347301 0)
(-0.178679 -0.0449009 0)
(0.22012 -0.583809 0)
(0.227121 -0.542864 0)
(0.237948 -0.489683 0)
(0.253332 -0.423349 0)
(0.274458 -0.34238 0)
(0.300011 -0.239985 0)
(0.323998 -0.111174 0)
(0.338718 0.0387681 0)
(0.331582 0.18952 0)
(0.301009 0.322635 0)
(0.251143 0.423014 0)
(0.191296 0.484823 0)
(0.129336 0.510245 0)
(0.0687807 0.504451 0)
(0.0122528 0.477169 0)
(-0.0396115 0.437303 0)
(-0.0838065 0.395424 0)
(-0.123641 0.356931 0)
(-0.159722 0.324053 0)
(-0.193409 0.296626 0)
(-0.222644 0.272084 0)
(-0.248964 0.244493 0)
(-0.268936 0.212885 0)
(-0.277832 0.184224 0)
(-0.279601 0.158137 0)
(-0.280353 0.128522 0)
(-0.276836 0.0924163 0)
(-0.268164 0.0520444 0)
(-0.256194 0.0181564 0)
(-0.245755 -0.00456837 0)
(-0.240179 -0.018883 0)
(-0.235571 -0.0300958 0)
(-0.227929 -0.0384143 0)
(0.133583 -0.595956 0)
(0.135446 -0.558614 0)
(0.143279 -0.507756 0)
(0.157823 -0.444549 0)
(0.1791 -0.368566 0)
(0.205347 -0.27058 0)
(0.23185 -0.140879 0)
(0.251359 0.0190471 0)
(0.245135 0.183772 0)
(0.211217 0.326426 0)
(0.157503 0.429274 0)
(0.0950279 0.489331 0)
(0.0327496 0.511172 0)
(-0.0276912 0.500627 0)
(-0.0793753 0.47159 0)
(-0.127367 0.435303 0)
(-0.171877 0.398464 0)
(-0.214165 0.365655 0)
(-0.25226 0.336718 0)
(-0.285164 0.308306 0)
(-0.310196 0.27903 0)
(-0.326928 0.247349 0)
(-0.334385 0.217613 0)
(-0.335405 0.189602 0)
(-0.335316 0.156238 0)
(-0.331569 0.116344 0)
(-0.323291 0.073824 0)
(-0.311525 0.0393373 0)
(-0.303419 0.01493 0)
(-0.300575 -0.00154798 0)
(-0.295166 -0.0136666 0)
(-0.286807 -0.0227999 0)
(-0.276071 -0.0301966 0)
(0.0484816 -0.602223 0)
(0.0432351 -0.569684 0)
(0.0442648 -0.522474 0)
(0.0552747 -0.460602 0)
(0.0776263 -0.390243 0)
(0.106286 -0.299635 0)
(0.134546 -0.170093 0)
(0.15539 -0.00398387 0)
(0.148798 0.172535 0)
(0.109298 0.324433 0)
(0.0492743 0.428553 0)
(-0.0179785 0.486611 0)
(-0.0791534 0.503977 0)
(-0.135514 0.494219 0)
(-0.184599 0.468529 0)
(-0.230825 0.437157 0)
(-0.275177 0.405981 0)
(-0.316033 0.375966 0)
(-0.349709 0.344391 0)
(-0.372205 0.312688 0)
(-0.383662 0.281427 0)
(-0.38928 0.250555 0)
(-0.391015 0.220024 0)
(-0.391637 0.18383 0)
(-0.38942 0.141266 0)
(-0.38256 0.0973324 0)
(-0.371659 0.0612524 0)
(-0.36394 0.0339603 0)
(-0.36119 0.0135486 0)
(-0.355089 0.000107818 0)
(-0.345511 -0.00996215 0)
(-0.333439 -0.0182424 0)
(-0.319466 -0.0249932 0)
(-0.0321104 -0.598151 0)
(-0.0455985 -0.570425 0)
(-0.0506635 -0.528328 0)
(-0.0452343 -0.469652 0)
(-0.0240294 -0.402107 0)
(0.00663593 -0.316806 0)
(0.0361964 -0.190538 0)
(0.0553724 -0.0195006 0)
(0.0474837 0.163268 0)
(0.000728048 0.320839 0)
(-0.0653534 0.421425 0)
(-0.133054 0.47509 0)
(-0.195886 0.49322 0)
(-0.252322 0.487287 0)
(-0.301704 0.467003 0)
(-0.344864 0.43996 0)
(-0.382757 0.40992 0)
(-0.414672 0.377339 0)
(-0.433538 0.345314 0)
(-0.439959 0.314434 0)
(-0.443367 0.283144 0)
(-0.44603 0.249698 0)
(-0.447245 0.211002 0)
(-0.445617 0.166148 0)
(-0.438879 0.120923 0)
(-0.427878 0.0825699 0)
(-0.418667 0.0518176 0)
(-0.41196 0.0276077 0)
(-0.402728 0.0123169 0)
(-0.391131 0.00168758 0)
(-0.377344 -0.00694638 0)
(-0.362629 -0.0143168 0)
(-0.347479 -0.0204405 0)
(-0.105051 -0.583517 0)
(-0.126429 -0.560222 0)
(-0.137892 -0.52197 0)
(-0.135499 -0.468906 0)
(-0.118031 -0.402718 0)
(-0.0905717 -0.31718 0)
(-0.0598885 -0.192396 0)
(-0.0392331 -0.0228808 0)
(-0.0473453 0.154299 0)
(-0.096285 0.305302 0)
(-0.169731 0.40702 0)
(-0.246478 0.461448 0)
(-0.316051 0.483094 0)
(-0.373589 0.480389 0)
(-0.418648 0.462775 0)
(-0.453338 0.434947 0)
(-0.478712 0.403517 0)
(-0.491529 0.37176 0)
(-0.495189 0.342764 0)
(-0.497405 0.312137 0)
(-0.50038 0.27642 0)
(-0.5018 0.235241 0)
(-0.498837 0.188433 0)
(-0.489999 0.14213 0)
(-0.476953 0.0994963 0)
(-0.464731 0.0643658 0)
(-0.453084 0.0374915 0)
(-0.439083 0.0200989 0)
(-0.424002 0.00855314 0)
(-0.408975 -0.000224752 0)
(-0.394133 -0.00751686 0)
(-0.380066 -0.0131927 0)
(-0.367064 -0.0175294 0)
(-0.169302 -0.558856 0)
(-0.19523 -0.539218 0)
(-0.211781 -0.505604 0)
(-0.214964 -0.45689 0)
(-0.200148 -0.391661 0)
(-0.172842 -0.302999 0)
(-0.14241 -0.183604 0)
(-0.11818 -0.0325995 0)
(-0.120112 0.134771 0)
(-0.172144 0.285709 0)
(-0.2606 0.393347 0)
(-0.352414 0.450565 0)
(-0.427737 0.471397 0)
(-0.483232 0.467148 0)
(-0.520881 0.44781 0)
(-0.541185 0.42153 0)
(-0.547653 0.391875 0)
(-0.549056 0.363717 0)
(-0.549999 0.333505 0)
(-0.552855 0.296907 0)
(-0.554032 0.254025 0)
(-0.548537 0.205861 0)
(-0.535656 0.15711 0)
(-0.520746 0.110628 0)
(-0.505683 0.0704597 0)
(-0.48769 0.0403535 0)
(-0.470128 0.0208474 0)
(-0.452913 0.00832876 0)
(-0.436678 0.000580883 0)
(-0.421877 -0.00411734 0)
(-0.408717 -0.00676563 0)
(-0.398197 -0.00825382 0)
(-0.390178 -0.00936491 0)
(-0.222385 -0.52533 0)
(-0.252608 -0.506731 0)
(-0.270566 -0.476595 0)
(-0.276982 -0.433368 0)
(-0.267149 -0.372696 0)
(-0.237417 -0.288685 0)
(-0.199124 -0.177209 0)
(-0.169798 -0.0374111 0)
(-0.168345 0.11711 0)
(-0.223372 0.265067 0)
(-0.329082 0.37651 0)
(-0.439493 0.432671 0)
(-0.52057 0.448175 0)
(-0.569613 0.444155 0)
(-0.591897 0.426267 0)
(-0.600314 0.404132 0)
(-0.602735 0.377664 0)
(-0.602248 0.346777 0)
(-0.603173 0.309159 0)
(-0.602612 0.264259 0)
(-0.594479 0.214954 0)
(-0.578961 0.163922 0)
(-0.561248 0.114528 0)
(-0.542988 0.0703904 0)
(-0.523142 0.0390555 0)
(-0.50477 0.0174736 0)
(-0.4884 0.00530376 0)
(-0.472936 0.000113573 0)
(-0.459249 -0.000520374 0)
(-0.449169 0.00136061 0)
(-0.442545 0.00389752 0)
(-0.438904 0.00597438 0)
(-0.437496 0.00709712 0)
(-0.261354 -0.485344 0)
(-0.295751 -0.46509 0)
(-0.317853 -0.435181 0)
(-0.325419 -0.39415 0)
(-0.31547 -0.338644 0)
(-0.288774 -0.265473 0)
(-0.245083 -0.169196 0)
(-0.205521 -0.0481804 0)
(-0.198468 0.0918631 0)
(-0.253565 0.229237 0)
(-0.374557 0.341214 0)
(-0.502043 0.402729 0)
(-0.581904 0.420086 0)
(-0.622764 0.417053 0)
(-0.643096 0.403329 0)
(-0.650824 0.380077 0)
(-0.653297 0.350614 0)
(-0.652656 0.31209 0)
(-0.64798 0.265373 0)
(-0.636538 0.214555 0)
(-0.619604 0.162876 0)
(-0.600782 0.111595 0)
(-0.581007 0.0663196 0)
(-0.562478 0.0336935 0)
(-0.54709 0.0120008 0)
(-0.533306 0.000440738 0)
(-0.520642 -0.0025988 0)
(-0.510901 0.000235473 0)
(-0.504476 0.0056318 0)
(-0.501571 0.0124661 0)
(-0.501725 0.0188121 0)
(-0.503929 0.0234917 0)
(-0.506562 0.0258791 0)
(-0.28388 -0.439468 0)
(-0.321019 -0.41792 0)
(-0.347744 -0.386971 0)
(-0.360614 -0.343697 0)
(-0.355864 -0.288253 0)
(-0.332429 -0.218084 0)
(-0.296174 -0.13224 0)
(-0.257999 -0.0348558 0)
(-0.241363 0.0754954 0)
(-0.282527 0.190002 0)
(-0.39533 0.293368 0)
(-0.528265 0.36062 0)
(-0.618541 0.384744 0)
(-0.663903 0.382614 0)
(-0.686171 0.367422 0)
(-0.695976 0.340409 0)
(-0.69695 0.303202 0)
(-0.689723 0.256708 0)
(-0.675339 0.205571 0)
(-0.656999 0.153971 0)
(-0.637996 0.102569 0)
(-0.619973 0.0584054 0)
(-0.604187 0.025928 0)
(-0.592221 0.00488939 0)
(-0.582627 -0.00591466 0)
(-0.574284 -0.00636599 0)
(-0.568653 -0.000987934 0)
(-0.566178 0.00861449 0)
(-0.566622 0.0199393 0)
(-0.569901 0.0310162 0)
(-0.574581 0.0397202 0)
(-0.578377 0.0448871 0)
(-0.580007 0.0457145 0)
(-0.284582 -0.39108 0)
(-0.323819 -0.36985 0)
(-0.352753 -0.337636 0)
(-0.367774 -0.294603 0)
(-0.368081 -0.241603 0)
(-0.353111 -0.18008 0)
(-0.324025 -0.108157 0)
(-0.287305 -0.0242589 0)
(-0.263676 0.0615647 0)
(-0.288165 0.143836 0)
(-0.385653 0.223043 0)
(-0.52422 0.288972 0)
(-0.632454 0.322988 0)
(-0.690543 0.326674 0)
(-0.718586 0.310149 0)
(-0.727626 0.278961 0)
(-0.72296 0.236884 0)
(-0.709221 0.188565 0)
(-0.690232 0.138084 0)
(-0.671466 0.0894325 0)
(-0.656052 0.0468824 0)
(-0.64379 0.0161259 0)
(-0.6356 -0.00314205 0)
(-0.630599 -0.0124339 0)
(-0.62672 -0.0111658 0)
(-0.625258 -0.00269232 0)
(-0.626933 0.0104552 0)
(-0.630938 0.0261717 0)
(-0.636482 0.0409821 0)
(-0.641661 0.0528616 0)
(-0.645472 0.0609136 0)
(-0.646776 0.0637381 0)
(-0.644302 0.0610783 0)
(-0.266544 -0.34696 0)
(-0.301701 -0.325875 0)
(-0.329696 -0.293144 0)
(-0.346357 -0.250759 0)
(-0.349855 -0.199806 0)
(-0.339422 -0.144286 0)
(-0.317734 -0.0866162 0)
(-0.289825 -0.0286785 0)
(-0.269222 0.0298526 0)
(-0.282442 0.0821409 0)
(-0.35712 0.127023 0)
(-0.488424 0.181732 0)
(-0.614798 0.228404 0)
(-0.691508 0.242041 0)
(-0.726386 0.229865 0)
(-0.735857 0.201172 0)
(-0.730294 0.16152 0)
(-0.716123 0.116586 0)
(-0.699494 0.0730144 0)
(-0.686641 0.0341735 0)
(-0.678331 0.00584785 0)
(-0.673542 -0.0110397 0)
(-0.672498 -0.0183603 0)
(-0.672923 -0.0159988 0)
(-0.675176 -0.00471349 0)
(-0.680608 0.0113136 0)
(-0.68751 0.0303675 0)
(-0.694868 0.0488288 0)
(-0.700835 0.0640827 0)
(-0.704035 0.0747117 0)
(-0.704786 0.0799057 0)
(-0.702553 0.0790131 0)
(-0.69646 0.0723413 0)
(-0.237866 -0.312577 0)
(-0.266057 -0.293735 0)
(-0.286858 -0.264066 0)
(-0.29796 -0.224019 0)
(-0.299074 -0.175708 0)
(-0.290458 -0.123568 0)
(-0.274178 -0.0739858 0)
(-0.255525 -0.0331289 0)
(-0.244977 -0.00667492 0)
(-0.256106 0.00992881 0)
(-0.315392 0.0278268 0)
(-0.427027 0.0616862 0)
(-0.556702 0.107953 0)
(-0.654791 0.13785 0)
(-0.704386 0.137643 0)
(-0.722547 0.11748 0)
(-0.723937 0.0867245 0)
(-0.716721 0.0526392 0)
(-0.708631 0.0212179 0)
(-0.704608 -0.00348631 0)
(-0.703526 -0.0175229 0)
(-0.70573 -0.0225044 0)
(-0.710293 -0.0192425 0)
(-0.715668 -0.00671171 0)
(-0.72354 0.0116085 0)
(-0.733181 0.0331045 0)
(-0.742163 0.0546902 0)
(-0.749342 0.0732223 0)
(-0.753493 0.0870617 0)
(-0.754317 0.0947079 0)
(-0.752485 0.0958959 0)
(-0.747534 0.0908547 0)
(-0.737711 0.0805431 0)
(-0.205223 -0.289732 0)
(-0.227217 -0.27552 0)
(-0.24123 -0.250626 0)
(-0.245352 -0.214795 0)
(-0.240783 -0.17133 0)
(-0.230121 -0.125382 0)
(-0.217076 -0.0832658 0)
(-0.206905 -0.0517036 0)
(-0.207133 -0.0354755 0)
(-0.225277 -0.0348193 0)
(-0.272031 -0.0439335 0)
(-0.358224 -0.0394009 0)
(-0.472892 -0.00881829 0)
(-0.582893 0.0291611 0)
(-0.656428 0.0453112 0)
(-0.692297 0.0394666 0)
(-0.707886 0.023461 0)
(-0.714276 0.00517027 0)
(-0.718933 -0.0112676 0)
(-0.723885 -0.0216801 0)
(-0.729572 -0.0239438 0)
(-0.737793 -0.0195432 0)
(-0.746406 -0.00732448 0)
(-0.755869 0.0123773 0)
(-0.767065 0.0351908 0)
(-0.777907 0.0590046 0)
(-0.786671 0.0806831 0)
(-0.792438 0.0977895 0)
(-0.794891 0.108662 0)
(-0.79388 0.11257 0)
(-0.789353 0.109604 0)
(-0.780777 0.100517 0)
(-0.768472 0.0854093 0)
(-0.171561 -0.274161 0)
(-0.189077 -0.267242 0)
(-0.196747 -0.250112 0)
(-0.195036 -0.222011 0)
(-0.186865 -0.185004 0)
(-0.17449 -0.144321 0)
(-0.162381 -0.107355 0)
(-0.156921 -0.0808239 0)
(-0.163525 -0.0697883 0)
(-0.185452 -0.0729972 0)
(-0.22739 -0.0871474 0)
(-0.292825 -0.0986569 0)
(-0.383321 -0.0921699 0)
(-0.488982 -0.0652086 0)
(-0.584334 -0.0355363 0)
(-0.647943 -0.0216328 0)
(-0.68545 -0.0196802 0)
(-0.710636 -0.021875 0)
(-0.729127 -0.0242818 0)
(-0.742866 -0.0225677 0)
(-0.755592 -0.0161917 0)
(-0.768291 -0.00460873 0)
(-0.779474 0.0145361 0)
(-0.791229 0.0381825 0)
(-0.803271 0.0630358 0)
(-0.813184 0.0869107 0)
(-0.820347 0.107069 0)
(-0.824436 0.121592 0)
(-0.824807 0.129074 0)
(-0.821067 0.129097 0)
(-0.81359 0.121546 0)
(-0.802898 0.106775 0)
(-0.78915 0.0857129 0)
(-0.139014 -0.261924 0)
(-0.155306 -0.264092 0)
(-0.161823 -0.256863 0)
(-0.157276 -0.239926 0)
(-0.145054 -0.212929 0)
(-0.130017 -0.179949 0)
(-0.116787 -0.146073 0)
(-0.110569 -0.118 0)
(-0.117028 -0.103227 0)
(-0.139571 -0.104332 0)
(-0.17805 -0.116724 0)
(-0.232954 -0.130884 0)
(-0.306854 -0.134401 0)
(-0.402767 -0.118018 0)
(-0.508208 -0.0858324 0)
(-0.598246 -0.0566517 0)
(-0.662364 -0.0397607 0)
(-0.707152 -0.0294113 0)
(-0.738565 -0.0202834 0)
(-0.761789 -0.00956644 0)
(-0.780804 0.00241937 0)
(-0.795724 0.02 0)
(-0.807625 0.0433507 0)
(-0.819275 0.0680115 0)
(-0.829509 0.0928152 0)
(-0.83709 0.115184 0)
(-0.841835 0.133 0)
(-0.843242 0.14421 0)
(-0.841018 0.148144 0)
(-0.834994 0.142642 0)
(-0.825663 0.128778 0)
(-0.812888 0.10777 0)
(-0.7961 0.0822143 0)
(-0.110045 -0.251967 0)
(-0.126948 -0.263884 0)
(-0.134557 -0.266899 0)
(-0.13155 -0.259889 0)
(-0.120182 -0.242425 0)
(-0.104765 -0.218061 0)
(-0.0890254 -0.190007 0)
(-0.0789597 -0.161692 0)
(-0.0811102 -0.138897 0)
(-0.0988528 -0.128831 0)
(-0.132649 -0.13316 0)
(-0.180346 -0.143812 0)
(-0.24425 -0.149248 0)
(-0.330846 -0.138556 0)
(-0.43936 -0.107811 0)
(-0.550678 -0.0702601 0)
(-0.641264 -0.0415235 0)
(-0.705299 -0.0210008 0)
(-0.749098 -0.00356789 0)
(-0.780989 0.013305 0)
(-0.803044 0.0297546 0)
(-0.816178 0.0508114 0)
(-0.826408 0.0746133 0)
(-0.835641 0.0985801 0)
(-0.842538 0.12199 0)
(-0.846932 0.142325 0)
(-0.848638 0.157832 0)
(-0.846812 0.165341 0)
(-0.84208 0.163983 0)
(-0.834034 0.15314 0)
(-0.821386 0.133701 0)
(-0.804783 0.108064 0)
(-0.785231 0.0785622 0)
(-0.0858465 -0.242751 0)
(-0.104028 -0.262632 0)
(-0.113782 -0.276716 0)
(-0.113577 -0.279976 0)
(-0.105027 -0.270655 0)
(-0.0926296 -0.251913 0)
(-0.0796915 -0.227224 0)
(-0.0693355 -0.200477 0)
(-0.0659511 -0.174347 0)
(-0.0759581 -0.153921 0)
(-0.101928 -0.144414 0)
(-0.142325 -0.144622 0)
(-0.198722 -0.145438 0)
(-0.278034 -0.13481 0)
(-0.386338 -0.105155 0)
(-0.512126 -0.0635512 0)
(-0.625446 -0.0257009 0)
(-0.707188 0.00210936 0)
(-0.760606 0.0240043 0)
(-0.796354 0.0421693 0)
(-0.817246 0.0609384 0)
(-0.82748 0.0826217 0)
(-0.834804 0.105086 0)
(-0.840309 0.12805 0)
(-0.843075 0.149704 0)
(-0.842886 0.16858 0)
(-0.840384 0.18063 0)
(-0.835087 0.184033 0)
(-0.826029 0.177105 0)
(-0.813381 0.160956 0)
(-0.796557 0.135891 0)
(-0.776377 0.104187 0)
(-0.755459 0.0683795 0)
(-0.0669372 -0.23366 0)
(-0.0867645 -0.258983 0)
(-0.0997626 -0.28313 0)
(-0.102586 -0.29688 0)
(-0.097282 -0.29583 0)
(-0.0883694 -0.282379 0)
(-0.0792695 -0.259235 0)
(-0.0733492 -0.231132 0)
(-0.0731103 -0.201662 0)
(-0.0797972 -0.174415 0)
(-0.0966723 -0.153632 0)
(-0.128178 -0.140798 0)
(-0.176454 -0.131537 0)
(-0.24727 -0.115746 0)
(-0.350866 -0.0846519 0)
(-0.482744 -0.0410871 0)
(-0.611264 0.00117096 0)
(-0.706918 0.03187 0)
(-0.767279 0.0536245 0)
(-0.803936 0.0720444 0)
(-0.822448 0.0918615 0)
(-0.83048 0.113135 0)
(-0.83457 0.134316 0)
(-0.835334 0.155682 0)
(-0.832035 0.175779 0)
(-0.826278 0.191759 0)
(-0.818651 0.199437 0)
(-0.807741 0.197953 0)
(-0.79354 0.186035 0)
(-0.775829 0.164338 0)
(-0.755037 0.134126 0)
(-0.732804 0.0974448 0)
(-0.711015 0.0571282 0)
(-0.0551708 -0.225853 0)
(-0.075202 -0.252851 0)
(-0.0919188 -0.284638 0)
(-0.0987502 -0.308165 0)
(-0.097568 -0.315861 0)
(-0.0929305 -0.308218 0)
(-0.0882576 -0.286899 0)
(-0.087246 -0.257103 0)
(-0.0914204 -0.223111 0)
(-0.101602 -0.187372 0)
(-0.117318 -0.156638 0)
(-0.142319 -0.131638 0)
(-0.181864 -0.1106 0)
(-0.24109 -0.0877885 0)
(-0.333612 -0.0539099 0)
(-0.463983 -0.00982999 0)
(-0.602335 0.0337938 0)
(-0.708684 0.0648402 0)
(-0.773116 0.0847823 0)
(-0.808038 0.103346 0)
(-0.823642 0.122419 0)
(-0.828728 0.141907 0)
(-0.828488 0.161316 0)
(-0.822843 0.180976 0)
(-0.812986 0.198298 0)
(-0.801082 0.209765 0)
(-0.787263 0.212901 0)
(-0.770499 0.206398 0)
(-0.750525 0.189843 0)
(-0.727688 0.164193 0)
(-0.703368 0.130557 0)
(-0.678975 0.0905484 0)
(-0.656031 0.0465951 0)
(-0.051092 -0.220828 0)
(-0.0697765 -0.24504 0)
(-0.0900903 -0.28188 0)
(-0.102357 -0.313934 0)
(-0.106805 -0.330078 0)
(-0.107616 -0.32837 0)
(-0.10844 -0.309793 0)
(-0.11359 -0.277894 0)
(-0.123338 -0.238935 0)
(-0.13741 -0.196792 0)
(-0.153494 -0.157831 0)
(-0.173649 -0.122566 0)
(-0.206068 -0.0898138 0)
(-0.254109 -0.0590637 0)
(-0.333833 -0.021901 0)
(-0.45875 0.0224371 0)
(-0.600076 0.0662914 0)
(-0.713348 0.0969214 0)
(-0.77852 0.11503 0)
(-0.809857 0.13265 0)
(-0.822652 0.150055 0)
(-0.824161 0.167239 0)
(-0.818257 0.184657 0)
(-0.806277 0.201623 0)
(-0.790147 0.215945 0)
(-0.771832 0.222289 0)
(-0.751974 0.220412 0)
(-0.729244 0.209243 0)
(-0.703445 0.188827 0)
(-0.67549 0.159854 0)
(-0.647453 0.122819 0)
(-0.620985 0.0794782 0)
(-0.597087 0.0321672 0)
(-0.0555147 -0.221148 0)
(-0.0712896 -0.237671 0)
(-0.0941071 -0.275805 0)
(-0.112685 -0.314542 0)
(-0.124177 -0.337981 0)
(-0.132102 -0.341386 0)
(-0.140048 -0.324901 0)
(-0.152879 -0.292212 0)
(-0.170488 -0.249567 0)
(-0.190602 -0.201773 0)
(-0.207301 -0.155748 0)
(-0.222144 -0.112593 0)
(-0.245693 -0.071053 0)
(-0.282164 -0.033784 0)
(-0.34872 0.00497958 0)
(-0.462817 0.0501921 0)
(-0.602124 0.0951899 0)
(-0.718924 0.124674 0)
(-0.783526 0.143328 0)
(-0.811056 0.158142 0)
(-0.820838 0.17355 0)
(-0.818231 0.188716 0)
(-0.806931 0.203791 0)
(-0.787949 0.217939 0)
(-0.76617 0.227159 0)
(-0.743195 0.229117 0)
(-0.717249 0.222538 0)
(-0.688651 0.207111 0)
(-0.657303 0.183243 0)
(-0.624976 0.151115 0)
(-0.593636 0.111733 0)
(-0.564198 0.0668806 0)
(-0.537737 0.0191574 0)
(-0.0660682 -0.224745 0)
(-0.0781776 -0.231497 0)
(-0.102838 -0.267508 0)
(-0.128661 -0.310309 0)
(-0.14841 -0.339384 0)