/*--------------------------------*- C++ -*----------------------------------*\
  =========                 |
  \\      /  F ield         | OpenFOAM: The Open Source CFD Toolbox
   \\    /   O peration     | Website:  https://openfoam.org
    \\  /    A nd           | Version:  11
     \\/     M anipulation  |
\*---------------------------------------------------------------------------*/
FoamFile
{
    format      ascii;
    class       volScalarField;
    location    "6";
    object      p;
}
// * * * * * * * * * * * * * * * * * * * * * * * * * * * * * * * * * * * * * //

dimensions      [0 2 -2 0 0 0 0];

internalField   nonuniform List<scalar> 
9600
(
0.068595
0.069784
0.0715636
0.073756
0.0761814
0.0786127
0.0809022
0.0830367
0.0848265
0.0859956
0.0860179
0.0846871
0.0818743
0.0773692
0.0706032
0.0605882
0.0481114
0.0344295
0.019454
0.0039395
-0.00820214
-0.0157696
-0.0181616
-0.0145784
-0.00582144
0.00722461
0.0231034
0.0393735
0.0528246
0.061544
0.0621212
0.0490776
0.0227651
-0.0071422
-0.0340169
-0.0440052
-0.0376801
-0.0263958
-0.0182537
-0.0143009
0.0692159
0.0708334
0.0729524
0.0753043
0.0777235
0.0800362
0.0822051
0.0841235
0.0856191
0.0864629
0.0859016
0.0840748
0.0808157
0.076001
0.0688832
0.0584518
0.0462051
0.0328163
0.01829
0.00342871
-0.00824568
-0.0158053
-0.0186175
-0.0157779
-0.007846
0.00330153
0.0184293
0.034634
0.0487278
0.0598075
0.064125
0.0570772
0.035976
0.00653307
-0.023993
-0.0430355
-0.0439265
-0.0344353
-0.0238117
-0.0175642
0.0697313
0.0714968
0.0736668
0.0759051
0.0781724
0.080381
0.0824289
0.084207
0.0856253
0.0861805
0.0855231
0.0836609
0.0804442
0.0754695
0.0681953
0.0583062
0.0461489
0.0327515
0.0181679
0.00329622
-0.00837925
-0.0159996
-0.0189437
-0.0161814
-0.00852077
0.00318202
0.0176965
0.0336756
0.0479681
0.0584746
0.0640118
0.0590616
0.0401633
0.0127963
-0.0174951
-0.0399203
-0.0451775
-0.0365271
-0.0251758
-0.0179188
0.0703839
0.0723082
0.0746152
0.0769286
0.0792269
0.0814002
0.0834031
0.0851003
0.086279
0.0866042
0.085714
0.0835463
0.0798706
0.074587
0.067093
0.0569745
0.0446833
0.0313489
0.0171437
0.00271922
-0.00889777
-0.0164774
-0.0196382
-0.0174613
-0.0106092
0.00014295
0.0132632
0.0294202
0.0448009
0.0566776
0.0638931
0.0627042
0.0480902
0.0229213
-0.00818396
-0.0355575
-0.0488499
-0.0438887
-0.0318768
-0.0231383
0.0711533
0.0731896
0.075583
0.077891
0.0800915
0.082138
0.0839555
0.0854189
0.0863592
0.0864069
0.0852269
0.082873
0.0792481
0.0738072
0.0661712
0.0561065
0.0439706
0.030952
0.0167169
0.00243124
-0.00938417
-0.0171315
-0.0203719
-0.0183223
-0.0116823
-0.00107235
0.0126451
0.0268716
0.0423732
0.0552236
0.0635429
0.0645822
0.0533812
0.0309408
0.000319856
-0.0284736
-0.0483707
-0.0489207
-0.0377848
-0.026951
0.0720152
0.0741192
0.0765572
0.0788374
0.0809769
0.0829333
0.0846303
0.0859799
0.0867675
0.0866436
0.0853876
0.0828719
0.0788447
0.0731203
0.0653205
0.0551782
0.0430813
0.02993
0.0156314
0.00175409
-0.0100191
-0.0179746
-0.0214411
-0.019883
-0.0138303
-0.00403934
0.00816383
0.0233297
0.0390347
0.0529416
0.0626382
0.0660892
0.0586303
0.0392669
0.00963407
-0.0212991
-0.0463775
-0.0541829
-0.0456821
-0.0338545
0.0729404
0.0750841
0.0775434
0.0797932
0.0818883
0.0837332
0.0853048
0.0864996
0.0870338
0.0866438
0.0851175
0.0823532
0.0782473
0.0724095
0.0644645
0.0542432
0.0421457
0.028981
0.0148289
0.000916438
-0.0108014
-0.0189246
-0.0226628
-0.0213363
-0.0155204
-0.00587504
0.0061371
0.0204189
0.0356617
0.0502338
0.0615111
0.0668956
0.0628615
0.0468194
0.01918
-0.0132221
-0.0421374
-0.05754
-0.054259
-0.0422233
0.0739166
0.0760818
0.0785446
0.0807766
0.082804
0.0845417
0.0859857
0.0869829
0.0872951
0.0867149
0.0850866
0.0822079
0.0779012
0.0718128
0.0636835
0.0533756
0.0412753
0.0280586
0.0138626
-1.81343e-05
-0.0117639
-0.0200074
-0.024073
-0.023149
-0.0178171
-0.00873643
0.00305346
0.0168161
0.0320576
0.0469634
0.0597386
0.0670482
0.0663712
0.0539163
0.0290515
-0.00417798
-0.0369468
-0.0591809
-0.0633151
-0.052777
0.0749354
0.0771217
0.0795807
0.081773
0.0837191
0.0853597
0.0866603
0.0874551
0.087568
0.0868418
0.085052
0.0819632
0.0774583
0.0711853
0.0628898
0.052483
0.0403046
0.0269715
0.0127211
-0.00113061
-0.0129342
-0.021349
-0.0257788
-0.0251818
-0.0201302
-0.0113254
0.000237381
0.0138515
0.0285124
0.0435064
0.0574082
0.0664197
0.0689254
0.060196
0.0388838
0.00579553
-0.0298667
-0.0587052
-0.0715204
-0.0648459
0.0759964
0.0782057
0.0806475
0.0827764
0.0846342
0.0861905
0.0873467
0.0879337
0.0878665
0.0870024
0.0850341
0.0817656
0.0771007
0.07064
0.0621497
0.0516233
0.0393337
0.0258755
0.0115527
-0.00236689
-0.0142769
-0.0228571
-0.0276139
-0.0273543
-0.0227178
-0.0143957
-0.00311587
0.0101222
0.0245553
0.0396587
0.0544583
0.0648366
0.0704313
0.0656314
0.0485368
0.016608
-0.0207771
-0.0566228
-0.0784694
-0.0787287
0.0771185
0.0793334
0.0817332
0.0837912
0.0855689
0.0870306
0.0880425
0.0884378
0.0881973
0.0871883
0.0850574
0.0816356
0.0767836
0.0700973
0.0614001
0.0507338
0.0382921
0.0246436
0.0101856
-0.00381551
-0.0158452
-0.0245983
-0.0297672
-0.0299067
-0.0256106
-0.0176471
-0.00661243
0.00628623
0.0205714
0.035531
0.0510647
0.0622162
0.0706588
0.0697948
0.0574189
0.0285606
-0.00958668
-0.0524236
-0.082593
-0.0934155
0.0782994
0.0804996
0.0828394
0.0848189
0.0865248
0.0878883
0.0887583
0.088987
0.0885764
0.0874238
0.085168
0.0815407
0.0764948
0.0696
0.0606631
0.0498215
0.0371915
0.0233331
0.00871693
-0.00542003
-0.0176431
-0.0265849
-0.0320428
-0.0326555
-0.0287314
-0.0211684
-0.0104165
0.00211442
0.0161029
0.0308754
0.0463864
0.0588795
0.0695862
0.0723362
0.0650334
0.0409472
0.00393545
-0.0462472
-0.0833167
-0.107853
0.0795464
0.0816903
0.0839625
0.0858729
0.0875077
0.0887758
0.0895073
0.089576
0.0890226
0.0877026
0.0852886
0.0814917
0.076247
0.069112
0.059911
0.0488868
0.0360183
0.0218851
0.00706044
-0.00722351
-0.0196211
-0.0288039
-0.0345584
-0.0357101
-0.0322313
-0.0250561
-0.0145567
-0.00233989
0.011371
0.0259038
0.0409094
0.0548937
0.0668786
0.0727883
0.0706682
0.0527476
0.0196653
-0.0361472
-0.080918
-0.118928
0.0808399
0.0829109
0.085117
0.0869677
0.0885353
0.0897015
0.0902956
0.0902334
0.0895305
0.088042
0.0855035
0.0815021
0.0760146
0.0686432
0.0591783
0.0478838
0.0347382
0.0202941
0.0052417
-0.00922813
-0.0218304
-0.0313455
-0.0373889
-0.0390001
-0.035993
-0.0292557
-0.0190382
-0.00711433
0.00631922
0.0205069
0.0349539
0.0497747
0.0626823
0.0711069
0.0734501
0.0633269
0.0356196
-0.0184895
-0.0729452
-0.124636
0.0821756
0.0841695
0.0863127
0.0881068
0.0896178
0.0906781
0.0911431
0.0909627
0.0901195
0.0884735
0.0857507
0.0815469
0.0758192
0.0681855
0.0583939
0.0468002
0.033356
0.0185769
0.00322675
-0.0114888
-0.0243326
-0.0341106
-0.0404767
-0.042578
-0.0400367
-0.033797
-0.0239814
-0.0122952
0.000870548
0.0147883
0.0289787
0.0438283
0.0570307
0.0676497
0.0724946
0.0707076
0.050698
0.00471838
-0.0574805
-0.121569
0.0835626
0.085469
0.0875605
0.0893171
0.0907582
0.0917291
0.0920805
0.0917694
0.0908009
0.0889742
0.0860643
0.0816624
0.0756516
0.0676972
0.0575697
0.045657
0.0318431
0.0166457
0.000990217
-0.0139813
-0.0270601
-0.0371649
-0.0438825
-0.0465072
-0.0444254
-0.0386787
-0.0293565
-0.0178612
-0.00499957
0.00876132
0.0226055
0.0371816
0.0501337
0.0625974
0.0683376
0.0727088
0.0602752
0.0301105
-0.0351544
-0.103855
0.085011
0.0868246
0.0888766
0.0906002
0.0919773
0.0928733
0.0931155
0.0927027
0.091558
0.0895367
0.0864664
0.0818017
0.0754765
0.067199
0.0567051
0.0443747
0.0301443
0.0145219
-0.00146075
-0.0167412
-0.0300976
-0.0406209
-0.0475876
-0.0507314
-0.0491784
-0.043919
-0.0351219
-0.0239078
-0.0113669
0.00226324
0.0156882
0.0306034
0.042836
0.0552453
0.0632215
0.0698209
0.0616732
0.051759
-0.0130318
-0.0668328
0.0865185
0.0882664
0.0902962
0.0919925
0.0933072
0.094124
0.0942833
0.0937321
0.0924251
0.0902136
0.0869023
0.0819915
0.0753278
0.0666379
0.0557319
0.0429449
0.0282902
0.0121926
-0.00418564
-0.0198563
-0.0334416
-0.0443181
-0.0516148
-0.0552545
-0.0543306
-0.0495743
-0.0413265
-0.030489
-0.0183107
-0.0046889
0.00836363
0.0226155
0.0351465
0.0466249
0.0574978
0.0647363
0.0597078
0.0622652
0.00916743
-0.0254864
0.0881163
0.0898008
0.0918395
0.0935325
0.0947702
0.0955186
0.0955765
0.0948631
0.0934071
0.0909648
0.087419
0.082199
0.0751516
0.0660203
0.0546468
0.04136
0.0262155
0.00955245
-0.00721926
-0.0232835
-0.0371068
-0.0484023
-0.056046
-0.0601275
-0.0598143
-0.0557354
-0.0481311
-0.0375074
-0.0257551
-0.0125246
0.000534156
0.0142811
0.0275254
0.0378461
0.0497404
0.0576541
0.0577013
0.0632794
0.0252749
-0.000978669
0.089837
0.0914918
0.0935457
0.0952281
0.0963997
0.0970625
0.0970042
0.0961439
0.0945052
0.0918233
0.0880012
0.0824046
0.0749372
0.0653086
0.0534145
0.0395644
0.0238619
0.00659969
-0.0105557
-0.0271058
-0.0411998
-0.0528242
-0.0608871
-0.0654017
-0.0657147
-0.0622048
-0.0554916
-0.0452752
-0.0338856
-0.0209481
-0.00760578
0.00554476
0.0186843
0.028992
0.0401821
0.048739
0.0529969
0.0559112
0.039255
0.00829194
0.091732
0.0933766
0.0954348
0.0971073
0.0982116
0.0987423
0.0986026
0.0975757
0.0957287
0.0927613
0.0886193
0.0826291
0.0746413
0.0644824
0.0519842
0.0374777
0.0212137
0.003286
-0.0142962
-0.0313511
-0.0457367
-0.0576712
-0.0661255
-0.0710648
-0.0721884
-0.0690673
-0.0633445
-0.0538361
-0.0425683
-0.030034
-0.0168788
-0.00368548
0.00958976
0.0199031
0.0300441
0.039379
0.045054
0.0458157
0.0410268
0.0123983
0.093843
0.095472
0.0975375
0.0991785
0.100241
0.100658
0.100357
0.099163
0.097122
0.0937898
0.0892879
0.0828335
0.074189
0.0634931
0.0503658
0.0350461
0.018214
-0.000434589
-0.0185535
-0.0360589
-0.0507358
-0.0629211
-0.0719335
-0.0770562
-0.0791225
-0.0766118
-0.0715055
-0.0630383
-0.0521692
-0.039914
-0.0268338
-0.0137464
-0.000393257
0.0104862
0.0193787
0.0293061
0.0352231
0.0355341
0.0368799
0.0149902
0.0962007
0.0977982
0.0999055
0.101506
0.102489
0.102824
0.102338
0.100885
0.0986121
0.0949173
0.089904
0.0829418
0.0737183
0.0621945
0.048389
0.0322793
0.0147164
-0.00468036
-0.0233095
-0.0411852
-0.0565218
-0.068573
-0.0785143
-0.0836456
-0.0863833
-0.0847764
-0.0801798
-0.0728737
-0.0626724
-0.0508137
-0.0376947
-0.0246442
-0.0115139
0.000409743
0.00930938
0.0182773
0.0257805
0.0267073
0.025498
0.0139833
0.0988483
0.100411
0.102546
0.104171
0.105019
0.105205
0.104581
0.102776
0.100265
0.096141
0.0904823
0.0829195
0.072941
0.0606588
0.0460857
0.0290106
0.0106185
-0.00940543
-0.0288359
-0.0468066
-0.0628504
-0.0748859
-0.0851897
-0.0909862
-0.0940143
-0.0935704
-0.0895381
-0.0833076
-0.0740088
-0.0626965
-0.0499971
-0.0367897
-0.0235652
-0.0106714
-0.00101605
0.00702683
0.0158666
0.0192687
0.0156865
0.00764819
0.101839
0.103387
0.105513
0.107167
0.107901
0.107812
0.107015
0.104917
0.101962
0.0973863
0.0909502
0.0827747
0.0718669
0.0586346
0.0432582
0.0252108
0.0058365
-0.0147295
-0.0351139
-0.0531513
-0.0696784
-0.0820422
-0.0924166
-0.098934
-0.102197
-0.102911
-0.0997416
-0.0943186
-0.0862972
-0.0759513
-0.0633549
-0.0503278
-0.0373195
-0.0235493
-0.0120973
-0.00405454
0.00449315
0.011197
0.00948083
0.00210769
0.105264
0.106803
0.108901
0.110472
0.111146
0.110751
0.109683
0.107297
0.10359
0.0986433
0.0913778
0.0822015
0.0705282
0.0561338
0.0396487
0.0208643
0.000188867
-0.0209211
-0.042115
-0.0604632
-0.0770499
-0.0900768
-0.100273
-0.107409
-0.111243
-0.11251
-0.110695
-0.106499
-0.0991825
-0.090395
-0.0786149
-0.0653898
-0.0523208
-0.0386595
-0.0252647
-0.0153332
-0.00784644
-0.000161112
0.0036466
0.00136876
0.109217
0.1107
0.112789
0.114176
0.114732
0.114134
0.112515
0.109817
0.105389
0.0996466
0.0915687
0.0812751
0.0686017
0.0530677
0.0351664
0.0156288
-0.0063656
-0.0282151
-0.0497564
-0.0689345
-0.0854055
-0.0988034
-0.10908
-0.116401
-0.120976
-0.12302
-0.121829
-0.119422
-0.113499
-0.105583
-0.09564
-0.0827015
-0.0690982
-0.0555788
-0.0416008
-0.0292323
-0.0203485
-0.0132511
-0.00599251
-0.00233644
0.113809
0.115133
0.117199
0.118488
0.118704
0.117876
0.11567
0.112278
0.107164
0.100454
0.0913952
0.0798072
0.0658096
0.0491458
0.0299462
0.00889421
-0.0139038
-0.0367961
-0.0587178
-0.0782066
-0.0949712
-0.108199
-0.118753
-0.12635
-0.130941
-0.134194
-0.133998
-0.13238
-0.12901
-0.122384
-0.113725
-0.102522
-0.0890789
-0.0747181
-0.0607477
-0.0467449
-0.0353362
-0.0272389
-0.0193015
-0.0137563
0.119183
0.12034
0.122185
0.123313
0.123193
0.121884
0.119162
0.114822
0.108808
0.100818
0.0906368
0.0775355
0.0621484
0.04399
0.0233225
0.00086954
-0.0231348
-0.0466638
-0.0692165
-0.0887739
-0.105494
-0.119042
-0.129162
-0.137212
-0.141858
-0.145287
-0.146789
-0.146256
-0.144627
-0.140356
-0.13384
-0.124334
-0.112076
-0.0976923
-0.0829728
-0.0684388
-0.0546843
-0.0437713
-0.0354052
-0.0296
0.125309
0.12628
0.127957
0.128787
0.12824
0.126007
0.12254
0.11725
0.110059
0.100616
0.0887895
0.0743149
0.0569201
0.0373903
0.0149571
-0.00898484
-0.0341439
-0.0583913
-0.0810437
-0.101201
-0.117411
-0.130811
-0.141089
-0.148631
-0.153946
-0.157179
-0.159821
-0.160615
-0.160537
-0.15907
-0.155262
-0.148028
-0.138167
-0.12526
-0.109845
-0.0947662
-0.0795418
-0.0658001
-0.0556646
-0.0491872
0.132493
0.133032
0.134487
0.13476
0.133577
0.130735
0.125956
0.119606
0.110638
0.0995339
0.0856536
0.0693793
0.0501883
0.0284575
0.00454707
-0.0211218
-0.047338
-0.0722866
-0.0951098
-0.115123
-0.131319
-0.143756
-0.154283
-0.161065
-0.166498
-0.170307
-0.172988
-0.175482
-0.177017
-0.177744
-0.177029
-0.1738
-0.166489
-0.156589
-0.143259
-0.127338
-0.110777
-0.0953668
-0.0818679
-0.0727602
0.140935
0.14093
0.141621
0.141275
0.139014
0.13501
0.128548
0.120454
0.109986
0.096522
0.0806009
0.061943
0.0406989
0.0167277
-0.00908473
-0.0359963
-0.063696
-0.0887121
-0.111785
-0.131428
-0.147051
-0.158903
-0.168482
-0.174922
-0.179654
-0.183681
-0.187565
-0.190667
-0.193006
-0.197193
-0.199041
-0.198984
-0.196866
-0.191127
-0.181058
-0.16828
-0.152468
-0.134881
-0.118636
-0.106336
0.150635
0.149917
0.149935
0.148754
0.145184
0.139432
0.131453
0.120588
0.107382
0.0916723
0.0728512
0.0517231
0.02766
0.00141816
-0.0262971
-0.0548533
-0.0833358
-0.108808
-0.131379
-0.150905
-0.165389
-0.176322
-0.184553
-0.190504
-0.193516
-0.197821
-0.20081
-0.20453
-0.209751
-0.215597
-0.219721
-0.224432
-0.226891
-0.226116
-0.222668
-0.21492
-0.203232
-0.188727
-0.171913
-0.156372
0.161431
0.159335
0.157784
0.154709
0.149245
0.141348
0.130506
0.117309
0.101189
0.0818738
0.0604526
0.0361304
0.00931864
-0.0194196
-0.0488932
-0.0790575
-0.107719
-0.133291
-0.155055
-0.173764
-0.186669
-0.196817
-0.203256
-0.207572
-0.210235
-0.212687
-0.21547
-0.219617
-0.225103
-0.232002
-0.240247
-0.248057
-0.255147
-0.260833
-0.264101
-0.264069
-0.260866
-0.253261
-0.242092
-0.229747
0.175271
0.172044
0.168643
0.162863
0.154482
0.142956
0.128226
0.110703
0.0904983
0.0673995
0.0423154
0.0146031
-0.0152243
-0.0463154
-0.077525
-0.108816
-0.137474
-0.162387
-0.183344
-0.199543
-0.211434
-0.218919
-0.223633
-0.226791
-0.228308
-0.229374
-0.231843
-0.234641
-0.238998
-0.245819
-0.255199
-0.266957
-0.280889
-0.294223
-0.305166
-0.314902
-0.321941
-0.32548
-0.326571
-0.325013
0.183631
0.17643
0.169738
0.161439
0.149876
0.134642
0.116169
0.0947007
0.0699708
0.0429361
0.0139398
-0.0169674
-0.0497178
-0.0824819
-0.115127
-0.146161
-0.174322
-0.197843
-0.216161
-0.230046
-0.238764
-0.242908
-0.245342
-0.246772
-0.247906
-0.248558
-0.249879
-0.250883
-0.252153
-0.255538
-0.261798
-0.271905
-0.287127
-0.306319
-0.328785
-0.35246
-0.37654
-0.397891
-0.414836
-0.429304
0.210289
0.198953
0.18385
0.165495
0.143672
0.11876
0.0922187
0.0635176
0.0323611
-0.000715293
-0.0351479
-0.0705799
-0.106638
-0.141984
-0.175514
-0.205891
-0.231975
-0.252267
-0.265783
-0.273682
-0.276047
-0.274532
-0.27217
-0.271002
-0.272574
-0.274835
-0.278374
-0.280664
-0.279259
-0.274295
-0.268089
-0.26615
-0.273454
-0.290227
-0.314573
-0.343079
-0.37382
-0.406323
-0.440494
-0.471922
0.171515
0.152574
0.134008
0.113463
0.0897074
0.0619296
0.0310097
-0.00293255
-0.0396268
-0.0779002
-0.117015
-0.156179
-0.194811
-0.231967
-0.266226
-0.295886
-0.319719
-0.335666
-0.343642
-0.343292
-0.336785
-0.325621
-0.313986
-0.305479
-0.303705
-0.309577
-0.321476
-0.334513
-0.340624
-0.334655
-0.314504
-0.287292
-0.266487
-0.264041
-0.278373
-0.302773
-0.328572
-0.351238
-0.373243
-0.394194
0.241402
0.20586
0.167568
0.129152
0.0916522
0.0525569
0.0118303
-0.0303897
-0.0733101
-0.116355
-0.157962
-0.197185
-0.233173
-0.264726
-0.291981
-0.314472
-0.330951
-0.339479
-0.339461
-0.330926
-0.315048
-0.294755
-0.272435
-0.253687
-0.242384
-0.244186
-0.263968
-0.300314
-0.348802
-0.389903
-0.388692
-0.348205
-0.290559
-0.243693
-0.223589
-0.228621
-0.245155
-0.258247
-0.268572
-0.285894
-0.0729912
-0.107534
-0.147573
-0.19871
-0.252798
-0.306921
-0.359263
-0.411059
-0.459559
-0.50227
-0.536338
-0.563272
-0.585467
-0.604307
-0.617103
-0.623243
-0.621024
-0.610259
-0.589645
-0.560023
-0.522804
-0.479008
-0.430661
-0.381559
-0.338449
-0.30812
-0.298251
-0.312462
-0.348723
-0.359348
-0.358742
-0.360105
-0.355259
-0.34738
-0.338548
-0.330401
-0.324702
-0.320712
-0.318515
-0.317925
-0.0130549
-0.0127181
-0.0170962
-0.0193121
-0.017088
-0.0130777
-0.00814355
-0.00697521
-0.00156585
-0.000322407
0.0015859
0.00068455
0.000287747
-0.000386237
-0.000778462
-0.00121181
-0.00138328
-0.00147082
-0.00139085
-0.00124195
-0.00100872
-0.000765561
-0.000486963
-0.000237134
6.16653e-05
0.000410633
0.00077691
0.00116278
0.00145296
0.0017462
0.0019553
0.00217772
0.00230976
0.00245014
0.00257317
0.00278322
0.00296672
0.00310868
0.00302694
0.00276215
-0.0121903
-0.0148757
-0.0208517
-0.0240412
-0.0209531
-0.0154321
-0.00841636
-0.00671239
-0.0001952
0.000893455
0.00215883
0.00109507
0.000517897
-0.000267133
-0.000750901
-0.00127669
-0.0015143
-0.00161529
-0.00159705
-0.00145416
-0.00120122
-0.000938068
-0.000610417
-0.000345395
-3.83969e-05
0.000280713
0.000650788
0.00103352
0.00133979
0.00163356
0.00187539
0.00210201
0.00225563
0.0024209
0.0026034
0.00283169
0.00301989
0.00310215
0.00276975
0.00181006
-0.0134726
-0.0176621
-0.0257282
-0.0301826
-0.0258107
-0.0182797
-0.00867282
-0.00598707
0.00128632
0.00239505
0.00294786
0.00164422
0.000828461
-0.000100798
-0.000745664
-0.0013514
-0.00162894
-0.00175444
-0.00177527
-0.00162873
-0.00141673
-0.00118768
-0.000828729
-0.000512265
-0.00015569
0.00014601
0.000521834
0.000870277
0.0011925
0.00148018
0.00176152
0.00200761
0.00220399
0.0024081
0.00261729
0.00282411
0.00299574
0.00318998
0.00333522
0.00355206
-0.0153138
-0.0215404
-0.032251
-0.0380662
-0.0319663
-0.0216378
-0.0091954
-0.00479506
0.00290158
0.00417298
0.00391778
0.00232632
0.00121851
0.000120372
-0.000708137
-0.00139101
-0.00175166
-0.00191783
-0.00190522
-0.00177692
-0.00161848
-0.00140581
-0.00105935
-0.000722557
-0.000321926
-1.84573e-05
0.000369163
0.00067626
0.00100596
0.0012908
0.00160624
0.00186287
0.00209348
0.00230349
0.00251231
0.00270033
0.00290066
0.00306542
0.002963
0.00255048
-0.0179234
-0.0270086
-0.0412692
-0.0483324
-0.0398897
-0.0255901
-0.00995503
-0.00293904
0.00485127
0.00604228
0.00499744
0.00313669
0.00169435
0.000387767
-0.000668166
-0.00140426
-0.00185219
-0.00208507
-0.00203062
-0.00194194
-0.00178252
-0.00154795
-0.00121893
-0.000899221
-0.000506383
-0.000203145
0.000177906
0.00044902
0.000778423
0.00105819
0.00137657
0.00161977
0.00186207
0.00208325
0.00232074
0.00256217
0.00281824
0.00306165
0.00329964
0.003656
-0.0208452
-0.034637
-0.0539157
-0.0619606
-0.050065
-0.0302789
-0.0110085
-0.000560914
0.00696034
0.00806451
0.00628705
0.00416855
0.00220681
0.000690051
-0.0005745
-0.00135698
-0.00193205
-0.00224087
-0.0021875
-0.0021609
-0.00197204
-0.00170536
-0.00135796
-0.00103989
-0.00067779
-0.000384956
-2.41573e-05
0.000238765
0.00056534
0.00083478
0.00114368
0.00138698
0.00166818
0.00193462
0.00221637
0.0024977
0.00275473
0.00295598
0.00299822
0.00292747
-0.0245111
-0.0456808
-0.0712983
-0.080272
-0.0631939
-0.0359401
-0.0123192
0.00221581
0.0091226
0.0102381
0.00774694
0.00534943
0.00273051
0.00114257
-0.000427152
-0.00127302
-0.00199933
-0.00236062
-0.00239027
-0.00243982
-0.00224073
-0.00193849
-0.00155637
-0.0012065
-0.000870412
-0.000569507
-0.000221868
6.06361e-05
0.000399707
0.000693945
0.00102632
0.00130516
0.00162435
0.00191124
0.00219832
0.00245616
0.00268362
0.00291137
0.00314318
0.00350398
-0.0299519
-0.0616459
-0.0965807
-0.105161
-0.0801294
-0.042914
-0.0138392
0.00486895
0.0116866
0.0124597
0.00929031
0.00660193
0.0033413
0.00177178
-0.000186584
-0.00114694
-0.00198587
-0.00242608
-0.00261403
-0.00270073
-0.00252053
-0.00220443
-0.00184089
-0.00147659
-0.0011507
-0.000824997
-0.000492774
-0.00015676
0.000213734
0.000555238
0.000926852
0.00124292
0.00157606
0.00185432
0.00211321
0.00232937
0.00254341
0.00277729
0.0029119
0.00305297
-0.0394347
-0.0846492
-0.135377
-0.140243
-0.101836
-0.0515021
-0.0155555
0.00710729
0.0146686
0.0146528
0.0108497
0.00783115
0.00409521
0.00242495
0.0001475
-0.00101566
-0.00195215
-0.00245453
-0.00277268
-0.00283045
-0.00272777
-0.00246046
-0.00218653
-0.0018496
-0.00155233
-0.00120363
-0.000867552
-0.00048966
-0.000109656
0.000260674
0.000650774
0.000978441
0.00130811
0.00157866
0.00184557
0.00208719
0.00235563
0.00262754
0.00287053
0.00323613
-0.0551789
-0.117846
-0.186696
-0.190151
-0.129231
-0.0620026
-0.0174517
0.0089686
0.0177853
0.0167776
0.012405
0.00890114
0.00497113
0.00284429
0.000481601
-0.000934828
-0.00195696
-0.00247751
-0.00289344
-0.00291216
-0.00293114
-0.00270578
-0.0025352
-0.00223667
-0.00196719
-0.00160595
-0.001264
-0.000887423
-0.000503849
-0.000122828
0.000264367
0.000589432
0.000930181
0.00122965
0.00154993
0.00185262
0.00219895
0.00245418
0.0026781
0.00300166
-0.0781236
-0.163711
-0.256287
-0.251069
-0.161956
-0.0743274
-0.0196777
0.0106371
0.0207354
0.0188182
0.0139656
0.00980357
0.00581459
0.00302411
0.000792695
-0.000875396
-0.0020197
-0.00263253
-0.00313581
-0.0031418
-0.00324229
-0.0030037
-0.00289425
-0.00258631
-0.00232257
-0.00194344
-0.00159397
-0.00119022
-0.000762727
-0.000369031
3.00308e-05
0.000363732
0.000722719
0.00102367
0.00136892
0.00170017
0.00205786
0.00227875
0.00253736
0.00292134
-0.114876
-0.220276
-0.349471
-0.322192
-0.198343
-0.0879351
-0.0223124
0.012009
0.0232983
0.0206772
0.0155333
0.0107429
0.00649228
0.00330543
0.00101041
-0.00082739
-0.00216941
-0.00292329
-0.00348242
-0.00352862
-0.00367336
-0.00342395
-0.00335381
-0.00302058
-0.00276086
-0.00233738
-0.00196129
-0.00146784
-0.00100338
-0.000562688
-0.000140454
0.000200235
0.000571907
0.000865582
0.00121431
0.0015258
0.0018562
0.00210708
0.00243986
0.00278783
-0.167012
-0.291024
-0.464601
-0.400674
-0.235356
-0.101633
-0.0254036
0.0128794
0.0250385
0.0222688
0.0171595
0.0116788
0.00710032
0.00378922
0.00110791
-0.000742382
-0.00228531
-0.00315722
-0.00381363
-0.00394492
-0.00417462
-0.00401406
-0.00400745
-0.00367649
-0.00344814
-0.00297121
-0.00257933
-0.00200056
-0.00154171
-0.00102629
-0.000596839
-0.000181858
0.000215476
0.000545944
0.000918887
0.00123185
0.00158861
0.00190408
0.00227238
0.00259129
-0.220607
-0.384096
-0.591715
-0.474611
-0.267878
-0.114694
-0.0280139
0.013081
0.0253774
0.0232591
0.0184292
0.0123149
0.00768796
0.0041953
0.00118813
-0.000616601
-0.00232767
-0.00324744
-0.0040476
-0.00432513
-0.00468178
-0.00467866
-0.00471391
-0.00442697
-0.00421789
-0.00369907
-0.00330442
-0.00269291
-0.00225813
-0.00168228
-0.00125276
-0.000742059
-0.000316014
0.000128361
0.000551631
0.000944309
0.00135159
0.00168798
0.00214037
0.00253099
-0.264613
-0.491176
-0.702371
-0.526161
-0.28797
-0.124519
-0.0308263
0.0123534
0.0240914
0.0228329
0.0184761
0.012594
0.00793823
0.00424757
0.0011859
-0.000622196
-0.00238457
-0.00337431
-0.00429782
-0.0046958
-0.00509509
-0.00517168
-0.00516547
-0.00491739
-0.00464803
-0.00413967
-0.00374305
-0.00314761
-0.00273446
-0.00216752
-0.0017554
-0.00118332
-0.000733162
-0.000193126
0.000232115
0.000694255
0.00106949
0.0014321
0.00185936
0.00218912
-0.294822
-0.568588
-0.753274
-0.532737
-0.294869
-0.128495
-0.0335678
0.0099807
0.0211082
0.0207259
0.0172922
0.0121464
0.00756531
0.00396967
0.000957626
-0.000998696
-0.00271405
-0.00381102
-0.00467824
-0.00516885
-0.00543703
-0.00551446
-0.00539509
-0.00516541
-0.00481933
-0.00439858
-0.00396684
-0.00345197
-0.00305123
-0.00255826
-0.00218516
-0.00164014
-0.00121166
-0.000654616
-0.00024138
0.000243481
0.000571773
0.00105072
0.00155816
0.0018928
-0.301204
-0.558806
-0.701161
-0.482675
-0.279602
-0.12629
-0.0366156
0.0043555
0.0166417
0.0175452
0.0151488
0.0107191
0.00673308
0.0032204
0.000365382
-0.00181594
-0.00343867
-0.00462042
-0.00531559
-0.00591844
-0.0060446
-0.0061888
-0.00599157
-0.00583077
-0.00542185
-0.00509714
-0.00459864
-0.00418177
-0.00375184
-0.00338301
-0.00299597
-0.00250085
-0.00204038
-0.00148511
-0.00104619
-0.000522201
-9.57063e-05
0.00048517
0.000968324
0.00133131
-0.284182
-0.466764
-0.551357
-0.398098
-0.248098
-0.118027
-0.0407971
-0.00466964
0.00950898
0.0129262
0.0118204
0.00863189
0.00552506
0.00202837
-0.000463502
-0.00280345
-0.00434287
-0.00568318
-0.00637553
-0.00708082
-0.00728406
-0.00747541
-0.00731514
-0.00715649
-0.00673072
-0.00635775
-0.00579281
-0.00537129
-0.00486661
-0.00449446
-0.00396739
-0.00349046
-0.00293535
-0.00240373
-0.00186873
-0.00128961
-0.000719661
-0.000106308
0.000383636
0.000757414
-0.211251
-0.35708
-0.390451
-0.302646
-0.203226
-0.106394
-0.0478834
-0.0164808
-0.00074615
0.00579772
0.00665439
0.00563684
0.00372435
0.000735677
-0.0012524
-0.00364674
-0.00515528
-0.00682878
-0.00766272
-0.00835512
-0.00868072
-0.00885126
-0.00871381
-0.00846357
-0.00797617
-0.00748836
-0.00685158
-0.0063249
-0.00573457
-0.00521453
-0.00461209
-0.00410651
-0.00347992
-0.0029613
-0.00234721
-0.00174387
-0.00112086
-0.000563484
-0.000105675
0.000225212
-0.128363
-0.239778
-0.257761
-0.22139
-0.161143
-0.0995164
-0.0609722
-0.0326011
-0.0139906
-0.00424989
-0.000505153
0.00114564
0.000805469
-0.000879862
-0.00239868
-0.00451351
-0.00592097
-0.00763745
-0.00844147
-0.00914315
-0.00939992
-0.00953045
-0.00927773
-0.00898198
-0.00836246
-0.00787253
-0.00719983
-0.00665012
-0.00602117
-0.00549868
-0.00488019
-0.00433766
-0.00373141
-0.0032016
-0.0025616
-0.00202355
-0.00149014
-0.000988538
-0.000487246
-0.00023391
-0.0598731
-0.142415
-0.161704
-0.160901
-0.131901
-0.102477
-0.0817659
-0.05171
-0.0306606
-0.0175922
-0.0100746
-0.00508731
-0.00386343
-0.00362902
-0.00464964
-0.00601447
-0.00703764
-0.00847608
-0.00900635
-0.00974182
-0.00979415
-0.00990344
-0.00959537
-0.00933319
-0.00875234
-0.00834999
-0.0077187
-0.00725419
-0.00661968
-0.00610769
-0.00545122
-0.0049176
-0.00427439
-0.00371327
-0.00308912
-0.0026148
-0.0020712
-0.00152969
-0.000988018
-0.000811616
-0.0199716
-0.0798542
-0.102157
-0.116848
-0.115191
-0.115069
-0.100702
-0.0739328
-0.054941
-0.0351908
-0.0227518
-0.0140597
-0.0105499
-0.00828757
-0.0085571
-0.00872801
-0.00950702
-0.0103454
-0.0107533
-0.0113078
-0.0113836
-0.0114187
-0.0112317
-0.0109092
-0.0105183
-0.0100716
-0.00958465
-0.00904484
-0.00842685
-0.00778827
-0.00709214
-0.00645084
-0.00573531
-0.00508211
-0.00441669
-0.00380637
-0.00309984
-0.00241542
-0.00183962
-0.00167242
0.000110155
-0.0494255
-0.0675483
-0.0894055
-0.11104
-0.12717
-0.11989
-0.106391
-0.0817672
-0.0564071
-0.0384545
-0.0260144
-0.0186932
-0.014736
-0.013502
-0.0125879
-0.0131245
-0.0133293
-0.013804
-0.0140206
-0.014285
-0.0140941
-0.0140379
-0.0135451
-0.0132172
-0.0125673
-0.0121122
-0.0113412
-0.0107429
-0.00992204
-0.00925724
-0.00844546
-0.00770391
-0.00688444
-0.00612602
-0.00525305
-0.00440034
-0.00358852
-0.00296331
-0.00269374
0.00552209
-0.0397745
-0.0451406
-0.0756898
-0.113602
-0.139617
-0.146439
-0.139481
-0.110275
-0.0837987
-0.0570624
-0.0400554
-0.0274034
-0.0217273
-0.0180343
-0.0163679
-0.0160508
-0.0160052
-0.0162596
-0.0163832
-0.0165237
-0.0162704
-0.0160442
-0.0154908
-0.0149893
-0.0142634
-0.0136525
-0.0128277
-0.0122035
-0.0113827
-0.010752
-0.00992851
-0.0092005
-0.00831256
-0.00748359
-0.00651
-0.00565671
-0.0048112
-0.00418391
-0.00383024
-0.00108272
-0.0416271
-0.0240597
-0.0663645
-0.116498
-0.153065
-0.173678
-0.173049
-0.147834
-0.114438
-0.0806413
-0.0561063
-0.0378244
-0.0289169
-0.0227495
-0.0197938
-0.0184456
-0.0180589
-0.0178472
-0.0179724
-0.0177893
-0.0175649
-0.0170441
-0.0165748
-0.0158658
-0.0152362
-0.0144686
-0.0137889
-0.0130792
-0.0124021
-0.0117369
-0.0110321
-0.010258
-0.009455
-0.00858552
-0.00772622
-0.00687018
-0.00605668
-0.00540157
-0.00507917
-0.00448499
-0.0316206
-0.0327673
-0.0628328
-0.1202
-0.163229
-0.195937
-0.206031
-0.188956
-0.148854
-0.110471
-0.0762654
-0.0527448
-0.0383225
-0.0303745
-0.0253483
-0.0230958
-0.021749
-0.0211885
-0.0208341
-0.0204703
-0.0201008
-0.01952
-0.0190232
-0.0182577
-0.0176154
-0.0167324
-0.0159761
-0.0151221
-0.0144012
-0.0135839
-0.0127984
-0.0119117
-0.0110665
-0.0101456
-0.00933696
-0.00840967
-0.00754005
-0.00676271
-0.00649084
-0.00741509
-0.0273989
-0.0452069
-0.0714407
-0.118401
-0.165223
-0.207027
-0.2316
-0.227014
-0.188518
-0.142107
-0.10174
-0.0712723
-0.0508488
-0.040526
-0.0333658
-0.0298809
-0.0275783
-0.02657
-0.02566
-0.0252988
-0.0247214
-0.0242465
-0.0236385
-0.0228817
-0.0220273
-0.0210308
-0.0200145
-0.0189914
-0.0179663
-0.0169486
-0.0158962
-0.014829
-0.0137448
-0.0127005
-0.0116165
-0.010534
-0.00951143
-0.00863011
-0.00821366
-0.0151831
-0.0311679
-0.0518422
-0.0795689
-0.120028
-0.161298
-0.200171
-0.238017
-0.249785
-0.226759
-0.17474
-0.125639
-0.0879203
-0.0621353
-0.0474898
-0.0393068
-0.0342067
-0.0318276
-0.0302148
-0.029409
-0.028985
-0.0285709
-0.0282671
-0.0278711
-0.0272632
-0.0264623
-0.0255551
-0.0245156
-0.0234412
-0.0223143
-0.0212036
-0.0199418
-0.0186685
-0.0173163
-0.0160346
-0.0146702
-0.0133914
-0.0120669
-0.0110082
-0.0105061
-0.0288147
-0.0415383
-0.0639725
-0.0843771
-0.112631
-0.151973
-0.192229
-0.221421
-0.231176
-0.232574
-0.196312
-0.143646
-0.0991241
-0.0681148
-0.0502087
-0.0411063
-0.0351883
-0.0326007
-0.0308178
-0.0302418
-0.0298607
-0.0298342
-0.0297011
-0.0296793
-0.0291885
-0.0288039
-0.0281641
-0.0275274
-0.0267358
-0.0258689
-0.0247594
-0.0236108
-0.0222495
-0.0208981
-0.0194539
-0.01802
-0.0165509
-0.0151751
-0.0140301
-0.0134851
-0.0473625
-0.0559137
-0.0785173
-0.100305
-0.119308
-0.142477
-0.166097