/*--------------------------------*- C++ -*----------------------------------*\
| =========                 |                                                 |
| \\      /  F ield         | OpenFOAM: The Open Source CFD Toolbox           |
|  \\    /   O peration     | Version:  2406                                  |
|   \\  /    A nd           | Website:  www.openfoam.com                      |
|    \\/     M anipulation  |                                                 |
\*---------------------------------------------------------------------------*/
FoamFile
{
    version     2.0;
    format      ascii;
    arch        "LSB;label=32;scalar=64";
    class       volScalarField;
    location    "6706";
    object      p;
}
// * * * * * * * * * * * * * * * * * * * * * * * * * * * * * * * * * * * * * //

dimensions      [0 2 -2 0 0 0 0];

internalField   nonuniform List<scalar> 
16384
(
7.85438e-13
4.192382e-12
3.710373e-13
-1.307612e-11
-3.553125e-11
-6.596084e-11
-1.031431e-10
-1.458048e-10
-1.927269e-10
-2.427881e-10
-2.949772e-10
-3.483934e-10
-4.022407e-10
-4.558197e-10
-5.085189e-10
-5.598056e-10
-6.092179e-10
-6.563564e-10
-7.008774e-10
-7.424864e-10
-7.809327e-10
-8.160039e-10
-8.475214e-10
-8.753364e-10
-8.99326e-10
-9.1939e-10
-9.354482e-10
-9.474372e-10
-9.553089e-10
-9.590279e-10
-9.585702e-10
-9.539214e-10
-9.45076e-10
-9.320358e-10
-9.148094e-10
-8.934114e-10
-8.67862e-10
-8.381863e-10
-8.044145e-10
-7.665818e-10
-7.247279e-10
-6.788981e-10
-6.291428e-10
-5.755179e-10
-5.180854e-10
-4.569131e-10
-3.920756e-10
-3.236546e-10
-2.517392e-10
-1.764264e-10
-9.782174e-11
-1.603951e-11
6.879662e-11
1.565533e-10
2.47087e-10
3.40244e-10
4.358601e-10
5.337601e-10
6.337581e-10
7.356572e-10
8.392496e-10
9.443167e-10
1.050629e-09
1.157948e-09
1.266023e-09
1.374596e-09
1.4834e-09
1.592157e-09
1.700586e-09
1.808396e-09
1.915293e-09
2.020976e-09
2.125143e-09
2.227489e-09
2.327709e-09
2.425497e-09
2.520553e-09
2.612576e-09
2.701274e-09
2.786361e-09
2.867558e-09
2.9446e-09
3.017231e-09
3.085209e-09
3.148309e-09
3.206323e-09
3.259059e-09
3.30635e-09
3.348046e-09
3.384023e-09
3.414181e-09
3.438445e-09
3.456768e-09
3.46913e-09
3.475539e-09
3.476035e-09
3.470687e-09
3.459594e-09
3.442887e-09
3.420731e-09
3.393318e-09
3.360877e-09
3.323665e-09
3.281973e-09
3.236125e-09
3.186474e-09
3.133408e-09
3.077344e-09
3.018732e-09
2.958054e-09
2.895824e-09
2.832588e-09
2.768924e-09
2.705445e-09
2.642797e-09
2.581659e-09
2.522746e-09
2.466808e-09
2.414627e-09
2.367012e-09
2.324791e-09
2.288789e-09
2.259789e-09
2.238462e-09
2.225224e-09
2.220052e-09
2.222117e-09
2.227691e-09
-1.653394e-12
1.351336e-12
-2.36391e-12
-1.488608e-11
-3.536003e-11
-6.289257e-11
-9.649984e-11
-1.35129e-10
-1.777416e-10
-2.233577e-10
-2.710742e-10
-3.200718e-10
-3.696148e-10
-4.190483e-10
-4.677928e-10
-5.153381e-10
-5.612372e-10
-6.051003e-10
-6.465888e-10
-6.854102e-10
-7.213131e-10
-7.540824e-10
-7.835357e-10
-8.09519e-10
-8.319038e-10
-8.505838e-10
-8.654723e-10
-8.764998e-10
-8.836115e-10
-8.867659e-10
-8.85933e-10
-8.810927e-10
-8.722343e-10
-8.593544e-10
-8.424572e-10
-8.215529e-10
-7.96658e-10
-7.677939e-10
-7.349876e-10
-6.982714e-10
-6.576825e-10
-6.132636e-10
-5.65063e-10
-5.131345e-10
-4.57538e-10
-3.983393e-10
-3.35611e-10
-2.694328e-10
-1.998916e-10
-1.270821e-10
-5.11072e-11
2.792155e-11
1.098836e-10
1.946489e-10
2.820778e-10
3.72021e-10
4.643186e-10
5.58801e-10
6.552877e-10
7.535882e-10
8.535012e-10
9.548157e-10
1.05731e-09
1.160754e-09
1.264906e-09
1.369517e-09
1.474331e-09
1.579081e-09
1.683496e-09
1.787298e-09
1.890204e-09
1.991926e-09
2.092175e-09
2.190659e-09
2.287086e-09
2.381165e-09
2.472609e-09
2.561131e-09
2.646453e-09
2.728303e-09
2.806416e-09
2.88054e-09
2.950432e-09
3.015863e-09
3.076621e-09
3.132509e-09
3.183348e-09
3.228978e-09
3.269262e-09
3.304083e-09
3.33335e-09
3.356995e-09
3.374976e-09
3.387278e-09
3.393914e-09
3.394925e-09
3.390381e-09
3.380382e-09
3.365057e-09
3.344567e-09
3.319102e-09
3.288882e-09
3.25416e-09
3.215216e-09
3.172364e-09
3.125945e-09
3.076333e-09
3.023929e-09
2.969167e-09
2.912506e-09
2.854439e-09
2.795485e-09
2.736195e-09
2.677147e-09
2.618948e-09
2.562236e-09
2.507672e-09
2.455944e-09
2.407761e-09
2.363845e-09
2.324919e-09
2.291686e-09
2.264791e-09
2.244764e-09
2.231914e-09
2.226282e-09
2.227667e-09
2.233249e-09
2.323992e-12
5.109475e-12
1.374806e-12
-1.055245e-11
-2.95332e-11
-5.474383e-11
-8.536862e-11
-1.205294e-10
-1.593446e-10
-2.009661e-10
-2.445975e-10
-2.895033e-10
-3.350135e-10
-3.805235e-10
-4.254917e-10
-4.694363e-10
-5.119309e-10
-5.526002e-10
-5.911152e-10
-6.271893e-10
-6.60574e-10
-6.910547e-10
-7.184478e-10
-7.425967e-10
-7.633695e-10
-7.806555e-10
-7.943633e-10
-8.044182e-10
-8.107603e-10
-8.133428e-10
-8.121305e-10
-8.070983e-10
-7.982305e-10
-7.855193e-10
-7.689645e-10
-7.485723e-10
-7.243552e-10
-6.963312e-10
-6.64524e-10
-6.289627e-10
-5.896818e-10
-5.467213e-10
-5.00127e-10
-4.499501e-10
-3.962481e-10
-3.390846e-10
-2.785298e-10
-2.146606e-10
-1.475615e-10
-7.732426e-11
-4.048861e-12
7.21564e-11
1.511745e-10
2.328793e-10
3.171356e-10
4.037984e-10
4.927133e-10
5.837159e-10
6.76632e-10
7.712774e-10
8.674582e-10
9.649706e-10
1.063601e-09
1.163128e-09
1.26332e-09
1.363937e-09
1.464732e-09
1.565451e-09
1.665833e-09
1.765611e-09
1.864515e-09
1.962269e-09
2.058597e-09
2.15322e-09
2.245859e-09
2.336236e-09
2.424077e-09
2.509111e-09
2.591072e-09
2.669701e-09
2.744746e-09
2.815969e-09
2.883139e-09
2.946041e-09
3.004473e-09
3.05825e-09
3.107203e-09
3.151183e-09
3.190062e-09
3.223732e-09
3.252108e-09
3.275129e-09
3.292759e-09
3.304987e-09
3.31183e-09
3.31333e-09
3.309558e-09
3.300614e-09
3.286626e-09
3.267749e-09
3.24417e-09
3.216104e-09
3.183794e-09
3.147512e-09
3.10756e-09
3.064268e-09
3.017994e-09
2.969123e-09
2.918068e-09
2.86527e-09
2.811197e-09
2.75634e-09
2.701221e-09
2.646381e-09
2.59239e-09
2.539837e-09
2.489333e-09
2.441505e-09
2.396991e-09
2.356431e-09
2.320458e-09
2.289672e-09
2.264623e-09
2.245758e-09
2.233358e-09
2.227623e-09
2.229035e-09
2.235327e-09
1.58311e-11
1.767115e-11
1.330204e-11
1.334904e-12
-1.700012e-11
-4.09056e-11
-6.965359e-11
-1.024774e-10
-1.386082e-10
-1.773014e-10
-2.178505e-10
-2.595958e-10
-3.019294e-10
-3.442969e-10
-3.86197e-10
-4.271795e-10
-4.668426e-10
-5.048296e-10
-5.408259e-10
-5.745549e-10
-6.057749e-10
-6.342762e-10
-6.598776e-10
-6.824234e-10
-7.017814e-10
-7.178396e-10
-7.305045e-10
-7.396988e-10
-7.453594e-10
-7.474364e-10
-7.458909e-10
-7.406944e-10
-7.318277e-10
-7.192795e-10
-7.030461e-10
-6.831304e-10
-6.595415e-10
-6.322945e-10
-6.014101e-10
-5.669145e-10
-5.288395e-10
-4.872224e-10
-4.421062e-10
-3.935398e-10
-3.415779e-10
-2.862816e-10
-2.277183e-10
-1.659623e-10
-1.01095e-10
-3.320517e-11
3.761044e-11
1.11247e-10
1.875912e-10
2.66521e-10
3.479054e-10
4.316042e-10
5.174678e-10
6.053374e-10
6.950445e-10
7.86411e-10
8.792496e-10
9.733636e-10
1.068547e-09
1.164586e-09
1.261257e-09
1.358329e-09
1.455564e-09
1.552717e-09
1.649537e-09
1.745768e-09
1.841149e-09
1.935416e-09
2.028303e-09
2.119542e-09
2.208866e-09
2.296008e-09
2.380705e-09
2.462697e-09
2.54173e-09
2.617556e-09
2.689934e-09
2.758637e-09
2.823444e-09
2.884151e-09
2.940565e-09
2.992509e-09
3.039825e-09
3.082372e-09
3.120028e-09
3.152692e-09
3.180285e-09
3.202753e-09
3.220061e-09
3.232204e-09
3.2392e-09
3.241092e-09
3.237953e-09
3.22988e-09
3.216999e-09
3.199464e-09
3.177455e-09
3.151181e-09
3.12088e-09
3.086814e-09
3.049274e-09
3.008579e-09
2.965072e-09
2.919123e-09
2.871129e-09
2.82151e-09
2.77071e-09
2.719197e-09
2.667462e-09
2.616016e-09
2.565392e-09
2.516138e-09
2.468819e-09
2.42401e-09
2.382291e-09
2.344242e-09
2.310427e-09
2.281386e-09
2.257617e-09
2.239546e-09
2.227491e-09
2.221812e-09
2.223422e-09
2.23024e-09
3.841111e-11
3.824434e-11
3.231859e-11
1.958978e-11
1.174602e-12
-2.218785e-11
-4.984044e-11
-8.11065e-11
-1.153112e-10
-1.517989e-10
-1.899436e-10
-2.291559e-10
-2.688881e-10
-3.086358e-10
-3.479395e-10
-3.863829e-10
-4.235916e-10
-4.592312e-10
-4.93004e-10
-5.246471e-10
-5.539291e-10
-5.806479e-10
-6.046275e-10
-6.25716e-10
-6.437833e-10
-6.587182e-10
-6.704273e-10
-6.788325e-10
-6.838693e-10
-6.854858e-10
-6.836411e-10
-6.783042e-10
-6.694532e-10
-6.570743e-10
-6.411607e-10
-6.217128e-10
-5.987367e-10
-5.722448e-10
-5.422549e-10
-5.087905e-10
-4.718806e-10
-4.315597e-10
-3.878683e-10
-3.408523e-10
-2.905637e-10
-2.370607e-10
-1.804078e-10
-1.20676e-10
-5.794376e-11
7.703569e-12
7.61728e-11
1.473628e-10
2.211644e-10
2.974595e-10
3.761218e-10
4.570159e-10
5.399972e-10
6.249122e-10
7.115983e-10
7.998836e-10
8.89587e-10
9.805185e-10
1.07248e-09
1.165263e-09
1.258654e-09
1.352429e-09
1.446359e-09
1.540207e-09
1.633731e-09
1.726684e-09
1.818816e-09
1.90987e-09
1.999592e-09
2.087723e-09
2.174006e-09
2.258184e-09
2.340004e-09
2.419216e-09
2.495576e-09
2.568845e-09
2.638793e-09
2.7052e-09
2.767857e-09
2.826566e-09
2.881144e-09
2.931422e-09
2.977248e-09
3.018488e-09
3.055027e-09
3.08677e-09
3.113642e-09
3.135592e-09
3.152592e-09
3.164636e-09
3.171744e-09
3.173962e-09
3.171361e-09
3.164037e-09
3.152113e-09
3.135741e-09
3.115096e-09
3.090381e-09
3.061825e-09
3.029684e-09
2.994238e-09
2.955794e-09
2.914682e-09
2.871257e-09
2.825898e-09
2.779007e-09
2.731005e-09
2.682338e-09
2.633467e-09
2.584875e-09
2.537058e-09
2.490528e-09
2.445808e-09
2.403426e-09
2.363915e-09
2.327801e-09
2.2956e-09
2.267806e-09
2.244882e-09
2.227247e-09
2.215253e-09
2.209356e-09
2.210651e-09
2.217201e-09
6.910915e-11
6.599878e-11
5.765288e-11
4.346233e-11
2.429925e-11
8.118972e-13
-2.641268e-11
-5.678012e-11
-8.969971e-11
-1.24596e-10
-1.609164e-10
-1.981374e-10
-2.357685e-10
-2.733551e-10
-3.104793e-10
-3.467604e-10
-3.818532e-10
-4.154476e-10
-4.472656e-10
-4.770604e-10
-5.046134e-10
-5.297324e-10
-5.522494e-10
-5.720184e-10
-5.889132e-10
-6.028258e-10
-6.136642e-10
-6.213512e-10
-6.258225e-10
-6.270255e-10
-6.249183e-10
-6.194685e-10
-6.106524e-10
-5.984542e-10
-5.82865e-10
-5.638826e-10
-5.415109e-10
-5.157597e-10
-4.866441e-10
-4.541849e-10
-4.184084e-10
-3.793466e-10
-3.370368e-10
-2.915222e-10
-2.428518e-10
-1.910806e-10
-1.362699e-10
-7.848756e-11
-1.780834e-11
4.568585e-11
1.119057e-10
1.80754e-10
2.521257e-10
3.259073e-10
4.01977e-10
4.802044e-10
5.6045e-10
6.425658e-10
7.263949e-10
8.117712e-10
8.985201e-10
9.86458e-10
1.075393e-09
1.165125e-09
1.255447e-09
1.346143e-09
1.436991e-09
1.527763e-09
1.618225e-09
1.708139e-09
1.79726e-09
1.885345e-09
1.972145e-09
2.057411e-09
2.140894e-09
2.222348e-09
2.301526e-09
2.378189e-09
2.452101e-09
2.523031e-09
2.590757e-09
2.655068e-09
2.715762e-09
2.772649e-09
2.825551e-09
2.874309e-09
2.918774e-09
2.95882e-09
2.994336e-09
3.025232e-09
3.051436e-09
3.072902e-09
3.089602e-09
3.101535e-09
3.10872e-09
3.111203e-09
3.109055e-09
3.102371e-09
3.091272e-09
3.075903e-09
3.056437e-09
3.033071e-09
3.006027e-09
2.975551e-09
2.941914e-09
2.905413e-09
2.866363e-09
2.825107e-09
2.782006e-09
2.737443e-09
2.691819e-09
2.645555e-09
2.599088e-09
2.552872e-09
2.507371e-09
2.463062e-09
2.420429e-09
2.379961e-09
2.342147e-09
2.307469e-09
2.276401e-09
2.2494e-09
2.226902e-09
2.209314e-09
2.197002e-09
2.190457e-09
2.190773e-09
2.19621e-09
1.067999e-10
1.000241e-10
8.854636e-11
7.227291e-11
5.176127e-11
2.755086e-11
1.585985e-13
-2.989883e-11
-6.210828e-11
-9.596763e-11
-1.309922e-10
-1.667196e-10
-2.027142e-10
-2.385693e-10
-2.739089e-10
-3.083876e-10
-3.41691e-10
-3.735344e-10
-4.036617e-10
-4.318437e-10
-4.578767e-10
-4.815808e-10
-5.027976e-10
-5.213887e-10
-5.372342e-10
-5.502304e-10
-5.602887e-10
-5.673341e-10
-5.713036e-10
-5.721453e-10
-5.698173e-10
-5.642866e-10
-5.555286e-10
-5.435261e-10
-5.282687e-10
-5.097524e-10
-4.879788e-10
-4.629554e-10
-4.34695e-10
-4.032158e-10
-3.685415e-10
-3.307012e-10
-2.897294e-10
-2.456662e-10
-1.985575e-10
-1.484551e-10
-9.54168e-11
-3.950697e-11
1.920332e-11
8.063599e-11
1.447057e-10
2.113195e-10
2.803766e-10
3.517682e-10
4.253771e-10
5.010779e-10
5.787366e-10
6.582103e-10
7.393479e-10
8.21989e-10
9.059652e-10
9.910992e-10
1.077206e-09
1.164091e-09
1.251555e-09
1.33939e-09
1.427379e-09
1.515303e-09
1.602935e-09
1.690044e-09
1.776395e-09
1.86175e-09
1.945868e-09
2.02851e-09
2.109433e-09
2.188399e-09
2.26517e-09
2.339512e-09
2.411197e-09
2.480002e-09
2.545713e-09
2.608124e-09
2.66704e-09
2.722277e-09
2.773664e-09
2.821045e-09
2.864278e-09
2.903241e-09
2.937828e-09
2.96795e-09
2.993541e-09
3.014556e-09
3.030969e-09
3.04278e-09
3.050009e-09
3.052701e-09
3.050927e-09
3.044778e-09
3.034374e-09
3.019856e-09
3.001392e-09
2.979173e-09
2.953414e-09
2.924353e-09
2.892253e-09
2.857397e-09
2.820092e-09
2.780662e-09
2.739456e-09
2.696837e-09
2.653187e-09
2.608907e-09
2.564407e-09
2.520114e-09
2.476465e-09
2.433903e-09
2.392879e-09
2.353844e-09
2.317249e-09
2.283539e-09
2.25315e-09
2.226506e-09
2.204017e-09
2.186072e-09
2.173033e-09
2.165375e-09
2.164082e-09
2.167675e-09
1.50304e-10
1.39339e-10
1.241763e-10
1.053006e-10
8.292437e-11
5.747242e-11
2.939364e-11
-8.688447e-13
-3.28741e-11
-6.618776e-11
-1.00388e-10
-1.3507e-10
-1.698498e-10
-2.043671e-10
-2.382864e-10
-2.712981e-10
-3.031186e-10
-3.334897e-10
-3.621781e-10
-3.889741e-10
-4.136902e-10
-4.361601e-10
-4.562368e-10
-4.737914e-10
-4.887111e-10
-5.008984e-10
-5.102694e-10
-5.167524e-10
-5.20287e-10
-5.20823e-10
-5.183193e-10
-5.127433e-10
-5.040703e-10
-4.922822e-10
-4.773677e-10
-4.593211e-10
-4.381425e-10
-4.138371e-10
-3.864157e-10
-3.558939e-10
-3.22293e-10
-2.856391e-10
-2.459639e-10
-2.033044e-10
-1.577032e-10
-1.092086e-10
-5.787495e-11
-3.762897e-12
5.306036e-11
1.125208e-10
1.745371e-10
2.390209e-10
3.058757e-10
3.749976e-10
4.462741e-10
5.19585e-10
5.948013e-10
6.717857e-10
7.503924e-10
8.304672e-10
9.118471e-10
9.943611e-10
1.07783e-09
1.162067e-09
1.246878e-09
1.33206e-09
1.417407e-09
1.502703e-09
1.587729e-09
1.672262e-09
1.756071e-09
1.838928e-09
1.920597e-09
2.000846e-09
2.07944e-09
2.156146e-09
2.230733e-09
2.302974e-09
2.372647e-09
2.439535e-09
2.503429e-09
2.564129e-09
2.621445e-09
2.675199e-09
2.725224e-09
2.771368e-09
2.813495e-09
2.851484e-09
2.885232e-09
2.914654e-09
2.939687e-09
2.960285e-09
2.976425e-09
2.988107e-09
2.995351e-09
2.998201e-09
2.996726e-09
2.991017e-09
2.981188e-09
2.967379e-09
2.949751e-09
2.92849e-09
2.903804e-09
2.875924e-09
2.845103e-09
2.811615e-09
2.775752e-09
2.737829e-09
2.698177e-09
2.657143e-09
2.615092e-09
2.572401e-09
2.52946e-09
2.486671e-09
2.444443e-09
2.40319e-09
2.363331e-09
2.325286e-09
2.289471e-09
2.256296e-09
2.226165e-09
2.199469e-09
2.176589e-09
2.157891e-09
2.14372e-09
2.134509e-09
2.13106e-09
2.132223e-09
1.984863e-10
1.829698e-10
1.637103e-10
1.418162e-10
1.171468e-10
9.001463e-11
6.080527e-11
2.989302e-11
-2.348384e-12
-3.554733e-11
-6.934035e-11
-1.033764e-10
-1.373207e-10
-1.708568e-10
-2.03689e-10
-2.355426e-10
-2.661648e-10
-2.953245e-10
-3.228119e-10
-3.484374e-10
-3.720312e-10
-3.934416e-10
-4.125343e-10
-4.291908e-10
-4.433072e-10
-4.547931e-10
-4.635703e-10
-4.695717e-10
-4.727403e-10
-4.730286e-10
-4.703973e-10
-4.648149e-10
-4.562569e-10
-4.447053e-10
-4.301478e-10
-4.12578e-10
-3.919943e-10
-3.684004e-10
-3.418048e-10
-3.12221e-10
-2.796675e-10
-2.441679e-10
-2.057509e-10
-1.644502e-10
-1.203051e-10
-7.336035e-11
-2.366666e-11
2.871922e-11
8.373411e-11
1.413081e-10
2.013644e-10
2.638188e-10
3.285797e-10
3.955479e-10
4.646158e-10
5.356683e-10
6.085817e-10
6.83224e-10
7.594549e-10
8.371256e-10
9.160791e-10
9.961501e-10
1.077165e-09
1.158944e-09
1.241298e-09
1.324031e-09
1.406941e-09
1.489821e-09
1.572457e-09
1.65463e-09
1.73612e-09
1.8167e-09
1.896143e-09
1.974222e-09
2.050707e-09
2.125372e-09
2.197991e-09
2.268342e-09
2.336207e-09
2.401377e-09
2.463645e-09
2.522817e-09
2.578706e-09
2.631138e-09
2.67995e-09
2.724993e-09
2.766134e-09
2.803255e-09
2.836255e-09
2.86505e-09
2.889579e-09
2.909797e-09
2.925681e-09
2.93723e-09
2.944465e-09
2.947429e-09
2.946188e-09
2.94083e-09
2.931468e-09
2.918235e-09
2.90129e-09
2.880812e-09
2.857003e-09
2.830086e-09
2.800305e-09
2.767924e-09
2.733225e-09
2.696509e-09
2.658094e-09
2.618311e-09
2.577508e-09
2.536042e-09
2.494283e-09
2.452609e-09
2.411404e-09
2.371056e-09
2.331957e-09
2.294494e-09
2.259055e-09
2.226018e-09
2.195754e-09
2.168625e-09
2.144982e-09
2.125162e-09
2.109485e-09
2.098328e-09
2.092274e-09
2.090557e-09
2.502963e-10
2.299909e-10
2.063407e-10
1.811055e-10
1.53796e-10
1.246196e-10
9.390462e-11
6.196221e-11
2.910414e-11
-4.355974e-12
-3.810879e-11
-7.185351e-11
-1.053014e-10
-1.381783e-10
-1.702263e-10
-2.01205e-10
-2.308921e-10
-2.590835e-10
-2.855931e-10
-3.102521e-10
-3.329089e-10
-3.534276e-10
-3.716873e-10
-3.875811e-10
-4.010147e-10
-4.119057e-10
-4.201827e-10
-4.257841e-10
-4.286573e-10
-4.28758e-10
-4.260494e-10
-4.205018e-10
-4.120917e-10
-4.008013e-10
-3.866182e-10
-3.695351e-10
-3.495495e-10
-3.266633e-10
-3.008833e-10
-2.722208e-10
-2.406918e-10
-2.063172e-10
-1.691226e-10
-1.291386e-10
-8.640104e-11
-4.095107e-11
7.164477e-12
5.789281e-11
1.111749e-10
1.669451e-10
2.251311e-10
2.856533e-10
3.484249e-10
4.133513e-10
4.803302e-10
5.492514e-10
6.199965e-10
6.924388e-10
7.664433e-10
8.418667e-10
9.185576e-10
9.963562e-10
1.075095e-09
1.154598e-09
1.234684e-09
1.315162e-09
1.395836e-09
1.476503e-09
1.556955e-09
1.63698e-09
1.716361e-09
1.794879e-09
1.872311e-09
1.948433e-09
2.023023e-09
2.095857e-09
2.166715e-09
2.23538e-09
2.301637e-09
2.36528e-09
2.426107e-09
2.483927e-09
2.538556e-09
2.589823e-09
2.637567e-09
2.681642e-09
2.721917e-09
2.758274e-09
2.790615e-09
2.818857e-09
2.842938e-09
2.862815e-09
2.878463e-09
2.889882e-09
2.897091e-09
2.900131e-09
2.899065e-09
2.89398e-09
2.884985e-09
2.872209e-09
2.855806e-09
2.835949e-09
2.812835e-09
2.786679e-09
2.757716e-09
2.726202e-09
2.692407e-09
2.656621e-09
2.619149e-09
2.580307e-09
2.540426e-09
2.499847e-09
2.458919e-09
2.418001e-09
2.377453e-09
2.337639e-09
2.298924e-09
2.26167e-09
2.226235e-09
2.19297e-09
2.162216e-09
2.134306e-09
2.109557e-09
2.088279e-09
2.070765e-09
2.057327e-09
2.048314e-09
2.043383e-09
3.047786e-10
2.795409e-10
2.512994e-10
2.224803e-10
1.922567e-10
1.60739e-10
1.282059e-10
9.491144e-11
6.111057e-11
2.706372e-11
-6.969844e-12
-4.073606e-11
-7.398957e-11
-1.064961e-10
-1.380341e-10
-1.683964e-10
-1.973903e-10
-2.248384e-10
-2.505785e-10
-2.744629e-10
-2.963585e-10
-3.161457e-10
-3.337178e-10
-3.489799e-10
-3.618483e-10
-3.722494e-10
-3.801193e-10
-3.854024e-10
-3.880514e-10
-3.880259e-10
-3.852923e-10
-3.79823e-10
-3.715959e-10
-3.60594e-10
-3.468052e-10
-3.302215e-10
-3.108397e-10
-2.886604e-10
-2.636885e-10
-2.359335e-10
-2.054088e-10
-1.721326e-10
-1.361276e-10
-9.742103e-11
-5.604528e-11
-1.203779e-11
3.455851e-11
8.369493e-11
1.353167e-10
1.893625e-10
2.457646e-10
3.044482e-10
3.653311e-10
4.283239e-10
4.933291e-10
5.602417e-10
6.289484e-10
6.993278e-10
7.712502e-10
8.445776e-10
9.191638e-10
9.948546e-10
1.071488e-09
1.148893e-09
1.226893e-09
1.305303e-09
1.383932e-09
1.462583e-09
1.541051e-09
1.619131e-09
1.696609e-09
1.77327e-09
1.848897e-09
1.92327e-09
1.99617e-09
2.067377e-09
2.136676e-09
2.203851e-09
2.268691e-09
2.330994e-09
2.39056e-09
2.4472e-09
2.500732e-09
2.550987e-09
2.597806e-09
2.641044e-09
2.68057e-09
2.716269e-09
2.748041e-09
2.775805e-09
2.799497e-09
2.819074e-09
2.834512e-09
2.845807e-09
2.852978e-09
2.856063e-09
2.855124e-09
2.850243e-09
2.841526e-09
2.829099e-09
2.81311e-09
2.793728e-09
2.771141e-09
2.74556e-09
2.717211e-09
2.686339e-09
2.653209e-09
2.618096e-09
2.581293e-09
2.543104e-09
2.503844e-09
2.463839e-09
2.423421e-09
2.382926e-09
2.342696e-09
2.303074e-09
2.264399e-09
2.227011e-09
2.19124e-09
2.157412e-09
2.125841e-09
2.09683e-09
2.07067e-09
2.047636e-09
2.027997e-09
2.012e-09
1.999755e-09
1.991373e-09
3.610698e-10
3.30825e-10
2.97864e-10
2.652847e-10
2.319349e-10
1.978382e-10
1.632304e-10
1.283144e-10
9.32938e-11
5.838038e-11
2.378731e-11
-1.027477e-11
-4.360109e-11
-7.599506e-11
-1.072699e-10
-1.3725e-10
-1.657719e-10
-1.926842e-10
-2.178482e-10
-2.411375e-10
-2.624375e-10
-2.816454e-10
-2.986687e-10
-3.134255e-10
-3.258429e-10
-3.358567e-10
-3.434111e-10
-3.484573e-10
-3.509537e-10
-3.508643e-10
-3.481591e-10
-3.428132e-10
-3.348062e-10
-3.241224e-10
-3.1075e-10
-2.94681e-10
-2.759113e-10
-2.544406e-10
-2.302722e-10
-2.034134e-10
-1.738756e-10
-1.41674e-10
-1.068284e-10
-6.936278e-11
-2.930594e-11
1.330844e-11
5.844141e-11
1.060485e-10
1.560791e-10
2.084767e-10
2.631779e-10
3.201128e-10
3.792041e-10
4.403673e-10
5.0351e-10
5.685323e-10
6.353259e-10
7.037747e-10
7.737542e-10
8.451315e-10
9.177656e-10
9.915074e-10
1.0662e-09
1.141677e-09
1.217768e-09
1.294291e-09
1.371061e-09
1.447885e-09
1.524563e-09
1.600892e-09
1.676665e-09
1.751669e-09
1.825691e-09
1.898515e-09
1.969924e-09
2.039703e-09
2.107636e-09
2.173513e-09
2.237124e-09
2.298269e-09
2.356749e-09
2.412376e-09
2.464971e-09
2.514365e-09
2.5604e-09
2.60293e-09
2.641826e-09
2.676971e-09
2.708266e-09
2.735628e-09
2.758994e-09
2.778318e-09
2.793575e-09
2.80476e-09
2.811888e-09
2.814996e-09
2.814143e-09
2.809407e-09
2.800891e-09
2.788716e-09
2.773026e-09
2.753984e-09
2.731773e-09
2.706595e-09
2.678672e-09
2.648239e-09
2.61555e-09
2.580873e-09
2.544487e-09
2.506685e-09
2.467769e-09
2.428049e-09
2.38784e-09
2.347463e-09
2.307241e-09
2.267494e-09
2.228544e-09
2.190706e-09
2.154289e-09
2.119593e-09
2.086907e-09
2.05651e-09
2.028663e-09
2.003613e-09
1.981603e-09
1.962822e-09
1.947144e-09
1.935146e-09
4.183902e-10
3.831133e-10
3.4536e-10
3.088977e-10
2.722625e-10
2.353997e-10
1.985094e-10
1.617491e-10
1.252759e-10
8.925745e-11
5.38645e-11
1.926751e-11
-1.436665e-11
-4.687688e-11
-7.810933e-11
-1.079189e-10
-1.361699e-10
-1.627365e-10
-1.875032e-10
-2.103643e-10
-2.31224e-10
-2.499961e-10
-2.666029e-10
-2.809753e-10
-2.930517e-10
-3.027781e-10
-3.101068e-10
-3.149966e-10
-3.174116e-10
-3.17321e-10
-3.146985e-10
-3.095223e-10
-3.017742e-10
-2.914397e-10
-2.78508e-10
-2.62971e-10
-2.448242e-10
-2.240663e-10
-2.006992e-10
-1.747282e-10
-1.461624e-10
-1.150143e-10
-8.130076e-11
-4.504243e-11
-6.264496e-12
3.500318e-11
7.872571e-11
1.248628e-10
1.733684e-10
2.241904e-10
2.772703e-10
3.325428e-10
3.899357e-10
4.493694e-10
5.107566e-10
5.740025e-10
6.390039e-10
7.056497e-10
7.738204e-10
8.433884e-10
9.142176e-10
9.861637e-10
1.059074e-09
1.132789e-09
1.20714e-09
1.281952e-09
1.357042e-09
1.432221e-09
1.507296e-09
1.582064e-09
1.656323e-09
1.729864e-09
1.802475e-09
1.873944e-09
1.944056e-09
2.012598e-09
2.079356e-09
2.144121e-09
2.206686e-09
2.26685e-09
2.324416e-09
2.379197e-09
2.431013e-09
2.479694e-09
2.525084e-09
2.567037e-09
2.60542e-09
2.640118e-09
2.671029e-09
2.698071e-09
2.721176e-09
2.740298e-09
2.75541e-09
2.766503e-09
2.773591e-09
2.776709e-09
2.775909e-09
2.77127e-09
2.762888e-09
2.750881e-09
2.735387e-09
2.716565e-09
2.694592e-09
2.669664e-09
2.641994e-09
2.611811e-09
2.579361e-09
2.5449e-09
2.5087e-09
2.47104e-09
2.432211e-09
2.392508e-09
2.352234e-09
2.311693e-09
2.27119e-09
2.23103e-09
2.191514e-09
2.152938e-09
2.11559e-09
2.079749e-09
2.045682e-09
2.013641e-09
1.983864e-09
1.956572e-09
1.931988e-09
1.910243e-09
1.890982e-09
1.875261e-09
4.760339e-10
4.357358e-10
3.93159e-10
3.527339e-10
3.126976e-10
2.729252e-10
2.33587e-10
1.948003e-10
1.566809e-10
1.193559e-10
8.295743e-11
4.761868e-11
1.347122e-11
-1.935716e-11
-5.074382e-11
-8.057264e-11
-1.087348e-10
-1.351292e-10
-1.596628e-10
-1.822504e-10
-2.028146e-10
-2.212857e-10
-2.376009e-10
-2.517041e-10
-2.635455e-10
-2.730809e-10
-2.802716e-10
-2.850839e-10
-2.874881e-10
-2.874588e-10
-2.849738e-10
-2.800144e-10
-2.725651e-10
-2.62613e-10
-2.50148e-10
-2.351625e-10
-2.176516e-10
-1.97613e-10
-1.750474e-10
-1.499582e-10
-1.223522e-10
-9.223927e-11
-5.963317e-11
-2.45513e-11
1.298481e-11
5.29492e-11
9.531108e-11
1.400345e-10
1.870778e-10
2.363935e-10
2.87928e-10
3.416208e-10
3.974046e-10
4.552049e-10
5.149395e-10
5.765185e-10
6.398439e-10
7.048096e-10
7.71301e-10
8.391955e-10
9.083617e-10
9.786601e-10
1.049943e-09
1.122054e-09
1.19483e-09
1.268099e-09
1.341683e-09
1.415396e-09
1.489046e-09
1.562438e-09
1.635369e-09
1.707634e-09
1.779023e-09
1.849326e-09
1.91833e-09
1.985822e-09
2.051591e-09
2.115428e-09
2.177125e-09
2.236483e-09
2.293305e-09
2.347402e-09
2.398595e-09
2.446713e-09
2.491598e-09
2.533103e-09
2.571094e-09
2.605453e-09
2.636077e-09
2.662881e-09
2.685796e-09
2.704772e-09
2.71978e-09
2.730809e-09
2.737868e-09
2.740989e-09
2.740222e-09
2.73564e-09
2.727336e-09
2.715424e-09
2.700037e-09
2.681328e-09
2.65947e-09
2.634652e-09
2.607079e-09
2.576976e-09
2.544577e-09
2.510133e-09
2.473905e-09
2.436162e-09
2.397183e-09
2.357253e-09
2.31666e-09
2.275694e-09
2.234647e-09
2.193808e-09
2.15346e-09
2.113883e-09
2.075345e-09
2.038108e-09
2.002416e-09
1.968504e-09
1.936584e-09
1.906856e-09
1.879525e-09
1.854675e-09
1.831725e-09
1.812217e-09
5.333592e-10
4.880765e-10
4.406763e-10
3.962426e-10
3.527253e-10
3.099362e-10
2.680209e-10
2.270616e-10
1.871367e-10
1.483366e-10
1.10758e-10
7.449985e-11
3.966067e-11
6.337061e-12
-2.537782e-11
-5.539548e-11
-8.36328e-11
-1.100125e-10
-1.344632e-10
-1.569197e-10
-1.773228e-10
-1.95619e-10
-2.117603e-10
-2.257038e-10
-2.374111e-10
-2.468485e-10
-2.539862e-10
-2.587981e-10
-2.612611e-10
-2.61355e-10
-2.590623e-10
-2.543677e-10
-2.472581e-10
-2.377225e-10
-2.257519e-10
-2.113391e-10
-1.94479e-10
-1.751686e-10
-1.53407e-10
-1.291961e-10
-1.025402e-10
-7.344678e-11
-4.192633e-11
-7.992944e-12
2.833551e-11
6.703698e-11
1.080849e-10
1.514475e-10
1.970879e-10
2.449633e-10
2.950246e-10
3.472166e-10
4.014769e-10
4.577359e-10
5.159165e-10
5.759339e-10
6.376951e-10
7.010989e-10
7.660357e-10
8.323875e-10
9.000278e-10
9.688213e-10
1.038625e-09
1.109286e-09
1.180646e-09
1.252536e-09
1.324781e-09
1.3972e-09
1.469603e-09
1.541796e-09
1.61358e-09
1.684752e-09
1.755103e-09
1.824424e-09
1.892503e-09
1.95913e-09
2.024091e-09
2.087179e-09
2.148186e-09
2.20691e-09
2.263155e-09
2.316731e-09
2.367457e-09
2.41516e-09
2.459681e-09
2.500869e-09
2.538589e-09
2.572721e-09
2.603158e-09
2.629813e-09
2.652613e-09
2.671506e-09
2.686458e-09
2.697456e-09
2.704505e-09
2.707633e-09
2.706886e-09
2.702334e-09
2.694064e-09
2.682186e-09
2.666829e-09
2.648141e-09
2.626288e-09
2.601454e-09
2.573839e-09
2.543659e-09
2.511143e-09
2.476533e-09
2.440081e-09
2.402048e-09
2.362703e-09
2.322319e-09
2.281174e-09
2.239546e-09
2.197713e-09
2.155949e-09
2.114526e-09
2.073707e-09
2.033744e-09
1.994882e-09
1.957349e-09
1.921361e-09
1.88711e-09
1.854779e-09
1.82456e-09
1.796493e-09
1.769783e-09
1.746452e-09
5.897802e-10
5.395674e-10
4.873672e-10
4.38906e-10
3.918569e-10
3.459743e-10
3.013837e-10
2.581362e-10
2.162765e-10
1.75862e-10
1.369566e-10
9.962757e-11
6.394282e-11
2.996961e-11
-2.226706e-12
-3.258386e-11
-6.104326e-11
-8.755038e-11
-1.12055e-10
-1.345111e-10
-1.548773e-10
-1.731161e-10
-1.89194e-10
-2.03081e-10
-2.147505e-10
-2.24179e-10
-2.313457e-10
-2.362322e-10
-2.388221e-10
-2.391008e-10
-2.37055e-10
-2.326731e-10
-2.259449e-10
-2.168611e-10
-2.054139e-10
-1.915968e-10
-1.754043e-10
-1.568328e-10
-1.358802e-10
-1.125464e-10
-8.683362e-11
-5.874654e-11
-2.829268e-11
4.517302e-12
3.966925e-11
7.714509e-11
1.169224e-10
1.58974e-10
2.032674e-10
2.497646e-10
2.984216e-10
3.491879e-10
4.020061e-10
4.568119e-10
5.135331e-10
5.720898e-10
6.323942e-10
6.943498e-10
7.578519e-10
8.227871e-10
8.890334e-10
9.5646e-10
1.024928e-09
1.094288e-09
1.164385e-09
1.235055e-09
1.306125e-09
1.377416e-09
1.448742e-09
1.51991e-09
1.590724e-09
1.66098e-09
1.730473e-09
1.798993e-09
1.866329e-09
1.93227e-09
1.996603e-09
2.059118e-09
2.119609e-09
2.177871e-09
2.233706e-09
2.286923e-09
2.337337e-09
2.384775e-09
2.429073e-09
2.470078e-09
2.507653e-09
2.541672e-09
2.572027e-09
2.598625e-09
2.621392e-09
2.64027e-09
2.655222e-09
2.66623e-09
2.673297e-09
2.676444e-09
2.675716e-09
2.671175e-09
2.662907e-09
2.651015e-09
2.635623e-09
2.616875e-09
2.594932e-09
2.569972e-09
2.542189e-09
2.511794e-09
2.479007e-09
2.444065e-09
2.407211e-09
2.368699e-09
2.328788e-09
2.287744e-09
2.245833e-09
2.203323e-09
2.160481e-09
2.11757e-09
2.074849e-09
2.032567e-09
1.990965e-09
1.950271e-09
1.910702e-09
1.872455e-09
1.83571e-09
1.800632e-09
1.767407e-09
1.736035e-09
1.705516e-09
1.678351e-09
6.447585e-10
5.896826e-10
5.327233e-10
4.802366e-10
4.296284e-10
3.806009e-10
3.332629e-10
2.87638e-10
2.437406e-10
2.015977e-10
1.612435e-10
1.227156e-10
8.605354e-11
5.129704e-11
1.848519e-11
-1.234461e-11
-4.11571e-11
-6.791959e-11
-9.260207e-11
-1.151773e-10
-1.35621e-10
-1.539113e-10
-1.700289e-10
-1.839568e-10
-1.956797e-10
-2.051845e-10
-2.124591e-10
-2.17493e-10
-2.202763e-10
-2.207999e-10
-2.190552e-10
-2.150343e-10
-2.087294e-10
-2.001336e-10
-1.892402e-10
-1.76043e-10
-1.605368e-10
-1.427171e-10
-1.225804e-10
-1.00125e-10
-7.535077e-11
-4.825967e-11
-1.885612e-11
1.285264e-11
4.68562e-11
8.314053e-11
1.216875e-10
1.624743e-10
2.054732e-10
2.506509e-10
2.979684e-10
3.473802e-10
3.98834e-10
4.522704e-10
5.076225e-10
5.648152e-10
6.237655e-10
6.843821e-10
7.465647e-10
8.102047e-10
8.751844e-10
9.413771e-10
1.008647e-09
1.076851e-09
1.145835e-09
1.215438e-09
1.285491e-09
1.355817e-09
1.426231e-09
1.496544e-09
1.566559e-09
1.636075e-09
1.704885e-09
1.772781e-09
1.839552e-09
1.904984e-09
1.968865e-09
2.030985e-09
2.091132e-09
2.149102e-09
2.204694e-09
2.257713e-09
2.307974e-09
2.355297e-09
2.399516e-09
2.440475e-09
2.478032e-09
2.512058e-09
2.542439e-09
2.56908e-09
2.591901e-09
2.610839e-09
2.625855e-09
2.636924e-09
2.644044e-09
2.647234e-09
2.646531e-09
2.641996e-09
2.633707e-09
2.621764e-09
2.606286e-09
2.587412e-09
2.565297e-09
2.540115e-09
2.512053e-09
2.481317e-09
2.448123e-09
2.412698e-09
2.37528e-09
2.336117e-09
2.29546e-09
2.253565e-09
2.210692e-09
2.167099e-09
2.123045e-09
2.078781e-09
2.034557e-09
1.990611e-09
1.947174e-09
1.904462e-09
1.862679e-09
1.822012e-09
1.782627e-09
1.744678e-09
1.708347e-09
1.673602e-09
1.639242e-09
1.608243e-09
6.977969e-10
6.379334e-10
5.762688e-10
5.197747e-10
4.655994e-10
4.133962e-10
3.632606e-10
3.151917e-10
2.691761e-10
2.252134e-10
1.8331e-10
1.434763e-10
1.057251e-10
7.00703e-11
3.652625e-11
5.106801e-12
-2.417502e-11
-5.130736e-11
-7.627964e-11
-9.908266e-11
-1.197087e-10
-1.381512e-10
-1.544048e-10
-1.684648e-10
-1.803276e-10
-1.899896e-10
-1.974479e-10
-2.026993e-10
-2.057408e-10
-2.065685e-10