/*--------------------------------*- C++ -*----------------------------------*\
| =========                 |                                                 |
| \\      /  F ield         | OpenFOAM: The Open Source CFD Toolbox           |
|  \\    /   O peration     | Version:  2406                                  |
|   \\  /    A nd           | Website:  www.openfoam.com                      |
|    \\/     M anipulation  |                                                 |
\*---------------------------------------------------------------------------*/
FoamFile
{
    version     2.0;
    format      ascii;
    arch        "LSB;label=32;scalar=64";
    class       surfaceScalarField;
    location    "6706";
    object      phi;
}
// * * * * * * * * * * * * * * * * * * * * * * * * * * * * * * * * * * * * * //

dimensions      [0 3 -1 0 0 0 0];

oriented        oriented;

internalField   nonuniform List<scalar> 
32512
(
6.306207e-12
-6.971806e-12
2.290016e-11
-1.659963e-11
4.315903e-11
-2.026026e-11
6.203133e-11
-1.887177e-11
7.614069e-11
-1.410876e-11
8.334769e-11
-7.207348e-12
8.237529e-11
9.713832e-13
7.253325e-11
9.841118e-12
5.352764e-11
1.900526e-11
2.533319e-11
2.819467e-11
-1.18924e-11
3.722599e-11
-5.786626e-11
4.597425e-11
-1.122208e-10
5.435484e-11
-1.745321e-10
6.231149e-11
-2.443401e-10
6.980818e-11
-3.211636e-10
7.682359e-11
-4.045107e-10
8.334718e-11
-4.938872e-10
8.937636e-11
-5.888017e-10
9.491441e-11
-6.887706e-10
9.996891e-11
-7.933209e-10
1.045505e-10
-9.019924e-10
1.086717e-10
-1.014339e-09
1.123469e-10
-1.129929e-09
1.15591e-10
-1.248348e-09
1.184194e-10
-1.369195e-09
1.208474e-10
-1.492086e-09
1.228904e-10
-1.616649e-09
1.245632e-10
-1.742528e-09
1.258797e-10
-1.869381e-09
1.268535e-10
-1.996878e-09
1.27497e-10
-2.1247e-09
1.278219e-10
-2.252538e-09
1.278389e-10
-2.380096e-09
1.275576e-10
-2.507082e-09
1.269868e-10
-2.633216e-09
1.261346e-10
-2.758223e-09
1.250077e-10
-2.881836e-09
1.236125e-10
-3.00379e-09
1.219544e-10
-3.123828e-09
1.200381e-10
-3.241695e-09
1.178678e-10
-3.357142e-09
1.154471e-10
-3.469921e-09
1.127792e-10
-3.579788e-09
1.098671e-10
-3.6865e-09
1.067133e-10
-3.78982e-09
1.033204e-10
-3.889511e-09
9.969093e-11
-3.985338e-09
9.582747e-11
-4.07707e-09
9.173276e-11
-4.16448e-09
8.74098e-11
-4.247342e-09
8.286197e-11
-4.325435e-09
7.809313e-11
-4.398542e-09
7.310771e-11
-4.466453e-09
6.791074e-11
-4.52896e-09
6.250796e-11
-4.585866e-09
5.690589e-11
-4.636978e-09
5.111191e-11
-4.682112e-09
4.513433e-11
-4.721094e-09
3.898244e-11
-4.75376e-09
3.266655e-11
-4.779958e-09
2.6198e-11
-4.799547e-09
1.958921e-11
-4.812401e-09
1.28537e-11
-4.818407e-09
6.006142e-12
-4.817469e-09
-9.376866e-13
-4.809508e-09
-7.960892e-12
-4.794463e-09
-1.504549e-11
-4.772291e-09
-2.217244e-11
-4.742969e-09
-2.932166e-11
-4.706497e-09
-3.647211e-11
-4.662895e-09
-4.360179e-11
-4.612208e-09
-5.068791e-11
-4.554501e-09
-5.770687e-11
-4.489867e-09
-6.463441e-11
-4.418421e-09
-7.144571e-11
-4.340306e-09
-7.811548e-11
-4.255688e-09
-8.461807e-11
-4.164761e-09
-9.092761e-11
-4.067743e-09
-9.701815e-11
-3.96488e-09
-1.028638e-10
-3.856442e-09
-1.084387e-10
-3.742724e-09
-1.137177e-10
-3.624049e-09
-1.186758e-10
-3.50076e-09
-1.232888e-10
-3.373228e-09
-1.275333e-10
-3.241841e-09
-1.313869e-10
-3.107013e-09
-1.348282e-10
-2.969176e-09
-1.378373e-10
-2.828781e-09
-1.403954e-10
-2.686296e-09
-1.424856e-10
-2.542204e-09
-1.440923e-10
-2.397003e-09
-1.452022e-10
-2.2512e-09
-1.458034e-10
-2.105313e-09
-1.458865e-10
-1.95987e-09
-1.45444e-10
-1.815399e-09
-1.444707e-10
-1.672436e-09
-1.429637e-10
-1.531514e-09
-1.409224e-10
-1.393165e-09
-1.383489e-10
-1.257918e-09
-1.352473e-10
-1.126293e-09
-1.316248e-10
-9.98803e-10
-1.274907e-10
-8.759463e-10
-1.22857e-10
-7.582081e-10
-1.177385e-10
-6.460559e-10
-1.121524e-10
-5.39937e-10
-1.06119e-10
-4.402758e-10
-9.966137e-11
-3.474705e-10
-9.280542e-11
-2.618901e-10
-8.55805e-11
-1.838706e-10
-7.801943e-11
-1.137116e-10
-7.015906e-11
-5.167082e-11
-6.20408e-11
2.04063e-12
-5.37115e-11
4.726524e-11
-4.522465e-11
8.390727e-11
-3.6642e-11
1.119433e-10
-2.803598e-11
1.314364e-10
-1.949297e-11
1.425545e-10
-1.111799e-11
1.45596e-10
-3.041452e-12
1.410253e-10
4.570918e-12
1.295219e-10
1.150371e-11
1.12051e-10
1.747123e-11
8.996169e-11
2.208929e-11
6.512058e-11
2.484058e-11
4.007512e-11
2.504504e-11
1.821296e-11
2.186325e-11
3.761437e-12
1.445544e-11
3.766315e-12
1.629064e-11
-2.326816e-11
4.955368e-11
-4.98655e-11
8.704192e-11
-5.774788e-11
1.188971e-10
-5.072544e-11
1.378893e-10
-3.310094e-11
1.390138e-10
-8.33308e-12
1.189929e-10
2.099115e-11
7.584438e-11
5.298922e-11
8.542334e-12
8.630744e-11
-8.323879e-11
1.199762e-10
-1.993144e-10
1.533021e-10
-3.391299e-10
1.857902e-10
-5.01865e-10
2.170902e-10
-6.86511e-10
2.469575e-10
-8.919287e-10
2.752257e-10
-1.116892e-09
3.017869e-10
-1.360123e-09
3.265771e-10
-1.620312e-09
3.495652e-10
-1.896143e-09
3.707455e-10
-2.186305e-09
3.901305e-10
-2.489501e-09
4.077468e-10
-2.80446e-09
4.236312e-10
-3.12994e-09
4.378273e-10
-3.464733e-09
4.503836e-10
-3.807664e-09
4.613514e-10
-4.1576e-09
4.707831e-10
-4.513441e-09
4.787314e-10
-4.874126e-09
4.852482e-10
-5.23863e-09
4.903836e-10
-5.605962e-09
4.941856e-10
-5.975165e-09
4.966995e-10
-6.345311e-09
4.97968e-10
-6.715502e-09
4.980302e-10
-7.084866e-09
4.969225e-10
-7.452557e-09
4.946779e-10
-7.817748e-09
4.913261e-10
-8.179635e-09
4.868941e-10
-8.537428e-09
4.814059e-10
-8.890356e-09
4.748827e-10
-9.237662e-09
4.673437e-10
-9.5786e-09
4.588056e-10
-9.912436e-09
4.492836e-10
-1.023845e-08
4.387912e-10
-1.055592e-08
4.27341e-10
-1.086415e-08
4.149446e-10
-1.116245e-08
4.016135e-10
-1.145011e-08
3.87359e-10
-1.172648e-08
3.721927e-10
-1.199087e-08
3.561271e-10
-1.224264e-08
3.391754e-10
-1.248113e-08
3.213527e-10
-1.270571e-08
3.026756e-10
-1.291577e-08
2.83163e-10
-1.311069e-08
2.628358e-10
-1.32899e-08
2.417182e-10
-1.345283e-08
2.198368e-10
-1.359894e-08
1.972218e-10
-1.372771e-08
1.739069e-10
-1.383866e-08
1.499291e-10
-1.393132e-08
1.253295e-10
-1.400528e-08
1.001532e-10
-1.406014e-08
7.444911e-11
-1.409555e-08
4.827044e-11
-1.411122e-08
2.167457e-11
-1.410688e-08
-5.276997e-12
-1.408233e-08
-3.251858e-11
-1.403739e-08
-5.998047e-11
-1.397197e-08
-8.758898e-11
-1.388603e-08
-1.152666e-10
-1.377957e-08
-1.429324e-10
-1.365267e-08
-1.705017e-10
-1.350547e-08
-1.978872e-10
-1.333818e-08
-2.249984e-10
-1.315107e-08
-2.517426e-10
-1.294449e-08
-2.780249e-10
-1.271886e-08
-3.037488e-10
-1.247466e-08
-3.288167e-10
-1.221246e-08
-3.5313e-10
-1.193288e-08
-3.765902e-10
-1.163665e-08
-3.990988e-10
-1.132453e-08
-4.205584e-10
-1.099738e-08
-4.408727e-10
-1.06561e-08
-4.599476e-10
-1.03017e-08
-4.776916e-10
-9.935218e-09
-4.940163e-10
-9.557768e-09
-5.088369e-10
-9.170523e-09
-5.220731e-10
-8.774711e-09
-5.336493e-10
-8.371611e-09
-5.434955e-10
-7.96255e-09
-5.515476e-10
-7.548894e-09
-5.577479e-10
-7.132051e-09
-5.620457e-10
-6.713457e-09
-5.643978e-10
-6.294575e-09
-5.647687e-10
-5.876887e-09
-5.63131e-10
-5.461892e-09
-5.594662e-10
-5.051091e-09
-5.537643e-10
-4.645989e-09
-5.460247e-10
-4.248081e-09
-5.362559e-10
-3.858853e-09
-5.244762e-10
-3.479764e-09
-5.107137e-10
-3.112248e-09
-4.950062e-10
-2.757704e-09
-4.774019e-10
-2.417483e-09
-4.579593e-10
-2.092888e-09
-4.367476e-10
-1.78516e-09
-4.138471e-10
-1.495472e-09
-3.893495e-10
-1.224918e-09
-3.633588e-10
-9.745065e-10
-3.359919e-10
-7.451453e-10
-3.073805e-10
-5.376324e-10
-2.77672e-10
-3.526406e-10
-2.470325e-10
-1.907023e-10
-2.156498e-10
-5.218886e-11
-1.83738e-10
6.271247e-11
-1.515432e-10
1.540286e-10
-1.193519e-10
2.220383e-10
-8.750244e-11
2.673203e-10
-5.639982e-11
2.908159e-10
-2.653691e-11
2.939097e-10
1.477097e-12
2.785354e-10
2.687813e-11
2.473106e-10
4.869677e-11
2.037037e-10
6.569715e-11
1.522278e-10
7.631667e-11
9.862926e-11
7.864118e-11
4.998526e-11
7.050128e-11
1.442039e-11
5.001306e-11
1.81891e-11
2.019476e-11
-4.346416e-11
5.771976e-11
-8.738983e-11
9.598402e-11
-9.601109e-11
1.227394e-10
-7.748049e-11
1.287659e-10
-3.912829e-11
1.073734e-10
1.305826e-11
5.394455e-11
7.441929e-11
-3.448557e-11
1.414195e-10
-1.595897e-10
2.114122e-10
-3.220431e-10
2.824304e-10
-5.217602e-10
3.530196e-10
-7.580801e-10
4.221103e-10
-1.029912e-09
4.88922e-10
-1.335847e-09
5.528931e-10
-1.67425e-09
6.136278e-10
-2.043321e-09
6.708574e-10
-2.441154e-09
7.244099e-10
-2.865778e-09
7.741879e-10
-3.315184e-09
8.20151e-10
-3.787356e-09
8.623025e-10
-4.280288e-09
9.006786e-10
-4.791996e-09
9.353398e-10
-5.320533e-09
9.663645e-10
-5.863992e-09
9.938434e-10
-6.420516e-09
1.017876e-09
-6.988298e-09
1.038564e-09
-7.565581e-09
1.056014e-09
-8.150664e-09
1.070331e-09
-8.741897e-09
1.081616e-09
-9.337681e-09
1.089969e-09
-9.936466e-09
1.095484e-09
-1.053675e-08
1.09825e-09
-1.113707e-08
1.098349e-09
-1.1736e-08
1.095859e-09
-1.233217e-08
1.090849e-09
-1.292423e-08
1.083384e-09
-1.351086e-08
1.073523e-09
-1.409077e-08
1.061317e-09
-1.466271e-08
1.046815e-09
-1.522542e-08
1.030058e-09
-1.57777e-08
1.011084e-09
-1.631834e-08
9.899284e-10
-1.684617e-08
9.666227e-10
-1.736003e-08
9.411963e-10
-1.785876e-08
9.136771e-10
-1.834124e-08
8.840925e-10
-1.880635e-08
8.524699e-10
-1.9253e-08
8.188376e-10
-1.968009e-08
7.832255e-10
-2.008659e-08
7.456659e-10
-2.047143e-08
7.061945e-10
-2.08336e-08
6.648505e-10
-2.117212e-08
6.21678e-10
-2.148601e-08
5.767261e-10
-2.177434e-08
5.3005e-10
-2.203621e-08
4.817111e-10
-2.227077e-08
4.317779e-10
-2.247719e-08
3.803264e-10
-2.26547e-08
3.274402e-10
-2.280258e-08
2.732113e-10
-2.292017e-08
2.177401e-10
-2.300686e-08
1.611357e-10
-2.30621e-08
1.035159e-10
-2.308543e-08
4.500768e-11
-2.307646e-08
-1.425337e-11
-2.303485e-08
-7.412271e-11
-2.296039e-08
-1.344472e-10
-2.285291e-08
-1.950654e-10
-2.271237e-08
-2.558078e-10
-2.25388e-08
-3.164971e-10
-2.233236e-08
-3.769493e-10
-2.209327e-08
-4.369735e-10
-2.18219e-08
-4.963732e-10
-2.151869e-08
-5.549466e-10
-2.118423e-08
-6.124878e-10
-2.081919e-08
-6.687875e-10
-2.042437e-08
-7.23634e-10
-2.000069e-08
-7.768141e-10
-1.954916e-08
-8.281142e-10
-1.907094e-08
-8.773219e-10
-1.856727e-08
-9.242263e-10
-1.803953e-08
-9.686201e-10
-1.748917e-08
-1.0103e-09
-1.69178e-08
-1.049069e-09
-1.632708e-08
-1.084736e-09
-1.571879e-08
-1.11712e-09
-1.509482e-08
-1.146046e-09
-1.445711e-08
-1.171354e-09
-1.380772e-08
-1.192893e-09
-1.314874e-08
-1.210524e-09
-1.248236e-08
-1.224126e-09
-1.181082e-08
-1.233589e-09
-1.11364e-08
-1.238821e-09
-1.046142e-08
-1.239748e-09
-9.788238e-09
-1.236312e-09
-9.11923e-09
-1.228473e-09
-8.45678e-09
-1.216214e-09
-7.80327e-09
-1.199535e-09
-7.161071e-09
-1.178455e-09
-6.532529e-09
-1.153018e-09
-5.919955e-09
-1.123287e-09
-5.325614e-09
-1.089348e-09
-4.751709e-09
-1.051307e-09
-4.20037e-09
-1.009298e-09
-3.673645e-09
-9.634727e-10
-3.17348e-09
-9.140123e-10
-2.701708e-09
-8.611215e-10
-2.260034e-09
-8.050327e-10
-1.850018e-09
-7.460079e-10
-1.473057e-09
-6.843413e-10
-1.130366e-09
-6.203629e-10
-8.229543e-10
-5.544442e-10
-5.515998e-10
-4.870044e-10
-3.168184e-10
-4.185195e-10
-1.188268e-10
-3.495348e-10
4.250204e-11
-2.806807e-10
1.676936e-10
-2.126939e-10
2.577399e-10
-1.46446e-10
3.141829e-10
-8.297971e-11
3.392177e-10
-2.355768e-11
3.358177e-10
3.027766e-11
3.078832e-10
7.663057e-11
2.604089e-10
1.13172e-10
1.996544e-10
1.370738e-10
1.332917e-10
1.450083e-10
7.047421e-11
1.333214e-10
2.181299e-11
9.867015e-11
4.000215e-11
1.898202e-11
-6.244555e-11
5.105598e-11
-1.194622e-10
7.795546e-11
-1.229101e-10
8.623767e-11
-8.576323e-11
6.571527e-11
-1.860705e-11
8.827288e-12
6.994528e-11
-8.980516e-11
1.730514e-10
-2.337636e-10
2.853783e-10
-4.251687e-10
4.02818e-10
-6.649694e-10
5.222318e-10
-9.531872e-10
6.412379e-10
-1.289118e-09
7.58041e-10
-1.671497e-09
8.713008e-10
-2.098633e-09
9.800286e-10
-2.568515e-09
1.083509e-09
-3.078899e-09
1.181241e-09
-3.627377e-09
1.272887e-09
-4.211431e-09
1.358241e-09
-4.828477e-09
1.437196e-09
-5.475898e-09
1.509724e-09
-6.151075e-09
1.575856e-09
-6.851404e-09
1.635668e-09
-7.574311e-09
1.689272e-09
-8.31727e-09
1.736802e-09
-9.077803e-09
1.778409e-09
-9.853493e-09
1.814254e-09
-1.064198e-08
1.844504e-09
-1.144098e-08
1.869327e-09
-1.224825e-08
1.88889e-09
-1.306164e-08
1.903353e-09
-1.387903e-08
1.912872e-09
-1.469837e-08
1.917595e-09
-1.551768e-08
1.917658e-09
-1.633501e-08
1.913192e-09
-1.714848e-08
1.904315e-09
-1.795623e-08
1.891137e-09
-1.875647e-08
1.873756e-09
-1.954741e-08
1.852265e-09
-2.032734e-08
1.826745e-09
-2.109456e-08
1.797271e-09
-2.184739e-08
1.763911e-09
-2.258418e-08
1.726727e-09
-2.330334e-08
1.685775e-09
-2.400325e-08
1.641112e-09
-2.468236e-08
1.592787e-09
-2.533912e-08
1.540853e-09
-2.597201e-08
1.485362e-09
-2.657954e-08
1.426365e-09
-2.716024e-08
1.363919e-09
-2.771265e-08
1.298085e-09
-2.823539e-08
1.228928e-09
-2.872706e-08
1.156522e-09
-2.918633e-08
1.080947e-09
-2.961189e-08
1.002292e-09
-3.00025e-08
9.206573e-10
-3.035694e-08
8.361538e-10
-3.067407e-08
7.489039e-10
-3.095279e-08
6.590429e-10
-3.119206e-08
5.667194e-10
-3.139095e-08
4.720961e-10
-3.154856e-08
3.753498e-10
-3.16641e-08
2.766723e-10
-3.173685e-08
1.762703e-10
-3.176621e-08
7.436555e-11
-3.175166e-08
-2.88052e-11
-3.169279e-08
-1.329903e-10
-3.158931e-08
-2.379237e-10
-3.144105e-08
-3.433249e-10
-3.124796e-08
-4.489004e-10
-3.101011e-08
-5.543435e-10
-3.072773e-08
-6.59336e-10
-3.040115e-08
-7.635483e-10
-3.003088e-08
-8.666417e-10
-2.961756e-08
-9.682687e-10
-2.916197e-08
-1.068075e-09
-2.866506e-08
-1.1657e-09
-2.812791e-08
-1.260781e-09
-2.755178e-08
-1.352951e-09
-2.693805e-08
-1.441844e-09
-2.628827e-08
-1.527096e-09
-2.560415e-08
-1.608346e-09
-2.488753e-08
-1.685239e-09
-2.414041e-08
-1.757427e-09
-2.33649e-08
-1.824572e-09
-2.256329e-08
-1.88635e-09
-2.173796e-08
-1.942449e-09
-2.089143e-08
-1.992574e-09
-2.002634e-08
-2.036449e-09
-1.914541e-08
-2.073816e-09
-1.825149e-08
-2.104444e-09
-1.73475e-08
-2.128121e-09
-1.643642e-08
-2.144664e-09
-1.552132e-08
-2.153918e-09
-1.460532e-08
-2.155755e-09
-1.369155e-08
-2.150081e-09
-1.278319e-08
-2.136831e-09
-1.188343e-08
-2.115975e-09
-1.099545e-08
-2.087517e-09
-1.01224e-08
-2.051496e-09
-9.267433e-09
-2.00799e-09
-8.43361e-09
-1.95711e-09
-7.623949e-09
-1.899009e-09
-6.841379e-09
-1.833877e-09
-6.08873e-09
-1.761947e-09
-5.368713e-09
-1.683489e-09
-4.683904e-09
-1.598821e-09
-4.036722e-09
-1.508304e-09
-3.429407e-09
-1.412347e-09
-2.864003e-09
-1.311412e-09
-2.342328e-09
-1.206016e-09
-1.86595e-09
-1.09674e-09
-1.436159e-09
-9.842355e-10
-1.053927e-09
-8.692365e-10
-7.198727e-10
-7.525736e-10
-4.342146e-10
-6.351928e-10
-1.967152e-10
-5.1818e-10
-6.616768e-12
-4.027924e-10
1.374367e-10
-2.904994e-10
2.374911e-10
-1.830338e-10
2.963898e-10
-8.245584e-11
3.178977e-10
8.769996e-12
3.068398e-10
8.768768e-11
2.692489e-10
1.507609e-10
2.125149e-10
1.938057e-10
1.455317e-10
2.119917e-10
7.885675e-11
1.999996e-10
2.504167e-11
1.524841e-10
6.504344e-11
1.437456e-11
-7.681934e-11
3.375678e-11
-1.388443e-10
4.002078e-11
-1.29175e-10
1.952231e-11
-6.526596e-11
-3.818217e-11
3.909645e-11
-1.409505e-10
1.727131e-10
-2.944737e-10
3.265749e-10
-5.026224e-10
4.935277e-10
-7.677479e-10
6.679442e-10
-1.090947e-09
8.454315e-10
-1.472294e-09
1.022586e-09
-1.911042e-09
1.196789e-09
-2.40579e-09
1.366048e-09
-2.954625e-09
1.528863e-09
-3.555242e-09
1.684126e-09
-4.20504e-09
1.831038e-09
-4.901199e-09
1.969046e-09
-5.640748e-09
2.09779e-09
-6.420619e-09
2.217066e-09
-7.237683e-09
2.326787e-09
-8.088789e-09
2.426962e-09
-8.97079e-09
2.51767e-09
-9.880564e-09
2.599046e-09
-1.081503e-08
2.671265e-09
-1.177115e-08
2.734528e-09
-1.274595e-08
2.789059e-09
-1.373654e-08
2.835089e-09
-1.474007e-08
2.872856e-09
-1.575377e-08
2.902597e-09
-1.677496e-08
2.924543e-09
-1.780101e-08
2.938921e-09
-1.882936e-08
2.945943e-09
-1.985751e-08
2.945814e-09
-2.088304e-08
2.938722e-09
-2.190358e-08
2.924846e-09
-2.291679e-08
2.904348e-09
-2.392041e-08
2.877379e-09
-2.491222e-08
2.844076e-09
-2.589004e-08
2.804565e-09
-2.685173e-08
2.75896e-09
-2.779518e-08
2.707367e-09
-2.871834e-08
2.649884e-09
-2.961917e-08
2.586602e-09
-3.049566e-08
2.517607e-09
-3.134586e-08
2.442984e-09
-3.216782e-08
2.362814e-09
-3.295964e-08
2.277183e-09
-3.371945e-08
2.186176e-09
-3.444542e-08
2.089886e-09
-3.513574e-08
1.988409e-09
-3.578867e-08
1.881854e-09
-3.640248e-08
1.770337e-09
-3.697552e-08
1.653986e-09
-3.750618e-08
1.532946e-09
-3.799289e-08
1.407373e-09
-3.843418e-08
1.277443e-09
-3.882863e-08
1.143348e-09
-3.917488e-08
1.005299e-09
-3.947169e-08
8.635279e-10
-3.971788e-08
7.182872e-10
-3.991238e-08
5.698509e-10
-4.005423e-08
4.18515e-10
-4.014255e-08
2.645979e-10
-4.017663e-08
1.084405e-10
-4.015584e-08
-4.95941e-11
-4.007971e-08
-2.091205e-10
-3.99479e-08
-3.697317e-10
-3.976023e-08
-5.309999e-10
-3.951665e-08
-6.924773e-10
-3.92173e-08
-8.536972e-10
-3.886246e-08
-1.014175e-09
-3.845259e-08
-1.173411e-09
-3.798834e-08
-1.330891e-09
-3.747052e-08
-1.486087e-09
-3.690014e-08
-1.638463e-09
-3.627836e-08
-1.787474e-09
-3.560657e-08
-1.93257e-09
-3.488633e-08
-2.073197e-09
-3.411937e-08
-2.208802e-09
-3.330763e-08
-2.338835e-09
-3.245322e-08
-2.462752e-09
-3.155844e-08
-2.580017e-09
-3.062576e-08
-2.690107e-09
-2.965782e-08
-2.792513e-09
-2.865743e-08
-2.886746e-09
-2.762754e-08
-2.972336e-09
-2.657127e-08
-3.048842e-09
-2.549187e-08
-3.115847e-09
-2.439272e-08
-3.172967e-09
-2.327731e-08
-3.219851e-09
-2.214925e-08
-3.256186e-09
-2.101222e-08
-3.281697e-09
-1.986998e-08
-3.296151e-09
-1.872638e-08
-3.299361e-09
-1.758527e-08
-3.291185e-09
-1.645057e-08
-3.271531e-09
-1.532619e-08
-3.240357e-09
-1.421603e-08
-3.197673e-09
-1.312399e-08
-3.143545e-09
-1.205388e-08
-3.078091e-09
-1.10095e-08
-3.00149e-09
-9.994535e-09
-2.913978e-09
-9.012563e-09
-2.815849e-09
-8.067047e-09
-2.707462e-09
-7.161297e-09
-2.589239e-09
-6.298449e-09
-2.461668e-09
-5.481446e-09
-2.325307e-09
-4.713004e-09
-2.180788e-09
-3.995594e-09
-2.028822e-09
-3.331402e-09
-1.870207e-09
-2.722306e-09
-1.705836e-09
-2.169832e-09
-1.536709e-09
-1.675119e-09
-1.36395e-09
-1.238869e-09
-1.188823e-09
-8.612994e-10
-1.012763e-09
-5.420774e-10
-8.374018e-10
-2.802544e-10
-6.646152e-10
-7.418492e-11
-4.96569e-10
7.856507e-11
-3.35784e-10
1.813207e-10
-1.852114e-10
2.384123e-10
-4.832072e-11
2.552978e-10
7.08034e-11
2.386937e-10
1.673656e-10
1.967155e-10
2.357828e-10
1.390484e-10
2.696572e-10
7.719911e-11
2.618505e-10
2.500026e-11
2.046831e-10
9.00435e-11
7.580368e-12
-8.439993e-11
9.142138e-12
-1.404074e-10
-1.214129e-11
-1.078928e-10
-6.931752e-11
-8.09067e-12
-1.725173e-10
1.422958e-10
-3.294493e-10
3.296452e-10
-5.457586e-10
5.428848e-10
-8.25325e-10
7.73095e-10
-1.170523e-09
1.013143e-09
-1.582458e-09
1.257367e-09
-2.061172e-09
1.501301e-09
-2.605837e-09
1.741454e-09
-3.214912e-09
1.975123e-09
-3.886287e-09
2.200239e-09
-4.617407e-09
2.415245e-09
-5.405366e-09
2.618997e-09
-6.247e-09
2.810679e-09
-7.138955e-09
2.989744e-09
-8.077744e-09
3.155855e-09
-9.059799e-09
3.308842e-09
-1.008151e-08
3.448671e-09
-1.113925e-08
3.57541e-09
-1.22294e-08
3.689205e-09
-1.33484e-08
3.790264e-09
-1.449271e-08
3.878838e-09
-1.565886e-08
3.955207e-09
-1.684344e-08
4.01967e-09
-1.804312e-08
4.072535e-09
-1.925464e-08
4.114115e-09
-2.047482e-08
4.144717e-09
-2.170054e-08
4.164642e-09
-2.292877e-08
4.174177e-09
-2.415655e-08
4.173597e-09
-2.538099e-08
4.16316e-09
-2.659925e-08
4.143109e-09
-2.780857e-08
4.113669e-09
-2.900624e-08
4.075047e-09
-3.01896e-08
4.027435e-09
-3.135604e-08
3.97101e-09
-3.250302e-08
3.905934e-09
-3.362801e-08
3.832359e-09
-3.472855e-08
3.750425e-09
-3.580221e-08
3.660263e-09
-3.684661e-08
3.562002e-09
-3.785939e-08
3.455765e-09
-3.883825e-08
3.341674e-09
-3.978092e-08
3.219855e-09
-4.068518e-08
3.090436e-09
-4.154885e-08
2.953553e-09
-4.236979e-08
2.809353e-09
-4.314593e-08
2.657993e-09
-4.387524e-08
2.499647e-09
-4.455576e-08
2.334502e-09
-4.518558e-08
2.162769e-09
-4.576288e-08
1.984677e-09
-4.628592e-08
1.800478e-09
-4.675302e-08
1.610451e-09
-4.716262e-08
1.4149e-09
-4.751325e-08
1.214157e-09
-4.780354e-08
1.008582e-09
-4.803226e-08
7.985668e-10
-4.819828e-08
5.845322e-10
-4.830061e-08
3.669299e-10
-4.833841e-08
1.462429e-10
-4.831099e-08
-7.701523e-11
-4.821781e-08
-3.023006e-10
-4.80585e-08
-5.290396e-10
-4.783287e-08
-7.5663e-10
-4.754091e-08
-9.844421e-10
-4.718278e-08
-1.211821e-09
-4.675887e-08
-1.438086e-09
-4.626975e-08
-1.662538e-09
-4.571618e-08
-1.884456e-09
-4.509916e-08
-2.103104e-09
-4.44199e-08
-2.317729e-09
-4.36798e-08
-2.527572e-09
-4.28805e-08
-2.731865e-09
-4.202386e-08
-2.929836e-09
-4.111195e-08
-3.120714e-09
-4.014706e-08
-3.303733e-09
-3.913167e-08
-3.478134e-09
-3.806852e-08
-3.643172e-09
-3.696051e-08
-3.79812e-09
-3.581075e-08
-3.94227e-09
-3.462255e-08
-4.074942e-09
-3.33994e-08
-4.195487e-09
-3.214496e-08
-4.303288e-09
-3.086303e-08
-4.397769e-09
-2.95576e-08
-4.478398e-09
-2.823277e-08
-4.544688e-09
-2.689275e-08
-4.596206e-09
-2.554187e-08
-4.632574e-09
-2.418455e-08
-4.65347e-09
-2.282528e-08
-4.658637e-09
-2.146858e-08
-4.647882e-09
-2.011903e-08
-4.621081e-09
-1.87812e-08
-4.57818e-09
-1.745968e-08
-4.5192e-09
-1.615898e-08
-4.444237e-09
-1.488361e-08
-4.353464e-09
-1.363797e-08
-4.247137e-09
-1.242635e-08
-4.125592e-09
-1.125295e-08
-3.989251e-09
-1.012179e-08
-3.838624e-09
-9.036717e-09
-3.674309e-09
-8.001384e-09
-3.497002e-09
-7.019198e-09
-3.307493e-09
-6.093306e-09
-3.106679e-09
-5.22656e-09
-2.895569e-09
-4.421477e-09
-2.675289e-09
-3.680211e-09
-2.447102e-09
-3.004504e-09
-2.212417e-09
-2.395643e-09
-1.97281e-09
-1.854416e-09
-1.73005e-09
-1.38105e-09
-1.486129e-09
-9.751503e-10
-1.243301e-09
-6.356329e-10
-1.004132e-09
-3.606456e-10
-7.71556e-10
-1.474821e-10
-5.489476e-10
7.511963e-12
-3.402059e-10
1.090405e-10
-1.498497e-10
1.629657e-10
1.687856e-11
1.764256e-10
1.539068e-10
1.579718e-10
2.542372e-10
1.177534e-10
3.098745e-10
6.780722e-11
3.117972e-10
2.257047e-11
2.499202e-10
1.126139e-10
-5.769009e-13
-8.382405e-11
-2.035111e-11
-1.206345e-10
-7.419378e-11
-5.405081e-11
-1.739832e-10
9.169846e-11
-3.2909e-10
2.974029e-10
-5.467154e-10
5.472711e-10
-8.32165e-10
8.283352e-10
-1.189089e-09
1.13002e-09
-1.619698e-09
1.443753e-09
-2.124964e-09
1.762633e-09
-2.704803e-09
2.081139e-09
-3.358242e-09
2.394893e-09
-4.083575e-09
2.700455e-09
-4.878491e-09
2.995155e-09
-5.740199e-09
3.276952e-09
-6.665521e-09
3.544319e-09
-7.650989e-09
3.796146e-09
-8.692911e-09
4.031666e-09
-9.787439e-09
4.250382e-09
-1.093062e-08
4.452021e-09
-1.211843e-08
4.636484e-09
-1.334683e-08
4.80381e-09
-1.461177e-08
4.954149e-09
-1.590924e-08
5.087731e-09
-1.723525e-08
5.204847e-09
-1.858587e-08
5.305833e-09
-1.995726e-08
5.391052e-09
-2.134561e-08
5.460885e-09
-2.274721e-08
5.515719e-09
-2.415843e-08
5.55594e-09
-2.557572e-08
5.581927e-09
-2.699559e-08
5.594046e-09
-2.841464e-08
5.592647e-09
-2.982954e-08
5.578064e-09
-3.123704e-08
5.550609e-09
-3.263395e-08
5.510574e-09
-3.401713e-08
5.458233e-09
-3.538353e-08
5.393836e-09
-3.673014e-08
5.317619e-09
-3.805401e-08
5.229799e-09
-3.935223e-08
5.130579e-09
-4.062195e-08
5.020149e-09
-4.186038e-08
4.89869e-09
-4.306475e-08
4.766378e-09
-4.423237e-08
4.623382e-09
-4.536057e-08
4.469875e-09
-4.644675e-08
4.306031e-09
-4.748834e-08
4.132029e-09
-4.848285e-08
3.948061e-09
-4.942782e-08
3.754329e-09
-5.032089e-08
3.551054e-09
-5.115971e-08
3.338475e-09
-5.194206e-08
3.116853e-09
-5.266577e-08
2.886476e-09
-5.332875e-08
2.647658e-09
-5.392902e-08
2.400746e-09
-5.446469e-08
2.146118e-09
-5.493397e-08
1.884186e-09
-5.533522e-08
1.6154e-09
-5.566688e-08
1.340247e-09
-5.592757e-08
1.059254e-09
-5.611602e-08
7.729856e-10
-5.623114e-08
4.820485e-10
-5.627199e-08
1.870888e-10
-5.62378e-08
-1.112068e-10
-5.612799e-08
-4.121125e-10
-5.594216e-08
-7.14864e-10
-5.568013e-08
-1.01866e-09
-5.534191e-08
-1.322662e-09
-5.492773e-08
-1.626002e-09
-5.443804e-08
-1.927778e-09
-5.387352e-08
-2.227061e-09
-5.323508e-08
-2.522896e-09
-5.252387e-08
-2.81431e-09
-5.174129e-08
-3.10031e-09
-5.088897e-08
-3.379889e-09
-4.99688e-08
-3.652035e-09
-4.898291e-08
-3.915728e-09
-4.793367e-08
-4.169953e-09
-4.682371e-08
-4.413698e-09
-4.565588e-08
-4.645964e-09
-4.443328e-08
-4.865772e-09
-4.315924e-08
-5.072161e-09
-4.18373e-08
-5.264202e-09
-4.047125e-08
-5.441001e-09
-3.906503e-08
-5.601702e-09
-3.762282e-08
-5.745498e-09
-3.614896e-08
-5.871631e-09
-3.464795e-08
-5.979402e-09
-3.312447e-08
-6.068175e-09
-3.158329e-08
-6.13738e-09
-3.002934e-08
-6.186524e-09
-2.846763e-08
-6.215187e-09
-2.690323e-08
-6.223034e-09
-2.53413e-08
-6.209816e-09
-2.3787e-08
-6.175374e-09
-2.224554e-08
-6.119644e-09
-2.072208e-08
-6.042659e-09
-1.922177e-08
-5.944552e-09
-1.774967e-08
-5.825561e-09
-1.631078e-08
-5.68603e-09
-1.490996e-08
-5.526413e-09
-1.355193e-08
-5.347278e-09
-1.224125e-08
-5.149307e-09
-1.098225e-08
-4.933307e-09
-9.779046e-09
-4.700204e-09
-8.635478e-09
-4.45106e-09
-7.555084e-09
-4.187074e-09
-6.541062e-09
-3.909591e-09
-5.596236e-09
-3.620115e-09
-4.723014e-09
-3.320324e-09
-3.923342e-09
-3.012089e-09
-3.198659e-09
-2.697494e-09
-2.549843e-09
-2.378866e-09
-1.977157e-09
-2.058814e-09
-1.480188e-09
-1.74027e-09
-1.057777e-09
-1.426543e-09
-7.079473e-10
-1.121385e-09
-4.27829e-10
-8.290653e-10
-2.135716e-10
-5.544632e-10
-6.02565e-11
-3.031653e-10
3.819913e-11
-8.157767e-11
8.914936e-11
1.029568e-10
1.013488e-10
2.420386e-10
8.513089e-11
3.260921e-10
5.267955e-11
3.442485e-10
1.845912e-11
2.841408e-10
1.31073e-10
-9.549367e-12
-7.427574e-11
-5.299012e-11
-7.719443e-11
-1.429186e-10
3.587779e-11
-2.896722e-10
2.384525e-10
-5.015306e-10
5.09262e-10
-7.849046e-10
8.306459e-10
-1.14452e-09
1.187951e-09
-1.583594e-09
1.569095e-09
-2.104009e-09
1.964169e-09
-2.70647e-09
2.365095e-09
-3.390666e-09
2.765335e-09
-4.155413e-09
3.159641e-09
-4.998793e-09
3.543835e-09
-5.918275e-09
3.914636e-09
-6.910825e-09
4.269501e-09
-7.973008e-09
4.606501e-09
-9.101071e-09
4.924209e-09
-1.029102e-08
5.221614e-09
-1.153868e-08
5.49804e-09
-1.283974e-08
5.753088e-09
-1.418984e-08
5.986581e-09
-1.558454e-08
6.198515e-09
-1.701942e-08
6.389029e-09
-1.849006e-08
6.558366e-09
-1.999206e-08
6.706852e-09
-2.15211e-08
6.834872e-09
-2.30729e-08
6.94285e-09
-2.464325e-08
7.031237e-09
-2.622803e-08
7.100493e-09
-2.782317e-08
7.151085e-09
-2.942472e-08
7.183472e-09
-3.102877e-08
7.198099e-09
-3.263152e-08
7.195398e-09
-3.422924e-08
7.175779e-09
-3.581826e-08
7.13963e-09
-3.7395e-08
7.087316e-09
-3.895594e-08
7.019178e-09
-4.049764e-08
6.935535e-09
-4.201671e-08
6.836685e-09
-4.350982e-08
6.722906e-09
-4.49737e-08
6.594458e-09
-4.640514e-08
6.45159e-09
-4.780099e-08
6.294539e-09
-4.915814e-08
6.123532e-09
-5.047356e-08
5.938799e-09
-5.174424e-08
5.740564e-09
-5.296727e-08
5.529061e-09
-5.413977e-08
5.304529e-09
-5.525894e-08
5.067224e-09
-5.632202e-08
4.817415e-09
-5.732636e-08
4.555394e-09
-5.826937e-08
4.28148e-09
-5.914853e-08
3.996017e-09
-5.996144e-08
3.699383e-09
-6.070577e-08
3.391992e-09
-6.137932e-08
3.074296e-09
-6.198e-08
2.746789e-09
-6.250582e-08
2.410007e-09
-6.295495e-08
2.064533e-09
-6.33257e-08
1.710998e-09
-6.361653e-08
1.350082e-09
-6.382605e-08
9.825127e-10
-6.395308e-08
6.090712e-10
-6.399657e-08
2.305872e-10
-6.395572e-08
-1.52059e-10
-6.38299e-08
-5.379378e-10
-6.361869e-08
-9.260715e-10
-6.332191e-08
-1.315436e-09
-6.293961e-08
-1.704964e-09
-6.247207e-08
-2.093546e-09
-6.191981e-08
-2.480033e-09
-6.128363e-08
-2.863244e-09
-6.056456e-08
-3.241967e-09
-5.976391e-08
-3.614961e-09
-5.888325e-08
-3.980968e-09
-5.792443e-08
-4.33871e-09
-5.688956e-08
-4.686903e-09
-5.578103e-08
-5.024255e-09
-5.460151e-08
-5.349478e-09
-5.335391e-08
-5.661293e-09
-5.204144e-08
-5.958435e-09
-5.066755e-08
-6.239663e-09
-4.923594e-08
-6.503765e-09
-4.775058e-08
-6.749566e-09
-4.621565e-08
-6.975933e-09
-4.463556e-08
-7.181789e-09
-4.301495e-08
-7.366112e-09
-4.135863e-08
-7.527947e-09
-3.967162e-08
-7.666412e-09
-3.795909e-08
-7.780705e-09
-3.622636e-08
-7.87011e-09
-3.447888e-08
-7.934003e-09
-3.272221e-08
-7.97186e-09
-3.096198e-08
-7.983261e-09
-2.92039e-08
-7.967896e-09
-2.745371e-08
-7.925569e-09
-2.571714e-08
-7.856205e-09
-2.399995e-08
-7.759852e-09
-2.230782e-08
-7.636688e-09
-2.064635e-08
-7.487022e-09
-1.902109e-08
-7.311299e-09
-1.743739e-08
-7.110105e-09
-1.59005e-08
-6.884171e-09
-1.441543e-08
-6.634375e-09
-1.298699e-08
-6.361749e-09
-1.161971e-08
-6.067487e-09
-1.031782e-08
-5.752946e-09
-9.085234e-09
-5.419661e-09
-7.925473e-09
-5.069352e-09
-6.841648e-09
-4.703939e-09
-5.836414e-09
-4.325559e-09
-4.911917e-09
-3.936586e-09
-4.069755e-09
-3.539656e-09
-3.310918e-09
-3.137703e-09
-2.635736e-09
-2.733995e-09
-2.043823e-09
-2.332184e-09
-1.534006e-09
-1.93636e-09
-1.104265e-09
-1.551125e-09
-7.516631e-10
-1.181667e-09
-4.722679e-10
-8.338578e-10
-2.6108e-10
-5.143531e-10
-1.119469e-10
-2.307113e-10
-1.74698e-11
8.47925e-12
3.111128e-11
1.934579e-10
4.407011e-11
3.131334e-10
3.341404e-11
3.549045e-10
1.319547e-11
3.043594e-10
1.442684e-10
-1.897816e-11
-5.529806e-11
-8.756255e-11
-8.609895e-12
-2.159663e-10
1.642822e-10
-4.127725e-10
4.352596e-10
-6.849423e-10
7.814326e-10
-1.037883e-09
1.183587e-09
-1.475547e-09
1.625616e-09
-2.000552e-09
2.094101e-09
-2.614303e-09
2.57792e-09
-3.317122e-09
3.067914e-09
-4.108375e-09
3.556587e-09
-4.986592e-09
4.037857e-09
-5.949591e-09
4.506834e-09
-6.994588e-09
4.959632e-09
-8.118293e-09
5.393205e-09
-9.317007e-09
5.805215e-09
-1.05867e-08
6.193905e-09
-1.19231e-08
6.558009e-09
-1.332172e-08
6.896657e-09
-1.477794e-08
7.209311e-09
-1.628706e-08
7.4957e-09
-1.784431e-08
7.755768e-09
-1.944491e-08
7.98963e-09
-2.108408e-08
8.197535e-09
-2.275707e-08
8.379837e-09
-2.445915e-08
8.536961e-09
-2.61857e-08
8.66939e-09
-2.79321e-08
8.777641e-09
-2.969385e-08
8.862248e-09
-3.146652e-08
8.923755e-09
-3.324575e-08
8.962702e-09
-3.502727e-08
8.979617e-09
-3.680689e-08
8.975012e-09
-3.858049e-08
8.949378e-09
-4.034404e-08
8.903182e-09
-4.209359e-08
8.836864e-09
-4.382525e-08
8.750839e-09
-4.553521e-08
8.645498e-09
-4.721973e-08
8.521205e-09
-4.887513e-08
8.378306e-09
-5.04978e-08
8.217126e-09
-5.208418e-08
8.037975e-09
-5.36308e-08
7.841151e-09
-5.513421e-08
7.626947e-09
-5.659106e-08
7.39565e-09
-5.799805e-08
7.147553e-09
-5.935194e-08
6.882953e-09
-6.064957e-08
6.602158e-09
-6.188785e-08
6.305497e-09
-6.306375e-08
5.993316e-09
-6.417434e-08
5.66599e-09
-6.521679e-08