/*--------------------------------*- C++ -*----------------------------------*\
| =========                 |                                                 |
| \\      /  F ield         | OpenFOAM: The Open Source CFD Toolbox           |
|  \\    /   O peration     | Version:  2406                                  |
|   \\  /    A nd           | Website:  www.openfoam.com                      |
|    \\/     M anipulation  |                                                 |
\*---------------------------------------------------------------------------*/
FoamFile
{
    version     2.0;
    format      ascii;
    arch        "LSB;label=32;scalar=64";
    class       volVectorField;
    location    "6706";
    object      U;
}
// * * * * * * * * * * * * * * * * * * * * * * * * * * * * * * * * * * * * * //

dimensions      [0 1 -1 0 0 0 0];

internalField   nonuniform List<vector> 
16384
(
(4.434981e-10 -5.668286e-10 0)
(4.326555e-09 -1.342331e-09 0)
(1.050437e-08 -1.666756e-09 0)
(1.707236e-08 -1.632985e-09 0)
(2.255233e-08 -1.395149e-09 0)
(2.608862e-08 -1.041895e-09 0)
(2.716106e-08 -6.316521e-10 0)
(2.547023e-08 -1.998776e-10 0)
(2.086928e-08 2.328862e-10 0)
(1.331469e-08 6.547566e-10 0)
(2.832864e-09 1.058902e-09 0)
(-1.050204e-08 1.441515e-09 0)
(-2.658336e-08 1.800611e-09 0)
(-4.528255e-08 2.135329e-09 0)
(-6.645682e-08 2.445498e-09 0)
(-8.995455e-08 2.731397e-09 0)
(-1.156193e-07 2.993595e-09 0)
(-1.432927e-07 3.232853e-09 0)
(-1.728166e-07 3.450051e-09 0)
(-2.040348e-07 3.646137e-09 0)
(-2.367939e-07 3.82208e-09 0)
(-2.709445e-07 3.978847e-09 0)
(-3.063415e-07 4.1174e-09 0)
(-3.428444e-07 4.238675e-09 0)
(-3.803178e-07 4.343572e-09 0)
(-4.18631e-07 4.432949e-09 0)
(-4.576586e-07 4.507624e-09 0)
(-4.972797e-07 4.568359e-09 0)
(-5.37378e-07 4.615862e-09 0)
(-5.778418e-07 4.650781e-09 0)
(-6.185634e-07 4.673703e-09 0)
(-6.594391e-07 4.685158e-09 0)
(-7.003687e-07 4.685615e-09 0)
(-7.412552e-07 4.675491e-09 0)
(-7.820048e-07 4.655157e-09 0)
(-8.225261e-07 4.624935e-09 0)
(-8.627303e-07 4.585097e-09 0)
(-9.025305e-07 4.535872e-09 0)
(-9.418417e-07 4.477448e-09 0)
(-9.805808e-07 4.40998e-09 0)
(-1.018666e-06 4.333595e-09 0)
(-1.056016e-06 4.248388e-09 0)
(-1.092551e-06 4.15443e-09 0)
(-1.128194e-06 4.051772e-09 0)
(-1.162865e-06 3.940457e-09 0)
(-1.196489e-06 3.820521e-09 0)
(-1.22899e-06 3.691999e-09 0)
(-1.260291e-06 3.554925e-09 0)
(-1.290318e-06 3.409329e-09 0)
(-1.318999e-06 3.255253e-09 0)
(-1.34626e-06 3.092752e-09 0)
(-1.37203e-06 2.921906e-09 0)
(-1.396239e-06 2.742816e-09 0)
(-1.418818e-06 2.555606e-09 0)
(-1.439701e-06 2.360425e-09 0)
(-1.458822e-06 2.157453e-09 0)
(-1.476119e-06 1.946907e-09 0)
(-1.491533e-06 1.729046e-09 0)
(-1.505004e-06 1.504173e-09 0)
(-1.516481e-06 1.272627e-09 0)
(-1.52591e-06 1.034794e-09 0)
(-1.533246e-06 7.910997e-10 0)
(-1.538446e-06 5.420216e-10 0)
(-1.541472e-06 2.880858e-10 0)
(-1.54229e-06 2.986907e-11 0)
(-1.540871e-06 -2.32004e-10 0)
(-1.537194e-06 -4.968624e-10 0)
(-1.531242e-06 -7.639891e-10 0)
(-1.523003e-06 -1.032622e-09 0)
(-1.512475e-06 -1.301954e-09 0)
(-1.499661e-06 -1.571136e-09 0)
(-1.48457e-06 -1.839281e-09 0)
(-1.467221e-06 -2.105466e-09 0)
(-1.447638e-06 -2.368737e-09 0)
(-1.425855e-06 -2.62811e-09 0)
(-1.401913e-06 -2.882583e-09 0)
(-1.375861e-06 -3.131131e-09 0)
(-1.347758e-06 -3.372717e-09 0)
(-1.317668e-06 -3.606296e-09 0)
(-1.285667e-06 -3.830818e-09 0)
(-1.251837e-06 -4.045236e-09 0)
(-1.216267e-06 -4.248515e-09 0)
(-1.179059e-06 -4.439639e-09 0)
(-1.140316e-06 -4.617616e-09 0)
(-1.100155e-06 -4.781484e-09 0)
(-1.058697e-06 -4.930318e-09 0)
(-1.016069e-06 -5.063233e-09 0)
(-9.724084e-07 -5.179394e-09 0)
(-9.278554e-07 -5.27802e-09 0)
(-8.825574e-07 -5.35839e-09 0)
(-8.366668e-07 -5.419853e-09 0)
(-7.903405e-07 -5.461827e-09 0)
(-7.437397e-07 -5.483808e-09 0)
(-6.970287e-07 -5.48537e-09 0)
(-6.503747e-07 -5.466174e-09 0)
(-6.03947e-07 -5.425966e-09 0)
(-5.579159e-07 -5.364584e-09 0)
(-5.124526e-07 -5.28196e-09 0)
(-4.67728e-07 -5.178116e-09 0)
(-4.239118e-07 -5.053169e-09 0)
(-3.811722e-07 -4.907325e-09 0)
(-3.396744e-07 -4.740884e-09 0)
(-2.995807e-07 -4.554235e-09 0)
(-2.610485e-07 -4.347864e-09 0)
(-2.242305e-07 -4.122349e-09 0)
(-1.892734e-07 -3.878357e-09 0)
(-1.563168e-07 -3.616649e-09 0)
(-1.254925e-07 -3.338075e-09 0)
(-9.69237e-08 -3.043584e-09 0)
(-7.072339e-08 -2.734232e-09 0)
(-4.699363e-08 -2.411191e-09 0)
(-2.582399e-08 -2.075774e-09 0)
(-7.289964e-09 -1.729453e-09 0)
(8.548877e-09 -1.373917e-09 0)
(2.165128e-08 -1.011149e-09 0)
(3.199724e-08 -6.435354e-10 0)
(3.959186e-08 -2.740429e-10 0)
(4.447044e-08 9.351894e-11 0)
(4.67054e-08 4.540598e-10 0)
(4.641573e-08 8.004869e-10 0)
(4.378029e-08 1.122523e-09 0)
(3.905653e-08 1.404811e-09 0)
(3.260732e-08 1.623873e-09 0)
(2.493777e-08 1.74359e-09 0)
(1.674107e-08 1.710772e-09 0)
(8.967459e-09 1.452406e-09 0)
(2.960646e-09 8.637554e-10 0)
(4.128235e-11 4.263396e-11 0)
(1.281474e-09 -4.511169e-09 0)
(9.976122e-09 -1.009008e-08 0)
(2.192845e-08 -1.208928e-08 0)
(3.370044e-08 -1.113688e-08 0)
(4.231227e-08 -8.137448e-09 0)
(4.584719e-08 -3.81014e-09 0)
(4.302568e-08 1.328685e-09 0)
(3.303511e-08 6.918998e-09 0)
(1.541597e-08 1.271219e-08 0)
(-1.003118e-08 1.853673e-08 0)
(-4.331634e-08 2.427407e-08 0)
(-8.431191e-08 2.984234e-08 0)
(-1.327909e-07 3.518541e-08 0)
(-1.884555e-07 4.026543e-08 0)
(-2.50958e-07 4.505775e-08 0)
(-3.199171e-07 4.954735e-08 0)
(-3.949296e-07 5.37263e-08 0)
(-4.755798e-07 5.759196e-08 0)
(-5.614465e-07 6.114558e-08 0)
(-6.521081e-07 6.439127e-08 0)
(-7.471467e-07 6.733523e-08 0)
(-8.461508e-07 6.99851e-08 0)
(-9.487179e-07 7.234952e-08 0)
(-1.054456e-06 7.443773e-08 0)
(-1.162983e-06 7.625929e-08 0)
(-1.27393e-06 7.782384e-08 0)
(-1.38694e-06 7.914091e-08 0)
(-1.501667e-06 8.021979e-08 0)
(-1.617777e-06 8.106938e-08 0)
(-1.734949e-06 8.169814e-08 0)
(-1.852869e-06 8.211401e-08 0)
(-1.971237e-06 8.232436e-08 0)
(-2.089762e-06 8.233599e-08 0)
(-2.208159e-06 8.215511e-08 0)
(-2.326154e-06 8.178734e-08 0)
(-2.443481e-06 8.123773e-08 0)
(-2.559876e-06 8.051078e-08 0)
(-2.675087e-06 7.961047e-08 0)
(-2.788864e-06 7.854031e-08 0)
(-2.900961e-06 7.73034e-08 0)
(-3.011139e-06 7.590245e-08 0)
(-3.119161e-06 7.433985e-08 0)
(-3.224794e-06 7.26177e-08 0)
(-3.327808e-06 7.073791e-08 0)
(-3.427976e-06 6.870227e-08 0)
(-3.525075e-06 6.651246e-08 0)
(-3.618883e-06 6.417018e-08 0)
(-3.709182e-06 6.167715e-08 0)
(-3.795756e-06 5.903522e-08 0)
(-3.878393e-06 5.624639e-08 0)
(-3.956885e-06 5.331291e-08 0)
(-4.031026e-06 5.023734e-08 0)
(-4.100617e-06 4.702259e-08 0)
(-4.165461e-06 4.367196e-08 0)
(-4.225368e-06 4.018922e-08 0)
(-4.280154e-06 3.657863e-08 0)
(-4.329643e-06 3.2845e-08 0)
(-4.373664e-06 2.899373e-08 0)
(-4.412056e-06 2.503085e-08 0)
(-4.444668e-06 2.096303e-08 0)
(-4.471359e-06 1.679761e-08 0)
(-4.491999e-06 1.254262e-08 0)
(-4.506468e-06 8.206797e-09 0)
(-4.514664e-06 3.799595e-09 0)
(-4.516495e-06 -6.688203e-10 0)
(-4.511886e-06 -5.187575e-09 0)
(-4.500778e-06 -9.745098e-09 0)
(-4.483127e-06 -1.432914e-08 0)
(-4.458911e-06 -1.89268e-08 0)
(-4.428122e-06 -2.352455e-08 0)
(-4.390776e-06 -2.810828e-08 0)
(-4.346906e-06 -3.266336e-08 0)
(-4.296568e-06 -3.717466e-08 0)
(-4.239839e-06 -4.162661e-08 0)
(-4.176819e-06 -4.60033e-08 0)
(-4.107629e-06 -5.028853e-08 0)
(-4.032414e-06 -5.446585e-08 0)
(-3.951342e-06 -5.851871e-08 0)
(-3.864605e-06 -6.243048e-08 0)
(-3.772417e-06 -6.618458e-08 0)
(-3.675016e-06 -6.976455e-08 0)
(-3.572662e-06 -7.315415e-08 0)
(-3.465638e-06 -7.633748e-08 0)
(-3.354249e-06 -7.929906e-08 0)
(-3.238822e-06 -8.202392e-08 0)
(-3.119702e-06 -8.449772e-08 0)
(-2.997255e-06 -8.670685e-08 0)
(-2.871867e-06 -8.86385e-08 0)
(-2.743938e-06 -9.028075e-08 0)
(-2.613885e-06 -9.162273e-08 0)
(-2.48214e-06 -9.26546e-08 0)
(-2.349148e-06 -9.336772e-08 0)
(-2.215363e-06 -9.375469e-08 0)
(-2.08125e-06 -9.380939e-08 0)
(-1.947281e-06 -9.352711e-08 0)
(-1.813933e-06 -9.290457e-08 0)
(-1.681687e-06 -9.193993e-08 0)
(-1.551023e-06 -9.063294e-08 0)
(-1.422424e-06 -8.898486e-08 0)
(-1.296366e-06 -8.699856e-08 0)
(-1.17332e-06 -8.467854e-08 0)
(-1.053752e-06 -8.203092e-08 0)
(-9.381131e-07 -7.906352e-08 0)
(-8.268457e-07 -7.578585e-08 0)
(-7.203746e-07 -7.220917e-08 0)
(-6.191075e-07 -6.834655e-08 0)
(-5.234314e-07 -6.421291e-08 0)
(-4.337098e-07 -5.982514e-08 0)
(-3.502799e-07 -5.520225e-08 0)
(-2.734491e-07 -5.036558e-08 0)
(-2.034914e-07 -4.533907e-08 0)
(-1.406434e-07 -4.014966e-08 0)
(-8.509935e-08 -3.482784e-08 0)
(-3.70055e-08 -2.940843e-08 0)
(3.546669e-09 -2.393161e-08 0)
(3.652888e-08 -1.84445e-08 0)
(6.198674e-08 -1.300312e-08 0)
(8.00532e-08 -7.675418e-09 0)
(9.0966e-08 -2.545373e-09 0)
(9.509027e-08 2.281067e-09 0)
(9.294791e-08 6.66754e-09 0)
(8.525582e-08 1.043555e-08 0)
(7.297477e-08 1.334915e-08 0)
(5.736736e-08 1.509769e-08 0)
(4.005462e-08 1.528395e-08 0)
(2.308655e-08 1.344006e-08 0)
(9.16091e-09 9.173607e-09 0)
(8.577694e-10 2.959332e-09 0)
(1.654457e-09 -1.060748e-08 0)
(1.206758e-08 -2.202476e-08 0)
(2.50255e-08 -2.502567e-08 0)
(3.630044e-08 -2.145593e-08 0)
(4.217772e-08 -1.314291e-08 0)
(4.015814e-08 -1.578541e-09 0)
(2.848081e-08 1.209692e-08 0)
(5.963348e-09 2.703707e-08 0)
(-2.811142e-08 4.262231e-08 0)
(-7.409857e-08 5.840192e-08 0)
(-1.320761e-07 7.40492e-08 0)
(-2.019116e-07 8.932838e-08 0)
(-2.833148e-07 1.040706e-07 0)
(-3.758781e-07 1.181566e-07 0)
(-4.791082e-07 1.315042e-07 0)
(-5.924506e-07 1.440591e-07 0)
(-7.15309e-07 1.557882e-07 0)
(-8.470598e-07 1.666741e-07 0)
(-9.87064e-07 1.767119e-07 0)
(-1.134676e-06 1.859055e-07 0)
(-1.289251e-06 1.94266e-07 0)
(-1.45015e-06 2.01809e-07 0)
(-1.616742e-06 2.085542e-07 0)
(-1.788411e-06 2.145233e-07 0)
(-1.964554e-06 2.197397e-07 0)
(-2.144585e-06 2.242274e-07 0)
(-2.327933e-06 2.280108e-07 0)
(-2.514045e-06 2.311139e-07 0)
(-2.702385e-06 2.335598e-07 0)
(-2.892433e-06 2.35371e-07 0)
(-3.083685e-06 2.365686e-07 0)
(-3.275654e-06 2.371726e-07 0)
(-3.467865e-06 2.372013e-07 0)
(-3.659858e-06 2.36672e-07 0)
(-3.851184e-06 2.356e-07 0)
(-4.041406e-06 2.339996e-07 0)
(-4.2301e-06 2.318834e-07 0)
(-4.416849e-06 2.292628e-07 0)
(-4.601243e-06 2.261481e-07 0)
(-4.782885e-06 2.225484e-07 0)
(-4.96138e-06 2.184717e-07 0)
(-5.136343e-06 2.139254e-07 0)
(-5.307392e-06 2.089161e-07 0)
(-5.474154e-06 2.034498e-07 0)
(-5.636259e-06 1.975324e-07 0)
(-5.793342e-06 1.911693e-07 0)
(-5.945045e-06 1.843663e-07 0)
(-6.091013e-06 1.77129e-07 0)
(-6.230897e-06 1.694636e-07 0)
(-6.364355e-06 1.613766e-07 0)
(-6.49105e-06 1.528754e-07 0)
(-6.610653e-06 1.439681e-07 0)
(-6.722841e-06 1.346637e-07 0)
(-6.827302e-06 1.249727e-07 0)
(-6.92373e-06 1.149066e-07 0)
(-7.011833e-06 1.044783e-07 0)
(-7.091329e-06 9.370232e-08 0)
(-7.161948e-06 8.259481e-08 0)
(-7.223436e-06 7.11736e-08 0)
(-7.275554e-06 5.945836e-08 0)
(-7.31808e-06 4.747061e-08 0)
(-7.350809e-06 3.523376e-08 0)
(-7.373558e-06 2.277322e-08 0)
(-7.386165e-06 1.011632e-08 0)
(-7.388491e-06 -2.707626e-09 0)
(-7.38042e-06 -1.566736e-08 0)
(-7.361863e-06 -2.872972e-08 0)
(-7.33276e-06 -4.185968e-08 0)
(-7.293078e-06 -5.502043e-08 0)
(-7.242814e-06 -6.817348e-08 0)
(-7.181996e-06 -8.127876e-08 0)
(-7.110687e-06 -9.429473e-08 0)
(-7.028981e-06 -1.071786e-07 0)
(-6.937007e-06 -1.198863e-07 0)
(-6.83493e-06 -1.323729e-07 0)
(-6.722951e-06 -1.445928e-07 0)
(-6.601306e-06 -1.564997e-07 0)
(-6.470268e-06 -1.680469e-07 0)
(-6.330149e-06 -1.791878e-07 0)
(-6.181294e-06 -1.898759e-07 0)
(-6.024087e-06 -2.00065e-07 0)
(-5.858947e-06 -2.097096e-07 0)
(-5.68633e-06 -2.187653e-07 0)
(-5.506723e-06 -2.271888e-07 0)
(-5.32065e-06 -2.349383e-07 0)
(-5.128664e-06 -2.419738e-07 0)
(-4.93135e-06 -2.482574e-07 0)
(-4.729323e-06 -2.537533e-07 0)
(-4.523221e-06 -2.584286e-07 0)
(-4.313711e-06 -2.622529e-07 0)
(-4.101478e-06 -2.651992e-07 0)
(-3.887231e-06 -2.672435e-07 0)
(-3.671693e-06 -2.683654e-07 0)
(-3.455603e-06 -2.685483e-07 0)
(-3.239709e-06 -2.677795e-07 0)
(-3.02477e-06 -2.660502e-07 0)
(-2.811547e-06 -2.633558e-07 0)
(-2.600804e-06 -2.596962e-07 0)
(-2.393303e-06 -2.550757e-07 0)
(-2.189799e-06 -2.495031e-07 0)
(-1.991039e-06 -2.429918e-07 0)
(-1.797755e-06 -2.355601e-07 0)
(-1.610663e-06 -2.272311e-07 0)
(-1.430458e-06 -2.180327e-07 0)
(-1.257809e-06 -2.079981e-07 0)
(-1.093356e-06 -1.971658e-07 0)
(-9.377059e-07 -1.855797e-07 0)
(-7.914248e-07 -1.732895e-07 0)
(-6.55037e-07 -1.603514e-07 0)
(-5.29017e-07 -1.468284e-07 0)
(-4.137844e-07 -1.327912e-07 0)
(-3.096971e-07 -1.183195e-07 0)
(-2.170432e-07 -1.035034e-07 0)
(-1.360324e-07 -8.844528e-08 0)
(-6.678514e-08 -7.326301e-08 0)
(-9.319618e-09 -5.809346e-08 0)
(3.646378e-08 -4.309766e-08 0)
(7.080197e-08 -2.84677e-08 0)
(9.409316e-08 -1.443596e-08 0)
(1.069264e-07 -1.287525e-09 0)
(1.10118e-07 1.062371e-08 0)
(1.047554e-07 2.085456e-08 0)
(9.224911e-08 2.884912e-08 0)
(7.438679e-08 3.39179e-08 0)
(5.337404e-08 3.523472e-08 0)
(3.18886e-08 3.188694e-08 0)
(1.342157e-08 2.308991e-08 0)
(1.442277e-09 8.95035e-09 0)
(1.641278e-09 -1.717628e-08 0)
(1.120732e-08 -3.383254e-08 0)
(2.159509e-08 -3.632124e-08 0)
(2.818428e-08 -2.802347e-08 0)
(2.693515e-08 -1.180216e-08 0)
(1.505628e-08 1.000965e-08 0)
(-9.476698e-09 3.55757e-08 0)
(-4.806868e-08 6.348357e-08 0)
(-1.016079e-07 9.266131e-08 0)
(-1.705645e-07 1.223021e-07 0)
(-2.550761e-07 1.518023e-07 0)
(-3.550191e-07 1.807134e-07 0)
(-4.700668e-07 2.087051e-07 0)
(-5.997368e-07 2.35537e-07 0)
(-7.434291e-07 2.610381e-07 0)
(-9.004569e-07 2.850905e-07 0)
(-1.070071e-06 3.076172e-07 0)
(-1.251479e-06 3.28573e-07 0)
(-1.443862e-06 3.479372e-07 0)
(-1.646385e-06 3.657075e-07 0)
(-1.858209e-06 3.818962e-07 0)
(-2.078496e-06 3.96526e-07 0)
(-2.306417e-06 4.096277e-07 0)
(-2.541155e-06 4.212374e-07 0)
(-2.781908e-06 4.313949e-07 0)
(-3.027894e-06 4.401422e-07 0)
(-3.278348e-06 4.475223e-07 0)
(-3.532526e-06 4.535782e-07 0)
(-3.789705e-06 4.583522e-07 0)
(-4.049181e-06 4.61885e-07 0)
(-4.31027e-06 4.642158e-07 0)
(-4.572309e-06 4.653815e-07 0)
(-4.83465e-06 4.654166e-07 0)
(-5.096666e-06 4.643532e-07 0)
(-5.357743e-06 4.622208e-07 0)
(-5.617283e-06 4.590463e-07 0)
(-5.874704e-06 4.548544e-07 0)
(-6.129432e-06 4.496671e-07 0)
(-6.38091e-06 4.435045e-07 0)
(-6.628588e-06 4.363846e-07 0)
(-6.871926e-06 4.283237e-07 0)
(-7.110397e-06 4.193367e-07 0)
(-7.343477e-06 4.094372e-07 0)
(-7.570654e-06 3.986379e-07 0)
(-7.791422e-06 3.86951e-07 0)
(-8.005284e-06 3.743885e-07 0)
(-8.211748e-06 3.609622e-07 0)
(-8.410334e-06 3.466846e-07 0)
(-8.600565e-06 3.315686e-07 0)
(-8.781977e-06 3.156284e-07 0)
(-8.954112e-06 2.988794e-07 0)
(-9.116526e-06 2.813387e-07 0)
(-9.268781e-06 2.630252e-07 0)
(-9.410457e-06 2.439602e-07 0)
(-9.541143e-06 2.241674e-07 0)
(-9.660445e-06 2.036731e-07 0)
(-9.767985e-06 1.825067e-07 0)
(-9.863404e-06 1.607005e-07 0)
(-9.946363e-06 1.382904e-07 0)
(-1.001654e-05 1.153154e-07 0)
(-1.007365e-05 9.181826e-08 0)
(-1.011741e-05 6.784534e-08 0)
(-1.014759e-05 4.34467e-08 0)
(-1.016397e-05 1.867611e-08 0)
(-1.016638e-05 -6.408935e-09 0)
(-1.015466e-05 -3.174725e-08 0)
(-1.01287e-05 -5.727405e-08 0)
(-1.008843e-05 -8.292106e-08 0)
(-1.003382e-05 -1.086166e-07 0)
(-9.964854e-06 -1.342859e-07 0)
(-9.881594e-06 -1.598512e-07 0)
(-9.784126e-06 -1.85232e-07 0)
(-9.672586e-06 -2.103454e-07 0)
(-9.547154e-06 -2.351063e-07 0)
(-9.40806e-06 -2.594279e-07 0)
(-9.255579e-06 -2.832221e-07 0)
(-9.090036e-06 -3.063996e-07 0)
(-8.911805e-06 -3.288708e-07 0)
(-8.721309e-06 -3.505457e-07 0)
(-8.519019e-06 -3.713348e-07 0)
(-8.305454e-06 -3.911496e-07 0)
(-8.081183e-06 -4.099028e-07 0)
(-7.846819e-06 -4.275089e-07 0)
(-7.603023e-06 -4.438851e-07 0)
(-7.350498e-06 -4.589512e-07 0)
(-7.089991e-06 -4.726307e-07 0)
(-6.822289e-06 -4.84851e-07 0)
(-6.548215e-06 -4.955439e-07 0)
(-6.26863e-06 -5.046463e-07 0)
(-5.984426e-06 -5.121005e-07 0)
(-5.696524e-06 -5.178549e-07 0)
(-5.405871e-06 -5.218639e-07 0)
(-5.113438e-06 -5.240892e-07 0)
(-4.820212e-06 -5.244992e-07 0)
(-4.527195e-06 -5.2307e-07 0)
(-4.235401e-06 -5.197857e-07 0)
(-3.945849e-06 -5.146384e-07 0)
(-3.659557e-06 -5.076285e-07 0)
(-3.377543e-06 -4.987654e-07 0)
(-3.100813e-06 -4.880669e-07 0)
(-2.830363e-06 -4.755603e-07 0)
(-2.567169e-06 -4.612821e-07 0)
(-2.312182e-06 -4.452782e-07 0)
(-2.066327e-06 -4.276045e-07 0)
(-1.830489e-06 -4.083266e-07 0)
(-1.605518e-06 -3.875211e-07 0)
(-1.392214e-06 -3.652751e-07 0)
(-1.191324e-06 -3.416877e-07 0)
(-1.003535e-06 -3.168702e-07 0)
(-8.294672e-07 -2.90948e-07 0)
(-6.69665e-07 -2.640614e-07 0)
(-5.245879e-07 -2.363684e-07 0)
(-3.946006e-07 -2.080472e-07 0)
(-2.799611e-07 -1.792999e-07 0)
(-1.808075e-07 -1.503575e-07 0)
(-9.714128e-08 -1.214865e-07 0)
(-2.88089e-08 -9.299715e-08 0)
(2.452123e-08 -6.525479e-08 0)
(6.338555e-08 -3.869409e-08 0)
(8.855721e-08 -1.383726e-08 0)
(1.010831e-07 8.683494e-09 0)
(1.023262e-07 2.809981e-08 0)
(9.401246e-08 4.347982e-08 0)
(7.827773e-08 5.37074e-08 0)
(5.769906e-08 5.748488e-08 0)
(3.535804e-08 5.339259e-08 0)
(1.529989e-08 4.007506e-08 0)
(1.698612e-09 1.67084e-08 0)
(1.420543e-09 -2.271925e-08 0)
(8.291916e-09 -4.254762e-08 0)
(1.340759e-08 -4.227092e-08 0)
(1.210394e-08 -2.679665e-08 0)
(3.229773e-10 -4.330616e-11 0)
(-2.481947e-08 3.480979e-08 0)
(-6.545051e-08 7.52213e-08 0)
(-1.230742e-07 1.191917e-07 0)
(-1.986639e-07 1.651646e-07 0)
(-2.927518e-07 2.119388e-07 0)
(-4.05508e-07 2.585936e-07 0)
(-5.368103e-07 3.044286e-07 0)
(-6.863026e-07 3.489164e-07 0)
(-8.534447e-07 3.916644e-07 0)
(-1.037553e-06 4.32386e-07 0)
(-1.237836e-06 4.708777e-07 0)
(-1.45342e-06 5.070011e-07 0)
(-1.683374e-06 5.406687e-07 0)
(-1.926729e-06 5.718333e-07 0)
(-2.182488e-06 6.004787e-07 0)
(-2.449647e-06 6.266128e-07 0)
(-2.727194e-06 6.502618e-07 0)
(-3.014126e-06 6.714657e-07 0)
(-3.309447e-06 6.902743e-07 0)
(-3.61218e-06 7.067446e-07 0)
(-3.921362e-06 7.209378e-07 0)
(-4.236053e-06 7.329176e-07 0)
(-4.555335e-06 7.427485e-07 0)
(-4.878311e-06 7.504947e-07 0)
(-5.204107e-06 7.562185e-07 0)
(-5.531872e-06 7.599803e-07 0)
(-5.860777e-06 7.618372e-07 0)
(-6.190014e-06 7.618432e-07 0)
(-6.518796e-06 7.600487e-07 0)
(-6.846353e-06 7.565003e-07 0)
(-7.171935e-06 7.512411e-07 0)
(-7.494808e-06 7.443104e-07 0)
(-7.814253e-06 7.357441e-07 0)
(-8.129566e-06 7.255747e-07 0)
(-8.440057e-06 7.13832e-07 0)
(-8.745046e-06 7.005431e-07 0)
(-9.043868e-06 6.857329e-07 0)
(-9.335867e-06 6.694246e-07 0)
(-9.620396e-06 6.516401e-07 0)
(-9.896823e-06 6.324005e-07 0)
(-1.016452e-05 6.117265e-07 0)
(-1.042288e-05 5.896391e-07 0)
(-1.067129e-05 5.6616e-07 0)
(-1.090916e-05 5.41312e-07 0)
(-1.11359e-05 5.151198e-07 0)
(-1.135096e-05 4.876101e-07 0)
(-1.155378e-05 4.588124e-07 0)
(-1.17438e-05 4.287593e-07 0)
(-1.192052e-05 3.97487e-07 0)
(-1.208342e-05 3.650356e-07 0)
(-1.223202e-05 3.314496e-07 0)
(-1.236585e-05 2.967781e-07 0)
(-1.248446e-05 2.610754e-07 0)
(-1.258745e-05 2.244007e-07 0)
(-1.267442e-05 1.868191e-07 0)
(-1.274501e-05 1.48401e-07 0)
(-1.27989e-05 1.092228e-07 0)
(-1.283579e-05 6.936672e-08 0)
(-1.285543e-05 2.89209e-08 0)
(-1.28576e-05 -1.202064e-08 0)
(-1.284212e-05 -5.335803e-08 0)
(-1.280887e-05 -9.498573e-08 0)
(-1.275776e-05 -1.367927e-07 0)
(-1.268876e-05 -1.786625e-07 0)
(-1.260187e-05 -2.204738e-07 0)
(-1.249717e-05 -2.621007e-07 0)
(-1.237478e-05 -3.034128e-07 0)
(-1.223486e-05 -3.442762e-07 0)
(-1.207766e-05 -3.845536e-07 0)
(-1.190346e-05 -4.241049e-07 0)
(-1.171261e-05 -4.62788e-07 0)
(-1.150552e-05 -5.004592e-07 0)
(-1.128266e-05 -5.369741e-07 0)
(-1.104456e-05 -5.721883e-07 0)
(-1.079181e-05 -6.059578e-07 0)
(-1.052505e-05 -6.381405e-07 0)
(-1.024499e-05 -6.685962e-07 0)
(-9.952395e-06 -6.971879e-07 0)
(-9.648078e-06 -7.237828e-07 0)
(-9.332914e-06 -7.482526e-07 0)
(-9.007826e-06 -7.704747e-07 0)
(-8.673787e-06 -7.903328e-07 0)
(-8.331816e-06 -8.077183e-07 0)
(-7.982974e-06 -8.225301e-07 0)
(-7.628361e-06 -8.346764e-07 0)
(-7.269115e-06 -8.440747e-07 0)
(-6.906402e-06 -8.506529e-07 0)
(-6.541416e-06 -8.543498e-07 0)
(-6.175375e-06 -8.55116e-07 0)
(-5.809511e-06 -8.529138e-07 0)
(-5.44507e-06 -8.477187e-07 0)
(-5.083305e-06 -8.395191e-07 0)
(-4.725468e-06 -8.28317e-07 0)
(-4.372807e-06 -8.141287e-07 0)
(-4.026559e-06 -7.969846e-07 0)
(-3.687945e-06 -7.769302e-07 0)
(-3.358158e-06 -7.540261e-07 0)
(-3.038367e-06 -7.283483e-07 0)
(-2.729699e-06 -6.999892e-07 0)
(-2.433239e-06 -6.690573e-07 0)
(-2.150021e-06 -6.356788e-07 0)
(-1.881019e-06 -5.999975e-07 0)
(-1.627141e-06 -5.621766e-07 0)
(-1.389219e-06 -5.223998e-07 0)
(-1.168e-06 -4.808732e-07 0)
(-9.64138e-07 -4.37828e-07 0)
(-7.781801e-07 -3.935233e-07 0)
(-6.105563e-07 -3.482507e-07 0)
(-4.615651e-07 -3.023396e-07 0)
(-3.313579e-07 -2.561644e-07 0)
(-2.199213e-07 -2.101537e-07 0)
(-1.270564e-07 -1.648019e-07 0)
(-5.235486e-08 -1.206837e-07 0)
(4.828433e-09 -7.847352e-08 0)
(4.540626e-08 -3.896716e-08 0)
(7.0594e-08 -3.109195e-09 0)
(8.19476e-08 2.797766e-08 0)
(8.140491e-08 5.296312e-08 0)
(7.132692e-08 7.028696e-08 0)
(5.452933e-08 7.815703e-08 0)
(3.436203e-08 7.458876e-08 0)
(1.522181e-08 5.751011e-08 0)
(1.734997e-09 2.491946e-08 0)
(1.082352e-09 -2.636307e-08 0)
(4.019477e-09 -4.622976e-08 0)
(1.887011e-09 -4.033193e-08 0)
(-9.736925e-09 -1.491162e-08 0)
(-3.468538e-08 2.512087e-08 0)
(-7.577921e-08 7.577608e-08 0)
(-1.351225e-07 1.338296e-07 0)
(-2.142168e-07 1.967026e-07 0)
(-3.140436e-07 2.623501e-07 0)
(-4.351417e-07 3.291624e-07 0)
(-5.776791e-07 3.958816e-07 0)
(-7.41516e-07 4.615328e-07 0)
(-9.262611e-07 5.253676e-07 0)
(-1.13132e-06 5.868187e-07 0)
(-1.355938e-06 6.454631e-07 0)
(-1.599234e-06 7.009934e-07 0)
(-1.860229e-06 7.531939e-07 0)
(-2.137876e-06 8.019221e-07 0)
(-2.431077e-06 8.470936e-07 0)
(-2.738699e-06 8.886696e-07 0)
(-3.05959e-06 9.266473e-07 0)
(-3.39259e-06 9.610516e-07 0)
(-3.736541e-06 9.919287e-07 0)
(-4.09029e-06 1.01934e-06 0)
(-4.452699e-06 1.043359e-06 0)
(-4.822647e-06 1.064066e-06 0)
(-5.199032e-06 1.081546e-06 0)
(-5.580777e-06 1.095886e-06 0)
(-5.966826e-06 1.107175e-06 0)
(-6.356148e-06 1.115497e-06 0)
(-6.747737e-06 1.120937e-06 0)
(-7.140609e-06 1.123575e-06 0)
(-7.533805e-06 1.123487e-06 0)
(-7.926389e-06 1.120743e-06 0)
(-8.317444e-06 1.115411e-06 0)
(-8.706076e-06 1.107552e-06 0)
(-9.091409e-06 1.097222e-06 0)
(-9.472583e-06 1.084475e-06 0)
(-9.848758e-06 1.069357e-06 0)
(-1.021911e-05 1.051913e-06 0)
(-1.058282e-05 1.032182e-06 0)
(-1.09391e-05 1.010203e-06 0)
(-1.128717e-05 9.86011e-07 0)
(-1.162624e-05 9.596388e-07 0)
(-1.195558e-05 9.311193e-07 0)
(-1.227442e-05 9.004848e-07 0)
(-1.258205e-05 8.67768e-07 0)
(-1.287773e-05 8.330026e-07 0)
(-1.316077e-05 7.962244e-07 0)
(-1.343048e-05 7.574715e-07 0)
(-1.368618e-05 7.167856e-07 0)
(-1.392721e-05 6.742119e-07 0)
(-1.415293e-05 6.298007e-07 0)
(-1.436274e-05 5.836069e-07 0)
(-1.455602e-05 5.356917e-07 0)
(-1.473221e-05 4.861222e-07 0)
(-1.489076e-05 4.349725e-07 0)
(-1.503116e-05 3.823238e-07 0)
(-1.515291e-05 3.282648e-07 0)
(-1.525556e-05 2.728923e-07 0)
(-1.533869e-05 2.163111e-07 0)
(-1.540193e-05 1.586343e-07 0)
(-1.544494e-05 9.998337e-08 0)
(-1.546743e-05 4.04884e-08 0)
(-1.546914e-05 -1.971218e-08 0)
(-1.544988e-05 -8.047162e-08 0)
(-1.54095e-05 -1.41635e-07 0)
(-1.534792e-05 -2.030397e-07 0)
(-1.52651e-05 -2.645153e-07 0)
(-1.516106e-05 -3.258845e-07 0)
(-1.50359e-05 -3.869635e-07 0)
(-1.488976e-05 -4.475622e-07 0)
(-1.472286e-05 -5.074855e-07 0)
(-1.453548e-05 -5.665336e-07 0)
(-1.432797e-05 -6.245027e-07 0)
(-1.410075e-05 -6.811863e-07 0)
(-1.38543e-05 -7.36376e-07 0)
(-1.35892e-05 -7.89862e-07 0)
(-1.330606e-05 -8.41435e-07 0)
(-1.300557e-05 -8.908865e-07 0)
(-1.268852e-05 -9.380105e-07 0)
(-1.235573e-05 -9.826042e-07 0)
(-1.20081e-05 -1.02447e-06 0)
(-1.16466e-05 -1.063414e-06 0)
(-1.127226e-05 -1.099253e-06 0)
(-1.088616e-05 -1.131809e-06 0)
(-1.048945e-05 -1.160914e-06 0)
(-1.008332e-05 -1.186412e-06 0)
(-9.669018e-06 -1.208157e-06 0)
(-9.247843e-06 -1.226017e-06 0)
(-8.821124e-06 -1.239873e-06 0)
(-8.390232e-06 -1.249621e-06 0)
(-7.956565e-06 -1.255175e-06 0)
(-7.52155e-06 -1.256464e-06 0)
(-7.086631e-06 -1.253433e-06 0)
(-6.653266e-06 -1.24605e-06 0)
(-6.222921e-06 -1.234299e-06 0)
(-5.797061e-06 -1.218184e-06 0)
(-5.377146e-06 -1.197731e-06 0)
(-4.96462e-06 -1.172985e-06 0)
(-4.560909e-06 -1.144016e-06 0)
(-4.167409e-06 -1.110912e-06 0)
(-3.785478e-06 -1.073789e-06 0)
(-3.416434e-06 -1.032781e-06 0)
(-3.061537e-06 -9.880512e-07 0)
(-2.721991e-06 -9.397854e-07 0)
(-2.398926e-06 -8.881967e-07 0)
(-2.093394e-06 -8.335267e-07 0)
(-1.806357e-06 -7.760468e-07 0)
(-1.538678e-06 -7.160613e-07 0)
(-1.291106e-06 -6.539107e-07 0)
(-1.064269e-06 -5.899761e-07 0)
(-8.586546e-07 -5.246846e-07 0)
(-6.745995e-07 -4.585169e-07 0)
(-5.122704e-07 -3.920158e-07 0)
(-3.716457e-07 -3.257983e-07 0)
(-2.524949e-07 -2.605697e-07 0)
(-1.543546e-07 -1.971413e-07 0)
(-7.650263e-08 -1.364522e-07 0)
(-1.792903e-08 -7.959502e-08 0)
(2.269503e-08 -2.784545e-08 0)
(4.70511e-08 1.730555e-08 0)
(5.720985e-08 5.411973e-08 0)
(5.566919e-08 8.058431e-08 0)
(4.538807e-08 9.439685e-08 0)
(2.987428e-08 9.297175e-08 0)
(1.368104e-08 7.346031e-08 0)
(1.627184e-09 3.267857e-08 0)
(6.835948e-10 -2.756691e-08 0)
(-1.118325e-09 -4.354153e-08 0)
(-1.189783e-08 -2.864445e-08 0)
(-3.563701e-08 9.799302e-09 0)
(-7.57614e-08 6.600648e-08 0)
(-1.349033e-07 1.352476e-07 0)
(-2.150416e-07 2.136605e-07 0)
(-3.175907e-07 2.981153e-07 0)
(-4.434719e-07 3.860924e-07 0)
(-5.931791e-07 4.755773e-07 0)
(-7.668401e-07 5.649706e-07 0)
(-9.642733e-07 6.53013e-07 0)
(-1.185039e-06 7.387225e-07 0)
(-1.428483e-06 8.213423e-07 0)
(-1.693783e-06 9.002991e-07 0)
(-1.979973e-06 9.751675e-07 0)
(-2.285986e-06 1.045642e-06 0)
(-2.61067e-06 1.111514e-06 0)
(-2.952814e-06 1.172652e-06 0)
(-3.311165e-06 1.228987e-06 0)
(-3.684446e-06 1.2805e-06 0)
(-4.071363e-06 1.327208e-06 0)
(-4.47062e-06 1.369159e-06 0)
(-4.880925e-06 1.406426e-06 0)
(-5.300997e-06 1.439094e-06 0)
(-5.729569e-06 1.467263e-06 0)
(-6.165396e-06 1.49104e-06 0)
(-6.607253e-06 1.510533e-06 0)
(-7.05394e-06 1.525856e-06 0)
(-7.504279e-06 1.53712e-06 0)
(-7.957122e-06 1.544431e-06 0)
(-8.411341e-06 1.547896e-06 0)
(-8.865837e-06 1.547614e-06 0)
(-9.319532e-06 1.543678e-06 0)
(-9.771374e-06 1.536178e-06 0)
(-1.022033e-05 1.525196e-06 0)
(-1.066539e-05 1.510807e-06 0)
(-1.110557e-05 1.493084e-06 0)
(-1.153989e-05 1.47209e-06 0)
(-1.19674e-05 1.447886e-06 0)
(-1.238716e-05 1.420529e-06 0)
(-1.279826e-05 1.39007e-06 0)
(-1.319979e-05 1.356559e-06 0)
(-1.359085e-05 1.320044e-06 0)
(-1.397059e-05 1.280572e-06 0)
(-1.433813e-05 1.238189e-06 0)
(-1.469263e-05 1.192941e-06 0)
(-1.503328e-05 1.144879e-06 0)
(-1.535925e-05 1.094052e-06 0)
(-1.566976e-05 1.040517e-06 0)
(-1.596404e-05 9.843332e-07 0)
(-1.624132e-05 9.255651e-07 0)
(-1.650089e-05 8.642843e-07 0)
(-1.674202e-05 8.005691e-07 0)
(-1.696406e-05 7.345055e-07 0)
(-1.716633e-05 6.661882e-07 0)
(-1.734823e-05 5.95721e-07 0)
(-1.750916e-05 5.232174e-07 0)
(-1.764857e-05 4.488011e-07 0)
(-1.776595e-05 3.726063e-07 0)
(-1.786084e-05 2.947784e-07 0)
(-1.793279e-05 2.154736e-07 0)
(-1.798145e-05 1.348596e-07 0)
(-1.800647e-05 5.311553e-08 0)
(-1.800759e-05 -2.956848e-08 0)
(-1.798458e-05 -1.12991e-07 0)
(-1.793731e-05 -1.969399e-07 0)
(-1.786566e-05 -2.811923e-07 0)
(-1.776961e-05 -3.655157e-07 0)
(-1.76492e-05 -4.49668e-07 0)
(-1.750453e-05 -5.333984e-07 0)
(-1.733579e-05 -6.164481e-07 0)
(-1.714324e-05 -6.985515e-07 0)
(-1.692719e-05 -7.794368e-07 0)
(-1.668806e-05 -8.588273e-07 0)
(-1.642634e-05 -9.364425e-07 0)
(-1.614258e-05 -1.011999e-06 0)
(-1.583743e-05 -1.085214e-06 0)
(-1.551161e-05 -1.155802e-06 0)
(-1.516592e-05 -1.223482e-06 0)
(-1.480123e-05 -1.287974e-06 0)
(-1.441851e-05 -1.349004e-06 0)
(-1.401877e-05 -1.406305e-06 0)
(-1.360312e-05 -1.459615e-06 0)
(-1.317274e-05 -1.508686e-06 0)
(-1.272885e-05 -1.553279e-06 0)
(-1.227276e-05 -1.593165e-06 0)
(-1.180584e-05 -1.628135e-06 0)
(-1.132949e-05 -1.657993e-06 0)
(-1.084519e-05 -1.682559e-06 0)
(-1.035446e-05 -1.701675e-06 0)
(-9.858845e-06 -1.715201e-06 0)
(-9.359935e-06 -1.723021e-06 0)
(-8.859348e-06 -1.72504e-06 0)
(-8.358723e-06 -1.721187e-06 0)
(-7.859713e-06 -1.711418e-06 0)
(-7.363978e-06 -1.695714e-06 0)
(-6.873178e-06 -1.674082e-06 0)
(-6.388966e-06 -1.64656e-06 0)
(-5.912979e-06 -1.613212e-06 0)
(-5.446827e-06 -1.574133e-06 0)
(-4.99209e-06 -1.529448e-06 0)
(-4.550304e-06 -1.479315e-06 0)
(-4.122955e-06 -1.423923e-06 0)
(-3.711468e-06 -1.363493e-06 0)
(-3.317199e-06 -1.298284e-06 0)
(-2.94142e-06 -1.228588e-06 0)
(-2.585317e-06 -1.15474e-06 0)
(-2.24997e-06 -1.077111e-06 0)
(-1.936345e-06 -9.961196e-07 0)
(-1.645283e-06 -9.12233e-07 0)
(-1.377484e-06 -8.259715e-07 0)
(-1.133494e-06 -7.379172e-07 0)
(-9.136875e-07 -6.487213e-07 0)
(-7.182523e-07 -5.59116e-07 0)
(-5.471692e-07 -4.699272e-07 0)
(-4.001922e-07 -3.820909e-07 0)
(-2.768258e-07 -2.96674e-07 0)
(-1.76301e-07 -2.14897e-07 0)
(-9.754932e-08 -1.381627e-07 0)
(-3.917515e-08 -6.808718e-08 0)
(5.736475e-10 -6.534463e-09 0)
(2.383832e-08 4.43478e-08 0)
(3.31843e-08 8.209382e-08 0)
(3.163555e-08 1.038886e-07 0)
(2.275866e-08 1.065422e-07 0)
(1.109102e-08 8.644466e-08 0)
(1.430102e-09 3.934868e-08 0)
(2.58258e-10 -2.59977e-08 0)
(-6.786769e-09 -3.357581e-08 0)
(-2.717111e-08 -5.872206e-09 0)
(-6.431613e-08 4.895418e-08 0)
(-1.211128e-07 1.243899e-07 0)
(-1.999077e-07 2.150572e-07 0)
(-3.024716e-07 3.165185e-07 0)
(-4.300612e-07 4.251354e-07 0)
(-5.834788e-07 5.379418e-07 0)
(-7.631254e-07 6.525345e-07 0)
(-9.690522e-07 7.669801e-07 0)
(-1.201009e-06 8.797359e-07 0)
(-1.458488e-06 9.895823e-07 0)
(-1.74077e-06 1.095567e-06 0)
(-2.046954e-06 1.196957e-06 0)
(-2.375999e-06 1.293201e-06 0)
(-2.726749e-06 1.383894e-06 0)
(-3.097958e-06 1.468753e-06 0)
(-3.488314e-06 1.547592e-06 0)
(-3.896456e-06 1.620305e-06 0)
(-4.320994e-06 1.686848e-06 0)
(-4.760516e-06 1.747228e-06 0)
(-5.213603e-06 1.801493e-06 0)
(-5.678838e-06 1.849719e-06 0)
(-6.154808e-06 1.892005e-06 0)
(-6.64012e-06 1.928466e-06 0)
(-7.133393e-06 1.959231e-06 0)
(-7.63327e-06 1.98443e-06 0)
(-8.138417e-06 2.004201e-06 0)
(-8.647524e-06 2.018679e-06 0)
(-9.159309e-06 2.027999e-06 0)
(-9.672512e-06 2.032291e-06 0)
(-1.01859e-05 2.031678e-06 0)
(-1.069827e-05 2.026281e-06 0)
(-1.120844e-05 2.01621e-06 0)
(-1.171525e-05 2.001571e-06 0)
(-1.221755e-05 1.982461e-06 0)
(-1.271425e-05 1.958971e-06 0)
(-1.320424e-05 1.931186e-06 0)