/*--------------------------------*- C++ -*----------------------------------*\
  =========                 |
  \\      /  F ield         | OpenFOAM: The Open Source CFD Toolbox
   \\    /   O peration     | Website:  https://openfoam.org
    \\  /    A nd           | Version:  11
     \\/     M anipulation  |
\*---------------------------------------------------------------------------*/
FoamFile
{
    format      ascii;
    class       volScalarField;
    location    "5.5";
    object      mag(U);
}
// * * * * * * * * * * * * * * * * * * * * * * * * * * * * * * * * * * * * * //

dimensions      [0 1 -1 0 0 0 0];

internalField   nonuniform List<scalar> 
9600
(
0.991906
0.990882
0.990518
0.990261
0.989913
0.989735
0.989958
0.990526
0.991389
0.992571
0.994126
0.995943
0.997902
1.00053
1.00474
1.00571
0.99992
0.980859
0.966813
0.961408
0.961746
0.969187
0.985852
1.00243
1.01916
1.03325
1.0443
1.05435
1.06299
1.06795
1.06892
1.06816
1.06612
1.06325
1.05996
1.05613
1.05149
1.0455
1.0377
1.02953
0.99244
0.992484
0.992655
0.993008
0.993282
0.993692
0.994373
0.995221
0.99673
0.998945
1.00115
1.00252
1.00481
1.00793
1.01094
1.01426
1.01873
1.02358
1.0256
1.02472
1.02464
1.02688
1.03136
1.03847
1.04552
1.05231
1.05842
1.06395
1.06775
1.06978
1.07043
1.06931
1.06752
1.06286
1.0592
1.05147
1.04708
1.03793
1.03399
1.02147
0.992492
0.992513
0.992773
0.993109
0.993388
0.993931
0.994734
0.995734
0.99726
0.999323
1.00121
1.00254
1.00456
1.00863
1.01404
1.01948
1.02266
1.02307
1.02206
1.01787
1.01595
1.01753
1.02388
1.03145
1.04084
1.05051
1.05921
1.06671
1.07271
1.07803
1.08192
1.08361
1.08365
1.08213
1.07951
1.07308
1.06878
1.06003
1.05584
1.04602
0.992488
0.99252
0.992869
0.993178
0.993526
0.994032
0.994787
0.996042
0.997409
0.99909
1.00147
1.00396
1.00581
1.00833
1.0134
1.01879
1.02299
1.02561
1.02889
1.03297
1.03871
1.04398
1.04993
1.05502
1.06044
1.06517
1.06849
1.07152
1.07426
1.07528
1.07691
1.07492
1.07296
1.06786
1.06397
1.057
1.05299
1.04536
1.04105
1.03075
0.992448
0.992517
0.992882
0.993254
0.993557
0.994132
0.995026
0.996198
0.997699
0.999603
1.00156
1.0043
1.00718
1.00986
1.01206
1.01582
1.02424
1.03177
1.0376
1.03996
1.04133
1.04085
1.04222
1.04421
1.04934
1.05487
1.06156
1.06776
1.07309
1.07673
1.08046
1.08242
1.08379
1.08293
1.08165
1.07653
1.07229
1.06419
1.05936
1.05075
0.992364
0.992438
0.992935
0.993264
0.993584
0.99424
0.995155
0.996354
0.997672
0.999757
1.00254
1.00472
1.00655
1.00916
1.01354
1.01815
1.02432
1.02939
1.03442
1.03904
1.04528
1.05081
1.05673
1.06159
1.06636
1.07148
1.07546
1.07827
1.08094
1.08198
1.08451
1.08276
1.0813
1.07535
1.07108
1.06375
1.05988
1.05247
1.04829
1.03823
0.992334
0.992463
0.993006
0.993288
0.993591
0.994311
0.995483
0.996553
0.997916
1
1.0032
1.00533
1.00695
1.00936
1.0138
1.01886
1.02414
1.02957
1.03614
1.04204
1.04784
1.05117
1.05427
1.05545
1.05899
1.06145
1.06618
1.07031
1.07537
1.07822
1.08146
1.08259
1.08483
1.08432
1.08418
1.08061
1.07653
1.06925
1.06411
1.05533
0.992143
0.992361
0.992923
0.993221
0.99362
0.994314
0.995701
0.996433
0.998223
1.00045
1.00304
1.00535
1.00807
1.01047
1.0139
1.01843
1.0247
1.03077
1.03641
1.04051
1.04504
1.0497
1.05608
1.06203
1.06824
1.0734
1.07854
1.08265
1.08604
1.08735
1.09064
1.09027
1.09056
1.08538
1.08121
1.07276
1.06844
1.06062
1.0563
1.04608
0.992173
0.992458
0.992937
0.993276
0.993704
0.99437
0.995842
0.996883
0.9984
1.00058
1.00352
1.0065
1.00858
1.01108
1.0138
1.01916
1.02473
1.03029
1.03569
1.041
1.0465
1.05093
1.05587
1.05954
1.06525
1.0684
1.07263
1.07548
1.07989
1.08239
1.08561
1.08567
1.08722
1.08662
1.08749
1.08475
1.08174
1.07519
1.07042
1.06126
0.991951
0.992412
0.992786
0.993098
0.993612
0.994333
0.995745
0.997044
0.99851
1.00065
1.00381
1.00653
1.00913
1.01147
1.01465
1.01898
1.0243
1.03015
1.03629
1.04154
1.04565
1.04886
1.05317
1.0582
1.06546
1.07144
1.07797
1.08309
1.08853
1.09132
1.09554
1.09591
1.09847
1.09529
1.0931
1.08477
1.07995
1.07114
1.06657
1.05533
0.991866
0.992293
0.992901
0.993159
0.99363
0.994421
0.995965
0.997385
0.998882
1.00093
1.00365
1.0074
1.01004
1.01238
1.01462
1.0191
1.02438
1.03065
1.03628
1.04139
1.04557
1.04957
1.05401
1.05707
1.06306
1.06786
1.07473
1.07888
1.08442
1.08734
1.09195
1.09238
1.09358
1.09224
1.0925
1.08966
1.08792
1.08213
1.07799
1.0685
0.991491
0.991876
0.992655
0.992881
0.993328
0.994167
0.995798
0.997176
0.998925
1.0006
1.00388
1.00736
1.01043
1.01244
1.01538
1.01932
1.02441
1.03025
1.03639
1.04199
1.04658
1.04942
1.05233
1.0545
1.05962
1.0649
1.07294
1.07958
1.08739
1.09248
1.09889
1.10093
1.10508
1.10408
1.10417
1.09821
1.0941
1.08419
1.07954
1.06706
0.991461
0.991896
0.992656
0.992886
0.9935
0.994191
0.995878
0.997535
0.999213
1.00136
1.00411
1.00777
1.0108
1.01346
1.0163
1.02062
1.02488
1.03045
1.03615
1.04179
1.0461
1.04873
1.05235
1.0541
1.05804
1.06159
1.06892
1.07517
1.08341
1.08907
1.09619
1.09971
1.1031
1.10226
1.10227
1.09835
1.09701
1.09109
1.08772
1.07765
0.990987
0.991466
0.992218
0.992435
0.993182
0.993782
0.995733
0.99682
0.99926
1.00111
1.00383
1.00741
1.01103
1.01387
1.01711
1.02084
1.02536
1.03025
1.03591
1.04073
1.04595
1.04885
1.052
1.05336
1.05603
1.05896
1.06421
1.071
1.08018
1.08802
1.09761
1.10337
1.1102
1.11237
1.11494
1.11095
1.10968
1.10018
1.09578
1.08235
0.990894
0.991284
0.992269
0.99242
0.993114
0.99416
0.995826
0.99747
0.999269
1.00155
1.00451
1.00831
1.01186
1.01519
1.01817
1.02254
1.02683
1.03131
1.03576
1.04023
1.04536
1.0485
1.05188
1.0534
1.05599
1.05782
1.06211
1.06716
1.07547
1.08369
1.09367
1.10124
1.10966
1.11282
1.11621
1.11259
1.11162
1.10441
1.10161
1.08952
0.990049
0.990416
0.991616
0.991668
0.992475
0.993255
0.995476
0.997021
0.998823
1.00138
1.00406
1.00788
1.01155
1.01503
1.01899
1.02272
1.02728
1.03094
1.036
1.03952
1.04398
1.04709
1.05062
1.05332
1.05566
1.05777
1.0607
1.06508
1.07093
1.07883
1.08988
1.09947
1.11043
1.11633
1.12434
1.12316
1.12567
1.11793
1.11537
1.1021
0.990317
0.990434
0.991513
0.991973
0.992457
0.993397
0.995361
0.997662
0.999641
1.00211
1.0045
1.00874
1.01216
1.017
1.0204
1.02457
1.02845
1.03254
1.03702
1.04008
1.04383
1.04608
1.04953
1.05194
1.05503
1.0574
1.06064
1.06408
1.06921
1.07594
1.08525
1.09414
1.10716
1.11437
1.12501
1.12581
1.12993
1.12278
1.12186
1.10712
0.989273
0.989393
0.990492
0.990677
0.991703
0.992375
0.993944
0.996985
0.998989
1.00182
1.00403
1.00803
1.0118
1.01644
1.02023
1.02465
1.02859
1.03227
1.03662
1.04004
1.04338
1.04519
1.0479
1.04951
1.05276
1.05543
1.05904
1.06296
1.06782
1.07387
1.08195
1.09028
1.10298
1.1114
1.12601
1.12977
1.1385
1.13451
1.13648
1.12311
0.989231
0.989759
0.990478
0.991016
0.99212
0.992912
0.994189
0.996848
0.999337
1.00299
1.00537
1.0095
1.01273
1.01757
1.02157
1.02662
1.03055
1.03441
1.03766
1.0406
1.0444
1.0456
1.04799
1.04828
1.05057
1.05232
1.05629
1.05979
1.06595
1.07157
1.08125
1.08871
1.10167
1.1092
1.12395
1.12923
1.14166
1.13975
1.14521
1.13084
0.987699
0.98815
0.989099
0.989827
0.990611
0.992078
0.993091
0.995634
0.99791
1.00186
1.00508
1.00918
1.01269
1.01737
1.02112
1.02623
1.03022
1.0343
1.0375
1.04004
1.0433
1.04446
1.04689
1.0469
1.04855
1.04904
1.05227
1.05438
1.06136
1.06657
1.07765
1.08539
1.10035
1.10854
1.12455
1.13014
1.14608
1.14547
1.15714
1.14499
0.987387
0.988238
0.989088
0.989998
0.990768
0.992409
0.993814
0.996512
0.99868
1.00245
1.00606
1.01046
1.01487
1.01938
1.02333
1.02816
1.03204
1.03613
1.04004
1.0423
1.04508
1.04567
1.04696
1.0466
1.04739
1.04637
1.04916
1.0495
1.05613
1.05986
1.0712
1.07918
1.09625
1.1062
1.12644
1.13311
1.15131
1.15136
1.16464
1.15534
0.985157
0.98647
0.986973
0.98825
0.988953
0.990586
0.99252
0.995074
0.998146
1.00132
1.00522
1.00953
1.01391
1.01909
1.02344
1.02846
1.03222
1.03599
1.03996
1.04221
1.04479
1.0453
1.04581
1.04498
1.0448
1.04304
1.04538
1.04417
1.04988
1.05216
1.06291
1.07
1.08725
1.09848
1.12241
1.13234
1.15727
1.16012
1.17757
1.16776
0.98484
0.986355
0.986867
0.988225
0.989241
0.990842
0.993118
0.995604
0.99938
1.00279
1.00742
1.01162
1.0161
1.02116
1.0258
1.03104
1.03562
1.03913
1.04312
1.04509
1.04726
1.04767
1.04722
1.04599
1.04462
1.04148
1.04259
1.03979
1.04386
1.04367
1.05305
1.05882
1.07623
1.08771
1.11288
1.12609
1.15646
1.16606
1.19123
1.18438
0.981844
0.98348
0.984428
0.985349
0.987223
0.988469
0.991399
0.993668
0.997682
1.00143
1.00628
1.01108
1.0158
1.02133
1.0259
1.03103
1.03594
1.03981
1.04397
1.04598
1.04782
1.04784
1.04702
1.04503
1.04309
1.03859
1.03813
1.03341
1.03543
1.03381
1.0413
1.04539
1.06127
1.07219
1.09796
1.11371
1.1483
1.16136
1.19916
1.19885
0.982237
0.983438
0.984784
0.985383
0.987575
0.98873
0.992462
0.994801
0.999584
1.00338
1.00841
1.01391
1.01889
1.02471
1.03022
1.03528
1.04058
1.04409
1.04814
1.05028
1.05205
1.05169
1.05044
1.0472
1.04441
1.03831
1.03639
1.03
1.0296
1.02514
1.02956
1.0304
1.04351
1.05224
1.07695
1.09383
1.13068
1.14978
1.19528
1.20837
0.979421
0.980277
0.981812
0.98232
0.984708
0.98561
0.989768
0.992184
0.997434
1.00197
1.00742
1.01322
1.01901
1.02471
1.03105
1.03642
1.0423
1.0463
1.05028
1.05214
1.05379
1.05314
1.05166
1.04749
1.04415
1.037
1.03315
1.02478
1.02204
1.01449
1.01564
1.0126
1.02172
1.02776
1.04818
1.0649
1.1006
1.12557
1.17439
1.20451
0.979873
0.980665
0.982932
0.983039
0.986303
0.987253
0.991592
0.99418
0.999899
1.0042
1.01141
1.01631
1.02403
1.02965
1.03676
1.04236
1.04843
1.05297
1.0571
1.05905
1.06059
1.0594
1.05776
1.05264
1.04845
1.04003
1.03399
1.02353
1.01731
1.00806
1.00454
0.999216
1.0009
1.00339
1.01462
1.03064
1.05615
1.08723
1.12857
1.17732
0.975094
0.975691
0.978914
0.978981
0.982701
0.984084
0.989072
0.99191
0.998418
1.00302
1.01041
1.01655
1.02398
1.03099
1.03807
1.04485
1.05106
1.05629
1.06044
1.06285
1.06427
1.06318
1.06104
1.05607
1.05037
1.04152
1.03321
1.02287
1.0126
1.00181
0.992041
0.984408
0.977079
0.97802
0.976049
0.992086
1.00088
1.03524
1.05868
1.11985
0.975893
0.976359
0.980139
0.980405
0.984977
0.986539
0.992232
0.995955
1.0026
1.00886
1.01595
1.02378
1.03095
1.03919
1.04636
1.05385
1.06017
1.06628
1.07017
1.07351
1.07417
1.07387
1.07017
1.06624
1.05841
1.05034
1.03884
1.0285
1.01393
1.00257
0.985961
0.977402
0.959875
0.959071
0.943465
0.955405
0.946463
0.976426
0.981363
1.03762
0.968337
0.970075
0.973491
0.975578
0.979097
0.983154
0.987976
0.993855
1.00061
1.00775
1.01619
1.02487
1.03296
1.04235
1.05008
1.05877
1.06517
1.07232
1.07617
1.08036
1.08037
1.0812
1.07666
1.07305
1.06422
1.05673
1.04283
1.0331
1.01496
1.00378
0.982371
0.972368
0.948076
0.942216
0.916528
0.919983
0.896889
0.915023
0.901527
0.95043
0.966025
0.971272
0.973464
0.978217
0.98147
0.986952
0.992648
0.999121
1.0069
1.01615
1.02446
1.0354
1.04394
1.05489
1.06287
1.07312
1.07951
1.08818
1.09163
1.09747
1.09663
1.09879
1.09316
1.09093
1.08022
1.0745
1.05828
1.04902
1.02862
1.01666
0.992114
0.979021
0.950027
0.938522
0.906017
0.900496
0.868124
0.871182
0.840134
0.868469
0.958351
0.96266
0.966213
0.970978
0.975828
0.981854
0.988619
0.997196
1.00505
1.01614
1.02498
1.03745
1.04675
1.05977
1.06802
1.08056
1.08678
1.09759
1.10046
1.10814
1.10676
1.11054
1.10411
1.10367
1.09183
1.08713
1.07049
1.06165
1.04066
1.02818
1.00301
0.987868
0.957682
0.94201
0.907068
0.892839
0.853935
0.844582
0.802703
0.806419
0.960349
0.965694
0.969989
0.975857
0.980567
0.988451
0.995195
1.00585
1.01469
1.02889
1.03875
1.05406
1.06362
1.07884
1.08705
1.1021
1.10796
1.12064
1.12366
1.13259
1.13139
1.13633
1.13018
1.13026
1.11964
1.11406
1.09983
1.08914
1.07106
1.05669
1.03395
1.01701
0.987998
0.969563
0.93327
0.912786
0.871158
0.850273
0.804785
0.787428
0.949491
0.956648
0.962683
0.970947
0.977773
0.989134
0.996616
1.01006
1.01896
1.03491
1.04491
1.06291
1.07334
1.09126
1.10059
1.11704
1.12424
1.13709
1.14151
1.14987
1.15067
1.1538
1.15106
1.14888
1.14189
1.13547
1.12366
1.11402
1.09665
1.08502
1.06111
1.04561
1.01829
0.997503
0.966069
0.940949
0.904522
0.876451
0.837813
0.806108
0.951116
0.958917
0.964597
0.975294
0.982318
0.997697
1.00681
1.02567
1.03704
1.05856
1.0712
1.0931
1.10567
1.12607
1.13718
1.15526
1.16357
1.17819
1.18273
1.19338
1.19337
1.19927
1.19454
1.19579
1.18682
1.18314
1.17096
1.1624
1.14792
1.13535
1.11771
1.10289
1.08053
1.06343
1.0369
1.01322
0.988627
0.955252
0.928589
0.895718
0.94132
0.955533
0.966149
0.981711
0.991679
1.00963
1.02013
1.04036
1.0529
1.07607
1.08924
1.11465
1.12676
1.15246
1.16161
1.18522
1.19072
1.21023
1.21231
1.22607
1.22536
1.2322
1.22907
1.22969
1.22349
1.22072
1.21025
1.20687
1.19308
1.18767
1.17379
1.16185
1.14949
1.13038
1.11421
1.09172
1.06927
1.04502
1.0213
0.989249
0.938612
0.951949
0.966041
0.987724
1.00436
1.0305
1.04975
1.07813
1.09755
1.12532
1.14321
1.16987
1.18506
1.2104
1.22134
1.24474
1.25028
1.27079
1.27067
1.28711
1.28189
1.29334
1.28454
1.2911
1.27986
1.28318
1.27046
1.27164
1.25954
1.25735
1.24781
1.24004
1.23301
1.2206
1.2097
1.19771
1.17877
1.16463
1.14442
1.13147
0.949917
0.977102
0.994794
1.02212
1.04044
1.06668
1.08655
1.113
1.13704
1.16397
1.18833
1.2151
1.23616
1.26152
1.27694
1.29972
1.30819
1.32796
1.3284
1.34419
1.3383
1.34869
1.33824
1.34394
1.3312
1.33378
1.32115
1.32325
1.31249
1.31605
1.30744
1.31231
1.30463
1.30878
1.29905
1.29861
1.28214
1.27226
1.24564
1.23078
0.978937
1.02011
1.05569
1.09872
1.13634
1.17158
1.21322
1.24277
1.2837
1.31013
1.34478
1.3694
1.39714
1.41816
1.43875
1.45596
1.4689
1.48054
1.48674
1.49028
1.48974
1.4848
1.47753
1.46715
1.45524
1.43954
1.42498
1.40733
1.39401
1.37711
1.36942
1.35653
1.35657
1.3511
1.35517
1.36307
1.36169
1.37825
1.34864
1.35363
1.14739
1.18416
1.22114
1.25877
1.29581
1.33111
1.36359
1.39238
1.41945
1.43791
1.46033
1.47143
1.48456
1.49493
1.50083
1.50891
1.50469
1.50515
1.48992
1.48169
1.45596
1.43947
1.40155
1.37492
1.32648
1.28673
1.23481
1.18081
1.13018
1.06339
1.01759
0.942002
0.898468
0.838912
0.770903
0.764856
0.682599
0.348576
0.061882
0.117048
1.02995
1.02858
1.02632
1.02284
1.01535
1.00479
0.992599
0.969597
0.944791
0.921294
0.900136
0.940976
1.01032
1.01866
1.01044
1.00254
1.00084
1.00069
1.00146
1.00327
1.00478
1.00599
1.00685
1.00806
1.00821
1.00907
1.00904
1.00944
1.00921
1.0095
1.00915
1.00933
1.00891
1.00903
1.00878
1.00868
1.00843
1.00829
1.0086
1.01107
1.03155
1.03127
1.02798
1.02466
1.01653
1.00574
0.993364
0.967642
0.94252
0.920223
0.892205
0.924377
1.00507
1.0181
1.01141
1.00276
1.00078
1.00055
1.00123
1.003
1.00447
1.00595
1.0067
1.00809
1.00827
1.00909
1.0091
1.00951
1.00931
1.00965
1.00936
1.0096
1.00924
1.00934
1.00914
1.00899
1.00872
1.00837
1.00802
1.00624
1.03638
1.03407
1.03066
1.02847
1.02006
1.00832
0.996448
0.969003
0.941332
0.918597
0.885221
0.91125
1.00108
1.01765
1.01085
1.0023
1.00051
1.00038
1.00127
1.00326
1.00464
1.0063
1.00715
1.00854
1.00864
1.00947
1.00946
1.00986
1.00976
1.01008
1.00986
1.01011
1.00981
1.00982
1.00955
1.00934
1.00917
1.00895
1.0094
1.01161
1.03649
1.03647
1.03303
1.03103
1.02222
1.01014
0.997676
0.968589
0.940192
0.919325
0.880015
0.892124
0.991784
1.01556
1.01035
1.00142
0.999947
0.999934
1.00085
1.00298
1.00434
1.00615
1.00715
1.00856
1.00882
1.00969
1.00969
1.0102
1.01014
1.01049
1.01023
1.01042
1.01021
1.0101
1.00989
1.00956
1.00932
1.00889
1.00847
1.00653
1.04165
1.0397
1.03627
1.03557
1.02613
1.01376
1.00187
0.971142
0.939545
0.91995
0.878227
0.875582
0.980185
1.01225
1.00805
0.99984
0.999175
0.999474
1.0007
1.00305
1.00438
1.0063
1.00748
1.00885
1.00924
1.01007
1.0102
1.01074
1.01058
1.01095
1.01064
1.01076
1.01054
1.01043
1.01025
1.01006
1.00989
1.0097
1.00986
1.01134
1.04248
1.04221
1.03905
1.039
1.0297
1.01672
1.00395
0.972964
0.939816
0.920979
0.877479
0.855575
0.964047
1.00739
1.00551
0.997675
0.997882
0.998497
1.00012
1.00265
1.004
1.00621
1.00754
1.0089
1.00947
1.01021
1.01039
1.01098
1.01084
1.01121
1.01094
1.01103
1.01083
1.01074
1.01055
1.01025
1.01001
1.00971
1.00925
1.00749
1.04824
1.04629
1.04359
1.0446
1.03478
1.02216
1.00928
0.976701
0.940746
0.922108
0.880066
0.837952
0.943851
1.00008
1.0009
0.99469
0.99626
0.997406
0.999905
1.00248
1.00397
1.00634
1.00775
1.00917
1.0099
1.01061
1.01095
1.01146
1.01139
1.01167
1.01135
1.01149
1.01124
1.01123
1.01111
1.01091
1.01065
1.01044
1.01053
1.01141
1.04967
1.04903
1.04754
1.04957
1.0403
1.02711
1.01307
0.979825
0.942772
0.923388
0.881784
0.818447
0.919855
0.990734
0.995837
0.990849
0.994022
0.995686
0.999017
1.00187
1.00364
1.0064
1.0078
1.00933
1.01019
1.01089
1.0113
1.01176
1.01181
1.01203
1.01177
1.01184
1.01149
1.01136
1.01119
1.01104
1.01078
1.01046
1.01018
1.00874
1.05603
1.05403
1.05352
1.05591
1.04726
1.03474
1.01986
0.984589
0.946177
0.924771
0.883835
0.80077
0.89244
0.978126
0.988706
0.985842
0.991312
0.993675
0.998404
1.00164
1.00375
1.0067
1.00808
1.00975
1.01069
1.01131
1.01185
1.01223
1.01241
1.01262
1.0123
1.01232
1.01187
1.01186
1.01172
1.01161
1.01151
1.0112
1.01124
1.0117
1.05812
1.05807
1.05932
1.06228
1.05516
1.04202
1.02557
0.988734
0.950328
0.925651
0.882854
0.781473
0.86224
0.962804
0.980539
0.979831
0.987914
0.990986
0.996934
1.00061
1.00325
1.0065
1.00796
1.00989
1.01096
1.01171
1.01233
1.01269
1.01287
1.0131
1.01285
1.01283
1.01231
1.01217
1.01193
1.01177
1.01166
1.01128
1.01117
1.01013
1.06526
1.06472
1.06838
1.07038
1.06508
1.05241
1.03387
0.994913
0.956283
0.926005
0.878533
0.761596
0.830532
0.945065
0.970504
0.97272
0.98385
0.987911
0.995476
0.999753
1.00311
1.00651
1.00823
1.0103
1.01147
1.01234
1.01298
1.01334
1.01349
1.01376
1.01358
1.01373
1.0134
1.01319
1.01288
1.01254
1.01243
1.01213
1.01196
1.01219
1.06839
1.07069
1.0769
1.07942
1.07616
1.06291
1.04244
1.00143
0.961835
0.92439
0.868047
0.738322
0.798219
0.925539
0.958783
0.964973
0.979309
0.984467
0.993287
0.998274
1.00234
1.00609
1.00821
1.01053
1.01184
1.01276
1.01332
1.01377
1.01388
1.01415
1.01404
1.01405
1.01377
1.01349
1.01316
1.01271
1.01255
1.01227
1.0121
1.01153
1.07677
1.0795
1.08806
1.08982
1.08898
1.07613
1.05396
1.01059
0.967954
0.920465
0.850431
0.711909
0.765797
0.904794
0.945516
0.956614
0.974215
0.98086
0.991153
0.997174
1.00203
1.00603
1.00847
1.01082
1.01228
1.0134
1.01395
1.01437
1.01444
1.01457
1.01454
1.01452
1.01446
1.01425
1.01398
1.01366
1.01335
1.01321
1.01283
1.01293
1.08202
1.08858
1.09823
1.10151
1.1022
1.08945
1.06695
1.02128
0.971186
0.910387
0.822198
0.681259
0.734294
0.883128
0.930951
0.948234
0.968765
0.977315
0.98876
0.995497
1.0011
1.00554
1.00852
1.01117
1.01288
1.01411
1.01473
1.01515
1.01526
1.01508
1.01516
1.01486
1.01493
1.01469
1.0144
1.01414
1.01366
1.01349
1.01306
1.01293
1.09328
1.10217
1.11215
1.11733
1.11904
1.1084
1.08539
1.03446
0.970246
0.891405
0.782562
0.646628
0.705517
0.861884
0.915522
0.939827
0.962749
0.973883
0.98622
0.994259
1.00035
1.00529
1.00868
1.01155
1.01362
1.01501
1.01592
1.01629
1.01677
1.01644
1.01679
1.01637
1.01648
1.01598
1.01568
1.01535
1.01471
1.01456
1.01384
1.01385
1.10225
1.1144
1.12437
1.13532
1.13829
1.13274
1.10964
1.0468
0.959724
0.857772
0.730505
0.60865
0.681742
0.842191
0.899597
0.932194
0.956924
0.971053
0.983654
0.992548
0.998927
1.0045
1.00812
1.01148
1.01382
1.01535
1.01664
1.01688
1.01766
1.01717
1.01774
1.01695
1.0172
1.01632
1.01605
1.01555
1.01496
1.01484
1.01421
1.01412
1.11568
1.13161
1.14036
1.15605
1.16323
1.16684
1.14085
1.05168
0.934241
0.806356
0.667508
0.570434
0.665182
0.825412
0.884721
0.925238
0.951602
0.968913
0.981954
0.991569
0.998507
1.00417
1.00784
1.01133
1.01361
1.01533
1.01696
1.01728
1.01836
1.01778
1.01861
1.01765
1.01822
1.01721
1.01734
1.01663
1.01627
1.01581
1.01512
1.01506
1.12873
1.14427
1.15597
1.17798
1.19669
1.21358
1.1645
1.0376
0.883979
0.732909
0.595764
0.539028
0.658982
0.811981
0.871898
0.919621
0.947449
0.967939
0.981551
0.991399
0.998763
1.00434
1.00831
1.01179
1.01409
1.01585
1.01728
1.01768
1.01866
1.01813
1.01903
1.01815
1.01895
1.0179
1.01841
1.01744
1.01741
1.01673
1.01632
1.01594
1.14362
1.16276
1.18085
1.21035
1.24991
1.26974
1.17028
0.995409
0.804922
0.639326
0.52739
0.523537
0.664006
0.802293
0.862833
0.915573
0.944432
0.967893
0.982013
0.992541
1.00039
1.00596
1.01024
1.01355
1.01583
1.01763
1.01861
1.01961
1.02011
1.02017
1.02071
1.02015
1.02083
1.01986
1.02035
1.01914
1.0192
1.01815
1.01806
1.01737
1.15969
1.17923
1.20468
1.25533
1.32352
1.2966
1.15421
0.912417
0.693972
0.535387
0.485529
0.529958
0.679878
0.798456
0.85927
0.913687
0.943032
0.96926
0.982796
0.994633
1.00203
1.00814
1.01223
1.01558
1.01748
1.01957
1.01978
1.02148
1.02095
1.02178
1.02139
1.02128
1.02135
1.02071
1.02092
1.01993
1.02
1.01904
1.01925
1.01854
1.17292
1.20236
1.2394
1.32564
1.39006
1.31206
1.08866
0.783108
0.5617
0.459667
0.4866
0.562
0.705059
0.803019
0.862478
0.915624
0.944452
0.971935
0.984303
0.997726
1.00381
1.01069
1.01372
1.01781
1.01887
1.02183
1.02112
1.02375
1.02222
1.02395
1.02248
1.02309
1.02222
1.02199
1.02152
1.02091
1.0208
1.02023
1.02031
1.01973
1.1946
1.22727
1.28735
1.41109
1.42239
1.28924
0.959889
0.615553
0.449513
0.470801
0.530398
0.612476
0.736074
0.815583
0.873458
0.92251
0.950267
0.977534
0.988624
1.00207
1.00651
1.01402
1.01605
1.02068
1.02056
1.02413
1.02247
1.02568
1.02348
1.02551
1.02327
1.02444
1.02264
1.02319
1.02172
1.02177
1.02112
1.02123
1.02104
1.02078
1.21603
1.25544
1.35664
1.48678
1.43767
1.21005
0.773514
0.480741
0.477229
0.552443
0.607839
0.673904
0.772866
0.837783
0.893899
0.934312
0.962637
0.98639
0.997042
1.00876
1.01306
1.01908
1.02101
1.02459
1.0246
1.02775
1.02608
1.02884
1.02656
1.02868
1.02613
1.02746
1.02502
1.02571
1.02354
1.02389
1.02238
1.02272
1.02177
1.02211
1.23633
1.29346
1.43796
1.50879
1.41434
1.08221
0.660612
0.562225
0.626666
0.668294
0.685852
0.739684
0.819482
0.870329
0.922996
0.951715
0.982453
0.998598
1.01137
1.01715
1.02349
1.02487
1.02888
1.02869
1.03071
1.03112
1.03091
1.03197
1.0303
1.03191
1.02957
1.03094
1.02833
1.02904
1.02641
1.02674
1.02462
1.02482
1.02338
1.02381
1.24573
1.32947
1.49183
1.48795
1.30116
0.977153
0.799818
0.778458
0.773858
0.760465
0.752988
0.816541
0.871343
0.9142
0.9585
0.97709
1.00841
1.01476
1.03066
1.02805
1.03828
1.03256
1.04033
1.0347
1.0399
1.03608
1.03829
1.03651
1.03613
1.03633
1.03444
1.03504
1.0325
1.03267
1.02987
1.02991
1.02751
1.02749
1.02591
1.02624
1.24362
1.35319
1.42851
1.33455
1.15842
1.00052
0.921656
0.886127
0.832783
0.805062
0.822837
0.89012
0.927736
0.969415
0.99667
1.01269
1.03681
1.03876
1.05331
1.04463
1.05542
1.04498
1.05265
1.04313
1.04917
1.04193
1.04512
1.04031
1.04133
1.03916
1.03858
1.03763
1.03629
1.03547
1.03346
1.03279
1.0308
1.03023
1.02865
1.02869
1.22146
1.31315
1.25625
1.15526
1.08912
0.985287
0.923415
0.889345
0.819668
0.822738
0.858574
0.9242
0.987814
1.0278
1.03967
1.05702
1.06616
1.07119
1.07585
1.06917
1.07216
1.06292
1.06568
1.0554
1.05906
1.05075
1.05271
1.04721
1.04766
1.04383
1.04385
1.04112
1.04091
1.03878
1.03795
1.03614
1.03506
1.03346
1.03283
1.03228
1.16209
1.15992
1.0476
1.00596
0.955726
0.889469
0.850842
0.809115
0.766247
0.815655
0.860234
0.946476
1.01164
1.07576
1.09267
1.10257
1.1038
1.10933
1.10326
1.09998
1.09186
1.08688
1.08075
1.07329
1.0703
1.06505
1.06214
1.05893
1.05684
1.05316
1.05209
1.0486
1.04764
1.04484
1.04351
1.04111
1.03935
1.03761
1.03674
1.0354
1.05166
0.963736
0.851372
0.816445
0.778356
0.731531
0.714752
0.684395
0.694329
0.769382
0.829772
0.942041
1.01792
1.10356
1.13569
1.15004
1.15032
1.14812
1.14196
1.13596
1.1215
1.11756
1.10465
1.09999
1.08894
1.0859
1.07744
1.07492
1.06973
1.06625
1.06331
1.05946
1.05688
1.05393
1.0511
1.04904
1.04616
1.045
1.04282
1.04197
0.916742
0.807125
0.673635
0.617834
0.585533
0.553713
0.552672
0.54562
0.579828
0.665053
0.757468
0.899499
1.00926
1.11006
1.16169
1.19309
1.19469
1.18916
1.18317
1.1711
1.1575
1.14729
1.1343
1.1256
1.11244
1.10654
1.0963
1.09061
1.08532
1.07975
1.07672
1.07123
1.06848
1.06397
1.06053
1.05742
1.05384
1.05166
1.04895
1.04821
0.813597
0.71169
0.57713
0.495084
0.437493
0.414192
0.402849
0.392333
0.420158
0.501252
0.624575
0.793478
0.954692
1.09023
1.17154
1.21345
1.22967
1.22465
1.21633
1.20447
1.18958
1.17535
1.16349
1.15089
1.13818
1.12848
1.11712
1.10866
1.10206
1.09506
1.09055
1.08493
1.0817
1.07605
1.07339
1.06847
1.06504
1.06144
1.05906
1.0567
0.747614
0.683241
0.584384
0.506964
0.439451
0.414789
0.373695
0.330516
0.299939
0.319365
0.430178
0.607221
0.823426
1.01437
1.14932
1.21733
1.24686
1.2549
1.24661
1.23566
1.22086
1.20432
1.19186
1.17851
1.16543
1.15393
1.14166
1.13165
1.12238
1.11457
1.10612
1.10085
1.09357
1.08903
1.08375
1.08036
1.07526
1.07364
1.06979
1.06825
0.729628
0.690535
0.650087
0.608242
0.551418
0.537875
0.529494
0.498139
0.449958
0.383788
0.348111
0.405662
0.605026
0.848784
1.06009
1.18986
1.25135
1.27593
1.28066
1.27095
1.25888
1.2402
1.22574
1.21228
1.19837
1.18495
1.17364
1.1606
1.15221
1.14128
1.1319
1.12366
1.11468
1.10798
1.10052
1.09657
1.08945
1.08728
1.08255
1.08159
0.765767
0.729786
0.712664
0.710536
0.690479
0.670906
0.683798
0.695192
0.711238
0.691635
0.630688
0.540882
0.48747
0.616335
0.857215
1.08125
1.21166
1.27177
1.29431
1.30044
1.29522
1.28331
1.26595
1.25469
1.2378
1.22587
1.21218
1.1992
1.18986
1.17806
1.16805
1.15692
1.14844
1.13654
1.13055
1.12172
1.11714
1.10937
1.10583
1.10313
0.866883
0.845132
0.838164
0.829812
0.845741
0.831436
0.824918
0.82712
0.839579
0.86283
0.880264
0.855009
0.78747
0.682284
0.636612
0.765903
0.987423
1.14264
1.22997
1.27497
1.29487
1.30171
1.29512
1.28604
1.27478
1.26492
1.25057
1.24082
1.22986
1.22225
1.2112
1.20486
1.19444
1.18429
1.17365
1.16035
1.15141
1.14025
1.13423
1.12826
0.981118
0.96647
0.996553
1.00477
0.991225
0.963878
0.93041
0.895752
0.875803
0.872633
0.879082
0.887189
0.879316
0.867845
0.818029
0.700506
0.630769
0.716571
0.89453
1.04792
1.14487
1.21061
1.24336
1.26318
1.26907
1.26964
1.26527
1.25765
1.25174
1.2454
1.23906
1.23444
1.22922
1.22441
1.21968
1.21266
1.20435
1.1939
1.18375
1.1734
1.11941
1.10771
1.08968
1.0683
1.03439
0.994249
0.952274
0.909677
0.855902
0.809018
0.776702
0.758035
0.753044
0.744998
0.706149
0.683578
0.66428
0.560411
0.465394
0.522264
0.701501
0.890695
1.01727
1.10843
1.16473
1.19912
1.22191
1.23276
1.23909
1.24149
1.24102
1.23935
1.23844
1.23495
1.23282
1.23189
1.23109
1.22591
1.22263
1.21533
1.20522
1.15998
1.11622
1.07273
1.02561
0.965996
0.887357
0.814647
0.747561
0.685976
0.648572
0.618414
0.593589
0.566764
0.52576
0.50561
0.463323
0.401379
0.36965
0.30053
0.165258
0.219794
0.448862
0.657813
0.846962
0.961351
1.04396
1.10462
1.14648
1.17368
1.19464
1.20592
1.21494
1.21802
1.21974
1.21627
1.22471
1.22518
1.23249
1.23939
1.24902
1.11925
0.985845
0.862622
0.739321
0.62366
0.512954
0.390023
0.297192
0.232184
0.156008
0.119574
0.154859
0.207176
0.239703
0.25546
0.264761
0.26244
0.244935
0.223731
0.200146
0.12163
0.114963
0.146636
0.119196
0.305222
0.486914
0.637861
0.760527
0.835487
0.910709
0.966957
1.02104
1.06416
1.09591
1.13144
1.14602
1.17541
1.18286
1.19907
0.256973
0.261848
0.226768
0.237027
0.264103
0.310512
0.353995
0.390697
0.420779
0.443544
0.45868
0.462847
0.450322
0.432812
0.408818
0.3743
0.336289
0.304937
0.278872
0.247554
0.218107
0.195827
0.189623
0.176358
0.167511
0.12439
0.0780569
0.0289338
0.250763
0.536441
0.61014
0.668551
0.705488
0.740768
0.776093
0.811985
0.852223
0.891079
0.943976
0.990473
1.0174
1.0175
1.01867
1.01884
1.01949
1.01937
1.01973
1.0193
1.01925
1.01833
1.01756
1.01587
1.0139
1.01046
1.00668
1.00075
0.994149
0.986264
0.979505
0.977102
0.979105
0.987868
0.998539
1.00868
1.01135
1.01068
1.00998
1.00946
1.00905
1.00876
1.00849
1.0082
1.00785
1.00747
1.00706
1.00664
1.0062
1.00577
1.00538
1.00513
0.999764
1.00046
0.999676
1.00034
0.999888
1.00076
1.00048
1.00138
1.0013
1.0025
1.00272
1.00469
1.00595
1.009
1.01203
1.01592
1.02002
1.02384
1.02585
1.02651
1.02604
1.02233
1.01514
1.01073
1.00958
1.00984
1.01
1.01011
1.0101
1.00999
1.00969
1.0092
1.00875
1.00835
1.0078
1.00721
1.00668
1.00616
1.00577
1.00547
1.01676
1.01714
1.01831
1.01833
1.01906
1.01864
1.01882
1.01801
1.01766
1.01636
1.01547
1.01318
1.01152
1.00824
1.00554
1.00225
0.999872
1.00014
1.00183
1.00499
1.00725
1.00875
1.00916
1.00926
1.00935
1.00975
1.00989
1.01
1.01
1.01002
1.00986
1.00953
1.00913
1.00867
1.0082
1.0077
1.00715
1.0068
1.00649
1.00613
1.00201
1.0026
1.00223
1.00295
1.00283
1.00385
1.00411
1.0054
1.00606
1.00789
1.00912
1.01178
1.014
1.01731
1.02006
1.02315
1.02532
1.02619
1.02666
1.02606
1.02363
1.02021
1.01672
1.01369
1.01222
1.0118
1.01155
1.01112
1.01073
1.01044
1.01022
1.00983
1.00941
1.009
1.00842
1.0079
1.00734
1.0069
1.00669
1.00628
1.01532
1.01596
1.01665
1.01672
1.01697
1.0166
1.01635
1.01559
1.01497
1.01367
1.01252
1.01062
1.00915
1.00733
1.00604
1.00578
1.00635
1.00778
1.00853
1.00967
1.01014
1.01072
1.01088
1.01094
1.01086
1.01099
1.011
1.0109
1.01076
1.0107
1.01057
1.01015
1.00977
1.00949
1.00898
1.00836
1.008
1.00755
1.00718
1.00688
1.00418
1.00486
1.00499
1.00579
1.00615
1.00731
1.00794
1.00937
1.0102
1.01199
1.01323
1.0152
1.01674
1.01853
1.01999
1.02126
1.02214
1.02249
1.02249
1.0218
1.02042
1.01881
1.01703
1.01542
1.01435
1.01354
1.01255
1.01191
1.01153
1.01118
1.01085
1.01038
1.00999
1.00959
1.00908
1.00853
1.00806
1.00768
1.00737
1.00689
1.01415
1.01483
1.01517
1.01525
1.0152
1.0149
1.0145
1.01398
1.01318
1.01228
1.01134
1.0103
1.00941
1.00898
1.0086
1.00933
1.00984
1.01058
1.01064
1.01118
1.01159
1.01203
1.01217
1.01224
1.0122
1.01224
1.01214
1.01191
1.01173
1.01166
1.01135
1.01099
1.01065
1.01005
1.00954
1.00918
1.00868
1.00823
1.00797
1.00758
1.00653
1.00734
1.00782
1.0087
1.00933
1.0104
1.01109
1.01223
1.01322
1.01425
1.01531
1.01632
1.01719
1.01807
1.01867
1.01924
1.01958
1.01982
1.01984
1.01938
1.01869
1.01761
1.01631
1.01562
1.01514
1.01422
1.01319
1.01266
1.01233
1.01196
1.01154
1.01124
1.01092
1.01027
1.00981
1.00927
1.00883
1.00843
1.00808
1.00769
1.01335
1.01395
1.01404
1.01417
1.0141
1.01399
1.01366
1.01335
1.01282
1.01247
1.0121
1.012
1.01192
1.01219
1.01232
1.01282
1.01287
1.0128
1.01272
1.01286
1.01316
1.01321
1.01321
1.01339
1.01343
1.01337
1.0132
1.013
1.01291
1.01258
1.01215
1.01186
1.01144
1.011
1.0105
1.00997
1.00959
1.00915
1.00884
1.00841
1.00882
1.00977
1.01028
1.01115
1.01176
1.01266
1.01333
1.01416
1.01493
1.0156
1.01633
1.01685
1.01738
1.01791
1.01828
1.01845
1.01829
1.01827
1.01841
1.01833
1.01791
1.01712
1.01629
1.01593
1.01538
1.01449
1.01395
1.01362
1.01325
1.01282
1.01253
1.0122
1.01171
1.0112
1.01069
1.0102
1.00972
1.00939
1.00905