/*--------------------------------*- C++ -*----------------------------------*\
  =========                 |
  \\      /  F ield         | OpenFOAM: The Open Source CFD Toolbox
   \\    /   O peration     | Website:  https://openfoam.org
    \\  /    A nd           | Version:  11
     \\/     M anipulation  |
\*---------------------------------------------------------------------------*/
FoamFile
{
    format      ascii;
    class       surfaceScalarField;
    location    "5.5";
    object      phi;
}
// * * * * * * * * * * * * * * * * * * * * * * * * * * * * * * * * * * * * * //

dimensions      [0 3 -1 0 0 0 0];

internalField   nonuniform List<scalar> 
18960
(
0.0888668
0.000410959
-0.0892777
0.088497
0.000369724
0.0881591
0.000337982
0.0878486
0.000310437
0.0875623
0.000286282
0.0873195
0.000242817
0.0871114
0.000208157
0.0869464
0.000164914
0.0868133
0.000133194
0.0867496
6.36056e-05
0.086725
2.46712e-05
0.0867401
-1.50797e-05
0.0868027
-6.26386e-05
0.0869694
-0.000166691
0.0870515
-8.20974e-05
0.0866699
0.000381602
0.0855128
0.00115708
0.0840893
0.00142345
0.0832228
0.000866578
0.083041
0.000181816
0.0833881
-0.000347186
0.084413
-0.00102486
0.0857848
-0.00137181
0.0871591
-0.00137429
0.0884022
-0.00124307
0.0894689
-0.00106674
0.0903435
-0.000874553
0.0911667
-0.000823212
0.0917818
-0.000615102
0.0921313
-0.000349493
0.0922223
-9.09944e-05
0.0922402
-1.79368e-05
0.092106
0.000134231
0.0920145
9.14847e-05
0.0918238
0.000190722
0.0917001
0.000123674
0.0914744
0.00022564
0.0913204
0.000154084
0.0909001
0.000420231
-0.000422279
0.0913224
0.0889485
0.000752785
-0.0892903
0.0886278
0.000690431
0.0883396
0.000626154
0.0880701
0.000579996
0.0878451
0.000511243
0.0876534
0.000434519
0.0874916
0.000369986
0.0873732
0.00028331
0.087336
0.000170395
0.0873299
6.97267e-05
0.0873131
4.14372e-05
0.0872952
2.87748e-06
0.0874023
-0.000169782
0.0875282
-0.000292591
0.0876665
-0.000220365
0.0878593
0.000188723
0.0881802
0.00083622
0.0885127
0.00109096
0.0885425
0.000836796
0.0884897
0.000234612
0.0885892
-0.000446657
0.0888923
-0.00132805
0.0894093
-0.00188876
0.0901655
-0.00213054
0.0909214
-0.00199888
0.0917523
-0.00189768
0.0925708
-0.00169301
0.0932692
-0.0015217
0.0939334
-0.00127926
0.0944309
-0.000846982
0.0948332
-0.000493353
0.095116
-0.000300735
0.0952524
-2.16948e-06
0.0953027
4.12654e-05
0.0952346
0.000258801
0.095103
0.000255216
0.094869
0.000459637
0.0945856
0.000437494
0.094432
0.000573856
0.000285936
0.0937238
0.0889697
0.00108857
-0.0893055
0.0886507
0.00100949
0.0883765
0.000900352
0.0881317
0.000824761
0.0879134
0.000729587
0.0877157
0.000632149
0.0875431
0.000542588
0.0874402
0.000386211
0.0874045
0.000206102
0.0873921
8.2201e-05
0.0873463
8.71908e-05
0.0873773
-2.81186e-05
0.0874966
-0.000289082
0.0877803
-0.000576333
0.0880846
-0.000524641
0.0883056
-3.22112e-05
0.0883578
0.000783956
0.0882861
0.00116273
0.0880616
0.00106129
0.087838
0.000458141
0.0878137
-0.00042233
0.0880993
-0.00161367
0.0886176
-0.00240705
0.0892351
-0.00274803
0.0899432
-0.002707
0.0906726
-0.0026271
0.0913095
-0.0023299
0.0919524
-0.00216456
0.092458
-0.00178488
0.0930484
-0.00143738
0.093436
-0.000880944
0.0937123
-0.000577038
0.0938287
-0.000118594
0.0939213
-5.127e-05
0.0937871
0.000392991
0.0936651
0.000377221
0.0934633
0.000661394
0.0934158
0.00048504
0.0933081
0.000681517
0.000117632
0.0934764
0.0889545
0.00142638
-0.0892923
0.0886544
0.00130955
0.0883767
0.00117802
0.0881485
0.00105299
0.0879343
0.000943837
0.087753
0.000813428
0.0876202
0.000675354
0.0875414
0.000464984
0.0874708
0.000276747
0.0874525
0.000100487
0.0874674
7.22922e-05
0.0875139
-7.46495e-05
0.087594
-0.0003691
0.0877963
-0.00077867
0.0880585
-0.000786895
0.0883137
-0.000287349
0.0884636
0.000634078
0.088709
0.000917333
0.0890363
0.000733979
0.0894575
3.68801e-05
0.0899259
-0.000890699
0.0903582
-0.00204595
0.0908176
-0.00286646
0.0913419
-0.00327236
0.0918786
-0.00324373
0.0924433
-0.00319176
0.0929809
-0.0028675
0.0935557
-0.00273931
0.0940968
-0.00232602
0.0946715
-0.00201208
0.0951307
-0.00134017
0.0955593
-0.00100557
0.0957292
-0.000288537
0.0958572
-0.000179275
0.0959023
0.000347937
0.0958763
0.000403236
0.0957149
0.000822755
0.095613
0.00058692
0.0951838
0.00111072
0.000461326
0.0948401
0.0889737
0.001739
-0.0892864
0.0886677
0.00161561
0.0884045
0.00144125
0.0881668
0.00129065
0.0879602
0.00115044
0.0878014
0.000972256
0.0876538
0.000822941
0.0875774
0.000541329
0.0875231
0.000331101
0.0874863
0.000137248
0.0874991
5.9552e-05
0.0876038
-0.000179393
0.0877153
-0.000480561
0.0878085
-0.000871858
0.0879024
-0.000880809
0.088246
-0.000630943
0.0888091
7.08979e-05
0.0893724
0.000354093
0.0897125
0.000393831
0.0898878
-0.000138406
0.089901
-0.000903872
0.0898764
-0.00202135
0.0899257
-0.00291574
0.0901213
-0.00346799
0.0904864
-0.00360887
0.0909479
-0.00365323
0.0914637
-0.00338333
0.0919897
-0.00326524
0.0924631
-0.00279943
0.0929237
-0.00247265
0.0933835
-0.0018
0.093756
-0.00137813
0.0940773
-0.000609807
0.0942928
-0.000394818
0.0944293
0.00021144
0.0944669
0.000365704
0.0944149
0.000874746
0.0943574
0.000644357
0.0944308
0.00103737
0.000451032
0.0944411
0.0889569
0.00205678
-0.0892747
0.0886727
0.00189979
0.0884276
0.0016864
0.0882024
0.00151583
0.0880157
0.00133711
0.087844
0.001144
0.0877156
0.000951355
0.0876381
0.000618846
0.0875761
0.00039306
0.0876078
0.000105543
0.0876426
2.48007e-05
0.0876966
-0.000233435
0.0877426
-0.000526569
0.0879169
-0.00104614
0.0881336
-0.00109753
0.0884309
-0.00092819
0.0887836
-0.000281807
0.0891474
-9.7797e-06
0.0895492
-7.92027e-06
0.0899974
-0.000586619
0.0904962
-0.00140269
0.0909176
-0.0024427
0.0913236
-0.0033218
0.0917238
-0.00386817
0.0921904
-0.00407544
0.0927354
-0.00419826
0.0932384
-0.00388636
0.0937832
-0.00381
0.0943202
-0.00333644
0.0949252
-0.00307764
0.0954844
-0.00235915
0.0959988
-0.00189252
0.0963013
-0.000912393
0.0964704
-0.000563853
0.0965527
0.000129147
0.0966278
0.000290541
0.0965981
0.00090443
0.096563
0.000679469
0.0962837
0.00131669
0.000761256
0.0959735
0.0889735
0.0023611
-0.0892778
0.0887058
0.00216749
0.0884662
0.00192594
0.0882558
0.00172622
0.0880594
0.00153358
0.0879169
0.00128642
0.0877786
0.00108967
0.087681
0.000716454
0.0876507
0.000423336
0.087708
4.82599e-05
0.08771
2.28557e-05
0.0877281
-0.000251529
0.0877836
-0.000582125
0.0879871
-0.00124964
0.0882229
-0.0013333
0.0884655
-0.00117082
0.0887866
-0.000602864
0.0892491
-0.000472365
0.0897606
-0.000519338
0.0902455
-0.00107153
0.0906023
-0.00175956
0.090813
-0.00265339
0.090901
-0.00340978
0.091006
-0.0039732
0.0911706
-0.00423998
0.0914317
-0.00445942
0.0917891
-0.00424378
0.0922295
-0.00425035
0.0926592
-0.00376616
0.0930794
-0.00349784
0.0935008
-0.00278055
0.0939244
-0.00231609
0.0944094
-0.00139741
0.0947572
-0.000911676
0.0950752
-0.000188823
0.0953194
4.63163e-05
0.0953789
0.000844899
0.0953871
0.000671271
0.0954973
0.00120652
0.000712571
0.095546
0.0889672
0.00266081
-0.0892669
0.0887136
0.00242112
0.0884856
0.00215389
0.0882787
0.00193319
0.0881075
0.00170471
0.0879757
0.00141824
0.0878356
0.00122978
0.0877694
0.00078264
0.0877621
0.000430615
0.0877633
4.70841e-05
0.0877736
1.2584e-05
0.087874
-0.000351989
0.0879885
-0.000696636
0.0880995
-0.00136062
0.0882495
-0.00148325
0.0885305
-0.00145186
0.0889274
-0.000999737
0.0893443
-0.000889312
0.0897274
-0.000902396
0.0900476
-0.00139173
0.0904095
-0.00212147
0.0908045
-0.00304835
0.0912529
-0.00385824
0.0917352
-0.00445541
0.0921919
-0.00469671
0.0927192
-0.00498677
0.0932599
-0.00478449
0.0938301
-0.00482049
0.0943864
-0.0043225
0.0950016
-0.00411303
0.0956783
-0.00345721
0.0963172
-0.00295503
0.0968337
-0.00191394
0.0972239
-0.00130187
0.0973593
-0.000324197
0.0974393
-3.36275e-05
0.0975617
0.000722419
0.0975824
0.000650612
0.0974516
0.00133736
0.000955177
0.0972089
0.0890158
0.00294842
-0.0893034
0.0887594
0.00267747
0.0885439
0.00236943
0.0883618
0.00211525
0.088216
0.00185058
0.088066
0.00156819
0.0879578
0.00133803
0.0878842
0.000856184
0.08786
0.000454838
0.0878999
7.22588e-06
0.0879577
-4.53016e-05
0.08801
-0.000404291
0.0880794
-0.000765972
0.0881934
-0.00147463
0.0883552
-0.0016451
0.0886041
-0.00170071
0.0889465
-0.00134215
0.0893014
-0.00124419
0.0897128
-0.00131383
0.090139
-0.00181793
0.0905038
-0.00248632
0.0908185
-0.00336302
0.0910946
-0.00413431
0.0914021
-0.00476296
0.0916909
-0.00498544
0.091976
-0.00527189
0.0922688
-0.0050773
0.0926239
-0.00517557
0.0930601
-0.00475873
0.0934688
-0.00452175
0.093858
-0.00384637
0.0942793
-0.00337635
0.0947648
-0.00239944
0.0952394
-0.00177648
0.0957336
-0.000818443
0.0961222
-0.000422165
0.0963687
0.000475899
0.096515
0.00050427
0.0966832
0.00116918
0.0008581
0.0967803
0.0889987
0.00321474
-0.089265
0.0887864
0.00288975
0.0885608
0.00259498
0.0883729
0.00230321
0.0882291
0.00199431
0.0881154
0.00168194
0.0880073
0.00144616
0.0879538
0.000909636
0.0879306
0.000478018
0.0879656
-2.77409e-05
0.0880067
-8.6444e-05
0.0880888
-0.000486326
0.0881892
-0.000866406
0.0882754
-0.0015608
0.0883951
-0.00176485
0.0886148
-0.00192035
0.0889565
-0.00168383
0.0893757
-0.00166342
0.0897903
-0.00172843
0.0901198
-0.00214741
0.0903683
-0.00273478
0.0905989
-0.00359363
0.0908743
-0.00440979
0.0913197
-0.00520829
0.0918252
-0.00549093
0.0924
-0.00584676
0.092989
-0.00566628
0.0936182
-0.00580471
0.0942592
-0.00539975
0.0949718
-0.0052344
0.0956695
-0.00454398
0.0964396
-0.00414654
0.0971586
-0.00311837
0.0978249
-0.00244278
0.0982097
-0.00120322
0.0984428
-0.000655329
0.0986426
0.000276131
0.0987379
0.000408943
0.098746
0.00116111
0.00104805
0.098556
0.0890768
0.00347122
-0.0893332
0.0888409
0.00312564
0.0886343
0.00280155
0.0884932
0.00244428
0.0883279
0.0021596
0.0882159
0.00179402
0.0881339
0.00152812
0.088089
0.00095453
0.0880646
0.000502417
0.088059
-2.21619e-05
0.0881462
-0.000173631
0.0882507
-0.000590813
0.0883165
-0.000932208
0.0883646
-0.00160895
0.0884747
-0.00187487
0.0886821
-0.00212775
0.0890184
-0.00202019
0.0894049
-0.00204988
0.0897693
-0.00209283
0.0901136
-0.00249175
0.0903768
-0.00299798
0.09064
-0.0038568
0.0908327
-0.00460246
0.091097
-0.00547265
0.0914599
-0.00585382
0.0919044
-0.00629129
0.092386
-0.00614782
0.0928677
-0.00628642
0.093367
-0.00589904
0.0938928
-0.00576028
0.094396
-0.00504709
0.0948465
-0.00459704
0.0953085
-0.00358039
0.0958592
-0.00299353
0.0964306
-0.00177462
0.0969768
-0.00120149
0.0974002
-0.000147306
0.0977346
7.46115e-05
0.0979832
0.000912496
0.000859
0.0981722
0.0890543
0.00372499
-0.089308
0.0888622
0.00331771
0.0886521
0.00301171
0.0884859
0.0026104
0.0883457
0.00229987
0.0882704
0.00186927
0.0881977
0.00160079
0.0881559
0.000996327
0.0881011
0.000557276
0.0881384
-5.94987e-05
0.0882074
-0.000242603
0.0883054
-0.000688817
0.0883781
-0.00100495
0.0884343
-0.00166514
0.088537
-0.00197753
0.0887409
-0.00233167
0.0890525
-0.00233179
0.0894377
-0.00243508
0.089831
-0.00248615
0.0901742
-0.00283488
0.0904024
-0.00322626
0.0905258
-0.00398012
0.0905997
-0.00467641
0.0907768
-0.00564977
0.0910975
-0.00617446
0.0916318
-0.00682566
0.0922945
-0.00681049
0.093045
-0.00703691
0.093808
-0.00666203
0.0946855
-0.00663775
0.0955144
-0.00587602
0.0964434
-0.00552601
0.0972995
-0.00443658
0.0981595
-0.00385345
0.0988681
-0.00248322
0.0994644
-0.00179779
0.0997779
-0.000460887
0.0999846
-0.000131998
0.100159
0.000738484
0.000925886
0.100092
0.0891615
0.00395288
-0.0893894
0.0889372
0.003542
0.0887474
0.00320152
0.088604
0.00275382
0.0884801
0.00242375
0.0883741
0.00197527
0.0883118
0.00166311
0.0882734
0.00103476
0.0882517
0.000578981
0.08827
-7.78173e-05
0.0883264
-0.000299031
0.0884142
-0.000776614
0.0885086
-0.00109928
0.0885756
-0.00173219
0.0886968
-0.00209869
0.0888697
-0.00250461
0.0891107
-0.00257281
0.089468
-0.00279236
0.0897991
-0.00281724
0.0901431
-0.00317888
0.0903362
-0.00341935
0.0905122
-0.00415616
0.0905894
-0.00475358
0.0906748
-0.00573513
0.0908377
-0.00633737
0.0911694
-0.00715743
0.0917104
-0.00735145
0.0923865
-0.00771303
0.093099
-0.00737453
0.0938991
-0.00743783
0.0946532
-0.00663015
0.0954184
-0.00629122
0.09605
-0.00506817
0.096674
-0.00447745
0.0972917
-0.00310087
0.097914
-0.00242012
0.0985308
-0.00107768
0.0990152
-0.00061635
0.099391
0.000362695
0.000607753
0.0997091
0.0891535
0.00417295
-0.0893736
0.0889677
0.0037279
0.0887883
0.00338087
0.0886437
0.00289841
0.0885237
0.00254376
0.0884341
0.00206484
0.088375
0.00172224
0.0883511
0.00105865
0.0883422
0.000587922
0.088331
-6.66142e-05
0.0883928
-0.000360867
0.0884978
-0.000881571
0.088593
-0.00119458
0.0886859
-0.00182503
0.088791
-0.00220377
0.0889586
-0.00267221
0.0891818
-0.00279604
0.0894811
-0.00309166
0.0897808
-0.00311693
0.0900859
-0.00348401
0.0903267
-0.00366009
0.0904627
-0.00429221
0.0905081
-0.00479896
0.0905068
-0.00573385
0.0905584
-0.00638893
0.0907558
-0.00735488
0.0911634
-0.00775901
0.0918965
-0.00844614
0.0927411
-0.00821916
0.0937819
-0.00847864
0.09488
-0.00772828
0.0960835
-0.00749465
0.0972217
-0.00620636
0.0983515
-0.00560732
0.0993323
-0.0040817
0.100228
-0.00331578
0.100922
-0.00177172
0.1014
-0.00109451
0.10167
9.27576e-05
0.000534468
0.101743
0.0892548
0.00440747
-0.0894893
0.0890656
0.00391715
0.088897
0.00354943
0.0887699
0.00302552
0.0886509
0.00266275
0.0885829
0.00213283
0.0885131
0.00179206
0.0884762
0.00109558
0.0884621
0.000601941
0.0884967
-0.000101191
0.0885677
-0.000431893
0.0886606
-0.000974394
0.0887714
-0.00130544
0.0888628
-0.00191646
0.0889574
-0.00229828
0.0891469
-0.0028617
0.089313
-0.0029622
0.089543
-0.0033216
0.0897389
-0.00331286
0.0900287
-0.00377385
0.0902576
-0.00388899
0.0904515
-0.00448609
0.0905019
-0.00484937
0.0905202
-0.00575217
0.0904939
-0.00636264
0.0905695
-0.00743047
0.0907713
-0.00796076
0.0912557
-0.00893054
0.091997
-0.00896044
0.0929609
-0.00944256
0.0940076
-0.00877498
0.0951809
-0.00866791
0.0963231
-0.00734864
0.0973916
-0.00667579
0.0983146
-0.00500468
0.0991051
-0.00410625
0.0998725
-0.0025391
0.100512
-0.00173405
0.10106
-0.000455086
0.000181135
0.101413
0.0892414
0.00460587
-0.0894398
0.089081
0.00407754
0.0889297
0.00370075
0.0887931
0.0031621
0.0886876
0.00276829
0.0886355
0.00218495
0.0885949
0.0018326
0.0885681
0.00112243
0.088552
0.000618002
0.0885905
-0.000139665
0.0886269
-0.000468349
0.0887374
-0.00108487
0.0888272
-0.00139519
0.0889637
-0.00205299
0.0890658
-0.00240044
0.0892238
-0.00301965
0.089361
-0.00309941
0.0895596
-0.00352015
0.089761
-0.00351436
0.0899422
-0.00395497
0.0901339
-0.00408074
0.0902964
-0.00464854
0.0904137
-0.00496676
0.0904611
-0.0057995
0.0904453
-0.00634691
0.0904525
-0.00743758
0.0905146
-0.00802287
0.0907832
-0.00919922
0.0912899
-0.00946712
0.092196
-0.0103486
0.0933649
-0.00994388
0.0947881
-0.0100912
0.0963163
-0.00887684
0.0979074
-0.00826693
0.0994245
-0.00652177
0.100726
-0.00540754
0.101914
-0.00372724
0.102765
-0.00258523
0.103519
-0.00120885
-7.02611e-05
0.10377
0.0894008
0.00482285
-0.0896177
0.0892334
0.00424488
0.0890917
0.0038425
0.0889653
0.00328849
0.0888588
0.00287481
0.0887908
0.00225291
0.0887813
0.00184206
0.0887794
0.00112432
0.088768
0.00062946
0.0887623
-0.000134024
0.0888187
-0.000524751
0.088925
-0.00119111
0.0890458
-0.00151601
0.0892002
-0.00220738
0.0892722
-0.00247243
0.0893969
-0.00314435
0.0895187
-0.00322119
0.0896884
-0.00368983
0.0898149
-0.00364089
0.0899516
-0.00409173
0.0900515
-0.00418062
0.0901775
-0.00477455
0.0903034
-0.00509265
0.0903551
-0.00585113
0.0903843
-0.00637615
0.0904067
-0.00745995
0.0904437
-0.00805987
0.0905544
-0.00930999
0.0908865
-0.00979912
0.0914576
-0.0109197
0.0924194
-0.0109057
0.0936293
-0.0113011
0.0951889
-0.0104364
0.0967422
-0.00982023
0.0984169
-0.00819648
0.0998516
-0.00684227
0.101108
-0.00498383
0.102134
-0.00361102
0.102955
-0.0020295
-0.000746907
0.103631
0.0893881
0.0049986
-0.0895639
0.0892351
0.00439795
0.0891012
0.00397632
0.0889835
0.00340625
0.0888886
0.00296962
0.0888301
0.00231148
0.088829
0.00184312
0.0888482
0.00110514
0.0888376
0.000640051
0.088847
-0.000143394
0.0888882
-0.000565955
0.0889891
-0.00129208
0.089093
-0.00161989
0.0892498
-0.00236416
0.08934
-0.00256266
0.0894539
-0.00325817
0.0895484
-0.00331568
0.0896927
-0.00383423
0.0898384
-0.00378657
0.089936
-0.00418929
0.0900137
-0.00425829
0.090042
-0.00480289
0.0901008
-0.00515144
0.0901211
-0.0058714
0.0901813
-0.00643638
0.0902114
-0.00749003
0.0902601
-0.00810856
0.0903389
-0.00938885
0.0905442
-0.0100044
0.0909008
-0.0112763
0.0916024
-0.0116073
0.0925943
-0.012293
0.0941065
-0.0119486
0.0959116
-0.0116254
0.0980327
-0.0103175
0.100082
-0.00889142
0.102039
-0.00694072
0.103656
-0.0052279
0.104999
-0.00337272
-0.00153491
0.105787
0.0896033
0.00517336
-0.0897781
0.0894458
0.00455548
0.0893143
0.00410776
0.0892205
0.00350012
0.0891344
0.00305568
0.0890694
0.00237645
0.0890476
0.00186491
0.0890506
0.00110215
0.0890794
0.000611276
0.0891284
-0.000192373
0.08916
-0.000597578
0.0892356
-0.00136765
0.0893211
-0.00170543
0.0894568
-0.00249984
0.0895617
-0.00266758
0.0896877
-0.0033841
0.0897632
-0.00339122
0.0898412
-0.00391224
0.0899045
-0.00384989
0.0899907
-0.00427542
0.0900565
-0.00432415
0.0900291
-0.00477551
0.0900363
-0.00515857
0.0899541
-0.00578926
0.0899199
-0.00640216
0.089897
-0.00746713
0.0899571
-0.00816865
0.0900136
-0.0094454
0.0902428
-0.0102335
0.0905308
-0.0115644
0.0911626
-0.0122391
0.091931
-0.0130614
0.0931471
-0.0131646
0.0945997
-0.013078
0.096525
-0.0122428
0.0986756
-0.0110421
0.10087
-0.00913488
0.102841
-0.00719943
0.104616
-0.00514693
-0.00269679
0.105777
0.0895518
0.00533856
-0.089717
0.0894322
0.00467503
0.0893169
0.00422307
0.0892313
0.00358579
0.0891823
0.00310463
0.0891186
0.00244012
0.0890944
0.00188915
0.0890934
0.0011031
0.0891281
0.000576593
0.0891869
-0.0002511
0.0892442
-0.000654913
0.0893416
-0.00146509
0.0893963
-0.00176011
0.0895095
-0.00261299
0.0896177
-0.00277579
0.0897025
-0.00346893
0.0897909
-0.00347957
0.0898337
-0.00395506
0.0898991
-0.00391533
0.0899165
-0.00429282
0.0899764
-0.00438405
0.0899274
-0.0047265
0.0899196
-0.0051508
0.0897985
-0.0056681
0.0897119
-0.00631562
0.0895425
-0.00729766
0.0894809
-0.00810704
0.0894797
-0.00944421
0.0896719
-0.0104258
0.0898936
-0.0117861
0.0904154
-0.0127609
0.09112
-0.013766
0.0922143
-0.0142589
0.093558
-0.0144217
0.0953907
-0.0140755
0.0975551
-0.0132065
0.100162
-0.0117418
0.102667
-0.00970452
0.105235
-0.00771524
-0.00442472
0.106963
0.0898218
0.00547802
-0.0899612
0.0896865
0.00481031
0.0895925
0.00431706
0.0895082
0.00367011
0.089455
0.00315785
0.0894338
0.00246133
0.0894032
0.00191977
0.089414
0.00109224
0.0894127
0.000577885
0.0894865
-0.000324865
0.0895345
-0.000702942
0.0896596
-0.00159019
0.0897321
-0.0018326
0.0898153
-0.00269621
0.0898794
-0.0028399
0.089941
-0.00353049
0.090002
-0.00354059
0.0900567
-0.00400979
0.0901065
-0.00396509
0.0901
-0.00428634
0.0900745
-0.00435854
0.089986
-0.00463797
0.0898794
-0.00504421
0.0897418
-0.00553054
0.0895761
-0.00614991
0.0893228
-0.00704432
0.0891348
-0.007919
0.0889252
-0.00923463
0.0889336
-0.0104342
0.0890588
-0.0119113
0.0894794
-0.0131815
0.0901403
-0.0144269
0.0912348
-0.0153534
0.09259
-0.0157769
0.0943947
-0.0158803
0.0963146
-0.0151263
0.0987781
-0.0142053
0.101278
-0.0122042
0.104068
-0.0105052
-0.00660144
0.106244
0.0897724
0.00560405
-0.0898985
0.089669
0.00491379
0.0895892
0.00439685
0.0895189
0.00374041
0.089471
0.00320572
0.0894677
0.00246461
0.089455
0.00193254
0.089492
0.00105519
0.0894949
0.000574995
0.0895578
-0.000387774
0.0896073
-0.000752453
0.0896961
-0.00167897
0.0898065
-0.00194304
0.0898874
-0.00277706
0.0899724
-0.00292489
0.0900091
-0.00356719
0.09005
-0.00358154
0.0900517
-0.00401147
0.0901037
-0.00401705
0.0900704
-0.00425304
0.090059
-0.00434719
0.0899302
-0.00450913
0.089767
-0.00488101
0.0895718
-0.00533537
0.0893557
-0.00593376
0.0890573
-0.00674597
0.0888204
-0.00768214
0.0884816
-0.00889576
0.0882841
-0.0102368
0.0881454
-0.0117726
0.0882984
-0.0133345
0.0886702
-0.0147987
0.0895436
-0.0162268
0.0907674
-0.0170007
0.0926252
-0.0177381
0.0947933
-0.0172944
0.0974856
-0.0168975
0.100347
-0.0150657
0.103415
-0.0135726
-0.0093032
0.106116
0.0900884
0.00574176
-0.0902261
0.0899906
0.00501157
0.0899149
0.00447253
0.0898823
0.00377308
0.0898335
0.00325449
0.0898411
0.00245698
0.0898397
0.00193398
0.0898788
0.00101605
0.089914
0.000539857
0.0899637
-0.000437487
0.0900294
-0.000818172
0.0901039
-0.00175343
0.0901631
-0.00200231
0.0902294
-0.00284331
0.0902926
-0.00298809
0.0903441
-0.00361872
0.0903898
-0.00362725
0.0903732
-0.00399482
0.0903644
-0.00400832
0.0903028
-0.00419138
0.0902452
-0.00428967
0.0901157
-0.0043796
0.0898875
-0.00465277
0.0896233
-0.00507123
0.089314
-0.00562441
0.0889335
-0.00636553
0.0885597
-0.00730833
0.088118
-0.00845407
0.0877297
-0.00984848
0.0872955
-0.0113383
0.0871458
-0.0131848
0.0871432
-0.0147961
0.0876653
-0.0167488
0.0886081
-0.0179436
0.0902052
-0.0193352
0.0924013
-0.0194905
0.0953056
-0.0198018
0.0985648
-0.018325
0.102242
-0.0172495
-0.0126384
0.105577
0.0900393
0.00583495
-0.0901325
0.089969
0.00508185
0.0899065
0.00453512
0.0898814
0.00379811
0.0898648
0.00327111
0.0898745
0.00244727
0.0898928
0.00191567
0.0899259
0.000983013
0.0899718
0.00049389
0.090049
-0.00051467
0.090119
-0.000888118
0.0902004
-0.00183489
0.0902849
-0.00208684
0.0903283
-0.00288667
0.0903893
-0.00304905
0.0904037
-0.00363314
0.0904664
-0.00368992
0.0904583
-0.00398681
0.0904622
-0.0040122
0.0903538
-0.00408291
0.0902668
-0.00420271
0.0901164
-0.00422924
0.0898805
-0.00441687
0.0895666
-0.00475734
0.0892093
-0.00526703
0.0887262
-0.00588246
0.0882397
-0.00682182
0.0876139
-0.00782829
0.0870625
-0.00929707
0.0864647
-0.0107405
0.0860264
-0.0127465
0.0856987
-0.0144684
0.0857008
-0.0167509
0.0861146
-0.0183574
0.0871953
-0.0204159
0.0888763
-0.0211716
0.0915486
-0.0224741
0.094882
-0.0216584
0.0993726
-0.0217401
-0.0172869
0.104021
0.0904952
0.0059603
-0.0906206
0.0904149
0.00516217
0.0903543
0.00459578
0.0903331
0.00381925
0.090345
0.00325921
0.0903705
0.00242181
0.0903937
0.00189242
0.090465
0.000911739
0.0905107
0.000448179
0.0905656
-0.000569579
0.0906347
-0.000957175
0.090693
-0.00189319
0.0907815
-0.00217535
0.0908263
-0.00293153
0.0908904
-0.00311313
0.0908865
-0.00362919
0.0909224
-0.00372588
0.0908623
-0.00392666
0.0908312
-0.0039811
0.0907441
-0.00399581
0.0905837
-0.00404231
0.0904133
-0.00405888
0.0901692
-0.00417274
0.0897747
-0.00436288
0.0893274
-0.0048197
0.0887733
-0.00532835
0.0881904
-0.00623891
0.0874472
-0.0070851
0.0866938
-0.00854371
0.0858152
-0.00986179
0.0849917
-0.011923
0.0842106
-0.0136873
0.0836754
-0.0162157
0.0834332
-0.0181151
0.083909
-0.0208917
0.0849213
-0.0221839
0.0870965
-0.0246494
0.0898707
-0.0244326
0.0942914
-0.0261608
-0.02271
0.0997145
0.0904672
0.00604012
-0.090547
0.0904136
0.00521578
0.0903791
0.00463033
0.0903639
0.00383446
0.0903689
0.0032542
0.0904149
0.00237577
0.0904628
0.00184456
0.0905333
0.000841189
0.090609
0.000372518
0.0906654
-0.000625994
0.0907791
-0.00107089
0.0908242
-0.00193826
0.0909571
-0.00230826
0.0909606
-0.0029351
0.0910817
-0.00323419
0.0910688
-0.00361626
0.09111
-0.00376712
0.0910762
-0.0038928
0.0910209
-0.00392588
0.0909134
-0.00388825
0.0907466
-0.0038755
0.090533
-0.00384529
0.0902767
-0.00391652
0.0898776
-0.00396374
0.0894189
-0.00436097
0.0887935
-0.00470294
0.0881128
-0.00555825
0.0872619
-0.0062342
0.0863281
-0.00760988
0.0852252
-0.00875887
0.0840963
-0.0107942
0.0828629
-0.0124539
0.0818185
-0.0151714
0.0808457
-0.0171424
0.080369
-0.0204149
0.0803301
-0.022145
0.0814689
-0.0257882
0.0833187
-0.0262824
0.0868395
-0.0296816
-0.0281142
0.0922436
0.0911061
0.00610581
-0.0911717
0.0910619
0.00525991
0.0910414
0.00465091
0.0910564
0.00381944
0.0910672
0.0032434
0.0911046
0.00233833
0.091169
0.00178019
0.0912086
0.000801602
0.0913101
0.000271017
0.0913473
-0.000663195
0.0915095
-0.00123308
0.0914903
-0.00191904
0.0916582
-0.00247625
0.0916479
-0.00292471
0.0917535
-0.00333987
0.091717
-0.00357976
0.0917319
-0.00378194
0.0916881
-0.00384902
0.091612
-0.00384982
0.0914882
-0.00376442
0.0913195
-0.00370677
0.0910525
-0.00357828
0.0907757
-0.00363974
0.0903592
-0.00354727
0.0898772
-0.00387895
0.0892083
-0.00403407
0.0884232
-0.00477317
0.0874617
-0.00527264
0.0864092
-0.00655739
0.0851494
-0.00749906
0.0837841
-0.00942889
0.0822147
-0.0108845
0.0805485
-0.0135052
0.0788187
-0.0154125
0.0772493
-0.0188456
0.075996
-0.0208917
0.0753675
-0.0251597
0.0757648
-0.0266797
0.0772185
-0.0311353
-0.0322843
0.0813886
0.0910273
0.00614196
-0.0910635
0.0910464
0.00524086
0.091063
0.00463432
0.0910976
0.00378484
0.0911761
0.00316488
0.0911949
0.00231955
0.0913447
0.00163038
0.0913304
0.000815888
0.0915575
4.39007e-05
0.0915226
-0.000628254
0.0917288
-0.00143937
0.0917482
-0.00193841
0.0918909
-0.00261895
0.0919276
-0.00296134
0.0919906
-0.00340294
0.0920172
-0.00360633
0.0920227
-0.00378739
0.0919895
-0.00381583
0.0919385
-0.00379884
0.0918205
-0.00364648
0.0916798
-0.00356605
0.09142
-0.0033185
0.0911413
-0.00336099
0.0907315
-0.00313746
0.0902457
-0.00339322
0.0895935
-0.00338181
0.0888259
-0.00400557
0.0878519
-0.00429865
0.0866738
-0.0053793
0.0852899
-0.00611516
0.083639
-0.00777802
0.0818124
-0.00905783
0.0796643
-0.0113571
0.0774814
-0.0132296
0.0749289
-0.016293
0.0726848
-0.0186477
0.0701706
-0.0226455
0.0686722
-0.0251812
0.067342
-0.0298051
-0.0332164
0.0682741
0.0919558
0.00610851
-0.0919224
0.0919173
0.00527934
0.0920214
0.00453028
0.0920229
0.00378333
0.0921618
0.00302598
0.0921529
0.0023284
0.0923529
0.00143043
0.0923359
0.000832898
0.0925409
-0.000161093
0.0925696
-0.000656954
0.0927069
-0.00157673
0.0927954
-0.00202688
0.0928437
-0.00266724
0.0929435
-0.00306111
0.0929484
-0.00340789
0.092975
-0.00363293
0.092947
-0.00375934
0.0929021
-0.00377099
0.0928211
-0.00371783
0.0926924
-0.00351779
0.0925341
-0.00340778
0.0923088
-0.00309315
0.0920068
-0.00305903
0.0916272
-0.00275779
0.0911397
-0.00290579
0.0905176
-0.00275967
0.0897084
-0.00319634
0.0887687
-0.00335895
0.0875336
-0.00414425
0.0861446
-0.00472611
0.0843232
-0.00595664
0.0824105
-0.00714517
0.0799209
-0.00886751
0.0774077
-0.0107165
0.0741762
-0.0130615
0.0710734
-0.0155449
0.06717
-0.018742
0.0637569
-0.0217682
0.0598754
-0.0259236
-0.0302935
0.0569526
0.0919248
0.00599624
-0.0918125
0.0919157
0.00528846
0.0920585
0.00438741
0.0920776
0.00376427
0.0922783
0.00282527
0.0923795
0.00222718
0.0925628
0.00124719
0.0927159
0.000679758
0.0928163
-0.000261503
0.0930158
-0.000856487
0.0930776
-0.0016385
0.0932691
-0.00221835
0.0933233
-0.0027214
0.0934339
-0.00317172
0.0934633
-0.00343733
0.0934925
-0.0036621
0.0934958
-0.00376269
0.093436
-0.00371113
0.0933778
-0.00365969
0.0932877
-0.00342762
0.093145
-0.00326516
0.0929613
-0.00290942
0.0927013
-0.00279906
0.0923749
-0.00243132
0.0918992
-0.00243014
0.0913907
-0.00225117
0.090626
-0.00243159
0.0897993
-0.00253231
0.0885969
-0.00294185
0.0873445
-0.00347366
0.0855716
-0.00418378
0.0836792
-0.00525273
0.0811461
-0.00633444
0.0784425
-0.00801287
0.074957
-0.0095759
0.0713323
-0.0119203
0.0667839
-0.0141936
0.0621344
-0.0171187
0.0564036
-0.0201928
-0.0250142
0.0511243
0.0930608
0.0058796
-0.0929441
0.0931484
0.00520082
0.0933271
0.0042087
0.0934479
0.00364352
0.0935744
0.0026988
0.0937083
0.00209327
0.0938093
0.00114619
0.0940623
0.000426722
0.094169
-0.000368223
0.0944089
-0.00109636
0.0944684
-0.00169799
0.0946466
-0.00239661
0.0947481
-0.0028229
0.0948369
-0.00326049
0.0948944
-0.00349479
0.0949154
-0.00368311
0.0948949
-0.00374216
0.0948718
-0.0036881
0.0947852
-0.0035731
0.0946971
-0.00333946
0.094564
-0.00313211
0.0944434
-0.00278875
0.0941761
-0.00253182
0.0939571
-0.0022123
0.0935369
-0.00200996
0.0931348
-0.00184909
0.0924559
-0.00175265
0.0917639
-0.00184034
0.0907116
-0.00188949
0.0895739
-0.00233596
0.0879638
-0.00257375
0.0861866
-0.00347547
0.0838079
-0.00395579
0.0811754
-0.00538036
0.0778633
-0.00626376
0.0741781
-0.00823507
0.0696029
-0.00961848
0.0646407
-0.0121565
0.0583708
-0.0139229
-0.01821
0.0515667
0.0932587
0.00570192
-0.093081
0.0934373
0.00502227
0.0935914
0.0040546
0.0938782
0.00335663
0.0940992
0.00247789
0.0944402
0.00175225
0.0945909
0.000995523
0.0948018
0.000215802
0.0949303
-0.000496773
0.0951414
-0.00130745
0.0953177
-0.00187424
0.0954295
-0.00250846
0.0955229
-0.00291627
0.0956136
-0.00335119
0.0956542
-0.00353536
0.0957166
-0.00374556
0.095693
-0.00371851
0.0957163
-0.00371144
0.0956386
-0.00349545
0.0956436
-0.00334443
0.0954952
-0.00298367
0.0954579
-0.00275143
0.0952501
-0.00232406
0.0951599
-0.00212208
0.094841
-0.00169109
0.0946232
-0.00163124
0.0941123
-0.00124175
0.0936582
-0.0013863
0.0928391
-0.00107041
0.0919818
-0.00147863
0.0906821
-0.0012741
0.0892125
-0.00200586
0.0872851
-0.00202833
0.0849863
-0.00308162
0.082119
-0.00339638
0.0787789
-0.00489503
0.074632
-0.00547157
0.0700215
-0.00754601
0.0644035
-0.0083049
-0.0114129
0.0576064
0.0951458
0.00565052
-0.0950944
0.0952868
0.00488128
0.0953167
0.00402477
0.0954818
0.00319149
0.0955741
0.00238563
0.0958299
0.00149637
0.0960819
0.000743573
0.0964484
-0.00015071
0.0967194
-0.000767795
0.0969263
-0.00151428
0.0971143
-0.0020623
0.0973196
-0.00271375
0.097451
-0.00304766
0.0975856
-0.00348575
0.0976181
-0.00356789
0.0977064
-0.0038339
0.0976679
-0.00367998
0.0977416
-0.00378521
0.0976761
-0.00342989
0.0977317
-0.0034
0.0976444
-0.00289644
0.0976949
-0.00280191
0.0975784
-0.00220754
0.0975982
-0.00214194
0.0974397
-0.00153259
0.0973738
-0.00156529
0.0971359
-0.00100389
0.0968865
-0.0011369
0.0964879
-0.000671765
0.0959332
-0.000923912
0.095192
-0.00053292
0.0941327
-0.000946544
0.0928015
-0.000697168
0.0911018
-0.00138189
0.0888588
-0.00115336
0.0862073
-0.00224356
0.0828464
-0.00211068
0.078946
-0.00364561
0.0742199
-0.00357881
-0.00565322
0.0684603
0.0960457
0.00520016
-0.0955954
0.0966004
0.00432665
0.0970706
0.00355455
0.0975481
0.002714
0.097959
0.00197473
0.0982794
0.00117593
0.0985345
0.000488515
0.0986131
-0.000229333
0.0988236
-0.000978256
0.0989898
-0.00168052
0.0991376
-0.00221008
0.0992127
-0.00278887
0.0992543
-0.00308923
0.0993036
-0.00353503
0.0993034
-0.0035677
0.0993355
-0.00386598
0.0992886
-0.00363311
0.0993127
-0.00380931
0.0992279
-0.00334512
0.0992625
-0.00343453
0.0991881
-0.00282212
0.0992516
-0.00286535