/*--------------------------------*- C++ -*----------------------------------*\
  =========                 |
  \\      /  F ield         | OpenFOAM: The Open Source CFD Toolbox
   \\    /   O peration     | Website:  https://openfoam.org
    \\  /    A nd           | Version:  11
     \\/     M anipulation  |
\*---------------------------------------------------------------------------*/
FoamFile
{
    format      ascii;
    class       volVectorField;
    location    "5.5";
    object      U;
}
// * * * * * * * * * * * * * * * * * * * * * * * * * * * * * * * * * * * * * //

dimensions      [0 1 -1 0 0 0 0];

internalField   nonuniform List<vector> 
9600
(
(0.991906 0.00030169 -3.46504e-21)
(0.990882 -4.30024e-05 0)
(0.990518 -0.00016406 -3.38182e-21)
(0.990261 -0.000298435 3.34133e-21)
(0.989913 -0.00032539 0)
(0.989735 -0.000356066 1.50787e-21)
(0.989958 -0.000370528 -2.91385e-21)
(0.990526 -0.000390609 1.40977e-21)
(0.991389 -0.000413677 1.20858e-21)
(0.992571 -0.000439193 -1.21144e-21)
(0.994126 -0.000598523 7.65585e-24)
(0.995943 -0.000862921 0)
(0.997901 -0.00126157 0)
(1.00053 -0.00178333 -1.99038e-22)
(1.00474 -0.000793812 1.06988e-22)
(1.00571 0.00127496 9.32562e-23)
(0.99991 0.00457033 0)
(0.980837 0.00658634 0)
(0.9668 0.00497617 -4.85963e-25)
(0.961405 0.00243294 0)
(0.961746 0.000235849 0)
(0.969181 -0.00329881 8.22109e-25)
(0.985825 -0.00731593 -1.79872e-24)
(1.00238 -0.010444 4.91996e-22)
(1.01907 -0.0135836 -4.87775e-22)
(1.03314 -0.0151589 -5.21298e-22)
(1.04416 -0.0172199 5.24816e-22)
(1.05418 -0.0187891 1.10609e-21)
(1.06281 -0.0197184 -1.08677e-21)
(1.06777 -0.0197717 0)
(1.06874 -0.0196172 0)
(1.06798 -0.0195069 -1.16937e-21)
(1.06594 -0.0196462 2.30693e-21)
(1.06307 -0.0197585 -1.14653e-21)
(1.05977 -0.0198831 0)
(1.05594 -0.019772 -1.68104e-23)
(1.05132 -0.0188911 -1.97512e-21)
(1.04534 -0.0184462 1.9593e-21)
(1.0376 -0.0144313 1.4395e-23)
(1.02936 -0.0187949 3.38876e-21)
(0.99244 0.000267702 -3.4813e-21)
(0.992484 0.00023567 1.32429e-23)
(0.992655 0.000212316 1.1743e-22)
(0.993008 0.000173663 3.41992e-21)
(0.993282 0.000153623 1.58838e-21)
(0.993692 3.14481e-06 -1.59356e-21)
(0.994373 -0.000188565 2.30238e-23)
(0.995221 -0.000363054 1.10227e-23)
(0.99673 -0.000516782 -1.20343e-21)
(0.998945 -0.000764669 1.22421e-21)
(1.00115 -0.000784892 -7.99415e-24)
(1.00252 -0.000659272 1.28753e-23)
(1.00481 -0.000646023 2.68916e-22)
(1.00793 -0.000809226 -4.61083e-22)
(1.01094 -0.000862688 1.839e-22)
(1.01426 0.00091573 -2.86669e-23)
(1.01872 0.00375551 3.02753e-23)
(1.02357 0.00414447 -1.09654e-22)
(1.0256 0.00166242 1.08826e-22)
(1.02472 -0.00103087 0)
(1.02463 -0.00335343 0)
(1.02687 -0.0050513 2.23532e-22)
(1.03135 -0.00397716 -2.20551e-22)
(1.03847 -0.000967535 -3.8652e-24)
(1.04551 0.00337588 0)
(1.05229 0.00647117 -5.56008e-22)
(1.05837 0.0103328 -1.87116e-23)
(1.06388 0.0125663 -6.0012e-22)
(1.06764 0.0153726 1.14089e-21)
(1.06963 0.0179101 1.81567e-23)
(1.07024 0.0201611 -1.23177e-21)
(1.0691 0.0210291 1.23828e-21)
(1.06729 0.0222985 -1.26028e-21)
(1.06263 0.0222938 2.44725e-21)
(1.05895 0.0232346 -1.17105e-21)
(1.05122 0.0228096 1.75204e-23)
(1.04683 0.0228137 1.67277e-23)
(1.0377 0.0219145 0)
(1.0338 0.0200612 -1.48464e-23)
(1.02132 0.017525 1.79205e-21)
(0.992492 0.000314484 0)
(0.992513 0.000167651 3.51733e-21)
(0.992773 -3.63645e-05 -3.5122e-21)
(0.993109 -0.000151702 0)
(0.993388 -0.000347945 0)
(0.993931 -0.000598597 -4.89708e-23)
(0.994734 -0.000603763 -6.99857e-23)
(0.995734 -0.000889264 0)
(0.997259 -0.00144651 -1.25715e-21)
(0.999321 -0.00183975 1.20244e-21)
(1.00121 -0.00166641 0)
(1.00254 -0.00203438 -1.31863e-23)
(1.00456 -0.00290519 1.03065e-23)
(1.00862 -0.00349538 0)
(1.01404 -0.00256832 -7.26124e-23)
(1.01948 -0.000662955 7.0674e-23)
(1.02266 0.00252424 -2.82437e-24)
(1.02306 0.00453926 1.40028e-24)
(1.02205 0.00488166 7.50271e-23)
(1.01787 0.00292292 -7.77071e-23)
(1.01595 0.000127679 -1.05171e-22)
(1.01752 -0.00514487 1.1034e-22)
(1.02383 -0.0102916 -3.75808e-24)
(1.03135 -0.0144852 5.05501e-22)
(1.0407 -0.0173516 -4.96799e-22)
(1.05034 -0.0191453 -5.09387e-22)
(1.059 -0.0209563 5.34111e-22)
(1.06649 -0.0214586 -1.11705e-21)
(1.07249 -0.0218565 1.11507e-21)
(1.07783 -0.0207718 -1.85917e-23)
(1.08174 -0.0197814 0)
(1.08345 -0.0189024 -1.20947e-21)
(1.0835 -0.0178691 2.43028e-21)
(1.08199 -0.0171881 -1.20955e-21)
(1.0794 -0.0157162 -1.21107e-21)
(1.07297 -0.015128 3.42627e-21)
(1.0687 -0.0129126 -9.91466e-23)
(1.05996 -0.0121229 -2.1463e-21)
(1.0558 -0.00892674 3.17224e-23)
(1.04598 -0.00879091 -2.99632e-25)
(0.992488 0.00033641 -7.198e-21)
(0.99252 0.000143818 3.59737e-21)
(0.992869 -0.00017165 3.46258e-21)
(0.993178 -0.000366724 -3.48888e-21)
(0.993526 -0.000595499 0)
(0.994032 -0.000809334 1.59887e-21)
(0.994786 -0.00101407 -1.50625e-21)
(0.99604 -0.00179359 1.38502e-21)
(0.997406 -0.00237566 -1.34012e-22)
(0.999087 -0.00263937 -1.21358e-21)
(1.00147 -0.00238569 -8.64369e-22)
(1.00396 -0.00244486 1.63727e-21)
(1.0058 -0.00352414 -4.546e-22)
(1.00832 -0.00493757 -4.24144e-22)
(1.01339 -0.00478897 1.61516e-22)
(1.01879 -0.00190836 -4.89778e-23)
(1.02299 0.0021836 5.04443e-23)
(1.0256 0.00414161 3.19073e-24)
(1.02888 0.0034384 2.23135e-24)
(1.03297 0.000657867 0)
(1.0387 -0.00392715 0)
(1.04395 -0.00847192 -3.5843e-24)
(1.04988 -0.0100568 0)
(1.05498 -0.00876047 0)
(1.06043 -0.00517589 8.50036e-24)
(1.06517 -0.00236424 -1.73913e-23)
(1.06849 0.00257873 5.76102e-22)
(1.07151 0.00502081 5.87777e-22)
(1.07422 0.00926249 -1.25169e-21)
(1.07521 0.0118424 1.2854e-21)
(1.07679 0.0163403 -1.2826e-21)
(1.07476 0.0187367 -3.97145e-23)
(1.07272 0.022766 -1.29039e-21)
(1.06761 0.0231938 1.32662e-21)
(1.06366 0.025673 1.2333e-21)
(1.0567 0.0253444 1.18563e-21)
(1.05267 0.0258257 -1.09301e-22)
(1.04508 0.0240537 -2.32693e-21)
(1.04079 0.0232934 -3.24484e-23)
(1.03058 0.0189742 -3.02117e-23)
(0.992448 0.00023018 0)
(0.992517 3.52658e-05 3.68337e-21)
(0.992882 -0.000362321 -7.24919e-21)
(0.993254 -0.000668069 3.53865e-21)
(0.993557 -0.000875221 0)
(0.994131 -0.00130989 0)
(0.995024 -0.0017671 0)
(0.996195 -0.00233747 4.27242e-23)
(0.997695 -0.00281555 -1.16753e-21)
(0.999597 -0.0033424 1.21146e-21)
(1.00155 -0.00324933 -3.10422e-23)
(1.00429 -0.00375046 6.82484e-22)
(1.00717 -0.00460501 -9.63749e-22)
(1.00984 -0.00617913 2.54777e-22)
(1.01204 -0.0058158 0)
(1.01581 -0.00362772 -6.25581e-23)
(1.02424 0.000872119 6.2736e-23)
(1.03177 0.0020103 -3.27284e-24)
(1.0376 0.00199864 0)
(1.03996 -0.000659135 0)
(1.04133 -0.00312525 1.14412e-22)
(1.04082 -0.00794217 -1.14324e-22)
(1.04215 -0.0122686 0)
(1.04409 -0.016047 5.37086e-22)
(1.04918 -0.0184785 -5.5387e-22)
(1.05468 -0.0198861 -5.60943e-22)
(1.06135 -0.021163 5.41996e-22)
(1.06754 -0.0217049 -1.12213e-21)
(1.07287 -0.0216873 1.19502e-21)
(1.07653 -0.0207702 3.88446e-23)
(1.08029 -0.0189878 0)
(1.08227 -0.0178558 4.07064e-23)
(1.08368 -0.015604 1.23912e-21)
(1.08283 -0.0147401 -1.27043e-21)
(1.08159 -0.0117297 4.02646e-23)
(1.07648 -0.01044 0)
(1.07227 -0.00650712 0)
(1.06417 -0.00659932 -2.27836e-21)
(1.05936 -0.00154248 2.19672e-21)
(1.05075 -0.00269182 -6.58799e-23)
(0.992364 0.000231883 -3.65574e-21)
(0.992438 -8.48656e-05 -1.15998e-22)
(0.992935 -0.000642802 1.13968e-22)
(0.993264 -0.000975207 1.09702e-22)
(0.993583 -0.00130905 0)
(0.994238 -0.00179623 0)
(0.995153 -0.0021023 0)
(0.996349 -0.00316053 1.25922e-21)
(0.997665 -0.00378739 -2.64132e-21)
(0.999748 -0.00429789 1.1425e-21)
(1.00253 -0.00423776 0)
(1.00471 -0.00532616 6.66612e-22)
(1.00653 -0.00624603 -6.92176e-22)
(1.00913 -0.00732038 -1.37756e-22)
(1.01352 -0.00681081 1.37976e-22)
(1.01813 -0.00595411 -1.04601e-24)
(1.02431 -0.00328763 4.41898e-24)
(1.02939 -0.000894813 0)
(1.03442 0.000216164 -5.16446e-24)
(1.03904 -0.00115031 0)
(1.04527 -0.00496914 1.8168e-24)
(1.05077 -0.00946074 7.91799e-24)
(1.05665 -0.0128191 0)
(1.0615 -0.0135266 -5.90995e-22)
(1.06629 -0.0118006 5.90895e-22)
(1.07143 -0.0101494 -5.70419e-22)
(1.07545 -0.00555672 6.43584e-22)
(1.07827 -0.00317434 1.23182e-21)
(1.08094 0.00203784 -1.2287e-21)
(1.08197 0.00485969 -1.45257e-25)
(1.08446 0.0103318 -8.18086e-23)
(1.08267 0.0139872 8.39516e-23)
(1.08111 0.0201031 -1.42972e-21)
(1.07512 0.022413 2.85655e-21)
(1.07077 0.0257223 -1.42662e-21)
(1.06342 0.0264601 0)
(1.05952 0.0276865 -8.17794e-23)
(1.05213 0.0267641 7.84292e-23)
(1.04795 0.026641 7.20751e-23)
(1.03797 0.0232314 -2.07316e-21)
(0.992334 4.5502e-05 -1.86743e-22)
(0.992463 -0.000355917 -7.42329e-21)
(0.993006 -0.00097864 2.4064e-22)
(0.993287 -0.00135851 3.53495e-21)
(0.993589 -0.00176027 0)
(0.994308 -0.00224448 1.02501e-22)
(0.995479 -0.00280436 9.60835e-23)
(0.996546 -0.00380667 0)
(0.997906 -0.00450509 1.29171e-21)
(0.999986 -0.00572401 -1.07178e-21)
(1.00318 -0.00553157 0)
(1.00531 -0.00590421 4.84671e-23)
(1.00693 -0.00654592 -2.32575e-22)
(1.00932 -0.00944767 2.33017e-22)
(1.01376 -0.00939911 0)
(1.01883 -0.00770859 -9.76646e-23)
(1.02413 -0.0032187 9.93962e-23)
(1.02957 -0.00197935 0)
(1.03614 -0.00190842 1.07195e-22)
(1.04203 -0.00467044 -9.63759e-23)
(1.04782 -0.0072147 -3.78114e-24)
(1.05111 -0.0110432 -1.64499e-23)
(1.05417 -0.0142749 1.75722e-23)
(1.05531 -0.0171145 5.98649e-22)
(1.05882 -0.0192209 -5.98474e-22)
(1.06125 -0.020615 -3.77989e-23)
(1.06597 -0.020938 -6.03078e-22)
(1.0701 -0.0214221 6.79656e-22)
(1.07517 -0.0209594 1.19906e-21)
(1.07803 -0.0202537 -1.19593e-21)
(1.08131 -0.018033 8.39735e-23)
(1.08247 -0.0163914 -1.0951e-25)
(1.08475 -0.0131401 0)
(1.08426 -0.0114911 8.93813e-23)
(1.08415 -0.0079022 1.35686e-21)
(1.08059 -0.00614428 1.32854e-21)
(1.07653 -0.000534069 3.58584e-23)
(1.06925 -0.00130393 -2.69767e-21)
(1.0641 0.00472843 2.43486e-21)
(1.05532 0.00326963 -2.48184e-21)
(0.992143 -7.22736e-05 3.88808e-21)
(0.992361 -0.000637208 2.21816e-24)
(0.992922 -0.00137509 -7.40107e-21)
(0.993219 -0.00181906 3.5947e-21)
(0.993617 -0.00228888 0)
(0.994309 -0.00300566 -1.05254e-22)
(0.995696 -0.00330172 -1.50166e-21)
(0.996422 -0.00478526 2.95803e-21)
(0.998206 -0.00580293 -2.49908e-21)
(1.00043 -0.00689046 1.14301e-21)
(1.00302 -0.00628987 0)
(1.00532 -0.0072002 6.31988e-22)
(1.00803 -0.00864943 -6.41092e-22)
(1.01041 -0.0108293 -9.9174e-23)
(1.01385 -0.0103062 1.0914e-22)
(1.01839 -0.00923623 0)
(1.02468 -0.00696748 6.2903e-25)
(1.03075 -0.00558106 0)
(1.0364 -0.00509783 -1.16805e-23)
(1.04049 -0.00620537 3.60508e-24)
(1.045 -0.0090895 1.96929e-24)
(1.04963 -0.0125047 8.54529e-24)
(1.05596 -0.015614 -1.807e-23)
(1.06189 -0.0171345 6.31874e-22)
(1.06811 -0.0164962 -6.50593e-22)
(1.07328 -0.0162766 -6.35668e-22)
(1.07847 -0.0126591 6.34593e-22)
(1.08259 -0.0110978 1.27451e-21)
(1.08602 -0.0057725 -2.66022e-21)
(1.08735 -0.00262179 2.65983e-21)
(1.09064 0.00322976 -1.39372e-21)
(1.09024 0.00743082 -8.83731e-23)
(1.09046 0.0146975 0)
(1.08521 0.0192526 -9.19415e-23)
(1.08093 0.024494 0)
(1.07244 0.0263905 0)
(1.06805 0.0288515 0)
(1.06022 0.0292194 -2.72865e-21)
(1.05587 0.0300749 2.87661e-21)
(1.04571 0.0279437 1.51682e-22)
(0.992173 -0.000366792 -3.81671e-21)
(0.992457 -0.0010483 -1.80067e-24)
(0.992935 -0.00182125 -3.99721e-21)
(0.993273 -0.00241462 3.8896e-21)
(0.9937 -0.00293328 -2.21675e-22)
(0.994363 -0.00361148 -1.74554e-21)
(0.995834 -0.00403359 1.44785e-21)
(0.996867 -0.00567608 -9.15732e-23)
(0.998377 -0.00671662 -1.29645e-21)
(1.00055 -0.00813715 2.25919e-21)
(1.00349 -0.00765273 -1.10235e-21)
(1.00646 -0.00885938 0)
(1.00854 -0.00938679 -4.89113e-23)
(1.01101 -0.0123049 -1.00346e-23)
(1.01372 -0.012526 1.29734e-24)
(1.01909 -0.0120107 -1.39823e-22)
(1.0247 -0.00842816 1.40306e-22)
(1.03027 -0.00716899 0)
(1.03567 -0.00621534 1.26723e-23)
(1.04097 -0.00831734 1.70548e-25)
(1.04644 -0.0109135 0)
(1.05083 -0.0148135 -9.34741e-24)
(1.05572 -0.0177657 -1.95253e-23)
(1.05935 -0.0200365 -1.95764e-23)
(1.06504 -0.0211274 3.99193e-23)
(1.06817 -0.0222709 0)
(1.07241 -0.0218997 0)
(1.07525 -0.0220431 -1.28975e-21)
(1.07969 -0.0207849 1.20511e-21)
(1.08221 -0.0200015 8.35655e-23)
(1.08547 -0.0177179 0)
(1.08556 -0.0155744 1.50118e-21)
(1.08716 -0.0114889 -2.85514e-21)
(1.08658 -0.00893374 2.9239e-21)
(1.08748 -0.00425349 -1.47396e-21)
(1.08475 -0.00249718 1.94877e-22)
(1.08173 0.00427617 2.74346e-21)
(1.07518 0.00412209 -2.93227e-21)
(1.07037 0.01041 -2.93186e-21)
(1.06122 0.00923262 5.342e-21)
(0.991951 -0.00060341 -4.07748e-21)
(0.992411 -0.00150809 7.52363e-21)
(0.992783 -0.00238691 -1.46807e-22)
(0.993093 -0.00300174 -4.07975e-21)
(0.993605 -0.00366163 2.27947e-22)
(0.994323 -0.00454164 1.08498e-22)
(0.995733 -0.00486362 1.01368e-22)
(0.997022 -0.00658215 1.38504e-21)
(0.998477 -0.00816262 -1.72223e-22)
(1.0006 -0.0097034 -1.22157e-21)
(1.00377 -0.00915455 -7.75777e-22)
(1.00648 -0.00991382 2.65648e-22)
(1.00907 -0.0113528 8.43669e-22)
(1.01137 -0.0139751 -2.64206e-22)
(1.01455 -0.013964 7.00665e-23)
(1.0189 -0.013149 -1.46644e-23)
(1.02424 -0.0111713 0)
(1.0301 -0.00978889 1.96029e-22)
(1.03625 -0.00963648 -3.23374e-22)
(1.04148 -0.0107552 1.1658e-22)
(1.04557 -0.0132051 0)
(1.04873 -0.0164229 3.29243e-22)
(1.05299 -0.0195758 -2.99183e-22)
(1.05797 -0.0222531 6.67885e-22)
(1.06524 -0.0217345 -6.24807e-22)
(1.07122 -0.0219156 -6.28727e-22)
(1.07781 -0.0188383 1.38271e-21)
(1.08294 -0.0180873 6.84873e-22)
(1.08845 -0.0134591 -1.26762e-21)
(1.09127 -0.0103781 -1.7146e-22)
(1.09553 -0.00413709 0)
(1.09591 0.000102685 -1.8484e-22)
(1.09844 0.0078011 0)
(1.09521 0.0134289 -1.66868e-21)
(1.0929 0.0209627 1.86628e-21)
(1.08448 0.0249695 3.32957e-21)
(1.07956 0.0289183 -3.11204e-21)
(1.0707 0.0307067 0)
(1.06606 0.0330931 2.95002e-21)
(1.05482 0.0327255 -3.07786e-21)
(0.991865 -0.00112804 -4.54392e-21)
(0.992291 -0.00212017 2.57868e-22)
(0.992897 -0.00286106 -3.90559e-21)
(0.993152 -0.00377286 4.40481e-21)
(0.99362 -0.00454053 0)
(0.994406 -0.00538137 0)
(0.995948 -0.00581367 0)
(0.997353 -0.00795276 0)
(0.998839 -0.00926278 -1.22176e-21)
(1.00087 -0.0110171 1.22587e-21)
(1.0036 -0.0104103 0)
(1.00733 -0.0119495 -4.58343e-23)
(1.00996 -0.012564 -2.02652e-22)
(1.01226 -0.015293 1.7491e-22)
(1.0145 -0.0154011 0)
(1.01898 -0.0158279 -2.01067e-22)
(1.02429 -0.0134297 2.27721e-22)
(1.03057 -0.0126783 0)
(1.03622 -0.0115626 7.83962e-24)
(1.04131 -0.0127592 0)
(1.04547 -0.0143208 0)
(1.04942 -0.0178899 -1.07558e-23)
(1.0538 -0.0209059 -2.21697e-23)
(1.05679 -0.024113 -4.47126e-23)
(1.06276 -0.0251137 -8.79957e-23)
(1.06754 -0.0261036 -7.79054e-22)
(1.07444 -0.0249839 6.47348e-22)
(1.07859 -0.0248419 -1.44678e-21)
(1.08418 -0.0227694 1.35856e-21)
(1.08712 -0.0216449 8.80248e-23)
(1.09179 -0.0184688 0)
(1.09226 -0.0161433 9.49596e-23)
(1.09352 -0.011343 0)
(1.09221 -0.00822368 0)
(1.0925 -0.0016871 -2.09384e-22)
(1.08966 0.00109336 -3.53055e-21)
(1.08789 0.00834983 6.39257e-21)
(1.08209 0.00931157 -6.33203e-21)
(1.07787 0.0161166 6.45892e-23)
(1.06839 0.0156653 3.31025e-21)
(0.99149 -0.00157828 1.22788e-22)
(0.991872 -0.00272593 8.41647e-21)
(0.992649 -0.00352662 -8.14445e-21)
(0.99287 -0.00471564 -7.91649e-23)
(0.993314 -0.00524663 5.69195e-21)
(0.994146 -0.00644408 -1.84135e-21)
(0.995774 -0.00695425 0)
(0.997134 -0.00911299 -1.41414e-21)
(0.99887 -0.0105112 1.91704e-22)
(1.00052 -0.0125232 1.232e-21)
(1.0038 -0.0125827 -5.65339e-23)
(1.00727 -0.0135768 4.17113e-23)
(1.01033 -0.0143902 5.4833e-23)
(1.0123 -0.0166063 0)
(1.01523 -0.0173315 0)
(1.01917 -0.0174125 0)
(1.02428 -0.0163507 2.23141e-24)
(1.03014 -0.0151111 0)
(1.03629 -0.0143351 -2.54265e-23)
(1.04188 -0.0149388 5.02079e-24)
(1.04645 -0.0164966 -5.51045e-24)
(1.04924 -0.0196498 1.10921e-23)
(1.05209 -0.0223826 2.28704e-23)
(1.05417 -0.026318 7.91264e-22)
(1.05927 -0.0272769 -6.98774e-22)
(1.06451 -0.0287963 -6.7556e-22)
(1.07262 -0.0261746 6.29993e-22)
(1.07928 -0.0255203 4.32694e-25)
(1.08718 -0.0212877 1.32149e-21)
(1.09231 -0.0190755 -1.31619e-21)
(1.09882 -0.0123275 0)
(1.1009 -0.00799068 0)
(1.10508 0.000503601 -1.50637e-21)
(1.10406 0.00581687 -8.53803e-23)
(1.10407 0.0150965 3.61693e-21)
(1.09801 0.0208599 1.87271e-21)
(1.09374 0.0278743 4.29007e-22)
(1.08375 0.0310305 -3.86454e-21)
(1.07898 0.034905 -3.41796e-21)
(1.06642 0.0369827 3.3503e-21)
(0.991459 -0.00220773 0)
(0.99189 -0.00351374 2.69353e-22)
(0.992647 -0.00433988 -2.60152e-22)
(0.99287 -0.00555964 0)
(0.99348 -0.00635779 0)
(0.994161 -0.00772041 0)
(0.995844 -0.00820378 -2.10521e-22)
(0.997479 -0.0105406 -1.89522e-22)
(0.999144 -0.0117723 1.23397e-21)
(1.00126 -0.0143405 -1.30811e-21)
(1.00401 -0.0140237 5.83242e-23)
(1.00765 -0.0155014 4.8859e-22)
(1.01068 -0.0158197 -6.90185e-22)
(1.01329 -0.0184198 1.30781e-22)
(1.01613 -0.0187898 6.40761e-24)
(1.02043 -0.0198357 -2.79135e-22)
(1.02471 -0.0184682 2.73581e-22)
(1.03029 -0.0182727 0)
(1.03601 -0.0170305 1.79025e-23)
(1.04164 -0.0178734 -5.18324e-24)
(1.04595 -0.0179148 5.68895e-24)
(1.04853 -0.0206539 0)
(1.0521 -0.0227712 0)
(1.05376 -0.0267773 0)
(1.05765 -0.0287205 0)
(1.06113 -0.0313057 -7.51575e-22)
(1.06847 -0.0309699 1.57084e-21)
(1.07472 -0.0310644 -2.06308e-21)
(1.08304 -0.0281888 1.51083e-21)
(1.08874 -0.0269923 1.35257e-21)
(1.09596 -0.0223 -1.34556e-21)
(1.09953 -0.0197285 1.57589e-21)
(1.10302 -0.013282 -1.77836e-21)
(1.10222 -0.00960713 -2.16247e-22)
(1.10227 -0.00172686 0)
(1.09835 0.00210642 3.72933e-21)
(1.09695 0.0111157 -1.72866e-22)
(1.09101 0.0131825 -4.00215e-21)
(1.08751 0.0211771 -3.43646e-21)
(1.07742 0.0221189 7.18779e-21)
(0.990983 -0.00288438 -4.94909e-21)
(0.991457 -0.00427837 4.06975e-21)
(0.992205 -0.00512224 -4.10306e-21)
(0.992413 -0.00663175 -4.03164e-21)
(0.993155 -0.00734632 4.05196e-21)
(0.993743 -0.00880332 2.32563e-22)
(0.995688 -0.0094476 2.17282e-22)
(0.996747 -0.012031 3.02462e-24)
(0.999168 -0.0135283 -1.23972e-21)
(1.00099 -0.01576 1.31645e-21)
(1.0037 -0.0160898 0)
(1.00726 -0.0174061 0)
(1.01087 -0.0180694 0)
(1.01367 -0.0199369 4.67627e-23)
(1.01689 -0.0209559 -5.47561e-23)
(1.02061 -0.0217492 -3.47444e-23)
(1.02514 -0.0211967 0)
(1.03004 -0.02095 0)
(1.03572 -0.0197206 0)
(1.04054 -0.0198325 0)
(1.04577 -0.0196031 -6.66041e-24)
(1.04862 -0.0220294 0)
(1.05173 -0.0238804 0)
(1.05299 -0.0279895 9.08968e-22)
(1.0556 -0.0301984 2.54244e-23)
(1.05841 -0.034054 -8.22773e-22)
(1.06367 -0.0338565 0)
(1.07043 -0.0350812 -1.36533e-21)
(1.07973 -0.0310629 2.08054e-23)
(1.0876 -0.0301865 1.42842e-21)
(1.09737 -0.0229918 -9.29608e-23)
(1.10321 -0.0189673 0)
(1.11017 -0.00872967 -1.74453e-21)
(1.11237 -0.00315201 3.03189e-22)
(1.11491 0.00776993 1.87041e-21)
(1.11086 0.0144385 -2.51312e-22)
(1.10942 0.0241091 2.59256e-22)
(1.09977 0.0300204 -3.89334e-21)
(1.0952 0.0357638 3.86626e-21)
(1.08161 0.0399808 0)
(0.990887 -0.0037285 -4.80647e-21)
(0.99127 -0.00534032 4.19006e-21)
(0.99225 -0.00621996 -1.8556e-22)
(0.992388 -0.00794301 -8.48013e-21)
(0.993075 -0.00876357 4.16365e-21)
(0.994105 -0.0104412 -2.40266e-22)
(0.995764 -0.0111095 0)
(0.997376 -0.0137106 3.12253e-24)
(0.999156 -0.0150339 -1.07752e-21)
(1.00139 -0.0177692 1.32037e-21)
(1.00435 -0.0179592 0)
(1.00812 -0.0197999 0)
(1.01166 -0.0198819 8.5812e-23)
(1.01495 -0.0222133 -7.22329e-23)
(1.01792 -0.0227452 0)
(1.02225 -0.0243836 -3.91114e-22)
(1.02657 -0.0231074 4.11155e-22)
(1.03104 -0.0236933 0)
(1.03553 -0.0217909 0)
(1.03998 -0.0229615 6.85477e-24)
(1.04513 -0.0218791 6.89081e-24)
(1.04823 -0.0238143 0)
(1.05159 -0.0245447 0)
(1.05302 -0.0281867 -5.73667e-23)
(1.05556 -0.0302818 -5.54612e-23)
(1.05726 -0.0344808 0)
(1.0615 -0.0359796 -7.87359e-22)
(1.06644 -0.0391875 7.8447e-22)
(1.07484 -0.0369249 0)
(1.08305 -0.0372184 0)
(1.09321 -0.0315596 0)
(1.10086 -0.0290959 0)
(1.10947 -0.0204025 0)
(1.11271 -0.0155131 -2.10119e-21)
(1.1162 -0.00500989 1.86154e-21)
(1.11259 9.2536e-06 2.59266e-22)
(1.11156 0.0111213 -4.86568e-21)
(1.10431 0.0152147 4.58803e-21)
(1.10131 0.0256123 0)
(1.08915 0.0285213 2.80564e-22)
(0.990039 -0.00444687 3.05801e-22)
(0.990396 -0.00626995 4.91154e-21)
(0.99159 -0.00718055 -4.64395e-21)
(0.991627 -0.00905085 -3.99236e-21)
(0.992426 -0.00985778 6.30894e-21)
(0.993184 -0.0118461 -1.78731e-21)
(0.995398 -0.0124853 -1.47921e-21)
(0.996905 -0.0152375 3.40661e-21)
(0.99868 -0.0168894 -4.2139e-22)
(1.00119 -0.0196738 -1.32832e-21)
(1.00386 -0.020212 0)
(1.00764 -0.0218904 0)
(1.0113 -0.0222937 -1.67553e-23)
(1.01474 -0.0242456 1.45017e-22)
(1.01868 -0.0249584 -1.41468e-22)
(1.02237 -0.0265639 -4.84122e-22)
(1.02696 -0.0256345 4.84911e-22)
(1.03061 -0.0259287 0)
(1.03571 -0.0243522 0)
(1.03922 -0.0250258 -7.10039e-24)
(1.04371 -0.0238734 -8.24735e-24)
(1.04679 -0.0252581 0)
(1.05031 -0.0253573 0)
(1.05292 -0.0290212 1.00399e-21)
(1.05521 -0.0307585 -1.00161e-21)
(1.05716 -0.0358161 -8.84884e-22)
(1.06004 -0.037335 8.82569e-22)
(1.06423 -0.0425358 -1.97764e-22)
(1.07013 -0.0412992 1.45262e-21)
(1.07795 -0.0435897 -1.44553e-21)
(1.08924 -0.0374608 0)
(1.09891 -0.0352193 0)
(1.11017 -0.0240333 -1.72641e-21)
(1.1162 -0.0171991 -4.15661e-22)
(1.12433 -0.00368388 4.2462e-21)
(1.12315 0.00543121 -2.35702e-21)
(1.12554 0.0172317 5.31835e-21)
(1.11762 0.0261335 -9.86953e-21)
(1.11482 0.0351102 -5.49583e-23)
(1.10128 0.0425291 4.53439e-21)
(0.9903 -0.00574658 0)
(0.990403 -0.00783709 4.47002e-21)
(0.991474 -0.00880499 -9.69437e-21)
(0.991915 -0.0107175 4.34069e-21)
(0.992388 -0.0117208 -2.68681e-22)
(0.9933 -0.0138633 -2.18312e-21)
(0.995254 -0.0146113 1.47754e-21)
(0.997508 -0.0175127 0)
(0.999462 -0.0188906 -1.08213e-21)
(1.00187 -0.022125 1.12243e-21)
(1.00425 -0.0224414 0)
(1.00844 -0.0247455 3.2517e-22)
(1.01186 -0.024707 -3.26556e-22)
(1.01664 -0.0271878 0)
(1.02004 -0.0270776 3.49059e-22)
(1.02414 -0.0295388 -3.90963e-22)
(1.02808 -0.0275987 -4.3802e-23)
(1.03214 -0.0286264 0)
(1.03669 -0.0261053 3.12087e-23)
(1.03973 -0.0270444 0)
(1.04351 -0.0256648 -6.98109e-25)
(1.04572 -0.0273742 -3.80732e-23)
(1.04918 -0.0271595 -7.52952e-23)
(1.05151 -0.0301299 0)
(1.05456 -0.031369 0)
(1.05678 -0.0361964 -9.50283e-22)
(1.05997 -0.0377972 1.81303e-21)
(1.06319 -0.0434915 8.18965e-22)
(1.0683 -0.0440371 -3.13404e-21)
(1.07485 -0.0484103 1.45713e-21)
(1.08432 -0.0449847 0)
(1.09323 -0.0445836 0)
(1.10659 -0.0355875 0)
(1.11396 -0.0300414 2.28213e-22)
(1.12488 -0.0171344 -4.9798e-22)
(1.12578 -0.0081307 2.79406e-22)
(1.12992 0.00513938 4.34023e-21)
(1.1227 0.0137092 -5.23397e-21)
(1.12158 0.0252516 3.34612e-22)
(1.1066 0.0339191 5.36181e-21)
(0.989251 -0.00657674 -5.70713e-21)
(0.989353 -0.00888175 3.15806e-22)
(0.990443 -0.00988765 4.76208e-21)
(0.990605 -0.0119815 -9.05082e-21)
(0.991619 -0.0129185 6.99601e-21)
(0.992256 -0.0153913 -2.15716e-21)
(0.993807 -0.0165111 4.74839e-22)
(0.996796 -0.0194213 1.53436e-21)
(0.998773 -0.0207583 -2.97728e-21)
(1.00153 -0.0239168 2.35095e-21)
(1.00373 -0.0246042 -9.51295e-22)
(1.00767 -0.0271185 -2.45176e-22)
(1.01143 -0.0273511 2.46415e-22)
(1.016 -0.029835 0)
(1.01981 -0.0293051 4.26473e-23)
(1.02416 -0.0315341 -6.7501e-22)
(1.02815 -0.0300108 7.21642e-22)
(1.03181 -0.0308561 -5.06209e-22)
(1.03623 -0.028284 4.38661e-22)
(1.03964 -0.028847 -9.84854e-24)
(1.04303 -0.0270199 3.3338e-22)
(1.04479 -0.028762 -9.3536e-22)
(1.04751 -0.0284418 6.43141e-22)
(1.04905 -0.0310715 1.2144e-21)
(1.05227 -0.0321089 -1.21555e-21)
(1.05478 -0.0369267 -1.02827e-21)
(1.05833 -0.0387784 9.02125e-22)
(1.062 -0.0451422 1.09096e-22)
(1.0668 -0.0466596 9.69594e-23)
(1.07258 -0.0525957 1.36921e-21)
(1.08073 -0.0512822 -1.52293e-21)
(1.089 -0.0527725 0)
(1.10202 -0.0459949 1.74239e-22)
(1.1107 -0.0394217 -1.84624e-21)
(1.12571 -0.0260281 3.97756e-21)
(1.12969 -0.0130433 -2.1128e-21)
(1.1385 0.00298764 5.58808e-21)
(1.13439 0.0161706 3.69474e-22)
(1.13609 0.0299329 -1.17435e-20)
(1.12234 0.0416614 5.38238e-21)
(0.989196 -0.0083784 6.85502e-22)
(0.989699 -0.0108611 5.14619e-21)
(0.990405 -0.0120022 -4.54814e-21)
(0.990915 -0.0141692 -6.07458e-22)
(0.992003 -0.0152131 0)
(0.992751 -0.0178595 0)
(0.994003 -0.0192383 -2.45293e-22)
(0.996596 -0.0224093 0)
(0.99906 -0.0235338 1.25193e-21)
(1.00263 -0.026806 -2.03883e-21)
(1.00499 -0.0275865 9.16943e-22)
(1.00904 -0.0303993 1.87062e-23)
(1.01227 -0.0304212 7.7679e-24)
(1.01702 -0.0335409 -3.60929e-23)
(1.02107 -0.0320028 0)
(1.02603 -0.0347314 0)
(1.03004 -0.0323108 5.99319e-23)
(1.03387 -0.0335157 -7.18737e-23)
(1.03721 -0.0306629 3.70373e-23)
(1.04014 -0.0309238 1.02418e-23)
(1.04401 -0.0285243 0)
(1.04519 -0.0293643 0)
(1.04758 -0.0294836 1.81846e-22)
(1.0478 -0.0316755 1.25097e-21)
(1.05004 -0.0333057 -1.43708e-21)
(1.05162 -0.0383081 0)
(1.05553 -0.040002 1.29122e-22)
(1.05878 -0.0461986 -1.13463e-22)
(1.06485 -0.0483657 -1.48217e-21)
(1.07015 -0.0550764 1.39213e-21)
(1.0798 -0.055899 1.65487e-22)
(1.08715 -0.0582725 0)
(1.1003 -0.0549227 -1.81149e-22)
(1.10801 -0.0512693 -1.79797e-22)
(1.12319 -0.0412609 2.44607e-22)
(1.12884 -0.0296098 4.80999e-21)
(1.14158 -0.0133624 6.69552e-22)
(1.13975 0.00111341 -5.05946e-21)
(1.14508 0.0175598 -3.90109e-22)
(1.13034 0.0335902 3.88774e-22)
(0.987654 -0.00946232 -6.23209e-21)
(0.988075 -0.0121676 5.37062e-21)
(0.98901 -0.0133018 -1.08936e-20)
(0.989703 -0.0156847 1.07335e-20)
(0.990467 -0.0168955 -4.93907e-21)
(0.991886 -0.0195007 -2.1136e-21)
(0.992865 -0.0211889 2.12517e-21)
(0.995332 -0.0245069 1.58046e-21)
(0.997577 -0.0257618 -2.65959e-21)
(1.00143 -0.0293048 2.11296e-21)
(1.00464 -0.0296629 -8.75259e-22)
(1.00864 -0.0329898 -1.94833e-23)
(1.01216 -0.0326971 1.94749e-22)
(1.01673 -0.0360537 2.78096e-22)
(1.02053 -0.0347675 -5.43667e-22)
(1.02556 -0.0371582 -9.97813e-22)
(1.02964 -0.0344247 8.81459e-22)
(1.0337 -0.0353514 -8.61106e-24)
(1.037 -0.0320813 -4.72326e-23)
(1.03953 -0.0324321 0)
(1.04287 -0.0301103 1.35616e-23)
(1.04402 -0.0302086 0)
(1.04645 -0.0302861 -9.80842e-23)
(1.04642 -0.0315541 -8.52057e-24)
(1.04802 -0.0333312 -1.20514e-21)
(1.04834 -0.0383263 1.39016e-21)
(1.05147 -0.0409571 -1.07906e-21)
(1.0533 -0.0476227 -8.70236e-22)
(1.06015 -0.0507482 1.9167e-21)
(1.065 -0.0577679 8.75928e-23)
(1.07591 -0.0612758 0)
(1.08342 -0.0654201 1.12943e-21)
(1.09844 -0.0648289 -1.12352e-21)
(1.10679 -0.0622099 1.87076e-22)
(1.12322 -0.0546296 0)
(1.12928 -0.0440334 0)
(1.14576 -0.0270529 0)
(1.14543 -0.00929766 0)
(1.1571 0.00979194 7.69898e-21)
(1.14452 0.0328557 -1.36853e-20)
(0.987316 -0.0118498 5.87326e-21)
(0.988128 -0.0147517 -6.37741e-22)
(0.988958 -0.0160482 -1.10541e-20)
(0.989824 -0.0185865 -2.6425e-23)
(0.990567 -0.0199327 5.15611e-21)
(0.992149 -0.0227223 0)
(0.993516 -0.0243519 0)
(0.99612 -0.0279319 0)
(0.998246 -0.0294313 1.04541e-21)
(1.0019 -0.0333129 -1.36792e-21)
(1.0055 -0.0335123 3.33603e-23)
(1.00977 -0.0372056 1.27353e-22)
(1.01422 -0.0362957 -1.09285e-22)
(1.01859 -0.0400661 6.37625e-23)
(1.02262 -0.0381996 -1.52336e-23)
(1.02736 -0.0405031 -8.53061e-24)
(1.03136 -0.037534 0)
(1.03543 -0.0381331 1.84466e-22)
(1.03947 -0.0345189 4.93033e-23)
(1.04174 -0.0340609 1.48907e-23)
(1.0446 -0.0317566 -5.0975e-22)
(1.04521 -0.0310759 5.41951e-22)
(1.0465 -0.0310749 -1.23298e-22)
(1.04612 -0.0317031 1.0537e-22)
(1.04686 -0.0332435 -2.05736e-22)
(1.04571 -0.0371264 -1.19158e-21)
(1.04837 -0.0406799 1.38956e-21)
(1.04838 -0.0484836 1.95571e-21)
(1.05475 -0.0538888 -6.11412e-22)
(1.05809 -0.0612065 -1.56068e-21)
(1.06916 -0.0660178 0)
(1.07682 -0.0712867 -9.97516e-23)
(1.09382 -0.0728925 0)
(1.10386 -0.0719732 -1.13957e-21)
(1.12443 -0.0671917 2.89268e-21)
(1.1316 -0.0584855 -5.97267e-21)
(1.15037 -0.0463986 1.00149e-20)
(1.15102 -0.0279931 -5.75951e-21)
(1.16459 -0.0111682 6.85294e-21)
(1.15517 0.0198176 -7.14481e-21)
(0.985066 -0.0133604 -3.99712e-22)
(0.986333 -0.0164216 6.66598e-21)
(0.986811 -0.0178745 -5.9535e-21)
(0.988039 -0.0204144 3.48044e-22)
(0.98871 -0.0219137 0)
(0.990272 -0.024957 -3.00019e-22)
(0.992168 -0.0264262 0)
(0.994606 -0.030514 1.83441e-21)
(0.997645 -0.0316066 -5.95257e-22)
(1.00067 -0.0361204 -1.08948e-21)
(1.00457 -0.03613 -3.48141e-23)
(1.00873 -0.0402003 8.14181e-24)
(1.01315 -0.0391724 0)
(1.01819 -0.0427351 6.7352e-22)
(1.02263 -0.0406547 -6.39705e-22)
(1.02757 -0.0426957 -1.25587e-21)
(1.03146 -0.0395417 1.42599e-21)
(1.03522 -0.0399702 -1.01761e-22)
(1.03932 -0.0365043 4.39429e-22)
(1.04161 -0.0353061 -5.19517e-22)
(1.04429 -0.0323316 1.63605e-23)
(1.04484 -0.0308968 -1.39939e-22)
(1.04536 -0.0307875 1.2901e-22)
(1.04451 -0.0311845 -1.35137e-22)
(1.04429 -0.0325881 1.13051e-22)
(1.04242 -0.0360445 -2.00475e-21)
(1.04462 -0.0397483 1.77371e-21)
(1.04314 -0.0462862 2.14524e-21)
(1.04851 -0.0535975 -2.15732e-21)
(1.05028 -0.0628433 -8.92257e-23)
(1.06056 -0.0706666 0)
(1.06715 -0.0780039 7.64332e-22)
(1.08405 -0.0833923 -6.03875e-22)
(1.09519 -0.0849793 -8.77884e-22)
(1.11924 -0.0842942 7.30398e-22)
(1.12981 -0.0756225 0)
(1.15539 -0.0659723 4.70234e-21)
(1.15917 -0.0468707 -4.58846e-21)
(1.1772 -0.0293445 0)
(1.16774 0.00595405 -4.92136e-22)
(0.984705 -0.0163057 3.47562e-23)
(0.986158 -0.0197122 -6.97183e-21)
(0.986636 -0.0213664 5.96214e-21)
(0.987929 -0.0241862 -1.2007e-20)
(0.988906 -0.0257492 8.62636e-21)
(0.990411 -0.0292195 -2.31565e-21)
(0.992644 -0.0306892 0)
(0.994984 -0.0351228 -2.33242e-22)
(0.99873 -0.0360366 -9.71866e-22)
(1.00195 -0.0409237 1.03834e-21)
(1.0066 -0.0407133 1.64481e-23)
(1.01061 -0.0451756 5.58669e-22)
(1.01515 -0.0439091 -1.07869e-21)
(1.02006 -0.047392 5.95769e-22)
(1.02481 -0.045085 0)
(1.02998 -0.046755 0)
(1.03473 -0.0430292 -1.02298e-22)
(1.03826 -0.0426035 9.35482e-22)
(1.04238 -0.0392033 -1.51733e-21)
(1.04442 -0.0373027 5.88856e-22)
(1.04671 -0.0340531 -6.65743e-22)
(1.04721 -0.0311878 6.35167e-22)
(1.04678 -0.030383 1.67743e-22)
(1.04555 -0.0303537 2.47681e-21)
(1.04415 -0.0314453 -2.33594e-21)
(1.04091 -0.0343295 -1.87108e-21)
(1.04188 -0.0383922 9.38952e-23)
(1.03883 -0.0447572 -7.42457e-22)
(1.04256 -0.0521251 2.70962e-21)
(1.04185 -0.0615449 1.9055e-22)
(1.05054 -0.0726691 -1.16599e-22)
(1.05561 -0.0824056 5.26059e-23)
(1.07219 -0.0931373 -5.49673e-23)
(1.08339 -0.0967972 -3.55483e-22)
(1.10826 -0.101309 1.0132e-21)
(1.12205 -0.0953412 -6.23264e-22)
(1.153 -0.0894447 0)
(1.16387 -0.0713869 0)
(1.18997 -0.0547603 0)
(1.1843 -0.0140672 -9.05893e-21)
(0.981674 -0.0182883 0)
(0.983233 -0.0220357 6.61875e-21)
(0.984142 -0.0237192 -7.08368e-21)
(0.984983 -0.0268398 5.93514e-21)
(0.986819 -0.0282328 -6.6927e-21)
(0.98795 -0.0320352 -3.25688e-22)
(0.990836 -0.0333991 2.81556e-22)