/*--------------------------------*- C++ -*----------------------------------*\
  =========                 |
  \\      /  F ield         | OpenFOAM: The Open Source CFD Toolbox
   \\    /   O peration     | Website:  https://openfoam.org
    \\  /    A nd           | Version:  10
     \\/     M anipulation  |
\*---------------------------------------------------------------------------*/
FoamFile
{
    format      ascii;
    class       volScalarField;
    location    "0.598575";
    object      p;
}
// * * * * * * * * * * * * * * * * * * * * * * * * * * * * * * * * * * * * * //

dimensions      [1 -1 -2 0 0 0 0];

internalField   nonuniform List<scalar> 
15708
(
2.53689
2.53767
2.53851
2.53949
2.54064
2.542
2.54357
2.54537
2.54741
2.5497
2.55223
2.555
2.558
2.56122
2.56464
2.56827
2.57208
2.57607
2.58022
2.58451
2.58895
2.59352
2.59821
2.60302
2.60793
2.61295
2.61807
2.62329
2.62858
2.63396
2.6394
2.64491
2.65047
2.65607
2.6617
2.66734
2.67298
2.67858
2.68413
2.68959
2.69492
2.70009
2.70505
2.70975
2.71414
2.71818
2.7218
2.72497
2.72762
2.72971
2.7312
2.53859
2.53901
2.5395
2.54014
2.54095
2.54197
2.54323
2.54472
2.54645
2.54844
2.55069
2.55319
2.55593
2.55891
2.56211
2.56552
2.56914
2.57294
2.57692
2.58107
2.58537
2.58982
2.5944
2.59911
2.60394
2.6089
2.61396
2.61912
2.62437
2.62971
2.63512
2.64061
2.64615
2.65175
2.65738
2.66302
2.66867
2.67429
2.67986
2.68535
2.69073
2.69594
2.70095
2.70572
2.7102
2.71433
2.71806
2.72135
2.72414
2.72639
2.72805
2.53961
2.53975
2.53996
2.54032
2.54087
2.54162
2.5426
2.54382
2.5453
2.54704
2.54905
2.55131
2.55383
2.55659
2.5596
2.56282
2.56627
2.56991
2.57374
2.57775
2.58193
2.58626
2.59074
2.59537
2.60013
2.60501
2.61001
2.61512
2.62032
2.62561
2.63099
2.63645
2.64197
2.64754
2.65316
2.6588
2.66444
2.67006
2.67564
2.68115
2.68654
2.69178
2.69683
2.70165
2.70619
2.71039
2.71421
2.7176
2.72051
2.72289
2.72471
2.53994
2.53987
2.53988
2.54002
2.54036
2.54089
2.54167
2.54267
2.54395
2.54548
2.54729
2.54936
2.55169
2.55427
2.55711
2.56017
2.56346
2.56696
2.57067
2.57455
2.57862
2.58285
2.58725
2.59179
2.59648
2.60129
2.60623
2.61127
2.61642
2.62167
2.627
2.63242
2.63791
2.64345
2.64905
2.65466
2.66029
2.6659
2.67148
2.67698
2.68237
2.68763
2.6927
2.69755
2.70212
2.70638
2.71026
2.71374
2.71675
2.71925
2.7212
2.53958
2.53937
2.53923
2.53924
2.53941
2.53979
2.54041
2.54126
2.54237
2.54375
2.5454
2.54731
2.5495
2.55194
2.55463
2.55756
2.56073
2.56411
2.5677
2.57148
2.57545
2.5796
2.58391
2.58838
2.59299
2.59774
2.6026
2.60759
2.61268
2.61787
2.62316
2.62854
2.63398
2.63949
2.64505
2.65063
2.65623
2.66182
2.66737
2.67286
2.67824
2.68349
2.68857
2.69343
2.69802
2.70231
2.70625
2.70979
2.71288
2.71549
2.71756
2.53851
2.53823
2.53801
2.53793
2.53802
2.53831
2.53881
2.53956
2.54056
2.54183
2.54337
2.54518
2.54725
2.54958
2.55216
2.55499
2.55805
2.56134
2.56483
2.56853
2.57243
2.5765
2.58074
2.58513
2.58967
2.59434
2.59914
2.60406
2.6091
2.61423
2.61947
2.62479
2.63019
2.63565
2.64116
2.64671
2.65227
2.65782
2.66334
2.6688
2.67416
2.67939
2.68446
2.68931
2.69392
2.69823
2.7022
2.70578
2.70894
2.71163
2.71382
2.53674
2.53645
2.53621
2.53611
2.53617
2.53641
2.53687
2.53757
2.53851
2.53972
2.54119
2.54293
2.54492
2.54718
2.54969
2.55245
2.55543
2.55865
2.56208
2.56572
2.56954
2.57354
2.57771
2.58203
2.5865
2.5911
2.59584
2.60069
2.60567
2.61074
2.61592
2.62118
2.62653
2.63194
2.6374
2.6429
2.64841
2.65392
2.6594
2.66482
2.67014
2.67535
2.68039
2.68522
2.68982
2.69413
2.69812
2.70174
2.70495
2.70771
2.70999
2.53428
2.53404
2.53384
2.53377
2.53385
2.53411
2.53458
2.53527
2.53621
2.5374
2.53885
2.54056
2.54252
2.54474
2.54721
2.54993
2.55288
2.55605
2.55944
2.56302
2.56679
2.57073
2.57483
2.57908
2.58348
2.58802
2.59269
2.59748
2.60238
2.6074
2.61251
2.61771
2.62299
2.62835
2.63375
2.63919
2.64466
2.65011
2.65554
2.66092
2.6662
2.67136
2.67637
2.68118
2.68576
2.69007
2.69406
2.6977
2.70094
2.70376
2.70611
2.53113
2.531
2.53091
2.53091
2.53107
2.53139
2.53192
2.53266
2.53364
2.53486
2.53633
2.53805
2.54003
2.54226
2.54473
2.54745
2.55039
2.55354
2.55689
2.56043
2.56415
2.56804
2.57208
2.57628
2.58062
2.58509
2.58969
2.59441
2.59925
2.60419
2.60924
2.61437
2.61959
2.62488
2.63022
2.63561
2.64101
2.64641
2.65179
2.65711
2.66234
2.66746
2.67243
2.6772
2.68175
2.68604
2.69003
2.69367
2.69694
2.6998
2.70221
2.52734
2.52735
2.52741
2.52754
2.52783
2.52827
2.52889
2.52973
2.5308
2.53209
2.53364
2.53543
2.53746
2.53974
2.54226
2.54499
2.54794
2.55108
2.55442
2.55794
2.56163
2.56547
2.56947
2.57362
2.5779
2.58231
2.58684
2.59149
2.59626
2.60113
2.6061
2.61116
2.61631
2.62153
2.62681
2.63213
2.63747
2.64282
2.64813
2.6534
2.65858
2.66365
2.66857
2.67331
2.67782
2.68209
2.68605
2.6897
2.69298
2.69586
2.69832
2.52292
2.52312
2.52337
2.52368
2.52414
2.52473
2.52551
2.52649
2.52769
2.52912
2.53078
2.53268
2.53482
2.53717
2.53975
2.54253
2.54551
2.54868
2.55203
2.55554
2.55922
2.56304
2.567
2.5711
2.57532
2.57967
2.58413
2.58871
2.5934
2.59819
2.60309
2.60808
2.61315
2.6183
2.62351
2.62876
2.63404
2.63932
2.64458
2.64979
2.65492
2.65994
2.66482
2.66951
2.67399
2.67822
2.68217
2.6858
2.68908
2.69198
2.69448
2.51791
2.51835
2.51882
2.51935
2.52002
2.52081
2.52179
2.52297
2.52434
2.52594
2.52776
2.5298
2.53206
2.53453
2.5372
2.54006
2.54311
2.54633
2.54972
2.55325
2.55692
2.56073
2.56466
2.56871
2.57288
2.57717
2.58156
2.58606
2.59067
2.59538
2.6002
2.60511
2.6101
2.61518
2.62031
2.6255
2.63071
2.63594
2.64114
2.64629
2.65137
2.65634
2.66117
2.66582
2.67027
2.67447
2.67839
2.68201
2.68529
2.6882
2.69071
2.51238
2.51309
2.51382
2.51459
2.5155
2.51655
2.51776
2.51915
2.52073
2.52253
2.52454
2.52676
2.52918
2.5318
2.53461
2.53759
2.54074
2.54404
2.54748
2.55105
2.55474
2.55854
2.56246
2.56647
2.57059
2.57481
2.57913
2.58355
2.58807
2.5927
2.59742
2.60225
2.60716
2.61215
2.61722
2.62233
2.62748
2.63265
2.63779
2.6429
2.64793
2.65286
2.65765
2.66227
2.66668
2.67085
2.67475
2.67835
2.68162
2.68453
2.68707
2.50642
2.50742
2.50841
2.50946
2.51065
2.51193
2.51338
2.51502
2.51685
2.51888
2.52112
2.52355
2.52619
2.529
2.53198
2.53512
2.5384
2.54181
2.54533
2.54896
2.55268
2.5565
2.56039
2.56438
2.56844
2.57259
2.57683
2.58117
2.5856
2.59013
2.59476
2.59949
2.60431
2.60922
2.6142
2.61925
2.62433
2.62944
2.63454
2.6396
2.6446
2.64949
2.65425
2.65884
2.66323
2.66738
2.67127
2.67486
2.67812
2.68103
2.68357
2.5001
2.5014
2.50266
2.50397
2.50541
2.50697
2.50869
2.5106
2.51269
2.51499
2.5175
2.5202
2.52307
2.52612
2.52932
2.53265
2.5361
2.53965
2.54328
2.54699
2.55076
2.55459
2.55848
2.56243
2.56645
2.57053
2.57468
2.57892
2.58325
2.58767
2.59219
2.59681
2.60153
2.60635
2.61125
2.61623
2.62125
2.62631
2.63137
2.6364
2.64136
2.64624
2.65098
2.65556
2.65994
2.66409
2.66797
2.67155
2.67481
2.67772
2.68027
2.4935
2.49506
2.49658
2.49817
2.49986
2.50169
2.50369
2.5059
2.50826
2.51087
2.51368
2.51668
2.51985
2.52317
2.52663
2.53019
2.53385
2.53757
2.54134
2.54514
2.54898
2.55285
2.55674
2.56066
2.56462
2.56862
2.57268
2.5768
2.58101
2.58531
2.58971
2.59421
2.59882
2.60354
2.60835
2.61325
2.61822
2.62323
2.62826
2.63327
2.63823
2.6431
2.64785
2.65244
2.65683
2.66098
2.66487
2.66846
2.67173
2.67465
2.67719
2.48669
2.48848
2.49025
2.49207
2.49402
2.49611
2.49837
2.50088
2.50359
2.50652
2.50967
2.51301
2.51651
2.52016
2.52392
2.52776
2.53166
2.53559
2.53953
2.54346
2.54738
2.55129
2.55518
2.55907
2.56296
2.56688
2.57082
2.57482
2.57889
2.58305
2.5873
2.59167
2.59615
2.60076
2.60547
2.6103
2.61521
2.62018
2.62519
2.6302
2.63517
2.64006
2.64484
2.64947
2.6539
2.65809
2.66201
2.66562
2.66891
2.67184
2.67439
2.47977
2.48175
2.48371
2.48574
2.4879
2.49024
2.4928
2.49559
2.49865
2.50194
2.50546
2.50918
2.51307
2.51709
2.5212
2.52537
2.52956
2.53373
2.53787
2.54195
2.54597
2.54994
2.55384
2.55769
2.56151
2.56532
2.56913
2.57298
2.57688
2.58087
2.58495
2.58916
2.59349
2.59797
2.60258
2.60732
2.61218
2.61713
2.62213
2.62716
2.63217
2.63713
2.64197
2.64667
2.65116
2.65542
2.6594
2.66307
2.66639
2.66934
2.67191
2.47289
2.47498
2.47707
2.47924
2.48156
2.48412
2.48694
2.49004
2.49344
2.49712
2.50105
2.5052
2.50952
2.51397
2.5185
2.52304
2.52757
2.53203
2.5364
2.54066
2.5448
2.54883
2.55274
2.55655
2.56028
2.56396
2.56761
2.57128
2.57498
2.57876
2.58264
2.58665
2.59081
2.59513
2.59963
2.60428
2.60911
2.61404
2.61907
2.62415
2.62923
2.63428
2.63923
2.64403
2.64864
2.65301
2.65708
2.66083
2.66421
2.6672
2.66978
2.46619
2.46829
2.4704
2.47261
2.47505
2.47777
2.48082
2.48422
2.48797
2.49205
2.49644
2.50106
2.50588
2.51083
2.51582
2.52081
2.52572
2.53052
2.53516
2.53963
2.54391
2.548
2.55192
2.55568
2.5593
2.56282
2.56628
2.56972
2.57318
2.5767
2.58034
2.58412
2.58807
2.59221
2.59659
2.60112
2.60592
2.61086
2.61592
2.62111
2.62631
2.6315
2.63661
2.64158
2.64635
2.65087
2.65508
2.65893
2.6624
2.66545
2.66806
2.45979
2.46177
2.46377
2.46593
2.46838
2.4712
2.47444
2.47811
2.48222
2.48673
2.4916
2.49677
2.50215
2.50766
2.5132
2.51869
2.52405
2.52924
2.5342
2.5389
2.54334
2.54751
2.55143
2.55512
2.5586
2.56193
2.56515
2.56831
2.57147
2.57469
2.57801
2.58151
2.58521
2.58916
2.59335
2.59784
2.60259
2.60759
2.61267
2.618
2.62338
2.62877
2.63412
2.63931
2.6443
2.64902
2.65341
2.65742
2.661
2.66413
2.66678
2.45376
2.45545
2.4572
2.45919
2.46155
2.46439
2.46777
2.47169
2.47616
2.48114
2.48656
2.49233
2.49835
2.50449
2.51065
2.51672
2.52262
2.52825
2.53357
2.53854
2.54316
2.54742
2.55133
2.55492
2.55823
2.56132
2.56424
2.56705
2.56984
2.57268
2.57563
2.57878
2.58217
2.58589
2.5899
2.5943
2.59903
2.60406
2.60932
2.61481
2.62042
2.62608
2.63171
2.63721
2.6425
2.64749
2.65212
2.65633
2.66006
2.66328
2.66597
2.44807
2.44931
2.45065
2.45233
2.4545
2.45729
2.46077
2.46489
2.46974
2.47523
2.48124
2.48769
2.49444
2.50132
2.5082
2.51496
2.52146
2.52761
2.53334
2.53862
2.54342
2.54777
2.55166
2.55513
2.55823
2.56101
2.56356
2.56596
2.56829
2.57065
2.57315
2.57588
2.57888
2.58231
2.58615
2.59042
2.59515
2.60027
2.60573
2.61146
2.61739
2.62339
2.6294
2.63529
2.64096
2.6463
2.65123
2.65568
2.6596
2.66294
2.66568
2.4427
2.4433
2.44407
2.44528
2.44715
2.44981
2.45336
2.45774
2.463
2.46899
2.4757
2.48288
2.49046
2.49817
2.50586
2.5134
2.52062
2.52738
2.53358
2.5392
2.54423
2.54866
2.55252
2.55583
2.55865
2.56106
2.56315
2.56502
2.56679
2.56857
2.57051
2.57271
2.57529
2.57837
2.58197
2.58615
2.59088
2.59611
2.60182
2.60788
2.61421
2.62064
2.62715
2.63352
2.63967
2.64544
2.65074
2.6555
2.65964
2.66311
2.66588
2.43725
2.43706
2.43714
2.43777
2.43923
2.44168
2.4453
2.44996
2.45566
2.46228
2.46985
2.47785
2.48653
2.49522
2.50381
2.51223
2.52024
2.52765
2.53437
2.54038
2.54566
2.55018
2.55397
2.55706
2.55954
2.56149
2.56302
2.56425
2.56533
2.56641
2.56764
2.56921
2.57126
2.57392
2.57727
2.58132
2.5861
2.59151
2.59753
2.60399
2.61084
2.61781
2.62492
2.63194
2.63864
2.6449
2.65062
2.65572
2.6601
2.6637
2.6665
2.43146
2.43047
2.42969
2.42987
2.43096
2.43318
2.43683
2.44171
2.4478
2.45485
2.46328
2.47221
2.48207
2.492
2.50175
2.51144
2.52046
2.52856
2.53583
2.54226
2.54778
2.55238
2.55606
2.55889
2.56094
2.56231
2.56316
2.56364
2.56388
2.5641
2.56449
2.56529
2.5667
2.56888
2.57186
2.57587
2.58078
2.58632
2.59287
2.59981
2.60717
2.61487
2.62265
2.63042
2.63783
2.64464
2.65081
2.65628
2.66089
2.66458
2.66732
2.42457
2.42224
2.42057
2.42003
2.4211
2.42433
2.42824
2.43401
2.44063
2.44885
2.45791
2.4672
2.47866
2.48961
2.50009
2.51103
2.52124
2.53018
2.53809
2.54493
2.55068
2.5553
2.55883
2.5613
2.56282
2.56353
2.56356
2.56314
2.56239
2.56155
2.56091
2.56092
2.56147
2.56333
2.56549
2.56952
2.57466
2.58047
2.58721
2.59472
2.60273
2.61121
2.6198
2.62853
2.63679
2.64426
2.65102
2.65691
2.66173
2.66544
2.66803
2.41686
2.41275
2.40889
2.40642
2.40594
2.40766
2.41324
2.42047
2.42868
2.43803
2.44876
2.46014
2.47257
2.48723
2.50063
2.51279
2.52349
2.53293
2.54134
2.54852
2.55439
2.55897
2.56224
2.56426
2.56514
2.56504
2.56417
2.56265
2.56077
2.55868
2.5566
2.55624
2.55534
2.55681
2.55828
2.56179
2.56773
2.57429
2.58206
2.59052
2.59949
2.60824
2.61858
2.62778
2.63603
2.64387
2.6512
2.65746
2.66253
2.66613
2.66839
2.40458
2.39792
2.39231
2.38892
2.38848
2.39101
2.39755
2.40644
2.4166
2.42785
2.4403
2.45347
2.46855
2.48421
2.50023
2.51306
2.52634
2.53756
2.54626
2.55335
2.55912
2.56345
2.56628
2.56768
2.56778
2.56677
2.56476
2.56213
2.55901
2.55556
2.55012
2.55217
2.54985
2.54945
2.55064
2.55352
2.55765
2.56455
2.57302
2.58256
2.59263
2.603
2.61448
2.62536
2.63571
2.64498
2.65255
2.65867
2.6633
2.66656
2.66821
2.39509
2.38674
2.37961
2.37493
2.37441
2.37707
2.38378
2.39358
2.40562
2.41906
2.43374
2.44951
2.46618
2.4839
2.50132
2.51739
2.5309
2.54322
2.55219
2.55918
2.56469
2.56859
2.5708
2.57141
2.57059
2.56855
2.56531
2.5614
2.5567
2.55255
2.54734
2.5445
2.53894
2.53639
2.53707
2.54084
2.54604
2.55436
2.56417
2.57498
2.58663
2.59864
2.61133
2.62399
2.63599
2.64503
2.65337
2.65958
2.66376
2.66641
2.66723
2.38147
2.37341
2.36665
2.36277
2.36272
2.36697
2.37544
2.38659
2.3994
2.41341
2.42906
2.44653
2.46566
2.48556
2.50535
2.52388
2.53786
2.55006
2.55899
2.56581
2.5709
2.57416
2.57556
2.57521
2.57332
2.57019
2.56514
2.5618
2.55427
2.54569
2.53792
2.53168
2.52758
2.52445
2.52566
2.52953
2.5365
2.54593
2.5573
2.56942
2.58215
2.59503
2.60888
2.62287
2.63604
2.64553
2.65446
2.65957
2.6634
2.66547
2.6651
2.3749
2.36597
2.35798
2.35367
2.35396
2.35912
2.36861
2.38134
2.3959
2.41142
2.4285
2.44784
2.46915
2.49095
2.51258
2.53143
2.54621
2.55758
2.56623
2.57273
2.57728
2.57981
2.58012
2.57857
2.57545
2.57318
2.56588
2.5572
2.54832
2.5397
2.53058
2.52131
2.51495
2.51009
2.51045
2.51485
2.52291
2.53405
2.54734
2.56071
2.57564
2.59099
2.60647
2.62196
2.63526
2.64413
2.65243
2.65806
2.66122
2.6636
2.66192
2.37015
2.36068
2.35417
2.3495
2.34961
2.3558
2.36613
2.38012
2.39604
2.41309
2.43228
2.45411
2.47743
2.50071
2.52267
2.54025
2.55454
2.56548
2.57357
2.57952
2.58332
2.58501
2.58473
2.58295
2.57851
2.57223
2.56453
2.55541
2.54416
2.53136
2.51972
2.51003
2.50345
2.50094
2.50194
2.50757
2.51627
2.52833
2.54328
2.55466
2.57067
2.58688
2.60355
2.6196
2.63154
2.642
2.64931
2.65465
2.65926
2.65692
2.65157
2.37092
2.36197
2.35576
2.35233
2.35314
2.35932
2.36992
2.38548
2.40285
2.42166
2.44263
2.46606
2.48998
2.51264
2.53228
2.54956
2.56267
2.57284
2.58054
2.58579
2.5894
2.59109
2.59083
2.58684
2.58158
2.57459
2.56435
2.55202
2.53943
2.52604
2.51374
2.50268
2.4953
2.4906
2.49129
2.49785
2.50767
2.51972
2.53387
2.55017
2.56597
2.58482
2.60224
2.61475
2.62763
2.63784
2.64615
2.65071
2.6508
2.64681
2.6407
2.37584
2.36846
2.36471
2.36274
2.36537
2.37245
2.3833
2.39849
2.41699
2.43721
2.45857
2.48013
2.50146
2.52289
2.54156
2.55677
2.56936
2.57927
2.5879
2.59404
2.59734
2.59804
2.59681
2.59254
2.58509
2.57662
2.56555
2.55201
2.53803
2.52465
2.51064
2.49678
2.48768
2.48435
2.48524
2.49076
2.50078
2.51618
2.53001
2.54622
2.56337
2.57631
2.59005
2.60835
2.6212
2.63575
2.64086
2.64272
2.6397
2.63563
2.62906
2.38316
2.38029
2.37913
2.37924
2.38281
2.39097
2.40258
2.41636
2.43325
2.45245
2.47261
2.49353
2.51347
2.53165
2.54822
2.56299
2.57768
2.58866
2.59657
2.6027
2.60608
2.60635
2.60348
2.5977
2.58991
2.57923
2.56767
2.55446
2.53925
2.52328
2.50923
2.49661
2.48753
2.48399
2.4858
2.49331
2.50332
2.51233
2.52829
2.54512
2.55635
2.57368
2.58573
2.6025
2.61535
2.62623
2.62918
2.62929
2.62739
2.62336
2.61679
2.39241
2.39064
2.39034
2.39282
2.39787
2.40633
2.4179
2.43208
2.44849
2.46629
2.48459
2.50338
2.52152
2.54003
2.55847
2.57339
2.58722
2.59913
2.60784
2.6131
2.61528
2.61431
2.61042
2.60427
2.59515
2.58448
2.57217
2.55856
2.54391
2.52831
2.51396
2.50258
2.49427
2.49057
2.49163
2.49693
2.50418
2.51755
2.52561
2.53965
2.55487
2.57052
2.58169
2.60068
2.60458
2.61042
2.61561
2.61492
2.61335
2.61044
2.60527
2.40212
2.40238
2.40362
2.40709
2.41296
2.42131
2.43221
2.44553
2.46092
2.47729
2.49487
2.51454
2.53456
2.55214
2.57027
2.58648
2.60084
2.61162
2.61914
2.62309
2.62391
2.62179
2.61735
2.61009
2.60133
2.5911
2.57943
2.56666
2.55283
2.53928
2.52378
2.51147
2.5069
2.50246
2.50344
2.50697
2.50929
2.5168
2.52947
2.54071
2.55404
2.56689
2.57561
2.5932
2.59217
2.59862
2.60064
2.60031
2.5986
2.5948
2.58957
2.41012
2.41205
2.41474
2.41934
2.42573
2.43385
2.44428
2.45683
2.47169
2.48977
2.50757
2.52608
2.55221
2.56871
2.58635
2.60162
2.61425
2.62384
2.62982
2.63234
2.63253
2.63021
2.62487
2.61783
2.60953
2.59967
2.58857
2.57645
2.56331
2.54915
2.53521
2.52403
2.51483
2.51124
2.51009
2.51351
2.51956
2.52317
2.53016
2.53596
2.56409
2.55537
2.56358
2.5795
2.58114
2.58557
2.5867
2.58604
2.58381
2.57991
2.57457
2.4159
2.41908
2.42327
2.42911
2.43691
2.44737
2.45974
2.47417
2.49037
2.50795
2.52701
2.54671
2.56708
2.58515
2.6015
2.61571
2.62717
2.63541
2.64026
2.64225
2.64278
2.63981
2.63382
2.62743
2.61934
2.60982
2.59909
2.58737
2.57491
2.56195
2.54919
2.53866
2.53029
2.52504
2.52252
2.52242
2.52202
2.52582
2.54649
2.54761
2.5466
2.55704
2.55924
2.56813
2.57104
2.5733
2.57376
2.57268
2.57008
2.56602
2.56062
2.42685
2.43191
2.43791
2.44538
2.45456
2.46567
2.47797
2.49307
2.5111
2.52688
2.54505
2.56388
2.58239
2.59981
2.61555
2.62898
2.6397
2.64733
2.6516
2.65343
2.65468
2.64985
2.64527
2.63878
2.63046
2.62123
2.61065
2.59891
2.58642
2.57364
2.561
2.54954
2.54036
2.53348
2.5302
2.53314
2.539
2.53208
2.53212
2.54281
2.54312
2.55148
2.5536
2.55883
2.56109
2.56214
2.562
2.56049
2.55764
2.55344
2.54799
2.43708
2.44347
2.45093
2.45964
2.46992
2.48123
2.49474
2.50984
2.5262
2.54322
2.56107
2.57932
2.59727
2.61425
2.62963
2.64283
2.65336
2.66071
2.66457
2.6658
2.66496
2.66301
2.66034
2.65083
2.64273
2.63341
2.62245
2.61051
2.59766
2.58435
2.57123
2.55968
2.55237
2.54821
2.54458
2.53477
2.53592
2.53342
2.53174
2.53995
2.5411
2.54593
2.54756
2.55014
2.5516
2.55203
2.55139
2.54957
2.54653
2.54227
2.53679
2.44578
2.4534
2.462
2.47182
2.48292
2.49523
2.50928
2.52465
2.54098
2.55824
2.57618
2.59438
2.61228
2.62926
2.64472
2.6581
2.66888
2.67639
2.68022
2.68111
2.67997
2.6765
2.67393
2.6665
2.6566
2.64671
2.635
2.62311
2.61054
2.59806
2.5863
2.5753
2.56377
2.55432
2.54738
2.54186
2.53779
2.53577
2.53466
2.53641
2.53813
2.53976
2.54105
2.54213
2.54278
2.54275
2.54179
2.53982
2.53673
2.53248
2.52707
2.45284
2.46155
2.47129
2.48216
2.49421
2.5075
2.52214
2.53801
2.5548
2.57252
2.59081
2.60934
2.62757
2.64498
2.66098
2.67504
2.68655
2.69481
2.69931
2.70058
2.69976
2.69651
2.69198
2.68475
2.67477
2.66435
2.65194
2.63752
2.62335
2.60949
2.59631
2.58398
2.57199
2.56083
2.55334
2.54574
2.54079
2.53593
2.53436
2.53371
2.53339
2.53354
2.53393
2.53427
2.53441
2.53409
2.53302
2.53108
2.52812
2.52405
2.51883
2.45818
2.46798
2.47879
2.49073
2.50376
2.51811
2.53345
2.55029
2.5677
2.58608
2.60507
2.62424
2.64321
2.66143
2.67838
2.69351
2.70618
2.71583
2.72169
2.72408
2.72395
2.72128
2.71608
2.70741
2.69725
2.6853
2.67134
2.65581
2.63977
2.62374
2.60821
2.59366
2.58007
2.56736
2.55823
2.54821
2.54129
2.53555
2.5316
2.52916
2.52738
2.52658
2.52625
2.52621
2.52614
2.52577
2.52486
2.5232
2.52062
2.51696
2.51212
2.46194
2.4728
2.4847
2.4977
2.51182
2.52713
2.54359
2.5612
2.57969
2.59904
2.61895
2.63909
2.65904
2.67839
2.69658
2.71308
2.72725
2.73854
2.74613
2.75008
2.75117
2.74919
2.74373
2.73494
2.72361
2.70973
2.6936
2.67585
2.65731
2.63865
2.62043
2.6032
2.58727
2.57294
2.56048
2.54913
2.54021
2.53273
2.52707
2.52298
2.52013
2.51855
2.51785
2.51768
2.5177
2.51763
2.51717
2.51613
2.51422
2.51122
2.50699
2.46413
2.47606
2.48905
2.50316
2.51842
2.53487
2.55247
2.57117
2.59083
2.61131
2.63235
2.65367
2.67488
2.69555
2.7152
2.73326
2.74912
2.76222
2.77177
2.77752
2.7798
2.77903
2.77371
2.7644
2.75178
2.73588
2.71728
2.69676
2.67525
2.65356
2.63241
2.61234
2.59376
2.57691
2.56188
2.54865
2.53737
2.52794
2.52064
2.51512
2.51132
2.50926
2.5085
2.50847
2.50895
2.50951
2.50986
2.50972
2.50885
2.50685
2.50346
2.46492
2.47788
2.49199
2.50724
2.52369
2.54135
2.56018
2.58012
2.60104
2.62278
2.64512
2.66776
2.69037
2.71253
2.73374
2.75346
2.77105
2.78604
2.7976
2.80523
2.80876
2.80871
2.80377
2.79429
2.78041
2.76256
2.74147
2.71811
2.69353
2.66871
2.64445
2.62135
2.59982
2.58009
2.56228
2.54651
2.53296
2.52136
2.51217
2.50524
2.50061
2.49839
2.49779
2.49832
2.49966
2.5013
2.50287
2.50404
2.50449
2.50387
2.50161
2.46445
2.47839
2.49359
2.51003
2.52769
2.5466
2.56672
2.58797
2.61022
2.63331
2.65703
2.68109
2.70517
2.72887
2.7517
2.7731
2.79247
2.80924
2.82269
2.83199
2.83687
2.83745
2.8331
2.82342
2.80858
2.78909
2.76579
2.73979
2.71227
2.68432
2.65681
2.63044
2.60568
2.5828
2.56201
2.54319
2.52682
2.51304
2.50186
2.49333
2.48808
2.48599
2.48584
2.48746
2.49015
2.49329
2.4964
2.49916
2.50137
2.50233
2.50153
2.46281
2.47774
2.494
2.51158
2.53047
2.55064
2.57206
2.59464
2.61825
2.64271
2.6679
2.69338
2.71896
2.7442
2.76862
2.79167
2.81275
2.83121
2.84639
2.85726
2.8634
2.86468
2.86092
2.85126
2.83581
2.8151
2.79001
2.76172
2.73149
2.70052
2.66984
2.64018
2.612
2.58562
2.56125
2.53915
2.51977
2.50301
2.48948
2.47911
2.47325
2.47125
2.47182
2.4748
2.47926
2.48434
2.48924
2.49362
2.49758
2.50081
2.50206
2.46013
2.47601
2.49331
2.512
2.53208
2.5535
2.57619
2.60008
2.62503
2.65088
2.67742
2.70437
2.73142
2.75816
2.78411
2.80874
2.83142
2.85148
2.8682
2.88052
2.88791
2.8899
2.88677
2.87748
2.86182
2.84033
2.81397
2.7839
2.75142
2.71776
2.68399
2.65094
2.61916
2.58902
2.56086
2.53484
2.51157
2.49162
2.47494
2.46245
2.45583
2.45397
2.45602
2.46144
2.4687
2.47651
2.48362
2.4897
2.49543
2.50154
2.50557
2.73204
2.7322
2.73172
2.73047
2.7284
2.72562
2.72209
2.71782
2.71281
2.70709
2.70069
2.69363
2.68595
2.6777
2.66892
2.65966
2.64997
2.6399
2.6295
2.61882
2.60791
2.59681
2.58558
2.57423
2.56282
2.55137
2.72908
2.72944
2.72916
2.72816
2.72634
2.72379
2.72052
2.71651
2.71176
2.70629
2.70014
2.69332
2.68587
2.67785
2.66928
2.66022
2.65071
2.64082
2.63059
2.62007
2.60932
2.59838
2.58729
2.5761
2.56484
2.55355
2.72591
2.72647
2.72637
2.72561
2.72404
2.72174
2.71872
2.71498
2.71051
2.70532
2.69943
2.69289
2.68572
2.67795
2.66964
2.66083
2.65158
2.64193
2.63193
2.62164
2.61111
2.60039
2.58953
2.57856
2.56753
2.55647
2.72257
2.7233
2.72339
2.72284
2.72153
2.71948
2.71672
2.71325
2.70907
2.70417
2.69859
2.69235
2.68548
2.67802
2.67001
2.6615
2.65254
2.64319
2.63348
2.62349
2.61325
2.60282
2.59225
2.58157
2.57083
2.56006
2.71907
2.71997
2.72024
2.71988
2.71883
2.71702
2.71453
2.71135
2.70746
2.70287
2.69761
2.69169
2.68515
2.67803
2.67036
2.66219
2.65358
2.64457
2.63521
2.62557
2.61568
2.60561
2.59539
2.58507
2.57468
2.56427
2.71545
2.7165
2.71694
2.71677
2.71596
2.7144
2.71218
2.70927
2.70568
2.70142
2.69649
2.69091
2.68473
2.67797
2.67068
2.66289
2.65466
2.64604
2.63708
2.62783
2.61836
2.60869
2.59888
2.58898
2.57901
2.569
2.71173
2.71293
2.71353
2.71352
2.71294
2.71163
2.70966
2.70704
2.70376
2.69982
2.69523
2.69001
2.6842
2.67783
2.67093
2.66355
2.65574
2.64755
2.63903
2.63023
2.6212
2.612
2.60266
2.59323
2.58373
2.5742
2.70795
2.70927
2.71002
2.71018
2.70978
2.70873
2.70702
2.70468
2.70169
2.69808
2.69383
2.68898
2.68356
2.67758
2.6711
2.66415
2.65678
2.64905
2.641
2.63269
2.62416
2.61547
2.60665
2.59774
2.58877
2.57977
2.70414
2.70556
2.70645
2.70677
2.70654
2.70572
2.70426
2.70218
2.69949
2.6962
2.6923
2.68781
2.68277
2.6772
2.67114
2.66464
2.65773
2.65048
2.64293
2.63514
2.62715
2.61901
2.61076
2.60242
2.59404
2.58561
2.70032
2.70183
2.70284
2.70331
2.70323
2.70262
2.70139
2.69958
2.69717
2.69418
2.69061
2.68649
2.68183
2.67666
2.67103
2.66497
2.65854
2.65178
2.64475
2.63751
2.63008
2.62253
2.61489
2.60719
2.59944
2.59165
2.69653
2.69812
2.69923
2.69982
2.69989
2.69946
2.69846
2.69687
2.69473
2.69203
2.68878
2.685
2.6807
2.67593
2.67071
2.6651
2.65914
2.65288
2.64638
2.6397
2.63287
2.62595
2.61896
2.61193
2.60487
2.59778
2.69281
2.69446
2.69565
2.69636
2.69656
2.69627
2.69547
2.69409
2.6922
2.68976
2.6868
2.68333
2.67938
2.67497
2.67015
2.66496
2.65946
2.6537
2.64773
2.64162
2.63541
2.62914
2.62284
2.61653
2.61022
2.6039
2.68919
2.69089
2.69215
2.69294
2.69325
2.69309
2.69246
2.69127
2.68958
2.68737
2.68467
2.68148
2.67783
2.67375
2.66929
2.6645
2.65942
2.65414
2.6487
2.64317
2.63759
2.632
2.62643
2.62089
2.61539
2.6099
2.68572
2.68745
2.68875
2.68961
2.69001
2.68995
2.68945
2.68842
2.68689
2.68488
2.68239
2.67943
2.67604
2.67224
2.66809
2.66364
2.65896
2.65411
2.64918
2.64422
2.63927
2.63439
2.62959
2.62488
2.62025
2.61567
2.68242
2.68418
2.68551
2.68642
2.68688
2.68689
2.68647
2.68556
2.68416
2.68229
2.67996
2.67717
2.67396
2.67037
2.66647
2.6623
2.65794
2.65351
2.64904
2.64463
2.64033
2.63617
2.63218
2.62835
2.62466
2.62108
2.67936
2.68112
2.68247
2.6834
2.68389
2.68396
2.68358
2.68273
2.68141
2.67961
2.67734
2.67464
2.67153
2.66806
2.66432
2.66036
2.6563
2.65218
2.64814
2.64425
2.64058
2.63717
2.63403
2.63115
2.62849
2.626
2.67656
2.67832
2.67967
2.6806
2.6811
2.68117
2.68081
2.67998
2.67864
2.67682
2.67454
2.67184
2.66873
2.66528
2.66157
2.65771
2.65379
2.64993
2.64627
2.64289
2.63986
2.63722
2.63496
2.6331
2.63156
2.63028
2.67407
2.67583
2.67716
2.67807
2.67854
2.67858
2.67818
2.6773
2.67586
2.67397
2.67159
2.66876
2.66555
2.66197
2.65816
2.65426
2.65036
2.64662
2.64326
2.64035
2.63796
2.6361
2.63479
2.63398
2.63366
2.63373
2.67194
2.67368
2.67498
2.67584
2.67626
2.67624
2.67574
2.67472
2.67314
2.67108
2.66848
2.66541
2.66197
2.65809
2.65401
2.64992
2.64587
2.6421
2.63894
2.63644
2.63468
2.63367
2.63334
2.63364
2.63463
2.63623
2.67022
2.67192
2.67317
2.67395
2.67429
2.67415
2.67349
2.6723
2.6705
2.66817
2.66526
2.66181
2.65808
2.65368
2.64917
2.64474
2.64036
2.63648
2.63331
2.631
2.62983
2.62968
2.6303
2.63178
2.63388
2.63744
2.66893
2.67059
2.67176
2.67245
2.67266
2.67237
2.67149
2.67004
2.66796
2.66526
2.66198
2.65799
2.65401
2.64911
2.64353
2.63919
2.63406
2.62993
2.62693
2.62473
2.62416
2.62486
2.62619
2.62972
2.63147
2.63712
2.66812
2.66971
2.67078
2.67133
2.67138
2.67088
2.66975
2.66797
2.66557
2.66245
2.6587
2.65405
2.64962
2.6449
2.63765
2.63176
2.62564
2.62126
2.61818
2.61639
2.61626
2.61767
2.62088
2.6248
2.62972
2.6377
2.6678
2.66931
2.67023
2.67059
2.67042
2.66965
2.66822
2.66609
2.66333
2.65989
2.65539
2.65068
2.64372
2.63783
2.63025
2.62308
2.61593
2.60994
2.60584
2.60403
2.60471
2.60748
2.6123
2.61834
2.6262
2.63569
2.66796
2.66933
2.67004
2.67014
2.66969
2.6686
2.66683
2.66427
2.66102
2.65789
2.65208
2.64512
2.63779
2.62974
2.62048
2.61132
2.60287
2.59571
2.59157
2.59039
2.59225
2.59676
2.60354
2.61213
2.62234
2.63416
2.66847
2.66964
2.67006
2.66979
2.66893
2.66753
2.6654
2.66221
2.65802
2.65532
2.64708
2.63906
2.62984
2.61976
2.60951
2.60029
2.59146
2.58386
2.5793
2.57846
2.58093
2.58632
2.59413
2.60461
2.61748
2.63203
2.6691
2.66996
2.66996
2.66919
2.66773
2.66618
2.66339
2.66047
2.65467
2.64831
2.64021
2.63127
2.62142
2.61174
2.60151
2.5907
2.58111
2.57337
2.56878
2.56851
2.57113
2.57776
2.58743
2.59928
2.61362
2.63002
2.6695
2.66991
2.66939
2.66797
2.66546
2.66362
2.66205
2.65544
2.64835
2.64129
2.63279
2.62409
2.61543
2.60544
2.59558
2.58491
2.57397
2.56435
2.55848
2.5573
2.56135
2.56959
2.58105
2.59423
2.61048
2.62916
2.66936
2.66917
2.66803
2.66585
2.66188
2.66186
2.65506
2.64798
2.64108
2.63395
2.62696
2.61933
2.61105
2.60153
2.59102
2.57909
2.56672
2.55584
2.54979
2.5488
2.55343
2.56349
2.57698
2.59207
2.6096
2.63032
2.66842
2.66738
2.66548
2.66357
2.65826
2.65255
2.64641
2.63944
2.63371
2.62848
2.62273
2.61554
2.60689
2.59693
2.58576
2.57349
2.56174
2.55179
2.54664
2.54592
2.55139
2.56157
2.57553
2.59272
2.61146
2.63205
2.66639
2.66397
2.66344
2.65529
2.64883
2.64231
2.63561
2.63199
2.62835
2.62328
2.61726
2.60986
2.60122
2.59149
2.58088
2.56984
2.55925
2.5503
2.54571
2.54563
2.55156
2.56163
2.57482
2.59191
2.61132
2.63473
2.66482
2.65979
2.65231
2.64523
2.63851
2.63299
2.62926
2.6254
2.62097
2.61609
2.60998
2.6027
2.59441
2.58531
2.57562
2.56585
2.55638
2.54964
2.54647
2.54771
2.55401
2.56447
2.57882
2.59562
2.61402
2.63415
2.65563
2.64852
2.64068
2.63322
2.62822
2.62495
2.62167
2.61797
2.6135
2.60823
2.602
2.59476
2.58673
2.57816
2.56934
2.56085
2.55341
2.54851
2.54691
2.5488
2.55501
2.56466
2.57828
2.59478
2.61368
2.63514
2.64467
2.63653
2.62855
2.62305
2.61884
2.61556
2.61255
2.6088
2.60412
2.59859
2.59231
2.58527
2.57758
2.56972
2.56169
2.55439
2.54833
2.54505
2.54451
2.54777
2.55482
2.56598
2.58072
2.59747
2.61536
2.63305
2.63257
2.62481
2.6181
2.61332
2.60822
2.60558
2.60224
2.59825
2.59334
2.58769
2.5817
2.57518
2.56789
2.56068
2.55268
2.54599
2.5407
2.53829
2.53827
2.54187
2.54962
2.56089
2.57519
2.59224
2.61083
2.62962
2.62169
2.61392
2.60592
2.60299
2.59891
2.59455
2.59232
2.58863
2.58396
2.57785
2.57011
2.55958
2.55007
2.54386
2.53489
2.52936
2.52577
2.52469
2.52637
2.53218
2.54124
2.55372
2.56902
2.58633
2.60497
2.62432
2.61049
2.60438
2.60043
2.59483
2.59094
2.58388
2.57689
2.57038
2.56316
2.55494
2.54736
2.53725
2.52904
2.52093
2.5147
2.51032
2.5084
2.50894
2.51262
2.5198
2.53034
2.54401
2.56021
2.57824
2.59731
2.61686
2.59802
2.5902
2.58383
2.57816
2.57156
2.56418
2.55648
2.54866
2.54048
2.53191
2.52334
2.51455
2.50652
2.49959
2.49395
2.49106
2.49032
2.49231
2.49748
2.50608
2.51793
2.53265
2.54967
2.56833
2.58794
2.60786
2.58287
2.57547
2.56809
2.56072
2.55304
2.54486
2.5364
2.52776
2.51897
2.51009
2.5013
2.49271
2.48485
2.47812
2.47344
2.4714
2.47148
2.47459
2.48101
2.49085
2.50386
2.5196
2.53754
2.55704
2.57739
2.59791
2.56805
2.5607
2.55287
2.54465
2.53607
2.52713
2.51791
2.50852
2.49905
2.48965
2.48048
2.47172
2.46372
2.45705
2.45278
2.4512
2.45189
2.45577
2.46315
2.47401
2.48805
2.50488
2.52394
2.54451
2.56582
2.58713
2.55409
2.54666
2.53853
2.52983
2.52062
2.51101
2.50108
2.49096
2.48077
2.47071
2.46098
2.45176
2.44336
2.43632
2.43213
2.43061
2.43149
2.43581
2.44382
2.45546
2.47049
2.48852
2.50888
2.53075
2.55326
2.57561
2.54141
2.53387
2.52551
2.51643
2.50674
2.49654
2.48595
2.4751
2.46415
2.45332
2.44284
2.43292
2.42384
2.41613
2.41129
2.40946
2.41011
2.41442
2.42267
2.43486
2.45085
2.47018
2.49206
2.51556
2.53964
2.56338
2.53019
2.52257
2.51403
2.50466
2.49457
2.48386
2.47265
2.46107
2.44931
2.43759
2.42616
2.41529
2.40523
2.3965
2.39021
2.38759
2.38754
2.39122
2.39923
2.41171
2.42859
2.44931
2.47302
2.49859
2.52475
2.55036
2.52051
2.51288
2.50424
2.49466
2.48425
2.4731
2.4613
2.44901
2.43639
2.42365
2.41107
2.39894
2.38757
2.37739
2.36914
2.36468
2.36342
2.36583
2.373