/*--------------------------------*- C++ -*----------------------------------*\
  =========                 |
  \\      /  F ield         | OpenFOAM: The Open Source CFD Toolbox
   \\    /   O peration     | Website:  https://openfoam.org
    \\  /    A nd           | Version:  10
     \\/     M anipulation  |
\*---------------------------------------------------------------------------*/
FoamFile
{
    format      ascii;
    class       surfaceScalarField;
    location    "0.598575";
    object      phi;
}
// * * * * * * * * * * * * * * * * * * * * * * * * * * * * * * * * * * * * * //

dimensions      [1 0 -1 0 0 0 0];

internalField   nonuniform List<scalar> 
31108
(
0.000374939
-8.40316e-05
0.000369818
-8.09942e-05
0.000364951
-7.78362e-05
0.000360312
-7.45802e-05
0.000355907
-7.12289e-05
0.000351725
-6.78007e-05
0.000347772
-6.43209e-05
0.000344037
-6.07945e-05
0.000340521
-5.72359e-05
0.000337209
-5.36527e-05
0.000334106
-5.00531e-05
0.000331197
-4.64434e-05
0.000328489
-4.28295e-05
0.000325979
-3.92179e-05
0.000323662
-3.56133e-05
0.000321555
-3.20233e-05
0.000319633
-2.84519e-05
0.000317918
-2.49055e-05
0.000316398
-2.13903e-05
0.000315067
-1.79098e-05
0.000313934
-1.44699e-05
0.000312997
-1.10749e-05
0.000312245
-7.72879e-06
0.000311682
-4.43556e-06
0.000311307
-1.1994e-06
0.000311114
1.97558e-06
0.000311097
5.08527e-06
0.00031125
8.12715e-06
0.000311573
1.10983e-05
0.00031206
1.39938e-05
0.000312704
1.68102e-05
0.000313503
1.9542e-05
0.00031445
2.21844e-05
0.00031554
2.47309e-05
0.000316772
2.71752e-05
0.000318142
2.95097e-05
0.00031965
3.17255e-05
0.000321294
3.3814e-05
0.000323071
3.57641e-05
0.000324981
3.75648e-05
0.000327025
3.92043e-05
0.000329196
4.06697e-05
0.000331495
4.19481e-05
0.000333923
4.30278e-05
0.000336471
4.38966e-05
0.000339132
4.45433e-05
0.000341897
4.49589e-05
0.00034475
4.5137e-05
0.000347676
4.50733e-05
0.000350657
4.47674e-05
4.42232e-05
0.000353668
0.000378077
-7.68243e-05
0.000373049
-7.38832e-05
0.000368248
-7.08392e-05
0.00036367
-6.77053e-05
0.00035931
-6.44987e-05
0.000355164
-6.12298e-05
0.000351235
-5.79102e-05
0.000347517
-5.45515e-05
0.000344002
-5.11667e-05
0.000340691
-4.77597e-05
0.000337574
-4.43428e-05
0.000334652
-4.09154e-05
0.000331924
-3.74895e-05
0.000329386
-3.40656e-05
0.000327043
-3.06526e-05
0.000324892
-2.72542e-05
0.000322936
-2.3877e-05
0.000321173
-2.05263e-05
0.000319603
-1.72073e-05
0.000318225
-1.39249e-05
0.000317042
-1.06842e-05
0.000316047
-7.48917e-06
0.000315241
-4.34365e-06
0.000314621
-1.25152e-06
0.000314183
1.78258e-06
0.000313924
4.75569e-06
0.000313838
7.66535e-06
0.000313918
1.05089e-05
0.000314165
1.32824e-05
0.000314574
1.59822e-05
0.000315134
1.8604e-05
0.000315843
2.1144e-05
0.000316693
2.35964e-05
0.000317679
2.59552e-05
0.000318798
2.82144e-05
0.000320047
3.03665e-05
0.000321423
3.24032e-05
0.000322926
3.43159e-05
0.000324551
3.60947e-05
0.000326299
3.77289e-05
0.000328168
3.92081e-05
0.000330155
4.05205e-05
0.000332262
4.16546e-05
0.000334484
4.26e-05
0.00033682
4.33463e-05
0.000339263
4.38851e-05
0.000341804
4.42087e-05
0.000344437
4.43129e-05
0.000347145
4.41951e-05
0.000349913
4.38572e-05
4.33042e-05
0.000352724
0.000381115
-6.97015e-05
0.000376148
-6.68271e-05
0.000371396
-6.38797e-05
0.000366859
-6.0861e-05
0.000362538
-5.77808e-05
0.00035842
-5.46564e-05
0.000354508
-5.14845e-05
0.0003508
-4.82846e-05
0.000347285
-4.50599e-05
0.000343968
-4.18225e-05
0.000340841
-3.85775e-05
0.000337901
-3.53281e-05
0.000335151
-3.20822e-05
0.000332585
-2.8843e-05
0.00033021
-2.5616e-05
0.000328023
-2.24072e-05
0.000326025
-1.92214e-05
0.000324218
-1.60643e-05
0.0003226
-1.29408e-05
0.000321171
-9.85577e-06
0.000319932
-6.81366e-06
0.000318881
-3.81846e-06
0.000318017
-8.73151e-07
0.000317338
2.01682e-06
0.000316839
4.84988e-06
0.000316515
7.62372e-06
0.000316362
1.03358e-05
0.00031637
1.29832e-05
0.00031654
1.55625e-05
0.000316868
1.80703e-05
0.000317345
2.05025e-05
0.000317963
2.28559e-05
0.000318716
2.51243e-05
0.000319597
2.73023e-05
0.000320605
2.93835e-05
0.000321735
3.13611e-05
0.000322983
3.32268e-05
0.000324347
3.49721e-05
0.000325825
3.65876e-05
0.000327415
3.80631e-05
0.000329117
3.93885e-05
0.000330931
4.05537e-05
0.000332852
4.15478e-05
0.000334881
4.23614e-05
0.000337019
4.29858e-05
0.000339263
4.34141e-05
0.000341605
4.36402e-05
0.000344035
4.36616e-05
0.000346543
4.34772e-05
0.000349121
4.30908e-05
4.25084e-05
0.000351753
0.000384001
-6.26626e-05
0.000379087
-5.98399e-05
0.000374375
-5.69677e-05
0.000369883
-5.40543e-05
0.000365591
-5.10921e-05
0.000361502
-4.80896e-05
0.000357603
-4.50626e-05
0.0003539
-4.20044e-05
0.000350384
-3.89347e-05
0.00034706
-3.58565e-05
0.000343919
-3.27759e-05
0.000340963
-2.96961e-05
0.000338191
-2.66246e-05
0.000335599
-2.35633e-05
0.00033319
-2.05179e-05
0.000330967
-1.7494e-05
0.000328927
-1.44962e-05
0.000327073
-1.15297e-05
0.000325406
-8.59971e-06
0.000323926
-5.71016e-06
0.00032263
-2.86525e-06
0.000321519
-6.86565e-08
0.000320596
2.67507e-06
0.000319854
5.36537e-06
0.000319289
7.99995e-06
0.000318897
1.05766e-05
0.000318673
1.30932e-05
0.000318609
1.5547e-05
0.000318703
1.79354e-05
0.000318951
2.02552e-05
0.000319345
2.25032e-05
0.000319872
2.46747e-05
0.000320528
2.67659e-05
0.000321306
2.87698e-05
0.000322202
3.06805e-05
0.000323215
3.24913e-05
0.000324337
3.41938e-05
0.000325568
3.57795e-05
0.000326903
3.72393e-05
0.00032834
3.85631e-05
0.000329881
3.9741e-05
0.000331524
4.07635e-05
0.000333271
4.16204e-05
0.00033512
4.23035e-05
0.00033707
4.28047e-05
0.000339123
4.31179e-05
0.000341275
4.32391e-05
0.000343518
4.31666e-05
0.000345847
4.29011e-05
0.000348253
4.24479e-05
4.18137e-05
0.000350725
0.000386759
-5.57039e-05
0.000381886
-5.29224e-05
0.000377222
-5.01205e-05
0.000372752
-4.72921e-05
0.00036848
-4.44385e-05
0.000364401
-4.15519e-05
0.000360518
-3.86484e-05
0.000356815
-3.57303e-05
0.000353298
-3.28072e-05
0.00034997
-2.98773e-05
0.000346815
-2.69539e-05
0.000343842
-2.40352e-05
0.000341047
-2.11304e-05
0.000338419
-1.82405e-05
0.000335976
-1.53707e-05
0.000333716
-1.25268e-05
0.000331633
-9.71295e-06
0.00032973
-6.93351e-06
0.000328015
-4.19405e-06
0.000326482
-1.49682e-06
0.000325132
1.15108e-06
0.000323964
3.74976e-06
0.00032298
6.2961e-06
0.000322174
8.78946e-06
0.000321541
1.12275e-05
0.00032108
1.3609e-05
0.000320784
1.59324e-05
0.000320647
1.81957e-05
0.000320662
2.03967e-05
0.000320829
2.2533e-05
0.000321137
2.46014e-05
0.000321575
2.65974e-05
0.000322135
2.85172e-05
0.00032281
3.03543e-05
0.000323599
3.21022e-05
0.000324494
3.3754e-05
0.000325492
3.53013e-05
0.00032659
3.67354e-05
0.000327784
3.80466e-05
0.000329073
3.92252e-05
0.000330455
4.02614e-05
0.000331934
4.11453e-05
0.00033351
4.18676e-05
0.000335184
4.242e-05
0.000336955
4.27951e-05
0.000338827
4.2988e-05
0.000340798
4.29953e-05
0.000342863
4.28162e-05
0.000345024
4.24535e-05
0.000347272
4.19131e-05
4.12034e-05
0.000349598
0.000389484
-4.88121e-05
0.00038465
-4.60747e-05
0.000379996
-4.33329e-05
0.000375523
-4.05817e-05
0.000371236
-3.78241e-05
0.000367158
-3.50496e-05
0.000363267
-3.22667e-05
0.00035956
-2.94757e-05
0.000356042
-2.66861e-05
0.000352702
-2.39014e-05
0.000349537
-2.11255e-05
0.000346538
-1.83602e-05
0.000343716
-1.5614e-05
0.00034106
-1.2888e-05
0.000338576
-1.01879e-05
0.000336273
-7.51742e-06
0.000334146
-4.88277e-06
0.000332196
-2.28529e-06
0.000330428
2.66982e-07
0.000328845
2.77118e-06
0.000327439
5.22742e-06
0.000326211
7.63204e-06
0.000325162
9.98374e-06
0.000324288
1.22815e-05
0.000323588
1.45248e-05
0.000323058
1.67132e-05
0.000322693
1.88457e-05
0.000322484
2.09215e-05
0.000322425
2.29391e-05
0.000322513
2.48962e-05
0.000322738
2.67903e-05
0.000323088
2.86173e-05
0.000323554
3.03723e-05
0.000324129
3.20503e-05
0.000324809
3.36438e-05
0.000325588
3.5145e-05
0.000326463
3.6546e-05
0.000327426
3.78369e-05
0.000328476
3.90075e-05
0.000329616
4.00482e-05
0.000330843
4.09481e-05
0.000332159
4.16973e-05
0.000333568
4.22868e-05
0.000335069
4.2708e-05
0.000336664
4.29536e-05
0.000338359
4.30192e-05
0.000340154
4.29029e-05
0.00034205
4.26035e-05
0.00034405
4.21257e-05
0.000346149
4.14761e-05
4.06651e-05
0.000348343
0.000392083
-4.1985e-05
0.000387249
-3.92799e-05
0.000382593
-3.65929e-05
0.000378111
-3.39242e-05
0.000373821
-3.12595e-05
0.000369741
-2.85948e-05
0.000365842
-2.59215e-05
0.000362124
-2.32601e-05
0.000358597
-2.05932e-05
0.000355245
-1.79437e-05
0.000352064
-1.53067e-05
0.000349045
-1.26896e-05
0.000346184
-1.00917e-05
0.00034349
-7.5226e-06
0.000340986
-4.98452e-06
0.000338669
-2.48054e-06
0.000336525
-1.77953e-08
0.000334541
2.39915e-06
0.00033272
4.7705e-06
0.000331069
7.0905e-06
0.000329589
9.35837e-06
0.000328284
1.1572e-05
0.000327156
1.3731e-05
0.000326205
1.58348e-05
0.000325432
1.78847e-05
0.000324832
1.9881e-05
0.000324397
2.18246e-05
0.000324119
2.37154e-05
0.000323992
2.55529e-05
0.000324007
2.73355e-05
0.000324153
2.90609e-05
0.000324418
3.0725e-05
0.000324794
3.23238e-05
0.000325271
3.38501e-05
0.000325845
3.52984e-05
0.00032651
3.6659e-05
0.000327262
3.79232e-05
0.000328093
3.90806e-05
0.000329003
4.01199e-05
0.000329992
4.10302e-05
0.000331058
4.1801e-05
0.000332206
4.24204e-05
0.000333442
4.28789e-05
0.000334769
4.31684e-05
0.000336188
4.3281e-05
0.000337708
4.32124e-05
0.000339332
4.2961e-05
0.000341063
4.25264e-05
0.000342905
4.19142e-05
0.00034486
4.1132e-05
4.01918e-05
0.000346925
0.000394563
-3.52159e-05
0.000389665
-3.25435e-05
0.000384999
-2.99233e-05
0.000380543
-2.73182e-05
0.00037628
-2.47462e-05
0.000372205
-2.21884e-05
0.000368291
-1.96348e-05
0.000364564
-1.70852e-05
0.000361013
-1.45472e-05
0.000357642
-1.20215e-05
0.000354444
-9.51856e-06
0.000351403
-7.02948e-06
0.000348524
-4.57918e-06
0.000345814
-2.15463e-06
0.000343271
2.30243e-07
0.000340912
2.57181e-06
0.000338711
4.87012e-06
0.000336653
7.11786e-06
0.000334755
9.31309e-06
0.000333032
1.1452e-05
0.000331494
1.35334e-05
0.000330141
1.55573e-05
0.000328961
1.75246e-05
0.000327947
1.94366e-05
0.000327102
2.1295e-05
0.000326431
2.31017e-05
0.000325926
2.48586e-05
0.000325582
2.65669e-05
0.000325389
2.82277e-05
0.000325334
2.98399e-05
0.000325403
3.14022e-05
0.000325585
3.29104e-05
0.000325872
3.43605e-05
0.000326253
3.57455e-05
0.000326723
3.70579e-05
0.000327275
3.82893e-05
0.000327903
3.94278e-05
0.000328602
4.04629e-05
0.000329367
4.13815e-05
0.000330202
4.21713e-05
0.00033111
4.28204e-05
0.000332092
4.33163e-05
0.000333151
4.36475e-05
0.000334298
4.38052e-05
0.000335538
4.3782e-05
0.000336879
4.35714e-05
0.000338327
4.31736e-05
0.00033989
4.25877e-05
0.000341574
4.18206e-05
0.000343385
4.08807e-05
3.97818e-05
0.000345326
0.00039704
-2.84714e-05
0.000392082
-2.58416e-05
0.000387335
-2.3286e-05
0.000382755
-2.07886e-05
0.000378439
-1.83121e-05
0.00037437
-1.58585e-05
0.000370511
-1.34183e-05
0.000366843
-1.09839e-05
0.000363331
-8.55648e-06
0.000359969
-6.15304e-06
0.000356762
-3.76404e-06
0.000353693
-1.41218e-06
0.000350781
9.13287e-07
0.000348022
3.19861e-06
0.000345417
5.44291e-06
0.000342964
7.6369e-06
0.000340673
9.77775e-06
0.00033855
1.1861e-05
0.000336601
1.38839e-05
0.000334826
1.58447e-05
0.000333224
1.7743e-05
0.000331796
1.95795e-05
0.000330548
2.13568e-05
0.000329478
2.3077e-05
0.000328582
2.47442e-05
0.000327856
2.63617e-05
0.000327291
2.79334e-05
0.000326883
2.94618e-05
0.000326623
3.09488e-05
0.000326496
3.23951e-05
0.000326492
3.37998e-05
0.000326597
3.51594e-05
0.0003268
3.64697e-05
0.00032709
3.77238e-05
0.000327463
3.89127e-05
0.000327906
4.00263e-05
0.000328412
4.10527e-05
0.000328978
4.19787e-05
0.000329599
4.27896e-05
0.000330278
4.34708e-05
0.000331018
4.40084e-05
0.000331824
4.43883e-05
0.000332702
4.45976e-05
0.000333666
4.46247e-05
0.000334718
4.44632e-05
0.000335872
4.41038e-05
0.00033714
4.35479e-05
0.000338529
4.27944e-05
0.000340051
4.18506e-05
0.000341716
4.07262e-05
3.94368e-05
0.000343531
0.000399185
-2.17347e-05
0.000394161
-1.91861e-05
0.000389422
-1.67262e-05
0.00038493
-1.43257e-05
0.000380676
-1.19608e-05
0.00037664
-9.61438e-06
0.000372781
-7.27578e-06
0.00036909
-4.95125e-06
0.00036552
-2.64041e-06
0.000362086
-3.42435e-07
0.000358814
1.92917e-06
0.000355724
4.16733e-06
0.000352786
6.3727e-06
0.000349994
8.53193e-06
0.000347349
1.06458e-05
0.000344847
1.26986e-05
0.000342497
1.46911e-05
0.000340306
1.66182e-05
0.000338289
1.84764e-05
0.000336444
2.02635e-05
0.000334772
2.19809e-05
0.000333281
2.3631e-05
0.000331968
2.52181e-05
0.00033083
2.67461e-05
0.000329869
2.82212e-05
0.000329082
2.96486e-05
0.000328464
3.10344e-05
0.000328001
3.23832e-05
0.000327683
3.36987e-05
0.000327498
3.49829e-05
0.000327431
3.6236e-05
0.000327467
3.74549e-05
0.000327598
3.8635e-05
0.000327808
3.97696e-05
0.000328084
4.08484e-05
0.000328419
4.18594e-05
0.000328808
4.27891e-05
0.000329241
4.36214e-05
0.000329715
4.43403e-05
0.000330235
4.49278e-05
0.000330804
4.53668e-05
0.000331429
4.56409e-05
0.000332117
4.57358e-05
0.000332882
4.56363e-05
0.000333735
4.53345e-05
0.000334691
4.48214e-05
0.000335765
4.40957e-05
0.000336971
4.31576e-05
0.000338322
4.20146e-05
0.000339831
4.06781e-05
3.91646e-05
0.000341513
0.000401217
-1.50168e-05
0.000396224
-1.25773e-05
0.00039151
-1.02234e-05
0.00038699
-7.93651e-06
0.000382681
-5.68792e-06
0.000378571
-3.45611e-06
0.000374653
-1.23697e-06
0.000370935
9.80178e-07
0.00036739
3.1884e-06
0.000364013
5.38012e-06
0.000360782
7.54904e-06
0.000357688
9.68783e-06
0.000354721
1.17842e-05
0.000351875
1.38363e-05
0.000349146
1.5825e-05
0.000346577
1.77523e-05
0.000344173
1.96052e-05
0.000341945
2.13824e-05
0.00033987
2.30801e-05
0.000337945
2.46981e-05
0.000336191
2.62371e-05
0.000334617
2.77014e-05
0.000333225
2.90975e-05
0.000332019
3.04313e-05
0.000330994
3.17116e-05
0.000330147
3.29468e-05
0.000329469
3.41455e-05
0.000328951
3.53142e-05
0.000328582
3.64593e-05
0.000328346
3.75844e-05
0.000328229
3.86908e-05
0.00032821
3.97769e-05
0.000328275
4.08375e-05
0.000328412
4.18648e-05
0.000328605
4.28484e-05
0.000328841
4.37742e-05
0.000329112
4.46257e-05
0.000329413
4.53839e-05
0.000329743
4.60293e-05
0.000330099
4.65412e-05
0.000330489
4.68982e-05
0.000330923
4.70805e-05
0.00033141
4.70703e-05
0.000331965
4.68513e-05
0.000332606
4.64103e-05
0.000333348
4.57389e-05
0.000334213
4.48333e-05
0.00033522
4.36942e-05
0.00033639
4.23289e-05
0.000337739
4.07504e-05
3.89771e-05
0.000339279
0.000403126
-8.2967e-06
0.000398034
-5.99438e-06
0.000393244
-3.78068e-06
0.000388702
-1.63112e-06
0.000384422
4.82084e-07
0.000380369
2.58125e-06
0.000376511
4.68419e-06
0.000372833
6.79348e-06
0.000369295
8.90641e-06
0.000365899
1.10043e-05
0.00036263
1.30853e-05
0.000359494
1.51352e-05
0.000356485
1.71423e-05
0.000353595
1.90956e-05
0.000350836
2.09813e-05
0.000348208
2.27913e-05
0.000345713
2.45163e-05
0.00034337
2.61517e-05
0.000341189
2.76939e-05
0.00033918
2.91438e-05
0.000337348
3.05047e-05
0.000335706
3.17814e-05
0.000334251
3.29833e-05
0.000332982
3.41182e-05
0.000331903
3.51997e-05
0.000331012
3.62382e-05
0.000330298
3.72462e-05
0.000329745
3.82328e-05
0.000329342
3.9207e-05
0.00032907
4.01751e-05
0.000328912
4.11399e-05
0.00032885
4.2101e-05
0.000328861
4.30537e-05
0.000328929
4.39892e-05
0.000329045
4.48951e-05
0.000329191
4.57549e-05
0.000329355
4.65487e-05
0.000329527
4.72552e-05
0.000329707
4.78503e-05
0.000329897
4.83088e-05
0.000330099
4.86048e-05
0.000330329
4.87139e-05
0.000330601
4.86133e-05
0.000330932
4.82833e-05
0.00033134
4.77081e-05
0.000331853
4.68762e-05
0.00033249
4.57819e-05
0.000333277
4.44256e-05
0.000334242
4.28144e-05
0.000335408
4.09631e-05
3.88914e-05
0.000336795
0.000404872
-1.56982e-06
0.000399784
5.61797e-07
0.000394969
2.5826e-06
0.000390412
4.56461e-06
0.000386143
6.52271e-06
0.00038211
8.49074e-06
0.000378273
1.04791e-05
0.000374599
1.24776e-05
0.000371047
1.44874e-05
0.000367633
1.65145e-05
0.000364334
1.85232e-05
0.000361167
2.05017e-05
0.000358117
2.24342e-05
0.000355182
2.43076e-05
0.000352363
2.61034e-05
0.00034966
2.78106e-05
0.00034709
2.9419e-05
0.000344663
3.09212e-05
0.000342388
3.23143e-05
0.000340286
3.35993e-05
0.000338371
3.47811e-05
0.000336644
3.58673e-05
0.000335107
3.6869e-05
0.000333771
3.77987e-05
0.000332641
3.86729e-05
0.000331707
3.9507e-05
0.000330958
4.03166e-05
0.000330376
4.11157e-05
0.000329946
4.19166e-05
0.00032965
4.27282e-05
0.00032947
4.35553e-05
0.000329381
4.43992e-05
0.000329364
4.52555e-05
0.000329395
4.61161e-05
0.000329448
4.69645e-05
0.000329502
4.77808e-05
0.000329549
4.85429e-05
0.000329589
4.9225e-05
0.000329619
4.9798e-05
0.000329639
5.02305e-05
0.000329654
5.04911e-05
0.000329673
5.05493e-05
0.000329714
5.03775e-05
0.000329799
4.99506e-05
0.000329956
4.92483e-05
0.000330211
4.82566e-05
0.000330595
4.69672e-05
0.00033114
4.53791e-05
0.000331877
4.3499e-05
0.000332836
4.13418e-05
3.89325e-05
0.000334041
0.000406241
5.13583e-06
0.000401122
7.0347e-06
0.00039635
8.85557e-06
0.000391847
1.06421e-05
0.000387607
1.24256e-05
0.000383558
1.42396e-05
0.000379708
1.60958e-05
0.000376061
1.7996e-05
0.000372561
1.99318e-05
0.000369187
2.18905e-05
0.000365932
2.38438e-05
0.000362753
2.57706e-05
0.000359674
2.76504e-05
0.000356688
2.94656e-05
0.000353788
3.11897e-05
0.000351002
3.28126e-05
0.000348333
3.43162e-05
0.000345798
3.56942e-05
0.000343421
3.69432e-05
0.000341217
3.80639e-05
0.0003392
3.90632e-05
0.000337384
3.99522e-05
0.000335772
4.07449e-05
0.000334373
4.14598e-05
0.000333189
4.21155e-05
0.000332215
4.27335e-05
0.000331439
4.33343e-05
0.000330845
4.39372e-05
0.000330413
4.4559e-05
0.000330116
4.52126e-05
0.00032993
4.59051e-05
0.000329831
4.66401e-05
0.000329799
4.74132e-05
0.000329802
4.82152e-05
0.0003298
4.90287e-05
0.000329778
4.98297e-05
0.000329733
5.05919e-05
0.000329657
5.12822e-05
0.000329542
5.18654e-05
0.000329384
5.23053e-05
0.000329189
5.25622e-05
0.000328975
5.25986e-05
0.000328763
5.23801e-05
0.000328578
5.18746e-05
0.000328451
5.10581e-05
0.000328419
4.991e-05
0.000328519
4.84209e-05
0.000328788
4.65868e-05
0.000329266
4.44152e-05
0.000329989
4.19211e-05
3.91291e-05
0.000330991
0.000407145
1.1801e-05
0.000402045
1.343e-05
0.000397278
1.49909e-05
0.000392793
1.65331e-05
0.000388628
1.81268e-05
0.000384714
1.97857e-05
0.000381003
2.15231e-05
0.000377466
2.33237e-05
0.000374048
2.51949e-05
0.000370712
2.71201e-05
0.000367457
2.90292e-05
0.000364262
3.09324e-05
0.000361139
3.27874e-05
0.000358085
3.45682e-05
0.000355113
3.62433e-05
0.000352237
3.77974e-05
0.000349453
3.92092e-05
0.000346805
4.04731e-05
0.000344305
4.15831e-05
0.000341976
4.25397e-05
0.000339842
4.33534e-05
0.000337917
4.40369e-05
0.000336223
4.46087e-05
0.000334763
4.50928e-05
0.000333532
4.55137e-05
0.000332527
4.5899e-05
0.000331735
4.62754e-05
0.00033114
4.66691e-05
0.000330721
4.71025e-05
0.000330446
4.75928e-05
0.000330287
4.81522e-05
0.000330212
4.87857e-05
0.000330184
4.94894e-05
0.000330174
5.02537e-05
0.000330149
5.10576e-05
0.000330086
5.1876e-05
0.000329961
5.26731e-05
0.000329756
5.34114e-05
0.000329479
5.40466e-05
0.000329134
5.45334e-05
0.000328724
5.48252e-05
0.000328263
5.48759e-05
0.000327774
5.46411e-05
0.000327289
5.40824e-05
0.000326845
5.31681e-05
0.000326484
5.1873e-05
0.000326253
5.01828e-05
0.000326198
4.80917e-05
0.000326369
4.56055e-05
0.00032681
4.27421e-05
3.95262e-05
0.00032757
0.000407281
1.8308e-05
0.000402278
1.96203e-05
0.000397676
2.08924e-05
0.000393409
2.21907e-05
0.000389436
2.35732e-05
0.000385705
2.50647e-05
0.000382177
2.66896e-05
0.000378795
2.84278e-05
0.000375459
3.02519e-05
0.00037215
3.21251e-05
0.000368919
3.40562e-05
0.000365741
3.59704e-05
0.000362599
3.78339e-05
0.000359474
3.96116e-05
0.00035638
4.12658e-05
0.000353345
4.27757e-05
0.000350409
4.41148e-05
0.000347614
4.52722e-05
0.000344979
4.62445e-05
0.000342529
4.70368e-05
0.000340286
4.76562e-05
0.000338262
4.81213e-05
0.000336477
4.84553e-05
0.000334945
4.86881e-05
0.000333666
4.88524e-05
0.000332637
4.89825e-05
0.000331844
4.91137e-05
0.000331271
4.92802e-05
0.000330886
4.95112e-05
0.000330658
4.98305e-05
0.000330552
5.02556e-05
0.000330523
5.0794e-05
0.000330537
5.1443e-05
0.000330548
5.2192e-05
0.00033052
5.30167e-05
0.000330421
5.38888e-05
0.000330225
5.47621e-05
0.000329925
5.55949e-05
0.000329501
5.63313e-05
0.000328956
5.69151e-05
0.000328305
5.72895e-05
0.000327564
5.73985e-05
0.000326761
5.71864e-05
0.000325935
5.66068e-05
0.00032513
5.56183e-05
0.000324397
5.41898e-05
0.00032379
5.23011e-05
0.000323364
4.9944e-05
0.000323181
4.71226e-05
0.000323296
4.38559e-05
4.01704e-05
0.000323751
0.000406149
2.43972e-05
0.000401529
2.5394e-05
0.000397303
2.63723e-05
0.000393416
2.74308e-05
0.000389774
2.86201e-05
0.000386312
2.99724e-05
0.000382966
3.1486e-05
0.000379742
3.31863e-05
0.000376565
3.50128e-05
0.000373418
3.69199e-05
0.00037028
3.88925e-05
0.000367112
4.08614e-05
0.000363919
4.27758e-05
0.000360709
4.45905e-05
0.000357527
4.62595e-05
0.000354417
4.77544e-05
0.000351368
4.90459e-05
0.000348412
5.01162e-05
0.000345595
5.09588e-05
0.000342954
5.15785e-05
0.00034053
5.19889e-05
0.000338363
5.22164e-05
0.000336469
5.22886e-05
0.000334862
5.22426e-05
0.000333543
5.21198e-05
0.000332502
5.19645e-05
0.00033173
5.18225e-05
0.000331203
5.17368e-05
0.000330886
5.17457e-05
0.000330742
5.18819e-05
0.000330728
5.2168e-05
0.000330793
5.26164e-05
0.00033088
5.32271e-05
0.000330944
5.39843e-05
0.000330947
5.48659e-05
0.000330839
5.58324e-05
0.000330593
5.68332e-05
0.000330189
5.78144e-05
0.000329615
5.87092e-05
0.000328867
5.94481e-05
0.00032796
5.99656e-05
0.000326913
6.01872e-05
0.000325761
6.00468e-05
0.00032455
5.94872e-05
0.00032333
5.84557e-05
0.000322161
5.69141e-05
0.000321109
5.48343e-05
0.00032024
5.22049e-05
0.000319634
4.90291e-05
0.000319352
4.53249e-05
4.11233e-05
0.000319456
0.000402566
2.95619e-05
0.000398851
3.02994e-05
0.000395425
3.10578e-05
0.000392206
3.19217e-05
0.000389145
3.29819e-05
0.000386213
3.42614e-05
0.000383373
3.57688e-05
0.000380526
3.74856e-05
0.000377623
3.93876e-05
0.000374632
4.1411e-05
0.000371561
4.34953e-05
0.000368407
4.55819e-05
0.00036518
4.76092e-05
0.0003619
4.95116e-05
0.000358601
5.12428e-05
0.00035532
5.27503e-05
0.000352092
5.40121e-05
0.000348957
5.50047e-05
0.00034596
5.5723e-05
0.000343138
5.61695e-05
0.000340553
5.63634e-05
0.000338242
5.63331e-05
0.00033623
5.61152e-05
0.000334536
5.57561e-05
0.000333167
5.53081e-05
0.000332126
5.48272e-05
0.000331394
5.43741e-05
0.000330941
5.40015e-05
0.000330727
5.37617e-05
0.000330708
5.36961e-05
0.000330827
5.38355e-05
0.000331028
5.4198e-05
0.000331235
5.47814e-05
0.000331397
5.55845e-05
0.000331462
5.65496e-05
0.000331374
5.76772e-05
0.000331104
5.88465e-05
0.000330611
6.00487e-05
0.000329882
6.11675e-05
0.000328923
6.21327e-05
0.000327738
6.28637e-05
0.000326348
6.32668e-05
0.0003248
6.32587e-05
0.000323142
6.27715e-05
0.000321444
6.17368e-05
0.000319774
6.01083e-05
0.000318202
5.78508e-05
0.000316815
5.49491e-05
0.0003157
5.1402e-05
0.000314941
4.72292e-05
4.24644e-05
0.000314614
0.000395689
3.30973e-05
0.000393423
3.37191e-05
0.000391294
3.43858e-05
0.000389245
3.5216e-05
0.000387189
3.62772e-05
0.000385112
3.76186e-05
0.000382974
3.92411e-05
0.000380689
4.11243e-05
0.000378254
4.32165e-05
0.000375615
4.54531e-05
0.000372739
4.7769e-05
0.000369678
5.00768e-05
0.000366454
5.23032e-05
0.000363107
5.43662e-05
0.000359666
5.62181e-05
0.000356171
5.77923e-05
0.000352712
5.90546e-05
0.000349341
5.99859e-05
0.000346118
6.05806e-05
0.000343093
6.08485e-05
0.000340318
6.08078e-05
0.000337837
6.04915e-05
0.000335691
5.99464e-05
0.000333908
5.923e-05
0.000332496
5.8408e-05
0.00033146
5.75515e-05
0.000330785
5.67364e-05
0.000330435
5.60313e-05
0.000330371
5.55051e-05
0.00033053
5.52119e-05
0.000330848
5.51915e-05
0.000331226
5.5468e-05
0.000331633
5.60427e-05
0.000331922
5.69123e-05
0.000332126
5.80271e-05
0.000332078
5.93418e-05
0.000331808
6.0803e-05
0.000331244
6.2258e-05
0.000330352
6.37157e-05
0.000329167
6.49684e-05
0.000327676
6.60003e-05
0.000325917
6.66648e-05
0.000323925
6.68607e-05
0.000321755
6.65147e-05
0.000319492
6.55293e-05
0.000317225
6.3851e-05
0.000315054
6.14358e-05
0.000313069
5.82651e-05
0.000311364
5.43321e-05
0.000310049
4.96561e-05
4.42788e-05
0.0003092
0.000384601
3.42322e-05
0.000384481
3.49346e-05
0.000384308
3.57211e-05
0.000384019
3.67264e-05
0.000383505
3.80196e-05
0.000382724
3.96291e-05
0.000381662
4.15712e-05
0.000380208
4.38126e-05
0.000378392
4.62741e-05
0.000376234
4.88992e-05
0.00037372
5.15893e-05
0.000370843
5.42638e-05
0.000367643
5.68138e-05
0.000364217
5.91444e-05
0.000360671
6.11947e-05
0.000357022
6.28999e-05
0.000353342
6.42143e-05
0.000349696
6.51182e-05
0.000346167
6.55986e-05
0.000342849
6.56742e-05
0.000339812
6.5368e-05
0.00033712
6.47271e-05
0.000334816
6.38052e-05
0.000332927
6.2675e-05
0.000331469
6.14155e-05
0.000330452
6.0119e-05
0.000329854
5.88801e-05
0.000329642
5.77847e-05
0.000329774
5.69209e-05
0.000330175
5.63653e-05
0.000330744
5.61652e-05
0.000331411
5.63507e-05
0.000332048
5.69453e-05
0.000332597
5.78949e-05
0.000332963
5.92481e-05
0.000333026
6.07827e-05
0.000332766
6.25733e-05
0.000332157
6.4438e-05
0.000331148
6.62821e-05
0.000329703
6.79994e-05
0.000327876
6.93941e-05
0.000325657
7.04384e-05
0.000323157
7.09057e-05
0.000320408
7.0781e-05
0.000317505
6.99112e-05
0.000314555
6.82302e-05
0.000311674
6.56856e-05
0.00030897
6.22505e-05
0.000306541
5.79206e-05
0.000304525
5.27117e-05
4.66716e-05
0.000303038
0.0003696
3.23878e-05
0.000372081
3.33597e-05
0.000374354
3.44999e-05
0.000376279
3.59275e-05
0.000377728
3.77137e-05
0.000378653
3.98854e-05
0.000379021
4.23972e-05
0.000378768
4.52234e-05
0.00037794
4.83197e-05
0.000376441
5.15556e-05
0.000374414
5.48057e-05
0.000371872
5.80337e-05
0.000368832
6.1074e-05
0.000365384
6.38206e-05
0.000361647
6.61886e-05
0.000357728
6.81023e-05
0.000353741
6.95188e-05
0.000349783
7.04173e-05
0.00034594
7.08023e-05
0.000342298
7.06836e-05
0.000338954
7.00918e-05
0.000335992
6.90792e-05
0.000333482
6.77194e-05
0.000331466
6.61024e-05
0.000329974
6.4326e-05
0.000329021
6.25091e-05
0.000328563
6.07629e-05
0.000328561
5.92023e-05
0.000328964
5.79421e-05
0.000329678
5.70707e-05
0.00033059
5.66586e-05
0.000331612
5.67528e-05
0.000332562
5.73669e-05
0.000333434
5.84729e-05
0.000334019
6.0046e-05
0.00033419
6.20091e-05
0.00033408
6.41667e-05
0.00033345
6.65621e-05
0.000332245
6.88862e-05
0.000330573
7.11526e-05
0.000328358
7.30583e-05
0.000325686
7.45791e-05
0.000322558
7.54937e-05
0.000319114
7.56617e-05
0.000315442
7.49865e-05
0.000311674
7.33556e-05
0.000307944
7.07157e-05
0.000304389
6.70295e-05
0.00030113
6.22934e-05
0.000298304
5.65244e-05
4.97759e-05
0.000296048
0.000351499
2.72386e-05
0.000356894
2.86234e-05
0.000361966
3.0324e-05
0.000366467
3.24394e-05
0.000370279
3.50034e-05
0.000373202
3.80099e-05
0.000375285
4.14139e-05
0.000376472
4.51457e-05
0.000376773
4.90947e-05
0.000376198
5.31851e-05
0.000374734
5.73131e-05
0.000372563
6.12867e-05
0.000369715
6.50244e-05
0.000366303
6.83577e-05
0.000362447
7.11931e-05
0.000358273
7.34333e-05
0.000353944
7.50295e-05
0.000349597
7.59731e-05
0.000345354
7.62758e-05
0.000341329
7.59559e-05
0.000337631
7.50483e-05
0.000334362
7.36168e-05
0.000331615
7.17454e-05
0.000329451
6.95496e-05
0.000327911
6.71521e-05
0.000327004
6.46997e-05
0.000326696
6.23345e-05
0.000326957
6.02071e-05
0.000327715
5.84629e-05
0.000328841
5.72133e-05
0.000330227
5.65513e-05
0.000331696
5.65476e-05
0.000333139
5.72006e-05
0.00033442
5.85325e-05
0.000335315
6.03886e-05
0.000335808
6.28237e-05
0.000335687
6.55727e-05
0.000335015
6.8558e-05
0.00033369
7.15809e-05
0.000331678
7.45109e-05
0.000329002
7.70799e-05
0.000325739
7.92077e-05
0.000321929
8.0654e-05
0.000317677
8.12557e-05
0.000313114
8.08689e-05
0.000308385
7.93611e-05
0.000303651
7.66733e-05
0.000299068
7.27593e-05
0.000294799
6.76098e-05
0.000291003
6.12518e-05
5.37447e-05
0.000287826
0.000330964
1.86677e-05
0.000339453
2.05705e-05
0.000347529
2.30074e-05
0.00035481
2.60661e-05
0.00036107
2.96839e-05
0.000366261
3.38462e-05
0.000370261
3.84119e-05
0.000373059
4.33144e-05
0.00037472
4.84261e-05
0.000375136
5.37285e-05
0.000374421
5.89331e-05
0.000372687
6.39692e-05
0.000370079
6.86278e-05
0.000366682
7.27673e-05
0.000362654
7.62496e-05
0.000358171
7.8946e-05
0.000353428
8.08012e-05
0.000348616
8.1827e-05
0.000343898
8.20619e-05
0.00033941
8.15283e-05
0.000335294
8.02663e-05
0.000331678
7.83443e-05
0.000328678
7.58685e-05
0.000326376
7.29797e-05
0.00032483
6.98342e-05
0.000324054
6.66202e-05
0.000324019
6.35102e-05
0.000324684
6.06968e-05
0.000325951
5.83645e-05
0.000327653
5.666e-05
0.000329669
5.57005e-05
0.000331778
5.55888e-05
0.000333774
5.63183e-05
0.000335536
5.79116e-05
0.00033685
6.02363e-05
0.000337563
6.32473e-05
0.000337571
6.67175e-05
0.000336803
7.05382e-05
0.00033518
7.44097e-05
0.000332742
7.81608e-05
0.000329417
8.16216e-05
0.000325302
8.45219e-05
0.000320546
8.6624e-05
0.000315263
8.77684e-05
0.000309586
8.77601e-05
0.000303696
8.64295e-05
0.000297773
8.3734e-05
0.000291981
7.96086e-05
0.000286518
7.40422e-05
0.000281561
6.70603e-05
5.87481e-05
0.000277278
0.000308217
6.58136e-06
0.00032006
9.13031e-06
0.00033133
1.2443e-05
0.000341498
1.67436e-05
0.000350405
2.1722e-05
0.000357733
2.73794e-05
0.000363679
3.34513e-05
0.000368058
3.98445e-05
0.000370944
4.6461e-05
0.000372328
5.31862e-05
0.000372315
5.97663e-05
0.000370934
6.61269e-05
0.00036853
7.1847e-05
0.000365111
7.7047e-05
0.00036086
8.1393e-05
0.000356052
8.46618e-05
0.000350918
8.68475e-05
0.000345638
8.80205e-05
0.000340417
8.82221e-05
0.000335454
8.74603e-05
0.000330926
8.57739e-05
0.00032699
8.32698e-05
0.000323793
8.00682e-05
0.000321445
7.63425e-05
0.000320019
7.22886e-05
0.000319529
6.81355e-05
0.000319939
6.41093e-05
0.000321205
6.04617e-05
0.00032318
5.74055e-05
0.000325688
5.5158e-05
0.000328537
5.38696e-05
0.000331473
5.36679e-05
0.000334226
5.45627e-05
0.000336593
5.65762e-05
0.000338237
5.95557e-05
0.000339093
6.33806e-05
0.000339005
6.78644e-05
0.000337842
7.27006e-05
0.000335666
7.76954e-05
0.000332298
8.25833e-05
0.000328057
8.6964e-05
0.000322824
9.08947e-05
0.000316716
9.3858e-05
0.000310051
9.55561e-05
0.000302943
9.59766e-05
0.000295603
9.4855e-05
0.000288241
9.21627e-05
0.000281041
8.78176e-05
0.000274176
8.17978e-05
0.000267859
7.41319e-05
6.49207e-05
0.000262301
0.000282442