/*--------------------------------*- C++ -*----------------------------------*\
  =========                 |
  \\      /  F ield         | OpenFOAM: The Open Source CFD Toolbox
   \\    /   O peration     | Website:  https://openfoam.org
    \\  /    A nd           | Version:  10
     \\/     M anipulation  |
\*---------------------------------------------------------------------------*/
FoamFile
{
    format      ascii;
    class       volScalarField;
    location    "0.598575";
    object      rho;
}
// * * * * * * * * * * * * * * * * * * * * * * * * * * * * * * * * * * * * * //

dimensions      [1 -3 0 0 0 0 0];

internalField   nonuniform List<scalar> 
15708
(
1.00957
1.00988
1.0102
1.01055
1.01091
1.0113
1.01179
1.01234
1.01296
1.0137
1.01443
1.01533
1.01613
1.01716
1.01805
1.01916
1.02022
1.02134
1.02255
1.02375
1.02499
1.02629
1.02762
1.02896
1.03035
1.03177
1.03323
1.03471
1.0362
1.03773
1.03928
1.04084
1.04242
1.04399
1.04557
1.04716
1.04873
1.0503
1.05184
1.05336
1.05484
1.05628
1.05763
1.05893
1.06015
1.06126
1.06227
1.06314
1.06387
1.06444
1.06485
1.0099
1.01015
1.01038
1.01063
1.01092
1.01126
1.01167
1.01212
1.0127
1.01329
1.01403
1.01475
1.0156
1.01645
1.0174
1.01836
1.0194
1.02048
1.02161
1.02278
1.024
1.02526
1.02655
1.02788
1.02925
1.03065
1.03209
1.03354
1.03502
1.03654
1.03809
1.03965
1.04123
1.04281
1.04439
1.04598
1.04756
1.04914
1.0507
1.05222
1.05372
1.05517
1.05655
1.05787
1.0591
1.06025
1.06128
1.06219
1.06296
1.06358
1.06403
1.01019
1.01037
1.01051
1.01068
1.01089
1.01116
1.01148
1.01187
1.01236
1.01288
1.01354
1.0142
1.01498
1.01578
1.01665
1.01759
1.01856
1.01961
1.02069
1.02182
1.023
1.02423
1.02549
1.0268
1.02816
1.02954
1.03097
1.03242
1.03388
1.03539
1.03693
1.03849
1.04006
1.04163
1.04322
1.04481
1.04639
1.04797
1.04953
1.05107
1.05257
1.05403
1.05543
1.05676
1.058
1.05917
1.06024
1.06118
1.06198
1.06264
1.06313
1.01028
1.01038
1.01047
1.01058
1.01074
1.01094
1.01123
1.01155
1.01197
1.01246
1.01302
1.01365
1.01436
1.01513
1.01594
1.01684
1.01778
1.01877
1.01983
1.02093
1.02207
1.02326
1.0245
1.02579
1.02712
1.02849
1.02989
1.03132
1.03278
1.03427
1.0358
1.03736
1.03892
1.04049
1.04206
1.04365
1.04524
1.04682
1.04839
1.04993
1.05143
1.05289
1.05429
1.05564
1.0569
1.05807
1.05915
1.06012
1.06094
1.06164
1.06217
1.0101
1.01016
1.01024
1.01035
1.01047
1.01062
1.01086
1.01116
1.01151
1.01197
1.0125
1.01306
1.01376
1.01446
1.01523
1.01608
1.017
1.01795
1.01897
1.02005
1.02118
1.02234
1.02357
1.02484
1.02614
1.02749
1.02887
1.03028
1.03172
1.03319
1.03471
1.03625
1.03781
1.03936
1.04093
1.04252
1.0441
1.04568
1.04724
1.04878
1.05029
1.05175
1.05315
1.0545
1.05577
1.05695
1.05805
1.05902
1.05986
1.06059
1.06115
1.00982
1.00998
1.01006
1.01011
1.01015
1.01025
1.01042
1.01067
1.011
1.01142
1.01192
1.01247
1.01309
1.01379
1.01451
1.01533
1.01621
1.01715
1.01814
1.0192
1.02032
1.02147
1.02267
1.02391
1.02519
1.02651
1.02787
1.02927
1.03069
1.03216
1.03366
1.03519
1.03673
1.03828
1.03984
1.04141
1.04298
1.04456
1.0461
1.04763
1.04914
1.0506
1.05201
1.05337
1.05464
1.05582
1.05692
1.05789
1.05876
1.0595
1.0601
1.00932
1.00952
1.00957
1.0096
1.00962
1.00972
1.00987
1.01008
1.01039
1.01078
1.01126
1.01177
1.01239
1.01298
1.01372
1.01456
1.01554
1.01652
1.01751
1.01855
1.01961
1.02071
1.02185
1.02303
1.02426
1.02555
1.02689
1.02826
1.02968
1.03114
1.03263
1.03415
1.03568
1.03721
1.03877
1.04032
1.04189
1.04345
1.045
1.04652
1.04802
1.04946
1.05085
1.05221
1.05348
1.05466
1.05577
1.05676
1.05763
1.05839
1.05901
1.00874
1.00872
1.00875
1.00884
1.009
1.00911
1.00927
1.00945
1.00971
1.01009
1.01052
1.01107
1.01163
1.01232
1.01305
1.0139
1.01486
1.0158
1.01673
1.0177
1.01874
1.01986
1.02104
1.02222
1.02342
1.02467
1.02597
1.02733
1.02874
1.03018
1.03167
1.03315
1.03467
1.03618
1.03771
1.03926
1.04081
1.04236
1.04389
1.04539
1.04688
1.04834
1.04973
1.05105
1.05233
1.05351
1.05462
1.0556
1.0565
1.05725
1.0579
1.00806
1.00816
1.00801
1.00793
1.00785
1.00798
1.00826
1.00867
1.00906
1.00956
1.01001
1.01053
1.01115
1.01176
1.01248
1.01324
1.01406
1.01494
1.01589
1.01689
1.01795
1.01904
1.02016
1.02135
1.02257
1.02384
1.02514
1.02647
1.02786
1.02927
1.03072
1.03219
1.03367
1.03517
1.03669
1.03823
1.03977
1.0413
1.04282
1.04432
1.04578
1.04721
1.0486
1.04992
1.0512
1.05236
1.05348
1.05446
1.05536
1.05612
1.05679
1.00678
1.00674
1.00676
1.00687
1.00709
1.00741
1.00779
1.00813
1.00852
1.00884
1.00917
1.00965
1.01031
1.01095
1.01174
1.0125
1.01335
1.0142
1.01514
1.01614
1.01718
1.01826
1.01941
1.02056
1.02176
1.02299
1.02428
1.02562
1.02698
1.02837
1.02981
1.03124
1.03271
1.03421
1.03571
1.03722
1.03875
1.04027
1.04177
1.04325
1.04471
1.04612
1.0475
1.0488
1.05007
1.05123
1.05233
1.05332
1.05421
1.05498
1.05564
1.00526
1.00548
1.00576
1.00596
1.00617
1.00635
1.00657
1.00689
1.00727
1.00778
1.00834
1.00898
1.00964
1.01037
1.01102
1.01179
1.0126
1.01357
1.01459
1.0156
1.01659
1.01766
1.01874
1.01987
1.02104
1.02225
1.02351
1.02479
1.02613
1.02749
1.0289
1.03033
1.03178
1.03326
1.03475
1.03625
1.03776
1.03925
1.04075
1.04222
1.04366
1.04506
1.04642
1.04772
1.04896
1.05012
1.0512
1.05219
1.05308
1.05387
1.05455
1.00387
1.00403
1.00424
1.00448
1.00476
1.00514
1.00554
1.00599
1.00649
1.00702
1.00757
1.00817
1.00885
1.00958
1.01033
1.01118
1.01201
1.0129
1.01382
1.01481
1.01582
1.01687
1.01799
1.01911
1.02027
1.02147
1.02274
1.02402
1.02534
1.02669
1.02807
1.02948
1.03091
1.03235
1.03381
1.03531
1.0368
1.03829
1.03976
1.04123
1.04265
1.04403
1.04537
1.04667
1.04789
1.04904
1.05013
1.0511
1.05199
1.05278
1.05346
1.00237
1.00274
1.00308
1.00331
1.00367
1.0041
1.00461
1.00509
1.00559
1.00613
1.00666
1.00727
1.008
1.00876
1.0096
1.01045
1.01133
1.01226
1.01321
1.01417
1.0152
1.01625
1.01734
1.01842
1.01958
1.02077
1.02201
1.02328
1.02457
1.02589
1.02724
1.02863
1.03004
1.0315
1.03297
1.03443
1.03587
1.03731
1.03876
1.04021
1.04164
1.04304
1.04437
1.04566
1.04687
1.04803
1.04909
1.05008
1.05095
1.05176
1.05242
1.00061
1.00101
1.0015
1.00194
1.00244
1.00281
1.00321
1.00368
1.0043
1.00489
1.00564
1.0064
1.00713
1.00803
1.00886
1.00977
1.01069
1.01163
1.01258
1.01358
1.01459
1.01565
1.01672
1.01781
1.01894
1.02011
1.02132
1.02256
1.02385
1.02515
1.02647
1.02782
1.02921
1.03066
1.0321
1.03351
1.03493
1.03638
1.03784
1.03929
1.0407
1.04207
1.04341
1.04468
1.0459
1.04703
1.04811
1.04909
1.04999
1.05078
1.05146
0.998706
0.999283
0.999708
1.00011
1.00056
1.00111
1.00172
1.0024
1.00313
1.00389
1.00465
1.00549
1.00627
1.00723
1.00808
1.00912
1.01006
1.01103
1.01204
1.01301
1.01404
1.01505
1.01611
1.01721
1.01834
1.01949
1.02067
1.02188
1.02312
1.02441
1.0257
1.02705
1.02842
1.02981
1.03123
1.03265
1.0341
1.03551
1.03691
1.03835
1.03976
1.04115
1.04249
1.04377
1.04499
1.04612
1.04719
1.04815
1.04904
1.04983
1.0505
0.996738
0.997173
0.997717
0.998284
0.998919
0.999582
1.00035
1.00131
1.00202
1.00284
1.00365
1.00455
1.00555
1.00655
1.0075
1.00844
1.00934
1.01033
1.01135
1.0124
1.01347
1.01455
1.01561
1.0167
1.0178
1.01893
1.02007
1.02125
1.02247
1.0237
1.02498
1.02629
1.02761
1.02901
1.03037
1.03181
1.0332
1.03464
1.03608
1.0375
1.03889
1.04028
1.0416
1.04288
1.0441
1.04525
1.04632
1.04731
1.04819
1.04901
1.04967
0.994651
0.995215
0.995812
0.996557
0.997358
0.998091
0.998826
0.999671
1.00052
1.00147
1.00248
1.00356
1.00456
1.00565
1.00661
1.00778
1.00892
1.01001
1.01103
1.01205
1.01302
1.01404
1.01508
1.01615
1.01725
1.01835
1.01948
1.02063
1.0218
1.02301
1.02425
1.02554
1.02686
1.02818
1.02955
1.03096
1.03236
1.03378
1.03521
1.03664
1.03804
1.03944
1.04077
1.04207
1.0433
1.04446
1.04553
1.0465
1.04738
1.04819
1.04886
0.992226
0.993008
0.993848
0.994629
0.995488
0.996241
0.997293
0.99825
0.99941
1.00032
1.00137
1.00241
1.00353
1.00464
1.00582
1.00698
1.0082
1.00935
1.0105
1.01156
1.0126
1.01365
1.01469
1.01574
1.01679
1.01785
1.01896
1.02008
1.02121
1.02238
1.02358
1.02482
1.02612
1.02736
1.02875
1.03006
1.03152
1.03292
1.03437
1.03578
1.03723
1.03863
1.03998
1.04129
1.04253
1.04373
1.04482
1.04579
1.04667
1.04744
1.04813
0.990218
0.990943
0.991707
0.992598
0.99344
0.99436
0.995447
0.996553
0.997754
0.999018
1.00021
1.00133
1.0026
1.00379
1.00513
1.0063
1.00751
1.00871
1.00991
1.01107
1.0122
1.01328
1.01434
1.01538
1.01643
1.01743
1.01849
1.01954
1.02063
1.02176
1.02291
1.02415
1.02526
1.02672
1.02768
1.02944
1.03047
1.03216
1.03342
1.03495
1.03636
1.03784
1.03926
1.0406
1.04185
1.04304
1.04414
1.04519
1.04609
1.04691
1.04763
0.988453
0.988904
0.989559
0.99047
0.991454
0.992491
0.993703
0.9949
0.996133
0.9974
0.998861
1.00021
1.00158
1.0028
1.00425
1.00573
1.00713
1.00848
1.00964
1.0108
1.01189
1.01299
1.01407
1.01512
1.01611
1.01708
1.01805
1.01901
1.02001
1.02109
1.0222
1.02331
1.02459
1.02559
1.02728
1.02811
1.03007
1.03078
1.03296
1.03398
1.03569
1.03703
1.03852
1.03993
1.04125
1.0425
1.04365
1.04474
1.04566
1.04636
1.04706
0.988036
0.987577
0.987769
0.988359
0.989262
0.990243
0.991555
0.992742
0.994419
0.995793
0.997286
0.998965
1.00062
1.00215
1.00365
1.00513
1.00657
1.008
1.00935
1.01058
1.01171
1.01278
1.01381
1.01482
1.01578
1.01676
1.01776
1.01866
1.01962
1.0206
1.02164
1.02264
1.02388
1.02469
1.0264
1.02737
1.02855
1.03068
1.03144
1.03364
1.03457
1.03668
1.03786
1.03932
1.0407
1.04196
1.04315
1.04421
1.04522
1.04596
1.04664
0.989053
0.987373
0.986837
0.986977
0.987547
0.9887
0.98951
0.991134
0.992285
0.994403
0.995723
0.997451
0.999342
1.00112
1.00296
1.00462
1.00623
1.00774
1.00916
1.0105
1.01172
1.01283
1.01383
1.01481
1.01569
1.01659
1.0174
1.01818
1.01902
1.01991
1.0208
1.02185
1.02268
1.02414
1.02496
1.02671
1.0278
1.02916
1.03079
1.03248
1.03393
1.03563
1.03724
1.03875
1.04025
1.04157
1.04279
1.04388
1.04482
1.04563
1.04626
0.990425
0.987384
0.986094
0.985713
0.986016
0.986522
0.987978
0.988708
0.990851
0.992296
0.994149
0.995916
0.998021
1.0001
1.00215
1.00407
1.0058
1.00737
1.0089
1.01032
1.0116
1.01276
1.01378
1.01473
1.01556
1.01639
1.01713
1.01783
1.01861
1.01943
1.02014
1.02125
1.02184
1.02318
1.02394
1.02568
1.02649
1.02859
1.02954
1.03182
1.03324
1.03474
1.03639
1.038
1.03962
1.04099
1.04235
1.04348
1.04446
1.04529
1.04596
0.991221
0.987527
0.98557
0.984812
0.984703
0.985519
0.985961
0.987929
0.988916
0.991011
0.992735
0.994676
0.996751
0.998944
1.00118
1.00331
1.00532
1.00704
1.00859
1.01006
1.01143
1.01265
1.0137
1.01465
1.01546
1.01624
1.01686
1.01746
1.01811
1.01875
1.01937
1.02025
1.02093
1.0222
1.02313
1.02416
1.0259
1.02685
1.02928
1.03051
1.03206
1.03454
1.03569
1.03737
1.03908
1.04051
1.04188
1.04315
1.04418
1.04484
1.04541
0.989245
0.986691
0.985336
0.984761
0.984732
0.985473
0.986697
0.988282
0.990586
0.991691
0.995265
0.996045
0.997509
0.999307
1.0012
1.0032
1.00523
1.00705
1.00862
1.00995
1.01109
1.01234
1.01348
1.01453
1.01537
1.01612
1.01662
1.01715
1.0176
1.01813
1.01865
1.01931
1.02007
1.02111
1.02217
1.0233
1.02477
1.02728
1.02823
1.03138
1.0328
1.03436
1.03746
1.03839
1.03989
1.04102
1.04216
1.04328
1.04436
1.04494
1.04502
0.99287
0.997565
0.99719
1.00242
1.00788
1.01435
1.01721
1.02112
1.02314
1.02488
1.02663
1.02142
1.01901
1.01492
1.01176
1.00985
1.00888
1.00901
1.00989
1.01099
1.0119
1.01274
1.01361
1.01454
1.01533
1.01587
1.01637
1.01681
1.01717
1.01744
1.01797
1.01864
1.01983
1.02056
1.02234
1.02427
1.02827
1.02954
1.03379
1.0376
1.04077
1.04262
1.04395
1.04581
1.04566
1.04511
1.04494
1.04503
1.04549
1.04557
1.04523
1.07973
1.12869
1.18183
1.21277
1.24648
1.28064
1.29415
1.31539
1.31299
1.31904
1.26797
1.26941
1.20254
1.14526
1.08297
1.0484
1.03079
1.02122
1.01584
1.01366
1.01342
1.01375
1.01412
1.01484
1.01536
1.01579
1.01603
1.01639
1.01679
1.01719
1.01843
1.01892
1.02092
1.02563
1.02469
1.03659
1.04893
1.05865
1.07187
1.08715
1.09
1.09706
1.09335
1.08427
1.07332
1.06238
1.05412
1.05006
1.04834
1.04692
1.04569
1.53101
1.58035
1.62162
1.65305
1.68197
1.70979
1.72957
1.74488
1.74825
1.73453
1.73189
1.65471
1.66845
1.5318
1.41848
1.23576
1.11046
1.05552
1.03228
1.02208
1.01754
1.01587
1.01559
1.01573
1.01612
1.01605
1.01647
1.01664
1.01704
1.01838
1.02049
1.02497
1.02092
1.0585
1.10134
1.15463
1.22295
1.27527
1.33105
1.35907
1.36488
1.35146
1.34086
1.27639
1.18427
1.1184
1.08374
1.0668
1.05908
1.05158
1.04699
1.69544
1.68749
1.6849
1.68831
1.69964
1.71832
1.74968
1.77061
1.79317
1.80608
1.81442
1.80688
1.81103
1.76433
1.72676
1.53143
1.31023
1.16378
1.08542
1.04695
1.02901
1.02112
1.0181
1.01737
1.01729
1.01721
1.01699
1.01978
1.01927
1.03095
1.02259
1.11239
1.23958
1.37796
1.50223
1.60276
1.66678
1.70015
1.72121
1.72464
1.72527
1.6937
1.664
1.58081
1.47574
1.31283
1.18354
1.10568
1.0671
1.05156
1.04671
1.4482
1.37476
1.34042
1.32223
1.33103
1.3587
1.40558
1.48554
1.57459
1.65753
1.73979
1.79082
1.80294
1.81394
1.77874
1.69804
1.4545
1.24061
1.11878
1.05932
1.03343
1.02332
1.01985
1.01906
1.01893
1.01866
1.02248
1.02098
1.06081
1.17745
1.41362
1.59813
1.72635
1.78959
1.8145
1.81723
1.81395
1.81951
1.8281
1.84051
1.85664
1.85435
1.83645
1.78833
1.67712
1.4224
1.19927
1.10088
1.06009
1.04784
1.04708
1.07572
1.0724
1.07632
1.08136
1.08335
1.08773
1.10304
1.13123
1.20034
1.30388
1.46029
1.62464
1.75013
1.79256
1.78393
1.67873
1.43884
1.22248
1.10777
1.05424
1.03185
1.0235
1.02131
1.02116
1.02135
1.02672
1.06502
1.26632
1.55459
1.75599
1.84165
1.85947
1.84555
1.79681
1.76398
1.74342
1.74633
1.76032
1.79144
1.82362
1.85375
1.88538
1.89294
1.84232
1.68099
1.38492
1.16268
1.06873
1.05094
1.05431
1.10378
1.02955
1.0515
1.07585
1.08593
1.07912
1.06757
1.06233
1.07131
1.09609
1.16299
1.36512
1.60154
1.73982
1.7761
1.74744
1.60474
1.33057
1.15379
1.06903
1.03557
1.02483
1.02307
1.02346
1.02766
1.07867
1.35583
1.6844
1.855
1.89728
1.88295
1.82194
1.69534
1.57858
1.48527
1.43017
1.42026
1.43898
1.49034
1.57606
1.67725
1.80693
1.89376
1.88481
1.82675
1.59343
1.22368
1.08064
1.06221
1.08182
1.22476
1.64611
1.09273
1.1814
1.24998
1.26954
1.23768
1.16511
1.09812
1.09421
1.13883
1.26204
1.51021
1.67392
1.74261
1.72389
1.6063
1.34034
1.1366
1.05719
1.0303
1.02464
1.02564
1.03652
1.15
1.44225
1.72693
1.89828
1.92496
1.88798
1.77633
1.55402
1.34599
1.21603
1.15045
1.13409
1.14343
1.18167
1.2253
1.29793
1.44051
1.6332
1.81768
1.87579
1.86623
1.63127
1.28483
1.10049
1.08088
1.13686
1.43775
1.80492
1.94015
1.14677
1.25808
1.34762
1.37712
1.38197
1.35145
1.31584
1.32073
1.44968
1.56237
1.63199
1.66407
1.62829
1.49665
1.22369
1.08706
1.04071
1.02983
1.03123
1.0528
1.16581
1.44637
1.79616
1.92814
1.94407
1.89269
1.75076
1.4858
1.22749
1.10314
1.06437
1.06566
1.10326
1.1329
1.14199
1.17144
1.21407
1.30345
1.46095
1.71537
1.78972
1.84828
1.61263
1.296
1.12568
1.11192
1.21281
1.567
1.88879
1.93676
1.93497
1.14819
1.26333
1.3499
1.40793
1.42816
1.45666
1.47513
1.49799
1.52761
1.54275
1.52452
1.44827
1.21979
1.09259
1.05653
1.03824
1.04106
1.06655
1.16417
1.49904
1.78353
1.9152
1.96068
1.91033
1.76229
1.51264
1.22649
1.0812
1.04681
1.05824
1.12076
1.21502
1.25266
1.25631
1.22816
1.22892
1.27358
1.44121
1.66135
1.70671
1.76199
1.48236
1.25838
1.16115
1.15377
1.32179
1.64595
1.94117
1.96104
1.95333
1.86287
1.0329
1.08822
1.1759
1.25904
1.29501
1.33832
1.35051
1.35099
1.30082
1.23208
1.14642
1.05451
1.05893
1.04773
1.05706
1.09176
1.20983
1.52042
1.76772
1.91255
1.9523
1.92119
1.80852
1.57843
1.31341
1.10753
1.05569
1.05253
1.09635
1.19151
1.32445
1.39183
1.41405
1.40675
1.40943
1.4137
1.49353
1.60573
1.64746
1.69636
1.34085
1.23357
1.21802
1.24722
1.41666
1.73322
1.98069
1.98352
1.98354
1.94179
1.86443
1.00248
1.01016
1.02274
1.03804
1.05374
1.05727
1.06386
1.05712
1.04857
1.04717
1.05026
1.05548
1.08337
1.13709
1.28459
1.59092
1.78784
1.91927
1.94169
1.94739
1.85623
1.67976
1.43636
1.19873
1.07841
1.0541
1.05634
1.0963
1.17978
1.29524
1.39083
1.44647
1.44549
1.46167
1.46569
1.49089
1.5298
1.56895
1.49514
1.31748
1.23392
1.24878
1.30899
1.52239
1.91528
1.93794
2.01444
2.00961
2.00022
1.96329
1.95646
1.0095
1.00997
1.00955
1.0133
1.01494
1.02269
1.02864
1.04389
1.05783
1.09314
1.14666
1.26564
1.475
1.67212
1.85204
1.88557
1.95483
1.96144
1.90791
1.78768
1.59138
1.38425
1.16954
1.07488
1.05299
1.05036
1.06896
1.11693
1.19835
1.29329
1.40333
1.40844
1.44782
1.43827
1.44732
1.45214
1.42462
1.32846
1.29193
1.26376
1.28201
1.34237
1.66007
1.96347
1.97661
2.01628
2.02857
2.02432
2.02122
2.01539
2.01317
1.09096
1.09211
1.09142
1.09588
1.11081
1.13491
1.1773
1.24086
1.33687
1.47432
1.6477
1.78696
1.9146
1.92087
1.96071
1.97013
1.95569
1.8739
1.75092
1.58048
1.40268
1.2029
1.09357
1.05721
1.05197
1.05275
1.06814
1.10549
1.15967
1.22057
1.25691
1.31437
1.30258
1.31069
1.30418
1.28002
1.26704
1.25569
1.2809
1.30616
1.54371
1.931
1.88362
2.01177
2.01227
2.03125
2.03344
2.03199
2.03035
2.02884
2.02704
1.37279
1.37686
1.40314
1.43929
1.49209
1.55472
1.62565
1.71406
1.79589
1.86827
1.9411
1.9551
1.97831
1.9884
1.98537
1.94748
1.87953
1.76918
1.63848
1.47415
1.30078
1.14471
1.07074
1.06448
1.0558
1.05801
1.06709
1.0899
1.11485
1.14274
1.16698
1.1918
1.20786
1.22886
1.24372
1.25801
1.27772
1.32694
1.53396
1.88674
1.78049
1.98524
1.97749
2.02337
2.02636
2.03162
2.03133
2.03045
2.02876
2.02792
2.02511
1.73017
1.74028
1.76032
1.78482
1.82231
1.86106
1.89132
1.92992
1.9626
1.97135
1.98792
2.00331
2.0057
1.99631
1.96544
1.91157
1.83306
1.724
1.58802
1.4266
1.2638
1.13512
1.07594
1.07321
1.06764
1.06653
1.07768
1.09525
1.1194
1.14056
1.16595
1.19164
1.21849
1.24996
1.28968
1.35324
1.5294
1.8331
1.78464
1.94061
1.92519
2.00866
2.00942
2.02493
2.02677
2.02734
2.0269
2.02564
2.02409
2.02245
2.02029
1.88923
1.89904
1.91243
1.92645
1.94535
1.96047
1.97374
1.98548
1.99865
2.00934
2.01683
2.01986
2.01306
1.99641
1.96162
1.9081
1.82952
1.72261
1.58838
1.43709
1.28876
1.15599
1.12251
1.08903
1.09174
1.09134
1.10061
1.12188
1.14852
1.17775
1.2147
1.26243
1.33042
1.43861
1.5689
1.74108
1.8109
1.95688
1.91844
1.98267
1.99906
2.01264
2.02214
2.02293
2.02267
2.02276
2.02202
2.02058
2.0192
2.01677
2.01473
1.94759
1.95591
1.96285
1.97173
1.98039
1.98967
1.9989
2.00945
2.01765
2.02509
2.03055
2.03087
2.02533
2.00991
1.98108
1.93662
1.86901
1.77907
1.66419
1.53447
1.40401
1.29095
1.1961
1.18532
1.17592
1.17132
1.19076
1.23783
1.29888
1.36683
1.45145
1.55099
1.65966
1.75886
1.84629
1.90688
1.97146
1.96669
2.00247
2.00381
2.01621
2.01717
2.01903
2.01731
2.01824
2.01746
2.01661
2.01535
2.01398
2.01201
2.00927
1.96623
1.97294
1.97924
1.98662
1.99511
2.00274
2.01258
2.02109
2.0304
2.03695
2.04275
2.04483
2.0437
2.03522
2.01686
1.98521
1.9376
1.8701
1.78547
1.68705
1.58803
1.50595
1.42989
1.42799
1.41033
1.41305
1.46383
1.53576
1.60474
1.669
1.74685
1.81714
1.88585
1.93355
1.96791
1.99867
1.99497
2.0136
2.01079
2.01452
2.01515
2.01471
2.01338
2.01378
2.01313
2.01295
2.01224
2.01104
2.00962
2.00705
2.00394
1.97428
1.98019
1.98795
1.99406
2.00485
2.00897
2.02246
2.02726
2.04119
2.04541
2.05506
2.05952
2.06221
2.06008
2.05094
2.03389
2.00401
1.96222
1.90769
1.84377
1.77855
1.72439
1.69523
1.67673
1.6695
1.68763
1.7408
1.79579
1.84206
1.8835
1.92973
1.96398
1.99485
2.00665
2.01355
2.01995
2.01424
2.01784
2.01367
2.01315
2.0114
2.01015
2.0094
2.00871
2.00825
2.00766
2.0067
2.00533
2.00338
2.00091
1.99771
1.97756
1.98398
1.99145
1.99915
2.00737
2.01722
2.02572
2.03664
2.04512
2.05607
2.06425
2.07274
2.07816
2.08118
2.08023
2.07395
2.0595
2.03911
2.00853
1.97461
1.93853
1.91233
1.89108
1.88386
1.87899
1.90233
1.93519
1.96285
1.98312
2.00151
2.01898
2.02948
2.03465
2.03137
2.02857
2.0245
2.02043
2.01532
2.01216
2.00908
2.00675
2.00485
2.00352
2.00255
2.00165
2.00092
1.99983
1.99829
1.99666
1.99408
1.9909
1.97845
1.98566
1.99358
2.00195
2.0111
2.02083
2.0313
2.04205
2.0524
2.06333
2.07388
2.08346
2.09248
2.09899
2.10305
2.10409
2.1012
2.0935
2.0823
2.06611
2.05138
2.03297
2.02892
2.01953
2.02129
2.0338
2.04548
2.05431
2.05673
2.05958
2.05909
2.05634
2.04918
2.04076
2.03293
2.02515
2.01997
2.01182
2.00746
2.00309
2.00007
1.99753
1.99587
1.99436
1.99296
1.99184
1.99025
1.98958
1.98693
1.98517
1.98164
1.97899
1.9869
1.99504
2.00448
2.01366
2.02453
2.03497
2.04641
2.0583
2.07014
2.08172
2.09349
2.10391
2.11379
2.12064
2.127
2.12942
2.13109
2.12831
2.12365
2.11816
2.11323
2.1081
2.10408
2.10525
2.10602
2.10577
2.1014
2.09402
2.08649
2.07692
2.06645
2.05428
2.04339
2.033
2.02377
2.01497
2.0071
2.0002
1.99504
1.99108
1.98802
1.98589
1.98415
1.98332
1.98235
1.98145
1.98035
1.97857
1.97649
1.97322
1.97843
1.98659
1.99566
2.00521
2.01556
2.02677
2.03824
2.05053
2.06301
2.07583
2.08884
2.1013
2.11369
2.12475
2.13514
2.14389
2.15115
2.15678
2.1597
2.16162
2.16077
2.16003
2.15733
2.1539
2.1514
2.14504
2.13761
2.12591
2.11331
2.1
2.08632
2.07253
2.05773
2.04444
2.03165
2.02122
2.00866
1.99917
1.99152
1.98453
1.97966
1.97561
1.97301
1.97115
1.97006
1.96844
1.96708
1.96532
1.96279
1.95999
1.95566
1.9774
1.98596
1.99556
2.00542
2.01649
2.02854
2.04106
2.05383
2.06604
2.08246
2.09324
2.10985
2.12126
2.13533
2.14671
2.15838
2.16731
2.17507
2.18137
2.18571
2.18801
2.18816
2.18677
2.18252
2.17685
2.16728
2.15607
2.14205
2.12708
2.11109
2.09456
2.07751
2.06074
2.04469
2.02923
2.01397
2.0033
1.98869
1.97895
1.97013
1.96422
1.95997
1.95783
1.95598
1.95577
1.95481
1.95409
1.95277
1.9512
1.94938
1.94559
1.97562
1.98481
1.9948
2.00566
2.01695
2.02987
2.04272
2.05659
2.07072
2.08536
2.09985
2.11543
2.12909
2.14367
2.15672
2.16954
2.18015
2.19035
2.19811
2.20264
2.20657
2.20745
2.20613
2.20175
2.19567
2.18507
2.17237
2.15622
2.13895
2.12025
2.10096
2.0814
2.062
2.04336
2.02491
2.01019
1.99109
1.97938
1.96545
1.95696
1.95176
1.94912
1.94915
1.95075
1.95405
1.95665
1.95831
1.95914
1.96083
1.96099
1.9617
1.06506
1.06513
1.06501
1.06462
1.06402
1.06323
1.06225
1.06107
1.05966
1.05806
1.05626
1.05429
1.05214
1.0498
1.04734
1.04474
1.04202
1.03921
1.03627
1.03329
1.03019
1.02707
1.02391
1.02066
1.01751
1.0142
1.06431
1.06441
1.06436
1.064
1.06355
1.0628
1.06186
1.06077
1.05944
1.0579
1.05618
1.05428
1.0522
1.04994
1.04753
1.04498
1.04233
1.03954
1.03667
1.0337
1.03067
1.02758
1.02449
1.02124
1.01818
1.01488
1.06346
1.06359
1.06361
1.06332
1.06294
1.06224
1.0614
1.06036
1.05912
1.05766
1.05601
1.05418
1.05218
1.05
1.04767
1.04519
1.04259
1.03989
1.03708
1.0342
1.03121
1.02821
1.02517
1.02202
1.019
1.01575
1.06254
1.06272
1.06278
1.0626
1.06223
1.06162
1.06087
1.05989
1.05872
1.05735
1.05579
1.05405
1.05212
1.05005
1.0478
1.0454
1.0429
1.04025
1.03755
1.03473
1.03186
1.02893
1.02594
1.02295
1.0199
1.01686
1.06157
1.06179
1.0619
1.06179
1.06147
1.06094
1.06025
1.05937
1.05827
1.05699
1.05552
1.05386
1.05204
1.05004
1.04791
1.04562
1.0432
1.04066
1.03805
1.03533
1.03255
1.02973
1.02683
1.02397
1.02101
1.01808
1.06055
1.06082
1.06095
1.06091
1.06065
1.06019
1.05957
1.05877
1.05776
1.05658
1.0552
1.05364
1.05191
1.05002
1.04798
1.0458
1.0435
1.04107
1.03857
1.03596
1.03331
1.0306
1.02785
1.02508
1.02224
1.01942
1.05948
1.0598
1.05996
1.05998
1.05978
1.0594
1.05884
1.05811
1.0572
1.05609
1.05481
1.05336
1.05173
1.04996
1.04802
1.04598
1.0438
1.0415
1.03912
1.03665
1.0341
1.03151
1.02885
1.02622
1.02355
1.02089
1.0584
1.05874
1.05893
1.05899
1.05886
1.05853
1.05805
1.05741
1.05657
1.05557
1.05438
1.05304
1.05152
1.04987
1.04805
1.04613
1.04407
1.04191
1.03966
1.03732
1.03493
1.0325
1.03
1.02752
1.02497
1.02245
1.0573
1.05767
1.0579
1.05799
1.05791
1.05765
1.05723
1.05665
1.05591
1.055
1.05392
1.05267
1.05128
1.04973
1.04804
1.04623
1.0443
1.04228
1.04017
1.03799
1.03575
1.03347
1.03116
1.02882
1.02647
1.02409
1.05618
1.05659
1.05684
1.05697
1.05694
1.05673
1.05637
1.05588
1.0552
1.05439
1.05339
1.05225
1.05097
1.04956
1.04798
1.0463
1.0445
1.04264
1.04067
1.03865
1.03657
1.03446
1.03232
1.03016
1.02798
1.02577
1.05509
1.05552
1.05579
1.05595
1.05596
1.05583
1.05552
1.05508
1.05452
1.05373
1.05285
1.05181
1.05061
1.04929
1.04787
1.04631
1.04465
1.04293
1.04113
1.03927
1.03736
1.03541
1.03345
1.03149
1.0295
1.02753
1.05402
1.05446
1.05477
1.05494
1.05498
1.05489
1.05464
1.05425
1.05375
1.05302
1.05226
1.05129
1.0502
1.04902
1.04769
1.04626
1.04475
1.04316
1.04149
1.03981
1.03809
1.03634
1.03457
1.03277
1.03101
1.02922
1.05298
1.05341
1.05374
1.05395
1.054
1.05394
1.05374
1.05341
1.05297
1.05232
1.05161
1.05072
1.04974
1.04865
1.04743
1.04613
1.04474
1.04331
1.04175
1.04027
1.0387
1.03716
1.03558
1.03401
1.03249
1.03094
1.05203
1.05245
1.0528
1.05299
1.05306
1.05302
1.05286
1.05256
1.05215
1.05159
1.05094
1.05011
1.04923
1.0482
1.04708
1.04587
1.04461
1.04327
1.04194
1.04053
1.03921
1.03782
1.03654
1.03521
1.03389
1.03255
1.05107
1.05153
1.05187
1.05209
1.05217
1.05214
1.052
1.05174
1.05135
1.0509
1.0502
1.04951
1.04862
1.04765
1.04665
1.04547
1.04434
1.04308
1.04192
1.04066
1.03948
1.03833
1.03727
1.03624
1.03514
1.03413
1.0502
1.05062
1.05095
1.05118
1.05126
1.05127
1.05114
1.05092
1.05057
1.0501
1.04945
1.04876
1.04793
1.04696
1.04603
1.0449
1.04387
1.04271
1.04166
1.0406
1.03959
1.0386
1.03792
1.03696
1.03626
1.03554
1.04942
1.04981
1.05014
1.05037
1.0505
1.05049
1.05036
1.05009
1.04969
1.04921
1.04857
1.04799
1.0471
1.04622
1.04523
1.04416
1.04318
1.0421
1.04117
1.04022
1.03945
1.03866
1.03814
1.03753
1.03705
1.03663
1.04867
1.0491
1.04941
1.04965
1.04975
1.04975
1.04956
1.04933
1.04891
1.04844
1.04782
1.04695
1.04602
1.04525
1.04431
1.04338
1.04252
1.04159
1.04073
1.04008
1.03944
1.03901
1.03849
1.03813
1.03795
1.03801
1.04814
1.04855
1.04875
1.04897
1.049
1.04899
1.04878
1.04851
1.04798
1.04751
1.04684
1.04617
1.04557
1.04438
1.04348
1.04295
1.04266
1.04257
1.04223
1.04255
1.04288
1.04262
1.04231
1.04222
1.0418
1.04141
1.04755
1.04794
1.04813
1.04829
1.04832
1.04824
1.04799
1.04768
1.04722
1.04668
1.046
1.0454
1.04599
1.04418
1.04604
1.04793
1.05024
1.05477
1.05897
1.06383
1.06838
1.06864
1.06894
1.0659
1.06315
1.05953
1.04712
1.04749
1.04766
1.04771
1.04773
1.04761
1.04726
1.04696
1.04647
1.04591
1.04623
1.04541
1.05198
1.04942
1.06561
1.0881
1.08832
1.12538
1.15804
1.18509
1.20864
1.21045
1.19894
1.2019
1.1656
1.13683
1.04682
1.04717
1.04725
1.04719
1.04699
1.04684
1.04641
1.04627
1.04632
1.04575
1.05039
1.05025
1.08438
1.08366
1.16319
1.24904
1.36509
1.46239
1.53978
1.58244
1.62283
1.62544
1.62727
1.58182
1.58816
1.49178
1.04647
1.04681
1.04691
1.04676
1.04659
1.0463
1.04602
1.04583
1.04849
1.04844
1.07126
1.11296
1.19219
1.39688
1.56753
1.67032
1.73059
1.75241
1.76962
1.77913
1.79262
1.80475
1.8077
1.80483
1.79525
1.77649
1.04583
1.04612
1.04608
1.04585
1.04553
1.04538
1.0457
1.04981
1.05451
1.09874
1.18869
1.44969
1.65892
1.75612
1.79511
1.78686
1.77995
1.74074
1.70818
1.69978
1.70648
1.7205
1.7515
1.78544
1.8011
1.809
1.04499
1.04501
1.04493
1.04487
1.04492
1.04528
1.0539
1.06291
1.15742
1.38883
1.67439
1.80204
1.82807
1.79898
1.75557
1.6046
1.45279
1.36601
1.30371
1.29916
1.31473
1.34225
1.42113
1.55447
1.69286
1.77764
1.04497
1.045
1.04487
1.04513
1.04532
1.05819
1.07835
1.2607
1.61637
1.82131
1.86853
1.83909
1.73192
1.513
1.26622
1.16744
1.14777
1.14867
1.15804
1.16993
1.18261
1.20044
1.23669
1.30723
1.49103
1.69178
1.0452
1.0452
1.04526
1.0468
1.05614
1.11339
1.41557
1.76613
1.90011
1.88991
1.7865
1.52422
1.20475
1.1041
1.09104
1.09786
1.13551
1.20979
1.25811
1.25904
1.23262
1.22465
1.25713
1.36232
1.57994
1.73618
1.04564
1.04578
1.04733
1.0618
1.17488
1.61614
1.89431
1.93694
1.87047
1.63653
1.26016
1.09758
1.05721
1.06081
1.09472
1.19593
1.34011
1.4312
1.46993
1.47619
1.43562
1.42011
1.49147
1.60919
1.68793
1.72208
1.04639
1.04805
1.07397
1.33266
1.82896
1.98669
1.95456
1.77353
1.42934
1.14049
1.05542
1.04117
1.04982
1.08398
1.16027
1.28381
1.4223
1.4749
1.50214
1.5072
1.51534
1.53141
1.5649
1.5862
1.57658
1.51366
1.05261
1.1421
1.66458
1.96335
1.98888
1.87393
1.6197
1.29517
1.08829
1.04194
1.03605
1.03981
1.05493
1.07033
1.08542
1.1277
1.19966
1.28194
1.32882
1.36356
1.36682
1.37273
1.33558
1.28031
1.20228
1.10144
1.44375
1.83459
1.98412
1.9427
1.78016
1.5068
1.2084
1.06955
1.03837
1.03345
1.03092
1.03114
1.03403
1.03796
1.04242
1.04972
1.06617
1.06503
1.08771
1.08881
1.09559
1.09277
1.08323
1.08106
1.08246
1.08613
1.923
1.96992
1.89228
1.69195
1.43288
1.18182
1.06945
1.03946
1.03348
1.0306
1.02878
1.02873
1.02958
1.02957
1.03052
1.0331
1.03659
1.04178
1.04877
1.06026
1.06453
1.08819
1.09348
1.13093
1.18166
1.29171
1.9526
1.85561
1.64256
1.41991
1.19069
1.08044
1.04676
1.04108
1.03715
1.03677
1.04059
1.04712
1.05508
1.06525
1.07903
1.09699
1.11751
1.14445
1.18017
1.22816
1.29872
1.38157
1.48164
1.6086
1.748
1.89476
1.81184
1.61656
1.43334
1.25781
1.11417
1.08738
1.06921
1.06883
1.07901
1.1039
1.14638
1.21252
1.30713
1.39367
1.47944
1.55801
1.62096
1.68546
1.74316
1.7974
1.83763
1.88695
1.93646
1.98286
2.03076
2.04538
1.72417
1.58377
1.42939
1.25476
1.24185
1.21205
1.24193
1.31221
1.41957
1.55738
1.67342
1.77548
1.81971
1.86802
1.92141
1.91771
1.9587
1.9567
1.98274
1.98786
2.00633
2.0172
2.03148
2.0462
2.05766
2.07248
1.78572
1.71734
1.66306
1.65208
1.65235
1.68509
1.73224
1.79756
1.86628
1.91938
1.95173
1.98295
1.97547
1.99645
1.98978
1.99932
1.99736
2.00199
2.00541
2.01093
2.01751
2.02618
2.0356
2.04622
2.057
2.06837
1.94294
1.93011
1.92079
1.92078
1.92747
1.93889
1.95866
1.97798
1.9931
1.99944
2.00225
2.00098
1.99837
1.99651
1.99555
1.99345
1.9941
1.99592
1.99907
2.00479
2.01139
2.02
2.02978
2.04035
2.05143
2.06255
2.00934
2.00539
2.00339
2.0029
2.00335
2.00438
2.00662
2.00658
2.00549
2.00165
1.99797
1.99319
1.9895
1.98607
1.98326
1.98307
1.98331
1.98566
1.98964
1.99573
2.00353
2.01278
2.02319
2.03423
2.04568
2.05702
2.02476
2.02152
2.01914
2.01558
2.0131
2.00949
2.00614
2.00185
1.99738
1.99239
1.98743
1.98255
1.97808
1.97439
1.97273
1.97167
1.97243
1.97488
1.97944
1.98589
1.99418
2.0039
2.01505
2.02691
2.0389
2.05089
2.0225
2.01924
2.0155
2.0116
2.00736
2.00277
1.99794
1.99269
1.98753
1.98194
1.97671
1.97153
1.96642
1.96352
1.96009
1.95984
1.96061
1.96336
1.96832
1.97549
1.98418
1.99467
2.00645
2.01886
2.03132
2.04381
2.01685
2.01373
2.00951
2.00492
2.00031
1.9948
1.98948
1.98341
1.9776
1.97124
1.96532
1.95946
1.95405
1.95037
1.94639
1.94651
1.94721
1.94983
1.95475
1.96249
1.97186
1.98344
1.99626
2.00992
2.02359
2.03661
2.01097
2.00734
2.00297
1.99806
1.99277
1.98729
1.98092
1.97471
1.96775
1.96092
1.95396
1.94755
1.94141
1.93652
1.93338
1.93186
1.93241
1.93463
1.94084
1.94737
1.95865
1.97037
1.98473
1.99937
2.01464
2.02899
2.00663
2.00228
1.9977
1.99252
1.98665
1.98037
1.97357
1.96625
1.95873
1.951