/*--------------------------------*- C++ -*----------------------------------*\
  =========                 |
  \\      /  F ield         | OpenFOAM: The Open Source CFD Toolbox
   \\    /   O peration     | Website:  https://openfoam.org
    \\  /    A nd           | Version:  11
     \\/     M anipulation  |
\*---------------------------------------------------------------------------*/
FoamFile
{
    format      ascii;
    class       volScalarField;
    location    "5.5";
    object      mag(U);
}
// * * * * * * * * * * * * * * * * * * * * * * * * * * * * * * * * * * * * * //

dimensions      [0 1 -1 0 0 0 0];

internalField   nonuniform List<scalar> 
9600
(
0.97015
0.96638
0.963968
0.960921
0.954697
0.94898
0.947874
0.948418
0.943767
0.936642
0.934702
0.936257
0.939506
0.942149
0.935845
0.905631
0.885265
0.879508
0.878879
0.880948
0.893611
0.910435
0.920905
0.930473
0.942465
0.958542
0.982487
1.02224
1.08285
1.15647
1.21225
1.2278
1.22211
1.2042
1.15953
1.09601
1.0471
1.01346
0.995008
0.962849
0.972817
0.971488
0.969676
0.968555
0.967408
0.96488
0.962544
0.961535
0.9609
0.960196
0.96062
0.962041
0.965606
0.971819
0.973606
0.971668
0.97028
0.969595
0.968807
0.968043
0.969111
0.976417
0.984351
0.987017
0.991596
1.00241
1.02038
1.04817
1.09432
1.15904
1.22713
1.27221
1.28307
1.27406
1.24232
1.184
1.14346
1.09586
1.07534
1.0327
0.971898
0.970665
0.968652
0.967459
0.966623
0.964816
0.962312
0.961372
0.961727
0.962163
0.962184
0.963189
0.965848
0.971097
0.979714
0.984581
0.984857
0.981924
0.979572
0.97785
0.97878
0.986346
0.99307
0.993009
0.993898
1.00118
1.01966
1.04677
1.08777
1.14658
1.21558
1.26711
1.2819
1.27821
1.25893
1.20542
1.15746
1.1081
1.08386
1.04593
0.971792
0.970477
0.968115
0.966746
0.965679
0.963329
0.961036
0.960642
0.961083
0.961113
0.961317
0.962975
0.966087
0.971481
0.982387
0.990709
0.995939
0.998512
0.999631
1.0025
1.00576
1.00832
1.01119
1.00963
1.00779
1.00882
1.0182
1.04357
1.0809
1.13159
1.19483
1.25631
1.2926
1.29568
1.27779
1.226
1.18169
1.12884
1.10491
1.06272
0.971216
0.970064
0.967799
0.966215
0.964668
0.962566
0.961004
0.960427
0.960832
0.96163
0.9629
0.964525
0.967401
0.971403
0.980753
0.99545
1.007
1.01241
1.01626
1.01992
1.01909
1.01607
1.01452
1.01237
1.00924
1.00908
1.01702
1.03931
1.07574
1.12409
1.18424
1.24661
1.29156
1.30333
1.29047
1.24471
1.1971
1.14167
1.11474
1.07028
0.970922
0.969647
0.967286
0.965327
0.96344
0.962166
0.960237
0.959556
0.960036
0.961064
0.962215
0.964507
0.967888
0.972482
0.982533
0.99857
1.01002
1.01685
1.02229
1.02782
1.03034
1.02886
1.02632
1.02175
1.01722
1.01413
1.01724
1.03261
1.06581
1.11174
1.16908
1.23127
1.28728
1.31389
1.30843
1.26805
1.21798
1.15794
1.1282
1.08254
0.970198
0.968921
0.966613
0.964466
0.962955
0.961472
0.95953
0.959258
0.959812
0.961137
0.963063
0.965518
0.968792
0.973828
0.984657
0.999751
1.01189
1.02194
1.02995
1.03568
1.03726
1.03533
1.03053
1.02416
1.01857
1.01384
1.01557
1.02801
1.05709
1.10089
1.15847
1.21752
1.28115
1.31948
1.32573
1.29049
1.24276
1.17858
1.14722
1.09732
0.969681
0.968409
0.965982
0.963655
0.962156
0.960376
0.958816
0.958833
0.959667
0.96098
0.962657
0.965549
0.969266
0.975568
0.986076
1.00074
1.0142
1.02546
1.034
1.0388
1.04038
1.03899
1.03574
1.02864
1.02229
1.01641
1.01554
1.02319
1.04651
1.08478
1.14348
1.2031
1.27159
1.31989
1.34313
1.31688
1.27416
1.20589
1.16877
1.11145
0.968901
0.967521
0.965031
0.96288
0.96153
0.959533
0.958467
0.958794
0.959711
0.960873
0.962924
0.966434
0.970249
0.977439
0.987947
1.00192
1.01528
1.02718
1.03748
1.04329
1.04402
1.04209
1.03739
1.02936
1.02213
1.01465
1.01388
1.01706
1.03854
1.07146
1.12859
1.18905
1.26168
1.31711
1.35605
1.33907
1.30241
1.23118
1.18954
1.12547
0.968185
0.96684
0.964358
0.962395
0.960569
0.958566
0.95803
0.958478
0.959452
0.960573
0.963062
0.966872
0.970795
0.978987
0.989316
1.00211
1.01601
1.03007
1.04166
1.04769
1.04725
1.04403
1.03884
1.03032
1.02205
1.01331
1.01081
1.01264
1.0275
1.05408
1.1084
1.16975
1.24662
1.31078
1.36457
1.364
1.33979
1.26896
1.22361
1.15391
0.967168
0.965782
0.96353
0.961574
0.959673
0.958002
0.95793
0.958238
0.959394
0.960654
0.963107
0.967687
0.972065
0.979412
0.990368
1.00425
1.01772
1.03131
1.04231
1.05108
1.05243
1.04925
1.04226
1.03082
1.02038
1.00852
1.00443
1.00096
1.01529
1.03605
1.08496
1.14372
1.22625
1.29779
1.36926
1.38548
1.37543
1.30386
1.25481
1.17122
0.966496
0.965029
0.962961
0.960764
0.958783
0.957414
0.957305
0.957835
0.958915
0.960347
0.963407
0.967829
0.972936
0.98029
0.991998
1.00513
1.01815
1.03265
1.04482
1.05498
1.05692
1.05338
1.04504
1.0322
1.0202
1.00461
0.997649
0.992055
1.00094
1.01402
1.0558
1.10924
1.1931
1.27211
1.36188
1.40164
1.41252
1.35092
1.30123
1.20813
0.965439
0.963931
0.962059
0.959607
0.958111
0.956749
0.956925
0.957528
0.958681
0.960685
0.963802
0.967942
0.97461
0.982348
0.991808
1.00522
1.02
1.03528
1.04714
1.05589
1.06037
1.05819
1.05113
1.03664
1.02223
1.00212
0.991006
0.978324
0.983586
0.989372
1.02646
1.06853
1.15491
1.23368
1.34085
1.4027
1.44714
1.39724
1.35282
1.24356
0.964544
0.963014
0.961172
0.958781
0.957223
0.956258
0.95614
0.956806
0.958559
0.960232
0.963874
0.968803
0.975114
0.98361
0.99281
1.00609
1.0219
1.03631
1.04873
1.05834
1.06385
1.06304
1.05622
1.04089
1.02585
1.00292
0.987563
0.971058
0.971358
0.967532
0.996533
1.02839
1.11226
1.18888
1.30749
1.38552
1.46623
1.44537
1.41377
1.29745
0.963434
0.961901
0.960123
0.957856
0.956269
0.955754
0.955576
0.956289
0.958542
0.960179
0.964266
0.970081
0.975491
0.98515
0.994864
1.00723
1.02246
1.0377
1.05124
1.06148
1.06634
1.06484
1.06036
1.04721
1.03175
1.00729
0.989449
0.965191
0.960465
0.946123
0.970669
0.989009
1.0715
1.14275
1.27738
1.35416
1.47077
1.48165
1.47633
1.35732
0.962342
0.960771
0.959101
0.957035
0.955567
0.954555
0.955428
0.955498
0.957515
0.960749
0.963829
0.970532
0.976776
0.986007
0.995925
1.00837
1.02325
1.03936
1.05292
1.0639
1.06954
1.06872
1.06418
1.05182
1.03741
1.01215
0.991837
0.962914
0.954242
0.93272
0.948778
0.954752
1.02912
1.09294
1.23824
1.31949
1.46587
1.49887
1.54129
1.42457
0.961207
0.959561
0.958067
0.956283
0.954605
0.953997
0.954742
0.955386
0.957311
0.960267
0.964052
0.97153
0.978107
0.988143
0.997001
1.00997
1.02531
1.04168
1.05518
1.06704
1.0749
1.07407
1.06822
1.05596
1.04171
1.01535
0.995823
0.962654
0.950635
0.920799
0.93099
0.925285
0.983146
1.03851
1.17835
1.26785
1.45167
1.49253
1.60005
1.49725
0.959912
0.958166
0.956911
0.954938
0.953965
0.952782
0.953174
0.955399
0.956646
0.960059
0.963607
0.971435
0.979512
0.989992
0.998684
1.01181
1.02608
1.04341
1.05853
1.07118
1.07885
1.0791
1.07465
1.06006
1.04699
1.02008
0.999763
0.9632
0.948997
0.914918
0.914765
0.904072
0.933521
0.983972
1.08976
1.19125
1.3854
1.45616
1.6315
1.5719
0.958757
0.95705
0.955604
0.954147
0.953244
0.952154
0.952695
0.95464
0.956454
0.960473
0.963719
0.972147
0.97998
0.99133
1.00261
1.01512
1.02891
1.04606
1.06266
1.07515
1.08502
1.08537
1.08302
1.06722
1.05505
1.02629
1.00644
0.967609
0.949995
0.914178
0.897889
0.891711
0.882919
0.940548
0.987894
1.10564
1.24265
1.41097
1.59767
1.62488
0.957152
0.955268
0.954026
0.952525
0.951302
0.951536
0.951065
0.953436
0.95551
0.959936
0.964328
0.972144
0.98146
0.992059
1.0038
1.01787
1.03357
1.0493
1.06574
1.07708
1.08937
1.08986
1.09012
1.07477
1.06385
1.03481
1.01506
0.976232
0.950349
0.921378
0.884131
0.883749
0.845937
0.900458
0.896151
1.00158
1.1209
1.37779
1.4845
1.61354
0.955596
0.954133
0.952604
0.951591
0.950181
0.950601
0.950834
0.953378
0.955142
0.959516
0.965156
0.972545
0.983886
0.994744
1.007
1.02163
1.03814
1.05322
1.07317
1.08298
1.0949
1.09516
1.09772
1.08279
1.07322
1.04481
1.02426
0.991058
0.953212
0.930234
0.881568
0.876381
0.828308
0.860698
0.82734
0.89019
1.05516
1.27012
1.38574
1.56654
0.953228
0.952207
0.949893
0.94967
0.94802
0.948845
0.949433
0.951128
0.955434
0.958379
0.965284
0.97276
0.983931
0.99688
1.01047
1.0245
1.04388
1.05734
1.07729
1.08816
1.10129
1.10052
1.10415
1.08917
1.08041
1.05575
1.02931
1.00579
0.963215
0.93923
0.887067
0.874082
0.819339
0.832407
0.778966
0.800163
0.957213
1.0931
1.3166
1.43678
0.951084
0.950796
0.948399
0.948245
0.947077
0.94763
0.949362
0.950189
0.955493
0.958267
0.966595
0.975073
0.985924
0.999209
1.01537
1.02835
1.05058
1.06473
1.08485
1.09486
1.10967
1.10888
1.11319
1.10222
1.08868
1.07196
1.03964
1.01833
0.974777
0.951358
0.898831
0.879527
0.820797
0.817177
0.755501
0.743483
0.823416
0.970028
1.17417
1.30668
0.94762
0.94745
0.944977
0.944466
0.94492
0.944095
0.948047
0.947846
0.954127
0.958187
0.965424
0.974835
0.988666
0.99996
1.01976
1.03347
1.0553
1.07048
1.09134
1.10278
1.11554
1.11891
1.11783
1.11432
1.0968
1.08436
1.05186
1.03189
0.98768
0.96317
0.910605
0.888672
0.831192
0.815052
0.759258
0.717848
0.725522
0.862068
1.01103
1.20105
0.946003
0.945707
0.943975
0.942307
0.943717
0.942284
0.947233
0.948317
0.953367
0.959829
0.967634
0.977057
0.991813
1.00447
1.02353
1.04106
1.06198
1.08158
1.0985
1.11493
1.12236
1.13263
1.12739
1.12728
1.10904
1.10078
1.06725
1.04987
1.00819
0.982138
0.933033
0.904351
0.847924
0.822229
0.777955
0.725956
0.682913
0.746221
0.852568
1.00764
0.94193
0.940826
0.940297
0.937595
0.940114
0.939057
0.941975
0.946627
0.950858
0.958376
0.967527
0.97867
0.992517
1.01023
1.0255
1.0485
1.06663
1.08996
1.10507
1.12524
1.13191
1.1419
1.139
1.1365
1.12588
1.10633
1.0921
1.05823
1.03312
0.99401
0.956757
0.920055
0.870896
0.837034
0.793838
0.753139
0.686228
0.674936
0.714713
0.830332
0.941717
0.938642
0.938758
0.93654
0.937425
0.940384
0.941184
0.946603
0.9517
0.960417
0.968639
0.984855
0.995797
1.01733
1.03269
1.05755
1.07701
1.10079
1.11789
1.13487
1.14729
1.15094
1.15805
1.14609
1.14665
1.12207
1.11194
1.07848
1.05741
1.01726
0.980289
0.94935
0.892852
0.86336
0.814698
0.779111
0.71945
0.671425
0.655454
0.692633
0.936746
0.934638
0.93194
0.933743
0.930885
0.934423
0.937594
0.943624
0.948851
0.959705
0.968999
0.984628
1.0004
1.01903
1.0409
1.06179
1.08768
1.10587
1.13174
1.14128
1.16286
1.15981
1.17186
1.15978
1.16038
1.13971
1.13019
1.09881
1.07939
1.04875
1.00032
0.974872
0.923226
0.884754
0.835682
0.803063
0.756769
0.70434
0.66601
0.635423
0.932354
0.934205
0.930622
0.932454
0.932407
0.934712
0.93826
0.944555
0.95275
0.961256
0.977133
0.988366
1.01174
1.02559
1.05505
1.07061
1.10451
1.11697
1.14804
1.15512
1.17686
1.17675
1.18768
1.17742
1.18037
1.16021
1.15167
1.13248
1.09946
1.08222
1.04093
1.00544
0.962233
0.923612
0.869801
0.833854
0.797604
0.754504
0.699192
0.654877
0.920891
0.923523
0.922952
0.923835
0.926334
0.928587
0.936119
0.939227
0.954237
0.960263
0.979944
0.991527
1.01719
1.03305
1.0636
1.0812
1.11472
1.13093
1.15902
1.16963
1.19036
1.19093
1.20288
1.19637
1.19042
1.18786
1.16716
1.15569
1.13461
1.1071
1.07811
1.05086
0.995912
0.962789
0.91873
0.866407
0.822525
0.785964
0.751528
0.698896
0.920937
0.921285
0.921293
0.920593
0.927329
0.926806
0.939098
0.942846
0.959281
0.967571
0.989404
1.00339
1.02924
1.04967
1.07799
1.10185
1.13063
1.15287
1.17673
1.19396
1.20514
1.2191
1.21606
1.22253
1.21609
1.20665
1.19843
1.18505
1.1632
1.15003
1.11983
1.08701
1.0539
1.01255
0.964167
0.925454
0.883146
0.825631
0.793253
0.751525
0.908873
0.908252
0.911927
0.908812
0.91753
0.919415
0.929872
0.939542
0.954352
0.969494
0.988156
1.0111
1.03332
1.06171
1.08655
1.11873
1.14093
1.17287
1.18878
1.21074
1.22419
1.23016
1.23817
1.24021
1.2325
1.23097
1.22246
1.20908
1.19742
1.18769
1.1578
1.13755
1.11077
1.06214
1.03386
0.984151
0.937342
0.890477
0.85887
0.794662
0.906894
0.905824
0.91033
0.912353
0.915561
0.927654
0.935575
0.95013
0.964857
0.985494
1.00447
1.03144
1.05443
1.0854
1.11167
1.14138
1.17144
1.19314
1.21716
1.23658
1.24612
1.25614
1.26446
1.26044
1.2588
1.26133
1.24766
1.24056
1.24096
1.21751
1.21026
1.19594
1.16297
1.13813
1.10906
1.05523
1.02734
0.96949
0.937027
0.882401
0.890817
0.892947
0.892649
0.90241
0.905424
0.920149
0.931018
0.950504
0.967095
0.991508
1.0159
1.04166
1.07354
1.10109
1.13285
1.1657
1.19117
1.21798
1.24259
1.25728
1.26973
1.28321
1.2838
1.28338
1.28753
1.28057
1.27407
1.27517
1.26495
1.25822
1.25459
1.23564
1.22626
1.20159
1.18161
1.14033
1.11633
1.059
1.03441
0.974784
0.882618
0.893769
0.893492
0.90659
0.911912
0.931526
0.945702
0.967528
0.99114
1.01776
1.04224
1.0766
1.10553
1.13803
1.17157
1.20409
1.22913
1.25939
1.27956
1.2945
1.30883
1.31897
1.3193
1.32087
1.32605
1.31366
1.32103
1.30935
1.31726
1.30069
1.31264
1.29178
1.29934
1.27356
1.27424
1.24048
1.22699
1.18457
1.16051
1.10771
0.862154
0.87613
0.883355
0.899005
0.909192
0.934473
0.951946
0.980118
1.00693
1.0386
1.06974
1.10463
1.13889
1.17175
1.2106
1.23722
1.27355
1.29193
1.32224
1.32876
1.34887
1.35023
1.36082
1.35178
1.36643
1.35301
1.36445
1.35086
1.36676
1.35077
1.36761
1.35104
1.36801
1.35148
1.36562
1.34039
1.35083
1.31805
1.31852
1.2674
0.865724
0.882714
0.902299
0.9298
0.949628
0.983422
1.00984
1.04383
1.07546
1.11153
1.14538
1.18573
1.21893
1.25825
1.28985
1.32344
1.34922
1.37189
1.38899
1.39902
1.40588
1.40635
1.40612
1.40062
1.40039
1.39634
1.39522
1.39452
1.39089
1.39258
1.38595
1.38989
1.38498
1.39834
1.39931
1.41965
1.41667
1.43194
1.41881
1.4339
0.842891
0.875445
0.888412
0.919632
0.946132
0.98374
1.02037
1.06206
1.10375
1.14904
1.18953
1.23385
1.27086
1.30988
1.34122
1.37263
1.39517
1.41391
1.42481
1.43116
1.42965
1.4255
1.41714
1.40834
1.40018
1.39524
1.39043
1.39014
1.38495
1.38424
1.36914
1.35494
1.3287
1.31065
1.29311
1.30118
1.29373
1.3178
1.29679
1.33082
0.92925
0.976283
1.02272
1.07492
1.11522
1.16094
1.20252
1.24362
1.28251
1.31958
1.35233
1.38227
1.40756
1.42935
1.44678
1.4619
1.47568
1.47939
1.48603
1.47559
1.4724
1.44906
1.43721
1.40564
1.38791
1.35678
1.3414
1.31456
1.30342
1.27499
1.2469
1.1833
1.12317
1.03337
0.92156
0.803112
0.66344
0.587974
0.476289
0.483363
1.06064
1.09871
1.13548
1.17471
1.21256
1.24761
1.27876
1.30687
1.32913
1.34577
1.36308
1.36504
1.37815
1.37385
1.38353
1.37023
1.36817
1.34121
1.32735
1.28527
1.26037
1.19859
1.15833
1.07635
1.02127
0.929256
0.862611
0.766185
0.688809
0.537551
0.198591
0.080441
0.179191
0.206701
0.19244
0.129249
0.134427
0.195312
0.250953
0.288577
1.01938
1.01369
0.991675
0.956129
0.91267
0.881151
0.886037
0.969569
1.02386
1.027
1.01611
1.00942
1.00789
1.00747
1.008
1.0094
1.01039
1.01114
1.01148
1.01224
1.01235
1.01272
1.01272
1.01292
1.01273
1.01258
1.01238
1.01199
1.01194
1.01148
1.01152
1.0111
1.01121
1.0108
1.01088
1.01043
1.01033
1.01012
1.01049
1.01346
1.03341
1.01909
0.993777
0.955822
0.909234
0.873942
0.871508
0.954293
1.02143
1.02771
1.01776
1.01003
1.00832
1.00784
1.00796
1.00935
1.01031
1.01133
1.01163
1.01241
1.0125
1.01289
1.01286
1.0131
1.01306
1.0129
1.01278
1.01231
1.01228
1.01182
1.01182
1.0114
1.01152
1.01115
1.01122
1.01077
1.01063
1.01009
1.00961
1.00772
1.0409
1.02405
0.999251
0.95903
0.907801
0.867682
0.86037
0.941815
1.01874
1.02733
1.01742
1.00992
1.00834
1.00802
1.00837
1.00993
1.01086
1.01191
1.0123
1.01311
1.0131
1.0135
1.01328
1.01343
1.01342
1.0133
1.01329
1.01274
1.01279
1.01232
1.01232
1.01183
1.01191
1.01152
1.01153
1.01106
1.01104
1.01076
1.01133
1.01354
1.04989
1.03303
1.00335
0.960593
0.905753
0.862355
0.84739
0.921253
1.01222
1.02604
1.01719
1.00943
1.00826
1.00803
1.00847
1.01007
1.01079
1.01201
1.01248
1.01319
1.01334
1.01387
1.01363
1.01369
1.01361
1.01347
1.01359
1.01309
1.01314
1.0127
1.01272
1.01219
1.01222
1.01182
1.01177
1.01127
1.01109
1.01065
1.01012
1.00809
1.06082
1.04057
1.0103
0.965035
0.904938
0.857532
0.838025
0.90275
1.00329
1.02326
1.01533
1.00826
1.00797
1.00802
1.00876
1.01062
1.01128
1.01261
1.01309
1.01369
1.01395
1.01453
1.01429
1.01437
1.01411
1.01397
1.01401
1.01361
1.01361
1.01319
1.01315
1.01264
1.01259
1.01218
1.01217
1.01185
1.01177
1.01146
1.01179
1.01315
1.07081
1.05294
1.01738
0.967963
0.90306
0.852613
0.827247
0.879053
0.989919
1.01917
1.01318
1.0065
1.00727
1.00753
1.00862
1.01074
1.01133
1.01277
1.01326
1.01377
1.01416
1.01472
1.01457
1.01474
1.01445
1.0144
1.01433
1.01409
1.014
1.01368
1.01356
1.01318
1.01304
1.01269
1.01249
1.01211
1.0119
1.01143
1.01097
1.0092
1.08516
1.06478
1.02793
0.973504
0.901643
0.846812
0.819179
0.85817
0.972818
1.01257
1.00923
1.00386
1.00626
1.00718
1.00861
1.01108
1.01181
1.01329
1.01389
1.01449
1.01479
1.01518
1.015
1.01533
1.01497
1.01501
1.01482
1.0147
1.0145
1.01427
1.01404
1.0138
1.01361
1.01337
1.01313
1.01281
1.01254
1.01224
1.0124
1.01317
1.09771
1.08183
1.03977
0.977965
0.898395
0.839098
0.809576
0.834418
0.950533
1.00396
1.00463
1.00029
1.00458
1.0062
1.00804
1.01089
1.01189
1.01357
1.0141
1.01479
1.01513
1.01561
1.01529
1.01565
1.0154
1.01553
1.01522
1.01519
1.01485
1.01475
1.01434
1.01419
1.01382
1.01356
1.01329
1.01296
1.01269
1.01224
1.01191
1.01054
1.11712
1.10008
1.05577
0.984649
0.894864
0.828802
0.800534
0.812781
0.925016
0.992521
0.99831
0.99572
1.00258
1.00509
1.00774
1.01096
1.01231
1.014
1.01479
1.01566
1.01599
1.01637
1.016
1.01631
1.016
1.01613
1.01579
1.01576
1.01527
1.01524
1.01463
1.01455
1.01416
1.01399
1.01375
1.01357
1.01345
1.0131
1.01308
1.01338
1.13623
1.12401
1.07576
0.989951
0.888712
0.814392
0.787501
0.789264
0.895997
0.978058
0.991047
0.9903
0.999839
1.00313
1.00668
1.01036
1.0122
1.0141
1.01509
1.01589
1.01644
1.01695
1.01676
1.01705
1.0168
1.01681
1.01646
1.01641
1.01578
1.01582
1.01503
1.01495
1.01443
1.01423
1.01407
1.01378
1.01369
1.01326
1.01301
1.01196
1.16169
1.15294
1.10214
0.996497
0.880663
0.795552
0.770657
0.766763
0.865286
0.960929
0.982049
0.984115
0.996651
1.00117
1.00602
1.0102
1.01246
1.01429
1.01576
1.01641
1.0171
1.01755
1.01764
1.0179
1.01778
1.01768
1.01736
1.0173
1.01667
1.01675
1.01606
1.01606
1.01554
1.01533
1.01503
1.01463
1.01448
1.01404
1.01398
1.01388
1.19303
1.18985
1.13547
1.00095
0.867219
0.770137
0.746217
0.74097
0.833285
0.941613
0.971317
0.977633
0.9929
0.998706
1.00473
1.00944
1.01233
1.01419
1.01624
1.01662
1.01776
1.01814
1.0185
1.0186
1.01857
1.01842
1.01809
1.01804
1.01735
1.01736
1.01664
1.01662
1.01599
1.01574
1.01532
1.01489
1.01472
1.01421
1.01415
1.01338
1.2313
1.23841
1.17754
1.00172
0.84665
0.736706
0.714186
0.712944
0.801772
0.921463
0.958936
0.970741
0.988845
0.99634
1.00373
1.00894
1.01254
1.01443
1.0171
1.01745
1.01888
1.01892
1.0195
1.01946
1.01949
1.01933
1.01884
1.01877
1.01798
1.01796
1.01722
1.01729
1.01657
1.01648
1.01595
1.01556
1.01537
1.01496
1.01489
1.01466
1.28387
1.29986
1.21382
0.992226
0.811892
0.691695
0.672275
0.680617
0.770609
0.90009
0.944995
0.963579
0.984262
0.993585
1.00236
1.00798
1.01234
1.01449
1.01756
1.01793
1.01979
1.01983
1.02064
1.02044
1.02054
1.02031
1.01975
1.01964
1.0187
1.01865
1.01767
1.01779
1.01688
1.01688
1.01621
1.01592
1.01561
1.01518
1.01512
1.01475
1.34953
1.37184
1.22583
0.96393
0.757419
0.632106
0.62105
0.646235
0.742509
0.879481
0.93001
0.956582
0.979632
0.990878
1.00173
1.00719
1.01238
1.0146
1.01796
1.01869
1.02075
1.02088
1.02205
1.0217
1.02204
1.02169
1.02122
1.02105
1.02026
1.02028
1.01921
1.01932
1.01827
1.01836
1.01738
1.01721
1.01655
1.01603
1.0158
1.01556
1.43029
1.41342
1.21762
0.903761
0.67611
0.556583
0.562145
0.61163
0.719937
0.860868
0.914924
0.950583
0.975612
0.98878
1.00129
1.00629
1.01245
1.01465
1.01809
1.01914
1.02137
1.02168
1.02305
1.02264
1.02317
1.02257
1.02245
1.02204
1.02137
1.02131
1.02038
1.02037
1.0192
1.01918
1.01803
1.01791
1.01708
1.01664
1.01615
1.01587
1.51326
1.44294
1.17317
0.802506
0.565553
0.470427
0.504923
0.585078
0.706735
0.847258
0.903121
0.94542
0.972567
0.987809
1.00123
1.00672
1.0134
1.01559
1.01891
1.02019
1.02218
1.02247
1.02378
1.02322
1.02395
1.02312
1.02342
1.02283
1.02253
1.0222
1.02152
1.02138
1.02045
1.02033
1.01929
1.01921
1.01834
1.018
1.01738
1.01689
1.5856
1.43948
1.06841
0.656777
0.43902
0.396787
0.468771
0.575989
0.705949
0.838676
0.894643
0.94217
0.970358
0.987809
1.0016
1.00807
1.01451
1.01749
1.02021
1.02167
1.0232
1.02353
1.0246
1.02411
1.02469
1.02378
1.02418
1.02335
1.02347
1.02289
1.02267
1.02214
1.02165
1.02119
1.02048
1.02002
1.01933
1.01879
1.01829
1.01792
1.61664
1.41971
0.927334
0.516566
0.366454
0.388875
0.48086
0.593924
0.720437
0.83709
0.891023
0.941852
0.969288
0.98922
1.00288
1.01106
1.01644
1.02047
1.02213
1.02429
1.02517
1.02609
1.02655
1.02648
1.02667
1.02596
1.02619
1.02532
1.0256
1.0247
1.02482
1.02382
1.02372
1.02284
1.02259
1.02168
1.02123
1.02021
1.01975
1.01918
1.61684
1.39429
0.852393
0.531083
0.453056
0.480198
0.549575
0.639366
0.747748
0.844898
0.894606
0.94495
0.970003
0.992621
1.00416
1.01421
1.01839
1.02399
1.02469
1.02782
1.02773
1.02944
1.02896
1.02939
1.02871
1.02819
1.02784
1.02695
1.02706
1.02591
1.02596
1.02464
1.0246
1.02333
1.02335
1.02222
1.02214
1.02117
1.02108
1.02042
1.57316
1.38988
0.947673
0.737753
0.646849
0.627559
0.650776
0.7032
0.785142
0.862119
0.906766
0.953341
0.974467
0.998617
1.00693
1.01901
1.02089
1.02814
1.02722
1.03149
1.03007
1.03248
1.03086
1.03199
1.03034
1.03031
1.02919
1.02863
1.02811
1.02728
1.02704
1.02582
1.02572
1.02438
1.02425
1.02306
1.02293
1.0221
1.02209
1.02144
1.50786
1.40347
1.10624
0.969452
0.832417
0.768571
0.746726
0.772769
0.829662
0.888473
0.927751
0.966865
0.98401
1.00761
1.01252
1.02582
1.02425
1.03318
1.0296
1.03487
1.03178
1.03476
1.03207
1.03375
1.03113
1.03196
1.02983
1.03016
1.02864
1.02841
1.02753
1.02685
1.02631
1.02533
1.02499
1.02397
1.02384
1.02308
1.02305
1.02245
1.45543
1.37511
1.1649
1.07803
0.927477
0.863865
0.821469
0.845581
0.880703
0.925704
0.956551
0.985846
1.0008
1.0205
1.02296
1.03562
1.03093
1.0395
1.03394
1.03949
1.03535
1.03856
1.03532
1.0375
1.03431
1.03576
1.03293
1.0341
1.03173
1.03221
1.03036
1.0302
1.02878
1.02821
1.02699
1.02624
1.02537
1.02472
1.02418
1.02387
1.36081
1.29653
1.15329
1.09355
0.950033
0.910169
0.886483
0.92146
0.934124
0.971609
0.992229
1.01156
1.02417
1.0372
1.03878
1.04774
1.04207
1.04921
1.04286
1.04663
1.04247
1.0445
1.04126
1.04279
1.0396
1.04066
1.03768
1.0384
1.03575
1.03627
1.03399
1.03415
1.03229
1.03197
1.03013
1.02949
1.02777
1.02713
1.02585
1.02571
1.23464
1.16108
1.09265
1.02872
0.927568
0.927812
0.925241
0.966129
0.991641
1.01817
1.03183
1.04381
1.0519
1.05746
1.05944
1.06227
1.0582
1.06009
1.0553
1.05509
1.05242
1.05149
1.04922
1.04836
1.04606
1.04553
1.0432
1.04261
1.04044
1.03979
1.03812
1.03737
1.03593
1.03501
1.03347
1.03245
1.03082
1.02994
1.02867
1.02831
1.07559
0.989001
0.981157
0.917865
0.893667
0.917573
0.934345
0.99779
1.03164
1.06243
1.07196
1.08084
1.0796
1.08242
1.08073
1.079
1.07493
1.07162
1.06827
1.06301
1.06136
1.05688
1.05573
1.05197
1.05083
1.04773
1.04696
1.04434
1.04375
1.04149
1.04122
1.03915
1.03894
1.03687
1.03643
1.03454
1.03391
1.0323
1.03152
1.03058
0.879032
0.831912
0.843023
0.810947
0.822687
0.867928
0.919662
1.00127
1.04784
1.10461
1.10987
1.12108
1.11058
1.11211
1.10319
1.10121
1.09174
1.08804
1.08142
1.07548
1.07128
1.06595
1.06313
1.05886
1.05713
1.05348
1.0523
1.04905
1.04825
1.04552
1.04502
1.0426
1.04223
1.03988
1.0396
1.03745
1.03723
1.03534
1.03519
1.03391
0.674051
0.706805
0.703976
0.679653
0.708032
0.777704
0.865823
0.96642
1.05218
1.11854
1.14595
1.16077
1.14961
1.14561
1.13408
1.12931
1.11587
1.11104
1.10007
1.09468
1.08575
1.08187
1.07474
1.07198
1.06716
1.06468
1.06094
1.05877
1.05553
1.0539
1.05109
1.04964
1.0471
1.04558
1.04355
1.04182
1.0403
1.0386
1.03772
1.03645
0.603182
0.622378
0.585819
0.558071
0.579164
0.655498
0.75883
0.885571
1.02048
1.11035
1.1691
1.1891
1.18973
1.17912
1.16932
1.1577
1.14629
1.13509
1.12579
1.11662
1.107
1.10105
1.09235
1.08774
1.08123
1.07761
1.0725
1.06982
1.06539
1.06373
1.05963
1.05845
1.05444
1.05371
1.04987
1.04906
1.04578
1.04502
1.04275
1.04241
0.644706
0.618683
0.578278
0.523313
0.504481
0.53839
0.606233
0.753315
0.927352
1.0673
1.15879
1.20044
1.21274
1.20653
1.19501
1.18223
1.17042
1.15636
1.14743
1.13597
1.12664
1.11752
1.10968
1.10141
1.09607
1.08904
1.08499
1.07973
1.0768
1.07271
1.07009
1.06648
1.06357
1.06069
1.0575
1.05529
1.05205
1.05057
1.04802
1.04746
0.713334
0.674367
0.650281
0.609515
0.574291
0.548707
0.512344
0.5935
0.758293
0.96113
1.11335
1.18762
1.21631
1.22385
1.21401
1.20349
1.1888
1.17767
1.1648
1.15669
1.14466
1.13626
1.12715
1.11769
1.1109
1.10284
1.09737
1.0915
1.08792
1.08299
1.08077
1.07559
1.07423
1.06929
1.06815
1.0637
1.0623
1.05879
1.05758
1.05546
0.768701
0.745201
0.740735
0.723794
0.70466
0.693116
0.658769
0.599577
0.581354
0.756181
0.986716
1.14242
1.20518
1.22783
1.23166
1.22245
1.21014
1.19818
1.18569
1.17799
1.16561
1.15799
1.14703
1.13896
1.12836
1.12226
1.11192
1.10745
1.09926
1.09601
1.08994
1.08643
1.08205
1.07803
1.07513
1.07129
1.06903
1.06595
1.06488
1.06211
0.854201
0.829126
0.830359
0.843149
0.836425
0.837203
0.826729
0.783192
0.711303
0.61425
0.705686
0.967714
1.1377
1.21041
1.23374
1.23809
1.23241
1.22164
1.2119
1.20198
1.19344
1.1837
1.17582
1.16699
1.15838
1.15023
1.14048
1.13243
1.12341
1.11729
1.10933
1.10483
1.09827
1.09454
1.08893
1.08654
1.08071
1.0788
1.07486
1.07406
0.955272
0.953526
0.960855
0.988946
1.01193
0.990467
0.945135
0.897294
0.840578
0.757549
0.661282
0.599769
0.843439
1.06288
1.16595
1.20754
1.2278
1.23021
1.22787
1.22327
1.21708
1.21075
1.20428
1.19838
1.1917
1.18518
1.17887
1.16897
1.16094
1.15024
1.14111
1.13182
1.12575
1.11794
1.11267
1.10767
1.1033
1.0989
1.09479
1.09346
1.09587
1.11707
1.15961
1.16322
1.12495
1.05838
0.977969
0.905897
0.846628
0.791365
0.71949
0.618794
0.519914
0.603392
0.884799
1.03494
1.12656
1.16612
1.1956
1.20653
1.21246
1.21285
1.2089
1.20729
1.20192
1.19911
1.19435
1.19148
1.1877
1.18425
1.17903
1.17274
1.16419
1.15625
1.14787
1.13942
1.13285
1.12534
1.12024
1.11463
1.30392
1.30108
1.26349
1.21931
1.14549
1.05354
0.953686
0.855505
0.768179
0.677011
0.627708
0.597341
0.536868
0.419763
0.330675
0.561728
0.828997
0.954399
1.04756
1.1021
1.13903
1.16143
1.17442
1.1827
1.1848
1.18889
1.1892
1.19049
1.19049
1.19087
1.19127
1.19147
1.19073
1.1889
1.18522
1.18064
1.17423
1.16719
1.15977
1.15319
1.39952
1.34692
1.25695
1.1586
1.0256
0.865968
0.739201
0.620358
0.508024
0.446636
0.427365
0.407914
0.353366
0.327879
0.297784
0.202322
0.132977
0.479654
0.681593
0.830298
0.932944
1.00858
1.06261
1.10376
1.12852
1.15018
1.16067
1.17236
1.17752
1.18423
1.1891
1.19296
1.19654
1.19913
1.19973
1.19959
1.19847
1.1968
1.19356
1.18923
1.24872
1.0706
0.863056
0.66528
0.512336
0.369503
0.23935
0.14733
0.0855499
0.103838
0.173524
0.239597
0.266708
0.261211
0.250776
0.250298
0.295944
0.299968
0.169128
0.38527
0.577202
0.721747
0.822922
0.914102
0.973969
1.0258
1.06496
1.09705
1.11941
1.13275
1.13945
1.14516
1.14984
1.16496
1.16853
1.18041
1.18189
1.18998
1.19657
1.20532
0.289521
0.134375
0.165854
0.265575
0.342479
0.388074
0.43335
0.478559
0.516942
0.544714
0.563698
0.582106
0.587451
0.603554
0.625703
0.649709
0.668796
0.669227
0.621446
0.513561
0.318747
0.272134
0.412062
0.523645
0.638288
0.707488
0.784883
0.844152
0.904636
0.956485
0.997987
1.03642
1.06688
1.08765
1.11635
1.13478
1.15714
1.17088
1.1827
1.1899
0.311118
0.334504
0.354917
0.391827
0.434134
0.477344
0.515666
0.547568
0.573113
0.595524
0.614625
0.629713
0.640026
0.642665
0.635826
0.624649
0.601661
0.569124
0.532641
0.490074
0.430265
0.362647
0.284089
0.19687
0.244871
0.439343
0.514291
0.586008
0.628836
0.671706
0.705583
0.750514
0.78799
0.834816
0.869736
0.915312
0.95072
1.00123
1.05016
1.10672
1.01955
1.01936
1.02062
1.02068
1.02134
1.02109
1.02145
1.02093
1.02095
1.01997
1.01938
1.01772
1.01616
1.01299
1.00983
1.00467
0.998964
0.992165
0.986136
0.984011
0.985627
0.993057
1.0016
1.00948
1.01165
1.01153
1.01129
1.01117
1.01109
1.01107
1.01105
1.01098
1.01084
1.01066
1.01044
1.01021
1.00995
1.00965
1.00931
1.00909
1.00205
1.00258
1.00173
1.00226
1.00171
1.00245
1.00215
1.00299
1.00297
1.0043
1.00473
1.00695
1.00852
1.01185
1.01519
1.01926
1.02351
1.02719
1.02884
1.02905
1.02793
1.024
1.01673
1.01279
1.01208
1.01223
1.01236
1.01242
1.01238
1.01233
1.01219
1.01193
1.01168
1.01148
1.01119
1.01085
1.01056
1.0102
1.00987
1.00972
1.01815
1.01827
1.01946
1.01949
1.02016
1.01975
1.01988
1.01902
1.01866
1.01735
1.01651
1.01433
1.01279
1.00995
1.00752
1.00482
1.0028
1.00293
1.00418
1.0067
1.00854
1.0101
1.01037
1.01079
1.01107
1.01158
1.01176
1.0119
1.01195
1.01208
1.01215
1.01207
1.01186
1.01164
1.01145
1.01113
1.01078
1.01053
1.01025
1.01004
1.00416
1.00488
1.00446
1.00506
1.00487
1.00579
1.00603
1.00729
1.00786
1.00963
1.0107
1.01306
1.01486
1.01764
1.0199
1.02229
1.0244
1.02519
1.0256
1.02528
1.02375
1.0214
1.0188
1.01621
1.01486
1.01427
1.01385
1.01345
1.01318
1.01295
1.01275
1.01245
1.01224
1.01201
1.01163
1.01141
1.01108
1.0108
1.01069
1.01051
1.01649
1.01695
1.0177
1.01769
1.01802
1.01756
1.01738
1.01658
1.01601
1.0148
1.01379
1.01211
1.01084
1.00925
1.00802
1.00762
1.00774
1.0087
1.00908
1.01017
1.01086
1.01162
1.01197
1.01246
1.01246
1.01266
1.01266
1.01272
1.01269
1.01282
1.01274
1.01256
1.01245
1.01231
1.01196
1.01156
1.01128
1.01098
1.01087
1.01079
1.00646
1.00717
1.00728
1.008
1.00823
1.00922
1.00971
1.01097
1.01163
1.01313
1.01412
1.01562
1.01673
1.01807
1.01915
1.02013
1.02098
1.02157
1.02188
1.02174
1.02093
1.01976
1.01808
1.01685
1.0163
1.01578
1.01476
1.01414
1.01379
1.01348
1.01323
1.01287
1.01267
1.01237
1.0121
1.01187
1.01149
1.01134
1.01123
1.01105
1.01535
1.01586
1.01625
1.01625
1.01627
1.01592
1.01563
1.01504
1.01438
1.01357
1.01282
1.01197
1.01115
1.01078
1.01036
1.01065
1.01088
1.01136
1.0114
1.01202
1.01246
1.01282
1.01301
1.01332
1.01345
1.01359
1.01361
1.01359
1.01359
1.01356
1.01338
1.0133
1.01309
1.01267
1.01236
1.01203
1.01169
1.01155
1.01149
1.01139
1.00882
1.0095
1.00985
1.0106
1.01107
1.01197
1.01253
1.0134
1.01406
1.01493
1.01563
1.01643
1.01703
1.01769
1.01829
1.01875
1.01919
1.0195
1.01965
1.01951
1.019
1.01818
1.01719
1.01684
1.01666
1.01598
1.01503
1.0146
1.01432
1.01404
1.01366
1.01344
1.0133
1.01293
1.01267
1.01228
1.012
1.01187
1.01173
1.01148
1.01464
1.01511
1.01524
1.01533
1.01531
1.01522
1.01496
1.0147
1.0142
1.01393
1.01362
1.01352
1.01339
1.01347
1.01347
1.01375
1.01355
1.01344
1.01337
1.01357
1.01384
1.01389
1.01403
1.01436
1.01448
1.01453
1.01453
1.01447
1.01444
1.0143
1.01415
1.01391
1.01356
1.01329
1.01294
1.01251
1.01224
1.01212
1.01204
1.01188
1.01101
1.01178
1.01218
1.01287
1.01331
1.01407
1.01459
1.01524
1.01579
1.01637
1.01688
1.01733