/*--------------------------------*- C++ -*----------------------------------*\
  =========                 |
  \\      /  F ield         | OpenFOAM: The Open Source CFD Toolbox
   \\    /   O peration     | Website:  https://openfoam.org
    \\  /    A nd           | Version:  10
     \\/     M anipulation  |
\*---------------------------------------------------------------------------*/
FoamFile
{
    format      ascii;
    class       volScalarField;
    location    "0.0977888";
    object      p;
}
// * * * * * * * * * * * * * * * * * * * * * * * * * * * * * * * * * * * * * //

dimensions      [1 -1 -2 0 0 0 0];

internalField   nonuniform List<scalar> 
15708
(
2.49114
2.49259
2.49379
2.49473
2.49544
2.49593
2.49624
2.4964
2.49646
2.49645
2.49642
2.49643
2.4965
2.49669
2.49704
2.4976
2.49843
2.49955
2.50098
2.50273
2.50482
2.50725
2.51002
2.51314
2.51662
2.52047
2.52474
2.52945
2.53466
2.5404
2.5467
2.55352
2.56079
2.56836
2.57604
2.58355
2.59063
2.59692
2.60217
2.60612
2.60861
2.60953
2.60901
2.60716
2.60381
2.59917
2.59355
2.58722
2.5804
2.57331
2.56611
2.4962
2.49732
2.49813
2.49864
2.49889
2.49888
2.49871
2.49838
2.49797
2.49755
2.49716
2.49687
2.49675
2.49683
2.49715
2.49782
2.49888
2.50034
2.50219
2.50444
2.50705
2.51001
2.51326
2.51677
2.52048
2.52437
2.52841
2.5326
2.53696
2.54149
2.54624
2.5512
2.55636
2.56165
2.56696
2.57213
2.57708
2.5815
2.58522
2.58806
2.58987
2.59055
2.59018
2.58883
2.58636
2.58294
2.57879
2.57411
2.5691
2.56393
2.55875
2.50076
2.50154
2.50196
2.50204
2.50182
2.50132
2.50064
2.49984
2.49899
2.49817
2.49746
2.49694
2.49668
2.49675
2.49715
2.49805
2.49949
2.50144
2.5039
2.50681
2.51013
2.51379
2.5177
2.52176
2.52586
2.52993
2.53391
2.53775
2.54144
2.54499
2.54842
2.55176
2.55503
2.55824
2.56137
2.5644
2.56712
2.56953
2.57153
2.57297
2.57376
2.57381
2.57325
2.57198
2.57004
2.56754
2.56462
2.56143
2.55811
2.5548
2.5516
2.50481
2.50524
2.50524
2.50489
2.50414
2.50315
2.50198
2.50072
2.49945
2.49828
2.4973
2.49662
2.49633
2.49648
2.49711
2.49841
2.50041
2.50306
2.5063
2.51007
2.51428
2.5188
2.52349
2.52819
2.53276
2.53708
2.54105
2.54459
2.5477
2.55036
2.55261
2.5545
2.55607
2.55737
2.55844
2.55934
2.56004
2.56054
2.56073
2.56065
2.56025
2.55948
2.5584
2.55702
2.55539
2.55358
2.55169
2.54983
2.5481
2.54659
2.54534
2.50828
2.5083
2.50788
2.50699
2.50573
2.50424
2.50259
2.50089
2.49925
2.49779
2.49664
2.49591
2.49573
2.49609
2.49715
2.49907
2.50185
2.5054
2.50963
2.51444
2.51969
2.52517
2.53071
2.53608
2.5411
2.54561
2.54951
2.55272
2.5552
2.55697
2.55809
2.55861
2.55858
2.55813
2.55732
2.55629
2.55508
2.55373
2.55227
2.55069
2.54904
2.54738
2.54573
2.54414
2.5427
2.54146
2.5405
2.53987
2.53968
2.53992
2.54058
2.51099
2.51058
2.5096
2.50817
2.50641
2.50443
2.50234
2.50025
2.49832
2.49668
2.49548
2.49486
2.49495
2.49571
2.49746
2.50026
2.50405
2.50873
2.51415
2.52015
2.52652
2.53301
2.53935
2.5453
2.55063
2.55519
2.55885
2.56155
2.56329
2.56409
2.56403
2.56324
2.56166
2.55955
2.55705
2.55429
2.55137
2.54837
2.54538
2.54248
2.53969
2.53723
2.53508
2.53335
2.53212
2.53147
2.53144
2.53201
2.53335
2.53536
2.53785
2.51271
2.51173
2.51016
2.50819
2.50593
2.5035
2.50103
2.49865
2.49655
2.49489
2.49382
2.49353
2.49406
2.49556
2.49828
2.50224
2.5073
2.51333
2.5201
2.52738
2.53488
2.54228
2.54927
2.55557
2.56096
2.56528
2.56844
2.57039
2.57118
2.5709
2.56965
2.5674
2.56434
2.56072
2.55671
2.55245
2.54805
2.54366
2.53941
2.53542
2.53185
2.52871
2.52625
2.52455
2.52372
2.5238
2.52471
2.52668
2.52963
2.53333
2.53751
2.51306
2.51141
2.50926
2.50677
2.50405
2.50125
2.4985
2.49599
2.4939
2.49243
2.49176
2.49203
2.4933
2.49591
2.49993
2.50533
2.51192
2.51948
2.52766
2.53621
2.54471
2.5528
2.56014
2.56643
2.5715
2.57521
2.57751
2.57842
2.57808
2.5766
2.5739
2.5702
2.56576
2.5608
2.55547
2.54993
2.54435
2.53888
2.53368
2.52893
2.52481
2.52144
2.51902
2.51769
2.51755
2.51848
2.52071
2.52421
2.52881
2.53413
2.53982
2.51162
2.5093
2.50658
2.50361
2.50053
2.49748
2.49463
2.49219
2.49037
2.48937
2.48941
2.4905
2.49303
2.49709
2.50278
2.50991
2.51821
2.52734
2.53698
2.54662
2.55584
2.56423
2.57145
2.57725
2.58153
2.58418
2.58525
2.58485
2.58319
2.58014
2.57595
2.57089
2.56519
2.55903
2.55261
2.54608
2.53963
2.53344
2.52769
2.5226
2.51838
2.51519
2.51326
2.51274
2.51356
2.51581
2.51963
2.52487
2.53112
2.53793
2.54486
2.50805
2.50508
2.50184
2.49849
2.49518
2.49207
2.48935
2.48727
2.48605
2.4859
2.48691
2.48939
2.49356
2.49954
2.50722
2.51633
2.52648
2.53721
2.54804
2.55842
2.56788
2.57602
2.58254
2.5873
2.59023
2.59137
2.59086
2.58891
2.58551
2.58086
2.57523
2.56888
2.56204
2.5549
2.54763
2.54043
2.53346
2.52695
2.5211
2.51615
2.51233
2.50986
2.50896
2.50967
2.51193
2.51601
2.52175
2.52883
2.53669
2.54476
2.55248
2.50212
2.49852
2.49485
2.49126
2.48791
2.48499
2.48272
2.48134
2.48112
2.48215
2.48467
2.48906
2.49541
2.50369
2.51366
2.52491
2.53689
2.54901
2.56064
2.57123
2.58031
2.58752
2.59269
2.59579
2.59685
2.59607
2.59371
2.58978
2.58457
2.57832
2.5713
2.56379
2.55599
2.54809
2.54027
2.53272
2.52563
2.51923
2.51375
2.50947
2.50663
2.50548
2.50614
2.50853
2.51298
2.5193
2.52722
2.53619
2.54548
2.5544
2.56234
2.49365
2.48952
2.48555
2.4819
2.47876
2.47634
2.47488
2.47466
2.47574
2.4785
2.48321
2.49005
2.49904
2.50997
2.52246
2.53586
2.54947
2.56254
2.57441
2.58451
2.59245
2.59801
2.60115
2.602
2.60079
2.59779
2.59314
2.58714
2.58008
2.57228
2.56401
2.5555
2.54696
2.53857
2.53051
2.52297
2.51616
2.51032
2.50573
2.50269
2.50144
2.50217
2.50485
2.50983
2.51691
2.52587
2.53609
2.54684
2.55721
2.56644
2.57387
2.48268
2.47813
2.47403
2.47057
2.46795
2.46639
2.46616
2.46742
2.4704
2.47554
2.483
2.49284
2.50489
2.51879
2.53384
2.54921
2.56402
2.57745
2.5888
2.5976
2.60362
2.60678
2.60731
2.60557
2.60162
2.59604
2.589
2.5809
2.57208
2.56286
2.55349
2.54419
2.53516
2.52655
2.51856
2.51138
2.50526
2.50046
2.49728
2.49607
2.49693
2.50001
2.50568
2.51372
2.52396
2.53574
2.54826
2.56047
2.57139
2.58021
2.58632
2.46941
2.46462
2.46062
2.45762
2.45584
2.45555
2.45684
2.4601
2.4657
2.47382
2.4846
2.49792
2.5134
2.53036
2.54783
2.56477
2.58016
2.59315
2.60313
2.60981
2.61315
2.61331
2.61095
2.60601
2.5992
2.59085
2.58143
2.57133
2.5609
2.55042
2.54016
2.5303
2.52101
2.51247
2.50486
2.4984
2.49336
2.49004
2.48883
2.48982
2.49331
2.49968
2.5088
2.5205
2.53413
2.54878
2.56331
2.57648
2.58726
2.59486
2.59883
2.45429
2.44944
2.44578
2.44353
2.44297
2.44414
2.44751
2.45344
2.46217
2.47389
2.48851
2.5057
2.52476
2.54466
2.56416
2.58204
2.59721
2.60889
2.61667
2.62048
2.62052
2.61758
2.6116
2.60343
2.59358
2.58257
2.57091
2.55897
2.5471
2.5356
2.52467
2.51448
2.50518
2.49696
2.49001
2.48458
2.48098
2.47958
2.48067
2.48429
2.49125
2.50135
2.51453
2.53015
2.54724
2.56453
2.58056
2.594
2.60382
2.6094
2.61053
2.43793
2.43323
2.43014
2.42896
2.42978
2.43286
2.43888
2.44798
2.46044
2.47624
2.49509
2.51636
2.53893
2.56139
2.58229
2.60029
2.61436
2.62389
2.62873
2.6291
2.62585
2.61899
2.60951
2.59806
2.5853
2.57183
2.5581
2.54456
2.53151
2.51921
2.50783
2.49752
2.48843
2.48075
2.47469
2.47057
2.46876
2.46949
2.47306
2.48022
2.49096
2.50536
2.52285
2.54244
2.56279
2.58221
2.59903
2.61193
2.61997
2.62283
2.62092
2.42107
2.41671
2.41444
2.41452
2.41687
2.4225
2.43154
2.44435
2.46097
2.48122
2.50453
2.5298
2.55549
2.57989
2.60136
2.61858
2.6307
2.63736
2.63874
2.63575
2.62844
2.61793
2.60501
2.59047
2.57508
2.55938
2.5439
2.52902
2.51503
2.50215
2.49053
2.48029
2.47159
2.46461
2.45963
2.45703
2.45714
2.46002
2.46683
2.47768
2.49271
2.51163
2.53347
2.55686
2.57993
2.60073
2.61753
2.62906
2.63464
2.63444
2.62915
2.40451
2.40065
2.39941
2.4007
2.40522
2.41355
2.4261
2.44296
2.46406
2.48895
2.51666
2.54555
2.57371
2.59918
2.62029
2.63588
2.64534
2.64866
2.64667
2.63978
2.62874
2.61472
2.59868
2.58142
2.56371
2.54615
2.52922
2.51329
2.49861
2.48536
2.47367
2.46364
2.45544
2.44928
2.44549
2.44454
2.44633
2.45195
2.46207
2.47693
2.49643
2.51987
2.54589
2.57252
2.59755
2.61885
2.63474
2.64422
2.64698
2.64377
2.63457
2.38905
2.38586
2.38566
2.38842
2.39519
2.40666
2.42292
2.44406
2.46978
2.49927
2.53095
2.56279
2.59254
2.61811
2.63796
2.6512
2.65756
2.65747
2.65208
2.64143
2.62701
2.60996
2.59121
2.57167
2.55208
2.53303
2.51498
2.49827
2.48312
2.46968
2.45805
2.44834
2.4407
2.43538
2.43279
2.43325
2.43704
2.4452
2.45887
2.4778
2.50173
2.52951
2.55917
2.58828
2.61436
2.63522
2.64946
2.65637
2.65619
2.64981
2.63716
2.3754
2.37295
2.37373
2.3781
2.38739
2.40205
2.42215
2.44763
2.47789
2.51152
2.54653
2.58043
2.61071
2.63545
2.6533
2.66372
2.66682
2.66379
2.65481
2.64101
2.62378
2.60421
2.58334
2.56202
2.54099
2.52081
2.50195
2.48471
2.46928
2.45579
2.44432
2.43498
2.4279
2.42338
2.4219
2.42339
2.42914
2.43987
2.4569
2.47982
2.50797
2.5396
2.57215
2.60283
2.62901
2.64868
2.66073
2.66485
2.66207
2.65252
2.63696
2.3641
2.36237
2.36408
2.37017
2.38188
2.39978
2.42364
2.45334
2.4877
2.52486
2.56227
2.59713
2.62702
2.65013
2.66548
2.67287
2.67308
2.66719
2.65531
2.63896
2.61955
2.59815
2.57573
2.55314
2.53109
2.51015
2.49075
2.47318
2.45761
2.44419
2.43296
2.42399
2.4174
2.4135
2.4128
2.41515
2.42236
2.43531
2.45552
2.48214
2.51412
2.54893
2.58353
2.61487
2.64036
2.65828
2.66793
2.66949
2.66434
2.65219
2.63439
2.35549
2.35441
2.3569
2.36446
2.37856
2.39946
2.42695
2.46042
2.4983
2.53807
2.57684
2.61172
2.64036
2.66133
2.67407
2.67878
2.67647
2.66796
2.65389
2.63577
2.61492
2.59234
2.56894
2.54555
2.52287
2.50147
2.48175
2.46402
2.44843
2.43516
2.42422
2.41558
2.40932
2.4057
2.40529
2.40803
2.41598
2.4307
2.45357
2.48357
2.51879
2.55607
2.59195
2.62323
2.64752
2.6635
2.67087
2.67042
2.66322
2.64919
2.62998
2.3496
2.34896
2.35204
2.3608
2.37678
2.40041
2.43108
2.46784
2.5084
2.54985
2.58904
2.62308
2.64995
2.6686
2.67882
2.68113
2.67694
2.66654
2.65112
2.632
2.6104
2.58724
2.56336
2.53959
2.51657
2.49495
2.47511
2.45735
2.44178
2.42875
2.41812
2.40972
2.40354
2.39974
2.39877
2.40109
2.40876
2.42429
2.44945
2.48235
2.52035
2.55956
2.59617
2.62699
2.64995
2.66417
2.66978
2.6679
2.65926
2.64418
2.62435
2.34631
2.34571
2.34893
2.35832
2.3756
2.4014
2.43485
2.47414
2.51662
2.55892
2.59775
2.63047
2.65539
2.67185
2.68001
2.68059
2.67515
2.6636
2.64753
2.62814
2.6064
2.58316
2.55922
2.53536
2.51226
2.4905
2.47082
2.45302
2.43759
2.42483
2.41461
2.40627
2.39967
2.39492
2.39225
2.39275
2.39846
2.41395
2.44065
2.47637
2.51701
2.55788
2.59502
2.62547
2.64752
2.6606
2.66507
2.6624
2.65316
2.63781
2.61809
2.34515
2.34386
2.34652
2.35566
2.37331
2.40104
2.43645
2.47789
2.52152
2.56408
2.60221
2.63347
2.65663
2.67138
2.67812
2.67776
2.67165
2.65977
2.64373
2.62462
2.60323
2.58029
2.55658
2.53287
2.50983
2.48809
2.46846
2.45065
2.43563
2.42345
2.4135
2.40519
2.3975
2.39056
2.38441
2.38055
2.38273
2.39648
2.42392
2.46316
2.50683
2.54966
2.58781
2.61848
2.64023
2.65292
2.65724
2.6546
2.64561
2.63076
2.61175
2.34543
2.34232
2.34329
2.35041
2.36802
2.39677
2.43424
2.4769
2.52158
2.56424
2.60168
2.63192
2.65393
2.66767
2.67374
2.67317
2.66714
2.65564
2.64019
2.62177
2.60107
2.57872
2.55544
2.53199
2.50907
2.48736
2.46765
2.45006
2.43528
2.42405
2.41525
2.40726
2.39783
2.38936
2.37433
2.36293
2.35895
2.36876
2.39645
2.44014
2.48751
2.53313
2.57327
2.60526
2.62799
2.64163
2.6469
2.64514
2.63726
2.62356
2.60571
2.34619
2.33925
2.33669
2.34131
2.35668
2.3866
2.42575
2.47027
2.51577
2.5588
2.59612
2.62593
2.64757
2.66121
2.66754
2.66745
2.6622
2.65169
2.63727
2.61983
2.60002
2.57838
2.5556
2.53245
2.5097
2.48806
2.46806
2.45053
2.43658
2.42675
2.42037
2.41365
2.40455
2.39472
2.3716
2.3461
2.32815
2.3315
2.35815
2.40594
2.45833
2.50795
2.55123
2.58598
2.6113
2.62728
2.63472
2.63469
2.62866
2.61662
2.60025
2.34839
2.33461
2.32463
2.32441
2.3365
2.36674
2.40866
2.45527
2.50247
2.5467
2.58478
2.61539
2.63785
2.65252
2.66004
2.66126
2.6573
2.64829
2.63521
2.61892
2.60006
2.57917
2.55686
2.53396
2.51127
2.48961
2.46923
2.45209
2.4389
2.43155
2.42789
2.42156
2.42048
2.42056
2.40602
2.37689
2.33697
2.30702
2.32389
2.36553
2.42293
2.47714
2.524
2.5623
2.5912
2.6107
2.62129
2.62392
2.62006
2.61021
2.59549
2.35721
2.33384
2.31327
2.30225
2.3093
2.33751
2.38105
2.43127
2.48152
2.52775
2.56793
2.60065
2.6253
2.64217
2.65182
2.65502
2.65278
2.64565
2.63408
2.61902
2.60111
2.58089
2.55897
2.53624
2.5136
2.49172
2.47077
2.45369
2.44056
2.43683
2.43324
2.43551
2.44511
2.44495
2.43076
2.4064
2.37224
2.32579
2.31261
2.34433
2.3961
2.4486
2.49634
2.53722
2.56974
2.59314
2.60742
2.61326
2.61185
2.60436
2.59137
2.37998
2.3624
2.33913
2.31493
2.29776
2.31213
2.34892
2.40178
2.45491
2.50371
2.54659
2.58238
2.61049
2.6307
2.64329
2.64906
2.64888
2.6438
2.63387
2.62005
2.60301
2.58332
2.56163
2.53917
2.51673
2.49484
2.47239
2.454
2.43762
2.44015
2.45232
2.44657
2.45344
2.45669
2.45137
2.43479
2.4066
2.37131
2.34598
2.34915
2.38859
2.4298
2.47429
2.51422
2.54906
2.57588
2.59375
2.60293
2.60421
2.59897
2.58774
2.39392
2.37993
2.36262
2.34355
2.32299
2.30623
2.33374
2.38155
2.431
2.47913
2.5236
2.56258
2.59469
2.61873
2.63471
2.64337
2.64566
2.6426
2.63446
2.62182
2.60547
2.58606
2.56439
2.54257
2.52041
2.49925
2.47111
2.44962
2.44299
2.43654
2.44479
2.45315
2.46373
2.47236
2.4742
2.46635
2.44676
2.41862
2.39452
2.38763
2.39066
2.4196
2.45988
2.49516
2.53105
2.5599
2.58081
2.59311
2.59715
2.59398
2.58446
2.39776
2.39415
2.38653
2.37517
2.36182
2.35341
2.35257
2.37583
2.42041
2.46108
2.50356
2.54398
2.57936
2.60703
2.62632
2.63792
2.64281
2.64188
2.63561
2.62407
2.60819
2.58858
2.56598
2.54559
2.52175
2.5019
2.4778
2.44433
2.43701
2.43804
2.4461
2.45922
2.47534
2.4906
2.49961
2.50013
2.4899
2.46969
2.44668
2.42671
2.41601
2.42677
2.44556
2.47967
2.51662
2.54549
2.569
2.58388
2.59046
2.58937
2.58138
2.40602
2.41131
2.41312
2.41064
2.40395
2.39624
2.39196
2.40081
2.41755
2.4493
2.48984
2.5293
2.56654
2.5965
2.61845
2.6326
2.64008
2.64156
2.63724
2.62659
2.6109
2.59073
2.56478
2.54612
2.52399
2.49325
2.46165
2.44384
2.43711
2.43973
2.4507
2.46828
2.48924
2.51016
2.52647
2.53341
2.53101
2.51799
2.49689
2.47189
2.44933
2.43936
2.44684
2.47099
2.50189
2.53225
2.55819
2.57504
2.58409
2.58505
2.57807
2.41921
2.43296
2.44425
2.44992
2.45
2.44448
2.43753
2.43366
2.43413
2.45128
2.47935
2.51899
2.55736
2.58805
2.61158
2.6273
2.63713
2.64136
2.63936
2.62826
2.60977
2.59205
2.56927
2.53924
2.50507
2.47869
2.4534
2.43983
2.43619
2.44244
2.45742
2.47935
2.50489
2.5307
2.5527
2.56526
2.56789
2.55939
2.53982
2.51237
2.48228
2.46066
2.45416
2.46948
2.48724
2.51938
2.54601
2.56658
2.57811
2.58063
2.57513
2.43627
2.45735
2.47648
2.4897
2.49459
2.49318
2.48497
2.4734
2.4652
2.46488
2.48388
2.51521
2.55048
2.58212
2.6059
2.62162
2.63392
2.64135
2.64342
2.63756
2.61951
2.58914
2.54971
2.52366
2.49515
2.46809
2.4478
2.43849
2.43813
2.44797
2.46665
2.49215
2.52132
2.55076
2.57645
2.5926
2.59778
2.59074
2.571
2.54158
2.50816
2.47862
2.46422
2.46435
2.48741
2.5015
2.52444
2.55656
2.5728
2.57871
2.56371
2.45673
2.48387
2.50889
2.52738
2.53579
2.53654
2.52837
2.51349
2.49767
2.48918
2.49334
2.51376
2.54238
2.57719
2.59921
2.61562
2.63004
2.64056
2.64082
2.63209
2.61189
2.57931
2.5443
2.51459
2.48627
2.4618
2.44621
2.44044
2.44342
2.45649
2.47812
2.5061
2.53746
2.56867
2.59561
2.61192
2.61643
2.60804
2.58649
2.55618
2.52283
2.49321
2.47436
2.46749
2.47972
2.50186
2.5172
2.54647
2.554
2.55144
2.54076
2.47899
2.51046
2.53925
2.56008
2.57024
2.57172
2.56408
2.54992
2.53339
2.5213
2.51609
2.52393
2.54843
2.57644
2.59412
2.60334
2.61879
2.62957
2.62478
2.62897
2.59328
2.5661
2.5343
2.50656
2.48033
2.45966
2.44885
2.4462
2.45255
2.46824
2.49181
2.52058
2.55216
2.5827
2.60755
2.6209
2.62258
2.61044
2.58555
2.55318
2.52049
2.49305
2.47522
2.46819
2.46992
2.48
2.49357
2.51031
2.51544
2.5141
2.50772
2.50143
2.53487
2.56454
2.58489
2.59362
2.59394
2.5856
2.5725
2.55895
2.54895
2.54418
2.54459
2.55587
2.57255
2.58995
2.6007
2.61526
2.61735
2.60934
2.60356
2.57834
2.55244
2.52515
2.49985
2.47774
2.46256
2.4561
2.45634
2.46576
2.48309
2.50696
2.53495
2.56419
2.59107
2.61082
2.61877
2.61482
2.59661
2.56744
2.53346
2.50146
2.47608
2.46051
2.45352
2.45228
2.45715
2.46581
2.47477
2.47829
2.47824
2.47352
2.52251
2.55526
2.58268
2.5996
2.60551
2.60365
2.59415
2.5814
2.56981
2.56214
2.55923
2.56043
2.56711
2.57658
2.58705
2.59423
2.60075
2.6015
2.59543
2.58279
2.56459
2.5422
2.51905
2.49799
2.48073
2.47107
2.46803
2.47166
2.4829
2.50059
2.52304
2.54793
2.57223
2.59231
2.60363
2.60467
2.59199
2.56709
2.53414
2.49964
2.46984
2.44735
2.43346
2.42683
2.42506
2.42748
2.43293
2.43847
2.44151
2.44228
2.44038
2.54029
2.56939
2.59185
2.60365
2.60633
2.60134
2.59092
2.57937
2.56992
2.56441
2.5628
2.5652
2.57054
2.57762
2.58363
2.58743
2.58942
2.58794
2.58143
2.56965
2.55368
2.53559
2.51738
2.50138
2.49009
2.4851
2.48521
2.49144
2.50336
2.51962
2.53845
2.55787
2.5742
2.58435
2.58571
2.57585
2.55483
2.52419
2.48886
2.45539
2.42858
2.40969
2.39816
2.39245
2.39076
2.39215
2.39617
2.4004
2.40423
2.40704
2.40869
2.55295
2.57579
2.59115
2.59708
2.5955
2.58754
2.5771
2.56751
2.56079
2.55769
2.55771
2.56117
2.56616
2.57212
2.57663
2.5789
2.57928
2.57662
2.57018
2.56027
2.54762
2.53406
2.52117
2.51111
2.50525
2.50399
2.50702
2.51456
2.52548
2.53828
2.55127
2.56253
2.56827
2.56748
2.55687
2.53606
2.50628
2.47087
2.43557
2.40514
2.38239
2.36734
2.35863
2.35428
2.3531
2.3546
2.35818
2.36293
2.36809
2.37391
2.38015
2.55896
2.57363
2.58038
2.58074
2.57445
2.56483
2.55567
2.54887
2.5452
2.54449
2.54698
2.55179
2.55725
2.56293
2.56715
2.56919
2.56955
2.56733
2.56251
2.55544
2.54685
2.53822
2.53103
2.52663
2.52514
2.52699
2.53178
2.53882
2.54679
2.55413
2.55913
2.56012
2.55463
2.54073
2.51782
2.48699
2.45105
2.41402
2.38033
2.3536
2.33543
2.32405
2.31789
2.3152
2.315
2.31724
2.3213
2.32733
2.33477
2.34428
2.3556
2.55767
2.56273
2.56254
2.55646
2.54684
2.53733
2.53042
2.52675
2.52587
2.52821
2.5332
2.53964
2.54615
2.55245
2.55741
2.56038
2.56173
2.56135
2.55919
2.55573
2.55171
2.54819
2.5465
2.54629
2.54821
2.55198
2.55676
2.56124
2.56427
2.56455
2.56028
2.55006
2.53181
2.50536
2.47166
2.4333
2.39398
2.35757
2.32706
2.30453
2.29059
2.28269
2.27873
2.27751
2.27852
2.28171
2.2869
2.2944
2.30483
2.31836
2.335
2.54923
2.54641
2.53901
2.52834
2.51732
2.50931
2.50529
2.50418
2.50645
2.51174
2.51903
2.52722
2.53517
2.54272
2.54903
2.55378
2.5572
2.55944
2.56056
2.56118
2.5618
2.5629
2.5651
2.5682
2.57207
2.57592
2.57839
2.57871
2.57557
2.5674
2.55292
2.53088
2.50078
2.46377
2.42221
2.37958
2.3397
2.30564
2.27903
2.26054
2.2502
2.24491
2.24278
2.24276
2.24483
2.24879
2.25508
2.26424
2.2775
2.29522
2.31723
2.53613
2.52625
2.51386
2.50089
2.49044
2.48479
2.48302
2.48456
2.48967
2.49737
2.50665
2.51652
2.52607
2.53522
2.54333
2.55037
2.55641
2.56161
2.56625
2.57069
2.57513
2.57979
2.58472
2.58953
2.59332
2.59499
2.5939
2.58871
2.5781
2.56093
2.53596
2.50323
2.46354
2.41915
2.37328
2.3296
2.29134
2.26053
2.23783
2.22271
2.21496
2.21151
2.21053
2.21147
2.21409
2.21837
2.22506
2.23553
2.25095
2.27276
2.30015
2.5202
2.50577
2.49096
2.47781
2.46933
2.46601
2.46605
2.47001
2.47723
2.48671
2.49752
2.50885
2.51993
2.53079
2.54088
2.55022
2.55887
2.56699
2.57472
2.58214
2.58929
2.59609
2.60223
2.60665
2.60832
2.60677
2.60068
2.58895
2.57053
2.54424
2.51
2.46902
2.42293
2.37475
2.3279
2.2856
2.25019
2.22277
2.20322
2.19077
2.18465
2.18233
2.18193
2.18323
2.18575
2.18953
2.19553
2.20583
2.22239
2.24777
2.28072
2.50429
2.48799
2.47305
2.46145
2.45542
2.4537
2.45559
2.46124
2.46981
2.48041
2.49224
2.50466
2.5171
2.52938
2.54119
2.55252
2.56337
2.57374
2.58361
2.59291
2.60146
2.60892
2.61426
2.61638
2.61506
2.60902
2.59725
2.57869
2.55233
2.51824
2.47724
2.43103
2.38197
2.3332
2.28779
2.24821
2.21596
2.19149
2.17432
2.16362
2.15837
2.15649
2.15615
2.15715
2.15877
2.16091
2.16458
2.17239
2.18804
2.21595
2.25523
2.49077
2.47487
2.46139
2.45227
2.44847
2.44801
2.45127
2.4579
2.46714
2.47825
2.49057
2.50358
2.51683
2.53012
2.54314
2.55582
2.56804
2.57967
2.59056
2.60048
2.6091
2.61542
2.61815
2.61753
2.61211
2.60099
2.58312
2.55782
2.52516
2.48565
2.44064
2.39227
2.34315
2.296
2.25332
2.21679
2.18737
2.16513
2.14956
2.13976
2.1348
2.13278
2.1322
2.13222
2.13218
2.1315
2.13075
2.1327
2.14328
2.1712
2.21877
2.48106
2.46706
2.45595
2.4494
2.44713
2.44783
2.45195
2.45899
2.46834
2.4794
2.49169
2.50472
2.5182
2.53182
2.54531
2.55845
2.57105
2.58286
2.5936
2.60295
2.6102
2.61367
2.61378
2.60928
2.59918
2.58271
2.5594
2.52911
2.4922
2.44971
2.40335
2.3553
2.30793
2.26353
2.22379
2.18999
2.16268
2.1419
2.12721
2.11778
2.11265
2.11019
2.10891
2.1075
2.10501
2.10028
2.09205
2.08376
2.08198
2.10303
2.16309
2.47555
2.46411
2.45562
2.45132
2.45017
2.45178
2.45627
2.46323
2.47221
2.48276
2.4945
2.50707
2.52006
2.53327
2.54636
2.55907
2.57107
2.58206
2.59169
2.59937
2.60356
2.60425
2.60071
2.59202
2.57754
2.55677
2.52948
2.49594
2.45689
2.41364
2.36792
2.32168
2.27688
2.2352
2.19799
2.16615
2.14013
2.12004
2.1056
2.09612
2.09056
2.08766
2.08534
2.0822
2.07655
2.06709
2.05118
2.02601
2.00432
2.00179
2.06796
2.47376
2.46493
2.459
2.45642
2.45607
2.4582
2.46269
2.46922
2.47747
2.48713
2.49789
2.50939
2.52138
2.53351
2.54548
2.55694
2.56753
2.57687
2.58447
2.58905
2.59028
2.58783
2.58075
2.56845
2.55047
2.52656
2.49683
2.46179
2.42238
2.37991
2.3359
2.29196
2.24959
2.2101
2.17453
2.14378
2.11824
2.0982
2.08354
2.07373
2.06779
2.06429
2.06133
2.05674
2.04827
2.03351
2.0095
1.96896
1.90143
1.83887
1.83594
2.55897
2.55201
2.5453
2.53894
2.53296
2.52741
2.52231
2.51771
2.51369
2.5103
2.50763
2.50579
2.50486
2.50493
2.50599
2.50837
2.51196
2.5166
2.52214
2.5284
2.53506
2.54192
2.54857
2.55472
2.56014
2.56465
2.55366
2.54874
2.54405
2.53962
2.53543
2.53151
2.5278
2.52436
2.52119
2.51834
2.51587
2.51384
2.51235
2.51148
2.51134
2.51197
2.51352
2.51595
2.51913
2.52298
2.52736
2.53196
2.53666
2.54121
2.54539
2.54906
2.54858
2.54574
2.54309
2.54059
2.53821
2.53586
2.53354
2.5312
2.52885
2.5265
2.5242
2.52201
2.52
2.51828
2.51696
2.51613
2.51592
2.51629
2.51729
2.51889
2.52101
2.52346
2.5262
2.52903
2.53182
2.53445
2.54435
2.54356
2.54289
2.54226
2.54157
2.5407
2.53959
2.53819
2.5365
2.53452
2.53228
2.52983
2.52728
2.52473
2.5223
2.52013
2.51831
2.51691
2.51597
2.51554
2.51561
2.51606
2.51692
2.51808
2.51948
2.52102
2.54155
2.54269
2.54387
2.54492
2.54569
2.54603
2.54583
2.54513
2.54386
2.54202
2.53964
2.53679
2.53359
2.53018
2.52671
2.52329
2.52004
2.51707
2.51445
2.51226
2.51052
2.50924
2.50845
2.50813
2.50828
2.50881
2.54063
2.54351
2.54628
2.54869
2.55057
2.55174
2.55211
2.55168
2.5505
2.54848
2.54573
2.54229
2.53833
2.53401
2.5295
2.52494
2.52045
2.51613
2.5121
2.50843
2.50521
2.50251
2.50036
2.49883
2.49796
2.49778
2.54191
2.54624
2.5502
2.55354
2.55605
2.55756
2.558
2.55742
2.55589
2.55336
2.54991
2.54567
2.54083
2.53559
2.53011
2.52452
2.51896
2.51353
2.50835
2.50353
2.49917
2.4954
2.49227
2.4899
2.48837
2.48777
2.54553
2.55088
2.55554
2.55923
2.56176
2.56301
2.56296
2.56181
2.55943
2.55599
2.55157
2.54637
2.54058
2.53442
2.52803
2.52155
2.51511
2.50882
2.5028
2.49717
2.49205
2.48761
2.48393
2.48115
2.47939
2.47879
2.55143
2.55724
2.56194
2.56531
2.56717
2.56753
2.56648
2.56413
2.56053
2.55584
2.55024
2.54393
2.53715
2.53009
2.5229
2.51569
2.5086
2.50173
2.49519
2.48912
2.48368
2.479
2.47522
2.47251
2.47102
2.4709
2.55934
2.56491
2.56891
2.57118
2.57166
2.57056
2.56792
2.56388
2.55867
2.55246
2.54552
2.53805
2.53029
2.52241
2.51454
2.50681
2.49931
2.49214
2.48543
2.47932
2.47398
2.46954
2.46618
2.46408
2.46342
2.46424
2.56876
2.57331
2.57581
2.5762
2.57477
2.57152
2.56672
2.56063
2.55352
2.54565
2.53727
2.52864
2.51997
2.51139
2.50302
2.49497
2.48732
2.48017
2.47365
2.46791
2.46311
2.45943
2.45702
2.45611
2.4568
2.45909
2.57904
2.58174
2.58194
2.57997
2.57585
2.56994
2.5626
2.55419
2.54503
2.53542
2.52563
2.5159
2.50641
2.49727
2.48859
2.48045
2.47292
2.4661
2.46014
2.45519
2.4514
2.44898
2.4481
2.44892
2.45149
2.45615
2.58942
2.58949
2.58696
2.58179
2.57453
2.5656
2.55553
2.54467
2.53341
2.52209
2.51095
2.50023
2.49006
2.48053
2.47174
2.46372
2.45657
2.4504
2.44536
2.44159
2.43929
2.43866
2.43981
2.4429
2.44827
2.45584
2.59911
2.59623
2.59004
2.58136
2.57067
2.55862
2.54571
2.53242
2.51913
2.50619
2.49384
2.48226
2.47156
2.46182
2.45308
2.44541
2.43889
2.43366
2.42986
2.42768
2.42735
2.42883
2.43263
2.43886
2.44761
2.45872
2.60775
2.60099
2.59103
2.5786
2.56444
2.54929
2.53364
2.51803
2.50286
2.48847
2.47506
2.46278
2.45171
2.4419
2.43339
2.42624
2.42056
2.41652
2.41428
2.41408
2.41587
2.4202
2.42733
2.43732
2.45008
2.46524
2.61433
2.60364
2.58977
2.57371
2.55627
2.53814
2.51997
2.50227
2.48545
2.4698
2.45551
2.44268
2.43136
2.42161
2.41345
2.40697
2.40231
2.39967
2.39924
2.40106
2.40568
2.41338
2.42447
2.43881
2.45607
2.47558
2.6186
2.60398
2.58647
2.56708
2.54662
2.52588
2.5055
2.486
2.46777
2.45107
2.43606
2.42282
2.41138
2.40177
2.39405
2.38832
2.3848
2.38373
2.38508
2.38938
2.39729
2.40896
2.42452
2.44365
2.46574
2.48962
2.62031
2.60219
2.5815
2.5592
2.53618
2.51324
2.49103
2.47005
2.45068
2.43315
2.41757
2.40402
2.39252
2.38311
2.37586
2.37093
2.36863
2.36907
2.37235
2.37959
2.39119
2.40722
2.42767
2.45191
2.47886
2.5068
2.61963
2.5986
2.57528
2.55065
2.52561
2.50096
2.47731
2.45519
2.43492
2.41673
2.40072
2.38695
2.37544
2.36623
2.35944
2.3553
2.3542
2.35598
2.3615
2.37203
2.38758
2.40835
2.43393
2.46332
2.49481
2.52608
2.6169
2.59363
2.56837
2.54204
2.51554
2.48964
2.46496
2.44199
2.42105
2.40237
2.38604
2.3721
2.36057
2.35152
2.34514
2.34172
2.34163
2.34488
2.35269
2.36667
2.38643
2.41211
2.44289
2.47717
2.5125
2.5461
2.61253
2.58779
2.56128
2.53388
2.50646
2.47976
2.4544
2.43084
2.40943
2.39038
2.37382
2.35975
2.34818
2.3392
2.33309
2.33028
2.33096
2.33565
2.3458
2.3632
2.38731
2.41799
2.4538
2.4923
2.53049
2.56528
2.60708
2.58159
2.55449
2.52659
2.49873
2.47161
2.44586
2.42195
2.40021
2.38092
2.36417
2.34998
2.3383
2.32923
2.32319
2.32075
2.32205
2.328
2.34009
2.36094
2.38946
2.42496
2.46526
2.50717
2.54716
2.58203
2.60112
2.5755
2.54837
2.52046
2.49255
2.46533
2.43943
2.4153
2.39336
2.37389
2.35703
2.34273
2.33079
2.32135
2.31509
2.31265
2.31423
2.321
2.33454
2.35855
2.39129
2.43144
2.47562
2.52007
2.56088
2.59495
2.59517
2.56993
2.54321
2.51566
2.488
2.4609
2.43498
2.41072
2.38859
2.36906
2.35217
2.33778
2.32532
2.315
2.30804
2.30512
2.30649
2.31317
2.32719
2.35382
2.39078
2.43537
2.48306
2.52932
2.57021
2.60305
2.5896
2.56514
2.53914
2.51221
2.48501
2.45818
2.43234
2.40795
2.38571
2.36616
2.3495
2.3352
2.32165
2.31001
2.30163
2.29739
2.29729
2.30188
2.31504
2.34335
2.38526
2.43424
2.48502
2.53275
2.57386
2.60565
2.58469
2.56126
2.53618
2.51007
2.48349
2.457
2.43135
2.40666
2.3843
2.36518
2.34896
2.3359
2.32143
2.30752
2.29842
2.29155
2.28757
2.28536
2.29425
2.3241
2.37271
2.42682
2.48061
2.53002
2.57147
2.603
2.58055
2.5583
2.53428
2.5091
2.48326
2.45721
2.43155
2.4066
2.38437
2.36576
2.35236
2.34025
2.32681
2.31228
2.30583
2.29533
2.28414
2.26511
2.26788
2.29749
2.35063
2.41056
2.46803
2.5198
2.56281
2.59504
2.57717
2.55614
2.53321
2.50904
2.48407
2.45843
2.4327
2.407
2.38529
2.36688
2.35735
2.35154
2.34004
2.33354
2.33258
2.33042
2.32258
2.29666
2.27055
2.28181
2.3294
2.39146
2.45102
2.5045
2.54928
2.58299
2.57442
2.55451
2.53263
2.50962
2.48579
2.46075
2.43505
2.40783
2.3855
2.36567
2.35948
2.36642
2.35849
2.35337
2.35542
2.35815
2.35225
2.33242
2.30288
2.29477
2.32718
2.38343
2.43904
2.49086
2.53538
2.56983
2.57202
2.55303
2.5321
2.51043
2.48844
2.46415
2.4399
2.40681
2.3791
2.37003
2.36423
2.36032
2.36404
2.37038
2.37933
2.38595
2.38522
2.37305
2.35213
2.33483
2.34997
2.3945
2.43759
2.4845
2.52542
2.55847
2.56968
2.55113
2.53073
2.51046
2.49176
2.46627
2.44599
2.41438
2.37608
2.36179
2.36065
2.36491
2.37459
2.38909
2.40564
2.41954
2.4254
2.42129
2.40691
2.393
2.39563
2.40931
2.44478
2.48629
2.52025
2.55054
2.5673
2.54931
2.52895
2.50706
2.49371
2.47194
2.43554
2.39864
2.37638
2.36678
2.36628
2.3745
2.39062
2.4121
2.43571
2.45717
2.47084
2.47428
2.46743
2.45481
2.44532
2.44369
2.46923
2.49189
2.51875
2.54695
2.56294
2.54535
2.53309
2.51742
2.48516
2.44996
2.42007
2.39125
2.37396
2.36827
2.37317
2.38762
2.41052
2.43903
2.46961
2.49812
2.5194
2.5285
2.52794
2.51753
2.5036
2.49441
2.49303
2.50368
2.52044
2.5485
2.56262
2.54029
2.51693
2.49398
2.46753
2.43681
2.40815
2.38608
2.375
2.37411
2.38443
2.40509
2.43437
2.46934
2.5063
2.54092
2.56818
2.58187
2.58441
2.57583
2.55976
2.54295
2.52812
2.52022
2.52954
2.5565
2.54356
2.52143
2.50305
2.47714
2.44954
2.42407
2.40043
2.38493
2.37941
2.38401
2.4
2.42646
2.46144
2.5019
2.54401
2.58323
2.6141
2.63016
2.63393
2.62547
2.60804
2.58651
2.56501
2.55231
2.55086
2.57248
2.52351
2.5032
2.48111
2.46003
2.43531
2.41424
2.39672
2.38832
2.38813
2.39859
2.41998
2.45143
2.49081
2.53514
2.58038
2.62179
2.6529
2.6684
2.67122
2.66142
2.64338
2.62179
2.60003
2.58527
2.57964
2.58521
2.49518
2.47934
2.46095
2.44231
2.42394
2.40855
2.39868
2.39629
2.40229
2.41829
2.44445
2.47931
2.5212
2.56701
2.61255
2.65259
2.68007
2.69161
2.69146
2.68012
2.66319
2.64594
2.6313
2.62254
2.61866
2.61975
2.46495
2.45387
2.44116
2.4283
2.41669
2.4088
2.40625
2.41017
2.42217
2.44286
2.47214
2.50878
2.55078
2.59513
2.63728
2.67155
2.69211
2.69893
2.69492
2.68226
2.66712
2.65495
2.64913
2.64905
2.65393
2.66338
2.43612
2.43041
2.42419
2.41861
2.41519
2.415
2.41968
2.43018
2.44735
2.47142
2.50209
2.53812
2.57737
2.61681
2.65157
2.67701
2.689
2.68978
2.68115
2.66851
2.65758
2.65235
2.65273
2.66089
2.67502
2.69278
2.40969
2.41051
2.41171
2.41429
2.41911
2.42704
2.43888
2.45524
2.47637
2.50214
2.53212
2.56497
2.59848
2.62947
2.6538
2.6679
2.67073
2.66459
2.65325
2.6431
2.6378
2.63813
2.64697
2.66301
2.68517
2.71076
2.38706
2.39493
2.40412
2.4151
2.42819
2.44384
2.46219
2.48325
2.50675
2.53234
2.55953
2.58669
2.61163
2.63165
2.64323
2.64602
2.63995
2.62837
2.61727
2.61109
2.61009
2.61742
2.63365
2.65692
2.68651
2.71909
2.36882
2.38396
2.40101
2.42
2.44091
2.46338
2.48702
2.51123
2.53531
2.55883
2.58123
2.60047
2.61524
2.62243
2.62281
2.6149
2.60147
2.58799
2.57937
2.57644
2.5805
2.59381
2.61584
2.6455
2.68165
2.72125
2.35457
2.37674
2.40115
2.42736
2.45486
2.48285
2.51024
2.53581
2.55873
2.57841
2.59421
2.60459
2.60841
2.60529
2.5949
2.5791
2.562
2.54958
2.5442
2.54403
2.55252
2.57003
2.59616
2.63071
2.67278
2.71956
2.34295
2.37163
2.40248