/*--------------------------------*- C++ -*----------------------------------*\
  =========                 |
  \\      /  F ield         | OpenFOAM: The Open Source CFD Toolbox
   \\    /   O peration     | Website:  https://openfoam.org
    \\  /    A nd           | Version:  10
     \\/     M anipulation  |
\*---------------------------------------------------------------------------*/
FoamFile
{
    format      ascii;
    class       surfaceScalarField;
    location    "0.0977888";
    object      phi;
}
// * * * * * * * * * * * * * * * * * * * * * * * * * * * * * * * * * * * * * //

dimensions      [1 0 -1 0 0 0 0];

internalField   nonuniform List<scalar> 
31108
(
0.000387238
-8.32648e-06
0.000387797
-8.03149e-06
0.000388331
-7.6145e-06
0.000388826
-7.08216e-06
0.000389272
-6.4463e-06
0.000389663
-5.72396e-06
0.000389989
-4.9341e-06
0.00039024
-4.09916e-06
0.000390416
-3.25643e-06
0.000390522
-2.43487e-06
0.000390556
-1.6633e-06
0.000390517
-9.70564e-07
0.000390425
-3.89124e-07
0.000390284
5.54474e-08
0.000390097
3.56585e-07
0.000389865
4.86931e-07
0.000389604
4.24927e-07
0.000389329
1.65178e-07
0.000389054
-2.91133e-07
0.000388792
-9.25505e-07
0.000388548
-1.70663e-06
0.000388334
-2.60347e-06
0.000388155
-3.56768e-06
0.00038801
-4.53744e-06
0.000387898
-5.43985e-06
0.000387811
-6.19298e-06
0.000387738
-6.70848e-06
0.000387669
-6.89527e-06
0.000387593
-6.66404e-06
0.000387511
-5.93294e-06
0.000387426
-4.63362e-06
0.000387358
-2.71761e-06
0.000387337
-1.70421e-07
0.000387405
2.9999e-06
0.000387616
6.72386e-06
0.000388014
1.09204e-05
0.000388662
1.54308e-05
0.000389576
2.01118e-05
0.00039078
2.47788e-05
0.000392269
2.924e-05
0.000394017
3.33159e-05
0.000395972
3.6844e-05
0.000398035
3.97018e-05
0.000400152
4.17816e-05
0.000402286
4.30059e-05
0.000404335
4.33178e-05
0.000406203
4.27034e-05
0.000407816
4.11944e-05
0.000409126
3.88418e-05
0.000410091
3.57208e-05
3.1918e-05
0.00041069
0.000388071
-8.05554e-06
0.000388712
-7.83924e-06
0.000389313
-7.46408e-06
0.000389864
-6.94288e-06
0.000390358
-6.3023e-06
0.000390755
-5.51839e-06
0.000391052
-4.65744e-06
0.000391259
-3.75607e-06
0.00039137
-2.83889e-06
0.000391384
-1.94501e-06
0.000391302
-1.11324e-06
0.000391134
-3.77427e-07
0.000390887
2.18007e-07
0.000390582
6.48373e-07
0.000390233
8.94477e-07
0.000389834
9.24014e-07
0.000389414
7.14495e-07
0.000388995
2.52851e-07
0.000388597
-4.55424e-07
0.000388244
-1.39105e-06
0.000387946
-2.5089e-06
0.000387723
-3.78376e-06
0.000387587
-5.15355e-06
0.000387545
-6.54908e-06
0.000387596
-7.89041e-06
0.000387733
-9.09026e-06
0.000387945
-1.00577e-05
0.000388212
-1.07024e-05
0.000388518
-1.09387e-05
0.000388843
-1.0689e-05
0.000389176
-9.89004e-06
0.000389513
-8.49763e-06
0.000389857
-6.49041e-06
0.000390228
-3.87323e-06
0.000390651
-6.92645e-07
0.000391109
3.04596e-06
0.000391707
7.05212e-06
0.000392423
1.13681e-05
0.000393286
1.57686e-05
0.000394306
2.00838e-05
0.000395473
2.41522e-05
0.000396756
2.78135e-05
0.000398094
3.09097e-05
0.000399447
3.33699e-05
0.000400803
3.50754e-05
0.00040209
3.59384e-05
0.000403248
3.5924e-05
0.00040422
3.50383e-05
0.000404969
3.33105e-05
0.000405473
3.07943e-05
2.75627e-05
0.000405719
0.000388772
-8.20698e-06
0.000389527
-8.02032e-06
0.000390234
-7.63469e-06
0.00039089
-7.09648e-06
0.000391411
-6.32684e-06
0.000391827
-5.45176e-06
0.000392129
-4.47789e-06
0.0003923
-3.45026e-06
0.000392342
-2.41094e-06
0.000392254
-1.40671e-06
0.000392043
-4.83728e-07
0.000391725
3.06718e-07
0.000391304
9.2375e-07
0.000390808
1.33402e-06
0.000390264
1.50301e-06
0.000389667
1.39299e-06
0.000389054
9.80869e-07
0.000388459
2.52968e-07
0.000387915
-7.84292e-07
0.000387439
-2.08681e-06
0.000387072
-3.62548e-06
0.000386832
-5.34695e-06
0.000386738
-7.18143e-06
0.000386802
-9.04471e-06
0.000387025
-1.08444e-05
0.000387397
-1.24825e-05
0.000387904
-1.38642e-05
0.00038852
-1.48976e-05
0.000389213
-1.54968e-05
0.000389953
-1.55912e-05
0.00039071
-1.51254e-05
0.000391458
-1.40627e-05
0.000392182
-1.23858e-05
0.000392873
-1.01006e-05
0.000393517
-7.23874e-06
0.000394167
-3.85729e-06
0.000394764
-8.04497e-08
0.000395364
4.00395e-06
0.00039597
8.23728e-06
0.000396614
1.24492e-05
0.000397294
1.65103e-05
0.000398
2.02526e-05
0.000398662
2.356e-05
0.000399309
2.62862e-05
0.000399927
2.83147e-05
0.000400478
2.95648e-05
0.000400928
2.9979e-05
0.000401246
2.95355e-05
0.000401412
2.82459e-05
0.000401417
2.6148e-05
2.32981e-05
0.00040127
0.000389382
-8.6979e-06
0.000390294
-8.48822e-06
0.000391166
-8.06941e-06
0.000391887
-7.36634e-06
0.000392497
-6.48008e-06
0.000392959
-5.44275e-06
0.000393262
-4.29928e-06
0.000393395
-3.09998e-06
0.00039336
-1.89908e-06
0.000393154
-7.54322e-07
0.000392796
2.74869e-07
0.000392296
1.12892e-06
0.000391666
1.75774e-06
0.000390949
2.13133e-06
0.000390167
2.18206e-06
0.000389325
1.88062e-06
0.000388478
1.19518e-06
0.000387669
1.2387e-07
0.000386943
-1.32685e-06
0.000386333
-3.08301e-06
0.000385881
-5.12075e-06
0.000385622
-7.36118e-06
0.000385579
-9.71547e-06
0.000385766
-1.20805e-05
0.000386186
-1.43466e-05
0.000386825
-1.64051e-05
0.000387659
-1.81545e-05
0.000388653
-1.94975e-05
0.000389763
-2.03537e-05
0.000390942
-2.0659e-05
0.000392142
-2.03681e-05
0.000393321
-1.94572e-05
0.000394443
-1.79117e-05
0.0003955
-1.57722e-05
0.000396422
-1.30084e-05
0.00039721
-9.73865e-06
0.000397875
-6.06063e-06
0.000398429
-2.06803e-06
0.00039888
2.11126e-06
0.000399212
6.32809e-06
0.000399451
1.04226e-05
0.000399605
1.42524e-05
0.00039968
1.76853e-05
0.000399678
2.05844e-05
0.000399593
2.28291e-05
0.000399421
2.432e-05
0.000399159
2.49894e-05
0.000398802
2.48063e-05
0.000398358
2.37544e-05
0.000397823
2.18851e-05
1.92146e-05
0.000397243
0.000389947
-9.42151e-06
0.000391087
-9.16562e-06
0.000392083
-8.57486e-06
0.000392955
-7.70552e-06
0.00039366
-6.62895e-06
0.000394175
-5.38209e-06
0.000394483
-4.02365e-06
0.000394574
-2.61519e-06
0.000394447
-1.22458e-06
0.000394101
8.22969e-08
0.000393563
1.21668e-06
0.00039284
2.12824e-06
0.000391962
2.74892e-06
0.000390978
3.04098e-06
0.000389904
2.9244e-06
0.000388763
2.35567e-06
0.000387633
1.31402e-06
0.000386571
-1.93288e-07
0.000385622
-2.13397e-06
0.000384861
-4.45108e-06
0.00038432
-7.05955e-06
0.000384049
-9.88019e-06
0.000384078
-1.27937e-05
0.000384422
-1.56743e-05
0.000385082
-1.83928e-05
0.000386032
-2.08341e-05
0.000387243
-2.28831e-05
0.000388663
-2.44455e-05
0.000390233
-2.54456e-05
0.000391888
-2.58294e-05
0.000393562
-2.55629e-05
0.000395226
-2.46696e-05
0.000396818
-2.30928e-05
0.000398193
-2.08245e-05
0.000399387
-1.80058e-05
0.000400381
-1.46829e-05
0.000401144
-1.09424e-05
0.000401675
-6.89266e-06
0.000401982
-2.65543e-06
0.000402074
1.63613e-06
0.000401934
5.83448e-06
0.000401614
9.74166e-06
0.000401123
1.32747e-05
0.000400476
1.6283e-05
0.000399694
1.86356e-05
0.000398799
2.02278e-05
0.000397821
2.09835e-05
0.000396759
2.0888e-05
0.000395623
1.99163e-05
0.000394525
1.80227e-05
1.53035e-05
0.000393516
0.000390515
-1.02659e-05
0.000391866
-9.85471e-06
0.000393074
-9.05713e-06
0.000394108
-7.97262e-06
0.000394928
-6.65201e-06
0.000395504
-5.15241e-06
0.000395815
-3.54337e-06
0.000395851
-1.89993e-06
0.000395606
-3.03251e-07
0.000395098
1.15828e-06
0.000394337
2.39395e-06
0.000393346
3.33137e-06
0.000392152
3.92485e-06
0.000390841
4.06042e-06
0.000389409
3.69265e-06
0.000387919
2.76709e-06
0.000386454
1.27562e-06
0.000385092
-7.64492e-07
0.00038391
-3.29921e-06
0.000382965
-6.2377e-06
0.000382337
-9.48908e-06
0.000382074
-1.29279e-05
0.00038221
-1.64113e-05
0.000382762
-1.97888e-05
0.000383713
-2.2918e-05
0.000385038
-2.5671e-05
0.000386687
-2.79304e-05
0.000388592
-2.96053e-05
0.000390675
-3.0629e-05
0.000392862
-3.09727e-05
0.000395101
-3.06389e-05
0.000397241
-2.95389e-05
0.000399222
-2.77285e-05
0.000401006
-2.52694e-05
0.000402522
-2.22297e-05
0.000403734
-1.86975e-05
0.000404615
-1.47588e-05
0.000405152
-1.05274e-05
0.000405341
-6.12946e-06
0.000405208
-1.70533e-06
0.00040471
2.66725e-06
0.000403934
6.64275e-06
0.000402888
1.02451e-05
0.000401602
1.32987e-05
0.000400119
1.56594e-05
0.000398486
1.72209e-05
0.000396731
1.79499e-05
0.000394928
1.77413e-05
0.000393167
1.65804e-05
0.000391492
1.44979e-05
1.16016e-05
0.000389975
0.000391095
-1.10455e-05
0.000392709
-1.04035e-05
0.000394153
-9.36852e-06
0.000395371
-8.01705e-06
0.000396317
-6.41439e-06
0.000396957
-4.63115e-06
0.000397265
-2.75011e-06
0.00039723
-8.61718e-07
0.000396838
9.39427e-07
0.000396126
2.53426e-06
0.00039509
3.83917e-06
0.000393763
4.77397e-06
0.00039223
5.25067e-06
0.000390515
5.15588e-06
0.000388645
4.44146e-06
0.000386734
3.05476e-06
0.000384875
1.01155e-06
0.000383169
-1.66054e-06
0.000381724
-4.87733e-06
0.0003806
-8.49171e-06
0.0003799
-1.24219e-05
0.000379677
-1.64806e-05
0.000379969
-2.05052e-05
0.000380787
-2.43208e-05
0.000382098
-2.77813e-05
0.000383867
-3.07457e-05
0.000386022
-3.31038e-05
0.000388477
-3.47716e-05
0.000391143
-3.57149e-05
0.000393928
-3.59212e-05
0.000396683
-3.53034e-05
0.000399352
-3.39026e-05
0.000401824
-3.17675e-05
0.000404013
-2.8979e-05
0.000405857
-2.56135e-05
0.000407304
-2.17601e-05
0.000408314
-1.75188e-05
0.000408866
-1.30162e-05
0.00040895
-8.38144e-06
0.000408564
-3.75815e-06
0.000407775
7.10712e-07
0.000406522
4.8432e-06
0.000404905
8.47153e-06
0.000402962
1.14959e-05
0.000400753
1.37601e-05
0.000398326
1.52133e-05
0.000395829
1.56919e-05
0.000393278
1.51922e-05
0.000390797
1.36952e-05
0.000388503
1.12612e-05
8.02608e-06
0.000386492
0.000391704
-1.15844e-05
0.000393631
-1.06711e-05
0.000395333
-9.35293e-06
0.000396752
-7.69764e-06
0.000397833
-5.78551e-06
0.000398535
-3.70225e-06
0.000398826
-1.54501e-06
0.000398695
5.78664e-07
0.000398126
2.55926e-06
0.000397156
4.24938e-06
0.000395782
5.57212e-06
0.000394073
6.45011e-06
0.000392109
6.69303e-06
0.000389899
6.27908e-06
0.000387529
5.09323e-06
0.00038513
3.1403e-06
0.000382827
4.42498e-07
0.000380768
-2.97941e-06
0.000379007
-6.88318e-06
0.000377725
-1.12387e-05
0.000376983
-1.5824e-05
0.000376851
-2.04593e-05
0.000377366
-2.49467e-05
0.000378515
-2.91016e-05
0.000380263
-3.27751e-05
0.000382549
-3.58265e-05
0.000385281
-3.81574e-05
0.00038836
-3.97145e-05
0.000391655
-4.04728e-05
0.000395035
-4.03601e-05
0.000398405
-3.93833e-05
0.000401637
-3.75802e-05
0.000404605
-3.50506e-05
0.000407222
-3.18547e-05
0.000409408
-2.80798e-05
0.000411098
-2.38315e-05
0.000412246
-1.92296e-05
0.000412816
-1.43992e-05
0.000412797
-9.48698e-06
0.000412182
-4.647e-06
0.000411008
-4.04837e-08
0.000409296
4.1643e-06
0.000407085
7.78385e-06
0.000404453
1.06909e-05
0.000401463
1.27961e-05
0.000398295
1.39227e-05
0.000394961
1.40555e-05
0.000391602
1.30966e-05
0.000388386
1.111e-05
0.000385472
8.19587e-06
4.51892e-06
0.000382968
0.000392383
-1.17326e-05
0.000394637
-1.05116e-05
0.000396614
-8.86706e-06
0.000398245
-6.88572e-06
0.000399463
-4.65281e-06
0.000400219
-2.26959e-06
0.000400475
1.51825e-07
0.00040021
2.48071e-06
0.000399436
4.58129e-06
0.000398148
6.31367e-06
0.000396363
7.62178e-06
0.000394237
8.26169e-06
0.000391733
8.23078e-06
0.000388948
7.32994e-06
0.000385991
5.57105e-06
0.000383052
2.93431e-06
0.000380275
-5.16678e-07
0.000377776
-4.67974e-06
0.000375763
-9.37341e-06
0.000374335
-1.44195e-05
0.000373603
-1.96069e-05
0.000373624
-2.47186e-05
0.000374434
-2.95428e-05
0.000375988
-3.39045e-05
0.000378248
-3.76445e-05
0.000381119
-4.06454e-05
0.00038451
-4.284e-05
0.000388243
-4.41878e-05
0.000392202
-4.46002e-05
0.000396248
-4.40733e-05
0.000400254
-4.26773e-05
0.000404075
-4.04397e-05
0.000407568
-3.74526e-05
0.000410625
-3.37979e-05
0.000413165
-2.95795e-05
0.000415108
-2.49045e-05
0.000416393
-1.99046e-05
0.000416976
-1.47282e-05
0.000416844
-9.52885e-06
0.000415975
-4.48228e-06
0.000414412
2.46008e-07
0.000412185
4.46076e-06
0.000409338
7.99186e-06
0.000405946
1.07203e-05
0.000402211
1.25033e-05
0.000398158
1.32171e-05
0.000393965
1.27798e-05
0.000389792
1.12457e-05
0.000385841
8.66943e-06
0.000382299
5.19434e-06
1.0297e-06
0.000379331
0.000393126
-1.13556e-05
0.000395724
-9.79284e-06
0.000397994
-7.80951e-06
0.00039984
-5.48916e-06
0.000401191
-2.93879e-06
0.000401987
-2.73742e-07
0.000402179
2.38419e-06
0.000401747
4.857e-06
0.000400699
7.01163e-06
0.000399005
8.75201e-06
0.000396837
9.85835e-06
0.000394117
1.02399e-05
0.000390999
9.70454e-06
0.000387555
8.23763e-06
0.000383962
5.76188e-06
0.000380423
2.35753e-06
0.000377126
-1.90655e-06
0.000374244
-6.85299e-06
0.000371979
-1.22846e-05
0.000370464
-1.79486e-05
0.000369801
-2.36134e-05
0.000370056
-2.9057e-05
0.000371229
-3.40599e-05
0.000373268
-3.84638e-05
0.000376103
-4.21197e-05
0.000379644
-4.49638e-05
0.000383714
-4.69158e-05
0.000388134
-4.78865e-05
0.000392807
-4.7882e-05
0.000397563
-4.69337e-05
0.000402233
-4.50588e-05
0.000406653
-4.23692e-05
0.000410682
-3.89109e-05
0.000414205
-3.47849e-05
0.000417109
-3.0104e-05
0.000419307
-2.49957e-05
0.000420727
-1.96004e-05
0.000421311
-1.40818e-05
0.000421043
-8.61454e-06
0.000419897
-3.39324e-06
0.000417902
1.4064e-06
0.000415109
5.55478e-06
0.000411539
8.92139e-06
0.000407398
1.13663e-05
0.000402808
1.26557e-05
0.000397871
1.27897e-05
0.000392749
1.1727e-05
0.000387744
9.47212e-06
0.000383073
6.23702e-06
0.00037894
2.18236e-06
-2.44586e-06
0.00037556
0.000393949
-1.03723e-05
0.000396893
-8.44926e-06
0.000399455
-6.11742e-06
0.000401514
-3.46341e-06
0.000402986
-6.12929e-07
0.000403794
2.30082e-06
0.0004039
5.12707e-06
0.000403245
7.68777e-06
0.000401818
9.87336e-06
0.000399766
1.14407e-05
0.000397009
1.22704e-05
0.000393682
1.21734e-05
0.000389848
1.10758e-05
0.000385671
8.8668e-06
0.000381385
5.59441e-06
0.000377221
1.34078e-06
0.000373401
-3.75138e-06
0.000370174
-9.46375e-06
0.000367697
-1.55102e-05
0.000366158
-2.16622e-05
0.000365651
-2.76466e-05
0.000366221
-3.32354e-05
0.000367827
-3.82459e-05
0.000370418
-4.25249e-05
0.000373931
-4.60089e-05
0.000378112
-4.85503e-05
0.000382881
-5.01194e-05
0.000388042
-5.06638e-05
0.000393465
-5.02383e-05
0.000398953
-4.88436e-05
0.000404307
-4.65159e-05
0.000409349
-4.3358e-05
0.000413932
-3.94357e-05
0.000417928
-3.48549e-05
0.000421206
-2.9726e-05
0.000423661
-2.41932e-05
0.000425212
-1.84182e-05
0.000425785
-1.258e-05
0.000425345
-6.87982e-06
0.00042388
-1.53439e-06
0.000421408
3.26166e-06
0.00041794
7.28866e-06
0.00041365
1.04129e-05
0.000408701
1.23367e-05
0.000403164
1.30779e-05
0.000397273
1.25012e-05
0.00039123
1.06358e-05
0.000385393
7.66448e-06
0.000380043
3.74694e-06
0.000375387
-8.46675e-07
-5.84772e-06
0.00037167
0.000394837
-8.75923e-06
0.000398135
-6.47772e-06
0.000400984
-3.79842e-06
0.000403246
-8.27946e-07
0.000404819
2.29212e-06
0.000405611
5.40652e-06
0.00040556
8.34376e-06
0.00040461
1.09609e-05
0.000402858
1.29995e-05
0.000400252
1.43124e-05
0.000396882
1.47142e-05
0.000392795
1.40405e-05
0.00038817
1.21754e-05
0.000383194
9.14459e-06
0.000378202
4.98332e-06
0.000373424
-1.35875e-07
0.000369129
-6.02543e-06
0.000365573
-1.23741e-05
0.000362994
-1.89172e-05
0.00036153
-2.53656e-05
0.000361265
-3.14675e-05
0.000362217
-3.7014e-05
0.000364325
-4.18614e-05
0.000367579
-4.59597e-05
0.00037165
-4.90489e-05
0.000376567
-5.12401e-05
0.000382056
-5.23616e-05
0.000388012
-5.25262e-05
0.000394185
-5.16639e-05
0.000400401
-4.98299e-05
0.000406455
-4.71032e-05
0.000412128
-4.35131e-05
0.00041729
-3.91585e-05
0.000421776
-3.4141e-05
0.000425442
-2.85892e-05
0.000428159
-2.26526e-05
0.000429823
-1.65179e-05
0.000430361
-1.03884e-05
0.000429708
-4.49556e-06
0.000427867
9.19487e-07
0.000424797
5.66759e-06
0.000420665
9.51624e-06
0.000415608
1.21437e-05
0.00040971
1.35746e-05
0.00040317
1.35539e-05
0.000396278
1.21486e-05
0.000389306
9.48372e-06
0.000382706
5.75375e-06
0.000376744
1.2172e-06
0.000371659
-3.81695e-06
-9.05268e-06
0.00036771
0.000395802
-6.58938e-06
0.000399457
-3.95307e-06
0.000402578
-9.40863e-07
0.000405022
2.322e-06
0.000406662
5.67484e-06
0.000407395
8.93783e-06
0.000407065
1.19789e-05
0.000405909
1.45006e-05
0.000403622
1.63186e-05
0.000400425
1.72541e-05
0.000396296
1.70626e-05
0.000391397
1.56436e-05
0.000385918
1.29496e-05
0.000380133
8.99348e-06
0.000374402
3.9346e-06
0.000369044
-2.02169e-06
0.000364333
-8.58889e-06
0.000360581
-1.54439e-05
0.00035799
-2.22788e-05
0.000356692
-2.88186e-05
0.000356753
-3.48409e-05
0.000358148
-4.01766e-05
0.000360858
-4.48286e-05
0.000364627
-4.84491e-05
0.000369417
-5.12631e-05
0.000375012
-5.29682e-05
0.000381283
-5.37524e-05
0.000387998
-5.35034e-05
0.000394932
-5.22801e-05
0.000401879
-5.00897e-05
0.00040863
-4.69993e-05
0.000414978
-4.30379e-05
0.000420753
-3.82989e-05
0.000425751
-3.28795e-05
0.000429808
-2.6922e-05
0.000432789
-2.05977e-05
0.000434551
-1.41151e-05
0.000435021
-7.71209e-06
0.000434102
-1.66808e-06
0.000431753
3.85178e-06
0.000428099
8.4791e-06
0.000423225
1.19319e-05
0.000417224
1.41482e-05
0.000410297
1.48045e-05
0.000402722
1.39785e-05
0.000394812
1.17277e-05
0.000386996
8.23564e-06
0.000379681
3.82038e-06
0.000373202
-1.23242e-06
0.000367814
-6.55674e-06
-1.18609e-05
0.000363741
0.000396857
-4.02094e-06
0.000400866
-1.04288e-06
0.000404244
2.28644e-06
0.00040684
5.81681e-06
0.000408499
9.36631e-06
0.000409049
1.28167e-05
0.000408591
1.58156e-05
0.000406924
1.81839e-05
0.000404123
1.96957e-05
0.000400166
2.00805e-05
0.000395197
1.92072e-05
0.00038938
1.69603e-05
0.000383019
1.33129e-05
0.000376411
8.42158e-06
0.000370001
2.49688e-06
0.000364149
-4.18735e-06
0.000359142
-1.1274e-05
0.000355303
-1.84344e-05
0.000352809
-2.53461e-05
0.000351768
-3.17848e-05
0.000352231
-3.75601e-05
0.000354165
-4.27031e-05
0.000357325
-4.68339e-05
0.000361734
-5.01975e-05
0.000367177
-5.25016e-05
0.00037351
-5.39379e-05
0.00038051
-5.43673e-05
0.00038794
-5.38284e-05
0.000395662
-5.23325e-05
0.000403379
-4.99048e-05
0.000410843
-4.65203e-05
0.000417918
-4.22575e-05
0.000424317
-3.71748e-05
0.00042986
-3.13837e-05
0.000434334
-2.50298e-05
0.000437579
-1.83117e-05
0.000439421
-1.14713e-05
0.000439755
-4.78546e-06
0.000438481
1.46756e-06
0.000435627
7.03609e-06
0.000431271
1.14498e-05
0.000425497
1.46096e-05
0.00041845
1.61289e-05
0.000410416
1.60663e-05
0.000401738
1.43987e-05
0.000392858
1.1268e-05
0.000384253
7.03994e-06
0.000376354
2.03969e-06
0.000369476
-3.36249e-06
0.000363908
-8.81642e-06
-1.40408e-05
0.000359845
0.000398041
-1.30389e-06
0.000402388
2.00452e-06
0.000406003
5.63766e-06
0.000408703
9.42453e-06
0.000410296
1.32235e-05
0.000410746
1.67434e-05
0.000409892
1.97071e-05
0.000407762
2.18773e-05
0.000404203
2.29395e-05
0.000399405
2.27337e-05
0.000393507
2.10605e-05
0.000386739
1.78952e-05
0.000379451
1.33216e-05
0.00037208
7.52799e-06
0.000365076
8.36853e-07
0.00035883
-6.40368e-06
0.000353671
-1.38171e-05
0.000349857
-2.10564e-05
0.000347571
-2.78717e-05
0.000346878
-3.40502e-05
0.000347824
-3.9636e-05
0.000350136
-4.42442e-05
0.000353867
-4.81165e-05
0.000358869
-5.10292e-05
0.000364974
-5.31116e-05
0.000371962
-5.42683e-05
0.000379671
-5.45044e-05
0.000387895
-5.38443e-05
0.000396347
-5.22118e-05
0.00040485
-4.96215e-05
0.000413141
-4.60707e-05
0.00042093
-4.15729e-05
0.000428024
-3.6194e-05
0.000434159
-3.00406e-05
0.000439083
-2.32748e-05
0.000442594
-1.61241e-05
0.000444492
-8.87827e-06
0.000444566
-1.80542e-06
0.000442949
4.75128e-06
0.000439456
1.02724e-05
0.000434272
1.46072e-05
0.000427407
1.72746e-05
0.000419189
1.82404e-05
0.000409991
1.7397e-05
0.00040026
1.48712e-05
0.000390427
1.10184e-05
0.000381116
6.15714e-06
0.00037276
7.33661e-07
0.000365635
-4.85306e-06
0.000360018
-1.02879e-05
-1.54647e-05
0.000356086
0.000399399
1.23325e-06
0.000404082
4.86414e-06
0.0004079
8.81382e-06
0.00041065
1.29016e-05
0.000412204
1.6963e-05
0.000412339
2.05518e-05
0.000411123
2.34822e-05
0.000408232
2.53597e-05
0.000403881
2.59841e-05
0.000398126
2.50987e-05
0.000391171
2.26245e-05
0.000383413
1.8562e-05
0.00037524
1.30836e-05
0.000367164
6.51583e-06
0.000359691
-7.66651e-07
0.0003532
-8.35878e-06
0.000348018
-1.58863e-05
0.00034437
-2.30369e-05
0.000342375
-2.96046e-05
0.000342128
-3.5617e-05
0.000343371
-4.06807e-05
0.000346183
-4.50635e-05
0.000350454
-4.85767e-05
0.000356019
-5.13019e-05
0.000362698
-5.32282e-05
0.000370344
-5.43133e-05
0.000378781
-5.45793e-05
0.000387732
-5.39215e-05
0.000396997
-5.23236e-05
0.000406306
-4.97337e-05
0.000415432
-4.61142e-05
0.00042409
-4.14619e-05
0.000431957
-3.5819e-05
0.00043874
-2.92923e-05
0.000444157
-2.20594e-05
0.000447936
-1.43899e-05
0.000449828
-6.58046e-06
0.000449688
1.03453e-06
0.000447569
7.86251e-06
0.000443318
1.36195e-05
0.000437007
1.77915e-05
0.000428935
2.01396e-05
0.000419477
2.0527e-05
0.000409017
1.89586e-05
0.000398167
1.57944e-05
0.000387541
1.12792e-05
0.000377631
5.98511e-06
0.000368949
2.91291e-07
0.000361707
-5.30691e-06
0.000356121
-1.07166e-05
-1.57338e-05
0.000352332
0.000401007
3.20406e-06
0.000406026
7.16433e-06
0.000410044
1.14806e-05
0.000412799
1.59933e-05
0.000414232
2.02519e-05
0.000414054
2.40639e-05
0.000412127
2.69206e-05
0.000408474
2.86008e-05
0.000403118
2.87398e-05
0.000396247
2.72459e-05
0.000388218
2.39619e-05
0.000379447
1.91003e-05
0.000370435
1.28789e-05
0.000361765
5.72672e-06
0.000353959
-1.93357e-06
0.000347376
-9.6726e-06
0.000342302
-1.71417e-05
0.00033891
-2.4082e-05
0.000337288
-3.04902e-05
0.000337307
-3.60751e-05
0.000338987
-4.09784e-05
0.000342281
-4.50941e-05
0.000347005
-4.84744e-05
0.000353056
-5.12112e-05
0.000360301
-5.31903e-05
0.000368601
-5.44936e-05
0.000377692
-5.49464e-05
0.000387395
-5.45374e-05
0.000397497
-5.316e-05
0.000407776
-5.07326e-05
0.000417851
-4.71723e-05
0.00042742
-4.24446e-05
0.000436184
-3.65606e-05
0.000443738
-2.96168e-05
0.000449713
-2.18078e-05
0.000453807
-1.34576e-05
0.000455629
-4.7916e-06
0.00045529
3.39632e-06
0.000452473
1.08999e-05
0.000447168
1.69428e-05
0.000439637
2.11777e-05
0.00043019
2.33061e-05
0.000419264
2.32453e-05
0.000407541
2.12376e-05
0.000395643
1.7486e-05
0.000384175
1.25905e-05
0.000373823
6.995e-06
0.000364909
1.17857e-06
0.000357596
-4.3301e-06
0.000352266
-9.91659e-06
-1.47321e-05
0.000348548
0.000402989
4.16737e-06
0.000408334
8.53779e-06
0.000412546
1.33211e-05
0.000415338
1.82679e-05
0.00041653
2.3018e-05
0.000415745
2.70162e-05
0.000413126
2.99971e-05
0.000408434
3.14874e-05
0.000401952
3.13153e-05
0.000393873
2.92273e-05
0.000384667
2.53634e-05
0.000374882
1.98464e-05
0.00036512
1.30997e-05
0.000356002
5.58695e-06
0.000347982
-2.23057e-06
0.000341439
-9.93822e-06
0.000336568
-1.72443e-05
0.000333465
-2.40201e-05
0.000332152
-3.01967e-05
0.000332543
-3.56678e-05
0.000334598
-4.04067e-05
0.000338233
-4.44881e-05
0.000343399
-4.8096e-05
0.000349882
-5.10218e-05
0.000357684
-5.34387e-05
0.000366511
-5.51202e-05
0.000376302
-5.60721e-05
0.00038685
-5.61524e-05
0.000397879
-5.52216e-05
0.000409126
-5.31376e-05
0.000420316
-4.97881e-05
0.000431042
-4.50697e-05
0.00044087
-3.8953e-05
0.000449335
-3.15158e-05
0.000455967
-2.29625e-05
0.000460397
-1.35915e-05
0.000462339
-3.97591e-06
0.000461459
5.45007e-06
0.000457756
1.37029e-05
0.000451278
2.04356e-05
0.000442202
2.49546e-05
0.000431115
2.71121e-05
0.000418712
2.69395e-05
0.000405642
2.4578e-05
0.00039263
2.05977e-05
0.000380485
1.54575e-05
0.000369693
9.73509e-06
0.000360621
3.85398e-06
0.000353432
-1.85591e-06
0.000348029
-7.36131e-06
-1.22422e-05
0.000344546
0.000405398
3.71125e-06
0.000411217
8.56456e-06
0.000415518
1.39807e-05
0.000418377
1.96196e-05
0.000419132
2.48679e-05
0.000417786
2.94173e-05
0.000414121
3.25957e-05
0.000408282
3.41923e-05
0.000400441
3.37984e-05
0.000391042
3.14531e-05
0.00038064
2.71077e-05
0.000369869
2.12529e-05
0.000359468
1.42421e-05
0.000349955
6.60833e-06
0.000341841
-1.18434e-06
0.000335418
-8.77472e-06
0.00033073
-1.58838e-05
0.000328
-2.26933e-05
0.000326922
-2.87617e-05
0.000327597
-3.42005e-05
0.000329957
-3.90914e-05
0.00033399
-4.3603e-05
0.000339415
-4.75601e-05
0.000346344
-5.11583e-05
0.000354535
-5.41765e-05
0.000364007
-5.66469e-05
0.000374521
-5.83743e-05
0.000385911
-5.92005e-05
0.000397977
-5.89718e-05
0.000410426
-5.7461e-05
0.000422906
-5.45042e-05
0.000434965
-4.99074e-05
0.000446116
-4.35731e-05
0.00045573
-3.55229e-05
0.000463266
-2.59744e-05
0.00046805
-1.5203e-05
0.000470044
-4.04049e-06
0.000468575
6.86493e-06
0.000463817
1.65737e-05
0.000455709
2.43152e-05
0.000444859
2.95644e-05
0.000432005
3.21209e-05
0.000417853
3.20301e-05
0.00040333
2.97444e-05
0.000389295
2.5689e-05
0.000376382
2.04803e-05
0.000365222
1.46634e-05
0.000355932
8.66645e-06
0.00034882
2.61534e-06
0.000343469
-3.04167e-06
-8.38234e-06
0.000340194
0.000408525
1.3596e-06
0.000414814
6.86566e-06
0.000419494
1.31134e-05
0.00042219
1.96306e-05
0.000422482
2.59038e-05
0.000420162
3.11407e-05
0.000415378
3.49679e-05
0.00040808
3.68487e-05
0.000398809
3.66384e-05
0.000387931
3.41627e-05
0.000376255
2.98237e-05
0.000364575
2.38765e-05
0.00035346
1.68657e-05
0.000343689
9.31e-06
0.000335556
1.63478e-06
0.000329222
-5.80683e-06
0.000324792
-1.29853e-05
0.000322177
-1.98169e-05
0.000321341
-2.60706e-05
0.000322305
-3.18612e-05
0.000324951
-3.73433e-05
0.000329104
-4.24146e-05
0.000334896
-4.72898e-05
0.000342099
-5.17351e-05
0.000350806
-5.58399e-05
0.000360818
-5.93551e-05
0.000372089
-6.21768e-05
0.000384454
-6.40912e-05
0.000397661
-6.48421e-05
0.000411485
-6.41814e-05
0.000425546
-6.18594e-05
0.000439306
-5.75518e-05
0.000452154
-5.10393e-05
0.000463269
-4.22265e-05
0.000471958
-3.12911e-05
0.000477452
-1.86575e-05
0.000479399
-5.27013e-06
0.000477062
7.98127e-06
0.000470829
1.96707e-05
0.000460881
2.91263e-05
0.000447967
3.55718e-05
0.000432979
3.89166e-05
0.000416871
3.93989e-05
0.000400844
3.73423e-05
0.000385606
3.34201e-05
0.000371898
2.81839e-05
0.000360284
2.22096e-05
0.000350783
1.58539e-05
0.000343482
9.2989e-06
0.00033821
3.04771e-06
-3.01333e-06
0.000335046
0.000412419
-3.33173e-06
0.000419453
3.00625e-06
0.000424428
1.04618e-05
0.000426999
1.83571e-05
0.000426646
2.5907e-05
0.000423368
3.24729e-05
0.000417056
3.72509e-05
0.000408183
3.99305e-05
0.000397136
4.01518e-05
0.000384691
3.8143e-05
0.000371766
3.39974e-05
0.000359043
2.83143e-05
0.000347369
2.15427e-05
0.000337262
1.41595e-05
0.000329069
6.57323e-06
0.000322713
-7.67118e-07
0.000318499
-8.34499e-06
0.0003159
-1.54066e-05
0.000315316
-2.22412e-05
0.00031642
-2.87889e-05
0.000319107
-3.50776e-05
0.000323512
-4.13167e-05
0.000329423
-4.73085e-05
0.000336998
-5.31208e-05
0.000346094
-5.85654e-05
0.000356706
-6.3521e-05
0.000368799
-6.77903e-05
0.000382215
-7.11085e-05
0.000396712
-7.31818e-05
0.000412169
-7.37368e-05
0.000428157
-7.23977e-05
0.000444072
-6.86408e-05
0.000459115
-6.20471e-05
0.000472266
-5.23094e-05
0.000482571
-3.95234e-05
0.000488901
-2.42342e-05
0.000490706
-7.57319e-06
0.00048735
8.88579e-06
0.000479424
2.36411e-05
0.000467084
3.54645e-05
0.000451585
4.37634e-05
0.000434162
4.84479e-05
0.000415977
4.97014e-05
0.000398082
4.81466e-05
0.000381483
4.43802e-05
0.000366883
3.90264e-05
0.000354652
3.26432e-05
0.000344821
2.55823e-05
0.00033719
1.8231e-05
0.000331957
1.08997e-05
3.63537e-06
0.000328813
0.000417497
-1.088e-05
0.000425497
-3.37102e-06
0.000431034
5.71327e-06
0.000433409
1.55196e-05
0.000432227
2.52448e-05
0.000427554
3.35435e-05
0.00041961
4.00206e-05
0.00040872
4.38837e-05
0.000395827
4.51804e-05
0.000381669
4.38537e-05
0.000367243
4.03977e-05
0.000353553
3.51992e-05
0.000341094
2.87613e-05
0.000330566
2.15638e-05
0.00032214
1.39382e-05
0.00031585
6.16441e-06
0.000311401
-1.6997e-06
0.000308973
-9.61573e-06
0.000308363
-1.73216e-05
0.000309442
-2.49539e-05
0.000312274
-3.26577e-05
0.000316698
-4.02795e-05
0.000322846
-4.79182e-05
0.000330637
-5.53584e-05
0.000340171
-6.257e-05
0.000351409
-6.92642e-05
0.00036434
-7.53817e-05
0.000378851
-8.04424e-05
0.00039483
-8.42408e-05
0.000412134
-8.64634e-05
0.000430395
-8.65581e-05
0.000448997
-8.38216e-05
0.000466962
-7.74062e-05
0.000482998
-6.66669e-05
0.000495581
-5.13856e-05
0.000503226
-3.23166e-05
0.000504891
-1.09619e-05
0.000500362
1.01178e-05
0.000489948
2.91028e-05
0.000474653
4.4377e-05
0.000456216
5.51966e-05
0.000435871
6.1538e-05
0.000414949
6.38901e-05
0.000395063
6.28351e-05
0.000376943
5.91003e-05
0.000361105
5.33055e-05
0.000347939
4.61197e-05
0.000337606
3.79555e-05
0.000329705
2.92384e-05
0.000324301
2.03317e-05
1.14509e-05
0.000321059
0.000423908
-2.18499e-05
0.000433268
-1.27646e-05
0.000439473
-1.32066e-06
0.000441823
1.13029e-05
0.000439589
2.39528e-05
0.000433365
3.51128e-05
0.000423252
4.3734e-05
0.000410198
4.95684e-05
0.000395068
5.22885e-05
0.000378926
5.22116e-05
0.000362967
4.96285e-05
0.000347948
4.50583e-05
0.000334686
3.89693e-05
0.000323551
3.17695e-05
0.000314691
2.38431e-05
0.000308058
1.54258e-05
0.000303498
6.62959e-06
0.000300846
-2.32799e-06
0.00030017
-1.14102e-05
0.000301241
-2.06795e-05
0.000303947
-3.00081e-05
0.000308488
-3.95435e-05
0.000314696
-4.90728e-05
0.000322816
-5.85625e-05
0.000332642
-6.7871e-05
0.00034454
-7.66282e-05
0.000358295
-8.50304e-05
0.000373993
-9.21158e-05
0.000391502
-9.81555e-05
0.000410616
-0.000102417
0.000431461
-0.000104687
0.000453282
-0.000103582
0.000474924
-9.78191e-05
0.000494903
-8.62982e-05
0.000510844
-6.79335e-05
0.000520426
-4.34874e-05
0.000522312
-1.54187e-05
0.000516157
1.20505e-05
0.000502698
3.7177e-05
0.000484079
5.69875e-05
0.000461866
7.08344e-05
0.000437875
7.93674e-05
0.000414098
8.27873e-05
0.00039161
8.20804e-05
0.000371396
7.79593e-05
0.000354137
7.12502e-05
0.000340004
6.26856e-05
0.000328834
5.28052e-05
0.000320416
4.22183e-05
0.000314711
3.12452e-05
2.01086e-05
0.00031142
0.000432198
-3.70445e-05
0.000443633
-2.57576e-05
0.000450915
-1.09417e-05
0.000452926
5.84128e-06
0.000449619
2.27888e-05
0.000441162
3.74919e-05
0.000428568
4.95793e-05
0.00041283
5.76689e-05
0.000395134
6.25253e-05
0.000376778
6.3859e-05
0.000358864
6.2347e-05
0.000342419
5.84088e-05
0.000327912
5.24498e-05
0.000315885
4.49722e-05
0.000306329
3.63436e-05
0.00029922
2.68203e-05
0.000294226
1.66859e-05
0.00029133
6.20847e-06
0.000290427
-4.71088e-06
0.000291262
-1.58689e-05
0.000293948
-2.73673e-05
0.00029841
-3.90463e-05
0.00030472
-5.0906e-05
0.000313076
-6.26892e-05
0.000323249
-7.44432e-05
0.000335634
-8.55906e-05
0.000350429
-9.65682e-05
0.000366914
-0.000106029
0.000385642
-0.000114363
0.000406252
-0.000121337
0.000429566
-0.000126508