/*--------------------------------*- C++ -*----------------------------------*\
  =========                 |
  \\      /  F ield         | OpenFOAM: The Open Source CFD Toolbox
   \\    /   O peration     | Website:  https://openfoam.org
    \\  /    A nd           | Version:  10
     \\/     M anipulation  |
\*---------------------------------------------------------------------------*/
FoamFile
{
    format      ascii;
    class       volScalarField;
    location    "0.0977888";
    object      rho;
}
// * * * * * * * * * * * * * * * * * * * * * * * * * * * * * * * * * * * * * //

dimensions      [1 -3 0 0 0 0 0];

internalField   nonuniform List<scalar> 
15708
(
0.997435
0.997836
0.998175
0.998443
0.998645
0.998786
0.998878
0.998925
0.998942
0.998941
0.998935
0.998943
0.99896
0.99902
0.999121
0.999287
0.999529
0.999857
1.00027
1.00078
1.00138
1.00208
1.00287
1.00377
1.00477
1.00587
1.0071
1.00845
1.00994
1.01158
1.01338
1.01533
1.0174
1.01955
1.02173
1.02385
1.02584
1.02761
1.02908
1.03018
1.03086
1.03111
1.03097
1.03041
1.02944
1.0281
1.02654
1.02472
1.0228
1.02079
1.01875
0.998871
0.999181
0.99941
0.999556
0.999631
0.99963
0.999575
0.999485
0.999373
0.999252
0.999148
0.999065
0.999036
0.99906
0.999154
0.99936
0.999659
1.00009
1.00062
1.00127
1.00202
1.00287
1.0038
1.00481
1.00587
1.00698
1.00814
1.00934
1.01058
1.01188
1.01323
1.01465
1.01612
1.01764
1.01915
1.02061
1.02201
1.02326
1.02431
1.0251
1.0256
1.02578
1.02568
1.02528
1.02455
1.02358
1.02239
1.02107
1.01964
1.01818
1.01671
1.00017
1.00038
1.0005
1.00054
1.00045
1.00032
1.00013
0.999902
0.999662
0.999432
0.999233
0.999085
0.999019
0.999039
0.999158
0.999428
0.999841
1.00042
1.00112
1.00196
1.00291
1.00396
1.00508
1.00623
1.0074
1.00856
1.00969
1.01079
1.01184
1.01285
1.01383
1.01478
1.01572
1.01664
1.01753
1.01839
1.01917
1.01986
1.02042
1.02082
1.02104
1.02106
1.02089
1.02052
1.01996
1.01924
1.01841
1.0175
1.01656
1.01562
1.01471
1.00133
1.00143
1.00145
1.00132
1.00112
1.00084
1.0005
1.00015
0.999787
0.999464
0.999183
0.998994
0.998921
0.998958
0.999152
0.999538
1.00011
1.00089
1.00182
1.0029
1.0041
1.00539
1.00673
1.00807
1.00937
1.01059
1.01172
1.01272
1.0136
1.01435
1.01499
1.01553
1.01598
1.01636
1.01667
1.01692
1.01713
1.01728
1.01734
1.01731
1.01721
1.01699
1.01668
1.01628
1.01582
1.0153
1.01477
1.01423
1.01374
1.01331
1.01296
1.00231
1.00232
1.0022
1.0019
1.00156
1.00114
1.00067
1.00019
0.999727
0.999324
0.998993
0.998794
0.998745
0.998855
0.999168
0.999733
1.00054
1.00157
1.00278
1.00415
1.00565
1.00721
1.00878
1.01031
1.01172
1.01301
1.01411
1.01501
1.01571
1.0162
1.01652
1.01667
1.01667
1.01654
1.0163
1.01602
1.01568
1.01531
1.01491
1.01446
1.01401
1.01354
1.01307
1.01263
1.01222
1.01187
1.01159
1.01143
1.01136
1.01143
1.01163
1.00309
1.00293
1.00268
1.00225
1.00175
1.00118
1.00059
1
0.999459
0.999
0.998658
0.998494
0.998518
0.998752
0.999264
1.00008
1.00119
1.00253
1.00408
1.00579
1.0076
1.00945
1.01124
1.01292
1.01442
1.01571
1.01674
1.01749
1.01797
1.01819
1.01819
1.01795
1.01751
1.0169
1.01619
1.01541
1.0146
1.01376
1.01292
1.0121
1.01134
1.01063
1.01003
1.00955
1.00921
1.00903
1.00902
1.0092
1.00955
1.0102
1.01086
1.00357
1.00325
1.00281
1.00224
1.0016
1.00091
1.00021
0.999534
0.998956
0.998479
0.998187
0.998109
0.998262
0.998714
0.999517
1.00064
1.00214
1.00385
1.00578
1.00785
1.00998
1.01208
1.01405
1.01582
1.01734
1.01855
1.01943
1.01997
1.02019
1.02011
1.01975
1.01911
1.01821
1.0172
1.01606
1.01486
1.01362
1.01239
1.01119
1.01007
1.00908
1.00819
1.0075
1.00704
1.00682
1.00683
1.00711
1.00768
1.0085
1.00964
1.01079
1.00368
1.00313
1.00255
1.00183
1.00105
1.00026
0.999484
0.998763
0.998202
0.997768
0.997597
0.997664
0.998066
0.998819
1.00001
1.00153
1.00347
1.00561
1.00794
1.01037
1.01278
1.01506
1.01712
1.01888
1.02031
1.02134
1.02198
1.02223
1.02214
1.02169
1.02093
1.01985
1.01861
1.01719
1.01567
1.01411
1.01254
1.011
1.00953
1.00821
1.00705
1.0061
1.00543
1.00507
1.00503
1.00533
1.00598
1.00697
1.00829
1.00986
1.01146
1.00326
1.00253
1.00176
1.00091
1.00003
0.99917
0.998367
0.997677
0.997186
0.996897
0.996904
0.997254
0.997967
0.999182
1.00082
1.00285
1.00528
1.00786
1.0106
1.01332
1.01593
1.01829
1.0203
1.02193
1.02313
1.02386
1.02414
1.02405
1.02354
1.02267
1.02148
1.02003
1.01842
1.01666
1.01484
1.013
1.01117
1.00943
1.00779
1.0064
1.00519
1.0043
1.00378
1.00364
1.00388
1.00456
1.00567
1.00715
1.009
1.01092
1.01289
1.00228
1.00129
1.00041
0.999442
0.998497
0.997617
0.996845
0.996278
0.995944
0.995883
0.996189
0.996934
0.998166
0.999866
1.0021
1.00468
1.00763
1.01068
1.01374
1.01667
1.01933
1.02161
1.02342
1.02476
1.02557
1.02588
1.02574
1.02517
1.02417
1.02291
1.02122
1.01948
1.01751
1.01548
1.01341
1.01137
1.00939
1.00757
1.00589
1.00456
1.00344
1.00276
1.00254
1.00272
1.00343
1.00464
1.00625
1.00824
1.01062
1.01285
1.01504
1.00062
0.999432
0.998404
0.99737
0.996409
0.99559
0.994935
0.9946
0.994505
0.994783
0.995576
0.996869
0.998651
1.00111
1.00389
1.00719
1.01058
1.01402
1.0173
1.02028
1.02283
1.02484
1.02628
1.02714
1.02743
1.02724
1.02652
1.0254
1.0239
1.02217
1.02014
1.01802
1.01579
1.01354
1.01131
1.00916
1.00714
1.00535
1.00378
1.00264
1.00179
1.00151
1.00166
1.00244
1.00372
1.00547
1.00793
1.01027
1.01311
1.01558
1.01782
0.998185
0.996889
0.99573
0.994685
0.993784
0.993116
0.992687
0.992669
0.992948
0.993786
0.995131
0.997114
0.99977
1.00286
1.00638
1.01032
1.01415
1.01784
1.02118
1.02402
1.02624
1.02778
1.02866
1.0289
1.02858
1.02768
1.02635
1.02467
1.02269
1.02036
1.01815
1.01567
1.01321
1.01081
1.00852
1.00637
1.00444
1.00277
1.0015
1.00067
1.00031
1.00047
1.00137
1.00272
1.00484
1.00743
1.01035
1.01329
1.01641
1.01898
1.02106
0.995041
0.993663
0.992441
0.991437
0.990684
0.990256
0.990201
0.990527
0.991501
0.992862
0.99511
0.997954
1.00136
1.00542
1.0096
1.01409
1.01826
1.02204
1.02523
1.02769
1.02937
1.03024
1.03043
1.02986
1.02885
1.02717
1.02525
1.02289
1.02045
1.01774
1.01514
1.01243
1.00987
1.00741
1.00511
1.00304
1.00132
0.999907
0.999107
0.998721
0.998923
0.999955
1.00146
1.00392
1.00683
1.01019
1.01376
1.01718
1.02036
1.02285
1.02456
0.991236
0.989815
0.988608
0.987716
0.98722
0.987109
0.987482
0.98852
0.990039
0.992484
0.995509
0.999379
1.00383
1.00871
1.01352
1.01849
1.02281
1.02645
1.02925
1.03112
1.03203
1.03215
1.03138
1.03012
1.02802
1.02585
1.02306
1.02026
1.01713
1.01441
1.01126
1.00852
1.00584
1.00338
1.00119
0.9993
0.997913
0.996879
0.996659
0.996873
0.997967
0.999664
1.00249
1.00573
1.00969
1.0139
1.01793
1.02173
1.02481
1.02696
1.02806
0.986909
0.985467
0.984352
0.983663
0.983486
0.983804
0.984882
0.986472
0.989185
0.992357
0.996683
1.00161
1.00701
1.01269
1.01818
1.02332
1.0276
1.03087
1.03305
1.0341
1.03418
1.03325
1.03171
1.02922
1.02664
1.02341
1.0201
1.01676
1.01337
1.00999
1.00702
1.00399
1.0013
0.998919
0.996921
0.995314
0.99433
0.993842
0.994201
0.995331
0.997163
1.00037
1.00391
1.00849
1.01344
1.01834
1.02271
1.02665
1.02945
1.03103
1.03142
0.982195
0.980816
0.979857
0.979439
0.979642
0.98063
0.982231
0.985083
0.988458
0.993202
0.99844
1.0046
1.01112
1.01735
1.0233
1.02842
1.03239
1.03507
1.03641
1.03659
1.03557
1.03378
1.031
1.0279
1.02422
1.02037
1.01653
1.01267
1.00895
1.00541
1.00206
0.999142
0.996501
0.99426
0.992459
0.991262
0.990699
0.990849
0.992052
0.993975
0.997258
1.00117
1.00634
1.01205
1.01758
1.02336
1.02791
1.03166
1.03396
1.03485
1.03424
0.977325
0.97606
0.975304
0.97523
0.975955
0.977494
0.980313
0.983805
0.988799
0.994374
1.00127
1.00835
1.01574
1.02251
1.02866
1.03354
1.03697
1.03883
1.0393
1.03835
1.03644
1.03337
1.02984
1.02572
1.02125
1.01699
1.01247
1.00828
1.00412
1.00051
0.997223
0.99416
0.991571
0.989573
0.988042
0.98729
0.987193
0.988127
0.990088
0.993264
0.99741
1.00308
1.00934
1.0158
1.02279
1.0283
1.03315
1.03643
1.03811
1.03811
1.03669
0.97256
0.971434
0.970891
0.971272
0.972425
0.975093
0.978379
0.983664
0.989311
0.996922
1.00435
1.01298
1.02069
1.02803
1.03389
1.03837
1.04106
1.04206
1.04144
1.03961
1.03647
1.0324
1.02814
1.02306
1.01824
1.01315
1.00827
1.00373
0.999529
0.995623
0.992192
0.989323
0.986884
0.985086
0.983849
0.983506
0.983966
0.985586
0.988672
0.992686
0.998721
1.00507
1.01262
1.02055
1.02737
1.03346
1.03789
1.04074
1.04165
1.04074
1.03809
0.967907
0.96704
0.966924
0.967489
0.969639
0.972672
0.977817
0.983523
0.991299
0.999295
1.00883
1.01749
1.02612
1.0333
1.03882
1.04264
1.04452
1.04454
1.04307
1.04003
1.03584
1.03132
1.02591
1.02046
1.0148
1.00938
1.00426
0.99932
0.99501
0.991012
0.987686
0.984745
0.982458
0.98087
0.979961
0.980123
0.980881
0.983619
0.987235
0.993156
0.999638
1.00781
1.01654
1.02449
1.03235
1.0379
1.04209
1.04413
1.04421
1.04242
1.03906
0.964048
0.963267
0.9633
0.964622
0.967028
0.971695
0.976946
0.98493
0.992904
1.00347
1.01249
1.02289
1.031
1.03802
1.04318
1.04619
1.04718
1.04633
1.04382
1.03978
1.03528
1.02945
1.02381
1.0176
1.01172
1.00582
1.0004
0.995389
0.990893
0.986792
0.983536
0.980692
0.978601
0.977207
0.976592
0.97702
0.978314
0.981886
0.986543
0.993007
1.00147
1.01053
1.01987
1.02868
1.0364
1.04169
1.04517
1.04665
1.04588
1.04338
1.03882
0.960376
0.9599
0.960456
0.961882
0.965469
0.97048
0.977812
0.985731
0.996401
1.00623
1.01757
1.0271
1.03568
1.04212
1.04661
1.04882
1.04897
1.04734
1.04383
1.03961
1.0338
1.02799
1.02152
1.0151
1.00875
1.00271
0.996958
0.991959
0.987288
0.983165
0.980071
0.977312
0.975415
0.974049
0.973663
0.974467
0.975845
0.980159
0.985459
0.993987
1.00253
1.01288
1.02307
1.03212
1.03938
1.04434
1.04731
1.04799
1.04661
1.04318
1.03838
0.957774
0.957468
0.958194
0.960394
0.963995
0.970582
0.977929
0.988347
0.998314
1.01084
1.02089
1.03159
1.03934
1.04518
1.04905
1.05055
1.04993
1.04766
1.04369
1.03841
1.03275
1.02618
1.0197
1.01274
1.00645
0.999884
0.994382
0.988908
0.984327
0.980349
0.977222
0.974598
0.972787
0.971487
0.971347
0.971988
0.973743
0.97834
0.984967
0.993264
1.00359
1.01501
1.02519
1.03403
1.04169
1.04602
1.04805
1.04819
1.04634
1.04267
1.03699
0.9557
0.955489
0.956517
0.958588
0.963799
0.969903
0.979595
0.989337
1.00199
1.0131
1.02495
1.0343
1.04204
1.04735
1.0504
1.05132
1.05017
1.04733
1.04279
1.03772
1.03122
1.02484
1.01795
1.01103
1.00452
0.997477
0.9926
0.986146
0.982521
0.978127
0.974933
0.972712
0.97095
0.969592
0.969209
0.969536
0.971082
0.976305
0.982744
0.992116
1.00439
1.01512
1.0263
1.03543
1.04208
1.04591
1.04801
1.04768
1.04535
1.04104
1.0356
0.95473
0.95453
0.95563
0.957938
0.962496
0.971051
0.97922
0.991909
1.00317
1.01636
1.02674
1.03679
1.04357
1.04814
1.05087
1.05115
1.04969
1.04658
1.04197
1.03645
1.03027
1.02358
1.01673
1.00934
1.00355
0.995187
0.991556
0.984482
0.981249
0.976105
0.974047
0.972056
0.96951
0.96794
0.967241
0.966711
0.968369
0.971634
0.978847
0.991156
1.00122
1.01559
1.02553
1.03472
1.04153
1.04513
1.04655
1.04597
1.04367
1.03952
1.03375
0.954109
0.953501
0.954828
0.955793
0.963161
0.968164
0.981579
0.990669
1.00596
1.01645
1.02859
1.03716
1.04386
1.04828
1.05029
1.05042
1.04884
1.04548
1.04097
1.03548
1.02936
1.02262
1.01586
1.00827
1.00268
0.994086
0.990326
0.983212
0.980702
0.976134
0.974664
0.971883
0.970093
0.969207
0.970847
0.968812
0.968503
0.96902
0.973652
0.985047
0.998825
1.01176
1.02336
1.03283
1.03923
1.04299
1.04458
1.04393
1.04136
1.03733
1.03193
0.95405
0.953362
0.95316
0.955184
0.959032
0.969535
0.977095
0.993712
1.00305
1.01839
1.02728
1.03721
1.0431
1.04699
1.04924
1.04924
1.04752
1.04441
1.03992
1.03463
1.02858
1.02207
1.01513
1.00788
1.00178
0.99359
0.98993
0.982841
0.980029
0.976913
0.980004
0.975679
0.984795
0.984071
1.01927
1.0202
1.01051
0.990213
0.977961
0.980979
0.993308
1.00615
1.01877
1.02851
1.03578
1.03943
1.04142
1.04114
1.03932
1.0354
1.03012
0.956529
0.957761
0.956321
0.955291
0.957946
0.963074
0.977543
0.987198
1.00479
1.01381
1.02721
1.035
1.04108
1.04523
1.04724
1.04743
1.04619
1.04324
1.03907
1.03411
1.02804
1.02175
1.01486
1.00797
1.00045
0.994994
0.988766
0.98278
0.982812
0.980441
1.00085
0.997615
1.05433
1.13836
1.29374
1.31854
1.28673
1.16492
1.04252
0.998395
0.993661
1.00177
1.0138
1.0233
1.03088
1.03497
1.03739
1.03761
1.03609
1.033
1.02848
0.979463
1.00396
1.00248
0.992452
0.973445
0.967147
0.972055
0.985706
0.99746
1.01324
1.02177
1.03269
1.03823
1.04262
1.04519
1.04569
1.04445
1.04207
1.0384
1.03347
1.02794
1.02157
1.0149
1.00802
1.00051
0.995502
0.988302
0.990737
0.992288
1.00453
1.07492
1.14776
1.33129
1.6871
1.79169
1.76918
1.64658
1.52058
1.23104
1.06082
1.00146
0.994365
1.00344
1.01492
1.02493
1.03041
1.03377
1.0348
1.03367
1.03082
1.02662
1.15339
1.28495
1.28569
1.23729
1.1282
1.0222
0.987889
0.984515
0.993835
1.00666
1.0182
1.02787
1.03437
1.03933
1.04238
1.04372
1.04321
1.04128
1.0378
1.03335
1.02783
1.02182
1.01502
1.00828
1.00152
0.995837
0.993318
1.02456
1.03675
1.10745
1.39611
1.6731
1.84137
1.95334
1.9371
1.89312
1.82865
1.65166
1.39598
1.13078
1.02735
0.997921
0.996514
1.00599
1.01629
1.02351
1.02841
1.03074
1.03073
1.02881
1.02529
1.71268
1.76563
1.72713
1.61778
1.43657
1.1851
1.03746
0.993393
0.98944
0.99824
1.00914
1.02235
1.03028
1.036
1.0399
1.04157
1.04149
1.0401
1.03739
1.03331
1.02797
1.0224
1.01505
1.00941
1.00307
1.00364
1.03143
1.14817
1.22151
1.49535
1.94577
1.96205
1.97005
1.96902
1.96309
1.93979
1.8952
1.81409
1.65168
1.32975
1.09451
1.01225
0.99672
0.999419
1.00857
1.01666
1.02339
1.02715
1.02789
1.0266
1.02367
1.92538
1.90569
1.86631
1.80433
1.69034
1.49723
1.23794
1.05971
1.0051
0.995921
1.00172
1.01355
1.02338
1.03091
1.03619
1.03921
1.04012
1.03938
1.03719
1.03365
1.02817
1.02257
1.01563
1.0129
1.01202
1.05308
1.26899
1.54747
1.74852
1.94836
1.95977
1.97214
1.97791
1.98225
1.98326
1.9708
1.94361
1.89936
1.81831
1.64611
1.36018
1.11362
1.01745
0.999996
1.00412
1.01129
1.01823
1.0231
1.02517
1.02461
1.0224
1.93679
1.93209
1.9175
1.89443
1.84916
1.75976
1.58076
1.27484
1.07373
1.01205
1.00155
1.00754
1.01737
1.02597
1.03306
1.03701
1.03882
1.03872
1.0372
1.03394
1.02869
1.02269
1.01872
1.0288
1.05665
1.35554
1.84059
1.91385
1.93366
1.95589
1.96429
1.97504
1.98323
1.99389
1.99671
1.99578
1.98146
1.95285
1.91156
1.82312
1.65072
1.37437
1.08583
1.00659
1.0053
1.00975
1.01449
1.02032
1.02313
1.02332
1.02158
1.94406
1.94795
1.94346
1.93187
1.9108
1.87195
1.77933
1.59679
1.31761
1.10334
1.01563
1.00769
1.01377
1.022
1.02976
1.03481
1.0375
1.03827
1.03759
1.0344
1.02907
1.02583
1.0425
1.10246
1.45844
1.90849
1.9489
1.94992
1.95624
1.9609
1.9691
1.98134
1.99185
2.00585
2.01407
2.017
2.01063
1.99461
1.96494
1.91462
1.81289
1.63102
1.34143
1.07672
1.01211
1.00914
1.0132
1.01841
1.02167
1.02255
1.02148
1.95236
1.96071
1.9643
1.96388
1.95261
1.93161
1.88553
1.78281
1.59193
1.30523
1.06393
1.01379
1.01508
1.01994
1.02745
1.03311
1.03676
1.03853
1.03874
1.03447
1.02938
1.0631
1.25473
1.67956
1.91777
1.96481
1.96323
1.95829
1.95851
1.96463
1.97265
1.98822
2.0019
2.01802
2.02987
2.03675
2.03515
2.02553
2.00383
1.96622
1.89951
1.78295
1.58765
1.31823
1.08604
1.01428
1.02237
1.02442
1.02416
1.02456
1.02578
1.96352
1.97578
1.98497
1.99012
1.98706
1.97618
1.94968
1.89069
1.7726
1.56057
1.26495
1.05753
1.02492
1.02119
1.02824
1.03303
1.03758
1.04021
1.04205
1.05942
1.25277
1.66695
1.85209
1.91367
1.9795
1.97394
1.96471
1.96017
1.96166
1.96789
1.97932
1.99535
2.01234
2.02946
2.04428
2.05302
2.05513
2.0489
2.03361
2.00631
1.96462
1.89565
1.78487
1.59622
1.34423
1.13432
1.04292
1.06475
1.11367
1.30123
1.46904
1.9765
1.99134
2.00524
2.01436
2.01577
2.01163
1.99663
1.96173
1.89736
1.77069
1.55811
1.2905
1.07047
1.07543
1.0515
1.05765
1.05111
1.05256
1.08933
1.31591
1.76745
1.95915
1.96384
1.9943
1.97891
1.97428
1.96508
1.96261
1.96446
1.97411
1.98641
2.00321
2.02223
2.03972
2.05559
2.06479
2.0668
2.0602
2.0474
2.02498
1.99776
1.96245
1.91313
1.83927
1.7226
1.57012
1.49795
1.53345
1.66431
1.78503
1.86589
1.98983
2.0068
2.02352
2.03549
2.0398
2.04034
2.03277
2.01868
1.99614
1.96493
1.90952
1.79855
1.62105
1.43527
1.3095
1.18235
1.15932
1.19561
1.43001
1.91183
1.94599
2.01845
1.99475
2.00231
1.98244
1.97293
1.96658
1.96706
1.96986
1.98165
1.99469
2.01173
2.03034
2.04781
2.06237
2.06989
2.07038
2.06217
2.04781
2.02926
2.00793
1.98709
1.97007
1.95301
1.9331
1.90602
1.8968
1.90868
1.93512
1.95528
1.97214
2.00221
2.0212
2.03829
2.04895
2.05302
2.05231
2.04622
2.0357
2.0234
2.00967
1.99204
1.96419
1.91105
1.8281
1.73184
1.67932
1.66261
1.73548
1.89849
1.99216
2.03789
2.01735
2.0093
1.99662
1.9835
1.97477
1.97241
1.97177
1.97997
1.98971
2.00415
2.01968
2.03734
2.05252
2.06385
2.06876
2.06577
2.05462
2.03724
2.01874
1.99785
1.98206
1.97041
1.96359
1.96061
1.96109
1.96438
1.97053
1.97461
1.97795
1.9757
2.01404
2.03285
2.04804
2.05751
2.06015
2.05877
2.05267
2.04451
2.03572
2.02952
2.02374
2.01858
2.01098
1.9942
1.97143
1.9647
1.96314
1.98606
2.02618
2.03685
2.03703
2.01806
2.00747
1.99573
1.98642
1.98041
1.98061
1.98143
1.99034
2.00008
2.01345
2.0271
2.04185
2.05306
2.05974
2.06026
2.05269
2.03811
2.01871
1.99921
1.98107
1.96706
1.95728
1.95205
1.95086
1.95304
1.95603
1.95978
1.96242
1.96333
1.96224
2.02399
2.0407
2.05327
2.05993
2.06042
2.05715
2.0509
2.04375
2.03707
2.03286
2.03073
2.03032
2.03162
2.03146
2.03071
2.03126
2.03288
2.03725
2.04194
2.03821
2.02965
2.01658
2.00717
1.99858
1.99204
1.98981
1.9909
1.99406
2.00198
2.01126
2.02209
2.03294
2.0429
2.04833
2.04927
2.04381
2.03181
2.01366
1.99349
1.97364
1.95822
1.94613
1.93839
1.93389
1.93258
1.93414
1.93681
1.93913
1.94189
1.94399
1.94493
2.03119
2.04396
2.053
2.05561
2.05399
2.04933
2.04347
2.03723
2.03277
2.0304
2.0295
2.03042
2.03319
2.03567
2.03745
2.03852
2.03928
2.03953
2.03802
2.0332
2.02546
2.01696
2.01
2.00508
2.00164
2.00119
2.00388
2.00787
2.01461
2.02201
2.02931
2.03562
2.0393
2.03859
2.03266
2.02104
2.00412
1.98331
1.96347
1.94487
1.93185
1.92212
1.9163
1.91292
1.91174
1.91286
1.91581
1.91803
1.92125
1.92543
1.92903
2.03438
2.04271
2.04665
2.04634
2.04204
2.0365
2.03136
2.02703
2.02438
2.02363
2.02428
2.02632
2.02947
2.03234
2.03443
2.03556
2.03623
2.03585
2.03402
2.03048
2.02533
2.02008
2.01677
2.01442
2.01331
2.01528
2.01782
2.02211
2.0267
2.03103
2.03372
2.03425
2.03119
2.02326
2.01032
1.99291
1.97253
1.95143
1.93098
1.91568
1.90449
1.89765
1.89301
1.89116
1.89029
1.89145
1.89434
1.89823
1.90193
1.90851
1.91532
2.03331
2.03669
2.03613
2.03234
2.02677
2.02082
2.01721
2.01457
2.01394
2.0148
2.0171
2.02032
2.02407
2.02757
2.02995
2.03156
2.0327
2.03314
2.0324
2.0309
2.02857
2.02668
2.02602
2.02581
2.02707
2.02975
2.03213
2.03485
2.03656
2.03675
2.03436
2.02825
2.01819
2.00306
1.98391
1.96206
1.93968
1.91869
1.90046
1.88721
1.87849
1.87384
1.87078
1.86957
1.86955
1.87101
1.874
1.87949
1.88511
1.89292
1.90385
2.02857
2.02719
2.02282
2.0162
2.01022
2.00505
2.00286
2.00208
2.00317
2.00577
2.0096
2.0139
2.01852
2.02284
2.02606
2.02865
2.03095
2.03266
2.03351
2.03427
2.03463
2.03528
2.03713
2.03834
2.04093
2.04311
2.04454
2.04466
2.04291
2.03829
2.0299
2.01739
2.00038
1.97928
1.95551
1.93107
1.9081
1.88849
1.87269
1.86159
1.85493
1.85168
1.85024
1.84956
1.85017
1.85205
1.85548
1.86136
1.86988
1.87901
1.89373
2.02103
2.01571
2.00854
2.00072
1.9946
1.99123
1.99045
1.99099
1.9938
1.99788
2.00296
2.00827
2.01387
2.0191
2.02348
2.02725
2.03108
2.03424
2.0371
2.03986
2.04228
2.04512
2.04838
2.05007
2.05334
2.05384
2.05306
2.05023
2.04419
2.03442
2.02022
2.00155
1.97905
1.95361
1.92725
1.902
1.87983
1.86199
1.84855
1.8394
1.83423
1.83216
1.83147
1.83142
1.83243
1.83425
1.83765
1.84381
1.85484
1.86637
1.88326
2.01194
2.00399
1.99547
1.98754
1.98257
1.98058
1.98085
1.98277
1.98683
1.99201
1.99803
2.00425
2.01073
2.01694
2.02243
2.02759
2.03286
2.03742
2.04209
2.04638
2.05033
2.05425
2.05811
2.06038
2.06142
2.06025
2.05692
2.05021
2.03976
2.02486
2.00543
1.98192
1.95567
1.92789
1.90083
1.87622
1.85553
1.83948
1.82818
1.82053
1.81652
1.81516
1.81484
1.81496
1.81581
1.8173
1.82031
1.82609
1.83768
1.85221
1.87113
2.00284
1.99379
1.98519
1.9781
1.97462
1.97367
1.97485
1.97783
1.98267
1.98858
1.99519
2.00212
2.00935
2.01636
2.02279
2.02924
2.03554
2.04137
2.04719
2.05251
2.05727
2.0617
2.0646
2.06594
2.06493
2.0615
2.05484
2.04427
2.02938
2.01008
1.98668
1.96006
1.9319
1.90369
1.87725
1.85405
1.8352
1.82081
1.81098
1.80455
1.80119
1.80008
1.79986
1.79996
1.80014
1.80052
1.80176
1.80546
1.81616
1.83417
1.8555
1.99509
1.9862
1.97838
1.97293
1.97053
1.97051
1.97232
1.97599
1.98119
1.98745
1.99437
2.00167
2.00936
2.01689
2.02402
2.03134
2.03824
2.04485
2.05108
2.05675
2.06159
2.06545
2.06677
2.06633
2.0632
2.05689
2.04676
2.03248
2.01392
1.99137
1.96562
1.93774
1.90926
1.88182
1.85685
1.83539
1.81814
1.80507
1.79607
1.79048
1.78747
1.78624
1.78568
1.78498
1.7838
1.78214
1.78088
1.78132
1.78794
1.80831
1.83247
1.98952
1.98169
1.97511
1.97122
1.96981
1.97048
1.97266
1.97665
1.98193
1.98817
1.9951
2.00245
2.01027
2.0179
2.02538
2.03296
2.04
2.04674
2.05282
2.05806
2.06247
2.06427
2.06423
2.06158
2.05589
2.04659
2.03339
2.01615
1.9951
1.97075
1.94405
1.91622
1.88866
1.86257
1.83931
1.81936
1.80324
1.791
1.78243
1.77698
1.77409
1.77294
1.77239
1.77144
1.76944
1.76501
1.75771
1.74957
1.74785
1.76721
1.79943
1.98632
1.97991
1.97485
1.97227
1.97161
1.97266
1.97512
1.97907
1.98416
1.99013
1.99676
2.00389
2.0114
2.01873
2.02613
2.03335
2.04008
2.04632
2.05178
2.05616
2.05862
2.05895
2.05679
2.05193
2.04372
2.03192
2.0164
1.99725
1.97486
1.94995
1.92347
1.89652
1.87027
1.84579
1.82381
1.80498
1.78959
1.77774
1.76934
1.76398
1.76125
1.75965
1.75812
1.75506
1.74997
1.74209
1.72836
1.71251
1.7036
1.70853
1.74323
1.98526
1.98031
1.97666
1.97519
1.97502
1.97629
1.97877
1.9825
1.98718
1.99266
1.99874
2.00531
2.01218
2.01891
2.02574
2.03218
2.03815
2.04343
2.04779
2.05047
2.05121
2.04957
2.04565
2.03864
2.02842
2.01479
1.9978
1.9777
1.95499
1.93039
1.90474
1.87901
1.85408
1.83074
1.80969
1.79138
1.77619
1.76432
1.75571
1.75004
1.7468
1.74513
1.74396
1.74217
1.73834
1.72847
1.7108
1.67998
1.62934
1.58548
1.58974
1.01673
1.01476
1.01287
1.01107
1.00937
1.00779
1.00635
1.00504
1.0039
1.00294
1.00219
1.00166
1.00141
1.00141
1.00172
1.00244
1.00347
1.00479
1.00637
1.00815
1.01005
1.01199
1.01387
1.01559
1.01712
1.01838
1.01527
1.01387
1.01255
1.01129
1.0101
1.00898
1.00793
1.00695
1.00604
1.00523
1.00452
1.00395
1.00352
1.00328
1.00322
1.00341
1.00388
1.00458
1.00549
1.00659
1.00784
1.00915
1.01048
1.01177
1.01295
1.01398
1.01385
1.01305
1.01229
1.01158
1.0109
1.01023
1.00956
1.00889
1.00822
1.00754
1.00689
1.00626
1.00568
1.00519
1.00482
1.00458
1.00452
1.00464
1.00493
1.0054
1.00601
1.00671
1.00749
1.0083
1.00909
1.00983
1.01268
1.01245
1.01225
1.01208
1.01188
1.01161
1.01127
1.0109
1.01038
1.00982
1.00917
1.00847
1.00773
1.007
1.00631
1.00569
1.00518
1.00478
1.00453
1.00441
1.00444
1.00458
1.00483
1.00518
1.00557
1.00602
1.0119
1.01222
1.01255
1.01284
1.01304
1.01312
1.01305
1.01287
1.01246
1.01194
1.01125
1.01041
1.00951
1.00853
1.00754
1.00656
1.00564
1.0048
1.00406
1.00345
1.00296
1.00261
1.0024
1.00232
1.00236
1.00253
1.01166
1.01247
1.01324
1.01391
1.01443
1.01474
1.01483
1.01472
1.01433
1.01378
1.01294
1.01197
1.01082
1.0096
1.00831
1.00701
1.00573
1.00451
1.00337
1.00233
1.00143
1.00066
1.00006
0.999642
0.99941
0.999366
1.01203
1.01325
1.01436
1.01529
1.01597
1.01639
1.01648
1.01634
1.01585
1.01514
1.01413
1.0129
1.01154
1.01001
1.00846
1.00686
1.00528
1.00374
1.00228
1.0009
0.999691
0.998613
0.997733
0.997074
0.996656
0.996509
1.01307
1.01457
1.01587
1.01689
1.01757
1.01792
1.01791
1.01755
1.01686
1.01585
1.01459
1.01311
1.01145
1.00968
1.00785
1.006
1.00416
1.00237
1.00067
0.99906
0.997644
0.996371
0.995328
0.994555
0.994075
0.993933
1.01474
1.01636
1.01767
1.0186
1.0191
1.01918
1.01893
1.01818
1.01718
1.0158
1.01422
1.01238
1.01045
1.00845
1.00638
1.00432
1.00229
1.00033
0.998488
0.996731
0.995245
0.993886
0.992818
0.992068
0.991673
0.991646
1.01697
1.01852
1.01964
1.02024
1.02038
1.02009
1.01924
1.01817
1.01662
1.01486
1.01284
1.01076
1.00852
1.00625
1.00398
1.00177
0.999628
0.99758
0.995678
0.993907
0.992467
0.991154
0.990214
0.98964
0.989493
0.989701
1.01962
1.02088
1.02157
1.02167
1.02128
1.02028
1.01901
1.01719
1.01517
1.01297
1.0105
1.0081
1.00556
1.0031
1.0007
0.99838
0.996183
0.994144
0.992279
0.990626
0.989351
0.988231
0.987571
0.987356
0.98753
0.988285
1.02251
1.02325
1.02332
1.02275
1.02153
1.01994
1.01775
1.01542
1.01279
1.01
1.00726
1.00446
1.00172
0.999069
0.996567
0.994231
0.992042
0.990108
0.988371
0.986979
0.98597
0.985212
0.98501
0.985212
0.986094
0.987355
1.02541
1.02547
1.02472
1.02321
1.02122
1.01863
1.01586
1.01269
1.00954
1.00617
1.00316
0.999932
0.997044
0.994309
0.991741
0.98942
0.98733
0.985587
0.984083
0.983078
0.982457
0.982239
0.98252
0.98358
0.985048
0.987372
1.02821
1.02728
1.02564
1.02303
1.02016
1.01675
1.01304
1.00921
1.00546
1.00178
0.998168
0.994859
0.991762
0.988909
0.986366
0.98412
0.982217
0.980735
0.979568
0.979088
0.978935
0.979349
0.980554
0.982253
0.984995
0.988061
1.03051
1.02879
1.02571
1.02249
1.01825
1.01416
1.00953
1.00529
1.00074
0.996809
0.992708
0.989314
0.986055
0.98314
0.980668
0.978552
0.976906
0.975736
0.975018
0.975101
0.975583
0.976864
0.978848
0.982021
0.985512
0.990019
1.03256
1.02929
1.02565
1.02087
1.01619
1.01082
1.00585
1.0006
0.995986
0.991136
0.987328
0.983459
0.980113
0.977269
0.97489
0.972909
0.971583
0.970766
0.970572
0.971233
0.972634
0.974755
0.978209
0.982151
0.987401
0.992905
1.03353
1.02963
1.02448
1.01925
1.01326
1.00752
1.00161
0.996021
0.990825
0.985928
0.981532
0.977673
0.974337
0.971468
0.969179
0.967401
0.96641
0.965969
0.96634
0.967848
0.970002
0.973539
0.9779
0.983851
0.98982
0.997055
1.03426
1.02892
1.02333
1.0168
1.01052
1.00379
0.997529
0.991425
0.985781
0.980797
0.976122
0.972201
0.968712
0.965888
0.963721
0.962218
0.961542
0.961562
0.962552
0.964854
0.968215
0.972666
0.979047
0.985764
0.99388
1.00169
1.03388
1.02813
1.02139
1.01462
1.0073
1.00038
0.993571
0.987011
0.981329
0.97573
0.971166
0.967075
0.963587
0.960892
0.958771
0.957498
0.957092
0.957458
0.959283
0.962363
0.966885
0.973152
0.980295
0.989405
0.998032
1.00746
1.03334
1.02662
1.01962
1.012
1.00458
0.997074
0.989845
0.9832
0.977059
0.971714
0.966524
0.962589
0.959092
0.956448
0.95434
0.953295
0.95325
0.953907
0.956568
0.960515
0.966512
0.97362
0.983256
0.992721
1.00318
1.01297
1.03203
1.02514
1.01747
1.00987
1.00177
0.994173
0.986756
0.979824
0.973492
0.967771
0.962905
0.958797
0.955254
0.952628
0.950533
0.949735
0.949847
0.950918
0.95423
0.959385
0.966143
0.975495
0.985635
0.997162
1.00826
1.01834
1.03065
1.02333
1.01563
1.00762
0.999649
0.991718
0.983882
0.977119
0.970635
0.964671
0.959894
0.955608
0.952147
0.949662
0.947507
0.946753
0.947199
0.948115
0.9524
0.95818
0.966217
0.97742
0.988546
1.00144
1.0125
1.02334
1.02904
1.02154
1.01395
1.00585
0.997621
0.989748
0.981872
0.974787
0.968539
0.961924
0.95793
0.953532
0.949787
0.947009
0.944691
0.944024
0.944607
0.945625
0.950736
0.956637
0.967033
0.977676
0.992268
1.00418
1.01669
1.02652
1.02734
1.01994
1.01233
1.00433
0.996115
0.988216
0.980059
0.973523
0.966723
0.960284
0.956186
0.951901
0.948425
0.945935
0.943533
0.942359
0.943015
0.942594
0.94812
0.954529
0.964935
0.980111
0.992213
1.00805
1.01893
1.0292
1.02585
1.01846
1.01107
1.00312
0.994972
0.987117
0.978813
0.972921
0.964098
0.959273
0.956036
0.952512
0.949225
0.950697
0.949607
0.948708
0.947339
0.946076
0.94674
0.951663
0.962202
0.976232
0.992589
1.00621
1.0196
1.02937
1.02431
1.01711
1.01003
1.00215
0.99453
0.985499
0.979923
0.970019
0.964838
0.962978
0.956195
0.961607
0.967099
0.99746
1.00476
1.00292
1.00234
0.989982
0.965808
0.959743
0.966003
0.97829
0.9921
1.00764
1.01838
1.02887
1.02292
1.01622
1.009
1.0017
0.993874
0.985592
0.978953
0.970526
0.968062
0.969623
0.968403
1.01674
1.1171
1.21046
1.22087
1.25523
1.33884
1.3255
1.25834
1.08776
0.995176
0.9787
0.987882
1.0021
1.01561
1.02575
1.02161
1.01511
1.00844
1.0012
0.993933
0.985479
0.979249
0.97335
0.997981
0.999241
1.06102
1.27627
1.61032
1.66696
1.67915
1.76815
1.80766
1.75718
1.60469
1.35313
1.11887
1.01976
0.994879
0.997778
1.00987
1.02133
1.02036
1.01447
1.00807
1.0007
0.994136
0.986226
0.984477
1.00263
1.10546
1.16576
1.34988
1.81792
1.88465
1.9009
1.90862
1.90026
1.87973
1.82623
1.65897
1.45006
1.15622
1.03026
0.996023
0.994403
1.00365
1.01591
1.01932
1.01365
1.00791
1.00036
0.994731
0.991585
1.02404
1.21615
1.49636
1.64452
1.908
1.90555
1.91473
1.92373
1.92964
1.92666
1.91465
1.88421
1.81853
1.68057
1.33742
1.09194
1.01496
0.998047
1.00047
1.01095
1.01821
1.01319
1.00783
1.00047
1.00004
1.0236
1.27806
1.80243
1.88539
1.90079
1.91084
1.91622
1.92505
1.93262
1.94262
1.95098
1.94823
1.92778
1.88779
1.79339
1.59088
1.23586
1.02773
1.00434
1.00262
1.00805
1.01716
1.01461
1.00957
1.00137
1.02582
1.38104
1.87395
1.91742
1.91411
1.9165
1.91787
1.92437
1.93602
1.94651
1.9613
1.97183
1.97809
1.97108
1.94634
1.90559
1.80101
1.5833
1.23349
1.06874
1.01129
1.01245
1.01579
1.03189
1.02289
1.10481
1.57038
1.87679
1.93283
1.92895
1.92096
1.91943
1.92408
1.93261
1.94812
1.96358
1.98155
1.9967
2.00715
2.00569
1.9956
1.96998
1.91491
1.80112
1.59746
1.29096
1.04863
1.01382
1.06732
1.17352
1.39308
1.73668
1.87602
1.95188
1.93732
1.93063
1.92348
1.92433
1.93145
1.94363
1.96198
1.98184
2.003
2.02244
2.03646
2.04039
2.03505
2.01862
1.98183
1.90378
1.74645
1.4868
1.1566
1.02231
1.54183
1.67711
1.84098
1.94373
1.93579
1.95481
1.93683
1.93065
1.9271
1.93081
1.94142
1.9568
1.97758
2.00139
2.02498
2.04713
2.06385
2.06956
2.06852
2.05801
2.03421
1.98984
1.90661
1.7438
1.4744
1.15571
1.85791
1.92508
1.95466
1.97223
1.95085
1.94995
1.93697
1.93253
1.9332
1.94
1.95377
1.97173
1.99459
2.02081
2.04589
2.0695
2.08655
2.09325
2.09376
2.08551
2.06948
2.0438
2.00379
1.93619
1.80618
1.58533
1.96009
1.97413
1.97163
1.9641
1.95209
1.94572
1.93916
1.93773
1.94294
1.95189
1.96837
1.98821
2.01213
2.03904
2.06427
2.08688
2.10223
2.10768
2.10662
2.10096
2.08821
2.07496
2.05902
2.03951
2.01021
1.94487
1.97164
1.97003
1.96425
1.95568
1.94986
1.94599
1.94438
1.94697
1.95498
1.9669
1.9845
2.00502
2.02942
2.05482
2.07831
2.09816
2.10833
2.11179
2.10889
2.10164
2.09208
2.08307
2.0779
2.07351
2.07189
2.06785
1.9601
1.9579
1.95423
1.95121
1.94961
1.94979
1.95361
1.95891
1.97004
1.9839
2.00165
2.0219
2.04463
2.06682
2.08642
2.10095
2.10679
2.10651
2.10141
2.09419
2.08742
2.08376
2.08313
2.08634
2.09405