/*--------------------------------*- C++ -*----------------------------------*\
  =========                 |
  \\      /  F ield         | OpenFOAM: The Open Source CFD Toolbox
   \\    /   O peration     | Website:  https://openfoam.org
    \\  /    A nd           | Version:  10
     \\/     M anipulation  |
\*---------------------------------------------------------------------------*/
FoamFile
{
    format      ascii;
    class       volVectorField;
    location    "0.0977888";
    object      U;
}
// * * * * * * * * * * * * * * * * * * * * * * * * * * * * * * * * * * * * * //

dimensions      [0 1 -1 0 0 0 0];

internalField   nonuniform List<vector> 
15708
(
(0.496574 -0.0110593 0)
(0.497107 -0.0106032 0)
(0.497637 -0.0100131 0)
(0.498164 -0.00929603 0)
(0.498668 -0.0084647 0)
(0.499134 -0.00753754 0)
(0.499547 -0.00654032 0)
(0.49989 -0.00549646 0)
(0.500157 -0.00444578 0)
(0.50034 -0.00342205 0)
(0.500431 -0.00245954 0)
(0.500429 -0.00159311 0)
(0.500337 -0.000856292 0)
(0.500156 -0.000275085 0)
(0.499891 0.000134027 0)
(0.499538 0.000346432 0)
(0.499098 0.00034014 0)
(0.498588 0.000109206 0)
(0.498025 -0.000342033 0)
(0.497427 -0.000990968 0)
(0.496804 -0.00180318 0)
(0.496164 -0.00273568 0)
(0.495517 -0.00372768 0)
(0.494866 -0.00470244 0)
(0.49421 -0.00556906 0)
(0.49354 -0.00622436 0)
(0.492839 -0.00655621 0)
(0.492089 -0.00644866 0)
(0.491272 -0.00578884 0)
(0.490376 -0.00447538 0)
(0.489403 -0.0024266 0)
(0.488372 0.000416932 0)
(0.487323 0.0040678 0)
(0.486324 0.00847267 0)
(0.485463 0.0135408 0)
(0.484833 0.0191413 0)
(0.48454 0.0250654 0)
(0.484672 0.0311062 0)
(0.485292 0.0370303 0)
(0.486443 0.0425985 0)
(0.488127 0.0475937 0)
(0.490279 0.0518257 0)
(0.492805 0.0551764 0)
(0.495666 0.0574796 0)
(0.498801 0.0586804 0)
(0.502074 0.0587209 0)
(0.505324 0.057597 0)
(0.50841 0.0553513 0)
(0.511221 0.0520547 0)
(0.51367 0.047798 0)
(0.515691 0.0426938 0)
(0.496873 -0.010391 0)
(0.497559 -0.0100665 0)
(0.498238 -0.00956515 0)
(0.498904 -0.00889892 0)
(0.499529 -0.00809052 0)
(0.50009 -0.00714066 0)
(0.500573 -0.00609719 0)
(0.500953 -0.00499814 0)
(0.501212 -0.00388329 0)
(0.50135 -0.00279619 0)
(0.501359 -0.0017801 0)
(0.501236 -0.000877269 0)
(0.500989 -0.000127967 0)
(0.500632 0.000429527 0)
(0.500166 0.000778884 0)
(0.499583 0.000881596 0)
(0.498897 0.000711407 0)
(0.498138 0.000257265 0)
(0.497339 -0.000475067 0)
(0.496535 -0.00145802 0)
(0.495745 -0.00266124 0)
(0.494992 -0.00403057 0)
(0.494301 -0.00549902 0)
(0.493692 -0.00698431 0)
(0.493175 -0.00839051 0)
(0.49275 -0.00961146 0)
(0.492407 -0.0105351 0)
(0.492127 -0.0110484 0)
(0.491886 -0.0110427 0)
(0.491658 -0.0104196 0)
(0.491419 -0.0090999 0)
(0.49116 -0.00703151 0)
(0.490883 -0.00419685 0)
(0.490609 -0.000602711 0)
(0.490379 0.00369725 0)
(0.490224 0.00857306 0)
(0.490216 0.0138939 0)
(0.490437 0.0194589 0)
(0.49092 0.0250654 0)
(0.491711 0.0304934 0)
(0.492832 0.0355342 0)
(0.494248 0.039996 0)
(0.495901 0.0437086 0)
(0.497775 0.0465607 0)
(0.499836 0.0484307 0)
(0.501988 0.0492314 0)
(0.504118 0.0489217 0)
(0.506124 0.0475169 0)
(0.507924 0.0450588 0)
(0.509455 0.0416208 0)
(0.510672 0.0372959 0)
(0.497045 -0.0103068 0)
(0.497931 -0.010054 0)
(0.498804 -0.00957537 0)
(0.499639 -0.00890539 0)
(0.500427 -0.00801946 0)
(0.501128 -0.00697345 0)
(0.501689 -0.00581215 0)
(0.502104 -0.00459116 0)
(0.502359 -0.00335258 0)
(0.502443 -0.00214994 0)
(0.50235 -0.0010397 0)
(0.502082 -7.14759e-05 0)
(0.501644 0.000702935 0)
(0.501063 0.00123912 0)
(0.500343 0.00150501 0)
(0.49947 0.00145592 0)
(0.498474 0.00106423 0)
(0.497401 0.000313438 0)
(0.49631 -0.000782572 0)
(0.49524 -0.00219045 0)
(0.49423 -0.00387139 0)
(0.493325 -0.00575994 0)
(0.492562 -0.00777501 0)
(0.491975 -0.00982052 0)
(0.491583 -0.0117885 0)
(0.491396 -0.0135634 0)
(0.491404 -0.0150295 0)
(0.491584 -0.0160734 0)
(0.491905 -0.0165892 0)
(0.492325 -0.0164853 0)
(0.4928 -0.0156888 0)
(0.493292 -0.0141503 0)
(0.493771 -0.011848 0)
(0.494221 -0.00879378 0)
(0.494633 -0.00503523 0)
(0.495034 -0.000666174 0)
(0.495436 0.00422705 0)
(0.495853 0.00944008 0)
(0.496336 0.0148025 0)
(0.49692 0.0201213 0)
(0.497638 0.0251862 0)
(0.498463 0.0298041 0)
(0.499382 0.0338087 0)
(0.500404 0.0370667 0)
(0.50149 0.039434 0)
(0.502586 0.0408025 0)
(0.503632 0.0411091 0)
(0.50457 0.0403383 0)
(0.505347 0.038511 0)
(0.505929 0.0356787 0)
(0.506296 0.0319179 0)
(0.497146 -0.0107119 0)
(0.498287 -0.0104661 0)
(0.499387 -0.00996065 0)
(0.50046 -0.00918203 0)
(0.501461 -0.00814148 0)
(0.502298 -0.00693234 0)
(0.502955 -0.00559402 0)
(0.503413 -0.00418503 0)
(0.503654 -0.00276572 0)
(0.503663 -0.00140316 0)
(0.503438 -0.000166439 0)
(0.502979 0.000883019 0)
(0.5023 0.00167798 0)
(0.501434 0.00217951 0)
(0.500383 0.0023214 0)
(0.499142 0.0020626 0)
(0.497754 0.00136994 0)
(0.496291 0.000233352 0)
(0.494835 -0.0013223 0)
(0.493445 -0.00326367 0)
(0.492174 -0.00552039 0)
(0.491087 -0.00801398 0)
(0.490239 -0.0106441 0)
(0.489678 -0.0132943 0)
(0.489431 -0.0158383 0)
(0.489509 -0.018148 0)
(0.489898 -0.0201017 0)
(0.49057 -0.0215825 0)
(0.491478 -0.0224883 0)
(0.492564 -0.0227357 0)
(0.493761 -0.0222624 0)
(0.495008 -0.0210312 0)
(0.496247 -0.0190204 0)
(0.497436 -0.0162603 0)
(0.498526 -0.012761 0)
(0.49949 -0.00861712 0)
(0.500319 -0.00397963 0)
(0.501016 0.00103943 0)
(0.501607 0.00627698 0)
(0.5021 0.0115474 0)
(0.502519 0.0166637 0)
(0.502875 0.021413 0)
(0.503168 0.0256453 0)
(0.503406 0.029189 0)
(0.503579 0.031896 0)
(0.50367 0.0336479 0)
(0.503662 0.0343662 0)
(0.503534 0.0340144 0)
(0.503273 0.0325849 0)
(0.50287 0.0301275 0)
(0.502342 0.0266955 0)
(0.497242 -0.0114865 0)
(0.498678 -0.0111992 0)
(0.500088 -0.0105656 0)
(0.501458 -0.00958364 0)
(0.502677 -0.00834459 0)
(0.503675 -0.00690215 0)
(0.504437 -0.00532052 0)
(0.504933 -0.00366889 0)
(0.505141 -0.00202504 0)
(0.505042 -0.0004742 0)
(0.504637 0.000908277 0)
(0.503926 0.00203654 0)
(0.502941 0.00283529 0)
(0.501707 0.0032625 0)
(0.500226 0.00322348 0)
(0.498519 0.00267544 0)
(0.496644 0.00158341 0)
(0.494708 -4.66546e-05 0)
(0.492811 -0.00217399 0)
(0.491041 -0.00474571 0)
(0.489478 -0.00767751 0)
(0.488199 -0.01086 0)
(0.48728 -0.0141632 0)
(0.486778 -0.0174456 0)
(0.486728 -0.0205595 0)
(0.487132 -0.023367 0)
(0.48797 -0.025735 0)
(0.489199 -0.0275468 0)
(0.490755 -0.0287062 0)
(0.492555 -0.0291403 0)
(0.494509 -0.0287998 0)
(0.496539 -0.0276823 0)
(0.498548 -0.0257453 0)
(0.500486 -0.0230113 0)
(0.50228 -0.0195425 0)
(0.503826 -0.0154312 0)
(0.505104 -0.0108017 0)
(0.506108 -0.00578121 0)
(0.506839 -0.000532578 0)
(0.507303 0.0047836 0)
(0.507501 0.00999011 0)
(0.507442 0.0148718 0)
(0.507155 0.0192661 0)
(0.506653 0.0229978 0)
(0.505947 0.0259105 0)
(0.505056 0.0278755 0)
(0.503999 0.0288001 0)
(0.50279 0.028651 0)
(0.501462 0.0273998 0)
(0.500041 0.0250565 0)
(0.498575 0.0216882 0)
(0.497383 -0.012491 0)
(0.499203 -0.0120775 0)
(0.501001 -0.011213 0)
(0.502681 -0.0099851 0)
(0.504143 -0.00847343 0)
(0.505322 -0.00673832 0)
(0.506188 -0.00485957 0)
(0.506707 -0.0029235 0)
(0.506848 -0.00102637 0)
(0.506596 0.000727894 0)
(0.505948 0.00224899 0)
(0.504906 0.00343257 0)
(0.503526 0.00421208 0)
(0.501822 0.00448825 0)
(0.499796 0.00418515 0)
(0.497501 0.00324064 0)
(0.495031 0.00163667 0)
(0.492532 -0.000605548 0)
(0.490134 -0.00342517 0)
(0.487939 -0.00673215 0)
(0.486057 -0.0104218 0)
(0.484598 -0.0143493 0)
(0.48365 -0.0183515 0)
(0.483278 -0.0222588 0)
(0.483508 -0.0259043 0)
(0.484332 -0.0291396 0)
(0.485718 -0.0318238 0)
(0.487599 -0.033844 0)
(0.489886 -0.0351132 0)
(0.492472 -0.0355801 0)
(0.495221 -0.0352228 0)
(0.498065 -0.034002 0)
(0.50092 -0.03192 0)
(0.50364 -0.0289972 0)
(0.506106 -0.0253599 0)
(0.508229 -0.0210906 0)
(0.509966 -0.0162995 0)
(0.511285 -0.0111216 0)
(0.512168 -0.00571292 0)
(0.512615 -0.000251696 0)
(0.512598 0.00507151 0)
(0.512143 0.0101036 0)
(0.511286 0.0146317 0)
(0.510043 0.0184738 0)
(0.50845 0.0214672 0)
(0.506555 0.0234779 0)
(0.504434 0.0244339 0)
(0.502131 0.0242565 0)
(0.499676 0.0229282 0)
(0.497157 0.0204379 0)
(0.494741 0.0169093 0)
(0.497662 -0.0135383 0)
(0.499949 -0.0128862 0)
(0.502178 -0.0117425 0)
(0.504197 -0.0102088 0)
(0.505923 -0.00836341 0)
(0.507288 -0.00628615 0)
(0.50825 -0.00407208 0)
(0.508764 -0.00182724 0)
(0.508791 0.000331566 0)
(0.508317 0.00228546 0)
(0.507341 0.00391483 0)
(0.505889 0.00511558 0)
(0.503997 0.00580406 0)
(0.50168 0.00583462 0)
(0.498978 0.0051539 0)
(0.49597 0.00368826 0)
(0.492797 0.00144893 0)
(0.489644 -0.00152563 0)
(0.486682 -0.00513056 0)
(0.48404 -0.00927291 0)
(0.481856 -0.0137812 0)
(0.480264 -0.0184738 0)
(0.479365 -0.0231589 0)
(0.479221 -0.0276395 0)
(0.479844 -0.0317395 0)
(0.48121 -0.0352962 0)
(0.483263 -0.038173 0)
(0.485909 -0.0402634 0)
(0.489018 -0.0415061 0)
(0.492445 -0.0418735 0)
(0.496087 -0.0413127 0)
(0.49984 -0.039795 0)
(0.503549 -0.0373786 0)
(0.507042 -0.0341423 0)
(0.510181 -0.0301778 0)
(0.512879 -0.0255829 0)
(0.515064 -0.0204818 0)
(0.516684 -0.0150152 0)
(0.517699 -0.00934528 0)
(0.518079 -0.00365317 0)
(0.517842 0.00185759 0)
(0.516989 0.00702399 0)
(0.515514 0.0116352 0)
(0.513478 0.0154998 0)
(0.510943 0.0184458 0)
(0.508015 0.0203716 0)
(0.504772 0.0211463 0)
(0.501278 0.0207092 0)
(0.497639 0.019042 0)
(0.494019 0.0161942 0)
(0.490663 0.0123332 0)
(0.498176 -0.0144034 0)
(0.50099 -0.01344 0)
(0.503675 -0.0119627 0)
(0.506058 -0.0100664 0)
(0.508064 -0.00784349 0)
(0.509611 -0.00539108 0)
(0.510645 -0.00282333 0)
(0.511108 -0.00026938 0)
(0.510959 0.00213144 0)
(0.510178 0.00425079 0)
(0.508777 0.00593912 0)
(0.506795 0.00710622 0)
(0.504245 0.00756895 0)
(0.501172 0.00725411 0)
(0.497649 0.00604891 0)
(0.493795 0.00392889 0)
(0.489816 0.000925999 0)
(0.485949 -0.00287864 0)
(0.482381 -0.0073776 0)
(0.479282 -0.0123978 0)
(0.476849 -0.0177318 0)
(0.475212 -0.0231602 0)
(0.474477 -0.02846 0)
(0.474691 -0.0334149 0)
(0.475846 -0.0378473 0)
(0.477894 -0.041589 0)
(0.480747 -0.0445148 0)
(0.484263 -0.0465408 0)
(0.488273 -0.0476304 0)
(0.492662 -0.0477225 0)
(0.497295 -0.0467879 0)
(0.501992 -0.0448554 0)
(0.506564 -0.0420001 0)
(0.51083 -0.0383191 0)
(0.514653 -0.0339034 0)
(0.517911 -0.0288699 0)
(0.520518 -0.0233504 0)
(0.522405 -0.0175012 0)
(0.523513 -0.0114974 0)
(0.5238 -0.00552722 0)
(0.523261 0.000207439 0)
(0.521907 0.00548365 0)
(0.51975 0.0101126 0)
(0.516843 0.0138929 0)
(0.513313 0.0166818 0)
(0.509248 0.0183303 0)
(0.504765 0.0187266 0)
(0.500021 0.017814 0)
(0.495157 0.0156132 0)
(0.490444 0.0122361 0)
(0.486174 0.00788003 0)
(0.499007 -0.0148808 0)
(0.502379 -0.0135486 0)
(0.505545 -0.0116832 0)
(0.508312 -0.00938422 0)
(0.510594 -0.00675529 0)
(0.512304 -0.00391422 0)
(0.513367 -0.000996255 0)
(0.513715 0.00184555 0)
(0.513308 0.00444797 0)
(0.512123 0.00666096 0)
(0.510195 0.00835473 0)
(0.507519 0.00933323 0)
(0.504144 0.0094767 0)
(0.50016 0.00864539 0)
(0.495653 0.00677145 0)
(0.490844 0.0038571 0)
(0.485986 -3.3286e-05 0)
(0.481335 -0.00477353 0)
(0.477154 -0.0102138 0)
(0.473676 -0.0161019 0)
(0.471083 -0.0222046 0)
(0.469525 -0.0282714 0)
(0.469101 -0.0340548 0)
(0.469825 -0.0393406 0)
(0.471663 -0.0439448 0)
(0.474537 -0.0477147 0)
(0.478307 -0.0505484 0)
(0.482789 -0.0523842 0)
(0.487831 -0.0531581 0)
(0.493279 -0.0528275 0)
(0.498943 -0.0514278 0)
(0.504614 -0.0489893 0)
(0.510069 -0.0456267 0)
(0.51512 -0.0414126 0)
(0.519609 -0.0364665 0)
(0.523409 -0.0309176 0)
(0.526409 -0.0249151 0)
(0.528512 -0.0186316 0)
(0.529649 -0.0122577 0)
(0.529762 -0.0060029 0)
(0.528834 -8.42609e-05 0)
(0.52688 0.00527206 0)
(0.523913 0.00984179 0)
(0.52004 0.0134417 0)
(0.515374 0.0159279 0)
(0.510055 0.0170996 0)
(0.504251 0.01692 0)
(0.498161 0.0153468 0)
(0.492057 0.0124583 0)
(0.48628 0.00842209 0)
(0.48117 0.00348163 0)
(0.500221 -0.0147831 0)
(0.504174 -0.0130363 0)
(0.507829 -0.0107424 0)
(0.510978 -0.00801554 0)
(0.513526 -0.00497145 0)
(0.515362 -0.00175095 0)
(0.516397 0.00148834 0)
(0.516546 0.00457062 0)
(0.515769 0.00730816 0)
(0.514081 0.00954952 0)
(0.511448 0.0111056 0)
(0.507917 0.0117584 0)
(0.503557 0.0114107 0)
(0.498467 0.00989935 0)
(0.492859 0.00720108 0)
(0.486986 0.00336625 0)
(0.481177 -0.00150918 0)
(0.475758 -0.00723622 0)
(0.47104 -0.0135707 0)
(0.467276 -0.0202603 0)
(0.464663 -0.027022 0)
(0.463347 -0.0335789 0)
(0.463395 -0.0396753 0)
(0.464791 -0.0451147 0)
(0.467464 -0.0497155 0)
(0.471285 -0.0533602 0)
(0.476072 -0.0559743 0)
(0.481648 -0.0574724 0)
(0.487821 -0.0578051 0)
(0.49438 -0.0569843 0)
(0.501116 -0.0550482 0)
(0.507773 -0.052066 0)
(0.514116 -0.0481308 0)
(0.519961 -0.0433452 0)
(0.525116 -0.0378294 0)
(0.529428 -0.0317283 0)
(0.53277 -0.0252148 0)
(0.535029 -0.0184802 0)
(0.536111 -0.0117366 0)
(0.535946 -0.00522084 0)
(0.534512 0.000833256 0)
(0.531816 0.00617776 0)
(0.527909 0.0105908 0)
(0.522924 0.0139026 0)
(0.516969 0.0158629 0)
(0.510239 0.0164202 0)
(0.503011 0.015474 0)
(0.495557 0.013068 0)
(0.488227 0.00938812 0)
(0.481458 0.00463715 0)
(0.475626 -0.000893716 0)
(0.501857 -0.0139663 0)
(0.506403 -0.0117696 0)
(0.510551 -0.00903199 0)
(0.51407 -0.00586265 0)
(0.516846 -0.00241398 0)
(0.518752 0.0011588 0)
(0.519677 0.00466636 0)
(0.519525 0.00790519 0)
(0.518278 0.0107153 0)
(0.515914 0.0128504 0)
(0.512401 0.0140879 0)
(0.507822 0.0142831 0)
(0.502285 0.0132343 0)
(0.49595 0.0108812 0)
(0.489116 0.00721941 0)
(0.482129 0.00236275 0)
(0.475371 -0.00353382 0)
(0.469257 -0.010206 0)
(0.464111 -0.0173778 0)
(0.460203 -0.0247363 0)
(0.457742 -0.0319771 0)
(0.456852 -0.0388199 0)
(0.457548 -0.0450306 0)
(0.459772 -0.0504265 0)
(0.463408 -0.0548704 0)
(0.468271 -0.0582588 0)
(0.474189 -0.0605071 0)
(0.48095 -0.0615567 0)
(0.488307 -0.0614037 0)
(0.49602 -0.0600542 0)
(0.503838 -0.057554 0)
(0.511501 -0.0540169 0)
(0.518754 -0.049494 0)
(0.52538 -0.0441161 0)
(0.531181 -0.0380194 0)
(0.535977 -0.0313643 0)
(0.53961 -0.024339 0)
(0.541946 -0.0171631 0)
(0.542869 -0.010078 0)
(0.542296 -0.00335209 0)
(0.540212 0.00276161 0)
(0.536621 0.00800119 0)
(0.531628 0.0121587 0)
(0.525309 0.014948 0)
(0.517893 0.016259 0)
(0.50967 0.0159875 0)
(0.500902 0.014121 0)
(0.492074 0.0108052 0)
(0.483619 0.00628534 0)
(0.475987 0.000843187 0)
(0.469609 -0.00519958 0)
(0.50395 -0.01236 0)
(0.509089 -0.0096928 0)
(0.513715 -0.00649895 0)
(0.517576 -0.00290093 0)
(0.520528 0.000930463 0)
(0.522423 0.00480556 0)
(0.523125 0.00851239 0)
(0.522579 0.0118424 0)
(0.520701 0.0145818 0)
(0.517445 0.0164273 0)
(0.512875 0.0172267 0)
(0.50706 0.0167272 0)
(0.500154 0.0148154 0)
(0.492449 0.0114567 0)
(0.484334 0.00672279 0)
(0.476225 0.000792638 0)
(0.468593 -0.00609685 0)
(0.461892 -0.0136358 0)
(0.456482 -0.0214877 0)
(0.452647 -0.02931 0)
(0.45055 -0.0368021 0)
(0.450267 -0.0437047 0)
(0.451767 -0.0498255 0)
(0.454935 -0.0550393 0)
(0.459621 -0.0591593 0)
(0.46564 -0.0621802 0)
(0.472767 -0.0639737 0)
(0.480741 -0.0645425 0)
(0.489309 -0.0638774 0)
(0.498207 -0.062009 0)
(0.507122 -0.0589766 0)
(0.515791 -0.0548766 0)
(0.523966 -0.0497913 0)
(0.531379 -0.0438385 0)
(0.537806 -0.0371671 0)
(0.543045 -0.0299627 0)
(0.546909 -0.0224408 0)
(0.549232 -0.014849 0)
(0.549871 -0.00746626 0)
(0.548738 -0.000598071 0)
(0.545841 0.00550827 0)
(0.541201 0.0105606 0)
(0.534854 0.0142309 0)
(0.527029 0.0163881 0)
(0.518018 0.0168478 0)
(0.508113 0.0155751 0)
(0.497838 0.0126884 0)
(0.48772 0.00844932 0)
(0.478254 0.00312448 0)
(0.469948 -0.00291625 0)
(0.46325 -0.00932069 0)
(0.506519 -0.00997861 0)
(0.512242 -0.0068395 0)
(0.517315 -0.00319223 0)
(0.52147 0.000816706 0)
(0.524522 0.00498795 0)
(0.526303 0.00910367 0)
(0.526686 0.0129613 0)
(0.52557 0.0162793 0)
(0.522844 0.0187578 0)
(0.518546 0.0202075 0)
(0.512693 0.0203252 0)
(0.505407 0.0189517 0)
(0.497012 0.0160057 0)
(0.487853 0.0115277 0)
(0.478441 0.00566695 0)
(0.469288 -0.00131921 0)
(0.460914 -0.00911261 0)
(0.45383 -0.0173488 0)
(0.448397 -0.0256467 0)
(0.444847 -0.0336877 0)
(0.443307 -0.0411978 0)
(0.443794 -0.0479525 0)
(0.446187 -0.053866 0)
(0.45042 -0.0586943 0)
(0.456256 -0.0624619 0)
(0.463449 -0.0650068 0)
(0.47182 -0.0663557 0)
(0.481036 -0.0664557 0)
(0.490822 -0.0653145 0)
(0.500891 -0.0629568 0)
(0.510928 -0.0594601 0)
(0.520631 -0.0548411 0)
(0.529724 -0.0492206 0)
(0.537927 -0.0427181 0)
(0.544974 -0.035493 0)
(0.550619 -0.0277514 0)
(0.554641 -0.0197447 0)
(0.556845 -0.0117614 0)
(0.557052 -0.00413434 0)
(0.555219 0.002861 0)
(0.551327 0.00887209 0)
(0.545323 0.0135335 0)
(0.537452 0.0166428 0)
(0.527936 0.0179634 0)
(0.5171 0.0174017 0)
(0.50553 0.015059 0)
(0.49379 0.0111521 0)
(0.482507 0.00601278 0)
(0.472233 -5.23084e-06 0)
(0.463505 -0.00648125 0)
(0.45673 -0.0130576 0)
(0.509568 -0.00695311 0)
(0.51585 -0.00334723 0)
(0.521334 0.000742823 0)
(0.525713 0.00513252 0)
(0.528772 0.00959978 0)
(0.530353 0.0139396 0)
(0.53026 0.0178361 0)
(0.52834 0.02099 0)
(0.524601 0.0231372 0)
(0.518993 0.0239528 0)
(0.511608 0.0232213 0)
(0.502736 0.0208146 0)
(0.492726 0.0167128 0)
(0.482104 0.0110489 0)
(0.471473 0.00408704 0)
(0.461414 -0.00385577 0)
(0.452521 -0.0123747 0)
(0.445307 -0.021067 0)
(0.440086 -0.0295754 0)
(0.437037 -0.0376025 0)
(0.436231 -0.044915 0)
(0.437553 -0.0514388 0)
(0.440992 -0.0569231 0)
(0.446318 -0.0613667 0)
(0.453297 -0.0646884 0)
(0.461742 -0.0668175 0)
(0.471315 -0.0677465 0)
(0.481773 -0.0674522 0)
(0.492786 -0.0659365 0)
(0.504023 -0.0631998 0)
(0.515182 -0.0592819 0)
(0.525956 -0.0542272 0)
(0.535999 -0.0481185 0)
(0.545005 -0.0410865 0)
(0.552664 -0.033315 0)
(0.558683 -0.0250363 0)
(0.562791 -0.0165419 0)
(0.564744 -0.00817099 0)
(0.564401 -0.000285584 0)
(0.56169 0.00681297 0)
(0.556473 0.0125903 0)
(0.54895 0.016824 0)
(0.539284 0.0191879 0)
(0.527806 0.0195269 0)
(0.515142 0.0178976 0)
(0.50189 0.0144583 0)
(0.488805 0.00957251 0)
(0.476557 0.00365638 0)
(0.46572 -0.00287834 0)
(0.456834 -0.0095955 0)
(0.45024 -0.0161495 0)
(0.513087 -0.00353077 0)
(0.519908 0.000536095 0)
(0.525745 0.00505076 0)
(0.530268 0.0098029 0)
(0.533266 0.0145735 0)
(0.534479 0.0190845 0)
(0.53368 0.0229099 0)
(0.530822 0.0258481 0)
(0.525768 0.0274583 0)
(0.518602 0.0275043 0)
(0.509538 0.0257845 0)
(0.49889 0.0222252 0)
(0.48724 0.0169086 0)
(0.475216 0.0100881 0)
(0.463516 0.00212362 0)
(0.452788 -0.00658849 0)
(0.443651 -0.0155913 0)
(0.436563 -0.0244927 0)
(0.431785 -0.0329649 0)
(0.42943 -0.0407694 0)
(0.4294 -0.0478339 0)
(0.431728 -0.0539193 0)
(0.436219 -0.0589913 0)
(0.442633 -0.0630471 0)
(0.450799 -0.0659591 0)
(0.460394 -0.0677771 0)
(0.471186 -0.0684095 0)
(0.482838 -0.0678652 0)
(0.49505 -0.0661045 0)
(0.507498 -0.0631237 0)
(0.519827 -0.058893 0)
(0.531698 -0.0534672 0)
(0.542748 -0.0469194 0)
(0.552598 -0.0393803 0)
(0.560882 -0.0310482 0)
(0.567248 -0.0221983 0)
(0.571368 -0.0131777 0)
(0.57297 -0.00434896 0)
(0.571927 0.00388489 0)
(0.568008 0.0109662 0)
(0.561287 0.0165659 0)
(0.551903 0.0202588 0)
(0.540167 0.021778 0)
(0.526678 0.0211224 0)
(0.512072 0.0183974 0)
(0.497242 0.0139471 0)
(0.483001 0.00821196 0)
(0.470041 0.00169252 0)
(0.458928 -0.00514963 0)
(0.450146 -0.0119114 0)
(0.443855 -0.0183759 0)
(0.517058 -7.13785e-05 0)
(0.524394 0.00444529 0)
(0.530535 0.00938854 0)
(0.535154 0.01452 0)
(0.537964 0.0196341 0)
(0.538601 0.0242238 0)
(0.536944 0.0280211 0)
(0.532821 0.0305826 0)
(0.526205 0.0315689 0)
(0.517283 0.0307501 0)
(0.506306 0.0279423 0)
(0.493848 0.0231911 0)
(0.480579 0.0167062 0)
(0.467299 0.00883959 0)
(0.45476 5.689e-05 0)
(0.443641 -0.0091807 0)
(0.434536 -0.0184181 0)
(0.427835 -0.0272932 0)
(0.423704 -0.035537 0)
(0.422066 -0.0430889 0)
(0.42299 -0.0497201 0)
(0.426326 -0.0553929 0)
(0.431819 -0.0601359 0)
(0.439333 -0.0638353 0)
(0.44857 -0.0665534 0)
(0.459303 -0.068189 0)
(0.471236 -0.0687516 0)
(0.484072 -0.0681498 0)
(0.497496 -0.06632 0)
(0.511176 -0.0632222 0)
(0.524747 -0.0588231 0)
(0.537805 -0.0531187 0)
(0.549936 -0.0461711 0)
(0.560706 -0.0381162 0)
(0.569665 -0.0291746 0)
(0.576369 -0.0196713 0)
(0.580462 -0.00999432 0)
(0.581631 -0.000542742 0)
(0.579582 0.00802662 0)
(0.574253 0.0152474 0)
(0.565685 0.0206534 0)
(0.554128 0.0237676 0)
(0.540155 0.024508 0)
(0.524461 0.0228569 0)
(0.508013 0.0191725 0)
(0.491745 0.0138508 0)
(0.476561 0.00747773 0)
(0.46316 0.000554958 0)
(0.452037 -0.00642067 0)
(0.443491 -0.0131437 0)
(0.437739 -0.0194254 0)
(0.521469 0.00295636 0)
(0.529317 0.00794106 0)
(0.535734 0.0133386 0)
(0.540406 0.01896 0)
(0.542851 0.024366 0)
(0.542746 0.0291401 0)
(0.53993 0.0328334 0)
(0.534277 0.0350133 0)
(0.525865 0.0353522 0)
(0.514927 0.0336175 0)
(0.501952 0.0297309 0)
(0.487637 0.0238697 0)
(0.472876 0.0163369 0)
(0.458541 0.00764801 0)
(0.44544 -0.00170158 0)
(0.434226 -0.0112035 0)
(0.425422 -0.0204435 0)
(0.419311 -0.0291116 0)
(0.41585 -0.0371128 0)
(0.415112 -0.044299 0)
(0.41698 -0.0505512 0)
(0.421228 -0.0559648 0)
(0.42773 -0.0604364 0)
(0.436204 -0.0640689 0)
(0.446461 -0.06677 0)
(0.458221 -0.0685274 0)
(0.471246 -0.0692383 0)
(0.485269 -0.0688102 0)
(0.499944 -0.067141 0)
(0.51492 -0.0641292 0)
(0.529813 -0.0596958 0)
(0.544194 -0.0538068 0)
(0.55756 -0.0464933 0)
(0.569379 -0.0378836 0)
(0.579097 -0.0282271 0)
(0.586194 -0.0179117 0)
(0.590267 -0.00729291 0)
(0.590781 0.0028824 0)
(0.587538 0.0120587 0)
(0.580506 0.0195832 0)
(0.569729 0.0248531 0)
(0.555731 0.027553 0)
(0.539272 0.0275799 0)
(0.52139 0.0251503 0)
(0.503124 0.0206725 0)
(0.485587 0.0147091 0)
(0.469707 0.00789704 0)
(0.456079 0.000756134 0)
(0.445106 -0.00626189 0)
(0.436966 -0.0129536 0)
(0.431832 -0.0189792 0)
(0.52632 0.00501687 0)
(0.534713 0.0105121 0)
(0.541443 0.016471 0)
(0.546039 0.0226541 0)
(0.547989 0.0285065 0)
(0.546914 0.0335187 0)
(0.542673 0.0371882 0)
(0.535219 0.0390463 0)
(0.524714 0.0387849 0)
(0.5116 0.0362033 0)
(0.49652 0.0313675 0)
(0.480436 0.0245555 0)
(0.464338 0.0162377 0)
(0.449227 0.00698398 0)
(0.435837 -0.00265163 0)
(0.424787 -0.012186 0)
(0.416481 -0.0212589 0)
(0.410996 -0.0296799 0)
(0.408339 -0.0374415 0)
(0.408458 -0.0443108 0)
(0.411184 -0.0504158 0)
(0.416346 -0.0556703 0)
(0.42367 -0.0602339 0)
(0.433002 -0.0640395 0)
(0.444147 -0.0670674 0)
(0.456883 -0.0692316 0)
(0.470991 -0.0703919 0)
(0.486177 -0.0704323 0)
(0.502142 -0.0691848 0)
(0.518534 -0.066489 0)
(0.534923 -0.0622002 0)
(0.550808 -0.0562326 0)
(0.565618 -0.0485718 0)
(0.5787 -0.0393281 0)
(0.589346 -0.0287765 0)
(0.597007 -0.0173254 0)
(0.600957 -0.00551878 0)
(0.60072 0.00581599 0)
(0.596047 0.0159094 0)
(0.586874 0.0239883 0)
(0.573555 0.0293971 0)
(0.556822 0.0318974 0)
(0.537777 0.0314865 0)
(0.517613 0.028504 0)
(0.497644 0.0234884 0)
(0.479021 0.0171439 0)
(0.462602 0.0100872 0)
(0.448912 0.00286057 0)
(0.438161 -0.00419262 0)
(0.43054 -0.0108797 0)
(0.426127 -0.0168691 0)
(0.531681 0.00551688 0)
(0.540684 0.0115948 0)
(0.547736 0.0183035 0)
(0.552258 0.0252297 0)
(0.553509 0.0317163 0)
(0.551223 0.0371652 0)
(0.545274 0.0409712 0)
(0.535718 0.0426919 0)
(0.522905 0.0419815 0)
(0.507431 0.0387664 0)
(0.490262 0.0332034 0)
(0.472483 0.0257461 0)
(0.455285 0.0169444 0)
(0.439609 0.00743067 0)
(0.426186 -0.00225107 0)
(0.415479 -0.0116649 0)
(0.407743 -0.0205286 0)
(0.402905 -0.0288261 0)
(0.400983 -0.0363681 0)
(0.40192 -0.0431814 0)
(0.40545 -0.0492833 0)
(0.411302 -0.0548162 0)
(0.419322 -0.059774 0)
(0.429393 -0.064138 0)
(0.441333 -0.0678464 0)
(0.454974 -0.070771 0)
(0.470109 -0.0727593 0)
(0.486499 -0.073608 0)
(0.503846 -0.0730892 0)
(0.521791 -0.0709732 0)
(0.539887 -0.0670498 0)
(0.557574 -0.0611343 0)
(0.574163 -0.0531371 0)
(0.588833 -0.0431316 0)
(0.600735 -0.0314138 0)
(0.609081 -0.0183668 0)
(0.613021 -0.00494067 0)
(0.611869 0.00814705 0)
(0.60542 0.0196046 0)
(0.593763 0.0287003 0)
(0.577487 0.0346594 0)
(0.557753 0.0373199 0)
(0.535884 0.0367984 0)
(0.513453 0.0335907 0)
(0.491844 0.0283643 0)
(0.472236 0.0218253 0)
(0.455405 0.0146586 0)
(0.441684 0.00734919 0)
(0.431146 0.000103442 0)
(0.423997 -0.00671505 0)
(0.420165 -0.0130056 0)
(0.537543 0.00384908 0)
(0.547387 0.0106969 0)
(0.554896 0.0184014 0)
(0.559218 0.0263338 0)
(0.559664 0.0337884 0)
(0.555913 0.0399851 0)
(0.547966 0.0442564 0)
(0.536037 0.0461318 0)
(0.520645 0.0452866 0)
(0.502735 0.0417378 0)
(0.483451 0.03582 0)
(0.464162 0.0280749 0)
(0.446 0.019118 0)
(0.429978 0.00960466 0)
(0.416631 3.7332e-05 0)
(0.406327 -0.00919126 0)
(0.399069 -0.0179463 0)
(0.394866 -0.0262504 0)
(0.393686 -0.0338476 0)
(0.395278 -0.0408683 0)
(0.399347 -0.0474371 0)
(0.40574 -0.053599 0)
(0.414323 -0.0593732 0)
(0.424984 -0.0647109 0)
(0.437621 -0.0695163 0)
(0.452096 -0.0736259 0)
(0.468254 -0.0768333 0)
(0.485889 -0.0788712 0)
(0.504735 -0.0794502 0)
(0.524436 -0.0782531 0)
(0.544527 -0.0749657 0)
(0.564398 -0.069283 0)
(0.583233 -0.0609819 0)
(0.599989 -0.0500418 0)
(0.613648 -0.0367369 0)
(0.62301 -0.0215479 0)
(0.626971 -0.0056775 0)
(0.624813 0.00986576 0)
(0.616243 0.0234833 0)
(0.601672 0.0342089 0)
(0.582022 0.0412813 0)
(0.558904 0.0445687 0)
(0.534078 0.0443539 0)
(0.509255 0.0412576 0)
(0.485977 0.0360293 0)
(0.465382 0.0294493 0)
(0.448104 0.0221447 0)
(0.434223 0.0145811 0)
(0.42382 0.00689452 0)
(0.417061 -0.000432361 0)
(0.413697 -0.00735574 0)
(0.544202 -0.000624946 0)
(0.555094 0.00722322 0)
(0.563149 0.0162648 0)
(0.567355 0.0256732 0)
(0.566839 0.0346071 0)
(0.561373 0.042061 0)
(0.55113 0.0472873 0)
(0.536505 0.0497348 0)
(0.518335 0.0491846 0)
(0.497857 0.0457543 0)
(0.476551 0.0399095 0)
(0.455766 0.0322388 0)
(0.436807 0.0234462 0)
(0.420473 0.0141066 0)
(0.407245 0.00469325 0)
(0.397275 -0.00451367 0)
(0.390373 -0.0133569 0)
(0.386644 -0.0218309 0)
(0.386008 -0.0298848 0)
(0.388018 -0.0375734 0)
(0.392491 -0.0450082 0)
(0.39925 -0.052255 0)
(0.408214 -0.0593023 0)
(0.419357 -0.0660648 0)
(0.432591 -0.0724227 0)
(0.447847 -0.0781625 0)
(0.465022 -0.0830262 0)
(0.483955 -0.0866986 0)
(0.504419 -0.0887954 0)
(0.526098 -0.0889422 0)
(0.548542 -0.086683 0)
(0.571111 -0.081508 0)
(0.592853 -0.0729814 0)
(0.612461 -0.0608914 0)
(0.628582 -0.0454329 0)
(0.639489 -0.0272934 0)
(0.643755 -0.00786699 0)
(0.640377 0.0112413 0)
(0.629225 0.0280343 0)
(0.61117 0.0412556 0)
(0.58761 0.0501338 0)
(0.560733 0.0546132 0)
(0.532596 0.0551057 0)
(0.505228 0.0523874 0)
(0.48016 0.0472901 0)
(0.458442 0.0406075 0)
(0.440523 0.0329879 0)
(0.426278 0.0248169 0)
(0.415831 0.0163912 0)
(0.409282 0.00812027 0)
(0.406192 1.35341e-05 0)
(0.551664 -0.00856104 0)
(0.564113 0.000634851 0)
(0.573077 0.011519 0)
(0.577208 0.0231017 0)
(0.575658 0.0342578 0)
(0.568206 0.0436513 0)
(0.555291 0.0504944 0)
(0.537649 0.0541131 0)
(0.516457 0.0543984 0)
(0.493343 0.0516054 0)
(0.469887 0.0462386 0)
(0.447704 0.0390165 0)
(0.427874 0.0305625 0)
(0.411176 0.0214579 0)
(0.397867 0.0121001 0)
(0.387985 0.00273042 0)
(0.381373 -0.00663053 0)
(0.37789 -0.0156668 0)
(0.377495 -0.0245622 0)
(0.379767 -0.0333497 0)
(0.384395 -0.0421504 0)
(0.391331 -0.050979 0)
(0.400558 -0.0597738 0)
(0.412047 -0.0684412 0)
(0.425787 -0.0768108 0)
(0.441777 -0.0846404 0)
(0.459949 -0.0916528 0)
(0.480231 -0.0974369 0)
(0.502426 -0.101535 0)
(0.526269 -0.103589 0)
(0.551433 -0.102902 0)
(0.5773 -0.0986906 0)
(0.602806 -0.0901535 0)
(0.626339 -0.0767335 0)
(0.646009 -0.0583718 0)
(0.659392 -0.0360256 0)
(0.664442 -0.0114616 0)
(0.659783 0.0126887 0)
(0.645496 0.0340507 0)
(0.623192 0.0508574 0)
(0.594989 0.0623375 0)
(0.563672 0.0684785 0)
(0.531814 0.0700262 0)
(0.50152 0.0678088 0)
(0.47434 0.0627882 0)
(0.451203 0.0557822 0)
(0.432324 0.0474507 0)
(0.417459 0.0382232 0)
(0.406754 0.0285483 0)
(0.400145 0.0187506 0)
(0.397046 0.00889481 0)
(0.560298 -0.020665 0)
(0.574976 -0.00964936 0)
(0.585251 0.00389606 0)
(0.589636 0.0185615 0)
(0.586895 0.0330199 0)
(0.577131 0.0453445 0)
(0.561172 0.0545614 0)
(0.540073 0.0601055 0)
(0.515596 0.0618562 0)
(0.489576 0.0601678 0)
(0.463936 0.0557102 0)
(0.440116 0.0491058 0)
(0.419292 0.041064 0)
(0.401989 0.0320774 0)
(0.388373 0.0225305 0)
(0.378226 0.0126777 0)
(0.371507 0.00246062 0)
(0.368161 -0.00768677 0)
(0.367777 -0.0179272 0)
(0.369972 -0.0283663 0)
(0.374569 -0.039039 0)
(0.381537 -0.0499164 0)
(0.390869 -0.0609418 0)
(0.402611 -0.0719775 0)
(0.416786 -0.0828166 0)
(0.433428 -0.093191 0)
(0.45255 -0.102848 0)
(0.474205 -0.111255 0)
(0.498096 -0.117955 0)
(0.524104 -0.122563 0)
(0.552195 -0.124207 0)
(0.581802 -0.121701 0)
(0.611873 -0.1136 0)
(0.640647 -0.098818 0)
(0.665528 -0.0766813 0)
(0.682967 -0.0483493 0)
(0.689711 -0.0164477 0)
(0.683816 0.0148599 0)
(0.665917 0.0428858 0)
(0.638429 0.0645714 0)
(0.604591 0.0793394 0)
(0.568094 0.0877612 0)
(0.531847 0.0903997 0)
(0.498074 0.0885789 0)
(0.468311 0.0832312 0)
(0.443286 0.0753649 0)
(0.423025 0.0657336 0)
(0.407219 0.0548459 0)
(0.395955 0.0432518 0)
(0.389038 0.0313011 0)
(0.385704 0.0191146 0)
(0.570258 -0.0378255 0)
(0.588239 -0.0242713 0)
(0.600776 -0.00698693 0)
(0.605702 0.0122438 0)
(0.60178 0.0313962 0)
(0.589129 0.0478092 0)
(0.569508 0.0605843 0)
(0.544518 0.0686655 0)
(0.516236 0.0725593 0)
(0.48706 0.0723948 0)
(0.458815 0.0690482 0)
(0.433136 0.0631667 0)
(0.410936 0.0553876 0)
(0.392662 0.0462272 0)
(0.378332 0.0360838 0)
(0.367608 0.0252187 0)
(0.360442 0.0137699 0)
(0.356854 0.00194627 0)
(0.35618 -0.010196 0)
(0.35813 -0.022773 0)
(0.362533 -0.035765 0)
(0.369381 -0.0491694 0)
(0.378723 -0.0628653 0)
(0.390628 -0.0766982 0)
(0.40514 -0.0904684 0)
(0.422354 -0.103859 0)
(0.442306 -0.11665 0)
(0.465122 -0.12815 0)
(0.490414 -0.137917 0)
(0.518131 -0.1459 0)
(0.548551 -0.150929 0)
(0.5814 -0.151084 0)
(0.615814 -0.144407 0)
(0.65032 -0.12873 0)
(0.682193 -0.102021 0)
(0.70653 -0.0652963 0)
(0.717506 -0.0230395 0)
(0.711864 0.0184794 0)
(0.690211 0.0554772 0)
(0.656356 0.0833979 0)
(0.616149 0.102339 0)
(0.573619 0.113168 0)
(0.532157 0.11697 0)
(0.494296 0.115127 0)
(0.461302 0.108941 0)
(0.433938 0.0995277 0)
(0.411928 0.0878141 0)
(0.394848 0.074522 0)
(0.382778 0.0602736 0)
(0.375332 0.045532 0)
(0.371619 0.0304255 0)
(0.581279 -0.0611972 0)
(0.604192 -0.0441993 0)
(0.620315 -0.0214765 0)
(0.626568 0.00457498 0)
(0.621222 0.0301548 0)
(0.605278 0.0524853 0)
(0.581208 0.0696986 0)
(0.551426 0.0814968 0)
(0.518935 0.0877588 0)
(0.485877 0.0895256 0)
(0.454704 0.0872297 0)
(0.426576 0.0818485 0)
(0.40252 0.0739506 0)
(0.382777 0.0641265 0)
(0.367268 0.0528229 0)
(0.355567 0.0403689 0)
(0.347646 0.0270284 0)