/*--------------------------------*- C++ -*----------------------------------*\
  =========                 |
  \\      /  F ield         | OpenFOAM: The Open Source CFD Toolbox
   \\    /   O peration     | Website:  https://openfoam.org
    \\  /    A nd           | Version:  11
     \\/     M anipulation  |
\*---------------------------------------------------------------------------*/
FoamFile
{
    format      ascii;
    class       volVectorField;
    location    "0";
    object      C;
}
// * * * * * * * * * * * * * * * * * * * * * * * * * * * * * * * * * * * * * //

dimensions      [0 1 0 0 0 0 0];

internalField   nonuniform List<vector> 
9600
(
(-0.94532445 -7.4747821 0.5)
(-0.69812629 -7.4747821 0.5)
(-0.45092812 -7.4747821 0.5)
(-0.20372995 -7.4747821 0.5)
(0.043468212 -7.4747821 0.5)
(0.29066638 -7.4747821 0.5)
(0.53786455 -7.4747821 0.5)
(0.78506271 -7.4747821 0.5)
(1.0322609 -7.4747821 0.5)
(1.279459 -7.4747821 0.5)
(1.5266572 -7.4747821 0.5)
(1.7738554 -7.4747821 0.5)
(2.0210535 -7.4747821 0.5)
(2.2682517 -7.4747821 0.5)
(2.5154499 -7.4747821 0.5)
(2.762648 -7.4747821 0.5)
(3.0098462 -7.4747821 0.5)
(3.2570444 -7.4747821 0.5)
(3.5042425 -7.4747821 0.5)
(3.7514407 -7.4747821 0.5)
(3.9986389 -7.4747821 0.5)
(4.2458371 -7.4747821 0.5)
(4.4930352 -7.4747821 0.5)
(4.7402334 -7.4747821 0.5)
(4.9874316 -7.4747821 0.5)
(5.2346297 -7.4747821 0.5)
(5.4818279 -7.4747821 0.5)
(5.7290261 -7.4747821 0.5)
(5.9762242 -7.4747821 0.5)
(6.2234224 -7.4747821 0.5)
(6.4706206 -7.4747821 0.5)
(6.7178187 -7.4747821 0.5)
(6.9650169 -7.4747821 0.5)
(7.2122151 -7.4747821 0.5)
(7.4594132 -7.4747821 0.5)
(7.7066114 -7.4747821 0.5)
(7.9538096 -7.4747821 0.5)
(8.2010077 -7.4747821 0.5)
(8.4482059 -7.4747821 0.5)
(8.6954041 -7.4747821 0.5)
(-0.8356418 -7.4241564 0.5)
(-0.59406838 -7.4241564 0.5)
(-0.35249497 -7.4241564 0.5)
(-0.11092155 -7.4241564 0.5)
(0.13065186 -7.4241564 0.5)
(0.37222528 -7.4241564 0.5)
(0.61379869 -7.4241564 0.5)
(0.85537211 -7.4241564 0.5)
(1.0969455 -7.4241564 0.5)
(1.3385189 -7.4241564 0.5)
(1.5800924 -7.4241564 0.5)
(1.8216658 -7.4241564 0.5)
(2.0632392 -7.4241564 0.5)
(2.3048126 -7.4241564 0.5)
(2.546386 -7.4241564 0.5)
(2.7879594 -7.4241564 0.5)
(3.0295328 -7.4241564 0.5)
(3.2711063 -7.4241564 0.5)
(3.5126797 -7.4241564 0.5)
(3.7542531 -7.4241564 0.5)
(3.9958265 -7.4241564 0.5)
(4.2373999 -7.4241564 0.5)
(4.4789733 -7.4241564 0.5)
(4.7205468 -7.4241564 0.5)
(4.9621202 -7.4241564 0.5)
(5.2036936 -7.4241564 0.5)
(5.445267 -7.4241564 0.5)
(5.6868404 -7.4241564 0.5)
(5.9284138 -7.4241564 0.5)
(6.1699872 -7.4241564 0.5)
(6.4115607 -7.4241564 0.5)
(6.6531341 -7.4241564 0.5)
(6.8947075 -7.4241564 0.5)
(7.1362809 -7.4241564 0.5)
(7.3778543 -7.4241564 0.5)
(7.6194277 -7.4241564 0.5)
(7.8610012 -7.4241564 0.5)
(8.1025746 -7.4241564 0.5)
(8.344148 -7.4241564 0.5)
(8.5857214 -7.4241564 0.5)
(-0.72595937 -7.3735308 0.5)
(-0.4900107 -7.3735308 0.5)
(-0.25406202 -7.3735308 0.5)
(-0.018113348 -7.3735308 0.5)
(0.21783533 -7.3735308 0.5)
(0.45378401 -7.3735308 0.5)
(0.68973268 -7.3735308 0.5)
(0.92568136 -7.3735308 0.5)
(1.16163 -7.3735308 0.5)
(1.3975787 -7.3735308 0.5)
(1.6335274 -7.3735308 0.5)
(1.8694761 -7.3735308 0.5)
(2.1054247 -7.3735308 0.5)
(2.3413734 -7.3735308 0.5)
(2.5773221 -7.3735308 0.5)
(2.8132708 -7.3735308 0.5)
(3.0492194 -7.3735308 0.5)
(3.2851681 -7.3735308 0.5)
(3.5211168 -7.3735308 0.5)
(3.7570655 -7.3735308 0.5)
(3.9930141 -7.3735308 0.5)
(4.2289628 -7.3735308 0.5)
(4.4649115 -7.3735308 0.5)
(4.7008602 -7.3735308 0.5)
(4.9368088 -7.3735308 0.5)
(5.1727575 -7.3735308 0.5)
(5.4087062 -7.3735308 0.5)
(5.6446549 -7.3735308 0.5)
(5.8806035 -7.3735308 0.5)
(6.1165522 -7.3735308 0.5)
(6.3525009 -7.3735308 0.5)
(6.5884496 -7.3735308 0.5)
(6.8243982 -7.3735308 0.5)
(7.0603469 -7.3735308 0.5)
(7.2962956 -7.3735308 0.5)
(7.5322443 -7.3735308 0.5)
(7.7681929 -7.3735308 0.5)
(8.0041416 -7.3735308 0.5)
(8.2400903 -7.3735308 0.5)
(8.476039 -7.3735308 0.5)
(-0.61627719 -7.3229054 0.5)
(-0.38595325 -7.3229054 0.5)
(-0.1556293 -7.3229054 0.5)
(0.074694648 -7.3229054 0.5)
(0.3050186 -7.3229054 0.5)
(0.53534255 -7.3229054 0.5)
(0.7656665 -7.3229054 0.5)
(0.99599044 -7.3229054 0.5)
(1.2263144 -7.3229054 0.5)
(1.4566383 -7.3229054 0.5)
(1.6869623 -7.3229054 0.5)
(1.9172862 -7.3229054 0.5)
(2.1476102 -7.3229054 0.5)
(2.3779341 -7.3229054 0.5)
(2.6082581 -7.3229054 0.5)
(2.838582 -7.3229054 0.5)
(3.068906 -7.3229054 0.5)
(3.2992299 -7.3229054 0.5)
(3.5295539 -7.3229054 0.5)
(3.7598778 -7.3229054 0.5)
(3.9902018 -7.3229054 0.5)
(4.2205257 -7.3229054 0.5)
(4.4508497 -7.3229054 0.5)
(4.6811736 -7.3229054 0.5)
(4.9114976 -7.3229054 0.5)
(5.1418215 -7.3229054 0.5)
(5.3721455 -7.3229054 0.5)
(5.6024694 -7.3229054 0.5)
(5.8327934 -7.3229054 0.5)
(6.0631173 -7.3229054 0.5)
(6.2934413 -7.3229054 0.5)
(6.5237652 -7.3229054 0.5)
(6.7540892 -7.3229054 0.5)
(6.9844131 -7.3229054 0.5)
(7.2147371 -7.3229054 0.5)
(7.445061 -7.3229054 0.5)
(7.6753849 -7.3229054 0.5)
(7.9057089 -7.3229054 0.5)
(8.1360328 -7.3229054 0.5)
(8.3663568 -7.3229054 0.5)
(-0.50659528 -7.2722801 0.5)
(-0.28189605 -7.2722801 0.5)
(-0.057196814 -7.2722801 0.5)
(0.16750242 -7.2722801 0.5)
(0.39220166 -7.2722801 0.5)
(0.61690089 -7.2722801 0.5)
(0.84160013 -7.2722801 0.5)
(1.0662994 -7.2722801 0.5)
(1.2909986 -7.2722801 0.5)
(1.5156978 -7.2722801 0.5)
(1.7403971 -7.2722801 0.5)
(1.9650963 -7.2722801 0.5)
(2.1897955 -7.2722801 0.5)
(2.4144948 -7.2722801 0.5)
(2.639194 -7.2722801 0.5)
(2.8638932 -7.2722801 0.5)
(3.0885925 -7.2722801 0.5)
(3.3132917 -7.2722801 0.5)
(3.5379909 -7.2722801 0.5)
(3.7626902 -7.2722801 0.5)
(3.9873894 -7.2722801 0.5)
(4.2120887 -7.2722801 0.5)
(4.4367879 -7.2722801 0.5)
(4.6614871 -7.2722801 0.5)
(4.8861864 -7.2722801 0.5)
(5.1108856 -7.2722801 0.5)
(5.3355848 -7.2722801 0.5)
(5.5602841 -7.2722801 0.5)
(5.7849833 -7.2722801 0.5)
(6.0096825 -7.2722801 0.5)
(6.2343818 -7.2722801 0.5)
(6.459081 -7.2722801 0.5)
(6.6837802 -7.2722801 0.5)
(6.9084795 -7.2722801 0.5)
(7.1331787 -7.2722801 0.5)
(7.3578779 -7.2722801 0.5)
(7.5825772 -7.2722801 0.5)
(7.8072764 -7.2722801 0.5)
(8.0319756 -7.2722801 0.5)
(8.2566749 -7.2722801 0.5)
(-0.39691366 -7.221655 0.5)
(-0.17783912 -7.221655 0.5)
(0.041235412 -7.221655 0.5)
(0.26030995 -7.221655 0.5)
(0.47938449 -7.221655 0.5)
(0.69845902 -7.221655 0.5)
(0.91753356 -7.221655 0.5)
(1.1366081 -7.221655 0.5)
(1.3556826 -7.221655 0.5)
(1.5747572 -7.221655 0.5)
(1.7938317 -7.221655 0.5)
(2.0129062 -7.221655 0.5)
(2.2319808 -7.221655 0.5)
(2.4510553 -7.221655 0.5)
(2.6701298 -7.221655 0.5)
(2.8892044 -7.221655 0.5)
(3.1082789 -7.221655 0.5)
(3.3273535 -7.221655 0.5)
(3.546428 -7.221655 0.5)
(3.7655025 -7.221655 0.5)
(3.9845771 -7.221655 0.5)
(4.2036516 -7.221655 0.5)
(4.4227261 -7.221655 0.5)
(4.6418007 -7.221655 0.5)
(4.8608752 -7.221655 0.5)
(5.0799498 -7.221655 0.5)
(5.2990243 -7.221655 0.5)
(5.5180988 -7.221655 0.5)
(5.7371734 -7.221655 0.5)
(5.9562479 -7.221655 0.5)
(6.1753224 -7.221655 0.5)
(6.394397 -7.221655 0.5)
(6.6134715 -7.221655 0.5)
(6.832546 -7.221655 0.5)
(7.0516206 -7.221655 0.5)
(7.2706951 -7.221655 0.5)
(7.4897697 -7.221655 0.5)
(7.7088442 -7.221655 0.5)
(7.9279187 -7.221655 0.5)
(8.1469933 -7.221655 0.5)
(-0.28723234 -7.1710299 0.5)
(-0.073782494 -7.1710299 0.5)
(0.13966736 -7.1710299 0.5)
(0.35311722 -7.1710299 0.5)
(0.56656707 -7.1710299 0.5)
(0.78001692 -7.1710299 0.5)
(0.99346678 -7.1710299 0.5)
(1.2069166 -7.1710299 0.5)
(1.4203665 -7.1710299 0.5)
(1.6338163 -7.1710299 0.5)
(1.8472662 -7.1710299 0.5)
(2.060716 -7.1710299 0.5)
(2.2741659 -7.1710299 0.5)
(2.4876158 -7.1710299 0.5)
(2.7010656 -7.1710299 0.5)
(2.9145155 -7.1710299 0.5)
(3.1279653 -7.1710299 0.5)
(3.3414152 -7.1710299 0.5)
(3.554865 -7.1710299 0.5)
(3.7683149 -7.1710299 0.5)
(3.9817647 -7.1710299 0.5)
(4.1952146 -7.1710299 0.5)
(4.4086644 -7.1710299 0.5)
(4.6221143 -7.1710299 0.5)
(4.8355641 -7.1710299 0.5)
(5.049014 -7.1710299 0.5)
(5.2624638 -7.1710299 0.5)
(5.4759137 -7.1710299 0.5)
(5.6893636 -7.1710299 0.5)
(5.9028134 -7.1710299 0.5)
(6.1162633 -7.1710299 0.5)
(6.3297131 -7.1710299 0.5)
(6.543163 -7.1710299 0.5)
(6.7566128 -7.1710299 0.5)
(6.9700627 -7.1710299 0.5)
(7.1835125 -7.1710299 0.5)
(7.3969624 -7.1710299 0.5)
(7.6104122 -7.1710299 0.5)
(7.8238621 -7.1710299 0.5)
(8.0373119 -7.1710299 0.5)
(-0.17755137 -7.120405 0.5)
(0.03027382 -7.120405 0.5)
(0.23809901 -7.120405 0.5)
(0.4459242 -7.120405 0.5)
(0.65374939 -7.120405 0.5)
(0.86157457 -7.120405 0.5)
(1.0693998 -7.120405 0.5)
(1.277225 -7.120405 0.5)
(1.4850501 -7.120405 0.5)
(1.6928753 -7.120405 0.5)
(1.9007005 -7.120405 0.5)
(2.1085257 -7.120405 0.5)
(2.3163509 -7.120405 0.5)
(2.5241761 -7.120405 0.5)
(2.7320013 -7.120405 0.5)
(2.9398265 -7.120405 0.5)
(3.1476516 -7.120405 0.5)
(3.3554768 -7.120405 0.5)
(3.563302 -7.120405 0.5)
(3.7711272 -7.120405 0.5)
(3.9789524 -7.120405 0.5)
(4.1867776 -7.120405 0.5)
(4.3946028 -7.120405 0.5)
(4.602428 -7.120405 0.5)
(4.8102531 -7.120405 0.5)
(5.0180783 -7.120405 0.5)
(5.2259035 -7.120405 0.5)
(5.4337287 -7.120405 0.5)
(5.6415539 -7.120405 0.5)
(5.8493791 -7.120405 0.5)
(6.0572043 -7.120405 0.5)
(6.2650295 -7.120405 0.5)
(6.4728546 -7.120405 0.5)
(6.6806798 -7.120405 0.5)
(6.888505 -7.120405 0.5)
(7.0963302 -7.120405 0.5)
(7.3041554 -7.120405 0.5)
(7.5119806 -7.120405 0.5)
(7.7198058 -7.120405 0.5)
(7.927631 -7.120405 0.5)
(-0.067870751 -7.0697803 0.5)
(0.13432979 -7.0697803 0.5)
(0.33653033 -7.0697803 0.5)
(0.53873087 -7.0697803 0.5)
(0.74093142 -7.0697803 0.5)
(0.94313196 -7.0697803 0.5)
(1.1453325 -7.0697803 0.5)
(1.347533 -7.0697803 0.5)
(1.5497336 -7.0697803 0.5)
(1.7519341 -7.0697803 0.5)
(1.9541347 -7.0697803 0.5)
(2.1563352 -7.0697803 0.5)
(2.3585357 -7.0697803 0.5)
(2.5607363 -7.0697803 0.5)
(2.7629368 -7.0697803 0.5)
(2.9651374 -7.0697803 0.5)
(3.1673379 -7.0697803 0.5)
(3.3695384 -7.0697803 0.5)
(3.571739 -7.0697803 0.5)
(3.7739395 -7.0697803 0.5)
(3.9761401 -7.0697803 0.5)
(4.1783406 -7.0697803 0.5)
(4.3805412 -7.0697803 0.5)
(4.5827417 -7.0697803 0.5)
(4.7849422 -7.0697803 0.5)
(4.9871428 -7.0697803 0.5)
(5.1893433 -7.0697803 0.5)
(5.3915439 -7.0697803 0.5)
(5.5937444 -7.0697803 0.5)
(5.7959449 -7.0697803 0.5)
(5.9981455 -7.0697803 0.5)
(6.200346 -7.0697803 0.5)
(6.4025466 -7.0697803 0.5)
(6.6047471 -7.0697803 0.5)
(6.8069476 -7.0697803 0.5)
(7.0091482 -7.0697803 0.5)
(7.2113487 -7.0697803 0.5)
(7.4135493 -7.0697803 0.5)
(7.6157498 -7.0697803 0.5)
(7.8179503 -7.0697803 0.5)
(0.041809472 -7.0191558 0.5)
(0.23838539 -7.0191558 0.5)
(0.4349613 -7.0191558 0.5)
(0.63153722 -7.0191558 0.5)
(0.82811313 -7.0191558 0.5)
(1.024689 -7.0191558 0.5)
(1.221265 -7.0191558 0.5)
(1.4178409 -7.0191558 0.5)
(1.6144168 -7.0191558 0.5)
(1.8109927 -7.0191558 0.5)
(2.0075686 -7.0191558 0.5)
(2.2041445 -7.0191558 0.5)
(2.4007204 -7.0191558 0.5)
(2.5972964 -7.0191558 0.5)
(2.7938723 -7.0191558 0.5)
(2.9904482 -7.0191558 0.5)
(3.1870241 -7.0191558 0.5)
(3.3836 -7.0191558 0.5)
(3.5801759 -7.0191558 0.5)
(3.7767518 -7.0191558 0.5)
(3.9733278 -7.0191558 0.5)
(4.1699037 -7.0191558 0.5)
(4.3664796 -7.0191558 0.5)
(4.5630555 -7.0191558 0.5)
(4.7596314 -7.0191558 0.5)
(4.9562073 -7.0191558 0.5)
(5.1527832 -7.0191558 0.5)
(5.3493592 -7.0191558 0.5)
(5.5459351 -7.0191558 0.5)
(5.742511 -7.0191558 0.5)
(5.9390869 -7.0191558 0.5)
(6.1356628 -7.0191558 0.5)
(6.3322387 -7.0191558 0.5)
(6.5288146 -7.0191558 0.5)
(6.7253906 -7.0191558 0.5)
(6.9219665 -7.0191558 0.5)
(7.1185424 -7.0191558 0.5)
(7.3151183 -7.0191558 0.5)
(7.5116942 -7.0191558 0.5)
(7.7082701 -7.0191558 0.5)
(0.15148927 -6.9685314 0.5)
(0.34244058 -6.9685314 0.5)
(0.53339189 -6.9685314 0.5)
(0.7243432 -6.9685314 0.5)
(0.91529451 -6.9685314 0.5)
(1.1062458 -6.9685314 0.5)
(1.2971971 -6.9685314 0.5)
(1.4881484 -6.9685314 0.5)
(1.6790997 -6.9685314 0.5)
(1.8700511 -6.9685314 0.5)
(2.0610024 -6.9685314 0.5)
(2.2519537 -6.9685314 0.5)
(2.442905 -6.9685314 0.5)
(2.6338563 -6.9685314 0.5)
(2.8248076 -6.9685314 0.5)
(3.0157589 -6.9685314 0.5)
(3.2067102 -6.9685314 0.5)
(3.3976615 -6.9685314 0.5)
(3.5886128 -6.9685314 0.5)
(3.7795641 -6.9685314 0.5)
(3.9705155 -6.9685314 0.5)
(4.1614668 -6.9685314 0.5)
(4.3524181 -6.9685314 0.5)
(4.5433694 -6.9685314 0.5)
(4.7343207 -6.9685314 0.5)
(4.925272 -6.9685314 0.5)
(5.1162233 -6.9685314 0.5)
(5.3071746 -6.9685314 0.5)
(5.4981259 -6.9685314 0.5)
(5.6890772 -6.9685314 0.5)
(5.8800285 -6.9685314 0.5)
(6.0709799 -6.9685314 0.5)
(6.2619312 -6.9685314 0.5)
(6.4528825 -6.9685314 0.5)
(6.6438338 -6.9685314 0.5)
(6.8347851 -6.9685314 0.5)
(7.0257364 -6.9685314 0.5)
(7.2166877 -6.9685314 0.5)
(7.407639 -6.9685314 0.5)
(7.5985903 -6.9685314 0.5)
(0.26116859 -6.9179073 0.5)
(0.44649532 -6.9179073 0.5)
(0.63182205 -6.9179073 0.5)
(0.81714878 -6.9179073 0.5)
(1.0024755 -6.9179073 0.5)
(1.1878022 -6.9179073 0.5)
(1.373129 -6.9179073 0.5)
(1.5584557 -6.9179073 0.5)
(1.7437824 -6.9179073 0.5)
(1.9291092 -6.9179073 0.5)
(2.1144359 -6.9179073 0.5)
(2.2997626 -6.9179073 0.5)
(2.4850893 -6.9179073 0.5)
(2.6704161 -6.9179073 0.5)
(2.8557428 -6.9179073 0.5)
(3.0410695 -6.9179073 0.5)
(3.2263963 -6.9179073 0.5)
(3.411723 -6.9179073 0.5)
(3.5970497 -6.9179073 0.5)
(3.7823764 -6.9179073 0.5)
(3.9677032 -6.9179073 0.5)
(4.1530299 -6.9179073 0.5)
(4.3383566 -6.9179073 0.5)
(4.5236833 -6.9179073 0.5)
(4.7090101 -6.9179073 0.5)
(4.8943368 -6.9179073 0.5)
(5.0796635 -6.9179073 0.5)
(5.2649903 -6.9179073 0.5)
(5.450317 -6.9179073 0.5)
(5.6356437 -6.9179073 0.5)
(5.8209704 -6.9179073 0.5)
(6.0062972 -6.9179073 0.5)
(6.1916239 -6.9179073 0.5)
(6.3769506 -6.9179073 0.5)
(6.5622774 -6.9179073 0.5)
(6.7476041 -6.9179073 0.5)
(6.9329308 -6.9179073 0.5)
(7.1182575 -6.9179073 0.5)
(7.3035843 -6.9179073 0.5)
(7.488911 -6.9179073 0.5)
(0.37084741 -6.8672835 0.5)
(0.55054958 -6.8672835 0.5)
(0.73025176 -6.8672835 0.5)
(0.90995393 -6.8672835 0.5)
(1.0896561 -6.8672835 0.5)
(1.2693583 -6.8672835 0.5)
(1.4490605 -6.8672835 0.5)
(1.6287626 -6.8672835 0.5)
(1.8084648 -6.8672835 0.5)
(1.988167 -6.8672835 0.5)
(2.1678691 -6.8672835 0.5)
(2.3475713 -6.8672835 0.5)
(2.5272735 -6.8672835 0.5)
(2.7069757 -6.8672835 0.5)
(2.8866778 -6.8672835 0.5)
(3.06638 -6.8672835 0.5)
(3.2460822 -6.8672835 0.5)
(3.4257844 -6.8672835 0.5)
(3.6054865 -6.8672835 0.5)
(3.7851887 -6.8672835 0.5)
(3.9648909 -6.8672835 0.5)
(4.1445931 -6.8672835 0.5)
(4.3242952 -6.8672835 0.5)
(4.5039974 -6.8672835 0.5)
(4.6836996 -6.8672835 0.5)
(4.8634018 -6.8672835 0.5)
(5.0431039 -6.8672835 0.5)
(5.2228061 -6.8672835 0.5)
(5.4025083 -6.8672835 0.5)
(5.5822105 -6.8672835 0.5)
(5.7619126 -6.8672835 0.5)
(5.9416148 -6.8672835 0.5)
(6.121317 -6.8672835 0.5)
(6.3010191 -6.8672835 0.5)
(6.4807213 -6.8672835 0.5)
(6.6604235 -6.8672835 0.5)
(6.8401257 -6.8672835 0.5)
(7.0198278 -6.8672835 0.5)
(7.19953 -6.8672835 0.5)
(7.3792322 -6.8672835 0.5)
(0.48052566 -6.8166599 0.5)
(0.65460331 -6.8166599 0.5)
(0.82868096 -6.8166599 0.5)
(1.0027586 -6.8166599 0.5)
(1.1768363 -6.8166599 0.5)
(1.3509139 -6.8166599 0.5)
(1.5249916 -6.8166599 0.5)
(1.6990692 -6.8166599 0.5)
(1.8731468 -6.8166599 0.5)
(2.0472245 -6.8166599 0.5)
(2.2213021 -6.8166599 0.5)
(2.3953798 -6.8166599 0.5)
(2.5694574 -6.8166599 0.5)
(2.7435351 -6.8166599 0.5)
(2.9176127 -6.8166599 0.5)
(3.0916904 -6.8166599 0.5)
(3.265768 -6.8166599 0.5)
(3.4398457 -6.8166599 0.5)
(3.6139233 -6.8166599 0.5)
(3.788001 -6.8166599 0.5)
(3.9620786 -6.8166599 0.5)
(4.1361563 -6.8166599 0.5)
(4.3102339 -6.8166599 0.5)
(4.4843116 -6.8166599 0.5)
(4.6583892 -6.8166599 0.5)
(4.8324669 -6.8166599 0.5)
(5.0065445 -6.8166599 0.5)
(5.1806222 -6.8166599 0.5)
(5.3546998 -6.8166599 0.5)
(5.5287775 -6.8166599 0.5)
(5.7028551 -6.8166599 0.5)
(5.8769328 -6.8166599 0.5)
(6.0510104 -6.8166599 0.5)
(6.225088 -6.8166599 0.5)
(6.3991657 -6.8166599 0.5)
(6.5732433 -6.8166599 0.5)
(6.747321 -6.8166599 0.5)
(6.9213986 -6.8166599 0.5)
(7.0954763 -6.8166599 0.5)
(7.2695539 -6.8166599 0.5)
(0.5902033 -6.7660365 0.5)
(0.75865645 -6.7660365 0.5)
(0.92710961 -6.7660365 0.5)
(1.0955628 -6.7660365 0.5)
(1.2640159 -6.7660365 0.5)
(1.4324691 -6.7660365 0.5)
(1.6009222 -6.7660365 0.5)
(1.7693754 -6.7660365 0.5)
(1.9378285 -6.7660365 0.5)
(2.1062817 -6.7660365 0.5)
(2.2747348 -6.7660365 0.5)
(2.443188 -6.7660365 0.5)
(2.6116411 -6.7660365 0.5)
(2.7800943 -6.7660365 0.5)
(2.9485475 -6.7660365 0.5)
(3.1170006 -6.7660365 0.5)
(3.2854538 -6.7660365 0.5)
(3.4539069 -6.7660365 0.5)
(3.6223601 -6.7660365 0.5)
(3.7908132 -6.7660365 0.5)
(3.9592664 -6.7660365 0.5)
(4.1277195 -6.7660365 0.5)
(4.2961727 -6.7660365 0.5)
(4.4646258 -6.7660365 0.5)
(4.633079 -6.7660365 0.5)
(4.8015321 -6.7660365 0.5)
(4.9699853 -6.7660365 0.5)
(5.1384385 -6.7660365 0.5)
(5.3068916 -6.7660365 0.5)
(5.4753448 -6.7660365 0.5)
(5.6437979 -6.7660365 0.5)
(5.8122511 -6.7660365 0.5)
(5.9807042 -6.7660365 0.5)
(6.1491574 -6.7660365 0.5)
(6.3176105 -6.7660365 0.5)
(6.4860637 -6.7660365 0.5)
(6.6545168 -6.7660365 0.5)
(6.82297 -6.7660365 0.5)
(6.9914231 -6.7660365 0.5)
(7.1598763 -6.7660365 0.5)
(0.69988025 -6.7154135 0.5)
(0.86270895 -6.7154135 0.5)
(1.0255376 -6.7154135 0.5)
(1.1883663 -6.7154135 0.5)
(1.351195 -6.7154135 0.5)
(1.5140237 -6.7154135 0.5)
(1.6768524 -6.7154135 0.5)
(1.8396811 -6.7154135 0.5)
(2.0025098 -6.7154135 0.5)
(2.1653385 -6.7154135 0.5)
(2.3281672 -6.7154135 0.5)
(2.4909959 -6.7154135 0.5)
(2.6538246 -6.7154135 0.5)
(2.8166533 -6.7154135 0.5)
(2.979482 -6.7154135 0.5)
(3.1423107 -6.7154135 0.5)
(3.3051394 -6.7154135 0.5)
(3.4679681 -6.7154135 0.5)
(3.6307968 -6.7154135 0.5)
(3.7936255 -6.7154135 0.5)
(3.9564541 -6.7154135 0.5)
(4.1192828 -6.7154135 0.5)
(4.2821115 -6.7154135 0.5)
(4.4449402 -6.7154135 0.5)
(4.6077689 -6.7154135 0.5)
(4.7705976 -6.7154135 0.5)
(4.9334263 -6.7154135 0.5)
(5.096255 -6.7154135 0.5)
(5.2590837 -6.7154135 0.5)
(5.4219124 -6.7154135 0.5)
(5.5847411 -6.7154135 0.5)
(5.7475698 -6.7154135 0.5)
(5.9103985 -6.7154135 0.5)
(6.0732272 -6.7154135 0.5)
(6.2360559 -6.7154135 0.5)
(6.3988846 -6.7154135 0.5)
(6.5617133 -6.7154135 0.5)
(6.724542 -6.7154135 0.5)
(6.8873707 -6.7154135 0.5)
(7.0501993 -6.7154135 0.5)
(0.80955645 -6.6647908 0.5)
(0.96676072 -6.6647908 0.5)
(1.123965 -6.6647908 0.5)
(1.2811693 -6.6647908 0.5)
(1.4383735 -6.6647908 0.5)
(1.5955778 -6.6647908 0.5)
(1.7527821 -6.6647908 0.5)
(1.9099864 -6.6647908 0.5)
(2.0671906 -6.6647908 0.5)
(2.2243949 -6.6647908 0.5)
(2.3815992 -6.6647908 0.5)
(2.5388035 -6.6647908 0.5)
(2.6960077 -6.6647908 0.5)
(2.853212 -6.6647908 0.5)
(3.0104163 -6.6647908 0.5)
(3.1676206 -6.6647908 0.5)
(3.3248248 -6.6647908 0.5)
(3.4820291 -6.6647908 0.5)
(3.6392334 -6.6647908 0.5)
(3.7964377 -6.6647908 0.5)
(3.9536419 -6.6647908 0.5)
(4.1108462 -6.6647908 0.5)
(4.2680505 -6.6647908 0.5)
(4.4252548 -6.6647908 0.5)
(4.582459 -6.6647908 0.5)
(4.7396633 -6.6647908 0.5)
(4.8968676 -6.6647908 0.5)
(5.0540719 -6.6647908 0.5)
(5.2112761 -6.6647908 0.5)
(5.3684804 -6.6647908 0.5)
(5.5256847 -6.6647908 0.5)
(5.682889 -6.6647908 0.5)
(5.8400932 -6.6647908 0.5)
(5.9972975 -6.6647908 0.5)
(6.1545018 -6.6647908 0.5)
(6.3117061 -6.6647908 0.5)
(6.4689103 -6.6647908 0.5)
(6.6261146 -6.6647908 0.5)
(6.7833189 -6.6647908 0.5)
(6.9405231 -6.6647908 0.5)
(0.91923181 -6.6141685 0.5)
(1.0708117 -6.6141685 0.5)
(1.2223916 -6.6141685 0.5)
(1.3739715 -6.6141685 0.5)
(1.5255514 -6.6141685 0.5)
(1.6771313 -6.6141685 0.5)
(1.8287112 -6.6141685 0.5)
(1.9802911 -6.6141685 0.5)
(2.131871 -6.6141685 0.5)
(2.2834509 -6.6141685 0.5)
(2.4350308 -6.6141685 0.5)
(2.5866107 -6.6141685 0.5)
(2.7381906 -6.6141685 0.5)
(2.8897705 -6.6141685 0.5)
(3.0413504 -6.6141685 0.5)
(3.1929303 -6.6141685 0.5)
(3.3445102 -6.6141685 0.5)
(3.4960901 -6.6141685 0.5)
(3.64767 -6.6141685 0.5)
(3.7992499 -6.6141685 0.5)
(3.9508297 -6.6141685 0.5)
(4.1024096 -6.6141685 0.5)
(4.2539895 -6.6141685 0.5)
(4.4055694 -6.6141685 0.5)
(4.5571493 -6.6141685 0.5)
(4.7087292 -6.6141685 0.5)
(4.8603091 -6.6141685 0.5)
(5.011889 -6.6141685 0.5)
(5.1634689 -6.6141685 0.5)
(5.3150488 -6.6141685 0.5)
(5.4666287 -6.6141685 0.5)
(5.6182086 -6.6141685 0.5)
(5.7697885 -6.6141685 0.5)
(5.9213684 -6.6141685 0.5)
(6.0729483 -6.6141685 0.5)
(6.2245282 -6.6141685 0.5)
(6.3761081 -6.6141685 0.5)
(6.527688 -6.6141685 0.5)
(6.6792679 -6.6141685 0.5)
(6.8308478 -6.6141685 0.5)
(1.0289062 -6.5635467 0.5)
(1.1748618 -6.5635467 0.5)
(1.3208174 -6.5635467 0.5)
(1.4667729 -6.5635467 0.5)
(1.6127285 -6.5635467 0.5)
(1.7586841 -6.5635467 0.5)
(1.9046396 -6.5635467 0.5)
(2.0505952 -6.5635467 0.5)
(2.1965508 -6.5635467 0.5)
(2.3425063 -6.5635467 0.5)
(2.4884619 -6.5635467 0.5)
(2.6344175 -6.5635467 0.5)
(2.780373 -6.5635467 0.5)
(2.9263286 -6.5635467 0.5)
(3.0722842 -6.5635467 0.5)
(3.2182397 -6.5635467 0.5)
(3.3641953 -6.5635467 0.5)
(3.5101509 -6.5635467 0.5)
(3.6561064 -6.5635467 0.5)
(3.802062 -6.5635467 0.5)
(3.9480176 -6.5635467 0.5)
(4.0939732 -6.5635467 0.5)
(4.2399287 -6.5635467 0.5)
(4.3858843 -6.5635467 0.5)
(4.5318399 -6.5635467 0.5)
(4.6777954 -6.5635467 0.5)
(4.823751 -6.5635467 0.5)
(4.9697066 -6.5635467 0.5)
(5.1156621 -6.5635467 0.5)
(5.2616177 -6.5635467 0.5)
(5.4075733 -6.5635467 0.5)
(5.5535288 -6.5635467 0.5)
(5.6994844 -6.5635467 0.5)
(5.84544 -6.5635467 0.5)
(5.9913955 -6.5635467 0.5)
(6.1373511 -6.5635467 0.5)
(6.2833067 -6.5635467 0.5)
(6.4292622 -6.5635467 0.5)
(6.5752178 -6.5635467 0.5)
(6.7211734 -6.5635467 0.5)
(1.1385796 -6.5129253 0.5)
(1.2789109 -6.5129253 0.5)
(1.4192422 -6.5129253 0.5)
(1.5595735 -6.5129253 0.5)
(1.6999048 -6.5129253 0.5)
(1.8402361 -6.5129253 0.5)
(1.9805674 -6.5129253 0.5)
(2.1208987 -6.5129253 0.5)
(2.2612299 -6.5129253 0.5)
(2.4015612 -6.5129253 0.5)
(2.5418925 -6.5129253 0.5)
(2.6822238 -6.5129253 0.5)
(2.8225551 -6.5129253 0.5)
(2.9628864 -6.5129253 0.5)
(3.1032177 -6.5129253 0.5)
(3.243549 -6.5129253 0.5)
(3.3838803 -6.5129253 0.5)
(3.5242116 -6.5129253 0.5)
(3.6645429 -6.5129253 0.5)
(3.8048742 -6.5129253 0.5)
(3.9452054 -6.5129253 0.5)
(4.0855367 -6.5129253 0.5)
(4.225868 -6.5129253 0.5)
(4.3661993 -6.5129253 0.5)
(4.5065306 -6.5129253 0.5)
(4.6468619 -6.5129253 0.5)
(4.7871932 -6.5129253 0.5)
(4.9275245 -6.5129253 0.5)
(5.0678558 -6.5129253 0.5)
(5.2081871 -6.5129253 0.5)
(5.3485184 -6.5129253 0.5)
(5.4888497 -6.5129253 0.5)
(5.6291809 -6.5129253 0.5)
(5.7695122 -6.5129253 0.5)
(5.9098435 -6.5129253 0.5)
(6.0501748 -6.5129253 0.5)
(6.1905061 -6.5129253 0.5)
(6.3308374 -6.5129253 0.5)
(6.4711687 -6.5129253 0.5)
(6.6115 -6.5129253 0.5)
(1.2482518 -6.4623044 0.5)
(1.3829589 -6.4623044 0.5)
(1.517666 -6.4623044 0.5)
(1.652373 -6.4623044 0.5)
(1.7870801 -6.4623044 0.5)
(1.9217872 -6.4623044 0.5)
(2.0564943 -6.4623044 0.5)
(2.1912013 -6.4623044 0.5)
(2.3259084 -6.4623044 0.5)
(2.4606155 -6.4623044 0.5)
(2.5953226 -6.4623044 0.5)
(2.7300296 -6.4623044 0.5)
(2.8647367 -6.4623044 0.5)
(2.9994438 -6.4623044 0.5)
(3.1341509 -6.4623044 0.5)
(3.268858 -6.4623044 0.5)
(3.403565 -6.4623044 0.5)
(3.5382721 -6.4623044 0.5)
(3.6729792 -6.4623044 0.5)
(3.8076863 -6.4623044 0.5)
(3.9423933 -6.4623044 0.5)
(4.0771004 -6.4623044 0.5)
(4.2118075 -6.4623044 0.5)
(4.3465146 -6.4623044 0.5)
(4.4812216 -6.4623044 0.5)
(4.6159287 -6.4623044 0.5)
(4.7506358 -6.4623044 0.5)
(4.8853429 -6.4623044 0.5)
(5.02005 -6.4623044 0.5)
(5.154757 -6.4623044 0.5)
(5.2894641 -6.4623044 0.5)
(5.4241712 -6.4623044 0.5)
(5.5588783 -6.4623044 0.5)
(5.6935853 -6.4623044 0.5)
(5.8282924 -6.4623044 0.5)
(5.9629995 -6.4623044 0.5)
(6.0977066 -6.4623044 0.5)
(6.2324136 -6.4623044 0.5)
(6.3671207 -6.4623044 0.5)
(6.5018278 -6.4623044 0.5)
(1.3579227 -6.4116843 0.5)
(1.4870056 -6.4116843 0.5)
(1.6160885 -6.4116843 0.5)
(1.7451715 -6.4116843 0.5)
(1.8742544 -6.4116843 0.5)
(2.0033373 -6.4116843 0.5)
(2.1324202 -6.4116843 0.5)
(2.2615032 -6.4116843 0.5)
(2.3905861 -6.4116843 0.5)
(2.519669 -6.4116843 0.5)
(2.648752 -6.4116843 0.5)
(2.7778349 -6.4116843 0.5)
(2.9069178 -6.4116843 0.5)
(3.0360008 -6.4116843 0.5)
(3.1650837 -6.4116843 0.5)
(3.2941666 -6.4116843 0.5)
(3.4232495 -6.4116843 0.5)
(3.5523325 -6.4116843 0.5)
(3.6814154 -6.4116843 0.5)
(3.8104983 -6.4116843 0.5)
(3.9395813 -6.4116843 0.5)
(4.0686642 -6.4116843 0.5)
(4.1977471 -6.4116843 0.5)
(4.3268301 -6.4116843 0.5)
(4.455913 -6.4116843 0.5)
(4.5849959 -6.4116843 0.5)
(4.7140788 -6.4116843 0.5)
(4.8431618 -6.4116843 0.5)
(4.9722447 -6.4116843 0.5)
(5.1013276 -6.4116843 0.5)
(5.2304106 -6.4116843 0.5)
(5.3594935 -6.4116843 0.5)
(5.4885764 -6.4116843 0.5)
(5.6176594 -6.4116843 0.5)
(5.7467423 -6.4116843 0.5)
(5.8758252 -6.4116843 0.5)
(6.0049081 -6.4116843 0.5)
(6.1339911 -6.4116843 0.5)
(6.263074 -6.4116843 0.5)
(6.3921569 -6.4116843 0.5)
(1.467592 -6.3610648 0.5)
(1.5910509 -6.3610648 0.5)
(1.7145097 -6.3610648 0.5)
(1.8379686 -6.3610648 0.5)
(1.9614275 -6.3610648 0.5)
(2.0848863 -6.3610648 0.5)
(2.2083452 -6.3610648 0.5)
(2.331804 -6.3610648 0.5)
(2.4552629 -6.3610648 0.5)
(2.5787218 -6.3610648 0.5)
(2.7021806 -6.3610648 0.5)
(2.8256395 -6.3610648 0.5)
(2.9490983 -6.3610648 0.5)
(3.0725572 -6.3610648 0.5)
(3.1960161 -6.3610648 0.5)
(3.3194749 -6.3610648 0.5)
(3.4429338 -6.3610648 0.5)
(3.5663926 -6.3610648 0.5)
(3.6898515 -6.3610648 0.5)
(3.8133104 -6.3610648 0.5)
(3.9367692 -6.3610648 0.5)
(4.0602281 -6.3610648 0.5)
(4.183687 -6.3610648 0.5)
(4.3071458 -6.3610648 0.5)
(4.4306047 -6.3610648 0.5)
(4.5540635 -6.3610648 0.5)
(4.6775224 -6.3610648 0.5)
(4.8009813 -6.3610648 0.5)
(4.9244401 -6.3610648 0.5)
(5.047899 -6.3610648 0.5)
(5.1713578 -6.3610648 0.5)
(5.2948167 -6.3610648 0.5)
(5.4182756 -6.3610648 0.5)
(5.5417344 -6.3610648 0.5)
(5.6651933 -6.3610648 0.5)
(5.7886521 -6.3610648 0.5)
(5.912111 -6.3610648 0.5)
(6.0355699 -6.3610648 0.5)
(6.1590287 -6.3610648 0.5)
(6.2824876 -6.3610648 0.5)
(1.5772596 -6.3104461 0.5)
(1.6950945 -6.3104461 0.5)
(1.8129294 -6.3104461 0.5)
(1.9307643 -6.3104461 0.5)
(2.0485992 -6.3104461 0.5)
(2.166434 -6.3104461 0.5)
(2.2842689 -6.3104461 0.5)
(2.4021038 -6.3104461 0.5)
(2.5199387 -6.3104461 0.5)
(2.6377736 -6.3104461 0.5)
(2.7556084 -6.3104461 0.5)
(2.8734433 -6.3104461 0.5)
(2.9912782 -6.3104461 0.5)
(3.1091131 -6.3104461 0.5)
(3.226948 -6.3104461 0.5)
(3.3447828 -6.3104461 0.5)
(3.4626177 -6.3104461 0.5)
(3.5804526 -6.3104461 0.5)
(3.6982875 -6.3104461 0.5)
(3.8161224 -6.3104461 0.5)
(3.9339572 -6.3104461 0.5)
(4.0517921 -6.3104461 0.5)
(4.169627 -6.3104461 0.5)
(4.2874619 -6.3104461 0.5)
(4.4052968 -6.3104461 0.5)
(4.5231316 -6.3104461 0.5)
(4.6409665 -6.3104461 0.5)
(4.7588014 -6.3104461 0.5)
(4.8766363 -6.3104461 0.5)
(4.9944712 -6.3104461 0.5)
(5.112306 -6.3104461 0.5)
(5.2301409 -6.3104461 0.5)
(5.3479758 -6.3104461 0.5)
(5.4658107 -6.3104461 0.5)
(5.5836456 -6.3104461 0.5)
(5.7014804 -6.3104461 0.5)
(5.8193153 -6.3104461 0.5)
(5.9371502 -6.3104461 0.5)
(6.0549851 -6.3104461 0.5)
(6.17282 -6.3104461 0.5)
(1.6869252 -6.2598283 0.5)
(1.7991362 -6.2598283 0.5)
(1.9113473 -6.2598283 0.5)
(2.0235583 -6.2598283 0.5)
(2.1357693 -6.2598283 0.5)
(2.2479803 -6.2598283 0.5)
(2.3601913 -6.2598283 0.5)
(2.4724023 -6.2598283 0.5)
(2.5846133 -6.2598283 0.5)
(2.6968243 -6.2598283 0.5)
(2.8090353 -6.2598283 0.5)
(2.9212463 -6.2598283 0.5)
(3.0334573 -6.2598283 0.5)
(3.1456683 -6.2598283 0.5)
(3.2578793 -6.2598283 0.5)
(3.3700903 -6.2598283 0.5)
(3.4823013 -6.2598283 0.5)
(3.5945123 -6.2598283 0.5)
(3.7067233 -6.2598283 0.5)
(3.8189343 -6.2598283 0.5)
(3.9311453 -6.2598283 0.5)
(4.0433563 -6.2598283 0.5)
(4.1555673 -6.2598283 0.5)
(4.2677783 -6.2598283 0.5)
(4.3799893 -6.2598283 0.5)
(4.4922003 -6.2598283 0.5)
(4.6044113 -6.2598283 0.5)
(4.7166223 -6.2598283 0.5)
(4.8288333 -6.2598283 0.5)
(4.9410443 -6.2598283 0.5)
(5.0532553 -6.2598283 0.5)
(5.1654663 -6.2598283 0.5)
(5.2776773 -6.2598283 0.5)
(5.3898883 -6.2598283 0.5)
(5.5020993 -6.2598283 0.5)
(5.6143103 -6.2598283 0.5)
(5.7265213 -6.2598283 0.5)
(5.8387323 -6.2598283 0.5)
(5.9509434 -6.2598283 0.5)
(6.0631544 -6.2598283 0.5)
(1.7965886 -6.2092116 0.5)
(1.9031758 -6.2092116 0.5)
(2.009763 -6.2092116 0.5)
(2.1163503 -6.2092116 0.5)
(2.2229375 -6.2092116 0.5)
(2.3295248 -6.2092116 0.5)
(2.436112 -6.2092116 0.5)
(2.5426993 -6.2092116 0.5)
(2.6492865 -6.2092116 0.5)
(2.7558737 -6.2092116 0.5)
(2.862461 -6.2092116 0.5)
(2.9690482 -6.2092116 0.5)
(3.0756355 -6.2092116 0.5)
(3.1822227 -6.2092116 0.5)
(3.28881 -6.2092116 0.5)
(3.3953972 -6.2092116 0.5)
(3.5019844 -6.2092116 0.5)
(3.6085717 -6.2092116 0.5)
(3.7151589 -6.2092116 0.5)
(3.8217462 -6.2092116 0.5)
(3.9283334 -6.2092116 0.5)
(4.0349207 -6.2092116 0.5)
(4.1415079 -6.2092116 0.5)
(4.2480952 -6.2092116 0.5)
(4.3546824 -6.2092116 0.5)
(4.4612696 -6.2092116 0.5)
(4.5678569 -6.2092116 0.5)
(4.6744441 -6.2092116 0.5)
(4.7810314 -6.2092116 0.5)
(4.8876186 -6.2092116 0.5)
(4.9942059 -6.2092116 0.5)
(5.1007931 -6.2092116 0.5)
(5.2073803 -6.2092116 0.5)
(5.3139676 -6.2092116 0.5)
(5.4205548 -6.2092116 0.5)
(5.5271421 -6.2092116 0.5)
(5.6337293 -6.2092116 0.5)
(5.7403166 -6.2092116 0.5)
(5.8469038 -6.2092116 0.5)
(5.953491 -6.2092116 0.5)
(1.9062492 -6.1585961 0.5)
(2.0072128 -6.1585961 0.5)
(2.1081764 -6.1585961 0.5)
(2.20914 -6.1585961 0.5)
(2.3101037 -6.1585961 0.5)
(2.4110673 -6.1585961 0.5)
(2.5120309 -6.1585961 0.5)
(2.6129945 -6.1585961 0.5)
(2.7139581 -6.1585961 0.5)
(2.8149218 -6.1585961 0.5)
(2.9158854 -6.1585961 0.5)
(3.016849 -6.1585961 0.5)
(3.1178126 -6.1585961 0.5)
(3.2187763 -6.1585961 0.5)
(3.3197399 -6.1585961 0.5)
(3.4207035 -6.1585961 0.5)
(3.5216671 -6.1585961 0.5)
(3.6226307 -6.1585961 0.5)
(3.7235944 -6.1585961 0.5)
(3.824558 -6.1585961 0.5)
(3.9255216 -6.1585961 0.5)
(4.0264852 -6.1585961 0.5)
(4.1274489 -6.1585961 0.5)
(4.2284125 -6.1585961 0.5)
(4.3293761 -6.1585961 0.5)
(4.4303397 -6.1585961 0.5)
(4.5313033 -6.1585961 0.5)
(4.632267 -6.1585961 0.5)
(4.7332306 -6.1585961 0.5)
(4.8341942 -6.1585961 0.5)
(4.9351578 -6.1585961 0.5)
(5.0361215 -6.1585961 0.5)
(5.1370851 -6.1585961 0.5)
(5.2380487 -6.1585961 0.5)
(5.3390123 -6.1585961 0.5)
(5.4399759 -6.1585961 0.5)
(5.5409396 -6.1585961 0.5)
(5.6419032 -6.1585961 0.5)
(5.7428668 -6.1585961 0.5)
(5.8438304 -6.1585961 0.5)
(2.0159066 -6.107982 0.5)
(2.1112468 -6.107982 0.5)
(2.2065869 -6.107982 0.5)
(2.3019271 -6.107982 0.5)
(2.3972673 -6.107982 0.5)
(2.4926074 -6.107982 0.5)
(2.5879476 -6.107982 0.5)
(2.6832878 -6.107982 0.5)
(2.7786279 -6.107982 0.5)