/*--------------------------------*- C++ -*----------------------------------*\
  =========                 |
  \\      /  F ield         | OpenFOAM: The Open Source CFD Toolbox
   \\    /   O peration     | Website:  https://openfoam.org
    \\  /    A nd           | Version:  11
     \\/     M anipulation  |
\*---------------------------------------------------------------------------*/
FoamFile
{
    format      ascii;
    class       volScalarField;
    location    "6";
    object      mag(U);
}
// * * * * * * * * * * * * * * * * * * * * * * * * * * * * * * * * * * * * * //

dimensions      [0 1 -1 0 0 0 0];

internalField   nonuniform List<scalar> 
9600
(
0.99337
0.992269
0.991467
0.991279
0.991208
0.991193
0.991413
0.991978
0.992896
0.994116
0.995645
0.99747
0.999382
1.00138
1.00371
1.00746
1.01103
1.01055
1.00297
0.98405
0.970739
0.965033
0.964907
0.971087
0.986556
1.00315
1.01838
1.03136
1.04313
1.05441
1.06303
1.06732
1.06795
1.06694
1.06466
1.06148
1.05789
1.05394
1.04928
1.04143
0.993729
0.993708
0.993844
0.994213
0.994847
0.995303
0.996091
0.997183
0.998422
0.999839
1.00247
1.00515
1.00712
1.00949
1.01238
1.01521
1.01818
1.02158
1.0255
1.02884
1.02936
1.02747
1.02656
1.02826
1.03165
1.03806
1.04461
1.0516
1.05862
1.06441
1.06907
1.07145
1.07241
1.07101
1.0691
1.06379
1.05998
1.05181
1.04702
1.0343
0.993879
0.993863
0.993987
0.994443
0.994959
0.995441
0.996309
0.997496
0.998777
1.00039
1.0028
1.00558
1.00755
1.00929
1.01177
1.01619
1.02193
1.02683
1.0288
1.02849
1.02673
1.02167
1.01871
1.02006
1.02496
1.03227
1.04083
1.05007
1.0588
1.06637
1.0731
1.07885
1.083
1.0845
1.08441
1.08303
1.08033
1.07363
1.06903
1.05854
0.993963
0.99398
0.99414
0.994637
0.995129
0.995781
0.996509
0.997653
0.999333
1.00105
1.00276
1.00527
1.00855
1.01057
1.01257
1.01575
1.02103
1.02554
1.02878
1.03051
1.03294
1.03573
1.03974
1.04429
1.04885
1.05375
1.05899
1.06295
1.06823
1.07116
1.07551
1.07727
1.07931
1.07738
1.07576
1.06982
1.06574
1.05805
1.05344
1.04271
0.993983
0.994022
0.99422
0.994779
0.995307
0.99585
0.996688
0.998035
0.999426
1.00135
1.00327
1.00552
1.00813
1.01161
1.01466
1.0171
1.01876
1.0224
1.02991
1.03608
1.0412
1.0427
1.04311
1.04224
1.04292
1.04508
1.04925
1.05447
1.06157
1.0675
1.07346
1.07756
1.08176
1.08391
1.08498
1.08408
1.08257
1.07819
1.0738
1.0637
0.993928
0.993999
0.994255
0.994899
0.99539
0.995952
0.996827
0.998274
0.999965
1.00127
1.00326
1.00612
1.00949
1.01142
1.01398
1.01622
1.02035
1.02467
1.02985
1.03367
1.03761
1.04118
1.04561
1.05059
1.05517
1.05915
1.0644
1.06829
1.07395
1.07667
1.08138
1.08342
1.08693
1.08559
1.08508
1.07882
1.07429
1.0658
1.06132
1.05072
0.993927
0.99402
0.994357
0.995034
0.995578
0.995964
0.997013
0.998522
1.00044
1.00151
1.00358
1.00645
1.01026
1.01231
1.01404
1.0168
1.02097
1.0247
1.02929
1.03337
1.03912
1.04333
1.04845
1.05052
1.05326
1.05484
1.05785
1.06052
1.06571
1.0701
1.07602
1.07943
1.08325
1.08469
1.08687
1.08629
1.08587
1.08243
1.07912
1.06964
0.993714
0.993856
0.994336
0.994958
0.995645
0.995986
0.997169
0.998774
1.00038
1.00184
1.00422
1.00666
1.00983
1.01269
1.01556
1.01772
1.0208
1.0244
1.02972
1.03461
1.03921
1.04185
1.04506
1.04841
1.05356
1.05864
1.06451
1.06896
1.07582
1.07954
1.08526
1.0877
1.09272
1.09296
1.09465
1.08971
1.08599
1.07671
1.07202
1.06019
0.993705
0.9939
0.994497
0.995104
0.995773
0.996163
0.997217
0.998986
1.00086
1.00253
1.00409
1.0071
1.01033
1.01407
1.01614
1.0184
1.02121
1.02503
1.02972
1.03362
1.0384
1.04162
1.04655
1.04879
1.05281
1.05618
1.06132
1.06485
1.07021
1.0738
1.07986
1.08368
1.08803
1.08883
1.09061
1.08989
1.09055
1.08731
1.08517
1.07645
0.993469
0.993734
0.994483
0.995067
0.995717
0.996127
0.997195
0.998933
1.00117
1.00263
1.00455
1.00722
1.01074
1.01409
1.01682
1.01929
1.02206
1.02501
1.02898
1.03345
1.03874
1.04209
1.04561
1.04684
1.04997
1.05349
1.05978
1.06489
1.07296
1.07797
1.08593
1.08988
1.09662
1.09825
1.10238
1.09987
1.09895
1.09038
1.08593
1.07284
0.993589
0.993737
0.994531
0.995171
0.995865
0.996287
0.997357
0.9992
1.00129
1.00354
1.00505
1.00746
1.01074
1.01509
1.018
1.02041
1.02235
1.02516
1.02919
1.03363
1.03876
1.04114
1.04545
1.04714
1.05042
1.05186
1.05668
1.0607
1.06826
1.07345
1.08111
1.08669
1.09333
1.09581
1.09883
1.09721
1.09786
1.09423
1.09286
1.08441
0.993344
0.993476
0.994238
0.994878
0.99572
0.99607
0.997309
0.998829
1.0015
1.00354
1.00527
1.00735
1.0112
1.01521
1.0184
1.02095
1.02333
1.02572
1.02933
1.03308
1.03826
1.04166
1.04585
1.04707
1.04887
1.04965
1.05285
1.05639
1.06404
1.07057
1.08109
1.08797
1.09744
1.10179
1.10883
1.10843
1.11103
1.10476
1.10183
1.08811
0.993447
0.993582
0.994406
0.99492
0.995836
0.996323
0.997453
0.99923
1.00158
1.00405
1.00591
1.00839
1.01159
1.01589
1.01897
1.02206
1.02471
1.0271
1.0303
1.03322
1.03839
1.04113
1.04478
1.04593
1.04844
1.0488
1.05099
1.05276
1.05884
1.06487
1.07447
1.08248
1.09334
1.09976
1.10761
1.10836
1.11039
1.10579
1.10523
1.09461
0.992972
0.993132
0.99409
0.994498
0.995555
0.995913
0.997451
0.999066
1.00133
1.00391
1.00624
1.00841
1.01173
1.01559
1.01956
1.02257
1.02579
1.02777
1.03108
1.03374
1.03772
1.04034
1.04373
1.0455
1.04732
1.04788
1.04896
1.05022
1.05422
1.05929
1.06846
1.0776
1.09108
1.09906
1.11158
1.11504
1.1221
1.11885
1.11966
1.10711
0.993177
0.993302
0.993991
0.994684
0.995573
0.996153
0.997476
0.999478
1.00195
1.00462
1.00666
1.00937
1.01246
1.01675
1.02072
1.02401
1.02716
1.0298
1.03309
1.0352
1.03838
1.03993
1.04278
1.04419
1.04634
1.04666
1.048
1.04864
1.0516
1.05501
1.06317
1.07102
1.08414
1.09389
1.10833
1.11471
1.12393
1.12147
1.12408
1.11094
0.992542
0.992483
0.993323
0.993808
0.995049
0.995734
0.996815
0.999094
1.00158
1.00439
1.00692
1.00932
1.01303
1.01637
1.02093
1.02414
1.02815
1.03072
1.03357
1.03574
1.0387
1.03991
1.04182
1.04219
1.04396
1.04461
1.04595
1.04692
1.04956
1.05211
1.05851
1.06521
1.07833
1.08765
1.1053
1.1138
1.1282
1.12948
1.13699
1.12669
0.992445
0.992992
0.993497
0.994061
0.995239
0.99619
0.997403
0.99931
1.00168
1.00532
1.0078
1.01107
1.01392
1.0176
1.02191
1.02605
1.03011
1.0328
1.0358
1.03749
1.04031
1.04116
1.04203
1.0417
1.04205
1.04191
1.04338
1.04389
1.04715
1.04888
1.05549
1.06086
1.07317
1.08224
1.09888
1.10825
1.12659
1.13026
1.14225
1.13153
0.991326
0.991784
0.992653
0.993275
0.994033
0.995552
0.996789
0.998697
1.00088
1.00459
1.00773
1.01108
1.01425
1.01797
1.02209
1.02609
1.0304
1.03345
1.03651
1.03803
1.04035
1.04125
1.04171
1.04112
1.0405
1.03936
1.03983
1.03939
1.04224
1.04388
1.0513
1.05535
1.06816
1.07673
1.0941
1.10368
1.12481
1.12991
1.14896
1.1422
0.990994
0.991734
0.992806
0.99357
0.994393
0.995959
0.997501
0.999786
1.00183
1.00511
1.00843
1.0123
1.01606
1.0204
1.02407
1.02796
1.03233
1.03541
1.03913
1.04074
1.04236
1.04283
1.04263
1.04149
1.04019
1.03781
1.03775
1.03512
1.03759
1.03679
1.04437
1.04798
1.06168
1.07051
1.0898
1.10053
1.12307
1.12904
1.15054
1.14892
0.989453
0.990567
0.991129
0.992382
0.993236
0.994782
0.996597
0.998947
1.00168
1.00471
1.00789
1.01201
1.01583
1.02074
1.02492
1.02895
1.03322
1.03613
1.0397
1.04135
1.04293
1.04319
1.0426
1.04084
1.03911
1.0354
1.03504
1.03126
1.03282
1.02947
1.03564
1.03765
1.05073
1.05921
1.08061
1.093
1.12037
1.12901
1.15554
1.15492
0.989371
0.990604
0.991209
0.992521
0.9936
0.995216
0.997239
0.999501
1.00299
1.00611
1.00984
1.01384
1.01759
1.02256
1.02739
1.03169
1.03648
1.03947
1.04263
1.04435
1.04558
1.0457
1.04531
1.04267
1.0403
1.03509
1.03351
1.02784
1.02839
1.02368
1.0278
1.02732
1.03847
1.04552
1.06589
1.0795
1.1095
1.12392
1.15864
1.16176
0.987254
0.988635
0.989567
0.990483
0.992294
0.993432
0.99621
0.998303
1.00194
1.00566
1.00959
1.01416
1.01829
1.02303
1.02795
1.0323
1.03738
1.04083
1.04406
1.04604
1.04702
1.04647
1.04589
1.04294
1.04027
1.03414
1.03133
1.02395
1.02322
1.01664
1.01934
1.01653
1.0252
1.02952
1.04787
1.06068
1.09099
1.10895
1.15023
1.16481
0.987566
0.988762
0.990026
0.990599
0.992816
0.99375
0.997126
0.999253
1.00329
1.00718
1.01138
1.01638
1.02136
1.02618
1.03179
1.03613
1.04111
1.04469
1.04795
1.05009
1.05173
1.05071
1.04957
1.04596
1.04304
1.03616
1.03222
1.02313
1.02042
1.01171
1.0117
1.00589
1.01137
1.0121
1.02732
1.03841
1.06608
1.08686
1.12728
1.15687
0.985948
0.986304
0.987987
0.988241
0.990702
0.991752
0.99525
0.997936
1.00217
1.00661
1.01112
1.0164
1.02171
1.02681
1.0328
1.03773
1.04316
1.04687
1.05025
1.05192
1.05388
1.05313
1.05198
1.04737
1.04418
1.03657
1.03184
1.02152
1.0172
1.00583
1.00323
0.994224
0.996228
0.994236
1.00346
1.01284
1.03306
1.05726
1.08999
1.13316
0.986568
0.986907
0.988972
0.989092
0.991901
0.993003
0.996554
0.999504
1.00375
1.00868
1.01408
1.01951
1.02575
1.03102
1.0374
1.04263
1.04844
1.05248
1.05681
1.05835
1.06012
1.05902
1.05839
1.05289
1.04939
1.04096
1.0354
1.02377
1.01748
1.0044
0.998425
0.987773
0.983018
0.979033
0.978566
0.987479
0.994544
1.02112
1.03945
1.09157
0.983208
0.983857
0.986385
0.986578
0.989749
0.991193
0.994994
0.998114
1.00282
1.00776
1.0137
1.01939
1.0263
1.03225
1.03931
1.04482
1.05131
1.05544
1.0602
1.06214
1.06451
1.06293
1.06282
1.05688
1.05299
1.04369
1.03738
1.02529
1.01657
1.00346
0.992477
0.981642
0.969584
0.964918
0.953836
0.961784
0.955284
0.979506
0.983955
1.03423
0.983845
0.984388
0.987345
0.987826
0.991452
0.993066
0.997725
1.00094
1.00665
1.0117
1.01818
1.02441
1.03165
1.03803
1.04563
1.05162
1.05874
1.06346
1.06876
1.07061
1.07358
1.07175
1.07172
1.06624
1.06174
1.05292
1.04432
1.03355
1.02088
1.00908
0.992324
0.981653
0.962336
0.957135
0.936935
0.94062
0.9225
0.939644
0.93019
0.971028
0.979235
0.979857
0.983183
0.983962
0.987875
0.990581
0.995009
0.999747
1.00537
1.01159
1.0187
1.02578
1.03353
1.04098
1.04868
1.05577
1.06286
1.06847
1.0738
1.07677
1.07919
1.07873
1.07721
1.07374
1.06723
1.06046
1.04923
1.04011
1.02415
1.01362
0.99344
0.982742
0.959071
0.950791
0.924546
0.922059
0.895808
0.903527
0.881655
0.912402
0.979838
0.981176
0.98435
0.986843
0.989883
0.99439
0.998554
1.00433
1.01048
1.01752
1.02497
1.0337
1.04137
1.05058
1.05811
1.06703
1.07363
1.08105
1.08537
1.09042
1.09122
1.09292
1.08958
1.08825
1.0797
1.07526
1.06163
1.05418
1.03628
1.02591
1.00416
0.991993
0.966071
0.954258
0.924855
0.915997
0.884535
0.882254
0.850044
0.864976
0.971678
0.975403
0.977678
0.981659
0.985265
0.990003
0.995741
1.00229
1.00879
1.01824
1.02541
1.0359
1.0441
1.05503
1.06278
1.07338
1.07985
1.08911
1.09322
1.09998
1.10018
1.10399
1.09888
1.09974
1.08968
1.08677
1.07273
1.06555
1.04744
1.03684
1.01481
1.00165
0.974954
0.960646
0.930049
0.916561
0.882681
0.872294
0.83511
0.832946
0.973186
0.976982
0.980432
0.984388
0.988424
0.994534
0.998988
1.00822
1.01434
1.0259
1.03395
1.04687
1.05515
1.06864
1.07607
1.08917
1.09498
1.10658
1.10965
1.11888
1.11767
1.12374
1.11817
1.12008
1.1102
1.10771
1.0939
1.08732
1.07007
1.05979
1.03848
1.02517
0.9994
0.9835
0.953328
0.935709
0.901284
0.883324
0.845652
0.828859
0.965376
0.969894
0.973578
0.98014
0.984001
0.992695
0.997716
1.00867
1.01503
1.02866
1.03615
1.05145
1.05937
1.07542
1.08265
1.09819
1.10368
1.11746
1.12006
1.13096
1.1299
1.13675
1.13203
1.13437
1.1264
1.12406
1.11208
1.10567
1.08901
1.07947
1.05903
1.04575
1.02182
1.00442
0.976254
0.955482
0.924072
0.900838
0.86794
0.842087
0.968464
0.975186
0.978486
0.985672
0.990227
1.00002
1.00635
1.01904
1.02707
1.04301
1.05196
1.06983
1.07892
1.09645
1.10491
1.12122
1.12806
1.14191
1.14647
1.15621
1.15751
1.16315
1.15963
1.16197
1.1533
1.15237
1.14016
1.13561
1.12172
1.11283
1.09661
1.08302
1.06366
1.04672
1.02232
1.00289
0.973913
0.949936
0.921311
0.894955
0.956088
0.966432
0.970866
0.981444
0.987684
1.00038
1.00845
1.02304
1.03255
1.04962
1.05993
1.07876
1.09024
1.10869
1.1194
1.1365
1.14464
1.15979
1.1644
1.17674
1.17711
1.186
1.18289
1.18697
1.18155
1.17955
1.17261
1.16535
1.15554
1.14468
1.13247
1.1173
1.10261
1.08324
1.0669
1.04149
1.02324
0.992068
0.971911
0.935765
0.959362
0.969548
0.974532
0.986402
0.99421
1.01028
1.02094
1.04111
1.05312
1.07561
1.08776
1.11185
1.12342
1.14694
1.15716
1.17782
1.18607
1.20254
1.2081
1.21982
1.22183
1.22872
1.22692
1.22941
1.22503
1.22201
1.21876
1.20937
1.2075
1.1955
1.19053
1.17834
1.17249
1.15296
1.14812
1.12265
1.11534
1.08794
1.07558
1.04635
0.950614
0.968461
0.976444
0.994687
1.00342
1.02304
1.03365
1.05605
1.06804
1.09373
1.10684
1.13274
1.14744
1.17146
1.18471
1.20534
1.2166
1.23182
1.24094
1.24935
1.25671
1.25842
1.263
1.26069
1.26109
1.25657
1.25525
1.24636
1.24828
1.23321
1.23817
1.2201
1.22437
1.20469
1.20775
1.18441
1.18515
1.15919
1.16025
1.12907
0.951964
0.967342
0.98027
1.00552
1.02124
1.05147
1.06819
1.10049
1.11713
1.14762
1.16429
1.19198
1.20859
1.23258
1.24749
1.26671
1.28019
1.29234
1.30372
1.30942
1.31656
1.31871
1.31938
1.32077
1.31599
1.3165
1.31037
1.30991
1.3047
1.30492
1.30019
1.30126
1.29726
1.29661
1.29336
1.28939
1.28503
1.28001
1.27434
1.27007
0.963928
0.993994
1.01164
1.03819
1.05934
1.08322
1.10737
1.13142
1.15793
1.18456
1.21009
1.237
1.25898
1.28393
1.30112
1.3222
1.33418
1.34953
1.35594
1.36541
1.36591
1.37052
1.36564
1.36681
1.35781
1.35746
1.34701
1.3485
1.33894
1.34443
1.33656
1.34608
1.33934
1.35183
1.34477
1.35808
1.34777
1.3598
1.34308
1.35302
1.00215
1.0399
1.08475
1.1182
1.16611
1.19559
1.24078
1.27249
1.31084
1.3412
1.37373
1.40149
1.42679
1.45131
1.47
1.488
1.50261
1.51249
1.52078
1.52274
1.52304
1.51671
1.50896
1.49854
1.48363
1.46912
1.44998
1.43341
1.41399
1.39709
1.38101
1.36686
1.35644
1.34816
1.34084
1.33551
1.33353
1.32292
1.28975
1.29679
1.17505
1.21161
1.24867
1.28652
1.3238
1.35905
1.39153
1.42003
1.44431
1.46701
1.4811
1.5
1.50811
1.52285
1.52611
1.53423
1.52989
1.52929
1.51399
1.50445
1.47744
1.45997
1.42118
1.39329
1.34427
1.30319
1.24766
1.19595
1.13804
1.07736
1.02046
0.952851
0.899288
0.830019
0.782384
0.719704
0.666136
0.622571
0.314926
0.0701234
1.04098
1.0405
1.03684
1.03596
1.02996
1.01611
1.00417
0.975064
0.940484
0.918633
0.881302
0.895213
0.994029
1.01509
1.00596
0.999897
1.00011
1.00051
1.00263
1.00459
1.00605
1.0079
1.00858
1.00971
1.00991
1.0106
1.01053
1.0108
1.0106
1.01075
1.01047
1.01058
1.0102
1.01028
1.00995
1.00982
1.00946
1.00925
1.00962
1.01178
1.04288
1.04363
1.03963
1.03906
1.03284
1.01857
1.00594
0.975743
0.938264
0.918585
0.881272
0.874291
0.979135
1.01105
1.00467
0.998393
0.999496
1.00002
1.00232
1.00425
1.00587
1.00788
1.00865
1.00982
1.01003
1.01068
1.0107
1.01101
1.01088
1.0111
1.01085
1.01104
1.01073
1.01071
1.01036
1.01013
1.00982
1.00936
1.00912
1.00703
1.04808
1.04718
1.04373
1.04419
1.03856
1.02418
1.0107
0.979808
0.939635
0.918712
0.880068
0.861633
0.966225
1.00541
1.00091
0.995892
0.998342
0.999389
1.00239
1.00456
1.00629
1.00828
1.00926
1.01035
1.01067
1.01126
1.0113
1.01158
1.01149
1.01162
1.01133
1.01146
1.01114
1.01113
1.01073
1.01054
1.01026
1.01008
1.01041
1.01252
1.04922
1.05037
1.04717
1.04828
1.0426
1.02856
1.01422
0.981397
0.938857
0.919374
0.882826
0.840397
0.944896
0.997599
0.997652
0.993046
0.996892
0.998271
1.00193
1.00408
1.00605
1.0082
1.00923
1.01046
1.01083
1.01138
1.01163
1.01188
1.0118
1.01192
1.01166
1.01176
1.01146
1.01147
1.01107
1.01082
1.01039
1.01009
1.00956
1.00751
1.05504
1.05475
1.05232
1.05439
1.04977
1.0361
1.02028
0.986111
0.941396
0.919091
0.88221
0.826072
0.925591
0.988578
0.991913
0.989223
0.995027
0.99706
1.00186
1.00413
1.00633
1.00864
1.00978
1.01097
1.0114
1.01191
1.01218
1.0124
1.01241
1.01238
1.01219
1.01218
1.01192
1.01199
1.01159
1.01144
1.01106
1.01086
1.01097
1.01229
1.05674
1.05806
1.05782
1.06034
1.05598
1.04311
1.02571
0.987839
0.942452
0.91924
0.882651
0.806088
0.899745
0.976818
0.986237
0.984879
0.992705
0.995289
1.00098
1.00343
1.00611
1.00857
1.00976
1.01124
1.0117
1.01224
1.01262
1.01278
1.01287
1.01276
1.01255
1.01257
1.01227
1.01232
1.01191
1.01165
1.0112
1.0109
1.01047
1.00863
1.06325
1.06351
1.06463
1.06811
1.06539
1.05273
1.03382
0.992887
0.945869
0.917682
0.878716
0.789001
0.875745
0.963667
0.97838
0.97972
0.990034
0.993529
1.00035
1.00333
1.00644
1.00912
1.01032
1.01189
1.01233
1.01289
1.01322
1.01334
1.01347
1.01336
1.01313
1.01296
1.01257
1.01264
1.01237
1.01228
1.01194
1.01164
1.01174
1.01239
1.06563
1.06747
1.0719
1.07569
1.07439
1.06213
1.0411
0.995664
0.948159
0.915158
0.871189
0.767205
0.848355
0.948722
0.970332
0.974031
0.98676
0.991211
0.998992
1.00261
1.0063
1.00915
1.0105
1.0123
1.01271
1.01335
1.01367
1.01387
1.01401
1.01395
1.01364
1.01335
1.0129
1.01279
1.01254
1.01242
1.01212
1.01177
1.01152
1.01007
1.07305
1.07514
1.08143
1.08621
1.08664
1.07418
1.05167
1.0019
0.950696
0.910048
0.858052
0.745865
0.822285
0.932527
0.960538
0.968176
0.983279
0.989128
0.99775
1.0021
1.00625
1.0093
1.01097
1.01286
1.01343
1.01424
1.01449
1.01471
1.01475
1.01476
1.01446
1.01418
1.01378
1.01355
1.01339
1.01317
1.01293
1.01257
1.01251
1.01276
1.0764
1.08121
1.09114
1.0973
1.0997
1.08767
1.06242
1.0073
0.951157
0.901731
0.836426
0.718819
0.796536
0.916494
0.950474
0.962257
0.979259
0.986614
0.995883
1.00119
1.00566
1.00919
1.01114
1.01322
1.01394
1.01481
1.01505
1.01536
1.01538
1.01545
1.01526
1.01492
1.01455
1.01399
1.01377
1.01329
1.01309
1.01278
1.01258
1.01162
1.0847
1.09215
1.10312
1.11132
1.11548
1.1052
1.07866
1.01614
0.948791
0.886758
0.8062
0.691667
0.773437
0.899696
0.939102
0.957106
0.975527
0.984796
0.994511
1.0008
1.00524
1.00934
1.01146
1.01373
1.01456
1.01546
1.01569
1.01597
1.01601
1.01596
1.01591
1.01552
1.01539
1.01475
1.01456
1.01406
1.01397
1.01363
1.01331
1.01339
1.09086
1.10049
1.11356
1.12491
1.13216
1.12663
1.09661
1.02256
0.939711
0.861959
0.765131
0.660995
0.75413
0.884129
0.928132
0.952427
0.97177
0.983017
0.992958
1.00025
1.00478
1.00942
1.01156
1.01414
1.01508
1.01611
1.01631
1.01653
1.01657
1.01633
1.01632
1.0157
1.01578
1.01501
1.01497
1.01428
1.01426
1.01391
1.01367
1.01311
1.10179
1.11527
1.12796
1.14309
1.15337
1.15627
1.12095
1.02591
0.920195
0.823303
0.715224
0.631965
0.740089
0.869577
0.917112
0.948528
0.968734
0.982247
0.992397
1.00044
1.00501
1.00987
1.01224
1.01503
1.01606
1.01727
1.01748
1.01767
1.01775
1.01734
1.01757
1.01696
1.01718
1.01631
1.01641
1.01547
1.01545
1.01475
1.01455
1.01431
1.11149
1.12653
1.14082
1.16331
1.18334
1.19665
1.14524
1.01607
0.882511
0.767165
0.657548
0.606359
0.733313
0.857794
0.907717
0.94544
0.965957
0.981524
0.991829
1.00027
1.00521
1.01011
1.01275
1.0157
1.01688
1.01823
1.01855
1.01886
1.01892
1.0186
1.0187
1.01804
1.01812
1.01709
1.01708
1.01595
1.016
1.01508
1.01493
1.01463
1.12317
1.14359
1.15794
1.18861
1.22704
1.25214
1.15443
0.98748
0.824037
0.694246
0.601024
0.591218
0.733854
0.848857
0.900635
0.943434
0.964372
0.982181
0.992161
1.00089
1.00598
1.01058
1.01338
1.01615
1.0175
1.01891
1.0193
1.01974
1.01971
1.01981
1.01971
1.01934
1.01913
1.01821
1.01805
1.01697
1.01703
1.01591
1.01583
1.01531
1.13462
1.15583
1.17328
1.22054
1.28626
1.28533
1.14772
0.926789
0.739616
0.609257
0.557995
0.590938
0.74218
0.844689
0.897853
0.94276
0.964415
0.98359
0.99294
1.00206
1.00695
1.01155
1.01416
1.01675
1.01792
1.01933
1.0197
1.02028
1.01979
1.02026
1.01959
1.01975
1.01924
1.0188
1.01842
1.01769
1.01752
1.01649
1.01631
1.01584
1.14681
1.17275
1.19694
1.27393
1.36236
1.30758
1.10778
0.829864
0.63512
0.534244
0.542304
0.610175
0.757365
0.845895
0.899214
0.944367
0.966955
0.986461
0.995687
1.00515
1.0093
1.01404
1.01627
1.01879
1.01969
1.02097
1.02096
1.02171
1.02084
1.02174
1.02064
1.02143
1.02044
1.02081
1.01996
1.01968
1.01902
1.01826
1.01791
1.01713
1.16053
1.18746
1.22626
1.34458
1.40831
1.30713
1.01737
0.699068
0.530716
0.507607
0.559936
0.646797
0.777863
0.852836
0.906078
0.94934
0.971638
0.990888
0.999153
1.00876
1.0124
1.01754
1.01945
1.02185
1.02234
1.02347
1.02293
1.02366
1.02228
1.02316
1.02174
1.0226
1.02134
1.02198
1.02082
1.02114
1.01994
1.01973
1.01862
1.01837
1.17093
1.20574
1.27116
1.42734
1.42894
1.26578
0.877948
0.569169
0.491245
0.547603
0.611148
0.694755
0.801902
0.866611
0.919153
0.957435
0.979559
0.997013
1.00457
1.01355
1.01654
1.02114
1.02282
1.02474
1.02536
1.02619
1.0256
1.02619
1.02463
1.02521
1.0237
1.02428
1.02295
1.0235
1.02205
1.02236
1.02119
1.02124
1.02023
1.01995
1.18519
1.223
1.32274
1.48336
1.43447
1.18463
0.742877
0.536431
0.572398
0.627645
0.677529
0.747932
0.834115
0.888153
0.938651
0.970056
0.992038
1.0046
1.01216
1.01827
1.02155
1.02414
1.02669
1.02697
1.0285
1.02797
1.02816
1.02783
1.02679
1.02647
1.02514
1.02508
1.02375
1.02399
1.02258
1.02287
1.02174
1.02199
1.02101
1.02122
1.19484
1.24784
1.38182
1.48906
1.40221
1.09492
0.755926
0.682006
0.703759
0.725457
0.741398
0.80597
0.871772
0.917695
0.96375
0.987685
1.00957
1.01548
1.02401
1.02506
1.0294
1.02816
1.03237
1.02955
1.03285
1.02995
1.03215
1.02998
1.03038
1.02862
1.0281
1.02695
1.02579
1.0254
1.02403
1.02423
1.023
1.02314
1.02214
1.02222
1.19865
1.26486
1.40362
1.4278
1.29519
1.07515
0.901007
0.847526
0.810787
0.795465
0.801436
0.870613
0.913445
0.956429
0.992814
1.0128
1.0312
1.03145
1.03897
1.03525
1.03996
1.03453
1.03945
1.03379
1.03762
1.03305
1.03598
1.03207
1.03401
1.03064
1.03133
1.02896
1.0286
1.02716
1.02616
1.02569
1.0246
1.02455
1.02352
1.02369
1.18585
1.2653
1.34866
1.29816
1.21516
1.07264
0.959086
0.910006
0.846131
0.837652
0.870583
0.93385
0.959885
1.00218
1.0246
1.04644
1.05456
1.05452
1.056
1.05077
1.05198
1.04502
1.04768
1.04189
1.04403
1.03934
1.04127
1.03725
1.03896
1.03533
1.03637
1.03304
1.03317
1.0306
1.03001
1.02817
1.02732
1.02633
1.02564
1.02543
1.1568
1.22605
1.2021
1.15944
1.12546
1.02486
0.945759
0.905177
0.836427
0.86201
0.907415
0.978983
1.02045
1.0506
1.06177
1.08623
1.08119
1.08351
1.07471
1.07116
1.06552
1.0599
1.05695
1.05299
1.05112
1.04712
1.04676
1.04263
1.04317
1.03967
1.04004
1.03685
1.03662
1.03364
1.03348
1.03068
1.03047
1.02836
1.02811
1.027
1.1104
1.12292
1.04404
1.03083
0.994875
0.929242
0.881354
0.836911
0.801363
0.86218
0.912173
1.00702
1.06086
1.10176
1.10498
1.12548
1.11417
1.1145
1.09758
1.09452
1.08143
1.07703
1.06717
1.06571
1.05874
1.05656
1.0522
1.0495
1.04706
1.0449
1.04301
1.04109
1.03934
1.03729
1.03638
1.03376
1.03342
1.0312
1.03104
1.02963
1.0403
0.986499
0.886862
0.85959
0.837204
0.797681
0.770888
0.738392
0.749364
0.827456
0.893104
1.01046
1.07915
1.15239
1.15059
1.16544
1.1532
1.146
1.12635
1.11769
1.10185
1.09434
1.07991
1.0779
1.06741
1.0661
1.05829
1.05752
1.05136
1.0516
1.04661
1.0465
1.04289
1.0419
1.03974
1.03766
1.03646
1.03449
1.03383
1.03234
0.949231
0.864185
0.749244
0.702119
0.677228
0.650037
0.644395
0.632166
0.6617
0.741639
0.840102
0.986005
1.08514
1.17736
1.20066
1.20989
1.19597
1.18327
1.1625
1.14516
1.13057
1.11593
1.10182
1.09432
1.08423
1.07961
1.07174
1.06904
1.06207
1.06093
1.05481
1.05409
1.04947
1.04801
1.04486
1.0429
1.04114
1.03937
1.03795
1.03715
0.862927
0.783404
0.649571
0.583433
0.545938
0.532982
0.531832
0.518919
0.5383
0.611466
0.738206
0.903701
1.0567
1.1843
1.23938
1.25579
1.24302
1.22556
1.20175
1.17861
1.16333
1.14307
1.12884
1.11463
1.106
1.09469
1.08916
1.08155
1.07642
1.07189
1.06663
1.06324
1.05912
1.05558
1.05265
1.04942
1.04681
1.04431
1.04238
1.04136
0.806461
0.741832
0.635398
0.564626
0.50551
0.49612
0.479345
0.449927
0.433709
0.472991
0.586216
0.75806
0.966957
1.1463
1.24838
1.28979
1.28684
1.26402
1.23735
1.21
1.19109
1.17099
1.15309
1.13752
1.12692
1.11233
1.10612
1.09582
1.09131
1.08405
1.07977
1.07418
1.07028
1.06586
1.06261
1.05857
1.0555
1.05244
1.04991
1.04825
0.780296
0.729578
0.677055
0.615608
0.56456
0.557352
0.545775
0.509534
0.47368
0.451777
0.475783
0.585427
0.798494
1.04144
1.22056
1.29654
1.31944
1.30204
1.26847
1.23679
1.21362
1.19339
1.17312
1.15859
1.14423
1.13065
1.12046
1.11147
1.10343
1.09786
1.09092
1.08619
1.0805
1.07603
1.07104
1.06698
1.06292
1.06005
1.05702
1.05535
0.785711
0.740754
0.708681
0.691148
0.660086
0.650803
0.660231
0.661217
0.656447
0.636625
0.611221
0.579629
0.638528
0.856298
1.12231
1.27518
1.32842
1.33927
1.30876
1.27039
1.24211
1.21859
1.1973
1.18024
1.16471
1.15061
1.13701
1.12834
1.11691
1.11188
1.10285
1.09879
1.09177
1.08728
1.08203
1.07743
1.07283
1.06942
1.06577
1.06395
0.809395
0.778634
0.761425
0.758768
0.757641
0.752639
0.763965
0.779174
0.798369
0.813835
0.824778
0.814812
0.770954
0.738954
0.861241
1.13016
1.28454
1.34107
1.34566
1.30979
1.27769
1.25098
1.2289
1.20814
1.1925
1.17664
1.16205
1.15076
1.13775
1.12947
1.1186
1.11241
1.10424
1.09929
1.09339
1.08865
1.08462
1.08112
1.07771
1.07567
0.865479
0.839401
0.839951
0.843815
0.852769
0.858024
0.870784
0.884404
0.901073
0.910338
0.912778
0.907592
0.892488
0.860081
0.795395
0.797057
1.01
1.21068
1.2933
1.31514
1.29473
1.27451
1.25714
1.23656
1.22266
1.20749
1.19448
1.18166
1.17077
1.1583
1.14789
1.13715
1.12822
1.11952
1.11237
1.10578
1.09923
1.09437
1.08952
1.08741
0.920921
0.907421
0.927294
0.959296
0.976598
0.999984
1.00844
1.00871
0.991857
0.961023
0.934623
0.909579
0.883873
0.852864
0.818724
0.749636
0.689146
0.80233
1.05383
1.18088
1.23241
1.24073
1.24743
1.23843
1.23365
1.22324
1.21564
1.20536
1.19927
1.18832
1.18192
1.17098
1.1633
1.15095
1.1427
1.1342
1.12643
1.11871
1.11371
1.109
1.03976
1.04695
1.06544
1.09306
1.10749
1.1081
1.0943
1.06282
1.01621
0.972569
0.915815
0.862267
0.811602
0.754341
0.708148
0.672842
0.602346
0.526606
0.574866
0.853735
1.03
1.10884
1.15727
1.18072
1.19644
1.20003
1.20352
1.20063
1.20028
1.19508
1.19287
1.18614
1.18279
1.17655
1.16994
1.1638
1.15574
1.14818
1.14175
1.13462
1.14827
1.16158
1.19827
1.2007
1.18138
1.15506
1.11669
1.06545
1.0028
0.939905
0.854576
0.76647
0.692142
0.632741
0.544
0.453734
0.41022
0.354706
0.268957
0.322567
0.665003
0.857828
0.967322
1.04155
1.09215
1.12321
1.14664
1.15661
1.16862
1.17142
1.1777
1.1778
1.18005
1.17951
1.17843
1.17658
1.17375
1.1703
1.16427
1.16149
1.2727
1.27352
1.26567
1.2363
1.20315
1.16193
1.10398
1.01998
0.911602
0.801897
0.692776
0.581177
0.48689
0.384894
0.312598
0.256304
0.190632
0.119418
0.070654
0.0340982
0.11452
0.487234
0.671985
0.80834
0.909611
0.980644
1.03775
1.07048
1.10184
1.11885
1.13618
1.14812
1.15992
1.16747
1.17298
1.17551
1.17713
1.17964
1.17936
1.17886
1.32944
1.29565
1.25194
1.21171
1.15668
1.07949
0.973489
0.840093
0.70472
0.555594
0.384416
0.267429
0.157937
0.0855955
0.0954551
0.144534
0.176522
0.18078
0.198427
0.230214
0.301833
0.246012
0.366398
0.532918
0.673317
0.774256
0.868648
0.931351
0.984059
1.0248
1.05326
1.07318
1.0822
1.10021
1.11856
1.12891
1.14328
1.15004
1.16173
1.17012
1.20019
1.05707
0.899868
0.737393
0.570013
0.391356
0.219503
0.1307
0.190211
0.272591
0.324118
0.38154
0.416815
0.459503
0.489402
0.513135
0.536453
0.555612
0.573633
0.593622
0.604818
0.590937
0.549567
0.333607
0.301751
0.480505
0.59605
0.733042
0.802433
0.878213
0.929538
0.985621
1.02403
1.04752
1.07268
1.09962
1.11987
1.13907
1.15222
1.16026
0.142739
0.188268
0.260536
0.35497
0.431525
0.491553
0.538424
0.574717
0.605872
0.633305
0.655616
0.670665
0.679
0.683103
0.672405
0.660437
0.644316
0.625686
0.601299
0.576825
0.557606
0.538729
0.534702
0.487473
0.456049
0.472965
0.410022
0.27973
0.238221
0.531026
0.601791
0.643771
0.68278
0.720919
0.760203
0.797182
0.838826
0.881465
0.931759
0.985346
1.01829
1.01847
1.01943
1.01933
1.01985
1.0195
1.01957
1.01869
1.01803
1.01627
1.01441
1.01112
1.0072
1.00165
0.995223
0.987268
0.981358
0.977996
0.980058
0.987257
0.997928
1.00854
1.01228
1.01189
1.01099
1.01034
1.0099
1.00954
1.00925
1.00896
1.00862
1.00824
1.00784
1.00741
1.00695
1.00649
1.00606
1.00565
1.00527
1.00502
1.00044
1.00132
1.00057
1.00136
1.00099
1.00197
1.0019
1.00314
1.00356
1.00539
1.0068
1.00994
1.01255
1.01693
1.02028
1.02462
1.02626
1.02702
1.02657
1.02317
1.01662
1.01179
1.01039
1.01056
1.01079
1.01097
1.01095
1.01081
1.01057
1.01017
1.00962
1.00914
1.00876
1.00824
1.00759
1.007
1.00642
1.00597
1.00566
1.0053
1.01766
1.01803
1.01887
1.01864
1.01907
1.01831
1.01817
1.0169
1.01603
1.01399
1.01212
1.00909
1.0065
1.00277
1.00115
1.00085
1.00322
1.00566
1.00805
1.00947
1.01005
1.0101
1.01017
1.01058
1.01078
1.01096
1.0109
1.01082
1.01065
1.01042
1.01
1.00958
1.00913
1.00864
1.00809
1.00748
1.007
1.00668
1.0063
1.00596
1.00299
1.00369
1.00366
1.00453
1.00475
1.00613
1.00679
1.00868
1.01005
1.01267
1.0149
1.01837
1.02087
1.02421
1.02585
1.02688
1.02713
1.02658
1.02426
1.02091
1.01763
1.01452
1.01296
1.01253
1.01249
1.01218
1.01167
1.01126
1.01093
1.01065
1.01032
1.00988
1.00946
1.00888
1.00824
1.00767
1.00712
1.00683
1.00646
1.00602
1.01604
1.01658
1.01688
1.01672
1.01662
1.01596
1.01536
1.0142
1.01303
1.01128
1.00979
1.00802
1.00708
1.00647
1.0076
1.00884
1.00989
1.01057
1.011
1.01151
1.01166
1.01165
1.01157
1.01167
1.01176
1.01183
1.01165
1.01143
1.01118
1.01099
1.01064
1.01027
1.00995
1.00941
1.00876
1.00827
1.00781
1.00734
1.00703
1.0066
1.00551
1.00643
1.00692
1.00799
1.00872
1.01009
1.01106
1.01282
1.0141
1.01618
1.01754
1.01962
1.02079
1.02228
1.02276
1.02313
1.02304
1.02226
1.02096
1.01957
1.01806
1.0164
1.01497
1.01417
1.01374
1.01314
1.01248
1.01201
1.01152
1.01122
1.01088
1.01043
1.01002
1.00947
1.00891
1.00835
1.0079
1.00749
1.00704
1.00656
1.01481
1.01526
1.01524
1.01512
1.0148
1.01427
1.01361
1.01274
1.0118
1.01094
1.01012
1.00965
1.0097
1.01019
1.01103
1.01193
1.01205
1.01236
1.01258
1.01303
1.01306
1.01294
1.01274
1.01272
1.01277
1.01279
1.01254
1.01226
1.01203
1.01177
1.0114
1.01108
1.01052
1.00997
1.00954
1.00896
1.00847
1.00817
1.00772
1.00722
1.00816
1.00933
1.00998
1.01106
1.01187
1.01304
1.01394
1.01524
1.01606
1.01719
1.01805
1.01886
1.01955
1.02012
1.02045
1.02056
1.02021
1.01974
1.01913
1.01849
1.01772
1.01652
1.01564
1.01521
1.01458
1.01378
1.01319
1.01277
1.01233
1.01194
1.01161
1.01132
1.01078
1.01015
1.00962
1.00904
1.00868
1.00822
1.00779
1.00729
1.01401
1.01434
1.01421
1.01423
1.01395
1.01372
1.01334
1.01308
1.01279
1.01275
1.01274
1.01301
1.0133
1.01371
1.01385
1.01396
1.01396
1.01409
1.01433
1.01454
1.0144
1.01401
1.01388
1.01393
1.01388
1.01379
1.01354
1.0133
1.01297
1.01255
1.01226
1.01192
1.01146
1.01093
1.01031
1.00985
1.0094
1.00896
1.00857
1.00806
1.01057
1.01177
1.01231
1.01333
1.01401
1.01501
1.01565
1.01651
1.01707
1.01776
1.01823
1.01864
1.01909
1.0193
1.01925
1.01892
1.01869
1.01877
1.01864
1.01826
1.01751
1.01661
1.0162
1.0159
1.01513
1.01456
1.01418
1.01367
1.0132
1.01284
1.01258
1.01216
1.01166
1.01109
1.01052
1.01004
1.00962
1.00919
1.00869
1.00825
1.01386
1.01433
1.01435
1.01449