/*--------------------------------*- C++ -*----------------------------------*\
  =========                 |
  \\      /  F ield         | OpenFOAM: The Open Source CFD Toolbox
   \\    /   O peration     | Website:  https://openfoam.org
    \\  /    A nd           | Version:  11
     \\/     M anipulation  |
\*---------------------------------------------------------------------------*/
FoamFile
{
    format      ascii;
    class       volScalarField;
    location    "6";
    object      p;
}
// * * * * * * * * * * * * * * * * * * * * * * * * * * * * * * * * * * * * * //

dimensions      [0 2 -2 0 0 0 0];

internalField   nonuniform List<scalar> 
9600
(
0.0407081
0.0405052
0.0400572
0.0393487
0.0384364
0.037385
0.0361389
0.0346081
0.0327114
0.0304636
0.0279156
0.025066
0.021845
0.0182689
0.0146635
0.0110322
0.00747094
0.003745
0.000694606
-0.00145167
-0.00370476
-0.00570345
-0.00578111
-0.00624836
-0.00641645
-0.00620368
-0.00592938
-0.00603374
-0.00664604
-0.00765289
-0.0090629
-0.010513
-0.012046
-0.0136318
-0.0148763
-0.0154605
-0.0156552
-0.0157029
-0.0157969
-0.0164984
0.040649
0.0403262
0.0397228
0.0388692
0.0378393
0.0367063
0.0353922
0.0337469
0.0317305
0.0294058
0.0268122
0.0239771
0.0208146
0.0173835
0.0138474
0.0102668
0.00700206
0.00363224
0.000392799
-0.0017437
-0.00386884
-0.00562677
-0.00607552
-0.00623967
-0.00650758
-0.00659411
-0.006369
-0.00642355
-0.00694428
-0.00781854
-0.00915991
-0.0106196
-0.0120978
-0.0136172
-0.015084
-0.0158302
-0.016029
-0.0159567
-0.0157076
-0.0148823
0.0405501
0.0401455
0.0394817
0.0386195
0.0376241
0.0365249
0.0351894
0.0335369
0.031557
0.029246
0.0266436
0.0237641
0.0205933
0.0171488
0.013626
0.010129
0.00667774
0.00345722
0.000434507
-0.00190247
-0.00409311
-0.00550969
-0.00606558
-0.00621932
-0.00636369
-0.00614256
-0.00581173
-0.00564748
-0.00596583
-0.00670929
-0.00787222
-0.00921444
-0.0106431
-0.0120593
-0.0135582
-0.0147427
-0.0153421
-0.0155161
-0.0154948
-0.0156058
0.04043
0.03998
0.0392532
0.0383316
0.0372868
0.0361135
0.0347094
0.0329783
0.0308649
0.0284722
0.0258551
0.0230047
0.0198475
0.0164623
0.0129725
0.00947198
0.00614476
0.00287235
6.11489e-05
-0.00221216
-0.00424742
-0.00560137
-0.00646541
-0.006475
-0.00664602
-0.00665037
-0.00645783
-0.00639726
-0.0067334
-0.00744542
-0.00867804
-0.0101868
-0.0117924
-0.0133663
-0.0147774
-0.0157753
-0.0163024
-0.0164425
-0.0159308
-0.015241
0.0403031
0.0398125
0.0390184
0.0380339
0.0369563
0.0357714
0.0343306
0.0325602
0.030458
0.0281097
0.0254776
0.0225831
0.0194381
0.0160583
0.0125611
0.0090599
0.00575243
0.00252863
-0.000259575
-0.00253617
-0.00450381
-0.00578505
-0.00648735
-0.00659324
-0.00652559
-0.00625109
-0.00582246
-0.00550398
-0.00551032
-0.00600424
-0.00693714
-0.00823738
-0.00964287
-0.0110719
-0.0125828
-0.0139949
-0.0148817
-0.0155429
-0.0157696
-0.0158788
0.040181
0.0396466
0.0387841
0.0377455
0.0366485
0.0354568
0.0339802
0.0321521
0.0299973
0.0275684
0.0249093
0.0220251
0.0188649
0.0154728
0.0119962
0.00853946
0.00525255
0.00202368
-0.000690736
-0.00293382
-0.00481511
-0.00607814
-0.00676198
-0.0069113
-0.0068556
-0.00664794
-0.00629761
-0.00606156
-0.00613975
-0.00664232
-0.00771257
-0.00923207
-0.0109987
-0.0127604
-0.0142989
-0.015618
-0.0169805
-0.0170398
-0.0165712
-0.0159538
0.0400548
0.0394764
0.0385493
0.0374692
0.0363686
0.0351635
0.0336452
0.0317571
0.0295564
0.0271167
0.0244527
0.0215145
0.0183388
0.0149552
0.0114945
0.0079899
0.00464225
0.00148281
-0.00120962
-0.00344428
-0.00525174
-0.00637365
-0.00706843
-0.00717263
-0.0069341
-0.00650142
-0.00588084
-0.00536694
-0.00511736
-0.00531572
-0.00605971
-0.00727976
-0.00875593
-0.0102867
-0.011809
-0.0131276
-0.0143531
-0.0158186
-0.0165269
-0.016771
0.0399232
0.0393087
0.0383257
0.0372127
0.0361072
0.0348844
0.0333364
0.0313985
0.0291406
0.026655
0.0239356
0.0209966
0.017826
0.0144063
0.0108983
0.00735948
0.00397812
0.000877118
-0.00177869
-0.00399991
-0.00579419
-0.00690972
-0.00747995
-0.00755604
-0.00723411
-0.00675957
-0.00609943
-0.00555845
-0.00531185
-0.00551381
-0.00634138
-0.00776706
-0.00963843
-0.0117105
-0.0136239
-0.0152505
-0.0163219
-0.0168657
-0.0171912
-0.0169048
0.0397948
0.0391281
0.0381128
0.0369774
0.0358657
0.0346274
0.0330579
0.0310715
0.028743
0.0261867
0.0234625
0.0205098
0.0172873
0.0138029
0.0102622
0.00669403
0.0032783
0.00018293
-0.00251841
-0.00474966
-0.00649316
-0.00755534
-0.00801616
-0.00808159
-0.00757713
-0.00689208
-0.00599778
-0.00516242
-0.00463519
-0.00451144
-0.00499194
-0.00607994
-0.00763057
-0.00937423
-0.0111872
-0.0128837
-0.0144434
-0.0159227
-0.0169353
-0.0176549
0.0396809
0.0389479
0.0379254
0.0367728
0.0356551
0.0343903
0.0327882
0.0307539
0.0283769
0.0257643
0.0229785
0.0199858
0.0167041
0.013187
0.0095941
0.00595178
0.00245651
-0.000643459
-0.00332179
-0.00555631
-0.00727643
-0.00832183
-0.0087218
-0.00857953
-0.0079739
-0.0071682
-0.00612475
-0.00507861
-0.00436853
-0.00412757
-0.00461205
-0.00580757
-0.00765396
-0.00991817
-0.0123392
-0.0145162
-0.0160943
-0.0172066
-0.0182152
-0.017817
0.0395921
0.0387948
0.0377535
0.0365915
0.0354724
0.0341956
0.0325366
0.0304574
0.0280298
0.0253331
0.022485
0.0194421
0.0161142
0.0125194
0.00882793
0.00513181
0.00159159
-0.0015292
-0.00423965
-0.00653238
-0.00823221
-0.00925375
-0.00959322
-0.00928346
-0.00855323
-0.00758485
-0.00627978
-0.00490628
-0.00390883
-0.00336806
-0.00353136
-0.00442627
-0.0059715
-0.00799527
-0.010218
-0.0123729
-0.0142906
-0.0159599
-0.0172411
-0.0185002
0.0395302
0.038681
0.0376131
0.0364503
0.0353136
0.034009
0.0323123
0.0301914
0.0276905
0.0249074
0.0219998
0.0188826
0.0154493
0.0117755
0.00801721
0.00425353
0.000627674
-0.00256736
-0.00531045
-0.00765599
-0.00935452
-0.0103416
-0.0105721
-0.0101465
-0.00920531
-0.00802357
-0.006499
-0.00487955
-0.00355283
-0.00273082
-0.00259324
-0.00332382
-0.00492742
-0.0073285
-0.0101493
-0.0129805
-0.0154976
-0.0173351
-0.018488
-0.0190307
0.0394901
0.0385913
0.0375128
0.036355
0.0351925
0.033844
0.0321151
0.02993
0.0273461
0.0245001
0.0214983
0.0182695
0.0147266
0.0109947
0.00713173
0.00325911
-0.000456537
-0.00374441
-0.00651648
-0.00892902
-0.0106416
-0.0115868
-0.0117527
-0.0112028
-0.010069
-0.0086706
-0.0068626
-0.00500658
-0.00326556
-0.00201799
-0.00150146
-0.00193947
-0.00327166
-0.00552581
-0.0083055
-0.0112015
-0.0139615
-0.0162772
-0.0180945
-0.0197399
0.0394871
0.0385315
0.0374541
0.0362902
0.035099
0.0337111
0.0319212
0.029688
0.0270311
0.0240744
0.0209592
0.0176301
0.0139779
0.010135
0.00614252
0.00215472
-0.0016555
-0.00503804
-0.00790068
-0.010388
-0.0121376
-0.0130738
-0.0131493
-0.0124826
-0.011151
-0.00944171
-0.0072628
-0.00515482
-0.00304253
-0.00134411
-0.000376213
-0.000504546
-0.00159145
-0.00375315
-0.00677085
-0.0102707
-0.013805
-0.0169983
-0.0193412
-0.0210658
0.0395209
0.038527
0.0374457
0.0362713
0.0350367
0.0336064
0.0317559
0.029438
0.0266933
0.0236449
0.0203975
0.0169463
0.0131503
0.00916058
0.00506121
0.000930119
-0.00299438
-0.00651368
-0.00952729
-0.0120633
-0.0138445
-0.0147848
-0.014706
-0.0139396
-0.0125199
-0.0104946
-0.00795351
-0.00545384
-0.00290884
-0.000810421
0.000667571
0.00108704
0.00040239
-0.00159548
-0.00451059
-0.00823098
-0.0120972
-0.0157894
-0.0187321
-0.021134
0.0396046
0.0385726
0.0374873
0.0363033
0.0350074
0.0335128
0.0316111
0.0291998
0.0263721
0.0232028
0.0198125
0.0162045
0.012244
0.00810933
0.00387356
-0.000451812
-0.00452311
-0.0081978
-0.0113353
-0.013928
-0.0157523
-0.0167823
-0.0166882
-0.0156597
-0.0140223
-0.011824
-0.00892949
-0.0059186
-0.00286656
-0.000278833
0.00178867
0.00278746
0.00256465
0.00096416
-0.00195159
-0.00602464
-0.0104284
-0.0150896
-0.0189154
-0.0220833
0.0397483
0.0386637
0.0375832
0.0363726
0.0350298
0.0334376
0.0314411
0.0289871
0.0260488
0.0227374
0.0191527
0.0153762
0.0112648
0.00691243
0.00250048
-0.00199693
-0.00625526
-0.0101131
-0.0133688
-0.0160682
-0.0179774
-0.0189948
-0.0190069
-0.0177743
-0.015772
-0.0133071
-0.0101432
-0.00674466
-0.00311716
8.04678e-05
0.00279257
0.00444831
0.00479592
0.00383983
0.00122562
-0.00284823
-0.00767237
-0.0132359
-0.0179994
-0.0217061
0.0399673
0.038825
0.0377166
0.0364854
0.0350959
0.0334023
0.0313056
0.0287569
0.0257085
0.0222361
0.0184482
0.0144815
0.0101803
0.00556775
0.000975801
-0.00370272
-0.00820065
-0.0122849
-0.0156753
-0.0184912
-0.0205249
-0.0214866
-0.0215396
-0.0203616
-0.0180772
-0.0151811
-0.0117047
-0.00793423
-0.00364896
0.000261983
0.00364776
0.00615519
0.00731802
0.00701503
0.00498419
0.00116198
-0.00401458
-0.0105326
-0.0167758
-0.0214647
0.0402746
0.0390508
0.0379049
0.0366538
0.035182
0.033408
0.0311995
0.0285148
0.025322
0.0216956
0.0176874
0.0134431
0.00892595
0.00408116
-0.000751817
-0.00567293
-0.0104028
-0.0147318
-0.0183233
-0.0212407
-0.0234164
-0.024445
-0.0243977
-0.0232232
-0.0208217
-0.017566
-0.0137229
-0.00948255
-0.00466362
4.66071e-05
0.00426204
0.00769402
0.00981084
0.0103479
0.00912591
0.00587383
0.000682996
-0.00601877
-0.0135101
-0.0195406
0.0406364
0.0393356
0.0381761
0.0368755
0.035306
0.0334345
0.0311202
0.0282895
0.0248908
0.0210602
0.0168539
0.0122943
0.00753467
0.0024015
-0.00272207
-0.00788018
-0.0128725
-0.0174686
-0.0213432
-0.0243703
-0.026679
-0.0278274
-0.0277184
-0.0265007
-0.0240156
-0.0204838
-0.016299
-0.0115293
-0.00624518
-0.000829416
0.00434264
0.00880815
0.012208
0.0139997
0.0138191
0.011593
0.0068017
7.63374e-05
-0.00806615
-0.0165881
0.0411038
0.0397364
0.038507
0.0371462
0.0354917
0.0334873
0.0310486
0.0280316
0.0244073
0.0203095
0.0158316
0.0110044
0.00594546
0.000481854
-0.00496095
-0.0104196
-0.0157024
-0.0205433
-0.0247597
-0.0280251
-0.03041
-0.0316602
-0.0315806
-0.0303392
-0.0278013
-0.0240388
-0.0194721
-0.0142124
-0.00833432
-0.00230109
0.0037336
0.00930131
0.0139243
0.0172012
0.0185025
0.0177736
0.0143177
0.00814849
-2.37676e-05
-0.0101733
0.0416943
0.040209
0.0388983
0.0374582
0.0357211
0.0335876
0.0309498
0.0277328
0.0238857
0.0194864
0.014704
0.00950444
0.0041048
-0.00165984
-0.00747161
-0.0133159
-0.0189526
-0.0240379
-0.0285721
-0.0321657
-0.0347222
-0.0360703
-0.036019
-0.0347632
-0.0322142
-0.0282894
-0.0233536
-0.0177038
-0.0112451
-0.00449615
0.00232441
0.00893856
0.0148403
0.0196436
0.0228022
0.0239181
0.0224525
0.0182027
0.0106314
0.000787014
0.0423752
0.0407714
0.0393849
0.0378486
0.0359987
0.0337162
0.0308339
0.0273642
0.0232488
0.0185398
0.0133951
0.00775528
0.00197004
-0.00416175
-0.0103868
-0.0166082
-0.0226589
-0.028103
-0.0329277
-0.0368313
-0.0396651
-0.0412308
-0.0412042
-0.039889
-0.0373187
-0.0333525
-0.0281714
-0.0220968
-0.0151857
-0.0077305
-5.34128e-05
0.00759423
0.0148066
0.0211462
0.0260854
0.0293492
0.0299979
0.0285496
0.0231256
0.0163526
0.0431518
0.0414573
0.0399962
0.0383488
0.0363098
0.0338216
0.0307047
0.0269204
0.0224827
0.0174131
0.0118604
0.00575604
-0.000472716
-0.00702605
-0.0137457
-0.0203836
-0.0268999
-0.0327588
-0.0379154
-0.0421577
-0.0452434
-0.0471126
-0.0472602
-0.045873
-0.0432115
-0.0392393
-0.0339808
-0.0275746
-0.0201888
-0.0121724
-0.0037178
0.00489807
0.0131773
0.0210871
0.0277299
0.0334722
0.036497
0.0381856
0.0360402
0.0321026
0.0441279
0.0422836
0.0406991
0.0389213
0.0366313
0.0338601
0.0304867
0.0263939
0.0215762
0.0160207
0.0100412
0.00345577
-0.00337119
-0.0103889
-0.0176354
-0.0247659
-0.031776
-0.0381437
-0.0436941
-0.0483355
-0.0516337
-0.0537592
-0.0542796
-0.0529788
-0.0502207
-0.046193
-0.0408741
-0.0342744
-0.026556
-0.0180456
-0.00905373
0.000462171
0.00976169
0.0191645
0.0273388
0.0351373
0.0408026
0.045337
0.047315
0.0466225
0.0452971
0.0432411
0.0414821
0.0395475
0.0370233
0.0338934
0.0301645
0.0256711
0.0204848
0.0144057
0.00785257
0.000780801
-0.00673264
-0.0143239
-0.0221665
-0.0298718
-0.0373891
-0.0443536
-0.0503319
-0.0554173
-0.059076
-0.0614091
-0.0622458
-0.0611861
-0.0584275
-0.0543316
-0.0489542
-0.0422335
-0.0344337
-0.0254727
-0.0160767
-0.00586123
0.00424436
0.014661
0.0243846
0.0337074
0.0419271
0.0491139
0.0546639
0.0581762
0.04669
0.0444028
0.0424067
0.0401874
0.0374324
0.0338855
0.0297452
0.0247264
0.018998
0.0124677
0.00519293
-0.0024658
-0.0106759
-0.0189695
-0.0274604
-0.0358949
-0.0439529
-0.0515658
-0.0581119
-0.0636033
-0.0677162
-0.0703133
-0.0713978
-0.0706667
-0.068176
-0.0640596
-0.0586682
-0.0518316
-0.0440365
-0.0348559
-0.0251268
-0.0145381
-0.00368526
0.00738027
0.0184318
0.0290321
0.0391826
0.0483441
0.0563052
0.0634691
0.0483483
0.0457417
0.0435144
0.0408946
0.037725
0.0337449
0.0290435
0.0235779
0.0171194
0.0100468
0.00202186
-0.00643746
-0.0153082
-0.0245155
-0.0337163
-0.0429318
-0.0517066
-0.0599237
-0.0671702
-0.0731394
-0.0777211
-0.0806529
-0.0820413
-0.0815567
-0.0794129
-0.0753579
-0.0700045
-0.0630817
-0.0552863
-0.0462963
-0.0363732
-0.0256769
-0.0142633
-0.00267331
0.00918421
0.0206951
0.0320015
0.042526
0.0522992
0.0608411
0.0503304
0.047343
0.0446616
0.041665
0.0379791
0.0334873
0.0280536
0.0220113
0.0148394
0.00693556
-0.00176431
-0.0112874
-0.0210051
-0.0310883
-0.0412002
-0.0512407
-0.060881
-0.0697561
-0.0777236
-0.0842844
-0.0893867
-0.0926766
-0.0944797
-0.0942688
-0.0924629
-0.0887419
-0.0835032
-0.0767794
-0.0688602
-0.0600995
-0.050267
-0.039673
-0.0280441
-0.0160606
-0.00379638
0.00837203
0.0203885
0.0317707
0.0424404
0.051367
0.0525902
0.0491419
0.0458051
0.0422568
0.0379646
0.0329463
0.0267554
0.0197712
0.0118925
0.00274829
-0.00678864
-0.0172283
-0.0281761
-0.0392727
-0.0504238
-0.06134
-0.0718943
-0.0815336
-0.0902681
-0.097426
-0.103171
-0.106917
-0.108988
-0.109173
-0.107567
-0.104334
-0.0993851
-0.0930795
-0.0853593
-0.0766182
-0.0669976
-0.0570693
-0.045741
-0.0333918
-0.0208301
-0.0082305
0.00421485
0.016055
0.0271264
0.036394
0.0551558
0.0512073
0.0470268
0.042699
0.0376556
0.031922
0.0253521
0.017319
0.00842501
-0.00169649
-0.0128427
-0.0245148
-0.036773
-0.0491189
-0.0614992
-0.0734665
-0.0850196
-0.0955144
-0.10502
-0.112892
-0.119151
-0.123557
-0.126032
-0.126619
-0.125138
-0.12201
-0.117429
-0.111579
-0.104272
-0.0957866
-0.08611
-0.075253
-0.064312
-0.053089
-0.0409329
-0.0283735
-0.0157949
-0.00374823
0.00782982
0.01744
0.0578705
0.053279
0.0483927
0.0428625
0.0367392
0.0295559
0.0214924
0.012404
0.00208489
-0.00921156
-0.0215364
-0.03445
-0.048111
-0.0618178
-0.0755609
-0.0887525
-0.101408
-0.112919
-0.123166
-0.131808
-0.138546
-0.143514
-0.14647
-0.147859
-0.147387
-0.145144
-0.141163
-0.135464
-0.128498
-0.120579
-0.111646
-0.10181
-0.0910961
-0.0797684
-0.0677102
-0.055586
-0.0430215
-0.0307575
-0.019195
-0.00969356
0.0608853
0.0553397
0.0501695
0.0442934
0.0372872
0.029211
0.0197545
0.00903936
-0.00324694
-0.0167802
-0.0314574
-0.046665
-0.0621403
-0.0775026
-0.0926735
-0.107316
-0.121042
-0.133785
-0.144826
-0.154166
-0.161497
-0.166669
-0.169735
-0.170712
-0.16976
-0.167336
-0.16351
-0.158842
-0.153167
-0.146528
-0.138779
-0.129929
-0.120331
-0.109849
-0.0986503
-0.0867505
-0.0745002
-0.0627175
-0.0510617
-0.0417583
0.0630855
0.0554258
0.0481268
0.0401982
0.0309845
0.0206349
0.00919271
-0.00323122
-0.0169375
-0.0317332
-0.0477013
-0.0645412
-0.0818248
-0.0991188
-0.115991
-0.132126
-0.147039
-0.160724
-0.172667
-0.182764
-0.190851
-0.197103
-0.201198
-0.203626
-0.203767
-0.202566
-0.199516
-0.195232
-0.189913
-0.183563
-0.176736
-0.168895
-0.160134
-0.150993
-0.140788
-0.129997
-0.118677
-0.106945
-0.0955781
-0.0858383
0.0697187
0.0622858
0.054418
0.0454835
0.0347508
0.0219047
0.00687102
-0.00982847
-0.0277516
-0.0466339
-0.0662597
-0.086488
-0.106677
-0.126499
-0.14523
-0.162966
-0.178984
-0.193358
-0.205629
-0.215711
-0.223455
-0.228796
-0.232059
-0.233272
-0.232676
-0.230986
-0.228195
-0.22474
-0.220945
-0.216488
-0.211582
-0.206846
-0.201113
-0.194382
-0.186843
-0.178318
-0.170001
-0.161007
-0.15157
-0.143826
0.0637284
0.0504503
0.0370542
0.0232259
0.00878138
-0.00677297
-0.0235804
-0.0417062
-0.0612593
-0.0822632
-0.104019
-0.126575
-0.149243
-0.171455
-0.192403
-0.212373
-0.230077
-0.2462
-0.259354
-0.270466
-0.2788
-0.284481
-0.2881
-0.289256
-0.288768
-0.286951
-0.283945
-0.280647
-0.276911
-0.273003
-0.269176
-0.265245
-0.261282
-0.257066
-0.252508
-0.247405
-0.241654
-0.236198
-0.231707
-0.228738
0.0888041
0.0774581
0.0619299
0.0432594
0.0218308
-0.00168861
-0.0267821
-0.053126
-0.0795434
-0.106172
-0.132508
-0.158753
-0.184181
-0.20849
-0.231058
-0.251968
-0.270381
-0.28599
-0.2991
-0.30872
-0.315964
-0.319957
-0.321605
-0.321447
-0.319237
-0.316646
-0.313546
-0.310722
-0.308913
-0.30773
-0.30757
-0.308303
-0.309251
-0.310395
-0.311106
-0.310879
-0.310175
-0.308931
-0.308356
-0.309889
0.0244663
-0.00188141
-0.0267664
-0.0521363
-0.0776694
-0.103786
-0.131191
-0.159641
-0.190307
-0.221153
-0.253115
-0.283721
-0.313693
-0.341778
-0.3676
-0.390531
-0.410391
-0.426506
-0.43921
-0.44783
-0.452409
-0.453603
-0.451192
-0.446429
-0.439169
-0.430952
-0.422385
-0.414749
-0.408693
-0.404867
-0.403402
-0.404515
-0.408178
-0.41396
-0.422
-0.431063
-0.440597
-0.449435
-0.457547
-0.46436
0.105841
0.0725754
0.0344526
-0.00337949
-0.0416736
-0.0789559
-0.117878
-0.156137
-0.194386
-0.23106
-0.266869
-0.30092
-0.332453
-0.361717
-0.387603
-0.410369
-0.429461
-0.444375
-0.454551
-0.459746
-0.459432
-0.454044
-0.443458
-0.42886
-0.410941
-0.391917
-0.372137
-0.354117
-0.338004
-0.326011
-0.318823
-0.318522
-0.325301
-0.339072
-0.358768
-0.385368
-0.418113
-0.456043
-0.500761
-0.519933
-0.252395
-0.294502
-0.339351
-0.392518
-0.451205
-0.510068
-0.567769
-0.622696
-0.674061
-0.719777
-0.759922
-0.7969
-0.83074
-0.862509
-0.890578
-0.913774
-0.930663
-0.9399
-0.941379
-0.934839
-0.921363
-0.900538
-0.872909
-0.838733
-0.798962
-0.754387
-0.707851
-0.660369
-0.614082
-0.570045
-0.530128
-0.495112
-0.46767
-0.448507
-0.438962
-0.440496
-0.452527
-0.47357
-0.494428
-0.495269
-0.0135231
-0.01238
-0.0137518
-0.0147831
-0.0154498
-0.016488
-0.016519
-0.0146751
-0.0116273
-0.00713545
0.000953755
0.000287876
0.00485097
0.00526334
0.006666
0.00537386
0.0047562
0.00373219
0.00314646
0.00249212
0.00217076
0.00189027
0.00177189
0.00171474
0.00176848
0.0018553
0.00200007
0.00214139
0.00229778
0.00241582
0.00255722
0.00267942
0.00279789
0.00288445
0.00299009
0.00313463
0.00332066
0.0034924
0.00331544
0.00289078
-0.0122788
-0.0131635
-0.0146212
-0.0159185
-0.0168658
-0.0181145
-0.0185052
-0.0166965
-0.0133354
-0.00828908
0.00104782
0.000780349
0.00597835
0.00676098
0.007447
0.00596809
0.00514795
0.00396912
0.00324329
0.00249368
0.00210824
0.00181071
0.0016383
0.00158774
0.00164766
0.00176072
0.00193913
0.0020785
0.00221727
0.00232398
0.00245433
0.00256239
0.00267554
0.00280061
0.00294755
0.00313608
0.00333104
0.00347208
0.00314783
0.00223622
-0.0136017
-0.0138582
-0.0154745
-0.0172134
-0.0184221
-0.0200331
-0.0208634
-0.0192024
-0.0154527
-0.0096512
0.00091026
0.0018263
0.00716975
0.00851851
0.00836062
0.00668617
0.00562574
0.00429001
0.00339104
0.00251824
0.00207595
0.00176649
0.00151899
0.00147385
0.0014985
0.00162186
0.00179516
0.0019233
0.00206052
0.00217341
0.00232811
0.00244701
0.00259366
0.00274685
0.00292052
0.00311118
0.00330927
0.0034847
0.0035852
0.00372284
-0.0127693
-0.0145341
-0.0163948
-0.0186079
-0.0201949
-0.0222921
-0.0236655
-0.0222879
-0.0180825
-0.0113394
0.000297957
0.00349513
0.00865236
0.0103388
0.00944381
0.0075248
0.00617503
0.00469955
0.00356046
0.00261774
0.00211484
0.00174642
0.00143122
0.00138221
0.00136526
0.00150438
0.00163203
0.00177172
0.00191744
0.00205058
0.00222242
0.00236833
0.0025367
0.00269206
0.00287046
0.00305495
0.00325275
0.0033836
0.00330474
0.00290324
-0.0142518
-0.0153705
-0.0175114
-0.0202379
-0.022338
-0.0250058
-0.027024
-0.025963
-0.0213439
-0.0134287
-0.000775593
0.00551903
0.0104227
0.0121507
0.0107304
0.00845069
0.00676966
0.00517105
0.00373975
0.00279239
0.00219254
0.00172725
0.0013667
0.00129702
0.00124058
0.00137594
0.00145945
0.00161903
0.00176527
0.00193812
0.00210997
0.00227204
0.0024454
0.0026019
0.00278737
0.0029845
0.00319633
0.00336866
0.00355871
0.00383602
-0.0136205
-0.0161585
-0.0188627
-0.0221839
-0.0249386
-0.0282917
-0.0311513
-0.0303856
-0.025307
-0.0158168
-0.00233407
0.00745782
0.012603
0.0140258
0.0121315
0.00950811
0.00738196
0.00564974
0.00398382
0.00301369
0.00226022
0.00168024
0.00129806
0.00117496
0.00108951
0.00120537
0.00125904
0.0014406
0.00160113
0.00181971
0.00198975
0.00216591
0.00236841
0.00254803
0.00275376
0.00296716
0.00317216
0.00332338
0.00334244
0.00323466
-0.0152335
-0.0170478
-0.0202381
-0.0242592
-0.0279946
-0.0321744
-0.0361961
-0.035771
-0.0301025
-0.018543
-0.00427774
0.00918114
0.0151191
0.0160253
0.0136255
0.0106943
0.00800253
0.00613147
0.00427079
0.00320081
0.00224419
0.00157539
0.00119456
0.00101599
0.00092857
0.00101915
0.00106197
0.0012516
0.00141617
0.00165511
0.00185481
0.00210149
0.00235696
0.00255687
0.00276918
0.00295211
0.00313827
0.0032944
0.00346271
0.00374099
-0.0149095
-0.0180191
-0.021869
-0.0265659
-0.0315853
-0.0368064
-0.0422977
-0.0423459
-0.0358385
-0.0216942
-0.00648536
0.0104151
0.0179671
0.0181782
0.0151287
0.0119592
0.00867429
0.00663197
0.00454571
0.00340252
0.00221059
0.00151239
0.00109889
0.000869076
0.000772907
0.000809107
0.00083536
0.000996276
0.00116184
0.0014171
0.0016804
0.00199297
0.00227272
0.00248868
0.00269814
0.00286501
0.00306398
0.00321233
0.00331061
0.00340493
-0.0167601
-0.0193046
-0.0239913
-0.0294635
-0.0359861
-0.0426519
-0.0498244
-0.0504903
-0.0427535
-0.025539
-0.00890918
0.0113167
0.0208858
0.0203233
0.0166758
0.0132622
0.0094236
0.00715512
0.0048743
0.00364279
0.00227605
0.00155595
0.0010273
0.000741761
0.000587358
0.000544461
0.000561074
0.000700298
0.000870594
0.00112106
0.00140285
0.00171471
0.00200049
0.00225644
0.00249808
0.00272352
0.00298137
0.00315442
0.00332502
0.0035628
-0.0166183
-0.0205348
-0.0265077
-0.0330619
-0.0414467
-0.0501938
-0.0594537
-0.0607462
-0.0510902
-0.0303976
-0.0114789
0.0119406
0.0236566
0.022343
0.0183341
0.0144409
0.0102414
0.00768698
0.0052354
0.00379091
0.00240404
0.00161519
0.000948768
0.00061387
0.000398983
0.000334983
0.000354869
0.00047408
0.00063113
0.000860114
0.0011192
0.00141628
0.00171687
0.00201382
0.00231323
0.0026155
0.00290642
0.00308994
0.00325361
0.00345166
-0.0184089
-0.0218507
-0.0290602
-0.0370022
-0.047797
-0.0597096
-0.0717898
-0.0737953
-0.0612348
-0.0363632
-0.0141188
0.0123012
0.0261711
0.0241829
0.0199687
0.0153484
0.0110537
0.00810685
0.00555917
0.00383142
0.00247668
0.00155532
0.000863081
0.000475326
0.000247476
0.000187457
0.000214381
0.000334416
0.000502386
0.000757181
0.00101267
0.00132652
0.00160961
0.001905
0.0022087
0.00249662
0.00277189
0.00296395
0.00317924
0.00339334
-0.0193005
-0.0231854
-0.0318321
-0.0413794
-0.0549675
-0.0715071
-0.0876222
-0.0902675
-0.0735612
-0.0435791
-0.0171947
0.0124036
0.0283813
0.0257494
0.0213964
0.0161081
0.0117269
0.0083493
0.00577838
0.003735
0.00240027
0.00131352
0.000672142
0.000201402
-3.05381e-05
-8.84086e-05
-3.45518e-05
0.000113018
0.000331408
0.000656106
0.000931051
0.00126033
0.00147271
0.00174822
0.00199664
0.00226474
0.00252457
0.00277358
0.00311594
0.00336489
-0.0217339
-0.0254351
-0.0352711
-0.0471543
-0.064116
-0.0870118
-0.109301
-0.11133
-0.0885393
-0.0520927
-0.0205668
0.0118824
0.0300594
0.0268518
0.0225415
0.0167647
0.0122282
0.00853078
0.00582656
0.00357622
0.00220755
0.000994806
0.000324945
-0.000259626
-0.000508076
-0.000605599
-0.000539918
-0.000357614
-0.00010796
0.000256091
0.000516805
0.000853918
0.00105207
0.00137857
0.00161414
0.00194153
0.00221406
0.00254248
0.0029107
0.00315503
-0.0230201
-0.0284137
-0.0392645
-0.0543397
-0.0769807
-0.109702
-0.138423
-0.139744
-0.106904
-0.0621933
-0.0246466
0.0111057
0.030626
0.0274419
0.0233203
0.0171073
0.0126475
0.00870999
0.00581534
0.00354505
0.00202415
0.000778559
-5.28345e-08
-0.000662141
-0.000954099
-0.00112187
-0.00107545
-0.000927475
-0.00068766
-0.000352163
-0.000100542
0.000287915
0.000571483
0.00102264
0.00133488
0.00175348
0.00202181
0.00240741
0.00285033
0.00317799
-0.0242481
-0.0317663
-0.0434247
-0.0615553
-0.0941903
-0.143895
-0.17838
-0.17547
-0.12907
-0.0742386
-0.0291774
0.0102326
0.0294545
0.0272528
0.0232858
0.0170406
0.0128369
0.00861925
0.00576855
0.00356265
0.00189755
0.00074683
-0.000130077
-0.000788189
-0.0011248
-0.00134255
-0.00132631
-0.00126428
-0.00102798
-0.000746088
-0.00044939
-1.89479e-05
0.000375455
0.000910652
0.00127294
0.00169961
0.0019427
0.00236092
0.00266047
0.0029063
-0.0255519
-0.0351131
-0.0477783
-0.0709894
-0.11914
-0.182674
-0.234521
-0.217134
-0.153774
-0.0881624
-0.0343177
0.00992698
0.0261303
0.0255044
0.0220009
0.0165087
0.0123525
0.00814206
0.00544654
0.00326458
0.00160385
0.000554007
-0.000335989
-0.000925156
-0.00126218
-0.00150622
-0.00148319
-0.00144121
-0.00116781
-0.000949782
-0.00057965
-0.000219269
0.000230538
0.000697264
0.00105962
0.00144818
0.00173423
0.00220689
0.00251565
0.00280841
-0.0269614
-0.0388524
-0.0526095
-0.0839539
-0.157428
-0.232777
-0.302955
-0.264565
-0.179248
-0.101878
-0.0406528
0.00903841
0.0206459
0.0220181
0.0196885
0.0150053
0.0110117
0.00710775
0.00453712
0.00242669
0.000872886
-0.000210436
-0.0010771
-0.00165329
-0.00192767
-0.00212848
-0.00199881
-0.00193784
-0.00161093
-0.0014177
-0.0010249
-0.000799583
-0.000307119
3.08401e-05
0.000471403
0.000826506
0.00123707
0.001711
0.00201994
0.00234474
-0.0286338
-0.0423933
-0.0595516
-0.100456
-0.195574
-0.31031
-0.384959
-0.312848
-0.203672
-0.115171
-0.0458124
0.00414734
0.0138774
0.0171952
0.0162086
0.0124132
0.0090292
0.00540689
0.00321112
0.00109295
-0.000248841
-0.00152369
-0.00226549
-0.00287198
-0.00300514
-0.00316079
-0.00289464
-0.00284901
-0.00243489
-0.00225071
-0.00186097
-0.00163078
-0.00115563
-0.00078376
-0.000269435
8.85085e-05
0.000616683
0.00109013
0.00155707
0.00186132
-0.0286492
-0.0430101
-0.066183
-0.126341
-0.237268
-0.41152
-0.468073
-0.351314
-0.224736
-0.125916
-0.0499166
-0.00706725
0.00531483
0.0107989
0.0107906
0.00895535
0.00627393
0.00330251
0.00164125
-0.000461753
-0.0014672
-0.00279362
-0.00328647
-0.00392704
-0.00395602
-0.00411633
-0.00376928
-0.00372945
-0.00322091
-0.00306827
-0.00260462
-0.00233566
-0.0018674
-0.00142609
-0.00083543
-0.000337398
0.000205371
0.000658737
0.00113773
0.00136374
-0.0277628
-0.0414905
-0.0636534
-0.155619
-0.299651
-0.50898
-0.521475
-0.369791
-0.235353
-0.130753
-0.0581618
-0.0225647
-0.00736591
0.00171359
0.00296977
0.00407455
0.0023531
0.000747394
-0.000524438
-0.00200432
-0.00275507
-0.00380844
-0.0041963
-0.00466875
-0.00471808
-0.0047046
-0.00445555
-0.00434029
-0.00385309
-0.00364516
-0.00308483
-0.00280385
-0.00222396
-0.0017486
-0.00109736
-0.000602632
-0.000123429
0.000308542
0.00070871
0.00091859
-0.0246069
-0.0378021
-0.0592101
-0.163903
-0.344188
-0.526245
-0.49766
-0.349916
-0.233401
-0.134471
-0.0727934
-0.0410129
-0.0238409
-0.0113254
-0.00727172
-0.00296818
-0.00343065
-0.0028396
-0.00384006
-0.00404247
-0.00482041
-0.00515944
-0.00560551
-0.00552187
-0.00568408
-0.00526977
-0.00534693
-0.00488902
-0.00459933
-0.00418709
-0.00367956
-0.0033086
-0.00266186
-0.00217882
-0.00150724
-0.00108658
-0.000580142
-0.000151629
0.00024388
0.000429523
-0.0156051
-0.0225895
-0.0555809
-0.141459
-0.31037
-0.43553
-0.391396
-0.297359
-0.21569
-0.138483
-0.0946854
-0.0652407
-0.0438692
-0.0293292
-0.0202532
-0.0129903
-0.0113709
-0.0083271
-0.00861486
-0.00725365
-0.00799153
-0.00732068
-0.00771322
-0.00708861
-0.00727498
-0.00661966
-0.00670042
-0.00598434
-0.00587462
-0.00520772
-0.00491024
-0.00435599
-0.00376493
-0.00316769
-0.00249485
-0.0019976
-0.00136616
-0.000906101
-0.000433606
-0.000260683
0.00269428
-0.00107294
-0.0307284
-0.105606
-0.220424
-0.292738
-0.273582
-0.244559
-0.197797
-0.155779
-0.126809
-0.0950968
-0.0697199
-0.0525246
-0.037182
-0.0269324
-0.0213854
-0.016162
-0.0146198
-0.0119275
-0.0119185
-0.010557
-0.0107191
-0.00973864
-0.00984148
-0.00901539
-0.00886485
-0.00812602
-0.00771812
-0.00700464
-0.00682374
-0.00598991
-0.00543096
-0.00457323
-0.00389664
-0.00312665
-0.00239858
-0.00180997
-0.0013186
-0.00114217
0.025825
0.0206693
0.00537384
-0.0432323
-0.135283
-0.178705
-0.196656
-0.205265
-0.189839
-0.181361
-0.160128
-0.131969
-0.107361
-0.081139
-0.0596395
-0.0446808
-0.0337082
-0.0263428
-0.0215815
-0.0181413
-0.0164219
-0.0150597
-0.0140909
-0.0131663
-0.0126882
-0.0116681
-0.01128
-0.0103121
-0.00970879
-0.00889726
-0.00841212
-0.00748135
-0.0068188
-0.00576416
-0.00509682
-0.00411926
-0.00341282
-0.00270036
-0.0022632
-0.00202843
0.0449409
0.0457294
0.0411809
0.00191667
-0.0609276
-0.103728
-0.14882
-0.177378
-0.189324
-0.200761
-0.193027
-0.179655
-0.148352
-0.115995
-0.0880366
-0.0660567
-0.0489578
-0.038394
-0.0296817
-0.0253607
-0.0212484
-0.0197154
-0.0172691
-0.0164351
-0.0148761
-0.0138993
-0.0128411
-0.0119322
-0.0110474
-0.010225
-0.00947362
-0.00859944
-0.00777957
-0.00683456
-0.00610367
-0.00509166
-0.00438729
-0.00364235
-0.00315549
-0.00285602
0.0601729
0.0659128
0.0635747
0.0303563
-0.0138974
-0.0688062
-0.120354
-0.159716
-0.193815
-0.224124
-0.232803
-0.226144
-0.195185
-0.161072
-0.122657
-0.0924844
-0.0685387
-0.0526759
-0.0405388
-0.0335705
-0.0275175
-0.0248314
-0.021247
-0.0199596
-0.0176266
-0.0166663
-0.0150043
-0.0142769
-0.0130086
-0.0122204
-0.0111672
-0.0104633
-0.00942478
-0.00853623
-0.00752095
-0.00646859
-0.00564017
-0.00489987
-0.0043362
-0.00405352
0.0703063
0.0759079
0.0692028
0.0411382
0.00123621
-0.0547718
-0.104271
-0.150356
-0.199324
-0.246913
-0.275602
-0.279831
-0.255215
-0.213012
-0.167078
-0.126513
-0.0943494
-0.0715629
-0.056075
-0.0448055
-0.0375651
-0.0323426
-0.0284443
-0.0257665
-0.0233977
-0.0217654
-0.0198553
-0.0187536
-0.0171044
-0.0160976
-0.0146905
-0.0137219
-0.0124267
-0.0112602
-0.00988661
-0.00877969
-0.00774256
-0.00677679
-0.00602921
-0.00583493
0.0706507
0.0723246
0.0627581
0.0385779
0.000844281
-0.0513789
-0.0955623
-0.144199
-0.201391
-0.265503
-0.314378
-0.334511
-0.322529
-0.275587
-0.220832
-0.167992
-0.125964
-0.0952661
-0.0744826
-0.0592013
-0.0497571
-0.0420728
-0.0376115
-0.0332919
-0.0309925
-0.0281908
-0.0263211
-0.0243309
-0.0226386
-0.0211321
-0.0195113
-0.0180991
-0.0165389
-0.014975
-0.013501
-0.0121035
-0.0106601
-0.00942229
-0.00850091
-0.00813504
0.0612613
0.0592256
0.0478034
0.0264335
-0.00712783
-0.0504584
-0.0912555
-0.13777