/*--------------------------------*- C++ -*----------------------------------*\
  =========                 |
  \\      /  F ield         | OpenFOAM: The Open Source CFD Toolbox
   \\    /   O peration     | Website:  https://openfoam.org
    \\  /    A nd           | Version:  11
     \\/     M anipulation  |
\*---------------------------------------------------------------------------*/
FoamFile
{
    format      ascii;
    class       surfaceScalarField;
    location    "6";
    object      phi;
}
// * * * * * * * * * * * * * * * * * * * * * * * * * * * * * * * * * * * * * //

dimensions      [0 3 -1 0 0 0 0];

internalField   nonuniform List<scalar> 
18960
(
0.0889792
0.000412104
-0.0893913
0.0885978
0.000381433
0.0882663
0.000331505
0.0879804
0.000285875
0.0877167
0.000263719
0.0874814
0.000235269
0.0872711
0.000210366
0.0871085
0.000162522
0.0869761
0.000132441
0.0868985
7.7604e-05
0.0868613
3.71647e-05
0.0868686
-7.22855e-06
0.0868995
-3.09672e-05
0.0869712
-7.17e-05
0.0871382
-0.000167001
0.0873453
-0.000207084
0.0873707
-2.54352e-05
0.0869306
0.00044019
0.0857666
0.00116396
0.0844352
0.00133138
0.0835798
0.000855367
0.0833776
0.000202262
0.0836678
-0.000290255
0.0845667
-0.000898858
0.085877
-0.00131034
0.0872457
-0.00136867
0.0884668
-0.00122114
0.0895653
-0.00109846
0.0905631
-0.000997823
0.0914893
-0.000926193
0.0921023
-0.000612964
0.0924798
-0.000377482
0.0925723
-9.25267e-05
0.0925817
-9.39461e-06
0.0924529
0.000128831
0.092314
0.00013891
0.0921629
0.000151049
0.0920311
0.000131775
0.0917938
0.000237375
-0.000473924
0.0922677
0.08907
0.000748477
-0.0894064
0.0887594
0.000692005
0.0884676
0.000623311
0.0881949
0.000558554
0.0879559
0.000502734
0.0877592
0.000432007
0.0876194
0.000350149
0.0875063
0.000275667
0.0874229
0.000215785
0.0874065
9.39803e-05
0.0874718
-2.80591e-05
0.0875123
-4.77483e-05
0.0875612
-7.98285e-05
0.0876514
-0.000161978
0.0877806
-0.000296141
0.0879568
-0.000383362
0.0881559
-0.000224461
0.0883972
0.000198877
0.0886932
0.000867973
0.088895
0.00112958
0.0888257
0.000924639
0.0887116
0.000316373
0.0887451
-0.000323773
0.0889972
-0.00115092
0.0894802
-0.00179336
0.0902207
-0.00210912
0.0910976
-0.00209809
0.0919745
-0.00197534
0.0928783
-0.00190161
0.0937135
-0.00176138
0.094463
-0.00136255
0.0951106
-0.00102503
0.0955682
-0.000550119
0.0958933
-0.00033454
0.0960407
-1.85179e-05
0.0961342
4.53537e-05
0.096029
0.000256232
0.0959536
0.000207253
0.0956984
0.000492581
0.000103687
0.0951208
0.0891005
0.00107883
-0.0894309
0.0887848
0.0010077
0.0885113
0.000896803
0.0882743
0.000795592
0.0880541
0.000722962
0.0878805
0.000605581
0.0877304
0.000500208
0.0876024
0.000403716
0.0875267
0.000291502
0.0875396
8.10803e-05
0.0875847
-7.32189e-05
0.0876402
-0.000103245
0.0876397
-7.931e-05
0.0877177
-0.000240026
0.0879077
-0.000486132
0.088232
-0.000707608
0.0885843
-0.000576779
0.0887749
8.28961e-06
0.0888173
0.000825592
0.0887521
0.00119475
0.0884778
0.00119891
0.0881697
0.000624518
0.0880865
-0.000240553
0.0882961
-0.00136054
0.0886802
-0.00217748
0.0892945
-0.00272344
0.089986
-0.00278954
0.0908005
-0.00278985
0.091464
-0.00256512
0.092207
-0.00250438
0.0928509
-0.00200642
0.0935226
-0.00169672
0.0939848
-0.00101232
0.0943024
-0.000652138
0.0944699
-0.000186045
0.0945737
-5.84532e-05
0.0944258
0.000404078
0.0943403
0.000292785
0.0941791
0.000653783
6.96247e-05
0.0942132
0.0891037
0.00141117
-0.0894361
0.0888058
0.0013056
0.0885195
0.00118313
0.0882886
0.00102647
0.0880832
0.000928373
0.0879107
0.000778087
0.0877526
0.000658274
0.0876666
0.00048972
0.0876196
0.000338497
0.0876043
9.64417e-05
0.0875967
-6.56707e-05
0.0876712
-0.000177685
0.0877414
-0.000149581
0.0878022
-0.00030083
0.0879259
-0.00060974
0.0882098
-0.000991549
0.0884928
-0.000859752
0.0887277
-0.000226667
0.0889155
0.000637846
0.0891067
0.0010035
0.0893766
0.000928988
0.0896548
0.000346311
0.0899908
-0.000576496
0.0903688
-0.00173856
0.0907406
-0.00254932
0.0912599
-0.00324271
0.0918325
-0.00336217
0.0924958
-0.00345311
0.0931504
-0.00321975
0.0938752
-0.00322915
0.0945558
-0.00268706
0.0952998
-0.00244073
0.095893
-0.00160551
0.0964065
-0.00116562
0.0966597
-0.000439234
0.0968114
-0.000210142
0.0968646
0.000350858
0.0968737
0.00028374
0.0966307
0.000896784
0.00046917
0.0962311
0.0891301
0.00171579
-0.0894347
0.0888294
0.00160628
0.088555
0.00145754
0.08832
0.00126144
0.0881095
0.00113891
0.0879489
0.000938631
0.0878121
0.000795044
0.0877406
0.000561283
0.0876755
0.000403605
0.0876624
0.000109496
0.0876655
-6.8756e-05
0.0877034
-0.000215612
0.087794
-0.000240114
0.0879672
-0.000474045
0.0881057
-0.000748302
0.0881758
-0.00106161
0.0882828
-0.00096675
0.0886611
-0.000604946
0.0892106
8.83027e-05
0.0897123
0.000501822
0.0900138
0.00062748
0.0901208
0.000239322
0.0900589
-0.000514577
0.0899898
-0.00166944
0.0899888
-0.00254836
0.0901615
-0.00341539
0.0904939
-0.00369458
0.0910114
-0.0039706
0.0916005
-0.00380882
0.0921686
-0.00379726
0.0927687
-0.00328722
0.0933302
-0.00300218
0.093912
-0.00218735
0.0943853
-0.00163893
0.0947676
-0.000821484
0.0950284
-0.000470965
0.0951992
0.000180015
0.0953062
0.000176792
0.0953434
0.000859563
0.000408082
0.0954045
0.0891323
0.00202392
-0.0894404
0.0888392
0.0018994
0.0885806
0.00171609
0.0883547
0.00148741
0.0881645
0.00132903
0.0880103
0.00109288
0.0878812
0.000924131
0.08781
0.00063254
0.0877387
0.000474898
0.08773
0.000118132
0.0877453
-8.40029e-05
0.0878458
-0.00031609
0.0879216
-0.000315937
0.0880054
-0.000557861
0.0880748
-0.000817666
0.0882407
-0.00122755
0.0884823
-0.00120837
0.0887779
-0.00090055
0.0891261
-0.000259842
0.0894419
0.000186
0.0897928
0.000276539
0.0901492
-0.000117084
0.0905157
-0.000881009
0.0908716
-0.00202534
0.0911685
-0.00284529
0.0915634
-0.00381027
0.0920299
-0.00416113
0.0926087
-0.00454939
0.0932271
-0.00442717
0.0939088
-0.00447896
0.0946146
-0.00399306
0.0953992
-0.00378683
0.0961388
-0.00292692
0.0968249
-0.00232497
0.0972887
-0.00128538
0.0975718
-0.000753988
0.0976912
6.05634e-05
0.0976935
0.00017447
0.0976816
0.00087147
0.000727932
0.0973618
0.0891481
0.00232407
-0.0894482
0.0888759
0.00217151
0.0886257
0.0019663
0.0884199
0.00169327
0.0882173
0.00153161
0.0880723
0.00123791
0.0879506
0.00104579
0.0878793
0.000703801
0.0878043
0.000549891
0.0877892
0.000133282
0.0878198
-0.000114652
0.0879413
-0.000437574
0.0879978
-0.00037243
0.0880365
-0.000596577
0.0881402
-0.000921315
0.0883277
-0.00141504
0.0885299
-0.00141061
0.0887669
-0.00113757
0.0890813
-0.000574206
0.0895
-0.000232663
0.089934
-0.000157499
0.0903487
-0.0005318
0.0906075
-0.00113976
0.0907597
-0.00217757
0.0908385
-0.00292404
0.0909281
-0.00389992
0.0910935
-0.0043265
0.0914032
-0.00485913
0.0918303
-0.00485423
0.0923495
-0.00499823
0.092897
-0.00454047
0.0934173
-0.00430714
0.0940052
-0.00351485
0.0945751
-0.00289489
0.09514
-0.00185022
0.0955839
-0.00119795
0.0959717
-0.000327243
0.0962768
-0.000130628
0.0964616
0.000686697
0.000540135
0.0966494
0.0891494
0.00261315
-0.0894385
0.0888799
0.00244104
0.0886448
0.00220139
0.0884457
0.00189233
0.0882663
0.00171102
0.0881416
0.00136259
0.0880289
0.00115851
0.087948
0.000784692
0.0878854
0.000612478
0.0878978
0.000120944
0.0879315
-0.000148438
0.0879958
-0.000501858
0.0880767
-0.00045328
0.088197
-0.000716928
0.0882918
-0.00101608
0.0883772
-0.00150047
0.088527
-0.00156036
0.0887944
-0.00140499
0.0891816
-0.000961446
0.0895498
-0.00060079
0.0898654
-0.000473141
0.0901183
-0.000784722
0.0903546
-0.00137605
0.0906697
-0.00249265
0.0910104
-0.00326475
0.0914283
-0.00431783
0.091876
-0.00477415
0.0924202
-0.0054034
0.0930417
-0.00547566
0.0937147
-0.00567124
0.0944687
-0.00529446
0.0952762
-0.00511468
0.0961381
-0.00437672
0.0970139
-0.00377075
0.0977558
-0.00259205
0.0983476
-0.00178974
0.0986226
-0.000602312
0.0987129
-0.000220935
0.0988165
0.000583094
0.000764697
0.098592
0.0891894
0.00289223
-0.0894685
0.0889279
0.00270261
0.0887119
0.00241731
0.0885288
0.0020755
0.0883821
0.00185769
0.0882306
0.0015141
0.0881363
0.00125282
0.0880663
0.000854717
0.0880178
0.000660893
0.0880107
0.000128115
0.0880407
-0.000178498
0.0881156
-0.000576755
0.088218
-0.000555604
0.0883184
-0.000817356
0.0883842
-0.00108191
0.0884561
-0.00157238
0.0886166
-0.00172081
0.0888381
-0.00162649
0.0891293
-0.00125269
0.0894795
-0.000951014
0.0898086
-0.00080225
0.0901591
-0.00113514
0.0904259
-0.00164292
0.0906119
-0.0026786
0.0908172
-0.00347006
0.0910735
-0.00457411
0.0913556
-0.0050563
0.0916782
-0.00572598
0.0920812
-0.00587863
0.092579
-0.00616909
0.0931427
-0.00585817
0.0937342
-0.00570617
0.0943085
-0.004951
0.0948753
-0.0043376
0.0955213
-0.00323797
0.0961374
-0.0024059
0.0967648
-0.00122967
0.0972361
-0.000692254
0.0976359
0.000183306
0.000416141
0.0979845
0.0891621
0.00317277
-0.0894426
0.0889432
0.00292149
0.0887431
0.00261736
0.0885522
0.00226637
0.0883951
0.00201479
0.0882861
0.0016231
0.0881897
0.00134921
0.0881269
0.000917591
0.0880756
0.000712189
0.0880817
0.000121949
0.0881203
-0.000217093
0.0881925
-0.000648928
0.088282
-0.000645059
0.0883819
-0.000917319
0.0884721
-0.00117204
0.0885505
-0.00165081
0.088655
-0.00182535
0.0888425
-0.00181391
0.0891175
-0.0015277
0.0894813
-0.00131486
0.0898359
-0.00115688
0.0901243
-0.00142354
0.0902731
-0.00179167
0.0903846
-0.0027901
0.090539
-0.00362445
0.0908494
-0.00488449
0.0912841
-0.00549105
0.0918537
-0.00629557
0.0924725
-0.00649744
0.0932213
-0.00691786
0.0940168
-0.00665373
0.0949463
-0.0066356
0.095894
-0.00589872
0.0969219
-0.0053655
0.0978962
-0.00421229
0.098812
-0.00332168
0.0994567
-0.00187434
0.0998665
-0.00110211
0.100028
2.17385e-05
0.000455655
0.0999886
0.0892374
0.00344711
-0.0895117
0.0890149
0.00314395
0.0888231
0.00280913
0.0886633
0.0024262
0.0885043
0.0021738
0.0883929
0.00173449
0.0882984
0.00144366
0.0882407
0.000975295
0.0882411
0.000711867
0.0882249
0.00013813
0.0882387
-0.000230893
0.08828
-0.000690282
0.0883951
-0.000760108
0.0885284
-0.00105062
0.0886149
-0.00125851
0.0886423
-0.00167825
0.0886934
-0.00187646
0.0888647
-0.00198522
0.0891244
-0.0017874
0.0894918
-0.0016822
0.0897808
-0.00144596
0.0900563
-0.00169901
0.0902808
-0.00201616
0.0904035
-0.00291283
0.0904795
-0.00370039
0.0905769
-0.00498188
0.0908146
-0.00572881
0.0912404
-0.00672136
0.0917452
-0.00700224
0.0923646
-0.00753723
0.0930597
-0.00734889
0.0938285
-0.00740435
0.0945895
-0.00665974
0.0953449
-0.00612093
0.0960429
-0.00491026
0.0967726
-0.00405134
0.0975443
-0.00264608
0.0981958
-0.00175359
0.0988249
-0.000607366
-4.68255e-06
0.0992852
0.0892203
0.00371104
-0.0894842
0.0890351
0.00332918
0.0888311
0.00301312
0.0886773
0.00257994
0.0885448
0.00230629
0.0884466
0.00183271
0.0883554
0.00153486
0.088319
0.00101168
0.0882951
0.000735808
0.0882895
0.000143705
0.0882819
-0.00022323
0.0883451
-0.000753558
0.0884687
-0.00088369
0.088589
-0.00117092
0.088669
-0.00133848
0.0887322
-0.00174151
0.0887857
-0.00192997
0.0889272
-0.00212663
0.0891389
-0.00199911
0.0894381
-0.00198139
0.0897738
-0.00178171
0.0900635
-0.00198867
0.0902609
-0.00221359
0.0903145
-0.0029664
0.090288
-0.00367387
0.0902842
-0.00497814
0.0903924
-0.00583702
0.0907754
-0.00710434
0.0913229
-0.00754974
0.0921591
-0.00837341
0.0930749
-0.00826469
0.0941736
-0.0085031
0.0953032
-0.00778931
0.0965548
-0.00737248
0.097747
-0.00610245
0.098933
-0.00523742
0.0999588
-0.0036719
0.100816
-0.0026112
0.101265
-0.00105635
-0.000236685
0.101497
0.0893412
0.00394744
-0.0895776
0.0891264
0.00354393
0.0889467
0.00319289
0.0887965
0.00273012
0.088666
0.00243673
0.0885542
0.00194451
0.0884842
0.00160487
0.0884408
0.00105513
0.0884196
0.000757011
0.0884238
0.000139446
0.0884414
-0.000240785
0.0884838
-0.000795926
0.0885879
-0.000987851
0.0887043
-0.00128727
0.0887875
-0.00142174
0.0888696
-0.00182359
0.088917
-0.00197733
0.0890423
-0.00225199
0.0891741
-0.00213085
0.0894484
-0.00225576
0.0897356
-0.00206889
0.0900008
-0.00225382
0.0901679
-0.00238077
0.0902537
-0.00305212
0.0902715
-0.00369167
0.0901797
-0.00488635
0.0901324
-0.00578972
0.0902747
-0.00724667
0.0906185
-0.0078935
0.0912485
-0.00900343
0.0920368
-0.00905304
0.0930697
-0.009536
0.0941826
-0.00890215
0.0953395
-0.00852944
0.0964543
-0.00721726
0.0974526
-0.00623572
0.0983854
-0.00460463
0.0992889
-0.00351468
0.100064
-0.00183168
-0.000832462
0.10066
0.0893263
0.00417023
-0.0895491
0.0891617
0.00370854
0.0889934
0.00336117
0.0888397
0.00288386
0.0887253
0.00255108
0.088631
0.00203884
0.0885583
0.00167759
0.0885106
0.00110283
0.0885018
0.000765767
0.0885106
0.000130668
0.0885315
-0.000261659
0.0885684
-0.000832847
0.0886423
-0.00106172
0.0887779
-0.00142294
0.0888765
-0.00152033
0.0889778
-0.00192489
0.0890333
-0.00203277
0.0891217
-0.00234046
0.0892684
-0.00227752
0.0894395
-0.00242687
0.0896671
-0.00229643
0.0898827
-0.00246948
0.0900839
-0.00258196
0.0901638
-0.00313204
0.0901776
-0.00370545
0.0900611
-0.00476983
0.0899159
-0.00564457
0.0898887
-0.00721941
0.0900382
-0.00804307
0.090512
-0.00947717
0.0912902
-0.00983125
0.0924248
-0.0106706
0.0937825
-0.0102598
0.0953707
-0.0101176
0.0970073
-0.00885394
0.0986347
-0.00786314
0.100101
-0.00607079
0.101421
-0.00483506
0.102516
-0.00292638
-0.00142756
0.103111
0.0894676
0.00439712
-0.0896944
0.0892764
0.00389969
0.0891056
0.00353198
0.0889713
0.00301815
0.0888428
0.00267961
0.0887583
0.0021233
0.0886913
0.00174459
0.0886683
0.00112583
0.0886632
0.000770872
0.0886728
0.000121042
0.0886802
-0.000269006
0.0887248
-0.000877464
0.0888091
-0.00114602
0.0889479
-0.00156174
0.0890295
-0.00160188
0.0891339
-0.00202934
0.0891938
-0.0020927
0.0893094
-0.00245604
0.0894012
-0.00236928
0.0895266
-0.00255227
0.089658
-0.0024279
0.0898192
-0.00263058
0.0899824
-0.00274524
0.0900654
-0.00321505
0.0900817
-0.00372169
0.0899962
-0.00468436
0.0898765
-0.00552488
0.0897088
-0.00705173
0.0896747
-0.00800891
0.0898797
-0.00968222
0.0903892
-0.0103408
0.0912098
-0.0114912
0.0924339
-0.0114839
0.0939069
-0.0115906
0.0956253
-0.0105723
0.0973153
-0.00955317
0.0988944
-0.00764992
0.100212
-0.00615282
0.101398
-0.00411256
-0.00242236
0.102393
0.0894582
0.00459131
-0.0896524
0.0892858
0.00407214
0.08913
0.00368774
0.0890015
0.00314667
0.0888996
0.0027815
0.0888182
0.00220473
0.0887621
0.00180063
0.0887525
0.00113546
0.0887428
0.000780571
0.0887721
9.17783e-05
0.088771
-0.000267942
0.0888449
-0.000951391
0.0888882
-0.00118935
0.0890126
-0.00168605
0.0891079
-0.00169723
0.0892145
-0.0021359
0.0893102
-0.00218842
0.0893824
-0.00252821
0.0894838
-0.0024707
0.0895697
-0.00263816
0.0896837
-0.00254196
0.0897327
-0.00267953
0.0898318
-0.00284434
0.0898691
-0.00325232
0.0899002
-0.00375284
0.0898285
-0.00461262
0.0897292
-0.00542562
0.0895718
-0.00689431
0.0894306
-0.00786771
0.0894058
-0.00965739
0.0896682
-0.0106032
0.0902469
-0.0120699
0.0913181
-0.0125552
0.0927844
-0.0130568
0.0947484
-0.0125364
0.0968887
-0.0116935
0.0991816
-0.00994281
0.101214
-0.00818531
0.103103
-0.00600114
-0.00356602
0.104246
0.0896249
0.00479
-0.0898236
0.0894621
0.00423494
0.0893057
0.00384415
0.0891821
0.00327028
0.0890933
0.0028703
0.0890075
0.00229057
0.0889537
0.00185445
0.0889313
0.00115783
0.0889454
0.000766438
0.0889772
6.00449e-05
0.0890087
-0.000299458
0.0890695
-0.0010122
0.0890844
-0.00120427
0.0891854
-0.00178701
0.0892922
-0.00180403
0.0894215
-0.00226522
0.0895147
-0.00228168
0.0895805
-0.00259398
0.0896417
-0.00253193
0.0897057
-0.00270216
0.0897926
-0.00262885
0.0897968
-0.00268367
0.0898079
-0.00285544
0.0897642
-0.00320866
0.0897137
-0.00370239
0.0896104
-0.00450927
0.0895148
-0.00533007
0.0893591
-0.00673854
0.0892421
-0.00775076
0.0890885
-0.00950373
0.0892382
-0.010753
0.0895059
-0.0123375
0.0902591
-0.0133085
0.0913122
-0.0141099
0.0929215
-0.0141457
0.0949449
-0.0137169
0.0973637
-0.0123616
0.0996492
-0.0104708
0.101955
-0.0083064
-0.00507726
0.103466
0.089611
0.00495271
-0.0897737
0.0894687
0.00437723
0.0893352
0.00397763
0.0892115
0.00339398
0.0891284
0.00295342
0.0890704
0.00234857
0.0890168
0.00190807
0.0889904
0.0011842
0.089001
0.00075579
0.0890702
-9.09749e-06
0.0891053
-0.000334552
0.0891644
-0.00107132
0.0891807
-0.00122052
0.0892715
-0.00187783
0.0893827
-0.00191529
0.0894825
-0.00236496
0.0895829
-0.00238213
0.0896625
-0.00267355
0.0897341
-0.0026035
0.0897357
-0.00270378
0.0898136
-0.00270681
0.0898072
-0.00267721
0.0897664
-0.00281466
0.0896875
-0.00312979
0.089581
-0.00359582
0.0893854
-0.00431374
0.0892055
-0.00515013
0.0889734
-0.00650644
0.0888421
-0.00761947
0.0886541
-0.00931569
0.0886469
-0.0107458
0.088746
-0.0124365
0.08925
-0.0138125
0.0900955
-0.0149553
0.0915042
-0.0155544
0.093318
-0.0155306
0.0959578
-0.0150015
0.0986457
-0.0131588
0.101782
-0.0114428
-0.00730792
0.104013
0.0898121
0.00512081
-0.0899802
0.0896656
0.00452369
0.0895541
0.00408917
0.0894554
0.00349264
0.0893654
0.00304344
0.089323
0.00239092
0.0892824
0.00194871
0.0892617
0.00120484
0.0892551
0.000762469
0.0893016
-5.56518e-05
0.0893429
-0.000375872
0.0894168
-0.00114516
0.0894899
-0.00129369
0.0895568
-0.00194472
0.0896184
-0.00197687
0.0897088
-0.00245531
0.0897973
-0.00247066
0.0898654
-0.00274165
0.0899541
-0.00269224
0.089943
-0.00269265
0.0899403
-0.00270406
0.0899094
-0.00264637
0.0898307
-0.00273596
0.0897047
-0.00300376
0.0895386
-0.00342976
0.0892808
-0.00405589
0.0890167
-0.00488608
0.0886023
-0.00609206
0.088359
-0.00737615
0.0880717
-0.00902834
0.0879727
-0.0106468
0.0879761
-0.01244
0.0883348
-0.0141712
0.088985
-0.0156056
0.0902065
-0.0167758
0.0916825
-0.0170067
0.0939227
-0.0172416
0.0964804
-0.0157164
0.0996558
-0.0146182
-0.0101863
0.102534
0.0897864
0.00527905
-0.0899446
0.0896712
0.00463895
0.0895626
0.00419776
0.0894797
0.00357553
0.0894179
0.00310519
0.0893703
0.00243851
0.0893536
0.00196544
0.0893692
0.0011892
0.0893629
0.000768828
0.0893862
-7.89683e-05
0.0894255
-0.000415219
0.0895019
-0.00122148
0.089587
-0.00137879
0.0896654
-0.00202317
0.0897693
-0.00208075
0.0898274
-0.00251346
0.0899119
-0.00255511
0.0899314
-0.0027612
0.0900201
-0.00278087
0.0900073
-0.00267994
0.0899973
-0.00269401
0.0899319
-0.002581
0.0898335
-0.00263757
0.0896506
-0.00282079
0.0894458
-0.00322503
0.0891396
-0.00374971
0.0888445
-0.00459097
0.0883903
-0.00563778
0.0879296
-0.00691545
0.0874305
-0.00852926
0.0871305
-0.0103468
0.086896
-0.0122055
0.0869763
-0.0142516
0.0873102
-0.0159396
0.0883507
-0.0178163
0.0897617
-0.0184177
0.0919181
-0.0193981
0.0946319
-0.0184302
0.0979252
-0.0179115
-0.0136848
0.101424
0.0900599
0.00541756
-0.0901984
0.0899308
0.00476806
0.08983
0.00429856
0.0897594
0.00364609
0.089697
0.00316761
0.0896843
0.00245117
0.0896617
0.00198806
0.089687
0.00116389
0.0896935
0.000762367
0.0897398
-0.0001253
0.0897648
-0.000440214
0.0898248
-0.00128142
0.0898924
-0.00144644
0.0899744
-0.00210518
0.0900865
-0.00219279
0.0901573
-0.00258428
0.0902409
-0.00263869
0.0902522
-0.00277255
0.0902685
-0.00279716
0.0902597
-0.00267115
0.0902035
-0.00263779
0.0901655
-0.00254297
0.0900363
-0.00250837
0.0898148
-0.0025993
0.089535
-0.00294521
0.0891633
-0.00337808
0.0887568
-0.00418445
0.0882404
-0.00512135
0.0876913
-0.00636638
0.0870038
-0.00784175
0.0864165
-0.00975953
0.0858479
-0.0116368
0.0856218
-0.0140255
0.085606
-0.0159238
0.0861613
-0.0183716
0.0873223
-0.0195787
0.0892445
-0.0213203
0.0918563
-0.021042
0.0954807
-0.0215359
-0.0175584
0.0993543
0.090041
0.00554625
-0.0901697
0.0899433
0.0048657
0.0898546
0.00438732
0.0897995
0.00370113
0.0897535
0.00321364
0.0897496
0.00245505
0.0897366
0.00200108
0.0897643
0.00113618
0.0897894
0.000737274
0.0898544
-0.000190305
0.0899153
-0.000501138
0.0899615
-0.00132755
0.0900551
-0.0015401
0.0901042
-0.00215423
0.090216
-0.00230455
0.0902682
-0.00263652
0.0903697
-0.0027402
0.090386
-0.00278884
0.0904113
-0.00282247
0.0903793
-0.00263918
0.0903175
-0.002576
0.0902282
-0.00245364
0.0901132
-0.00239333
0.0898884
-0.00237458
0.0895898
-0.00264658
0.0891669
-0.00295519
0.0886882
-0.00370577
0.0880466
-0.00447975
0.087454
-0.0057738
0.0866722
-0.00705991
0.0859089
-0.00899621
0.0850571
-0.010785
0.0843434
-0.0133118
0.083801
-0.0153814
0.0836721
-0.0182426
0.084111
-0.0200176
0.0855251
-0.0227345
0.0875756
-0.0230924
0.0913195
-0.0252797
-0.0221794
0.0959404
0.0903852
0.00569895
-0.0905379
0.0902827
0.0049682
0.0902002
0.00446984
0.0901619
0.00373944
0.0901214
0.00325411
0.0901265
0.00244995
0.0901327
0.00199493
0.0901664
0.00110249
0.0902098
0.000693894
0.090249
-0.000229501
0.0903239
-0.000576076
0.0903954
-0.00139909
0.0904933
-0.00163794
0.0905517
-0.00221262
0.0906501
-0.00240294
0.0906835
-0.00266996
0.0907532
-0.00280994
0.0907702
-0.00280584
0.0907645
-0.00281672
0.0907706
-0.00264529
0.0906894
-0.00249483
0.0905743
-0.00233851
0.0904278
-0.00224683
0.0901918
-0.00213852
0.089876
-0.0023308
0.0894345
-0.00251367
0.0889038
-0.00317512
0.0881925
-0.00376843
0.0874408
-0.00502205
0.0865079
-0.00612703
0.0855374
-0.00802576
0.0844266
-0.00967415
0.0833473
-0.0122325
0.0822818
-0.0143159
0.081576
-0.0175368
0.0811464
-0.019588
0.0816751
-0.0232632
0.0827667
-0.0241841
0.0854384
-0.0279514
-0.0265186
0.0897776
0.0904043
0.00580078
-0.0905061
0.090318
0.00505449
0.0902542
0.00453362
0.0902066
0.0037871
0.0901862
0.00327451
0.0901933
0.00244288
0.0902298
0.00195837
0.0902703
0.00106196
0.0903363
0.000627905
0.0904052
-0.000298352
0.0904863
-0.000657201
0.0905475
-0.00146032
0.0906694
-0.00175982
0.0907188
-0.00226202
0.0908464
-0.00253048
0.0908945
-0.00271807
0.0909566
-0.00287211
0.0909746
-0.00282385
0.0909658
-0.00280784
0.0909364
-0.00261589
0.0909089
-0.00246734
0.090776
-0.00220566
0.0906344
-0.00210525
0.0903917
-0.00189575
0.0900874
-0.00202653
0.0896192
-0.00204544
0.0890772
-0.00263317
0.0883418
-0.00303304
0.0874987
-0.0041789
0.0864488
-0.00507716
0.0852947
-0.00687167
0.0839226
-0.00830205
0.082587
-0.0108969
0.0810684
-0.0127973
0.079726
-0.0161944
0.078458
-0.01832
0.0777536
-0.0225587
0.0777108
-0.0241414
0.0785003
-0.0287409
-0.029742
0.0817237
0.0908936
0.00592346
-0.0910163
0.0908139
0.00513417
0.0907602
0.0045874
0.0907273
0.00381993
0.0907191
0.0032827
0.0907284
0.0024336
0.090747
0.00193981
0.0908036
0.00100534
0.0908737
0.000557767
0.0909367
-0.000361332
0.0910518
-0.000772328
0.0910942
-0.00150269
0.0912278
-0.00189342
0.091283
-0.00231723
0.0913843
-0.00263176
0.0914514
-0.00278517
0.0915058
-0.00292646
0.091538
-0.00285612
0.0915324
-0.00280223
0.0914879
-0.00257138
0.0914302
-0.00240964
0.0912971
-0.00207261
0.0911616
-0.00196966
0.090907
-0.00164124
0.0906037
-0.00172315
0.0901453
-0.00158704
0.0895823
-0.00207019
0.0888176
-0.00226831
0.0879469
-0.00330827
0.0868138
-0.00394406
0.0855899
-0.00564771
0.0840453
-0.0067575
0.0823158
-0.00916735
0.0804327
-0.0109143
0.0783714
-0.014133
0.0764271
-0.0163757
0.0744245
-0.0205562
0.0731988
-0.0229156
0.0720447
-0.0275868
-0.0307108
0.0730135
0.0908924
0.00598888
-0.0909578
0.0908628
0.00516382
0.090837
0.00461321
0.0908317
0.00382515
0.0908442
0.00327028
0.0908883
0.00238947
0.0909429
0.00188516
0.0909711
0.000977213
0.091082
0.000446852
0.0911028
-0.000382191
0.091258
-0.000927516
0.0913086
-0.00155325
0.0914603
-0.00204518
0.0915436
-0.00240049
0.0916558
-0.00274395
0.0917319
-0.00286133
0.0917881
-0.0029826
0.0918328
-0.00290082
0.0918732
-0.00284269
0.0918349
-0.00253302
0.0918217
-0.00239646
0.0917002
-0.00195112
0.0915661
-0.00183551
0.0913195
-0.0013947
0.0910502
-0.00145387
0.0905963
-0.00113311
0.0900863
-0.00156023
0.0893431
-0.00152509
0.0884653
-0.00243049
0.0873346
-0.00281335
0.0859668
-0.00427986
0.0844338
-0.00522455
0.0824727
-0.0072062
0.0804641
-0.00890575
0.0778775
-0.0115464
0.075443
-0.0139411
0.0723602
-0.0174734
0.0698044
-0.0203598
0.0669427
-0.0247251
-0.0288517
0.0650836
0.0915466
0.00604722
-0.091605
0.0915144
0.00519603
0.0915138
0.00461385
0.0915419
0.003797
0.0915812
0.00323106
0.0915789
0.00239177
0.0917162
0.00174786
0.0917179
0.000975531
0.0918969
0.000267799
0.0918867
-0.000371943
0.092044
-0.00108485
0.0921016
-0.00161088
0.0922058
-0.00214938
0.0923113
-0.00250594
0.0923973
-0.00283002
0.092472
-0.00293598
0.0925538
-0.00306443
0.0925692
-0.00291623
0.092621
-0.00289447
0.0925791
-0.00249108
0.0925715
-0.00238884
0.0924596
-0.00183927
0.0923654
-0.00174133
0.0921449
-0.00117414
0.0919122
-0.0012212
0.0915172
-0.000738111
0.0910172
-0.00106027
0.0903689
-0.00087675
0.0894855
-0.00154706
0.0884735
-0.00180142
0.0870091
-0.00281543
0.085519
-0.0037344
0.0834312
-0.00511845
0.0813268
-0.00680129
0.0785061
-0.00872581
0.0756671
-0.0111021
0.0719997
-0.0138059
0.0684403
-0.0168005
0.0642505
-0.0205352
-0.0248857
0.0602845
0.0915473
0.00604597
-0.091546
0.0915274
0.00521594
0.0916163
0.00452487
0.0916144
0.00379893
0.0917682
0.00307723
0.0917644
0.00239565
0.0919561
0.00155607
0.0919857
0.000945982
0.0921592
9.42882e-05
0.0922599
-0.000472657
0.0923786
-0.00120358
0.092507
-0.00173921
0.0926208
-0.00226323
0.0927211
-0.00260622
0.0928243
-0.00293324
0.0928944
-0.00300606
0.0930027
-0.0031727
0.0930319
-0.00294542
0.09311
-0.00297261
0.0931152
-0.00249623
0.0931244
-0.00239806
0.0930574
-0.00177234
0.0929903
-0.00167415
0.0928491
-0.00103301
0.0926293
-0.00100133
0.0923837
-0.000492551
0.0919163
-0.000592844
0.0914292
-0.000389699
0.0905548
-0.000672611
0.089714
-0.000960685
0.08836
-0.00146136
0.086952
-0.00232638
0.0849734
-0.0031399
0.0828178
-0.00464564
0.0800134
-0.00592145
0.0769773
-0.00806607
0.0731636
-0.00999213
0.0691483
-0.0127852
0.0640986
-0.0154855
-0.0198733
0.0590863
0.0924809
0.00597451
-0.0924094
0.0924305
0.00526638
0.0925706
0.0043847
0.0925773
0.00379226
0.0927604
0.00289415
0.092829
0.00232706
0.092947
0.00143805
0.0930826
0.000810363
0.0931648
1.2103e-05
0.0933354
-0.00064327
0.0934506
-0.00131878
0.093583
-0.00187161
0.0937145
-0.00239467
0.0938217
-0.00271346
0.0939491
-0.00306063
0.0940205
-0.00307745
0.0941065
-0.00325869
0.0941651
-0.00300407
0.094191
-0.00299852
0.0942217
-0.0025269
0.0942052
-0.00238157
0.0942254
-0.00179253
0.0941275
-0.00157629
0.0941024
-0.00100785
0.0938847
-0.000783606
0.0937552
-0.000363128
0.0933254
-0.000163015
0.0929903
-5.46082e-05
0.0922828
3.48621e-05
0.0915476
-0.000225414
0.090415
-0.00032883
0.0891363
-0.00104767
0.0874037
-0.00140727
0.0853912
-0.00263317
0.0828402
-0.00337046
0.0799321
-0.00515788
0.076272
-0.00633206
0.0722542
-0.00876745
0.0671263
-0.0103576
-0.0142136
0.0614666
0.092553
0.00583868
-0.0924172
0.0926245
0.00519484
0.0927243
0.00428491
0.0928472
0.0036694
0.0929524
0.00278893
0.0931791
0.00210041
0.0932896
0.00132755
0.0935363
0.000563637
0.0936247
-7.62793e-05
0.0938385
-0.000857061
0.0940045
-0.00148478
0.0941569
-0.002024
0.0943278
-0.00256558
0.0944568
-0.00284247
0.09458
-0.00318389
0.0947023
-0.00319972
0.0947949
-0.00335131
0.094899
-0.00310811
0.094939
-0.00303854
0.0950642
-0.0026521
0.095054
-0.00237134
0.095157
-0.00189552
0.0950939
-0.00151319
0.0951563
-0.00107033
0.0950038
-0.000631057
0.0949967
-0.000356009
0.0947277
0.000105912
0.0944881
0.000185054
0.0939943
0.000528622
0.0934306
0.000338269
0.0925744
0.000527383
0.0915001
2.66412e-05
0.090081
1.18284e-05
0.0884033
-0.000955505
0.0862258
-0.00119297
0.083744
-0.00267601
0.0805543
-0.00314235
0.0769782
-0.00519142
0.0724597
-0.00583905
-0.0088407
0.0670868
0.0938697
0.0058021
-0.0938331
0.0939936
0.00507099
0.0940295
0.00424903
0.0941911
0.00350777
0.0942226
0.00275742
0.0943925
0.00193053
0.0945151
0.00120494
0.0947343
0.000344431
0.0950038
-0.000345792
0.0951913
-0.00104453
0.0953856
-0.0016791
0.0955936
-0.00223198
0.0957536
-0.0027256
0.0959539
-0.00304282
0.0960692
-0.00329916
0.0962383
-0.00336885
0.0962885
-0.00340148
0.0964577
-0.00327732
0.0964669
-0.00304768
0.0966096
-0.00279482
0.0966211
-0.00238283
0.0968033
-0.00207776
0.0967983
-0.00150815
0.0969317
-0.00120375
0.0969054
-0.000604717
0.0969654
-0.000416006
0.0969233
0.000147957
0.096899
0.000209365
0.0966946
0.000733004
0.0964122
0.000620653
0.0959014
0.00103822
0.0952398
0.000688227
0.0942511
0.00100051
0.0930392
0.000256446
0.0913801
0.000466066
0.0893798
-0.000675629
0.0867894
-0.000551963
0.0837879
-0.00218996
0.0800873
-0.00213842
-0.00429386
0.0755404
0.0941145
0.00564187
-0.0939543
0.0943711
0.00481444
0.0945502
0.00406992
0.0948583
0.00319963
0.095126
0.00248975
0.0954377
0.00161878
0.0956911
0.000951555
0.0958553
0.000180249
0.0960211
-0.000511589
0.0962817
-0.0013051
0.0964412
-0.00183869
0.0966732
-0.00246395
0.0967459
-0.00279833
0.0969613
-0.00325823
0.0970057
-0.00334353
0.0972287
-0.00359186
0.0972442
-0.00341693
0.0974491
-0.0034822
0.0974612
-0.0030598
0.0976733
-0.00300698
0.0976966
-0.00240612
0.0979036
-0.0022847
0.0980038
-0.00160844
0.0982533
-0.00145323
0.098421
-0.000772369
0.0986399
-0.000634905
0.0987163
7.15566e-05
0.098804
0.000121677
0.0988518
0.000685148
0.0988156
0.00065685
0.0986205
0.00123332
0.0983082
0.00100055
0.0977434
0.00156531
0.09693
0.00106985
0.09581
0.0015861
0.0943329
0.000801428
0.0926017
0.00117923
0.0902164
0.000195375
0.0875995
0.000478419
-0.000921465
0.0842272
0.0961824
0.00561021
-0.0961507
0.0963096
0.00468722
0.0964093
0.00397023
0.0965292
0.00307972
0.0966866
0.00233236
0.0969406
0.0013648
0.0972115
0.000680577
0.0976603
-0.000268552
0.0979082
-0.000759449
0.0982302
-0.00162706
0.0983816
-0.00199015
0.0986965
-0.00277883
0.0988419
-0.00294376
0.0991101
-0.0035264
0.0991909
-0.00342438
0.0993966
-0.00379753
0.0994515
-0.0034718
0.0996288
-0.00365953
0.0997283
-0.00315931
0.0998912
-0.00316983
0.10005
-0.00256482
0.100227
-0.00246216
0.100436
-0.00181705
0.10068
-0.00169729
0.100966
-0.00105786
0.101316
-0.000985187
0.101758
-0.000370654
0.102259
-0.00037969
0.10265
0.000294942
0.103128
0.00017886
0.103409
0.00095211
0.103713
0.000696043
0.103795
0.00148346
0.103764
0.00110052
0.103473
0.00187799
0.102951
0.00132322
0.102098
0.00203177
0.100959
0.00133435
0.0994682
0.00196947
0.0011989
0.0973479
0.0972476
0.00504616
-0.0966835
0.0977734
0.0041614
0.0983465
0.00339709
0.0988504
0.00257587
0.0992896
0.0018932
0.0996303
0.00102405
0.0998393
0.00047155
0.100033
-0.000462016
0.100212
-0.000938261
0.100473
-0.00188868
0.100614
-0.00213076
0.100794
-0.00295851
0.100851
-0.00300076
0.100967
-0.00364276
0.101019
-0.00347602
0.101117
-0.00389618
0.101195
-0.00354951
0.10129
-0.0037542
0.101397
-0.00326726
0.101557