/*--------------------------------*- C++ -*----------------------------------*\
  =========                 |
  \\      /  F ield         | OpenFOAM: The Open Source CFD Toolbox
   \\    /   O peration     | Website:  https://openfoam.org
    \\  /    A nd           | Version:  11
     \\/     M anipulation  |
\*---------------------------------------------------------------------------*/
FoamFile
{
    format      ascii;
    class       volVectorField;
    location    "6";
    object      U;
}
// * * * * * * * * * * * * * * * * * * * * * * * * * * * * * * * * * * * * * //

dimensions      [0 1 -1 0 0 0 0];

internalField   nonuniform List<vector> 
9600
(
(0.99337 0.000286902 -3.95664e-21)
(0.992269 0.000110377 0)
(0.991467 -0.000184282 -3.93495e-21)
(0.991279 -0.000515409 3.88771e-21)
(0.991208 -0.0006421 0)
(0.991193 -0.000755305 1.80741e-21)
(0.991413 -0.000821719 -3.52186e-21)
(0.991978 -0.000867476 1.7187e-21)
(0.992896 -0.000875524 1.55043e-21)
(0.994116 -0.000825637 -1.55411e-21)
(0.995645 -0.000774975 1.05396e-23)
(0.99747 -0.000852443 0)
(0.999381 -0.00103719 0)
(1.00138 -0.00142508 -4.12245e-22)
(1.00371 -0.00202066 9.09697e-23)
(1.00746 -0.00202431 3.22369e-22)
(1.01103 -0.000335774 0)
(1.01055 0.00149365 0)
(1.00296 0.00445319 2.67382e-26)
(0.984031 0.00619311 0)
(0.970729 0.00441571 0)
(0.96503 0.00232307 2.81028e-25)
(0.964907 0.000528071 -5.84333e-25)
(0.971085 -0.00215012 1.60814e-22)
(0.986535 -0.00649442 -1.60412e-22)
(1.00311 -0.00905581 -1.53565e-22)
(1.01832 -0.0111412 1.54586e-22)
(1.03128 -0.0129332 3.22506e-22)
(1.04303 -0.0147064 -3.16798e-22)
(1.05429 -0.0160723 0)
(1.0629 -0.0168073 0)
(1.06719 -0.0168113 -5.68862e-22)
(1.06782 -0.016977 1.19175e-21)
(1.0668 -0.0171759 -6.26086e-22)
(1.06451 -0.0176116 0)
(1.06133 -0.0181309 -1.18522e-23)
(1.05773 -0.0184147 -1.52735e-21)
(1.05378 -0.0186283 1.51047e-21)
(1.04914 -0.0174389 1.18244e-23)
(1.04124 -0.0197387 2.97584e-21)
(0.993729 0.00027589 -4.02675e-21)
(0.993708 0.000205638 -1.64159e-23)
(0.993844 0.000202263 1.0326e-22)
(0.994213 0.000198268 3.98552e-21)
(0.994847 0.000275361 1.88751e-21)
(0.995303 0.000314106 -1.89368e-21)
(0.996091 0.000263165 2.81004e-23)
(0.997183 8.87174e-05 1.36447e-23)
(0.998422 -6.68246e-05 -1.56623e-21)
(0.999839 -0.000277588 1.59378e-21)
(1.00247 -0.000525881 -1.10056e-23)
(1.00515 -0.000577707 1.92417e-23)
(1.00712 -0.000565433 4.76823e-22)
(1.00949 -0.000315176 -8.98472e-22)
(1.01238 -0.000414857 4.10296e-22)
(1.01521 -0.000681118 2.26205e-22)
(1.01818 -0.000501352 -2.27035e-22)
(1.02158 0.00152889 2.68718e-23)
(1.02549 0.00438639 -2.61911e-23)
(1.02883 0.00435855 0)
(1.02936 0.00256598 0)
(1.02747 -0.000469302 7.49812e-23)
(1.02656 -0.00266667 -7.40826e-23)
(1.02825 -0.00475818 -1.26011e-24)
(1.03164 -0.00388927 0)
(1.03806 -0.00199543 -1.70512e-22)
(1.04461 0.00146249 9.64148e-25)
(1.05159 0.00451463 -1.82602e-22)
(1.0586 0.00721777 3.41962e-22)
(1.06437 0.0093926 5.83977e-24)
(1.06899 0.0128756 -5.07877e-22)
(1.07134 0.0151528 5.10866e-22)
(1.07226 0.0179258 -6.66084e-22)
(1.07084 0.0190939 1.38651e-21)
(1.0689 0.0205521 -7.04823e-22)
(1.06358 0.0213172 1.23538e-23)
(1.05975 0.0218796 1.24859e-23)
(1.05158 0.0220595 0)
(1.04679 0.0219722 -1.22944e-23)
(1.03412 0.0192127 1.39384e-21)
(0.993879 0.000292218 0)
(0.993863 0.000192566 4.08726e-21)
(0.993987 -3.9018e-05 -4.07508e-21)
(0.994443 -0.000326428 0)
(0.994959 -0.000480948 0)
(0.995441 -0.000837639 -5.90188e-23)
(0.996308 -0.00115328 -8.57371e-23)
(0.997495 -0.0013608 0)
(0.998776 -0.00145713 -1.64637e-21)
(1.00039 -0.00209929 1.57507e-21)
(1.0028 -0.00254293 0)
(1.00558 -0.00247233 -1.97065e-23)
(1.00755 -0.00230265 1.71242e-23)
(1.00929 -0.00293902 0)
(1.01176 -0.00356481 -3.21023e-22)
(1.01618 -0.00364675 3.157e-22)
(1.02193 -0.00245824 5.508e-24)
(1.02683 -0.000474302 -7.37271e-25)
(1.0288 0.00278499 4.93969e-24)
(1.02848 0.00504762 -4.87727e-24)
(1.02672 0.0053953 -3.17653e-23)
(1.02166 0.00375552 3.35634e-23)
(1.01871 0.000931247 -1.25986e-24)
(1.02005 -0.00334819 1.66968e-22)
(1.02492 -0.00905071 -1.64449e-22)
(1.03219 -0.0128334 -1.5065e-22)
(1.04071 -0.0157335 1.58377e-22)
(1.04993 -0.0173866 -3.07197e-22)
(1.05863 -0.018955 3.06638e-22)
(1.06619 -0.0197798 -5.97929e-24)
(1.07292 -0.0195295 0)
(1.07869 -0.0187755 -5.20781e-22)
(1.08286 -0.017521 1.12252e-21)
(1.08437 -0.0167446 -5.92e-22)
(1.0843 -0.015655 -7.51978e-22)
(1.08292 -0.0155533 2.26398e-21)
(1.08024 -0.0137976 3.97063e-23)
(1.07353 -0.0143312 -1.58354e-21)
(1.06897 -0.0116319 2.51183e-23)
(1.05847 -0.0125398 2.79594e-25)
(0.993963 0.000268691 -8.25788e-21)
(0.99398 0.000133149 4.16429e-21)
(0.99414 -0.00017108 4.07718e-21)
(0.994637 -0.000505754 -4.10429e-21)
(0.995129 -0.000635628 0)
(0.99578 -0.0010055 1.94669e-21)
(0.996508 -0.00108929 -1.83378e-21)
(0.997652 -0.00138464 1.76581e-21)
(0.999331 -0.00176838 -1.20192e-22)
(1.00105 -0.0024188 -1.59901e-21)
(1.00276 -0.00287518 -1.27643e-21)
(1.00527 -0.00270764 2.5213e-21)
(1.00855 -0.00223406 -6.69845e-22)
(1.01057 -0.00255123 -8.93117e-22)
(1.01256 -0.00360265 4.00458e-22)
(1.01574 -0.00505962 2.20603e-22)
(1.02102 -0.00441153 -2.15663e-22)
(1.02554 -0.000844488 -1.1513e-24)
(1.02877 0.00322115 -5.26968e-26)
(1.0305 0.00511417 0)
(1.03293 0.00504855 0)
(1.03573 0.0022096 -1.18365e-24)
(1.03974 -0.00190699 0)
(1.04427 -0.00702385 0)
(1.04882 -0.00813117 2.83597e-24)
(1.05371 -0.00899449 -5.4364e-24)
(1.05897 -0.00628387 1.69298e-22)
(1.06294 -0.00423581 1.71587e-22)
(1.06823 -0.000324418 -3.65543e-22)
(1.07116 0.00155504 4.35194e-22)
(1.07549 0.00612349 -4.34237e-22)
(1.07724 0.00854377 -1.54598e-23)
(1.07922 0.0140125 -6.56079e-22)
(1.07725 0.0168863 6.72053e-22)
(1.07556 0.0208295 7.89711e-22)
(1.06959 0.0224223 8.90609e-22)
(1.06545 0.0247078 3.53039e-23)
(1.05776 0.0247487 -1.72547e-21)
(1.05313 0.0256246 -2.56974e-23)
(1.04247 0.0224066 -2.48338e-23)
(0.993983 0.000160829 0)
(0.994022 -1.06327e-05 4.31739e-21)
(0.99422 -0.000349503 -8.53272e-21)
(0.994779 -0.000811941 4.17618e-21)
(0.995306 -0.00100379 0)
(0.995849 -0.00136749 0)
(0.996686 -0.00174982 0)
(0.998032 -0.00238884 5.48455e-23)
(0.999422 -0.002659 -1.56079e-21)
(1.00134 -0.00349448 1.6181e-21)
(1.00326 -0.00396766 -4.44288e-23)
(1.00551 -0.00438328 1.12693e-21)
(1.00812 -0.00400621 -1.66254e-21)
(1.0116 -0.00435288 4.94537e-22)
(1.01465 -0.00526393 0)
(1.01708 -0.00643247 1.98827e-22)
(1.01875 -0.00539875 -2.06853e-22)
(1.0224 -0.00286029 1.17917e-24)
(1.02991 0.00149884 0)
(1.03607 0.00332539 0)
(1.04119 0.00346414 3.60277e-23)
(1.0427 0.00192652 -3.602e-23)
(1.04311 -0.00101157 0)
(1.04223 -0.00531148 1.83401e-22)
(1.04287 -0.0103323 -1.8891e-22)
(1.04498 -0.0144216 -1.68325e-22)
(1.04911 -0.0171896 1.62857e-22)
(1.0543 -0.0191505 -2.95757e-22)
(1.06138 -0.0201907 3.16086e-22)
(1.06729 -0.0212807 1.09384e-23)
(1.07326 -0.0204776 0)
(1.07738 -0.0199058 1.58448e-23)
(1.08162 -0.0175559 5.50432e-22)
(1.08379 -0.0161374 -5.67081e-22)
(1.08489 -0.0135898 2.33025e-23)
(1.084 -0.0129421 0)
(1.08253 -0.00957347 0)
(1.07815 -0.00977784 -1.67789e-21)
(1.07379 -0.00480624 1.62013e-21)
(1.06368 -0.00580368 -5.26196e-23)
(0.993928 9.08332e-05 -4.18577e-21)
(0.993999 -0.000100916 -1.35056e-22)
(0.994255 -0.00050382 1.34298e-22)
(0.994898 -0.00112424 1.30603e-22)
(0.995389 -0.00130514 0)
(0.99595 -0.00201516 0)
(0.996824 -0.00233696 0)
(0.99827 -0.00294261 1.63731e-21)
(0.999959 -0.00338477 -3.48873e-21)
(1.00126 -0.00456381 1.53469e-21)
(1.00325 -0.00479879 0)
(1.00611 -0.00502711 1.12578e-21)
(1.00948 -0.0047562 -1.167e-21)
(1.0114 -0.00578327 -3.92692e-22)
(1.01396 -0.00640467 3.93337e-22)
(1.0162 -0.00706092 7.40587e-24)
(1.02033 -0.00655281 -4.43731e-24)
(1.02466 -0.0049273 0)
(1.02985 -0.00204807 -4.27292e-25)
(1.03367 0.00090577 0)
(1.03761 0.00254871 5.65393e-25)
(1.04118 0.00158848 2.79661e-24)
(1.04561 -0.00159356 0)
(1.05057 -0.00703579 -2.039e-22)
(1.05513 -0.00945225 2.03452e-22)
(1.05907 -0.0127173 -1.73448e-22)
(1.06433 -0.0117758 1.95703e-22)
(1.06823 -0.0116934 3.37656e-22)
(1.07392 -0.00837251 -3.37128e-22)
(1.07665 -0.00650206 -6.18172e-25)
(1.08138 -0.00173779 -2.43544e-23)
(1.08342 0.000991889 2.91244e-23)
(1.08691 0.00697305 -6.68973e-22)
(1.08553 0.011643 1.42657e-21)
(1.08494 0.0177188 -7.57044e-22)
(1.07861 0.02133 0)
(1.074 0.0248934 -5.43869e-23)
(1.06549 0.0259022 5.68142e-23)
(1.06096 0.0276341 5.55514e-23)
(1.0504 0.0260068 -1.64009e-21)
(0.993927 -0.000111787 -1.8336e-22)
(0.99402 -0.000356053 -8.66433e-21)
(0.994357 -0.000859869 2.49847e-22)
(0.995033 -0.00150326 4.19918e-21)
(0.995576 -0.00184031 0)
(0.995961 -0.00252212 1.25747e-22)
(0.997009 -0.00287341 1.20662e-22)
(0.998514 -0.00395241 0)
(1.00043 -0.00414696 1.75225e-21)
(1.0015 -0.00526328 -1.45172e-21)
(1.00356 -0.00589212 0)
(1.00643 -0.00692438 7.86372e-23)
(1.01024 -0.00608874 -4.87869e-22)
(1.01229 -0.00630196 4.88793e-22)
(1.01402 -0.00698251 0)
(1.01676 -0.00936117 1.78345e-22)
(1.02093 -0.00852432 -1.8562e-22)
(1.02468 -0.00624081 0)
(1.02929 -0.00203194 1.83041e-23)
(1.03337 0.000188898 -1.71814e-23)
(1.03912 0.000599461 -1.21802e-24)
(1.04333 -0.000893185 -5.93684e-24)
(1.04844 -0.00356223 6.70673e-24)
(1.05049 -0.00740584 2.14404e-22)
(1.0532 -0.0111298 -2.13903e-22)
(1.05473 -0.0153714 -1.20718e-23)
(1.0577 -0.0180623 -1.6495e-22)
(1.06032 -0.0204513 1.85056e-22)
(1.0655 -0.0211882 2.94452e-22)
(1.06987 -0.0223209 -2.95141e-22)
(1.07581 -0.0213062 2.50034e-23)
(1.07923 -0.0208195 -2.6342e-24)
(1.0831 -0.0179105 0)
(1.08457 -0.0159343 3.96118e-23)
(1.08681 -0.0118449 7.1591e-22)
(1.08624 -0.0100278 8.57104e-22)
(1.08585 -0.00590091 2.08208e-22)
(1.08242 -0.00495995 -1.76058e-21)
(1.07912 0.000708058 1.86791e-21)
(1.06964 0.000568513 -1.90767e-21)
(0.993714 -0.000273543 4.55867e-21)
(0.993856 -0.000550213 4.84107e-23)
(0.994335 -0.00111591 -8.76778e-21)
(0.994956 -0.00203528 4.28485e-21)
(0.995642 -0.00228211 0)
(0.995981 -0.00320865 -1.29038e-22)
(0.997162 -0.00365826 -1.91724e-21)
(0.998763 -0.00474277 3.8371e-21)
(1.00037 -0.00495513 -3.3588e-21)
(1.00182 -0.00657162 1.56728e-21)
(1.00419 -0.00732705 0)
(1.00663 -0.00797455 1.12657e-21)
(1.00981 -0.00704812 -1.13599e-21)
(1.01266 -0.00779715 -3.55135e-22)
(1.01552 -0.00892899 3.82411e-22)
(1.01767 -0.0100042 0)
(1.02076 -0.00944505 6.45925e-25)
(1.02437 -0.00770834 0)
(1.02971 -0.00535862 -1.72867e-24)
(1.03461 -0.00290952 1.03793e-24)
(1.03921 -0.00154643 6.55031e-25)
(1.04185 -0.00222411 3.14981e-24)
(1.04505 -0.00414519 -6.89311e-24)
(1.04837 -0.0089762 2.31416e-22)
(1.0535 -0.0112172 -2.37762e-22)
(1.05853 -0.015392 -1.94235e-22)
(1.0644 -0.015615 1.93815e-22)
(1.06882 -0.0172685 3.16609e-22)
(1.07571 -0.0154509 -6.50951e-22)
(1.07944 -0.0144733 6.58455e-22)
(1.08521 -0.0100861 -3.53826e-22)
(1.08768 -0.0071828 -2.7989e-23)
(1.09272 -0.00127775 0)
(1.09295 0.00387994 -4.06703e-23)
(1.09459 0.0113376 0)
(1.08957 0.0172996 0)
(1.08574 0.0233308 0)
(1.0764 0.0257425 -1.98429e-21)
(1.07164 0.0286956 2.09435e-21)
(1.05979 0.0291559 1.1968e-22)
(0.993705 -0.000647249 -4.45064e-21)
(0.9939 -0.000980148 -1.33685e-24)
(0.994496 -0.00163815 -4.77132e-21)
(0.995101 -0.00261885 4.65348e-21)
(0.995769 -0.00293313 -2.69591e-22)
(0.996155 -0.00400063 -2.17986e-21)
(0.997207 -0.00436457 1.80683e-21)
(0.99897 -0.00570446 -1.19142e-22)
(1.00084 -0.00584773 -1.79349e-21)
(1.0025 -0.00781427 3.21352e-21)
(1.00406 -0.00817493 -1.61863e-21)
(1.00705 -0.00953006 0)
(1.01029 -0.00864529 -9.97726e-23)
(1.01403 -0.00917529 -2.73513e-23)
(1.0161 -0.00932291 1.92851e-23)
(1.01833 -0.0115164 1.42914e-22)
(1.02115 -0.0112452 -1.51863e-22)
(1.02498 -0.0100011 0)
(1.0297 -0.00657813 2.47416e-24)
(1.03361 -0.00393626 1.89893e-25)
(1.0384 -0.00237746 0)
(1.04162 -0.00314601 -3.87287e-24)
(1.04654 -0.00541583 -8.15875e-24)
(1.04874 -0.00974763 -7.6127e-24)
(1.05273 -0.0132125 1.44035e-23)
(1.05604 -0.017485 0)
(1.06114 -0.0197805 0)
(1.06461 -0.0225276 -3.0296e-22)
(1.06996 -0.0232914 2.8488e-22)
(1.07353 -0.0242751 1.66068e-23)
(1.07961 -0.0230512 0)
(1.08345 -0.0224788 4.42049e-22)
(1.08786 -0.0193946 -9.36477e-22)
(1.0887 -0.0169299 1.14036e-21)
(1.09055 -0.0117553 -6.21969e-22)
(1.08986 -0.00869075 1.03285e-22)
(1.09055 -0.00269952 1.70919e-21)
(1.08731 -0.000795266 -1.81284e-21)
(1.08516 0.00549625 -2.17258e-21)
(1.07643 0.00666646 4.04504e-21)
(0.993469 -0.000905702 -4.81066e-21)
(0.993733 -0.00130703 8.9097e-21)
(0.994481 -0.00211881 -1.33589e-22)
(0.995062 -0.00325967 -4.89991e-21)
(0.99571 -0.00363647 2.77357e-22)
(0.996116 -0.00475597 1.3437e-22)
(0.99718 -0.00543215 1.28767e-22)
(0.998911 -0.00662102 1.85696e-21)
(1.00115 -0.00694467 -1.57247e-22)
(1.00259 -0.00878786 -1.71168e-21)
(1.0045 -0.00997764 -1.27027e-21)
(1.00716 -0.0110371 2.7783e-22)
(1.01069 -0.010023 1.71328e-21)
(1.01404 -0.0103483 -8.41079e-22)
(1.01676 -0.0113667 3.44603e-22)
(1.01921 -0.0124893 2.37572e-23)
(1.02198 -0.0124207 0)
(1.02495 -0.0109118 3.1839e-23)
(1.02894 -0.008604 -6.89865e-23)
(1.03343 -0.0063418 3.43812e-23)
(1.03873 -0.00474401 0)
(1.04208 -0.00546262 1.40897e-22)
(1.04559 -0.00644054 -1.28096e-22)
(1.04678 -0.0109408 2.64641e-22)
(1.04988 -0.0138197 -2.48433e-22)
(1.05332 -0.0191243 -1.9793e-22)
(1.05959 -0.020153 4.03566e-22)
(1.06465 -0.0225307 1.22451e-22)
(1.07274 -0.0216031 -2.82231e-22)
(1.07774 -0.0220714 -3.19285e-23)
(1.08577 -0.0185921 0)
(1.08976 -0.0161356 -4.34751e-23)
(1.09657 -0.0100726 0)
(1.09824 -0.00489086 -6.95373e-22)
(1.10238 0.00298652 7.8057e-22)
(1.09982 0.00995112 1.8965e-21)
(1.0988 0.018276 -1.7729e-21)
(1.09012 0.0236757 0)
(1.08556 0.0281888 2.2005e-21)
(1.07239 0.0311802 -2.29559e-21)
(0.993588 -0.00133747 -5.32793e-21)
(0.993735 -0.00200304 3.05983e-22)
(0.994527 -0.00292988 -4.70485e-21)
(0.995163 -0.00396579 5.30917e-21)
(0.995855 -0.00438568 0)
(0.99627 -0.00578585 0)
(0.997337 -0.00630308 0)
(0.999169 -0.0078414 0)
(1.00126 -0.00805719 -1.73084e-21)
(1.00349 -0.0104274 1.73666e-21)
(1.00499 -0.0109925 0)
(1.00738 -0.0125191 -8.06903e-23)
(1.01067 -0.0115092 -5.34733e-22)
(1.01502 -0.0123131 4.71037e-22)
(1.01793 -0.0120312 0)
(1.02032 -0.0136901 9.95451e-23)
(1.02226 -0.0135169 -1.13409e-22)
(1.02508 -0.0129676 0)
(1.02914 -0.0104485 2.47205e-24)
(1.0336 -0.00850511 0)
(1.03874 -0.00631261 0)
(1.04112 -0.00635195 -5.07078e-24)
(1.04543 -0.00708949 -1.04295e-23)
(1.04708 -0.0109086 -2.00615e-23)
(1.05032 -0.0143738 -3.53504e-23)
(1.05168 -0.0197106 -2.59641e-22)
(1.05644 -0.0227163 2.15321e-22)
(1.06037 -0.0264135 -3.09474e-22)
(1.06792 -0.0270992 2.88663e-22)
(1.07307 -0.0286569 1.52876e-23)
(1.08077 -0.0271122 0)
(1.08636 -0.0268068 2.0696e-23)
(1.09309 -0.0229019 0)
(1.09562 -0.0201833 0)
(1.09874 -0.0139087 -9.02775e-23)
(1.09716 -0.00999161 -1.80607e-21)
(1.09786 -0.00189541 3.49334e-21)
(1.09423 0.00161941 -3.88244e-21)
(1.09282 0.00947709 -1.59457e-22)
(1.08435 0.0117786 2.35248e-21)
(0.993343 -0.00164934 9.69273e-23)
(0.993472 -0.00265957 1.00114e-20)
(0.994232 -0.00347189 -9.79786e-21)
(0.994866 -0.00481746 -1.48376e-22)
(0.995706 -0.00531943 6.99418e-21)
(0.996047 -0.00675539 -2.28811e-21)
(0.997282 -0.00736749 0)
(0.998789 -0.00897502 -1.92813e-21)
(1.00145 -0.00953017 1.76689e-22)
(1.00347 -0.0114702 1.76478e-21)
(1.00519 -0.012578 -9.15086e-23)
(1.00725 -0.0140087 7.83852e-23)
(1.01111 -0.0137001 1.30592e-22)
(1.01512 -0.0136983 0)
(1.0183 -0.0140104 0)
(1.02084 -0.0146714 0)
(1.02322 -0.0147648 2.18292e-24)
(1.02562 -0.014188 0)
(1.02926 -0.0122515 -8.86339e-24)
(1.03303 -0.0106004 2.21401e-24)
(1.03823 -0.00801232 -2.66919e-24)
(1.04163 -0.00816503 5.22932e-24)
(1.04582 -0.00843144 1.07424e-23)
(1.047 -0.0117972 3.49967e-22)
(1.04877 -0.0145296 -3.10178e-22)
(1.04944 -0.0207459 -2.29899e-22)
(1.05258 -0.0237113 2.1799e-22)
(1.05601 -0.0284345 -2.13551e-25)
(1.06366 -0.0284612 1.97478e-22)
(1.07013 -0.0306197 -2.01542e-22)
(1.08073 -0.0277171 0)
(1.08764 -0.0267 0)
(1.09725 -0.020448 -3.73639e-22)
(1.10168 -0.0155907 -1.72966e-22)
(1.10881 -0.00677025 1.33942e-21)
(1.10843 0.000579728 1.11103e-21)
(1.11098 0.0100942 5.27153e-22)
(1.10461 0.0184289 -2.27358e-21)
(1.10153 0.0256751 -2.4232e-21)
(1.08764 0.0319766 2.39993e-21)
(0.993444 -0.00239319 0)
(0.993576 -0.0034946 3.21974e-22)
(0.994396 -0.00442092 -3.14609e-22)
(0.994903 -0.00582585 0)
(0.995816 -0.00631874 0)
(0.996292 -0.00785897 0)
(0.997416 -0.00854492 -2.7357e-22)
(0.999173 -0.0106318 -2.55724e-22)
(1.00152 -0.0108279 1.78809e-21)
(1.00396 -0.0131462 -1.89961e-21)
(1.00581 -0.0138464 9.44065e-23)
(1.00827 -0.0158719 1.06837e-21)
(1.01148 -0.0151763 -1.66737e-21)
(1.01577 -0.0157929 4.50216e-22)
(1.01886 -0.0150971 -1.4547e-23)
(1.02193 -0.0161692 4.32874e-23)
(1.02459 -0.0156888 -4.91147e-23)
(1.02698 -0.0158326 0)
(1.03021 -0.0136147 6.51571e-24)
(1.03314 -0.0126809 -2.28564e-24)
(1.03834 -0.0103093 2.75555e-24)
(1.04108 -0.00996409 0)
(1.04474 -0.00949537 0)
(1.04586 -0.011785 0)
(1.04834 -0.014206 0)
(1.04862 -0.019662 -2.72228e-22)
(1.05073 -0.0235529 5.0894e-22)
(1.05234 -0.0298394 -4.7437e-22)
(1.05836 -0.0318921 3.02994e-22)
(1.06426 -0.0359522 1.11929e-22)
(1.07391 -0.0347557 -1.17781e-22)
(1.0819 -0.0354729 1.79681e-22)
(1.09291 -0.0306986 -2.14123e-22)
(1.0994 -0.0279997 -3.96176e-23)
(1.10743 -0.0198918 0)
(1.10826 -0.014931 1.70245e-21)
(1.11038 -0.00492343 2.17963e-22)
(1.10579 0.00034252 -2.16669e-21)
(1.10517 0.0116347 -2.36002e-21)
(1.0945 0.0153869 5.18415e-21)
(0.992968 -0.0028804 -5.82998e-21)
(0.993122 -0.00436457 4.9013e-21)
(0.994076 -0.00523975 -4.93813e-21)
(0.994475 -0.00678352 -4.97021e-21)
(0.995528 -0.00736822 4.98739e-21)
(0.995872 -0.00908564 2.95327e-22)
(0.997403 -0.00980142 2.82684e-22)
(0.998998 -0.0116518 2.18139e-24)
(1.00125 -0.0124629 -1.81966e-21)
(1.0038 -0.0145961 1.93515e-21)
(1.00612 -0.0156997 0)
(1.00826 -0.0172374 0)
(1.01158 -0.0173971 0)
(1.01544 -0.0175313 -3.37964e-22)
(1.01942 -0.0170372 3.10009e-22)
(1.02242 -0.0176251 9.62908e-24)
(1.02565 -0.0171022 0)
(1.02763 -0.0171025 0)
(1.03097 -0.0152271 0)
(1.03364 -0.0145506 0)
(1.03765 -0.0119675 -3.70028e-24)
(1.04028 -0.0112474 0)
(1.04368 -0.0102673 0)
(1.04543 -0.0124025 4.59734e-22)
(1.04722 -0.0143527 -2.82547e-23)
(1.0477 -0.019537 -3.72153e-22)
(1.0487 -0.0231849 0)
(1.04976 -0.0310162 -2.71512e-22)
(1.05369 -0.03347 1.37102e-22)
(1.05856 -0.0391963 1.57174e-22)
(1.06777 -0.0382614 -4.17585e-24)
(1.07685 -0.0402456 0)
(1.09052 -0.0348549 -1.89481e-22)
(1.09863 -0.0306501 -1.18392e-22)
(1.11138 -0.020867 3.69396e-22)
(1.11497 -0.0121282 -8.07587e-23)
(1.1221 -0.000655804 1.12579e-22)
(1.11881 0.00909435 -2.36946e-21)
(1.11948 0.0202917 2.33252e-21)
(1.10669 0.030458 0)
(0.993169 -0.00390415 -5.6799e-21)
(0.993287 -0.00552857 5.05943e-21)
(0.99397 -0.00640845 -1.61299e-22)
(0.994652 -0.00803603 -1.04261e-20)
(0.995535 -0.00869608 5.14549e-21)
(0.996097 -0.010585 -3.05118e-22)
(0.997411 -0.0113642 0)
(0.999385 -0.0136595 2.23537e-24)
(1.00185 -0.0140846 -1.60864e-21)
(1.00448 -0.0166557 1.96807e-21)
(1.00651 -0.0172003 0)
(1.00918 -0.0194154 0)
(1.01228 -0.019073 4.75401e-22)
(1.01655 -0.0199924 -3.31807e-22)
(1.02055 -0.0185384 0)
(1.02382 -0.0196669 -4.24083e-23)
(1.027 -0.0182355 3.88549e-23)
(1.02963 -0.0188063 0)
(1.03296 -0.0165096 0)
(1.03508 -0.0157935 3.82983e-24)
(1.03829 -0.0133686 3.82828e-24)
(1.03985 -0.0128716 0)
(1.04271 -0.0116974 0)
(1.04411 -0.0131587 -3.10637e-23)
(1.04624 -0.0146402 -2.77064e-23)
(1.04649 -0.0186974 0)
(1.04777 -0.0220248 -2.50392e-22)
(1.04822 -0.0295825 2.5154e-22)
(1.05107 -0.0335269 0)
(1.05419 -0.0414654 0)
(1.06231 -0.0428779 0)
(1.06997 -0.0473174 0)
(1.08324 -0.0440605 0)
(1.09304 -0.0431181 -2.47034e-22)
(1.10781 -0.0338988 2.21629e-22)
(1.11437 -0.0276293 8.34951e-23)
(1.12384 -0.0142091 -2.2218e-21)
(1.12145 -0.0065281 2.12772e-21)
(1.12406 0.00748005 0)
(1.11082 0.0164345 1.88714e-22)
(0.992531 -0.00456598 3.62724e-22)
(0.992462 -0.00639459 5.93956e-21)
(0.993296 -0.00731081 -5.62118e-21)
(0.993766 -0.00916746 -4.96249e-21)
(0.995 -0.0098556 7.88893e-21)
(0.995664 -0.0118244 -2.25916e-21)
(0.996732 -0.0128267 -1.99513e-21)
(0.99898 -0.0150662 4.68554e-21)
(1.00145 -0.0158272 -4.81023e-22)
(1.00423 -0.0181785 -2.00758e-21)
(1.00674 -0.0190843 0)
(1.0091 -0.0211526 0)
(1.01281 -0.0212461 -6.13029e-23)
(1.01613 -0.0220505 -2.73855e-22)
(1.02072 -0.0206628 2.32586e-22)
(1.02392 -0.0212378 -9.67928e-23)
(1.02796 -0.0199086 9.69491e-23)
(1.03052 -0.020147 0)
(1.03341 -0.0179325 0)
(1.0356 -0.0171443 -3.96688e-24)
(1.0386 -0.0145711 -5.14723e-24)
(1.03982 -0.0138007 0)
(1.04174 -0.0125845 0)
(1.04211 -0.0131955 5.65449e-22)
(1.04386 -0.0144588 -5.71845e-22)
(1.04445 -0.0183369 -4.01469e-22)
(1.04573 -0.0215726 4.01217e-22)
(1.04651 -0.0291314 -5.79423e-23)
(1.04903 -0.033317 1.21156e-22)
(1.05125 -0.0426172 -1.20748e-22)
(1.05752 -0.045726 0)
(1.06394 -0.0520778 0)
(1.07709 -0.0516175 1.33728e-22)
(1.08647 -0.0505457 -1.47521e-22)
(1.10444 -0.0435143 3.394e-22)
(1.11329 -0.0338437 -3.39205e-22)
(1.12802 -0.0201515 2.08467e-21)
(1.12946 -0.00631218 -4.53593e-21)
(1.13696 0.00854875 -5.12402e-22)
(1.12645 0.0232669 2.7738e-21)
(0.992427 -0.00603747 0)
(0.99296 -0.00792559 5.42523e-21)
(0.993457 -0.0088935 -1.18459e-20)
(0.994001 -0.0109245 5.33906e-21)
(0.99517 -0.0116966 -3.39048e-22)
(0.996094 -0.0138002 -2.84849e-21)
(0.997294 -0.0147635 1.91811e-21)
(0.999157 -0.0174597 0)
(1.00152 -0.0179892 -1.66855e-21)
(1.00511 -0.0207599 1.70934e-21)
(1.00758 -0.0211198 0)
(1.01079 -0.0238218 1.06335e-21)
(1.01366 -0.0231433 -1.06678e-21)
(1.0173 -0.0248737 0)
(1.02166 -0.0225697 -1.37118e-24)
(1.02578 -0.0236848 1.01162e-23)
(1.02988 -0.0218293 -1.82702e-23)
(1.03257 -0.0218423 0)
(1.03562 -0.0193661 1.83845e-23)
(1.03733 -0.0183701 0)
(1.04019 -0.0155104 -7.54762e-25)
(1.04106 -0.0140804 -2.56131e-23)
(1.04195 -0.0132543 -5.03845e-23)
(1.04161 -0.0135833 0)
(1.04195 -0.0146087 0)
(1.04176 -0.0179635 -4.68976e-22)
(1.04317 -0.0210948 8.0877e-22)
(1.04351 -0.0281521 8.83943e-23)
(1.04665 -0.0323836 -5.3173e-22)
(1.04805 -0.041822 1.20834e-22)
(1.05445 -0.0468004 0)
(1.05944 -0.054935 0)
(1.07164 -0.0572881 0)
(1.08058 -0.059993 -2.35264e-23)
(1.09745 -0.05605 2.68242e-23)
(1.10709 -0.0507299 4.27691e-23)
(1.12597 -0.0373717 1.46337e-21)
(1.12999 -0.0249113 -1.71175e-21)
(1.14222 -0.00762684 1.64625e-22)
(1.13148 0.0110017 3.5151e-21)
(0.991302 -0.00691755 -6.76819e-21)
(0.991743 -0.00906632 3.81179e-22)
(0.992603 -0.00996022 5.87448e-21)
(0.993201 -0.0121185 -1.12503e-20)
(0.993947 -0.013109 8.83324e-21)
(0.995436 -0.0151782 -2.76025e-21)
(0.996656 -0.0162839 6.33998e-22)
(0.998514 -0.0191004 2.21664e-21)
(1.00068 -0.0199384 -4.45197e-21)
(1.00433 -0.0228881 3.87079e-21)
(1.00746 -0.0231681 -1.67921e-21)
(1.01075 -0.0257259 -1.02167e-21)
(1.01394 -0.0249158 9.75474e-22)
(1.01762 -0.0267867 0)
(1.02178 -0.024987 -9.05654e-24)
(1.02577 -0.0257525 -2.49347e-22)
(1.03013 -0.0235068 2.68741e-22)
(1.03319 -0.023295 -2.93704e-22)
(1.03631 -0.0204384 2.52474e-22)
(1.03785 -0.0192619 -6.53103e-24)
(1.04022 -0.0166675 2.27196e-22)
(1.04115 -0.0143675 -6.46309e-22)
(1.04163 -0.0131874 4.36825e-22)
(1.04104 -0.0131364 7.8732e-22)
(1.04041 -0.0139379 -7.94717e-22)
(1.03922 -0.0167782 -5.5844e-22)
(1.03964 -0.019975 4.93181e-22)
(1.03904 -0.0271594 4.51805e-23)
(1.04176 -0.0317488 1.75283e-23)
(1.04306 -0.041344 -1.61254e-22)
(1.05019 -0.0483495 2.01264e-22)
(1.05381 -0.057057 0)
(1.06629 -0.0632399 -8.7292e-23)
(1.07464 -0.0670725 4.85951e-22)
(1.09206 -0.0667911 -6.91265e-22)
(1.10191 -0.0625612 2.46132e-22)
(1.12356 -0.0529302 1.21481e-21)
(1.12931 -0.0368236 1.04661e-21)
(1.14878 -0.0202078 -5.31147e-21)
(1.14217 0.00775649 2.76495e-21)
(0.990955 -0.00880052 8.18521e-22)
(0.991672 -0.0111315 6.28161e-21)
(0.992733 -0.0120537 -5.54368e-21)
(0.993466 -0.0143593 -7.57918e-22)
(0.994273 -0.015421 0)
(0.995802 -0.0177101 0)
(0.997324 -0.0187905 -3.28605e-22)
(0.99955 -0.0217256 0)
(1.00157 -0.0227605 1.99689e-21)
(1.00477 -0.0260484 -3.45835e-21)
(1.0081 -0.0259837 1.68917e-21)
(1.01188 -0.0290119 6.92562e-23)
(1.01569 -0.0274537 7.14903e-24)
(1.01996 -0.0298686 1.75312e-23)
(1.0237 -0.0276416 0)
(1.02757 -0.0284311 0)
(1.032 -0.0260522 3.17644e-23)
(1.0351 -0.0253609 -4.40018e-23)
(1.03889 -0.0223571 2.3247e-23)
(1.04054 -0.0201475 6.79317e-24)
(1.04221 -0.0178173 0)
(1.04273 -0.0147884 0)
(1.04255 -0.0129935 1.33897e-22)
(1.04142 -0.0124282 8.92941e-22)
(1.04011 -0.0129228 -1.01622e-21)
(1.0377 -0.0151749 0)
(1.03759 -0.018489 6.87254e-23)
(1.03481 -0.0253788 -4.69348e-23)
(1.03712 -0.0312032 -1.9899e-22)
(1.03601 -0.0401333 1.96085e-22)
(1.04325 -0.0482841 -4.22522e-23)
(1.04637 -0.058099 0)
(1.05961 -0.0661995 9.06596e-23)
(1.06803 -0.0728494 1.28108e-22)
(1.08716 -0.0758249 -7.38951e-23)
(1.09801 -0.0744159 -5.45537e-22)
(1.12085 -0.0706332 9.82228e-22)
(1.12762 -0.0566416 -3.52895e-22)
(1.14968 -0.0444868 -1.09254e-22)
(1.14887 -0.0106159 2.0492e-22)
(0.989402 -0.0100439 -7.42077e-21)
(0.990488 -0.0125122 6.57067e-21)
(0.991035 -0.0136283 -1.34239e-20)
(0.992255 -0.0158673 1.34397e-20)
(0.99309 -0.0170534 -6.24008e-21)
(0.994589 -0.0195961 -2.80752e-21)
(0.996383 -0.0206281 2.82225e-21)
(0.998661 -0.0238903 2.33762e-21)
(1.00138 -0.0246058 -4.10862e-21)
(1.00431 -0.0282991 3.71689e-21)
(1.0075 -0.028207 -1.69128e-21)
(1.01152 -0.0313928 -7.2029e-23)
(1.01539 -0.0298953 -1.39327e-22)
(1.02024 -0.0319933 2.13233e-22)
(1.0245 -0.0294616 -2.9108e-23)
(1.02851 -0.0302419 -4.96812e-22)
(1.03285 -0.0276764 4.38613e-22)
(1.03578 -0.0268883 -8.27167e-24)
(1.03943 -0.0238845 -3.28395e-23)
(1.04115 -0.0205962 0)
(1.04278 -0.0179015 1.01709e-23)
(1.04309 -0.0145656 0)
(1.04253 -0.0122877 -7.41483e-23)
(1.04078 -0.011281 -1.01122e-23)
(1.03905 -0.0115093 -8.69916e-22)
(1.03532 -0.0129498 1.00435e-21)
(1.03491 -0.0162145 -6.26559e-22)
(1.03103 -0.02169 -2.45615e-22)
(1.03242 -0.0287091 8.37824e-22)
(1.02876 -0.0381657 2.20065e-24)
(1.03454 -0.0477269 0)
(1.036 -0.0584305 -9.2908e-22)
(1.04844 -0.0693445 9.24217e-22)
(1.05628 -0.0786761 -1.33206e-22)
(1.07709 -0.0871329 0)
(1.08955 -0.086798 0)
(1.1169 -0.0881704 0)
(1.12649 -0.075339 0)
(1.15371 -0.0649269 2.22748e-21)
(1.15451 -0.030657 -5.31247e-21)
(0.989294 -0.0123132 7.08475e-21)
(0.990489 -0.0150803 -6.69418e-22)
(0.991075 -0.0162898 -1.36603e-20)
(0.992345 -0.0187022 -1.43989e-22)
(0.9934 -0.0199566 6.53732e-21)
(0.994954 -0.0228186 0)
(0.996953 -0.02389 0)
(0.999123 -0.0274763 0)
(1.0026 -0.0279536 1.77607e-21)
(1.0056 -0.0319978 -2.30984e-21)
(1.00934 -0.0316295 8.87441e-23)
(1.01323 -0.0351615 -7.91574e-22)
(1.01703 -0.0336244 7.55695e-22)
(1.02194 -0.0356262 3.51304e-24)
(1.02685 -0.03328 -1.40268e-23)
(1.03115 -0.0333572 -8.04688e-24)
(1.03603 -0.0306163 0)
(1.03907 -0.028919 1.22678e-22)
(1.0423 -0.0261515 3.42718e-23)
(1.04412 -0.0220929 1.11932e-23)
(1.04541 -0.01872 -3.91866e-22)
(1.04559 -0.0148596 4.19218e-22)
(1.04524 -0.0118348 -1.00379e-22)
(1.04262 -0.0098941 8.43008e-23)
(1.04026 -0.00963378 -1.65155e-22)
(1.03504 -0.0102399 -8.70875e-22)
(1.03342 -0.0135469 1.02264e-21)
(1.02768 -0.0180505 1.03818e-21)
(1.0281 -0.0245272 -6.56646e-22)
(1.02311 -0.0341711 -4.95275e-22)
(1.02679 -0.0456387 0)
(1.02571 -0.0574777 1.0507e-22)
(1.03602 -0.0712227 0)
(1.04234 -0.0815321 1.41548e-21)
(1.06167 -0.0947081 -3.25671e-21)
(1.07504 -0.0980381 4.51415e-21)
(1.10456 -0.104565 -5.07667e-21)
(1.11972 -0.097045 2.13828e-21)
(1.15504 -0.0912522 8.45896e-22)
(1.16035 -0.0571496 -9.73379e-22)
(0.987154 -0.0140544 -4.79905e-22)
(0.988488 -0.0170243 8.18759e-21)
(0.9894 -0.0182041 -7.31786e-21)
(0.990262 -0.020918 4.38617e-22)
(0.99205 -0.0220212 0)
(0.993111 -0.0252639 -3.9708e-22)
(0.995867 -0.0261297 0)
(0.997851 -0.0300365 2.79477e-21)
(1.00148 -0.0304224 -6.79719e-22)
(1.00506 -0.0346466 -1.86649e-21)
(1.00901 -0.0341967 -9.27392e-23)
(1.01346 -0.037736 -5.26372e-23)
(1.01765 -0.0360545 0)
(1.02232 -0.0380079 2.21095e-22)
(1.02733 -0.0357248 -1.87046e-22)
(1.03169 -0.0354622 -7.61776e-22)
(1.03687 -0.0326401 8.64764e-22)
(1.0404 -0.0299506 -6.92413e-23)
(1.04372 -0.0268344 3.29716e-22)
(1.0458 -0.0224146 -3.89416e-22)
(1.04685 -0.0186749 1.26626e-23)
(1.04637 -0.0143743 -1.12737e-22)
(1.04584 -0.0105031 1.04987e-22)
(1.04291 -0.00752989 -1.15755e-22)
(1.04025 -0.00671538 9.26312e-23)
(1.03412 -0.00644394 -1.62228e-21)
(1.03129 -0.00930436 1.42664e-21)
(1.02386 -0.0133676 1.39293e-21)
(1.02302 -0.020196 -1.43483e-21)
(1.01626 -0.0279218 -3.72178e-23)
(1.01854 -0.0403444 0)
(1.0152 -0.0520094 -1.25313e-21)
(1.02287 -0.0690473 9.59701e-22)
(1.02622 -0.0823186 1.99331e-21)
(1.04306 -0.100282 -1.71522e-21)
(1.05498 -0.109823 0)
(1.08406 -0.122803 -3.56988e-21)
(1.10243 -0.120074 3.59974e-21)
(1.14339 -0.125217 0)
(1.1612 -0.0916897 -5.24877e-23)
(0.987422 -0.0168766 1.56843e-22)
(0.988556 -0.0201617 -8.45178e-21)
(0.989793 -0.0214812 7.45485e-21)
(0.990295 -0.0245421 -1.51517e-20)
(0.992482 -0.0257476 1.10822e-20)
(0.993318 -0.0292856 -3.02132e-21)
(0.996669 -0.0301862 0)
(0.998658 -0.0344698 -3.44099e-22)
(1.00269 -0.034783 -1.80409e-21)
(1.00641 -0.0393539 1.87211e-21)
(1.01063 -0.0388399 8.02673e-23)
(1.0155 -0.0423199 -4.84842e-22)
(1.02055 -0.0407615 4.37842e-22)
(1.02531 -0.0422808 5.6605e-23)
(1.03101 -0.0400692 0)
(1.0354 -0.0390041 0)
(1.04047 -0.0365723 -6.7609e-23)
(1.04417 -0.0329862 6.95001e-22)
(1.04754 -0.0293689 -1.14148e-21)
(1.04981 -0.0240671 4.54542e-22)
(1.05155 -0.0193858 -5.44377e-22)
(1.05061 -0.014542 5.17841e-22)
(1.04952 -0.0100352 1.43955e-22)
(1.04594 -0.0057495 2.12687e-21)
(1.04303 -0.00405983 -1.9975e-21)
(1.03616 -0.00259415 -1.62271e-21)
(1.03221 -0.00478462 1.23721e-22)
(1.02311 -0.00697234 -4.95306e-22)
(1.02032 -0.01435 2.10349e-21)
(1.01149 -0.0211648 1.02342e-22)
(1.01113 -0.0340014 -2.40377e-23)
(1.00487 -0.0453248 -7.84373e-23)
(1.00939 -0.0632909 1.85351e-22)
(1.00908 -0.07819 2.59912e-21)
(1.02242 -0.100188 -5.36677e-21)
(1.03221 -0.113304 2.71392e-21)
(1.05734 -0.136255 0)
(1.07816 -0.137253 0)
(1.1161 -0.15834 0)
(1.14942 -0.131067 2.15995e-21)
(0.985767 -0.018915 0)
(0.986047 -0.0225204 8.15786e-21)
(0.987696 -0.023987 -8.72457e-21)
(0.987863 -0.0273246 7.59108e-21)
(0.990289 -0.0285869 -8.58057e-21)
(0.991224 -0.0323631 -4.36794e-22)