/*--------------------------------*- C++ -*----------------------------------*\
  =========                 |
  \\      /  F ield         | OpenFOAM: The Open Source CFD Toolbox
   \\    /   O peration     | Website:  https://openfoam.org
    \\  /    A nd           | Version:  11
     \\/     M anipulation  |
\*---------------------------------------------------------------------------*/
FoamFile
{
    format      ascii;
    class       volVectorField;
    location    "0.5";
    object      U;
}
// * * * * * * * * * * * * * * * * * * * * * * * * * * * * * * * * * * * * * //

dimensions      [0 1 -1 0 0 0 0];

internalField   nonuniform List<vector> 
9600
(
(0.943252 0.0219124 2.00603e-21)
(0.870642 -0.022028 0)
(0.878802 -0.0589278 1.35464e-21)
(0.929408 -0.0822027 -1.32981e-21)
(0.966493 -0.0785334 0)
(0.987837 -0.0693552 -1.33843e-21)
(0.999783 -0.0630445 2.74037e-21)
(1.00785 -0.0584639 -1.38914e-21)
(1.01454 -0.0547381 -1.52689e-21)
(1.02009 -0.0513061 1.53055e-21)
(1.0249 -0.0480876 -1.37498e-23)
(1.02922 -0.0448674 0)
(1.03313 -0.041363 0)
(1.03647 -0.0375306 9.28308e-22)
(1.03908 -0.0334018 4.85107e-23)
(1.04097 -0.0290815 -9.70908e-22)
(1.04239 -0.0247841 0)
(1.04369 -0.0204412 0)
(1.04487 -0.0160444 -2.40107e-24)
(1.04562 -0.0115596 0)
(1.04558 -0.00732035 0)
(1.04472 -0.00283464 2.63463e-24)
(1.04337 0.00182799 -5.3043e-24)
(1.04185 0.00637446 1.37793e-21)
(1.04038 0.0107557 -1.36604e-21)
(1.03885 0.0151621 -1.32197e-21)
(1.03693 0.0195574 1.33032e-21)
(1.03451 0.0237072 2.34241e-21)
(1.03152 0.0275808 -2.30246e-21)
(1.0282 0.0309503 0)
(1.0248 0.0341569 0)
(1.02143 0.0370427 -1.33179e-21)
(1.01821 0.0400855 2.41453e-21)
(1.01481 0.0431617 -1.09373e-21)
(1.01158 0.0468325 0)
(1.00756 0.0501095 -8.31799e-24)
(1.00286 0.0587392 -1.01509e-21)
(0.991757 0.0607403 1.0019e-21)
(0.983413 0.0825351 5.62006e-24)
(0.877278 0.089361 3.11743e-21)
(0.973637 0.00583295 1.56339e-21)
(0.970212 0.000312724 1.22794e-22)
(0.992606 0.0130574 7.82339e-22)
(1.00496 0.0451069 -2.52866e-21)
(0.998419 0.0617408 -1.73631e-21)
(0.994317 0.0636646 1.7256e-21)
(0.994088 0.0605829 -2.23817e-23)
(0.996669 0.0563854 -1.30089e-23)
(0.999958 0.0529785 1.91088e-21)
(1.0034 0.0497492 -1.94128e-21)
(1.00704 0.0465601 1.40733e-23)
(1.01051 0.0434113 -2.7278e-23)
(1.01384 0.0400375 -9.91219e-22)
(1.01676 0.0365313 2.071e-21)
(1.01904 0.0328222 -1.06686e-21)
(1.02072 0.0288286 -1.14344e-21)
(1.02202 0.0246457 1.15344e-21)
(1.02325 0.0202989 -6.34115e-22)
(1.0244 0.0159728 6.27687e-22)
(1.02499 0.0116781 0)
(1.02488 0.00772836 0)
(1.02418 0.00343906 6.83555e-22)
(1.02294 -0.00136428 -6.75013e-22)
(1.02147 -0.00605765 -1.08708e-23)
(1.02015 -0.010496 0)
(1.01884 -0.0147086 -1.34939e-21)
(1.01714 -0.0187365 5.70847e-23)
(1.01489 -0.0225939 -1.07161e-21)
(1.01195 -0.026348 2.28717e-21)
(1.00871 -0.0297794 3.33203e-23)
(1.0051 -0.0331362 -1.45724e-21)
(1.00167 -0.0361507 1.46444e-21)
(0.998563 -0.0394556 -9.23083e-22)
(0.995185 -0.0427841 1.57637e-21)
(0.992683 -0.0467015 -6.45474e-22)
(0.986467 -0.0522027 8.5359e-24)
(0.98668 -0.0578919 6.70255e-24)
(0.977347 -0.0654817 0)
(0.9856 -0.0623024 -5.72967e-24)
(0.972011 -0.0677774 6.89589e-22)
(0.974338 0.00452446 0)
(0.942293 -0.0180147 -9.91116e-22)
(0.945531 -0.0384995 9.78922e-22)
(0.953492 -0.0555746 0)
(0.970324 -0.0660047 0)
(0.987437 -0.0674758 5.01934e-23)
(1.00065 -0.0644457 7.52078e-23)
(1.00999 -0.0608243 0)
(1.01653 -0.0573747 1.38113e-21)
(1.02172 -0.0541361 -1.3021e-21)
(1.02623 -0.050948 0)
(1.03024 -0.0477865 2.79364e-23)
(1.03375 -0.0442591 -2.89698e-23)
(1.03664 -0.0403617 0)
(1.03883 -0.0360544 9.82074e-22)
(1.04041 -0.0313605 -9.67384e-22)
(1.04166 -0.0265745 -3.5969e-23)
(1.04301 -0.0216226 9.39022e-24)
(1.04428 -0.0166673 3.08321e-22)
(1.04525 -0.0116107 -3.18559e-22)
(1.04532 -0.00676374 -3.48903e-22)
(1.04425 -0.00192652 3.65472e-22)
(1.04282 0.00332687 -1.11721e-23)
(1.04155 0.00834282 1.46537e-21)
(1.04033 0.0131618 -1.44155e-21)
(1.03908 0.0179709 -1.39377e-21)
(1.03754 0.0225687 1.45848e-21)
(1.03553 0.026804 -2.70158e-21)
(1.03301 0.0306813 2.69657e-21)
(1.02999 0.0339321 -3.41233e-23)
(1.02703 0.0370941 0)
(1.02368 0.0397993 -1.87855e-21)
(1.02062 0.0430554 3.55154e-21)
(1.01609 0.0459415 -1.6513e-21)
(1.01382 0.0514334 -1.28569e-21)
(1.00739 0.0533784 3.43434e-21)
(1.00149 0.0631468 -3.03563e-22)
(0.987125 0.061024 -1.85762e-21)
(0.969547 0.0738493 9.98266e-24)
(0.93858 0.0515871 -4.52615e-24)
(0.995589 -0.013902 3.83244e-21)
(0.996208 -0.013091 -1.64325e-21)
(1.01184 -0.00956523 -3.42758e-21)
(1.02447 0.0159081 3.47668e-21)
(1.01993 0.0386444 0)
(1.0122 0.0489349 -2.29459e-21)
(1.00668 0.0510899 2.1973e-21)
(1.00422 0.0498605 -2.41343e-21)
(1.00473 0.0477234 1.26536e-23)
(1.007 0.0451516 2.36243e-21)
(1.00989 0.0422528 2.26226e-21)
(1.01316 0.0390989 -4.71476e-21)
(1.0165 0.0358279 1.15451e-21)
(1.01943 0.0325528 2.38925e-21)
(1.02174 0.0292737 -1.20699e-21)
(1.02341 0.0258797 -1.30982e-21)
(1.02464 0.0222944 1.29499e-21)
(1.02578 0.0186068 1.95363e-23)
(1.02691 0.0148683 1.04241e-23)
(1.02737 0.0111002 0)
(1.0272 0.00761453 0)
(1.02678 0.00408281 -1.13872e-23)
(1.0257 -9.36761e-05 0)
(1.02418 -0.00427232 0)
(1.02285 -0.0082598 2.36382e-23)
(1.02159 -0.0120958 -4.55116e-23)
(1.01986 -0.0158788 1.25122e-21)
(1.01759 -0.0196196 9.72986e-22)
(1.01466 -0.0232237 -2.43082e-21)
(1.01129 -0.026705 1.71287e-21)
(1.00787 -0.0300042 -1.70892e-21)
(1.00471 -0.0330931 -5.74236e-23)
(1.00256 -0.0362962 -7.02484e-22)
(0.999104 -0.0401213 7.49532e-22)
(0.999101 -0.0431755 2.75795e-22)
(0.995587 -0.0499591 2.69064e-23)
(0.997265 -0.0519033 -1.9882e-22)
(0.998329 -0.0557483 -1.34574e-22)
(1.00691 -0.0400118 -1.00905e-23)
(0.995807 -0.0418717 -1.10037e-23)
(1.00289 -0.0169431 0)
(0.982462 -0.0101322 -1.63828e-21)
(0.981458 -0.0154551 3.69966e-21)
(0.971873 -0.0278132 -2.06303e-21)
(0.974268 -0.0432649 0)
(0.986588 -0.0536751 0)
(0.998496 -0.0571632 0)
(1.00828 -0.0570712 -5.9905e-23)
(1.01611 -0.055589 1.10424e-21)
(1.02183 -0.0536442 -1.16245e-21)
(1.02615 -0.0511682 5.82326e-23)
(1.03001 -0.0480511 -1.45473e-21)
(1.0332 -0.0445071 2.337e-21)
(1.03574 -0.0406485 -8.20691e-22)
(1.03755 -0.0364348 0)
(1.03883 -0.0317413 -1.01062e-21)
(1.0399 -0.0268512 1.04749e-21)
(1.04114 -0.0217254 -2.00365e-23)
(1.04236 -0.0165112 0)
(1.04353 -0.0111327 0)
(1.04382 -0.0059215 3.68519e-22)
(1.04254 -0.000999334 -3.68411e-22)
(1.04097 0.00430107 0)
(1.03982 0.00947915 1.57633e-21)
(1.03871 0.0144376 -1.6224e-21)
(1.0377 0.0193417 -1.60837e-21)
(1.03644 0.0238505 1.55952e-21)
(1.03476 0.0280382 -3.0084e-21)
(1.03274 0.0317868 3.17426e-21)
(1.03024 0.0350325 7.41867e-23)
(1.02749 0.0379507 0)
(1.02396 0.0405106 5.88648e-23)
(1.02064 0.0438539 2.15779e-21)
(1.01573 0.0454532 -2.20126e-21)
(1.01176 0.0512294 3.50405e-23)
(1.00572 0.0508402 0)
(0.996098 0.0582705 0)
(0.978051 0.050524 -2.21273e-21)
(0.972177 0.0509972 2.16069e-21)
(0.95771 0.0260865 -2.40003e-23)
(1.00581 -0.019466 2.52036e-21)
(1.00143 -0.00472295 5.27589e-23)
(1.01067 -0.00774828 -8.35545e-23)
(1.02022 -0.00139003 -1.05789e-22)
(1.02224 0.0152083 0)
(1.02103 0.028527 0)
(1.01726 0.0359302 0)
(1.01351 0.0382756 -2.5952e-21)
(1.01112 0.038245 5.53227e-21)
(1.01098 0.0370441 -2.58133e-21)
(1.0131 0.034549 0)
(1.01635 0.0315266 -2.58727e-21)
(1.01959 0.0285374 2.6561e-21)
(1.02251 0.0256842 1.3614e-21)
(1.02484 0.0229876 -1.36364e-21)
(1.02664 0.020416 -3.78556e-23)
(1.02796 0.0178185 3.9934e-23)
(1.02909 0.0151912 0)
(1.03023 0.0125129 -2.22584e-23)
(1.03051 0.00973657 0)
(1.03001 0.00710451 6.00642e-24)
(1.02994 0.00459859 2.44714e-23)
(1.02916 0.00157045 0)
(1.0276 -0.00160796 -1.57915e-21)
(1.02603 -0.00473936 1.57768e-21)
(1.02477 -0.00781637 -1.3458e-21)
(1.023 -0.0110047 1.53824e-21)
(1.02058 -0.0143515 2.34685e-21)
(1.01751 -0.0177489 -2.34776e-21)
(1.01399 -0.0211873 4.49073e-24)
(1.01081 -0.024303 -1.44778e-22)
(1.008 -0.0274955 1.27908e-22)
(1.00653 -0.0300681 -6.96883e-22)
(1.0043 -0.0342085 1.16159e-21)
(1.0052 -0.0370406 -4.65422e-22)
(1.00457 -0.0411312 0)
(1.00693 -0.0400246 -4.58865e-23)
(1.00859 -0.0376586 3.46893e-23)
(1.01449 -0.0188411 3.30742e-23)
(1.00085 -0.0197945 -1.36771e-22)
(1.00886 -0.0153996 7.90997e-22)
(0.997416 -0.00138068 4.35102e-21)
(1.00001 -0.00773986 2.1294e-22)
(0.993289 -0.0149941 -2.49675e-21)
(0.98532 -0.0241803 0)
(0.98929 -0.0368441 -1.05483e-22)
(0.998153 -0.0457244 -1.11771e-22)
(1.00725 -0.0489738 0)
(1.0152 -0.0491567 -1.20593e-21)
(1.02156 -0.0490419 8.41767e-22)
(1.02627 -0.0479212 0)
(1.02993 -0.0453326 -1.31425e-22)
(1.03289 -0.0418623 8.32307e-22)
(1.03518 -0.0381816 -8.33878e-22)
(1.03674 -0.0342467 0)
(1.03773 -0.0297653 -1.05468e-21)
(1.0387 -0.0250364 1.09585e-21)
(1.0398 -0.0200978 0)
(1.04101 -0.0152356 3.95518e-22)
(1.0422 -0.00993566 -3.4946e-22)
(1.04249 -0.0048085 -1.24253e-23)
(1.04141 -4.22447e-05 -5.05928e-23)
(1.03977 0.00491467 5.13275e-23)
(1.03851 0.00979377 1.74771e-21)
(1.0375 0.0144439 -1.74585e-21)
(1.03664 0.0190317 -1.0201e-22)
(1.03555 0.0234117 -1.75594e-21)
(1.03414 0.0274173 1.94575e-21)
(1.03242 0.0309069 3.29043e-21)
(1.03032 0.0339553 -3.28966e-21)
(1.02777 0.0366765 1.48627e-22)
(1.02386 0.0389158 7.96191e-25)
(1.02004 0.0418475 0)
(1.01466 0.043001 9.86632e-23)
(1.00906 0.0461002 1.97826e-21)
(1.00189 0.0431923 1.29417e-21)
(0.992248 0.0452219 -5.49649e-22)
(0.981015 0.0332278 -2.66361e-21)
(0.982528 0.0303475 1.59799e-21)
(0.976311 0.00893911 -1.60921e-21)
(1.01051 -0.0122574 -2.43712e-21)
(1.00452 0.00108048 -3.5049e-22)
(1.01172 -0.00466259 6.18741e-21)
(1.01732 -0.00454938 -3.47846e-21)
(1.01866 0.00181791 0)
(1.02167 0.00909203 1.08383e-22)
(1.02136 0.0173463 2.79302e-21)
(1.0194 0.0233343 -5.83567e-21)
(1.01668 0.0260858 5.72101e-21)
(1.01537 0.0259019 -2.78041e-21)
(1.01613 0.0243591 0)
(1.01956 0.0213995 -2.8214e-21)
(1.02271 0.0188219 2.83141e-21)
(1.02553 0.0165407 1.42089e-21)
(1.02806 0.0145438 -1.49909e-21)
(1.03004 0.0129691 0)
(1.03157 0.0115665 6.48586e-25)
(1.03265 0.0102998 0)
(1.03397 0.00899274 -4.82533e-23)
(1.03411 0.00778113 1.26422e-23)
(1.03335 0.00630307 6.43036e-24)
(1.03326 0.00477229 2.61675e-23)
(1.03296 0.00346733 -5.27552e-23)
(1.03136 0.00172894 1.70549e-21)
(1.02976 -0.000276873 -1.75738e-21)
(1.0283 -0.00228311 -1.55467e-21)
(1.02632 -0.00451346 1.55192e-21)
(1.02371 -0.00716337 2.51212e-21)
(1.0203 -0.010208 -4.84831e-21)
(1.01674 -0.0135923 3.90659e-21)
(1.01372 -0.0167287 -1.83498e-21)
(1.01158 -0.0195838 -1.35673e-22)
(1.01082 -0.0217291 0)
(1.00921 -0.0251334 -1.01318e-22)
(1.01017 -0.02668 0)
(1.01078 -0.027044 0)
(1.01282 -0.0235439 0)
(1.00997 -0.019377 -4.28552e-22)
(1.01148 -0.0034649 4.88788e-22)
(0.998656 -0.00723965 5.86595e-23)
(1.01283 -0.0105227 3.08922e-21)
(1.00704 0.00313493 -4.77335e-24)
(1.0109 -0.00320817 3.33145e-21)
(1.00858 -0.0101647 -3.30114e-21)
(0.998749 -0.0148087 2.17149e-22)
(0.99646 -0.0242883 1.29205e-21)
(1.00058 -0.0327831 -9.4576e-22)
(1.00741 -0.0384453 1.26469e-22)
(1.01468 -0.0415441 1.33427e-21)
(1.02108 -0.0427735 -2.53836e-21)
(1.02618 -0.0422066 1.46929e-21)
(1.03013 -0.040205 0)
(1.0329 -0.03726 2.22588e-22)
(1.03501 -0.0338511 7.75906e-23)
(1.03655 -0.030072 -8.22083e-23)
(1.03746 -0.0260058 -1.11604e-21)
(1.03828 -0.021815 1.15905e-21)
(1.03919 -0.0173164 0)
(1.04032 -0.0130652 5.03219e-23)
(1.04141 -0.00813051 1.97068e-25)
(1.04189 -0.00342787 0)
(1.04102 0.00096334 -2.7659e-23)
(1.03924 0.00528222 -5.58151e-23)
(1.03803 0.00962034 -5.50023e-23)
(1.03701 0.0137498 1.10257e-22)
(1.03584 0.0177058 0)
(1.03469 0.0216934 0)
(1.0336 0.0253896 -3.7777e-21)
(1.03208 0.0285334 3.56883e-21)
(1.03016 0.0314905 1.85051e-22)
(1.02764 0.0341735 0)
(1.02364 0.0355691 3.38232e-21)
(1.01928 0.0376211 -6.11745e-21)
(1.01294 0.0375032 5.37244e-21)
(1.00728 0.0378153 -2.47521e-21)
(0.999219 0.0333109 1.63142e-22)
(0.994555 0.031145 2.45069e-21)
(0.989069 0.0183944 -2.53972e-21)
(0.992971 0.0173118 -1.41619e-21)
(0.988521 0.00228185 2.28176e-21)
(1.0137 -0.00945478 2.80987e-21)
(1.00907 0.00375427 -5.36619e-21)
(1.01384 -0.00292428 -6.0843e-22)
(1.01534 -0.00717828 3.72725e-21)
(1.01499 -0.00532994 -2.19132e-22)
(1.01776 -0.00307911 -1.13122e-22)
(1.02128 0.0015896 -1.20231e-22)
(1.02191 0.00738237 -2.9199e-21)
(1.02051 0.0117555 -6.92168e-23)
(1.01938 0.0128991 2.97061e-21)
(1.01975 0.0122324 2.81044e-21)
(1.02259 0.00992327 -1.08398e-22)
(1.02592 0.00774299 -4.77685e-21)
(1.0287 0.00607101 3.16529e-21)
(1.03131 0.0048993 -1.51744e-21)
(1.03336 0.00435018 -1.81793e-22)
(1.03513 0.0041716 0)
(1.03626 0.00450001 9.00306e-22)
(1.03766 0.00463279 -1.3738e-21)
(1.03763 0.00520235 4.38355e-22)
(1.03705 0.0052326 0)
(1.03669 0.00492979 9.50085e-22)
(1.03642 0.00511016 -8.5816e-22)
(1.03522 0.0052845 1.80448e-21)
(1.0333 0.00498067 -1.69788e-21)
(1.03145 0.00414062 -1.60468e-21)
(1.02939 0.00284769 3.44504e-21)
(1.02667 0.00107681 1.30544e-21)
(1.02319 -0.00147698 -2.70315e-21)
(1.0195 -0.00452274 -3.81877e-22)
(1.01658 -0.00769656 0)
(1.01485 -0.0103419 -3.13642e-22)
(1.01478 -0.0116838 0)
(1.01369 -0.0137432 -9.86561e-22)
(1.01412 -0.0133688 1.16317e-21)
(1.01384 -0.0122755 1.42918e-21)
(1.01351 -0.00704235 -1.30308e-21)
(1.00709 -0.00419212 0)
(1.00647 0.00536783 1.16533e-21)
(0.997065 -0.00143174 -1.22252e-21)
(1.01368 -0.00876556 3.72275e-21)
(1.01029 0.00423153 -1.66092e-22)
(1.01489 -0.00190346 3.5115e-21)
(1.01504 -0.00816914 -4.02636e-21)
(1.00887 -0.00973128 0)
(1.00504 -0.0162232 0)
(1.0062 -0.0239783 0)
(1.0102 -0.0294934 0)
(1.01558 -0.0339111 1.5146e-21)
(1.02118 -0.0357013 -1.51958e-21)
(1.02626 -0.0353527 0)
(1.03037 -0.0339853 1.54637e-22)
(1.03321 -0.0317138 1.23827e-21)
(1.03538 -0.0287057 -1.07951e-21)
(1.03703 -0.0252959 0)
(1.03805 -0.0217117 -1.29529e-21)
(1.03896 -0.0180185 1.49321e-21)
(1.03981 -0.0140643 0)
(1.04081 -0.010432 2.78812e-23)
(1.04183 -0.00610321 0)
(1.04215 -0.00176594 0)
(1.04146 0.0021231 -3.03887e-23)
(1.03988 0.00565133 -6.12849e-23)
(1.03838 0.00949277 -1.23004e-22)
(1.03702 0.0132464 -2.43247e-22)
(1.03574 0.0164673 -2.25971e-21)
(1.03459 0.0195206 1.89643e-21)
(1.03333 0.0226506 -4.25169e-21)
(1.03186 0.0256492 4.00792e-21)
(1.02981 0.0283312 1.97186e-22)
(1.02731 0.0308901 0)
(1.02318 0.0317624 1.61656e-22)
(1.0184 0.0320957 0)
(1.01198 0.0305458 0)
(1.00746 0.0295853 -2.01056e-22)
(1.00167 0.0237787 -3.44785e-21)
(1.00012 0.0199358 5.59492e-21)
(0.997068 0.0100271 -4.17316e-21)
(1.00052 0.0113181 3.78907e-22)
(0.9955 0.00148453 1.50927e-21)
(1.01398 -0.00849919 -5.29741e-22)
(1.01142 0.00404748 -6.12469e-21)
(1.01614 -0.0015443 6.69428e-21)
(1.01655 -0.00878307 5.37518e-22)
(1.01352 -0.00954777 -5.97288e-21)
(1.01451 -0.0103765 2.03505e-21)
(1.01867 -0.00965149 0)
(1.02194 -0.00586485 2.81958e-21)
(1.02216 -0.00187282 1.24607e-22)
(1.02238 -0.000133854 -2.92446e-21)
(1.02326 -0.000289791 1.54647e-22)
(1.02603 -0.00187843 -1.64414e-22)
(1.02913 -0.00353528 -3.4229e-22)
(1.03198 -0.00457955 0)
(1.03461 -0.00493211 0)
(1.03668 -0.00451755 0)
(1.03852 -0.00347365 5.32156e-24)
(1.03985 -0.00151596 0)
(1.04114 -5.212e-05 -8.8552e-23)
(1.04162 0.00248522 1.54658e-23)
(1.04066 0.00405259 -1.58271e-23)
(1.04029 0.00491016 3.13385e-23)
(1.03983 0.00662097 6.3202e-23)
(1.03844 0.00869271 2.15564e-21)
(1.03647 0.010193 -1.89894e-21)
(1.03452 0.0105415 -1.81881e-21)
(1.03251 0.0103419 1.69232e-21)
(1.02969 0.00945025 1.25428e-24)
(1.02627 0.00752937 2.76088e-21)
(1.02252 0.00483985 -2.7685e-21)
(1.01942 0.00199617 0)
(1.01786 -0.000388114 0)
(1.01775 -0.0010227 -1.4259e-21)
(1.01659 -0.00147211 1.94256e-22)
(1.01642 -0.000194557 2.85298e-21)
(1.01486 0.00121599 1.05636e-21)
(1.01136 0.00573171 1.44666e-23)
(1.00379 0.00504766 -2.18358e-21)
(1.0039 0.00918796 -1.54352e-21)
(0.997722 0.00173097 1.53621e-21)
(1.01345 -0.00862571 0)
(1.01186 0.00337017 -1.82908e-22)
(1.01657 -0.00144184 2.14835e-22)
(1.01765 -0.00925432 0)
(1.01349 -0.0100541 0)
(1.01119 -0.013123 0)
(1.01225 -0.0188192 2.64573e-22)
(1.01452 -0.0235515 2.78513e-22)
(1.01833 -0.0276118 -1.96288e-21)
(1.02272 -0.0297481 2.12004e-21)
(1.0272 -0.0296914 -1.62655e-22)
(1.03101 -0.0286019 -2.22909e-21)
(1.03388 -0.026889 3.90675e-21)
(1.03627 -0.024323 -1.32209e-21)
(1.03823 -0.0212466 1.01005e-22)
(1.0396 -0.0180619 -1.55365e-21)
(1.04081 -0.0147713 1.55048e-21)
(1.04189 -0.0111616 0)
(1.04271 -0.00805516 6.17322e-23)
(1.04356 -0.00402026 -1.59662e-23)
(1.04386 -0.000113208 1.63392e-23)
(1.04317 0.00343803 0)
(1.04171 0.00663965 0)
(1.04014 0.0101563 0)
(1.03843 0.0135301 0)
(1.03665 0.0159575 -2.15557e-21)
(1.03513 0.0182934 4.54599e-21)
(1.03348 0.0208063 -6.09935e-21)
(1.03172 0.0234156 4.4361e-21)
(1.02952 0.0257007 3.77921e-21)
(1.0269 0.0277247 -3.77159e-21)
(1.02292 0.0280428 3.44314e-21)
(1.01805 0.0271995 -3.75091e-21)
(1.01271 0.0247536 -3.08895e-22)
(1.00934 0.0231916 0)
(1.00711 0.0174674 3.34798e-21)
(1.00605 0.0144268 -9.03798e-22)
(1.00206 0.00825328 -2.68622e-21)
(1.00348 0.0103347 -1.61619e-21)
(0.998595 0.00318517 3.18385e-21)
(1.01289 -0.00929073 3.79667e-21)
(1.01236 0.00220452 -3.07691e-21)
(1.01706 -0.00167321 3.08536e-21)
(1.01875 -0.0100666 4.11507e-21)
(1.01449 -0.0113201 -4.13501e-21)
(1.01374 -0.0140718 -2.57104e-22)
(1.01706 -0.0163066 -2.71299e-22)
(1.02119 -0.0153942 1.73612e-23)
(1.02294 -0.0131365 2.83218e-21)
(1.02444 -0.0117991 -2.99797e-21)
(1.02655 -0.0117527 0)
(1.02917 -0.0127515 0)
(1.0322 -0.013843 0)
(1.03529 -0.0141366 1.96065e-21)
(1.038 -0.0136224 -1.86016e-21)
(1.0402 -0.012316 -2.27332e-22)
(1.04193 -0.010138 0)
(1.04328 -0.00688247 0)
(1.04448 -0.00418993 0)
(1.04517 -9.8519e-05 0)
(1.04462 0.00295425 -1.7798e-23)
(1.04389 0.00502704 0)
(1.04299 0.00767403 0)
(1.04149 0.0112817 2.42517e-21)
(1.03962 0.0142376 1.28918e-22)
(1.03757 0.0159018 -2.25803e-21)
(1.03542 0.0168717 0)
(1.0325 0.0169067 -3.70546e-21)
(1.02912 0.0158383 3.7175e-22)
(1.02548 0.0137435 3.57791e-21)
(1.02223 0.0113603 -2.18648e-22)
(1.02033 0.0093386 0)
(1.01987 0.00920006 -2.35594e-21)
(1.01849 0.00911535 8.4138e-22)
(1.0165 0.0111367 2.11812e-21)
(1.01321 0.0113347 -2.36943e-22)
(1.00917 0.0128704 1.98636e-22)
(1.00368 0.00904398 -2.12385e-21)
(1.00416 0.010869 2.11022e-21)
(0.999688 0.00452396 0)
(1.01232 -0.0104211 3.59515e-21)
(1.01287 0.000650634 -3.19064e-21)
(1.01759 -0.00231571 -4.82283e-22)
(1.01966 -0.0111496 8.1593e-21)
(1.01592 -0.0122556 -4.23065e-21)
(1.01428 -0.0146226 2.66343e-22)
(1.01618 -0.0180783 0)
(1.01889 -0.0220617 -1.03328e-23)
(1.02148 -0.0246159 2.13083e-21)
(1.02477 -0.026008 -2.62456e-21)
(1.02837 -0.0263113 0)
(1.03179 -0.0256921 0)
(1.03499 -0.0243009 -1.81139e-21)
(1.03784 -0.0221127 1.18093e-21)
(1.0403 -0.0195493 0)
(1.04226 -0.0167325 -1.86362e-21)
(1.04368 -0.0135002 1.98768e-21)
(1.04509 -0.00977083 0)
(1.04605 -0.0067133 0)
(1.04684 -0.00267768 1.84615e-23)
(1.04693 0.00127362 1.84143e-23)
(1.04608 0.00486075 0)
(1.04483 0.008242 0)
(1.04309 0.0120393 -1.49623e-22)
(1.04118 0.015538 -1.48766e-22)
(1.03906 0.0179041 0)
(1.03687 0.0196102 -2.29605e-21)
(1.03441 0.021066 2.29963e-21)
(1.03205 0.0228891 0)
(1.0295 0.0245956 0)
(1.02676 0.0260469 0)
(1.02291 0.0258432 0)
(1.01873 0.0247084 0)
(1.01485 0.02152 -2.99798e-21)
(1.0131 0.0199879 2.65789e-21)
(1.0114 0.0159958 2.44635e-22)
(1.00916 0.0148783 -3.50294e-21)
(1.00424 0.0103656 3.19188e-21)
(1.00453 0.0116935 0)
(1.00055 0.00596636 1.27902e-22)
(1.0135 -0.0110522 -2.33757e-22)
(1.01389 -0.000763295 -3.70466e-21)
(1.01833 -0.002995 3.53263e-21)
(1.02075 -0.0120969 3.99988e-21)
(1.01737 -0.0131888 -6.44305e-21)
(1.01555 -0.015858 1.89273e-21)
(1.01795 -0.019682 2.1595e-21)
(1.02148 -0.0214075 -5.46788e-21)
(1.02357 -0.0208856 1.69771e-22)
(1.02596 -0.0206762 3.02574e-21)
(1.02885 -0.0210734 0)
(1.03198 -0.02181 0)
(1.03549 -0.0220216 2.09097e-22)
(1.03887 -0.0212595 2.13426e-21)
(1.04168 -0.0196742 -1.91435e-21)
(1.04386 -0.0172905 -2.13873e-21)
(1.0456 -0.0141451 2.14219e-21)
(1.04723 -0.0102057 0)
(1.04836 -0.00678558 0)
(1.04928 -0.00201734 -1.91232e-23)
(1.04895 0.00226338 -2.03157e-23)
(1.04781 0.00556523 0)
(1.04668 0.00914913 0)
(1.04495 0.0131477 2.57611e-21)
(1.04289 0.0169398 -2.57194e-21)
(1.04068 0.019573 -2.49754e-21)
(1.03831 0.0213515 2.49177e-21)
(1.0354 0.0225026 -5.9469e-22)
(1.03211 0.0225533 4.2668e-21)
(1.0285 0.021487 -4.25284e-21)
(1.02499 0.0196803 0)
(1.02238 0.0180239 0)
(1.02119 0.0181115 -2.95896e-21)
(1.01859 0.0178579 -1.19841e-22)
(1.01567 0.0187629 5.41749e-21)
(1.01268 0.0168728 -2.67578e-21)
(1.00993 0.0161809 3.87977e-21)
(1.00486 0.0116943 -6.32633e-21)
(1.00488 0.0126381 3.71792e-22)
(1.00129 0.00753934 2.24051e-21)
(1.01401 -0.0118023 0)
(1.01411 -0.00267128 -3.32949e-21)
(1.01825 -0.00414323 7.77197e-21)
(1.02088 -0.0131695 -3.74886e-21)
(1.01754 -0.0144994 2.70606e-22)
(1.01579 -0.0170806 2.59154e-21)
(1.01809 -0.0204514 -1.71955e-21)
(1.02141 -0.0238198 0)
(1.02382 -0.0253671 2.5095e-21)
(1.02693 -0.0263318 -2.50156e-21)
(1.03025 -0.0266745 0)
(1.03368 -0.0263221 -3.53134e-21)
(1.0373 -0.025405 3.54288e-21)
(1.04066 -0.0238557 0)
(1.04349 -0.0217019 1.90417e-21)
(1.04587 -0.0188592 -2.17787e-21)
(1.04784 -0.0155439 -1.51133e-22)
(1.04963 -0.011228 0)
(1.05064 -0.00742987 8.28499e-23)
(1.05167 -0.00255245 0)
(1.05144 0.00226372 -7.82075e-25)
(1.04995 0.0060907 -8.81467e-23)
(1.04876 0.0100056 -1.76674e-22)
(1.047 0.0142867 0)
(1.04476 0.0182851 0)
(1.04245 0.0213431 -2.65733e-21)
(1.03992 0.023353 5.22251e-21)
(1.03684 0.0246219 2.65661e-21)
(1.03359 0.0253145 -9.84643e-21)
(1.0304 0.025981 4.63481e-21)
(1.02745 0.0266763 0)
(1.02354 0.0261352 0)
(1.02031 0.024855 0)
(1.0176 0.0221531 3.79898e-22)
(1.01578 0.0214452 -6.93808e-22)
(1.01312 0.0189531 2.9699e-22)
(1.01052 0.0179679 3.25889e-21)
(1.00554 0.0133238 -3.91104e-21)
(1.0053 0.0137905 1.86059e-22)
(1.00206 0.00924741 2.33649e-21)
(1.01331 -0.0133495 4.07717e-21)
(1.01375 -0.00512384 -2.18569e-22)
(1.01787 -0.00559934 -3.97055e-21)
(1.02123 -0.0140919 8.1125e-21)
(1.01824 -0.0157943 -6.94555e-21)
(1.01624 -0.0185917 2.26359e-21)
(1.01843 -0.022305 -6.25649e-22)
(1.02236 -0.0258985 -2.86693e-21)
(1.02503 -0.0268142 6.30405e-21)
(1.02797 -0.0273952 -6.72008e-21)
(1.0312 -0.0277644 3.2753e-21)
(1.03477 -0.0278294 3.79858e-21)
(1.03869 -0.0272126 -3.55959e-21)
(1.04239 -0.0257359 0)
(1.04551 -0.0235208 2.79336e-22)
(1.04814 -0.0204998 -2.49082e-21)
(1.05028 -0.0169077 2.65197e-21)
(1.0523 -0.0122124 -1.37509e-21)
(1.05327 -0.00810566 1.2004e-21)
(1.05425 -0.00283757 -2.31695e-23)
(1.05438 0.0026315 7.65973e-22)
(1.05259 0.00680671 -2.14479e-21)
(1.05126 0.0109428 1.48514e-21)
(1.04946 0.0155015 2.95862e-21)
(1.04688 0.0196873 -2.95321e-21)
(1.04435 0.0230243 -2.83878e-21)
(1.04167 0.0253983 2.47693e-21)
(1.03849 0.0268955 3.40164e-22)
(1.03493 0.0276082 3.13361e-22)
(1.03124 0.0276118 4.55483e-21)
(1.02764 0.026731 -5.09103e-21)
(1.02418 0.0252291 0)
(1.02177 0.0250653 4.66675e-22)
(1.01864 0.02365 -3.18586e-21)
(1.01646 0.0232511 5.98884e-21)
(1.01357 0.0208254 -2.81993e-21)
(1.01102 0.0197201 4.44451e-21)
(1.00615 0.0150058 -6.108e-22)
(1.00567 0.0150888 -6.7217e-21)
(1.00282 0.0110883 2.79224e-21)
(1.0125 -0.0150185 -4.87932e-22)
(1.01306 -0.00737726 -3.61569e-21)
(1.01713 -0.00705412 3.18828e-21)
(1.02133 -0.0151012 5.36344e-22)
(1.0188 -0.0174193 0)
(1.01682 -0.0202796 0)
(1.01886 -0.0240475 3.24665e-22)
(1.02314 -0.028123 0)
(1.02592 -0.029411 -3.23053e-21)
(1.02888 -0.0300898 6.28853e-21)
(1.03219 -0.0304752 -3.48078e-21)
(1.03615 -0.0303973 -2.4917e-22)
(1.04042 -0.0295799 9.84274e-24)
(1.04435 -0.0279379 -2.93901e-22)
(1.0477 -0.0254606 0)
(1.05067 -0.0221752 0)
(1.05294 -0.0183505 1.78522e-22)
(1.05526 -0.0133818 -1.87752e-22)
(1.05637 -0.00891019 9.33625e-23)
(1.05709 -0.00323559 2.40998e-23)
(1.05761 0.00279214 0)
(1.05583 0.00746707 0)
(1.05424 0.0120837 4.04592e-22)
(1.05225 0.0169434 2.98649e-21)
(1.04942 0.0213382 -3.38749e-21)
(1.04656 0.0248766 0)
(1.0436 0.0275668 3.68821e-22)
(1.04021 0.0292651 -3.53629e-22)
(1.03637 0.0300541 -5.25757e-21)
(1.03252 0.0302699 4.91488e-21)
(1.029 0.0301876 5.76774e-22)
(1.0251 0.0291522 0)
(1.022 0.0282241 -4.8468e-22)
(1.019 0.026262 -4.57385e-22)
(1.01703 0.0255922 3.98041e-22)
(1.01404 0.0230662 5.39556e-21)
(1.0115 0.021795 -7.41158e-22)
(1.00669 0.0169173 -4.31903e-21)
(1.00597 0.0166057 -2.35015e-22)
(1.00343 0.0129778 1.8688e-22)
(1.01194 -0.0166791 4.04283e-21)
(1.01245 -0.0098492 -3.65042e-21)
(1.01658 -0.00899848 7.9032e-21)
(1.0214 -0.0166379 -8.98988e-21)
(1.01964 -0.019479 4.52343e-21)
(1.01755 -0.0224681 2.55762e-21)
(1.01948 -0.0263824 -2.57278e-21)
(1.02408 -0.0308493 -3.1772e-21)
(1.02684 -0.0321152 6.20638e-21)
(1.03016 -0.0328374 -7.16665e-21)
(1.03383 -0.0332452 3.72339e-21)
(1.03796 -0.0330045 2.59355e-22)
(1.0424 -0.032087 1.82126e-21)
(1.04657 -0.0303385 4.90646e-22)
(1.05015 -0.0277113 -2.94249e-21)
(1.05351 -0.0241623 -3.14112e-21)
(1.056 -0.020025 2.77633e-21)
(1.05858 -0.0145938 -1.00776e-23)
(1.05985 -0.00957612 -1.07029e-22)
(1.06051 -0.00355908 0)
(1.0612 0.00288813 2.81006e-23)
(1.05928 0.00824874 0)
(1.05743 0.0133641 -2.1505e-22)
(1.05528 0.0184635 -9.3409e-24)
(1.05224 0.0230377 -2.95569e-21)
(1.04908 0.0269074 3.37643e-21)
(1.04583 0.0298813 -3.15941e-21)
(1.04215 0.0319052 -3.24731e-21)
(1.0381 0.0328971 6.35186e-21)
(1.03387 0.0330359 3.34975e-22)
(1.03008 0.0328241 0)
(1.0261 0.0314884 4.44622e-21)
(1.02282 0.0307644 -4.42295e-21)
(1.01936 0.02884 4.75641e-22)
(1.0173 0.0280748 0)
(1.01432 0.0253401 0)
(1.0119 0.0239405 0)
(1.0072 0.0190406 0)
(1.00622 0.0184026 4.32304e-21)
(1.00383 0.0150338 -6.87964e-21)
(1.01144 -0.0185465 -3.7637e-21)
(1.012 -0.0126604 3.41131e-22)
(1.01639 -0.0113704 7.66952e-21)
(1.0215 -0.0185492 7.61895e-22)
(1.0206 -0.0217718 -4.58462e-21)
(1.01845 -0.024802 0)
(1.02023 -0.0287218 0)
(1.02503 -0.0334932 0)
(1.02799 -0.0349578 -3.22536e-21)
(1.03136 -0.0358449 4.15107e-21)
(1.03544 -0.036215 -2.65602e-22)
(1.03987 -0.0359523 4.78695e-21)
(1.04445 -0.0349285 -4.49809e-21)
(1.04893 -0.032983 3.50013e-22)
(1.05291 -0.0301193 -1.88142e-23)
(1.05673 -0.0262095 -1.04472e-23)
(1.05946 -0.0217534 0)
(1.0623 -0.0159736 4.41161e-22)
(1.06377 -0.0103979 1.11698e-22)
(1.06435 -0.00403184 3.03592e-23)
(1.06523 0.00291317 -1.02353e-21)
(1.06329 0.00908639 1.08669e-21)
(1.06112 0.014779 -2.46425e-22)
(1.05875 0.0201595 2.327e-22)
(1.05545 0.0249536 -4.66835e-22)
(1.05202 0.029109 -3.09951e-21)
(1.04844 0.0323972 3.55213e-21)
(1.04436 0.0346512 6.46509e-21)
(1.04003 0.035854 -1.16153e-21)
(1.03555 0.036223 -6.0543e-21)
(1.03135 0.0360857 0)
(1.02711 0.0348345 -6.34952e-22)
(1.02384 0.0338751 0)
(1.01992 0.0317532 -3.45958e-21)
(1.01756 0.03094 7.57396e-21)
(1.01441 0.0279928 -1.00143e-20)
(1.01216 0.02638 1.23383e-20)
(1.0076 0.0214501 -5.88584e-21)
(1.00644 0.0205115 4.00027e-21)
(1.00412 0.0172197 -4.14701e-21)
(1.01102 -0.0209067 2.34e-22)
(1.01166 -0.0160069 -4.07553e-21)
(1.01651 -0.0142593 3.67815e-21)
(1.02174 -0.020861 -2.65574e-22)
(1.02172 -0.0243201 0)
(1.01951 -0.0273265 3.25433e-22)
(1.02098 -0.0313496 0)
(1.02601 -0.0365457 -4.00094e-21)
(1.02927 -0.0382769 1.4311e-22)
(1.03283 -0.0391987 3.42564e-21)
(1.03737 -0.0395457 2.77373e-22)
(1.04207 -0.0390435 3.19428e-22)
(1.04686 -0.0379032 0)
(1.05166 -0.0358847 2.75225e-21)
(1.05601 -0.0328251 -2.73209e-21)
(1.06029 -0.0286417 -3.37643e-21)
(1.06339 -0.0237572 3.83462e-21)
(1.06652 -0.0175261 -2.36882e-22)
(1.06827 -0.0111616 8.97356e-22)
(1.0688 -0.00441204 -1.06027e-21)
(1.06973 0.00287621 3.23052e-23)
(1.06789 0.00992087 -2.66344e-22)
(1.06544 0.0163616 2.57673e-22)
(1.06274 0.0219992 -2.68126e-22)
(1.05916 0.0270477 2.4941e-22)
(1.05546 0.0315644 -4.87802e-21)
(1.05144 0.0352707 4.36183e-21)
(1.04709 0.0378552 7.01672e-21)
(1.04234 0.0392997 -7.02411e-21)
(1.0373 0.0396455 -4.04332e-22)
(1.03299 0.0397464 0)
(1.0283 0.0383652 5.8381e-21)
(1.02452 0.0374032 -4.51837e-21)
(1.02042 0.0349989 -4.29272e-21)
(1.0179 0.0337729 3.76356e-21)
(1.01457 0.0305881 0)
(1.01232 0.0289768 5.75807e-21)
(1.00782 0.0242932 -5.76585e-21)
(1.00647 0.0231847 0)
(1.00421 0.0198695 -2.65889e-22)
(1.01067 -0.0238784 -3.08609e-22)
(1.01133 -0.0199502 3.90547e-21)
(1.01646 -0.0178257 -4.00722e-21)
(1.02181 -0.0236512 9.00869e-21)
(1.02249 -0.0273697 -7.69168e-21)
(1.02067 -0.0300227 2.2922e-21)
(1.02183 -0.0339252 0)
(1.02716 -0.0397877 4.46879e-22)
(1.03084 -0.0418952 3.73625e-21)
(1.03442 -0.042915 -3.71259e-21)
(1.03923 -0.0433516 -3.15782e-22)
(1.04456 -0.042727 5.76871e-21)
(1.05002 -0.0414465 -8.55328e-21)
(1.05542 -0.0392754 3.17864e-21)
(1.06018 -0.035995 0)
(1.06477 -0.031353 0)
(1.06814 -0.0259252 -2.49969e-22)
(1.07138 -0.0193278 1.92942e-21)
(1.07341 -0.0121858 -3.07267e-21)
(1.07393 -0.00489293 1.1437e-21)
(1.07471 0.00274927 -1.21763e-21)
(1.07313 0.0107527 1.17009e-21)
(1.07054 0.0180784 3.01803e-22)
(1.06746 0.0241512 4.84199e-21)
(1.06363 0.0294467 -4.55137e-21)
(1.05952 0.0343291 -4.29863e-21)
(1.05512 0.0383876 -3.27256e-22)
(1.05017 0.0412275 -3.14436e-21)
(1.04509 0.0431558 8.58313e-21)
(1.03954 0.0436511 8.6419e-22)
(1.03475 0.043685 -8.12596e-22)
(1.02973 0.0424079 7.44877e-22)
(1.02544 0.0413072 -6.56015e-22)
(1.02121 0.0386878 -5.26602e-21)
(1.01831 0.0371385 9.42198e-21)
(1.01479 0.0336023 -4.21082e-21)
(1.01267 0.0318675 0)
(1.0082 0.0274866 0)
(1.00649 0.0262771 0)
(1.00418 0.0227775 -4.87879e-21)
(1.00991 -0.0271364 0)
(1.01062 -0.0240912 -3.57738e-21)
(1.01577 -0.0216933 3.87862e-21)
(1.02168 -0.0268017 -4.82088e-21)
(1.0233 -0.030947 5.56111e-21)
(1.02192 -0.0332159 3.56702e-22)
(1.02298 -0.0366304 -3.99318e-22)
(1.02805 -0.042851 0)
(1.03244 -0.0459516 -4.59516e-21)
(1.03643 -0.046992 4.62219e-21)
(1.04154 -0.047398 3.31173e-22)
(1.04735 -0.0468971 -6.74507e-21)
(1.05343 -0.0454793 5.99648e-21)
(1.05938 -0.0429884 3.3785e-21)
(1.0647 -0.0393118 -3.87074e-21)
(1.06965 -0.0342753 -2.80769e-22)
(1.07353 -0.0282758 0)
(1.07688 -0.0212592 2.94224e-22)
(1.0792 -0.0132074 -1.5293e-22)
(1.07999 -0.00525411 0)
(1.08032 0.00264861 3.99426e-23)
(1.07889 0.0114386 1.59898e-22)
(1.0764 0.0198373 -3.16946e-22)
(1.07322 0.0265445 0)
(1.06916 0.0322736 3.22487e-22)
(1.06454 0.0375895 -3.51754e-21)
(1.05958 0.0420709 4.71063e-21)
(1.05395 0.0452473 -8.4567e-21)