/*--------------------------------*- C++ -*----------------------------------*\
  =========                 |
  \\      /  F ield         | OpenFOAM: The Open Source CFD Toolbox
   \\    /   O peration     | Website:  https://openfoam.org
    \\  /    A nd           | Version:  11
     \\/     M anipulation  |
\*---------------------------------------------------------------------------*/
FoamFile
{
    format      ascii;
    class       volVectorField;
    location    "4.5";
    object      U;
}
// * * * * * * * * * * * * * * * * * * * * * * * * * * * * * * * * * * * * * //

dimensions      [0 1 -1 0 0 0 0];

internalField   nonuniform List<vector> 
9600
(
(0.990669 0.000364558 -4.75311e-21)
(0.990382 0.000663211 0)
(0.989561 0.000673676 -4.87035e-21)
(0.989296 0.000710543 4.81129e-21)
(0.988894 0.00101243 0)
(0.988631 0.000872308 2.43792e-21)
(0.98881 0.000694947 -4.82665e-21)
(0.989333 0.000368447 2.39348e-21)
(0.990269 -3.35001e-05 2.34758e-21)
(0.991831 -0.000398383 -2.35312e-21)
(0.994175 -0.000444124 1.77332e-23)
(0.99674 0.00147358 0)
(0.994016 0.00549042 0)
(0.97513 0.0090677 -9.36643e-22)
(0.954475 0.0079169 9.14435e-23)
(0.946499 0.00347967 8.45611e-22)
(0.947137 -0.00053444 0)
(0.955103 -0.00555241 0)
(0.974812 -0.0108329 1.0366e-24)
(0.994292 -0.0159621 0)
(1.01257 -0.0194294 0)
(1.02748 -0.0228661 -4.79771e-25)
(1.04138 -0.0247639 5.78468e-25)
(1.05292 -0.025544 -1.91891e-23)
(1.06078 -0.0257399 1.87571e-23)
(1.06755 -0.026263 -1.1072e-22)
(1.07139 -0.0251534 1.11667e-22)
(1.07172 -0.0240176 3.81203e-22)
(1.07052 -0.0233618 -3.70606e-22)
(1.06836 -0.022427 0)
(1.06542 -0.0221347 0)
(1.06158 -0.0208155 -3.68961e-22)
(1.05653 -0.0196218 6.89589e-22)
(1.0504 -0.0175521 -3.23224e-22)
(1.04314 -0.0155829 0)
(1.03676 -0.0133036 -3.32538e-24)
(1.03081 -0.0113952 -2.89796e-22)
(1.02539 -0.00892415 2.85883e-22)
(1.02038 -0.00703232 1.58449e-24)
(1.01457 -0.00422548 3.24922e-22)
(0.991323 0.000389367 -4.83195e-21)
(0.991455 0.000127016 -1.03236e-22)
(0.991547 -9.10198e-05 7.12738e-24)
(0.99151 -0.000293805 5.02237e-21)
(0.991626 -0.000648394 2.51927e-21)
(0.992112 -0.000942249 -2.52511e-21)
(0.993294 -0.00108256 3.92428e-23)
(0.994545 -0.00111889 1.95456e-23)
(0.995435 -0.00107186 -2.43632e-21)
(0.99664 -0.00105064 2.48023e-21)
(0.998499 -0.00106274 -1.84838e-23)
(1.00091 -0.000225996 3.4908e-23)
(1.00414 0.00297679 9.85402e-22)
(1.0087 0.00405392 -1.9657e-21)
(1.01274 0.000891477 9.61198e-22)
(1.01345 -0.00228268 7.62768e-22)
(1.0141 -0.00415614 -7.67559e-22)
(1.01671 -0.00519024 2.97206e-22)
(1.02249 -0.00363877 -2.93691e-22)
(1.03098 0.00184929 0)
(1.03905 0.00768611 0)
(1.04626 0.0127149 -9.43092e-23)
(1.05251 0.0165633 9.39109e-23)
(1.05835 0.0193298 4.24818e-25)
(1.06348 0.0211711 0)
(1.06625 0.0228008 -1.23015e-22)
(1.06693 0.0240769 -4.48415e-23)
(1.06668 0.0247758 -2.41084e-22)
(1.06561 0.0252062 3.97766e-22)
(1.06315 0.0244618 6.90294e-24)
(1.05877 0.0252201 -4.43388e-22)
(1.05379 0.0237723 4.45528e-22)
(1.04782 0.0232883 -3.69482e-22)
(1.04118 0.0213684 6.76646e-22)
(1.03621 0.0194857 -3.04003e-22)
(1.02832 0.0160594 3.40175e-24)
(1.0237 0.0147029 2.68879e-24)
(1.01597 0.0108015 0)
(1.01284 0.0093024 -1.62148e-24)
(1.00088 0.00392617 1.72236e-22)
(0.991334 0.000326541 0)
(0.991517 8.83467e-05 5.12409e-21)
(0.991553 2.17798e-05 -5.06268e-21)
(0.991668 -6.61475e-05 0)
(0.991934 -3.33332e-05 0)
(0.992547 -0.000139881 -8.05615e-23)
(0.99358 -0.000422276 -1.20573e-22)
(0.994509 -0.000486808 0)
(0.995401 -0.000782652 -2.55778e-21)
(0.997048 -0.00174166 2.44498e-21)
(1.00074 -0.00188844 0)
(1.00533 0.000386742 -3.57497e-23)
(1.00846 0.00418999 3.35918e-23)
(1.00968 0.00630828 0)
(1.00902 0.00635709 -8.62491e-22)
(1.004 0.00307187 8.58522e-22)
(1.00159 -0.00122485 2.29723e-23)
(1.00445 -0.00748331 -5.1035e-24)
(1.0123 -0.0138029 -1.244e-22)
(1.02082 -0.0197116 1.28695e-22)
(1.03312 -0.022716 8.34894e-23)
(1.04298 -0.0262468 -8.65608e-23)
(1.05394 -0.027364 1.30824e-24)
(1.06246 -0.0285082 -4.86254e-23)
(1.07067 -0.0277817 4.88383e-23)
(1.07542 -0.0274758 -8.74923e-23)
(1.08018 -0.0252474 9.1317e-23)
(1.08228 -0.0237607 -3.55237e-22)
(1.08309 -0.022027 3.54604e-22)
(1.08227 -0.0198397 -7.0822e-24)
(1.07926 -0.0189388 0)
(1.07488 -0.0158885 -4.10201e-22)
(1.06984 -0.0149926 7.90602e-22)
(1.06264 -0.0114261 -3.74258e-22)
(1.05823 -0.00979263 -2.95437e-22)
(1.0509 -0.00710892 7.58727e-22)
(1.04636 -0.00531443 -8.76648e-23)
(1.03963 -0.00335719 -3.83022e-22)
(1.03673 -0.00140577 4.03831e-24)
(1.02949 0.00014639 -1.61741e-25)
(0.991283 0.000322739 -1.02208e-20)
(0.991475 -2.91847e-05 5.15905e-21)
(0.991498 -0.000170794 5.22943e-21)
(0.991621 -0.000301479 -5.24572e-21)
(0.991879 -0.000584675 0)
(0.992556 -0.00112701 2.71643e-21)
(0.993513 -0.00149974 -2.56381e-21)
(0.994693 -0.00161138 2.66443e-21)
(0.996248 -0.00220751 -5.86831e-23)
(0.998093 -0.00335838 -2.53831e-21)
(1.00045 -0.00357479 -2.28974e-21)
(1.00486 -0.00132529 4.69059e-21)
(1.01003 0.00241652 -1.20215e-21)
(1.01297 0.00408082 -2.02914e-21)
(1.01589 0.00309365 9.72271e-22)
(1.02149 -0.000836881 8.15899e-22)
(1.02875 -0.00677128 -8.03457e-22)
(1.03631 -0.0117408 -1.02078e-23)
(1.04377 -0.0126486 -4.38241e-24)
(1.04997 -0.00940826 0)
(1.05596 -0.00366401 0)
(1.06048 0.00214936 2.09509e-24)
(1.06384 0.00702313 0)
(1.06656 0.011101 0)
(1.06942 0.01447 5.45115e-26)
(1.07082 0.0174142 -2.72623e-24)
(1.07214 0.0199174 1.81902e-22)
(1.0712 0.0225257 2.51782e-22)
(1.06954 0.0249903 -4.61325e-22)
(1.06676 0.025024 5.15269e-22)
(1.06191 0.0269258 -5.14025e-22)
(1.05804 0.0256726 -1.47336e-23)
(1.05295 0.0262878 -3.99281e-22)
(1.04671 0.0240514 4.11721e-22)
(1.04206 0.0230984 2.98216e-22)
(1.03502 0.0193147 1.94356e-22)
(1.02981 0.0183387 -1.08052e-22)
(1.02264 0.0134376 -3.9114e-22)
(1.01857 0.0123102 -4.13589e-24)
(1.01087 0.00724395 -3.04125e-24)
(0.991179 0.000264939 0)
(0.991439 -0.000226313 5.49259e-21)
(0.991478 -0.000438141 -1.08894e-20)
(0.9916 -0.000607311 5.39186e-21)
(0.991883 -0.000944123 0)
(0.992559 -0.00141219 0)
(0.993723 -0.00179913 0)
(0.99521 -0.00212905 8.30351e-23)
(0.996811 -0.00278104 -2.49979e-21)
(0.998619 -0.00381311 2.58899e-21)
(1.00072 -0.00418621 -7.73738e-23)
(1.00365 -0.00251905 2.20799e-21)
(1.01083 0.00167794 -3.35664e-21)
(1.01896 0.00354385 1.07321e-21)
(1.02579 0.00200173 0)
(1.02865 -0.00273202 7.81932e-22)
(1.02967 -0.00663998 -8.09613e-22)
(1.02949 -0.0118954 1.04685e-23)
(1.03108 -0.0160614 0)
(1.03362 -0.0206917 0)
(1.03999 -0.0227344 -8.63438e-23)
(1.04708 -0.0256362 8.63256e-23)
(1.05549 -0.0262242 0)
(1.06274 -0.0276151 -6.28529e-23)
(1.0701 -0.0269067 6.24682e-23)
(1.07459 -0.0266037 -8.38266e-23)
(1.07878 -0.0240178 7.90271e-23)
(1.08031 -0.0222439 -3.33339e-22)
(1.08238 -0.0203148 3.57795e-22)
(1.08199 -0.0176455 1.52322e-23)
(1.08066 -0.015338 0)
(1.07654 -0.0117881 1.50827e-23)
(1.07218 -0.00997281 4.18783e-22)
(1.06512 -0.00657561 -4.31436e-22)
(1.06071 -0.00425568 1.11664e-23)
(1.05356 -0.00176477 0)
(1.04899 0.000629402 0)
(1.04215 0.00225134 -3.97465e-22)
(1.03893 0.00371164 3.85455e-22)
(1.03252 0.0039136 -7.67533e-24)
(0.991068 0.000108602 -5.25442e-21)
(0.991359 -0.000411069 -1.70516e-22)
(0.991383 -0.00068128 1.72028e-22)
(0.991486 -0.000910609 1.73998e-22)
(0.991809 -0.00128764 0)
(0.992584 -0.00193587 0)
(0.994083 -0.00252516 0)
(0.995525 -0.00285172 2.52915e-21)
(0.996779 -0.00391604 -5.51471e-21)
(0.998391 -0.00527261 2.48357e-21)
(1.00146 -0.00507958 0)
(1.0065 -0.0035858 2.26534e-21)
(1.01181 -0.0016218 -2.34547e-21)
(1.01706 -0.000943232 -1.01256e-21)
(1.023 -0.000916612 1.01429e-21)
(1.02937 -0.00384249 2.71689e-23)
(1.03617 -0.00907614 -2.41189e-23)
(1.04368 -0.0149522 0)
(1.05146 -0.0173857 8.90388e-24)
(1.05747 -0.0170626 0)
(1.06355 -0.0131378 -1.45102e-24)
(1.06809 -0.00806387 -4.25855e-24)
(1.07235 -0.00300236 0)
(1.07497 0.00187823 6.21139e-24)
(1.07717 0.00630774 -3.45262e-24)
(1.07762 0.0106792 -1.44872e-22)
(1.07889 0.0141883 1.59444e-22)
(1.07834 0.0183873 4.88046e-22)
(1.07591 0.0224075 -4.84804e-22)
(1.07226 0.024623 2.69129e-25)
(1.06708 0.027114 -3.31872e-23)
(1.06307 0.026712 3.32596e-23)
(1.05845 0.0285621 -4.83077e-22)
(1.05242 0.0268917 9.12677e-22)
(1.04794 0.0266851 -4.29696e-22)
(1.041 0.023401 0)
(1.03615 0.0224769 -1.90351e-23)
(1.02862 0.0176332 1.55244e-23)
(1.02477 0.0161835 1.06168e-23)
(1.01638 0.0115052 -2.04715e-22)
(0.990946 -4.42252e-05 -1.80289e-22)
(0.991286 -0.000664743 -1.10923e-20)
(0.991402 -0.00101444 1.55669e-22)
(0.991571 -0.0012604 5.53278e-21)
(0.99192 -0.00168537 0)
(0.992673 -0.00248582 1.79171e-22)
(0.994281 -0.00332956 1.77465e-22)
(0.995937 -0.00379703 0)
(0.997172 -0.00460478 2.87478e-21)
(0.998552 -0.00605179 -2.37706e-21)
(1.00179 -0.00717672 0)
(1.00704 -0.00616194 1.54089e-22)
(1.01278 -0.00254974 -1.11806e-21)
(1.01845 -0.00159056 1.12011e-21)
(1.02532 -0.00356172 0)
(1.0326 -0.0087297 8.11283e-22)
(1.03911 -0.0126093 -8.39831e-22)
(1.04319 -0.017238 0)
(1.04583 -0.0192277 -1.52171e-22)
(1.04742 -0.0220708 1.33975e-22)
(1.04989 -0.0228233 2.97336e-24)
(1.05373 -0.0248397 8.73943e-24)
(1.05936 -0.0246969 -5.58651e-24)
(1.06491 -0.0255411 -6.45303e-23)
(1.07098 -0.02457 6.1636e-23)
(1.07533 -0.0243207 -5.65019e-24)
(1.07922 -0.0220894 -1.41956e-22)
(1.0801 -0.019757 1.67213e-22)
(1.08247 -0.0174907 4.27563e-22)
(1.08241 -0.0150547 -4.23377e-22)
(1.08245 -0.0114184 3.40527e-23)
(1.07888 -0.00823487 1.91192e-24)
(1.07506 -0.00492661 0)
(1.06836 -0.00172508 3.19986e-23)
(1.06402 0.00081186 4.16904e-22)
(1.05669 0.00336999 3.15665e-22)
(1.05221 0.00627549 -8.05105e-23)
(1.04523 0.00777354 -6.41474e-22)
(1.04172 0.00941531 4.07103e-22)
(1.03513 0.00876588 -4.14245e-22)
(0.990784 -0.000287363 5.76436e-21)
(0.991189 -0.00105345 1.93751e-22)
(0.991315 -0.00147973 -1.15153e-20)
(0.991502 -0.00174514 5.69958e-21)
(0.991802 -0.0022791 0)
(0.992727 -0.00331565 -1.83683e-22)
(0.994428 -0.0040819 -2.89053e-21)
(0.996129 -0.00444818 5.91984e-21)
(0.997414 -0.00574783 -5.44212e-21)
(0.999301 -0.00805859 2.60694e-21)
(1.00299 -0.00850557 0)
(1.00712 -0.00717996 2.3701e-21)
(1.01302 -0.00503098 -2.38011e-21)
(1.01963 -0.00591713 -9.87319e-22)
(1.02595 -0.00746913 1.0581e-21)
(1.03142 -0.0110303 0)
(1.03746 -0.0147165 2.15814e-25)
(1.04373 -0.0195279 0)
(1.05191 -0.0214114 1.85075e-23)
(1.05939 -0.0221364 -3.761e-24)
(1.06673 -0.0198304 -1.52432e-24)
(1.07208 -0.0162587 -4.48703e-24)
(1.07695 -0.0120081 5.74143e-24)
(1.0806 -0.00718665 -8.15022e-24)
(1.08361 -0.00238983 4.6373e-24)
(1.08445 0.00303491 -1.63913e-22)
(1.08546 0.00746052 1.6365e-22)
(1.08531 0.0126982 5.43983e-22)
(1.08421 0.0182264 -1.17548e-21)
(1.08012 0.0222274 1.23584e-21)
(1.07451 0.0262196 -6.51566e-22)
(1.0695 0.026882 -3.70323e-23)
(1.06446 0.0296817 0)
(1.05878 0.0292124 -3.28605e-23)
(1.05435 0.0301282 0)
(1.04727 0.0275482 0)
(1.04258 0.0270312 0)
(1.03468 0.0227213 -4.96281e-22)
(1.03094 0.0211153 5.25479e-22)
(1.02237 0.0166666 2.1665e-23)
(0.990662 -0.000585943 -5.58531e-21)
(0.991121 -0.00145143 1.87984e-24)
(0.991394 -0.00185057 -6.41826e-21)
(0.991562 -0.00221204 6.25786e-21)
(0.991922 -0.00290703 -3.81584e-22)
(0.992959 -0.00409327 -3.20462e-21)
(0.994677 -0.00493681 2.6515e-21)
(0.996657 -0.00567199 -1.84682e-22)
(0.998142 -0.00707689 -3.02375e-21)
(0.999684 -0.00926066 5.60467e-21)
(1.0029 -0.0102583 -2.92966e-21)
(1.00733 -0.00982284 0)
(1.01341 -0.00770302 -2.28672e-22)
(1.01988 -0.00776525 -7.07984e-23)
(1.02627 -0.00943626 6.41875e-23)
(1.03222 -0.014499 8.1581e-22)
(1.03905 -0.0182975 -8.48834e-22)
(1.04575 -0.0231723 0)
(1.05133 -0.0244814 -1.87654e-23)
(1.05654 -0.0259616 5.52e-26)
(1.06044 -0.0248432 0)
(1.06402 -0.0252637 4.37967e-24)
(1.06721 -0.0241255 5.51928e-24)
(1.07064 -0.0241697 2.34381e-24)
(1.07467 -0.0224593 1.26281e-24)
(1.07847 -0.0217638 0)
(1.08156 -0.0196779 0)
(1.08194 -0.0174335 -4.19479e-22)
(1.08362 -0.0143914 3.83777e-22)
(1.08342 -0.011644 3.88221e-23)
(1.08455 -0.00768322 0)
(1.08198 -0.00426777 6.50671e-22)
(1.07898 -0.000171997 -1.20052e-21)
(1.07251 0.00311389 1.15063e-21)
(1.06829 0.00593839 -5.56521e-22)
(1.06071 0.00843855 6.30927e-23)
(1.05603 0.0117409 7.398e-22)
(1.04893 0.0130945 -7.91197e-22)
(1.04501 0.0155574 -5.83664e-22)
(1.03862 0.0141339 9.60953e-22)
(0.990378 -0.000986746 -6.14916e-21)
(0.990857 -0.00195168 1.16146e-20)
(0.991349 -0.00241668 1.46701e-23)
(0.991417 -0.0029817 -6.66073e-21)
(0.991806 -0.00382561 3.92526e-22)
(0.992953 -0.00519837 1.9559e-22)
(0.994602 -0.00611127 1.93453e-22)
(0.996656 -0.00663286 3.00256e-21)
(0.998385 -0.00824325 -8.88749e-23)
(1.00005 -0.0112098 -2.93357e-21)
(1.00303 -0.0122317 -2.54395e-21)
(1.0076 -0.0115117 3.1376e-22)
(1.01342 -0.00989118 3.94304e-21)
(1.02007 -0.0113021 -2.30953e-21)
(1.02691 -0.0135159 1.04049e-21)
(1.03253 -0.0178214 1.18484e-22)
(1.03828 -0.021537 0)
(1.04368 -0.0258812 -3.32663e-22)
(1.05029 -0.0274837 4.80812e-22)
(1.05777 -0.0280428 -1.34493e-22)
(1.06603 -0.0261137 0)
(1.07317 -0.0227609 -1.15562e-22)
(1.07894 -0.0188477 1.05301e-22)
(1.08361 -0.0147766 -5.884e-24)
(1.08765 -0.0103494 7.9763e-24)
(1.09019 -0.00473591 -1.70804e-22)
(1.09153 0.00068153 4.42372e-22)
(1.09175 0.00621497 3.7157e-22)
(1.09182 0.0127024 -5.85961e-22)
(1.08892 0.0180205 -8.17018e-23)
(1.08449 0.0240786 0)
(1.07818 0.0262603 -8.87741e-23)
(1.07235 0.0299906 0)
(1.06645 0.0306899 -6.43281e-22)
(1.06177 0.0330469 7.19055e-22)
(1.05427 0.0316075 1.01512e-21)
(1.04951 0.0317569 -9.48031e-22)
(1.04123 0.0282292 0)
(1.03726 0.026905 5.45325e-22)
(1.02841 0.022707 -5.70993e-22)
(0.990316 -0.00139309 -6.78553e-21)
(0.990871 -0.002534 3.99012e-22)
(0.991303 -0.00308148 -6.45263e-21)
(0.991588 -0.0036093 7.2821e-21)
(0.991981 -0.00490458 0)
(0.992866 -0.00622007 0)
(0.994739 -0.0067584 0)
(0.997066 -0.00791482 0)
(0.998932 -0.0100187 -3.01431e-21)
(1.00035 -0.0128551 3.02445e-21)
(1.00299 -0.0139467 0)
(1.00738 -0.0139146 -1.71074e-22)
(1.01411 -0.0129884 -1.3946e-21)
(1.02085 -0.0145734 1.23701e-21)
(1.02728 -0.0162574 0)
(1.0328 -0.0208615 8.49548e-22)
(1.03828 -0.0241332 -9.64535e-22)
(1.0446 -0.0288353 0)
(1.05093 -0.0304049 -9.4941e-24)
(1.05771 -0.0317934 0)
(1.06384 -0.0297225 0)
(1.06981 -0.0283812 4.28493e-24)
(1.07449 -0.0256038 5.23334e-24)
(1.07856 -0.024472 3.87692e-24)
(1.08123 -0.0219582 -4.53139e-24)
(1.08425 -0.0203841 -1.59517e-22)
(1.08668 -0.0175493 1.30829e-22)
(1.08705 -0.0153999 -5.44948e-22)
(1.08756 -0.0117564 5.09783e-22)
(1.08623 -0.00875166 4.30025e-23)
(1.08736 -0.00434055 0)
(1.08544 -0.000405599 4.68356e-23)
(1.08354 0.00451998 0)
(1.07766 0.00779863 0)
(1.07363 0.0114566 -8.0693e-23)
(1.06599 0.0137561 -1.21926e-21)
(1.06106 0.0174589 2.08707e-21)
(1.05386 0.0184449 -1.83337e-21)
(1.04916 0.0220774 1.35545e-22)
(1.04259 0.0199652 7.7028e-22)
(0.9899 -0.0019716 4.3464e-23)
(0.990501 -0.003127 1.32873e-20)
(0.990907 -0.00383302 -1.33599e-20)
(0.991271 -0.0046589 -4.1813e-22)
(0.991582 -0.00590207 1.01033e-20)
(0.992465 -0.00738901 -3.36999e-21)
(0.994692 -0.00829926 0)
(0.996918 -0.0096712 -3.20113e-21)
(0.998769 -0.0114782 1.00364e-22)
(1.00041 -0.0145484 3.12357e-21)
(1.0031 -0.0158799 -1.84712e-22)
(1.00756 -0.0167699 1.75921e-22)
(1.01433 -0.0161276 3.30152e-22)
(1.02109 -0.0178703 0)
(1.02809 -0.0197949 0)
(1.03352 -0.0239421 0)
(1.03881 -0.0277354 7.00482e-25)
(1.04351 -0.0321014 0)
(1.04897 -0.0342197 2.89063e-23)
(1.05497 -0.0348804 -3.85973e-24)
(1.06277 -0.033308 2.9568e-24)
(1.07104 -0.0301099 -4.42159e-24)
(1.07872 -0.0257153 -5.40099e-24)
(1.08524 -0.0214699 -3.04993e-24)
(1.09052 -0.0171766 1.49566e-24)
(1.09449 -0.0119872 -1.88963e-22)
(1.09704 -0.00596719 1.67982e-22)
(1.098 -0.000213188 -2.66177e-24)
(1.09892 0.00676324 7.62481e-22)
(1.0971 0.0127468 -7.55265e-22)
(1.0947 0.0202234 0)
(1.08864 0.0244809 0)
(1.08285 0.029596 -7.47568e-22)
(1.07591 0.031252 4.47379e-23)
(1.0707 0.0350287 1.53985e-21)
(1.06293 0.0350192 5.79106e-22)
(1.0578 0.0367497 -1.9059e-23)
(1.04943 0.03377 -1.19022e-21)
(1.04448 0.033784 -7.7398e-22)
(1.03486 0.0289118 7.66164e-22)
(0.989803 -0.0025995 0)
(0.99044 -0.00393875 4.32601e-22)
(0.990925 -0.00481165 -4.35215e-22)
(0.99128 -0.00563589 0)
(0.991726 -0.00701336 0)
(0.992803 -0.00869693 0)
(0.994764 -0.00947674 -4.3034e-22)
(0.996967 -0.0110225 -4.21753e-22)
(0.999105 -0.013185 3.22128e-21)
(1.00082 -0.0165262 -3.43158e-21)
(1.00395 -0.0182414 1.90562e-22)
(1.00836 -0.0195161 2.62424e-21)
(1.01451 -0.0192836 -4.28578e-21)
(1.02139 -0.0217419 1.30546e-21)
(1.02766 -0.0234228 -7.06091e-23)
(1.0335 -0.0274775 8.85563e-22)
(1.03859 -0.0301028 -8.94174e-22)
(1.04326 -0.0343914 0)
(1.04845 -0.0362167 -1.97335e-23)
(1.05476 -0.0380235 3.98461e-24)
(1.06145 -0.0364798 -3.05246e-24)
(1.06915 -0.0347857 0)
(1.07622 -0.0306007 0)
(1.08338 -0.0278755 0)
(1.08813 -0.023903 0)
(1.09163 -0.0212437 -1.89479e-22)
(1.09429 -0.0169459 4.80797e-22)
(1.09522 -0.0143271 -8.61721e-22)
(1.09553 -0.0099502 6.83844e-22)
(1.09306 -0.00666349 7.45219e-22)
(1.09294 -0.00159615 -7.35963e-22)
(1.09046 0.00281601 8.70509e-22)
(1.08933 0.00891512 -9.77473e-22)
(1.08412 0.0125958 -1.18194e-22)
(1.08025 0.0172243 0)
(1.07285 0.019123 1.47718e-21)
(1.06749 0.023811 -2.22915e-22)
(1.06023 0.0242251 -1.40635e-21)
(1.05494 0.0291475 -9.5655e-22)
(1.04767 0.0269007 1.9034e-21)
(0.989274 -0.00324054 -7.64329e-21)
(0.989864 -0.00481699 6.72544e-21)
(0.99035 -0.0057032 -6.76203e-21)
(0.990554 -0.00694969 -7.24442e-21)
(0.991127 -0.00850367 7.28093e-21)
(0.992277 -0.0099761 4.53672e-22)
(0.994392 -0.0109788 4.44162e-22)
(0.996529 -0.0131059 -2.72476e-24)
(0.998674 -0.0153184 -3.33876e-21)
(1.001 -0.0187584 3.55676e-21)
(1.00434 -0.0204742 0)
(1.00797 -0.022476 0)
(1.01453 -0.0229494 0)
(1.02082 -0.0253922 -1.38204e-21)
(1.02751 -0.0269695 1.29753e-21)
(1.03328 -0.030184 1.29354e-22)
(1.03866 -0.0331008 0)
(1.04318 -0.037174 0)
(1.04793 -0.0399046 0)
(1.0527 -0.0415524 0)
(1.05887 -0.040762 2.84617e-24)
(1.06662 -0.0388257 0)
(1.07523 -0.0345681 0)
(1.08362 -0.0298473 1.87188e-23)
(1.09135 -0.0243981 1.12508e-22)
(1.09708 -0.0192983 -1.2741e-22)
(1.10219 -0.0128561 0)
(1.10403 -0.00670993 -7.46713e-22)
(1.10657 0.000909679 -1.35418e-22)
(1.10541 0.00721863 9.21916e-22)
(1.10442 0.0153382 -5.99897e-23)
(1.10014 0.0209911 0)
(1.09487 0.0283884 -1.08352e-21)
(1.08767 0.0310261 3.10409e-22)
(1.0817 0.0365336 1.01927e-21)
(1.07346 0.0372338 -1.19117e-22)
(1.06758 0.0414442 1.08123e-22)
(1.05931 0.039092 -1.2428e-21)
(1.05328 0.0410473 1.24377e-21)
(1.04352 0.0360448 0)
(0.989154 -0.0042923 -7.49582e-21)
(0.989877 -0.00596116 7.00555e-21)
(0.990312 -0.00690706 8.96121e-25)
(0.990726 -0.00829264 -1.51045e-20)
(0.991098 -0.00981685 7.58521e-21)
(0.992412 -0.011564 -4.68699e-22)
(0.994954 -0.0127223 0)
(0.997026 -0.0151744 -3.26654e-24)
(0.999445 -0.0174218 -3.02334e-21)
(1.00173 -0.0211557 3.69392e-21)
(1.00491 -0.0231908 0)
(1.00925 -0.025714 0)
(1.01479 -0.0262827 1.56072e-21)
(1.02104 -0.0290759 -1.05388e-21)
(1.02697 -0.030653 0)
(1.03289 -0.0342602 9.1933e-22)
(1.03901 -0.0362345 -9.87361e-22)
(1.04408 -0.0399121 0)
(1.04811 -0.0417192 0)
(1.05273 -0.0441295 -3.72457e-24)
(1.05798 -0.0434201 -2.94462e-24)
(1.06536 -0.0429639 0)
(1.0731 -0.0387051 0)
(1.08208 -0.0355647 1.67371e-24)
(1.09045 -0.0296934 -5.33713e-24)
(1.09675 -0.0259318 0)
(1.10192 -0.0196382 -3.27995e-22)
(1.1042 -0.0156923 3.28444e-22)
(1.10655 -0.00985273 0)
(1.10433 -0.00564823 0)
(1.10325 0.000241233 0)
(1.09919 0.00486561 0)
(1.09748 0.0118525 0)
(1.09259 0.0163148 -1.24771e-21)
(1.08856 0.0231036 1.1039e-21)
(1.08171 0.0246315 1.2304e-22)
(1.07581 0.0305109 -2.02813e-21)
(1.06805 0.0304601 1.89447e-21)
(1.06253 0.0364712 0)
(1.05444 0.0345871 8.83966e-23)
(0.98826 -0.00508403 4.83837e-22)
(0.988933 -0.00686582 8.29486e-21)
(0.989524 -0.00804948 -7.85537e-21)
(0.990062 -0.00974293 -7.38041e-21)
(0.990311 -0.0115036 1.185e-20)
(0.991404 -0.0133692 -3.45717e-21)
(0.994027 -0.0145831 -3.33506e-21)
(0.996278 -0.0173445 8.0402e-21)
(0.998689 -0.019745 -5.93371e-22)
(1.00105 -0.0239807 -3.84618e-21)
(1.00504 -0.0260415 0)
(1.00874 -0.0289146 0)
(1.01424 -0.0297374 -1.86629e-22)
(1.0201 -0.0328232 -1.46043e-21)
(1.02595 -0.0346515 1.29289e-21)
(1.03231 -0.0377809 1.00192e-21)
(1.03842 -0.0395522 -1.00354e-21)
(1.04418 -0.0424622 0)
(1.04929 -0.0442277 0)
(1.05374 -0.0468368 3.85803e-24)
(1.05839 -0.0470089 2.61298e-24)
(1.06376 -0.047147 0)
(1.07125 -0.0442773 0)
(1.07925 -0.0408264 5.8303e-23)
(1.0894 -0.0345559 -5.82087e-23)
(1.09738 -0.0290436 -2.72742e-22)
(1.10538 -0.021338 2.72112e-22)
(1.10969 -0.0150333 -1.01652e-22)
(1.11358 -0.00583527 1.06833e-21)
(1.11487 0.00088748 -1.06459e-21)
(1.11463 0.0107904 0)
(1.11195 0.0165551 0)
(1.10788 0.0260851 -1.34995e-21)
(1.10127 0.0298937 -1.35754e-22)
(1.09527 0.0376803 2.71818e-21)
(1.0868 0.038866 -1.40358e-21)
(1.07975 0.0453603 2.41101e-21)
(1.07115 0.0440448 -4.1323e-21)
(1.06436 0.0481229 2.19884e-22)
(1.05431 0.0442152 1.54978e-21)
(0.98795 -0.00649694 0)
(0.988902 -0.00856276 7.66162e-21)
(0.989582 -0.00982382 -1.69612e-20)
(0.990268 -0.0115744 7.75262e-21)
(0.990699 -0.0130936 -5.20382e-22)
(0.991204 -0.0155391 -4.57726e-21)
(0.994165 -0.0169303 3.07526e-21)
(0.996776 -0.0201756 0)
(0.999468 -0.0227618 -3.28041e-21)
(1.0023 -0.0269401 3.31523e-21)
(1.00554 -0.029088 0)
(1.00954 -0.0322633 3.19813e-21)
(1.01447 -0.0332427 -3.20843e-21)
(1.02029 -0.0367247 0)
(1.02605 -0.0383258 -1.01826e-21)
(1.03189 -0.041892 1.17612e-21)
(1.03775 -0.0432546 5.76607e-23)
(1.04494 -0.0462459 0)
(1.05014 -0.0471216 -1.86415e-23)
(1.05572 -0.0498159 0)
(1.05961 -0.0491324 -2.83806e-25)
(1.06496 -0.0504202 5.7893e-24)
(1.07089 -0.0473912 4.18756e-24)
(1.07789 -0.0459666 0)
(1.08716 -0.0399201 0)
(1.09591 -0.0355091 -3.04805e-22)
(1.10506 -0.0273487 7.0427e-22)
(1.11013 -0.0215338 6.26371e-22)
(1.11518 -0.0134369 -2.16102e-21)
(1.11615 -0.00783379 1.12083e-21)
(1.11635 0.000368013 0)
(1.11302 0.00554946 0)
(1.10995 0.0141595 0)
(1.10486 0.0184504 1.77423e-22)
(1.10013 0.0278312 -3.62998e-22)
(1.09333 0.0302216 1.63634e-22)
(1.08747 0.0375497 2.13999e-21)
(1.07843 0.0374232 -2.61078e-21)
(1.0731 0.0439294 1.44308e-22)
(1.0632 0.0433933 1.88907e-21)
(0.98649 -0.00751744 -9.20168e-21)
(0.987576 -0.0098818 5.33107e-22)
(0.988375 -0.0112892 8.61684e-21)
(0.988915 -0.0130546 -1.67847e-20)
(0.989602 -0.0146015 1.35623e-20)
(0.990098 -0.017442 -4.34102e-21)
(0.992455 -0.0193396 1.06292e-21)
(0.995092 -0.0230601 4.07873e-21)
(0.998561 -0.0253237 -8.53607e-21)
(1.00085 -0.0298378 8.19848e-21)
(1.00446 -0.0320299 -3.77754e-21)
(1.00857 -0.0356984 -3.31289e-21)
(1.01338 -0.0370091 3.1253e-21)
(1.01959 -0.0404973 0)
(1.02496 -0.0423124 -1.61293e-22)
(1.03116 -0.0458527 1.02848e-21)
(1.0367 -0.0473197 -1.09009e-21)
(1.04376 -0.0503 3.4306e-22)
(1.04996 -0.0504042 -3.05843e-22)
(1.05684 -0.0525159 3.28617e-24)
(1.06167 -0.0519203 -6.19895e-23)
(1.06681 -0.0532254 1.10068e-22)
(1.07197 -0.0512671 -5.88275e-23)
(1.07751 -0.0509266 1.16836e-22)
(1.08509 -0.0461693 -1.16622e-22)
(1.09295 -0.042305 -3.36777e-22)
(1.10236 -0.0336934 2.85599e-22)
(1.1107 -0.0272846 6.24369e-23)
(1.11745 -0.0159539 7.03391e-23)
(1.12188 -0.0086141 1.4173e-21)
(1.12426 0.0038929 -1.60108e-21)
(1.12385 0.0109853 0)
(1.12194 0.0228513 2.18743e-22)
(1.11654 0.0274985 -1.75425e-21)
(1.11093 0.0377894 3.41923e-21)
(1.10233 0.0402071 -1.69046e-21)
(1.09543 0.0486002 3.151e-21)
(1.08544 0.0489024 -2.55441e-22)
(1.07907 0.0546315 -5.31972e-21)
(1.06776 0.0533244 2.2778e-21)
(0.986405 -0.00939524 1.12944e-21)
(0.987307 -0.0121869 9.02972e-21)
(0.988212 -0.0134391 -7.95425e-21)
(0.988476 -0.0156143 -1.14266e-21)
(0.990119 -0.0170887 0)
(0.990712 -0.0202126 0)
(0.992455 -0.0225837 -5.55238e-22)
(0.995008 -0.0267109 0)
(0.998493 -0.0289885 4.123e-21)
(1.0017 -0.0334908 -7.5649e-21)
(1.00519 -0.0355881 3.94701e-21)
(1.00942 -0.0397477 2.23652e-22)
(1.01392 -0.0409603 1.23746e-24)
(1.01958 -0.0448188 1.84965e-22)
(1.02484 -0.046359 0)
(1.03202 -0.0499712 0)
(1.03672 -0.0512165 -5.76263e-23)
(1.04399 -0.0544944 4.60056e-23)
(1.04948 -0.0542878 -1.88629e-23)
(1.0574 -0.0569867 -3.41809e-24)
(1.06293 -0.0550458 0)
(1.06925 -0.0568433 0)
(1.07411 -0.0538996 -1.56906e-24)
(1.07991 -0.0545623 1.48386e-22)
(1.08579 -0.0498866 -1.69842e-22)
(1.09279 -0.0478016 0)
(1.10111 -0.0399998 5.2331e-23)
(1.10917 -0.0344526 -6.49081e-23)
(1.11704 -0.0233383 -1.35466e-21)
(1.12312 -0.0164992 1.25695e-21)
(1.1271 -0.00457136 1.97626e-22)
(1.12762 0.00191596 0)
(1.12663 0.0140279 -2.27205e-22)
(1.12215 0.0192274 -2.54885e-22)
(1.11732 0.0302757 2.34439e-22)
(1.10885 0.0340352 3.70724e-21)
(1.1035 0.0434844 -2.00953e-22)
(1.09268 0.0451032 -3.26398e-21)
(1.08754 0.0516162 -2.10923e-22)
(1.07564 0.052894 1.64117e-22)
(0.984867 -0.0106005 -1.02537e-20)
(0.985496 -0.0136493 9.5359e-21)
(0.986239 -0.0151416 -1.97875e-20)
(0.986565 -0.0175694 2.04823e-20)
(0.988298 -0.0189314 -9.67535e-21)
(0.989257 -0.0224792 -4.73878e-21)
(0.991078 -0.024743 4.76985e-21)
(0.992815 -0.0298257 4.49997e-21)
(0.996255 -0.0322502 -8.29221e-21)
(0.9998 -0.0367022 8.46547e-21)
(1.00316 -0.0387208 -4.13299e-21)
(1.00797 -0.0430814 -2.32794e-22)
(1.01173 -0.0448562 -1.19001e-21)
(1.01797 -0.0487873 -5.06749e-24)
(1.02321 -0.0505089 1.60293e-21)
(1.03066 -0.0547246 1.10742e-21)
(1.03635 -0.0551936 -9.79443e-22)
(1.04356 -0.0587151 -3.49683e-24)
(1.04872 -0.0585467 1.63323e-23)
(1.05641 -0.0612387 0)
(1.06256 -0.0590653 -1.45859e-24)
(1.07011 -0.0605297 0)
(1.07605 -0.0570691 -6.55183e-25)
(1.08259 -0.057807 -2.88406e-24)
(1.08803 -0.0539638 -2.77125e-22)
(1.09468 -0.0534928 3.08362e-22)
(1.10097 -0.0465795 -5.24535e-22)
(1.10845 -0.0431941 -8.04681e-22)
(1.1158 -0.0317525 1.33551e-21)
(1.12351 -0.0246522 9.61026e-23)
(1.13019 -0.00956199 0)
(1.13371 -0.000627731 2.05813e-21)
(1.13626 0.0150153 -2.04701e-21)
(1.13332 0.0229114 2.65087e-22)
(1.13077 0.0361553 0)
(1.1219 0.0412562 0)
(1.11614 0.0508465 0)
(1.10426 0.0538948 0)
(1.09811 0.0607311 4.15311e-21)
(1.08496 0.062479 -6.87157e-21)
(0.984876 -0.0131278 1.00705e-20)
(0.98523 -0.0164775 -6.98642e-22)
(0.986183 -0.0181581 -2.03361e-20)
(0.986257 -0.0209057 -5.92782e-22)
(0.98783 -0.0225105 1.02593e-20)
(0.989304 -0.0263576 0)
(0.991295 -0.028566 0)
(0.993508 -0.033987 0)
(0.996056 -0.0365071 3.96627e-21)
(0.999748 -0.0412266 -5.12399e-21)
(1.00316 -0.0428534 2.62642e-22)
(1.00867 -0.0477101 -3.69264e-21)
(1.01261 -0.0495369 3.48609e-21)
(1.01929 -0.0538866 -1.94388e-22)
(1.02358 -0.0553742 -4.53451e-24)
(1.0314 -0.0597626 -3.01396e-24)
(1.03671 -0.059711 0)
(1.04435 -0.0635331 -8.8333e-23)
(1.04944 -0.0621406 -1.70335e-23)
(1.05692 -0.0657003 -2.21364e-24)
(1.06226 -0.063323 2.52371e-23)
(1.07055 -0.0654704 -2.22727e-23)
(1.07643 -0.0618745 -8.1148e-24)
(1.08461 -0.0630179 1.11294e-23)
(1.09057 -0.0576547 -3.8589e-23)
(1.09788 -0.0578906 -4.08419e-22)
(1.10374 -0.0511327 4.60794e-22)
(1.11093 -0.0490434 1.35269e-21)
(1.11747 -0.0388028 5.44148e-23)
(1.12429 -0.0334159 -1.58077e-21)
(1.13147 -0.018995 0)
(1.13613 -0.0106495 -2.76627e-22)
(1.14075 0.00515376 0)
(1.13926 0.0141303 -2.21994e-21)
(1.13956 0.0286661 5.12636e-21)
(1.13121 0.0359903 -7.73166e-21)
(1.12738 0.0474309 1.04504e-20)
(1.11492 0.0523064 -5.28489e-21)
(1.10953 0.0601576 4.20225e-21)
(1.09479 0.0636488 -4.36146e-21)
(0.982599 -0.0145093 -6.82284e-22)
(0.983036 -0.0183101 1.20887e-20)
(0.984 -0.01988 -1.08206e-20)
(0.983923 -0.0230464 6.86699e-22)
(0.985059 -0.0248678 0)
(0.986244 -0.0291754 -6.80316e-22)
(0.988347 -0.0314377 0)
(0.991403 -0.036865 5.6585e-21)
(0.993617 -0.0397234 -8.7392e-22)
(0.997521 -0.0446908 -4.22758e-21)
(1.00034 -0.0469023 -2.73911e-22)
(1.00628 -0.0518751 -2.51906e-22)
(1.01073 -0.053667 0)
(1.0173 -0.0586429 -1.29078e-21)
(1.02199 -0.059351 1.32183e-21)
(1.02911 -0.064477 9.44504e-22)
(1.03476 -0.0641781 -1.07387e-21)
(1.04303 -0.0681627 4.38864e-23)
(1.04882 -0.0665367 -7.57812e-23)
(1.05675 -0.0703197 9.07871e-23)
(1.06263 -0.0677192 -9.6196e-25)
(1.06963 -0.0701694 -4.04269e-24)
(1.07606 -0.0664359 8.48517e-24)
(1.08425 -0.0682047 -1.93902e-23)
(1.09158 -0.0628355 2.16743e-23)
(1.09969 -0.0631021 -6.35017e-22)
(1.10712 -0.0562977 5.88183e-22)
(1.11397 -0.0547212 1.44382e-21)
(1.12128 -0.0464069 -1.44131e-21)
(1.12659 -0.0419907 -1.12633e-22)
(1.13438 -0.0300908 0)
(1.13809 -0.021158 2.78823e-21)
(1.14581 -0.00396232 -2.1495e-21)
(1.14563 0.00849526 -2.89949e-21)
(1.14954 0.0255532 2.51711e-21)
(1.14344 0.0368715 0)
(1.1418 0.0502456 5.66915e-21)
(1.12977 0.0579893 -5.63801e-21)
(1.12478 0.0669143 0)
(1.10926 0.0720914 -3.0771e-22)
(0.982031 -0.0180007 4.7445e-22)
(0.98275 -0.0221111 -1.22667e-20)
(0.983649 -0.0238418 1.15279e-20)
(0.984051 -0.0272718 -2.38941e-20)
(0.984841 -0.029317 1.81115e-20)
(0.986079 -0.0338458 -5.07959e-21)
(0.987683 -0.036459 0)
(0.991074 -0.0419829 -6.75806e-22)
(0.993602 -0.0446286 -4.40898e-21)
(0.998131 -0.0499694 4.47156e-21)
(1.00113 -0.0522033 2.87284e-22)
(1.00682 -0.0574825 -3.97181e-21)
(1.0113 -0.0594314 5.51562e-21)
(1.01826 -0.0645952 -1.76052e-21)
(1.02353 -0.0646814 0)
(1.03064 -0.0701043 0)
(1.03639 -0.0694222 5.59982e-23)
(1.0445 -0.074166 -2.08428e-22)
(1.05012 -0.0717754 2.86583e-22)
(1.05806 -0.0752297 -6.72714e-23)
(1.06411 -0.0725059 -2.58225e-23)
(1.0713 -0.0753345 2.1385e-23)
(1.07673 -0.070534 2.0944e-23)
(1.08352 -0.0732611 4.19885e-22)
(1.09103 -0.068617 -3.99705e-22)
(1.09986 -0.0702389 -5.8138e-22)
(1.10865 -0.0637743 -1.6896e-22)
(1.1167 -0.0626773 -7.85325e-22)
(1.12557 -0.0535005 1.73802e-21)
(1.13188 -0.0491391 2.36805e-22)
(1.14082 -0.037221 -2.74708e-22)
(1.14401 -0.0297817 3.18165e-22)
(1.15204 -0.0153467 -3.50815e-22)
(1.15124 -0.0038113 -3.67891e-21)
(1.15682 0.0136395 7.16556e-21)
(1.15149 0.0269791 -3.45931e-21)
(1.15282 0.0427991 0)
(1.14223 0.0543843 0)
(1.13909 0.0660158 0)
(1.12257 0.075264 -6.64602e-21)
(0.978761 -0.0196539 0)
(0.979409 -0.0243026 1.2299e-20)
(0.980054 -0.0261698 -1.31894e-20)
(0.980753 -0.0298075 1.23908e-20)
(0.981177 -0.0320909 -1.40231e-20)
(0.983057 -0.0366231 -7.7783e-22)
(0.983928 -0.0399091 7.59779e-22)
(0.98758 -0.0455065 0)
(0.989945 -0.0484388 5.35184e-21)
(0.994897 -0.0544087 -5.3833e-21)
(0.99869 -0.0563721 -3.01445e-22)