/*--------------------------------*- C++ -*----------------------------------*\
  =========                 |
  \\      /  F ield         | OpenFOAM: The Open Source CFD Toolbox
   \\    /   O peration     | Website:  https://openfoam.org
    \\  /    A nd           | Version:  10
     \\/     M anipulation  |
\*---------------------------------------------------------------------------*/
FoamFile
{
    format      ascii;
    class       volScalarField;
    location    "0.0975229";
    object      T;
}
// * * * * * * * * * * * * * * * * * * * * * * * * * * * * * * * * * * * * * //

dimensions      [0 0 0 1 0 0 0];

internalField   nonuniform List<scalar> 
15984
(
0.00871265
0.00871337
0.00871439
0.00871557
0.00871671
0.00871783
0.0087186
0.00871916
0.00871943
0.00871923
0.00871878
0.00871793
0.00871667
0.00871525
0.00871339
0.00871135
0.00870917
0.00870689
0.00870463
0.00870232
0.0087003
0.00869839
0.00869676
0.00869548
0.00869461
0.00869422
0.0086944
0.00869505
0.00869606
0.00869809
0.00870066
0.0087039
0.00870778
0.00871229
0.00871741
0.00872308
0.00872923
0.00873575
0.00874254
0.00874942
0.00875624
0.00876286
0.00876897
0.00877453
0.00877932
0.00878321
0.00878611
0.00878798
0.00878874
0.00878846
0.00878748
0.00878551
0.00878277
0.00877934
0.00872668
0.00872798
0.0087293
0.00873051
0.00873152
0.00873211
0.00873238
0.0087321
0.00873153
0.00873039
0.00872872
0.00872665
0.00872426
0.00872146
0.0087184
0.00871517
0.00871182
0.00870846
0.00870504
0.00870188
0.00869886
0.0086961
0.0086937
0.00869172
0.00869024
0.00868932
0.00868903
0.00868945
0.00869026
0.0086921
0.00869481
0.00869835
0.00870274
0.00870799
0.00871408
0.00872096
0.00872855
0.0087367
0.00874526
0.00875402
0.00876273
0.0087712
0.00877904
0.00878615
0.00879227
0.00879725
0.00880098
0.00880339
0.00880446
0.00880414
0.00880318
0.0088006
0.00879747
0.00879315
0.00874132
0.00874304
0.00874453
0.00874556
0.00874618
0.00874616
0.00874576
0.00874457
0.00874291
0.00874048
0.0087376
0.00873426
0.00873051
0.00872643
0.00872213
0.00871766
0.00871314
0.00870862
0.00870418
0.00870006
0.00869612
0.00869254
0.00868941
0.0086868
0.00868477
0.00868344
0.0086828
0.00868318
0.00868397
0.0086859
0.00868906
0.00869325
0.00869855
0.00870496
0.00871249
0.00872106
0.00873057
0.00874075
0.00875145
0.00876236
0.00877315
0.00878353
0.00879303
0.00880156
0.00880878
0.00881455
0.00881875
0.00882135
0.00882228
0.00882184
0.00882009
0.00881719
0.00881282
0.00880779
0.00875659
0.00875856
0.00875986
0.00876055
0.0087604
0.00875986
0.00875824
0.00875601
0.00875291
0.00874925
0.00874504
0.00874032
0.00873522
0.00872982
0.00872423
0.00871852
0.0087129
0.00870717
0.00870186
0.00869674
0.00869194
0.0086876
0.00868379
0.00868061
0.00867814
0.0086765
0.00867569
0.00867615
0.00867713
0.00867945
0.00868341
0.00868865
0.0086953
0.00870337
0.00871285
0.0087236
0.00873543
0.00874813
0.0087613
0.00877456
0.00878753
0.0087997
0.00881073
0.00882037
0.00882834
0.00883448
0.00883872
0.00884109
0.00884147
0.0088404
0.00883809
0.0088338
0.00882871
0.00882234
0.00877235
0.00877416
0.00877506
0.00877485
0.00877418
0.00877217
0.00876938
0.00876587
0.00876127
0.00875615
0.00875053
0.00874439
0.00873791
0.0087312
0.00872439
0.00871751
0.00871081
0.00870398
0.00869783
0.0086918
0.00868621
0.00868117
0.00867677
0.0086731
0.0086703
0.00866845
0.00866772
0.00866838
0.0086697
0.0086729
0.00867798
0.00868472
0.00869321
0.00870348
0.00871543
0.00872893
0.00874358
0.00875908
0.00877492
0.00879058
0.00880563
0.00881931
0.00883155
0.00884188
0.00885009
0.00885613
0.00885994
0.00886156
0.00886109
0.00885948
0.00885518
0.0088506
0.00884367
0.00883629
0.00878811
0.00878952
0.00878932
0.00878864
0.00878597
0.00878308
0.00877861
0.00877326
0.00876737
0.00876066
0.00875346
0.00874597
0.0087382
0.00873028
0.00872229
0.0087144
0.00870658
0.00869899
0.00869194
0.00868513
0.00867886
0.00867322
0.00866832
0.00866429
0.00866127
0.00865933
0.00865897
0.0086599
0.00866201
0.00866635
0.00867304
0.00868176
0.00869265
0.00870565
0.00872062
0.00873724
0.00875512
0.00877363
0.00879215
0.0088101
0.00882677
0.00884168
0.00885452
0.00886497
0.00887291
0.00887829
0.00888123
0.00888157
0.00888023
0.00887722
0.00887202
0.00886525
0.0088577
0.00884904
0.00880349
0.00880365
0.00880289
0.00879984
0.00879641
0.0087912
0.00878528
0.00877787
0.00877044
0.00876211
0.00875357
0.00874475
0.00873574
0.00872673
0.00871766
0.00870894
0.00870009
0.00869188
0.0086841
0.00867667
0.00866985
0.00866374
0.00865848
0.0086542
0.00865117
0.00864926
0.00864959
0.00865098
0.00865418
0.00866021
0.00866896
0.00868022
0.00869406
0.00871034
0.00872881
0.00874896
0.00877014
0.00879159
0.00881255
0.00883236
0.00885007
0.00886556
0.00887837
0.00888834
0.0088954
0.00889967
0.00890111
0.00890053
0.00889755
0.00889272
0.00888671
0.00887833
0.00886968
0.00885973
0.00881743
0.00881685
0.00881344
0.00880953
0.00880348
0.00879624
0.00878805
0.00877971
0.00876996
0.0087604
0.00875044
0.00874039
0.00873028
0.00872032
0.00871033
0.008701
0.00869124
0.00868267
0.00867432
0.00866643
0.00865922
0.00865279
0.00864734
0.008643
0.00864009
0.00863868
0.00863958
0.008642
0.00864674
0.00865493
0.00866627
0.00868067
0.00869797
0.00871802
0.00874032
0.00876406
0.00878842
0.00881245
0.00883535
0.00885616
0.00887429
0.00888958
0.00890167
0.00891048
0.00891617
0.00891892
0.00891859
0.00891683
0.00891241
0.0089058
0.0088978
0.00888938
0.00887893
0.00886824
0.0088302
0.0088269
0.0088224
0.00881505
0.00880698
0.00879777
0.00878813
0.00877675
0.00876631
0.00875504
0.00874385
0.00873268
0.0087217
0.00871093
0.00870037
0.0086904
0.00868016
0.00867136
0.00866262
0.00865448
0.00864705
0.00864053
0.00863505
0.00863091
0.00862833
0.0086278
0.00862954
0.00863312
0.00864027
0.00865114
0.00866568
0.00868365
0.00870494
0.00872906
0.00875518
0.00878233
0.0088094
0.00883536
0.00885926
0.00888018
0.00889797
0.00891222
0.00892287
0.00893008
0.00893406
0.00893476
0.00893316
0.00892956
0.00892357
0.00891581
0.00890699
0.00889635
0.00888586
0.00887425
0.00883946
0.00883502
0.00882654
0.00881748
0.00880693
0.00879553
0.00878334
0.00877118
0.00875837
0.008746
0.00873377
0.00872179
0.0087101
0.00869864
0.00868779
0.00867731
0.00866691
0.00865802
0.00864915
0.00864095
0.00863353
0.00862713
0.00862186
0.00861819
0.00861616
0.00861713
0.00862001
0.00862511
0.00863527
0.00864951
0.0086678
0.00868991
0.00871543
0.00874361
0.00877331
0.00880326
0.00883215
0.00885906
0.00888284
0.00890304
0.0089195
0.00893202
0.00894084
0.00894604
0.00894777
0.00894727
0.00894359
0.00893864
0.00893104
0.00892217
0.00891215
0.00890114
0.00888944
0.00887735
0.00884715
0.00883765
0.00882779
0.00881644
0.00880246
0.00878936
0.00877499
0.00876116
0.00874734
0.00873378
0.00872051
0.0087077
0.00869561
0.00868363
0.00867284
0.00866192
0.0086517
0.00864288
0.0086341
0.00862603
0.00861891
0.00861278
0.00860813
0.00860512
0.00860444
0.00860625
0.0086116
0.00861924
0.0086326
0.00865092
0.00867331
0.00869983
0.00872966
0.00876155
0.0087941
0.00882583
0.00885548
0.00888207
0.00890468
0.00892319
0.00893763
0.00894799
0.0089545
0.00895774
0.00895753
0.00895512
0.0089499
0.00894296
0.00893419
0.00892496
0.00891419
0.00890238
0.00889083
0.00887839
0.00884862
0.0088384
0.00882528
0.00881013
0.00879539
0.008779
0.00876384
0.00874786
0.00873271
0.00871816
0.00870434
0.00869098
0.00867862
0.00866632
0.00865577
0.00864458
0.00863477
0.00862618
0.00861771
0.00861004
0.00860338
0.00859792
0.00859411
0.00859217
0.00859355
0.00859654
0.00860438
0.0086163
0.00863327
0.00865567
0.00868292
0.00871396
0.0087476
0.00878243
0.00881667
0.00884885
0.00887797
0.00890292
0.00892337
0.00893955
0.00895149
0.00895943
0.00896349
0.00896389
0.00896204
0.0089585
0.00895177
0.00894428
0.00893476
0.00892452
0.00891345
0.00890173
0.00888956
0.008877
0.00884921
0.00883454
0.00881831
0.00880179
0.00878399
0.00876603
0.00874882
0.00873138
0.00871592
0.00870043
0.0086857
0.00867206
0.00865946
0.00864729
0.00863693
0.00862569
0.00861644
0.00860827
0.00860024
0.00859324
0.00858725
0.00858286
0.00858011
0.00858056
0.00858221
0.00858996
0.00859965
0.00861659
0.00863769
0.00866533
0.00869707
0.00873205
0.00876878
0.00880522
0.00883975
0.008871
0.00889816
0.00892039
0.00893805
0.00895143
0.00896025
0.00896515
0.00896697
0.00896631
0.0089628
0.00895757
0.00895034
0.0089418
0.00893229
0.0089218
0.00891069
0.00889863
0.00888675
0.00887414
0.00884424
0.00882747
0.00880978
0.00878939
0.00876973
0.00875059
0.00873168
0.00871399
0.00869609
0.00868034
0.00866534
0.00865168
0.00863877
0.00862696
0.00861676
0.00860562
0.00859708
0.00858941
0.00858209
0.00857582
0.00857096
0.00856784
0.00856731
0.00856869
0.00857494
0.00858403
0.00859959
0.00862042
0.00864755
0.00867941
0.00871576
0.00875404
0.0087924
0.00882892
0.0088621
0.0088909
0.00891487
0.00893367
0.00894801
0.00895754
0.00896387
0.00896654
0.00896635
0.00896409
0.00895958
0.00895323
0.00894556
0.00893719
0.00892722
0.00891723
0.0089061
0.00889441
0.00888233
0.00886947
0.00883802
0.00881859
0.00879676
0.00877533
0.00875475
0.00873314
0.00871291
0.0086936
0.00867617
0.00865958
0.00864398
0.00863048
0.00861714
0.00860589
0.00859579
0.00858466
0.00857704
0.00856994
0.00856344
0.00855826
0.00855471
0.00855365
0.00855507
0.00855965
0.00856692
0.00858435
0.00860337
0.00862981
0.00866184
0.00869938
0.00873885
0.00877887
0.0088172
0.00885209
0.00888232
0.00890746
0.00892741
0.00894197
0.00895255
0.00895931
0.00896254
0.00896323
0.00896205
0.00895821
0.00895324
0.00894634
0.00893856
0.00893141
0.00892074
0.00891095
0.00890044
0.00888869
0.00887695
0.00886429
0.00882822
0.0088058
0.00878401
0.00876067
0.00873682
0.0087145
0.00869401
0.00867361
0.00865512
0.00863838
0.00862214
0.00860863
0.00859496
0.00858435
0.00857433
0.00856332
0.00855658
0.00855015
0.00854463
0.00854075
0.00853885
0.00854072
0.00854381
0.0085517
0.0085669
0.00858637
0.00861241
0.00864445
0.00868295
0.00872347
0.00876549
0.00880569
0.00884196
0.00887354
0.00889942
0.00892012
0.00893488
0.00894557
0.00895243
0.00895633
0.00895748
0.00895647
0.0089538
0.00894977
0.00894445
0.00893818
0.00892986
0.00892369
0.00891318
0.00890468
0.00889422
0.00888345
0.00887126
0.00885861
0.00881684
0.00879566
0.00876791
0.00874421
0.00872018
0.00869654
0.00867449
0.0086537
0.00863404
0.0086169
0.00860077
0.0085872
0.00857317
0.00856286
0.0085528
0.00854174
0.00853589
0.00853035
0.00852588
0.00852353
0.00852482
0.00852719
0.00853553
0.00854902
0.008566
0.00859716
0.00862678
0.00866659
0.00870825
0.00875273
0.00879455
0.00883268
0.00886536
0.00889216
0.00891275
0.00892806
0.00893796
0.00894459
0.00894832
0.00894899
0.00894864
0.00894669
0.00894385
0.00893781
0.00893579
0.00892693
0.00892186
0.00891596
0.00890604
0.00889824
0.00888847
0.00887757
0.00886417
0.00885246
0.00880602
0.00877955
0.00875428
0.00872974
0.00870328
0.00867833
0.00865622
0.00863403
0.00861498
0.00859672
0.00857977
0.00856548
0.00855119
0.00854126
0.00853104
0.00851995
0.00851514
0.00851056
0.00850728
0.00850793
0.00850905
0.00851906
0.00852868
0.00854875
0.00857622
0.00860891
0.00864991
0.00869213
0.00873979
0.00878406
0.00882503
0.0088591
0.00888667
0.00890724
0.00892213
0.00893157
0.00893701
0.00893957
0.00894017
0.00893969
0.00893731
0.00893467
0.00893147
0.00892702
0.0089239
0.00891768
0.00891365
0.00890901
0.00889951
0.00889267
0.00888202
0.00887161
0.008857
0.00884597
0.00879299
0.0087701
0.00873821
0.00871515
0.00868633
0.00866285
0.0086396
0.0086161
0.00859562
0.00857586
0.00855946
0.00854458
0.00852994
0.00852004
0.00850974
0.008498
0.00849491
0.00849085
0.00849018
0.0084908
0.00849967
0.00850752
0.00852873
0.00855436
0.00858585
0.00863355
0.00867539
0.00872669
0.00877388
0.0088181
0.00885442
0.00888321
0.0089046
0.00891859
0.0089274
0.00893137
0.00893196
0.00893165
0.00892941
0.00892688
0.0089244
0.0089213
0.00891826
0.00891603
0.00891168
0.00891002
0.00890596
0.00890152
0.00889487
0.00888506
0.0088763
0.00886607
0.0088498
0.00883842
0.00878318
0.00875537
0.0087256
0.00870314
0.00867254
0.00864821
0.00862244
0.0085987
0.00857858
0.00855695
0.00854022
0.00852364
0.0085076
0.00849799
0.00848718
0.00847531
0.00847391
0.00847184
0.00847258
0.00847883
0.00848417
0.0085082
0.00852931
0.00856604
0.00860905
0.00865853
0.00871105
0.0087624
0.00881061
0.0088514
0.0088829
0.00890478
0.00891842
0.00892614
0.00892885
0.00892757
0.00892465
0.00892083
0.00891694
0.00891363
0.00891006
0.0089075
0.00890591
0.00890478
0.00890167
0.00890173
0.00889912
0.00889477
0.0088902
0.00888009
0.00887361
0.00886279
0.00884455
0.00882994
0.00877226
0.00874652
0.00871446
0.00869071
0.00865855
0.00863455
0.0086095
0.00858268
0.00856105
0.00853625
0.00851975
0.0085021
0.00848468
0.0084756
0.00846445
0.00845239
0.00845278
0.00845334
0.00845568
0.00846141
0.00848238
0.00850265
0.00854173
0.00858269
0.00863315
0.0086958
0.00874827
0.00880169
0.00884792
0.00888283
0.00890755
0.00892281
0.00892942
0.00893028
0.00892772
0.00892153
0.00891504
0.00890853
0.00890374
0.00889908
0.00889693
0.00889423
0.00889447
0.0088938
0.00889351
0.00889642
0.00889124
0.00889024
0.00888102
0.00887825
0.00887012
0.00885581
0.00882226
0.00879704
0.00876544
0.00873488
0.00870643
0.0086793
0.00864906
0.00862359
0.00859144
0.00856752
0.00854672
0.00851779
0.00849988
0.00847997
0.00845936
0.00845139
0.00843922
0.00842747
0.00843001
0.00843556
0.00844107
0.00845881
0.00847798
0.00851482
0.00855232
0.00861168
0.00866872
0.00873296
0.008791
0.00884325
0.00888257
0.00891242
0.00892933
0.00893608
0.00893619
0.00893174
0.00892368
0.00891374
0.00890389
0.00889613
0.00888959
0.00888558
0.00888283
0.0088827
0.00888366
0.00888607
0.00888704
0.00889094
0.00888504
0.0088855
0.00887816
0.00888046
0.0088564
0.00881387
0.00874245
0.00868849
0.00875932
0.00872259
0.00870577
0.00866336
0.00864132
0.00860555
0.00857873
0.00855715
0.00853108
0.00849344
0.00847412
0.00845441
0.00843298
0.00842393
0.00841793
0.00840507
0.00840714
0.00841198
0.00841593
0.00844644
0.00847243
0.00852178
0.00857681
0.00863838
0.00870618
0.00877766
0.00883293
0.00887849
0.00891575
0.00893614
0.00894663
0.0089464
0.00894082
0.00893089
0.00891813
0.00890465
0.00889342
0.00888288
0.00887659
0.00887238
0.00887161
0.00887203
0.00887586
0.00887653
0.00888274
0.00888439
0.00888306
0.00888295
0.00887936
0.00888152
0.00875954
0.00857383
0.0084141
0.00827892
0.00875577
0.00871443
0.00870762
0.00864508
0.00864312
0.00858558
0.0085758
0.00854562
0.00850356
0.00843747
0.00840902
0.0083787
0.00836333
0.00836458
0.00836498
0.00839007
0.0084008
0.00840937
0.00843283
0.00844886
0.00849249
0.00854358
0.0086086
0.00868127
0.00875247
0.00881874
0.00887359
0.00891646
0.00894088
0.0089575
0.00895852
0.00895368
0.00894206
0.00892768
0.00891143
0.00889575
0.00888179
0.00887178
0.00886459
0.0088609
0.00886144
0.00886255
0.00886779
0.00886882
0.00887616
0.00887657
0.00888231
0.00887608
0.00887556
0.00880572
0.00841555
0.00765466
0.00745963
0.00716794
0.00874562
0.00872192
0.00868237
0.00864781
0.00864477
0.00857351
0.00853308
0.0085172
0.00841291
0.00822698
0.00814916
0.00808859
0.00809331
0.00811376
0.00824141
0.00823181
0.00830155
0.00836168
0.00840304
0.00844898
0.00850042
0.00856761
0.00863863
0.00872334
0.00879137
0.00886398
0.00891017
0.00894137
0.00896537
0.00897117
0.00896821
0.00895683
0.0089401
0.00892337
0.00890433
0.00888688
0.00887214
0.00886124
0.00885442
0.00885158
0.00885361
0.00885386
0.00885945
0.00886078
0.00886951
0.00886981
0.00887267
0.00883697
0.00882233
0.00825612
0.0071765
0.00579411
0.00578953
0.00547
0.00873989
0.00872612
0.00866775
0.00866356
0.00858257
0.0086026
0.00838894
0.00845583
0.00788696
0.00730837
0.00714688
0.0071866
0.00683135
0.00684372
0.00686602
0.00772349
0.00814099
0.00833613
0.00842102
0.00847958
0.00853199
0.00860472
0.00868673
0.0087659
0.00883965
0.00889824
0.00894151
0.00896903
0.00897943
0.00898027
0.00897223
0.00895663
0.00893816
0.00891809
0.00889735
0.00887835
0.00886372
0.0088524
0.00884657
0.00884336
0.00884522
0.00884535
0.00884926
0.00885231
0.00885706
0.00885509
0.0088469
0.00870475
0.0084012
0.00688202
0.00510546
0.00477196
0.00483772
0.00446478
0.00874183
0.00872383
0.00866772
0.00865
0.00850386
0.00850622
0.00807686
0.00770904
0.00579987
0.00538679
0.00538477
0.00509532
0.00449607
0.00449686
0.00457474
0.00543595
0.0068633
0.00778705
0.00824836
0.00847252
0.00856757
0.00865932
0.00873683
0.00880651
0.00887986
0.00893101
0.0089621
0.00897792
0.00898832
0.00898564
0.00897204
0.00895269
0.00893336
0.00891165
0.00889014
0.00887182
0.008856
0.00884651
0.00884018
0.00883717
0.00883705
0.0088343
0.00883656
0.00883779
0.00883482
0.00881504
0.00870944
0.00828429
0.00682625
0.00503945
0.00450927
0.00449462
0.00443803
0.00441504
0.00875164
0.00870868
0.00866885
0.00860278
0.00831608
0.00780027
0.00726411
0.00529126
0.00449197
0.00435163
0.00421468
0.00420716
0.00420973
0.00424573
0.00440699
0.00486942
0.00618742
0.00756279
0.00822131
0.00847513
0.00864354
0.00868839
0.00878052
0.00885295
0.00889801
0.00895258
0.00898296
0.00899244
0.00899355
0.00898311
0.00896895
0.00894851
0.00892677
0.00890552
0.00888442
0.00886495
0.00885197
0.00884086
0.008834
0.00882907
0.00882749
0.00882388
0.00881602
0.00880336
0.00877264
0.00865564
0.00818031
0.00683472
0.00493405
0.00447192
0.00447221
0.00445842
0.00443482
0.00442988
0.00874198
0.00868739
0.00861672
0.00827854
0.0072655
0.00622476
0.00444526
0.00428517
0.00426721
0.00422066
0.00420144
0.00419887
0.00419763
0.0042161
0.00426603
0.00456844
0.00548681
0.00712521
0.00804307
0.00847342
0.00866416
0.00878159
0.00883178
0.00888759
0.00893246
0.00896591
0.0089848
0.00898714
0.00898764
0.00898064
0.00896081
0.00894157
0.00891979
0.00889871
0.0088775
0.00886069
0.00884699
0.00883685
0.00882907
0.00882114
0.00881631
0.0087996
0.00875493
0.00870264
0.00855168
0.00801394
0.00659898
0.00488803
0.00446772
0.0044634
0.00446709
0.00446242
0.00445334
0.0044496
0.00869252
0.00854134
0.00842724
0.00654183
0.00455007
0.00444268
0.00428301
0.0042681
0.00423582
0.00422295
0.0042134
0.00420364
0.00419931
0.00421227
0.00425256
0.00436402
0.00487144
0.00653829
0.00795957
0.00846921
0.00868996
0.00879017
0.00886317
0.00890418
0.00894582
0.0089751
0.00899139
0.00898871
0.00898417
0.00896939
0.00895353
0.00893116
0.00891194
0.00889098
0.00887222
0.00885638
0.00884328
0.00883148
0.00882183
0.00881356
0.00880159
0.00871682
0.00854408
0.00835287
0.00773189
0.00618115
0.00479055
0.00446123
0.00445898
0.00446906
0.00447392
0.00447169
0.0044676
0.00446197
0.00855794
0.00793436
0.00502818
0.00448844
0.00435324
0.00430666
0.0042668
0.00425135
0.00423176
0.00422546
0.00421849
0.00421488
0.00421259
0.00421855
0.00425071
0.00432242
0.00456161
0.00542895
0.00752182
0.0084234
0.00870176
0.00884335
0.00889042
0.00892835
0.00895055
0.00897309
0.00898248
0.00897705
0.00897284
0.00896105
0.00894086
0.00892165
0.00890333
0.0088834
0.00886723
0.00885109
0.0088389
0.00882785
0.00881501
0.00879781
0.00873428
0.00837726
0.0078671
0.00726659
0.00569104
0.00465278
0.00445362
0.00445193
0.00446975
0.00447874
0.00448432
0.00448293
0.00448148
0.00447504
0.00559308
0.00497137
0.0044684
0.00433651
0.00431103
0.00427572
0.00425811
0.00424672
0.00423202
0.0042276
0.00422583
0.0042265
0.00423045
0.00423925
0.00426071
0.00430802
0.00442633
0.0048499
0.00623814
0.00817244
0.00865306
0.00882059
0.00890763
0.00893066
0.00895102
0.00896921
0.00897601
0.00896746
0.00896171
0.00894433
0.0089286
0.00890961
0.00889179
0.00887622
0.00885963
0.00884759
0.0088336
0.00882092
0.00880433
0.00873385
0.00838168
0.00732236
0.00627987
0.005266
0.00456242
0.00445236
0.00444356
0.0044646
0.00447762
0.00448923
0.004494
0.0044949
0.00449363
0.00448878
0.00467127
0.00440865
0.00437069
0.00430762
0.00429727
0.00426892
0.00425667
0.0042423
0.00423414
0.00423245
0.0042353
0.00423964
0.00424898
0.00425974
0.00427804
0.00430822
0.00436418
0.00454999
0.00512811
0.00695087
0.00851851
0.00876143
0.00889607
0.00892994
0.00894961
0.00896217
0.00896413
0.00895388
0.00894534
0.00893304
0.00891477
0.00889543
0.00888139
0.00886629
0.00885317
0.00883976
0.00882906
0.00881232
0.00875164
0.00842334
0.00718077
0.00546867
0.00480203
0.00449214
0.00445109
0.00443677
0.00445313
0.00447454
0.00448844
0.00449896
0.0045048
0.00450651
0.00450616
0.00450114
0.00441116
0.00434418
0.00434097
0.0042983
0.00429071
0.00426587
0.00425431
0.00424236
0.00423876
0.00423913
0.00424549
0.00425414
0.00426704
0.00427995
0.00429712
0.0043175
0.00435108
0.00444171
0.00469628
0.00537876
0.00737055
0.0087246
0.00886437
0.00891882
0.00893719
0.00894618
0.00894432
0.00893401
0.00893045
0.00891283
0.00889841
0.00888475
0.00886911
0.00885601
0.00884469
0.00883299
0.00881885
0.0087799
0.00854853
0.00751901
0.00551136
0.00463292
0.00445154
0.00443579
0.00442664
0.00444189
0.00446981
0.00448268
0.0044987
0.00450885
0.00451557
0.00451828
0.00451804
0.00451434
0.0043526
0.0043416
0.00432236
0.00429798
0.00428487
0.00426425
0.00425353
0.00424557
0.00424411
0.00424754
0.00425615
0.00426783
0.00428265
0.00429867
0.00431747
0.00433427
0.00436028
0.0044311
0.00461438
0.00512382
0.00644355
0.00851042
0.00882853
0.00889657
0.00892574
0.00893312
0.00893113
0.00892187
0.00891342
0.00890011
0.0088841
0.00886724
0.00885622
0.0088455
0.0088341
0.00882359
0.00880536
0.00872168
0.00830074
0.00679503
0.00499208
0.00447649
0.00442127
0.00441432
0.00443432
0.0044583
0.00447558
0.00449393
0.00450822
0.00451872
0.00452648
0.00452988
0.00453047
0.00452554
0.00435229
0.00433582
0.00431792
0.00429704
0.00428163
0.00426546
0.00425554
0.00425056
0.00425056
0.00425636
0.00426651
0.00427919
0.00429382
0.00431059
0.00432715
0.0043397
0.00435852
0.00439972
0.00449311
0.0047546
0.00545908
0.00720288
0.00872773
0.00885532
0.00890163
0.00891616
0.00891452
0.00889998
0.00889154
0.00888177
0.00886695
0.00885568
0.0088428
0.0088331
0.00882595
0.00881356
0.00878194
0.00868036
0.00825625
0.00686453
0.00507417
0.00448189
0.00441909
0.00441851
0.00444754
0.00446704
0.0044844
0.00450366
0.00451724
0.00452982
0.00453728
0.00454152
0.00454123
0.0045361
0.00435194
0.00433087
0.00431685
0.00429704
0.00428271
0.00426948
0.00426115
0.00425747
0.00425868
0.0042641
0.00427428
0.00428604
0.00430048
0.0043156
0.00433017
0.00434059
0.00435692
0.00438399
0.00444266
0.00458158
0.00495147
0.00585214
0.00778539
0.00880685
0.00885194
0.00887795
0.00888467
0.00888662
0.00887957
0.00886573
0.00885145
0.00883756
0.00883059
0.00882524
0.00881405
0.00877818
0.00866132
0.00830969
0.0074211
0.00579441
0.00472425
0.00444493
0.00440583
0.00443881
0.00444782
0.004477
0.00449363
0.00451315
0.00452741
0.00453965
0.00454854
0.00455152
0.00455145
0.00454339
0.0043505
0.00433128
0.00431766
0.00430036
0.00428795
0.00427669
0.00426886
0.0042657
0.00426607
0.00427104
0.00427828
0.00428791
0.00429988
0.00431281
0.00432221
0.00433069
0.00434246
0.0043605
0.00439578
0.00446985
0.00466877
0.00516016
0.00630919
0.00820974
0.00882962
0.00885006
0.00886994
0.00886019
0.00885378
0.00884765
0.00883394
0.0088257
0.00882108
0.00880934
0.0087564
0.00856111
0.00800101
0.00678427
0.00540276
0.00463273
0.00451826
0.0044132
0.00440615
0.00444845
0.00444991
0.00449024
0.00449945
0.00452157
0.00453675
0.00455014
0.00455736
0.00456097
0.00455802
0.0045479
0.00435133
0.00433479
0.00432194
0.00430728
0.00429648
0.00428578
0.0042784
0.00427392
0.00427246
0.00427457
0.00427779
0.00428381
0.00429108
0.00430053
0.00430663
0.00431455
0.00432615
0.00434202
0.00437138
0.00442387
0.00454555
0.00484462
0.00552937
0.00698347
0.00850722
0.00881152
0.0088336
0.00884444
0.0088372
0.0088281
0.00881848
0.00881099
0.00879502
0.00870892
0.00838594
0.00753519
0.00595488
0.00509767
0.00452677
0.00450927
0.00440762
0.00439733
0.00441936
0.0044545
0.00445769
0.00449337
0.00450848
0.00452998
0.00454549
0.00455778
0.00456526
0.00456664
0.00456175
0.00454573
0.00435516
0.00434158
0.00432938
0.00431733
0.00430653
0.00429655
0.00428812
0.00428103
0.00427671
0.00427414
0.00427276
0.00427264
0.00427695
0.0042817
0.00428589
0.00429313
0.00430376
0.00431882
0.00433976
0.0043754
0.0044431
0.0046083
0.00500773
0.00592246
0.00768991
0.00869583
0.00877307
0.00880382
0.00880651
0.00880334
0.00879862
0.00876644
0.00863583
0.00818225
0.0071063
0.00537644
0.0048751
0.00447652
0.00447131
0.00440541
0.00439285
0.00439822
0.00443196
0.00445312
0.0044673
0.00449793
0.00451568
0.00453574
0.00455192
0.00456343
0.00456893
0.00456908
0.00455797
0.00454215
0.00436176
0.00434961
0.00433914
0.00432802
0.00431734
0.00430666
0.00429624
0.00428613
0.00427822
0.00426992
0.00426275
0.00425866
0.00425809
0.00425971
0.00426224
0.0042701
0.00428179
0.00429623
0.00431637
0.00434918
0.00440345
0.00450905
0.00474206
0.00525447
0.00635589
0.00801302
0.00871856
0.00872533
0.00876747
0.00876932
0.0087261
0.00853877
0.00796037
0.00670528
0.00502524
0.00475482
0.00444731
0.00443011
0.00439332
0.00438541
0.00438976
0.0044062
0.00443656
0.00445192
0.00447556
0.0045
0.00452081
0.00454095
0.00455564
0.00456537
0.00456895
0.00456463
0.00455225
0.00452332
0.00436921
0.00435855
0.00434924
0.00433827
0.004327
0.00431481
0.00430183
0.00428854
0.0042761
0.0042628
0.00425065
0.00424222
0.0042398
0.00423938
0.0042422
0.00425005
0.00426166
0.0042755
0.00429184
0.00431143
0.00434191
0.00440054
0.00452536
0.0048167
0.0054365
0.00668236
0.00809322
0.00869669
0.00866073
0.00863038
0.00846148
0.00781638
0.00634519
0.00480353
0.00469924
0.00441918
0.00440632
0.00437929
0.00437477
0.00437928
0.0043941
0.00441333
0.00443484
0.00445487
0.00447941
0.00450213
0.0045237
0.00454214
0.00455543
0.00456282
0.00456375
0.00455498
0.00453379
0.00450756
0.0043761
0.00436735
0.00435769
0.00434656
0.0043341
0.00431989
0.00430411
0.00428812
0.00427124
0.00425434
0.00423894
0.0042278
0.00422371
0.00422278
0.00422538
0.00423393
0.00424572
0.00425948
0.00427452
0.0042911
0.00431295
0.00434698
0.00441162
0.00454368
0.00484529
0.00548724
0.00672691
0.00790784
0.00835172
0.00818732
0.00746538
0.0059049
0.00502862
0.00444852
0.00449036
0.00436909
0.00437295
0.00436502
0.00437371
0.00437853
0.00439989
0.0044121
0.00443536
0.00445634
0.00448054
0.00450316
0.00452404
0.00454014
0.00455173
0.004555
0.00455066
0.00453714
0.00450732
0.00448117
0.00438165
0.00437375
0.00436355
0.00435169
0.00433779
0.00432171
0.00430355
0.00428517
0.00426543
0.00424664
0.00422968
0.00421772
0.00421285
0.00421172
0.00421442
0.00422353
0.00423491
0.00424851
0.00426248
0.00427765
0.004293
0.00431171
0.00433898
0.00438741
0.00448637
0.00468312
0.00507688
0.00572826
0.00611945
0.0060697
0.00545052
0.00481676
0.0044427
0.00446085
0.00437047
0.00435865
0.00435848
0.00436437
0.00436698
0.00438482
0.00439603
0.00441409
0.00443482
0.00445696
0.00448008
0.00450161
0.00452053
0.00453401
0.00454052
0.00454131
0.00452937
0.00450808
0.004482
0.00443959
0.00438507
0.00437673
0.00436607
0.00435321
0.00433798
0.0043203
0.00430102
0.00428112
0.00426044
0.00424143
0.00422452
0.00421268
0.00420786
0.00420684
0.00420968
0.0042177
0.00422876
0.00424208
0.00425607
0.00426971
0.00428282
0.00429702
0.0043126
0.00433158
0.00435899
0.0043989
0.00445755
0.00456063
0.00464281
0.00467639
0.00459771
0.00442741
0.00439507
0.00434412
0.00435068
0.00435379
0.00435623
0.00435799
0.00436975
0.00438247
0.00439466
0.00441392
0.00443337
0.00445546
0.00447723
0.00449657
0.00451243
0.00452131
0.00452492
0.00451507
0.00450674
0.00446784
0.00444904
0.00440235
0.00438529
0.00437635
0.0043652
0.00435156
0.00433557
0.00431728
0.00429775
0.00427772
0.0042578
0.00423937
0.00422365
0.00421206
0.00420766
0.00420645
0.00420923
0.00421636
0.00422688
0.00423928
0.00425193
0.00426506
0.00427776
0.00429054
0.00430228
0.00431467
0.00432817
0.00434241
0.00435516
0.00436885
0.00438743
0.00438969
0.00438332
0.00435201
0.00434533
0.00433971
0.00434597
0.00434939
0.00435138
0.00435612
0.00436976
0.0043761
0.00439546
0.00441146
0.00443056
0.00445217
0.00447068
0.00448649
0.00449803
0.0045021
0.00450099
0.00448736
0.00446745
0.00443417
0.00440205
0.00436895
0.00438235
0.00437311
0.0043616
0.00434769
0.00433165
0.00431386
0.0042952
0.00427628
0.00425782
0.0042413
0.00422744
0.00421646
0.00421221
0.00421077
0.00421294
0.00421905
0.00422819
0.00423922
0.00425069
0.0042635
0.00427564
0.00428709
0.00429838
0.00430919
0.00431981
0.00432958
0.00433648
0.00434048
0.0043448
0.00434699
0.00434358
0.00433796
0.00433537
0.0043372
0.0043427
0.00434535
0.00434676
0.00435607
0.00436675
0.00437554
0.00439364
0.00440674
0.00442625
0.00444484
0.00445922
0.00447211
0.0044775
0.00447841
0.00446972
0.00445013
0.00442592
0.00439128
0.00435858
0.00433333
0.0043771
0.00436783
0.00435649
0.00434306
0.00432786
0.00431139
0.00429434
0.00427733
0.00426107
0.00424662
0.0042343
0.00422467
0.00422023
0.00421883
0.00422
0.00422472
0.00423211
0.00424149
0.00425246
0.00426371
0.00427482
0.00428573
0.00429615
0.00430579
0.0043152
0.0043235
0.00432919
0.0043321
0.0043352
0.00433653
0.00433508
0.00433337
0.00433329
0.00433643
0.00433939
0.00434209
0.00434506
0.00435496
0.00436384
0.00437422
0.00438833
0.00440224
0.00441937
0.0044321
0.00444474
0.00445108
0.00445246
0.0044468
0.00443222
0.00440767
0.00437905
0.00434622
0.00431602
0.00430147
0.00437083
0.00436189
0.00435122
0.00433882
0.0043252
0.00431059
0.00429565
0.00428093
0.00426707
0.00425443
0.00424386
0.00423533
0.00423053
0.00422883
0.00422919
0.00423248
0.00423835
0.00424633
0.00425553
0.00426557
0.00427555
0.00428569
0.00429514
0.00430413
0.00431242
0.00431992
0.00432472
0.00432778
0.00433158
0.00433315
0.00433284
0.00433195
0.00433294
0.00433476
0.00433687
0.00434008
0.00434448
0.00435244
0.00436207
0.00436993
0.00438329
0.00439502
0.00440672
0.00441782
0.00442354
0.00442502
0.0044209
0.00440917
0.00438931
0.00435959
0.00433112
0.00429971
0.00427956
0.00426693
0.00436459
0.00435638
0.00434683
0.00433598
0.00432418
0.00431171
0.004299
0.00428667
0.00427482
0.00426411
0.00425496
0.00424757
0.00424212
0.00424014
0.00423981
0.0042421
0.00424655
0.00425253
0.00426031
0.00426885
0.00427788
0.00428678
0.00429539
0.00430358
0.00431105
0.00431765
0.00432175
0.00432524
0.00432901
0.00433075
0.00433118
0.00433094
0.00433236
0.00433378
0.00433595
0.00433728
0.00434541
0.0043479
0.00435735
0.00436465
0.00437449
0.00438315
0.00439161
0.00439598
0.00439721
0.00439356
0.00438278
0.00436532