/*--------------------------------*- C++ -*----------------------------------*\
  =========                 |
  \\      /  F ield         | OpenFOAM: The Open Source CFD Toolbox
   \\    /   O peration     | Website:  https://openfoam.org
    \\  /    A nd           | Version:  10
     \\/     M anipulation  |
\*---------------------------------------------------------------------------*/
FoamFile
{
    format      ascii;
    class       volScalarField;
    location    "0.750724";
    object      p;
}
// * * * * * * * * * * * * * * * * * * * * * * * * * * * * * * * * * * * * * //

dimensions      [1 -1 -2 0 0 0 0];

internalField   nonuniform List<scalar> 
15984
(
2.46009
2.45892
2.45815
2.45777
2.45773
2.45799
2.45858
2.45943
2.46046
2.46169
2.46307
2.46459
2.4662
2.46789
2.46964
2.47143
2.47325
2.47509
2.47694
2.4788
2.48066
2.48253
2.48441
2.48631
2.48824
2.49019
2.4922
2.49425
2.49638
2.49858
2.50086
2.50325
2.50573
2.50833
2.51104
2.51387
2.51682
2.51987
2.52303
2.52627
2.52958
2.53294
2.53632
2.53969
2.54302
2.54627
2.54941
2.55241
2.55523
2.55784
2.56021
2.56231
2.56413
2.56565
2.4585
2.45736
2.45665
2.45635
2.45642
2.45681
2.45755
2.45854
2.45974
2.46114
2.46269
2.46437
2.46614
2.46799
2.46989
2.47182
2.47377
2.47572
2.47766
2.4796
2.48153
2.48345
2.48535
2.48726
2.48916
2.49108
2.49302
2.49498
2.49698
2.49903
2.50115
2.50332
2.50558
2.50792
2.51035
2.51287
2.51549
2.5182
2.521
2.52388
2.52682
2.52982
2.53284
2.53588
2.53889
2.54186
2.54475
2.54753
2.55017
2.55265
2.55493
2.55699
2.55882
2.56039
2.4565
2.45539
2.45476
2.45456
2.45473
2.45526
2.45617
2.45732
2.4587
2.46028
2.46201
2.46387
2.46583
2.46785
2.46992
2.47201
2.4741
2.47618
2.47825
2.48029
2.48231
2.48429
2.48625
2.48818
2.4901
2.492
2.49389
2.49579
2.4977
2.49964
2.5016
2.5036
2.50565
2.50776
2.50993
2.51217
2.51447
2.51685
2.5193
2.52182
2.5244
2.52702
2.52968
2.53236
2.53504
2.53769
2.54028
2.5428
2.54522
2.54752
2.54966
2.55163
2.55341
2.55499
2.45411
2.45305
2.45249
2.45239
2.45267
2.45337
2.45444
2.45578
2.45735
2.45912
2.46105
2.46311
2.46526
2.46747
2.46972
2.47198
2.47423
2.47647
2.47868
2.48085
2.48297
2.48505
2.48708
2.48907
2.49102
2.49293
2.49482
2.49668
2.49853
2.50038
2.50223
2.50408
2.50596
2.50786
2.5098
2.51178
2.5138
2.51586
2.51797
2.52014
2.52235
2.5246
2.52689
2.52919
2.5315
2.5338
2.53607
2.53828
2.54043
2.54248
2.54443
2.54625
2.54793
2.54945
2.45136
2.45035
2.44987
2.44987
2.45027
2.45114
2.45238
2.45391
2.45568
2.45765
2.45979
2.46206
2.46441
2.46683
2.46927
2.47172
2.47416
2.47656
2.47893
2.48124
2.4835
2.48569
2.48783
2.4899
2.49191
2.49387
2.49578
2.49764
2.49946
2.50126
2.50302
2.50477
2.5065
2.50824
2.50997
2.51172
2.51347
2.51525
2.51704
2.51886
2.52072
2.5226
2.5245
2.52642
2.52834
2.53025
2.53215
2.53402
2.53583
2.53759
2.53927
2.54087
2.54237
2.54377
2.44823
2.44728
2.44689
2.447
2.44755
2.4486
2.45
2.45173
2.45371
2.45589
2.45825
2.46073
2.4633
2.46592
2.46858
2.47123
2.47386
2.47645
2.47899
2.48147
2.48388
2.48622
2.48848
2.49066
2.49277
2.4948
2.49676
2.49866
2.50049
2.50226
2.50399
2.50566
2.50729
2.50889
2.51045
2.512
2.51352
2.51504
2.51655
2.51804
2.51954
2.52105
2.52256
2.52408
2.5256
2.5271
2.52859
2.53005
2.53149
2.53288
2.53423
2.53552
2.53676
2.53795
2.44475
2.44386
2.44357
2.44379
2.4445
2.44573
2.44731
2.44924
2.45144
2.45384
2.45641
2.45911
2.46191
2.46475
2.46762
2.47049
2.47332
2.47612
2.47885
2.48151
2.4841
2.4866
2.48902
2.49134
2.49357
2.49571
2.49776
2.49973
2.50161
2.5034
2.50512
2.50676
2.50833
2.50983
2.51126
2.51264
2.51397
2.51525
2.51649
2.5177
2.51886
2.52
2.52113
2.52223
2.52333
2.52439
2.52544
2.52645
2.52744
2.5284
2.52933
2.53024
2.53112
2.532
2.44093
2.44012
2.43993
2.44025
2.44114
2.44255
2.44435
2.44646
2.44887
2.45149
2.45429
2.45722
2.46024
2.46331
2.4664
2.46949
2.47255
2.47555
2.4785
2.48137
2.48415
2.48684
2.48943
2.49192
2.49431
2.4966
2.49878
2.50085
2.50281
2.50467
2.50642
2.50807
2.50962
2.51106
2.51241
2.51367
2.51483
2.51591
2.51692
2.51784
2.5187
2.5195
2.52024
2.52093
2.52157
2.52217
2.52274
2.52326
2.52375
2.52419
2.52463
2.52504
2.52548
2.52592
2.43676
2.43604
2.43597
2.43641
2.43748
2.43909
2.44108
2.44341
2.44602
2.44886
2.45189
2.45505
2.45829
2.4616
2.46492
2.46823
2.47152
2.47475
2.47792
2.48101
2.48401
2.48692
2.48972
2.49241
2.49499
2.49745
2.49979
2.50201
2.5041
2.50606
2.5079
2.5096
2.51116
2.5126
2.5139
2.51508
2.51612
2.51704
2.51784
2.51852
2.51909
2.51956
2.51993
2.52021
2.52039
2.5205
2.52056
2.52053
2.52045
2.52031
2.52017
2.51999
2.51986
2.51974
2.43226
2.43164
2.43168
2.43227
2.43355
2.43533
2.43753
2.44007
2.4429
2.44596
2.44921
2.45259
2.45607
2.45961
2.46316
2.46671
2.47024
2.47371
2.47712
2.48045
2.48369
2.48684
2.48987
2.49279
2.49559
2.49827
2.50081
2.50321
2.50547
2.50759
2.50954
2.51134
2.51298
2.51445
2.51576
2.51689
2.51786
2.51866
2.51929
2.51975
2.52006
2.52022
2.52023
2.52011
2.51985
2.51945
2.51893
2.51832
2.51761
2.51683
2.51597
2.51512
2.5143
2.5135
2.42743
2.42693
2.42711
2.42789
2.42938
2.43137
2.43377
2.43652
2.43956
2.44284
2.4463
2.44991
2.4536
2.45736
2.46115
2.46493
2.46869
2.47242
2.47608
2.47968
2.48318
2.48659
2.48988
2.49306
2.49612
2.49904
2.50183
2.50446
2.50693
2.50924
2.51137
2.51331
2.51506
2.51662
2.51797
2.51912
2.52005
2.52077
2.52127
2.52156
2.52163
2.52151
2.52119
2.52066
2.51994
2.51904
2.51794
2.51669
2.51528
2.51375
2.51214
2.51047
2.5089
2.50728
2.4223
2.42197
2.4223
2.42331
2.42501
2.42722
2.42983
2.43279
2.43604
2.43953
2.4432
2.44702
2.45093
2.45491
2.45892
2.46292
2.46693
2.4709
2.47483
2.47869
2.48247
2.48617
2.48976
2.49323
2.49657
2.49978
2.50284
2.50575
2.50847
2.51102
2.51337
2.51551
2.51743
2.51912
2.52057
2.52177
2.52272
2.52341
2.52382
2.52396
2.52384
2.52347
2.52282
2.52191
2.52073
2.51932
2.51762
2.51569
2.51352
2.51117
2.50867
2.50617
2.50374
2.50115
2.4169
2.41674
2.41725
2.41851
2.42042
2.42284
2.42565
2.42882
2.43228
2.43598
2.43987
2.4439
2.44804
2.45222
2.45648
2.46069
2.46497
2.46919
2.47338
2.47752
2.48159
2.48558
2.48948
2.49327
2.49694
2.50048
2.50386
2.50708
2.51011
2.51294
2.51555
2.51793
2.52007
2.52195
2.52355
2.52486
2.52587
2.52657
2.52695
2.52699
2.52672
2.5261
2.52516
2.52386
2.52227
2.52029
2.518
2.51533
2.51239
2.50912
2.50578
2.50211
2.49905
2.49478
2.41117
2.41122
2.41195
2.41346
2.41561
2.41824
2.42127
2.42464
2.42831
2.43221
2.4363
2.44053
2.44488
2.44929
2.45376
2.45825
2.46277
2.46727
2.47175
2.47619
2.48057
2.48488
2.4891
2.49323
2.49724
2.50113
2.50487
2.50844
2.51182
2.51499
2.51792
2.52059
2.523
2.52511
2.52691
2.52838
2.52951
2.53027
2.53065
2.53065
2.53025
2.52944
2.52821
2.52658
2.52452
2.52203
2.5191
2.51572
2.51194
2.50771
2.5035
2.49877
2.49521
2.4894
2.40511
2.40538
2.40641
2.40819
2.41058
2.41344
2.41668
2.42026
2.42412
2.42822
2.4325
2.43693
2.44148
2.4461
2.45081
2.45552
2.46033
2.46508
2.46989
2.47464
2.47937
2.48404
2.48864
2.49314
2.49752
2.50178
2.5059
2.50985
2.51362
2.51717
2.52047
2.52349
2.52622
2.52862
2.53067
2.53236
2.53365
2.53453
2.53496
2.53494
2.53447
2.53348
2.53202
2.53004
2.52756
2.52453
2.52098
2.51684
2.51225
2.50703
2.50196
2.49559
2.49263
2.48493
2.39869
2.39925
2.40062
2.40271
2.40536
2.40845
2.41191
2.4157
2.41975
2.42403
2.42849
2.4331
2.43784
2.44267
2.44758
2.45258
2.4576
2.46269
2.46778
2.47289
2.47797
2.48303
2.48803
2.49294
2.49776
2.50245
2.50699
2.51136
2.51553
2.5195
2.52321
2.52663
2.52973
2.53247
2.53484
2.53679
2.53829
2.53933
2.53987
2.53987
2.53936
2.53824
2.53657
2.53427
2.53138
2.52781
2.52363
2.51876
2.51343
2.50704
2.50127
2.49248
2.48939
2.48197
2.39193
2.39285
2.39461
2.39703
2.39995
2.40329
2.40698
2.41097
2.41521
2.41966
2.42429
2.42907
2.43398
2.43899
2.44413
2.44936
2.45467
2.46004
2.46546
2.47092
2.47639
2.48185
2.48728
2.49264
2.49792
2.50309
2.50811
2.51296
2.5176
2.522
2.52615
2.53001
2.53353
2.53667
2.5394
2.54167
2.54344
2.54469
2.54537
2.54545
2.54493
2.54373
2.54185
2.53928
2.53596
2.53191
2.5271
2.52156
2.51562
2.50788
2.50022
2.49285
2.48402
2.47773
2.38484
2.38622
2.38841
2.39117
2.39439
2.39799
2.40191
2.4061
2.41051
2.41512
2.4199
2.42483
2.42994
2.43506
2.44044
2.4459
2.45147
2.45715
2.46288
2.46875
2.4746
2.48051
2.48639
2.49225
2.49803
2.50371
2.50926
2.51464
2.5198
2.52471
2.52934
2.53365
2.53763
2.54122
2.54436
2.547
2.54909
2.5506
2.55147
2.55166
2.55117
2.5499
2.54787
2.54501
2.54132
2.53673
2.53138
2.5253
2.51825
2.5103
2.50007
2.49106
2.48288
2.47506
2.37754
2.37945
2.38206
2.3852
2.38873
2.3926
2.39674
2.40111
2.40569
2.41043
2.41535
2.42041
2.42562
2.43097
2.43651
2.44219
2.44804
2.454
2.46011
2.46631
2.47263
2.47899
2.48537
2.49174
2.49807
2.50431
2.51043
2.51638
2.52212
2.52761
2.53279
2.53761
2.54206
2.54612
2.54971
2.55277
2.55524
2.55705
2.55815
2.55849
2.55806
2.55677
2.55457
2.55147
2.5474
2.54231
2.53629
2.52945
2.52118
2.51279
2.50402
2.49385
2.48384
2.47382
2.37018
2.3726
2.37569
2.37921
2.38306
2.38718
2.39153
2.39607
2.40078
2.40564
2.41064
2.4158
2.42114
2.42663
2.43235
2.43826
2.44432
2.45061
2.45707
2.46369
2.47044
2.47729
2.4842
2.49113
2.49804
2.50488
2.51162
2.5182
2.52457
2.53068
2.53646
2.54188
2.54687
2.5514
2.55545
2.55897
2.56185
2.56401
2.56538
2.56591
2.56556
2.56426
2.56195
2.55861
2.55419
2.54851
2.54179
2.53419
2.52586
2.51769
2.50751
2.49709
2.48606
2.47457
2.36287
2.36573
2.36941
2.37335
2.37751
2.38186
2.38639
2.39105
2.39585
2.40077
2.40585
2.41107
2.4165
2.42205
2.42793
2.43403
2.44039
2.44695
2.45379
2.46081
2.46804
2.47541
2.48288
2.4904
2.49794
2.50544
2.51285
2.52011
2.52716
2.53394
2.54038
2.54643
2.55202
2.55711
2.56163
2.56557
2.5689
2.57144
2.57311
2.57385
2.5736
2.57232
2.56991
2.56635
2.56154
2.55533
2.54798
2.54055
2.532
2.52274
2.51241
2.50101
2.48885
2.47606
2.35561
2.35883
2.36349
2.36778
2.3722
2.37675
2.38139
2.38612
2.39095
2.39589
2.40097
2.40621
2.41163
2.41733
2.42326
2.42956
2.43613
2.44302
2.45022
2.45767
2.46542
2.47333
2.48139
2.48955
2.49776
2.50597
2.51411
2.52211
2.52989
2.53739
2.54453
2.55126
2.5575
2.56318
2.56825
2.57265
2.57634
2.57927
2.58125
2.58221
2.58209
2.58086
2.57838
2.57459
2.56926
2.56253
2.55579
2.54795
2.53914
2.52931
2.51826
2.50605
2.49279
2.47871
2.34911
2.35098
2.3578
2.36262
2.36731
2.37197
2.37665
2.38137
2.38616
2.39105
2.39606
2.40125
2.40666
2.41236
2.41838
2.4248
2.43161
2.43878
2.44635
2.45429
2.46252
2.471
2.4797
2.48856
2.49749
2.50647
2.5154
2.5242
2.53277
2.54103
2.54892
2.55634
2.56325
2.56957
2.57521
2.58008
2.58414
2.58739
2.58969
2.59088
2.59089
2.58971
2.5872
2.58317
2.57745
2.57114
2.56455
2.55672
2.54764
2.5372
2.52531
2.51204
2.49761
2.48221
2.34166
2.34587
2.35297
2.35743
2.36276
2.36753
2.37218
2.37684
2.38153
2.38628
2.39114
2.3962
2.40152
2.40718
2.41323
2.41978
2.42676
2.43423
2.44217
2.45055
2.45934
2.46842
2.47782
2.48738
2.49709
2.50692
2.5167
2.52637
2.53577
2.54486
2.55351
2.56165
2.56923
2.57618
2.58241
2.58779
2.59222
2.59572
2.59826
2.59967
2.59983
2.59872
2.59622
2.5921
2.58705
2.58091
2.57454
2.56665
2.55711
2.5459
2.53305
2.51873
2.50312
2.48645
2.33756
2.34325
2.34846
2.35159
2.35833
2.36339
2.36799
2.37253
2.37705
2.38159
2.38623
2.39107
2.39623
2.40179
2.40782
2.41442
2.42157
2.4293
2.4376
2.44645
2.45581
2.46557
2.47568
2.48604
2.4966
2.50732
2.51803
2.52868
2.53892
2.5489
2.55832
2.56715
2.57538
2.58294
2.58973
2.5956
2.60043
2.60414
2.60682
2.60841
2.60872
2.60767
2.60518
2.60166
2.59715
2.59189
2.58545
2.57719
2.56704
2.55504
2.54128
2.52591
2.50916
2.49129
2.33387
2.33946
2.34446
2.34855
2.35465
2.35962
2.3641
2.36845
2.37272
2.37697
2.3813
2.38585
2.39076
2.39614
2.4021
2.40872
2.41599
2.42394
2.43263
2.442
2.452
2.46247
2.47334
2.48446
2.49591
2.50754
2.51928
2.53088
2.54215
2.5532
2.56337
2.57284
2.58166
2.58978
2.59708
2.60338
2.60856
2.6125
2.61527
2.61693
2.6174
2.61642
2.61391
2.61035
2.60778
2.60318
2.59656
2.5879
2.57717
2.56441
2.54976
2.53339
2.51558
2.49661
2.33159
2.33685
2.34192
2.34615
2.35158
2.35632
2.36061
2.36466
2.36858
2.37242
2.37631
2.38044
2.38503
2.39019
2.39606
2.40279
2.41013
2.41827
2.42719
2.4369
2.44769
2.45874
2.47014
2.4821
2.49447
2.50722
2.52019
2.53307
2.54552
2.55759
2.56869
2.57879
2.58811
2.59668
2.60439
2.61103
2.61647
2.62058
2.62335
2.62499
2.62575
2.62506
2.62171
2.62162
2.61891
2.61438
2.60762
2.59864
2.58741
2.57396
2.55844
2.54108
2.52228
2.50237
2.33091
2.33564
2.34001
2.34434
2.34905
2.3534
2.35737
2.36096
2.36442
2.36785
2.37128
2.37495
2.37911
2.38389
2.38939
2.39621
2.40333
2.41133
2.42032
2.43014
2.44232
2.45431
2.46699
2.48032
2.49418
2.50831
2.52275
2.53672
2.55011
2.56306
2.5746
2.5851
2.59475
2.60362
2.61158
2.61844
2.62404
2.62822
2.63094
2.63227
2.63322
2.63152
2.63228
2.63188
2.62962
2.62518
2.6184
2.60921
2.59757
2.58351
2.5672
2.54897
2.52929
2.50861
2.33136
2.33528
2.33886
2.34314
2.34718
2.35096
2.35442
2.35749
2.36025
2.36298
2.36556
2.36844
2.37224
2.37634
2.38238
2.38936
2.39698
2.40567
2.41533
2.42578
2.43543
2.44772
2.46135
2.47594
2.49132
2.50693
2.52307
2.539
2.55467
2.56835
2.58093
2.59174
2.6015
2.61048
2.61854
2.62545
2.63105
2.63524
2.63799
2.63913
2.63732
2.64041
2.64188
2.64182
2.63974
2.63543
2.62868
2.61936
2.6074
2.59283
2.57588
2.55696
2.53665
2.51584
2.33134
2.33491
2.33864
2.34219
2.34554
2.34847
2.351
2.35341
2.35588
2.35926
2.36197
2.36466
2.36768
2.37101
2.37364
2.37826
2.38502
2.39343
2.40329
2.4144
2.42641
2.44009
2.45518
2.47144
2.48831
2.50575
2.52367
2.54152
2.55912
2.57437
2.58748
2.5983
2.60802
2.61693
2.62487
2.6317
2.63722
2.64127
2.64362
2.64442
2.64865
2.65006
2.65122
2.65113
2.64917
2.64499
2.63832
2.62895
2.61678
2.60183
2.58441
2.56505
2.54471
2.52441
2.33261
2.33556
2.33882
2.34204
2.3452
2.34839
2.35078
2.35198
2.35233
2.35124
2.35133
2.35207
2.35355
2.35619
2.3591
2.36422
2.37123
2.38011
2.39074
2.40299
2.41672
2.432
2.44876
2.46657
2.48519
2.5044
2.52408
2.5438
2.56334
2.58002
2.59352
2.60412
2.61363
2.6224
2.63023
2.63693
2.64227
2.64587
2.64807
2.6524
2.65566
2.658
2.65938
2.65947
2.65769
2.65369
2.64718
2.63787
2.62564
2.61052
2.59287
2.57336
2.55332
2.53461
2.33603
2.33849
2.34046
2.34175
2.34192
2.3421
2.34225
2.34196
2.34113
2.34028
2.34008
2.33986
2.34039
2.3421
2.3454
2.35091
2.35852
2.36814
2.37976
2.39313
2.40815
2.42481
2.44319
2.46239
2.48257
2.50312
2.52435
2.54567
2.56695
2.5846
2.59808
2.60843
2.61801
2.62677
2.63452
2.64103
2.64599
2.64932
2.65444
2.6587
2.66226
2.6649
2.66641
2.66668
2.66512
2.66136
2.65506
2.64591
2.63372
2.61854
2.60069
2.5809
2.56078
2.54173
2.33307
2.33455
2.33582
2.33649
2.33616
2.33483
2.33273
2.33042
2.32841
2.3271
2.32622
2.32553
2.32579
2.32739
2.33074
2.33633
2.34402
2.35395
2.3662
2.3808
2.39752
2.41665
2.43783
2.45769
2.47925
2.50199
2.52489
2.54721
2.56871
2.58781
2.6004
2.61142
2.62126
2.63009
2.63769
2.64354
2.64826
2.65487
2.65935
2.66421
2.66796
2.67069
2.67224
2.67262
2.6713
2.66782
2.6618
2.65292
2.64094
2.62586
2.60798
2.58811
2.56809
2.54974
2.33122
2.33181
2.33217
2.33213
2.33171
2.33056
2.32904
2.32712
2.32441
2.32163
2.3192
2.31795
2.31776
2.3191
2.32254
2.32843
2.33684
2.3476
2.36076
2.37616
2.39334
2.41194
2.43175
2.45513
2.47758
2.50185
2.52631
2.55048
2.57073
2.58769
2.602
2.61357
2.62375
2.63246
2.63907
2.64426
2.65173
2.65736
2.66396
2.66877
2.67261
2.67541
2.67686
2.67722
2.67613
2.67295
2.66732
2.65891
2.64743
2.63283
2.61537
2.5958
2.57599
2.55838
2.32836
2.32875
2.32876
2.32846
2.32763
2.32617
2.32428
2.32183
2.31872
2.31537
2.31236
2.31092
2.31057
2.31185
2.3151
2.32106
2.33012
2.34194
2.35626
2.37241
2.39006
2.40915
2.43017
2.45306
2.47817
2.50349
2.5295
2.5557
2.57414
2.58955
2.60349
2.61554
2.62588
2.6331
2.63879
2.64804
2.65373
2.66148
2.6677
2.67243
2.67623
2.679
2.68036
2.68059
2.67957
2.67666
2.67145
2.6636
2.65283
2.63899
2.62221
2.60316
2.58335
2.56558
2.32661
2.32622
2.32585
2.32551
2.32469
2.32309
2.32075
2.3177
2.31412
2.31026
2.30656
2.30394
2.30353
2.30473
2.30898
2.31624
2.32627
2.33868
2.35381
2.37066
2.38903
2.40875
2.43174
2.45612
2.48148
2.50893
2.53667
2.55425
2.57448
2.59087
2.60497
2.6173
2.62553
2.62977
2.6412
2.64635
2.65773
2.66508
2.67075
2.6753
2.67892
2.68158
2.68286
2.68286
2.68166
2.67899
2.67421
2.66702
2.65712
2.64434
2.62866
2.61058
2.59116
2.57173
2.32513
2.32424
2.32408
2.32343
2.32225
2.3204
2.31786
2.31467
2.31099
2.30698
2.30303
2.30108
2.30104
2.30279
2.30773
2.31592
2.32652
2.33942
2.35511
2.37263
2.39299
2.41371
2.43773
2.46056
2.48772
2.51247
2.53111
2.55762
2.57684
2.59319
2.60759
2.61726
2.62439
2.63388
2.64099
2.65084
2.65974
2.66794
2.67324
2.6775
2.68086
2.68329
2.68443
2.68437
2.68286
2.68009
2.67568
2.66911
2.66016
2.64861
2.63437
2.61747
2.59823
2.57747
2.32363
2.32294
2.32243
2.32165
2.32045
2.31867
2.31628
2.31333
2.30997
2.30633
2.3026
2.30127
2.30256
2.30521
2.31081
2.32004
2.33225
2.34669
2.36364
2.38177
2.3996
2.42088
2.44769
2.47238
2.49401
2.51619
2.53939
2.56148
2.58093
2.59625
2.60711
2.6165
2.62935
2.63414
2.64528
2.65475
2.6634
2.67052
2.67542
2.6793
2.68228
2.68436
2.68527
2.6851
2.68347
2.68044
2.67607
2.67
2.66182
2.6514
2.63856
2.62335
2.6059
2.58664
2.32226
2.32168
2.32109
2.32036
2.31931
2.31783
2.31587
2.3135
2.31087
2.30815
2.30551
2.30469
2.30749
2.31092
2.31696
2.32673
2.33947
2.35445
2.372
2.39182
2.41233
2.43394
2.4567
2.47743
2.50412
2.52838
2.54981
2.56773
2.58363
2.5949
2.61087
2.62106
2.62957
2.63729
2.65059
2.65911
2.66724
2.67323
2.67756
2.68094
2.68343
2.68505
2.68563
2.68523
2.68355
2.68039
2.67585
2.66996
2.66239
2.65288
2.64117
2.62735
2.6115
2.59392
2.32109
2.32049
2.32004
2.31951
2.31879
2.31781
2.31655
2.31506
2.31348
2.31219
2.31149
2.31223
2.31444
2.31924
2.32692
2.33716
2.35173
2.36718
2.3853
2.40472
2.42459
2.44346
2.46377
2.49197
2.51533
2.53706
2.55526
2.56926
2.58463
2.59934
2.60659
2.62869
2.63449
2.64523
2.65684
2.66443
2.67129
2.67623
2.6799
2.68264
2.68451
2.68555
2.6857
2.68497
2.68308
2.67993
2.67534
2.66939
2.66212
2.65327
2.64246
2.62971
2.61503
2.59853
2.31997
2.31951
2.31922
2.31899
2.31872
2.31836
2.31793
2.31749
2.31723
2.31737
2.31824
2.32035
2.32396
2.32914
2.33767
2.34891
2.36227
2.37755
2.3945
2.4132
2.43304
2.45824
2.48004
2.50132
2.52308
2.54232
2.55949
2.57741
2.58246
2.60198
2.61756
2.63321
2.64376
2.65432
2.66371
2.67051
2.67587
2.67977
2.68264
2.68457
2.68565
2.686
2.68562
2.68435
2.68217
2.67886
2.67433
2.66845
2.66121
2.65266
2.64257
2.63063
2.61679
2.6011
2.31885
2.31853
2.31854
2.3187
2.31895
2.31927
2.3197
2.32032
2.3213
2.32285
2.32523
2.32878
2.33389
2.34083
2.35025
2.3628
2.37672
2.39272
2.41006
2.4285
2.44865
2.47009
2.49113
2.51162
2.5317
2.54973
2.56471
2.58528
2.59202
2.60942
2.63099
2.64465
2.65429
2.66357
2.6711
2.67689
2.68114
2.68404
2.68588
2.6868
2.68698
2.68648
2.68532
2.68343
2.68071
2.6771
2.67248
2.66673
2.65969
2.65129
2.64154
2.63021
2.61702
2.6019
2.31762
2.31758
2.3179
2.31848
2.31929
2.32031
2.32158
2.32321
2.32534
2.32817
2.33189
2.33685
2.34329
2.35156
2.36189
2.37462
2.38921
2.40544
2.4229
2.4413
2.46062
2.4807
2.5009
2.52109
2.54382
2.56419
2.57892
2.59211
2.60809
2.62417
2.64398
2.6555
2.66553
2.67326
2.67949
2.68406
2.68713
2.68896
2.68961
2.68947
2.68854
2.68699
2.68486
2.68213
2.67876
2.67468
2.66979
2.66402
2.65721
2.64916
2.63968
2.62867
2.61592
2.60119
2.31634
2.31654
2.31721
2.31823
2.31958
2.32126
2.32333
2.32588
2.32907
2.33307
2.33809
2.34431
2.35203
2.36145
2.37278
2.38589
2.4005
2.41635
2.43349
2.45164
2.47036
2.49117
2.51438
2.53602
2.55344
2.57305
2.59029
2.60871
2.624
2.63915
2.65597
2.6671
2.67623
2.68323
2.68841
2.69192
2.69386
2.69442
2.69395
2.69252
2.69033
2.68753
2.68422
2.68043
2.67619
2.67144
2.66614
2.6602
2.65348
2.64578
2.63681
2.62622
2.61376
2.59923
2.31499
2.31541
2.31644
2.31788
2.31973
2.32201
2.32478
2.32814
2.33224
2.33726
2.34337
2.3507
2.35939
2.36959
2.38143
2.39481
2.40948
2.42553
2.44315
2.4631
2.48425
2.50561
2.52525
2.54659
2.56751
2.58769
2.6048
2.62334
2.64005
2.65431
2.66818
2.67865
2.68706
2.69339
2.69778
2.70023
2.70107
2.70055
2.69876
2.69593
2.69231
2.68807
2.68337
2.6783
2.67295
2.66735
2.66146
2.65524
2.64853
2.64114
2.63272
2.62281
2.61084
2.59642
2.31361
2.31428
2.31553
2.31734
2.31966
2.32246
2.32582
2.32984
2.3347
2.3405
2.34738
2.35543
2.36479
2.37563
2.38823
2.40276
2.4191
2.43712
2.45616
2.47534
2.49613
2.51803
2.53575
2.55727
2.58168
2.5996
2.62008
2.63734
2.65371
2.66787
2.68011
2.69015
2.69803
2.70378
2.70734
2.70884
2.70876
2.70703
2.70387
2.69958
2.69435
2.68848
2.68217
2.6756
2.66896
2.66226
2.65564
2.64902
2.64231
2.63527
2.62756
2.61854
2.60736
2.59327
2.31178
2.31302
2.31443
2.31665
2.31941
2.32266
2.32648
2.33105
2.33646
2.34284
2.35035
2.35919
2.36951
2.38145
2.39494
2.41011
2.42728
2.44619
2.46636
2.48675
2.5085
2.52861
2.55009
2.57068
2.59329
2.61285
2.6322
2.64988
2.66568
2.67959
2.69154
2.70127
2.70881
2.71405
2.71686
2.71767
2.71662
2.71369
2.70915
2.70328
2.69634
2.68866
2.68052
2.67227
2.66405
2.65614
2.64861
2.64158
2.63492
2.62837
2.62166
2.61396
2.60401
2.59049
2.3096
2.31187
2.3132
2.31574
2.31894
2.32252
2.32668
2.3316
2.33745
2.34442
2.35267
2.36244
2.37387
2.38698
2.40182
2.41839
2.43648
2.45589
2.47627
2.49636
2.51786
2.54006
2.56117
2.58297
2.60401
2.62445
2.64319
2.66063
2.67643
2.69025
2.70213
2.71174
2.7191
2.72393
2.72617
2.72639
2.7244
2.72033
2.71441
2.70689
2.69814
2.6885
2.67836
2.66822
2.6583
2.64899
2.6406
2.63324
2.62665
2.62102
2.61563
2.61007
2.60218
2.58977
2.31172
2.30845
2.31219
2.31439
2.31781
2.32184
2.32635
2.33168
2.33808
2.34582
2.35496
2.36568
2.3781
2.39202
2.40759
2.42522
2.44387
2.46344
2.48371
2.50506
2.52658
2.54886
2.57061
2.59241
2.61345
2.63364
2.65257
2.67006
2.68586
2.6998
2.71174
2.72136
2.72866
2.7332
2.73506
2.73474
2.73194
2.72677
2.71946
2.71032
2.69969
2.68804
2.6758
2.66365
2.65189
2.64118
2.63188
2.62434
2.61834
2.61404
2.61062
2.60804
2.60373
2.59356
2.30695
2.30832
2.31112
2.31128
2.31567
2.32069
2.3256
2.33136
2.33828
2.34668
2.35663
2.36811
2.3814
2.39594
2.41149
2.43034
2.44913
2.46922
2.48994
2.5115
2.53347
2.55576
2.57791
2.59975
2.62097
2.64127
2.66039
2.67804
2.69404
2.70817
2.72023
2.73004
2.73737
2.74174
2.74335
2.74255
2.73902
2.73278
2.72413
2.71344
2.70094
2.68729
2.6729
2.65868
2.64508
2.6331
2.62319
2.6157
2.6109
2.60852
2.608
2.60906
2.6104
2.60554
2.30289
2.30463
2.3072
2.30987
2.31323
2.31807
2.32367
2.33003
2.33761
2.34664
2.3572
2.36911
2.38352
2.39825
2.4148
2.43336
2.45264
2.47319
2.49436
2.51618
2.53846
2.56094
2.58334
2.6054
2.62685
2.64737
2.66672
2.6847
2.70097
2.71537
2.72768
2.73774
2.74518
2.74949
2.75093
2.74972
2.7455
2.73834
2.72841
2.7161
2.70181
2.68597
2.66991
2.65341
2.63854
2.62541
2.61509
2.60852
2.60578
2.60655
2.61019
2.61514
2.62224
2.62936
2.29954
2.30131
2.30374
2.30678
2.31042
2.31525
2.32108
2.32797
2.33612
2.3457
2.35683
2.36932
2.38351
2.39954
2.41651
2.4351
2.45481
2.47557
2.49713
2.51925
2.54179
2.56453
2.58722
2.60954
2.63132
2.65213
2.67187
2.69014
2.70675
2.72151
2.73415
2.74449
2.75212
2.75643
2.7578
2.75624
2.75142
2.74338
2.73232
2.71844
2.70239
2.6847
2.66657
2.64862
2.63219
2.61841
2.60837
2.60327
2.60294
2.60755
2.61552
2.62363
2.62603
2.63405
2.29648
2.29817
2.30053
2.30355
2.30746
2.31232
2.31823
2.32546
2.33404
2.34398
2.35553
2.36856
2.38315
2.3993
2.4168
2.43564
2.45566
2.47667
2.49851
2.52092
2.54374
2.56677
2.58973
2.6125
2.63457
2.65575
2.67582
2.69445
2.7115
2.72664
2.73966
2.75034
2.75823
2.76266
2.76398
2.76213
2.7568
2.74797
2.7358
2.72059
2.7029
2.68357
2.6635
2.64399
2.62636
2.61189
2.60231
2.59877
2.601
2.60922
2.61884
2.6242
2.62275
2.61158
2.29369
2.29526
2.29747
2.30044
2.30431
2.30921
2.31528
2.32271
2.33151
2.34179
2.35357
2.3669
2.38178
2.39819
2.41602
2.43514
2.45538
2.47664
2.49875
2.5214
2.54455
2.56789
2.59123
2.61429
2.63671
2.65831
2.6788
2.69792
2.71543
2.73104
2.74447
2.7555
2.76368
2.76828
2.76958
2.76752
2.76174
2.75221
2.73907
2.7226
2.70345
2.68245
2.66069
2.63956
2.62068
2.60549
2.59618
2.59355
2.59763
2.60597
2.61522
2.61987
2.61483
2.5787
2.56687
2.56778
2.56835
2.56856
2.56849
2.56816
2.56763
2.56693
2.56614
2.5653
2.56445
2.56367
2.563
2.5625
2.56219
2.56215
2.56237
2.56293
2.56378
2.56498
2.56171
2.56275
2.56354
2.56401
2.56419
2.56412
2.56387
2.56349
2.56304
2.56256
2.56211
2.56174
2.56151
2.56146
2.56163
2.56209
2.56283
2.56391
2.56529
2.56696
2.55636
2.5575
2.55842
2.55913
2.55958
2.55976
2.55977
2.55968
2.55955
2.55943
2.55935
2.5594
2.5596
2.56002
2.56068
2.56165
2.56291
2.56452
2.56638
2.56856
2.55081
2.55199
2.553
2.55384
2.55452
2.55498
2.55524
2.55541
2.55556
2.55577
2.55606
2.5565
2.55714
2.55802
2.55918
2.56066
2.56244
2.56455
2.56694
2.56962
2.54504
2.5462
2.54723
2.54813
2.54892
2.54961
2.55015
2.55056
2.55097
2.55146
2.55209
2.55293
2.55399
2.55533
2.55697
2.55894
2.56125
2.5639
2.56679
2.57
2.53906
2.5401
2.54106
2.54195
2.54277
2.54354
2.54429
2.54498
2.54561
2.54635
2.54729
2.54851
2.54996
2.55169
2.55382
2.55629
2.55916
2.5623
2.56579
2.56951
2.53284
2.53366
2.53444
2.53521
2.53597
2.53671
2.53751
2.5384
2.53929
2.54028
2.54148
2.54298
2.54475
2.54691
2.54944
2.55244
2.55582
2.55952
2.56355
2.56788
2.52638
2.52687
2.52735
2.52788
2.52843
2.52904
2.52976
2.53065
2.53171
2.53299
2.53439
2.5361
2.53816
2.54057
2.54353
2.54702
2.55098
2.55526
2.55993
2.56489
2.51971
2.51973
2.51978
2.51996
2.52015
2.52043
2.52095
2.5217
2.52275
2.52423
2.52576
2.5277
2.52977
2.53236
2.53539
2.53968
2.54417
2.54907
2.55449
2.56028
2.51288
2.51232
2.51178
2.51152
2.51117
2.51095
2.51114
2.51153
2.51242
2.51378
2.51565
2.51741
2.51928
2.52098
2.52482
2.5299
2.53525
2.5409
2.54705
2.55388
2.50601
2.50482
2.50357
2.50264
2.50149
2.50109
2.5008
2.50074
2.50124
2.50217
2.50375
2.50627
2.50576
2.5069
2.5104
2.51639
2.52452
2.53091
2.53872
2.54655
2.49962
2.49726
2.49618
2.49334
2.49178
2.4907
2.49033
2.49003
2.48954
2.48974
2.49062
2.49139
2.49397
2.49127
2.49228
2.50292
2.50879
2.51708
2.52602
2.53598
2.49342
2.48889
2.48962
2.48462
2.48055
2.47805
2.47684
2.47664
2.47685
2.4768
2.47656
2.47679
2.47471
2.47411
2.47399
2.47558
2.50018
2.5007
2.51213
2.52131
2.48767
2.48151
2.47914
2.4729
2.46916
2.46783
2.46594
2.4636
2.46143
2.45953
2.45799
2.45607
2.45611
2.45367
2.45532
2.45409
2.4604
2.48225
2.49411
2.50946
2.48002
2.47399
2.47002
2.46495
2.45979
2.45544
2.45151
2.44789
2.44468
2.44181
2.43949
2.43672
2.43567
2.43381
2.4326
2.43302
2.43828
2.46138
2.46514
2.4854
2.47615
2.46879
2.46176
2.45529
2.44895
2.44318
2.43799
2.43337
2.42909
2.42549
2.42163
2.41793
2.41463
2.41133
2.40933
2.41023
2.41548
2.42844
2.44525
2.45081
2.47033
2.46282
2.45451
2.44647
2.43879
2.4317
2.42515
2.4192
2.41409
2.40871
2.40362
2.39853
2.39348
2.38881
2.38587
2.38599
2.38903
2.39602
2.4118
2.42546
2.46597
2.45659
2.44726
2.43814
2.42936
2.42085
2.41295
2.40581
2.39897
2.39244
2.38605
2.37971
2.3734
2.36726
2.36241
2.36098
2.36476
2.37056
2.3829
2.40099
2.46338
2.45274
2.44209
2.43162
2.4211
2.41112
2.4017
2.39286
2.3846
2.37684
2.36938
2.36194
2.35456
2.34694
2.34044
2.33745
2.33973
2.34643
2.36216
2.37477
2.46264
2.45039
2.4381
2.42593
2.4139
2.4022
2.39111
2.38073
2.37113
2.36222
2.35378
2.34551
2.33742
2.32844
2.32041
2.31549
2.31682
2.32365
2.33781
2.35802
2.46277
2.44906
2.43513
2.42123
2.40756
2.3942
2.38144
2.36958
2.35898
2.34909
2.33959
2.33052
2.3225
2.31166
2.30311
2.29622
2.29714
2.30397
2.31835
2.33928
2.46398
2.44876
2.43321
2.4176
2.40215
2.38717
2.37302
2.35977
2.34876
2.33803
2.32755
2.31735
2.30925
2.2967
2.2872
2.27997
2.28069
2.28811
2.30329
2.32552
2.46608
2.44935
2.43225
2.41494
2.3978
2.38149
2.3667
2.35139
2.33714
2.32559
2.31502
2.30475
2.2983
2.28403
2.273
2.26691
2.26803
2.27666
2.29318
2.31644
2.46896
2.45084
2.43222
2.41368
2.3948
2.37715
2.35821
2.34229
2.32831
2.31627
2.30578
2.29545
2.2875
2.27311
2.26189
2.25711
2.25953
2.27019
2.28842
2.31309
2.47258
2.45324
2.43341
2.41447
2.39316
2.37192
2.35272
2.3358
2.32079
2.30799
2.29708
2.28731
2.27695
2.26383
2.2536
2.25189
2.25709
2.26966
2.28905
2.31503
2.47685
2.45666
2.43501
2.413
2.39149
2.36965
2.3492
2.33051
2.31463
2.30143
2.29042
2.28081
2.27032
2.25906
2.25121
2.25215
2.26033
2.27486
2.29581
2.32146
2.48196
2.4622
2.44024
2.41618
2.39258
2.36914
2.34714
2.32763
2.31136
2.29853
2.28828
2.27832
2.26807
2.25937
2.25584
2.25882
2.26872
2.28452
2.3059
2.33239
2.48777
2.46587
2.44446
2.41998
2.39471
2.36937
2.34736
2.32879
2.31374
2.30121
2.29042
2.28052
2.27144
2.26498
2.26499
2.26974
2.28097
2.29787
2.32001
2.34702
2.49466
2.47307
2.4497
2.42481
2.39831
2.37542
2.35454
2.33545
2.32036
2.30812
2.29729
2.28849
2.28068
2.27589
2.27777
2.28467
2.2971
2.31484
2.33669
2.36259
2.50377
2.48144
2.45777
2.43336
2.40741
2.3864
2.36316
2.34498
2.3307
2.31969
2.30855
2.3013
2.29517
2.29139
2.29437
2.30351
2.31601
2.33336
2.35312
2.37665
2.51149
2.48955
2.46638
2.44157
2.41813
2.39537
2.37413
2.35732
2.344
2.33395
2.32306
2.31678
2.31245
2.3107
2.31341
2.32161
2.33446
2.35134
2.37212
2.39401
2.51922
2.49858
2.47584
2.45172
2.42906
2.40712
2.38757
2.37153
2.35883
2.35021
2.33728
2.33227
2.33056
2.3298
2.33399
2.34205
2.35466
2.37043
2.38935
2.4101
2.52737
2.50724
2.48609
2.46435
2.43963
2.41959
2.40184
2.38636
2.37357
2.36375
2.35463
2.3493
2.34767
2.34832
2.35261
2.36142
2.37353
2.3884
2.40675
2.42531
2.53587
2.51253
2.49523
2.4741
2.45357
2.43157
2.41577
2.40128
2.38827
2.37844
2.37237
2.36393
2.36399
2.36573
2.37048
2.37924
2.39096
2.40541
2.42222
2.44031
2.54555
2.51819
2.50439
2.48539
2.46392
2.44338
2.42858
2.41731
2.40269
2.39215
2.38651
2.37943
2.37906
2.3822
2.38656
2.39601
2.40721
2.42098
2.43689
2.45379
2.55427
2.52176
2.51398
2.49669
2.47338
2.45678
2.43968
2.42643
2.4141
2.4044
2.39855
2.39465
2.39314
2.39588
2.40186
2.41046
2.42183
2.43489
2.45002
2.46605
2.55617
2.53368
2.52216
2.50466
2.48215
2.46629
2.45068
2.43793
2.42312
2.4154
2.40987
2.40672
2.40598
2.40893
2.41499
2.42357
2.43451
2.44743
2.46178
2.47709
2.56617
2.54489
2.52419
2.50538
2.48831
2.47879
2.45775
2.44753
2.43005
2.42439
2.42078
2.41742
2.41685
2.42047
2.42686
2.43522
2.44597
2.45885
2.47225
2.48668
2.57497
2.55492
2.53453
2.51392
2.49473
2.47664
2.46001
2.44993
2.4386
2.42897
2.42751
2.42625
2.42436
2.42965
2.43673
2.44415
2.45525
2.46764
2.48032
2.49392
2.58049
2.56111
2.5413
2.52171
2.50297
2.48529
2.46937
2.45533
2.44391
2.43577
2.43131
2.42978
2.43172
2.43465
2.44216
2.45224
2.46048
2.47256
2.48717
2.50187