/*--------------------------------*- C++ -*----------------------------------*\
  =========                 |
  \\      /  F ield         | OpenFOAM: The Open Source CFD Toolbox
   \\    /   O peration     | Website:  https://openfoam.org
    \\  /    A nd           | Version:  10
     \\/     M anipulation  |
\*---------------------------------------------------------------------------*/
FoamFile
{
    format      ascii;
    class       surfaceScalarField;
    location    "0.750724";
    object      phi;
}
// * * * * * * * * * * * * * * * * * * * * * * * * * * * * * * * * * * * * * //

dimensions      [1 0 -1 0 0 0 0];

internalField   nonuniform List<scalar> 
31672
(
0.000424496
-5.85069e-05
0.000420047
-5.86731e-05
0.000415362
-5.89137e-05
0.000410475
-5.92473e-05
0.000405396
-5.96705e-05
0.000400174
-6.019e-05
0.000394809
-6.08135e-05
0.000389353
-6.15106e-05
0.000383797
-6.22877e-05
0.00037821
-6.31277e-05
0.000372545
-6.40113e-05
0.000366885
-6.49356e-05
0.000361246
-6.58864e-05
0.000355656
-6.68552e-05
0.000350137
-6.78263e-05
0.000344713
-6.87932e-05
0.000339407
-6.97497e-05
0.000334233
-7.06847e-05
0.000329212
-7.15918e-05
0.000324359
-7.24664e-05
0.000319687
-7.33008e-05
0.000315216
-7.40933e-05
0.000310954
-7.48387e-05
0.000306915
-7.55333e-05
0.000303106
-7.61732e-05
0.000299536
-7.6754e-05
0.000296218
-7.7271e-05
0.00029316
-7.77199e-05
0.000290374
-7.80937e-05
0.000287869
-7.83874e-05
0.000285654
-7.85903e-05
0.000283742
-7.86953e-05
0.000282137
-7.86898e-05
0.000280859
-7.85632e-05
0.000279915
-7.8306e-05
0.000279309
-7.78926e-05
0.000279074
-7.73192e-05
0.000279212
-7.65628e-05
0.000279739
-7.56074e-05
0.000280673
-7.44319e-05
0.000282023
-7.30204e-05
0.000283807
-7.13491e-05
0.000286033
-6.9396e-05
0.000288712
-6.71388e-05
0.000291849
-6.45572e-05
0.000295448
-6.16257e-05
0.000299512
-5.8325e-05
0.00030403
-5.4628e-05
0.000309
-5.05176e-05
0.000314399
-4.59682e-05
0.000320208
-4.09614e-05
0.000326398
-3.54789e-05
0.000332927
-2.95034e-05
-2.30224e-05
0.000339755
0.000424054
-5.34394e-05
0.000419517
-5.33675e-05
0.000414755
-5.33845e-05
0.000409801
-5.35107e-05
0.000404663
-5.37386e-05
0.000399379
-5.40862e-05
0.000393976
-5.45579e-05
0.000388483
-5.51272e-05
0.000382893
-5.57914e-05
0.000377243
-5.65396e-05
0.000371565
-5.7362e-05
0.000365892
-5.82466e-05
0.000360249
-5.91808e-05
0.000354661
-6.01534e-05
0.000349161
-6.1156e-05
0.000343764
-6.2174e-05
0.000338491
-6.31989e-05
0.000333356
-6.42256e-05
0.000328378
-6.52444e-05
0.00032357
-6.62498e-05
0.000318947
-6.72355e-05
0.000314525
-6.81985e-05
0.000310314
-6.91335e-05
0.000306323
-7.00368e-05
0.000302567
-7.09047e-05
0.000299054
-7.17328e-05
0.000295796
-7.25162e-05
0.000292802
-7.32512e-05
0.000290085
-7.393e-05
0.000287654
-7.4549e-05
0.00028552
-7.50969e-05
0.000283699
-7.55681e-05
0.000282197
-7.59494e-05
0.000281031
-7.62279e-05
0.00028021
-7.63975e-05
0.00027975
-7.64336e-05
0.00027967
-7.63262e-05
0.000279985
-7.60566e-05
0.000280706
-7.56028e-05
0.00028185
-7.4949e-05
0.000283436
-7.40688e-05
0.000285474
-7.29394e-05
0.000287975
-7.15365e-05
0.000290949
-6.9834e-05
0.000294404
-6.78068e-05
0.000298348
-6.54284e-05
0.000302777
-6.26701e-05
0.000307692
-5.95053e-05
0.000313077
-5.59076e-05
0.000318912
-5.18473e-05
0.00032518
-4.73012e-05
0.000331843
-4.2242e-05
0.000338864
-3.66494e-05
-3.05014e-05
0.000346191
0.000423896
-4.82549e-05
0.000419275
-4.79462e-05
0.000414424
-4.77462e-05
0.000409357
-4.7668e-05
0.000404119
-4.77e-05
0.000398749
-4.7901e-05
0.000393264
-4.82214e-05
0.000387664
-4.86645e-05
0.000382002
-4.92305e-05
0.000376302
-4.99005e-05
0.000370583
-5.06692e-05
0.000364883
-5.15209e-05
0.000359226
-5.24448e-05
0.000353638
-5.34253e-05
0.00034814
-5.44566e-05
0.000342751
-5.55229e-05
0.000337493
-5.66173e-05
0.000332381
-5.77297e-05
0.000327425
-5.88553e-05
0.000322642
-5.99845e-05
0.000318047
-6.11159e-05
0.000313654
-6.22412e-05
0.000309474
-6.33584e-05
0.000305522
-6.44632e-05
0.000301806
-6.55519e-05
0.000298334
-6.66204e-05
0.00029512
-6.76642e-05
0.000292172
-6.86803e-05
0.000289505
-6.96615e-05
0.000287131
-7.06042e-05
0.000285062
-7.14988e-05
0.00028331
-7.23385e-05
0.000281887
-7.31121e-05
0.000280817
-7.38083e-05
0.000280104
-7.44153e-05
0.000279768
-7.49138e-05
0.000279831
-7.52971e-05
0.000280304
-7.55307e-05
0.000281207
-7.56119e-05
0.000282551
-7.55041e-05
0.000284359
-7.51897e-05
0.000286644
-7.46399e-05
0.000289414
-7.3828e-05
0.000292684
-7.27243e-05
0.000296465
-7.13014e-05
0.000300755
-6.95249e-05
0.000305558
-6.73628e-05
0.000310871
-6.4785e-05
0.000316681
-6.17553e-05
0.000322975
-5.82435e-05
0.000329718
-5.42132e-05
0.000336892
-4.96348e-05
0.000344451
-4.44782e-05
-3.87118e-05
0.000352332
0.000423884
-4.29328e-05
0.000419178
-4.23894e-05
0.000414235
-4.19683e-05
0.000409074
-4.16877e-05
0.000403738
-4.15573e-05
0.000398232
-4.15888e-05
0.0003926
-4.17769e-05
0.000386896
-4.21129e-05
0.000381146
-4.25876e-05
0.000375379
-4.31914e-05
0.000369615
-4.39127e-05
0.000363879
-4.47388e-05
0.00035819
-4.56552e-05
0.000352575
-4.6649e-05
0.000347056
-4.7709e-05
0.000341653
-4.88249e-05
0.000336388
-4.9986e-05
0.000331275
-5.11839e-05
0.000326325
-5.24102e-05
0.000321554
-5.36601e-05
0.000316975
-5.49288e-05
0.000312598
-5.62105e-05
0.000308442
-5.75023e-05
0.00030451
-5.88015e-05
0.000300814
-6.01033e-05
0.000297365
-6.14052e-05
0.000294175
-6.2704e-05
0.000291257
-6.39958e-05
0.000288622
-6.52762e-05
0.000286284
-6.65406e-05
0.000284258
-6.77823e-05
0.000282558
-6.89933e-05
0.000281199
-7.01656e-05
0.000280201
-7.12866e-05
0.000279575
-7.23449e-05
0.000279343
-7.33223e-05
0.000279525
-7.42041e-05
0.000280138
-7.49748e-05
0.000281202
-7.56093e-05
0.000282731
-7.60847e-05
0.000284745
-7.63666e-05
0.000287263
-7.64338e-05
0.000290292
-7.62552e-05
0.00029385
-7.57975e-05
0.000297947
-7.50272e-05
0.000302584
-7.3905e-05
0.000307766
-7.23963e-05
0.000313491
-7.04641e-05
0.00031975
-6.80674e-05
0.000326523
-6.51656e-05
0.000333788
-6.17178e-05
0.000341506
-5.76843e-05
0.000349635
-5.3023e-05
-4.76989e-05
0.000358134
0.000424117
-3.74531e-05
0.000419272
-3.66683e-05
0.000414184
-3.60266e-05
0.000408882
-3.5554e-05
0.000403406
-3.5255e-05
0.000397774
-3.51438e-05
0.000392043
-3.52177e-05
0.000386227
-3.54401e-05
0.000380381
-3.58463e-05
0.000374516
-3.63906e-05
0.000368661
-3.70753e-05
0.000362846
-3.78828e-05
0.000357097
-3.87982e-05
0.000351437
-3.9809e-05
0.000345886
-4.09028e-05
0.000340464
-4.20679e-05
0.000335182
-4.32956e-05
0.000330056
-4.45749e-05
0.000325099
-4.59006e-05
0.000320325
-4.72657e-05
0.000315745
-4.86652e-05
0.000311372
-5.0097e-05
0.000307216
-5.15562e-05
0.000303291
-5.30416e-05
0.000299601
-5.45495e-05
0.000296159
-5.60781e-05
0.000292976
-5.76254e-05
0.000290064
-5.9188e-05
0.000287439
-6.07635e-05
0.000285116
-6.23477e-05
0.00028311
-6.39363e-05
0.000281439
-6.55209e-05
0.00028012
-6.70963e-05
0.00027917
-6.86493e-05
0.000278607
-7.01694e-05
0.000278455
-7.164e-05
0.000278733
-7.30464e-05
0.000279463
-7.43655e-05
0.000280668
-7.55841e-05
0.000282358
-7.66682e-05
0.000284559
-7.75834e-05
0.000287289
-7.83066e-05
0.000290569
-7.88019e-05
0.000294408
-7.90382e-05
0.000298809
-7.89715e-05
0.000303783
-7.85609e-05
0.00030935
-7.77656e-05
0.0003155
-7.65443e-05
0.00032222
-7.48445e-05
0.000329497
-7.26231e-05
0.000337305
-6.98288e-05
0.000345607
-6.64097e-05
0.00035437
-6.23209e-05
-5.75085e-05
0.00036354
0.000424509
-3.17966e-05
0.000419502
-3.07649e-05
0.00041425
-2.99092e-05
0.00040878
-2.92401e-05
0.000403164
-2.8783e-05
0.000397407
-2.85432e-05
0.000391521
-2.84952e-05
0.000385601
-2.86398e-05
0.000379641
-2.89848e-05
0.000373668
-2.94795e-05
0.000367721
-3.01376e-05
0.000361822
-3.0935e-05
0.000355999
-3.18574e-05
0.000350275
-3.28909e-05
0.00034467
-3.40217e-05
0.000339202
-3.52389e-05
0.000333883
-3.6532e-05
0.000328727
-3.78928e-05
0.000323749
-3.9314e-05
0.000318957
-4.079e-05
0.000314363
-4.23167e-05
0.000309978
-4.38902e-05
0.000305811
-4.55114e-05
0.000301871
-4.7175e-05
0.000298169
-4.88817e-05
0.000294716
-5.06294e-05
0.000291521
-5.2418e-05
0.000288599
-5.42457e-05
0.000285964
-5.61115e-05
0.000283635
-5.80127e-05
0.000281627
-5.99469e-05
0.000279959
-6.1907e-05
0.000278651
-6.38885e-05
0.000277723
-6.58804e-05
0.000277195
-6.78722e-05
0.000277095
-6.98481e-05
0.000277437
-7.17951e-05
0.000278256
-7.3688e-05
0.00027957
-7.5514e-05
0.000281397
-7.72293e-05
0.000283759
-7.88171e-05
0.000286681
-8.02355e-05
0.000290184
-8.14493e-05
0.000294286
-8.24272e-05
0.000298996
-8.3117e-05
0.000304321
-8.34768e-05
0.000310268
-8.34599e-05
0.000316837
-8.30137e-05
0.000324025
-8.20849e-05
0.000331819
-8.06197e-05
0.000340189
-7.85578e-05
0.000349112
-7.5835e-05
0.000358553
-7.23994e-05
-6.81779e-05
0.000368438
0.000425114
-2.59349e-05
0.000419944
-2.46541e-05
0.000414517
-2.35828e-05
0.00040887
-2.27242e-05
0.000403074
-2.21209e-05
0.000397133
-2.17547e-05
0.000391098
-2.16157e-05
0.000385021
-2.16901e-05
0.000378903
-2.19676e-05
0.000372801
-2.24373e-05
0.000366733
-2.30799e-05
0.000360729
-2.3879e-05
0.000354819
-2.4818e-05
0.00034902
-2.58816e-05
0.000343354
-2.70556e-05
0.000337835
-2.83282e-05
0.000332474
-2.96888e-05
0.000327285
-3.11299e-05
0.000322275
-3.26446e-05
0.000317454
-3.42279e-05
0.000312832
-3.5876e-05
0.00030842
-3.75872e-05
0.000304227
-3.93599e-05
0.00030026
-4.11948e-05
0.000296529
-4.30916e-05
0.000293043
-4.50503e-05
0.000289816
-4.70725e-05
0.000286861
-4.91584e-05
0.000284195
-5.13084e-05
0.000281836
-5.35224e-05
0.000279801
-5.57986e-05
0.000278111
-5.81337e-05
0.000276788
-6.05231e-05
0.000275851
-6.29589e-05
0.000275326
-6.54302e-05
0.000275241
-6.79236e-05
0.000275616
-7.04257e-05
0.00027649
-7.29143e-05
0.000277878
-7.53707e-05
0.00027981
-7.77523e-05
0.000282318
-8.00422e-05
0.000285408
-8.21982e-05
0.000289113
-8.41804e-05
0.000293457
-8.59473e-05
0.000298442
-8.74437e-05
0.000304088
-8.86338e-05
0.000310409
-8.94543e-05
0.000317409
-8.98603e-05
0.000325077
-8.97773e-05
0.00033341
-8.91531e-05
0.000342374
-8.79108e-05
0.000351937
-8.5967e-05
0.000362082
-8.32732e-05
-7.97281e-05
0.000372721
0.000425927
-1.98302e-05
0.000420537
-1.82977e-05
0.000414906
-1.70168e-05
0.000409051
-1.598e-05
0.000403064
-1.52313e-05
0.000396905
-1.47672e-05
0.000390714
-1.45316e-05
0.000384445
-1.45608e-05
0.000378162
-1.47879e-05
0.000371911
-1.52486e-05
0.000365707
-1.58901e-05
0.000359592
-1.67044e-05
0.000353586
-1.76711e-05
0.000347709
-1.87738e-05
0.000341976
-1.99976e-05
0.000336396
-2.13296e-05
0.000330981
-2.27596e-05
0.000325742
-2.42806e-05
0.000320688
-2.58864e-05
0.000315826
-2.75729e-05
0.000311166
-2.93372e-05
0.000306714
-3.11788e-05
0.000302478
-3.30967e-05
0.000298467
-3.50938e-05
0.00029469
-3.71715e-05
0.000291158
-3.93323e-05
0.000287881
-4.15789e-05
0.000284872
-4.39143e-05
0.00028215
-4.63407e-05
0.000279731
-4.88606e-05
0.000277637
-5.14741e-05
0.00027589
-5.41809e-05
0.000274514
-5.69778e-05
0.000273531
-5.986e-05
0.00027297
-6.28178e-05
0.000272865
-6.58399e-05
0.00027324
-6.8912e-05
0.000274128
-7.20155e-05
0.000275556
-7.51246e-05
0.00027756
-7.82097e-05
0.000280165
-8.12277e-05
0.000283406
-8.41615e-05
0.000287285
-8.6943e-05
0.00029185
-8.95523e-05
0.000297084
-9.19173e-05
0.000303051
-9.40084e-05
0.000309721
-9.57342e-05
0.000317151
-9.70684e-05
0.000325283
-9.79067e-05
0.000334168
-9.82073e-05
0.000343724
-9.78647e-05
0.000353929
-9.68168e-05
0.000364793
-9.49272e-05
-9.21227e-05
0.000376183
0.000426897
-1.34501e-05
0.000421284
-1.16655e-05
0.000415408
-1.01645e-05
0.000409337
-8.97077e-06
0.00040308
-8.11059e-06
0.0003967
-7.52257e-06
0.000390278
-7.24646e-06
0.000383813
-7.21803e-06
0.000377372
-7.442e-06
0.000370976
-7.89924e-06
0.000364647
-8.55791e-06
0.000358426
-9.40054e-06
0.000352323
-1.04073e-05
0.000346359
-1.15588e-05
0.000340543
-1.28399e-05
0.000334888
-1.42361e-05
0.000329404
-1.5738e-05
0.000324104
-1.73398e-05
0.000318994
-1.90349e-05
0.00031408
-2.08213e-05
0.000309369
-2.26958e-05
0.000304864
-2.466e-05
0.000300573
-2.67153e-05
0.000296505
-2.8864e-05
0.000292666
-3.11126e-05
0.000289067
-3.34639e-05
0.000285716
-3.59252e-05
0.000282629
-3.84993e-05
0.000279823
-4.11921e-05
0.000277317
-4.40086e-05
0.000275132
-4.69525e-05
0.000273292
-5.00255e-05
0.000271825
-5.32283e-05
0.00027076
-5.65578e-05
0.000270127
-6.00079e-05
0.000269958
-6.35672e-05
0.000270293
-6.72232e-05
0.000271153
-7.09599e-05
0.000272583
-7.47446e-05
0.00027462
-7.85545e-05
0.000277276
-8.23472e-05
0.000280612
-8.60905e-05
0.000284612
-8.97272e-05
0.000289378
-9.3233e-05
0.000294838
-9.65213e-05
0.000301115
-9.95685e-05
0.000308113
-0.000102272
0.000315988
-0.000104608
0.000324583
-0.000106455
0.000334008
-0.000107771
0.00034414
-0.000108409
0.000355018
-0.000108282
0.000366461
-0.000107266
-0.000105231
0.000378433
0.000428149
-6.75507e-06
0.00042223
-4.71577e-06
0.000416065
-3.00555e-06
0.000409685
-1.66216e-06
0.000403193
-6.86504e-07
0.000396579
-3.62192e-08
0.000389912
2.97733e-07
0.000383226
3.32344e-07
0.000376574
1.04946e-07
0.000369984
-3.71108e-07
0.000363504
-1.0661e-06
0.000357149
-1.95579e-06
0.000350934
-3.01761e-06
0.000344869
-4.2297e-06
0.000338965
-5.57826e-06
0.000333237
-7.04626e-06
0.000327696
-8.62261e-06
0.000322344
-1.03081e-05
0.000317181
-1.20908e-05
0.000312212
-1.39739e-05
0.000307438
-1.59508e-05
0.00030287
-1.803e-05
0.000298511
-2.02129e-05
0.000294372
-2.2504e-05
0.000290455
-2.49117e-05
0.00028677
-2.74415e-05
0.000283328
-3.01021e-05
0.000280138
-3.2901e-05
0.00027722
-3.5847e-05
0.000274594
-3.89482e-05
0.000272283
-4.22118e-05
0.000270315
-4.56434e-05
0.000268721
-4.92472e-05
0.000267531
-5.30226e-05
0.000266778
-5.69674e-05
0.000266501
-6.10708e-05
0.000266743
-6.53239e-05
0.00026753
-6.9706e-05
0.00026891
-7.41933e-05
0.000270931
-7.87568e-05
0.000273594
-8.33526e-05
0.00027699
-8.7949e-05
0.000281093
-9.2499e-05
0.000286005
-9.69342e-05
0.000291665
-0.000101215
0.000298211
-0.000105273
0.000305526
-0.000109035
0.000313774
-0.000112438
0.000322795
-0.000115384
0.000332744
-0.000117748
0.000343395
-0.000119444
0.000354793
-0.000120242
0.000366685
-0.000120099
-0.000118656
0.00037901
0.000429521
3.12136e-07
0.000423297
2.59995e-06
0.000416817
4.49644e-06
0.0004101
5.97107e-06
0.00040328
7.04698e-06
0.000396375
7.73745e-06
0.000389441
8.09789e-06
0.000382543
8.12123e-06
0.000375702
7.86109e-06
0.000368951
7.33775e-06
0.00036232
6.58355e-06
0.000355821
5.62601e-06
0.000349476
4.49321e-06
0.000343293
3.20838e-06
0.000337307
1.78333e-06
0.000331523
2.41337e-07
0.000325927
-1.41286e-06
0.000320519
-3.18433e-06
0.000315288
-5.04996e-06
0.000310245
-7.02845e-06
0.000305395
-9.09861e-06
0.000300754
-1.12852e-05
0.000296323
-1.35855e-05
0.000292105
-1.60074e-05
0.000288096
-1.85602e-05
0.000284306
-2.12537e-05
0.000280744
-2.40979e-05
0.000277422
-2.7105e-05
0.000274359
-3.02876e-05
0.000271579
-3.36576e-05
0.000269106
-3.7227e-05
0.00026697
-4.10057e-05
0.000265201
-4.50015e-05
0.000263838
-4.92185e-05
0.000262915
-5.36575e-05
0.000262479
-5.83108e-05
0.00026257
-6.31713e-05
0.000263235
-6.82153e-05
0.00026452
-7.34257e-05
0.000266448
-7.87739e-05
0.00026908
-8.42041e-05
0.000272481
-8.97037e-05
0.00027666
-9.51819e-05
0.00028166
-0.000100632
0.000287475
-0.000105934
0.000294236
-0.000111095
0.000301859
-0.000115969
0.000310454
-0.000120542
0.000319925
-0.000124617
0.000330275
-0.000128111
0.000341307
-0.000130791
0.000352904
-0.000132425
0.000364853
-0.000132981
-0.000131793
0.000376904
0.000431169
7.78907e-06
0.000424555
1.03268e-05
0.0004177
1.2399e-05
0.000410632
1.39757e-05
0.000403452
1.51244e-05
0.000396231
1.58323e-05
0.000389025
1.61741e-05
0.000381855
1.61608e-05
0.000374788
1.58391e-05
0.000367825
1.52426e-05
0.000361018
1.44028e-05
0.00035436
1.33572e-05
0.00034789
1.21277e-05
0.000341634
1.07589e-05
0.000335571
9.23648e-06
0.000329677
7.62962e-06
0.00032399
5.87498e-06
0.000318494
4.02648e-06
0.000313191
2.07486e-06
0.000308083
1.3253e-08
0.000303182
-2.14887e-06
0.000298493
-4.43489e-06
0.000294004
-6.84017e-06
0.000289707
-9.37487e-06
0.000285597
-1.20545e-05
0.000281678
-1.4891e-05
0.000277964
-1.78983e-05
0.000274475
-2.10933e-05
0.000271232
-2.44925e-05
0.000268258
-2.8113e-05
0.000265583
-3.19713e-05
0.000263235
-3.60825e-05
0.000261249
-4.04593e-05
0.000259666
-4.51102e-05
0.000258523
-5.00406e-05
0.000257873
-5.52463e-05
0.000257765
-6.07214e-05
0.000258242
-6.64445e-05
0.000259359
-7.23977e-05
0.000261175
-7.85489e-05
0.000263722
-8.48736e-05
0.000267087
-9.12769e-05
0.000271237
-9.77787e-05
0.000276295
-0.00010424
0.000282212
-0.000110697
0.000289168
-0.00011695
0.000297023
-0.00012307
0.000305925
-0.000128768
0.000315688
-0.000134082
0.000326234
-0.000138531
0.000337401
-0.000142272
0.000348677
-0.000144162
0.000360267
-0.000145432
-0.000143541
0.000370915
0.000433005
1.57483e-05
0.000425945
1.85174e-05
0.000418639
2.07481e-05
0.000411155
2.24275e-05
0.000403598
2.35863e-05
0.000396021
2.42831e-05
0.0003885
2.45701e-05
0.000381072
2.4479e-05
0.00037376
2.40593e-05
0.000366601
2.33518e-05
0.000359605
2.23989e-05
0.000352827
2.12355e-05
0.000346233
1.99023e-05
0.000339854
1.8408e-05
0.000333744
1.68109e-05
0.000327731
1.50589e-05
0.000321992
1.32433e-05
0.000316429
1.13021e-05
0.000311099
9.27665e-06
0.000305914
7.14313e-06
0.000300956
4.89518e-06
0.000296155
2.52611e-06
0.00029154
4.001e-08
0.000287121
-2.59221e-06
0.000282891
-5.38486e-06
0.00027884
-8.34636e-06
0.000274972
-1.14949e-05
0.000271305
-1.48549e-05
0.000267858
-1.84467e-05
0.000264663
-2.22939e-05
0.000261746
-2.64188e-05
0.000259141
-3.08421e-05
0.000256884
-3.55828e-05
0.000255023
-4.06553e-05
0.000253604
-4.60698e-05
0.000252677
-5.18267e-05
0.000252296
-5.79215e-05
0.000252532
-6.43358e-05
0.000253429
-7.1051e-05
0.000255039
-7.80418e-05
0.000257438
-8.52606e-05
0.000260651
-9.2665e-05
0.000264783
-0.000100162
0.0002698
-0.000107773
0.00027586
-0.000115343
0.000282865
-0.00012286
0.000290981
-0.0001302
0.000299994
-0.000137163
0.000310022
-0.000143598
0.000320425
-0.000148834
0.000331466
-0.000153332
0.000341748
-0.000155079
0.000352418
-0.000157042
-0.000154069
0.000361134
0.000434852
2.42485e-05
0.000427303
2.7259e-05
0.000419529
2.95998e-05
0.000411615
3.13243e-05
0.000403642
3.24746e-05
0.000395704
3.31205e-05
0.000387853
3.33082e-05
0.000380125
3.30921e-05
0.00037258
3.25291e-05
0.000365223
3.16701e-05
0.000358078
3.05652e-05
0.000351158
2.92546e-05
0.000344472
2.77716e-05
0.000337985
2.61727e-05
0.000331765
2.44254e-05
0.000325704
2.26223e-05
0.000319897
2.06649e-05
0.000314269
1.86683e-05
0.000308865
1.65377e-05
0.00030364
1.43553e-05
0.000298603
1.20288e-05
0.000293732
9.58914e-06
0.000289021
7.03155e-06
0.000284471
4.31709e-06
0.00028008
1.44539e-06
0.000275851
-1.60628e-06
0.000271795
-4.87151e-06
0.000267927
-8.37158e-06
0.000264258
-1.21289e-05
0.000260812
-1.6174e-05
0.000257613
-2.05356e-05
0.000254697
-2.52436e-05
0.000252111
-3.03249e-05
0.000249906
-3.58011e-05
0.000248134
-4.16884e-05
0.000246853
-4.79923e-05
0.000246134
-5.47116e-05
0.000246048
-6.18338e-05
0.000246641
-6.93274e-05
0.000247987
-7.71795e-05
0.000250166
-8.5349e-05
0.000253233
-9.37499e-05
0.000257196
-0.000102363
0.000262216
-0.000111091
0.000268223
-0.000119924
0.000275332
-0.000128693
0.000283502
-0.000137304
0.000292586
-0.000145453
0.000302474
-0.000152851
0.000312245
-0.000158407
0.000322278
-0.000163257
0.000330641
-0.000164054
0.000341279
-0.000167441
-0.000164254
0.000349626
0.000436669
3.33429e-05
0.000428582
3.65468e-05
0.000420317
3.89958e-05
0.000411939
4.07258e-05
0.000403551
4.18156e-05
0.000395238
4.23543e-05
0.000387051
4.23932e-05
0.000379031
4.20031e-05
0.000371224
4.12486e-05
0.000363662
4.01957e-05
0.000356333
3.88976e-05
0.00034928
3.74174e-05
0.000342486
3.57675e-05
0.000335932
3.39806e-05
0.000329675
3.21656e-05
0.000323545
3.0172e-05
0.000317715
2.81731e-05
0.000312009
2.60498e-05
0.000306589
2.38862e-05
0.000301269
2.15974e-05
0.000296172
1.92236e-05
0.000291188
1.67534e-05
0.000286385
1.41334e-05
0.000281722
1.13734e-05
0.000277193
8.44429e-06
0.000272803
5.316e-06
0.000268547
1.96662e-06
0.000264427
-1.62708e-06
0.000260468
-5.50901e-06
0.000256705
-9.71648e-06
0.00025317
-1.42823e-05
0.000249896
-1.92441e-05
0.000246924
-2.46376e-05
0.000244312
-3.04941e-05
0.000242117
-3.68385e-05
0.00024041
-4.36816e-05
0.000239274
-5.10282e-05
0.00023878
-5.88667e-05
0.000239006
-6.71615e-05
0.000240016
-7.59007e-05
0.000241895
-8.50439e-05
0.000244689
-9.45015e-05
0.000248509
-0.000104264
0.000253375
-0.000114201
0.000259351
-0.000124301
0.000266375
-0.00013436
0.00027452
-0.000144281
0.000283351
-0.000153339
0.000292574
-0.000161347
0.000300827
-0.000166333
0.00030945
-0.000171493
0.000315417
-0.000170868
0.000327361
-0.000177295
-0.000193103
0.000352653
0.000438021
4.29667e-05
0.000429431
4.63673e-05
0.00042069
4.88788e-05
0.000411843
5.05837e-05
0.000403038
5.1598e-05
0.00039436
5.19682e-05
0.000385857
5.18075e-05
0.000377579
5.11884e-05
0.000369569
5.01927e-05
0.000361808
4.89019e-05
0.000354393
4.73663e-05
0.000347187
4.56675e-05
0.000340313
4.38242e-05
0.000333767
4.1907e-05
0.000327391
3.98699e-05
0.000321274
3.78104e-05
0.000315363
3.5664e-05
0.000309679
3.34994e-05
0.000304172
3.1236e-05
0.000298861
2.8921e-05
0.000293619
2.65117e-05
0.000288565
2.39876e-05
0.00028365
2.13463e-05
0.000278862
1.85576e-05
0.000274187
1.55958e-05
0.000269607
1.24346e-05
0.000265121
9.04364e-06
0.00026075
5.38311e-06
0.000256505
1.41278e-06
0.0002524
-2.90205e-06
0.000248475
-7.62423e-06
0.000244771
-1.27971e-05
0.00024134
-1.84667e-05
0.000238245
-2.46743e-05
0.000235549
-3.14542e-05
0.000233338
-3.88248e-05
0.000231697
-4.6797e-05
0.00023072
-5.53578e-05
0.000230486
-6.44797e-05
0.000231068
-7.41283e-05
0.000232565
-8.42774e-05
0.000235024
-9.48681e-05
0.000238567
-0.000105774
0.000243165
-0.000117002
0.000248982
-0.000128386
0.000255958
-0.000139875
0.000263794
-0.000150772
0.000271794
-0.000160301
0.000279587
-0.000168325
0.000285493
-0.000171782
0.00029272
-0.000177584
0.000307175
-0.000186651
0.000348113
-0.000213122
-0.000240017
0.000406046
0.000437984
5.2986e-05
0.000429036
5.65839e-05
0.000419911
5.91325e-05
0.000410773
6.08022e-05
0.000401694
6.1678e-05
0.000392756
6.18631e-05
0.000384027
6.14591e-05
0.000375557
6.05695e-05
0.000367401
5.92931e-05
0.00035955
5.77189e-05
0.000352042
5.5923e-05
0.000344819
5.39741e-05
0.000337917
5.19181e-05
0.000331301
4.97973e-05
0.000324925
4.76352e-05
0.0003188
4.54102e-05
0.000312897
4.31943e-05
0.000307191
4.09335e-05
0.000301641
3.86388e-05
0.000296267
3.62598e-05
0.000291015
3.38316e-05
0.000285898
3.12908e-05
0.000280892
2.86446e-05
0.000275971
2.58605e-05
0.000271125
2.29043e-05
0.000266339
1.97478e-05
0.000261615
1.63545e-05
0.000256952
1.26802e-05
0.000252364
8.67743e-06
0.00024789
4.28898e-06
0.000243546
-5.34152e-07
0.000239368
-5.85759e-06
0.000235413
-1.17521e-05
0.000231752
-1.82692e-05
0.00022846
-2.54533e-05
0.000225637
-3.33334e-05
0.000223379
-4.1926e-05
0.000221802
-5.12174e-05
0.000221007
-6.11912e-05
0.000221059
-7.17764e-05
0.000222087
-8.2989e-05
0.00022414
-9.46946e-05
0.000227296
-0.000106884
0.000231693
-0.000119403
0.000237286
-0.000132267
0.000243865
-0.000144805
0.000250713
-0.000156332
0.000257151
-0.00016549
0.000262882
-0.000173113
0.000269156
-0.000176799
0.000286593
-0.000193731
0.000334346
-0.000226891
0.000391557
-0.000265034
-0.000281944
0.000435615
0.000435269
6.29971e-05
0.000426235
6.67767e-05
0.000417015
6.94289e-05
0.000407821
7.10583e-05
0.000398712
7.18024e-05
0.000389768
7.1788e-05
0.000381041
7.1132e-05
0.000372587
6.9962e-05
0.000364434
6.83897e-05
0.000356626
6.65156e-05
0.000349096
6.4447e-05
0.000341972
6.22147e-05
0.000335136
5.9958e-05
0.000328539
5.76127e-05
0.000322228
5.53002e-05
0.000316162
5.29848e-05
0.00031031
5.06712e-05
0.00030461
4.83487e-05
0.000299062
4.59872e-05
0.000293666
4.36325e-05
0.000288405
4.11687e-05
0.000283173
3.86704e-05
0.000278059
3.60211e-05
0.000273014
3.32718e-05
0.000268014
3.03559e-05
0.000263037
2.72453e-05
0.000258074
2.38992e-05
0.000253117
2.02671e-05
0.000248173
1.62917e-05
0.000243266
1.19077e-05
0.000238428
7.04587e-06
0.000233704
1.62192e-06
0.000229124
-4.42524e-06
0.000224784
-1.1194e-05
0.000220781
-1.8742e-05
0.000217236
-2.71081e-05
0.000214267
-3.6315e-05
0.000211986
-4.63503e-05
0.000210524
-5.71931e-05
0.000209955
-6.87638e-05
0.0002104
-8.10566e-05
0.000211937
-9.39974e-05
0.000214714
-0.000107463
0.000218741
-0.00012144
0.000223911
-0.000135525
0.000229562
-0.000148816
0.000234785
-0.000160055
0.000239774
-0.000169226
0.000243119
-0.000175032
0.000267206
-0.000199195
0.000320579
-0.000239967
0.000372666
-0.000273893
0.000402095
-0.000290935
-0.000297501
0.000418689
0.000428218
7.25401e-05
0.000419299
7.65132e-05
0.000410442
7.92077e-05
0.000401631
8.0822e-05
0.000392924
8.14731e-05
0.000384372
8.13014e-05
0.000376023
8.04347e-05
0.000367925
7.90177e-05
0.000360084
7.71805e-05
0.000352562
7.5045e-05
0.000345306
7.27099e-05
0.000338348
7.02872e-05
0.000331737
6.77576e-05
0.000325293
6.53017e-05
0.000319147
6.27984e-05
0.00031323
6.04193e-05
0.000307486
5.80031e-05
0.000301844
5.56607e-05
0.000296364
5.32951e-05
0.000290955
5.09308e-05
0.000285664
4.84958e-05
0.000280469
4.60357e-05
0.000275227
4.34655e-05
0.000270046
4.07772e-05
0.000264873
3.79461e-05
0.000259685
3.49276e-05
0.000254461
3.16822e-05
0.000249187
2.81536e-05
0.000243852
2.42776e-05
0.000238467
1.99756e-05
0.000233067
1.51602e-05
0.000227697
9.73119e-06
0.000222429
3.5854e-06
0.000217328
-3.36283e-06
0.000212508
-1.12181e-05
0.000208114
-2.00362e-05
0.000204286
-2.98474e-05
0.000201174
-4.06391e-05
0.000198919
-5.23759e-05
0.000197613
-6.49851e-05
0.000197392
-7.84181e-05
0.000198354
-9.26094e-05
0.000200611
-0.000107501
0.000204127
-0.000122841
0.00020854
-0.000138015
0.000212901
-0.000151354
0.000216707
-0.000162388
0.000220202
-0.000170988
0.00024576
-0.000198877
0.00029365
-0.00024168
0.000332152
-0.000272637
0.000354081
-0.000290607
0.000366306
-0.000300917
-0.000307929
0.000376655
0.00041675
8.15522e-05
0.000407564
8.54923e-05
0.000399022
8.8031e-05
0.000390898
8.95304e-05
0.000383035
9.00883e-05
0.000375373
8.98076e-05
0.000367887
8.88129e-05
0.000360581
8.72411e-05
0.000353507
8.52251e-05
0.000346602
8.29069e-05
0.000340025
8.03804e-05
0.000333547
7.77854e-05
0.000327345
7.51539e-05
0.000321315
7.25825e-05
0.00031549
7.00336e-05
0.000309819
6.75577e-05
0.000304216
6.51375e-05
0.000298794
6.28047e-05
0.000293377
6.04478e-05
0.000288105
5.81358e-05
0.00028277
5.57964e-05
0.000277514
5.33725e-05
0.000272273
5.09142e-05
0.000267002
4.83517e-05
0.000261671
4.5656e-05
0.000256251
4.27931e-05
0.00025073
3.97125e-05
0.000245099
3.63591e-05
0.000239335
3.26627e-05
0.000233435
2.85339e-05
0.000227418
2.38659e-05
0.000221325
1.85335e-05
0.000215228
1.24008e-05
0.000209242
5.33465e-06
0.000203471
-2.76016e-06
0.000198084
-1.1986e-05
0.000193255
-2.23909e-05
0.000189167
-3.39581e-05
0.000185992
-4.66312e-05
0.000183846
-6.03421e-05
0.000182861
-7.49795e-05
0.000183154
-9.0543e-05
0.000184818
-0.000106882
0.000187722
-0.000123543
0.000191045
-0.00013931
0.000193725
-0.000152085
0.000195272
-0.000163544
0.000218217
-0.000189959
0.000257779
-0.000236639
0.000290343
-0.000267569
0.000308613
-0.00028677
0.000319099
-0.000299578
0.000329127
-0.000310703
-0.000319814
0.000340436
0.000404391
9.20738e-05
0.000392484
9.48198e-05
0.000383234
9.60112e-05
0.000375384
9.69735e-05
0.000368377
9.72408e-05
0.000361867
9.67984e-05
0.000355657
9.57188e-05
0.000349635
9.40835e-05
0.000343735
9.20167e-05
0.000337983
8.96219e-05
0.00033232
8.70673e-05
0.000326814
8.43915e-05
0.000321441
8.17838e-05
0.000316052
7.91334e-05
0.000310768
7.66468e-05
0.000305556
7.42051e-05
0.000300414
7.18955e-05
0.000295212
6.95863e-05
0.000290051
6.73743e-05
0.000284868
6.51502e-05
0.000279696
6.29488e-05
0.000274387
6.07179e-05
0.000269061
5.83828e-05
0.000263652
5.60014e-05
0.000258142
5.34955e-05
0.000252482
5.08588e-05
0.000246642
4.80209e-05
0.000240598
4.49244e-05
0.000234333
4.14973e-05
0.000227831
3.76434e-05
0.0002211
3.32362e-05
0.00021418
2.81197e-05
0.000207148
2.21169e-05
0.00020012
1.50448e-05
0.000193272
6.74471e-06
0.00018674
-2.82034e-06
0.000180794
-1.38437e-05
0.000175625
-2.62086e-05
0.000171448
-3.98911e-05
0.000168399
-5.47859e-05
0.000166633
-7.07461e-05
0.000166271
-8.77741e-05
0.000167339
-0.000105603
0.000169298
-0.000123301
0.000170766
-0.000138703
0.000171461
-0.000151219
0.000186547
-0.000176981
0.000221179
-0.000223496
0.000247906
-0.000257152
0.000260692
-0.000277347
0.000269313
-0.000293324
0.000279751
-0.000308782
0.000292091
-0.000322487
-0.000333033
0.000304945
0.000404698
0.000107043
0.000380968
0.000108619
0.00036653
0.000105384
0.000356683
0.00010429
0.000349515
0.000103296
0.000343826
0.00010222
0.0003389
0.000100877
0.000334372
9.91637e-05
0.000330033
9.70987e-05
0.000325779
9.47645e-05
0.000321571
9.22625e-05
0.000317327
8.97167e-05
0.000313091
8.7146e-05
0.000308784
8.47091e-05
0.000304374
8.23394e-05
0.000299925
8.0086e-05
0.000295338
7.7937e-05
0.000290655
7.58858e-05
0.00028586
7.38647e-05
0.000280932
7.18809e-05
0.000275879
6.98824e-05
0.000270721
6.79404e-05
0.000265263
6.58863e-05
0.000259637
6.37861e-05
0.000253846
6.15528e-05
0.000247835
5.92198e-05
0.000241564
5.67034e-05
0.000235004
5.39455e-05
0.000228137
5.08695e-05
0.000220933
4.73893e-05
0.000213378
4.3356e-05
0.000205495
3.85827e-05
0.000197384
3.28366e-05
0.000189196
2.58676e-05
0.000181124
1.74539e-05
0.000173451
7.46359e-06
0.00016632
-4.14033e-06
0.00016005
-1.738e-05
0.00015488
-3.2175e-05
0.000150975
-4.83755e-05
0.000148511
-6.58028e-05
0.000147525
-8.43569e-05
0.000147872
-0.000103577
0.000148373
-0.000121557
0.000147878
-0.000136395
0.000155403
-0.000158219
0.000183037
-0.000205486
0.000203124
-0.000240287
0.000210898
-0.000261819
0.000218249
-0.000281894
0.000229035
-0.000302005
0.000242171
-0.000320424
0.000255881
-0.000335421
-0.000346024
0.000269349
0.000422557
0.000124319
0.000384878
0.000124796
0.000357926
0.000117905
0.000340076
0.000113863
0.000329349
0.000109669
0.00032272
0.000106765
0.000318286
0.000104511
0.000314975
0.000102403
0.000312205
0.00010024
0.000309661
9.79705e-05