/*--------------------------------*- C++ -*----------------------------------*\
  =========                 |
  \\      /  F ield         | OpenFOAM: The Open Source CFD Toolbox
   \\    /   O peration     | Website:  https://openfoam.org
    \\  /    A nd           | Version:  10
     \\/     M anipulation  |
\*---------------------------------------------------------------------------*/
FoamFile
{
    format      ascii;
    class       volScalarField;
    location    "0.750724";
    object      rho;
}
// * * * * * * * * * * * * * * * * * * * * * * * * * * * * * * * * * * * * * //

dimensions      [1 -3 0 0 0 0 0];

internalField   nonuniform List<scalar> 
15984
(
0.987932
0.987605
0.987366
0.987208
0.987165
0.987249
0.987369
0.987703
0.987923
0.988453
0.988802
0.989206
0.989658
0.990122
0.990589
0.991086
0.991587
0.992122
0.992623
0.993177
0.993677
0.994223
0.994753
0.995309
0.995867
0.996428
0.996999
0.997586
0.998193
0.998838
0.999504
1.0002
1.00094
1.00169
1.00252
1.00332
1.00416
1.00507
1.00597
1.00691
1.00788
1.00885
1.00985
1.01081
1.01181
1.01274
1.01369
1.01455
1.0154
1.01618
1.01687
1.01752
1.01807
1.01853
0.987394
0.98705
0.986802
0.9867
0.986732
0.986826
0.9871
0.987421
0.987889
0.988257
0.988689
0.989138
0.989612
0.99009
0.99061
0.991138
0.991694
0.992247
0.992806
0.993359
0.993909
0.994451
0.995009
0.995549
0.996094
0.996646
0.997196
0.997765
0.998333
0.99894
0.999542
1.00019
1.00086
1.00154
1.00228
1.00298
1.00375
1.00453
1.00535
1.00618
1.00703
1.00792
1.00879
1.00969
1.01056
1.01143
1.0123
1.01312
1.01395
1.01468
1.01539
1.01602
1.01657
1.01705
0.986915
0.986577
0.986375
0.986296
0.986299
0.986408
0.986805
0.987088
0.987492
0.987957
0.988434
0.988924
0.989469
0.990018
0.990606
0.991197
0.991788
0.992398
0.992995
0.993576
0.994138
0.99471
0.995254
0.995811
0.996369
0.996918
0.99746
0.998011
0.998548
0.99912
0.999682
1.00028
1.00087
1.00148
1.00214
1.00275
1.00345
1.00412
1.00486
1.00557
1.00633
1.00709
1.00789
1.00867
1.00947
1.01027
1.01103
1.01181
1.01252
1.01324
1.01389
1.01447
1.01504
1.01551
0.986176
0.985863
0.985767
0.985716
0.985814
0.986019
0.986252
0.986572
0.987006
0.987503
0.988076
0.988666
0.989301
0.989902
0.990554
0.99117
0.991823
0.992454
0.993101
0.993696
0.994331
0.994899
0.995497
0.996076
0.996636
0.99719
0.997723
0.998263
0.998785
0.999319
0.999848
1.00039
1.00094
1.00149
1.00207
1.00262
1.00322
1.0038
1.00444
1.00507
1.00571
1.00639
1.00707
1.00774
1.00844
1.00913
1.0098
1.01048
1.01115
1.01179
1.01239
1.01297
1.01346
1.01393
0.985412
0.985128
0.984982
0.984947
0.985117
0.985213
0.985703
0.986037
0.986526
0.98711
0.987691
0.988329
0.988974
0.989659
0.990349
0.991063
0.991769
0.992472
0.993145
0.993818
0.994456
0.995098
0.995699
0.996316
0.996902
0.997462
0.998013
0.998533
0.999045
0.999549
1.00006
1.00054
1.00106
1.00156
1.00207
1.00257
1.00309
1.00359
1.00415
1.00468
1.00521
1.00577
1.00634
1.00694
1.00753
1.00808
1.00863
1.00925
1.00982
1.01038
1.01093
1.01143
1.0119
1.01236
0.984478
0.984166
0.984003
0.984028
0.98408
0.984561
0.984846
0.985386
0.985988
0.986608
0.987276
0.987971
0.988688
0.989417
0.990172
0.990917
0.991685
0.992416
0.993159
0.993869
0.994563
0.995237
0.995898
0.996532
0.99714
0.997729
0.998291
0.998825
0.999335
0.999826
1.00032
1.00079
1.00127
1.00172
1.00218
1.00262
1.00309
1.00351
1.00399
1.00441
1.00486
1.00528
1.00574
1.00622
1.00671
1.0072
1.00767
1.00814
1.00859
1.00906
1.00949
1.00989
1.01033
1.01073
0.983428
0.983168
0.983045
0.983119
0.983212
0.983777
0.984017
0.984793
0.985309
0.985987
0.986719
0.987456
0.988223
0.989029
0.989825
0.990663
0.991475
0.992298
0.993097
0.993872
0.994621
0.995337
0.996053
0.996718
0.997374
0.997983
0.998566
0.999111
0.999634
1.00014
1.00063
1.00109
1.00156
1.002
1.00241
1.0028
1.0032
1.00355
1.00394
1.00427
1.00464
1.005
1.00532
1.0057
1.00606
1.0064
1.00674
1.00709
1.00744
1.0078
1.00813
1.00842
1.00874
1.00907
0.982333
0.982028
0.981949
0.982071
0.98225
0.982849
0.983165
0.984034
0.984538
0.985304
0.986048
0.986853
0.987695
0.988563
0.989464
0.990366
0.991252
0.992134
0.992996
0.993832
0.994636
0.995428
0.996171
0.996895
0.997585
0.998239
0.998864
0.999452
0.999996
1.00052
1.00101
1.00147
1.00192
1.00234
1.00271
1.00305
1.0034
1.00372
1.00401
1.00428
1.00456
1.00484
1.00509
1.00533
1.00553
1.00576
1.00598
1.0062
1.00639
1.0066
1.00683
1.00691
1.00713
1.00738
0.980974
0.980777
0.980751
0.980861
0.981281
0.981651
0.982215
0.982931
0.983617
0.984491
0.985308
0.986239
0.987174
0.988143
0.989111
0.990067
0.99101
0.991938
0.992856
0.993751
0.994618
0.995466
0.996269
0.997049
0.997797
0.998504
0.999177
0.999804
1.00039
1.00094
1.00144
1.00192
1.00235
1.00275
1.00312
1.00344
1.00374
1.00404
1.00423
1.00449
1.00464
1.00483
1.00491
1.00507
1.00511
1.00528
1.0053
1.00543
1.00553
1.00557
1.00561
1.00568
1.00565
1.00561
0.979784
0.979539
0.97949
0.979707
0.979991
0.980712
0.981247
0.981958
0.982755
0.983562
0.984469
0.985452
0.986463
0.987504
0.988527
0.989549
0.990581
0.991622
0.992624
0.993611
0.994544
0.995445
0.996318
0.99715
0.997983
0.99874
0.99949
1.00017
1.0008
1.00138
1.00192
1.00241
1.00286
1.00327
1.00364
1.00393
1.00421
1.00447
1.00461
1.00479
1.00486
1.00496
1.00494
1.00502
1.00494
1.00495
1.00482
1.00483
1.00458
1.00461
1.00432
1.00429
1.00409
1.00402
0.978251
0.97812
0.978123
0.978448
0.978678
0.979405
0.980002
0.980777
0.981712
0.982623
0.983665
0.984686
0.98574
0.986802
0.98784
0.989015
0.990177
0.991345
0.992426
0.99346
0.99442
0.995384
0.996338
0.99728
0.998196
0.999043
0.999849
1.00058
1.00126
1.00188
1.00246
1.00298
1.00346
1.00388
1.00427
1.00454
1.00483
1.00501
1.00519
1.00525
1.00523
1.00521
1.0052
1.00515
1.00494
1.00475
1.0045
1.0043
1.00399
1.0038
1.00346
1.00293
1.00275
1.00239
0.976843
0.97672
0.976785
0.977147
0.977524
0.978146
0.978879
0.979746
0.980602
0.981705
0.982608
0.983871
0.984749
0.98611
0.987214
0.988474
0.989588
0.990782
0.991884
0.992997
0.994077
0.995209
0.996322
0.997426
0.998444
0.999385
1.00023
1.001
1.00172
1.00238
1.00301
1.00359
1.00411
1.00457
1.00498
1.00528
1.00554
1.00576
1.00582
1.00589
1.00582
1.00588
1.00563
1.00549
1.00505
1.00488
1.00434
1.00415
1.00334
1.00307
1.00212
1.00221
1.00117
1.00242
0.975344
0.97527
0.975447
0.975686
0.976248
0.976875
0.977653
0.978561
0.979576
0.980589
0.981734
0.982767
0.984147
0.985032
0.986731
0.987535
0.989216
0.989996
0.991712
0.992627
0.993966
0.995129
0.996231
0.99739
0.998521
0.999596
1.00056
1.00144
1.00223
1.00297
1.00367
1.0043
1.00488
1.00538
1.00584
1.00618
1.00643
1.00661
1.00674
1.0067
1.00667
1.00641
1.00633
1.0058
1.00567
1.00493
1.00471
1.00368
1.00346
1.00219
1.00259
1.00109
1.00527
1.00171
0.973537
0.973556
0.973765
0.974172
0.974843
0.975478
0.976404
0.977302
0.978368
0.979506
0.980671
0.98191
0.983161
0.984436
0.98567
0.987052
0.988291
0.989668
0.990927
0.992322
0.993671
0.995005
0.996266
0.997466
0.998586
0.999708
1.00076
1.00177
1.00271
1.00358
1.00439
1.00511
1.00575
1.00631
1.0068
1.00717
1.00741
1.0076
1.00771
1.00762
1.00753
1.00742
1.00698
1.00673
1.00609
1.00562
1.00485
1.00399
1.00328
1.00226
1.00341
1.00192
1.01496
1.01372
0.971673
0.971779
0.972056
0.972652
0.973377
0.974165
0.975133
0.976122
0.977209
0.978344
0.979604
0.980748
0.982221
0.983263
0.985078
0.986012
0.987957
0.988751
0.990734
0.991656
0.993569
0.99466
0.996046
0.997428
0.998756
1.00002
1.00118
1.00227
1.00326
1.00419
1.00508
1.00591
1.00666
1.0073
1.00786
1.00826
1.00854
1.00873
1.00882
1.00881
1.00868
1.00842
1.00806
1.00764
1.00723
1.00624
1.00539
1.00445
1.00395
1.00268
1.00795
1.00616
1.04632
1.04547
0.969871
0.969961
0.97034
0.971106
0.971736
0.972698
0.973659
0.97479
0.975907
0.977216
0.978281
0.979978
0.980773
0.982704
0.98371
0.985682
0.986558
0.988635
0.989592
0.991731
0.992907
0.994373
0.995861
0.997366
0.99883
1.00023
1.00151
1.00272
1.00383
1.00488
1.00588
1.00679
1.00763
1.00836
1.009
1.00945
1.00983
1.01002
1.0102
1.01015
1.01007
1.00967
1.00951
1.00859
1.008
1.00686
1.00688
1.00498
1.00641
1.00374
1.02421
1.02088
1.13931
1.35336
0.967949
0.968007
0.968581
0.969189
0.970193
0.971105
0.972215
0.973323
0.974539
0.97586
0.97712
0.978655
0.979811
0.981507
0.982772
0.984496
0.985831
0.987634
0.989099
0.990789
0.99245
0.99406
0.99574
0.997348
0.998937
1.00043
1.00184
1.00317
1.00439
1.00555
1.00668
1.00774
1.00873
1.00958
1.01033
1.01084
1.01127
1.01144
1.01162
1.01159
1.01147
1.01137
1.01063
1.01027
1.00925
1.00931
1.0071
1.00625
1.01242
1.00937
1.07098
1.17907
1.48497
1.72334
0.96686
0.966921
0.967026
0.967645
0.968479
0.96953
0.970664
0.971879
0.973151
0.974444
0.975919
0.976962
0.979102
0.979845
0.982129
0.983021
0.985372
0.986429
0.988774
0.989897
0.992283
0.993679
0.995433
0.997209
0.998961
1.00064
1.00224
1.00375
1.00513
1.00643
1.00768
1.00886
1.00994
1.01083
1.01164
1.01219
1.01274
1.01302
1.01322
1.0133
1.01324
1.0128
1.01272
1.01174
1.01191
1.00966
1.00921
1.00841
1.02963
1.057
1.25295
1.62204
1.8396
1.9346
0.969619
0.967564
0.966847
0.966822
0.967285
0.968119
0.969152
0.970378
0.971695
0.972987
0.974555
0.975729
0.977391
0.979012
0.980274
0.982442
0.983822
0.986184
0.987338
0.989927
0.991113
0.993744
0.995292
0.997125
0.998993
1.00081
1.00258
1.00425
1.00584
1.00728
1.00862
1.00989
1.01109
1.01215
1.01308
1.01377
1.01439
1.01473
1.01503
1.01516
1.01512
1.01497
1.0145
1.01443
1.0126
1.01184
1.01165
1.0343
1.06601
1.35024
1.67083
1.85603
1.93454
1.96096
0.983166
0.975413
0.970696
0.968347
0.967419
0.967466
0.968072
0.969015
0.970151
0.971624
0.972701
0.974912
0.975574
0.977927
0.978884
0.98146
0.982501
0.985089
0.986429
0.989098
0.990759
0.99282
0.994945
0.997079
0.999125
1.00108
1.00294
1.00475
1.00651
1.00815
1.00969
1.01113
1.01244
1.01362
1.01467
1.0155
1.01622
1.01663
1.01701
1.01723
1.01719
1.01699
1.01686
1.01573
1.01526
1.01421
1.03401
1.0748
1.38312
1.69892
1.9025
1.9698
1.98157
1.97735
1.02496
1.00023
0.98535
0.976393
0.971439
0.968998
0.968181
0.968336
0.9691
0.970056
0.971572
0.972633
0.974892
0.975871
0.978314
0.979412
0.982149
0.983498
0.986228
0.987703
0.990614
0.992396
0.994555
0.996778
0.999005
1.00119
1.00331
1.0053
1.00722
1.00902
1.01073
1.01233
1.01384
1.01523
1.01638
1.01731
1.01812
1.01863
1.01913
1.01943
1.01947
1.01937
1.01928
1.01829
1.01795
1.02729
1.08313
1.36487
1.74347
1.94166
1.98724
1.99154
1.9863
1.9744
1.14681
1.06901
1.02383
0.998103
0.983452
0.975297
0.971104
0.969205
0.968813
0.969182
0.9701
0.971513
0.972661
0.974909
0.976088
0.978697
0.980074
0.982885
0.984437
0.987486
0.989141
0.99229
0.994426
0.996501
0.99887
1.00126
1.00359
1.00579
1.00788
1.00986
1.01171
1.01339
1.01492
1.01645
1.01785
1.01906
1.02005
1.02071
1.02137
1.02177
1.02193
1.0222
1.0215
1.02104
1.02659
1.07245
1.32471
1.76796
1.95811
2.00005
2.00277
1.99695
1.98403
1.96601
1.3366
1.22751
1.12421
1.05562
1.01524
0.992526
0.980121
0.97366
0.970523
0.969391
0.969445
0.970193
0.971455
0.972673
0.975083
0.976384
0.97917
0.980799
0.983848
0.985838
0.988176
0.991229
0.993298
0.996773
0.998688
1.00131
1.00391
1.00639
1.00868
1.0109
1.01289
1.01466
1.01636
1.01804
1.01951
1.02085
1.02188
1.02277
1.02364
1.02419
1.02455
1.02484
1.0242
1.02637
1.05975
1.26162
1.76708
1.97198
2.01424
2.01562
2.00874
1.99535
1.97678
1.95047
1.44892
1.41447
1.27195
1.15701
1.07672
1.02703
0.998438
0.982787
0.974857
0.971063
0.969654
0.969424
0.970499
0.971083
0.973528
0.975031
0.977107
0.979797
0.981825
0.985216
0.987061
0.990757
0.993017
0.995686
0.999457
1.00202
1.00485
1.00744
1.01008
1.01242
1.01461
1.0164
1.01785
1.01934
1.02087
1.0225
1.02371
1.02496
1.02602
1.02678
1.02754
1.02709
1.02758
1.04709
1.20246
1.74638
1.98474
2.02779
2.02855
2.02054
2.00784
1.98992
1.96282
1.91943
1.49653
1.49168
1.41258
1.27949
1.16297
1.08353
1.03339
1.00344
0.986115
0.976634
0.971988
0.969897
0.97004
0.970274
0.972119
0.97344
0.976262
0.978163
0.980553
0.983634
0.98699
0.990122
0.993749
0.997445
1.00039
1.00498
1.00793
1.01208
1.01312
1.015
1.01693
1.01867
1.01996
1.02132
1.02287
1.02446
1.02586
1.02728
1.02847
1.02954
1.02999
1.02982
1.03901
1.14275
1.69126
1.99626
2.04109
2.04098
2.03251
2.02149
2.00461
1.97763
1.93394
1.86409
1.52312
1.52319
1.4848
1.38699
1.24917
1.14676
1.07702
1.03246
1.00483
0.988512
0.978931
0.973959
0.971424
0.970785
0.971256
0.972414
0.974795
0.977722
0.981213
0.984151
0.988161
0.992413
0.998126
1.00555
1.01267
1.0174
1.02212
1.02438
1.02814
1.02534
1.02332
1.02234
1.02264
1.02339
1.02476
1.02639
1.02811
1.02971
1.03113
1.03215
1.03196
1.03531
1.10422
1.59383
1.99987
2.05423
2.05255
2.04443
2.03594
2.01989
1.995
1.95407
1.8867
1.78477
1.53569
1.5283
1.48405
1.36946
1.23714
1.13908
1.0722
1.02943
1.00266
0.986782
0.977344
0.972795
0.970228
0.970242
0.971574
0.973377
0.975676
0.979732
0.983847
0.993483
1.00552
1.01709
1.03491
1.05934
1.07463
1.08342
1.08716
1.09478
1.06946
1.04855
1.0347
1.02813
1.02574
1.02559
1.02675
1.02837
1.0304
1.03221
1.03377
1.03423
1.03451
1.07914
1.47569
2.01966
2.06334
2.06249
2.05616
2.04988
2.0355
2.01407
1.97807
1.91636
1.81893
1.67816
1.52943
1.49924
1.41548
1.28981
1.17982
1.10019
1.04656
1.01171
0.990173
0.978286
0.973059
0.970665
0.970817
0.97188
0.973874
0.986652
1.00108
1.01998
1.04944
1.08641
1.13468
1.18218
1.24115
1.29569
1.32351
1.33317
1.33607
1.30594
1.25555
1.1243
1.06469
1.03884
1.02991
1.02776
1.02846
1.03048
1.03281
1.03487
1.03571
1.0352
1.05667
1.48971
1.99827
2.06847
2.07101
2.06707
2.06197
2.05095
2.03317
2.00332
1.95086
1.8643
1.73207
1.55426
1.40582
1.31487
1.20157
1.10973
1.04775
1.0087
0.987991
0.978531
0.97534
0.975695
0.977427
0.99015
1.02446
1.06509
1.11383
1.18547
1.25603
1.32439
1.39116
1.45824
1.51467
1.55344
1.58927
1.61506
1.62655
1.62506
1.61202
1.56928
1.48339
1.29335
1.13745
1.06467
1.03643
1.03002
1.03045
1.03285
1.03523
1.03678
1.03976
1.08802
1.47492
1.97487
2.06926
2.07742
2.07581
2.07206
2.06485
2.05091
2.02729
1.98571
1.9144
1.79963
1.63534
1.43204
1.06969
1.02811
1.00486
0.990165
0.984242
0.986528
0.997108
1.03308
1.10742
1.19935
1.28585
1.38239
1.48169
1.55986
1.61537
1.65482
1.68461
1.70886
1.72846
1.74363
1.75875
1.77218
1.78494
1.79573
1.80168
1.79645
1.78408
1.74531
1.66522
1.461
1.19421
1.07308
1.03813
1.03121
1.03243
1.035
1.03745
1.04296
1.09248
1.42038
1.9346
2.06545
2.08186
2.08264
2.08042
2.07595
2.06611
2.04845
2.01715
1.96237
1.87058
1.73064
1.54368
1.33025
1.03834
1.0513
1.08087
1.13949
1.22571
1.36449
1.4828
1.60899
1.70923
1.7531
1.77342
1.78665
1.79447
1.7944
1.78267
1.77031
1.76781
1.77045
1.77521
1.78247
1.79281
1.80604
1.82303
1.83945
1.85296
1.86103
1.85985
1.83573
1.74418
1.4745
1.18817
1.06856
1.03577
1.03183
1.03414
1.03716
1.04329
1.08938
1.35288
1.87942
2.05425
2.08415
2.08743
2.08682
2.08412
2.07821
2.06567
2.04318
2.00339
1.9352
1.82583
1.66847
1.47039
1.25443
1.61028
1.67074
1.72656
1.7778
1.80201
1.82535
1.83225
1.8305
1.81594
1.79115
1.7448
1.72684
1.69091
1.65668
1.63626
1.62405
1.62748
1.63957
1.66263
1.69404
1.72556
1.76267
1.79958
1.82738
1.85021
1.86883
1.87852
1.85729
1.74513
1.44637
1.15594
1.05174
1.03259
1.03365
1.03701
1.04423
1.09481
1.28391
1.82257
2.03525
2.08323
2.09013
2.09139
2.08958
2.08686
2.07912
2.06475
2.03925
1.99456
1.91903
1.80049
1.63491
1.43571
1.23371
1.852
1.84379
1.83056
1.80807
1.77309
1.72517
1.66572
1.59793
1.52093
1.42915
1.34896
1.26944
1.21717
1.1872
1.18721
1.19674
1.2178
1.25418
1.31065
1.3934
1.47963
1.58907
1.6761
1.73425
1.80073
1.85902
1.8765
1.83954
1.66804
1.33482
1.08856
1.03716
1.03274
1.03557
1.04301
1.09106
1.21887
1.79867
1.99138
2.08105
2.09132
2.09416
2.09362
2.09288
2.08881
2.0812
2.06708
2.04108
1.99475
1.91677
1.79492
1.62602
1.42458
1.22307
1.70309
1.65774
1.59876
1.52459
1.43016
1.31575
1.20208
1.10543
1.0398
1.0079
0.995453
0.996509
1.00102
1.01124
1.03574
1.05886
1.08748
1.10829
1.13396
1.1754
1.23182
1.32174
1.44451
1.60743
1.77258
1.85533
1.87305
1.82169
1.59621
1.14855
1.05048
1.03294
1.03558
1.04174
1.08931
1.17948
1.80889
1.94034
2.07096
2.09085
2.09535
2.09673
2.09617
2.09497
2.09115
2.08441
2.07129
2.04816
2.00719
1.93679
1.82372
1.66187
1.46341
1.25976
1.3956
1.30973
1.21199
1.11658
1.03842
0.991245
0.974436
0.970597
0.971785
0.980766
1.00146
1.03767
1.09357
1.14356
1.14514
1.12331
1.11954
1.09396
1.09249
1.11582
1.16815
1.26632
1.41881
1.6212
1.78031
1.83807
1.78868
1.642
1.22478
1.07231
1.03372
1.0351
1.0402
1.09026
1.15629
1.81957
1.88733
2.05161
2.08764
2.09484
2.09792
2.09832
2.09869
2.09686
2.09469
2.0898
2.08075
2.06399
2.03357
1.97978
1.88957
1.75138
1.56668
1.36168
1.07554
1.01905
0.978699
0.96323
0.95912
0.959613
0.965821
0.983835
1.01944
1.07391
1.14344
1.22617
1.2728
1.28071
1.26479
1.21616
1.14339
1.09684
1.09437
1.11968
1.1824
1.3008
1.50347
1.69444
1.77951
1.78809
1.74979
1.31628
1.0958
1.0356
1.03741
1.03858
1.09065
1.14578
1.8144
1.81298
2.03574
2.07971
2.09376
2.09764
2.09866
2.09995
2.09987
2.09842
2.09644
2.09243
2.08545
2.0725
2.05066
2.0138
1.95187
1.85136
1.70214
1.51023
0.96381
0.952205
0.953178
0.952373
0.955735
0.963734
0.981753
1.01272
1.06205
1.13587
1.23314
1.29658
1.3138
1.3156
1.2987
1.25184
1.17768
1.13963
1.13985
1.18243
1.3007
1.46482
1.62457
1.6793
1.69664
1.69863
1.28647
1.118
1.04078
1.03566
1.04529
1.09155
1.16076
1.81299
1.75784
2.05399
2.05711
2.09151
2.09639
2.09831
2.09972
2.101
2.10053
2.09983
2.0978
2.09455
2.09049
2.08282
2.0708
2.05108
2.0189
1.9667
1.88228
1.74944
0.949029
0.949462
0.949143
0.950947
0.955888
0.967683
0.98782
1.02066
1.07224
1.14672
1.2446
1.29738
1.32327
1.32464
1.32499
1.30987
1.29129
1.28981
1.31275
1.38555
1.49027
1.5751
1.6234
1.66177
1.57208
1.24251
1.10262
1.04468
1.03933
1.04662
1.06156
1.17754
1.76958
1.74638
2.03568
2.04636
2.08286
2.09449
2.09781
2.09917
2.10076
2.10161
2.10112
2.10037
2.09866
2.09603
2.09267
2.08787
2.08054
2.06935
2.0526
2.02707
1.98833
1.92978
0.946904
0.946029
0.946158
0.94869
0.954125
0.9635
0.979923
1.00539
1.04593
1.10546
1.1831
1.26537
1.30896
1.32758
1.33164
1.33901
1.35508
1.3707
1.40968
1.44781
1.50053
1.51683
1.48064
1.38914
1.16533
1.06336
1.05521
1.04396
1.04388
1.04938
1.30461
1.77173
1.78185
2.02271
2.03207
2.07864
2.09134
2.09694
2.09825
2.09993
2.10126
2.10133
2.10091
2.10041
2.09878
2.09666
2.09328
2.08961
2.08443
2.07752
2.06806
2.05595
2.03909
2.01593
0.94377
0.944479
0.944563
0.946082
0.948515
0.953669
0.962593
0.978472
1.00381
1.04286
1.0972
1.16461
1.23514
1.2683
1.3206
1.31569
1.35133
1.35958
1.38339
1.39372
1.37937
1.32764
1.20799
1.07783
1.06255
1.03196
1.04019
1.0319
1.04176
1.51392
1.52979
1.83879
1.97035
2.02244
2.08392
2.08626
2.09562
2.09798
2.09933
2.10073
2.10106
2.10136
2.10078
2.09983
2.09829
2.09586
2.09262
2.08866
2.08403
2.07906
2.07236
2.06464
2.05527
2.04402
0.943822
0.943555
0.944132
0.944656
0.946064
0.948165
0.952221
0.958905
0.970011
0.987388
1.01311
1.0478
1.08979
1.13637
1.17074
1.20929
1.21496
1.22458
1.20758
1.17481
1.12953
1.06178
1.05536
1.02587
1.03553
1.03772
1.05554
1.14889
1.58883
1.55145
1.79673
1.97632
2.01323
2.07814
2.08586
2.09432
2.09849
2.0993
2.10075
2.1016
2.10138
2.10109
2.10014
2.09891
2.09718
2.09505
2.0919
2.08848
2.08389
2.07839
2.07257
2.0653
2.05776
2.04849
0.943246
0.943812
0.943813
0.944465
0.945281
0.946651
0.948444
0.951445
0.955988
0.962925
0.972844
0.986161
1.00249
1.02022
1.03334
1.04897
1.05377
1.05761
1.04752
1.03989
1.03727
1.0316
1.04293
1.05148
1.0797
1.12418
1.22787
1.47312
1.74143
1.75335
1.96687
2.03015
2.07477
2.08504
2.0942
2.09902
2.10008
2.10174
2.102
2.10223
2.10148
2.10067
2.09954
2.09788
2.09634
2.09369
2.09083
2.0873
2.08264
2.07735
2.07121
2.06469
2.05713
2.049
0.943725
0.943764
0.944352
0.944944
0.945938
0.947009
0.948663
0.950572
0.953233
0.956436
0.960619
0.96594
0.972516
0.979791
0.987853
0.993729
1.00069
1.00674
1.01254
1.0193
1.02816
1.03699
1.04889
1.06936
1.15451
1.34744
1.66455
1.67102
1.89071
1.91777
2.0483
2.06904
2.08852
2.09462
2.10019
2.10208
2.10333
2.10415
2.10387
2.10344
2.10238
2.10105
2.09925
2.09729
2.09498
2.09213
2.08915
2.08561
2.08114
2.07628
2.07015
2.06405
2.05635
2.04855
0.944458
0.945195
0.945542
0.946572
0.948009
0.949331
0.951345
0.953406
0.956196
0.95944
0.963453
0.968235
0.973702
0.980199
0.987058
0.994788
1.00345
1.01281
1.02391
1.04
1.06364
1.10388
1.18494
1.35299
1.53023
1.71465
1.7641
1.89169
2.00275
2.01421
2.07639
2.08749
2.09671
2.10217
2.10497
2.10608
2.10718
2.10662
2.10602
2.10477
2.10302
2.10084
2.09816
2.09545
2.09253
2.08954
2.08617
2.08243
2.07801
2.07336
2.06784
2.06179
2.05448
2.04637
0.946389
0.94761
0.948253
0.949953
0.951991
0.954393
0.957182
0.960468
0.96397
0.968352
0.973199
0.979086
0.986136
0.99441
1.00446
1.01726
1.03404
1.05799
1.09515
1.15467
1.25907
1.38067
1.53737
1.67285
1.7742
1.87136
1.96288
1.99378
2.05122
2.06257
2.08972
2.09806
2.10508
2.10735
2.10997
2.11074
2.1105
2.10982
2.10816
2.1058
2.10293
2.09968
2.09638
2.09303
2.08948
2.08574
2.08183
2.07764
2.07332
2.06871
2.06386
2.05803
2.0513
2.04306
0.951796
0.953539
0.953731
0.95686
0.96054
0.965184
0.971108
0.977305
0.985222
0.993897
1.00483
1.01798
1.0349
1.05773
1.09007
1.13845
1.20962
1.29317
1.39232
1.50367
1.59446
1.69615
1.82373
1.83265
1.94754
1.96482
2.0288
2.04702
2.07229
2.08977
2.0992
2.10677
2.10994
2.1134
2.11469
2.11491
2.11434
2.11265
2.10999
2.10672
2.10288
2.09874
2.09436
2.08997
2.08494
2.08065
2.07542
2.07114
2.06684
2.06224
2.05752
2.05176
2.0453
2.03711
0.971993
0.968307
0.970333
0.973036
0.980305
0.988924
1.00246
1.01712
1.03774
1.0629
1.09864
1.14394
1.20434
1.27786
1.3621
1.44959
1.53149
1.6163
1.69315
1.75585
1.82289
1.89434
1.91041
1.97857
1.99593
2.04014
2.05529
2.0758
2.08829
2.09962
2.10835
2.11146
2.11637
2.11874
2.1198
2.11945
2.11803
2.11551
2.11187
2.10754
2.10269
2.09699
2.09119
2.08486
2.07922
2.07325
2.06818
2.06252
2.05764
2.05209
2.04698
2.04083
2.03486
2.02594
1.02095
1.02559
1.01912
1.02303
1.0321
1.04894
1.07685
1.11113
1.15755
1.2154
1.28758
1.36793
1.45347
1.54019
1.62623
1.7034
1.76773
1.81534
1.85256
1.90653
1.9214
1.96781
1.98279
2.0212
2.03679
2.05943
2.07367
2.08795
2.09803
2.10751
2.11153
2.11806
2.12131
2.12359
2.12406
2.12364
2.1215
2.11807
2.11355
2.10826
2.10162
2.09474
2.08738
2.08033
2.07262
2.0653
2.05636
2.0507
2.04092
2.03766
2.02961
2.02579
2.01875
2.00955
1.22209
1.1925
1.20045
1.19683
1.20523
1.2246
1.26435
1.31145
1.37162
1.43644
1.51085
1.58977
1.66488
1.73632
1.79811
1.84099
1.8739
1.90496
1.92828
1.95769
1.97396
2.00145
2.01949
2.03987
2.05643
2.07202
2.08363
2.09511
2.10356
2.11223
2.1165
2.12363
2.12635
2.12876
2.12895
2.12793
2.12527
2.12107
2.11529
2.10795
2.10027
2.09185
2.08286
2.07095
2.06162
2.04983
2.0406
2.03049
2.02552
2.01611
2.01366
2.00366
2.00078
1.98867
1.53604
1.50907
1.49505
1.4789
1.48813
1.4913
1.51335
1.54428
1.5918
1.64529
1.69576
1.75259
1.80317
1.84506
1.87625
1.90433
1.91885
1.94296
1.96164
1.98192
2.00032
2.01894
2.03641
2.05196
2.06559
2.07855
2.08944
2.10007
2.1082
2.11638
2.12227
2.128
2.1309
2.13276
2.13237
2.13057
2.12663
2.1215
2.11454
2.10726
2.09755
2.08608
2.07244
2.06197
2.04772
2.03699
2.02709
2.01682
2.00851
2.00127
1.99271
1.98559
1.97826
1.96866
1.72848
1.71207
1.69794
1.69435
1.69231
1.69909
1.70676
1.72654
1.75141
1.783
1.81585
1.84444
1.86968
1.89865
1.91008
1.9285
1.94419
1.9628
1.97953
1.99718
2.01313
2.02958
2.0437
2.05783
2.07052
2.08237
2.09383
2.10199
2.11271
2.11947
2.12614
2.13111
2.13465
2.13621
2.13567
2.13333
2.1293
2.12339
2.11577
2.10438
2.09187
2.07802
2.0671
2.04877
2.037
2.02374
2.00448
1.99418
1.98021
1.97038
1.96372
1.96247
1.96211
1.96235
1.82038
1.81373
1.80775
1.80535
1.8067
1.81017
1.81615
1.82594
1.83798
1.85492
1.87088
1.88835
1.9009
1.91621
1.92933
1.94452
1.95878
1.97386
1.98955
2.00315
2.02101
2.03354
2.04879
2.06214
2.0712
2.08718
2.09419
2.10693
2.11558
2.12359
2.13031
2.13527
2.13848
2.13902
2.13799
2.13583
2.13084
2.12361
2.11239
2.10157
2.08762
2.07464
2.05415
2.04067
2.01891
1.99455
1.98684
1.97241
1.9692
1.97132
1.9821
1.99665
2.0026
2.0121
1.85645
1.85468
1.85346
1.85325
1.85442
1.85797
1.86216
1.86856
1.87598
1.88496
1.89445
1.9051
1.91588
1.92833
1.93938
1.95294
1.9655
1.98048
1.9939
2.00913
2.02276
2.03609
2.05026
2.0598
2.07717
2.08502
2.09907
2.10838
2.11811
2.12567
2.13218
2.1371
2.14022
2.14165
2.14125
2.13704
2.13106
2.12195
2.11103
2.09837
2.08311
2.06438
2.04444
2.02085
2.00283
1.98807
1.98
1.97696
1.98867
2.01263
2.0266
2.03388
2.03577
2.02911
1.86849
1.86831
1.86915
1.87003
1.8724
1.87471
1.87875
1.88308
1.88969
1.89577
1.90452
1.91249
1.92308
1.93333
1.9452
1.95681
1.97044
1.98236
1.99755
2.00934
2.0237
2.03666
2.05066
2.06362
2.07723
2.08783
2.10053
2.11027
2.1199
2.12819
2.13518
2.14027
2.14342
2.14475
2.14224
2.1384
2.13169
2.12248
2.11046
2.09588
2.07752
2.05561
2.03255
2.01286
1.9982
1.98713
1.9891
2.00249
2.01113
2.01707
2.02511
2.03292
2.03284
2.00785
1.01891
1.01922
1.01939
1.01947
1.01946
1.01931
1.01916
1.01893
1.01866
1.01841
1.01814
1.01789
1.01766
1.0175
1.01738
1.01729
1.01733
1.01734
1.01778
1.01772
1.01741
1.01778
1.01799
1.01811
1.01813
1.01809
1.01799
1.01787
1.01773
1.01756
1.01741
1.01728
1.01718
1.01713
1.01717
1.01728
1.01737
1.01786
1.0179
1.01867
1.0159
1.01621
1.01651
1.01673
1.01689
1.01697
1.01697
1.01693
1.01689
1.01685
1.0168
1.01673
1.01679
1.01672
1.01702
1.01706
1.01757
1.01776
1.01846
1.01893
1.01436
1.01476
1.01509
1.01538
1.0156
1.01573
1.01578
1.01581
1.01586
1.01588
1.01585
1.01601
1.01595
1.01646
1.01628
1.01706
1.01707
1.01807
1.01844
1.01902
1.01279
1.01315
1.0135
1.01378
1.01404
1.01425
1.01441
1.01453
1.01461
1.01468
1.01485
1.01499
1.01528
1.01532
1.01614
1.01612
1.01715
1.0174
1.01876
1.01906
1.0111
1.01146
1.01177
1.01208
1.01236
1.01258
1.01284
1.013
1.01319
1.01319
1.01371
1.01348
1.0143
1.01428
1.01515
1.01543
1.01669
1.01677
1.01863
1.01875
1.00937
1.00967
1.00995
1.01018
1.01041
1.01068
1.01099
1.01123
1.01135
1.01188
1.01152
1.01251
1.01214
1.01329
1.01341
1.01472
1.01487
1.01678
1.01703
1.01899
1.00759
1.00781
1.00797
1.00811
1.00828
1.00842
1.00863
1.00886
1.00934
1.00919
1.0103
1.00944
1.01098
1.01042
1.01193
1.01251
1.01413
1.0147
1.01664
1.01725
1.00565
1.00571
1.00572
1.00586
1.00601
1.00629
1.00664
1.00715
1.00741
1.0083
1.00708
1.00886
1.00702
1.00936
1.00855
1.01068
1.01116
1.013
1.01392
1.01612
1.00395
1.00395
1.00388
1.00501
1.00448
1.00699
1.00859
1.01009
1.01145
1.01238
1.01347
1.00921
1.01257
1.00791
1.00993
1.00577
1.01172
1.00951
1.01192
1.01311
1.00273
1.00383
1.00397
1.00859
1.00733
1.01717
1.02687
1.0358
1.043
1.05578
1.05706
1.0592
1.03815
1.05536
1.01547
1.02802
1.0089
1.01652
1.01191
1.01284
1.00367
1.00841
1.00922
1.02386
1.04405
1.07104
1.1124
1.1652
1.20641
1.26083
1.28394
1.27031
1.26388
1.17947
1.23396
1.0696
1.06688
1.02277
1.01228
1.01135
1.02241
1.01022
1.05364
1.09866
1.19079
1.31468
1.44837
1.57045
1.64813
1.70943
1.72986
1.72948
1.68489
1.68988
1.49772
1.56008
1.34997
1.24396
1.11581
1.06039
1.07194
1.05709
1.22411
1.42814
1.61482
1.73856
1.82491
1.8657
1.89261
1.89728
1.89625
1.88624
1.88747
1.84363
1.84845
1.73674
1.68902
1.58609
1.4863
1.16853
1.20392
1.47635
1.66084
1.79748
1.87265
1.91271
1.92835
1.9282
1.922
1.91435
1.91145
1.89345
1.87666
1.86073
1.86125
1.81746
1.77787
1.84864
1.53127
1.67871
1.60091
1.75991
1.86321
1.9133
1.93537
1.93764
1.93412
1.92101
1.91837
1.89852
1.87803
1.85724
1.8386
1.79622
1.77458
1.77851
1.76725
1.75399
1.79775
1.62349
1.86831
1.93727
1.95548
1.95276
1.94519
1.93794
1.91788
1.91301
1.88426
1.85337
1.82167
1.7822
1.75081
1.70079
1.63607
1.62121
1.62554
1.70452
1.69769
1.70855
1.95986
1.96101
1.95526
1.94579
1.93639
1.90961
1.90104
1.861
1.82791
1.78316
1.74224
1.70143
1.66697
1.62913
1.56686
1.5041
1.48795
1.48549
1.64012
1.64365
1.96383
1.95883
1.94892
1.93259
1.90688
1.88748
1.83894
1.79538
1.74225
1.68631
1.64253
1.62603
1.59283
1.55721
1.50261
1.42861
1.38739
1.40144
1.40416
1.58591
1.96709
1.95411
1.93333
1.90445
1.872
1.81161
1.75653
1.68618
1.61482
1.55084
1.51935
1.50431
1.49893
1.48394
1.45066
1.38292
1.32347
1.31709
1.34264
1.40797
1.95763
1.9348
1.9011
1.85929
1.78809
1.71555
1.63436
1.53896
1.44899
1.39479
1.37441
1.37724
1.3964
1.41202
1.39847
1.35291
1.29039
1.26824
1.2814
1.32167
1.94144
1.90445
1.84999
1.77082
1.68115
1.5743
1.47106
1.36156
1.26738
1.22359
1.21764
1.2327
1.31999
1.36209
1.34953
1.31303
1.26428
1.24285
1.25153
1.28457
1.90951
1.84605
1.75888
1.65311
1.52792
1.40246
1.28495
1.17324
1.10816
1.08885
1.08949
1.13523
1.29545
1.34013
1.31054
1.27868
1.24724
1.23333
1.24308
1.28226
1.85091
1.75595
1.6354
1.49156
1.35045
1.21219
1.11641
1.07111
1.0514
1.04676
1.05327
1.11392
1.30555
1.32773
1.27254
1.26665
1.25524
1.23636
1.24792
1.28962
1.76379
1.62999
1.47489
1.31026
1.16181
1.08893
1.06124
1.04671
1.04017
1.03831
1.05309
1.15081
1.3307
1.31088
1.23605
1.28334
1.29899
1.26742
1.27752
1.34604
1.64412
1.47387
1.30086
1.13692
1.08114
1.0617
1.05257
1.04735
1.04742
1.05692
1.1023
1.24113
1.33776
1.2768
1.26916
1.34396
1.3489
1.33978
1.35534
1.40761
1.49939
1.30811
1.13182
1.08274
1.06411
1.06304
1.07492
1.086
1.10235
1.12739
1.20711
1.27614
1.28374
1.28006
1.32858
1.37895
1.38745
1.39297
1.40572
1.42368
1.35101
1.17266
1.09879
1.07227
1.078
1.11344
1.15279
1.17293
1.18264
1.20048
1.2409
1.26113
1.26538
1.29251
1.36054
1.39294
1.40277
1.41146
1.41956
1.42927
1.22738
1.10098
1.08136
1.08967
1.13213
1.18898
1.23232
1.21869
1.21439
1.21821
1.22004
1.21817
1.23874
1.29629
1.36597
1.38935
1.40107
1.40466
1.39013
1.35077
1.14053
1.09972
1.08766
1.11745
1.18112
1.24681
1.23502
1.23225
1.21573
1.19535
1.17369
1.16851
1.18952
1.25622
1.30248
1.33695
1.34198
1.32388
1.27008
1.19333
1.13875
1.08808
1.09299
1.13789
1.20972
1.24386
1.24317
1.22068
1.19344
1.14406
1.107
1.09584
1.10434
1.13437
1.17305
1.1778
1.17985
1.13312
1.07173
1.04805
1.10192
1.0869
1.0936
1.14152
1.21961
1.22847
1.22598
1.20218
1.1562
1.10714
1.06097
1.02823
1.03084
1.04071
1.04596
1.04997
1.03342
1.01647
1.00665
0.994228
1.10742
1.07184
1.07269
1.09552
1.17976
1.18341
1.19031
1.16693
1.13147
1.08224
1.03044
1.00135
0.992298
0.990458
0.995672
0.982596
0.988736
0.977017
0.985229
0.977017
1.11648
1.06111
1.0607
1.04677
1.06851
1.13009
1.12788
1.12114
1.09671
1.05669
1.01633
0.992691
0.973396
0.974283
0.972149
0.97345
0.972038
0.972532
0.97633
0.979969
1.18567
1.05342
1.05789
1.0378
1.03416
1.02844
1.04467
1.06095
1.04382
1.02959
1.00115