/*--------------------------------*- C++ -*----------------------------------*\
  =========                 |
  \\      /  F ield         | OpenFOAM: The Open Source CFD Toolbox
   \\    /   O peration     | Website:  https://openfoam.org
    \\  /    A nd           | Version:  10
     \\/     M anipulation  |
\*---------------------------------------------------------------------------*/
FoamFile
{
    format      ascii;
    class       volScalarField;
    location    "0.750724";
    object      T;
}
// * * * * * * * * * * * * * * * * * * * * * * * * * * * * * * * * * * * * * //

dimensions      [0 0 0 1 0 0 0];

internalField   nonuniform List<scalar> 
15984
(
0.00867638
0.0086751
0.00867449
0.00867453
0.0086748
0.00867497
0.00867598
0.00867603
0.00867774
0.00867745
0.00867923
0.00868103
0.00868275
0.00868463
0.00868669
0.00868863
0.00869063
0.0086924
0.0086945
0.00869617
0.00869832
0.0087001
0.00870206
0.00870385
0.0087057
0.00870765
0.00870967
0.00871173
0.00871384
0.00871588
0.00871805
0.00872028
0.00872247
0.008725
0.00872723
0.0087301
0.00873296
0.00873571
0.00873876
0.00874184
0.00874488
0.00874807
0.00875109
0.00875434
0.00875714
0.00876034
0.00876292
0.00876578
0.00876818
0.00877037
0.00877249
0.00877413
0.0087756
0.00877685
0.00867548
0.00867447
0.00867416
0.008674
0.00867396
0.00867451
0.0086747
0.00867539
0.00867551
0.00867721
0.00867887
0.00868086
0.00868295
0.00868526
0.00868738
0.00868954
0.00869151
0.00869351
0.00869545
0.00869741
0.00869935
0.00870133
0.00870312
0.00870506
0.00870697
0.00870885
0.00871081
0.0087127
0.00871473
0.0087166
0.0087187
0.0087206
0.00872263
0.00872492
0.00872686
0.00872958
0.00873198
0.00873452
0.00873716
0.00873988
0.00874269
0.00874539
0.00874822
0.00875093
0.00875378
0.00875644
0.0087589
0.0087614
0.00876326
0.00876544
0.00876718
0.00876879
0.00877034
0.00877156
0.00867263
0.0086717
0.00867123
0.00867122
0.00867181
0.00867272
0.00867242
0.008674
0.00867534
0.00867682
0.00867874
0.008681
0.0086831
0.00868541
0.00868752
0.00868967
0.00869185
0.00869383
0.00869585
0.00869793
0.00870007
0.00870202
0.00870412
0.00870602
0.00870783
0.00870968
0.00871158
0.00871339
0.00871537
0.00871712
0.00871907
0.00872087
0.00872286
0.00872489
0.00872668
0.0087291
0.00873105
0.00873348
0.00873556
0.00873804
0.00874045
0.00874286
0.00874513
0.00874766
0.00874994
0.00875216
0.00875454
0.00875648
0.00875862
0.0087603
0.00876208
0.00876384
0.00876501
0.00876637
0.00867069
0.00866971
0.00866857
0.00866867
0.00866879
0.00866947
0.00867117
0.00867309
0.00867483
0.00867671
0.00867848
0.00868055
0.00868255
0.00868506
0.00868726
0.00868982
0.00869201
0.00869434
0.00869643
0.00869882
0.0087007
0.00870301
0.0087049
0.0087068
0.00870872
0.00871057
0.0087125
0.0087143
0.0087162
0.00871797
0.00871979
0.00872155
0.00872331
0.00872511
0.00872681
0.0087289
0.00873071
0.00873276
0.00873453
0.00873658
0.00873872
0.00874064
0.00874263
0.00874479
0.00874666
0.00874862
0.00875058
0.00875236
0.00875402
0.0087555
0.00875704
0.00875825
0.0087598
0.008761
0.00866767
0.0086666
0.00866619
0.00866652
0.00866645
0.00866867
0.00866873
0.00867121
0.00867317
0.008675
0.00867743
0.00867982
0.00868246
0.00868495
0.00868749
0.00868985
0.00869222
0.00869452
0.00869692
0.00869914
0.00870146
0.00870354
0.00870575
0.00870761
0.00870952
0.00871148
0.00871332
0.00871529
0.00871718
0.00871903
0.00872076
0.00872259
0.00872413
0.00872579
0.00872738
0.00872914
0.00873068
0.00873249
0.00873384
0.00873556
0.00873736
0.00873899
0.00874065
0.00874207
0.00874365
0.00874546
0.00874722
0.00874832
0.00874963
0.00875084
0.00875188
0.00875305
0.00875418
0.008755
0.00866483
0.00866421
0.00866426
0.00866443
0.00866592
0.0086654
0.00866787
0.00866923
0.00867092
0.00867319
0.00867562
0.00867827
0.00868103
0.00868388
0.0086866
0.00868939
0.00869191
0.00869461
0.00869702
0.00869949
0.00870186
0.00870415
0.00870628
0.00870837
0.00871043
0.00871238
0.00871433
0.00871629
0.00871822
0.00872012
0.00872179
0.00872358
0.00872506
0.00872665
0.00872809
0.00872965
0.00873088
0.00873251
0.00873356
0.0087351
0.00873637
0.0087379
0.0087392
0.00874023
0.00874127
0.00874224
0.00874328
0.00874429
0.00874529
0.00874608
0.008747
0.00874794
0.00874846
0.00874903
0.00866174
0.0086609
0.00866095
0.00866106
0.00866276
0.00866215
0.00866564
0.00866564
0.00866886
0.00867138
0.00867404
0.00867711
0.00868021
0.00868316
0.00868628
0.00868901
0.00869187
0.00869446
0.00869706
0.00869962
0.00870212
0.00870462
0.00870681
0.00870912
0.00871119
0.00871336
0.00871543
0.00871752
0.00871951
0.00872139
0.00872307
0.00872473
0.00872614
0.00872754
0.00872892
0.00873034
0.00873147
0.00873287
0.00873374
0.00873505
0.00873586
0.00873674
0.00873783
0.00873838
0.00873908
0.00873978
0.00874045
0.00874088
0.00874126
0.0087415
0.00874185
0.00874244
0.00874275
0.00874288
0.00865784
0.00865766
0.0086577
0.00865777
0.00865935
0.00865904
0.00866264
0.00866248
0.00866657
0.0086691
0.00867246
0.00867572
0.00867897
0.00868218
0.00868516
0.00868811
0.00869108
0.00869392
0.00869671
0.00869945
0.00870216
0.00870466
0.00870723
0.00870963
0.00871194
0.00871421
0.00871635
0.00871845
0.00872055
0.00872245
0.0087243
0.00872597
0.00872751
0.00872887
0.00873031
0.00873166
0.00873268
0.00873371
0.00873461
0.0087355
0.00873606
0.00873637
0.00873675
0.0087371
0.00873756
0.00873766
0.00873775
0.00873761
0.0087376
0.00873731
0.0087369
0.00873755
0.0087372
0.00873657
0.00865505
0.00865422
0.00865421
0.00865481
0.0086549
0.00865732
0.00865942
0.00866137
0.0086646
0.00866696
0.00867047
0.00867344
0.00867669
0.00867982
0.00868303
0.00868631
0.00868959
0.00869283
0.00869592
0.00869892
0.00870185
0.0087046
0.00870738
0.00870998
0.00871245
0.00871487
0.00871717
0.00871943
0.00872163
0.00872367
0.00872563
0.00872742
0.00872911
0.00873057
0.00873195
0.00873322
0.00873426
0.00873476
0.00873591
0.00873604
0.00873671
0.00873666
0.00873726
0.00873686
0.00873709
0.00873604
0.00873601
0.00873482
0.00873363
0.00873286
0.00873199
0.00873082
0.0087306
0.00873053
0.00864955
0.00864951
0.00865009
0.00865028
0.00865231
0.00865228
0.00865538
0.0086581
0.00866111
0.00866486
0.00866837
0.00867169
0.00867509
0.00867841
0.00868197
0.00868551
0.00868885
0.00869194
0.00869513
0.00869818
0.00870138
0.0087045
0.00870748
0.00871043
0.00871294
0.00871566
0.00871798
0.00872041
0.0087228
0.00872507
0.00872718
0.00872922
0.00873094
0.00873252
0.00873383
0.00873523
0.00873613
0.00873669
0.0087376
0.00873764
0.0087381
0.00873782
0.00873804
0.0087369
0.00873669
0.00873523
0.00873462
0.00873238
0.00873208
0.00872909
0.00872871
0.00872592
0.00872481
0.00872272
0.0086459
0.0086453
0.00864588
0.00864581
0.00864907
0.00864972
0.00865301
0.00865593
0.00865848
0.00866207
0.00866517
0.00866893
0.00867273
0.00867667
0.0086809
0.00868391
0.00868697
0.00868983
0.00869323
0.00869678
0.00870067
0.00870416
0.00870736
0.00871024
0.00871291
0.00871573
0.0087184
0.00872118
0.00872389
0.00872647
0.00872888
0.00873106
0.00873296
0.00873471
0.00873607
0.00873766
0.00873841
0.00873933
0.00873949
0.00873996
0.00874039
0.00874012
0.00873911
0.00873774
0.00873703
0.00873561
0.00873392
0.00873133
0.00872909
0.00872551
0.00872279
0.00872169
0.00871778
0.00871527
0.00864007
0.00863999
0.00864059
0.00864098
0.00864373
0.00864607
0.00864889
0.00865176
0.00865576
0.00865841
0.0086635
0.00866589
0.00867201
0.00867409
0.00867854
0.0086816
0.00868594
0.00868944
0.00869357
0.00869736
0.00870118
0.00870423
0.00870705
0.00870954
0.00871234
0.00871532
0.00871865
0.00872204
0.00872523
0.0087283
0.00873103
0.00873343
0.00873555
0.00873738
0.00873887
0.00874044
0.00874146
0.00874196
0.00874285
0.0087427
0.00874293
0.00874108
0.00874104
0.00873907
0.00873884
0.00873544
0.00873424
0.00872915
0.00872863
0.00872287
0.00872246
0.00871297
0.00871357
0.00869367
0.00863404
0.00863414
0.0086344
0.00863678
0.00863863
0.00864169
0.00864486
0.00864811
0.00865146
0.00865566
0.00865937
0.00866457
0.00866706
0.00867409
0.00867418
0.00868197
0.0086823
0.0086903
0.00869001
0.00869651
0.00869906
0.00870287
0.00870686
0.00870999
0.00871295
0.0087159
0.00871932
0.00872283
0.00872648
0.00872988
0.00873289
0.00873565
0.008738
0.00874013
0.00874173
0.00874327
0.00874462
0.00874551
0.00874562
0.00874616
0.00874543
0.00874561
0.00874298
0.00874314
0.00873878
0.00873835
0.00873232
0.00873195
0.00872374
0.00872342
0.0087083
0.00870861
0.00866178
0.00867772
0.00862956
0.0086296
0.00863034
0.00863214
0.00863387
0.00863764
0.00864027
0.00864436
0.00864799
0.00865182
0.00865607
0.00866019
0.00866456
0.00866895
0.0086739
0.00867759
0.00868266
0.0086864
0.00869114
0.0086945
0.00869807
0.0087015
0.00870525
0.00870918
0.00871342
0.00871719
0.00872106
0.00872467
0.00872823
0.00873164
0.00873479
0.00873786
0.00874061
0.00874304
0.00874503
0.00874688
0.00874867
0.00874967
0.00875006
0.00875083
0.00875027
0.0087484
0.008748
0.00874446
0.00874287
0.00873838
0.00873489
0.00873068
0.00872373
0.00871792
0.00869327
0.00868976
0.00856585
0.00855639
0.00862439
0.00862442
0.00862565
0.00862676
0.00862889
0.00863211
0.00863514
0.00863917
0.00864333
0.00864789
0.00865201
0.00865765
0.00866081
0.00866799
0.00866868
0.00867712
0.008677
0.00868676
0.0086863
0.00869489
0.00869476
0.00870158
0.00870556
0.00870921
0.00871292
0.00871674
0.00872096
0.00872529
0.00872974
0.00873397
0.00873763
0.0087409
0.00874382
0.00874655
0.00874884
0.00875121
0.00875319
0.00875459
0.00875532
0.00875528
0.00875485
0.00875368
0.00875174
0.00874858
0.00874355
0.00874168
0.00873667
0.00873052
0.00871897
0.00871182
0.00864879
0.00864209
0.00830052
0.00828168
0.00861737
0.00861856
0.00862011
0.00862082
0.00862474
0.00862726
0.00863114
0.00863466
0.00863926
0.00864294
0.00864943
0.00865081
0.00866066
0.00866077
0.0086693
0.00866962
0.00867965
0.00867934
0.00868889
0.0086881
0.00869563
0.00870054
0.00870503
0.00870907
0.0087131
0.00871723
0.00872193
0.00872659
0.00873136
0.00873602
0.0087402
0.00874413
0.00874756
0.00875075
0.00875335
0.00875618
0.00875805
0.00876001
0.00876029
0.00876077
0.00875967
0.00875929
0.00875489
0.00875494
0.00875007
0.00874761
0.00873294
0.00873259
0.00870178
0.00870273
0.00850913
0.00850686
0.00761315
0.00638992
0.00861013
0.00861294
0.00861415
0.00861746
0.00861901
0.0086229
0.00862629
0.00863075
0.00863514
0.00863935
0.00864472
0.00864819
0.00865542
0.00865827
0.00866533
0.00866868
0.00867569
0.00867881
0.00868504
0.00868945
0.00869408
0.00869916
0.00870347
0.00870818
0.00871274
0.00871775
0.00872291
0.00872819
0.00873369
0.00873888
0.00874343
0.00874757
0.00875112
0.0087546
0.00875757
0.00876096
0.00876335
0.00876615
0.0087669
0.00876744
0.00876667
0.00876348
0.00876337
0.00875759
0.00875505
0.00874054
0.00874304
0.00873131
0.00865762
0.00865708
0.00813416
0.0073667
0.00582841
0.00500951
0.0085943
0.00859872
0.00860566
0.00861011
0.00861428
0.00861787
0.00862187
0.0086261
0.00863063
0.00863567
0.00863969
0.00864803
0.0086473
0.00865897
0.0086579
0.00866941
0.00866844
0.00867922
0.00867882
0.00868964
0.00868927
0.0086978
0.00870305
0.008708
0.0087129
0.00871805
0.00872348
0.00872902
0.00873487
0.00874063
0.00874573
0.00875045
0.00875481
0.00875949
0.00876327
0.00876758
0.00877002
0.00877276
0.00877404
0.00877403
0.00877283
0.00877226
0.00876597
0.00876467
0.00875048
0.00875413
0.00873957
0.00872547
0.00852183
0.00827495
0.00695233
0.00535102
0.00470269
0.00445768
0.0085436
0.00856861
0.0085844
0.0085959
0.00860452
0.00861103
0.00861674
0.00862156
0.00862626
0.00863181
0.00863549
0.00864318
0.00864707
0.0086518
0.00866032
0.00866135
0.00866993
0.00867022
0.00868166
0.00868079
0.00869261
0.0086919
0.00870069
0.00870698
0.00871275
0.00871867
0.00872457
0.00873065
0.00873675
0.00874327
0.0087495
0.00875515
0.00876014
0.00876489
0.00876925
0.00877376
0.00877691
0.00878011
0.00878132
0.00878142
0.00878022
0.00877711
0.00877368
0.00876365
0.00876545
0.00875448
0.00873543
0.00852105
0.00824052
0.00648424
0.00522179
0.00468165
0.00447363
0.00439553
0.00839979
0.0084752
0.00852746
0.00856081
0.0085829
0.00859733
0.00860762
0.00861557
0.00862236
0.00862672
0.00863511
0.00863396
0.00864716
0.00864592
0.00865784
0.00865607
0.00866842
0.00866787
0.00867891
0.00867883
0.008688
0.00869402
0.00869964
0.00870523
0.0087115
0.00871834
0.00872558
0.00873266
0.00873943
0.00874633
0.00875292
0.00875915
0.00876494
0.00877035
0.00877523
0.00878007
0.00878374
0.0087876
0.008789
0.0087889
0.00878803
0.00878537
0.00877855
0.00877687
0.00876574
0.00875532
0.00856501
0.00821536
0.00636302
0.00516347
0.00459232
0.00441698
0.00437136
0.00436044
0.00803245
0.00824095
0.00837844
0.00846936
0.00852747
0.00856462
0.00858812
0.00860352
0.00861399
0.00862319
0.00862793
0.00863723
0.00863662
0.00864778
0.00864712
0.00865914
0.00865755
0.00866892
0.00866909
0.00868092
0.00868084
0.00869114
0.00869843
0.00870533
0.0087122
0.00871928
0.00872662
0.00873453
0.00874226
0.00875
0.00875743
0.00876443
0.00877057
0.00877607
0.00878158
0.00878704
0.00879145
0.00879581
0.00879713
0.0087971
0.00879591
0.00879242
0.00878493
0.00878134
0.00876777
0.00866699
0.00819651
0.00648561
0.00506014
0.00452703
0.00440509
0.00437562
0.00436584
0.00436958
0.00715695
0.00768825
0.00804345
0.00826571
0.00840451
0.00849104
0.00854434
0.00857807
0.00859892
0.00861343
0.00862351
0.00862977
0.00863901
0.00863943
0.00865018
0.00864953
0.00866074
0.0086604
0.00867224
0.00867176
0.00868453
0.00868473
0.00869432
0.00870477
0.00871277
0.0087205
0.00872857
0.00873718
0.00874598
0.00875471
0.00876329
0.00877188
0.00878009
0.00878635
0.00879161
0.00879617
0.00880029
0.00880456
0.00880566
0.00880549
0.0088037
0.00879718
0.00879468
0.00878574
0.00872019
0.00832543
0.0067223
0.00502149
0.00451819
0.00440631
0.0043811
0.00437258
0.00437775
0.00439293
0.00612373
0.00667322
0.00730758
0.00779835
0.00812458
0.00832688
0.00844888
0.00852183
0.00856659
0.00859415
0.00861169
0.00862368
0.00863191
0.00864148
0.00864165
0.00865306
0.00865267
0.00866375
0.00866372
0.00867428
0.00868278
0.00868587
0.00869829
0.00869891
0.00871342
0.00872187
0.00873021
0.00873921
0.00874897
0.00875825
0.0087681
0.00877837
0.00878736
0.00879445
0.00880109
0.00880617
0.00881114
0.00881449
0.00881486
0.00881411
0.00881111
0.00880462
0.00880159
0.00876928
0.00847424
0.00710088
0.00505672
0.00451748
0.00440698
0.00438591
0.00438031
0.00438654
0.00440231
0.00443419
0.00563113
0.00577861
0.00644556
0.00709929
0.00764597
0.00803206
0.00827827
0.00842663
0.00851194
0.00856225
0.00859217
0.00861238
0.00862195
0.00863708
0.00863704
0.00864711
0.00865363
0.00865643
0.00866672
0.00866654
0.00868138
0.00868093
0.00869416
0.00870431
0.00870531
0.00871722
0.00872663
0.00873756
0.00874716
0.00875828
0.00876904
0.00878148
0.00879492
0.00880582
0.00881387
0.00881815
0.00882281
0.00882398
0.00882354
0.00882171
0.00881579
0.0088159
0.00880319
0.00862545
0.0074963
0.00514928
0.00451971
0.0044102
0.00439217
0.00439024
0.0043957
0.00441021
0.00444341
0.00451357
0.0054424
0.00547338
0.00579273
0.00640378
0.00706563
0.0075999
0.00798413
0.00823823
0.00839895
0.00849668
0.00855391
0.00858973
0.00860701
0.0086249
0.00863017
0.00864207
0.0086426
0.00865336
0.00866173
0.00866597
0.00866952
0.00867647
0.00868025
0.00868426
0.00869543
0.00869293
0.00870449
0.00870548
0.00873175
0.00874983
0.00876547
0.00878075
0.00879777
0.00881183
0.00882159
0.00882786
0.00883227
0.00883265
0.00883152
0.00882768
0.00882488
0.00882277
0.00873634
0.00793259
0.00535056
0.00452389
0.00441356
0.00439969
0.00440063
0.00440393
0.0044171
0.00445028
0.00452065
0.00465664
0.00533895
0.00535148
0.00550157
0.00589984
0.00656779
0.0071694
0.00764812
0.00799287
0.00822752
0.00837829
0.00847572
0.00853527
0.00857514
0.0086001
0.0086173
0.00863075
0.00863568
0.00863814
0.00863828
0.00864567
0.00864583
0.00864555
0.00863401
0.0086088
0.00858769
0.00858756
0.00858789
0.00860845
0.00861511
0.00867618
0.00872802
0.00876864
0.00879612
0.00881734
0.0088303
0.00883773
0.00884042
0.00884008
0.00883726
0.00883413
0.00883733
0.00880547
0.00824799
0.0057065
0.00454342
0.0044154
0.00440777
0.00441051
0.00441055
0.00442359
0.00445318
0.00451727
0.00464567
0.00487396
0.00529007
0.00532764
0.0054984
0.00596926
0.00662301
0.00720769
0.00767115
0.00800359
0.00823088
0.00837692
0.00847167
0.00852608
0.00856514
0.00858354
0.00859281
0.00860098
0.00860693
0.00860026
0.00859588
0.00854655
0.00848164
0.00842301
0.00831633
0.00816389
0.00808789
0.00806326
0.00807707
0.00806185
0.00829329
0.00849878
0.00864995
0.00873942
0.00879144
0.00882182
0.00883805
0.00884658
0.00884758
0.0088459
0.00884193
0.00884349
0.00884369
0.00847566
0.00619017
0.00452276
0.00442247
0.00441663
0.00441878
0.00441704
0.00442902
0.00445288
0.00450658
0.00462015
0.00483161
0.00519557
0.00531019
0.00542811
0.00576007
0.006333
0.00693727
0.00745318
0.00784835
0.00813105
0.00832007
0.00843339
0.00849096
0.00852508
0.00853867
0.00854647
0.00854866
0.00846202
0.0083649
0.00823716
0.00803579
0.00779384
0.0074997
0.0072337
0.00692557
0.00666989
0.0065662
0.00655554
0.00657897
0.00676803
0.00707683
0.0079431
0.00842559
0.00867048
0.00877828
0.00882672
0.00884769
0.00885355
0.00885243
0.00884892
0.00885085
0.00885976
0.00868283
0.0061549
0.00458979
0.00443333
0.00442409
0.00442504
0.00442453
0.00443269
0.00445151
0.00449339
0.00458509
0.00476391
0.00508801
0.00562371
0.00577822
0.0061883
0.00678216
0.0073569
0.00780549
0.00812077
0.00830318
0.00839437
0.00843171
0.00843839
0.00843265
0.00833441
0.00806821
0.00777384
0.0074526
0.00702274
0.00664934
0.00632898
0.0060494
0.00579612
0.00560236
0.0054901
0.00539622
0.00534153
0.00533673
0.00537512
0.00545347
0.00563736
0.00600059
0.00691915
0.00790602
0.00848186
0.00874575
0.00883058
0.00885413
0.00885686
0.00885535
0.00885622
0.00884002
0.00845158
0.00623031
0.00465852
0.00444848
0.0044309
0.00443086
0.00443162
0.00443571
0.00445003
0.00448132
0.00454958
0.00468821
0.00495055
0.00540465
0.00612128
0.00759383
0.00791305
0.00810908
0.00824191
0.00830339
0.00829449
0.00821531
0.0079374
0.0074123
0.00685402
0.00640028
0.00596005
0.00556777
0.00529615
0.00511986
0.00500753
0.00493293
0.00488011
0.00484463
0.00482467
0.00480701
0.00479747
0.00479263
0.00479539
0.00481215
0.00486001
0.00492868
0.00507384
0.00535467
0.00613953
0.00754935
0.00843666
0.00875335
0.00884215
0.00885848
0.00885954
0.00885714
0.00882389
0.00843141
0.00648696
0.00477031
0.00447047
0.00443719
0.00443538
0.00443683
0.00443937
0.00444926
0.00447169
0.00452005
0.00461968
0.00481393
0.00516421
0.00574377
0.00661214
0.0078274
0.00774071
0.00753938
0.00716138
0.00666661
0.00599671
0.00552386
0.00509326
0.00479524
0.00467309
0.00461973
0.00458695
0.00456984
0.00457514
0.00461093
0.00465322
0.0046736
0.0046841
0.00469243
0.00469727
0.00469683
0.00469191
0.00468022
0.00467218
0.00467312
0.00468883
0.00472866
0.00482824
0.00512068
0.00609666
0.00760544
0.00849138
0.00879217
0.00885534
0.00886189
0.00885863
0.00882442
0.00846259
0.00681998
0.00491734
0.00450436
0.00444366
0.00443898
0.00444041
0.00444319
0.00444913
0.00446515
0.00449844
0.00456649
0.0047002
0.00494804
0.00537399
0.00605041
0.00704011
0.00505464
0.00487685
0.00472317
0.00458957
0.00452824
0.00447067
0.00445412
0.00445784
0.00449197
0.00455249
0.00467303
0.0047212
0.00482259
0.00492586
0.00499432
0.00504372
0.00504939
0.0050326
0.00498714
0.00492216
0.00486259
0.00479315
0.00473043
0.00469507
0.00467515
0.00466687
0.00468217
0.00477569
0.00512512
0.00622628
0.00783126
0.00864139
0.00883399
0.00885444
0.00885182
0.00881235
0.00842103
0.00718972
0.0050746
0.0045516
0.00445273
0.00444244
0.00444229
0.00444656
0.00444977
0.00446004
0.00448043
0.00452082
0.00460084
0.00475436
0.00503284
0.00550034
0.00621469
0.00717847
0.00438937
0.00441169
0.00444601
0.0045026
0.00459079
0.0047156
0.00487952
0.00508148
0.00533414
0.00567352
0.00600853
0.006383
0.00665787
0.00683063
0.00684039
0.0068022
0.00670654
0.0065396
0.00629043
0.00595336
0.00564579
0.00529888
0.00506777
0.00493774
0.00479717
0.00468937
0.00468821
0.00482468
0.00536566
0.00675499
0.00832346
0.00877289
0.00884371
0.00884923
0.00881146
0.00844209
0.00757037
0.00514286
0.00465303
0.00446067
0.004445
0.00444354
0.00444724
0.00444945
0.00445593
0.00446639
0.00448676
0.00452875
0.004613
0.00477327
0.0050626
0.00554587
0.00628114
0.00726371
0.00476935
0.00490106
0.00508266
0.00532985
0.00568072
0.00617164
0.00675086
0.00733503
0.00778892
0.00802579
0.00811768
0.00810468
0.00806752
0.00799057
0.00781313
0.00766193
0.00748721
0.00738049
0.00725383
0.00704374
0.00676975
0.00635822
0.00586562
0.00532179
0.00487007
0.00469844
0.0046995
0.00487822
0.00561153
0.0078501
0.00863047
0.00881605
0.00882779
0.00880471
0.00844137
0.00781139
0.00510776
0.00477184
0.00448199
0.00444735
0.00444421
0.00444593
0.00444952
0.00445266
0.00445899
0.00446808
0.00448692
0.00452328
0.00459568
0.00473648
0.00499678
0.00544237
0.00613325
0.00707606
0.00581302
0.00619521
0.00669483
0.00726597
0.00781008
0.00817663
0.00831093
0.00833499
0.00831364
0.00822562
0.00804519
0.00775961
0.00736186
0.00704392
0.00704408
0.00719947
0.0072519
0.00745912
0.0075148
0.00740817
0.00712895
0.00662882
0.00596799
0.00527214
0.0048501
0.00474567
0.00492738
0.00542314
0.007323
0.00841428
0.00877536
0.00880428
0.00879574
0.00841497
0.00795154
0.00507074
0.00489917
0.00452004
0.0044524
0.00444497
0.00444476
0.00444852
0.00444998
0.00445424
0.00445717
0.00446275
0.00447345
0.00449652
0.00454532
0.00464445
0.00483525
0.00517887
0.00574534
0.00656483
0.00753722
0.00795371
0.0082803
0.00841205
0.00844514
0.00843499
0.0083723
0.00820822
0.00790926
0.00749559
0.00702852
0.00654689
0.00630592
0.00627021
0.00636086
0.00663598
0.00708889
0.00742924
0.00749415
0.00737715
0.00703994
0.00645201
0.00563555
0.00505054
0.00485875
0.00488892
0.00505118
0.00676129
0.00818599
0.00871704
0.00874918
0.00878067
0.00838774
0.00799707
0.00507202
0.00508592
0.00454886
0.004465
0.00444449
0.0044438
0.00444767
0.00444935
0.00445163
0.00445471
0.00445691
0.00446102
0.00446797
0.00448378
0.00451472
0.00457525
0.00469243
0.00491314
0.00530412
0.00593328
0.00840563
0.0085048
0.00849552
0.00850036
0.00846614
0.00838917
0.00822619
0.00796368
0.00758173
0.00707664
0.00650733
0.00618365
0.00610249
0.00609881
0.0061914
0.00644599
0.00688327
0.00715254
0.0071991
0.00699149
0.00641029
0.00574136
0.00522832
0.00510526
0.00510888
0.00515367
0.00685527
0.00797088
0.00862665
0.00872436
0.0086919
0.00835445
0.00787774
0.00506191
0.00523481
0.00449676
0.004505
0.00444457
0.00444302
0.00444606
0.00444863
0.00444994
0.00445284
0.00445422
0.00445602
0.00445833
0.00445964
0.00446508
0.00447593
0.00449934
0.00454648
0.00463721
0.00480958
0.00513344
0.00853103
0.00852461
0.00852559
0.00850659
0.00845823
0.00834873
0.00817009
0.00789716
0.00750637
0.00700772
0.00644617
0.00618038
0.00606284
0.00606352
0.00607667
0.00617136
0.00629312
0.00633933
0.00627352
0.00598952
0.00561034
0.00535526
0.00525345
0.00518393
0.00552763
0.007056
0.00802449
0.0085432
0.00865237
0.00864311
0.00855712
0.00774213
0.00517716
0.0052555
0.00452769
0.00452017
0.00445544
0.00444253
0.00444364
0.00444721
0.00444879
0.00445043
0.00445299
0.00445429
0.00445521
0.00445578
0.00445564
0.00445576
0.00445775
0.00446432
0.00447896
0.00450921
0.0045665
0.00467026
0.00854515
0.00855088
0.00854756
0.00852207
0.00846968
0.00838192
0.00823449
0.00801771
0.00769816
0.00727506
0.00678983
0.00634612
0.00614225
0.00606513
0.00606243
0.00605446
0.00601542
0.00598496
0.00586284
0.00575613
0.00560152
0.00559096
0.00578119
0.00621398
0.00748721
0.00828466
0.00841943
0.00857
0.00862367
0.00861589
0.00697295
0.00515457
0.00514194
0.00454295
0.00454483
0.00445729
0.00444377
0.00444185
0.00444628
0.00444832
0.00444963
0.00445218
0.00445402
0.00445442
0.00445509
0.00445436
0.00445398
0.00445199
0.00445039
0.00444924
0.00444986
0.00445266
0.0044624
0.00448326
0.00856919
0.00856054
0.00855811
0.00854242
0.00851786
0.00846825
0.00838518
0.0082438
0.00803022
0.0077252
0.00734038
0.00691773
0.00652896
0.00637142
0.0061394
0.00618943
0.00606372
0.00606653
0.00600773
0.00601178
0.00612451
0.00641267
0.00710643
0.00805572
0.00824817
0.0085661
0.00855923
0.00867526
0.00864463
0.00598236
0.00593683
0.00498107
0.00465873
0.00455722
0.00444221
0.00444988
0.00444144
0.00444463
0.00444787
0.00444946
0.00445186
0.00445293
0.00445441
0.00445522
0.00445535
0.0044553
0.00445454
0.00445307
0.0044508
0.00444659
0.00444281
0.0044379
0.00443325
0.00442951
0.00856458
0.00856531
0.00855902
0.00855341
0.00853968
0.00851943
0.00848156
0.00842083
0.0083235
0.00817751
0.00797288
0.00771598
0.00743022
0.00714148
0.00695725
0.00676785
0.00677453
0.00676485
0.00690899
0.00715715
0.00750527
0.0080668
0.00818792
0.00849554
0.00848955
0.00853622
0.00844878
0.00781663
0.00566333
0.0058436
0.00507606
0.00464238
0.00457553
0.00445034
0.00444954
0.00444288
0.00444296
0.0044477
0.00444941
0.00445081
0.00445306
0.00445427
0.00445563
0.00445616
0.0044562
0.00445522
0.00445439
0.00445188
0.00444958
0.00444701
0.00444254
0.00443803
0.00443086
0.00442422
0.00856567
0.00855936
0.0085594
0.00855406
0.0085476
0.00853642
0.00852185
0.00849726
0.00846045
0.0084051
0.00832791
0.008228
0.0081117
0.00799451
0.00792477
0.00784834
0.00785864
0.00788283
0.00801644
0.00813698
0.00822524
0.00834286
0.00832252
0.00832277
0.00817004
0.00790262
0.00727781
0.00611481
0.00518618
0.0051855
0.00466078
0.00453894
0.00445753
0.00445107
0.0044441
0.00444352
0.00444834
0.00444964
0.00445213
0.00445318
0.00445506
0.00445594
0.00445642
0.0044568
0.00445555
0.0044552
0.00445358
0.00445152
0.0044497
0.00444695
0.00444373
0.00443863
0.00443262
0.00442447
0.00855677
0.0085563
0.00855214
0.00854893
0.00854291
0.008537
0.00852679
0.00851564
0.00849967
0.0084815
0.00845806
0.00842936
0.00839545
0.00836249
0.0083307
0.00832605
0.00831897
0.0083251
0.00833749
0.00834516
0.00833873
0.0083352
0.00830766
0.00821447
0.00767719
0.00663064
0.0053983
0.00540488
0.00480631
0.0047677
0.00449756
0.00447188
0.00444692
0.00444682
0.00444537
0.00444895
0.00445138
0.00445268
0.00445435
0.00445502
0.00445573
0.00445598
0.00445627
0.00445591
0.00445522
0.00445448
0.00445269
0.00445059
0.00444875
0.00444567
0.00444287
0.00443742
0.00443241
0.00442425
0.00854541
0.00853948
0.00853884
0.0085333
0.00852533
0.00851962
0.00850915
0.00850011
0.00848693
0.00847274
0.00845561
0.00843621
0.00841647
0.00839416
0.00837584
0.00835669
0.00833528
0.00831279
0.00828097
0.00821363
0.00809247
0.0078631
0.00739348
0.0065309
0.00581409
0.00522862
0.0051161
0.00480496
0.0045651
0.00456534
0.00445686
0.00445173
0.00444733
0.00444738
0.00445004
0.00445349
0.00445437
0.00445648
0.00445698
0.00445727
0.00445734
0.00445732
0.00445752
0.00445699
0.00445616
0.0044546
0.00445294
0.004451
0.0044492
0.00444625
0.00444299
0.00443814
0.00443278
0.00442562
0.008523
0.00851356
0.00851158
0.00850163
0.00849021
0.00847718
0.00846254
0.00844577
0.00842993
0.00840986
0.00838984
0.00836547
0.00833636
0.00830276
0.0082607
0.00820259
0.00811896
0.00798801
0.00777302
0.00743256
0.00687481
0.00632321
0.00572322
0.00530415
0.00504224
0.00481803
0.00462376
0.00458448
0.0044845
0.00448391
0.00444879
0.00444849
0.00444756
0.00445325
0.00445495
0.00445739
0.00445926
0.00445986
0.00446041
0.00446072
0.00446081
0.00446069
0.00445989
0.0044586
0.00445725
0.00445588
0.00445439
0.00445294
0.00445095
0.00444841
0.00444467
0.00444047
0.0044347
0.00442801
0.00846955
0.00845652
0.00845936
0.0084383
0.00841439
0.00838402
0.00834491
0.00830634
0.00825677
0.00820506
0.00813967
0.00806206
0.00796176
0.00782563
0.00763369
0.0073538
0.00696819
0.00656649
0.00614657
0.00573581
0.00545465
0.00517263
0.00484462
0.00486196
0.00461882
0.00460997
0.00449975
0.00448909
0.00446187
0.00444816
0.0044485
0.00444911
0.00445545
0.00445761
0.00446078
0.00446277
0.00446386
0.00446457
0.00446496
0.00446481
0.00446431
0.00446336
0.00446219
0.00446062
0.00446028
0.00445825
0.00445838
0.00445646
0.00445441
0.00445245
0.00444962
0.00444678
0.00444178
0.00443556
0.00828699
0.00832301
0.00831071
0.00829554
0.00824385
0.00818344
0.00808619
0.00798537
0.00784482
0.00768007
0.00745401
0.00718578
0.00685527
0.00649339
0.0061263
0.00579305
0.00552231
0.00527331
0.00507544
0.00493466
0.00479475
0.00465091
0.00465096
0.00452701
0.00452709
0.0044624
0.00446231
0.0044479
0.00444767
0.00444673
0.00444809
0.00445758
0.00445966
0.00446327
0.00446568
0.00446774
0.004469
0.00446951
0.00446972
0.0044692
0.004468
0.00446738
0.00446621
0.00446598
0.00446432
0.00446388
0.00446216
0.00446252
0.00446182
0.00446277
0.00446247
0.00446278
0.00445884
0.00445522
0.00788221
0.00785426
0.0079086
0.00788705
0.00782855
0.00771473
0.00752823
0.00731143
0.00703584
0.00672097
0.00636649
0.00601743
0.00569068
0.00539994
0.00514603
0.0049468
0.00480243
0.00471372
0.00465737
0.00456224
0.00456591
0.00449752
0.00450066
0.0044527
0.00445462
0.00444024
0.00444121
0.00443995
0.00444485
0.00444772
0.00445884
0.00446091
0.00446616
0.00446929
0.00447198
0.00447324
0.00447448
0.00447501
0.00447483
0.00447364
0.00447327
0.00447191
0.00447076
0.00446893
0.00446887
0.00446899
0.00447423
0.00447406
0.00448426
0.0044818
0.00449031
0.00448921
0.00449126
0.00449031
0.00659093
0.00674493
0.00671109
0.0067378
0.00670072
0.00660621
0.00641094
0.00619487
0.00593936
0.00569012
0.00543097
0.00518485
0.00497692
0.00480009
0.00466531
0.00459
0.00454408
0.00450579
0.00448793
0.00445849
0.00445975
0.00443727
0.00443514
0.00442808
0.00442808
0.00442871
0.00443569
0.00444046
0.00444879
0.00445353
0.00446421
0.00446501
0.00447126
0.00447362
0.00447627
0.00447789
0.0044789
0.00447927
0.00447947
0.00447995
0.0044787
0.00447732
0.00447619
0.0044815
0.00448189
0.00448945
0.00449387
0.00450332
0.00450405
0.00451763
0.00451724
0.00453529
0.0045343
0.00454409
0.00523299
0.0053297
0.00538618
0.00544537
0.00542189
0.00542208
0.00535436
0.00526013
0.00511825
0.00496963
0.00484218
0.00470798
0.00460161
0.00452459
0.00447824
0.0044467
0.00444718
0.00442802
0.00442267
0.0044153
0.00441297
0.00441074
0.00441079
0.00441443
0.00442111
0.00442759
0.00443638
0.00444321
0.00445252
0.00445857
0.00446601
0.00447005
0.00447594
0.00447919
0.00448262
0.00448509
0.00448765
0.00448823
0.00448876
0.00448657
0.00448659
0.00448845
0.00449381
0.0044926
0.00450073
0.00450394
0.00450892