/*--------------------------------*- C++ -*----------------------------------*\
  =========                 |
  \\      /  F ield         | OpenFOAM: The Open Source CFD Toolbox
   \\    /   O peration     | Website:  https://openfoam.org
    \\  /    A nd           | Version:  10
     \\/     M anipulation  |
\*---------------------------------------------------------------------------*/
FoamFile
{
    format      ascii;
    class       volScalarField;
    location    "0.351479";
    object      p;
}
// * * * * * * * * * * * * * * * * * * * * * * * * * * * * * * * * * * * * * //

dimensions      [1 -1 -2 0 0 0 0];

internalField   nonuniform List<scalar> 
15708
(
2.52321
2.50639
2.49043
2.47545
2.46156
2.44886
2.4374
2.4272
2.41825
2.4105
2.40384
2.39818
2.39337
2.38928
2.38579
2.38282
2.3803
2.37821
2.37654
2.3753
2.37453
2.3743
2.37462
2.37556
2.37718
2.37947
2.3824
2.38594
2.38999
2.39447
2.39926
2.40425
2.40932
2.41434
2.41922
2.42388
2.42825
2.43228
2.43594
2.43922
2.44212
2.44465
2.44685
2.44876
2.45041
2.45187
2.4532
2.45447
2.45576
2.45713
2.45867
2.52598
2.50834
2.49147
2.47552
2.46062
2.44689
2.43443
2.42329
2.41348
2.40499
2.39775
2.39168
2.38666
2.38256
2.37928
2.37671
2.37475
2.37334
2.37245
2.37209
2.37225
2.37293
2.37421
2.37605
2.37848
2.38147
2.38497
2.38893
2.39325
2.39783
2.40256
2.40733
2.41204
2.41659
2.42092
2.42496
2.42869
2.43209
2.43516
2.43792
2.44038
2.44258
2.44456
2.44637
2.44806
2.44968
2.45128
2.45294
2.4547
2.45662
2.45876
2.52828
2.50986
2.49212
2.47523
2.45937
2.44466
2.43123
2.41917
2.40853
2.39933
2.39152
2.38505
2.37983
2.37576
2.3727
2.37054
2.36915
2.36846
2.36843
2.36898
2.37016
2.37189
2.37416
2.37696
2.38025
2.38398
2.38809
2.39248
2.39706
2.40171
2.40634
2.41085
2.41515
2.41918
2.4229
2.42629
2.42934
2.43208
2.43454
2.43675
2.43877
2.44063
2.44239
2.44411
2.44583
2.44762
2.4495
2.45155
2.45378
2.45625
2.45898
2.53007
2.51093
2.49237
2.47461
2.45782
2.44218
2.42784
2.4149
2.40346
2.39356
2.38521
2.37836
2.37297
2.36893
2.36609
2.36434
2.36355
2.3636
2.36442
2.36603
2.36828
2.37109
2.37443
2.37824
2.38244
2.38695
2.39168
2.3965
2.40133
2.40603
2.41053
2.41473
2.41859
2.42206
2.42514
2.42784
2.4302
2.43228
2.43412
2.43579
2.43735
2.43887
2.44042
2.44205
2.44382
2.44577
2.44794
2.45036
2.45306
2.45606
2.45935
2.53134
2.51153
2.49223
2.47365
2.456
2.43949
2.42427
2.41051
2.39831
2.38775
2.37888
2.37169
2.36614
2.36211
2.3595
2.35817
2.35798
2.35874
2.36055
2.36322
2.36658
2.37053
2.37498
2.37984
2.38498
2.39029
2.39564
2.4009
2.40596
2.41069
2.41503
2.41891
2.42229
2.42519
2.42761
2.42962
2.43129
2.4327
2.43393
2.43507
2.43619
2.43739
2.43874
2.44029
2.4421
2.44422
2.44666
2.44946
2.45261
2.4561
2.45993
2.53207
2.51167
2.49168
2.47235
2.45392
2.43659
2.42057
2.40603
2.39313
2.38197
2.37262
2.3651
2.35937
2.35537
2.35299
2.35209
2.35245
2.354
2.3568
2.36055
2.36505
2.37017
2.37577
2.3817
2.3878
2.39392
2.39989
2.40558
2.41085
2.41561
2.41977
2.42331
2.42622
2.42853
2.4303
2.43163
2.43263
2.43339
2.43403
2.43465
2.43536
2.43626
2.43742
2.4389
2.44077
2.44305
2.44576
2.44891
2.45248
2.45643
2.46074
2.53225
2.51132
2.49072
2.47072
2.45156
2.4335
2.41675
2.40152
2.38798
2.37627
2.36647
2.35863
2.35274
2.34877
2.34662
2.34615
2.34704
2.34943
2.35321
2.35803
2.36369
2.36999
2.37675
2.38376
2.39083
2.39775
2.40435
2.41045
2.41593
2.42069
2.42467
2.42787
2.4303
2.43204
2.43318
2.43387
2.43422
2.43436
2.43445
2.43459
2.43493
2.43554
2.43653
2.43798
2.4399
2.44235
2.44532
2.44879
2.45274
2.45711
2.46184
2.53183
2.51046
2.48933
2.46874
2.44896
2.43026
2.41287
2.39701
2.38289
2.37066
2.36045
2.35232
2.34631
2.34239
2.34047
2.3404
2.34185
2.34508
2.34981
2.3557
2.36251
2.36999
2.3779
2.38598
2.394
2.40171
2.40891
2.41542
2.42109
2.42585
2.42966
2.43252
2.4345
2.4357
2.43626
2.43633
2.4361
2.43567
2.43523
2.43495
2.43496
2.43533
2.43619
2.43758
2.43958
2.4422
2.4454
2.44917
2.45346
2.45819
2.46327
2.53082
2.5091
2.48754
2.46645
2.44614
2.42687
2.4089
2.39249
2.37785
2.36517
2.3546
2.34623
2.34013
2.33628
2.33462
2.33492
2.33698
2.341
2.34666
2.35361
2.36154
2.37016
2.37919
2.38832
2.39726
2.40573
2.41351
2.42041
2.42627
2.43104
2.43468
2.43724
2.43878
2.43949
2.43951
2.43907
2.43827
2.43732
2.43643
2.43577
2.43548
2.43569
2.43641
2.43779
2.43989
2.44265
2.44608
2.45013
2.4547
2.45972
2.46509
2.52921
2.50723
2.48532
2.46381
2.44304
2.42329
2.40483
2.38794
2.37287
2.35982
2.34895
2.34041
2.33426
2.33052
2.32915
2.3298
2.33248
2.33726
2.34383
2.35179
2.36079
2.37052
2.38062
2.39074
2.40056
2.40976
2.41809
2.42536
2.43141
2.43618
2.43968
2.44196
2.44314
2.4434
2.44298
2.44203
2.44074
2.43934
2.43806
2.43709
2.43658
2.43663
2.43729
2.43869
2.44086
2.4438
2.44744
2.45172
2.45653
2.46178
2.46734
2.52693
2.50478
2.4826
2.46078
2.43963
2.41949
2.40064
2.38337
2.36795
2.35461
2.34354
2.3349
2.32876
2.32518
2.32411
2.32513
2.32843
2.33395
2.3414
2.35031
2.36034
2.37109
2.38219
2.39324
2.40387
2.41375
2.42261
2.43022
2.43645
2.44126
2.44464
2.44669
2.44755
2.44743
2.44661
2.44524
2.44353
2.44176
2.44017
2.43894
2.43826
2.43822
2.43885
2.44031
2.44259
2.44569
2.44953
2.45401
2.45901
2.46442
2.47011
2.52397
2.50173
2.47938
2.45733
2.43591
2.41546
2.39632
2.37877
2.3631
2.34957
2.33838
2.32972
2.32368
2.32031
2.3196
2.321
2.32492
2.33118
2.33945
2.34927
2.36023
2.37193
2.38394
2.39583
2.4072
2.4177
2.42703
2.43497
2.44139
2.44623
2.44953
2.4514
2.45199
2.45161
2.45043
2.44868
2.44665
2.44459
2.44275
2.44134
2.44054
2.44047
2.44111
2.44266
2.44509
2.44837
2.45239
2.45704
2.46219
2.46771
2.47345
2.5203
2.49806
2.47564
2.45344
2.43183
2.41118
2.39182
2.3741
2.35829
2.34467
2.33348
2.32489
2.31904
2.31597
2.31565
2.3175
2.32206
2.32905
2.3381
2.34873
2.36054
2.37309
2.3859
2.39854
2.41057
2.42162
2.43137
2.43961
2.4462
2.4511
2.45436
2.45609
2.45648
2.45588
2.45443
2.45239
2.4501
2.44782
2.4458
2.44428
2.44344
2.44336
2.44409
2.44577
2.44838
2.45185
2.45605
2.46085
2.46612
2.4717
2.47743
2.51592
2.49376
2.47134
2.44908
2.42737
2.4066
2.38713
2.36933
2.35349
2.3399
2.32881
2.32043
2.31489
2.31222
2.31231
2.31473
2.31997
2.32768
2.33745
2.34884
2.36139
2.37467
2.38817
2.40144
2.41403
2.42554
2.43565
2.44416
2.45091
2.45589
2.45913
2.46077
2.46101
2.46024
2.45858
2.45636
2.45387
2.45143
2.44931
2.44774
2.44691
2.44691
2.44776
2.44962
2.45246
2.45614
2.46053
2.46549
2.47085
2.47645
2.48211
2.51083
2.48882
2.46646
2.44421
2.42249
2.40168
2.38219
2.3644
2.34865
2.33521
2.32438
2.31634
2.31124
2.3091
2.30968
2.3128
2.31873
2.32717
2.33763
2.34968
2.36289
2.37678
2.39085
2.40462
2.41765
2.42953
2.43994
2.44866
2.45556
2.46061
2.46386
2.46544
2.46558
2.46471
2.46291
2.46052
2.4579
2.45537
2.4532
2.45165
2.4509
2.45103
2.45207
2.45421
2.45731
2.46124
2.46584
2.47096
2.47641
2.48201
2.48757
2.50503
2.48323
2.461
2.43881
2.41713
2.39636
2.37693
2.35925
2.34372
2.33057
2.32013
2.31261
2.3081
2.30665
2.30781
2.31175
2.31849
2.32764
2.33876
2.35143
2.3652
2.37957
2.39407
2.40822
2.42155
2.43369
2.44431
2.45319
2.4602
2.4653
2.46857
2.47011
2.47021
2.46926
2.46733
2.46485
2.46215
2.45957
2.45741
2.45593
2.45532
2.45564
2.45697
2.45945
2.46287
2.46711
2.47197
2.47729
2.48284
2.48843
2.49387
2.49855
2.47699
2.45491
2.43284
2.41123
2.39055
2.37126
2.35379
2.33859
2.32589
2.31603
2.3092
2.30549
2.3049
2.30679
2.31169
2.31932
2.32924
2.34104
2.35427
2.36849
2.38323
2.39802
2.41237
2.42587
2.43813
2.44885
2.45781
2.46488
2.47001
2.47328
2.47482
2.47485
2.47382
2.47182
2.46926
2.46649
2.46391
2.46181
2.46045
2.46004
2.46063
2.46235
2.46524
2.46908
2.4737
2.4789
2.48446
2.49015
2.49574
2.50105
2.49142
2.4701
2.44819
2.42623
2.40472
2.38417
2.36508
2.34792
2.33317
2.32109
2.312
2.30609
2.30341
2.30379
2.30673
2.31274
2.32138
2.33216
2.34462
2.35836
2.37294
2.38791
2.40282
2.41723
2.43074
2.44299
2.4537
2.46263
2.46968
2.47478
2.47802
2.47951
2.47948
2.47835
2.47626
2.47363
2.47081
2.46823
2.46621
2.46503
2.4649
2.46583
2.46806
2.47146
2.47583
2.48095
2.48659
2.49247
2.49835
2.50398
2.50917
2.48368
2.46257
2.44079
2.41891
2.39749
2.37708
2.35823
2.34147
2.32731
2.31602
2.30793
2.3032
2.30182
2.30327
2.3077
2.31507
2.32484
2.33651
2.34965
2.36385
2.3787
2.39378
2.40867
2.42298
2.43634
2.44842
2.45896
2.46775
2.47466
2.47965
2.48278
2.48415
2.48401
2.48275
2.48055
2.47777
2.47489
2.4723
2.47038
2.46942
2.46962
2.47103
2.47389
2.47795
2.483
2.48878
2.49498
2.50129
2.50744
2.51317
2.51828
2.47537
2.4544
2.43267
2.41081
2.38942
2.36912
2.35054
2.33424
2.3208
2.31052
2.30371
2.30047
2.30059
2.30357
2.3098
2.31876
2.32979
2.34243
2.35626
2.3709
2.38594
2.401
2.41573
2.42977
2.44281
2.45455
2.46476
2.47325
2.47989
2.48465
2.48755
2.48869
2.48837
2.48688
2.48444
2.48147
2.47844
2.47582
2.47399
2.47329
2.47389
2.47592
2.47957
2.4845
2.49043
2.49705
2.50398
2.51087
2.5174
2.52331
2.52838
2.46659
2.44559
2.42377
2.40178
2.38031
2.36006
2.34173
2.32596
2.31339
2.30437
2.29915
2.29776
2.29955
2.30477
2.31315
2.32386
2.33631
2.35003
2.36461
2.37966
2.39481
2.40974
2.42415
2.43775
2.45028
2.4615
2.47119
2.4792
2.48541
2.48977
2.49229
2.49308
2.49245
2.49057
2.48776
2.48439
2.48112
2.47837
2.47662
2.47621
2.47727
2.48015
2.48479
2.49083
2.49792
2.50562
2.5135
2.52115
2.52821
2.53439
2.53949
2.45735
2.4361
2.41397
2.39165
2.36992
2.34959
2.33145
2.31625
2.3047
2.29722
2.29404
2.29474
2.29892
2.30694
2.31773
2.33045
2.34451
2.35944
2.37481
2.39024
2.40543
2.42011
2.43406
2.44705
2.45888
2.46936
2.47833
2.48565
2.49119
2.49488
2.49676
2.49695
2.49578
2.49334
2.48998
2.48617
2.48242
2.47945
2.47768
2.47758
2.47926
2.48318
2.4891
2.4966
2.50518
2.51429
2.5234
2.53203
2.53978
2.54636
2.55157
2.44759
2.42581
2.40307
2.38013
2.35791
2.33734
2.31935
2.30463
2.29415
2.2886
2.28794
2.29107
2.29864
2.30994
2.32349
2.33854
2.35446
2.37074
2.38693
2.40272
2.41787
2.43218
2.44551
2.45771
2.46865
2.4782
2.48622
2.49254
2.49704
2.49974
2.50064
2.50002
2.498
2.49469
2.49052
2.48599
2.48173
2.47834
2.47657
2.47676
2.47917
2.48436
2.49195
2.50132
2.51185
2.52278
2.53346
2.54336
2.55203
2.55915
2.56455
2.43719
2.41443
2.39071
2.36684
2.34387
2.32293
2.30478
2.29036
2.28133
2.27833
2.28028
2.28702
2.29889
2.31379
2.33051
2.34821
2.36621
2.38393
2.40098
2.41709
2.4321
2.44593
2.4585
2.46975
2.47961
2.48801
2.49472
2.49965
2.50282
2.50427
2.50401
2.50223
2.49897
2.49443
2.48902
2.4834
2.47825
2.47431
2.47233
2.47283
2.47617
2.48304
2.4928
2.50443
2.51753
2.5308
2.54345
2.55493
2.56476
2.57259
2.57827
2.42624
2.40265
2.37704
2.35176
2.32765
2.30589
2.28756
2.27203
2.26503
2.26605
2.27076
2.28234
2.29883
2.31804
2.33853
2.35932
2.37966
2.39895
2.41685
2.43323
2.44802
2.46124
2.47292
2.48306
2.49167
2.49858
2.50365
2.50697
2.50857
2.50842
2.50673
2.50337
2.49863
2.49253
2.4858
2.47861
2.47215
2.46733
2.46476
2.46518
2.4692
2.47794
2.4908
2.50577
2.52199
2.538
2.55304
2.56648
2.57773
2.58642
2.59246
2.41558
2.39161
2.36448
2.33714
2.31162
2.28876
2.2715
2.2502
2.24526
2.24913
2.25922
2.27863
2.3001
2.32351
2.34781
2.3719
2.3947
2.41559
2.43432
2.45089
2.46537
2.47788
2.48855
2.49746
2.50457
2.50972
2.51297
2.51442
2.51412
2.51227
2.50874
2.50367
2.49732
2.48982
2.48098
2.47266
2.46435
2.45843
2.45557
2.45547
2.4603
2.47203
2.48452
2.50515
2.52575
2.54471
2.56227
2.57785
2.59068
2.60032
2.60674
2.40665
2.37931
2.35037
2.32101
2.29372
2.26891
2.24817
2.22987
2.23177
2.24116
2.24446
2.27147
2.30027
2.32912
2.35792
2.3856
2.41097
2.43347
2.45298
2.46966
2.48374
2.49547
2.50504
2.5126
2.51801
2.52123
2.52249
2.52187
2.51959
2.5157
2.5104
2.50363
2.49501
2.48516
2.47517
2.46545
2.45522
2.44571
2.43995
2.43915
2.44497
2.45914
2.48033
2.50428
2.52714
2.55078
2.57116
2.58893
2.60337
2.61392
2.62068
2.39293
2.36366
2.33235
2.30059
2.26991
2.24409
2.22352
2.20859
2.20677
2.2176
2.2295
2.27103
2.30113
2.33596
2.36955
2.40063
2.4283
2.45217
2.47229
2.48897
2.50258
2.51347
2.52193
2.52801
2.53158
2.53281
2.532
2.52923
2.5248
2.51897
2.51159
2.50216
2.49372
2.48377
2.47129
2.45731
2.44301
2.43027
2.42211
2.42046
2.42653
2.44284
2.47007
2.50219
2.53122
2.55715
2.58001
2.59993
2.6157
2.62694
2.63388
2.37712
2.34619
2.3142
2.28226
2.25224
2.22572
2.20508
2.19244
2.19176
2.2028
2.23006
2.26444
2.30794
2.34693
2.38318
2.4167
2.44619
2.47109
2.49158
2.50811
2.52119
2.53124
2.5386
2.54315
2.54484
2.5441
2.54126
2.53639
2.5294
2.52132
2.51448
2.50592
2.49439
2.47995
2.46318
2.4452
2.42771
2.4128
2.40326
2.40085
2.40842
2.42807
2.46035
2.50031
2.53436
2.56374
2.58922
2.61066
2.62722
2.63887
2.6459
2.36173
2.32993
2.29751
2.26541
2.23559
2.20925
2.18909
2.17844
2.18063
2.19576
2.22826
2.26999
2.31559
2.35936
2.39834
2.4336
2.46414
2.48954
2.51008
2.52632
2.53882
2.54808
2.55434
2.55742
2.55731
2.55473
2.5501
2.54325
2.53655
2.52925
2.51976
2.50732
2.49181
2.47343
2.45281
2.43076
2.40954
2.39169
2.38208
2.37983
2.38917
2.41455
2.45401
2.50059
2.5397
2.57084
2.59823
2.62066
2.63769
2.6496
2.65666
2.34716
2.31425
2.28132
2.24985
2.22061
2.19589
2.17813
2.16908
2.17458
2.19476
2.23318
2.28046
2.32893
2.37428
2.4148
2.45079
2.48152
2.50684
2.52709
2.54284
2.55475
2.56333
2.56861
2.57039
2.56867
2.56513
2.55914
2.55239
2.54571
2.53552
2.52322
2.50734
2.4881
2.46618
2.4419
2.41561
2.39132
2.37005
2.35989
2.36167
2.37695
2.409
2.45458
2.50481
2.54501
2.57861
2.60711
2.62995
2.64725
2.65929
2.6663
2.33336
2.29988
2.26766
2.23752
2.20928
2.18532
2.16902
2.1636
2.174
2.20059
2.24455
2.2948
2.34595
2.391
2.43172
2.46746
2.4977
2.52248
2.54215
2.55724
2.56836
2.57612
2.58035
2.58182
2.5776
2.57691
2.57015
2.56321
2.55396
2.54145
2.52599
2.50716
2.48526
2.46103
2.4353
2.40563
2.37941
2.36203
2.35084
2.3529
2.37552
2.41502
2.46455
2.51528
2.55364
2.58772
2.61572
2.63856
2.65587
2.66778
2.67426
2.32152
2.28884
2.25875
2.23018
2.20428
2.18351
2.1684
2.16712
2.1835
2.21728
2.2643
2.31717
2.36543
2.40898
2.44837
2.48289
2.51213
2.53607
2.55498
2.56925
2.57946
2.58632
2.58921
2.58857
2.58846
2.587
2.58123
2.57254
2.5611
2.54655
2.52894
2.50842
2.48562
2.46142
2.43193
2.40652
2.38272
2.36657
2.36172
2.36738
2.39265
2.43406
2.47982
2.52756
2.56497
2.59662
2.62411
2.64672
2.66385
2.67502
2.6796
2.31499
2.28404
2.25632
2.231
2.20807
2.1905
2.18184
2.18531
2.20541
2.24147
2.28924
2.33775
2.38348
2.4253
2.46318
2.49631
2.52428
2.54717
2.56533
2.57877
2.58758
2.5923
2.59941
2.60089
2.6001
2.59689
2.59031
2.58063
2.56777
2.5519
2.5335
2.51355
2.49249
2.46627
2.44242
2.41962
2.39972
2.38679
2.38661
2.39468
2.4188
2.45439
2.50157
2.54069
2.57514
2.6049
2.63153
2.65371
2.66955
2.67987
2.68336
2.31429
2.28528
2.2604
2.23857
2.22011
2.2078
2.20424
2.21277
2.23577
2.2712
2.31371
2.35781
2.4001
2.43989
2.47592
2.50728
2.53375
2.55555
2.57276
2.58444
2.59207
2.60248
2.60878
2.61074
2.60993
2.60586
2.59862
2.58815
2.57463
2.55862
2.54127
2.52482
2.50082
2.47854
2.45833
2.43957
2.42556
2.41535
2.41475
2.42701
2.45038
2.48465
2.51818
2.55347
2.58457
2.61219
2.63668
2.65748
2.67314
2.68359
2.68895
2.31907
2.2889
2.268
2.25041
2.23673
2.22986
2.23072
2.24225
2.26495
2.29821
2.33616
2.37584
2.41557
2.45256
2.48632
2.51561
2.53984
2.56016
2.57812
2.5879
2.60092
2.61104
2.61724
2.61948
2.61823
2.61392
2.60642
2.59587
2.58254
2.56708
2.55137
2.53639
2.51444
2.49531
2.47816
2.46309
2.45197
2.44642
2.4476
2.45883
2.47977
2.50587
2.53631
2.56567
2.59313
2.61655
2.63866
2.66437
2.67245
2.68754
2.69445
2.32232
2.29652
2.27818
2.26378
2.25504
2.25219
2.25653
2.26966
2.29217
2.32211
2.35656
2.39283
2.42908
2.46318
2.49359
2.52075
2.54271
2.56199
2.58483
2.59626
2.60875
2.61923
2.62497
2.62695
2.62579
2.62159
2.61432
2.60412
2.59145
2.57713
2.56299
2.54915
2.53063
2.51383
2.49873
2.48688
2.47854
2.47525
2.47782
2.48773
2.50539
2.52887
2.55475
2.58059
2.59851
2.61027
2.64165
2.6633
2.68187
2.69257
2.70068
2.32784
2.30784
2.28768
2.2777
2.27303
2.27318
2.28013
2.29419
2.31563
2.34338
2.37454
2.40709
2.43954
2.47087
2.49819
2.52737
2.54727
2.56801
2.58952
2.60421
2.6172
2.62652
2.63209
2.63404
2.63318
2.6295
2.62286
2.61345
2.60179
2.58896
2.57625
2.56734
2.55219
2.52912
2.51864
2.5099
2.5039
2.50183
2.50468
2.5134
2.52818
2.54799
2.56914
2.58569
2.60752
2.60573
2.64315
2.67431
2.68894
2.69973
2.7063
2.33047
2.31756
2.30264
2.29059
2.29032
2.29299
2.30107
2.31531
2.33561
2.36066
2.38859
2.41741
2.44623
2.48044
2.50422
2.53025
2.55711
2.57473
2.59713
2.61191
2.62441
2.63335
2.63897
2.64126
2.64105
2.63823
2.63263
2.62438
2.61392
2.60219
2.59087
2.58387
2.57051
2.54688
2.53834
2.53059
2.52566
2.52427
2.526
2.53266
2.54428
2.56086
2.58046
2.6091
2.60571
2.62765
2.65783
2.67974
2.69534
2.70537
2.71085
2.33403
2.3214
2.31076
2.3075
2.30663
2.3097
2.31836
2.33171
2.35036
2.37285
2.39883
2.42855
2.45388
2.49088
2.51196
2.53825
2.56485
2.58485
2.60415
2.61902
2.63101
2.63995
2.64592
2.64894
2.64952
2.64782
2.6435
2.63659
2.62742
2.61658
2.60506
2.59423
2.58492
2.5723
2.55289
2.5486
2.54296
2.54177
2.54212
2.54929
2.5626
2.57856
2.58783
2.60825
2.62591
2.64353
2.67015
2.68671
2.7009
2.70985
2.71435
2.34095
2.32701
2.31818
2.3159
2.31577
2.32391
2.33226
2.34451
2.36311
2.38588
2.4121
2.43802
2.46449
2.49566
2.52449
2.54846
2.5725
2.59264
2.61058
2.62534
2.6373
2.64648
2.653
2.65703
2.65856
2.65807
2.65516
2.64978
2.64211
2.6325
2.62139
2.60924
2.59697
2.58762
2.57733
2.56571
2.56082
2.56001
2.56105
2.56476
2.57483
2.58995
2.59925
2.62032
2.63769
2.65491
2.67586
2.69108
2.70385
2.71257
2.71674
2.3472
2.33396
2.3268
2.32633
2.32679
2.33126
2.34438
2.35788
2.37618
2.39787
2.42498
2.45055
2.47724
2.50722
2.53255
2.55706
2.57923
2.59896
2.61638
2.63106
2.6433
2.65286
2.66012
2.6652
2.66789
2.66851
2.66703
2.66319
2.65708
2.64887
2.63883
2.62774
2.6173
2.60515
2.59604
2.58549
2.57816
2.576
2.57583
2.57935
2.58593
2.59885
2.61244
2.62836
2.64515
2.66169
2.6786
2.69302
2.70509
2.71382
2.71803
2.3524
2.34072
2.33527
2.33445
2.33668
2.34428
2.35568
2.37147
2.39047
2.41207
2.43592
2.46218
2.48808
2.51521
2.53994
2.56329
2.58476
2.60415
2.62136
2.63623
2.64879
2.65905
2.66709
2.67313
2.67707
2.67868
2.67849
2.67607
2.67143
2.66482
2.65634
2.64674
2.6369
2.62604
2.61408
2.60426
2.59624
2.59173
2.58998
2.59164
2.59709
2.60562
2.61809
2.63227
2.64771
2.66344
2.67891
2.69289
2.70481
2.7138
2.71839
2.3574
2.3467
2.34211
2.34147
2.34511
2.35351
2.36577
2.38207
2.40122
2.42259
2.44592
2.47081
2.49599
2.52128
2.54537
2.56807
2.58913
2.60834
2.62552
2.64068
2.6537
2.66465
2.67353
2.68052
2.68568
2.6885
2.6893
2.68823
2.68512
2.67987
2.67283
2.6644
2.65477
2.6433
2.632
2.62136
2.61195
2.60475
2.60103
2.60025
2.60322
2.60967
2.61965
2.6321
2.64649
2.66166
2.67677
2.69082
2.70309
2.71278
2.7181
2.36235
2.35235
2.3483
2.34804
2.35252
2.36152
2.37435
2.39054
2.4095
2.43062
2.45344
2.47739
2.50179
2.52602
2.54942
2.57163
2.59239
2.61151
2.62884
2.64429
2.6578
2.6694
2.67909
2.68697
2.69315
2.69725
2.69899
2.69906
2.69711
2.69308
2.6871
2.67938
2.66983
2.65875
2.64713
2.6355
2.62459
2.61506
2.60899
2.60552
2.6056
2.60974
2.61749
2.62838
2.64165
2.65635
2.67162
2.68637
2.69978
2.71076
2.71731
2.36789
2.35791
2.35418
2.35422
2.35919
2.36855
2.3815
2.39764
2.41632
2.43702
2.45928
2.48252
2.50616
2.52961
2.5524
2.57418
2.59469
2.61374
2.63119
2.64693
2.6609
2.67308
2.6835
2.69214
2.69912
2.70431
2.7071
2.70794
2.70698
2.70389
2.69876
2.69151
2.68229
2.67142
2.65937
2.64677
2.63436
2.62295
2.61344
2.60713
2.60458
2.60583
2.61102
2.61997
2.63226
2.64698
2.66305
2.67942
2.69484
2.70791
2.71615
2.37408
2.36395
2.36011
2.36034
2.36548
2.37495
2.38789
2.40383
2.42219
2.44245
2.46411
2.48666
2.50955
2.53231
2.55451
2.57586
2.5961
2.61504
2.63255
2.64852
2.66286
2.67554
2.68653
2.69583
2.7035
2.7095
2.71326
2.71473
2.71455
2.71229
2.70772
2.70099
2.69213
2.68131
2.66888
2.65534
2.64138
2.62783
2.61558
2.60563
2.5995
2.59761
2.59969
2.60649
2.61776
2.63274
2.65033
2.66924
2.68785
2.70395
2.71541
2.38121
2.37062
2.36659
2.36675
2.37185
2.38124
2.39404
2.40969
2.42764
2.44738
2.46841
2.49022
2.51235
2.53439
2.55597
2.57682
2.59671
2.61546
2.63293
2.64901
2.66361
2.67667
2.68811
2.69794
2.70616
2.71278
2.71733
2.71945
2.71985
2.71822
2.71419
2.70797
2.69942
2.68864
2.67584
2.66139
2.64583
2.62989
2.61458
2.60099
2.58974
2.58316
2.58175
2.58538
2.59528
2.61091
2.63112
2.65424
2.67799
2.69927
2.71374
2.38942
2.37823
2.37383
2.37378
2.3787
2.38787
2.40041
2.41566
2.43312
2.45223
2.47251
2.49351
2.51481
2.53604
2.55691
2.57716
2.5966
2.61505
2.63237
2.64845
2.66317
2.67647
2.68824
2.69844
2.7071
2.71417
2.71937
2.72214
2.72297
2.7219
2.71841
2.71264
2.70441
2.69369
2.68057
2.66523
2.64801
2.62949
2.61077
2.5926
2.57613
2.56304
2.55698
2.55692
2.56562
2.58297
2.60745
2.63669
2.66716
2.6943
2.7132
2.39879
2.38691
2.38202
2.38168
2.38628
2.39511
2.40727
2.42201
2.43884
2.45721
2.47664
2.49672
2.51708
2.53742
2.55747
2.57701
2.59588
2.61389
2.63093
2.64687
2.66159
2.67501
2.68701
2.69749
2.70643
2.71383
2.71952
2.7229
2.72413
2.72356
2.7206
2.7153
2.70741
2.69682
2.68342
2.66716
2.64818
2.62696
2.60389
2.5802
2.55707
2.5356
2.52101
2.51566
2.51985
2.53711
2.5656
2.60275
2.64254
2.67986
2.70866
2.40938
2.3967
2.39119
2.39054
2.39469
2.40307
2.41473
2.42885
2.44495
2.46244
2.48091
2.49996
2.51929
2.53863
2.55775
2.57648
2.59465
2.61212
2.62875
2.64442
2.659
2.67239
2.68448
2.69514
2.70429
2.71194
2.71804
2.72196
2.7236
2.72351
2.72107
2.71626
2.70877
2.69832
2.68464
2.66745
2.64666
2.6221
2.59426
2.56384
2.53226
2.50107
2.47397
2.46138
2.4603
2.48063
2.51945
2.57362
2.63389
2.68967
2.72582
2.46044
2.46253
2.46498
2.46787
2.47125
2.47514
2.47957
2.48455
2.49007
2.49609
2.50258
2.50946
2.51668
2.52413
2.53175
2.53942
2.54707
2.55461
2.56196
2.56907
2.57587
2.58232
2.5884
2.5941
2.59939
2.6043
2.46117
2.46388
2.46696
2.47042
2.47429
2.47859
2.48333
2.48849
2.49405
2.49999
2.50624
2.51277
2.5195
2.52637
2.53331
2.54025
2.54713
2.55389
2.56048
2.56686
2.57299
2.57886
2.58446
2.58978
2.59483
2.59963
2.462
2.46532
2.46898
2.47297
2.4773
2.48196
2.48695
2.49224
2.4978
2.5036
2.50958
2.51571
2.52193
2.52819
2.53444
2.54064
2.54675
2.55273
2.55857
2.56423
2.56972
2.57502
2.58016
2.58514
2.58997
2.59469
2.46295
2.46685
2.47105
2.47552
2.48025
2.48521
2.49039
2.49575
2.50126
2.50687
2.51254
2.51824
2.52392
2.52955
2.5351
2.54056
2.54591
2.55113
2.55623
2.56121
2.56608
2.57085
2.57556
2.58023
2.58488
2.58954
2.46407
2.46849
2.47315
2.47804
2.4831
2.48831
2.49362
2.49898
2.50438
2.50975
2.51506
2.52029
2.52542
2.53041
2.53528
2.54001
2.54461
2.5491
2.55349
2.55782
2.56211
2.56639
2.57071
2.5751
2.57961
2.58426
2.46536
2.47023
2.47531
2.48053
2.48585
2.49122
2.49658
2.50189
2.50711
2.51219
2.51711
2.52185
2.52641
2.53078
2.53497
2.53899
2.54288
2.54666
2.55039
2.5541
2.55784
2.56168
2.56566
2.56983
2.57423
2.5789
2.46687
2.47211
2.47751
2.48299
2.48849
2.49393
2.49928
2.50445
2.50943
2.51417
2.51868
2.5229
2.5269
2.53062
2.53417
2.53748
2.54071
2.54383
2.54693
2.55007
2.55333
2.55677
2.56046
2.56445
2.56879
2.57354
2.46863
2.47416
2.47979
2.48544
2.49101
2.49645
2.50167
2.50664
2.51132
2.51569
2.51974
2.52345
2.52686
2.52998
2.53286
2.53554
2.5381
2.54061
2.54313
2.54576
2.54858
2.55168
2.55513
2.559
2.56335
2.56821
2.47069
2.47642
2.48219
2.4879
2.49346
2.49878
2.50381
2.5085
2.51283
2.51677
2.52033
2.52349
2.52631
2.52882
2.53107
2.53312
2.53507
2.537
2.539
2.54118
2.54362
2.54644
2.54972
2.55353
2.55794
2.56298
2.4731
2.47894
2.48474
2.49042
2.49585
2.50097
2.50572
2.51006
2.51397
2.51744
2.52046
2.52306
2.52528
2.52717
2.52879
2.53025
2.53162
2.53301
2.53453
2.53631
2.53845
2.54106
2.54423
2.54805
2.55258
2.55786
2.47594
2.48179
2.48753
2.49306
2.49826
2.50309
2.50747
2.51138
2.51481
2.51773
2.52018
2.52219
2.52377
2.52505
2.52605
2.52692
2.52774
2.52863
2.52972
2.53115
2.53303
2.5355
2.53864
2.54256
2.5473
2.5529
2.47927
2.48503
2.49061
2.49589
2.50078
2.50521
2.50914
2.51254
2.5154
2.51773
2.51955
2.52091
2.52185
2.52248
2.52287
2.52315
2.52343
2.52384
2.52453
2.52566
2.52734
2.52973
2.53293
2.53702
2.54207
2.54807
2.48316
2.48875
2.49408
2.49902
2.5035
2.50745
2.51083
2.51363
2.51586
2.51751
2.51865
2.51929
2.51955
2.51951
2.51927
2.51893
2.51866
2.51861
2.51893
2.51975
2.52129
2.52368
2.52702
2.53139
2.53685
2.54338
2.48769
2.49304
2.49803
2.50255
2.50652
2.5099
2.51265
2.51476
2.51626
2.51717
2.51753
2.51743
2.51695
2.51616
2.51523
2.51424
2.5134
2.51287
2.51283
2.51337
2.51477
2.51723
2.5208
2.52557
2.53157
2.53875
2.49295
2.49799
2.50257
2.50659
2.50998
2.51269
2.51471
2.51605
2.51673
2.5168
2.51634
2.51538
2.51405
2.51246
2.51075
2.50908
2.5076
2.50654
2.50607
2.50638
2.50766
2.51021
2.51413
2.51942
2.52611
2.53411
2.499
2.50368
2.50779
2.51125
2.51397
2.51595
2.51716
2.51763
2.5174
2.51654
2.51511
2.51319
2.51092
2.50843
2.50585
2.50337
2.50117
2.49948
2.49854
2.49857
2.49975
2.5024
2.50679
2.51277
2.52034
2.52937
2.50591
2.5102
2.5138
2.51664
2.51864
2.5198
2.5201
2.51963
2.51839
2.51645
2.51393
2.51095
2.50762
2.50407
2.50048
2.49704
2.49397
2.49153
2.48999
2.48966
2.4907
2.4935
2.49847
2.50535
2.51405
2.52438
2.51377
2.51764
2.5207
2.52286
2.52409
2.52435
2.5237
2.52215
2.51975
2.51664
2.51291
2.50871
2.50415
2.49937
2.49458
2.48998
2.48583
2.48244
2.48015
2.47931
2.48015
2.4831
2.48877
2.49685
2.50703
2.51898
2.52261
2.52605
2.52854
2.53001
2.5304
2.52973
2.52801
2.52526
2.52161
2.51719
2.51211
2.50651
2.50052
2.49431
2.48806
2.48206
2.47656
2.47196
2.46867
2.46715
2.46763
2.47065
2.47727
2.48691
2.49899
2.51294
2.53247
2.53549
2.5374
2.53814
2.53767
2.536
2.53308
2.52906
2.52404
2.51816
2.51154
2.50437
2.49677
2.48892
2.481
2.47328
2.46618
2.46008
2.45554
2.45304
2.45294
2.45581
2.4633
2.47502
2.48959
2.50603
2.54338
2.54598
2.54731
2.54728
2.54593
2.54315
2.53898
2.53359
2.52706
2.51957
2.51122
2.50224
2.49302
2.48333
2.47385
2.46449
2.45489
2.44707
2.44113
2.43755
2.43628
2.43845
2.44843
2.46118
2.47872
2.49805
2.5553
2.55751
2.55821
2.55744
2.55512
2.55118
2.5457
2.53882
2.53064
2.52138
2.51125
2.5003
2.48947
2.47801
2.46608
2.45512
2.44245
2.43132
2.4229
2.41775
2.41631
2.41812
2.4277
2.44462
2.46633
2.48937
2.56816
2.56998
2.57004
2.5685
2.56518
2.56004
2.55317
2.54465
2.53473
2.52372
2.51177
2.49883
2.48574
2.47073
2.45547
2.44173
2.43102
2.41989
2.40899
2.40012
2.39484
2.39559
2.40798
2.42185
2.45229
2.47967
2.58179
2.5832
2.58266
2.58029
2.57593
2.56957
2.56118
2.55099
2.53938
2.52663
2.51269
2.49575
2.47947
2.46562
2.45059
2.43461
2.41866
2.40292
2.38814
2.37639
2.37027
2.37156
2.38205
2.40172
2.43574
2.46554
2.59591
2.59692
2.59574
2.59251
2.58712
2.57948
2.56955
2.55771
2.54441
2.52925
2.51127
2.49603
2.47829
2.45995
2.44125
2.42171
2.40307
2.38573
2.3703
2.35739
2.34961
2.35084
2.3623
2.38507
2.41921
2.45732
2.61011
2.6107
2.60887
2.60478
2.5984
2.58954
2.5782
2.56451
2.54742
2.52973
2.51272
2.49331
2.47298
2.45185
2.43102
2.41091
2.39127
2.37281
2.35708
2.34232
2.33289
2.33452
2.34788
2.37226
2.40862
2.45059
2.62394
2.6241
2.62156
2.61659
2.6093
2.59947
2.58654
2.56953
2.55271
2.53262
2.5117
2.48965
2.46735
2.44507
2.42317
2.40237
2.38194
2.3625
2.34145
2.3277
2.32068
2.32344
2.3386
2.36589
2.40518
2.44972
2.63694
2.63664
2.63334
2.62749
2.61936
2.60857
2.59147
2.57534
2.55534
2.53342
2.51055
2.48687
2.46302
2.43971
2.41805
2.39824
2.37737
2.35631
2.3372
2.32284
2.31612
2.32076
2.3397
2.36951
2.40996
2.45313
2.64874
2.64795
2.64404
2.63756
2.62811
2.6172
2.59929
2.57949
2.55779
2.53435
2.50955
2.48425
2.45946
2.43648
2.41643
2.39477
2.37615
2.35684
2.33943
2.32597
2.32266
2.33101
2.35088
2.381
2.41892
2.45942
2.6593
2.65802
2.653
2.64448
2.63714
2.62276
2.60411
2.58316
2.55995
2.53477
2.50842
2.48217
2.45743
2.43509
2.41702
2.39787
2.37935
2.362
2.34739
2.33848
2.33858
2.34766
2.36679
2.39492
2.42906
2.46545
2.66864
2.66641
2.65969
2.65421
2.64096
2.62641
2.60787
2.58615
2.56168
2.53516
2.50783
2.48156
2.45763
2.43952
2.42145
2.40006
2.38388
2.36885
2.35714
2.35228
2.35395
2.3635
2.38154
2.40723
2.43814
2.47115
2.67542
2.67153
2.66795
2.65874
2.64607
2.63046
2.61144
2.58894
2.56348
2.53596
2.50806
2.48255
2.46224
2.44002
2.41839
2.40291
2.38803
2.37502
2.36632
2.36358
2.36652
2.37653
2.39382
2.41737
2.44521
2.47503
2.6792
2.67915
2.67317
2.66422
2.65085
2.63446
2.61474
2.59154
2.56533
2.53707
2.50852
2.4827
2.46071
2.44101
2.41971
2.40448
2.3913
2.37908
2.3729
2.37136
2.37541
2.38556
2.40192
2.42327
2.44822
2.47515
2.68605
2.68385
2.67841
2.66928
2.65538
2.6382
2.61796
2.59451
2.56821
2.53999
2.51152
2.48539
2.46484
2.44478
2.41722
2.40421
2.39216
2.38203
2.37661
2.37548
2.37982
2.38964
2.40495
2.42478
2.44826
2.47442
2.69053
2.68959
2.68384
2.67401
2.65977
2.64182
2.62103
2.59762
2.57149
2.54349
2.51482
2.4874
2.46337
2.44446
2.42275
2.39982
2.39196
2.38067
2.37624
2.37548
2.37975
2.38949
2.40467
2.42391
2.44482
2.47086
2.6964
2.69543
2.6889
2.67841
2.66397
2.64583
2.62444
2.6006
2.57457
2.54676
2.51818
2.49007
2.46393
2.44044
2.42083
2.40107
2.38543
2.37582
2.37191
2.37128
2.37557
2.38452
2.39942
2.41995
2.43976
2.46202
2.70225
2.70033
2.69349
2.68268
2.66816
2.65003
2.62851
2.60405
2.5774
2.54914
2.52004
2.49108
2.46332
2.4376
2.41433
2.39402
2.37731
2.36668
2.36279
2.36297
2.3676
2.37747
2.39213
2.41034
2.43031
2.45148
2.70746
2.70494
2.69794
2.68709
2.67259
2.65447
2.63295
2.60832
2.58105
2.5519
2.52174
2.4915
2.46215
2.43445
2.40909
2.38669
2.36872
2.35705
2.35284
2.35244
2.35715
2.36693
2.38121
2.39876
2.41845
2.43925
2.71183
2.7091
2.70227
2.69163
2.67727
2.65916
2.63745
2.61243
2.58454
2.55443
2.5229
2.49097
2.45965
2.42981
2.4022
2.37766
2.35738
2.34549
2.33996
2.33902
2.34337
2.35286
2.36695
2.3845
2.40432
2.42527
2.71526
2.71263
2.70617
2.69597
2.68187
2.66384
2.64194
2.61639
2.58762
2.55628
2.52321
2.48942
2.45596
2.42382
2.39387
2.36699
2.34467
2.33167
2.32437
2.32291
2.32676
2.33595
2.35002
2.36784
2.38813
2.40964
2.71772
2.71538
2.70937
2.69975
2.68597
2.66808
2.646
2.6199
2.59017
2.55744
2.52261
2.48674
2.45098
2.41643
2.38413
2.35481
2.33024
2.31537
2.30613
2.30403
2.3072
2.31604
2.33021
2.34857
2.36974
2.39237
2.71922
2.71732
2.71186
2.70262
2.68925
2.67151
2.64927
2.62259
2.59184
2.55763
2.52091
2.48279
2.44456
2.40751
2.37276
2.34123
2.31442
2.29586
2.28544
2.28227
2.28439
2.29286
2.30719
2.32633
2.34881
2.37322
2.71988
2.71853
2.71348
2.70463
2.69153
2.67387
2.65141
2.62415
2.59237
2.5567
2.51805
2.47767
2.43691
2.39725
2.35997
2.3261
2.29696
2.27402
2.26207
2.25722
2.25782
2.26581