/*--------------------------------*- C++ -*----------------------------------*\
  =========                 |
  \\      /  F ield         | OpenFOAM: The Open Source CFD Toolbox
   \\    /   O peration     | Website:  https://openfoam.org
    \\  /    A nd           | Version:  10
     \\/     M anipulation  |
\*---------------------------------------------------------------------------*/
FoamFile
{
    format      ascii;
    class       surfaceScalarField;
    location    "0.351479";
    object      phi;
}
// * * * * * * * * * * * * * * * * * * * * * * * * * * * * * * * * * * * * * //

dimensions      [1 0 -1 0 0 0 0];

internalField   nonuniform List<scalar> 
31108
(
0.000426512
-4.29715e-05
0.000421495
-4.22809e-05
0.00041628
-4.12018e-05
0.000410861
-3.97391e-05
0.000405249
-3.7877e-05
0.000399456
-3.56072e-05
0.000393502
-3.29337e-05
0.000387427
-2.98724e-05
0.000381268
-2.64543e-05
0.000375074
-2.27241e-05
0.000368916
-1.8736e-05
0.000362826
-1.45587e-05
0.000356876
-1.026e-05
0.000351126
-5.91968e-06
0.000345611
-1.60983e-06
0.00034038
2.59053e-06
0.00033544
6.61368e-06
0.000330831
1.04177e-05
0.000326539
1.39713e-05
0.000322551
1.7218e-05
0.00031885
2.01341e-05
0.000315425
2.27193e-05
0.000312303
2.49484e-05
0.000309449
2.68666e-05
0.000306807
2.85007e-05
0.00030439
2.98685e-05
0.000302201
3.10155e-05
0.000300252
3.19835e-05
0.000298534
3.28226e-05
0.00029707
3.35788e-05
0.000295864
3.42981e-05
0.000294919
3.50212e-05
0.000294277
3.5784e-05
0.000293919
3.66134e-05
0.00029386
3.75213e-05
0.000294101
3.85201e-05
0.000294621
3.95977e-05
0.000295425
4.07377e-05
0.000296504
4.19172e-05
0.000297837
4.30984e-05
0.000299412
4.42418e-05
0.000301222
4.52982e-05
0.000303244
4.62243e-05
0.000305462
4.69627e-05
0.000307855
4.7471e-05
0.000310406
4.76972e-05
0.000313088
4.76024e-05
0.000315874
4.71498e-05
0.000318741
4.63148e-05
0.000321656
4.50796e-05
4.34408e-05
0.000324593
0.000427315
-3.68628e-05
0.000422573
-3.61833e-05
0.000417651
-3.51179e-05
0.000412542
-3.3673e-05
0.00040724
-3.18368e-05
0.000401747
-2.9598e-05
0.000396091
-2.69622e-05
0.000390286
-2.39436e-05
0.000384383
-2.05745e-05
0.000378401
-1.68992e-05
0.000372395
-1.29708e-05
0.000366425
-8.85672e-06
0.000360529
-4.62742e-06
0.000354773
-3.62574e-07
0.000349211
3.85706e-06
0.000343882
7.95963e-06
0.000338803
1.18786e-05
0.000334002
1.55573e-05
0.000329482
1.89678e-05
0.000325248
2.20524e-05
0.000321323
2.47464e-05
0.000317697
2.70726e-05
0.00031433
2.90559e-05
0.000311216
3.06843e-05
0.000308372
3.20003e-05
0.000305783
3.30338e-05
0.000303446
3.38332e-05
0.000301379
3.44469e-05
0.00029959
3.49326e-05
0.000298074
3.53398e-05
0.000296856
3.57214e-05
0.000295941
3.61223e-05
0.000295321
3.65791e-05
0.000295005
3.71197e-05
0.000294989
3.7759e-05
0.000295261
3.84985e-05
0.000295802
3.93356e-05
0.000296602
4.02444e-05
0.000297637
4.12021e-05
0.000298901
4.21629e-05
0.000300367
4.30953e-05
0.000302024
4.39407e-05
0.00030385
4.46584e-05
0.000305828
4.51881e-05
0.000307954
4.54875e-05
0.000310198
4.55083e-05
0.000312552
4.52104e-05
0.000315
4.45602e-05
0.000317515
4.35357e-05
0.000320084
4.2122e-05
4.03205e-05
0.000322686
0.000428056
-3.07478e-05
0.000423588
-3.00693e-05
0.000418957
-2.90119e-05
0.000414149
-2.7582e-05
0.000409153
-2.57667e-05
0.000403966
-2.35585e-05
0.000398598
-2.09605e-05
0.000393066
-1.79892e-05
0.0003874
-1.46758e-05
0.000381623
-1.10632e-05
0.000375779
-7.20659e-06
0.000369913
-3.16987e-06
0.000364071
9.72153e-07
0.000358311
5.13837e-06
0.000352683
9.25491e-06
0.000347236
1.32437e-05
0.000342
1.70376e-05
0.000336985
2.05964e-05
0.000332212
2.38645e-05
0.000327772
2.67161e-05
0.000323579
2.9208e-05
0.00031967
3.13142e-05
0.000316037
3.30292e-05
0.000312686
3.43796e-05
0.000309617
3.53924e-05
0.000306842
3.61096e-05
0.000304358
3.65836e-05
0.000302181
3.68709e-05
0.000300318
3.70321e-05
0.000298774
3.71234e-05
0.000297557
3.72037e-05
0.000296664
3.73153e-05
0.000296095
3.75008e-05
0.000295838
3.77865e-05
0.000295871
3.81831e-05
0.000296193
3.86966e-05
0.000296758
3.93153e-05
0.000297557
4.00079e-05
0.000298567
4.0759e-05
0.000299751
4.1517e-05
0.000301106
4.22403e-05
0.000302608
4.2879e-05
0.000304243
4.33831e-05
0.000305984
4.36993e-05
0.000307834
4.37808e-05
0.000309782
4.35807e-05
0.00031181
4.30622e-05
0.000313916
4.21914e-05
0.000316089
4.09517e-05
0.000318323
3.93318e-05
3.73358e-05
0.000320608
0.000428762
-2.46385e-05
0.000424563
-2.39543e-05
0.00042022
-2.2898e-05
0.000415713
-2.1477e-05
0.000411019
-1.96783e-05
0.000406132
-1.74967e-05
0.000401044
-1.49346e-05
0.000395774
-1.20109e-05
0.000390335
-8.75602e-06
0.000384752
-5.21314e-06
0.000379057
-1.43594e-06
0.000373285
2.50396e-06
0.000367486
6.5424e-06
0.000361708
1.05967e-05
0.000356001
1.45912e-05
0.000350421
1.84487e-05
0.000345009
2.2101e-05
0.000339759
2.55422e-05
0.000334786
2.85769e-05
0.000330038
3.12587e-05
0.000325558
3.3536e-05
0.000321357
3.54039e-05
0.000317448
3.68656e-05
0.000313839
3.79371e-05
0.000310542
3.86614e-05
0.000307573
3.90796e-05
0.000304946
3.92532e-05
0.000302661
3.92405e-05
0.00030073
3.91089e-05
0.000299167
3.89174e-05
0.000297963
3.87308e-05
0.000297109
3.85892e-05
0.000296607
3.85363e-05
0.000296413
3.86005e-05
0.000296517
3.87849e-05
0.000296888
3.90996e-05
0.000297484
3.95181e-05
0.000298293
4.00261e-05
0.000299262
4.05802e-05
0.000300384
4.11461e-05
0.000301622
4.16695e-05
0.000302962
4.2106e-05
0.00030439
4.2397e-05
0.000305899
4.24919e-05
0.000307476
4.23484e-05
0.000309115
4.19145e-05
0.000310818
4.11556e-05
0.000312584
4.00444e-05
0.000314422
3.85623e-05
0.000316328
3.67062e-05
3.44814e-05
0.000318309
0.000429432
-1.85545e-05
0.000425515
-1.78557e-05
0.000421462
-1.67931e-05
0.000417247
-1.53732e-05
0.000412846
-1.35834e-05
0.000408248
-1.14204e-05
0.000403436
-8.88901e-06
0.000398416
-6.0089e-06
0.000393204
-2.81126e-06
0.000387798
6.56909e-07
0.00038224
4.33981e-06
0.000376551
8.17807e-06
0.000370768
1.20988e-05
0.000364952
1.60272e-05
0.00035916
1.98816e-05
0.000353438
2.35856e-05
0.000347807
2.71001e-05
0.000342365
3.03331e-05
0.000337097
3.31826e-05
0.00033206
3.56553e-05
0.000327266
3.77098e-05
0.000322764
3.93335e-05
0.000318563
4.05369e-05
0.000314689
4.1341e-05
0.00031116
4.17888e-05
0.000307993
4.19273e-05
0.000305213
4.18206e-05
0.000302833
4.15363e-05
0.000300849
4.11426e-05
0.000299276
4.07045e-05
0.000298106
4.02806e-05
0.000297302
3.99247e-05
0.000296872
3.9666e-05
0.000296763
3.95411e-05
0.000296938
3.95457e-05
0.000297371
3.96858e-05
0.000298001
3.99364e-05
0.000298801
4.0271e-05
0.000299745
4.06539e-05
0.000300784
4.10406e-05
0.000301906
4.13772e-05
0.000303089
4.16134e-05
0.000304304
4.16958e-05
0.000305561
4.15752e-05
0.00030685
4.11927e-05
0.00030818
4.05122e-05
0.000309558
3.94988e-05
0.000310993
3.81229e-05
0.000312495
3.63761e-05
0.000314084
3.42532e-05
3.17719e-05
0.000315762
0.000430096
-1.25205e-05
0.000426458
-1.17961e-05
0.000422685
-1.07205e-05
0.000418754
-9.29005e-06
0.000414644
-7.49772e-06
0.000410329
-5.3422e-06
0.000405783
-2.83101e-06
0.000401002
1.45576e-08
0.000395988
3.15415e-06
0.000390752
6.54963e-06
0.000385304
1.01414e-05
0.000379672
1.38702e-05
0.000373906
1.76634e-05
0.000368045
2.14473e-05
0.000362141
2.51405e-05
0.000356263
2.86679e-05
0.00035044
3.20142e-05
0.000344746
3.50147e-05
0.000339185
3.76668e-05
0.000333831
3.99083e-05
0.000328717
4.17198e-05
0.000323896
4.30933e-05
0.0003194
4.40366e-05
0.000315236
4.45757e-05
0.000311473
4.47551e-05
0.00030812
4.46259e-05
0.000305198
4.42655e-05
0.000302721
4.37342e-05
0.000300709
4.31085e-05
0.000299134
4.24517e-05
0.000298002
4.18281e-05
0.000297278
4.1288e-05
0.000296923
4.08598e-05
0.000296904
4.05772e-05
0.000297157
4.04366e-05
0.00029765
4.04306e-05
0.000298317
4.05364e-05
0.000299123
4.07308e-05
0.000300028
4.09558e-05
0.000300993
4.11844e-05
0.000301979
4.13527e-05
0.000302968
4.14065e-05
0.000303971
4.12876e-05
0.000304961
4.09416e-05
0.000305961
4.03212e-05
0.000306978
3.93905e-05
0.00030802
3.81027e-05
0.000309112
3.64453e-05
0.000310282
3.4407e-05
0.00031155
3.19919e-05
2.92182e-05
0.000312945
0.000430753
-6.56389e-06
0.000427377
-5.80966e-06
0.000423892
-4.70678e-06
0.000420265
-3.25137e-06
0.000416437
-1.44044e-06
0.000412397
7.2417e-07
0.000408103
3.22813e-06
0.000403552
6.04832e-06
0.000398722
9.14675e-06
0.000393611
1.24779e-05
0.000388276
1.59835e-05
0.000382681
1.95991e-05
0.000376902
2.32555e-05
0.000370974
2.68788e-05
0.000364932
3.03896e-05
0.000358888
3.37297e-05
0.000352862
3.68453e-05
0.000346886
3.9616e-05
0.000341025
4.20199e-05
0.000335339
4.40226e-05
0.000329901
4.55591e-05
0.000324753
4.66796e-05
0.000319926
4.73441e-05
0.000315512
4.76183e-05
0.000311505
4.75346e-05
0.000307961
4.71548e-05
0.000304916
4.65563e-05
0.00030237
4.57965e-05
0.000300319
4.49692e-05
0.000298767
4.41187e-05
0.000297699
4.33334e-05
0.000297044
4.26353e-05
0.000296799
4.20786e-05
0.000296882
4.16745e-05
0.00029721
4.14105e-05
0.000297773
4.12981e-05
0.000298483
4.12894e-05
0.00029928
4.13565e-05
0.000300132
4.14751e-05
0.000300987
4.15691e-05
0.000301841
4.15861e-05
0.000302637
4.14737e-05
0.000303406
4.11601e-05
0.000304121
4.06084e-05
0.000304818
3.97508e-05
0.000305497
3.85572e-05
0.000306191
3.69931e-05
0.000306936
3.50334e-05
0.000307766
3.2682e-05
0.000308718
2.99479e-05
2.68521e-05
0.000309831
0.000431381
-7.28495e-07
0.000428313
7.3364e-08
0.000425126
1.21435e-06
0.000421779
2.70743e-06
0.000418243
4.55558e-06
0.000414463
6.75309e-06
0.000410421
9.27745e-06
0.000406065
1.20989e-05
0.000401397
1.51748e-05
0.000396426
1.84546e-05
0.000391132
2.18789e-05
0.000385583
2.53829e-05
0.000379766
2.88976e-05
0.000373727
3.23445e-05
0.000367573
3.56552e-05
0.00036128
3.87816e-05
0.000355052
4.16265e-05
0.000348773
4.41445e-05
0.000342616
4.62754e-05
0.000336564
4.79761e-05
0.00033079
4.92434e-05
0.000325315
5.00666e-05
0.000320184
5.04543e-05
0.000315497
5.04472e-05
0.000311266
5.01032e-05
0.00030756
4.94775e-05
0.000304381
4.8648e-05
0.000301783
4.76865e-05
0.000299727
4.66687e-05
0.000298217
4.56667e-05
0.00029722
4.47333e-05
0.000296671
4.39136e-05
0.000296538
4.32656e-05
0.000296712
4.2759e-05
0.00029715
4.24284e-05
0.000297788
4.22185e-05
0.000298526
4.21424e-05
0.000299319
4.21439e-05
0.000300109
4.2169e-05
0.00030085
4.21705e-05
0.000301525
4.20712e-05
0.000302139
4.18039e-05
0.000302628
4.13387e-05
0.000303056
4.05786e-05
0.000303417
3.94958e-05
0.000303739
3.80446e-05
0.000304078
3.61899e-05
0.000304458
3.39234e-05
0.000304943
3.12391e-05
0.000305574
2.81555e-05
2.47068e-05
0.000306401
0.000432054
4.9404e-06
0.000429273
5.79296e-06
0.000426388
6.99599e-06
0.000423339
8.55371e-06
0.000420073
1.04699e-05
0.000416562
1.27263e-05
0.000412743
1.53026e-05
0.000408564
1.8154e-05
0.000404058
2.1235e-05
0.000399174
2.44879e-05
0.000393941
2.78495e-05
0.000388359
3.12485e-05
0.000382472
3.46183e-05
0.000376323
3.78817e-05
0.000369972
4.0967e-05
0.000363487
4.38472e-05
0.000356973
4.64024e-05
0.000350405
4.86233e-05
0.000343872
5.04277e-05
0.000337506
5.18144e-05
0.000331393
5.27545e-05
0.000325576
5.32517e-05
0.000320157
5.33351e-05
0.000315206
5.30371e-05
0.000310767
5.24253e-05
0.000306887
5.15473e-05
0.000303646
5.0497e-05
0.000300989
4.9341e-05
0.000298961
4.81567e-05
0.000297511
4.70148e-05
0.000296594
4.59681e-05
0.000296202
4.50739e-05
0.00029616
4.43242e-05
0.00029649
4.37809e-05
0.000297027
4.33908e-05
0.000297722
4.31609e-05
0.000298497
4.30516e-05
0.000299261
4.3027e-05
0.000299999
4.30127e-05
0.000300628
4.29603e-05
0.000301103
4.27759e-05
0.000301478
4.24166e-05
0.000301689
4.17944e-05
0.000301799
4.08759e-05
0.000301796
3.95883e-05
0.000301737
3.78832e-05
0.000301677
3.57444e-05
0.00030168
3.3153e-05
0.000301789
3.01195e-05
0.000302103
2.66584e-05
2.28186e-05
0.000302652
0.000432705
1.03773e-05
0.00043025
1.13031e-05
0.0004277
1.25809e-05
0.000424941
1.42357e-05
0.000421983
1.62542e-05
0.00041872
1.86176e-05
0.000415114
2.12839e-05
0.000411122
2.42099e-05
0.000406712
2.73321e-05
0.000401907
3.05942e-05
0.000396654
3.39121e-05
0.000391033
3.72233e-05
0.000385039
4.0453e-05
0.000378699
4.35225e-05
0.000372154
4.63677e-05
0.000365434
4.89627e-05
0.00035863
5.11986e-05
0.000351706
5.30829e-05
0.000344853
5.45087e-05
0.000338136
5.55318e-05
0.000331664
5.60919e-05
0.000325533
5.62368e-05
0.000319826
5.5971e-05
0.000314635
5.53602e-05
0.000309994
5.44533e-05
0.000305998
5.33214e-05
0.000302671
5.20419e-05
0.000300029
5.06955e-05
0.000298038
4.93558e-05
0.000296678
4.80846e-05
0.000295912
4.69525e-05
0.000295626
4.59811e-05
0.000295759
4.52048e-05
0.000296231
4.46423e-05
0.000296863
4.42453e-05
0.000297641
4.40403e-05
0.000298455
4.39603e-05
0.000299214
4.39506e-05
0.000299862
4.39499e-05
0.000300352
4.38998e-05
0.000300642
4.3702e-05
0.000300704
4.32804e-05
0.000300646
4.25853e-05
0.000300372
4.15184e-05
0.00029997
4.00492e-05
0.000299492
3.8117e-05
0.000299007
3.56941e-05
0.000298601
3.27783e-05
0.000298333
2.93768e-05
0.00029828
2.55169e-05
2.12457e-05
0.000298544
0.000433396
1.55134e-05
0.000431291
1.65262e-05
0.000429069
1.7912e-05
0.000426666
1.97006e-05
0.000423983
2.18658e-05
0.000420976
2.43858e-05
0.000417577
2.7201e-05
0.000413715
3.0254e-05
0.000409416
3.34713e-05
0.000404613
3.67813e-05
0.000399327
4.00946e-05
0.000393608
4.33438e-05
0.000387445
4.64378e-05
0.000380908
4.9315e-05
0.00037409
5.18968e-05
0.000367091
5.41834e-05
0.000359964
5.60667e-05
0.000352684
5.75234e-05
0.00034548
5.85538e-05
0.000338412
5.9131e-05
0.000331592
5.92721e-05
0.000325151
5.90004e-05
0.000319175
5.83455e-05
0.000313743
5.73785e-05
0.000308964
5.61476e-05
0.000304874
5.47341e-05
0.000301518
5.3215e-05
0.000298898
5.16675e-05
0.000296982
5.0175e-05
0.000295769
4.87875e-05
0.000295144
4.75752e-05
0.000295042
4.65655e-05
0.000295374
4.57946e-05
0.000295963
4.52257e-05
0.000296756
4.49047e-05
0.000297633
4.47696e-05
0.000298495
4.47706e-05
0.000299223
4.48585e-05
0.000299798
4.49427e-05
0.000300125
4.49681e-05
0.000300173
4.48159e-05
0.000299946
4.44146e-05
0.000299517
4.36845e-05
0.000298838
4.25458e-05
0.000297988
4.09362e-05
0.000297051
3.87946e-05
0.000296092
3.61038e-05
0.000295225
3.28622e-05
0.000294545
2.90778e-05
0.000294107
2.47929e-05
2.00517e-05
0.000294037
0.000434128
2.02663e-05
0.00043239
2.13792e-05
0.000430554
2.29093e-05
0.000428503
2.48772e-05
0.000426122
2.72504e-05
0.00042338
2.99865e-05
0.000420171
3.30264e-05
0.000416455
3.6272e-05
0.000412178
3.96563e-05
0.000407361
4.30658e-05
0.000401999
4.64324e-05
0.000396099
4.96417e-05
0.000389727
5.26259e-05
0.000382899
5.53032e-05
0.00037577
5.762e-05
0.00036846
5.95537e-05
0.000360923
6.10283e-05
0.000353287
6.2041e-05
0.000345709
6.25553e-05
0.000338269
6.265e-05
0.000331138
6.22838e-05
0.000324393
6.15426e-05
0.000318156
6.04332e-05
0.000312558
5.90558e-05
0.000307644
5.74554e-05
0.000303509
5.572e-05
0.000300149
5.39305e-05
0.000297607
5.21679e-05
0.000295842
5.05065e-05
0.00029477
4.90052e-05
0.000294367
4.77245e-05
0.000294488
4.66988e-05
0.000295015
4.59484e-05
0.00029581
4.54617e-05
0.000296768
4.52391e-05
0.000297759
4.52399e-05
0.00029868
4.5409e-05
0.000299392
4.56733e-05
0.000299865
4.59402e-05
0.000300009
4.61216e-05
0.000299792
4.61125e-05
0.000299233
4.58205e-05
0.000298383
4.51365e-05
0.000297238
4.39899e-05
0.000295884
4.22872e-05
0.000294407
3.99795e-05
0.000292931
3.70463e-05
0.000291548
3.34791e-05
0.000290377
2.93038e-05
0.00028954
2.45574e-05
1.93091e-05
0.000289127
0.000434912
2.45186e-05
0.0004336
2.57636e-05
0.000432197
2.7477e-05
0.000430529
2.96849e-05
0.000428477
3.23362e-05
0.000426011
3.53771e-05
0.000422963
3.87161e-05
0.000419359
4.22585e-05
0.000415101
4.58829e-05
0.000410193
4.94818e-05
0.000404677
5.29483e-05
0.000398531
5.61753e-05
0.000391851
5.90674e-05
0.000384683
6.15539e-05
0.000377173
6.36032e-05
0.00036944
6.51289e-05
0.000361538
6.61473e-05
0.000353464
6.66266e-05
0.000345471
6.65955e-05
0.000337673
6.60929e-05
0.000330216
6.51529e-05
0.000323204
6.38447e-05
0.000316754
6.2212e-05
0.000311006
6.03443e-05
0.000306022
5.83135e-05
0.000301861
5.6201e-05
0.00029858
5.41001e-05
0.000296167
5.20838e-05
0.000294567
5.02364e-05
0.000293746
4.86088e-05
0.000293592
4.72649e-05
0.000293981
4.62385e-05
0.000294773
4.55449e-05
0.000295818
4.51865e-05
0.000296976
4.51305e-05
0.000298115
4.53427e-05
0.00029911
4.57732e-05
0.000299825
4.63133e-05
0.000300179
4.68726e-05
0.000300119
4.73374e-05
0.000299609
4.75872e-05
0.000298645
4.74981e-05
0.000297325
4.69774e-05
0.000295637
4.59039e-05
0.000293692
4.41738e-05
0.00029162
4.17499e-05
0.000289532
3.86027e-05
0.00028757
3.47232e-05
0.000285859
3.01419e-05
0.000284539
2.49067e-05
1.90953e-05
0.00028373
0.000435732
2.81477e-05
0.000434959
2.95566e-05
0.000434028
3.15025e-05
0.000432801
3.40196e-05
0.000431124
3.70442e-05
0.0004289
4.04902e-05
0.000426054
4.42441e-05
0.000422503
4.81917e-05
0.000418219
5.21632e-05
0.000413175
5.60504e-05
0.000407397
5.96971e-05
0.000400946
6.29994e-05
0.000393857
6.58358e-05
0.000386284
6.81411e-05
0.00037825
6.98911e-05
0.000370074
7.10025e-05
0.000361654
7.1494e-05
0.000353143
7.13604e-05
0.000344732
7.06878e-05
0.000336575
6.94905e-05
0.000328771
6.78915e-05
0.000321513
6.59074e-05
0.000314901
6.36579e-05
0.000309035
6.12045e-05
0.000304022
5.8654e-05
0.000299929
5.60952e-05
0.000296766
5.36142e-05
0.00029454
5.13011e-05
0.000293214
4.92231e-05
0.000292672
4.74563e-05
0.000292841
4.6041e-05
0.000293576
4.50299e-05
0.000294706
4.44344e-05
0.000296042
4.42343e-05
0.000297466
4.4433e-05
0.000298789
4.49549e-05
0.000299891
4.57503e-05
0.000300609
4.66932e-05
0.000300865
4.76814e-05
0.000300575
4.85699e-05
0.000299723
4.92178e-05
0.000298302
4.94901e-05
0.000296425
4.92462e-05
0.000294107
4.83463e-05
0.00029148
4.66847e-05
0.000288705
4.4202e-05
0.000285915
4.08788e-05
0.000283265
3.67041e-05
0.00028093
3.17043e-05
0.000279054
2.5942e-05
1.95066e-05
0.000277789
0.000436666
3.10086e-05
0.000436509
3.2599e-05
0.000436102
3.48528e-05
0.000435384
3.77655e-05
0.000434135
4.12764e-05
0.000432198
4.52543e-05
0.000429533
4.95684e-05
0.000426012
5.40527e-05
0.000421623
5.85179e-05
0.000416363
6.28024e-05
0.000410247
6.67427e-05
0.000403342
7.01801e-05
0.000395749
7.30214e-05
0.000387601
7.51489e-05
0.000379043
7.65934e-05
0.000370272
7.72327e-05
0.00036126
7.71305e-05
0.00035225
7.63124e-05
0.000343395
7.48767e-05
0.000334819
7.29034e-05
0.00032675
7.04809e-05
0.000319257
6.77347e-05
0.000312485
6.47169e-05
0.000306587
6.15811e-05
0.000301612
5.84043e-05
0.000297628
5.53032e-05
0.000294677
5.23621e-05
0.000292724
4.96845e-05
0.000291715
4.73262e-05
0.00029157
4.53788e-05
0.000292148
4.38894e-05
0.000293307
4.29011e-05
0.000294835
4.24104e-05
0.000296579
4.24626e-05
0.000298306
4.29851e-05
0.000299903
4.39339e-05
0.000301139
4.52132e-05
0.000301873
4.67205e-05
0.000302013
4.82995e-05
0.000301475
4.97887e-05
0.000300248
5.10163e-05
0.000298319
5.18143e-05
0.000295769
5.20157e-05
0.000292731
5.13936e-05
0.000289333
4.99044e-05
0.000285714
4.74675e-05
0.000282075
4.40162e-05
0.000278624
3.9553e-05
0.000275553
3.41155e-05
0.000273029
2.77795e-05
2.06509e-05
0.000271216
0.000437687
3.29102e-05
0.000438245
3.47244e-05
0.000438571
3.73584e-05
0.000438398
4.07845e-05
0.000437618
4.49134e-05
0.000436026
4.959e-05
0.000433523
5.46349e-05
0.000429992
5.98323e-05
0.000425445
6.49565e-05
0.000419859
6.98003e-05
0.000413257
7.41436e-05
0.000405792
7.78312e-05
0.000397544
8.07158e-05
0.000388683
8.26967e-05
0.000379462
8.38034e-05
0.000369957
8.39322e-05
0.000360313
8.31482e-05
0.000350713
8.15519e-05
0.000341328
7.92262e-05
0.000332378
7.63277e-05
0.000323993
7.2966e-05
0.000316294
6.92618e-05
0.000309455
6.53743e-05
0.000303558
6.14049e-05
0.000298691
5.74869e-05
0.00029491
5.3724e-05
0.000292257
5.02233e-05
0.000290666
4.70864e-05
0.000290064
4.4389e-05
0.000290411
4.22098e-05
0.000291507
4.06229e-05
0.000293149
3.96419e-05
0.000295261
3.93337e-05
0.000297469
3.96507e-05
0.000299642
4.06024e-05
0.000301552
4.20974e-05
0.000302987
4.40422e-05
0.000303802
4.62873e-05
0.000303846
4.86625e-05
0.000303021
5.097e-05
0.000301336
5.29879e-05
0.000298789
5.45378e-05
0.000295512
5.53147e-05
0.000291603
5.51794e-05
0.000287241
5.40073e-05
0.000282637
5.16893e-05
0.000278019
4.81582e-05
0.000273621
4.34244e-05
0.000269666
3.75226e-05
0.000266367
3.05561e-05
2.26474e-05
0.000263912
0.000438901
3.36211e-05
0.000440296
3.57233e-05
0.00044145
3.8818e-05
0.000441985
4.28974e-05
0.000441726
4.78205e-05
0.000440522
5.33957e-05
0.000438193
5.93846e-05
0.000434574
6.55173e-05
0.000429787
7.15187e-05
0.00042374
7.71036e-05
0.000416546
8.20108e-05
0.000408342
8.60616e-05
0.000399232
8.90454e-05
0.000389503
9.0941e-05
0.000379419
9.16795e-05
0.000369054
9.12014e-05
0.000358655
8.96426e-05
0.000348367
8.71255e-05
0.000338453
8.37849e-05
0.000329087
7.97965e-05
0.000320381
7.53153e-05
0.000312534
7.05291e-05
0.000305653
6.55831e-05
0.000299832
6.06333e-05
0.000295168
5.58145e-05
0.000291683
5.12527e-05
0.000289396
4.70705e-05
0.000288283
4.3365e-05
0.000288242
4.02331e-05
0.000289174
3.77682e-05
0.000290912
3.6024e-05
0.000293252
3.50695e-05
0.000295977
3.49263e-05
0.000298822
3.56193e-05
0.000301525
3.7089e-05
0.000303886
3.92822e-05
0.000305631
4.20669e-05
0.000306543
4.52799e-05
0.000306502
4.8701e-05
0.000305398
5.20864e-05
0.000303188
5.5172e-05
0.000299936
5.76952e-05
0.000295768
5.92991e-05
0.000290815
5.98527e-05
0.000285319
5.91431e-05
0.000279527
5.70506e-05
0.000273731
5.34989e-05
0.000268191
4.84979e-05
0.000263179
4.21031e-05
0.000258963
3.4429e-05
2.56337e-05
0.000255727
0.000440254
3.28853e-05
0.000442763
3.53222e-05
0.000444838
3.90029e-05
0.000446252
4.38966e-05
0.00044668
4.98289e-05
0.000445878
5.65539e-05
0.000443684
6.37509e-05
0.000440024
7.11073e-05
0.00043486
7.82434e-05
0.000428189
8.48026e-05
0.000420186
9.04819e-05
0.00041099
9.50097e-05
0.000400833
9.8201e-05
0.000390065
0.00010006
0.000378891
0.000100336
0.000367503
9.92061e-05
0.000356176
9.67432e-05
0.000345152
9.31312e-05
0.00033462
8.86123e-05
0.000324773
8.33522e-05
0.000315801
7.75763e-05
0.000307812
7.15075e-05
0.000300936
6.53169e-05
0.000295288
5.91951e-05
0.000290887
5.33104e-05
0.000287809
4.77815e-05
0.000286041
4.27723e-05
0.000285492
3.83692e-05
0.000286154
3.46898e-05
0.00028783
3.18428e-05
0.000290348
2.98929e-05
0.000293549
2.89307e-05
0.000297098
2.89933e-05
0.000300705
3.00944e-05
0.000304147
3.22193e-05
0.000307071
3.52753e-05
0.000309232
3.91296e-05
0.000310358
4.35725e-05
0.000310255
4.83356e-05
0.000308829
5.31187e-05
0.000306015
5.76172e-05
0.000301929
6.13824e-05
0.000296688
6.41233e-05
0.000290494
6.55872e-05
0.000283634
6.55228e-05
0.000276426
6.37756e-05
0.000269182
6.02681e-05
0.000262284
5.50019e-05
0.000256025
4.80632e-05
0.000250695
3.95816e-05
2.9763e-05
0.000246546
0.000441869
3.0381e-05
0.00044569
3.32146e-05
0.000448994
3.76203e-05
0.000451387
4.35306e-05
0.00045262
5.07431e-05
0.000452299
5.8917e-05
0.000450294
6.76735e-05
0.000446465
7.65849e-05
0.000440778
8.51895e-05
0.000433358
9.30251e-05
0.000424285
9.97017e-05
0.00041386
0.000104888
0.000402413
0.00010842
0.000390294
0.000110163
0.000377794
0.000109997
0.000365184
0.000108068
0.000352755
0.000104566
0.000340832
9.97071e-05
0.000329628
9.37871e-05
0.000319294
8.70474e-05
0.000310032
7.97589e-05
0.000301962
7.21829e-05
0.000295148
6.45417e-05
0.000289744
5.70379e-05
0.000285733
4.98856e-05
0.000283156
4.32116e-05
0.000282028
3.71923e-05
0.000282224
3.19412e-05
0.000283699
2.75837e-05
0.000286292
2.42306e-05
0.000289828
2.1999e-05
0.000294043
2.09852e-05
0.000298634
2.12345e-05
0.000303279
2.28446e-05
0.000307623
2.57194e-05
0.000311324
2.98401e-05
0.000314046
3.50258e-05
0.000315474
4.10144e-05
0.000315366
4.74873e-05
0.000313589
5.4069e-05
0.000310104
6.03289e-05
0.000305022
6.57588e-05
0.000298466
6.99721e-05
0.00029076
7.26255e-05
0.000282248
7.34181e-05
0.000273323
7.21503e-05
0.000264395
6.87435e-05
0.000255847
6.32097e-05
0.000248076
5.56407e-05
0.000241423
4.62279e-05
3.52061e-05
0.000236173
0.000443714
2.57203e-05
0.000449222
2.90242e-05
0.000453985
3.43181e-05
0.00045765
4.1501e-05
0.000459824
5.0316e-05
0.000460094
6.03217e-05
0.000458256
7.10579e-05
0.000454144
8.1948e-05
0.000447816
9.24675e-05
0.00043933
0.000101929
0.000428943
0.000109889
0.000417024
0.000115946
0.000403841
0.00011996
0.000390117
0.00012157
0.000375958
0.000120862
0.000361892
0.000118028
0.000348219
0.000113279
0.000335256
0.000106965
0.00032328
9.93905e-05
0.000312438
9.09241e-05
0.000302897
8.18621e-05
0.000294772
7.25391e-05
0.000288108
6.32038e-05
0.000283023
5.41041e-05
0.000279521
4.54595e-05
0.000277577
3.74424e-05
0.000277206
3.02123e-05
0.000278316
2.39319e-05
0.000280795
1.87255e-05
0.000284525
1.47312e-05
0.000289274
1.21053e-05
0.000294731
1.09425e-05
0.000300665
1.14085e-05
0.000306568
1.35065e-05
0.000312133
1.72931e-05
0.000316849
2.27102e-05
0.000320295
2.95206e-05
0.000322117
3.74415e-05
0.000322069
4.60807e-05
0.000319965
5.49181e-05
0.000315676
6.34532e-05
0.000309367
7.0999e-05
0.000301298
7.71005e-05
0.000291809
8.12668e-05
0.000281312
8.3153e-05
0.000270284
8.25268e-05
0.000259265
7.92732e-05
0.000248742
7.34387e-05
0.000239164
6.51326e-05
0.000230929
5.4609e-05
4.21611e-05
0.000224369
0.000445922
1.84808e-05
0.000453349
2.23437e-05
0.000459873
2.87101e-05
0.000465094
3.74677e-05
0.000468405
4.82627e-05
0.000469355
6.05787e-05
0.000467698
7.37778e-05
0.00046332
8.72064e-05
0.000456149
0.000100148
0.000446313
0.000111696
0.000434216
0.000121308
0.000420318
0.000128533
0.000405224
0.000133079
0.000389355
0.000134572
0.000373319
0.000133214
0.000357486
0.000129276
0.00034234
0.000123074
0.000328199
0.00011501
0.000315331
0.000105515
0.000303927
9.50112e-05
0.000294123
8.38978e-05
0.000285986
7.25528e-05
0.000279567
6.12633e-05
0.000274911
5.03223e-05
0.00027203
3.99517e-05
0.000270881
3.03634e-05
0.000271415
2.17199e-05
0.000273605
1.42028e-05
0.000277294
7.94374e-06
0.000282336
3.13205e-06
0.000288536
-5.37762e-08
0.000295633
-1.43029e-06
0.000303085
-8.98305e-07
0.000310672
1.76156e-06
0.000317748
6.61791e-06
0.000323774
1.35671e-05
0.000328203
2.2387e-05
0.000330654
3.26947e-05
0.000330733
4.40035e-05
0.000328222
5.57068e-05
0.000323078
6.70894e-05
0.000315369
7.73411e-05
0.000305359
8.57941e-05
0.000293612
9.18689e-05
0.000280701
9.5126e-05
0.00026718
9.53019e-05
0.000253673
9.22603e-05
0.000240786
8.60582e-05
0.000229072
7.68515e-05
0.000218983
6.49798e-05
5.08212e-05
0.000210898
0.000448132
8.21144e-06
0.000457771
1.28171e-05
0.000466459
2.04212e-05
0.000473285
3.11116e-05
0.000477913
4.43264e-05
0.000479694
5.94432e-05
0.000478307
7.57162e-05
0.000473564
9.22089e-05
0.000465293
0.000108394
0.000453984
0.000122491
0.000439975
0.000134201
0.000423703
0.000142978
0.00040613
0.000148127
0.0003878
0.000149461
0.000369405
0.000147376
0.000351547
0.000142126
0.000334677
0.000134164
0.000319225
0.000124005
0.000305437
0.000112231
0.000293466
9.93499e-05
0.000283432
8.58651e-05
0.000275371
7.21839e-05
0.000269284
5.86745e-05
0.000265178
4.56209e-05
0.000263048
3.32902e-05
0.000262822
2.18874e-05
0.000264465
1.16089e-05
0.000267929
2.5915e-06
0.000273013
-4.90729e-06
0.000279622
-1.0723e-05
0.000287599
-1.46358e-05
0.000296408
-1.64819e-05
0.000305841
-1.58544e-05
0.000315235
-1.26135e-05
0.000324072
-6.53359e-06
0.000331647
2.19196e-06
0.000337309
1.34221e-05
0.000340473
2.66342e-05
0.000340743
4.12126e-05
0.000337852
5.64307e-05
0.000331615
7.13431e-05
0.000322158
8.49957e-05
0.000309974
9.63622e-05
0.000295675
0.000104752
0.000279934
0.000109709
0.000263489
0.000110874
0.000247056
0.000108123
0.000231392
0.000101463
0.000217184
9.11395e-05
0.000204987
7.75889e-05
6.13539e-05
0.000195194
0.000449322
-5.29214e-06
0.00046116
3.50532e-07
0.000471901
9.33625e-06
0.000480656
2.23018e-05
0.000486614
3.8345e-05
0.000489526
5.66859e-05
0.000488268
7.66405e-05
0.000483315
9.70732e-05
0.000474051
0.000116952
0.000460793
0.000134295
0.00044457
0.000148689
0.000426005
0.000159269
0.000405812
0.000165065
0.000384818
0.000166451
0.000363853
0.000163535
0.000343689
0.000156736
0.000324945
0.000146666
0.000308045
0.000134031
0.000293264
0.000119559
0.000280744
0.000103922
0.000270526
8.77077e-05
0.000262617
7.13824e-05
0.000256978
5.53575e-05
0.000253565
3.99392e-05
0.00025232
2.5398e-05
0.000253168
1.19458e-05
0.0002561
-2.26936e-07
0.000260926
-1.09118e-05
0.000267627
-1.99063e-05
0.00027604
-2.69659e-05
0.000285738
-3.18115e-05
0.000296503
-3.40367e-05
0.000307651
-3.33429e-05
0.000318789
-2.93348e-05
0.000329106
-2.18718e-05
0.000338173
-1.13177e-05
0.000344966
2.70077e-06
0.000348903
1.92854e-05
0.000349397
3.76205e-05
0.000346076
5.70788e-05
0.000338871
7.63512e-05
0.000327626
9.39622e-05
0.000312928
0.000109093
0.00029591
0.000120208
0.000277253
0.000127113
0.000257771
0.000129407
0.000238272
0.000126995
0.000219652
0.000119806
0.000202756
0.000108119
0.000188271
9.25215e-05
7.37815e-05
0.000176689
0.000445722
-2.09178e-05
0.000459615
-1.45109e-05
0.000472288
-4.03846e-06
0.000482791
1.1232e-05
0.000490649
3.03e-05
0.000494624
5.23394e-05
0.000494477
7.61842e-05
0.000489319
0.000101216
0.000478724
0.00012625
0.000464441
0.000146636
0.00044585
0.000164621
0.0004249
0.000176942
0.000402111
0.000183916
0.000378499
0.000185376
0.000355
0.000181631
0.00033257
0.000173093
0.000311979
0.00016057
0.000293714
0.000145026
0.000278056
0.000127429
0.000265132
0.000108629
0.00025492
8.9318e-05
0.000247355
7.00331e-05
0.000242347
5.12169e-05
0.000239793
3.31863e-05
0.000239588
1.62002e-05
0.00024167
4.9371e-07
0.000246005
-1.38077e-05
0.000252426
-2.64078e-05
0.000260792
-3.70591e-05
0.000270849
-4.53768e-05
0.000282062
-5.10285e-05
0.000293904
-5.34116e-05
0.000305883
-5.2211e-05
0.000317538
-4.72131e-05
0.000328042
-3.80106e-05
0.000337882
-2.59533e-05
0.000345773
-9.33927e-06
0.000350565
1.07859e-05
0.000351551
3.35249e-05
0.00034798
5.78094e-05
0.000339352
8.20715e-05
0.000326958
0.000104154
0.000310203
0.000123752
0.000290623
0.000137855
0.000269208
0.000146926
0.000246746
0.000150736
0.000224282
0.000148736
0.000202907
0.000140889
0.000183638
0.000127539
0.000167231
0.000109502
8.78078e-05
0.000154173
0.000433414
-3.67766e-05
0.000448549
-2.93449e-05
0.000461673
-1.81032e-05