/*--------------------------------*- C++ -*----------------------------------*\
  =========                 |
  \\      /  F ield         | OpenFOAM: The Open Source CFD Toolbox
   \\    /   O peration     | Website:  https://openfoam.org
    \\  /    A nd           | Version:  10
     \\/     M anipulation  |
\*---------------------------------------------------------------------------*/
FoamFile
{
    format      ascii;
    class       volVectorField;
    location    "0.351479";
    object      U;
}
// * * * * * * * * * * * * * * * * * * * * * * * * * * * * * * * * * * * * * //

dimensions      [0 1 -1 0 0 0 0];

internalField   nonuniform List<vector> 
15708
(
(0.54552 -0.0585075 0)
(0.541864 -0.0578981 0)
(0.537776 -0.056768 0)
(0.533248 -0.055117 0)
(0.528256 -0.0529162 0)
(0.522805 -0.0501492 0)
(0.516913 -0.0468146 0)
(0.51061 -0.0429316 0)
(0.503947 -0.0385397 0)
(0.496994 -0.0336987 0)
(0.489835 -0.0284854 0)
(0.482569 -0.0229896 0)
(0.475301 -0.0173098 0)
(0.468127 -0.0115499 0)
(0.461138 -0.00581612 0)
(0.454409 -0.00019604 0)
(0.448011 0.0052273 0)
(0.441955 0.0103606 0)
(0.436238 0.0151728 0)
(0.430868 0.0196017 0)
(0.425848 0.0236139 0)
(0.421167 0.0272056 0)
(0.416792 0.0303674 0)
(0.412672 0.0331288 0)
(0.408802 0.0354879 0)
(0.405175 0.0375068 0)
(0.401775 0.0392371 0)
(0.398619 0.0407293 0)
(0.395716 0.0420393 0)
(0.393093 0.0432263 0)
(0.390778 0.0443492 0)
(0.388798 0.0454618 0)
(0.387181 0.0466094 0)
(0.38595 0.0478269 0)
(0.385124 0.0491347 0)
(0.384709 0.0505429 0)
(0.384711 0.0520462 0)
(0.385123 0.0536229 0)
(0.385935 0.0552441 0)
(0.387135 0.0568663 0)
(0.388705 0.0584377 0)
(0.390622 0.0598995 0)
(0.392863 0.0611899 0)
(0.395401 0.0622442 0)
(0.398206 0.0629979 0)
(0.401246 0.0633893 0)
(0.404487 0.0633631 0)
(0.407889 0.0628718 0)
(0.411409 0.0618789 0)
(0.415002 0.0603614 0)
(0.41862 0.0583095 0)
(0.545916 -0.0507033 0)
(0.542719 -0.0500916 0)
(0.539144 -0.0489616 0)
(0.535161 -0.0473175 0)
(0.530733 -0.0451318 0)
(0.525851 -0.0423885 0)
(0.520515 -0.0390851 0)
(0.51474 -0.0352396 0)
(0.508556 -0.0308907 0)
(0.502017 -0.0260973 0)
(0.495195 -0.0209351 0)
(0.488172 -0.0154943 0)
(0.481046 -0.00987583 0)
(0.473906 -0.00419259 0)
(0.46686 0.00146923 0)
(0.459978 0.00699583 0)
(0.453321 0.0122866 0)
(0.44695 0.0172618 0)
(0.440874 0.0218923 0)
(0.435091 0.026109 0)
(0.429631 0.0298446 0)
(0.424486 0.0331084 0)
(0.419652 0.0358983 0)
(0.415119 0.0382377 0)
(0.410864 0.0401687 0)
(0.406895 0.0417257 0)
(0.403213 0.0429709 0)
(0.399833 0.0439663 0)
(0.396774 0.0447797 0)
(0.394058 0.0454814 0)
(0.391713 0.0461346 0)
(0.389759 0.0468008 0)
(0.388211 0.0475256 0)
(0.387081 0.0483482 0)
(0.386372 0.0492873 0)
(0.386078 0.0503511 0)
(0.386185 0.0515323 0)
(0.386675 0.0528061 0)
(0.387527 0.0541381 0)
(0.388715 0.0554795 0)
(0.390214 0.0567805 0)
(0.391997 0.0579757 0)
(0.394037 0.0590015 0)
(0.396308 0.0597923 0)
(0.398784 0.0602839 0)
(0.401436 0.0604164 0)
(0.404239 0.0601357 0)
(0.407163 0.0593968 0)
(0.410177 0.0581674 0)
(0.413251 0.0564287 0)
(0.416353 0.0541768 0)
(0.546326 -0.0429064 0)
(0.543581 -0.0422706 0)
(0.540511 -0.0411275 0)
(0.537066 -0.0394801 0)
(0.533193 -0.0373026 0)
(0.52887 -0.0345769 0)
(0.52408 -0.0313012 0)
(0.518822 -0.0274931 0)
(0.513108 -0.0231913 0)
(0.506975 -0.0184536 0)
(0.500479 -0.0133548 0)
(0.493688 -0.00798833 0)
(0.486688 -0.002456 0)
(0.479581 0.00315065 0)
(0.472446 0.00869955 0)
(0.465373 0.0140877 0)
(0.458444 0.0192271 0)
(0.451742 0.024051 0)
(0.445276 0.0285008 0)
(0.439018 0.0324531 0)
(0.433045 0.0359001 0)
(0.427414 0.0388321 0)
(0.422105 0.0412697 0)
(0.417112 0.043217 0)
(0.412443 0.0447226 0)
(0.408112 0.0458358 0)
(0.404133 0.0466224 0)
(0.400529 0.0471558 0)
(0.397321 0.0475134 0)
(0.39453 0.047772 0)
(0.392176 0.0480025 0)
(0.390272 0.0482662 0)
(0.388821 0.0486154 0)
(0.387819 0.0490859 0)
(0.387252 0.0496972 0)
(0.3871 0.0504532 0)
(0.387333 0.0513429 0)
(0.387916 0.0523356 0)
(0.388814 0.0533959 0)
(0.389997 0.0544707 0)
(0.391431 0.0555045 0)
(0.39308 0.0564333 0)
(0.394919 0.0571902 0)
(0.396922 0.0577087 0)
(0.399065 0.0579249 0)
(0.401328 0.0577785 0)
(0.403693 0.0572187 0)
(0.406142 0.0562029 0)
(0.408659 0.0547043 0)
(0.411228 0.0527088 0)
(0.413833 0.0502188 0)
(0.546761 -0.0351217 0)
(0.544462 -0.0344476 0)
(0.54189 -0.0332799 0)
(0.538968 -0.031618 0)
(0.535638 -0.0294373 0)
(0.53186 -0.0267212 0)
(0.527605 -0.0234682 0)
(0.52285 -0.0196966 0)
(0.517593 -0.0154447 0)
(0.511854 -0.0107709 0)
(0.505667 -0.00575403 0)
(0.499095 -0.000476164 0)
(0.492219 0.00496869 0)
(0.485109 0.0104504 0)
(0.477865 0.0158617 0)
(0.470589 0.0211005 0)
(0.463379 0.0260729 0)
(0.456328 0.0307421 0)
(0.449388 0.0349421 0)
(0.442606 0.0386175 0)
(0.436125 0.041769 0)
(0.429965 0.0443842 0)
(0.424136 0.0464576 0)
(0.418656 0.0480172 0)
(0.413551 0.0491115 0)
(0.408845 0.0498001 0)
(0.404566 0.0501588 0)
(0.40074 0.050268 0)
(0.397393 0.0502116 0)
(0.394543 0.0500724 0)
(0.392202 0.0499259 0)
(0.39037 0.0498362 0)
(0.389039 0.0498553 0)
(0.388187 0.0500184 0)
(0.387783 0.0503417 0)
(0.387791 0.0508268 0)
(0.388158 0.0514548 0)
(0.388842 0.0521945 0)
(0.389795 0.0530012 0)
(0.390974 0.0538264 0)
(0.392338 0.0546024 0)
(0.39385 0.0552685 0)
(0.395482 0.0557533 0)
(0.39721 0.0559902 0)
(0.399014 0.055917 0)
(0.400883 0.0554717 0)
(0.402807 0.0546102 0)
(0.404783 0.0532888 0)
(0.40681 0.0514883 0)
(0.408886 0.0491995 0)
(0.411014 0.0464311 0)
(0.547241 -0.0273665 0)
(0.545377 -0.0266416 0)
(0.543291 -0.0254365 0)
(0.540885 -0.023747 0)
(0.538085 -0.0215497 0)
(0.534838 -0.0188308 0)
(0.531098 -0.0155905 0)
(0.526829 -0.0118479 0)
(0.522009 -0.00764558 0)
(0.51664 -0.00304429 0)
(0.510755 0.00189724 0)
(0.504389 0.00707773 0)
(0.4976 0.0123833 0)
(0.490474 0.0177147 0)
(0.483108 0.0229641 0)
(0.475606 0.0280228 0)
(0.468114 0.0328152 0)
(0.460645 0.0372675 0)
(0.453189 0.0411877 0)
(0.445884 0.044598 0)
(0.438848 0.0474463 0)
(0.43213 0.0497241 0)
(0.425754 0.0514348 0)
(0.419766 0.0526137 0)
(0.414208 0.0533133 0)
(0.40912 0.0536024 0)
(0.404543 0.0535631 0)
(0.400505 0.0532837 0)
(0.397033 0.0528551 0)
(0.394141 0.0523628 0)
(0.391833 0.0518868 0)
(0.390096 0.0514913 0)
(0.388905 0.0512268 0)
(0.388221 0.0511265 0)
(0.387995 0.0512034 0)
(0.388169 0.0514527 0)
(0.38868 0.0518505 0)
(0.389465 0.0523642 0)
(0.39047 0.052942 0)
(0.39164 0.0535315 0)
(0.392928 0.0540637 0)
(0.394294 0.0544716 0)
(0.395706 0.0546853 0)
(0.397149 0.0546364 0)
(0.398604 0.0542604 0)
(0.40007 0.053503 0)
(0.401548 0.052313 0)
(0.403048 0.0506592 0)
(0.404588 0.0485249 0)
(0.40618 0.0459063 0)
(0.407846 0.0428188 0)
(0.547776 -0.0196643 0)
(0.54634 -0.0188758 0)
(0.544733 -0.0176188 0)
(0.542832 -0.0158849 0)
(0.540548 -0.0136543 0)
(0.537816 -0.0109162 0)
(0.534573 -0.0076779 0)
(0.530767 -0.00396668 0)
(0.526364 0.000192943 0)
(0.521354 0.00474257 0)
(0.515731 0.0095904 0)
(0.509532 0.0146499 0)
(0.502813 0.0198238 0)
(0.495651 0.0250027 0)
(0.488138 0.030072 0)
(0.480407 0.0349222 0)
(0.472592 0.0395113 0)
(0.46467 0.0436658 0)
(0.456688 0.0473123 0)
(0.448833 0.0504079 0)
(0.441214 0.0529255 0)
(0.433907 0.0548461 0)
(0.426966 0.0561861 0)
(0.420457 0.0569868 0)
(0.414441 0.0573036 0)
(0.408973 0.057214 0)
(0.404102 0.0568063 0)
(0.399864 0.0561747 0)
(0.396285 0.0554147 0)
(0.393372 0.0546159 0)
(0.391117 0.0538563 0)
(0.389496 0.0532028 0)
(0.388462 0.052701 0)
(0.387961 0.0523803 0)
(0.387922 0.0522546 0)
(0.388269 0.0523041 0)
(0.388923 0.0525055 0)
(0.389808 0.052824 0)
(0.390859 0.0531976 0)
(0.39201 0.0535734 0)
(0.393207 0.053876 0)
(0.39441 0.0540387 0)
(0.395589 0.0539867 0)
(0.396728 0.0536515 0)
(0.39782 0.0529658 0)
(0.398868 0.0518789 0)
(0.399887 0.0503392 0)
(0.400908 0.0483275 0)
(0.401961 0.0458273 0)
(0.403077 0.0428449 0)
(0.404295 0.0393998 0)
(0.548382 -0.0120474 0)
(0.547371 -0.0111792 0)
(0.546238 -0.00985501 0)
(0.54483 -0.0080634 0)
(0.543048 -0.00578915 0)
(0.540809 -0.00302396 0)
(0.538042 0.000240621 0)
(0.534681 0.00398148 0)
(0.530666 0.00813167 0)
(0.52597 0.012625 0)
(0.520584 0.0173827 0)
(0.51453 0.022316 0)
(0.507856 0.027328 0)
(0.500627 0.0323106 0)
(0.49294 0.0371566 0)
(0.484964 0.0417636 0)
(0.476784 0.0460851 0)
(0.468377 0.0499229 0)
(0.459864 0.0532563 0)
(0.451426 0.0560215 0)
(0.443206 0.0581722 0)
(0.435296 0.0597322 0)
(0.427781 0.0606895 0)
(0.420746 0.0611158 0)
(0.414272 0.061057 0)
(0.408431 0.0606057 0)
(0.403284 0.0598557 0)
(0.398865 0.0589052 0)
(0.395201 0.0578518 0)
(0.392288 0.0567851 0)
(0.390109 0.055786 0)
(0.388621 0.0549169 0)
(0.387761 0.0542238 0)
(0.387458 0.0537313 0)
(0.387613 0.053439 0)
(0.388129 0.0533331 0)
(0.388929 0.0533747 0)
(0.389906 0.0535282 0)
(0.390988 0.0537357 0)
(0.392106 0.0539285 0)
(0.393196 0.0540262 0)
(0.394218 0.0539649 0)
(0.395139 0.0536543 0)
(0.395951 0.0530401 0)
(0.396653 0.0520424 0)
(0.397262 0.0506138 0)
(0.39781 0.0487182 0)
(0.398343 0.0463218 0)
(0.398906 0.0434275 0)
(0.399549 0.0400422 0)
(0.400329 0.0361965 0)
(0.549076 -0.00458141 0)
(0.548486 -0.00362748 0)
(0.547815 -0.0022165 0)
(0.546896 -0.000326502 0)
(0.545608 0.0020556 0)
(0.543859 0.00492648 0)
(0.541545 0.00825262 0)
(0.538587 0.0119984 0)
(0.534921 0.0161185 0)
(0.530506 0.0205517 0)
(0.525325 0.0252196 0)
(0.519385 0.0300314 0)
(0.512717 0.0348828 0)
(0.505391 0.0396668 0)
(0.4975 0.0442697 0)
(0.489241 0.0486166 0)
(0.480653 0.0526017 0)
(0.47174 0.0561026 0)
(0.462681 0.0590709 0)
(0.453637 0.061445 0)
(0.444802 0.0632138 0)
(0.436287 0.0643666 0)
(0.428191 0.0649344 0)
(0.420641 0.0649651 0)
(0.413719 0.0645357 0)
(0.407527 0.063737 0)
(0.402123 0.0626663 0)
(0.397549 0.0614236 0)
(0.393823 0.0601096 0)
(0.390937 0.0588147 0)
(0.38886 0.057617 0)
(0.387529 0.0565732 0)
(0.386865 0.0557418 0)
(0.386765 0.0551152 0)
(0.38712 0.0547055 0)
(0.387811 0.0544771 0)
(0.388741 0.0544098 0)
(0.38981 0.0544424 0)
(0.390918 0.0545262 0)
(0.391977 0.0545776 0)
(0.392935 0.0545096 0)
(0.393743 0.054241 0)
(0.394378 0.0537033 0)
(0.394835 0.0528161 0)
(0.395116 0.0515104 0)
(0.395266 0.0497475 0)
(0.395316 0.0474771 0)
(0.395339 0.0446786 0)
(0.395402 0.0413574 0)
(0.395567 0.0375332 0)
(0.395919 0.0332491 0)
(0.549859 0.00276263 0)
(0.549704 0.00384066 0)
(0.549508 0.00536772 0)
(0.549073 0.00736391 0)
(0.54826 0.00983553 0)
(0.546969 0.0127796 0)
(0.545083 0.0161741 0)
(0.542514 0.0199806 0)
(0.539172 0.0241375 0)
(0.535005 0.0285687 0)
(0.529982 0.0331854 0)
(0.5241 0.0378878 0)
(0.51739 0.0425728 0)
(0.509909 0.0471308 0)
(0.501781 0.0514547 0)
(0.493186 0.0554924 0)
(0.484156 0.059094 0)
(0.474729 0.0622096 0)
(0.465083 0.0647521 0)
(0.455436 0.0666928 0)
(0.445983 0.0680254 0)
(0.436855 0.0687366 0)
(0.428195 0.0688845 0)
(0.420136 0.0685066 0)
(0.4128 0.0677038 0)
(0.406282 0.0665621 0)
(0.400653 0.0651822 0)
(0.395954 0.063667 0)
(0.392201 0.0621198 0)
(0.389375 0.0606303 0)
(0.387421 0.0592729 0)
(0.386282 0.0581023 0)
(0.385828 0.0571576 0)
(0.385944 0.0564476 0)
(0.3865 0.0559622 0)
(0.387368 0.0556681 0)
(0.388441 0.0555406 0)
(0.389586 0.0555195 0)
(0.390705 0.0555249 0)
(0.391687 0.0554801 0)
(0.392472 0.0552875 0)
(0.393038 0.054857 0)
(0.393352 0.0541244 0)
(0.393404 0.0529918 0)
(0.393237 0.0514047 0)
(0.392886 0.0493024 0)
(0.392402 0.0466479 0)
(0.391889 0.043433 0)
(0.391433 0.0396633 0)
(0.39112 0.0353703 0)
(0.391043 0.0306102 0)
(0.550747 0.00981986 0)
(0.551029 0.0110113 0)
(0.551312 0.0126625 0)
(0.55137 0.014806 0)
(0.551044 0.0174421 0)
(0.550207 0.0205523 0)
(0.548737 0.0240996 0)
(0.546516 0.0280272 0)
(0.543454 0.0322625 0)
(0.53948 0.0367184 0)
(0.534557 0.0412985 0)
(0.528677 0.0458995 0)
(0.52186 0.0504116 0)
(0.514168 0.0547293 0)
(0.505754 0.0587464 0)
(0.496768 0.0624233 0)
(0.487254 0.0656053 0)
(0.477277 0.0682749 0)
(0.467036 0.0703195 0)
(0.456772 0.0717777 0)
(0.446695 0.0725995 0)
(0.436976 0.0728367 0)
(0.427768 0.0725123 0)
(0.419238 0.0717089 0)
(0.411518 0.0705134 0)
(0.40471 0.0690199 0)
(0.398892 0.0673307 0)
(0.394112 0.0655569 0)
(0.390374 0.0637967 0)
(0.387644 0.0621373 0)
(0.385858 0.0606507 0)
(0.38492 0.0593898 0)
(0.384703 0.05837 0)
(0.385058 0.0576307 0)
(0.385831 0.057112 0)
(0.386888 0.0568273 0)
(0.388103 0.0567053 0)
(0.38932 0.0566838 0)
(0.390421 0.0566775 0)
(0.391299 0.0565987 0)
(0.391887 0.0563391 0)
(0.392169 0.0558092 0)
(0.392114 0.0549225 0)
(0.391727 0.0535868 0)
(0.391047 0.0517432 0)
(0.390138 0.0493188 0)
(0.389085 0.0462905 0)
(0.388002 0.0426534 0)
(0.386999 0.0384197 0)
(0.386187 0.0336276 0)
(0.385676 0.0283399 0)
(0.551748 0.0165574 0)
(0.552498 0.0178939 0)
(0.553291 0.0197178 0)
(0.553849 0.0220584 0)
(0.55401 0.0249079 0)
(0.55362 0.0282361 0)
(0.55254 0.0319882 0)
(0.550638 0.0360906 0)
(0.547809 0.0404587 0)
(0.543969 0.0449895 0)
(0.539084 0.0495749 0)
(0.533126 0.0540983 0)
(0.526128 0.0584478 0)
(0.518149 0.0625147 0)
(0.509377 0.0661979 0)
(0.499941 0.0694707 0)
(0.489901 0.0721825 0)
(0.47933 0.074314 0)
(0.468465 0.0758228 0)
(0.457586 0.0766896 0)
(0.446897 0.0769586 0)
(0.436605 0.0766405 0)
(0.426881 0.0758018 0)
(0.417921 0.074528 0)
(0.409859 0.0729076 0)
(0.402811 0.07104 0)
(0.39686 0.0690358 0)
(0.39205 0.0670035 0)
(0.388373 0.0650382 0)
(0.385785 0.0632254 0)
(0.384203 0.061632 0)
(0.383511 0.0603076 0)
(0.383566 0.0592768 0)
(0.384179 0.0585309 0)
(0.385193 0.058064 0)
(0.386467 0.0578468 0)
(0.387817 0.0578032 0)
(0.389093 0.0578581 0)
(0.390171 0.0579205 0)
(0.390916 0.0578915 0)
(0.391266 0.0576495 0)
(0.391218 0.057091 0)
(0.390738 0.0561236 0)
(0.389844 0.0546425 0)
(0.388599 0.0525825 0)
(0.387073 0.049871 0)
(0.385389 0.0464822 0)
(0.383684 0.0424225 0)
(0.382089 0.0377031 0)
(0.380741 0.0323808 0)
(0.379771 0.0265155 0)
(0.552866 0.022883 0)
(0.55413 0.0243826 0)
(0.555463 0.026411 0)
(0.556553 0.0289975 0)
(0.55722 0.0321235 0)
(0.55728 0.0357438 0)
(0.55657 0.039785 0)
(0.554951 0.044148 0)
(0.552302 0.0487292 0)
(0.548535 0.0534058 0)
(0.543595 0.0580505 0)
(0.537475 0.062535 0)
(0.530198 0.066738 0)
(0.521838 0.0705489 0)
(0.512627 0.0738764 0)
(0.502666 0.0766921 0)
(0.492007 0.0788763 0)
(0.480821 0.0803968 0)
(0.469309 0.0812525 0)
(0.457795 0.0814756 0)
(0.44652 0.0810903 0)
(0.435675 0.0801436 0)
(0.425486 0.0787222 0)
(0.416146 0.0769167 0)
(0.407799 0.0748197 0)
(0.400571 0.0725429 0)
(0.39455 0.0701987 0)
(0.389768 0.0678916 0)
(0.386215 0.0657179 0)
(0.383824 0.0637568 0)
(0.382501 0.0620758 0)
(0.382109 0.0607188 0)
(0.382463 0.0597134 0)
(0.383381 0.0590228 0)
(0.384689 0.0586741 0)
(0.386181 0.0585969 0)
(0.387684 0.0587175 0)
(0.389024 0.0589543 0)
(0.390058 0.0591917 0)
(0.390647 0.0593116 0)
(0.39072 0.0591936 0)
(0.390288 0.0587116 0)
(0.389321 0.0577512 0)
(0.38785 0.0562073 0)
(0.385949 0.053992 0)
(0.383722 0.0510295 0)
(0.381332 0.047306 0)
(0.378934 0.0428201 0)
(0.376687 0.0376025 0)
(0.374752 0.0317093 0)
(0.373282 0.0252215 0)
(0.55412 0.0286677 0)
(0.555961 0.0303582 0)
(0.557887 0.0326358 0)
(0.559553 0.0355359 0)
(0.560751 0.0390235 0)
(0.561272 0.0430298 0)
(0.560923 0.0474613 0)
(0.559551 0.0521932 0)
(0.55702 0.0570852 0)
(0.553242 0.0619958 0)
(0.548154 0.0667719 0)
(0.541756 0.0712691 0)
(0.534083 0.075351 0)
(0.525228 0.0789035 0)
(0.515459 0.0818642 0)
(0.504877 0.0841554 0)
(0.493537 0.0857344 0)
(0.481634 0.0865628 0)
(0.469466 0.0866739 0)
(0.457336 0.0861431 0)
(0.445464 0.0849999 0)
(0.43412 0.0833334 0)
(0.423513 0.0812385 0)
(0.413851 0.0788155 0)
(0.405287 0.0761778 0)
(0.397956 0.0734355 0)
(0.391937 0.0707058 0)
(0.387262 0.0680927 0)
(0.383899 0.0656922 0)
(0.381778 0.0635811 0)
(0.380779 0.0618217 0)
(0.380752 0.0604593 0)
(0.38147 0.059512 0)
(0.382744 0.0589618 0)
(0.384383 0.0587911 0)
(0.386142 0.0589401 0)
(0.387824 0.0593432 0)
(0.389237 0.0598698 0)
(0.390215 0.0604127 0)
(0.390621 0.060819 0)
(0.390382 0.060955 0)
(0.389502 0.0606747 0)
(0.387968 0.0598423 0)
(0.385826 0.0583358 0)
(0.383167 0.0560314 0)
(0.380141 0.0528805 0)
(0.376944 0.0488576 0)
(0.373758 0.043959 0)
(0.370774 0.0382265 0)
(0.368177 0.0317241 0)
(0.366151 0.0245531 0)
(0.555529 0.0337643 0)
(0.558025 0.0356719 0)
(0.560625 0.0382574 0)
(0.562932 0.0415525 0)
(0.564706 0.0455053 0)
(0.565706 0.0500194 0)
(0.56572 0.0549708 0)
(0.56455 0.0602044 0)
(0.562074 0.0655349 0)
(0.558182 0.070792 0)
(0.552832 0.0757945 0)
(0.546014 0.0803683 0)
(0.537797 0.0843657 0)
(0.528315 0.0876643 0)
(0.517842 0.0902333 0)
(0.506499 0.0919559 0)
(0.494375 0.0928357 0)
(0.481717 0.0928603 0)
(0.46884 0.0921473 0)
(0.456063 0.0907116 0)
(0.44364 0.0887086 0)
(0.431826 0.0861976 0)
(0.420864 0.0833135 0)
(0.410954 0.080172 0)
(0.402258 0.0768973 0)
(0.394906 0.073613 0)
(0.388982 0.0704329 0)
(0.384497 0.0674648 0)
(0.381418 0.0648006 0)
(0.379648 0.0625197 0)
(0.37906 0.0606843 0)
(0.379476 0.0593376 0)
(0.380646 0.0584967 0)
(0.382352 0.0581377 0)
(0.384379 0.0582382 0)
(0.386465 0.0587304 0)
(0.388368 0.059536 0)
(0.38987 0.0604996 0)
(0.390801 0.0615045 0)
(0.390998 0.062363 0)
(0.390396 0.062917 0)
(0.389002 0.0629945 0)
(0.386812 0.062439 0)
(0.383872 0.0610851 0)
(0.380327 0.0588017 0)
(0.376383 0.0555325 0)
(0.372251 0.0512498 0)
(0.368152 0.045957 0)
(0.364316 0.0396944 0)
(0.360961 0.0325454 0)
(0.358295 0.0246214 0)
(0.557091 0.0380024 0)
(0.56037 0.0401609 0)
(0.563748 0.043124 0)
(0.566792 0.0469156 0)
(0.5692 0.0514598 0)
(0.570722 0.0566316 0)
(0.571092 0.0622641 0)
(0.570095 0.0681627 0)
(0.567589 0.0740918 0)
(0.563479 0.0798405 0)
(0.557711 0.0851848 0)
(0.550311 0.089922 0)
(0.541366 0.0938831 0)
(0.531085 0.0969381 0)
(0.51974 0.0990824 0)
(0.507469 0.100177 0)
(0.494431 0.100265 0)
(0.480931 0.099397 0)
(0.467296 0.0976847 0)
(0.453868 0.0952445 0)
(0.440909 0.0922153 0)
(0.42867 0.0887215 0)
(0.417413 0.08491 0)
(0.40734 0.0809186 0)
(0.398606 0.0768923 0)
(0.391342 0.0729589 0)
(0.385612 0.0692392 0)
(0.381428 0.0658431 0)
(0.37873 0.0628627 0)
(0.377426 0.0603818 0)
(0.377354 0.0584606 0)
(0.378325 0.0571494 0)
(0.380042 0.0564454 0)
(0.382278 0.0563548 0)
(0.384792 0.0568301 0)
(0.387281 0.0578012 0)
(0.38946 0.0591487 0)
(0.391094 0.060741 0)
(0.391986 0.0623947 0)
(0.391953 0.0639074 0)
(0.390941 0.0650848 0)
(0.388953 0.0657209 0)
(0.385984 0.0656196 0)
(0.382109 0.0645496 0)
(0.377529 0.0624118 0)
(0.372499 0.0591214 0)
(0.367275 0.054638 0)
(0.362111 0.0489669 0)
(0.357278 0.0421589 0)
(0.353034 0.0343104 0)
(0.349617 0.0255549 0)
(0.558835 0.0411663 0)
(0.563057 0.0436149 0)
(0.567352 0.0470363 0)
(0.571251 0.0514483 0)
(0.574399 0.0567456 0)
(0.576488 0.0627627 0)
(0.577229 0.0692813 0)
(0.576363 0.0760508 0)
(0.573739 0.0827823 0)
(0.56927 0.0892008 0)
(0.562911 0.0950342 0)
(0.55472 0.100042 0)
(0.544823 0.104027 0)
(0.53353 0.106856 0)
(0.521098 0.108541 0)
(0.5077 0.108932 0)
(0.493611 0.108132 0)
(0.479147 0.106233 0)
(0.464691 0.103379 0)
(0.450588 0.0997632 0)
(0.437101 0.0955246 0)
(0.424492 0.0908768 0)
(0.413016 0.0859689 0)
(0.402874 0.0809756 0)
(0.394215 0.0760548 0)
(0.387147 0.071342 0)
(0.381736 0.0669709 0)
(0.377974 0.0630521 0)
(0.375792 0.0596872 0)
(0.375073 0.0569563 0)
(0.375656 0.0549316 0)
(0.377298 0.0536527 0)
(0.37971 0.053137 0)
(0.38262 0.0533813 0)
(0.385738 0.054346 0)
(0.388727 0.0559393 0)
(0.391279 0.0580249 0)
(0.393112 0.0604513 0)
(0.393981 0.0629918 0)
(0.393712 0.0654127 0)
(0.392235 0.0674612 0)
(0.389557 0.0689073 0)
(0.385652 0.0694494 0)
(0.380661 0.0688585 0)
(0.374879 0.067014 0)
(0.368575 0.063817 0)
(0.362051 0.0591989 0)
(0.355621 0.0531673 0)
(0.349604 0.045787 0)
(0.344306 0.0371761 0)
(0.340001 0.0274925 0)
(0.56077 0.0429842 0)
(0.566136 0.0457801 0)
(0.57155 0.049764 0)
(0.576466 0.0549528 0)
(0.580484 0.0612009 0)
(0.583225 0.0682943 0)
(0.584353 0.0759536 0)
(0.583583 0.0838556 0)
(0.580737 0.0916428 0)
(0.575737 0.0989541 0)
(0.568571 0.105462 0)
(0.559329 0.11087 0)
(0.548215 0.114952 0)
(0.535638 0.117593 0)
(0.521858 0.118762 0)
(0.507103 0.11837 0)
(0.49177 0.116547 0)
(0.476208 0.11344 0)
(0.460847 0.109278 0)
(0.446025 0.104269 0)
(0.432026 0.0986483 0)
(0.419105 0.0926379 0)
(0.407494 0.0864448 0)
(0.397391 0.0802688 0)
(0.388922 0.0742759 0)
(0.382188 0.068632 0)
(0.377233 0.0634701 0)
(0.374037 0.0589106 0)
(0.372518 0.0550605 0)
(0.372548 0.0520125 0)
(0.373937 0.049842 0)
(0.376433 0.0485941 0)
(0.3797 0.0483112 0)
(0.383448 0.0489752 0)
(0.387347 0.0505494 0)
(0.390992 0.0529387 0)
(0.394036 0.0559891 0)
(0.39615 0.0594984 0)
(0.397052 0.0632144 0)
(0.396535 0.0668435 0)
(0.394544 0.0700736 0)
(0.391036 0.0726118 0)
(0.386012 0.0740428 0)
(0.379726 0.074177 0)
(0.372513 0.0728198 0)
(0.364683 0.0698329 0)
(0.3566 0.0651422 0)
(0.348654 0.0587631 0)
(0.341227 0.0507747 0)
(0.334673 0.0413213 0)
(0.329305 0.0305912 0)
(0.562928 0.0431552 0)
(0.569706 0.0463498 0)
(0.576489 0.0510258 0)
(0.582645 0.0571813 0)
(0.587696 0.0646286 0)
(0.591199 0.0730897 0)
(0.59276 0.0822086 0)
(0.592034 0.0915713 0)
(0.588834 0.100723 0)
(0.583103 0.10921 0)
(0.574856 0.116619 0)
(0.564252 0.122588 0)
(0.551601 0.126857 0)
(0.537396 0.129372 0)
(0.521933 0.129941 0)
(0.505541 0.128652 0)
(0.488731 0.125624 0)
(0.471919 0.12111 0)
(0.455551 0.115425 0)
(0.439981 0.108816 0)
(0.425484 0.101587 0)
(0.412296 0.0939932 0)
(0.400642 0.0863013 0)
(0.390691 0.078724 0)
(0.382548 0.0714636 0)
(0.376294 0.0646951 0)
(0.371954 0.0585726 0)
(0.369487 0.0532237 0)
(0.368809 0.0487674 0)
(0.369774 0.0453094 0)
(0.372165 0.0429292 0)
(0.375721 0.0417015 0)
(0.380075 0.0416662 0)
(0.384881 0.042838 0)
(0.389766 0.0451654 0)
(0.394269 0.0485538 0)
(0.397975 0.0528263 0)
(0.400498 0.0577387 0)
(0.401499 0.0629737 0)
(0.400746 0.0681775 0)
(0.398168 0.0729794 0)
(0.393671 0.0769234 0)
(0.387333 0.0795858 0)
(0.379519 0.0807218 0)
(0.370577 0.0800578 0)
(0.360899 0.0774171 0)
(0.350943 0.0727258 0)
(0.341181 0.0660039 0)
(0.332064 0.0573569 0)
(0.324006 0.0469543 0)
(0.317367 0.0350303 0)
(0.565319 0.0412785 0)
(0.573857 0.0449426 0)
(0.582322 0.0504646 0)
(0.590009 0.0578239 0)
(0.596327 0.0667817 0)
(0.600741 0.0769779 0)
(0.602787 0.0879602 0)
(0.602062 0.0991964 0)
(0.598361 0.110112 0)
(0.591639 0.120124 0)
(0.581974 0.128709 0)
(0.569615 0.135435 0)
(0.555056 0.140019 0)
(0.538788 0.142383 0)
(0.521205 0.142285 0)
(0.502849 0.139924 0)
(0.484283 0.135504 0)
(0.466053 0.129377 0)
(0.448587 0.121915 0)
(0.432212 0.11346 0)
(0.41722 0.10435 0)
(0.403832 0.0949258 0)
(0.392228 0.0854814 0)
(0.382546 0.0762682 0)
(0.374875 0.0675153 0)
(0.369261 0.0594124 0)
(0.365715 0.0521273 0)
(0.364171 0.0458103 0)
(0.364537 0.0405932 0)
(0.366647 0.0365938 0)
(0.370282 0.0339206 0)
(0.375151 0.0326798 0)
(0.380854 0.0329099 0)
(0.38701 0.0346784 0)
(0.393171 0.0379135 0)
(0.398805 0.0425299 0)
(0.403407 0.0483294 0)
(0.406506 0.0550072 0)
(0.407706 0.0621829 0)
(0.406749 0.0694128 0)
(0.403478 0.0762242 0)
(0.3978 0.0820063 0)
(0.389927 0.0863074 0)
(0.380265 0.0887596 0)
(0.369222 0.0890187 0)
(0.357311 0.0868787 0)
(0.345098 0.0822605 0)
(0.333149 0.075192 0)
(0.322004 0.0658029 0)
(0.312146 0.0543135 0)
(0.303985 0.0410056 0)
(0.567943 0.0369116 0)
(0.578691 0.0411129 0)
(0.589242 0.047666 0)
(0.598822 0.0565213 0)
(0.606696 0.0673687 0)
(0.612226 0.0797574 0)
(0.614836 0.0931074 0)
(0.614074 0.106743 0)
(0.60968 0.119928 0)
(0.601654 0.131898 0)
(0.590154 0.142005 0)
(0.575579 0.149717 0)
(0.558589 0.154789 0)
(0.539719 0.156902 0)
(0.519536 0.156034 0)
(0.49882 0.152417 0)
(0.478234 0.146371 0)
(0.45837 0.138386 0)
(0.439661 0.128851 0)
(0.422434 0.118239 0)
(0.406961 0.106961 0)
(0.393433 0.0954092 0)
(0.381986 0.0839272 0)
(0.372715 0.072807 0)
(0.365672 0.0623033 0)
(0.36087 0.0526305 0)
(0.358298 0.0439628 0)
(0.357889 0.0364713 0)
(0.359526 0.0303071 0)
(0.363035 0.0256088 0)
(0.368198 0.0225289 0)
(0.374673 0.0211828 0)
(0.382075 0.0216813 0)
(0.389938 0.0240898 0)
(0.397731 0.0283813 0)
(0.404853 0.0345102 0)
(0.410655 0.0422051 0)
(0.414566 0.05111 0)
(0.416113 0.0607515 0)
(0.414967 0.0705582 0)
(0.410901 0.0799198 0)
(0.403844 0.088074 0)
(0.39412 0.0944797 0)
(0.382204 0.0986168 0)
(0.368609 0.100077 0)
(0.353991 0.0986132 0)
(0.339048 0.0941324 0)
(0.324464 0.0866829 0)
(0.310882 0.0764346 0)
(0.298873 0.0636664 0)
(0.288905 0.0487336 0)
(0.570807 0.0294978 0)
(0.584225 0.0343286 0)
(0.59736 0.0421326 0)
(0.609254 0.0528297 0)
(0.619034 0.0660377 0)
(0.625918 0.0811834 0)
(0.629214 0.0975325 0)
(0.62837 0.114224 0)
(0.623072 0.130328 0)
(0.613366 0.14481 0)
(0.599538 0.156847 0)
(0.582229 0.165862 0)
(0.562145 0.171515 0)
(0.539989 0.17334 0)
(0.516714 0.171536 0)
(0.493196 0.166413 0)
(0.470267 0.158484 0)
(0.448542 0.148278 0)
(0.428439 0.136336 0)
(0.410315 0.123215 0)
(0.394379 0.109426 0)
(0.380784 0.0954216 0)
(0.36961 0.0815949 0)
(0.360901 0.0682721 0)
(0.354661 0.0557361 0)
(0.350873 0.0442211 0)
(0.349486 0.0339251 0)
(0.350434 0.0250291 0)
(0.353584 0.0177299 0)
(0.358766 0.0122193 0)
(0.365754 0.00863526 0)
(0.374231 0.00713124 0)
(0.383724 0.0078443 0)
(0.393718 0.0109158 0)
(0.403613 0.0163964 0)
(0.412649 0.0242262 0)
(0.420004 0.03419 0)
(0.425019 0.0458226 0)
(0.427071 0.0585471 0)
(0.425774 0.0716143 0)
(0.42079 0.0842295 0)
(0.412089 0.0954275 0)
(0.40013 0.104498 0)
(0.38546 0.110747 0)
(0.368765 0.113711 0)
(0.350874 0.113104 0)
(0.33264 0.108817 0)
(0.314896 0.100921 0)
(0.298413 0.0896388 0)
(0.283864 0.075338 0)
(0.271782 0.0584696 0)
(0.57356 0.0184086 0)
(0.590151 0.0240113 0)
(0.606283 0.0333093 0)
(0.620905 0.0462733 0)
(0.632956 0.0624 0)
(0.641468 0.0809681 0)
(0.645622 0.101045 0)
(0.64474 0.121598 0)
(0.638376 0.141534 0)
(0.626582 0.15913 0)
(0.609937 0.173653 0)
(0.589291 0.184379 0)
(0.565389 0.190621 0)
(0.539286 0.1921 0)
(0.512317 0.189152 0)
(0.485581 0.182249 0)
(0.459975 0.172062 0)
(0.436128 0.159214 0)
(0.414521 0.144446 0)
(0.395457 0.128416 0)
(0.379109 0.111736 0)
(0.36555 0.0949304 0)
(0.354791 0.0784354 0)
(0.346808 0.0626093 0)
(0.341559 0.0477524 0)
(0.338983 0.0341136 0)
(0.339009 0.0219103 0)
(0.341589 0.0114214 0)
(0.346506 0.00269728 0)
(0.353621 -0.00412912 0)
(0.362805 -0.00868974 0)
(0.373609 -0.0107151 0)
(0.385579 -0.00994817 0)
(0.398119 -0.00607678 0)
(0.410429 0.00108947 0)
(0.421655 0.0112313 0)
(0.430904 0.0239858 0)
(0.437268 0.0389648 0)
(0.440023 0.0554613 0)
(0.438624 0.0725804 0)
(0.432615 0.0892228 0)
(0.422002 0.104255 0)
(0.407363 0.116703 0)
(0.38941 0.125623 0)
(0.369065 0.130451 0)
(0.347339 0.130877 0)
(0.32526 0.126815 0)
(0.303827 0.118347 0)
(0.283975 0.10578 0)
(0.266507 0.0896014 0)
(0.252034 0.0704031 0)
(0.574949 0.00288112 0)
(0.594808 0.0095759 0)
(0.614003 0.0206286 0)
(0.631474 0.0363647 0)
(0.645951 0.0560427 0)
(0.656325 0.0787725 0)
(0.661619 0.103531 0)
(0.661117 0.12902 0)
(0.653663 0.153504 0)
(0.639585 0.175099 0)
(0.619982 0.192741 0)
(0.595461 0.205594 0)
(0.56709 0.212479 0)
(0.536557 0.213569 0)
(0.505527 0.209277 0)
(0.475221 0.20028 0)
(0.446645 0.18734 0)
(0.42053 0.17137 0)
(0.397363 0.153268 0)
(0.377404 0.133869 0)
(0.360743 0.11388 0)
(0.347365 0.0938938 0)
(0.337192 0.074386 0)
(0.330125 0.0557394 0)
(0.326063 0.0382619 0)
(0.324906 0.0222089 0)
(0.32666 0.00792602 0)
(0.33091 -0.00473825 0)
(0.337819 -0.0153286 0)
(0.34729 -0.0234705 0)
(0.358876 -0.0289703 0)
(0.372136 -0.0315453 0)
(0.386535 -0.0307526 0)
(0.401417 -0.0262268 0)
(0.415916 -0.0177 0)
(0.429198 -0.00522865 0)
(0.440248 0.0111594 0)
(0.447998 0.0302863 0)
(0.451514 0.0514611 0)
(0.450097 0.0736669 0)
(0.443128 0.095442 0)
(0.430618 0.115109 0)
(0.413157 0.131551 0)
(0.391637 0.143665 0)
(0.367311 0.150757 0)
(0.341437 0.152452 0)
(0.315206 0.148671 0)
(0.289782 0.1395 0)
(0.266307 0.125319 0)
(0.245737 0.106798 0)
(0.228771 0.0847523 0)
(0.571343 -0.0167888 0)
(0.593132 -0.00928716 0)
(0.614233 0.0035937 0)
(0.634084 0.0226477 0)
(0.650698 0.0462053 0)
(0.663139 0.0737008 0)
(0.670308 0.10389 0)
(0.670636 0.135555 0)
(0.662867 0.166248 0)
(0.647329 0.192226 0)
(0.625246 0.214352 0)
(0.59707 0.229608 0)
(0.564325 0.237384 0)
(0.529533 0.238033 0)
(0.49446 0.232164 0)
(0.460559 0.220606 0)
(0.429028 0.204399 0)
(0.40073 0.184734 0)
(0.376155 0.162762 0)
(0.355499 0.139491 0)
(0.338755 0.115755 0)
(0.325794 0.0922069 0)
(0.316444 0.0693535 0)
(0.310521 0.0475821 0)
(0.307865 0.0271962 0)
(0.308468 0.00854361 0)
(0.311796 -0.00849264 0)
(0.318198 -0.023335 0)
(0.327436 -0.0357954 0)
(0.339167 -0.0456156 0)
(0.352914 -0.0524455 0)
(0.368037 -0.0556063 0)
(0.383869 -0.0547208 0)
(0.399688 -0.0492343 0)
(0.414528 -0.0388839 0)
(0.428092 -0.0244154 0)
(0.440033 -0.00461 0)
(0.448803 0.0189217 0)
(0.453176 0.0453548 0)
(0.4521 0.0736425 0)
(0.444453 0.101847 0)
(0.430388 0.127978 0)
(0.410736 0.149482 0)
(0.386352 0.164757 0)
(0.358634 0.174565 0)
(0.329086 0.177754 0)
(0.299047 0.174265 0)
(0.269859 0.164197 0)
(0.242967 0.148037 0)
(0.219575 0.126702 0)
(0.200458 0.101278 0)
(0.554466 -0.0386417 0)
(0.574067 -0.0294099 0)
(0.593707 -0.0158081 0)
(0.613802 0.00528965 0)
(0.631045 0.0318557 0)
(0.645471 0.0633994 0)
(0.655749 0.0982433 0)
(0.659875 0.136242 0)
(0.653316 0.176924 0)
(0.638795 0.210198 0)
(0.61711 0.236995 0)
(0.586574 0.253777 0)
(0.55114 0.263168 0)
(0.513415 0.264256 0)
(0.475406 0.257158 0)
(0.438779 0.242895 0)
(0.405029 0.222999 0)
(0.375188 0.199113 0)
(0.349775 0.172728 0)
(0.328927 0.145098 0)
(0.312539 0.117188 0)
(0.300377 0.0897177 0)
(0.292175 0.0632106 0)
(0.287674 0.0380432 0)
(0.286766 0.0145319 0)
(0.28904 -0.00719978 0)
(0.294492 -0.0268828 0)
(0.303075 -0.0442257 0)
(0.314433 -0.0589042 0)
(0.327854 -0.0704127 0)
(0.342554 -0.0781934 0)
(0.357483 -0.0813027 0)
(0.371878 -0.079494 0)
(0.3853 -0.0725729 0)
(0.396598 -0.0594499 0)
(0.406992 -0.0432867 0)
(0.416603 -0.020495 0)
(0.425478 0.00695718 0)
(0.430899 0.0371712 0)
(0.431383 0.0706535 0)
(0.425227 0.104683 0)
(0.411323 0.134734 0)
(0.389938 0.167219 0)
(0.364497 0.188195 0)
(0.335835 0.200314 0)
(0.304336 0.205674 0)
(0.272016 0.203005 0)
(0.240302 0.192015 0)
(0.211073 0.173506 0)
(0.185843 0.148802 0)
(0.165499 0.119417 0)
(0.511367 -0.0558218 0)
(0.522037 -0.0444383 0)
(0.532438 -0.0277143 0)
(0.545757 -0.00629253 0)
(0.559785 0.0206864 0)
(0.574196 0.0528044 0)
(0.589023 0.0901164 0)
(0.604415 0.132641 0)
(0.607623 0.173798 0)
(0.597334 0.210799 0)
(0.57828 0.253134 0)
(0.551536 0.278526 0)