/*--------------------------------*- C++ -*----------------------------------*\
  =========                 |
  \\      /  F ield         | OpenFOAM: The Open Source CFD Toolbox
   \\    /   O peration     | Website:  https://openfoam.org
    \\  /    A nd           | Version:  11
     \\/     M anipulation  |
\*---------------------------------------------------------------------------*/
FoamFile
{
    format      ascii;
    class       volScalarField;
    location    "5";
    object      p;
}
// * * * * * * * * * * * * * * * * * * * * * * * * * * * * * * * * * * * * * //

dimensions      [0 2 -2 0 0 0 0];

internalField   nonuniform List<scalar> 
9600
(
0.0384862
0.0382309
0.037854
0.037421
0.0368959
0.0362165
0.0352597
0.0339381
0.0322829
0.0303028
0.0279947
0.0253959
0.0224412
0.0185133
0.0145867
0.0111168
0.00740217
0.00294757
0.000323635
-0.00286211
-0.00574797
-0.00804725
-0.0101729
-0.0124627
-0.0145283
-0.0160824
-0.0172864
-0.0181817
-0.0188609
-0.0192145
-0.019367
-0.018878
-0.0181851
-0.0170642
-0.0160604
-0.0146404
-0.0132943
-0.0122348
-0.0114082
-0.0108775
0.0384583
0.0381033
0.0377053
0.037249
0.0366929
0.0359176
0.0347751
0.0333043
0.0315079
0.0294239
0.0271152
0.0245418
0.0215022
0.0180304
0.0139658
0.0104349
0.00674829
0.00251651
-0.00042141
-0.00308481
-0.00604521
-0.00861067
-0.0108084
-0.0130587
-0.0150834
-0.0166527
-0.0178216
-0.0187766
-0.0193858
-0.0199491
-0.0200659
-0.019702
-0.0189766
-0.0179648
-0.0169834
-0.0157051
-0.0142612
-0.0129163
-0.0118746
-0.0116994
0.0383812
0.0379887
0.0375588
0.0370771
0.0364593
0.0355823
0.0343667
0.0328738
0.0311264
0.0291174
0.0268365
0.0241071
0.0210284
0.0174685
0.0138477
0.0102167
0.00622255
0.00252412
-0.000177152
-0.003028
-0.00570392
-0.00781497
-0.00975144
-0.0117981
-0.0137549
-0.0153222
-0.0165831
-0.0174685
-0.0182042
-0.0186539
-0.019077
-0.0188081
-0.0184609
-0.0176298
-0.0167257
-0.0157652
-0.0146111
-0.013373
-0.0123381
-0.011515
0.0383024
0.0378636
0.0374036
0.0369005
0.0362386
0.0353223
0.0340843
0.032561
0.030771
0.028662
0.0261849
0.0235291
0.020455
0.0171353
0.0135124
0.00980012
0.00586349
0.0024299
-0.00084158
-0.00345819
-0.00632495
-0.00884749
-0.0110807
-0.0132602
-0.0152483
-0.0168559
-0.018144
-0.0191425
-0.0199512
-0.0205492
-0.0206266
-0.0206093
-0.0198786
-0.0189113
-0.0178022
-0.0165378
-0.015235
-0.0138685
-0.0125394
-0.0112647
0.0382309
0.0377535
0.0372593
0.0367313
0.0360406
0.035069
0.0337532
0.0321549
0.0302844
0.0281662
0.0257409
0.0230114
0.0199629
0.0166876
0.0129848
0.00930589
0.00554575
0.00223209
-0.000876735
-0.00361504
-0.00608724
-0.00817157
-0.00999734
-0.0118376
-0.0136081
-0.0151022
-0.0163418
-0.0172192
-0.0179066
-0.018422
-0.0188518
-0.0191416
-0.0189895
-0.018457
-0.0176857
-0.0168646
-0.0157559
-0.0145864
-0.0134673
-0.0124544
0.0381698
0.0376486
0.0371212
0.0365699
0.0358527
0.0348234
0.0334321
0.0317983
0.0299352
0.0277836
0.0252898
0.0225177
0.0195204
0.0162865
0.01272
0.00903236
0.00532508
0.00185736
-0.00124404
-0.00402801
-0.00664807
-0.00903771
-0.011209
-0.0133041
-0.0152308
-0.0168544
-0.0182335
-0.019306
-0.0202696
-0.0210289
-0.0212345
-0.0210712
-0.0208874
-0.0200374
-0.0188866
-0.0176348
-0.0164306
-0.0150302
-0.0135996
-0.012317
0.0381191
0.0375544
0.0369929
0.0364153
0.0356664
0.0345995
0.0331645
0.0314847
0.029563
0.0273582
0.0248472
0.0220816
0.0190706
0.0158077
0.0121994
0.00847859
0.00489202
0.00148834
-0.00160633
-0.00436596
-0.00679037
-0.00884817
-0.0106293
-0.0123349
-0.0139395
-0.0153022
-0.0164975
-0.0173522
-0.0179931
-0.0185803
-0.0191284
-0.0194646
-0.0192243
-0.0191935
-0.0187451
-0.0179751
-0.0169833
-0.0158552
-0.0147357
-0.0136696
0.0380795
0.0374685
0.0368776
0.0362686
0.0354937
0.0344034
0.0329223
0.0311789
0.0292101
0.0269823
0.0244091
0.0216367
0.0186262
0.0153534
0.0117904
0.00809747
0.00449756
0.00109386
-0.00200785
-0.0047703
-0.00721168
-0.00941488
-0.0114362
-0.0133665
-0.0151809
-0.0167571
-0.0181559
-0.0193078
-0.0203717
-0.0213076
-0.021855
-0.0221247
-0.0218842
-0.0212378
-0.0201884
-0.019055
-0.017827
-0.0164545
-0.0149643
-0.0136879
0.038057
0.0374074
0.0367744
0.0361325
0.0353419
0.034229
0.0327092
0.0309118
0.0288888
0.02661
0.0240183
0.0212141
0.0182152
0.0148981
0.0112473
0.00752974
0.0039939
0.000588096
-0.00253996
-0.00530712
-0.00768816
-0.00971036
-0.0114888
-0.0130743
-0.0145383
-0.0157992
-0.0169021
-0.0177753
-0.0184295
-0.0190522
-0.0196117
-0.0200042
-0.0202985
-0.0204415
-0.0200977
-0.0193384
-0.018429
-0.0173227
-0.0162003
-0.0151385
0.0380537
0.0373556
0.0366882
0.0360279
0.0352121
0.0340792
0.0325345
0.0306775
0.0285811
0.0262458
0.0236489
0.0208106
0.0177575
0.0143521
0.010679
0.00700104
0.00346726
4.39001e-05
-0.00311052
-0.00583829
-0.00818745
-0.0102058
-0.0119897
-0.0136517
-0.0152649
-0.0167055
-0.0180161
-0.0191931
-0.0203341
-0.0214027
-0.0222942
-0.0229091
-0.0229929
-0.0221865
-0.0216682
-0.02072
-0.019563
-0.0182556
-0.016757
-0.015446
0.0380738
0.0373321
0.0366286
0.0359579
0.0351118
0.033951
0.0323802
0.0304579
0.0282986
0.0259451
0.0232902
0.0203717
0.0172653
0.0138161
0.0101136
0.00639938
0.00284693
-0.000591274
-0.00379766
-0.00653327
-0.00888222
-0.0108403
-0.0124414
-0.0138972
-0.0152633
-0.0164373
-0.0174326
-0.0183046
-0.0190438
-0.0197007
-0.0203612
-0.0209381
-0.0214682
-0.0217901
-0.0214648
-0.0209158
-0.0200823
-0.0191298
-0.0180302
-0.0170403
0.0381169
0.0373309
0.0366072
0.0359171
0.035055
0.033863
0.0322388
0.0302648
0.028068
0.0256463
0.0229049
0.0199264
0.0167692
0.0132334
0.00945857
0.00572166
0.00213697
-0.00132508
-0.00456081
-0.00729765
-0.0095847
-0.0114676
-0.0130142
-0.0143802
-0.0156463
-0.0168346
-0.0179478
-0.0190381
-0.0201889
-0.0213514
-0.022487
-0.0233977
-0.0239277
-0.0239276
-0.0239003
-0.0229056
-0.0216659
-0.0204098
-0.0190319
-0.0177112
0.0381997
0.0373758
0.0366262
0.0359055
0.0350335
0.0337948
0.032128
0.0301093
0.027843
0.0253446
0.0225435
0.0194786
0.0162143
0.0125829
0.00876171
0.00500722
0.00135673
-0.00214388
-0.00543238
-0.00820414
-0.0104599
-0.0123122
-0.0137766
-0.0149491
-0.0159918
-0.0170061
-0.0179267
-0.018766
-0.0196255
-0.0204027
-0.0212118
-0.0219937
-0.0226897
-0.0229972
-0.0229678
-0.0230624
-0.0223816
-0.021393
-0.0202902
-0.0192932
0.0383211
0.0374528
0.0366874
0.0359449
0.0350434
0.0337699
0.0320439
0.0299603
0.0276563
0.0250872
0.0221596
0.0189895
0.0156311
0.0119203
0.00800847
0.00416513
0.000428155
-0.00312026
-0.00644257
-0.00923541
-0.0114396
-0.0131897
-0.0145385
-0.0155601
-0.0164414
-0.01733
-0.0181501
-0.0189206
-0.0199333
-0.0211413
-0.0224917
-0.0237842
-0.0248244
-0.0254543
-0.025316
-0.0248218
-0.0241011
-0.0231406
-0.0218384
-0.0205148
0.0384957
0.0375877
0.0367945
0.0360181
0.0350638
0.0337731
0.031995
0.0298589
0.027461
0.0247533
0.0217522
0.0184884
0.0150144
0.011185
0.00712841
0.00320723
-0.000595026
-0.00420679
-0.00755167
-0.0103934
-0.0125721
-0.014239
-0.0155056
-0.0163654
-0.0170643
-0.0177266
-0.0183736
-0.0189517
-0.0197573
-0.0207836
-0.0219122
-0.0230024
-0.0240791
-0.0249125
-0.0253354
-0.0254899
-0.0249532
-0.0242287
-0.0233004
-0.0223591
0.0387247
0.0377712
0.0369546
0.0361426
0.0351291
0.0338025
0.0319958
0.0297738
0.0272723
0.0245088
0.021359
0.0179481
0.0143224
0.0103558
0.00618818
0.00214805
-0.00177685
-0.00548128
-0.00886946
-0.0117446
-0.0139018
-0.0154447
-0.01656
-0.0172554
-0.0177201
-0.0181018
-0.0185751
-0.0190492
-0.0196963
-0.0207803
-0.0221954
-0.0237824
-0.0254553
-0.02678
-0.027535
-0.027788
-0.027457
-0.0267245
-0.0255457
-0.0244003
0.0390159
0.0380119
0.0371538
0.0363145
0.0352463
0.0338757
0.0320297
0.0296912
0.0270976
0.0241847
0.0209003
0.0173349
0.0135338
0.00946516
0.00512652
0.000896904
-0.0031343
-0.00694037
-0.0103659
-0.0132592
-0.0154025
-0.0168184
-0.0177799
-0.0183116
-0.0185774
-0.0186657
-0.0188528
-0.0192024
-0.0196112
-0.0205925
-0.0218578
-0.0234343
-0.0251114
-0.0266765
-0.0277878
-0.0284242
-0.0285663
-0.0281215
-0.0274337
-0.0266055
0.0393733
0.0383127
0.0374141
0.0365153
0.0354326
0.0339813
0.0320628
0.0296781
0.0269268
0.0238618
0.0204328
0.0166724
0.0126913
0.00844452
0.00391726
-0.000505086
-0.00468914
-0.0085971
-0.0120618
-0.0149936
-0.0171607
-0.018516
-0.0192526
-0.019529
-0.0194981
-0.019306
-0.0191755
-0.0191548
-0.0193367
-0.0202649
-0.0215225
-0.0234662
-0.0255084
-0.0276587
-0.0294223
-0.0306165
-0.0310557
-0.0308304
-0.0303463
-0.0296372
0.0397862
0.0386563
0.0377081
0.0367807
0.0356937
0.0341575
0.0321284
0.0296427
0.0267395
0.0234873
0.0198884
0.0159306
0.0116759
0.00724086
0.00257876
-0.00209997
-0.00648836
-0.010513
-0.0140662
-0.0170231
-0.019142
-0.0204635
-0.020938
-0.0209869
-0.0205592
-0.020085
-0.0195326
-0.0192183
-0.0192239
-0.019798
-0.0209569
-0.0230517
-0.0251606
-0.02761
-0.0298415
-0.031516
-0.0325573
-0.0328504
-0.0326346
-0.032374
0.0402638
0.0390486
0.0380771
0.0371368
0.035983
0.0343808
0.0322483
0.029609
0.0265475
0.0230647
0.0192854
0.0151147
0.0105474
0.00587499
0.00102229
-0.00388656
-0.00850602
-0.012763
-0.0163791
-0.0193684
-0.0214481
-0.0226984
-0.0229406
-0.0227672
-0.0219726
-0.0210765
-0.0199838
-0.019214
-0.0187921
-0.0190288
-0.0200789
-0.0220204
-0.0246142
-0.0277344
-0.0306789
-0.0332335
-0.0350123
-0.0359781
-0.0362066
-0.0362797
0.0408278
0.0395482
0.0385574
0.0375645
0.0363284
0.0346237
0.032374
0.0296035
0.0262836
0.0225728
0.0185082
0.0141371
0.00933271
0.00426738
-0.000831915
-0.00593378
-0.0108395
-0.0153251
-0.0190502
-0.0221069
-0.0241867
-0.0254426
-0.0254501
-0.0247379
-0.0234632
-0.0222629
-0.0206946
-0.0192987
-0.0182869
-0.0181096
-0.0189193
-0.0207782
-0.0236331
-0.0270161
-0.0305981
-0.0339593
-0.0366012
-0.0384619
-0.0393042
-0.0398818
0.0415236
0.0401629
0.0391283
0.0380703
0.0367387
0.0349178
0.0325205
0.0295691
0.0260254
0.0220157
0.0176267
0.0129799
0.00788669
0.00245578
-0.00295852
-0.00833243
-0.0134913
-0.0182686
-0.0222082
-0.0252758
-0.0273055
-0.0285909
-0.028501
-0.0273336
-0.0254164
-0.0235229
-0.0215361
-0.019647
-0.0179874
-0.0170923
-0.0172656
-0.0187499
-0.021563
-0.0254859
-0.0298637
-0.0343576
-0.0382224
-0.0413624
-0.0433845
-0.0444891
0.0423745
0.0409016
0.0397936
0.0386537
0.0371962
0.0352624
0.0326739
0.0294628
0.0256524
0.0213295
0.0166335
0.0115892
0.00614162
0.000359134
-0.00548008
-0.0111498
-0.0165338
-0.0216822
-0.025888
-0.0290167
-0.0310359
-0.0321748
-0.031973
-0.030671
-0.0282187
-0.0253353
-0.0224143
-0.0197664
-0.0175498
-0.0159526
-0.0154392
-0.0163713
-0.0189031
-0.0231352
-0.0281626
-0.0336412
-0.0388218
-0.0433267
-0.0468835
-0.0490687
0.0433616
0.0417582
0.040568
0.0393277
0.0377223
0.0356054
0.0328322
0.0293511
0.0251906
0.0205251
0.0154214
0.00995358
0.0041278
-0.00208129
-0.00840925
-0.0144709
-0.0201283
-0.0255401
-0.0301007
-0.0335296
-0.0355831
-0.036485
-0.0360708
-0.0344599
-0.0315683
-0.0280237
-0.024056
-0.0202477
-0.016984
-0.0145559
-0.0132753
-0.0134834
-0.0153917
-0.0192394
-0.0248047
-0.0314789
-0.0382477
-0.044593
-0.0499148
-0.053965
0.0445555
0.0427933
0.0414535
0.040084
0.0383195
0.0359609
0.0329305
0.0291289
0.0245799
0.0195262
0.013936
0.00799532
0.00166239
-0.0049868
-0.0117367
-0.0183939
-0.0244914
-0.0301089
-0.0349541
-0.0387754
-0.0410127
-0.0416802
-0.0410846
-0.0389112
-0.035535
-0.0314674
-0.0266255
-0.0216493
-0.0169367
-0.0130744
-0.0105479
-0.00960622
-0.0107937
-0.014076
-0.019691
-0.0273988
-0.0357837
-0.0444055
-0.0519886
-0.0577309
0.045979
0.0440143
0.0424744
0.040924
0.038967
0.0363533
0.0329839
0.0288252
0.0239632
0.0183425
0.0121689
0.00563756
-0.00122877
-0.00849239
-0.0157074
-0.0229569
-0.0295987
-0.0355624
-0.0406926
-0.0447515
-0.0473206
-0.0479959
-0.0472632
-0.0445704
-0.0405834
-0.0357476
-0.0299739
-0.0238376
-0.0177433
-0.0121771
-0.00792046
-0.00536401
-0.00512891
-0.00728258
-0.0122319
-0.019982
-0.0297837
-0.0412654
-0.0519283
-0.0605954
0.0475447
0.0453805
0.0436428
0.041844
0.0396259
0.036692
0.0329429
0.0283051
0.0228178
0.016717
0.010036
0.00272456
-0.0047249
-0.0126027
-0.0205271
-0.0283578
-0.0356015
-0.0420897
-0.0476153
-0.0518247
-0.0547099
-0.0555265
-0.0545576
-0.051691
-0.0471877
-0.0413925
-0.0345058
-0.0272042
-0.0197302
-0.012414
-0.00602295
-0.00115727
0.00139353
0.0012379
-0.00226879
-0.00922604
-0.019458
-0.0330704
-0.0473819
-0.0609705
0.0492938
0.0468868
0.0449657
0.0428813
0.0403062
0.0369586
0.0327336
0.0275456
0.0215265
0.0146262
0.00730372
-0.000707882
-0.00899077
-0.0175403
-0.0262442
-0.0347054
-0.0427671
-0.0497939
-0.0558982
-0.0603753
-0.0633921
-0.0645088
-0.0634656
-0.0603449
-0.0554752
-0.0490115
-0.0410661
-0.0324342
-0.0233339
-0.0141018
-0.00544134
0.0020732
0.00758511
0.0104976
0.00980901
0.00534487
-0.00371926
-0.0171239
-0.0343302
-0.0537836
0.0513995
0.0486367
0.0463969
0.0440049
0.0410347
0.0370597
0.0322714
0.0264015
0.0196166
0.0119946
0.00376355
-0.00501937
-0.0142536
-0.0235661
-0.0332182
-0.042378
-0.0512811
-0.0590378
-0.0657108
-0.0707396
-0.0739235
-0.0752857
-0.0743902
-0.0710948
-0.0658586
-0.0588485
-0.0501053
-0.0402056
-0.0294204
-0.0182521
-0.00721073
0.00315624
0.0119601
0.0188734
0.0223379
0.0224359
0.0170328
0.0070401
-0.00956468
-0.0307428
0.0539034
0.0506815
0.0480637
0.0451091
0.0415232
0.0370164
0.031446
0.0248051
0.0170747
0.00855152
-0.00075846
-0.0104732
-0.0208234
-0.0310128
-0.0416245
-0.0518082
-0.0614603
-0.0701491
-0.0774534
-0.083137
-0.0866847
-0.0882304
-0.0875687
-0.0843639
-0.0788666
-0.0713977
-0.0620324
-0.0511494
-0.0390498
-0.0260019
-0.0126532
0.000688825
0.0129576
0.024148
0.0324599
0.0382486
0.039035
0.0358073
0.0254209
0.00893797
0.056872
0.0530691
0.0497011
0.0461723
0.0419513
0.0365814
0.0301916
0.0227287
0.0140475
0.00429149
-0.00639483
-0.0172474
-0.028822
-0.0403622
-0.0519712
-0.0633594
-0.0739085
-0.0835823
-0.0916663
-0.0980085
-0.10222
-0.104139
-0.103741
-0.100796
-0.0953366
-0.087627
-0.077849
-0.0660822
-0.0529889
-0.0385259
-0.023224
-0.0073269
0.00829554
0.0233908
0.0368618
0.0486047
0.0568573
0.0616049
0.0611864
0.0560429
0.0603762
0.0558881
0.0516327
0.0470125
0.0416684
0.0352142
0.0274686
0.0186731
0.0086572
-0.00209371
-0.0139209
-0.026336
-0.0391797
-0.0523108
-0.0652139
-0.0778205
-0.0895342
-0.100172
-0.109208
-0.11629
-0.121239
-0.123706
-0.123728
-0.121142
-0.115986
-0.108273
-0.0984051
-0.0863663
-0.0726078
-0.0572206
-0.0404966
-0.0225859
-0.00418374
0.0143369
0.0321789
0.0488049
0.0639014
0.0760941
0.0849757
0.0891402
0.0641814
0.0588266
0.0536008
0.0482143
0.0419871
0.0346251
0.0257652
0.0155271
0.00356976
-0.00961707
-0.0233388
-0.0375804
-0.0521088
-0.0668605
-0.0813703
-0.0954202
-0.10845
-0.120098
-0.130281
-0.13833
-0.144188
-0.147547
-0.148196
-0.146116
-0.141545
-0.134245
-0.124643
-0.11281
-0.0990276
-0.0833349
-0.0660056
-0.0470773
-0.0265923
-0.00583176
0.0154017
0.0360176
0.0555335
0.0735972
0.0888476
0.100323
0.0678257
0.0609609
0.053765
0.0460784
0.0375912
0.0279312
0.017219
0.00528362
-0.00799791
-0.0223384
-0.0375609
-0.0538356
-0.0705274
-0.087076
-0.103203
-0.118681
-0.132964
-0.145737
-0.156812
-0.165827
-0.172514
-0.176801
-0.178373
-0.177119
-0.173302
-0.166855
-0.157968
-0.146962
-0.133728
-0.118701
-0.101646
-0.0829157
-0.0624566
-0.0401654
-0.0171448
0.00645398
0.0295502
0.0518521
0.0724868
0.0906568
0.0736316
0.0660229
0.0584352
0.0499121
0.0398575
0.0280731
0.014428
-0.00101087
-0.0181174
-0.0365003
-0.0555975
-0.0750402
-0.094322
-0.113118
-0.131188
-0.148458
-0.164229
-0.178405
-0.19044
-0.200407
-0.207809
-0.212793
-0.215154
-0.214984
-0.212222
-0.207145
-0.19985
-0.190276
-0.178644
-0.164917
-0.149458
-0.131842
-0.112549
-0.091558
-0.0684448
-0.0440197
-0.0189082
0.00617513
0.0308627
0.0533127
0.0718292
0.0589201
0.0463766
0.0336011
0.0199851
0.00521833
-0.0106545
-0.027839
-0.0463657
-0.0664314
-0.0875932
-0.109404
-0.131279
-0.152567
-0.172876
-0.191887
-0.209233
-0.224753
-0.23802
-0.248998
-0.257328
-0.263126
-0.266215
-0.267086
-0.265598
-0.262175
-0.256639
-0.249443
-0.240111
-0.22876
-0.215332
-0.199902
-0.182888
-0.163948
-0.143772
-0.121661
-0.0987247
-0.0751992
-0.0520333
-0.0303972
0.0916931
0.0801396
0.0661954
0.0498123
0.031127
0.00985115
-0.0134839
-0.0382839
-0.0638821
-0.0895962
-0.11525
-0.140309
-0.164876
-0.188433
-0.210819
-0.231444
-0.250185
-0.266579
-0.280612
-0.292031
-0.300907
-0.307242
-0.311388
-0.313478
-0.313812
-0.312785
-0.310342
-0.306882
-0.301973
-0.296003
-0.287537
-0.277054
-0.26348
-0.247365
-0.229281
-0.209247
-0.190463
-0.172428
-0.154827
-0.1407
0.045069
0.0207404
-0.00314928
-0.0276136
-0.0522987
-0.0774371
-0.103336
-0.130561
-0.159265
-0.188945
-0.218969
-0.248493
-0.277087
-0.303883
-0.329185
-0.351397
-0.371879
-0.388428
-0.40279
-0.413446
-0.421112
-0.425961
-0.428824
-0.430195
-0.430199
-0.43011
-0.429973
-0.43119
-0.433348
-0.436565
-0.43984
-0.441885
-0.4406
-0.433691
-0.418608
-0.39486
-0.362521
-0.324895
-0.290894
-0.271247
0.114382
0.083949
0.0502433
0.0156797
-0.0195398
-0.0552508
-0.0918643
-0.127997
-0.163735
-0.198434
-0.231972
-0.263562
-0.293404
-0.320456
-0.34541
-0.366808
-0.385399
-0.40007
-0.410909
-0.41799
-0.42134
-0.421427
-0.418643
-0.413451
-0.406499
-0.400356
-0.39607
-0.396899
-0.40315
-0.418196
-0.442064
-0.476474
-0.523603
-0.585169
-0.664943
-0.740013
-0.77634
-0.770718
-0.745912
-0.714232
-0.183643
-0.224745
-0.268329
-0.317588
-0.371152
-0.424903
-0.47803
-0.529093
-0.577479
-0.621633
-0.660297
-0.693597
-0.723802
-0.752169
-0.777931
-0.799352
-0.814439
-0.823115
-0.8244
-0.819708
-0.80871
-0.791523
-0.768349
-0.739466
-0.707654
-0.673928
-0.640752
-0.609537
-0.581406
-0.559418
-0.543967
-0.538844
-0.54505
-0.5691
-0.615832
-0.642602
-0.653176
-0.658584
-0.663694
-0.666097
-0.00998075
-0.00834373
-0.00839022
-0.00801423
-0.00708984
-0.00589928
-0.00387263
-0.00151199
0.0010454
0.00386345
0.00573703
0.00524599
0.00572293
0.00485292
0.00479899
0.00398918
0.00317177
0.00221977
0.00136897
0.000771673
0.00019439
-0.00016463
-0.000441815
-0.000565191
-0.000665676
-0.000693085
-0.000649469
-0.000576615
-0.000477883
-0.000360305
-0.000255399
-0.000105013
9.67177e-06
0.000146362
0.00022847
0.000348887
0.000522111
0.000684021
0.000772663
0.000191428
-0.00989162
-0.0089339
-0.00903954
-0.00857561
-0.00769152
-0.00645353
-0.00434002
-0.00173749
0.00106426
0.00409399
0.0061603
0.00524622
0.00601064
0.00514995
0.00506426
0.00416603
0.00329597
0.00231
0.00138501
0.000695677
6.39514e-05
-0.000322719
-0.000585136
-0.000753864
-0.000869047
-0.000889413
-0.000828397
-0.000738729
-0.000583674
-0.000462391
-0.000312865
-0.000168936
-3.57646e-05
9.8219e-05
0.000193629
0.000328015
0.000499671
0.000616214
0.000362346
-0.000829491
-0.0099561
-0.00958572
-0.00971016
-0.00912062
-0.00831031
-0.0070417
-0.00485086
-0.00207402
0.0010167
0.00427895
0.00671099
0.00515222
0.00625286
0.00569313
0.00549665
0.00444244
0.00348184
0.0024273
0.00142274
0.000665939
1.6977e-05
-0.00043526
-0.000694945
-0.000911017
-0.00104016
-0.00101503
-0.000941428
-0.000842276
-0.000680329
-0.000578624
-0.000431291
-0.000306559
-0.000165045
-3.96582e-05
7.99805e-05
0.000236585
0.000416937
0.000605261
0.000848723
0.00109413
-0.010004
-0.0101565
-0.0103757
-0.0097131
-0.00897453
-0.00765924
-0.00541076
-0.00252285
0.000825153
0.00437713
0.00735386
0.00509675
0.00650987
0.00633351
0.00603703
0.00490267
0.003703
0.00257506
0.0015223
0.000688041
-1.25993e-05
-0.000542294
-0.000812754
-0.00110401
-0.00118509
-0.00112436
-0.00105464
-0.000956095
-0.000860328
-0.000783962
-0.000660868
-0.000542717
-0.000386418
-0.000240325
-6.7396e-05
0.000130382
0.000322256
0.00047344
0.000391567
-0.000194659
-0.0106316
-0.0107607
-0.0110965
-0.0104009
-0.00970393
-0.00841803
-0.00612392
-0.00312047
0.000451819
0.00437479
0.00813227
0.00512357
0.00688469
0.00707449
0.00663987
0.00552816
0.00400416
0.00277302
0.0016864
0.000731003
-4.95321e-05
-0.000594263
-0.000921809
-0.00127979
-0.00132494
-0.00130911
-0.00126395
-0.00118737
-0.00115464
-0.00107131
-0.000929058
-0.000775153
-0.000585379
-0.000391277
-0.000174198
4.14234e-05
0.000230834
0.000429303
0.000725356
0.00114419
-0.0107283
-0.0113297
-0.011839
-0.0111968
-0.0105171
-0.00937307
-0.00705554
-0.00391585
-0.000114184
0.00420237
0.00909492
0.00535346
0.00744455
0.00793369
0.00737813
0.00621329
0.00442062
0.00302781
0.00189714
0.000815084
-4.33299e-05
-0.000596922
-0.0010555
-0.00142655
-0.0014971
-0.00155716
-0.00152911
-0.00147741
-0.00142288
-0.00129378
-0.00111318
-0.000913447
-0.00069602
-0.000464742
-0.000246644
-4.41874e-05
0.00012674
0.000290882
0.000299836
5.70002e-05
-0.0117484
-0.0120425
-0.0126028
-0.0121288
-0.0114941
-0.0105209
-0.00817439
-0.00493185
-0.000873261
0.0038284
0.0102628
0.00590833
0.00816996
0.00896286
0.00830339
0.00692014
0.00497107
0.00337931
0.00213897
0.000910802
-2.39894e-06
-0.000616576
-0.00121463
-0.00155985
-0.0016841
-0.0017846
-0.0017544
-0.00171343
-0.00160231
-0.00144898
-0.00124808
-0.00102113
-0.000798672
-0.000567487
-0.000364612
-0.000168868
-4.91591e-07
0.000205895
0.000501997
0.000934403
-0.0119869
-0.0128544
-0.0135978
-0.0133255
-0.0127189
-0.0119319
-0.00951478
-0.00615277
-0.00185917
0.00331079
0.0112323
0.00713789
0.00908914
0.0102638
0.0094798
0.0076807
0.005663
0.00380397
0.00239127
0.00107291
7.13633e-05
-0.000650699
-0.00136171
-0.00169122
-0.0018679
-0.00200311
-0.00197902
-0.00195346
-0.00181405
-0.00164144
-0.00142291
-0.00119681
-0.000975024
-0.000740432
-0.000513039
-0.000315207
-0.000122132
7.64368e-05
0.00014269
0.000119135
-0.0133367
-0.0137548
-0.0146984
-0.0147681
-0.0141947
-0.0136251
-0.0112219
-0.00767439
-0.00310489
0.00275577
0.0121372
0.00882978
0.0102236
0.0118315
0.0108545
0.0085686
0.0064668
0.00431284
0.00267945
0.00125176
9.02141e-05
-0.000758492
-0.00152662
-0.00184916
-0.00209826
-0.0022676
-0.00225748
-0.00224055
-0.00209316
-0.00191057
-0.0016762
-0.00143228
-0.00117512
-0.000896303
-0.000646748
-0.000450439
-0.000222693
-8.1376e-06
0.000247998
0.00061505
-0.0136377
-0.0146724
-0.0159105
-0.0163892
-0.0159485
-0.0155988
-0.0133661
-0.00962992
-0.00470444
0.00208693
0.012526
0.0112515
0.0117064
0.0137071
0.0123988
0.00964989
0.00736385
0.0048899
0.00299612
0.00139887
8.87134e-05
-0.000888292
-0.00167782
-0.00203768
-0.00236594
-0.00253902
-0.00255066
-0.00254513
-0.00241093
-0.00222538
-0.00196251
-0.00167204
-0.0013551
-0.00105
-0.000800716
-0.000587032
-0.000344856
-0.000145568
-6.90452e-06
9.69389e-05
-0.0153981
-0.0158767
-0.017238
-0.0181903
-0.0180758
-0.0179345
-0.0160063
-0.0121403
-0.00678141
0.00110136
0.0122551
0.0141796
0.0138098
0.015991
0.0140763
0.0109544
0.00837079
0.00555873
0.00337994
0.00159682
0.000155557
-0.000979077
-0.00176363
-0.00222735
-0.00260938
-0.00279514
-0.00287017
-0.00287927
-0.00274894
-0.00255362
-0.00226655
-0.0019539
-0.00162204
-0.00133948
-0.0010774
-0.000817638
-0.000537155
-0.000291115
-3.15529e-05
0.000267576
-0.0159822
-0.0173677
-0.0190084
-0.0203841
-0.0207397
-0.0208537
-0.0192543
-0.0153217
-0.00949695
-0.000469745
0.0113901
0.0171639
0.0166728
0.0186989
0.0158629
0.0124568
0.00949805
0.00631362
0.00381792
0.00187165
0.000282788
-0.00101122
-0.00181631
-0.00244933
-0.00289367
-0.00310224
-0.00321358
-0.00319703
-0.00307166
-0.00287856
-0.00261328
-0.00233525
-0.00204105
-0.00175972
-0.00145708
-0.00113071
-0.000792045
-0.000483293
-0.000221854
-3.47729e-05
-0.0180806
-0.0190729
-0.0210015
-0.0230221
-0.0240353
-0.024579
-0.0233579
-0.019325
-0.0130236
-0.00270997
0.0100191
0.0196809
0.0200405
0.0217336
0.0178504
0.0141349
0.0107192
0.00711563
0.00432816
0.00214162
0.000337268
-0.00105549
-0.00195702
-0.00272845
-0.00320274
-0.00341821
-0.00351354
-0.00346694
-0.00335036
-0.00318159
-0.00294605
-0.00268716
-0.00241298
-0.00210555
-0.00178427
-0.00142563
-0.00106541
-0.000725792
-0.000400124
-9.17116e-05
-0.0193314
-0.020632
-0.0231189
-0.0259776
-0.0278815
-0.0290997
-0.0284947
-0.0243157
-0.0175306
-0.00562656
0.0082091
0.0211538
0.0237005
0.0250284
0.0201697
0.0159696
0.0119903
0.00793567
0.00486007
0.00229277
0.000287727
-0.00113503
-0.00217423
-0.00299974
-0.00350004
-0.00377267
-0.00384111
-0.00377475
-0.00363244
-0.0034416
-0.00318107
-0.00290764
-0.00263165
-0.00233385
-0.00204525
-0.00170192
-0.00136285
-0.00101742
-0.000644812
-0.000318004
-0.0217421
-0.0226894
-0.0256084
-0.0291622
-0.0322746
-0.0344102
-0.0347099
-0.0305494
-0.0232064
-0.0094057
0.00578243
0.0217963
0.027383
0.0285056
0.0228636
0.0180049
0.0133216
0.00881327
0.00540503
0.00241987
0.000248767
-0.00123866
-0.00246001
-0.00332167
-0.00390393
-0.00425699
-0.00431529
-0.00425009
-0.00405952
-0.00383659
-0.003537
-0.00325134
-0.00297923
-0.00269705
-0.00239569
-0.00203651
-0.00171216
-0.00138057
-0.00102033
-0.000636708
-0.0237876
-0.0253067
-0.0291511
-0.03346
-0.0378665
-0.0411482
-0.0424078
-0.0385262
-0.0303338
-0.0144726
0.00249879
0.0218128
0.0310286
0.0319763
0.0258425
0.0202512
0.0147267
0.00979375
0.00600188
0.00266633
0.000357141
-0.00132732
-0.0027384
-0.00367526
-0.00439723
-0.00483201
-0.00495817
-0.00492121
-0.00471696
-0.00451877
-0.0042015
-0.00393369
-0.00361532
-0.00326087
-0.00284967
-0.00241797
-0.00203981
-0.00166559
-0.00129351
-0.000890949
-0.0265377
-0.0287198
-0.0337503
-0.039241
-0.0452143
-0.0502128
-0.0525435
-0.049235
-0.039507
-0.0212698
-0.00165152
0.0210664
0.0343737
0.0351844
0.0288862
0.0225528
0.0160706
0.0108516
0.00663899
0.00310928
0.000631559
-0.00133854
-0.00288836
-0.00394994
-0.00480628
-0.00528315
-0.00550032
-0.00552481
-0.0053726
-0.00522859
-0.00490687
-0.00462639
-0.00419235
-0.00374953
-0.00322683
-0.00273659
-0.0022952
-0.00190736
-0.00157738
-0.0013329
-0.0294393
-0.0320944
-0.0385803
-0.0459747
-0.0540304
-0.0615632
-0.0655158
-0.0634196
-0.0515175
-0.0300766
-0.00672859
0.0194213
0.0370945
0.0378566
0.0315438
0.0246035
0.017201
0.0118849
0.00707427
0.00349862
0.000760856
-0.00139396
-0.0030308
-0.00416636
-0.00505722
-0.00550029
-0.005777
-0.00585104
-0.00577759
-0.00562842
-0.00527143
-0.00498767
-0.00451753
-0.00411416
-0.00360519
-0.00315893
-0.002698
-0.00229064
-0.00195528
-0.00183806
-0.0329508
-0.0364597
-0.0438853
-0.0535423
-0.0643754
-0.0751916
-0.0819624
-0.0813791
-0.0670582
-0.0412091
-0.0131631
0.016971
0.0392988
0.0398741
0.0335451
0.026039
0.0181932
0.0125554
0.00715893
0.00353233
0.000465959
-0.00174393
-0.00348809
-0.00466425
-0.00554995
-0.00594492
-0.0062201
-0.00621277
-0.00617169
-0.00598736
-0.00568627
-0.0054645
-0.00508764
-0.00479165
-0.00434038
-0.00392653
-0.00339533
-0.00293093
-0.00255211
-0.00247412
-0.0373816
-0.0424081
-0.0509521
-0.063222
-0.0780056
-0.0930266
-0.10549
-0.104795
-0.0869292
-0.0551766
-0.0214945
0.0138647
0.0409191
0.041066
0.0349156
0.0268654
0.0189639
0.0126336
0.00704059
0.00309844
-0.000147484
-0.00252504
-0.00441538
-0.00572718
-0.00662855
-0.00696337
-0.00721101
-0.00708532
-0.00710374
-0.00689068
-0.00671724
-0.00648215
-0.00614599
-0.00583018
-0.00532263
-0.00480991
-0.0041696
-0.00366207
-0.00324871
-0.00316269
-0.0421969
-0.0493523
-0.0604589
-0.0763887
-0.0967772
-0.11826
-0.137668
-0.138007
-0.112475
-0.0722756
-0.0315918
0.00949052
0.0412973
0.040928
0.0353137
0.0271493
0.0191744
0.0124457
0.00681001
0.00250949
-0.000918196
-0.00354569
-0.0054778
-0.00686578
-0.0078104
-0.00813645
-0.0084625
-0.00833633
-0.00839599
-0.00810151
-0.00794287
-0.00755
-0.00715476
-0.00668205
-0.00608575
-0.00545968
-0.00476963
-0.00424791
-0.00384669
-0.00378474
-0.0476119
-0.0564062
-0.0709599
-0.0930141
-0.122226
-0.158247
-0.181446
-0.180721
-0.144328
-0.0926002
-0.0430592
0.00378558
0.0393138
0.0389641
0.0342228
0.0263713
0.018564
0.0119846
0.00621261
0.00192608
-0.00169502
-0.00427866
-0.00619907
-0.00757913
-0.00857046
-0.00897424
-0.00941724
-0.00931597
-0.00942916
-0.00903493
-0.00880394
-0.00826016
-0.00780213
-0.0072103
-0.00662523
-0.00592262
-0.00526557
-0.00474735
-0.00442305
-0.00438779
-0.0539397
-0.0650782
-0.0831919
-0.114041
-0.158333
-0.21049
-0.245498
-0.23243
-0.180716
-0.115987
-0.0551981
-0.00231342
0.0333557
0.0348164
0.0313127
0.0236589
0.0167005
0.0104117
0.00479694
0.000779254
-0.00272691
-0.00508977
-0.00705253
-0.00844774
-0.00938031
-0.00983544
-0.0102723
-0.0101974
-0.0103309
-0.00987033
-0.00964155
-0.00899574
-0.00859178
-0.0079678
-0.00736204
-0.00660423
-0.00597938
-0.0054161
-0.00516774
-0.00510391
-0.0616165
-0.0762389
-0.0997556
-0.142896
-0.207776
-0.275402
-0.325226
-0.295999
-0.220102
-0.140758
-0.0691805
-0.00797837
0.0223893
0.0270809
0.0256762
0.0185553
0.0130804
0.00694301
0.00212536
-0.00170947
-0.00483451
-0.00717795
-0.00903301
-0.010361
-0.011052
-0.0115138
-0.0117593
-0.0117466
-0.01173
-0.0112605
-0.0110114
-0.0103688
-0.0100515
-0.00930042
-0.00868618
-0.00786849
-0.00714569
-0.00648255
-0.00615074
-0.00600913
-0.0685983
-0.0869205
-0.120708
-0.186489
-0.26987
-0.371795
-0.426641
-0.369228
-0.261422
-0.165627
-0.0837135
-0.0177112
0.00630452
0.0147028
0.0162712
0.0105168
0.00701659
0.00147124
-0.00199026
-0.00581185
-0.00823009
-0.0106536
-0.0120193
-0.0133505
-0.0137326
-0.0142014
-0.0140971
-0.0141919
-0.01384
-0.0135021
-0.0131126
-0.0125819
-0.012112
-0.0112544
-0.0105807
-0.00958079
-0.00880096
-0.00795059
-0.0073819
-0.00719928
-0.0759392
-0.098179
-0.144892
-0.239868
-0.361087
-0.508632
-0.541558
-0.43576
-0.301119
-0.189196
-0.0972571
-0.038031
-0.0145056
-0.00197436
0.0019258
-0.000967044
-0.00216814
-0.00613592
-0.00784366
-0.0112345
-0.0126278
-0.0150436
-0.0157797
-0.017185
-0.0172474
-0.0175366
-0.0172442
-0.0171318
-0.0165514
-0.0163073
-0.0156292
-0.015187
-0.0143045
-0.0134466
-0.0124581
-0.0113667
-0.0105016
-0.0095409
-0.00897749
-0.00867688
-0.0827478
-0.112567
-0.181047
-0.303283
-0.475192
-0.650002
-0.622646
-0.46935
-0.325058
-0.20446
-0.118027
-0.0684516
-0.0421489
-0.0244708
-0.018755
-0.0164167
-0.0154938
-0.016238
-0.0163115
-0.0181399
-0.018704
-0.0204607
-0.0205243
-0.0215574
-0.0211689
-0.0213198
-0.0207265
-0.0202717
-0.0194919
-0.0189644
-0.0181223
-0.0174219
-0.0163189
-0.0154418
-0.0142341
-0.0132787
-0.0121803
-0.0112986
-0.0107763
-0.0104205
-0.0825044
-0.117572
-0.205874
-0.339558
-0.482299
-0.658449
-0.587332
-0.444956
-0.320437
-0.217253
-0.149464
-0.109561
-0.0795404
-0.05703
-0.0472236
-0.0380122
-0.0343407
-0.0300006
-0.0286721
-0.0273344
-0.0271262
-0.0269864
-0.0263356
-0.0262693