/*--------------------------------*- C++ -*----------------------------------*\
  =========                 |
  \\      /  F ield         | OpenFOAM: The Open Source CFD Toolbox
   \\    /   O peration     | Website:  https://openfoam.org
    \\  /    A nd           | Version:  11
     \\/     M anipulation  |
\*---------------------------------------------------------------------------*/
FoamFile
{
    format      ascii;
    class       surfaceScalarField;
    location    "5";
    object      phi;
}
// * * * * * * * * * * * * * * * * * * * * * * * * * * * * * * * * * * * * * //

dimensions      [0 3 -1 0 0 0 0];

internalField   nonuniform List<scalar> 
18960
(
0.088765
0.00040211
-0.0891671
0.0883811
0.000383898
0.0880165
0.000364572
0.0876907
0.000325809
0.0873963
0.000294418
0.0871554
0.000240825
0.0869483
0.000207146
0.0867912
0.00015712
0.0866786
0.00011256
0.0866301
4.84589e-05
0.0866248
5.342e-06
0.0866946
-6.97492e-05
0.0867544
-5.98019e-05
0.086402
0.00035236
0.0852356
0.00116636
0.0836591
0.00157652
0.0826773
0.000981848
0.0824962
0.000181066
0.082884
-0.000387828
0.0840358
-0.0011518
0.0855625
-0.00152672
0.0870086
-0.00144603
0.0882714
-0.00126285
0.08939
-0.0011186
0.0902658
-0.000875753
0.090998
-0.00073218
0.0915937
-0.000595757
0.0920033
-0.00040963
0.0921175
-0.000114154
0.0921237
-6.16578e-06
0.0920014
0.000122242
0.0918859
0.00011556
0.0917086
0.000177265
0.0915628
0.000145781
0.0912777
0.0002851
0.0911107
0.000167059
0.0908408
0.000269857
0.0907839
5.69267e-05
0.0906824
0.000101444
-0.000403243
0.0910857
0.0888176
0.000758449
-0.0891739
0.0885123
0.000689167
0.0882413
0.000635569
0.0879784
0.000588767
0.0877634
0.000509366
0.0875579
0.000446338
0.0874075
0.000357582
0.0873185
0.000246073
0.0872488
0.0001823
0.0871569
0.000140315
0.0871325
2.97121e-05
0.0872012
-0.000138393
0.0872833
-0.000141922
0.087356
0.000279635
0.0876027
0.000919671
0.087984
0.00119522
0.088105
0.000860905
0.088136
0.000150032
0.0882776
-0.000529417
0.0886045
-0.00147872
0.0891483
-0.00207046
0.0899274
-0.00222522
0.0906665
-0.00200192
0.0914305
-0.00188255
0.0921499
-0.00159522
0.0928775
-0.00145975
0.0934499
-0.00116811
0.0938822
-0.000842015
0.0942562
-0.000488157
0.0944449
-0.000194803
0.0946095
-4.24299e-05
0.0946119
0.00011322
0.0945558
0.000233318
0.0943732
0.000328413
0.0941534
0.00050495
0.093848
0.000472402
0.0934834
0.000634506
0.0930743
0.000466036
0.0926942
0.00048148
4.1661e-05
0.0922493
0.0888324
0.00110083
-0.0891748
0.0885283
0.000993354
0.0882558
0.000908062
0.0880084
0.000836115
0.0877731
0.000744671
0.0875566
0.000662882
0.0874124
0.000501782
0.0873162
0.000342258
0.087223
0.000275474
0.0871589
0.000204423
0.0872014
-1.27952e-05
0.0874019
-0.000338859
0.087613
-0.000353038
0.0877758
0.000116878
0.087822
0.000873461
0.0877552
0.00126198
0.0875076
0.00110847
0.0873051
0.000352599
0.0873621
-0.000586421
0.0877553
-0.00187194
0.0883474
-0.00266261
0.0890723
-0.00295005
0.0898409
-0.00277055
0.0905475
-0.0025891
0.091225
-0.00227281
0.0917787
-0.00201343
0.092268
-0.00165739
0.0927516
-0.00132565
0.0930729
-0.0008094
0.0933622
-0.000484164
0.0934424
-0.000122641
0.093483
7.26927e-05
0.0933557
0.00036062
0.0932399
0.000444175
0.0930366
0.000708308
0.0929602
0.000548741
0.0928704
0.000724364
0.0928876
0.000448787
0.0928841
0.000485009
-2.52239e-05
0.092951
0.0888131
0.00143664
-0.0891489
0.0885248
0.00128169
0.0882503
0.00118254
0.0880137
0.00107266
0.0877947
0.000963757
0.0876332
0.000824386
0.087512
0.000622896
0.0874092
0.000445111
0.0873343
0.000350395
0.0873372
0.000201471
0.0873743
-4.9915e-05
0.0874804
-0.000444881
0.0876562
-0.000528874
0.0878692
-9.60784e-05
0.087992
0.00075064
0.0882223
0.00103165
0.0885759
0.000754879
0.0891039
-0.000175387
0.0897084
-0.00119098
0.0902406
-0.0024041
0.0907266
-0.00314863
0.091252
-0.00347547
0.0917797
-0.00329819
0.0922822
-0.00309165
0.0927429
-0.00273348
0.0932131
-0.00248366
0.0936735
-0.00211774
0.0941265
-0.00177869
0.0944975
-0.0011804
0.0948344
-0.000821023
0.0949784
-0.00026664
0.0950688
-1.76772e-05
0.0950724
0.000356964
0.0950568
0.000459769
0.0949033
0.000861861
0.0947117
0.000740274
0.0944068
0.00102934
0.0940983
0.000757234
0.0936443
0.000939063
0.000198889
0.0934201
0.0888296
0.00174317
-0.0891361
0.0885325
0.00157873
0.0882733
0.00144176
0.0880323
0.0013136
0.0878261
0.00116996
0.0876574
0.000993146
0.0875146
0.000765644
0.0874392
0.000520532
0.0873845
0.000405141
0.0873831
0.000202861
0.0874487
-0.000115567
0.0875064
-0.000502557
0.0875465
-0.00056898
0.0878047
-0.000354255
0.0883258
0.000229507
0.0889171
0.000440398
0.0892977
0.000374292
0.0895143
-0.000392026
0.0895667
-0.00124339
0.0896069
-0.00244425
0.0896909
-0.00323266
0.0899528
-0.00373735
0.0903564
-0.00370178
0.090828
-0.00356326
0.0913569
-0.00326237
0.0918303
-0.00295707
0.0922767
-0.00256414
0.0926618
-0.00216381
0.0930389
-0.00155749
0.0933549
-0.00113705
0.0936092
-0.000520903
0.0938085
-0.000217015
0.0938634
0.000302068
0.0938774
0.000445751
0.0938123
0.000926994
0.0937347
0.000817818
0.0937356
0.00102851
0.0937324
0.000760444
0.0938101
0.000861361
0.000241204
0.0937677
0.0888231
0.00205038
-0.0891303
0.0885411
0.00186075
0.0882898
0.00169307
0.0880626
0.00154076
0.0878659
0.00136661
0.0876907
0.00116839
0.0875841
0.000872259
0.0875194
0.000585176
0.0874828
0.000441755
0.0874957
0.000190006
0.0875017
-0.000121561
0.087614
-0.000614902
0.0878076
-0.00076254
0.0880802
-0.000626893
0.0883861
-7.63573e-05
0.0887767
4.98188e-05
0.0892086
-5.7598e-05
0.0897394
-0.00092289
0.0903295
-0.00183347
0.0908512
-0.00296592
0.0913239
-0.00370537
0.0917594
-0.00417284
0.0922247
-0.00416709
0.0926876
-0.00402618
0.0931629
-0.00373771
0.0935783
-0.00337243
0.0939943
-0.00298012
0.0944682
-0.0026377
0.0948846
-0.00197392
0.0952868
-0.00153927
0.0954867
-0.000720833
0.0956022
-0.000332499
0.0956552
0.000249079
0.0956851
0.000415899
0.0956767
0.00093539
0.0955898
0.000904727
0.0953864
0.0012319
0.0951452
0.00100166
0.0947412
0.00126531
0.000505162
0.0944773
0.0888355
0.00234974
-0.0891348
0.0885635
0.00213268
0.0883229
0.00193375
0.0881159
0.0017477
0.0879165
0.00156599
0.0877548
0.00133013
0.0876379
0.000989161
0.0875943
0.000628784
0.0875722
0.000463794
0.0875495
0.000212755
0.0875299
-0.000102001
0.0876919
-0.000776909
0.0879028
-0.000973396
0.0881486
-0.000872702
0.0884417
-0.000369454
0.0889167
-0.000425176
0.0894916
-0.000632478
0.0900524
-0.0014837
0.090452
-0.00223307
0.0907007
-0.00321463
0.0908107
-0.00381534
0.0909122
-0.00427437
0.0910765
-0.00433143
0.0913338
-0.00428346
0.0916823
-0.00408619
0.0920735
-0.00376367
0.0924586
-0.0033652
0.0928325
-0.00301157
0.0931615
-0.00230298
0.0935025
-0.00188018
0.0938632
-0.00108162
0.0941624
-0.000631698
0.094428
-1.6479e-05
0.0945628
0.000281088
0.094598
0.000900184
0.0945949
0.00090788
0.094616
0.00121079
0.0946636
0.000954042
0.0947531
0.0011758
0.000528812
0.0947295
0.0888301
0.00264314
-0.0891235
0.0885727
0.00239011
0.0883464
0.00216001
0.0881395
0.00195459
0.0879549
0.00175062
0.0878108
0.00147425
0.0877142
0.0010857
0.0876767
0.000666319
0.0876322
0.000508342
0.0876266
0.000218318
0.0877227
-0.000198134
0.0878571
-0.000911326
0.0879992
-0.0011154
0.0882629
-0.00113644
0.0886347
-0.000741236
0.0890808
-0.000871327
0.089501
-0.00105271
0.0899035
-0.00188613
0.090352
-0.00268155
0.0908303
-0.00369293
0.0913613
-0.00434641
0.0918705
-0.00478351
0.0923632
-0.00482414
0.0928385
-0.00475876
0.0933082
-0.0045559
0.0937876
-0.00424309
0.0942216
-0.00379919
0.0946918
-0.00348173
0.0951838
-0.00279506
0.0956849
-0.00238119
0.0960465
-0.00144327
0.0962787
-0.000863846
0.0963232
-6.09934e-05
0.0964047
0.000199592
0.0964712
0.000833629
0.0965063
0.000872828
0.0964035
0.00131361
0.0962612
0.00109628
0.0959308
0.00150619
0.000788419
0.0956712
0.0888661
0.00293001
-0.0891529
0.0886105
0.00264564
0.0883989
0.00237161
0.0882148
0.00213874
0.0880646
0.00190078
0.0879143
0.00162458
0.0878279
0.00117207
0.0878007
0.000693595
0.0877914
0.000517584
0.0878165
0.000193216
0.0878665
-0.000248063
0.0879563
-0.00100116
0.0881169
-0.00127601
0.088376
-0.00139555
0.088708
-0.00107324
0.0890996
-0.00126289
0.0895673
-0.00152045
0.0900339
-0.00235273
0.0904975
-0.00314513
0.0908979
-0.00409335
0.09123
-0.00467846
0.0915316
-0.0050851
0.0918128
-0.00510537
0.0920457
-0.00499161
0.0922597
-0.00476998
0.0925642
-0.00454757
0.0928744
-0.00410932
0.0931954
-0.00380279
0.0935121
-0.00311175
0.0938039
-0.00267302
0.0941891
-0.00182839
0.0945858
-0.00126062
0.0949826
-0.00045777
0.0952818
-9.96045e-05
0.0954572
0.000658199
0.0955316
0.00079848
0.0955846
0.00126057
0.0956748
0.0010061
0.0958063
0.00137467
0.000781479
0.0958133
0.0888517
0.00320161
-0.0891233
0.0886204
0.00287693
0.0884118
0.00258014
0.0882291
0.00232144
0.0880689
0.002061
0.0879698
0.00172371
0.087904
0.00123781
0.0878624
0.000735227
0.0878338
0.000546236
0.0878758
0.000151165
0.0879507
-0.000322935
0.0880654
-0.00111585
0.0881952
-0.0014058
0.0884062
-0.00160658
0.0887587
-0.00142572
0.089206
-0.00171026
0.0896654
-0.00197987
0.090066
-0.00275325
0.0903999
-0.00347905
0.0907102
-0.00440366
0.09112
-0.00508826
0.0916313
-0.00559638
0.0921811
-0.00565518
0.0927341
-0.00554468
0.093238
-0.00527388
0.0937862
-0.00509574
0.0943031
-0.00462621
0.0948279
-0.00432759
0.095362
-0.00364587
0.0959457
-0.00325674
0.0964617
-0.00234437
0.0969212
-0.00172012
0.0971552
-0.000691753
0.0972633
-0.000207741
0.0973867
0.000534837
0.0975102
0.000674951
0.0975087
0.00126208
0.0974403
0.00107454
0.0972003
0.00161463
0.00101829
0.0969635
0.0889154
0.00346455
-0.0891783
0.0886753
0.00311698
0.0884929
0.00276255
0.0883444
0.00246996
0.0881801
0.00222523
0.0880948
0.0018091
0.0880096
0.00132298
0.0879594
0.000785388
0.0879802
0.000525427
0.0880467
8.47083e-05
0.0881182
-0.000394493
0.0881667
-0.00116426
0.0882705
-0.00150966
0.0885197
-0.00185572
0.0889006
-0.00180668
0.0893112
-0.00212085
0.0897194
-0.00238802
0.0900777
-0.00311156
0.0904303
-0.00383163
0.090784
-0.00475743
0.0911094
-0.00541365
0.0914749
-0.00596184
0.0918779
-0.00605816
0.0923276
-0.00599442
0.0927063
-0.00565259
0.093055
-0.00544439
0.0933967
-0.00496798
0.0937514
-0.00468225
0.0940925
-0.00398701
0.094368
-0.00353216
0.0947076
-0.00268397
0.0951053
-0.00211787
0.095583
-0.00116942
0.0960361
-0.000660839
0.096328
0.000242894
0.0965966
0.000406411
0.0966868
0.00117183
0.0968403
0.000921003
0.0969792
0.00147573
0.000951091
0.0970464
0.0889015
0.00371715
-0.0891541
0.0886986
0.00331983
0.0884849
0.00297622
0.0883251
0.00262985
0.0882092
0.00234111
0.0881387
0.00187962
0.0880697
0.00139196
0.0880466
0.000808438
0.0880493
0.000522783
0.0881212
1.28262e-05
0.0881534
-0.000426684
0.0882273
-0.00123824
0.0883567
-0.00163905
0.0885968
-0.00209581
0.0889573
-0.0021672
0.0893973
-0.0025608
0.0898348
-0.00282552
0.0901965
-0.00347332
0.0904829
-0.00411794
0.0906769
-0.00495149
0.0908817
-0.00561841
0.0911922
-0.00627236
0.0916643
-0.00653026
0.0922812
-0.00661127
0.0929108
-0.00628219
0.0935804
-0.00611406
0.094201
-0.00558855
0.0948342
-0.00531551
0.0954658
-0.00461859
0.0961362
-0.00420252
0.096761
-0.00330875
0.097407
-0.0027639
0.0978564
-0.00161884
0.0982363
-0.00104071
0.0983991
8.01004e-05
0.0985877
0.000217803
0.0986927
0.00106684
0.0987277
0.00088597
0.0986094
0.00159401
0.00114367
0.0984168
0.0889893
0.00395182
-0.0892239
0.0887642
0.00354489
0.0885923
0.00314811
0.0884564
0.00276573
0.0883349
0.00246266
0.0882513
0.0019632
0.088195
0.00144825
0.0881633
0.000840155
0.0881679
0.000518168
0.0882286
-4.79078e-05
0.0882946
-0.000492606
0.0883838
-0.00132752
0.0885267
-0.00178191
0.0887505
-0.00231956
0.0890873
-0.00250401
0.0894638
-0.00293734
0.0898672
-0.0032289
0.090215
-0.0038211
0.0904398
-0.00434275
0.0906639
-0.00517558
0.0908478
-0.00580235
0.091124
-0.0065486
0.0914397
-0.00684593
0.0919377
-0.00710922
0.0925126
-0.00685716
0.0931086
-0.00671003
0.0936801
-0.00616008
0.094206
-0.00584133
0.0947058
-0.00511847
0.0951509
-0.00464755
0.0955062
-0.00366404
0.0959109
-0.00316866
0.0963575
-0.00206541
0.0968625
-0.00154575
0.0973224
-0.000379727
0.097739
-0.000198835
0.0979642
0.000841673
0.0981668
0.000683312
0.0983729
0.0013879
0.00103808
0.0984785
0.088976
0.00417962
-0.0892038
0.0887943
0.00372663
0.0886266
0.00331584
0.0884775
0.00291479
0.0883771
0.00256302
0.0883155
0.00202488
0.0882579
0.00150583
0.088243
0.000855043
0.0882448
0.000516357
0.0883011
-0.000104179
0.0884068
-0.000598357
0.0884995
-0.00142023
0.0886292
-0.00191153
0.0888494
-0.00253986
0.0891591
-0.00281368
0.0895175
-0.00329572
0.0898943
-0.00360571
0.0902288
-0.0041556
0.0904929
-0.0046068
0.0906752
-0.00535796
0.0907733
-0.00590044
0.0908958
-0.00667112
0.0911254
-0.00707552
0.0915629
-0.00754667
0.092174
-0.00746829
0.0929237
-0.00745976
0.0937272
-0.0069635
0.0945692
-0.00668341
0.0953819
-0.00593111
0.096236
-0.00550169
0.0970252
-0.00445316
0.0978231
-0.00396661
0.0984652
-0.00270755
0.0991013
-0.00218183
0.0995133
-0.000791682
0.0997913
-0.000476889
0.100026
0.000607132
0.100154
0.000555125
0.100206
0.00133574
0.00116592
0.100078
0.0890795
0.00440802
-0.0893079
0.0889009
0.00390524
0.088738
0.00347873
0.0886184
0.00303436
0.0884986
0.00268283
0.088433
0.00209049
0.0883715
0.00156738
0.088376
0.000850524
0.0884132
0.000479117
0.0885011
-0.000192057
0.0885831
-0.000680354
0.0886862
-0.00152336
0.088841
-0.00206629
0.0890425
-0.00274135
0.0892985
-0.00306964
0.0895941
-0.00359132
0.0898895
-0.00390114
0.0902426
-0.00450871
0.0904955
-0.00485969
0.0907112
-0.00557369
0.0907965
-0.00598575
0.0909257
-0.00680029
0.0910504
-0.00720027
0.0913455
-0.00784174
0.0917956
-0.00791834
0.0924857
-0.00814989
0.0932473
-0.00772512
0.0940757
-0.00751182
0.0948695
-0.00672488
0.0956731
-0.00630534
0.0963366
-0.00511665
0.0969339
-0.00456385
0.0974273
-0.00320101
0.0979701
-0.00272461
0.0985045
-0.00132606
0.0990302
-0.00100261
0.0994201
0.000217238
0.099721
0.000254165
0.0999625
0.00109427
0.000985856
0.100143
0.0890711
0.00459773
-0.0892608
0.0889105
0.00406583
0.08875
0.00363921
0.0886402
0.00314418
0.0885525
0.00277046
0.0885097
0.0021333
0.0884584
0.00161873
0.0884578
0.000851118
0.0884881
0.000448767
0.0885654
-0.000269366
0.0886584
-0.000773344
0.0888071
-0.001672
0.0889447
-0.00220397
0.0891378
-0.0029344
0.0893522
-0.00328401
0.0896242
-0.00386338
0.0898867
-0.00416362
0.0901958
-0.00481776
0.0904596
-0.00512356
0.0907011
-0.00581522
0.09086
-0.00614463
0.0909494
-0.00688961
0.0910166
-0.0072675
0.0911662
-0.00799135
0.0914553
-0.00820744
0.0919958
-0.00869043
0.0927641
-0.00849335
0.0937678
-0.00851553
0.0947719
-0.00772898
0.0959038
-0.00743725
0.0969671
-0.0061799
0.0980829
-0.00567974
0.0990235
-0.0041416
0.0998798
-0.0035809
0.100562
-0.00200851
0.101125
-0.00156523
0.101563
-0.00022109
0.101769
4.82388e-05
0.102032
0.000831868
0.00101891
0.101999
0.0892112
0.00480447
-0.0894179
0.0890526
0.00422437
0.088896
0.00379587
0.0887988
0.00324131
0.0887383
0.002831
0.0886952
0.00217642
0.0886399
0.00167403
0.0886295
0.000861491
0.0886786
0.000399632
0.088777
-0.00036772
0.0889108
-0.000907207
0.089047
-0.00180815
0.0891772
-0.00233421
0.0893221
-0.0030793
0.0895026
-0.00346443
0.0897505
-0.00411129
0.0899556
-0.00436879
0.0901951
-0.00505722
0.0904029
-0.00533132
0.0906704
-0.00608273
0.090848
-0.00632228
0.0910151
-0.00705666
0.0911002
-0.00735259
0.091233
-0.00812415
0.0913899
-0.00836442
0.0917452
-0.00904572
0.092289
-0.00903709
0.0931466
-0.00937315
0.0941615
-0.00874387
0.0952708
-0.00854661
0.0963899
-0.00729896
0.0974584
-0.00674823
0.09841
-0.00509319
0.0992033
-0.00437422
0.0999352
-0.00274037
0.100512
-0.00214173
0.101137
-0.000846158
0.101582
-0.000397034
0.101916
0.000498299
0.000768744
0.102166
0.0891796
0.00498117
-0.0893563
0.0890323
0.00437162
0.0889034
0.00392477
0.0888183
0.00332638
0.0887676
0.00288172
0.0887453
0.00219875
0.088691
0.00172835
0.0886729
0.000879608
0.0887217
0.00035076
0.0888486
-0.000494573
0.0889704
-0.00102905
0.0891021
-0.00193984
0.0892161
-0.0024482
0.0893788
-0.00324193
0.0895444
-0.0036301
0.0897718
-0.00433862
0.0899634
-0.00456038
0.0901953
-0.00528913
0.0903588
-0.00549488
0.0905579
-0.00628183
0.0907554
-0.00651981
0.0909646
-0.00726582
0.0910986
-0.00748659
0.0912472
-0.0082727
0.0913704
-0.00848771
0.0916149
-0.00929016
0.0919358
-0.00935803
0.0925531
-0.00999039
0.0934281
-0.00961896
0.0946348
-0.00975331
0.0960059
-0.00867
0.0974786
-0.00822094
0.0989263
-0.00654084
0.100276
-0.00572394
0.101456
-0.00392029
0.10237
-0.00305559
0.103153
-0.00162977
0.103648
-0.000891922
0.104073
7.36544e-05
0.000618904
0.104223
0.0893897
0.00516562
-0.0895741
0.08924
0.00452126
0.0891192
0.00404558
0.0890309
0.00341471
0.0889629
0.00294972
0.0889532
0.00220837
0.0889468
0.00173479
0.0889348
0.000891564
0.0889736
0.000311964
0.0890751
-0.000596047
0.0892043
-0.00115823
0.0893318
-0.00206739
0.0894701
-0.00258651
0.0896243
-0.0033961
0.089722
-0.00372785
0.0899015
-0.00451811
0.0900655
-0.00472434
0.0902758
-0.00549941
0.0904038
-0.00562295
0.0905483
-0.00642627
0.0906617
-0.0066332
0.0908387
-0.00744286
0.0909959
-0.00764381
0.0912061
-0.00848285
0.0913745
-0.00865612
0.0916119
-0.00952758
0.091911
-0.00965708
0.0923448
-0.0104242
0.0930416
-0.0103158
0.0939482
-0.0106598
0.0952123
-0.00993412
0.0966033
-0.00961191
0.0981848
-0.00812237
0.099608
-0.00714714
0.101011
-0.00532318
0.102108
-0.00415307
0.103057
-0.00257797
0.103767
-0.00160271
0.104339
-0.000498088
0.000304279
0.104654
0.0893367
0.00532844
-0.0894995
0.0892304
0.00462749
0.0891112
0.00416486
0.0890279
0.00349796
0.0889808
0.00299682
0.0889415
0.00224765
0.0889748
0.00170148
0.0890077
0.000858702
0.0890536
0.000266069
0.0891162
-0.000658595
0.0892359
-0.001278
0.0893689
-0.0022004
0.0894777
-0.00269529
0.0896296
-0.00354794
0.0897288
-0.00382712
0.0898682
-0.00465747
0.0900216
-0.00487769
0.0902011
-0.00567892
0.0903772
-0.00579908
0.0904996
-0.00654866
0.0905981
-0.00673171
0.0906792
-0.00752398
0.0908105
-0.0077751
0.0909695
-0.00864184
0.091186
-0.00887263
0.0914493
-0.00979091
0.091767
-0.00997479
0.0921818
-0.010839
0.0927538
-0.0108878
0.0934556
-0.0113616
0.0945164
-0.010995
0.0958081
-0.0109035
0.0975458
-0.00986012
0.0993857
-0.00898703
0.101315
-0.00725219
0.103013
-0.00585171
0.104502
-0.00406684
0.105643
-0.00274351
0.106507
-0.00136232
-0.000141665
0.106953
0.0896114
0.00547009
-0.0897531
0.0894804
0.00475854
0.0893804
0.00426484
0.089305
0.0035734
0.089261
0.00304084
0.0892297
0.00227892
0.0892553
0.00167583
0.0893039
0.000810171
0.0893579
0.000212015
0.0894586
-0.000759283
0.0895221
-0.00134145
0.0896378
-0.00231612
0.0897052
-0.00276273
0.0898546
-0.00369729
0.0899697
-0.00394223
0.090113
-0.00480082
0.090211
-0.00497564
0.0903453
-0.00581327
0.090448
-0.00590176
0.090559
-0.00665971
0.0906008
-0.00677344
0.0906597
-0.00758295
0.0907062
-0.00782157
0.090742
-0.00867763
0.090894
-0.00902468
0.0911129
-0.0100098
0.0914712
-0.010333
0.0918918
-0.0112597
0.0925039
-0.0114999
0.0932422
-0.0120999
0.0942595
-0.0120122
0.0953604
-0.0120045
0.0968135
-0.0113132
0.0984504
-0.0106239
0.100383
-0.00918506
0.102276
-0.00774413
0.104138
-0.00592874
0.105673
-0.00427936
0.107012
-0.00270089
-0.000941754
0.107812
0.0895337
0.00559608
-0.0896597
0.0894336
0.00485866
0.0893605
0.00433791
0.0892974
0.00363655
0.0892718
0.00306642
0.0892522
0.00229851
0.0892547
0.00167334
0.0892968
0.000768068
0.0893641
0.000144693
0.089484
-0.000879199
0.0895636
-0.00142099
0.089666
-0.00241854
0.0897397
-0.00283646
0.0898446
-0.00380219
0.0899671
-0.00406473
0.090102
-0.00493568
0.0901916
-0.0050653
0.0902692
-0.00589077
0.0903501
-0.0059827
0.0903955
-0.00670515
0.0904771
-0.00685496
0.0905016
-0.00760752
0.0905571
-0.00787703
0.0905653
-0.00868585
0.0906381
-0.00909742
0.0907088
-0.0100806
0.0909884
-0.0106126
0.0913317
-0.011603
0.0919463
-0.0121145
0.0926723
-0.012826
0.0936785
-0.0130184
0.0948362
-0.0131622
0.0962691
-0.0127461
0.0978481
-0.0122029
0.0997898
-0.0111267
0.101845
-0.00979908
0.104124
-0.00820769
0.106169
-0.00632509
0.108135
-0.00466659
-0.00224637
0.10944
0.0898562
0.00572585
-0.089986
0.0897591
0.00495582
0.0896996
0.0043974
0.0896561
0.00368006
0.0896287
0.00309377
0.0896403
0.00228697
0.0896492
0.00166439
0.0896987
0.000718622
0.0897359
0.000107518
0.0898074
-0.000950741
0.0898908
-0.00150443
0.0900048
-0.00253251
0.0900784
-0.00291005
0.0901711
-0.00389492
0.0902429
-0.00413654
0.0903518
-0.00504454
0.0904402
-0.00515375
0.0905071
-0.00595763
0.0905473
-0.00602291
0.0905627
-0.00672054
0.0905668
-0.00685911
0.0905135
-0.0075542
0.0904983
-0.00786184
0.0904544
-0.00864189
0.0904674
-0.00911049
0.0904283
-0.0100414
0.090498
-0.0106823
0.0906729
-0.0117779
0.0911394
-0.012581
0.0917741
-0.0134607
0.0927988
-0.0140431
0.0940377
-0.014401
0.0956789
-0.0143873
0.0973998
-0.0139238
0.0994123
-0.0131393
0.101384
-0.0117711
0.103585
-0.0104087
0.10572
-0.00846016
0.107886
-0.00683214
-0.00398278
0.109622
0.089767
0.00580697
-0.0898481
0.0896908
0.00503197
0.0896449
0.00444336
0.0896075
0.00371737
0.0895894
0.00311189
0.0896098
0.00226661
0.0896395
0.00163472
0.0896949
0.000663185
0.0897476
5.47812e-05
0.0898356
-0.00103867
0.089902
-0.00157089
0.0900007
-0.00263115
0.0900932
-0.00300259
0.0901982
-0.0039999
0.0902942
-0.00423258
0.0903594
-0.00510977
0.0904173
-0.00521161
0.0904373
-0.00597764
0.09049
-0.00607562
0.0904593
-0.00668982
0.0904567
-0.00685648
0.0903381
-0.00743562
0.0902733
-0.0077971
0.0901245
-0.00849309
0.090068
-0.00905399
0.089962
-0.00993543
0.0900029
-0.0107231
0.0900493
-0.0118243
0.090324
-0.0128556
0.0907658
-0.0139025
0.0915748
-0.0148521
0.0926245
-0.0154507
0.0942089
-0.0159717
0.0960052
-0.0157202
0.0983516
-0.0154856
0.100786
-0.0142056
0.103368
-0.0129901
0.105892
-0.0109848
0.108332
-0.00927202
-0.00600157
0.110351
0.0901729
0.00591322
-0.0902791
0.0901135
0.00509137
0.0900762
0.00448065
0.0900718
0.00372182
0.0900744
0.00310927
0.0900968
0.0022442
0.0901152
0.00161631
0.0901836
0.000594813
0.090242
-3.6991e-06
0.0903189
-0.0011155
0.0903748
-0.00162683
0.0904499
-0.00270624
0.0905115
-0.00306419
0.0905811
-0.00406946
0.0906546
-0.00430617
0.0907118
-0.00516694
0.0907828
-0.00528263
0.0907536
-0.00594837
0.0907453
-0.00606736
0.0906777
-0.0066222
0.0906069
-0.00678565
0.09045
-0.00727877
0.0903165
-0.00766361
0.090068
-0.00824455
0.0898677
-0.00885369
0.0896242
-0.0096919
0.0895031
-0.0106021
0.0893937
-0.0117149
0.0894831
-0.012945
0.0896514
-0.0140708
0.0901969
-0.0153976
0.0909898
-0.0162436
0.0923493
-0.0173312
0.0940949
-0.0174658
0.0964378
-0.0178285
0.0991798
-0.0169476
0.102317
-0.0161271
0.105438
-0.0141057
0.108556
-0.0123902
-0.00854004
0.111094
0.09004
0.00598694
-0.0901137
0.0900047
0.00512664
0.0899766
0.00450872
0.0899885
0.00370995
0.0900129
0.00308488
0.0900711
0.00218603
0.0901165
0.00157088
0.0901926
0.00051875
0.0902531
-6.42402e-05
0.0903424
-0.00120482
0.0904158
-0.00170025
0.0905097
-0.00280007
0.0906114
-0.00316589
0.0906422
-0.00410032
0.0907274
-0.00439138
0.090717
-0.0051565
0.0907899
-0.00535551
0.0907462
-0.00590473
0.0907468
-0.0060679
0.0906134
-0.0064888
0.0905282
-0.00670046
0.0903436
-0.00709414
0.0901295
-0.0074496
0.0898415
-0.00795651
0.0895473
-0.00855948
0.0891758
-0.0093204
0.0888671
-0.0102934
0.0885103
-0.011358
0.0883458
-0.0127806
0.0882774
-0.0140023
0.0885509
-0.0156711
0.0890924
-0.0167851
0.0901372
-0.018376
0.0916282
-0.0189569
0.0937573
-0.0199575
0.0963381
-0.0195284
0.0997437
-0.0195327
0.103379
-0.017741
0.107457
-0.0164679
-0.0121643
0.111081
0.0906506
0.00605713
-0.0907208
0.0906005
0.0051768
0.0905772
0.00453203
0.0905996
0.00368748
0.0906191
0.00306536
0.0906761
0.00212912
0.0907445
0.00150247
0.0908409
0.000422291
0.0909084
-0.000131679
0.0909833
-0.00127973
0.0910715
-0.0017885
0.091104
-0.00283255
0.0911991
-0.00326097
0.0912061
-0.00410732
0.0913049
-0.00449015
0.0912244
-0.00507608
0.0912789
-0.00540999
0.0911434
-0.00576921
0.0911302
-0.00605473
0.0909307
-0.00628931
0.0907864
-0.00655616
0.090529
-0.00683674
0.0902385
-0.00715901
0.0898765
-0.00759458
0.0894747
-0.00815761
0.0890047
-0.00885038
0.0885285
-0.00981726
0.0880039
-0.0108334
0.0875256
-0.0123023
0.0870988
-0.0135755
0.0868778
-0.0154501
0.0868897
-0.0167971
0.0873953
-0.0188815
0.0883515
-0.0199131
0.0901744
-0.0217804
0.0925275
-0.0218815
0.0959082
-0.0229134
0.099756
-0.0215888
0.104622
-0.0213343
-0.0170305
0.109489
0.0904944
0.00609907
-0.0905364
0.0904896
0.00518161
0.0904849
0.00453678
0.0905314
0.00364099
0.0905793
0.00301742
0.09066
0.00204845
0.0907531
0.00140935
0.0908007
0.000374689
0.0909762
-0.000307251
0.0910025
-0.00130601
0.0911868
-0.00197279
0.0911659
-0.00281165
0.0913539
-0.003449
0.0912818
-0.00403523
0.0914071
-0.00461538
0.0913136
-0.00498258
0.0913768
-0.00547318
0.0912515
-0.0056439
0.0912002
-0.00600344
0.0910243
-0.0061134
0.090819
-0.00635085
0.0905388
-0.00655664
0.0902151
-0.00683524
0.0897909
-0.00717046
0.0893066
-0.00767322
0.0887339
-0.00827773
0.0881011
-0.0091845
0.0873665
-0.0100988
0.0865785
-0.0115144
0.08576
-0.012757
0.0850576
-0.0147477
0.0844601
-0.0161995
0.084259
-0.0186804
0.0844421
-0.0200962
0.0854091
-0.0227474
0.0870656
-0.023538
0.0900094
-0.0258572
0.0936416
-0.025221
0.0989519
-0.0266446
-0.0232665
0.105188
0.0913583
0.00612524
-0.0913845
0.0913597
0.00518026
0.0914018
0.00449473
0.091417
0.00362574
0.0915237
0.00291077
0.0915345
0.00203761
0.0916868
0.00125706
0.0916692
0.000392249
0.0918719
-0.000509968
0.0918272
-0.00126132
0.0920465
-0.00219205
0.0919763
-0.00274141
0.0921463
-0.00361902
0.0920808
-0.00396975
0.0921691
-0.00470368
0.0920868
-0.00490024
0.0920361
-0.00542249
0.0919465
-0.00555431
0.091763
-0.00581991
0.0915871
-0.00593751
0.0913123
-0.00607607
0.0909964
-0.00624074
0.090595
-0.00643382
0.0901112
-0.00668668
0.0895203
-0.00708229
0.0888113
-0.00756875
0.0880023
-0.00837551
0.0870725
-0.00916898
0.0860401
-0.010482
0.0848962
-0.0116131
0.0836926
-0.0135442
0.0825252
-0.0150321
0.081442
-0.0175972
0.0806182
-0.0192724
0.0802961
-0.0224253
0.0806065
-0.0238484
0.0821586
-0.0274093
0.0847266
-0.027789
0.0891003
-0.0310183
-0.0299226
0.0957564
0.0911444
0.00606395
-0.0910831
0.0911575
0.00516717
0.0912891
0.00436318
0.0913188
0.00359597
0.0915127
0.00271693
0.0915397
0.00201061
0.0917902
0.00100655
0.0918093
0.000373156
0.0920128
-0.000713511
0.0920402
-0.00128867
0.0921931
-0.002345
0.0922358
-0.00278405
0.0923171
-0.00370031
0.0923606
-0.0040133
0.0923329
-0.00467598
0.0923488
-0.00491614
0.0922459
-0.00531956
0.0921614
-0.00546983
0.0919803
-0.00563879
0.0918111
-0.0057683
0.0915364
-0.00580138
0.0912031
-0.00590746
0.0908005
-0.00603126
0.0902889
-0.00617499
0.0896699
-0.00646336
0.0889274
-0.00682626
0.088041
-0.00748908
0.0869827
-0.00811064
0.0857101
-0.00920937
0.0843118
-0.0102149
0.0826294
-0.0118618
0.0808994
-0.0133021
0.0789396
-0.0156374
0.0771434
-0.0174763
0.0753383
-0.0206201
0.0740972
-0.0226074
0.0732618
-0.0265739
0.0738435
-0.0283707
0.0753221
-0.0324968
-0.0344196
0.0798191
0.0923686
0.00591237
-0.092217
0.0923918
0.00514396
0.0925808
0.00417416
0.0926213
0.00355545
0.0927685
0.0025698
0.0928234
0.00195567
0.0929821
0.000847882
0.0931131
0.00024208
0.0932493
-0.00084963
0.0933386
-0.001378
0.0934039
-0.00241031
0.0935355
-0.00291567
0.093524
-0.00368874
0.093622
-0.00411132
0.0935374
-0.00459141
0.0935406
-0.0049193
0.0933817
-0.00516067
0.0932637
-0.00535186
0.0930456
-0.00542069
0.0928002
-0.00552286
0.0925127
-0.00551395
0.092167
-0.00556176
0.091702
-0.00556621
0.0911726
-0.00564563
0.0905276
-0.00581833
0.0897452
-0.00604387
0.08876
-0.00650386
0.0876285
-0.00697914
0.0861855
-0.00776638
0.084609
-0.00863839
0.0826398
-0.00989249
0.0805594
-0.0112217
0.0779812
-0.0130592
0.0753859
-0.0148809
0.0722259
-0.0174602
0.0694421
-0.0198235
0.0659868
-0.0231186
0.0638619
-0.0262458
0.0614027
-0.0300376
-0.0343244
0.0613075
0.0921408
0.00572504
-0.0919535
0.0922735
0.00501126
0.0924837
0.00396402
0.0927141
0.00332503
0.0929604
0.00232352
0.0932013
0.00171477
0.0933541
0.000695061
0.0934984
9.7729e-05
0.093617
-0.000968182
0.0938324
-0.00159344
0.0938829
-0.00246077
0.0940269
-0.00305971
0.0940134
-0.0036752
0.0940877
-0.00418568
0.0940316
-0.00453526
0.0940091
-0.00489686
0.0938977
-0.00504922
0.0937742
-0.00522836
0.0935967
-0.00524321
0.0933847
-0.00531086
0.0930798
-0.00520903
0.0927527
-0.00523461
0.0923212
-0.00513471
0.0918562
-0.00518068
0.0912242
-0.00518634
0.0905316
-0.00535127
0.0895797
-0.00555193
0.0885308
-0.00593028
0.0871214
-0.00635698
0.0855493
-0.00706628
0.083486
-0.00782916
0.0812399
-0.00897566
0.078332
-0.0101513
0.0753214
-0.0118703
0.0713511
-0.0134899
0.0675402
-0.0160126
0.0625076
-0.018086
0.0577534
-0.0214917
0.0519337
-0.0242178
-0.029665
0.0472742
0.0938288
0.00558842
-0.0936922
0.093937
0.00490307
0.0940154
0.00388564
0.0941462
0.00319426
0.0942518
0.00221786
0.0944893
0.00147733
0.0946915
0.000492902
0.0950554
-0.000266234
0.0951618
-0.00107461
0.0954029
-0.0018345
0.0955161
-0.00257393
0.0956981
-0.00324177
0.0957528
-0.00372988
0.0957896
-0.00422248
0.0957703
-0.00451592
0.0957022
-0.0048288
0.0955921
-0.00493913
0.095458
-0.00509429
0.0952649
-0.0050501
0.0950607
-0.00510667
0.094788
-0.00493633
0.0945038
-0.0049504
0.0941123
-0.00474316
0.0937266
-0.00479504
0.0931588
-0.00461844
0.0925795
-0.00477207
0.0917167
-0.00468905
0.0908113
-0.00502491
0.089497
-0.00504269
0.0880919
-0.00566112
0.0860882
-0.00582555
0.0839631
-0.00685052
0.0810607
-0.0072489
0.0779252
-0.00873478
0.0739377
-0.00950242
0.0695333
-0.0116082
0.0642723
-0.012825
0.058285
-0.0155044
0.0510822
-0.017015
-0.0216489
0.0430661
0.0944137
0.00523334
-0.0940586
0.0948958
0.00442095
0.0952618
0.00351967
0.0957158
0.00274021
0.0960207
0.00191295
0.0963694
0.00112865
0.0964852
0.000377105
0.0966467
-0.000427781
0.0967885
-0.00121637
0.096961
-0.00200702
0.0969938
-0.00260673
0.0970093
-0.00325727
0.0969705
-0.00369105
0.0969296
-0.00418161
0.0968374
-0.00442371
0.0967377
-0.00472905
0.0965909
-0.00479233
0.0964494
-0.0049528
0.0962416
-0.00484236
0.0960609
-0.00492599
0.0958034
-0.0046788
0.0955915
-0.00473852
0.095276
-0.00442763
0.0950047
-0.00452371
0.0945871
-0.00420091
0.0942054