/*--------------------------------*- C++ -*----------------------------------*\
  =========                 |
  \\      /  F ield         | OpenFOAM: The Open Source CFD Toolbox
   \\    /   O peration     | Website:  https://openfoam.org
    \\  /    A nd           | Version:  10
     \\/     M anipulation  |
\*---------------------------------------------------------------------------*/
FoamFile
{
    format      ascii;
    class       volScalarField;
    location    "0.448024";
    object      T;
}
// * * * * * * * * * * * * * * * * * * * * * * * * * * * * * * * * * * * * * //

dimensions      [0 0 0 1 0 0 0];

internalField   nonuniform List<scalar> 
15708
(
0.00860894
0.00861868
0.00862892
0.00863981
0.00865158
0.00866355
0.00867655
0.00868933
0.00870272
0.00871555
0.00872852
0.00874127
0.00875348
0.00876504
0.00877584
0.00878552
0.00879453
0.00880189
0.00880905
0.00881346
0.00881943
0.00882104
0.00882439
0.00882576
0.00882608
0.00882583
0.00882513
0.00882336
0.00882144
0.00881876
0.00881607
0.00881285
0.00880941
0.00880602
0.00880236
0.00879875
0.00879519
0.0087916
0.00878788
0.00878438
0.00878089
0.00877757
0.00877435
0.00877143
0.00876845
0.00876568
0.00876298
0.00876046
0.0087579
0.00875563
0.00875326
0.00860717
0.00861683
0.00862791
0.00863884
0.00865127
0.00866374
0.00867704
0.00869049
0.00870396
0.00871734
0.00873066
0.00874339
0.00875566
0.0087673
0.00877797
0.00878768
0.00879634
0.00880405
0.00881068
0.00881606
0.00882051
0.00882383
0.00882638
0.00882783
0.00882822
0.00882818
0.00882752
0.00882602
0.00882412
0.00882186
0.00881918
0.0088162
0.00881302
0.0088097
0.00880618
0.00880262
0.00879913
0.00879564
0.00879198
0.00878847
0.00878495
0.00878159
0.00877831
0.0087752
0.00877211
0.00876928
0.0087664
0.00876386
0.00876115
0.00875878
0.00875637
0.00860674
0.00861644
0.00862783
0.00863966
0.00865225
0.00866552
0.00867929
0.00869317
0.00870719
0.00872083
0.00873428
0.0087473
0.00875958
0.00877122
0.00878179
0.00879148
0.00879967
0.0088076
0.00881345
0.0088192
0.00882328
0.0088267
0.00882921
0.00883061
0.00883116
0.00883107
0.00883053
0.00882923
0.00882739
0.00882523
0.00882272
0.00881987
0.00881686
0.00881356
0.00881022
0.0088068
0.00880325
0.00879977
0.00879624
0.00879257
0.00878898
0.00878535
0.00878223
0.00877911
0.00877586
0.00877288
0.00876977
0.00876711
0.00876438
0.00876179
0.00875922
0.00860661
0.0086173
0.00862853
0.00864161
0.00865449
0.0086685
0.00868271
0.00869718
0.00871147
0.00872557
0.00873921
0.00875238
0.00876456
0.00877629
0.00878649
0.0087963
0.00880433
0.00881177
0.00881771
0.00882297
0.00882718
0.00883038
0.00883268
0.00883395
0.00883453
0.00883445
0.00883395
0.00883276
0.00883101
0.00882885
0.00882632
0.00882358
0.00882052
0.00881745
0.00881416
0.00881072
0.00880721
0.00880367
0.00880012
0.00879654
0.00879301
0.00878948
0.00878601
0.00878266
0.0087795
0.00877631
0.00877336
0.00877025
0.00876761
0.00876474
0.00876232
0.00860754
0.00861875
0.00863085
0.0086442
0.0086582
0.00867259
0.00868735
0.00870243
0.00871708
0.00873146
0.00874563
0.00875815
0.00877158
0.0087814
0.00879371
0.00880064
0.00881026
0.00881697
0.00882241
0.00882757
0.00883168
0.00883476
0.00883665
0.00883799
0.00883845
0.00883834
0.00883778
0.00883638
0.00883468
0.00883256
0.00883012
0.00882741
0.00882436
0.00882124
0.00881796
0.00881451
0.00881104
0.00880738
0.00880386
0.00880036
0.00879672
0.00879324
0.00878989
0.00878623
0.008783
0.00877985
0.00877661
0.00877364
0.00877065
0.008768
0.00876531
0.00860853
0.00862147
0.00863371
0.00864885
0.00866246
0.00867836
0.00869315
0.00870867
0.00872431
0.00873825
0.00875304
0.00876577
0.00877897
0.00878928
0.00879998
0.00880873
0.0088161
0.00882319
0.00882846
0.008833
0.00883681
0.00883938
0.00884128
0.00884226
0.00884258
0.00884234
0.00884169
0.00884024
0.00883833
0.00883633
0.00883381
0.00883105
0.00882807
0.00882494
0.00882158
0.00881812
0.00881448
0.00881092
0.00880745
0.00880375
0.00880038
0.00879687
0.00879309
0.00878986
0.00878637
0.00878313
0.00877992
0.00877717
0.00877397
0.0087713
0.00876839
0.00861296
0.00862382
0.00864078
0.00865088
0.00867046
0.00868281
0.00870125
0.00871625
0.0087314
0.00874866
0.00875819
0.00878014
0.00877904
0.00880442
0.00880048
0.00882062
0.00882144
0.0088309
0.00883534
0.00883948
0.00884249
0.00884495
0.00884621
0.00884694
0.00884697
0.00884662
0.00884559
0.008844
0.00884218
0.00883988
0.00883737
0.00883445
0.00883134
0.00882821
0.00882491
0.00882153
0.00881786
0.00881433
0.00881071
0.00880696
0.0088036
0.00879995
0.00879651
0.0087931
0.00878968
0.00878643
0.00878333
0.00878034
0.00877739
0.00877424
0.00877175
0.00862061
0.00862499
0.00864786
0.00865681
0.00867747
0.0086916
0.00870934
0.00872472
0.00874205
0.00875417
0.00877575
0.00877517
0.00880399
0.00880101
0.00882143
0.00881887
0.00883443
0.00883531
0.00884258
0.00884661
0.00884892
0.00885051
0.00885108
0.00885168
0.00885152
0.00885091
0.00884975
0.00884784
0.00884576
0.00884327
0.00884053
0.00883776
0.00883423
0.00883134
0.00882779
0.00882428
0.00882051
0.00881718
0.00881351
0.00880994
0.00880623
0.00880283
0.00879963
0.00879601
0.00879282
0.00878951
0.00878658
0.00878354
0.00878057
0.00877801
0.00877492
0.00862052
0.00863397
0.00865241
0.00866441
0.00868478
0.00870062
0.00871761
0.00873499
0.00875114
0.0087663
0.00878065
0.0087945
0.00880549
0.00881716
0.00882482
0.00883413
0.00883966
0.00884537
0.0088491
0.00885263
0.00885461
0.00885636
0.00885675
0.00885671
0.00885624
0.00885529
0.00885348
0.00885139
0.00884894
0.00884642
0.00884326
0.00884036
0.00883684
0.0088337
0.00883016
0.00882662
0.00882314
0.00881927
0.00881584
0.00881219
0.00880867
0.00880534
0.00880208
0.00879873
0.00879565
0.00879266
0.00878931
0.00878669
0.00878383
0.00878115
0.00877826
0.00862826
0.00864308
0.00865537
0.00867934
0.00868686
0.00871385
0.0087261
0.00874553
0.00876206
0.00877745
0.00879197
0.00880524
0.00881592
0.00882737
0.00883498
0.0088427
0.00884869
0.00885349
0.00885705
0.00885995
0.00886139
0.00886223
0.00886193
0.00886202
0.00886095
0.00885934
0.00885709
0.0088542
0.0088523
0.0088485
0.00884602
0.00884235
0.008839
0.0088352
0.00883216
0.00882837
0.00882455
0.00882125
0.00881766
0.00881427
0.00881079
0.00880765
0.00880422
0.00880144
0.00879822
0.00879539
0.00879247
0.00878941
0.0087871
0.00878435
0.00878172
0.00863638
0.00864777
0.00866793
0.00868294
0.00870249
0.0087203
0.0087387
0.00875556
0.00877399
0.00878579
0.00880875
0.00880626
0.00883431
0.0088323
0.00884918
0.00884795
0.00885987
0.00886025
0.00886458
0.00886721
0.00886836
0.00886817
0.00886834
0.00886701
0.00886513
0.00886317
0.00885997
0.00885803
0.00885401
0.00885119
0.00884745
0.00884404
0.00884033
0.0088366
0.00883292
0.00882943
0.00882593
0.00882229
0.0088189
0.0088154
0.0088126
0.00880923
0.00880594
0.00880341
0.00880034
0.00879753
0.00879543
0.00879224
0.00878996
0.00878738
0.00878509
0.00864399
0.00865741
0.0086749
0.00869489
0.0087118
0.0087304
0.0087498
0.00876752
0.00878434
0.00879992
0.00881396
0.00882795
0.00883668
0.00884853
0.00885494
0.0088614
0.00886702
0.0088702
0.00887277
0.00887427
0.00887474
0.00887404
0.00887271
0.00887211
0.00886914
0.0088662
0.00886353
0.00885958
0.00885673
0.00885241
0.00884901
0.0088447
0.00884106
0.00883716
0.00883341
0.0088295
0.00882632
0.00882274
0.00881937
0.00881619
0.00881328
0.00881026
0.00880762
0.00880477
0.00880252
0.00879981
0.00879769
0.0087952
0.00879323
0.00879047
0.00878838
0.00864772
0.0086724
0.00867989
0.00870661
0.008722
0.00874242
0.00876036
0.00877888
0.00879557
0.00881065
0.00882654
0.00883644
0.00885023
0.00885591
0.00886633
0.00887007
0.00887589
0.00887837
0.00888092
0.00888137
0.00888075
0.00887948
0.00887929
0.00887571
0.00887307
0.00886968
0.00886584
0.00886162
0.00885846
0.00885226
0.00885128
0.00884343
0.00884232
0.00883669
0.00883274
0.008829
0.00882571
0.0088224
0.00881911
0.0088162
0.00881335
0.00881072
0.00880821
0.00880609
0.0088039
0.0088022
0.0087999
0.00879821
0.00879599
0.00879403
0.00879146
0.00866333
0.00867598
0.00869717
0.00871323
0.00873462
0.00875176
0.00877218
0.00878868
0.00880773
0.00882112
0.00883663
0.00884819
0.00885943
0.00886698
0.00887476
0.00888041
0.00888344
0.00888719
0.00888807
0.00888781
0.00888793
0.00888551
0.0088827
0.0088805
0.00887615
0.00887271
0.00886758
0.00886407
0.00885805
0.00885488
0.00884803
0.0088463
0.00883978
0.00883544
0.00883175
0.00882809
0.00882444
0.00882111
0.00881828
0.00881545
0.008813
0.00881075
0.00880843
0.00880669
0.00880502
0.00880346
0.00880228
0.00880055
0.00879923
0.00879714
0.00879547
0.00866859
0.00868847
0.00870598
0.00872391
0.00874522
0.00876273
0.00878288
0.00879939
0.00881706
0.00883276
0.00884605
0.00885901
0.00886837
0.00887724
0.00888425
0.00888833
0.00889319
0.00889416
0.00889516
0.00889458
0.00889456
0.00889019
0.00888867
0.00888327
0.00887994
0.00887449
0.00886997
0.00886406
0.00885921
0.00885412
0.00884812
0.00884454
0.00883694
0.0088355
0.00882971
0.0088254
0.00882221
0.0088193
0.00881667
0.00881409
0.00881198
0.00881036
0.00880883
0.00880744
0.00880624
0.0088053
0.00880435
0.00880301
0.00880174
0.00880068
0.00879902
0.00867997
0.00870285
0.00871001
0.00874236
0.00874405
0.00878381
0.00878205
0.00881654
0.00882406
0.00884582
0.00885483
0.0088688
0.00887728
0.00888608
0.00889144
0.00889735
0.00889989
0.00890201
0.008902
0.00890171
0.00889905
0.00889647
0.0088922
0.00888783
0.00888245
0.00887711
0.00887017
0.00886546
0.00885887
0.00885297
0.0088472
0.00884149
0.00883604
0.00883113
0.00882693
0.00882337
0.0088194
0.00881687
0.00881364
0.00881239
0.00881032
0.00880885
0.00880831
0.00880768
0.00880718
0.00880687
0.00880657
0.00880616
0.00880505
0.00880477
0.00880232
0.00868946
0.00871201
0.00872555
0.0087429
0.00876902
0.00877245
0.00881477
0.00880536
0.00884742
0.00883937
0.00886994
0.00887058
0.00888777
0.00889518
0.00890158
0.00890497
0.00890757
0.00890927
0.00890921
0.00890683
0.00890578
0.00890054
0.00889691
0.0088911
0.00888483
0.00887898
0.00887131
0.00886562
0.00885816
0.00885185
0.00884476
0.00883908
0.00883265
0.00882791
0.00882318
0.00881922
0.00881558
0.00881309
0.00881088
0.00880932
0.00880827
0.00880775
0.00880765
0.00880775
0.00880791
0.00880821
0.00880851
0.00880886
0.00880859
0.00880816
0.00880693
0.00869677
0.00872734
0.00872965
0.00875777
0.00877156
0.00879185
0.00880789
0.00882848
0.00884155
0.00885915
0.00887101
0.00888299
0.00889381
0.00890037
0.00890726
0.00891185
0.0089144
0.00891546
0.008915
0.00891402
0.00890992
0.00890578
0.00890019
0.00889393
0.00888821
0.00887883
0.00887325
0.00886537
0.00885673
0.00885041
0.00884196
0.00883535
0.00882949
0.00882334
0.00881856
0.00881448
0.00881104
0.00880821
0.00880745
0.00880587
0.00880541
0.00880549
0.00880609
0.00880737
0.00880826
0.00881004
0.00881074
0.00881174
0.00881228
0.00881216
0.00881201
0.00871869
0.00872342
0.00875075
0.00875794
0.00878113
0.00879816
0.00881683
0.00883097
0.0088514
0.00886181
0.00887926
0.00888941
0.00889901
0.00890737
0.00891302
0.00891773
0.00892094
0.00892144
0.00892078
0.00891979
0.00891452
0.00891144
0.00890381
0.00889693
0.00888985
0.00888151
0.00887309
0.00886453
0.00885645
0.00884679
0.00883926
0.00883156
0.00882436
0.00881851
0.00881298
0.00880872
0.00880516
0.00880294
0.00880187
0.00880207
0.00880221
0.0088025
0.0088035
0.00880594
0.0088081
0.0088104
0.00881326
0.00881541
0.0088171
0.00881752
0.00881734
0.00873163
0.00873466
0.00876277
0.00875782
0.00879146
0.00879992
0.00881624
0.00884408
0.00884039
0.00887875
0.00887182
0.00889685
0.0089049
0.00891325
0.00891915
0.00892333
0.00892624
0.008927
0.00892629
0.00892527
0.00891999
0.00891584
0.00890832
0.00890046
0.00889147
0.00888339
0.00887269
0.00886405
0.00885406
0.00884435
0.00883556
0.00882656
0.00881871
0.0088119
0.00880585
0.00880168
0.00879842
0.00879632
0.00879615
0.00879594
0.00879732
0.00880022
0.00880257
0.00880563
0.00881
0.00881359
0.00881683
0.00881941
0.00882166
0.00882341
0.00882336
0.00872894
0.00875676
0.0087498
0.00878747
0.00877847
0.00881386
0.00881365
0.00884176
0.00885813
0.00886902
0.0088855
0.00889609
0.00890685
0.00891478
0.00892342
0.00892816
0.00893263
0.0089327
0.00893187
0.00892929
0.00892443
0.0089176
0.00891234
0.00890229
0.0088946
0.00888363
0.00887398
0.00886204
0.00885264
0.00884099
0.00883061
0.00882102
0.00881234
0.00880469
0.00879815
0.00879436
0.00879071
0.00878968
0.00879013
0.00879014
0.00879291
0.00879719
0.00880213
0.00880478
0.0088097
0.00881389
0.00881954
0.00882331
0.00882717
0.00882958
0.00882941
0.00874446
0.0087573
0.00877148
0.00877046
0.00880078
0.00879756
0.00883306
0.00882552
0.00885821
0.00887245
0.00888516
0.00889866
0.00891024
0.0089184
0.00892524
0.00893054
0.00893489
0.00893739
0.00893705
0.00893604
0.00893147
0.00892457
0.00891724
0.00890677
0.00889749
0.00888581
0.00887264
0.00886279
0.00884879
0.00883786
0.00882533
0.00881504
0.00880474
0.00879604
0.00878987
0.00878518
0.00878212
0.00878215
0.00878276
0.00878676
0.00878703
0.00879319
0.00880013
0.00880528
0.00881094
0.00881613
0.00882242
0.00882738
0.00883278
0.00883776
0.00883957
0.00875528
0.00876499
0.00876194
0.00879015
0.00878041
0.00881817
0.00881062
0.00884468
0.00884366
0.00887571
0.00888938
0.00890091
0.00891393
0.00892675
0.00893375
0.00893872
0.00894254
0.00894377
0.00894317
0.00894011
0.00893482
0.00892784
0.00891943
0.00890863
0.00889942
0.00888597
0.00887311
0.008862
0.00884403
0.00883543
0.00881762
0.00880837
0.00879664
0.00878795
0.00878066
0.00877598
0.00877153
0.00877153
0.00877507
0.00877532
0.00878362
0.00879138
0.00879943
0.00880651
0.00881529
0.00882546
0.00883341
0.00883751
0.00884074
0.00884416
0.0088451
0.00875966
0.00876614
0.00877546
0.00877129
0.00879931
0.00879557
0.00882504
0.00882361
0.00885784
0.00884824
0.00887948
0.00889756
0.00891139
0.00892575
0.00893793
0.00894368
0.00894647
0.00894769
0.00894712
0.00894572
0.0089412
0.00893559
0.00892486
0.00891493
0.00890214
0.00888886
0.00887089
0.00886315
0.00883666
0.00883488
0.00880722
0.00880681
0.00877967
0.00878069
0.00876345
0.00875043
0.00874036
0.00874102
0.0087411
0.00875223
0.00876652
0.00876953
0.0087913
0.00880385
0.00881435
0.00882776
0.00884231
0.00885248
0.00885802
0.00886072
0.00886044
0.00876231
0.00876483
0.00875977
0.00874812
0.00873566
0.0087235
0.00873206
0.00872907
0.00878648
0.00879161
0.00882248
0.00885119
0.00888168
0.00891091
0.00893248
0.00895045
0.00896118
0.00896096
0.00895976
0.00895294
0.00894744
0.00893978
0.00892873
0.00892002
0.00890209
0.00889229
0.00886836
0.0088639
0.00883245
0.00883146
0.00879179
0.00879314
0.00874152
0.00872702
0.00867776
0.00862163
0.00856604
0.00852733
0.00853442
0.00853547
0.00860429
0.00867578
0.00867912
0.00875881
0.00879596
0.00882143
0.00884203
0.00886137
0.00887236
0.00887455
0.00887362
0.00875266
0.00870349
0.00859548
0.00840019
0.00831085
0.00806693
0.0079523
0.00801604
0.00800633
0.0082365
0.00842548
0.00859322
0.00874123
0.00883584
0.0088918
0.00893249
0.00895598
0.00896728
0.00896699
0.00896498
0.0089561
0.00894593
0.00893356
0.00892314
0.00890422
0.00889327
0.00886704
0.00886166
0.00882252
0.00881757
0.00872122
0.00872177
0.00855768
0.00833582
0.00822283
0.00790509
0.00763336
0.00742376
0.00740654
0.00753002
0.00753219
0.00793019
0.00830277
0.0084826
0.00861681
0.00873439
0.00881068
0.00885356
0.0088745
0.0088808
0.00888028
0.00853454
0.00795979
0.00729208
0.00662847
0.00614308
0.00572685
0.00552031
0.00558089
0.00559908
0.00595029
0.00647601
0.00731357
0.0080765
0.00853247
0.00878415
0.00889986
0.00894807
0.00896804
0.00897252
0.00897124
0.0089635
0.00895202
0.0089402
0.00892574
0.00890714
0.00889248
0.00886937
0.00884732
0.00877123
0.00869947
0.0083729
0.00822775
0.00753695
0.00683436
0.0061891
0.00563252
0.00536327
0.0051348
0.00507193
0.00512755
0.00528327
0.00569429
0.00608474
0.0072105
0.00816339
0.00856372
0.0087501
0.00883683
0.00887463
0.00888701
0.00888723
0.00624123
0.00546571
0.00502566
0.00481022
0.00469747
0.00465305
0.00462697
0.00463817
0.00466718
0.00485907
0.00495069
0.00550291
0.00633827
0.00761126
0.00842734
0.00876844
0.0089062
0.00896022
0.00897403
0.0089735
0.00896747
0.0089557
0.00894316
0.00892483
0.00891137
0.00888389
0.00885215
0.00869886
0.00844454
0.0078162
0.00701272
0.00590566
0.00527265
0.00489646
0.00469891
0.00460414
0.00455701
0.00450748
0.00450813
0.00453062
0.00457354
0.00474751
0.00497511
0.00562964
0.00690741
0.00801874
0.00854214
0.00878922
0.00887361
0.00889334
0.00889321
0.00469389
0.00459999
0.00455943
0.00456574
0.00459103
0.00463383
0.00466527
0.00466456
0.00467225
0.00473255
0.00476756
0.00498763
0.00531813
0.00654122
0.00778332
0.00851346
0.00882926
0.00894017
0.00897195
0.00897285
0.00896843
0.00895581
0.00894192
0.00892683
0.00890248
0.00879241
0.00855954
0.00786877
0.00661295
0.00547298
0.00491644
0.00466031
0.00457407
0.00453973
0.00454598
0.00456289
0.00459833
0.00459436
0.00458261
0.00457015
0.00457531
0.00461279
0.00471831
0.00505216
0.00599731
0.00762113
0.0085304
0.00880724
0.00888794
0.00889719
0.00889004
0.0045259
0.00458346
0.00467638
0.00493133
0.00507913
0.00529809
0.00540451
0.0053664
0.00520201
0.00494628
0.00486308
0.00492295
0.00516661
0.00606612
0.00757319
0.00848378
0.00883492
0.00894451
0.0089724
0.00897197
0.00896579
0.00895248
0.00894071
0.00890781
0.00874268
0.00811156
0.00678868
0.00537232
0.00475583
0.00457191
0.00452447
0.00455553
0.00464338
0.00482422
0.00504209
0.00523084
0.00532347
0.0052794
0.00515238
0.00492809
0.00472788
0.00467201
0.00472729
0.00504019
0.00615923
0.00779547
0.00862509
0.00885519
0.00889106
0.00889242
0.00888202
0.00479293
0.0051452
0.005619
0.00622535
0.00666458
0.00700588
0.00695905
0.00679521
0.00641786
0.00569797
0.00511815
0.00502222
0.00521231
0.0062186
0.00774719
0.0085777
0.00887728
0.00895699
0.00897134
0.00896853
0.00895871
0.00894844
0.00892114
0.00862903
0.00740997
0.00545864
0.00476059
0.0045209
0.00448631
0.00455076
0.00472443
0.00506744
0.00553691
0.00612796
0.00660829
0.00684505
0.00684856
0.00674528
0.006506
0.0060364
0.00528719
0.00477824
0.00480998
0.00539366
0.0063721
0.00838809
0.00879626
0.00887577
0.00888286
0.00885235
0.00864659
0.0057255
0.00664662
0.00755073
0.00789149
0.00795408
0.00788052
0.00777167
0.0075452
0.00679731
0.00566799
0.00513818
0.00505781
0.00554362
0.0067957
0.00822265
0.00878429
0.00893422
0.00896178
0.00896437
0.00895967
0.00895476
0.00895178
0.00847531
0.00629104
0.00480151
0.00450078
0.00448345
0.00453376
0.00471219
0.00506617
0.00563297
0.00654637
0.00737773
0.00769037
0.00766223
0.00755764
0.00744258
0.00716895
0.00648927
0.00591141
0.00511661
0.00488798
0.00517045
0.00543788
0.00815619
0.0086114
0.00885469
0.00886314
0.00878834
0.0083913
0.00692926
0.00753394
0.00819582
0.0083292
0.00824144
0.00804739
0.00769821
0.00736471
0.00675002
0.00594283
0.00536305
0.00516042
0.00543233
0.0063488
0.00800037
0.00869689
0.00889324
0.00894692
0.00895446
0.00895417
0.00893532
0.00875359
0.00749528
0.00516528
0.0045615
0.00449243
0.00450768
0.0046164
0.00488203
0.00538402
0.00624855
0.00735729
0.00805767
0.00814525
0.0079676
0.00760659
0.00711444
0.00665166
0.00625536
0.0058511
0.00534567
0.00519587
0.00515457
0.0051537
0.00798209
0.00840925
0.00878898
0.00880168
0.00869128
0.0081744
0.00646301
0.00495192
0.00844504
0.00853471
0.00836625
0.00793623
0.00724909
0.00660999
0.00606366
0.00582382
0.00557007
0.00548262
0.00573804
0.00645458
0.00799867
0.008692
0.00884692
0.00892619
0.00893255
0.00892122
0.00878479
0.00813964
0.00607196
0.0047859
0.00452225
0.00449871
0.00453653
0.0046862
0.00501641
0.00561993
0.00663825
0.00784169
0.0083303
0.00833396
0.0080918
0.00747087
0.00675742
0.00613905
0.00578411
0.00569248
0.00539288
0.00529967
0.00516406
0.0051011
0.00812568
0.00833262
0.00871437
0.00874142
0.00862039
0.00782965
0.00595424
0.00496504
0.00450277
0.00865277
0.00858843
0.0082296
0.00765477
0.00695147
0.00645066
0.00618884
0.00600779
0.00599803
0.00620505
0.00722238
0.00840099
0.00861248
0.00887128
0.00888033
0.00889984
0.00883914
0.0085209
0.0074049
0.0054182
0.00467836
0.00451567
0.00450199
0.00455432
0.00472053
0.00506268
0.00567338
0.00666316
0.00785242
0.00842656
0.00847756
0.00825821
0.00789909
0.00717299
0.00655387
0.00617252
0.00597315
0.0057244
0.00574829
0.00581445
0.0063929
0.00815443
0.00834185
0.00863681
0.00862625
0.00837108
0.00739327
0.00553714
0.004877
0.00447544
0.00446819
0.00871941
0.00866314
0.00848278
0.00812154
0.00775835
0.00728741
0.00724493
0.00716971
0.00745833
0.00834057
0.00834696
0.00877911
0.00878365
0.00881601
0.0088323
0.00864418
0.0080457
0.00648055
0.00508386
0.00459678
0.00451047
0.00449836
0.00455235
0.00470606
0.00500877
0.00553635
0.0063752
0.00752043
0.00843639
0.00857251
0.00852845
0.00847103
0.00813915
0.00771773
0.00725209
0.00700178
0.00683634
0.00685196
0.00717924
0.00776601
0.00818732
0.0085001
0.00847438
0.00850551
0.00808702
0.00680626
0.00521742
0.00479137
0.00446912
0.00445055
0.00443352
0.00880064
0.00880014
0.00874827
0.00863381
0.00845291
0.00844161
0.00838945
0.00842196
0.00857491
0.00872074
0.00872944
0.00878289
0.00877878
0.00872533
0.00829707
0.0072713
0.00563382
0.00477977
0.00459567
0.00449032
0.00448879
0.00452466
0.00464707
0.00486967
0.00527107
0.00591947
0.00687069
0.00801768
0.00850157
0.0086436
0.00863076
0.00860918
0.00851679
0.00834109
0.00821228
0.00812889
0.0081171
0.00816369
0.00827877
0.00843875
0.00841326
0.00838602
0.00815134
0.00744871
0.00599251
0.00518031
0.00454292
0.00454513
0.00442465
0.00441938
0.00441379
0.00880654
0.00884487
0.00884775
0.00882936
0.00879112
0.00876782
0.00874986
0.0087397
0.00874478
0.00871668
0.00870032
0.00859426
0.00828122
0.00751851
0.00614569
0.00519416
0.00462136
0.00455369
0.00447401
0.00446665
0.00449137
0.00456862
0.00471093
0.00497443
0.00541733
0.00612276
0.00712287
0.00816124
0.00863374
0.00860866
0.00867035
0.00866618
0.00864408
0.00857912
0.00852578
0.00848617
0.00844497
0.00844413
0.00839774
0.00835888
0.00820006
0.00774927
0.00659354
0.00542643
0.00495293
0.00452289
0.0045242
0.00441689
0.00440147
0.00440067
0.00440384
0.00879283
0.00881636
0.00885138
0.00885067
0.00881533
0.00877385
0.00874486
0.00870017
0.00861231
0.00847049
0.00815505
0.00747672
0.0062612
0.0054362
0.00467482
0.00466794
0.00447484
0.00446444
0.00444633
0.00445842
0.00450274
0.00458678
0.00473634
0.00500104
0.0054276
0.00607773
0.00697809
0.00805078
0.00841762
0.00863165
0.008607
0.0086308
0.00862169
0.00857611
0.00851848
0.00846547
0.00840659
0.00829368
0.00809047
0.00768335
0.0067942
0.00568631
0.00510603
0.00464894
0.00456602
0.00443981
0.00441303
0.00438479
0.00438514
0.00439068
0.0044003
0.00850601
0.00861597
0.00870254
0.0087107
0.00865766
0.00855231
0.00842714
0.00817674
0.00776114
0.00701323
0.00606918
0.00539665
0.00469597
0.00470535
0.00448369
0.00448485
0.00443007
0.00442937
0.00443023
0.00445278
0.00449539
0.00456653
0.00470112
0.0049271
0.00528478
0.00583159
0.00658096
0.00744757
0.00834626
0.00838297
0.00849227
0.00847268
0.00848711
0.00843169
0.0083175
0.00815567
0.00787422
0.00740113
0.00658145
0.00578933
0.00517549
0.00479992
0.00460606
0.00444022
0.00442649
0.00437389
0.00437755
0.00437217
0.00437718
0.0043885
0.00439498
0.00733463
0.0079626
0.0078728
0.00788879
0.00767932
0.00726007
0.00672729
0.00620586
0.00558756
0.00515853
0.00484124
0.00465075
0.00449424
0.00449558
0.00442579
0.004423
0.00441051
0.00441074
0.00441897
0.00443989
0.00446986
0.00452684
0.00462951
0.00479452
0.00505365
0.00544275
0.00598266
0.00666247
0.00727222
0.00800206
0.00790979
0.00803104
0.00791503
0.00775419
0.0073429
0.00677134
0.00620047
0.00559918
0.00517992
0.00482473
0.00461121
0.00444952
0.00444863
0.00437792
0.00437154
0.00435909
0.00435874
0.00436464
0.00437589
0.00438448
0.00438762
0.0056395
0.00577375
0.00589781
0.00590854
0.00572822
0.00539098
0.00516878
0.00492038
0.00474002
0.00461206
0.0045257
0.00444702
0.00444892
0.00440791
0.0044062
0.00439852
0.00439779
0.00439986
0.00440618
0.00442048
0.00444052
0.00448152
0.00454927
0.00465532
0.00481745
0.00505211
0.00536445
0.00573905
0.00611357
0.00644222
0.00649486
0.00654173
0.00640313
0.00610255
0.00571178
0.00533382
0.00505389
0.00477512
0.00461211
0.00451075
0.00440184
0.0043986
0.00435576
0.00434965
0.0043463
0.00434587
0.0043553
0.00436202
0.00437024
0.00437635
0.00438313
0.00480423
0.00490271
0.0049
0.00491115
0.00483668
0.00471935
0.00463555
0.00457036
0.00451187
0.00445276
0.00445128
0.00441086
0.00441378
0.00439319
0.00439321
0.00438882
0.00438811
0.00438868
0.00439412
0.00440128
0.00441478
0.00443965
0.00448076
0.0045407
0.00463088
0.00475521
0.00491371
0.0050958
0.00527903
0.00534124
0.00539568
0.00537467
0.00526743
0.00508
0.00485787
0.00469793
0.00457791
0.00447935
0.0044006
0.00438277
0.00435107
0.00434996
0.00433594
0.00433287
0.00433551
0.0043434
0.00434951
0.0043577
0.00436391
0.00437226
0.0043778
0.00459454
0.00459826
0.00460777
0.00460255
0.00457715
0.00453878
0.00450858
0.00448219
0.00445464
0.00442515
0.00442496
0.00440676
0.00439231
0.00439064
0.00438434
0.00438112
0.00438017
0.00437957
0.00438273
0.00438626
0.0043944
0.00440935
0.00443256
0.00446424
0.00451064
0.00457067
0.00464229
0.00471893
0.00478981
0.00479936
0.00481228
0.00478575
0.00471288
0.00460962
0.00450958
0.00445567
0.00440446
0.00436916
0.00434961
0.00432837
0.00432992
0.00432272
0.00432296
0.00432475
0.00433287
0.00433707
0.00434655
0.00435191
0.00436101
0.00436753
0.00437424
0.00454044
0.00454313
0.00454321
0.00453495
0.00452132
0.00450109
0.00448368
0.00446186
0.00444292
0.00442737
0.00441171
0.00439926
0.00439113
0.00438435
0.00437792
0.00437503
0.0043731
0.00437239
0.00437314
0.00437551
0.00437965
0.0043889
0.00440182
0.00441821
0.00444171
0.00446922
0.00450104
0.00452549
0.00454782
0.00454574
0.00454526
0.00451909
0.00447448
0.00442459
0.00438589
0.00436773
0.00434356
0.00433131
0.00431889
0.004319
0.00431588
0.00431474
0.00431661
0.00432173
0.00432657
0.00433372
0.0043409
0.00434803
0.00435669
0.00436325
0.00437152
0.0045357
0.00453619
0.00453482
0.00452663
0.0045164
0.0044989
0.00448273
0.00446142
0.00444464
0.00442395
0.00441081
0.004398
0.00438719
0.00438049
0.00437403
0.00437011
0.00436756
0.00436624
0.00436613
0.00436756
0.00436954
0.00437509
0.00438233
0.00439094
0.00440254
0.00441457
0.00442717
0.00443328
0.0044366
0.00443393
0.00442674
0.00440687
0.00438308
0.00436052
0.00434656
0.0043362
0.00432504
0.0043178
0.00431049
0.00431124
0.00430934
0.00430889
0.00431182
0.00431642
0.00432099
0.00432947
0.00433591
0.00434505
0.004354
0.00436252
0.00437255
0.00454185
0.00454216
0.00454002
0.00453237
0.00451998
0.00450635
0.00448507
0.0044669
0.00444408
0.00442863
0.00440661
0.00439986
0.00438116
0.00437961
0.00436989
0.00436577
0.00436318
0.00436097
0.00436059
0.00436116
0.00436215
0.00436517
0.00436926
0.00437452
0.00438014
0.00438548
0.00438968
0.0043898
0.0043896
0.00438466
0.00437747
0.00436408
0.00435102
0.00433932
0.00433154
0.00432343
0.00431676
0.00431102
0.00430617
0.00430488
0.00430359
0.00430397
0.00430603
0.00431117
0.00431657
0.00432602
0.00433333
0.00434594
0.00435542
0.00436832
0.0043819
0.00454996
0.00455038
0.00454763
0.00453837
0.00452796
0.00450964
0.00449173
0.0044678
0.00444987
0.0044262
0.00441135
0.00439489
0.00438463
0.00437532
0.00436715
0.00436387
0.00435877
0.00435764
0.00435666
0.00435673
0.00435735
0.0043592
0.00436171
0.00436511
0.00436821
0.0043704
0.00437152
0.0043707
0.00436923
0.0043645
0.00435831
0.0043488
0.00434073
0.00433296
0.00432726
0.00432058
0.00431525
0.0043097
0.00430491
0.00430054
0.00430099
0.00429986
0.00430235
0.00430748
0.00431401
0.00432393
0.00433433
0.00434807
0.00436005
0.0043724
0.0043841
0.00455696
0.00455729
0.00455426
0.00454531
0.00453299
0.00451576
0.00449614
0.00447237
0.00445155
0.00442963
0.00441134
0.00439586
0.00438416
0.00437241
0.00436773
0.00436136
0.0043573
0.00435564
0.00435455
0.00435442
0.00435472
0.00435583
0.0043572
0.00435986
0.00436239
0.0043633
0.00436356
0.00436255
0.00436051
0.00435665
0.00435189
0.00434565
0.00433913
0.00433299
0.00432641
0.00431924
0.00431268
0.0043057
0.00429943
0.00429648
0.00429386
0.0042938
0.00429453
0.00430074
0.00430859
0.00432042
0.00433592
0.00435024
0.00436591
0.00438179
0.00439999
0.00456342
0.00456382
0.00456014
0.00455165
0.00453588
0.00452854
0.00448754
0.00448968
0.00444189
0.00444088
0.00440621
0.00440015
0.00438211
0.00437435
0.00436684
0.00436055
0.00435764
0.00435467
0.00435339
0.00435308
0.00435325
0.00435406
0.00435519
0.00435695
0.00435908
0.00436028
0.00436072
0.00436027
0.00435878
0.00435619
0.00435183
0.00434697
0.00434036
0.00433436
0.00432773
0.0043203
0.0043134
0.00430698
0.00430176
0.00429664
0.00429106
0.00428962
0.00429048
0.00429564
0.00430786
0.00431961
0.00433715
0.00435448
0.00437254
0.00438664
0.00440222
0.0045684
0.00456888
0.00456432
0.00455636
0.00453993
0.00453278
0.0044918
0.00449332
0.00444532
0.00444373
0.00440796
0.00440256
0.00438312
0.00437514
0.00436784
0.00436109
0.00435823
0.0043546
0.00435395
0.0043533
0.00435358
0.00435435
0.00435559
0.00435706
0.00435913
0.00436069
0.00436125
0.00436104
0.0043603
0.00435753
0.00435467
0.00435038
0.00434528
0.00434066
0.00433472
0.00432808
0.00432228
0.00431591
0.00430901
0.00429776
0.00429902
0.00429829
0.00430073
0.00431066
0.00430686
0.00432766
0.00432804
0.0043489
0.00435811
0.00437311
0.00438189
0.00875115
0.00874923
0.00874726
0.0087456
0.00874411
0.00874294
0.00874182
0.00874117
0.0087408
0.00874079
0.00874113
0.00874196
0.00874339
0.00874516
0.00874773
0.00875038
0.00875413
0.00875778
0.0087622
0.00876679
0.00877187
0.00877723
0.00878271
0.00878844
0.00879413
0.00880004
0.00875395
0.00875196
0.00874987
0.00874813
0.0087464
0.008745
0.00874382
0.00874294
0.00874236
0.00874219
0.00874239
0.00874296
0.00874402
0.00874552
0.00874767
0.00875018
0.00875303
0.00875645
0.0087604
0.0087645
0.00876902
0.00877385
0.00877874
0.00878406
0.00878932
0.00879479
0.00875697
0.00875465
0.00875234
0.00875067
0.00874886
0.00874728
0.00874605
0.00874493
0.00874422
0.00874381
0.00874381
0.00874411
0.00874486
0.00874623
0.00874772
0.00874986
0.00875257
0.00875536
0.00875868
0.00876258
0.00876651
0.00877096
0.00877532
0.00878011
0.00878468
0.00878964
0.00875972
0.00875745
0.00875541
0.00875318
0.00875133
0.00874959
0.00874816
0.00874705
0.00874609
0.00874558
0.00874538
0.00874553