/*--------------------------------*- C++ -*----------------------------------*\
  =========                 |
  \\      /  F ield         | OpenFOAM: The Open Source CFD Toolbox
   \\    /   O peration     | Website:  https://openfoam.org
    \\  /    A nd           | Version:  10
     \\/     M anipulation  |
\*---------------------------------------------------------------------------*/
FoamFile
{
    format      ascii;
    class       volVectorField;
    location    "0.448024";
    object      U;
}
// * * * * * * * * * * * * * * * * * * * * * * * * * * * * * * * * * * * * * //

dimensions      [0 1 -1 0 0 0 0];

internalField   nonuniform List<vector> 
15708
(
(0.634548 -0.0472294 0)
(0.626108 -0.0434741 0)
(0.617326 -0.0399257 0)
(0.608386 -0.0365935 0)
(0.59926 -0.0334955 0)
(0.589947 -0.0306406 0)
(0.580469 -0.028028 0)
(0.570866 -0.0256441 0)
(0.561183 -0.0234658 0)
(0.551477 -0.0214639 0)
(0.541811 -0.0196031 0)
(0.532249 -0.0178451 0)
(0.522849 -0.0161526 0)
(0.513664 -0.0144914 0)
(0.504741 -0.012832 0)
(0.496118 -0.0111484 0)
(0.487817 -0.00942108 0)
(0.479856 -0.00764084 0)
(0.472239 -0.00580443 0)
(0.464967 -0.00390994 0)
(0.458031 -0.00195846 0)
(0.451411 4.9511e-05 0)
(0.445106 0.0021057 0)
(0.439087 0.00420493 0)
(0.433286 0.00633517 0)
(0.42775 0.00851718 0)
(0.422545 0.0106966 0)
(0.41757 0.0128959 0)
(0.412762 0.0151056 0)
(0.408162 0.0173158 0)
(0.403779 0.0195188 0)
(0.399616 0.0217057 0)
(0.395679 0.023866 0)
(0.391981 0.0259878 0)
(0.388536 0.028058 0)
(0.385361 0.0300621 0)
(0.382474 0.031984 0)
(0.379896 0.033807 0)
(0.377643 0.0355131 0)
(0.375736 0.0370844 0)
(0.374189 0.0385009 0)
(0.373016 0.0397463 0)
(0.372226 0.0408001 0)
(0.371826 0.0416471 0)
(0.371819 0.0422701 0)
(0.372194 0.0426575 0)
(0.372943 0.0427955 0)
(0.374051 0.0426762 0)
(0.375493 0.0422945 0)
(0.377237 0.0416497 0)
(0.379248 0.0407457 0)
(0.638062 -0.0385222 0)
(0.629464 -0.0353215 0)
(0.620476 -0.0323596 0)
(0.611305 -0.0296186 0)
(0.601934 -0.0271172 0)
(0.592372 -0.0248614 0)
(0.582654 -0.0228477 0)
(0.572832 -0.021058 0)
(0.562963 -0.0194651 0)
(0.553108 -0.0180352 0)
(0.543334 -0.0167298 0)
(0.533704 -0.0155083 0)
(0.524275 -0.0143302 0)
(0.515097 -0.0131551 0)
(0.506208 -0.0119533 0)
(0.497638 -0.0107053 0)
(0.489406 -0.00939673 0)
(0.481522 -0.00801698 0)
(0.473988 -0.00656027 0)
(0.466797 -0.00502495 0)
(0.459938 -0.00341337 0)
(0.453393 -0.00173299 0)
(0.447146 1.7265e-05 0)
(0.44117 0.00181473 0)
(0.435426 0.00365911 0)
(0.429927 0.00556897 0)
(0.424733 0.00750329 0)
(0.419772 0.00945842 0)
(0.414973 0.0114375 0)
(0.41037 0.013431 0)
(0.405976 0.015431 0)
(0.401792 0.0174281 0)
(0.397825 0.0194124 0)
(0.394085 0.0213723 0)
(0.390585 0.0232946 0)
(0.387343 0.025165 0)
(0.384374 0.0269667 0)
(0.381697 0.0286823 0)
(0.379331 0.0302942 0)
(0.377291 0.0317832 0)
(0.375595 0.0331301 0)
(0.374255 0.0343194 0)
(0.373279 0.0353291 0)
(0.372678 0.0361463 0)
(0.372453 0.0367529 0)
(0.3726 0.0371371 0)
(0.373109 0.0372909 0)
(0.373971 0.0372056 0)
(0.375164 0.0368773 0)
(0.376664 0.0363094 0)
(0.378437 0.0355074 0)
(0.640991 -0.0300097 0)
(0.632264 -0.0273651 0)
(0.623042 -0.0249862 0)
(0.61363 -0.0228366 0)
(0.604007 -0.0209295 0)
(0.594194 -0.0192697 0)
(0.584241 -0.017846 0)
(0.57421 -0.0166393 0)
(0.564165 -0.0156231 0)
(0.554177 -0.0147574 0)
(0.544314 -0.0139939 0)
(0.534637 -0.0132883 0)
(0.5252 -0.0126029 0)
(0.516047 -0.0119046 0)
(0.50721 -0.0111635 0)
(0.498713 -0.0103577 0)
(0.490569 -0.00946981 0)
(0.482781 -0.00849108 0)
(0.475345 -0.00741551 0)
(0.468249 -0.00624504 0)
(0.461478 -0.00498281 0)
(0.455014 -0.00363612 0)
(0.448839 -0.00220908 0)
(0.442926 -0.000712726 0)
(0.437245 0.000849276 0)
(0.4318 0.0024859 0)
(0.426639 0.00417319 0)
(0.421703 0.00589901 0)
(0.416925 0.00766089 0)
(0.412335 0.00945647 0)
(0.407945 0.011277 0)
(0.403756 0.0131123 0)
(0.399774 0.014952 0)
(0.396007 0.0167838 0)
(0.39247 0.0185943 0)
(0.389176 0.0203673 0)
(0.386139 0.0220859 0)
(0.383379 0.023731 0)
(0.380912 0.0252838 0)
(0.378753 0.0267229 0)
(0.376921 0.0280315 0)
(0.375425 0.0291874 0)
(0.374276 0.0301729 0)
(0.373485 0.0309724 0)
(0.373054 0.0315697 0)
(0.372984 0.0319518 0)
(0.373269 0.0321128 0)
(0.373898 0.0320461 0)
(0.374859 0.0317497 0)
(0.376131 0.0312284 0)
(0.377686 0.0304901 0)
(0.643358 -0.0217496 0)
(0.634463 -0.0196842 0)
(0.625014 -0.0178913 0)
(0.615358 -0.0163289 0)
(0.605484 -0.0150092 0)
(0.595425 -0.0139332 0)
(0.585244 -0.0130903 0)
(0.575011 -0.0124533 0)
(0.564804 -0.0119852 0)
(0.554698 -0.0116451 0)
(0.544762 -0.0113932 0)
(0.535054 -0.01119 0)
(0.525626 -0.010992 0)
(0.516519 -0.0107626 0)
(0.507755 -0.0104664 0)
(0.49935 -0.0100901 0)
(0.491309 -0.00961223 0)
(0.483628 -0.00902816 0)
(0.476301 -0.00833368 0)
(0.46931 -0.00753051 0)
(0.462639 -0.00662198 0)
(0.45627 -0.00561248 0)
(0.450182 -0.00450697 0)
(0.444347 -0.00331728 0)
(0.438746 -0.00204104 0)
(0.433373 -0.00067351 0)
(0.428264 0.000770737 0)
(0.423369 0.00227495 0)
(0.41863 0.00383317 0)
(0.414073 0.00544753 0)
(0.409707 0.00710985 0)
(0.405532 0.00880855 0)
(0.401552 0.0105328 0)
(0.397777 0.0122693 0)
(0.394217 0.014003 0)
(0.390885 0.0157153 0)
(0.387795 0.0173861 0)
(0.384964 0.018996 0)
(0.382405 0.0205215 0)
(0.380138 0.0219421 0)
(0.378176 0.0232374 0)
(0.376531 0.024382 0)
(0.375216 0.0253596 0)
(0.37424 0.0261513 0)
(0.373609 0.0267414 0)
(0.373327 0.0271182 0)
(0.373393 0.0272739 0)
(0.373799 0.0272054 0)
(0.374538 0.0269145 0)
(0.375593 0.0264046 0)
(0.376943 0.025689 0)
(0.645148 -0.0138458 0)
(0.636077 -0.0123665 0)
(0.626401 -0.0111637 0)
(0.616503 -0.0101845 0)
(0.606381 -0.00944439 0)
(0.596084 -0.00892523 0)
(0.585682 -0.0086209 0)
(0.575261 -0.00851044 0)
(0.564905 -0.0085611 0)
(0.554696 -0.00873063 0)
(0.544703 -0.00897319 0)
(0.534987 -0.00924144 0)
(0.52559 -0.00949389 0)
(0.516548 -0.00969269 0)
(0.507868 -0.00981267 0)
(0.499562 -0.00984906 0)
(0.491634 -0.00976872 0)
(0.48407 -0.00957723 0)
(0.476861 -0.00926156 0)
(0.469987 -0.00882699 0)
(0.463428 -0.00827345 0)
(0.457167 -0.00760268 0)
(0.451175 -0.00682195 0)
(0.445434 -0.00593844 0)
(0.439929 -0.00494738 0)
(0.434647 -0.00384823 0)
(0.429613 -0.00264126 0)
(0.424783 -0.0013521 0)
(0.420103 1.99863e-05 0)
(0.415603 0.00147433 0)
(0.411283 0.0030021 0)
(0.407142 0.00458645 0)
(0.403187 0.00622159 0)
(0.399422 0.00789239 0)
(0.395857 0.00958083 0)
(0.392501 0.011266 0)
(0.389368 0.0129233 0)
(0.386474 0.0145294 0)
(0.383832 0.0160594 0)
(0.38146 0.0174888 0)
(0.379371 0.0187928 0)
(0.377577 0.0199455 0)
(0.376094 0.0209267 0)
(0.374931 0.0217165 0)
(0.374099 0.0222987 0)
(0.373604 0.022661 0)
(0.373449 0.0227965 0)
(0.373634 0.0227024 0)
(0.374152 0.0223845 0)
(0.374996 0.0218479 0)
(0.37615 0.0211095 0)
(0.646369 -0.00642439 0)
(0.637093 -0.00549691 0)
(0.627214 -0.00487407 0)
(0.617082 -0.00443137 0)
(0.606722 -0.00425037 0)
(0.596195 -0.00425481 0)
(0.585584 -0.00448633 0)
(0.574991 -0.00488303 0)
(0.564509 -0.00542064 0)
(0.554221 -0.00604936 0)
(0.544194 -0.00672905 0)
(0.534485 -0.00741305 0)
(0.525132 -0.00807675 0)
(0.516164 -0.00869945 0)
(0.507566 -0.00916055 0)
(0.499365 -0.0096329 0)
(0.491556 -0.00988271 0)
(0.484111 -0.0100896 0)
(0.477029 -0.0101267 0)
(0.470278 -0.010052 0)
(0.463843 -0.00985096 0)
(0.4577 -0.00952044 0)
(0.451821 -0.00906881 0)
(0.446192 -0.00849734 0)
(0.4408 -0.00779364 0)
(0.435633 -0.00695923 0)
(0.430702 -0.00598559 0)
(0.425958 -0.0049078 0)
(0.421367 -0.00371563 0)
(0.416951 -0.00241228 0)
(0.4127 -0.0010066 0)
(0.408616 0.000495785 0)
(0.404707 0.00207386 0)
(0.400973 0.00370817 0)
(0.39742 0.00538174 0)
(0.394054 0.00707117 0)
(0.390888 0.00874746 0)
(0.387937 0.0103808 0)
(0.385215 0.0119444 0)
(0.382737 0.0134082 0)
(0.380517 0.0147423 0)
(0.378569 0.0159192 0)
(0.376909 0.0169143 0)
(0.375551 0.0177052 0)
(0.374508 0.0182754 0)
(0.37379 0.0186113 0)
(0.373406 0.0187066 0)
(0.373363 0.0185606 0)
(0.373658 0.0181782 0)
(0.37429 0.0175729 0)
(0.375249 0.0167614 0)
(0.646965 0.000553489 0)
(0.637547 0.000958259 0)
(0.627443 0.000942933 0)
(0.617086 0.000851058 0)
(0.606508 0.000469172 0)
(0.595798 -3.74546e-05 0)
(0.585 -0.000742486 0)
(0.574271 -0.0015883 0)
(0.56368 -0.00254467 0)
(0.553328 -0.00357645 0)
(0.543286 -0.00463278 0)
(0.533582 -0.00567089 0)
(0.524256 -0.00675856 0)
(0.515413 -0.00766424 0)
(0.506886 -0.00855097 0)
(0.498787 -0.00927247 0)
(0.49112 -0.00996138 0)
(0.483766 -0.0104562 0)
(0.476834 -0.0108863 0)
(0.470195 -0.0111502 0)
(0.463889 -0.0112978 0)
(0.457875 -0.0113105 0)
(0.45212 -0.0111911 0)
(0.446623 -0.010934 0)
(0.441371 -0.0105201 0)
(0.436346 -0.00994602 0)
(0.431541 -0.00920302 0)
(0.42691 -0.00833093 0)
(0.422437 -0.00730987 0)
(0.418127 -0.00614273 0)
(0.413982 -0.00484126 0)
(0.409992 -0.0034082 0)
(0.406151 -0.00186907 0)
(0.402467 -0.000241527 0)
(0.398943 0.00144994 0)
(0.395581 0.00317545 0)
(0.392391 0.00490066 0)
(0.389387 0.00659291 0)
(0.386584 0.00821854 0)
(0.383996 0.00974154 0)
(0.381635 0.0111267 0)
(0.37952 0.0123429 0)
(0.377668 0.01336 0)
(0.376098 0.0141549 0)
(0.374826 0.014706 0)
(0.373868 0.0150018 0)
(0.37324 0.0150341 0)
(0.372952 0.0148047 0)
(0.373012 0.0143207 0)
(0.373426 0.0135996 0)
(0.374189 0.0126626 0)
(0.646982 0.00701692 0)
(0.637412 0.00671706 0)
(0.62713 0.00619864 0)
(0.616621 0.00551845 0)
(0.605825 0.0046924 0)
(0.594958 0.00370154 0)
(0.583993 0.00259344 0)
(0.573137 0.00135868 0)
(0.562465 4.75457e-05 0)
(0.552074 -0.00131313 0)
(0.542041 -0.00269149 0)
(0.532299 -0.00403972 0)
(0.523076 -0.00537326 0)
(0.514308 -0.00657855 0)
(0.505886 -0.00780973 0)
(0.497886 -0.00881001 0)
(0.490295 -0.00984263 0)
(0.483107 -0.0106693 0)
(0.47625 -0.0114345 0)
(0.469775 -0.0120555 0)
(0.463583 -0.0125452 0)
(0.457698 -0.0128983 0)
(0.452079 -0.0131144 0)
(0.446733 -0.0131757 0)
(0.441645 -0.0130546 0)
(0.436791 -0.0127414 0)
(0.432139 -0.0122418 0)
(0.427652 -0.0115736 0)
(0.423331 -0.0107172 0)
(0.41917 -0.00967596 0)
(0.415157 -0.00845666 0)
(0.411284 -0.00707892 0)
(0.407543 -0.00555629 0)
(0.403938 -0.00391566 0)
(0.400467 -0.00218327 0)
(0.397124 -0.000391795 0)
(0.393917 0.00142016 0)
(0.390865 0.00320455 0)
(0.387977 0.00492066 0)
(0.385268 0.00652844 0)
(0.382753 0.00798667 0)
(0.380452 0.00925841 0)
(0.378387 0.0103075 0)
(0.376579 0.0111067 0)
(0.375051 0.0116322 0)
(0.373827 0.0118709 0)
(0.372929 0.0118159 0)
(0.372376 0.0114695 0)
(0.372184 0.0108436 0)
(0.372365 0.00995497 0)
(0.372922 0.00883325 0)
(0.646446 0.0127557 0)
(0.636696 0.0118792 0)
(0.626312 0.0108678 0)
(0.615622 0.00963479 0)
(0.604706 0.0084149 0)
(0.593685 0.00695037 0)
(0.582625 0.00552554 0)
(0.571677 0.00397273 0)
(0.560952 0.00238836 0)
(0.550533 0.000778532 0)
(0.540492 -0.00083566 0)
(0.530844 -0.00243996 0)
(0.521652 -0.00391677 0)
(0.512911 -0.00544938 0)
(0.504586 -0.00684545 0)
(0.496675 -0.00821559 0)
(0.489181 -0.0094394 0)
(0.482082 -0.0106362 0)
(0.475351 -0.0116839 0)
(0.468975 -0.0126581 0)
(0.462924 -0.0134961 0)
(0.457171 -0.0142041 0)
(0.451696 -0.0147734 0)
(0.446523 -0.0151565 0)
(0.441629 -0.0153336 0)
(0.436963 -0.0152923 0)
(0.432491 -0.0150527 0)
(0.428192 -0.0145924 0)
(0.424064 -0.0139023 0)
(0.420089 -0.0129835 0)
(0.41625 -0.0118435 0)
(0.412533 -0.0104989 0)
(0.408926 -0.0089692 0)
(0.405426 -0.0072841 0)
(0.402028 -0.00548087 0)
(0.398728 -0.00359625 0)
(0.395522 -0.00167146 0)
(0.392418 0.000241805 0)
(0.389438 0.00208289 0)
(0.386596 0.00380316 0)
(0.383909 0.00535797 0)
(0.381397 0.00670255 0)
(0.379087 0.00779483 0)
(0.377008 0.00860023 0)
(0.375189 0.00909472 0)
(0.373665 0.00926007 0)
(0.372463 0.00909261 0)
(0.371613 0.0085937 0)
(0.371139 0.00777766 0)
(0.371063 0.00666806 0)
(0.371399 0.00529778 0)
(0.645196 0.0178095 0)
(0.63546 0.016406 0)
(0.624939 0.0147864 0)
(0.614198 0.0131392 0)
(0.603156 0.0114764 0)
(0.592057 0.00974532 0)
(0.580994 0.00800538 0)
(0.569965 0.00623847 0)
(0.559227 0.00446657 0)
(0.548802 0.0027004 0)
(0.538778 0.000955579 0)
(0.529166 -0.000746546 0)
(0.520018 -0.00249021 0)
(0.511319 -0.00408573 0)
(0.503054 -0.00573496 0)
(0.495216 -0.00725045 0)
(0.487785 -0.00878132 0)
(0.480762 -0.0102033 0)
(0.474116 -0.0115915 0)
(0.467839 -0.0128782 0)
(0.461901 -0.0140674 0)
(0.456271 -0.0151505 0)
(0.450961 -0.0160902 0)
(0.445993 -0.0168067 0)
(0.441309 -0.0172997 0)
(0.436851 -0.0175688 0)
(0.432595 -0.0175975 0)
(0.428534 -0.0173571 0)
(0.424644 -0.0168431 0)
(0.420901 -0.016047 0)
(0.417283 -0.01498 0)
(0.413767 -0.0136557 0)
(0.410336 -0.0121005 0)
(0.406976 -0.0103453 0)
(0.403681 -0.00843794 0)
(0.40044 -0.00642138 0)
(0.397245 -0.00434864 0)
(0.3941 -0.0022784 0)
(0.391019 -0.000277756 0)
(0.388027 0.00159293 0)
(0.385145 0.0032742 0)
(0.382391 0.00471399 0)
(0.379799 0.00586284 0)
(0.377408 0.00667964 0)
(0.375254 0.00713795 0)
(0.373381 0.00721503 0)
(0.371831 0.00690597 0)
(0.370641 0.00621741 0)
(0.369849 0.00516157 0)
(0.369486 0.00377366 0)
(0.369579 0.00209145 0)
(0.643364 0.0221937 0)
(0.633609 0.0201649 0)
(0.623103 0.0180526 0)
(0.612346 0.0159925 0)
(0.601325 0.0139598 0)
(0.590206 0.0120439 0)
(0.57909 0.0100781 0)
(0.568104 0.00820608 0)
(0.557369 0.0063546 0)
(0.546974 0.00454469 0)
(0.536987 0.00275752 0)
(0.527345 0.00100869 0)
(0.518251 -0.000743845 0)
(0.5096 -0.00246796 0)
(0.501346 -0.00420204 0)
(0.493546 -0.00592489 0)
(0.486135 -0.0076473 0)
(0.479166 -0.00935139 0)
(0.47256 -0.0110318 0)
(0.46637 -0.0126635 0)
(0.460509 -0.0142143 0)
(0.454989 -0.0156967 0)
(0.449867 -0.0170143 0)
(0.445125 -0.0180755 0)
(0.440659 -0.0189302 0)
(0.436437 -0.0195395 0)
(0.43245 -0.0198558 0)
(0.428669 -0.0198584 0)
(0.425068 -0.01953 0)
(0.421616 -0.0188658 0)
(0.418275 -0.0178703 0)
(0.415014 -0.0165576 0)
(0.411808 -0.0149588 0)
(0.408632 -0.0131072 0)
(0.405471 -0.0110601 0)
(0.402316 -0.00887585 0)
(0.39915 -0.00661348 0)
(0.395966 -0.00434513 0)
(0.392783 -0.00214021 0)
(0.389625 -7.78442e-05 0)
(0.386516 0.00176681 0)
(0.383481 0.00333088 0)
(0.38056 0.00455655 0)
(0.377804 0.00539543 0)
(0.375259 0.0058128 0)
(0.37298 0.00578738 0)
(0.371025 0.00531027 0)
(0.369441 0.00439112 0)
(0.368281 0.00304712 0)
(0.367591 0.00131809 0)
(0.367404 -0.000751425 0)
(0.640887 0.025784 0)
(0.631244 0.0231347 0)
(0.620822 0.0206032 0)
(0.610144 0.018098 0)
(0.59922 0.0158819 0)
(0.588168 0.0137589 0)
(0.577125 0.0117639 0)
(0.5662 0.00988151 0)
(0.555515 0.00808255 0)
(0.545156 0.00634767 0)
(0.53518 0.00464494 0)
(0.525607 0.00293329 0)
(0.516479 0.00130189 0)
(0.507787 -0.000493749 0)
(0.499522 -0.00223425 0)
(0.49168 -0.00412007 0)
(0.484261 -0.00598971 0)
(0.477266 -0.00796252 0)
(0.470685 -0.00992572 0)
(0.464527 -0.0119108 0)
(0.458724 -0.0138648 0)
(0.453312 -0.015769 0)
(0.448407 -0.017446 0)
(0.443885 -0.0189318 0)
(0.439636 -0.0202015 0)
(0.435696 -0.0211794 0)
(0.432027 -0.0218229 0)
(0.428587 -0.0220979 0)
(0.425338 -0.0219773 0)
(0.422235 -0.0214564 0)
(0.419236 -0.020537 0)
(0.416294 -0.019223 0)
(0.413374 -0.0175737 0)
(0.410438 -0.0155916 0)
(0.407455 -0.0133774 0)
(0.404414 -0.0109756 0)
(0.401293 -0.00847301 0)
(0.398085 -0.00594805 0)
(0.394798 -0.00348826 0)
(0.39145 -0.00118869 0)
(0.388077 0.000863821 0)
(0.384715 0.00258911 0)
(0.381411 0.00391881 0)
(0.378223 0.0047947 0)
(0.375218 0.00517453 0)
(0.372463 0.00503362 0)
(0.370031 0.00436364 0)
(0.367986 0.00317102 0)
(0.366397 0.00148583 0)
(0.365323 -0.000654166 0)
(0.364812 -0.00318799 0)
(0.63778 0.0285045 0)
(0.628334 0.0253276 0)
(0.61812 0.0223166 0)
(0.607657 0.0195998 0)
(0.596996 0.0171737 0)
(0.586077 0.0150132 0)
(0.575184 0.0130785 0)
(0.564379 0.0113226 0)
(0.553785 0.00971157 0)
(0.54348 0.00818629 0)
(0.533519 0.00669418 0)
(0.523938 0.00519405 0)
(0.514761 0.00364175 0)
(0.505996 0.00199106 0)
(0.497641 0.000219219 0)
(0.489707 -0.00169084 0)
(0.482198 -0.0037331 0)
(0.475124 -0.00591062 0)
(0.468493 -0.0081806 0)
(0.4623 -0.0105294 0)
(0.456506 -0.0129484 0)
(0.451249 -0.015246 0)
(0.446534 -0.0173866 0)
(0.442183 -0.0193676 0)
(0.438209 -0.0210918 0)
(0.434597 -0.0224904 0)
(0.431293 -0.0235087 0)
(0.428254 -0.0240964 0)
(0.425427 -0.0242216 0)
(0.422749 -0.0238626 0)
(0.420178 -0.0230315 0)
(0.417621 -0.021724 0)
(0.415063 -0.0199745 0)
(0.412433 -0.0178599 0)
(0.409677 -0.015419 0)
(0.406801 -0.0127476 0)
(0.403754 -0.00994104 0)
(0.400526 -0.00709426 0)
(0.397123 -0.00431664 0)
(0.393566 -0.00171681 0)
(0.389891 0.000597821 0)
(0.386147 0.00253253 0)
(0.38239 0.00400152 0)
(0.378697 0.0049364 0)
(0.375147 0.00528722 0)
(0.371829 0.00502262 0)
(0.368833 0.00413257 0)
(0.366244 0.0026279 0)
(0.364147 0.000540525 0)
(0.36262 -0.00208125 0)
(0.36173 -0.00516593 0)
(0.634021 0.0303879 0)
(0.62495 0.026648 0)
(0.615126 0.0232446 0)
(0.605029 0.0203725 0)
(0.594634 0.0178585 0)
(0.584057 0.0157763 0)
(0.573402 0.0140464 0)
(0.562792 0.0125658 0)
(0.552329 0.011295 0)
(0.542089 0.0101344 0)
(0.532132 0.008996 0)
(0.522498 0.00781868 0)
(0.513212 0.00652282 0)
(0.504298 0.00505378 0)
(0.495769 0.00337308 0)
(0.487646 0.00145047 0)
(0.479953 -0.000716834 0)
(0.472719 -0.00311894 0)
(0.465956 -0.00571851 0)
(0.459636 -0.00847828 0)
(0.453871 -0.0113653 0)
(0.448727 -0.0141222 0)
(0.444126 -0.0168282 0)
(0.440004 -0.0193516 0)
(0.436323 -0.021603 0)
(0.433074 -0.023496 0)
(0.430198 -0.0249508 0)
(0.427635 -0.0259068 0)
(0.425312 -0.0263166 0)
(0.423148 -0.0261539 0)
(0.421074 -0.0254086 0)
(0.419035 -0.0241061 0)
(0.416907 -0.022256 0)
(0.414651 -0.0199576 0)
(0.412219 -0.0172303 0)
(0.409542 -0.0142383 0)
(0.406599 -0.0110554 0)
(0.403369 -0.00781269 0)
(0.399846 -0.00463404 0)
(0.396048 -0.00165392 0)
(0.392025 0.000997781 0)
(0.387833 0.00320264 0)
(0.383544 0.00486076 0)
(0.379252 0.00588759 0)
(0.375058 0.00622242 0)
(0.371071 0.00583063 0)
(0.367405 0.00469791 0)
(0.364169 0.00283769 0)
(0.361469 0.000286424 0)
(0.359406 -0.00289385 0)
(0.358063 -0.00662643 0)
(0.62964 0.0313839 0)
(0.621071 0.0270711 0)
(0.611865 0.0234037 0)
(0.602288 0.0202888 0)
(0.592394 0.0179525 0)
(0.582244 0.0160086 0)
(0.571938 0.0147269 0)
(0.561588 0.0136022 0)
(0.551307 0.0129281 0)
(0.541131 0.0122818 0)
(0.531155 0.0116672 0)
(0.52141 0.0109475 0)
(0.511938 0.0100186 0)
(0.502782 0.00883186 0)
(0.493968 0.00731178 0)
(0.485541 0.0054259 0)
(0.477545 0.00316234 0)
(0.470028 0.000537301 0)
(0.463029 -0.00241431 0)
(0.456537 -0.00565288 0)
(0.450735 -0.00901313 0)
(0.445646 -0.0123965 0)
(0.441153 -0.0157175 0)
(0.437246 -0.0188818 0)
(0.433888 -0.0217549 0)
(0.431058 -0.0242259 0)
(0.428678 -0.0261969 0)
(0.426669 -0.0275885 0)
(0.424946 -0.0283387 0)
(0.42341 -0.028409 0)
(0.421964 -0.0277711 0)
(0.420505 -0.0264557 0)
(0.418931 -0.0245014 0)
(0.417178 -0.0219528 0)
(0.415117 -0.018919 0)
(0.412703 -0.0155118 0)
(0.409918 -0.0118636 0)
(0.406702 -0.00812789 0)
(0.403052 -0.00445176 0)
(0.398985 -0.000994582 0)
(0.394557 0.00209447 0)
(0.389838 0.00465078 0)
(0.384919 0.0065635 0)
(0.379916 0.00772741 0)
(0.374957 0.00807052 0)
(0.370177 0.00755095 0)
(0.365714 0.00615503 0)
(0.361706 0.00389397 0)
(0.358287 0.000815227 0)
(0.355582 -0.00301707 0)
(0.353691 -0.00749868 0)
(0.624586 0.0313496 0)
(0.616821 0.0265443 0)
(0.608345 0.0225973 0)
(0.599574 0.0195077 0)
(0.590349 0.0173135 0)
(0.580795 0.0158721 0)
(0.570963 0.0149567 0)
(0.560947 0.0146128 0)
(0.550968 0.0145424 0)
(0.540776 0.0146841 0)
(0.53075 0.0147344 0)
(0.520798 0.0146947 0)
(0.511044 0.0142384 0)
(0.501536 0.0134848 0)
(0.492302 0.0122076 0)
(0.48343 0.0103967 0)
(0.47499 0.00804659 0)
(0.467062 0.00517557 0)
(0.459673 0.0018433 0)
(0.452931 -0.00194087 0)
(0.447009 -0.00589837 0)
(0.441894 -0.00998393 0)
(0.4375 -0.0140549 0)
(0.433812 -0.0179756 0)
(0.430814 -0.021578 0)
(0.428453 -0.0247345 0)
(0.426645 -0.027322 0)
(0.425292 -0.0292339 0)
(0.424281 -0.0303907 0)
(0.423494 -0.0307352 0)
(0.422801 -0.0302431 0)
(0.422072 -0.0289229 0)
(0.42118 -0.0268112 0)
(0.420009 -0.0239856 0)
(0.418446 -0.0205635 0)
(0.4164 -0.0166435 0)
(0.413805 -0.0124181 0)
(0.410626 -0.00806177 0)
(0.406847 -0.00376378 0)
(0.402488 0.000294002 0)
(0.397588 0.00392848 0)
(0.392241 0.00694731 0)
(0.386577 0.00919396 0)
(0.380727 0.0105502 0)
(0.374855 0.0109358 0)
(0.369129 0.0102943 0)
(0.363717 0.00861268 0)
(0.358789 0.005905 0)
(0.354507 0.00222529 0)
(0.351035 -0.00235101 0)
(0.348489 -0.00770518 0)
(0.618861 0.0303028 0)
(0.612136 0.0249413 0)
(0.604789 0.0208328 0)
(0.596974 0.0178443 0)
(0.588726 0.0159588 0)
(0.57985 0.0151791 0)
(0.570618 0.014966 0)
(0.561142 0.0155951 0)
(0.551321 0.0163615 0)
(0.541285 0.0174227 0)
(0.531117 0.0183672 0)
(0.52087 0.0190864 0)
(0.510684 0.0193769 0)
(0.500704 0.0191027 0)
(0.49083 0.0181583 0)
(0.481326 0.0164843 0)
(0.472263 0.0140611 0)
(0.463755 0.0109181 0)
(0.455835 0.00711556 0)
(0.448699 0.00274724 0)
(0.442582 -0.00194948 0)
(0.437367 -0.00686964 0)
(0.433025 -0.0118268 0)
(0.429573 -0.0166397 0)
(0.426964 -0.0211209 0)
(0.42514 -0.0250999 0)
(0.423996 -0.0284221 0)
(0.423412 -0.0309571 0)
(0.423249 -0.032601 0)
(0.423357 -0.0332803 0)
(0.423574 -0.0329567 0)
(0.423735 -0.0316321 0)
(0.423675 -0.0293453 0)
(0.423245 -0.0261767 0)
(0.422299 -0.0222506 0)
(0.420712 -0.0177223 0)
(0.41839 -0.012785 0)
(0.415276 -0.00765535 0)
(0.411356 -0.00257493 0)
(0.406662 0.0022446 0)
(0.401221 0.00656168 0)
(0.395138 0.0101688 0)
(0.388575 0.0128531 0)
(0.381721 0.0144785 0)
(0.374767 0.0149434 0)
(0.367915 0.0141985 0)
(0.361373 0.0122086 0)
(0.355348 0.00900389 0)
(0.350038 0.00464741 0)
(0.345634 -0.000768215 0)
(0.342304 -0.00713201 0)
(0.612424 0.0279236 0)
(0.607095 0.022237 0)
(0.601138 0.0178807 0)
(0.594628 0.0152384 0)
(0.587608 0.0138315 0)
(0.579748 0.013771 0)
(0.571301 0.0147417 0)
(0.562286 0.0163317 0)
(0.552741 0.0184044 0)
(0.54273 0.0205461 0)
(0.532379 0.0226768 0)
(0.52176 0.0243404 0)
(0.511025 0.0255607 0)
(0.500277 0.0259023 0)
(0.489638 0.0253838 0)
(0.479282 0.0238881 0)
(0.46937 0.0213897 0)
(0.460053 0.0179284 0)
(0.451424 0.01357 0)
(0.443777 0.00848899 0)
(0.437282 0.00291556 0)
(0.431897 -0.00302944 0)
(0.427593 -0.00903038 0)
(0.424367 -0.0149205 0)
(0.422191 -0.0204507 0)
(0.420977 -0.0254136 0)
(0.42061 -0.0296168 0)
(0.420929 -0.0329002 0)
(0.421769 -0.0351301 0)
(0.422949 -0.0362137 0)
(0.424261 -0.036095 0)
(0.425502 -0.0347669 0)
(0.426467 -0.0322661 0)
(0.426953 -0.0286799 0)
(0.426775 -0.024149 0)
(0.42577 -0.0188613 0)
(0.423811 -0.0130476 0)
(0.420811 -0.00696646 0)
(0.416748 -0.000906726 0)
(0.411668 0.00485622 0)
(0.405591 0.0100581 0)
(0.398638 0.0144063 0)
(0.391011 0.0176545 0)
(0.382952 0.019642 0)
(0.37471 0.020254 0)
(0.366518 0.0194185 0)
(0.358624 0.0171067 0)
(0.351299 0.0133499 0)
(0.344771 0.00822176 0)
(0.33924 0.00184574 0)
(0.334964 -0.00564975 0)
(0.605231 0.0242225 0)
(0.601706 0.0180807 0)
(0.597552 0.0136518 0)
(0.592756 0.0114604 0)
(0.587122 0.0107065 0)
(0.580634 0.0117642 0)
(0.573088 0.0139132 0)
(0.564705 0.0169641 0)
(0.555469 0.0205176 0)
(0.54549 0.0241332 0)
(0.534853 0.0277164 0)
(0.523702 0.0306357 0)
(0.512192 0.0329363 0)
(0.500477 0.0341256 0)
(0.488771 0.0341265 0)
(0.477285 0.0328405 0)
(0.466251 0.0302417 0)
(0.455874 0.0263834 0)
(0.446321 0.0213707 0)
(0.437952 0.0154039 0)
(0.430951 0.00872982 0)
(0.425285 0.0016021 0)
(0.420987 -0.00569473 0)
(0.417995 -0.0128732 0)
(0.416305 -0.0196623 0)
(0.415799 -0.0257999 0)
(0.416331 -0.0310568 0)
(0.417714 -0.0352343 0)
(0.419747 -0.0381679 0)
(0.422201 -0.0397383 0)
(0.424833 -0.0398727 0)
(0.427384 -0.0385469 0)
(0.429598 -0.0357939 0)
(0.431219 -0.0317048 0)
(0.432003 -0.0264328 0)
(0.431735 -0.0201974 0)
(0.430248 -0.0132851 0)
(0.427423 -0.00601627 0)
(0.423218 0.00125758 0)
(0.417701 0.00820897 0)
(0.410884 0.0145306 0)
(0.40288 0.0197992 0)
(0.393979 0.0237541 0)
(0.384499 0.0262256 0)
(0.374717 0.0270651 0)
(0.364922 0.0261659 0)
(0.355426 0.023516 0)
(0.34654 0.0191449 0)
(0.338558 0.0131394 0)
(0.331723 0.00564663 0)
(0.32629 -0.00313893 0)
(0.597095 0.018894 0)
(0.595859 0.0120805 0)
(0.594061 0.00796162 0)
(0.59137 0.00606849 0)
(0.58766 0.00658627 0)
(0.58276 0.00879781 0)
(0.576336 0.0126811 0)
(0.568747 0.0173909 0)
(0.559793 0.0228693 0)
(0.549817 0.0283904 0)
(0.538788 0.0336608 0)
(0.526894 0.0382174 0)
(0.514432 0.0417475 0)
(0.501388 0.0439335 0)
(0.488279 0.0445777 0)
(0.475328 0.0435566 0)
(0.462841 0.0408398 0)
(0.451104 0.0364927 0)
(0.440353 0.0306768 0)
(0.431026 0.0236125 0)
(0.423353 0.015602 0)
(0.417312 0.0070073 0)
(0.412974 -0.00184873 0)
(0.41023 -0.0105677 0)
(0.409079 -0.0188616 0)
(0.409393 -0.0264045 0)
(0.410976 -0.0329213 0)
(0.413615 -0.0381674 0)
(0.417059 -0.0419433 0)
(0.421034 -0.0441007 0)
(0.425244 -0.0445425 0)
(0.429376 -0.0432283 0)
(0.433112 -0.040178 0)
(0.436132 -0.0354866 0)
(0.438123 -0.0293203 0)
(0.438795 -0.0219342 0)
(0.437915 -0.0136668 0)
(0.435323 -0.00492785 0)
(0.431007 0.00386226 0)
(0.425011 0.0123355 0)
(0.417292 0.0200188 0)
(0.408007 0.0264369 0)
(0.397602 0.0313226 0)
(0.386431 0.0344363 0)
(0.374806 0.035585 0)
(0.363095 0.0346671 0)
(0.351685 0.0316644 0)
(0.340946 0.0266182 0)
(0.331226 0.0196291 0)
(0.322848 0.0108574 0)
(0.316029 0.000543937 0)
(0.587763 0.0112446 0)
(0.589556 0.00414208 0)
(0.590693 0.000274823 0)
(0.59073 -0.000932852 0)
(0.589395 0.000906139 0)
(0.586331 0.00480768 0)
(0.581367 0.0106491 0)
(0.574592 0.017732 0)
(0.566191 0.0253247 0)
(0.556009 0.0332998 0)
(0.544406 0.0406196 0)
(0.531538 0.0471889 0)
(0.517654 0.0522423 0)
(0.503065 0.055645 0)
(0.488166 0.0570697 0)
(0.473336 0.0563616 0)
(0.458992 0.0534806 0)
(0.445528 0.0485159 0)
(0.433261 0.0416926 0)
(0.422694 0.0332682 0)
(0.414156 0.0236302 0)
(0.407647 0.0132379 0)
(0.403185 0.00252664 0)
(0.400757 -0.00807909 0)
(0.400245 -0.0181802 0)
(0.401515 -0.0274043 0)
(0.404339 -0.0354205 0)
(0.408455 -0.0419355 0)
(0.413572 -0.0467181 0)
(0.419351 -0.0495824 0)
(0.425441 -0.0503995 0)
(0.431469 -0.0491054 0)
(0.437038 -0.0456979 0)
(0.441751 -0.0402777 0)
(0.445211 -0.0330059 0)
(0.447046 -0.0241888 0)
(0.446946 -0.0142301 0)
(0.444696 -0.0036454 0)
(0.440318 0.00703205 0)
(0.43375 0.017402 0)
(0.424921 0.0267394 0)
(0.414147 0.0345906 0)
(0.401952 0.0406727 0)
(0.38873 0.0445873 0)
(0.374897 0.0461439 0)
(0.360912 0.0452385 0)
(0.347232 0.0418601 0)
(0.334292 0.0360616 0)
(0.322507 0.0279557 0)
(0.312266 0.0177284 0)
(0.303858 0.00564075 0)
(0.57699 0.000885684 0)
(0.582634 -0.00639121 0)
(0.587329 -0.0100315 0)
(0.59073 -0.0100793 0)
(0.592372 -0.00679753 0)
(0.591652 -0.000570071 0)
(0.588418 0.00772735 0)
(0.582622 0.0176703 0)
(0.574485 0.0282111 0)
(0.564193 0.0387836 0)
(0.551706 0.0489419 0)
(0.537514 0.0577986 0)
(0.521897 0.0648254 0)
(0.505272 0.0696668 0)
(0.488128 0.0720088 0)
(0.470963 0.0716522 0)
(0.454316 0.0685404 0)
(0.438723 0.0627787 0)
(0.424588 0.0546548 0)
(0.412507 0.044548 0)
(0.40292 0.03288 0)
(0.395846 0.0202882 0)
(0.391289 0.00730331 0)
(0.389227 -0.0055633 0)
(0.38947 -0.0178174 0)
(0.391871 -0.0290319 0)
(0.396162 -0.0388132 0)
(0.402031 -0.0468242 0)
(0.409109 -0.0528041 0)
(0.417021 -0.0565092 0)
(0.425328 -0.0577975 0)
(0.433575 -0.0565445 0)
(0.441261 -0.0527442 0)
(0.447905 -0.0464838 0)
(0.453019 -0.0378931 0)
(0.456134 -0.0273536 0)
(0.456889 -0.0153443 0)
(0.45503 -0.00249756 0)
(0.450615 0.0105349 0)
(0.44339 0.0232411 0)
(0.433232 0.0346736 0)
(0.42074 0.0444315 0)
(0.406418 0.0520084 0)
(0.390727 0.0569577 0)
(0.374285 0.0590582 0)
(0.357641 0.0582226 0)
(0.341333 0.0544597 0)
(0.325854 0.0478254 0)
(0.311684 0.038441 0)
(0.299296 0.0265218 0)
(0.289076 0.0123788 0)
(0.564233 -0.0130025 0)
(0.574517 -0.02042 0)
(0.583583 -0.023438 0)
(0.590977 -0.0220347 0)
(0.596113 -0.016602 0)
(0.59818 -0.0076281 0)
(0.596946 0.00391355 0)
(0.592238 0.0171086 0)
(0.584258 0.031148 0)
(0.573403 0.0451765 0)
(0.559884 0.0584127 0)
(0.543787 0.0702457 0)
(0.525914 0.079662 0)
(0.506797 0.0862911 0)
(0.48698 0.0897521 0)
(0.467066 0.089781 0)
(0.447729 0.0863277 0)
(0.429663 0.0795386 0)
(0.413421 0.0697637 0)
(0.399627 0.0575719 0)
(0.388867 0.0434209 0)
(0.38125 0.0281471 0)
(0.376674 0.0124156 0)
(0.375124 -0.00314787 0)
(0.376317 -0.0179624 0)
(0.380093 -0.0315294 0)
(0.386141 -0.0433891 0)
(0.394067 -0.0531585 0)
(0.403444 -0.0605676 0)
(0.413805 -0.0652504 0)
(0.424582 -0.0670566 0)
(0.435201 -0.0658086 0)
(0.445006 -0.0614509 0)
(0.453477 -0.0541806 0)
(0.460037 -0.0439152 0)
(0.464153 -0.0313164 0)
(0.465502 -0.0168517 0)
(0.463888 -0.0012871 0)
(0.459274 0.0146171 0)
(0.451183 0.0300906 0)
(0.439581 0.0442851 0)
(0.425158 0.0562811 0)
(0.408383 0.0656318 0)
(0.389941 0.0718017 0)
(0.37061 0.0745792 0)
(0.351081 0.0738775 0)
(0.331948 0.0697213 0)
(0.313749 0.0621635 0)
(0.297043 0.0513398 0)
(0.282389 0.037498 0)
(0.27028 0.0210012 0)
(0.548789 -0.0311407 0)
(0.564122 -0.0384105 0)
(0.577654 -0.0405735 0)
(0.588842 -0.037536 0)
(0.597189 -0.0293314 0)
(0.601938 -0.0166658 0)
(0.602712 -0.000956476 0)
(0.599142 0.0166823 0)
(0.591391 0.0351164 0)
(0.579885 0.053486 0)
(0.564923 0.0705527 0)
(0.546921 0.0853111 0)
(0.526476 0.0971665 0)
(0.504618 0.105722 0)
(0.481887 0.110458 0)
(0.459034 0.110978 0)
(0.436902 0.107122 0)
(0.416314 0.0990464 0)
(0.397992 0.0871968 0)
(0.38259 0.0723714 0)
(0.37079 0.0551735 0)
(0.362828 0.0366383 0)
(0.358508 0.0176064 0)
(0.357774 -0.00114453 0)
(0.360228 -0.0189595 0)
(0.365724 -0.0352536 0)
(0.37389 -0.0495317 0)
(0.384214 -0.0613308 0)
(0.396159 -0.0703264 0)
(0.40912 -0.076048 0)
(0.422202 -0.0783149 0)
(0.434735 -0.0768541 0)
(0.445798 -0.0715909 0)
(0.455112 -0.0631406 0)
(0.462071 -0.0508905 0)
(0.466084 -0.035958 0)
(0.467207 -0.018803 0)
(0.465325 -0.000117561 0)
(0.460009 0.0190526 0)
(0.4509 0.0379434 0)
(0.43758 0.0554151 0)
(0.420927 0.0705115 0)
(0.401783 0.0822625 0)
(0.380731 0.0893727 0)
(0.3588 0.0928684 0)
(0.336729 0.0922956 0)
(0.315118 0.0877333 0)
(0.294521 0.0791517 0)
(0.275574 0.0666686 0)
(0.25894 0.0505758 0)
(0.245239 0.0313247 0)
(0.528588 -0.0538439 0)
(0.547475 -0.0600683 0)
(0.563142 -0.0606488 0)
(0.57598 -0.0557933 0)
(0.585578 -0.0445758 0)
(0.591236 -0.0281521 0)
(0.593353 -0.00853527 0)
(0.591309 0.0142894 0)
(0.584172 0.0379632 0)
(0.572464 0.060771 0)
(0.556355 0.0844269 0)
(0.536578 0.102862 0)
(0.514726 0.117835 0)
(0.491323 0.128478 0)
(0.466767 0.134336 0)
(0.441847 0.135088 0)