FoamFile
{
    version 2.0;
    format ascii;
    class volScalarField;
    object p;
}

dimensions      [1 -1 -2 0 0 0 0];
internalField   nonuniform List<scalar>
16384
(
0.5426960831582485
0.9868869366005173
0.8154614284548342
0.07404465173409036
0.6232981268275579
0.32518332202674705
0.4722149251619493
0.5612771975694962
0.42754101835854963
0.6364104112637804
0.24929222914887494
0.07697990982879299
0.808120379564417
0.18657005888603584
0.8960912999234932
0.4271077886262563
0.5107473025775657
0.33761517140362796
0.7030189588951778
0.25178229582536416
0.036886947354532795
0.27864646423661144
0.489452760277563
0.7616196153287176
0.6323058305935795
0.835302495589238
0.5908929431882418
0.22649577519793795
0.3867353463005374
0.11347352124058907
0.659984046034179
0.24185229090045168
0.6331014572732679
0.8971102599525771
0.08413996499504883
0.009197051616629648
0.16080805141749865
0.22426930946055978
0.7464914051180241
0.5683086033354716
0.24398964337908358
0.6311386259972629
0.4925176938188639
0.02431596643145384
0.9539285770025874
0.9283185625877254
0.8530094554673601
0.31692200515627766
0.696029796674973
0.9900538501042633
0.7407686177542044
0.29359184426449336
0.9132405525564713
0.6499639307777652
0.3379951568515358
0.035942273796742086
0.5908332605690108
0.3601906414112629
0.21582102749684318
0.531354631568148
0.9758520794625346
0.2708322512620742
0.9626484146779251
0.17329432007084578
0.7145959227000623
0.7378969166957685
0.24773098950115746
0.11607264050691624
0.7036578593800237
0.4734717707805657
0.6158500980522165
0.6258599157142364
0.1629344270814297
0.5857755812734633
0.6432882184423532
0.38610263780077425
0.06936130087516545
0.6830067734163568
0.023271935735825866
0.6967371653641506
0.8034809303848486
0.806834739267264
0.7764129607419968
0.42899402737501835
0.9025529066795667
0.8955232284962005
0.09128667678613356
0.5734378881232861
0.32866454536991596
0.7896181427945539
0.5495288823237355
0.11706701642760586
0.10112267612279024
0.8218600592903562
0.9866395785011755
0.9472485773838587
0.08350071669866876
0.906354385094736
0.46866064199412627
0.6492103021160636
0.37487057952370406
0.9632225394406113
0.8911431136980711
0.5538542844013208
0.6957486889846172
0.901158010490989
0.8902637838909163
0.1881211597237613
0.07773463696498484
0.5360963663441204
0.1626169393448913
0.72571950838836
0.8660638895004084
0.8105533307818329
0.3808908566310215
0.4686931597949703
0.8647223762550532
0.5554317056026274
0.24734810174319766
0.60617463445088
0.3581627180328405
0.7723183917356393
0.5609379715353863
0.028782676313338973
0.21296416150891073
0.5899176868546331
0.34825546702330035
0.6220867002278735
0.9265876251614944
0.980032575285477
0.24014561877819307
0.15190269351229435
0.3456672833238632
0.17231987120162984
0.2785903390319586
0.46077876803272577
0.6903948286293653
0.08175903194887191
0.2768776481472037
0.2093493233367103
0.3689136395697724
0.25243694434402075
0.5321134852653157
0.24247050363472966
0.3220791655831783
0.890527280739895
0.4984421989290573
0.74543947418433
0.3630822963986351
0.9865152487929797
0.15285913918433203
0.2850951686938471
0.5245113895702547
0.39785559904574164
0.25790282704493983
0.5567628930139298
0.18704374855752337
0.24240973241508024
0.5812382214226123
0.05182353682242691
0.9899602323899452
0.6815027222239293
0.41184091414726853
0.9650269106665126
0.18123306616566015
0.8418287767582721
0.1636559428657045
0.5230654247691193
0.8165994394715771
0.3013778741641421
0.8995745732745685
0.6242379959139921
0.3349056146570861
0.5334610919763215
0.31172206779554823
0.5698896848713165
0.8212573046720129
0.39728729056036727
0.7222525683930663
0.5427244433475962
0.9084505613336283
0.9472833396118153
0.6114542354346478
0.5651331835892089
0.15253904291426135
0.7364442356247228
0.11323804584075525
0.9208418826173723
0.39900270387013026
0.004632023004602859
0.9198556164127605
0.45221794088980716
0.1763869865062233
0.3623938991166331
0.6635373720167106
0.41462412372702373
0.5953850173200438
0.8980542894407137
0.47206694510999925
0.4532888347480276
0.5596403313082179
0.9461154621336327
0.4087341710980964
0.6589239419101514
0.6718927435987284
0.1785446620543336
0.24317219099945409
0.3971835296184548
0.8963358185211198
0.026532203873819715
0.8926717110769748
0.3796924081672669
0.4094116521912404
0.9484533069621567
0.48743119824951364
0.022469308320117398
0.2578876854332023
0.5256901823026858
0.914298806560499
0.5541780025157934
0.010995828658480478
0.5974131021703083
0.9144119459249598
0.046965966775055046
0.6031521094663882
0.35567271646494913
0.47605040219909966
0.21494037859075676
0.05142581348425035
0.7709122037458219
0.49549131620619846
0.8191023176741997
0.5902306668690871
0.1368186309189614
0.5419009473783581
0.6587833667107174
0.4894249636431405
0.0394268113685059
0.5679452305526295
0.29734900737255077
0.47421421665746377
0.8289154741506773
0.12056688577727881
0.7247667715287615
0.7907231648389635
0.6158631881823046
0.021269410850387138
0.7987832357736654
0.40193091360924216
0.9840834691992951
0.7375823015888915
0.28723899165408173
0.01787393473341381
0.6796472826930698
0.08941100231225951
0.4674015112498697
0.2316717013834434
0.5126885110165086
0.18643826214425452
0.9691026301408113
0.1738952492194873
0.15389590633985506
0.5369744228934136
0.8774608626303804
0.9556514982297534
0.5508573706091393
0.2597537837603262
0.22018320194981134
0.4951465270139743
0.34780920790219305
0.878629986355158
0.8672942009598024
0.6801407717603004
0.8808707591989284
0.1288698674734452
0.8179670241190622
0.2870381331749128
0.2598035810641598
0.10698063882695841
0.3418721660386861
0.9372284872364511
0.7081720886452816
0.6209155177674771
0.9688778552856915
0.02458691645880151
0.7704074178077932
0.9971245001577111
0.7948095487499294
0.6804993020747131
0.15105789178090023
0.6385259476640855
0.409334006315043
0.03113408288451136
0.47320990669155716
0.7765968527917417
0.6262203216314154
0.616650314520738
0.12518579220255044
0.4915945467414369
0.7975591006371882
0.07244688779455888
0.29166257870930323
0.039618825348357145
0.9866625932671464
0.702464970544104
0.5177116433847114
0.07857849715502074
0.6894649691372657
0.10456784033440025
0.9362122462436898
0.8709691237460856
0.8148251137465122
0.8172977699624937
0.7315895217553319
0.15954468011318834
0.33689579177110685
0.498195716453139
0.9963339160567419
0.6802282424312913
0.4626229567393163
0.42549333444807536
0.04010919141248248
0.7252576604151365
0.4217209268734554
0.21066218900566658
0.1315676851272598
0.23754332492387764
0.4922778564480348
0.5148173539296902
0.3910815366517607
0.3251900642246949
0.45378954138363925
0.5197739485560177
0.2487142725876299
0.16761921628831766
0.4746308757498139
0.8682712805132586
0.05708685608931485
0.1221099140100268
0.5072348086883924
0.9651186964360455
0.8679182945200221
0.6668642575461043
0.7046807627366467
0.09390071578941839
0.1771497894473859
0.6832480282896458
0.5706097466388297
0.6765133857772465
0.6512329770414921
0.04821203886055603
0.7823854840582735
0.404140321651033
0.7622851347766157
0.12020905537060844
0.3664615348713979
0.44869362262253065
0.07319592376844364
0.46349404380057235
0.47918187762973097
0.3988227808969005
0.7648832615421283
0.01823258267636163
0.8980305489499869
0.9344360268055143
0.25677656772050794
0.5391612766752545
0.27262400073353377
0.6811178539649828
0.10687692309474384
0.4835456467199247
0.6331513755940223
0.8842064633484078
0.4110284698067047
0.23687055897448206
0.42373825364876283
0.4517676787372291
0.8627970775432285
0.641971500443266
0.39090599590551467
0.13643975255673313
0.7175977656581762
0.10410964938416634
0.0794193689889866
0.32337156211552076
0.5190597909082704
0.5400119146045106
0.3243337531153756
0.6618391898493786
0.060142342600785215
0.6900048908206657
0.45037093625818514
0.7954499607897292
0.15241601333041743
0.8420332943764213
0.7552704204968079
0.7087446977429764
0.3601364074715191
0.30552431065802355
0.5156794276964978
0.8514249577450957
0.8174497084911916
0.8059254001176211
0.40298017876516146
0.9756102008599149
0.8620144822726226
0.7648098009029954
0.1463739921622491
0.13516628915482276
0.432497878330132
0.10566468426174391
0.6502010923981534
0.4598004237693202
0.6950352288585532
0.1213849394224289
0.06229179813006269
0.6152194382310109
0.4260833838903715
0.19462251182076507
0.733614380561402
0.4813441516353236
0.13710970572899905
0.24120145759954148
0.48785404392636245
0.844357082739616
0.32467592689006
0.3944762785700353
0.9553346865039283
0.4376031240553919
0.9017619921354235
0.8951177407065364
0.5184080219452041
0.6802277792083533
0.07208433599867337
0.737508359459007
0.7746535311811819
0.09839564971339732
0.020944961030912812
0.7692231478381336
0.12138641815940643
0.5303021332491583
0.29282203670096474
0.7480731794295321
0.3382675059944984
0.432076882944196
0.24069271183250496
0.645810812655206
0.846514338690278
0.46053949727414
0.6561618376810715
0.9373880664971189
0.7259799099852955
0.8407030280112
0.50836054691628
0.8733229158608077
0.4615574744197899
0.9918099513493635
0.20403563462889884
0.18802473461541613
0.005229613542912737
0.2024805601652374
0.14888805033244468
0.36830953050684834
0.5930443341867842
0.0032182636042786816
0.09299063982313216
0.06485359448296835
0.6034876665964548
0.8250494101800621
0.3342383186960608
0.5172690564416094
0.43401936617387527
0.7356631142391898
0.421248053294072
0.40990488969628824
0.5877693608621982
0.026196708532064794
0.5180787662388154
0.4296568127389351
0.8026433097957104
0.08060151375712465
0.7295082286523967
0.13535408227768553
0.06895801635642118
0.24697879907199982
0.7593982624179637
0.4875711936733843
0.13924537111759516
0.8998333456872725
0.5601681834618419
0.26015779096205116
0.6541746014740745
0.9720053296315371
0.15124682873493456
0.5612227882825249
0.7228143032084837
0.08172534574677826
0.9456981470002823
0.4117655415845085
0.5125026487703317
0.7862781993840331
0.33021506487149754
0.8778300781520408
0.4512393441809881
0.06520459126049205
0.4978125080342902
0.38042000750756233
0.5233296311947413
0.6345824175503038
0.53302886724614
0.31676167706752667
0.9835214727152221
0.8939897100078704
0.615298025069802
0.5052067735766382
0.6679199988036271
0.42748968792061515
0.5273996221226763
0.7314964903403623
0.5407937549855444
0.8216368977104717
0.8282492524372184
0.8259782127080818
0.3479414115821666
0.6209285674784312
0.9791049380151545
0.325104015431699
0.8557372589057863
0.6428819100587077
0.21264437637109612
0.9383048184484827
0.6649849034759953
0.56044063098044
0.86456360952267
0.11072059332631567
0.9180765521991506
0.9107701616439152
0.962810357074026
0.28152119841492995
0.5406984766449103
0.46876796546450583
0.2999191115069847
0.8522638743911815
0.18533017952871444
0.03467026672648332
0.5214456890435895
0.11493299705956683
0.8292867993167555
0.4304274103209902
0.6019234310151316
0.6313075530919887
0.5123637775457907
0.6522242595454725
0.5062660594952028
0.3618530932051387
0.2768143077913058
0.19609771273839294
0.5165726284459791
0.03672136250082114
0.5720486433693008
0.39701504123719167
0.3452231428016921
0.7022587660316643
0.3945760755976464
0.7140326444668564
0.9550605114849889
0.051135381442100725
0.6865899134926068
0.3690530217609166
0.07100766453325547
0.668572646722914
0.010131184027743378
0.873698593466345
0.06644384435577488
0.422034260127639
0.04373907230894736
0.729173487549448
0.42993107739014813
0.7889851599207933
0.8575623376612838
0.5821987465941139
0.6884050184921369
0.14259414408190874
0.025447759905750877
0.071711888847651
0.6057792494526903
0.45400162119611487
0.027536719869465487
0.03899601257491159
0.023352096328185912
0.9000831830164807
0.8884036723086812
0.2884054378187457
0.3403871042545057
0.541704812410004
0.30233324935149375
0.34244797883471334
0.34727703903050755
0.6262343214210638
0.880314762148927
0.20131210782243325
0.5430245839576632
0.7221432354559059
0.790509794274885
0.8770905810181889
0.9809873781626851
0.37532990791960186
0.3865405068230279
0.8655771456245522
0.7645277946547177
0.10926421030962141
0.8930902051954149
0.5104324890042322
0.4768434683178171
0.13443512940812186
0.278759872414553
0.9978208556819782
0.014315277667059978
0.1428502873008386
0.7661159327955862
0.48762780966721087
0.06600984414024158
0.9476880259644708
0.2995656779538739
0.7070864772666982
0.2952904940479433
0.9292280536318539
0.4764369863437916
0.6034930960433786
0.8886590802653986
0.6247838627894025
0.7139526325065898
0.5201698923107512
0.49669542281794654
0.05433203482290383
0.5111291392372298
0.06268962162186587
0.7409040561520714
0.27039328638452553
0.8918721448107347
0.9640784164901082
0.38764880545564706
0.16695308874719872
0.761037790250783
0.10536492225085647
0.36005046590097833
0.457699605159294
0.0523550201874724
0.8503480011198954
0.8801567379214851
0.2953014775718328
0.31562734376335
0.1992152748940531
0.058091952080349785
0.8354802257421944
0.019327630917601035
0.4042897472548691
0.4640951594535039
0.3118638579168832
0.9760138232792136
0.8071555373648825
0.2933086107805647
0.3717392949063303
0.9741944438163571
0.7831984132986259
0.3029157288331926
0.4840770697102016
0.9577898009882039
0.5444823328002629
0.22538126800676583
0.7813218557473051
0.6359547071637285
0.3451922084942105
0.8901411373960146
0.007841590771916818
0.9579341210567704
0.6796203327351078
0.45966487040266124
0.16574977982015593
0.8436496640518237
0.24197713031704537
0.994819293965951
0.25954178317609033
0.6223432646172461
0.9078987937796194
0.9773079079915037
0.718331175372004
0.1626997438085659
0.012103116776107425
0.22867677960360877
0.848042089601484
0.029169763645264468
0.28888493890916567
0.044911298995615856
0.7542649733470227
0.3571211593005028
0.35857846152487316
0.9182390866754371
0.03892996332566745
0.28247874397702666
0.5800888346694546
0.3530503916003024
0.4194479939573136
0.20468010905728395
0.8550302016199351
0.9407845205031079
0.835825927910516
0.6546506868659545
0.2824724263700037
0.7655467505158609
0.054634420000972295
0.30394251225502733
0.9668454997992854
0.8484253790905247
0.7126213330985128
0.90194019674915
0.39319520102792227
0.5444969591038651
0.5837727805141116
0.6015538792998241
0.10251596406647445
0.9329248625696721
0.4617161438131191
0.8616909037873453
0.34534195224488784
0.7011698615902597
0.49625875288236154
0.7344439320755914
0.011417983454073632
0.23497340499595276
0.9670352752561462
0.862640471149179
0.3965536819899632
0.30978785920909924
0.7966813971913723
0.8328303767882711
0.05183579911972902
0.3529585034523566
0.4045273855738697
0.43276687959926263
0.3739210470128136
0.6322821536376398
0.10137289755315915
0.9803687409421851
0.9706765454097441
0.7045544280274453
0.2642762631586393
0.2874616648972501
0.07697946706496628
0.09206698608247543
0.2674020278575413
0.6760262880525475
0.27109625376406576
0.10590580440375763
0.8829938248297731
0.6801118854469727
0.25310153917960876
0.8398016066644267
0.10189310087293679
0.7483843496762314
0.4344033190066098
0.6132916848873791
0.0913914863317764
0.013745554011345251
0.2475597702798864
0.6067317247174364
0.8384918338430248
0.5442539661136977
0.7379173933540254
0.9207666084633573
0.3684489199165789
0.45434542306765513
0.4276013337033373
0.06400634660862092
0.021913328775008956
0.49109572938316515
0.40967105337599263
0.16046261427122643
0.881690611843508
0.28918744629594983
0.5355538148796726
0.7892928483196856
0.32674254203004083
0.8763194331423115
0.50313247255154
0.8379083748518036
0.6105467550154245
0.6939495905101568
0.001992135219070268
0.1613628010553837
0.8908555349831467
0.22236130474817029
0.05773215922511721
0.9598628027134553
0.42894433343014426
0.17169390770544957
0.6314189212183764
0.11720390568023342
0.2062521138361526
0.5078050639587791
0.06904590631459973
0.6886316293078756
0.5356565993475786
0.48509465997954015
0.1834421964034345
0.07569972730978747
0.20347274249759584
0.5417609642675633
0.07410542257486707
0.9971823539029504
0.3505205342861618
0.4642385197392249
0.008363681876857099
0.005313475668345946
0.06646332577627212
0.7517469923958404
0.6711574733796887
0.19497519990028922
0.7587153211639207
0.5788067545119405
0.716397111958099
0.24150062799283345
0.5070596467387183
0.38279876443638783
0.27194603941844875
0.6363742815333744
0.6946409588937278
0.6619689447938686
0.18772240569225207
0.4323462264033473
0.8791857726012476
0.6668473913056581
0.3252906183617478
0.844871347755229
0.09491793682166971
0.8066650530268165
0.04035082685969971
0.3604268271414861
0.6543420054927197
0.6237430848640091
0.6195262000363033
0.5869365065589071
0.4422938054511353
0.5968518768877594
0.527677466221695
0.6495089297074473
0.053347996988897695
0.3731226184223836
0.6908839765508228
0.15620656868662197
0.7051391455705633
0.16972842857692316
0.6996395696221217
0.5359350788521182
0.5726072328820224
0.5928401805081102
0.4233351441531975
0.8829148165187222
0.8860934353132082
0.8026403123529297
0.622630533598658
0.06239406859827723
0.8169739072718367
0.38559759251333336
0.4691072110475787
0.14727556355209093
0.43974048650790853
0.2993833737053483
0.3553197484738877
0.8090236402916764
0.15492531114344266
0.5634083644838541
0.5055087603898639
0.4878343185440125
0.8223812111853543
0.7250060762991187
0.8622029736581888
0.9894511309650564
0.4893925374065887
0.8382304210818006
0.3282331056783394
0.19641921587201738
0.5793144666619379
0.5526622677767482
0.5708774168394762
0.1828377798688171
0.9699265253451909
0.797732263348214
0.8451208514960348
0.2205042634356471
0.2632473465180112
0.627328935090678
0.3512193873487809
0.04005911905069448
0.9084345518793753
0.1544922040049258
0.9995577032504386
0.17070836331248018
0.5105807574595599
0.5012756446257294
0.4381786132483445
0.44903876793012587
0.11159299995724747
0.37975152291931746
0.1254862967991507
0.5657815548409963
0.019155485551252904
0.2344256000115147
0.6678679067008134
0.6784999682926378
0.8848551176960043
0.9633603204460379
0.6226895409497974
0.07893940294655555
0.8345717902556277
0.9286305621153941
0.5952128341268748
0.5015179603501664
0.7511771369540428
0.8174078473061094
0.21244727719547296
0.8845868882296137
0.6910558127392618
0.34210762086359403
0.7349258473948942
0.29994206977702265
0.11658307455569672
0.7330001072226232
0.566605258905463
0.32679470585777737
0.10445451810015138
0.9805682270607236
0.7388666771330327
0.10326500887504841
0.9383157286513161
0.969723632797977
0.05276525785960262
0.6139703063252326
0.823552226611819
0.36255979655909454
0.08468834187530683
0.22123869644606398
0.3846110759787682
0.11864376574158031
0.032659060784495875
0.6564096035006569
0.06845045256601678
0.9384821582141546
0.5506633794408515
0.6118310201032214
0.35489768348655404
0.07010813964125695
0.8273021497372459
0.879330215678474
0.7314863597031158
0.9343041141674903
0.4032106331838228
0.42845790384879545
0.832929715574228
0.37904048538303503
0.4840205725094041
0.3252111962762113
0.9783547870568566
0.345806098410425
0.400212275849672
0.025769598764351143
0.12038757878908901
0.22267607912308496
0.1602256009765063
0.8979646468477885
0.016592480632597884
0.2338128330930641
0.1354595367946908
0.41962738280681033
0.392895108893179
0.787371958149273
0.3976844144330547
0.7094388646339748
0.5498685627762052
0.8056488053633419
0.9303984201693255
0.8706884554574393
0.051293848981215584
0.3945723153189238
0.8054323292999863
0.2681743677449133
0.056680432165835404
0.19343534295648257
0.8956899442666165
0.24053158518014872
0.8243504472493495
0.3604745051415539
0.9925817954877634
0.7938181039080396
0.28943952161948794
0.427486454090268
0.20152837800631285
0.5561906926300116
0.04013885908536652
0.21031855628579366
0.10284259215747671
0.8468872244289528
0.603150120122947
0.27592269438054684
0.23333282264932664
0.05994330086130828
0.04499682123542437
0.9288595498455656
0.08159872000483837
0.4263983568016225
0.6638244748527251
0.5768812013112085
0.08987685173616067
0.40659053735947226
0.5254703073558932
0.6763610678727241
0.0011120941961874076
0.633711599765529
0.3235304124854915
0.13457626710410775
0.6497880467642996
0.7798208840100681
0.35659617598620563
0.8511507354259817
0.0850563854892411
0.3887263478765467
0.09664483428775228
0.5318717665050166
0.8124738210441717
0.6725072626736491
0.6323962564655086
0.7006114963944516
0.7302491895295712
0.28454138567693377
0.19624571670616564
0.47849107010718916
0.05702691400361937
0.23374079203674425
0.4981299435480424
0.6136379029893838
0.7302217177572492
0.1899361364575609
0.9113391900786307
0.7665273162216272
0.39593722619594984
0.934729915488301
0.9693218122841789
0.5059316543195584
0.4517394759814438
0.8832736014262238
0.4420334209311235
0.9405039528794026
0.4774161894803537
0.3380844093662614
0.7343656764922184
0.5952297327194016
0.8030118815263205
0.9080185454216624
0.15144552193535732
0.9395685890251657
0.08018675681211329
0.7834695600492677
0.8751336186211521
0.040285518777998464
0.9359372482485595
0.9505328209544089
0.8143867792687614
0.6439565794476135
0.9024032761106747
0.04836271104878087
0.3531028889383895
0.6314587925830206
0.9579458599261376
0.6256507894272765
0.6043593197147711
0.6665219766930349
0.18445905105988336
0.3977934409290982
0.8391466080707525
0.07115567887790974
0.5578736756600732
0.04406586157038139
0.0455851579486688
0.07718753022646796
0.5185616886657339
0.6843142489253448
0.5547318032823543
0.6418195168014353
0.024005044844888856
0.9567204338893498
0.3931471294940152
0.7975140452964858
0.9224342836561245
0.7824258122127878
0.8306227604317913
0.9782206685265583
0.7308703457761604
0.8041655649838841
0.13998737672176287
0.5196116758030075
0.3960009663856152
0.879601496711762
0.35543933736406175
0.35781124933559305
0.47173983751843906
0.7422713922522868
0.5638929210554023
0.7962436094563872
0.1331821256675234
0.5137078552153048
0.2856259885622431
0.9414742375060654
0.6256819122613526
0.8965746584690102
0.5771170823879065
0.42967336335514794
0.18078515056237954
0.3064154493510364
0.6154207798208354
0.5180774980403448
0.8118661240103798
0.7986557803566365
0.886171294055993
0.6790666044956374
0.2872212092051508
0.8973857174637149
0.8591117576469165
0.7580404210112165
0.20969027743020086
0.30338554362913317
0.9656389752668004
0.7293098004772062
0.3121897365691294
0.23222469090134312
0.7833872199958384
0.8969952893644111
0.37667644042946247
0.10901361564092871
0.8754886503958965
0.7646509503848735
0.6825404787671571
0.5105704087285036
0.8614180460955174
0.66231373873072
0.3129195480288226
0.7419777295139859
0.168858463370395
0.8490980199586761
0.5489096316400717
0.6043129822403198
0.7093888218243862
0.6970241660042995
0.11259046652919447
0.9614166196420495
0.24879178873917707
0.39312179820707915
0.9757788185489327
0.5205438373048584
0.5077578381885688
0.07336406745960267
0.42219223388067806
0.6487471138950182
0.7521143326969748
0.995734452051323
0.054732706924985886
0.0002270382182555375
0.16781459564602863
0.9288079606878853
0.34883190745863013
0.11060359887316085
0.053830524908459076
0.8024017844513243
0.5088940700698802
0.7780463064831992
0.9868959453882975
0.9921356394785827
0.34557958587081306
0.8188692705204715
0.30781915002611915
0.18712427041050173
0.3768668803471885
0.3301559503156044
0.29765027756828044
0.7831614309236972
0.07053563759295656
0.5446308711071358
0.8596453453526065
0.5117804565694807
0.8196248695476449
0.2889685249210585
0.15987976336644139
0.503345130606154
0.15577326058017016
0.41351653028995916
0.9536326078296895
0.39221779343354013
0.10868253937469208
0.3425910828111318
0.9380641395681313
0.8082682112162782
0.6356453219526133
0.8143839206690815
0.23748330516938398
0.6960798615670392
0.46904074751815394
0.8836839676879897
0.6900468884094496
0.24080381607317325
0.29797723549584376
0.4838602188643114
0.16169455327398685
0.5466772648973117
0.1954580003683999
0.37208225496289593
0.7379277689988003
0.25706269218920874
0.9192080310537252
0.44485243282754083
0.5689554832818507
0.43369433132038004
0.9409923225744371
0.8450396488966425
0.6737562297840898
0.6347441411040295
0.20406438854660058
0.2160314403930722
0.4271050453603432
0.7072789119056672
0.20598003587696168
0.2423536951367623
0.1531445000839562
0.7697466228570872
0.6484645569002371
0.32784283788581825
0.4734356593750214
0.08813443097669149
0.43034653237220044
0.635323346708321
0.3220675351957297
0.43539632339975143
0.5275879732721657
0.12130299800553412
0.600583196987136
0.9698188646337847
0.5917169688924004
0.6024691704572664
0.5193126926423032
0.08496628988946642
0.2767541319513086
0.9226451396035721
0.03671294348306664
0.012003027272682543
0.08540303016272166
0.23660978270750732
0.10616035354746722
0.5049114512501393
0.11921044284057336
0.11797248362806156
0.26240837648930193
0.5776130806371337
0.10662361893659789
0.9662742977481859
0.7008656972438799
0.4820173397769325
0.9246417911286366
0.610363007818157
0.8520484158046929
0.01602815645512312
0.07971507318728499
0.12611532237541057
0.8798377479414679
0.13128797200482423
0.7604000672874827
0.7564510879889118
0.040333852138451975
0.9846544775908396
0.7690611331597242
0.034431308573314556
0.08670656759564022
0.8295658314283686
0.9413343927869017
0.2755667763091785
0.9294034838491538
0.06379455625359787
0.9829468795547008
0.3772017824576387
0.18065754131130318
0.7561922341067805
0.7423699370897818
0.47430866486843026
0.05739184368827355
0.597808013401514
0.41073154349101204
0.6613426789447244
0.4207365625686168
0.5820701311242236
0.4751083649318354
0.0832230662080723
0.549717255163311
0.8264646094921829
0.5126152441031999
0.3049031243850635
0.7800480870400435
0.3327294765103791
0.4852304557653562
0.7096713435045244
0.7204567414627562
0.021846711986201806
0.605896815179483
0.010513224541653488
0.5355424730977982
0.8939335106699905
0.9620584989413515
0.95887187319041
0.2790082903477966
0.5785418182035315
0.5104601313464413
0.3032197838442505
0.5708539362787616
0.948369552788919
0.5375401436403463
0.6929089110247677
0.5382201018684752
0.9774565631838426
0.2272610535596623
0.9902851705849413
0.17046251158164205
0.7817798259287263
0.34206943465755535
0.5045029240548358
0.511093821472398
0.8634315777893845
0.583105757279898
0.4579002951270714
0.9667342275351081
0.895555740873885
0.526094013251542
0.051657357114641034
0.3156332153671523
0.3094695490886009
0.57654498995114
0.7159846935417241
0.06409471103617548
0.841622007542774
0.2175879399316445
0.19909341993592566
0.12564349241231398
0.41114433647998705
0.39091742684116226
0.24165892081918516
0.5059258001463939
0.35967556122306776
0.7015652656029423
0.6933775385188524
0.29391676050493376
0.9873684723122
0.9150984544900299
0.2746658697879054
0.8890006108146659
0.051165506445475906
0.18176359776119422
0.4639854174403808
0.7076205857405353
0.7677646177143377
0.5773534012196677
0.034376858351725215
0.2926550976674078
0.7950115369284704
0.8771275618985017
0.6495560067569618
0.07527871665167363
0.13566146716037775
0.6103760597816921
0.7359204063739488
0.9976722632646592
0.02464440463632267
0.9744393106384753
0.6463099336573813
0.9824825806012478
0.36229349000020483
0.055101535158831094
0.6410861035821595
0.9725682356497368
0.6825117301162001
0.315668481164066
0.5976823355234591
0.45930368821307377
0.24465505460471304
0.24317998026422594
0.9111205013919575
0.8437287927102575
0.09135324272355583
0.1882321997690456
0.8403481775885081
0.8194956853860523
0.274212889124147
0.5807559990556591
0.35248104694335114
0.8586001069824982
0.1056503454489307
0.7814620887547092
0.7475206367465048
0.3141620638369721
0.1665035470495151
0.4943708110457581
0.7589768318540306
0.6459278930230393
0.5936846199087332
0.4054716763304185
0.3545482088286074
0.2656855648662635
0.9069855184382437
0.9457151084410245
0.3037350462250994
0.42294354374155774
0.6434289495173308
0.9237313958767761
0.5372756736680381
0.2661013685373086
0.5694972585185759
0.6917776391419823
0.6866786117241295
0.7806993041716287
0.4301427320968263
0.9361765641665052
0.7374314414271221
0.9122082367815256
0.7193881555748203
0.14609656554132022
0.4051971425753297
0.9095644273803012
0.21143125799891116
0.9158143481907439
0.9774381842040123
0.10015499750676693
0.08839696714675838
0.41616094640615775
0.2814773024509194
0.5807685836144216
0.4458866198598078
0.36121605897581177
0.5347994662811925
0.43206728506661773
0.4109425523501099
0.14431204368748152
0.23647491223869455
0.5060446924118366
0.8637896229650033
0.008619002591780278
0.5180153489085197
0.44269370196743585
0.5884312404534523
0.8299395932124434
0.6692682917508349
0.6268026300648439
0.4858856061896132
0.4511300697978414
0.19231577278435052
0.33540681349634693
0.5429404444893278
0.6229540441833817
0.16456605842933492
0.41892362479291867
0.6664073046949189
0.9658366688075836
0.7175613826485358
0.8924690939520117
0.9880139620654216
0.21208123747737773
0.2343250656505268
0.34157038703156795
0.8254398957486287
0.6162907483541447
0.36872515547084594
0.9471529360063548
0.897532326522084
0.8255348415204157
0.8501327346850368
0.14990925324713966
0.016969129315466458
0.01401451752605698
0.8226574684804273
0.49896794422079305
0.765148849861264
0.17238636210516622
0.9623380574812068
0.2531989070128102
0.5018695310245037
0.5469155137931242
0.853284798567202
0.2626954770019353
0.10116561961310322
0.2336904488253636
0.8736780345607488
0.12711049086702397
0.7588681344179496
0.9361630415509965
0.39419049459990796
0.4903124894098283
0.333299859870525
0.7939550847155906
0.23884516040360693
0.4606727916549932
0.5441086239394686
0.9655179182347664
0.45776461270413416
0.021149823349416286
0.5637371014453995
0.8525426448755004
0.7226835744744866
0.1785197892725987
0.9437663822120144
0.5448246756734317
0.9891253191087334
0.11364603869671941
0.7867230147335408
0.28467473884646366
0.07748362655548269
0.9331929170490183
0.3616660831950428
0.1681180975977251
0.9461868939912612
0.06290747601802393
0.7233303039939631
0.3011755869973588
0.48895092643845206
0.14218137638735162
0.8364397373761233
0.17081370630621073
0.21011777594021452
0.8026974053360216
0.14562864670542341
0.9374811723991047
0.8421937308731146
0.40252635549014204
0.9478565672536607
0.05122429640431325
0.3507097879920843
0.3665511873792262
0.7072283283354233
0.6282065970930439
0.39023854958399506
0.17449848639795518
0.6507243843338003
0.0948491932531561
0.6067162019700039
0.08613577154903629