FoamFile
{
    version 2.0;
    format ascii;
    class volScalarField;
    object rho;
}

dimensions      [1 -3 0 0 0 0 0];
internalField   nonuniform List<scalar>
16384
(
0.3528410587186427
0.16709557931179375
0.10496990541124217
0.7941433120173511
0.8767930832880342
0.379884089544096
0.8984914683186939
0.7847065437552077
0.5704595464437947
0.12828626711806082
0.9168098265334838
0.3059183489424602
0.9367278871083158
0.823304869209203
0.8266961396476563
0.30514164628774754
0.10625691747807164
0.20787883060031453
0.5669115595690295
0.9662025654479001
0.35635644493972085
0.14633087612499043
0.2304053848821008
0.7049219926652907
0.43100481944732794
0.18126079304896747
0.13669762739928754
0.5608837524693528
0.7218439642922193
0.4069597159452327
0.33214746494364006
0.5766855205204059
0.9103762514469974
0.7533601109832154
0.677828481538859
0.6457861536936309
0.10455542546159682
0.6867651335523405
0.39285972834334093
0.691851603070309
0.3386821309135529
0.902841899659402
0.6192134961637232
0.35269512619677024
0.9464127259176228
0.11391095487598069
0.9672579793803275
0.8660230043651712
0.9425392967447028
0.6535065040292528
0.8896357647351599
0.42354203609777963
0.8803650867220933
0.8184656610700977
0.9010048076358097
0.6204521268965566
0.357887126915456
0.8403405045936925
0.7929941977887498
0.14651354905174693
0.7534822003503954
0.8156675752918333
0.12281566907391177
0.46805764997284294
0.5943039982355084
0.9593787525968747
0.47764005618501093
0.11295413976678029
0.8699145256099065
0.5424542876051491
0.45865426095763606
0.43715135316382414
0.6928242684570505
0.12386017948745964
0.4493529335858697
0.9473183278988726
0.2762120213103668
0.18499866468033555
0.8603877798725091
0.20634834485949063
0.7615639394234972
0.7755532764767725
0.4348162772135049
0.8725714766587106
0.19281148195233935
0.38804464092755064
0.9148437787773372
0.9555464322438005
0.36388969452825815
0.8124211393532637
0.15180288401497988
0.4158235112968708
0.656396256984635
0.16548670572777419
0.17635394267667273
0.8315196105317523
0.43863362697782415
0.48179980832227864
0.11021828029067716
0.2057736220993944
0.9659552936270878
0.30123625466750736
0.13884392075551852
0.16641690826185898
0.6664587743217363
0.6258828807307902
0.9553703356689028
0.3496430646830194
0.6252905006657848
0.7283455426177706
0.7162580552984913
0.9548199219627316
0.939455635018612
0.43881703019024465
0.6347176438169216
0.8544958342400241
0.15073794698583443
0.9969731533665148
0.8646826516096703
0.9586459245328501
0.6563154164121062
0.568276930813414
0.596716154897037
0.22061370560557667
0.7336717912893012
0.4155288029259373
0.9137428250443735
0.45688850408914317
0.23236613283613416
0.5132221806144351
0.6700607688850532
0.2152412550619952
0.2636920759592304
0.7008019646689244
0.2520415567649481
0.20857228399054073
0.5530755437693712
0.665110350541817
0.1549701638693774
0.26606891742073957
0.6564292943772664
0.13301488260153813
0.5605096979040995
0.5793555398095208
0.11806407799995373
0.2077859186373261
0.8102541147466045
0.6281570062187912
0.355398315218852
0.4204870533080617
0.19160422535836336
0.26791032164617523
0.172210371095478
0.20083501195124712
0.8353648638543519
0.9364383902148272
0.7925436398727432
0.5568493408160096
0.3597674979162302
0.5793304892964273
0.157037473425491
0.32917658928738747
0.5244185696951426
0.8475574670089562
0.9445064111389341
0.6170258018619207
0.2814645880429701
0.6986774986265801
0.4532005966803718
0.5164118071026458
0.30899142563213555
0.9158248998680922
0.6649372477642761
0.6580654803356621
0.23650739175947608
0.13017919126220145
0.4078735738443168
0.21473979609878419
0.3063262557093773
0.72455360002039
0.2634379451212831
0.5158052232797194
0.5552998109960194
0.9389064542352511
0.7365147708820587
0.4817176041721475
0.5057554342637189
0.21219641308294018
0.6321478921704363
0.8225681037382103
0.5836560426441306
0.7637511232987735
0.22677131834181988
0.92336131096129
0.11178501092950027
0.23379645497780166
0.5519755092981183
0.28891503378602723
0.1328947010632854
0.7979748550255095
0.4606867547877934
0.8756070589121656
0.6795995889151142
0.7443750059626578
0.30796731692926427
0.8199244768358704
0.18949725348341065
0.8471978781102925
0.36383295723491194
0.2870976296314246
0.4792820955332482
0.33348109008816323
0.6617340170642206
0.3650191835877259
0.8816211783081215
0.48269215402231014
0.6701303978435326
0.9859619626331969
0.11655160889272007
0.3466496986184854
0.2857791445845429
0.8865010698062638
0.2578341507611046
0.5670259347545538
0.1745188011326138
0.35982436309362986
0.6097641762672075
0.7593148874892253
0.6355701376302293
0.4008195017352647
0.7553698805832431
0.32176182991519614
0.34493062350696646
0.9255822179160185
0.2666196359547577
0.8259050330753047
0.32470120797326735
0.949653405717952
0.2625178106146002
0.7276782405221559
0.9498398402020906
0.38719042591893005
0.30700795355893273
0.4058874673912596
0.5855421631378035
0.8973799734125684
0.8830889865108369
0.9451609286616065
0.7904694600380142
0.8863094027677049
0.4792213020493632
0.4191599418766989
0.1378838706727257
0.4458939824437135
0.8077105129739969
0.9502588200622692
0.9920517635232788
0.6469631153909732
0.2984375881631578
0.15205840890705674
0.9954170403817918
0.726418556248413
0.30143585334036077
0.1823381536579794
0.8998732718820794
0.6897177825751195
0.43541966531108256
0.17294159431688316
0.8660862226438918
0.8422128693326343
0.3403254431524792
0.8655235561848177
0.7277243155023553
0.24274459476376634
0.8432350755082864
0.2446839064434774
0.10574728454515023
0.6686321743150015
0.8018608556360293
0.9666928034730952
0.19225875519161134
0.37086721025213465
0.41129475125766113
0.9761400722596573
0.7824368763361204
0.5397788713641992
0.3462639996534993
0.24726143907250228
0.17414294105425843
0.9557772060253693
0.4777545852335101
0.9855798831638454
0.29179423362257495
0.8779224248556733
0.8817608511600497
0.784921591848699
0.9287630630341182
0.20557737006615504
0.28047225403030307
0.3420940639915879
0.11045848591729057
0.6400184933073734
0.8018658900040149
0.31784051427627474
0.6563401608863072
0.3938151774195927
0.12988279791222992
0.6107867634354023
0.25073432403316276
0.12842753034307783
0.7381544675058248
0.4055051732885254
0.5928331385383626
0.5737623948425019
0.3223929106091318
0.9782787302372181
0.6928369979507885
0.30560926719816883
0.2795882058362306
0.3319145996600923
0.768435869079983
0.9888846073624521
0.49475387727063147
0.9106316776101326
0.9211270110550218
0.7598017201737529
0.2617147979832178
0.8689465840326213
0.500774729502399
0.2471714853265205
0.691062998087163
0.9728389405706902
0.2527821145787867
0.4877987712956253
0.2503377171108549
0.6974240748596245
0.6268189279570769
0.34277465036529065
0.13540918660165868
0.38454049447907546
0.9879671106629622
0.6752079440339503
0.5399619222312282
0.3771369474320718
0.9729208414965433
0.8813280289397548
0.950152797526621
0.8820144860308464
0.7205740759284051
0.4544779650887426
0.9994723531936
0.8836781053035332
0.8906640051712131
0.8270613477471327
0.8360507945575194
0.39212724691024325
0.4497022911433112
0.3045426645368363
0.657541311408653
0.5671736066225963
0.44217605690727135
0.6471145835141001
0.9599713263594413
0.6827272427391426
0.15424065126060477
0.5372845832676931
0.8227233080493971
0.7445356068008742
0.2630344145812123
0.7381416355501894
0.9666341877138218
0.13907127956933726
0.8372699734841111
0.6498828899658925
0.41807924137244634
0.8403528866623106
0.6614733922089157
0.7631863704497639
0.12127472744170276
0.30875238650437786
0.9890069681933986
0.48537965343305334
0.2155548605087127
0.3467445999038253
0.27268059224686864
0.16248145847148404
0.31034087371938973
0.5796620078962018
0.9947254250990508
0.5186850510553463
0.2577726481218937
0.18700880468204767
0.6984205520384962
0.4593843242283774
0.5859614172525036
0.18021198890441498
0.8038252789033473
0.33680131291975857
0.5984220166411387
0.6405349000245556
0.9929422133409814
0.2047297580969285
0.8812510210967053
0.17282735474612698
0.411489753884007
0.21927220546766357
0.6456276439758797
0.45879672499508184
0.1232307162545383
0.9692399450378979
0.4955605197696191
0.6576291594080467
0.8026854274615959
0.15200250489672998
0.22802443181847656
0.7229452075247187
0.8325732425554169
0.5743373175204864
0.5048061839391903
0.8447841060101868
0.47453859836178536
0.7842608408099215
0.11090869717950395
0.9636189798889301
0.5089396011039649
0.23504379822458585
0.4382994566311924
0.9028762200462109
0.719321235477888
0.1345837140660925
0.6934185299852045
0.15998683650462098
0.560999728731407
0.744691049256414
0.9608512584695321
0.4147329067712646
0.25669840180067593
0.33854178549250363
0.3659002997296783
0.2851185359759996
0.6795138281870176
0.8188427724891171
0.6241803923865218
0.21528617172958003
0.434950321453762
0.9487682539702368
0.8982324101883425
0.8752329967270924
0.7795377358716504
0.7988027018497522
0.9862027655720573
0.21855589610910572
0.5552674236566462
0.6313129214128956
0.7199967718450816
0.2440644714591157
0.7538155436017043
0.8200638718292436
0.6543869052341611
0.598803862718815
0.771160404458109
0.3942384547042712
0.9967009038645226
0.8975762024185671
0.7260563318471261
0.8147775981493758
0.6780929733147046
0.6045940849745538
0.3428386481153929
0.15269583631958128
0.8097534682051658
0.39537347824838043
0.6384027646573649
0.6783086795816724
0.2065025718310486
0.6146850441044679
0.4010601598677389
0.3457637289755312
0.33336708297919637
0.2674912760616496
0.2201319751743494
0.4931656323536616
0.6492026345298771
0.9609531589751121
0.3355351153623154
0.3447547535157679
0.15882954180794673
0.9157937080099698
0.41260899363295844
0.9670549907921954
0.47691398716674527
0.33087705619982305
0.5175392380195026
0.20268620639914003
0.865554452057024
0.8741257240144915
0.5891843956083814
0.2491970861469482
0.5160660049005465
0.15604579529369705
0.1467609197988416
0.2482357180890663
0.2843931467356413
0.31491659024338536
0.12445067910300384
0.5848316181574428
0.839892844540203
0.2833898132149202
0.6198340292930418
0.9235810615663389
0.8139352153944289
0.34921403864002803
0.2658023553142235
0.49629107653151405
0.8232431818973817
0.985699287132848
0.8937349824741796
0.6037801152745443
0.17146592617872658
0.8371571624754904
0.5240511090395332
0.5447912025252699
0.7408126182977027
0.22777479078489452
0.6860328263935067
0.5241584506583481
0.7085598058678906
0.2573932934583635
0.3513484796089694
0.3747796090270582
0.6878465114781547
0.8096026089279688
0.7036590807152506
0.5143224440817337
0.9791202956595934
0.7659137086902373
0.36299640741570804
0.11620590004040905
0.8464551983729622
0.7333173797147162
0.11116363264958332
0.3675140269377555
0.9126054956727885
0.903072248325687
0.8151204508301713
0.8701264844537855
0.6390806573594895
0.7022802366442706
0.5657017165795372
0.7964916901571407
0.6463806208468786
0.3136901215373257
0.538900361759138
0.7692345245589038
0.3289524227576623
0.22602168779798593
0.5338369523008742
0.2862933205945841
0.297161928191672
0.8223271116218316
0.9385783474895347
0.20245455412894126
0.5441919223061068
0.34725837296756756
0.9168499023008995
0.8414113457991652
0.6727612331650663
0.643415907654449
0.5106128580599878
0.7760602430275763
0.9475531404570325
0.6342947120876846
0.6513161215103372
0.9122079765572575
0.11053594965781366
0.6194798980610957
0.40885061785539245
0.7232435440023027
0.3756821489003914
0.8401801363014506
0.38698013648902496
0.7350272763794421
0.48747640461598685
0.23901377250099143
0.40654374992316256
0.7094085757615084
0.9892323695400327
0.537030729693458
0.44578604168722025
0.24402244281687466
0.36032029477538907
0.3825700456396176
0.9856118468894178
0.44696071426323014
0.5983403368222101
0.49639721528118164
0.1518828239791224
0.6019379436250395
0.4996393742819827
0.9944635500097283
0.6585944318421256
0.5279914337381441
0.9185091498435178
0.21758710944111664
0.34819081142622127
0.5164080445588541
0.6298583699181879
0.7856183722399275
0.6195511263098181
0.8447670298956728
0.2804270639755625
0.8622719687863544
0.50348714983248
0.11720448498678764
0.7232791883833972
0.8239934869115545
0.10797695660212202
0.36515745671157385
0.7664285187581672
0.6926864641030493
0.17974424257271115
0.4663958402130649
0.8274116890083
0.5703189394030707
0.8150639900416738
0.46258595436937344
0.8231344689671961
0.3893461311230938
0.981083003657328
0.2106286106188488
0.6272783096081672
0.31773851228397665
0.5972508706671003
0.3442684424020429
0.666601927202563
0.1001212237040368
0.7362788387101445
0.322141482281712
0.4242105269203851
0.8100392245984065
0.43958624856687356
0.5444326364112358
0.10392694268527819
0.9694427546158095
0.3682469877754988
0.14336741115396662
0.48945622241773423
0.432831930388459
0.839961898134781
0.5250536237466835
0.6469769100274503
0.7647377123190976
0.7418861949543559
0.4310073889805376
0.34083340905517434
0.40361099209218343
0.543578126002702
0.10893143901505208
0.7097880407130579
0.5691664428887251
0.7931423905813864
0.11579712702996603
0.41328603385145934
0.6818128674741374
0.9087045442073554
0.4582047636590526
0.32194327148022217
0.15206000450244456
0.9921951114077985
0.4291126734352342
0.660172277409397
0.8300113929401238
0.33391448131854956
0.522989441342143
0.23257273985107332
0.220847365812048
0.5505432140392368
0.8262689417955943
0.13950994837870462
0.14498112579371086
0.8684064295342003
0.956286829325649
0.6125858016103933
0.1657734058243135
0.813335604659545
0.5693136748493247
0.529210095821173
0.6999404311419573
0.5490060980823478
0.9335746615886038
0.38950299069359373
0.48583181888779026
0.2066523612383364
0.9939295138806676
0.45321236760653205
0.6194103274344887
0.607666625950166
0.2724336511613432
0.29876750466670804
0.8800933190554002
0.4929527707918895
0.3542464593755671
0.9033024047378271
0.547785866931492
0.39840822916047436
0.1621068333515347
0.8297907229071266
0.7940105342666979
0.5851850974624079
0.21508012110017583
0.5702591629770296
0.3737788476726528
0.7564103146791967
0.7677066942628435
0.39276562062072806
0.4338469073419887
0.7788234337138726
0.17061023468541156
0.8025685456830014
0.3387935237999203
0.7831047542697379
0.43235269319398695
0.7428939721614978
0.7560829554902347
0.27571654266084283
0.8708835013731342
0.9523816003976672
0.8075850870349521
0.8550975949462096
0.4938951953333831
0.5917872844700626
0.746608552590295
0.5974363681466908
0.24154588736174382
0.7054326947880082
0.6145713848293738
0.7066179271529134
0.3760989395699271
0.7594291455312524
0.35718249213343545
0.15092709053204406
0.7043312338004862
0.7758458185269864
0.48881703483505545
0.2614282138109894
0.7640964863511456
0.4578511406975835
0.3416803804608466
0.6432734805034376
0.3675617112766003
0.6836543381068193
0.3258037411219923
0.38161665479228346
0.952060356031056
0.7628817055013133
0.7310256349757263
0.6246334511238368
0.45913178587819126
0.9793062589950491
0.1833629347462305
0.3328404779398969
0.6305085905362274
0.742647451040314
0.7648508356539098
0.34372569523327534
0.7594601273075486
0.9563416391591085
0.9394394573194852
0.7685933443011451
0.4340016445871151
0.34196816294397414
0.8086483240770995
0.7349147472551376
0.942652559322034
0.49952750905574006
0.15055846961269512
0.7879966552679539
0.24354303628722246
0.6977974464900715
0.19938867706999241
0.5635050937387508
0.8457000381154732
0.9575335153022554
0.9470087312803062
0.5980340707747946
0.7092467046971536
0.49528954112474566
0.2613279301653527
0.2487560411286617
0.5634400149219335
0.24917335926869866
0.19481093603319988
0.32081708274959
0.29759853090682176
0.47419759317098975
0.7319314865636465
0.8834742696424458
0.6450741003910703
0.7228662823219321
0.28388474505907324
0.8134823022155315
0.6655838109531284
0.7510992961194207
0.8589935510090948
0.5061647017263294
0.5196787805261531
0.9115966256916058
0.4504644450809878
0.683486206706886
0.490125009480071
0.29810019331427784
0.4326167794840958
0.7378890897062388
0.5355904313617724
0.5935772466942064
0.8037639794421633
0.2262920663741635
0.2528929054456618
0.9174056398302907
0.900215131546009
0.5265290981044924
0.382444127401974
0.9170546624951806
0.7265405306241327
0.8166173054872317
0.9451616315052624
0.27183392656447913
0.3381715242328216
0.7847661978377035
0.4315124924149162
0.13030876348701761
0.1350813885950174
0.8993063700406322
0.8428740977115533
0.16053032257063107
0.7733655208439617
0.3173468367311811
0.12018330024584961
0.3815001902893187
0.7879180477927846
0.8534076650475869
0.8779899221815277
0.7810571503617112
0.3059879162351491
0.4077147502949413
0.9830061170811422
0.6338423971355214
0.7097784524953162
0.5503235015940046
0.34775939210667417
0.2614204092603169
0.8536303717931356
0.6487276826373544
0.9648281322359422
0.2383219385597841
0.6248717238493878
0.12856938883568977
0.8928757050756917
0.8766971482229848
0.3578675940344107
0.9076292792118387
0.8626491375142363
0.9778088201311634
0.1765931375078068
0.3064291993339051
0.25074198018469696
0.9709853187426057
0.39362852623703215
0.3308167549150894
0.2894562456988087
0.878193029672326
0.3721775601506828
0.6226291760988565
0.3462763760746945
0.3758171212385383
0.5125882817182942
0.7993443570865805
0.8560972705952798
0.2756498654967854
0.5348627769823017
0.4661243208565512
0.21340182507759486
0.6109545861379491
0.30684405321785657
0.22710118903583454
0.2968388202912249
0.9344114036780043
0.43709341904162313
0.6011064198353692
0.70548815297122
0.3247020574662072
0.8133353318882213
0.5124912351288179
0.9286656853083718
0.3143319882991267
0.784518078209754
0.6372196214919905
0.8447977470466422
0.4063704005028337
0.5588686085954119
0.5960439657247348
0.12247449590534465
0.7521384581628661
0.2561464453195198
0.7756926842899501
0.7096538168999855
0.15954866995099642
0.7977196466514543
0.9653430921167009
0.6503172501030947
0.952445316610223
0.3534544378950686
0.735621546299736
0.40597467741392335
0.4090480319598798
0.4352580383981193
0.24651189028560644
0.5020430745326683
0.6957222693733104
0.9139237974944715
0.10619016599768438
0.46216563336938055
0.38249026886352455
0.2661692116126323
0.2079019841254409
0.5435376260795421
0.24796497617099086
0.409561917901917
0.8388829155692268
0.45956690612824136
0.8208826303630284
0.2068381859582003
0.6353626415517186
0.579062688356309
0.3667218521619595
0.3337037550553726
0.14531457427241792
0.30386946343249516
0.42328787228442133
0.415737198401514
0.2881534363361614
0.8568178393626165
0.8412612496740761
0.9392993905773809
0.578414937418058
0.2450969307776103
0.7432779487995512
0.6515162519828593
0.4191995844865746
0.8332039042389903
0.1952868863918164
0.6923438418678162
0.24113143478512514
0.2513832901898664
0.5521845584497388
0.8975635949164106
0.6668385889912369
0.709694264105465
0.23179263094253452
0.4881715357069132
0.8597910927575287
0.6157379805571142
0.10574113906593162
0.7555337689056814
0.9520806202230166
0.9912990734142835
0.719241001366716
0.660478062915857
0.4754740767081188
0.7815546804479506
0.19022100735058897
0.2467172024333976
0.9772215364436964
0.9338174181605663
0.6165548794621094
0.11017228293012023
0.629516998884838
0.34771526293330746
0.43724977345663885
0.8491271856948954
0.8355747809919131
0.4037088510678061
0.7772215038278449
0.40096106108987384
0.6147962904552335
0.23432452276732652
0.7117274951500108
0.7274473229241825
0.8974774979321647
0.4701735748596082
0.7057829178200953
0.7641558526578329
0.1731066713260054
0.9795519393098026
0.8794913908400512
0.470071428282542
0.8655170752136044
0.8409458914120271
0.8365423823015817
0.3646607159591001
0.8790061448549831
0.7064550084430041
0.6348176445777375
0.4861561323723994
0.7231188755389728
0.2968425000158853
0.8645017656031619
0.5306755329275703
0.112314173284613
0.6682377934434258
0.3663388264929546
0.9013458887697394
0.16245467731376506
0.9255412599199127
0.3640180792969089
0.8129720753215085
0.3662416877468825
0.6956511266025983
0.7559002490055827
0.4084578328851165
0.9265577878734021
0.7560452800946414
0.7409233412925444
0.5862694660853497
0.5630151949659048
0.6464217527952192
0.3834266001300062
0.49969320121595673
0.6244430044102134
0.46243334889510423
0.2198889317229658
0.724079915250678
0.5499630927683096
0.12312068038246736
0.8649633974528849
0.1972401034387664
0.17742894132964887
0.589910398870889
0.1374210638619344
0.3769938147638342
0.6248171971896251
0.5195634320148013
0.4227594237582323
0.15119325799988192
0.7080966119863658
0.47105175504849905
0.6260888019335124
0.40537474057861067
0.9979744501091805
0.20363156055568105
0.6937212456374269
0.8323510093500047
0.23628908293296697
0.4613156011801389
0.24639473359493663
0.5971295240355109
0.41093276835110115
0.6092655042819219
0.22912251131621805
0.17255386465264158
0.8455948038450918
0.8457876155064603
0.21191125728778332
0.7498594577834068
0.6225807033186707
0.8287075326393004
0.17751892515731232
0.49587007574245145
0.6395150256928449
0.49831961133953384
0.6292004170866655
0.8433390776950146
0.47272696139409964
0.2984388754732743
0.15362838761782935
0.3040953627876811
0.24703008255857817
0.14603518505835789
0.44450569036273657
0.15583727526089888
0.8902301615600112
0.18820691630266695
0.6810149632846852
0.36695123394138385
0.21095540136905216
0.9905548000458902
0.44392552734931234
0.7033909004172257
0.47389870053288063
0.18858177019123187
0.38382736893950575
0.2611284736974254
0.5275808855800913
0.4149440682136427
0.8868766007233726
0.4687055823632672
0.40077344275579896
0.849350595993518
0.7228454977357703
0.4624655362721477
0.707910440802783
0.9543457956210551
0.28748385100766616
0.4765505800405002
0.24531205065781608
0.2890964736211166
0.8021913836820702
0.610651849740466
0.5393599077797326
0.6393693583057498
0.5466152997107325
0.6263450301752118
0.18227979263542438
0.5692393193263671
0.8754983962291909
0.8291449809637322
0.6149106673499857
0.3221713248361596
0.483849772517675
0.2546465143218926
0.4602815525556947
0.7019888779366168
0.2384053349618946
0.6967244833508326
0.7481417148378462
0.3079727675870466
0.2243127638262225
0.3151597456675267
0.46961436970925463
0.941089492643964
0.7224900866798873
0.7045379733196547
0.5540103475024198
0.7706932684217511
0.2787684524756822
0.7761510319363901
0.9606626933620251
0.5375562886943948
0.8279436911425156
0.871507843632812
0.9505216581225119
0.6811525390159483
0.8221564274982692
0.39594035606374844
0.9511747320033371
0.7345368157182335
0.885738832313683
0.5279281437094603
0.8527979732228828
0.5600022746405505
0.8466064441147448
0.7039116824796188
0.7528344402113717
0.1424770315276411
0.34350333083919227
0.7979547670470994
0.5898316033137257
0.40968245606449794
0.5549687125511413
0.32497560178194673
0.47363108859347114
0.8382279870504008
0.33098248646748624
0.6364451041848552
0.4105151559321095
0.2976714357351121
0.7680630083382524
0.7516262698956291
0.561153538658896
0.7468463019359821
0.3094555140239966
0.4526298051554545
0.708028096210695
0.10891962594203829
0.5349088682878916
0.584555481358262
0.7357347971289965
0.3112789795524742
0.10053814495131579
0.16136795778891644
0.47565530409623313
0.543661274490274
0.15420425041026772
0.24785815894516836
0.2114614240352357
0.8391251391037339
0.32226505029270325
0.11190593161476459
0.9182819225858383
0.35576586614055594
0.5900997921892079
0.37927763389409275
0.68098092076947
0.43962685911698574
0.9600845205398404
0.26118544539536337
0.787164259301391
0.7977110850091504
0.2314189173672663
0.6628901051499341
0.38233281228144067
0.6368203678721893
0.27701937758154077
0.640850936083947
0.2836788950401843
0.19887680236670466
0.12281374383754463
0.6488314853933054
0.2324469259854508
0.10544233886558058
0.9334536038364389
0.7674094976201467
0.5811032972406778
0.3950543789650307
0.9568562019751025
0.1446453175145345
0.7695146685719367
0.9653956589238096
0.9185936257109245
0.40766413772553234
0.8145416201066662
0.8245875808370214
0.46168864411306554
0.42128418652179755
0.5911263719317232
0.5343411120953686
0.9614213492858166
0.5725444062208462
0.2111048792293196
0.9795554408592364
0.5955944133129079
0.7581255304126375
0.40747700142154164
0.2074429102043771
0.45427196824969784
0.8826847163309541
0.2636358875536049
0.5818129912554911
0.13734759295891574
0.7002347027128126
0.937148682576295
0.7534763663354654
0.6079749290017729
0.6554748044052701
0.7859908524827594
0.6610416093639163
0.40099827440629365
0.267199259228837
0.4939451424401873
0.9395809211139697
0.7634191725609751
0.9284822965922992
0.5365161887716371
0.6527676198871102
0.16740625780178536
0.2754624443487675
0.6191271276744302
0.8507476973875971
0.8595941247478223
0.5041706627213883
0.38397986259682193
0.7899363502408464
0.6407129344056572
0.5100845944958897
0.3862356505250679
0.9215207203670756
0.4089479401580035
0.18962174218602604
0.6428917558895538
0.6180987276976777
0.46577488291661684
0.6611547801226035
0.917943847945176
0.2656402948451922
0.6549597803487476
0.23316250069846528
0.2831813864982068
0.11890824128772468
0.8967149908368087
0.44917547895809773
0.7762809857781724
0.9443630552722502
0.7887846695728477
0.7646914480572671
0.37404138191862735
0.9789558735835082
0.8825803046334818
0.3935984562828384
0.5001161509624856
0.36993645772575967
0.4599847164642117
0.2365686216577472
0.730987828627843
0.7225481027212199
0.9811286567125006
0.7455356882791807
0.5111992645635401
0.7274496288613154
0.16187851578023874
0.28359514324844864
0.9746607711929361
0.8720720051657401
0.3680734585511901
0.24956649964877428
0.9893116683591718
0.5143198358213442
0.18702510380881043
0.13542569183775655
0.5209485543740359
0.8051513523291179
0.48955592895145505
0.8986820818333242
0.9342168059312776
0.35082488433567327
0.354295240766775
0.14946967615583986
0.4956066475956088
0.17827031823033976
0.40139046112328647
0.8296152133038327
0.9646716724942199
0.5049493068419737
0.35876007944538313
0.2522457044581782
0.6429208804156268
0.5636503255479299
0.7949368248542543
0.48862638559699956
0.6188400128258793
0.30194468181981593
0.6834677745689214
0.6140792655666223
0.8811816640578126
0.18320456533335994
0.319595772117225
0.4132467599295885
0.38889734107680807
0.7628258571571656
0.41812587285464853
0.27303212662128273
0.5002414991725022
0.7131538994791904
0.7091850482448189
0.2898729015579554
0.5142961455784886
0.16539902882304103
0.5903209767484886
0.29218856904130724
0.4300109917326833
0.8201238244768683
0.34011509449044774
0.8603776768694577
0.15481498891166445
0.3964413423718681
0.8304643130003682
0.7236282063023097
0.6487137174481996
0.6114417546418915
0.6213820625096148
0.5668730624032385
0.3792117553702343
0.3322968788560733
0.8809318881273152
0.8271615952981171
0.8508923161744587
0.5758365878956474
0.4915131349062011
0.7224790617759864
0.23096393450862324
0.19604063719211884
0.6634492380827212
0.3317312948432224
0.9486845056640221
0.20125281747396856
0.4068657762786897
0.9376050300061585
0.8527407196693594
0.8396553904776123
0.685168449801088
0.1359531759574849
0.5134092900345608
0.9356999796047224
0.15944977703994406
0.4197555768132304
0.3413289066507288
0.1358174146020873
0.5041339843329655
0.839133478335561
0.8894084208960592
0.1916908877256009
0.14388968693182638
0.5918287249228388
0.2679310871858508
0.6290186044345163
0.6154932490182512
0.6367118477470983
0.6630849216473078
0.28529378936048905
0.7085761717208853
0.2656911910248613
0.6564565189123479
0.15059251491389064
0.6764025465939275
0.6218135594496595
0.3118449357085218
0.22981601900629317
0.23195310144385806
0.7150864736415434
0.5031744907439709
0.36533551451209023
0.9237609463413465
0.6909064321596871
0.5075950243739605
0.2694722724253958
0.19419439631183305
0.2172883898551023
0.2501637203850199
0.6902386905946535
0.6658606135539936
0.9018764962216335
0.24725458372444864
0.9870406605575203
0.19632622078993428
0.6675717654847724
0.7859166584052921
0.8872692846909094
0.3411975401959402
0.33143711599818626
0.664078013688098
0.6870530015366016
0.1152215199294466
0.9994152704249801
0.9689037711405591
0.22217126778991098
0.36948081232279595
0.4404840464487335
0.6667152357332826
0.8387641083368159
0.20834033455498047
0.8586509342105775
0.2565673353130048
0.42538616898666093
0.8344510814028913
0.8979358973521585
0.475644647620426
0.8861808378206931
0.3880145017786526
0.8664232600155136
0.22948853985080214
0.5098554147231468
0.7462613450807747
0.8318278040335529
0.6652274181125833
0.8803104462195404
0.28383082114275676
0.5321651637356991
0.8207362898737752
0.543130343831124
0.9233579348664892
0.6683899408085443
0.18923150104986153
0.29842343289943285
0.7393796335111705
0.9861183067385018
0.1985341294620946
0.32090901628503743
0.6530495142296733
0.3234587316677614
0.7162526474929041
0.4700145504334413
0.9690488482427957
0.7122256194973366
0.811074924974294
0.3780259505593895
0.46032096415584756
0.5354895381078332
0.9428439981792032
0.8246072878791985
0.14487413175924785
0.6806350749708131
0.22875575745106216
0.6993524494724178
0.5136066797549698
0.552898373372771
0.6834312586700398
0.24148349520125884
0.6641496139735605
0.9810526202691957
0.2192235907077339
0.47618567695622227
0.18164879447304777
0.7479971223647016
0.8100225666692803
0.7422942548009384
0.6342177289728681
0.7303130999799126
0.8331625504233254
0.5821200734104268
0.5247122595080708
0.46316799319619006
0.31450348956519725
0.19613889366759157
0.2519733604303318
0.39083069555147554
0.5025724806273406
0.31912033966008413
0.7383665144266912
0.40485966019698827
0.14705119294188368
0.41727631717046565
0.21397341296653694
0.27638216623158574
0.930957418912542
0.6930116259173714
0.1468213795265022
0.82204632743273
0.23613785601640835
0.5856956100128372
0.4694488423276414
0.5197371350540937
0.8048440261251125
0.6625823974178757
0.14529063964119757
0.7690176060130112
0.2393074313615008
0.3291973893009657
0.1503337151154031
0.14905834967234763
0.6054350569409748
0.6341467742396663
0.11978363332866063
0.22206395440658205
0.8044711068262481
0.31909835508886963
0.7329520486380254
0.1813770800124947
0.46203437231518785
0.4608732940195166
0.23807159415017923
0.8186081545460715
0.1952245223708628
0.8026138672190761
0.5986893523562435
0.6797917143906561
0.9278133146014926
0.7812341606143124
0.7481002001634511
0.4037293411416747
0.6576243335443781
0.20843364019462116
0.8582844064587732
0.37275918505759154
0.15906347936003581
0.330099600998633
0.8441810624560259