FoamFile
{
    version 2.0;
    format ascii;
    class volScalarField;
    object T;
}

dimensions      [0 0 0 1 0 0 0];
internalField   nonuniform List<scalar>
16384
(
0.005359147050191011
0.020578823540869602
0.02706803447973849
0.0003248724736521324
0.002476947546856534
0.0029826017068808664
0.001831234050975304
0.0024922306223975807
0.002611385800665585
0.017285231917514344
0.0009474309870025488
0.0008767786674369729
0.0030059428038768004
0.0007895858701933552
0.0037768040613365547
0.0048770152035286585
0.016748155021733012
0.005658870981934541
0.004320856347763933
0.000907977540868965
0.00036066682894492967
0.006634919637757004
0.007401781496680873
0.0037645681512145624
0.005111674173351224
0.01605676334164057
0.015061420365501194
0.001407036453155634
0.0018667606630814353
0.0009715411803627207
0.006923418727893561
0.0014612659397107038
0.002423095307076308
0.004149170729267296
0.00043251444535536093
4.9622426608009864e-05
0.005358945237805065
0.0011378361061019841
0.006620722769960592
0.0028621301747561506
0.0025101357663823817
0.002435741285399667
0.0027714020061467217
0.00024022056280163752
0.003511990974134297
0.028395508184851644
0.003072766981279888
0.0012750906755610296
0.002573039593741183
0.00527870030622873
0.002901271987366374
0.0024152693506114967
0.0036144355099939265
0.0027669855845581445
0.0013070779016601253
0.00020184378140402178
0.005752239521977914
0.0014934656244994912
0.0009482914817574368
0.012636441326236736
0.004512623470017912
0.0011569252098398812
0.02731064925339547
0.0012900397247098876
0.0041895751520362534
0.0026799315590355292
0.0018071645547085285
0.0035805176181731074
0.0028184028116545927
0.0030412284721830054
0.004678511331162721
0.0049884246146108925
0.0008194224706753105
0.016478499452797772
0.004988111117966721
0.0014201196351544296
0.0008749691826849062
0.01286395523790702
9.424457900711881e-05
0.011764841778108704
0.003676099902276672
0.0036248584769034225
0.006221642983451757
0.001713043284829262
0.016310147171341608
0.008041059367040325
0.00034767908131384166
0.0020909935452750146
0.003147032326473311
0.0033865228195531
0.012613296473516653
0.000980942637588533
0.0005367852352811623
0.017304253458746484
0.019493573628285646
0.003969260194744287
0.0006632944805509334
0.006554650213238651
0.014815726620671328
0.010992938641598555
0.001352204677846477
0.011141341865760148
0.022363444174069633
0.011596212723514708
0.0036374514872939685
0.005016790645935997
0.0032468711744427997
0.0018746959122980062
0.0004331624953806685
0.0025646228071028016
0.0007910690016876552
0.002648289320202027
0.0032121199786377917
0.006436002796340339
0.0020909231921442195
0.0019111587750238706
0.019988131803276733
0.0019411777574738906
0.000996712579066889
0.0022032188174963578
0.0019014542248466416
0.0047353758411436435
0.0032754060530428503
0.0004545867651463332
0.0010113996677593314
0.004946618162355563
0.0013279816265031553
0.00474415411800992
0.013894143140661569
0.006653546510772672
0.0012487588516674748
0.002458997358990217
0.004567507828804526
0.0008567579715272939
0.003851341254461408
0.007697575647130325
0.004349418305109644
0.00042831189673709757
0.0062252659303006375
0.0027415459049863903
0.001958190149803294
0.0066125776112062285
0.003307799958789468
0.0014582495589453087
0.00950523712878653
0.014933074058327644
0.002143441630028396
0.004134874018043323
0.003559654211145802
0.008174652072176205
0.002779741626596349
0.0037078189112599276
0.010612402758860032
0.006902464013618324
0.0010757169244126606
0.00207161561726631
0.0008223148170791648
0.0015168074236239506
0.005629247487426011
0.00031168705609052854
0.021965068041238805
0.007213678075259453
0.0027363366717039128
0.0039672390772909185
0.0006685757668671883
0.004753774159679291
0.0020259378632580924
0.0026085391557887226
0.006278222568610996
0.0020334490963999554
0.010143990799241939
0.002374957573487641
0.0017549302913808496
0.0028245661031281394
0.004592412951508539
0.015253423571359349
0.007015712449051211
0.006446295930600169
0.008215291457551043
0.0026099186243168614
0.012015478502392615
0.0063990023074824995
0.003836670786306704
0.002097232541557333
0.0007216351172559407
0.005326788490619885
0.0007801352675280362
0.015120464362178435
0.002199253277292383
1.962081061053011e-05
0.005491370944556491
0.002063070311573663
0.0027101699088382183
0.0013674999132105125
0.0206823516566069
0.0061792355152307556
0.0037583411229756307
0.010830551049686651
0.012376961219662183
0.0019792648796475355
0.004232737952443791
0.0037648960465989974
0.002095588193600489
0.00308433547369256
0.007601747231794692
0.0007587367544227865
0.004471251422035894
0.0016335200702265774
0.00858394286934388
0.0003220044119200251
0.006489611072443369
0.003967151669531921
0.002155732362883757
0.009053538838115912
0.0019264130515587764
0.00016219503930195748
0.0013408783824317091
0.0018577523053493507
0.02733304291252457
0.005570274009672166
0.00013406503787074338
0.002348083746431979
0.012357185158741927
0.0002886014086950243
0.012042113976654138
0.0034441185334499447
0.0027202519717351315
0.0009863117292947343
0.00028192642872899474
0.006701533303403518
0.0022855697897070392
0.00886996150200035
0.005962221693523299
0.0005150487543203917
0.007081836280786225
0.002779269208490443
0.00525194677536161
0.0001446587234252673
0.007538167554082129
0.0014237876047995723
0.0017395715296619674
0.007459397324071689
0.0013683478678536457
0.006221723911938249
0.0047052683000123625
0.0023912554667622093
8.392069950339342e-05
0.0029447015476261416
0.001771676473007052
0.0038686967003972194
0.005362810804272614
0.0023877108080804944
0.00045167370143468425
0.0053109238791521265
0.00038570327910605824
0.001713824339082376
0.0008136858391869319
0.00276116377584351
0.0021767052652128713
0.022206362941640655
0.0006086964228311134
0.0007381731448918813
0.0062069292680388185
0.016767499619371518
0.003700294547158882
0.0027828246699583645
0.0020786048971757716
0.004436115325514194
0.0019920063129263937
0.001438922174317593
0.008995591089303092
0.003491448606110426
0.0032564920843636915
0.012643890578724105
0.0005325014833001816
0.011647923064962151
0.009457764069376654
0.0013538668840444349
0.00046486224698255905
0.0012322344925740645
0.016985465665216762
0.006653320915135003
0.005260141775228331
0.003458398159042084
0.00010948959724889213
0.004973048309073762
0.010033677765388303
0.01120017444041372
0.01361569807666583
0.0005506870370891797
0.004656845072141296
0.0014471185110894453
0.00037177268270988844
0.0018780873562547233
0.003068759942682178
0.002779834779471501
0.0023134074267003313
0.0021217677273369807
0.006107103146740273
0.008123355131449322
0.002285276485302
0.0015878383663512161
0.00017215433321929508
0.01081626980391846
0.003729183864780013
0.004580507368247014
0.00210799795981473
0.003933151648740902
0.001453123249617105
0.02540003352122241
0.004111247383034654
0.007001419665161862
0.004803590144257472
0.004442766610727514
0.001724308415177067
0.0011999166461645655
0.002505457389870901
0.011359428912838634
0.008477229008285948
0.004856450063314322
0.0019293154210356532
0.00014132415363974065
0.0051076510801757805
0.001613617152969895
0.0007968657818402793
0.0006033468703987917
0.0031625154431663962
0.001973946254854304
0.0035820271750391813
0.00551298802129586
0.0016395993259750606
0.0016252929050003073
0.007164506307022305
0.00177655275886986
0.0023330047420914166
0.0023712489677504113
0.004826490294464752
0.0005802905962344993
0.0031421064872818472
0.0045960534631920204
0.0034037397380108714
0.004478776623615726
0.004303208700388753
0.006510456439737141
0.00033628655121104196
0.0007003597217591425
0.002505549798971468
0.002254143556604849
0.0032712660311080928
0.0049927710998680696
0.00016807488229528343
0.0030849262979652957
0.001581016435675028
0.0032114253350215135
0.0005009825785119847
0.0032562630358978707
0.0034765053327706977
0.000837446084274688
0.0024560613866668906
0.002943760512667038
0.0031426993672937224
0.004118433644007272
6.617714601573379e-05
0.004583127941998895
0.021109056732118006
0.0016652103958561839
0.0022834052490585868
0.0012758414796344658
0.009022518762128747
0.0005045013616971493
0.0017429841182592832
0.015863105314179816
0.0036796479688519378
0.0022037123444454
0.001974106524375344
0.0017569284661446505
0.0023796927114146005
0.0039390923510015195
0.01844435805797424
0.004411437310658254
0.0004806840092955607
0.0051513091436937684
0.001682872706866189
0.0007980586867338821
0.0041320512483231904
0.011130935905195767
0.006062928781492208
0.001949554650941636
0.002318287878000044
0.0004040124161535541
0.009326816647820205
0.008391245077305367
0.003968386443877908
0.0011560391169856867
0.005007008706212463
0.014602825642182606
0.0030721772320073267
0.00372572979949467
0.0017789195698618354
0.002805143686830129
0.0029877242034563704
0.013912275628551393
0.003186495529888378
0.008124362738731511
0.008261053031985413
0.013697745115628188
0.004127522321452339
0.0011116337196575687
0.003821796174658008
0.0015547865688491844
0.0007429357603894249
0.003444964385072945
0.0019959152291441095
0.015932142287640803
0.0018548189614001403
0.00030022274237187437
0.002574694485036699
0.002584911424707691
0.0013433417427575953
0.0030257999047043006
0.003534290632123686
0.0006091521359268265
0.007577613105045625
0.0017640165976222388
0.005780667754820735
0.004813039166022302
0.00313594230170537
0.0036867648228677066
0.00211970603113869
0.023346270898860325
0.004497827805936322
0.011290302174203548
0.004224835616644429
0.0003372740065079058
0.0026744155409421017
0.006508143384716887
0.0013355828577784289
0.00021556853961083466
0.007325000906778914
0.0014834152775975826
0.0027192126898894936
0.0012460094616969955
0.004175918996154728
0.005474724250048041
0.0034613018807005598
0.0008839361565555002
0.0025051555313093886
0.0033699909893015333
0.002058485643539385
0.0028621312556644917
0.003311854949573531
0.011573912073388587
0.005275437957361499
0.0028057260419661794
0.004226320322609422
0.006589300716200444
0.004584389154539595
0.0008669148594638797
0.0010011484687379379
3.0430080882531285e-05
0.0009148643708851278
0.0013158881087013206
0.0012875562404821613
0.0023021516831026024
1.5444341635705558e-05
0.00039766581546416777
0.000333244439003111
0.003477944186309691
0.008385100794904756
0.007626884091957822
0.0022257776939301334
0.0038248964159374992
0.004015155093677273
0.002163857394248475
0.006916330489837677
0.00333174995350564
0.00022759111776892091
0.005220768820819187
0.004490731514082571
0.010455169326753992
0.0012757869960801182
0.0051541314949736464
0.0007264557879713943
0.0002500349072693164
0.002564719063582488
0.007674983303587886
0.010696085337896132
0.0005297868994697863
0.0075987384499024814
0.0020182983758656385
0.0019007057113711002
0.0068888246235128585
0.006544002663424403
0.0026000409400268524
0.0022592225063346487
0.0028811836406685007
0.00048330761027631666
0.013222929472102322
0.0027801155816995333
0.011443586233888949
0.018667403405321567
0.004635010415834901
0.01075497571723313
0.0049926316110039505
0.0018255721817613253
0.002965876504736478
0.0015781837662460789
0.006434416860754574
0.003567226803302369
0.002010915464996917
0.0013560037732203948
0.00981319107176052
0.011719033569449387
0.004319834990219427
0.00213825317435347
0.00236101153056569
0.0016666138586338346
0.003043540684574536
0.01486457581297498
0.0022508304083394934
0.005462914368663224
0.005297232928169268
0.003884886401087381
0.005322535514139436
0.003153659838367164
0.006508557592045956
0.0015986887696856403
0.011584073862044885
0.0063754556665502555
0.0019769516648682783
0.004753029511027783
0.0028619232992231113
0.0027751433404278867
0.005857058723729334
0.0003940129125856044
0.004176544913458343
0.008742277148025113
0.028868929365479648
0.0011588446747001005
0.0025691015509696604
0.01469309539307743
0.002843467865745705
0.0032539367251554372
0.0007150587958523622
0.00014820180620638237
0.002088068765186848
0.0006266241980211738
0.004114455871238132
0.0026511269637950643
0.00263316518005095
0.0034030690500218793
0.005691092962276367
0.004217028892336402
0.002293180015120559
0.003832810109367429
0.004267332894651372
0.0012799175643920387
0.006286924979575244
0.00043056995571173117
0.0024238539868223184
0.0014738542323249398
0.005941422748236091
0.0044963817999970615
0.003959096853303289
0.0027135506210909
0.003954946638679607
0.00026483699117983283
0.0037181227906992573
0.002518344397772239
0.0003188070352727444
0.0024584599192288194
5.565282526699317e-05
0.004673991430162526
0.00025379262049573457
0.013303388201581445
0.00024601435702540394
0.006214186946746351
0.0020712493096932535
0.007317561455379304
0.0035564064815874394
0.005242044410103887
0.0032633125802178876
0.0010192159105502998
0.0003709750783559662
0.0006146133314695553
0.0029753363072950014
0.0015991057617772177
0.0001786615808406806
0.00030479780784676934
0.00033343731977093533
0.008703862600888193
0.008091284757018978
0.0010195666773442076
0.0026535168461369945
0.003154514408967517
0.002122143161765809
0.007856046531562707
0.002010214739000493
0.0043671520545587724
0.0030843753124873757
0.0010650498726441574
0.00358352730784115
0.0027394158470614633
0.012658790009045014
0.008776982740313381
0.006618941212063502
0.0020762917132869842
0.001714357863585268
0.004867957000672254
0.0031533663334586976
0.0013576133800446673
0.0036088527451917127
0.0035323849183452605
0.014175869631204924
0.0006476269365536097
0.0011787578051110639
0.03219879342365109
0.00013659591320061925
0.000649422849625068
0.003853682195909283
0.009452606533088827
0.0004931421704566842
0.003990817285786762
0.001830173921816418
0.0030227270236027537
0.0022242066131161545
0.00393341371541582
0.0042637104960522474
0.0021433083572024256
0.014700629192171771
0.0034704647423019833
0.00782920463948803
0.0030346354240421186
0.00502702501705143
0.00028399291711956
0.01778781462601422
0.0002966684982296614
0.008013706324607354
0.0022209182152946668
0.0038363184824272327
0.00764163632634452
0.002480917953118097
0.005597375081264039
0.002735282310350977
0.0009969536121798444
0.008750463093218695
0.003258252874045782
0.00042146075721206916
0.003527404073807465
0.0058408285878889235
0.0015903581611860524
0.0014380706282236093
0.0009356285133764128
0.0004696229995896929
0.008541066833796634
0.00016685289314028506
0.002591485952354337
0.014844716266830897
0.0015309269654454859
0.005974957011849515
0.0035458811246639604
0.008825618117170246
0.0031340494504466542
0.004978500538070123
0.003003082079259699
0.0023034581586024454
0.005239058662870724
0.02194690644827016
0.0019120745139279652
0.0018300568452167916
0.004123735420518626
0.002669686318346455
0.0036020010380884947
0.005930400920022718
0.00011747987295295073
0.015113377234306901
0.004301233829156306
0.0019383758440926332
0.0041396715570370035
0.02027536930537412
0.0009708885850357757
0.003624717198498765
0.0014762450717451551
0.013080767810370176
0.0038894281931897566
0.005981331883016582
0.004729494205041235
0.000809923297509553
7.68136068797971e-05
0.0008534756104433299
0.007586207441320474
0.00020920162734304457
0.004870826180543497
0.00015744110640510676
0.00579882884994503
0.002008885776928652
0.00205606536809737
0.011743921181383166
0.00045401347000345333
0.001118343331761522
0.0041002213022619275
0.003472556195626237
0.001617942408299168
0.0013019158666739482
0.007477755454645175
0.0202212009030496
0.0035096625964915703
0.0028727740348299655
0.001681902848164507
0.012401937784388242
0.00033381985790848043
0.00283331480724457
0.00445366699196499
0.0038506711117075806
0.006321839362360312
0.007243681390780422
0.0017590869287477456
0.011120094592187534
0.002534427135215164
0.006186678318328303
0.0004561311614063058
0.007518420327701692
0.0021655405911194087
0.0039710025314917624
0.004364199739190794
0.0028053127188426385
0.0018155795678759497
0.0031687535244753285
4.65255834062155e-05
0.0016576850174427802
0.005693702750662417
0.004025825738160887
0.002312748637302966
0.0044687169717236835
0.003935022278544907
0.004721742785912888
0.0002556014127954269
0.0032699389445945215
0.001856003412454276
0.004221647388656864
0.008632385255639686
0.003127894377432298
0.0004552652891621467
0.0069881340349346914
0.012937196764428286
0.0032128056093682677
0.0020111847164509746
0.002931419671042352
0.00041696284353160475
0.0008727538327081886
0.0013628442486871362
0.0072297889666774594
0.0024752228137505015
0.0003875907331967798
0.0040329103631741815
0.003241648049641562
0.0014118470512738503
0.006373198485306758
0.00036253033489485963
0.01422103642751196
0.004547525060730436
0.003389176384693181
0.000428786544893435
6.261863644940673e-05
0.0025094940784354982
0.002783619238589745
0.003054948372337632
0.002018602974200189
0.0033452550200414035
0.007392243929334772
0.003754133528100176
0.0019576929187400016
0.0020273101376695984
0.00023658624494556953
0.0001528505648831228
0.011365251984745587
0.0018114610811408765
0.0022957059012545574
0.00440255655798981
0.005053555592545888
0.003311489439158915
0.0032519205076654194
0.0011889670053406552
0.003224234069836782
0.0029313962246022584
0.004116397519304503
0.0042951454314559025
0.009252523534500394
2.790379548418202e-05
0.0009978697111342912
0.01245729584979195
0.003977076857700621
0.0006270157046887908
0.011238192895894545
0.0031518075597889487
0.0008173396324603795
0.0024902433530753065
0.000633068321503426
0.0009941651697419835
0.0062326548162409
0.00029573854296197885
0.0036049755163067255
0.0024848902275710506
0.0019676810077449147
0.0012627735870555142
0.0005075483663099137
0.0007777170730920937
0.004190494689773785
0.00037777945592093107
0.0070890138394639115
0.004097031571356606
0.0037390038819938394
3.949339962656467e-05
3.4567183091518105e-05
0.0003901421990334623
0.003258826678765784
0.010334112986286111
0.0026863390889370845
0.002881612316340339
0.002240295905821146
0.0047407772780444085
0.002200231465126016
0.0019265572961582012
0.0018358144495561448
0.0011603319808520184
0.0023459818061744293
0.00890378844075141
0.006820538802013749
0.0008334775874106955
0.0034910526835048657
0.023508511471936312
0.017200815733407756
0.0012603233185879486
0.0034925769025427314
0.0020601996759639545
0.0036343482499761387
0.0004430332975340766
0.010449393557270103
0.00597624158362627
0.00275830825207378
0.002529421709108489
0.002329269259337232
0.001973086602012101
0.006796422845728024
0.004509519074183909
0.0023022209900114146
0.00029326142184467417
0.0018316684667779037
0.004374265746174317
0.001565087157510954
0.009398389466817784
0.0006927919535465865
0.0037577686300639267
0.0019354427491636386
0.008371647045823863
0.003305710835379607
0.011472679141118132
0.0034454496053838105
0.0035216648973684255
0.007814778949595615
0.002390231802375815
0.0002520154793279571
0.002911201986968577
0.007608141728916059
0.005334086642766065
0.0020465471052062132
0.0015779814457801188
0.002650081419517059
0.0037423978250677487
0.00973859691491303
0.0006146819984374583
0.005274620387749448
0.0028288982165183443
0.004908712410649703
0.007624558856670519
0.004928231225823123
0.003758319576805307
0.004027071496043104
0.0061861103240352855
0.005460584684109623
0.002453571518565346
0.0032070368259518862
0.0033038745452457015
0.006275671569222438
0.008758738462560164
0.002146166173474108
0.003616752661850993
0.006359178160706986
0.004898753131331824
0.0010890438554744131
0.00282486088426834
0.0026874709841647085
0.0023878670456115277
0.00015030038713767844
0.010069853855397411
0.0006861541847638309
0.005465587273787453
0.000704076995594221
0.0043778459929032475
0.0031252516363887714
0.0025614800883653572
0.012774863849357724
0.000516960380902324
0.005165701348679106
0.00056366972704012
0.0027779239054803837
0.00041832910368640164
0.001023936091772401
0.002410610171668373
0.003635320126299039
0.003237056052690206
0.009496715301670735
0.002949410575831813
0.0006775057652237174
0.007108983342511731
0.007433858246022322
0.008413031564636117
0.003480676116936413
0.0037620499670997427
0.0031163549674836062
0.006970837726455561
0.0066690036147328425
0.006295218913295813
0.004478401574049235
0.012316944684687026
0.0019227635211175355
0.0016381862051753585
0.006235949268239207
0.0023534086997675425
0.002477675168763854
0.00044336792042761126
0.016518294316606147
0.004051935357880723
0.0006213634560261189
0.008915183983400313
0.010125232148743623
0.0012651936228838328
0.007040093255350985
0.006779121588967139
0.0030386372865549003
0.0010240423793931037
0.0008996854438897309
0.0015929751657892896
0.00044010771873008377
0.00019673530111054133
0.00933157942188714
0.00032088039128640253
0.0050190193517849506
0.004577026801191483
0.0025585758662564377
0.006332106150216426
0.0003528293564950057
0.011954417681605581
0.012188035032072568
0.004615726611033123
0.0036269463806023116
0.002106829330808172
0.0021035603046358174
0.012520648819246373
0.0027053985305167446
0.0019615030270135956
0.001840295860401989
0.032238178320896496
0.001594765644085613
0.001464653129665369
9.057765223533705e-05
0.0005832105161473582
0.0011747170477166417
0.0011741488814363886
0.0040032984987293215
0.0003039281632095608
0.0033020756271398186
0.00048298613073923256
0.0015657411052367313
0.0022203579120946898
0.02490151086287097
0.0022011478372428615
0.007109013275616712
0.0043817480385483125
0.003305910753933203
0.0038797321506101965
0.007514716797752723
0.00022995273753734252
0.0034288028516926278
0.00456473870486436
0.003987655459576684
0.0002774837228415424
0.0009265148427508835
0.003477380650921109
0.0017825101021881314
0.004069666660110637
0.0016436551841455573
0.019978855398914197
0.0028236550073132602
0.0011466855569398486
0.0031686670374283955
0.0008112947629969924
0.0023044843717139447
0.00016718417957569645
0.0020095865477614857
0.0004076610387053737
0.004176949035237264
0.0033105071680791538
0.0019775604014639543
0.0011243052535290937
0.0007036110916185003
0.00018135688727363342
0.0060987255370424966
0.0025314356083746847
0.002223323156609492
0.006313765009398185
0.0022300418230147443
0.001927674643322607
0.00153066300677468
0.005029714452116643
0.0028988188458302197
1.0580151848580812e-05
0.003174082913323751
0.001491312734292417
0.001147993296417373
0.002443527947187581
0.0035938931289633594
0.0016769553845394835
0.0050585646644214464
0.0005263867035134173
0.0020952995459820782
0.0008782426226296697
0.003708699108719147
0.004533511012364547
0.005067175379964898
0.010020837609322781
0.0033713889700376356
0.004626532755791962
0.008052533469530599
0.0007905340122512535
0.008452724588374979
0.0011198852188602643
0.001380595847058757
0.012630119094043725
0.005671475436755279
0.004072113498399773
0.0012737585905597318
0.007511122630005243
0.017664986660924573
0.0019482824707219332
0.006914099406980566
0.005394487023144592
0.004348638154698652
0.001577199839755705
0.015113611853390562
0.002220180144884148
0.003937061673029738
0.007039982646838849
0.0025535543448099657
0.010384821891219254
0.003473235053138854
0.006808779981063344
0.005192855433568181
0.002303068093955603
0.01897238382057502
0.0003304140043535377
0.0032275940723176366
0.01438925943312409
0.00018719195949372944
0.005238044445018838
0.0039965378836048105
0.015984687797318948
0.00452487709515762
0.004916635512501753
0.00033815885325143654
0.0019553764133441926
0.002608920789273955
0.007060715223140587
0.007304570840360685
0.013706982377710257
0.007636999802041542
0.0026017659750847562
0.009491136422435258
0.006577769060423077
0.0015909492403628897
0.0021834923152674905
0.0008158020457990447
0.0002332302688195662
0.0007329205449490968
0.00856501014157243
0.0024071058009151308
0.004354026310701447
0.003179320254589408
0.00017649609746238002
0.01767679172908538
0.0035689237825835877
0.010641484414045277
0.006092064411969422
0.006570095950380431
0.003263313021599692
0.007272015767177859
0.006354179940511527
0.0032989564296736283
0.0006747789064589463
0.003914872573007245
0.001949108571416329
0.003211428804376326
0.004307944901175185
0.0026161527107063714
0.006700416099598273
0.008946188235598769
0.0024492705070437992
0.004543289238178994
0.0008603702493646442
0.0027995130157856185
0.0018206817559403468
0.00523736580008174
0.011960055022133126
0.005487944011889698
0.0022968185012153543
0.0018056187606715454
0.001024398258219079
0.0033139189213990433
0.004431795562244942
0.007088838744180811
0.0061458075174060985
0.003964126557154849
0.012951492288674985
0.003396013469442732
0.0013376753948253274
0.010152779181925968
0.01334485255003438
0.008380689027224589
0.0015558044887094137
0.0011232645723657883
0.004656943804029911
0.0036068306135568075
0.001963445487741285
0.0010498927363432177
0.009791539074334672
0.004026818232667647
0.0013662042608501908
0.000706602061984402
0.003684408897681474
0.003057102750361244
0.002501983832946844
0.0026117365337131955
0.0036507123294501143
0.005828436884561494
0.001146279413606084
0.003519616989678571
0.000664255640334725
0.005604038582749549
0.002242708324575968
0.0037600207044343743
0.0029195833227111927
0.003450227764542495
0.0005210990041782116
0.023511745410576483
0.002523615540848311
0.0017165914907179413
0.005764231990848786
0.004427188830148916
0.0031879113791747887
0.0007865942151626224
0.003105904817380467
0.002696692237050824
0.007917661925164566
0.005451307580609571
0.0004645536057563072
2.6575406177296556e-06
0.0007612915074788201
0.004305683291026733
0.0021659708128577366
0.0005160076340838713
0.0006061058732485418
0.006176846953265097
0.002504349868910064
0.024889570790504013
0.00642850031936755
0.005913756203983516
0.0016366088161083449
0.009166063950975504
0.01066799663893605
0.004040461013020596
0.0027606651441137962
0.002115966722002218
0.0067255537919017816
0.011009463982202011
0.0011622392747149077
0.0022614845533883944
0.009294461022823502
0.01593487619482047
0.0031099771346408274
0.0028301168484010444
0.000944030744626862
0.004624094935621449
0.0007970325710941236
0.0032773797084321627
0.0034609053980858675
0.005232345617902552
0.00048107469528618996
0.0014964028645011677
0.014123807175864624
0.0042484652017404905
0.0057928380494905556
0.004455847802040057
0.002987040002351808
0.003784601433422919
0.00576105007264316
0.01548213858177063
0.019577161999868337
0.0012931519285897558
0.004466603302672099
0.015989062132720663
0.0006035604273114379
0.0024821152700114928
0.0011719746421051324
0.003281709858377985
0.0026871089826861
0.006192311222718381
0.004162123959450132
0.0016055681030085738
0.0021581069487196726
0.003706801590932278
0.004025231876497888
0.0035707414093685544
0.005084774581545948
0.0052497865582274575
0.0012028320471327845
0.0014086933829109717
0.001547886252851331
0.0043042712946922135
0.003399734179801999
0.0008620624488679091
0.0008959193000840236
0.0035377307246474638
0.00554499610660119
0.00550662126050205
0.003631308370106387
0.00034790294200556126
0.0056876371555623795
0.0038047795956104415
0.008170412816180228
0.0021665026803164194
0.0019615730730195135
0.0005609446407610745
0.0034419583438777238
0.005155285579820815
0.0026230987198078725
0.0031755878694215887
0.004512368272453925
0.0011079738447256947
0.0019522413087509414
0.003421516289814273
0.0001675615026472863
4.504382564086819e-05
0.0005546366351951369
0.0012629675628424875
0.002209575120506866
0.006386617796348952
0.0006708919349362966
0.0004831678665552532
0.0010636588528659611
0.003991880686346129
0.0009675269553523206
0.004262127447094876
0.0038114428877772232
0.0032925968440820318
0.008341406073637352
0.0023078161224913945
0.007259627741416501
0.0002945191537185856
0.0004320367553384781
0.0007109320739165392
0.006581799201392546
0.0006918945359858416
0.0028863177113702654
0.009922132025009385
0.00021457206134702003
0.014714423751752937
0.009462682379560076
0.0010089268412694192
0.00033691136986688144
0.006435064725578803
0.004225159235316165
0.0010167307777397844
0.004105479974317066
0.00029068022713626463
0.009156478894892559
0.001342544603290941
0.000713214176378218
0.0066941729690630485
0.005172108175445568
0.004467371077068731
0.0004347352719292721
0.008804864888384957
0.0019577895890308538
0.0031891716040980908
0.001494178204067713
0.002720351226188803
0.0032383259478697937
0.0003986198204543003
0.011832275109153367
0.010154150017900125
0.0018325512690185305
0.00121822535071091
0.007384225953709669
0.004645399750046632
0.0017089644307422506
0.004807752450936405
0.013422274250562999
0.0005620864597709358
0.004052489849760858
4.54963458609848e-05
0.0038116209774459067
0.003465909659513485
0.0035881608895153502
0.009523318125178381
0.0027439101910185543
0.013486515809622924
0.003588746716895062
0.005926476918729028
0.004955369641656685
0.003983079716826578
0.0019415540295904163
0.0047813052328994935
0.00522725763773525
0.01350180374516909
0.0012316451136618173
0.006121651707188571
0.0007471613024021222
0.005574753224976374
0.0019259898173424965
0.005821761453138358
0.0026055576798573415
0.004899159709785541
0.002305685036529059
0.008708688065111563
0.010539601072681067
0.007550944328850619
0.004713532317988786
0.00023595266160875432
0.00263023020657024
0.003949319536680924
0.004015795499030824
0.003498151224270667
0.0003149058483995494
0.010116436709873255
0.0014741431346199062
0.0041941316154049555
0.0007416002831858495
0.004902856632597462
0.00316755072035693
0.001026695141125236
0.005182973924330838
0.0014565986376549138
0.015789674465932737
0.006094090987356579
0.0012331658263780572
0.004754248433012176
0.004915105494686448
0.0015651923168114893
0.004984957388975038
0.0003144919696600603
0.0016701028681576004
0.004865149302422191
0.0027988281353296196
0.0032341178024015513
0.0023642055364321195
0.00020801039179293816
0.002074622427438826
0.00383412501222286
0.013232341239627856
0.011544858147789267
0.0003953507893520022
0.0014249124102377136
0.00224178411284296
0.01274110162923688
0.008543874120665347
9.158334581557087e-05
0.003981584136619808
0.002681994320398862
0.004996266617296575
0.009285157526939553
0.00037395391051517606
0.0023872496938355547
0.021252707654702403
0.005665415263871408
0.0032223762969993343
0.015333209328237278
0.003174476097043661
0.0010158772808638518
0.000952674816763389
0.016561224850166867