/*--------------------------------*- C++ -*----------------------------------*\
| =========                 |                                                 |
| \\      /  F ield         | OpenFOAM: The Open Source CFD Toolbox           |
|  \\    /   O peration     | Version:  2406                                  |
|   \\  /    A nd           | Website:  www.openfoam.com                      |
|    \\/     M anipulation  |                                                 |
\*---------------------------------------------------------------------------*/
FoamFile
{
    version     2.0;
    format      ascii;
    arch        "LSB;label=32;scalar=64";
    class       volScalarField;
    location    "6723";
    object      p;
}
// * * * * * * * * * * * * * * * * * * * * * * * * * * * * * * * * * * * * * //

dimensions      [0 2 -2 0 0 0 0];

internalField   nonuniform List<scalar> 
16384
(
-2.955647e-14
6.178164e-12
-2.23797e-12
-3.109794e-11
-7.914419e-11
-1.441139e-10
-2.233694e-10
-3.141825e-10
-4.139524e-10
-5.203106e-10
-6.311447e-10
-7.445995e-10
-8.590679e-10
-9.731675e-10
-1.085716e-09
-1.195708e-09
-1.302298e-09
-1.404776e-09
-1.502554e-09
-1.595143e-09
-1.682139e-09
-1.763213e-09
-1.838097e-09
-1.906574e-09
-1.968466e-09
-2.02363e-09
-2.071943e-09
-2.113304e-09
-2.147624e-09
-2.174824e-09
-2.19483e-09
-2.207571e-09
-2.212975e-09
-2.210971e-09
-2.201485e-09
-2.184444e-09
-2.159772e-09
-2.127396e-09
-2.087241e-09
-2.039236e-09
-1.983317e-09
-1.919422e-09
-1.847501e-09
-1.767516e-09
-1.679441e-09
-1.583268e-09
-1.479008e-09
-1.366693e-09
-1.24638e-09
-1.118152e-09
-9.821239e-10
-8.384406e-10
-6.87282e-10
-5.288642e-10
-3.634413e-10
-1.913068e-10
-1.279522e-11
1.717172e-10
3.618118e-10
5.570269e-10
7.568581e-10
9.607588e-10
1.168141e-09
1.378376e-09
1.590798e-09
1.804702e-09
2.019353e-09
2.23398e-09
2.44779e-09
2.659961e-09
2.869654e-09
3.076016e-09
3.278182e-09
3.475285e-09
3.666456e-09
3.850835e-09
4.027575e-09
4.195847e-09
4.354848e-09
4.503806e-09
4.641989e-09
4.768708e-09
4.883325e-09
4.98526e-09
5.073993e-09
5.149073e-09
5.210121e-09
5.256836e-09
5.288997e-09
5.306467e-09
5.309197e-09
5.297227e-09
5.270688e-09
5.229801e-09
5.174882e-09
5.106335e-09
5.024657e-09
4.930431e-09
4.824329e-09
4.707104e-09
4.57959e-09
4.442698e-09
4.297409e-09
4.144774e-09
3.985904e-09
3.821971e-09
3.654198e-09
3.483856e-09
3.312261e-09
3.140766e-09
2.970758e-09
2.803652e-09
2.640887e-09
2.48392e-09
2.334223e-09
2.193268e-09
2.062525e-09
1.943446e-09
1.83744e-09
1.745847e-09
1.669885e-09
1.610569e-09
1.568583e-09
1.544061e-09
1.536232e-09
1.542909e-09
1.559554e-09
1.576504e-09
-6.305608e-12
-6.694668e-14
-8.136249e-12
-3.501524e-11
-7.884995e-11
-1.377017e-10
-2.094465e-10
-2.918303e-10
-3.826427e-10
-4.798188e-10
-5.814768e-10
-6.859311e-10
-7.916966e-10
-8.974771e-10
-1.002149e-09
-1.104746e-09
-1.204443e-09
-1.300538e-09
-1.39244e-09
-1.479653e-09
-1.561761e-09
-1.638419e-09
-1.709341e-09
-1.774293e-09
-1.833078e-09
-1.885532e-09
-1.931517e-09
-1.970915e-09
-2.003623e-09
-2.029548e-09
-2.048607e-09
-2.060719e-09
-2.065805e-09
-2.063787e-09
-2.054589e-09
-2.038135e-09
-2.01435e-09
-1.983161e-09
-1.944495e-09
-1.898287e-09
-1.844472e-09
-1.782997e-09
-1.713815e-09
-1.636893e-09
-1.552211e-09
-1.459766e-09
-1.359572e-09
-1.251665e-09
-1.136104e-09
-1.012977e-09
-8.82395e-10
-7.445043e-10
-5.99482e-10
-4.475398e-10
-2.889257e-10
-1.239251e-10
4.713758e-11
2.238984e-10
4.059531e-10
5.928568e-10
7.84124e-10
9.792297e-10
1.177609e-09
1.37866e-09
1.581744e-09
1.786188e-09
1.991287e-09
2.196307e-09
2.400488e-09
2.603047e-09
2.803185e-09
3.000089e-09
3.192935e-09
3.380898e-09
3.563152e-09
3.738881e-09
3.90728e-09
4.067562e-09
4.218966e-09
4.360763e-09
4.492259e-09
4.612803e-09
4.721795e-09
4.818687e-09
4.902991e-09
4.974285e-09
5.032216e-09
5.076504e-09
5.106948e-09
5.123424e-09
5.125896e-09
5.11441e-09
5.089098e-09
5.050181e-09
4.997967e-09
4.93285e-09
4.855311e-09
4.765914e-09
4.665306e-09
4.554211e-09
4.433431e-09
4.303838e-09
4.166372e-09
4.022038e-09
3.871899e-09
3.71707e-09
3.558718e-09
3.398053e-09
3.236321e-09
3.074805e-09
2.914816e-09
2.757685e-09
2.604762e-09
2.457408e-09
2.316986e-09
2.184852e-09
2.062345e-09
1.950766e-09
1.851363e-09
1.765287e-09
1.693554e-09
1.636965e-09
1.596002e-09
1.570665e-09
1.560217e-09
1.563013e-09
1.576492e-09
1.593445e-09
2.053968e-12
7.93265e-12
-1.628449e-13
-2.579974e-11
-6.650571e-11
-1.204954e-10
-1.860101e-10
-2.611749e-10
-3.44117e-10
-4.330524e-10
-5.263281e-10
-6.224387e-10
-7.200336e-10
-8.179154e-10
-9.15033e-10
-1.010472e-09
-1.103441e-09
-1.193261e-09
-1.279349e-09
-1.36121e-09
-1.438426e-09
-1.510644e-09
-1.577569e-09
-1.638952e-09
-1.694584e-09
-1.744286e-09
-1.787906e-09
-1.825314e-09
-1.856395e-09
-1.881047e-09
-1.899173e-09
-1.910686e-09
-1.915501e-09
-1.913534e-09
-1.904707e-09
-1.888941e-09
-1.86616e-09
-1.83629e-09
-1.799263e-09
-1.755012e-09
-1.703477e-09
-1.644608e-09
-1.578361e-09
-1.504707e-09
-1.423629e-09
-1.335127e-09
-1.239219e-09
-1.135941e-09
-1.025355e-09
-9.075458e-10
-7.826266e-10
-6.507391e-10
-5.120565e-10
-3.667847e-10
-2.151641e-10
-5.747062e-11
1.059829e-10
2.748458e-10
4.487296e-10
6.272068e-10
8.098122e-10
9.960422e-10
1.185357e-09
1.37718e-09
1.5709e-09
1.765876e-09
1.961433e-09
2.156872e-09
2.351468e-09
2.544476e-09
2.735133e-09
2.922665e-09
3.106289e-09
3.28522e-09
3.458673e-09
3.625873e-09
3.786055e-09
3.938474e-09
4.082407e-09
4.217165e-09
4.34209e-09
4.456569e-09
4.560033e-09
4.651968e-09
4.731914e-09
4.799477e-09
4.854327e-09
4.896205e-09
4.924926e-09
4.940382e-09
4.942544e-09
4.931466e-09
4.907281e-09
4.870207e-09
4.820548e-09
4.758685e-09
4.685085e-09
4.600292e-09
4.50493e-09
4.399695e-09
4.285357e-09
4.16275e-09
4.032776e-09
3.896393e-09
3.754615e-09
3.608506e-09
3.459173e-09
3.307764e-09
3.155462e-09
3.003475e-09
2.853038e-09
2.7054e-09
2.561823e-09
2.423569e-09
2.291898e-09
2.168051e-09
2.053243e-09
1.94864e-09
1.855342e-09
1.774349e-09
1.70652e-09
1.652516e-09
1.612727e-09
1.587166e-09
1.575327e-09
1.576356e-09
1.589924e-09
1.610137e-09
3.101749e-11
3.48535e-11
2.53584e-11
-4.301998e-13
-3.984683e-11
-9.116212e-11
-1.528086e-10
-2.231512e-10
-3.005595e-10
-3.83471e-10
-4.70426e-10
-5.600808e-10
-6.512157e-10
-7.427367e-10
-8.336729e-10
-9.231712e-10
-1.010487e-09
-1.094973e-09
-1.17607e-09
-1.253297e-09
-1.326245e-09
-1.394564e-09
-1.457959e-09
-1.516178e-09
-1.569005e-09
-1.616257e-09
-1.657775e-09
-1.69342e-09
-1.723071e-09
-1.746617e-09
-1.763959e-09
-1.775001e-09
-1.779653e-09
-1.77783e-09
-1.769448e-09
-1.754427e-09
-1.73269e-09
-1.704163e-09
-1.668776e-09
-1.626464e-09
-1.577168e-09
-1.520837e-09
-1.45743e-09
-1.386919e-09
-1.309287e-09
-1.224536e-09
-1.132682e-09
-1.033762e-09
-9.278355e-10
-8.149855e-10
-6.953213e-10
-5.689803e-10
-4.361297e-10
-2.969682e-10
-1.517274e-10
-6.73081e-13
1.558938e-10
3.176361e-10
4.841801e-10
6.551155e-10
8.299952e-10
1.008336e-09
1.189619e-09
1.373292e-09
1.558769e-09
1.745433e-09
1.932639e-09
2.119715e-09
2.305967e-09
2.490679e-09
2.673123e-09
2.852554e-09
3.028224e-09
3.199381e-09
3.365273e-09
3.525157e-09
3.678302e-09
3.823996e-09
3.961547e-09
4.090297e-09
4.209617e-09
4.318923e-09
4.417672e-09
4.505375e-09
4.581597e-09
4.645962e-09
4.698159e-09
4.737946e-09
4.76515e-09
4.779674e-09
4.781496e-09
4.770674e-09
4.747342e-09
4.711718e-09
4.664096e-09
4.604851e-09
4.534436e-09
4.453381e-09
4.362286e-09
4.261828e-09
4.152746e-09
4.035847e-09
3.911995e-09
3.782114e-09
3.647173e-09
3.508191e-09
3.366228e-09
3.222375e-09
3.077759e-09
2.933527e-09
2.790844e-09
2.650891e-09
2.514851e-09
2.383904e-09
2.25922e-09
2.141949e-09
2.033205e-09
1.934053e-09
1.845489e-09
1.768414e-09
1.703608e-09
1.651687e-09
1.613064e-09
1.587888e-09
1.575968e-09
1.577167e-09
1.592766e-09
1.617054e-09
7.95261e-11
7.901031e-11
6.609738e-11
3.857816e-11
-1.125503e-12
-5.140983e-11
-1.10858e-10
-1.780273e-10
-2.514917e-10
-3.298816e-10
-4.119098e-10
-4.96382e-10
-5.822058e-10
-6.683932e-10
-7.540599e-10
-8.384218e-10
-9.207878e-10
-1.000553e-09
-1.077189e-09
-1.150241e-09
-1.219316e-09
-1.284077e-09
-1.344236e-09
-1.399544e-09
-1.449787e-09
-1.49478e-09
-1.534363e-09
-1.568395e-09
-1.596751e-09
-1.619316e-09
-1.635986e-09
-1.646663e-09
-1.651253e-09
-1.649666e-09
-1.641819e-09
-1.627627e-09
-1.607014e-09
-1.579902e-09
-1.546222e-09
-1.505906e-09
-1.458896e-09
-1.405141e-09
-1.344598e-09
-1.277239e-09
-1.203046e-09
-1.122018e-09
-1.03417e-09
-9.395366e-10
-8.381733e-10
-7.301589e-10
-6.155975e-10
-4.946201e-10
-3.673867e-10
-2.340871e-10
-9.494317e-11
4.979055e-11
1.998255e-10
3.548384e-10
5.144707e-10
6.783285e-10
8.459829e-10
1.01697e-09
1.190791e-09
1.366915e-09
1.54478e-09
1.723792e-09
1.903332e-09
2.082752e-09
2.261386e-09
2.438545e-09
2.613527e-09
2.785618e-09
2.954096e-09
3.118237e-09
3.27732e-09
3.430628e-09
3.577458e-09
3.717125e-09
3.848964e-09
3.972341e-09
4.086653e-09
4.191338e-09
4.285876e-09
4.369797e-09
4.442684e-09
4.50418e-09
4.553987e-09
4.591876e-09
4.617684e-09
4.631322e-09
4.632774e-09
4.6221e-09
4.599435e-09
4.564994e-09
4.519066e-09
4.462017e-09
4.39429e-09
4.316398e-09
4.228928e-09
4.132532e-09
4.027928e-09
3.915894e-09
3.797267e-09
3.672933e-09
3.543827e-09
3.410926e-09
3.275244e-09
3.137828e-09
2.999749e-09
2.862099e-09
2.725984e-09
2.592518e-09
2.462817e-09
2.337988e-09
2.219124e-09
2.107293e-09
2.003528e-09
1.908813e-09
1.824067e-09
1.750126e-09
1.687725e-09
1.637476e-09
1.599854e-09
1.575161e-09
1.563485e-09
1.565204e-09
1.582585e-09
1.609824e-09
1.455743e-10
1.386434e-10
1.204163e-10
8.963413e-11
4.819144e-11
-2.502106e-12
-6.117728e-11
-1.265672e-10
-1.974305e-10
-2.725727e-10
-3.508648e-10
-4.312529e-10
-5.127671e-10
-5.945257e-10
-6.757334e-10
-7.556797e-10
-8.337334e-10
-9.093378e-10
-9.820052e-10
-1.051311e-09
-1.116888e-09
-1.178418e-09
-1.235625e-09
-1.288271e-09
-1.336149e-09
-1.379077e-09
-1.416899e-09
-1.449473e-09
-1.476675e-09
-1.498389e-09
-1.514509e-09
-1.524934e-09
-1.529569e-09
-1.528322e-09
-1.521107e-09
-1.507838e-09
-1.488436e-09
-1.462823e-09
-1.430925e-09
-1.392675e-09
-1.348011e-09
-1.29688e-09
-1.23924e-09
-1.175057e-09
-1.104313e-09
-1.027001e-09
-9.431329e-10
-8.52739e-10
-7.558695e-10
-6.525971e-10
-5.43019e-10
-4.272585e-10
-3.054665e-10
-1.778232e-10
-4.453941e-11
9.414233e-11
2.379465e-10
3.86564e-10
5.396517e-10
6.968321e-10
8.576936e-10
1.021791e-09
1.188644e-09
1.357744e-09
1.528548e-09
1.700486e-09
1.872959e-09
2.045344e-09
2.216997e-09
2.387255e-09
2.555438e-09
2.720858e-09
2.882816e-09
3.040613e-09
3.193551e-09
3.340937e-09
3.482092e-09
3.61635e-09
3.743072e-09
3.861642e-09
3.971477e-09
4.072034e-09
4.16281e-09
4.243352e-09
4.313257e-09
4.37218e-09
4.419836e-09
4.456003e-09
4.480529e-09
4.49333e-09
4.494392e-09
4.483778e-09
4.461622e-09
4.428136e-09
4.383604e-09
4.328386e-09
4.262912e-09
4.187685e-09
4.103274e-09
4.010314e-09
3.909503e-09
3.801595e-09
3.687398e-09
3.567771e-09
3.443614e-09
3.315868e-09
3.185508e-09
3.053537e-09
2.920979e-09
2.788875e-09
2.658278e-09
2.530245e-09
2.405827e-09
2.286069e-09
2.171997e-09
2.06461e-09
1.964873e-09
1.873703e-09
1.791961e-09
1.72044e-09
1.659848e-09
1.610806e-09
1.573849e-09
1.549408e-09
1.537778e-09
1.539657e-09
1.557822e-09
1.5864e-09
2.267662e-10
2.118135e-10
1.866968e-10
1.512852e-10
1.067957e-10
5.440484e-11
-4.768709e-12
-6.962528e-11
-1.390926e-10
-2.121366e-10
-2.877755e-10
-3.650887e-10
-4.43225e-10
-5.214063e-10
-5.98927e-10
-6.751524e-10
-7.495157e-10
-8.215139e-10
-8.90705e-10
-9.567018e-10
-1.019167e-09
-1.077806e-09
-1.132364e-09
-1.182615e-09
-1.228365e-09
-1.269441e-09
-1.305693e-09
-1.336984e-09
-1.363192e-09
-1.384201e-09
-1.399907e-09
-1.410207e-09
-1.415006e-09
-1.414212e-09
-1.407735e-09
-1.39549e-09
-1.377392e-09
-1.353363e-09
-1.323326e-09
-1.287211e-09
-1.244954e-09
-1.196498e-09
-1.141796e-09
-1.080812e-09
-1.013521e-09
-9.399143e-10
-8.599962e-10
-7.737907e-10
-6.813413e-10
-5.827131e-10
-4.779951e-10
-3.673011e-10
-2.507719e-10
-1.285768e-10
-9.146488e-13
1.319847e-10
2.698592e-10
4.124145e-10
5.593227e-10
7.102225e-10
8.647193e-10
1.022385e-09
1.18276e-09
1.345351e-09
1.509637e-09
1.675067e-09
1.841062e-09
2.007021e-09
2.172319e-09
2.336314e-09
2.498347e-09
2.657751e-09
2.813847e-09
2.965957e-09
3.1134e-09
3.255505e-09
3.39161e-09
3.521069e-09
3.643256e-09
3.757574e-09
3.863456e-09
3.960371e-09
4.047831e-09
4.125394e-09
4.192668e-09
4.249317e-09
4.295065e-09
4.329698e-09
4.353066e-09
4.36509e-09
4.365759e-09
4.355135e-09
4.333353e-09
4.300619e-09
4.257213e-09
4.203488e-09
4.139865e-09
4.066835e-09
3.984955e-09
3.894844e-09
3.79718e-09
3.692697e-09
3.58218e-09
3.466461e-09
3.346412e-09
3.222942e-09
3.096989e-09
2.969518e-09
2.841512e-09
2.713968e-09
2.58789e-09
2.464283e-09
2.344145e-09
2.228465e-09
2.118209e-09
2.014319e-09
1.917701e-09
1.829222e-09
1.749695e-09
1.679879e-09
1.620469e-09
1.572095e-09
1.535336e-09
1.510709e-09
1.498647e-09
1.500016e-09
1.517768e-09
1.546082e-09
3.205761e-10
2.964143e-10
2.631661e-10
2.219751e-10
1.733123e-10
1.181068e-10
5.732769e-11
-8.085405e-12
-7.721681e-11
-1.491806e-10
-2.231331e-10
-2.982806e-10
-3.73886e-10
-4.492724e-10
-5.238226e-10
-5.969792e-10
-6.682422e-10
-7.371668e-10
-8.033603e-10
-8.664774e-10
-9.262153e-10
-9.823084e-10
-1.034524e-09
-1.082657e-09
-1.126529e-09
-1.165979e-09
-1.200866e-09
-1.231061e-09
-1.256446e-09
-1.276911e-09
-1.292351e-09
-1.302666e-09
-1.30776e-09
-1.307541e-09
-1.301918e-09
-1.290804e-09
-1.274112e-09
-1.25176e-09
-1.223669e-09
-1.189765e-09
-1.149979e-09
-1.10425e-09
-1.052528e-09
-9.947688e-10
-9.309432e-10
-8.61034e-10
-7.850399e-10
-7.029766e-10
-6.148792e-10
-5.208039e-10
-4.208296e-10
-3.150597e-10
-2.036238e-10
-8.667899e-11
3.558846e-11
1.629621e-10
2.951942e-10
4.320048e-10
5.730816e-10
7.180793e-10
8.666197e-10
1.018292e-09
1.172653e-09
1.329228e-09
1.487514e-09
1.646976e-09
1.807056e-09
1.967169e-09
2.126708e-09
2.28505e-09
2.441553e-09
2.595567e-09
2.74643e-09
2.89348e-09
3.036052e-09
3.17349e-09
3.305146e-09
3.430388e-09
3.548603e-09
3.659206e-09
3.761641e-09
3.855387e-09
3.939965e-09
4.014941e-09
4.079931e-09
4.134606e-09
4.178693e-09
4.211983e-09
4.234329e-09
4.245653e-09
4.245944e-09
4.235265e-09
4.213747e-09
4.181592e-09
4.139077e-09
4.086547e-09
4.024414e-09
3.95316e-09
3.87333e-09
3.785528e-09
3.690418e-09
3.588716e-09
3.481185e-09
3.368635e-09
3.251913e-09
3.131899e-09
3.009501e-09
2.88565e-09
2.761293e-09
2.637386e-09
2.514892e-09
2.394771e-09
2.277974e-09
2.165439e-09
2.058084e-09
1.956801e-09
1.862448e-09
1.775847e-09
1.697773e-09
1.628957e-09
1.570081e-09
1.521783e-09
1.484663e-09
1.459289e-09
1.446167e-09
1.446228e-09
1.462372e-09
1.488989e-09
4.245637e-10
3.903436e-10
3.480216e-10
3.001204e-10
2.463417e-10
1.873708e-10
1.240365e-10
5.712676e-11
-1.258975e-11
-8.436551e-11
-1.574866e-10
-2.312798e-10
-3.051172e-10
-3.784198e-10
-4.506575e-10
-5.213506e-10
-5.900677e-10
-6.564245e-10
-7.200806e-10
-7.807354e-10
-8.38124e-10
-8.920133e-10
-9.421974e-10
-9.884948e-10
-1.030745e-09
-1.068804e-09
-1.102542e-09
-1.13184e-09
-1.156588e-09
-1.176679e-09
-1.192013e-09
-1.202494e-09
-1.208025e-09
-1.208515e-09
-1.203872e-09
-1.194007e-09
-1.17883e-09
-1.158257e-09
-1.132204e-09
-1.100593e-09
-1.06335e-09
-1.02041e-09
-9.717135e-10
-9.172125e-10
-8.568689e-10
-7.906579e-10
-7.185694e-10
-6.406102e-10
-5.568055e-10
-4.672009e-10
-3.718643e-10
-2.708874e-10
-1.643874e-10
-5.250854e-11
6.457652e-11
1.866653e-10
3.135245e-10
4.448894e-10
5.80463e-10
7.199156e-10
8.628851e-10
1.008977e-09
1.157765e-09
1.30879e-09
1.461565e-09
1.615572e-09
1.770269e-09
1.925087e-09
2.079434e-09
2.232702e-09
2.384264e-09
2.533484e-09
2.679713e-09
2.822302e-09
2.960599e-09
3.093957e-09
3.221741e-09
3.343327e-09
3.458112e-09
3.565518e-09
3.664996e-09
3.756033e-09
3.838155e-09
3.910932e-09
3.973984e-09
4.026984e-09
4.069664e-09
4.101812e-09
4.123286e-09
4.134004e-09
4.133956e-09
4.123201e-09
4.101868e-09
4.070155e-09
4.028332e-09
3.976739e-09
3.91578e-09
3.845928e-09
3.767717e-09
3.68174e-09
3.588646e-09
3.489136e-09
3.383957e-09
3.273897e-09
3.159783e-09
3.042469e-09
2.922838e-09
2.801791e-09
2.680243e-09
2.559117e-09
2.439338e-09
2.321826e-09
2.207492e-09
2.097233e-09
1.991922e-09
1.89241e-09
1.799513e-09
1.714014e-09
1.636658e-09
1.568149e-09
1.509154e-09
1.460307e-09
1.422218e-09
1.395474e-09
1.380606e-09
1.378541e-09
1.391987e-09
1.415688e-09
5.364489e-10
4.915836e-10
4.394947e-10
3.841513e-10
3.244866e-10
2.60956e-10
1.94262e-10
1.250519e-10
5.395548e-11
-1.840978e-11
-9.145205e-11
-1.646115e-10
-2.373645e-10
-3.092264e-10
-3.797531e-10
-4.485422e-10
-5.152318e-10
-5.794991e-10
-6.410575e-10
-6.996535e-10
-7.550627e-10
-8.070868e-10
-8.555504e-10
-9.002976e-10
-9.411894e-10
-9.781001e-10
-1.010915e-09
-1.039526e-09
-1.063831e-09
-1.083731e-09
-1.099133e-09
-1.10994e-09
-1.116062e-09
-1.117405e-09
-1.113878e-09
-1.105389e-09
-1.091847e-09
-1.073163e-09
-1.049249e-09
-1.020022e-09
-9.85403e-10
-9.453188e-10
-8.997039e-10
-8.485015e-10
-7.91665e-10
-7.291604e-10
-6.609678e-10
-5.870833e-10
-5.075211e-10
-4.223153e-10
-3.315213e-10
-2.352181e-10
-1.335094e-10
-2.652567e-11
8.557451e-11
2.026033e-10
3.243424e-10
4.505422e-10
5.809211e-10
7.151652e-10
8.529278e-10
9.938299e-10
1.13746e-09
1.283376e-09
1.431105e-09
1.580144e-09
1.729964e-09
1.88001e-09
2.029705e-09
2.178451e-09
2.325635e-09
2.470629e-09
2.612799e-09
2.751501e-09
2.886094e-09
3.015939e-09
3.140407e-09
3.258879e-09
3.37076e-09
3.475474e-09
3.572477e-09
3.661257e-09
3.741343e-09
3.812307e-09
3.873768e-09
3.925401e-09
3.966935e-09
3.998158e-09
4.018925e-09
4.029154e-09
4.028829e-09
4.018007e-09
3.996812e-09
3.965437e-09
3.924148e-09
3.873275e-09
3.813219e-09
3.744442e-09
3.66747e-09
3.582885e-09
3.491324e-09
3.393475e-09
3.290069e-09
3.18188e-09
3.069713e-09
2.954404e-09
2.836813e-09
2.717814e-09
2.598297e-09
2.479154e-09
2.361279e-09
2.245559e-09
2.132869e-09
2.02407e-09
1.919998e-09
1.821467e-09
1.729258e-09
1.644121e-09
1.566772e-09
1.49789e-09
1.438125e-09
1.388098e-09
1.348414e-09
1.319657e-09
1.302358e-09
1.297391e-09
1.307187e-09
1.326973e-09
6.541345e-10
5.982339e-10
5.358796e-10
4.725303e-10
4.06364e-10
3.376227e-10
2.668979e-10
1.947067e-10
1.215497e-10
4.792206e-11
-2.569898e-11
-9.88605e-11
-1.711379e-10
-2.421382e-10
-3.115013e-10
-3.789013e-10
-4.440456e-10
-5.066732e-10
-5.665524e-10
-6.234777e-10
-6.772671e-10
-7.277596e-10
-7.74812e-10
-8.182965e-10
-8.580979e-10
-8.941102e-10
-9.262346e-10
-9.543766e-10
-9.784447e-10
-9.983489e-10
-1.014e-09
-1.025309e-09
-1.032184e-09
-1.034536e-09
-1.032272e-09
-1.025298e-09
-1.01352e-09
-9.968445e-10
-9.751803e-10
-9.484376e-10
-9.165309e-10
-8.793796e-10
-8.369098e-10
-7.890554e-10
-7.357602e-10
-6.769795e-10
-6.126825e-10
-5.428535e-10
-4.674946e-10
-3.866267e-10
-3.00292e-10
-2.085557e-10
-1.115072e-10
-9.262481e-12
9.803493e-11
2.102123e-10
3.270665e-10
4.483635e-10
5.738371e-10
7.031886e-10
8.360868e-10
9.721677e-10
1.111035e-09
1.252259e-09
1.395382e-09
1.539914e-09
1.685338e-09
1.831111e-09
1.976667e-09
2.121419e-09
2.264762e-09
2.406078e-09
2.544738e-09
2.680108e-09
2.811549e-09
2.938428e-09
3.060119e-09
3.176007e-09
3.285496e-09
3.388014e-09
3.483015e-09
3.569988e-09
3.648458e-09
3.717997e-09
3.778222e-09
3.828803e-09
3.869467e-09
3.899998e-09
3.920246e-09
3.930123e-09
3.929612e-09
3.918762e-09
3.897692e-09
3.86659e-09
3.825714e-09
3.77539e-09
3.716011e-09
3.64803e-09
3.571966e-09
3.488391e-09
3.397933e-09
3.301268e-09
3.199115e-09
3.092232e-09
2.98141e-09
2.867469e-09
2.751247e-09
2.633599e-09
2.515391e-09
2.397491e-09
2.280766e-09
2.166073e-09
2.05426e-09
1.946154e-09
1.842563e-09
1.744266e-09
1.652015e-09
1.566531e-09
1.488503e-09
1.418587e-09
1.357412e-09
1.30558e-09
1.263681e-09
1.232281e-09
1.211895e-09
1.203323e-09
1.208663e-09
1.223729e-09
7.756946e-10
7.085157e-10
6.355485e-10
5.637687e-10
4.906186e-10
4.161426e-10
3.408343e-10
2.650921e-10
1.892966e-10
1.13829e-10
3.905896e-11
-3.46615e-11
-1.070027e-10
-1.776601e-10
-2.463556e-10
-3.128383e-10
-3.76884e-10
-4.382931e-10
-4.968888e-10
-5.525149e-10
-6.050329e-10
-6.543204e-10
-7.002682e-10
-7.427781e-10
-7.817597e-10
-8.171283e-10
-8.488025e-10
-8.767025e-10
-9.007484e-10
-9.208598e-10
-9.369545e-10
-9.48948e-10
-9.567532e-10
-9.6028e-10
-9.594356e-10
-9.541247e-10
-9.442505e-10
-9.297152e-10
-9.104214e-10
-8.862735e-10
-8.571783e-10
-8.23047e-10
-7.83796e-10
-7.393492e-10
-6.896396e-10
-6.34611e-10
-5.742202e-10
-5.084388e-10
-4.372554e-10
-3.606771e-10
-2.787316e-10
-1.914692e-10
-9.896444e-11
-1.317711e-12
1.013429e-10
2.088602e-10
3.210469e-10
4.376845e-10
5.585223e-10
6.832771e-10
8.116323e-10
9.432385e-10
1.077713e-09
1.21464e-09
1.353574e-09
1.494037e-09
1.635522e-09
1.777498e-09
1.919407e-09
2.060669e-09
2.200688e-09
2.338851e-09
2.474533e-09
2.607103e-09
2.735928e-09
2.860373e-09
2.979814e-09
3.093635e-09
3.201239e-09
3.30205e-09
3.39552e-09
3.481134e-09
3.558413e-09
3.626922e-09
3.686274e-09
3.736132e-09
3.776217e-09
3.806308e-09
3.826246e-09
3.835939e-09
3.835361e-09
3.824555e-09
3.803632e-09
3.772776e-09
3.732237e-09
3.682333e-09
3.623449e-09
3.556035e-09
3.480598e-09
3.397704e-09
3.307971e-09
3.212067e-09
3.110699e-09
3.004614e-09
2.894591e-09
2.781434e-09
2.665967e-09
2.549027e-09
2.431461e-09
2.314117e-09
2.197838e-09
2.08346e-09
1.971804e-09
1.863672e-09
1.759844e-09
1.661074e-09
1.568087e-09
1.481579e-09
1.402212e-09
1.330623e-09
1.267416e-09
1.213173e-09
1.16846e-09
1.133818e-09
1.109738e-09
1.096935e-09
1.097146e-09
1.106852e-09
8.99354e-10
8.207618e-10
7.369535e-10
6.564335e-10
5.7593e-10
4.953046e-10
4.149644e-10
3.351997e-10
2.562803e-10
1.784816e-10
1.020722e-10
2.730805e-11
-4.557215e-11
-1.163491e-10
-1.848243e-10
-2.508201e-10
-3.141792e-10
-3.747625e-10
-4.324482e-10
-4.871294e-10
-5.387122e-10
-5.871136e-10
-6.322594e-10
-6.740814e-10
-7.125154e-10
-7.474986e-10
-7.789684e-10
-8.068603e-10
-8.311074e-10
-8.51639e-10
-8.683809e-10
-8.81254e-10
-8.901744e-10
-8.950533e-10
-8.957976e-10
-8.923102e-10
-8.844906e-10
-8.722368e-10
-8.554453e-10
-8.340134e-10
-8.078398e-10
-7.768261e-10
-7.408788e-10
-6.999106e-10
-6.538426e-10
-6.026058e-10
-5.46144e-10
-4.844148e-10
-4.173924e-10
-3.450688e-10
-2.674565e-10
-1.845901e-10
-9.652796e-11
-3.35466e-12
9.481791e-11
1.978488e-10
3.055668e-10
4.177692e-10
5.34221e-10
6.54654e-10
7.787665e-10
9.062228e-10
1.036654e-09
1.169656e-09
1.304795e-09
1.441605e-09
1.579587e-09
1.718219e-09
1.85695e-09
1.995207e-09
2.132398e-09
2.267913e-09
2.401131e-09
2.531422e-09
2.65815e-09
2.780682e-09
2.898389e-09
3.010654e-09
3.116872e-09
3.216464e-09
3.308875e-09
3.393582e-09
3.470099e-09
3.537983e-09
3.596838e-09
3.646319e-09
3.686137e-09
3.716062e-09
3.735927e-09
3.74563e-09
3.745137e-09
3.734481e-09
3.713767e-09
3.68317e-09
3.642931e-09
3.593363e-09
3.534843e-09
3.467811e-09
3.392771e-09
3.310279e-09
3.220947e-09
3.125433e-09
3.024437e-09
2.918696e-09
2.808978e-09
2.696076e-09
2.580802e-09
2.46398e-09
2.34644e-09
2.229014e-09
2.112528e-09
1.997798e-09
1.885625e-09
1.77679e-09
1.67205e-09
1.572137e-09
1.477754e-09
1.389574e-09
1.308238e-09
1.23436e-09
1.168523e-09
1.111287e-09
1.06319e-09
1.024745e-09
9.96418e-10
9.78836e-10
9.733621e-10
9.772021e-10
1.023472e-09
9.334097e-10
8.386255e-10
7.491494e-10
6.610165e-10
5.739194e-10
4.881895e-10
4.04018e-10
3.215724e-10
2.410293e-10
1.62562e-10
8.633468e-11
1.249892e-11
-5.880832e-11
-1.274651e-10
-1.93365e-10
-2.564158e-10
-3.165383e-10
-3.736651e-10
-4.277388e-10
-4.787101e-10
-5.265357e-10
-5.711767e-10
-6.125956e-10
-6.507546e-10
-6.856137e-10
-7.171294e-10
-7.452536e-10
-7.699325e-10
-7.911063e-10
-8.087087e-10
-8.226661e-10
-8.328981e-10
-8.393174e-10
-8.418302e-10
-8.403374e-10
-8.347351e-10
-8.24916e-10
-8.107704e-10
-7.921876e-10
-7.690574e-10
-7.412713e-10
-7.087247e-10
-6.713183e-10
-6.289602e-10
-5.815682e-10
-5.290716e-10
-4.714131e-10
-4.085513e-10
-3.404625e-10
-2.671428e-10
-1.886102e-10
-1.049066e-10
-1.609948e-11
7.771593e-11
1.764154e-10
2.798442e-10
3.878157e-10
5.001107e-10
6.164761e-10
7.366247e-10
8.602345e-10
9.869489e-10
1.116377e-09
1.248094e-09
1.381644e-09
1.516537e-09
1.652258e-09
1.788261e-09
1.923978e-09
2.058819e-09
2.192177e-09
2.323429e-09
2.451945e-09
2.577087e-09
2.698217e-09
2.814701e-09
2.925913e-09
3.031245e-09
3.130106e-09
3.221932e-09
3.306192e-09
3.382387e-09
3.450064e-09
3.508815e-09
3.558283e-09
3.598168e-09
3.628228e-09
3.648283e-09
3.658223e-09
3.658e-09
3.647639e-09
3.627234e-09
3.596949e-09
3.55702e-09
3.50775e-09
3.449507e-09
3.382726e-09
3.307901e-09
3.225585e-09
3.136379e-09
3.040937e-09
2.939951e-09
2.834151e-09
2.724297e-09
2.611174e-09
2.495582e-09
2.378337e-09
2.260256e-09
2.142159e-09
2.024858e-09
1.909154e-09
1.795832e-09
1.685656e-09
1.579366e-09
1.477676e-09
1.381269e-09
1.2908e-09
1.206891e-09
1.130136e-09
1.061098e-09
1.000314e-09
9.48297e-10
9.055297e-10
8.724554e-10
8.496172e-10
8.379991e-10
8.355765e-10
1.146522e-09
1.044992e-09
9.39168e-10
8.405955e-10
7.446348e-10
6.508225e-10
5.594231e-10
4.705371e-10
3.842365e-10
3.006051e-10
2.197254e-10
1.416742e-10
6.651945e-11
-5.680827e-12
-7.487873e-11
-1.410366e-10
-2.041258e-10
-2.64126e-10
-3.210236e-10
-3.748102e-10
-4.254808e-10
-4.73032e-10
-5.174597e-10
-5.587573e-10
-5.969135e-10
-6.319115e-10
-6.637275e-10
-6.923298e-10
-7.176785e-10
-7.397245e-10
-7.584096e-10
-7.73666e-10
-7.854166e-10
-7.935753e-10
-7.980478e-10
-7.987327e-10
-7.955222e-10
-7.883033e-10
-7.769593e-10
-7.613712e-10
-7.41419e-10
-7.169833e-10
-6.879477e-10
-6.541998e-10
-6.156342e-10
-5.721541e-10
-5.236734e-10
-4.701191e-10
-4.114333e-10
-3.475755e-10
-2.785246e-10
-2.042812e-10
-1.248695e-10
-4.033987e-11
4.923016e-11
1.437335e-10
2.430324e-10
3.469567e-10
4.553031e-10
5.678337e-10
6.842756e-10
8.043204e-10
9.276237e-10
1.053806e-09
1.182452e-09
1.313115e-09
1.445314e-09
1.578536e-09
1.712241e-09
1.845866e-09
1.978819e-09
2.110495e-09
2.240268e-09
2.367504e-09
2.491561e-09
2.611792e-09
2.727557e-09
2.838222e-09
2.943167e-09
3.041789e-09
3.133513e-09
3.217794e-09
3.29412e-09
3.362024e-09
3.421082e-09
3.470925e-09
3.511235e-09
3.541758e-09
3.562301e-09
3.572736e-09
3.573007e-09
3.563123e-09
3.543168e-09
3.513296e-09
3.473731e-09
3.424766e-09
3.366763e-09
3.300149e-09
3.225409e-09
3.143091e-09
3.05379e-09
2.958153e-09
2.856868e-09
2.750658e-09
2.640277e-09
2.526504e-09
2.410134e-09
2.291973e-09
2.172831e-09
2.053519e-09
1.934839e-09
1.81758e-09
1.702517e-09
1.590401e-09
1.481959e-09
1.377889e-09
1.278862e-09
1.185517e-09
1.09846e-09
1.018267e-09
9.454837e-10
8.806272e-10
8.241857e-10
7.766169e-10
7.383447e-10
7.098343e-10
6.916915e-10
6.826931e-10
1.267076e-09
1.154123e-09
1.03725e-09
9.295016e-10
8.255801e-10
7.248759e-10
6.275948e-10
5.33753e-10
4.433328e-10
3.563296e-10
2.727399e-10
1.925567e-10
1.157679e-10
4.235559e-11
-2.770362e-11
-9.443879e-11
-1.578836e-10
-2.18075e-10
-2.750526e-10
-3.288561e-10
-3.795244e-10
-4.27093e-10
-4.715926e-10
-5.13047e-10
-5.514717e-10
-5.86873e-10
-6.192469e-10
-6.485785e-10
-6.748414e-10
-6.979975e-10
-7.179964e-10
-7.34776e-10
-7.482624e-10
-7.583706e-10
-7.650056e-10
-7.680632e-10
-7.674312e-10
-7.629908e-10
-7.546174e-10
-7.421829e-10
-7.255569e-10
-7.046085e-10
-6.792083e-10
-6.492305e-10
-6.145549e-10
-5.750692e-10
-5.306713e-10
-4.812712e-10
-4.267938e-10
-3.671807e-10
-3.023927e-10
-2.324123e-10
-1.572456e-10
-7.692431e-11
8.491857e-12
9.891372e-11
1.942209e-10
2.942601e-10
3.988442e-10
5.077508e-10
6.207212e-10
7.374602e-10
8.576358e-10
9.808791e-10
1.106785e-09
1.234913e-09
1.36479e-09
1.495908e-09
1.62773e-09
1.759693e-09
1.891206e-09
2.021661e-09
2.15043e-09
2.276871e-09
2.400336e-09
2.520169e-09
2.63572e-09
2.746342e-09
2.851402e-09
2.950285e-09
3.042399e-09
3.127183e-09
3.204109e-09
3.272692e-09
3.332492e-09
3.383121e-09
3.424245e-09
3.455591e-09
3.47695e-09
3.488179e-09
3.489204e-09
3.480022e-09
3.460702e-09
3.431385e-09
3.392284e-09
3.343682e-09
3.285931e-09
3.219449e-09
3.144716e-09
3.06227e-09
2.972703e-09
2.876657e-09
2.774813e-09
2.667892e-09
2.556644e-09
2.441843e-09
2.32428e-09
2.204756e-09
2.084079e-09
1.96305e-09
1.842468e-09
1.723115e-09
1.605757e-09
1.491137e-09
1.379973e-09
1.272955e-09
1.170741e-09
1.073959e-09
9.832044e-10
8.990393e-10
8.219945e-10
7.525694e-10
6.912323e-10
6.384195e-10
5.945418e-10
5.599938e-10
5.350081e-10
5.191843e-10
1.383788e-09
1.259489e-09
1.131599e-09
1.014645e-09
9.02684e-10
7.949685e-10
6.916511e-10
5.926693e-10
4.979201e-10
4.07315e-10
3.207678e-10
2.381914e-10
1.59497e-10
8.459362e-11
1.338874e-11
-5.421156e-11
-1.183016e-10
-1.789747e-10
-2.36322e-10
-2.904309e-10
-3.413826e-10
-3.892512e-10
-4.341014e-10
-4.759871e-10
-5.149504e-10
-5.510204e-10
-5.842128e-10
-6.145293e-10
-6.41957e-10
-6.664682e-10
-6.880205e-10
-7.06557e-10
-7.220068e-10
-7.342858e-10
-7.432977e-10
-7.489354e-10
-7.510818e-10
-7.496112e-10
-7.44391e-10
-7.352832e-10
-7.221463e-10
-7.048369e-10
-6.832121e-10
-6.571317e-10
-6.2646e-10
-5.910682e-10
-5.508372e-10
-5.056593e-10
-4.554409e-10
-4.001051e-10
-3.395939e-10
-2.738706e-10
-2.029221e-10
-1.267614e-10
-4.542911e-11
4.100389e-11
1.324352e-10
2.287289e-10
3.297143e-10
4.351845e-10
5.448956e-10
6.585656e-10
7.758744e-10
8.964638e-10
1.019938e-09
1.145863e-09
1.273772e-09
1.403162e-09
1.533497e-09
1.664213e-09
1.794721e-09
1.924406e-09
2.052635e-09
2.178759e-09
2.30212e-09
2.422054e-09
2.537894e-09
2.648981e-09
2.754667e-09
2.854319e-09
2.947328e-09
3.033112e-09
3.111126e-09
3.180863e-09
3.241864e-09
3.293719e-09
3.336075e-09
3.368638e-09
3.39118e-09
3.403538e-09
3.405621e-09
3.397408e-09
3.378954e-09
3.350383e-09
3.311895e-09
3.263762e-09
3.206326e-09
3.139994e-09
3.065238e-09
2.982591e-09
2.89264e-09
2.796019e-09
2.693409e-09
2.585526e-09
2.473119e-09
2.356959e-09
2.237836e-09
2.116549e-09
1.993902e-09
1.870699e-09
1.747732e-09
1.625781e-09
1.50561e-09
1.387956e-09
1.273534e-09
1.163027e-09
1.057088e-09
9.563369e-10
8.613615e-10
7.727148e-10
6.909168e-10
6.164539e-10
5.497787e-10
4.913116e-10
4.414569e-10
4.005468e-10
3.684467e-10
3.455946e-10
1.495378e-09
1.359837e-09
1.220997e-09
1.094847e-09
9.748133e-10
8.60015e-10
7.505557e-10
6.462984e-10
5.470586e-10
4.526674e-10
3.629595e-10
2.777708e-10
1.969385e-10
1.203008e-10
4.769824e-11
-2.102635e-11
-8.602636e-11
-1.4745e-10