/*--------------------------------*- C++ -*----------------------------------*\
| =========                 |                                                 |
| \\      /  F ield         | OpenFOAM: The Open Source CFD Toolbox           |
|  \\    /   O peration     | Version:  2406                                  |
|   \\  /    A nd           | Website:  www.openfoam.com                      |
|    \\/     M anipulation  |                                                 |
\*---------------------------------------------------------------------------*/
FoamFile
{
    version     2.0;
    format      ascii;
    arch        "LSB;label=32;scalar=64";
    class       surfaceScalarField;
    location    "6723";
    object      phi;
}
// * * * * * * * * * * * * * * * * * * * * * * * * * * * * * * * * * * * * * //

dimensions      [0 3 -1 0 0 0 0];

oriented        oriented;

internalField   nonuniform List<scalar> 
32512
(
1.42589e-11
-1.42103e-11
4.945369e-11
-3.516346e-11
9.26051e-11
-4.313937e-11
1.328063e-10
-4.019821e-11
1.628491e-10
-3.005208e-11
1.782298e-10
-1.539326e-11
1.763241e-10
1.896785e-12
1.557834e-10
2.053542e-11
1.161241e-10
3.965873e-11
5.743925e-11
5.868539e-11
-1.978841e-11
7.722749e-11
-1.148162e-10
9.502876e-11
-2.267374e-10
1.119233e-10
-3.545462e-10
1.278099e-10
-4.971823e-10
1.426349e-10
-6.535635e-10
1.563788e-10
-8.226104e-10
1.690457e-10
-1.003265e-09
1.806556e-10
-1.194504e-09
1.912401e-10
-1.395342e-09
2.008393e-10
-1.604842e-09
2.094991e-10
-1.822111e-09
2.172685e-10
-2.046309e-09
2.241971e-10
-2.276642e-09
2.303329e-10
-2.512363e-09
2.357218e-10
-2.752771e-09
2.404074e-10
-2.997202e-09
2.444298e-10
-3.245028e-09
2.478257e-10
-3.495656e-09
2.506272e-10
-3.748518e-09
2.528618e-10
-4.003069e-09
2.545523e-10
-4.258785e-09
2.557172e-10
-4.515155e-09
2.563704e-10
-4.771677e-09
2.56522e-10
-5.027855e-09
2.561782e-10
-5.283196e-09
2.553414e-10
-5.537206e-09
2.540109e-10
-5.789388e-09
2.521826e-10
-6.039237e-09
2.4985e-10
-6.286241e-09
2.470044e-10
-6.529875e-09
2.436354e-10
-6.769607e-09
2.397315e-10
-7.004886e-09
2.3528e-10
-7.235154e-09
2.302681e-10
-7.459836e-09
2.246826e-10
-7.678345e-09
2.185108e-10
-7.890085e-09
2.117407e-10
-8.094445e-09
2.043614e-10
-8.290808e-09
1.963636e-10
-8.478547e-09
1.877402e-10
-8.657033e-09
1.784861e-10
-8.825631e-09
1.685991e-10
-8.983711e-09
1.580797e-10
-9.130641e-09
1.469317e-10
-9.265803e-09
1.351623e-10
-9.388584e-09
1.227823e-10
-9.49839e-09
1.098068e-10
-9.594644e-09
9.625469e-11
-9.676793e-09
8.21494e-11
-9.744312e-09
6.751866e-11
-9.796706e-09
5.239469e-11
-9.833519e-09
3.68142e-11
-9.854337e-09
2.081843e-11
-9.85879e-09
4.453112e-12
-9.846558e-09
-1.223156e-11
-9.817377e-09
-2.918105e-11
-9.77104e-09
-4.633661e-11
-9.707404e-09
-6.363554e-11
-9.626393e-09
-8.101137e-11
-9.527998e-09
-9.839425e-11
-9.412287e-09
-1.157112e-10
-9.279401e-09
-1.328866e-10
-9.129558e-09
-1.498424e-10
-8.96306e-09
-1.664988e-10
-8.780285e-09
-1.827748e-10
-8.581697e-09
-1.985884e-10
-8.36784e-09
-2.138573e-10
-8.139341e-09
-2.284999e-10
-7.896906e-09
-2.424353e-10
-7.641323e-09
-2.555842e-10
-7.373454e-09
-2.678698e-10
-7.094236e-09
-2.792179e-10
-6.804679e-09
-2.89558e-10
-6.505856e-09
-2.988238e-10
-6.198903e-09
-3.069537e-10
-5.885012e-09
-3.138915e-10
-5.565425e-09
-3.195869e-10
-5.24143e-09
-3.239961e-10
-4.914348e-09
-3.270821e-10
-4.585533e-09
-3.288154e-10
-4.25636e-09
-3.291742e-10
-3.928216e-09
-3.281446e-10
-3.602496e-09
-3.25721e-10
-3.28059e-09
-3.219063e-10
-2.963879e-09
-3.167119e-10
-2.653722e-09
-3.101576e-10
-2.35145e-09
-3.022722e-10
-2.058358e-09
-2.930926e-10
-1.775694e-09
-2.826642e-10
-1.504654e-09
-2.710406e-10
-1.246371e-09
-2.582832e-10
-1.00191e-09
-2.444613e-10
-7.722589e-10
-2.296516e-10
-5.583212e-10
-2.139379e-10
-3.609102e-10
-1.974111e-10
-1.807412e-10
-1.801691e-10
-1.842469e-11
-1.623165e-10
1.255403e-10
-1.43965e-10
2.507736e-10
-1.252332e-10
3.570216e-10
-1.062479e-10
4.44166e-10
-8.714409e-11
5.122334e-10
-6.806712e-11
5.614076e-10
-4.917395e-11
5.92044e-10
-3.063607e-11
6.046876e-10
-1.264316e-11
6.000961e-10
4.591868e-12
5.792707e-10
2.082596e-11
5.434949e-10
3.577636e-11
4.943879e-10
4.910759e-11
4.339744e-10
6.041398e-11
3.64778e-10
6.919649e-11
2.899448e-10
7.483344e-11
2.133974e-10
7.654868e-11
1.40004e-10
7.339612e-11
7.569293e-11
6.431332e-11
2.733571e-11
4.835398e-11
1.770506e-12
2.555319e-11
1.757692e-12
3.52906e-11
-4.946951e-11
1.06534e-10
-1.063498e-10
1.866128e-10
-1.232105e-10
2.545921e-10
-1.081892e-10
2.951622e-10
-7.063405e-11
2.978417e-10
-1.808353e-11
2.559168e-10
4.381709e-11
1.654907e-10
1.109625e-10
2.474413e-11
1.804105e-10
-1.666373e-10
2.500709e-10
-4.078859e-10
3.184755e-10
-6.974651e-10
3.846054e-10
-1.03331e-09
4.477667e-10
-1.413005e-09
5.075045e-10
-1.833915e-09
5.635439e-10
-2.293279e-09
6.157439e-10
-2.788294e-09
6.640615e-10
-3.316161e-09
7.085243e-10
-3.87413e-09
7.49211e-10
-4.459528e-09
7.862373e-10
-5.069775e-09
8.197444e-10
-5.702397e-09
8.498887e-10
-6.355033e-09
8.76833e-10
-7.025442e-09
9.007401e-10
-7.71149e-09
9.217687e-10
-8.411154e-09
9.400696e-10
-9.122511e-09
9.55784e-10
-9.843728e-09
9.690404e-10
-1.057306e-08
9.79953e-10
-1.130881e-08
9.886207e-10
-1.204939e-08
9.951262e-10
-1.279321e-08
9.995371e-10
-1.353874e-08
1.001905e-09
-1.428449e-08
1.002269e-09
-1.502896e-08
1.000651e-09
-1.577069e-08
9.970626e-10
-1.650818e-08
9.915024e-10
-1.723995e-08
9.83958e-10
-1.796451e-08
9.744082e-10
-1.868033e-08
9.628237e-10
-1.938586e-08
9.491693e-10
-2.007954e-08
9.334055e-10
-2.075975e-08
9.154893e-10
-2.142486e-08
8.953765e-10
-2.20732e-08
8.730228e-10
-2.270307e-08
8.483852e-10
-2.331275e-08
8.214242e-10
-2.39005e-08
7.921047e-10
-2.446453e-08
7.603978e-10
-2.500307e-08
7.262821e-10
-2.551433e-08
6.89745e-10
-2.599652e-08
6.507839e-10
-2.644784e-08
6.094072e-10
-2.686655e-08
5.656354e-10
-2.725089e-08
5.195024e-10
-2.759916e-08
4.710559e-10
-2.790971e-08
4.203584e-10
-2.818094e-08
3.674883e-10
-2.841133e-08
3.125396e-10
-2.859944e-08
2.55623e-10
-2.874391e-08
1.968657e-10
-2.88435e-08
1.36412e-10
-2.889711e-08
7.442289e-11
-2.890373e-08
1.107602e-11
-2.886253e-08
-5.343449e-11
-2.877281e-08
-1.188986e-10
-2.863405e-08
-1.850908e-10
-2.844592e-08
-2.517712e-10
-2.820824e-08
-3.18686e-10
-2.792107e-08
-3.855693e-10
-2.758463e-08
-4.521438e-10
-2.71994e-08
-5.181225e-10
-2.676603e-08
-5.832103e-10
-2.628542e-08
-6.471057e-10
-2.575869e-08
-7.095026e-10
-2.518719e-08
-7.700923e-10
-2.457248e-08
-8.285658e-10
-2.391636e-08
-8.846158e-10
-2.322086e-08
-9.37939e-10
-2.24882e-08
-9.882385e-10
-2.172085e-08
-1.035226e-09
-2.092144e-08
-1.078625e-09
-2.009282e-08
-1.118172e-09
-1.923803e-08
-1.153618e-09
-1.836025e-08
-1.184735e-09
-1.746282e-08
-1.211312e-09
-1.654925e-08
-1.233162e-09
-1.562312e-08
-1.250123e-09
-1.468814e-08
-1.262058e-09
-1.37481e-08
-1.268856e-09
-1.280684e-08
-1.270437e-09
-1.186823e-08
-1.266751e-09
-1.093617e-08
-1.257777e-09
-1.001455e-08
-1.243528e-09
-9.107216e-09
-1.224048e-09
-8.217961e-09
-1.199412e-09
-7.350502e-09
-1.169731e-09
-6.508451e-09
-1.135143e-09
-5.695292e-09
-1.095823e-09
-4.91436e-09
-1.051972e-09
-4.168816e-09
-1.003826e-09
-3.461629e-09
-9.516485e-10
-2.795549e-09
-8.957309e-10
-2.173092e-09
-8.363944e-10
-1.596516e-09
-7.73987e-10
-1.0678e-09
-7.08884e-10
-5.88629e-10
-6.414877e-10
-1.603653e-10
-5.722283e-10
2.159663e-10
-5.015646e-10
5.397049e-10
-4.299861e-10
8.105775e-10
-3.580164e-10
1.028728e-09
-2.862177e-10
1.194752e-09
-2.151974e-10
1.309733e-09
-1.45617e-10
1.375295e-09
-7.820422e-11
1.393656e-09
-1.376915e-11
1.367708e-09
4.677461e-11
1.301102e-09
1.023825e-10
1.198367e-09
1.518433e-10
1.065046e-09
1.937357e-10
9.078659e-10
2.263766e-10
7.349284e-10
2.477699e-10
5.558998e-10
2.555746e-10
3.821427e-10
2.47152e-10
2.266394e-10
2.198237e-10
1.033928e-10
1.716199e-10
2.548825e-11
1.034815e-10
2.723778e-11
4.346652e-11
-9.292393e-11
1.238785e-10
-1.86752e-10
2.056471e-10
-2.049949e-10
2.627274e-10
-1.65289e-10
2.756554e-10
-8.357877e-11
2.304851e-10
2.707495e-11
1.178006e-10
1.564986e-10
-6.821877e-11
2.969825e-10
-3.305876e-10
4.427811e-10
-6.70175e-10
5.896618e-10
-1.086241e-09
7.345442e-10
-1.576852e-09
8.752183e-10
-2.139217e-09
1.01013e-09
-2.769939e-09
1.138223e-09
-3.465216e-09
1.258819e-09
-4.220997e-09
1.371526e-09
-5.033104e-09
1.476171e-09
-5.897318e-09
1.57274e-09
-6.809447e-09
1.661339e-09
-7.765375e-09
1.742163e-09
-8.761097e-09
1.815465e-09
-9.792746e-09
1.881536e-09
-1.08566e-08
1.940689e-09
-1.194911e-08
1.993243e-09
-1.306685e-08
2.039513e-09
-1.420659e-08
2.079803e-09
-1.53652e-08
2.114396e-09
-1.653972e-08
2.143554e-09
-1.772728e-08
2.16751e-09
-1.892512e-08
2.186468e-09
-2.013059e-08
2.200599e-09
-2.13411e-08
2.210045e-09
-2.255411e-08
2.214914e-09
-2.376713e-08
2.215287e-09
-2.497769e-08
2.211214e-09
-2.618335e-08
2.20272e-09
-2.738165e-08
2.189806e-09
-2.857014e-08
2.172447e-09
-2.974634e-08
2.150603e-09
-3.090773e-08
2.124218e-09
-3.205178e-08
2.093221e-09
-3.317591e-08
2.057534e-09
-3.427749e-08
2.017071e-09
-3.535386e-08
1.971746e-09
-3.640231e-08
1.921471e-09
-3.742008e-08
1.866163e-09
-3.84044e-08
1.805745e-09
-3.935245e-08
1.740153e-09
-4.026139e-08
1.669333e-09
-4.112835e-08
1.59325e-09
-4.19505e-08
1.511887e-09
-4.272496e-08
1.425248e-09
-4.344891e-08
1.333363e-09
-4.411956e-08
1.236286e-09
-4.473416e-08
1.134101e-09
-4.529003e-08
1.026922e-09
-4.578456e-08
9.14894e-10
-4.621527e-08
7.981955e-10
-4.657977e-08
6.770398e-10
-4.687582e-08
5.516748e-10
-4.710134e-08
4.223841e-10
-4.725441e-08
2.894873e-10
-4.733333e-08
1.533396e-10
-4.733658e-08
1.433182e-11
-4.726291e-08
-1.271108e-10
-4.711127e-08
-2.705292e-10
-4.688093e-08
-4.154319e-10
-4.657141e-08
-5.612971e-10
-4.618252e-08
-7.075745e-10
-4.57144e-08
-8.536876e-10
-4.516751e-08
-9.99037e-10
-4.454262e-08
-1.143003e-09
-4.384089e-08
-1.284949e-09
-4.306376e-08
-1.424226e-09
-4.221309e-08
-1.560176e-09
-4.129105e-08
-1.692135e-09
-4.030017e-08
-1.819441e-09
-3.924336e-08
-1.941434e-09
-3.812383e-08
-2.057465e-09
-3.694517e-08
-2.166899e-09
-3.571128e-08
-2.269119e-09
-3.442637e-08
-2.363533e-09
-3.309496e-08
-2.449579e-09
-3.172185e-08
-2.526727e-09
-3.03121e-08
-2.594488e-09
-2.8871e-08
-2.652415e-09
-2.740405e-08
-2.70011e-09
-2.591695e-08
-2.737224e-09
-2.441554e-08
-2.763468e-09
-2.290579e-08
-2.778608e-09
-2.139375e-08
-2.782473e-09
-1.988555e-08
-2.774956e-09
-1.838731e-08
-2.756017e-09
-1.690515e-08
-2.725684e-09
-1.544515e-08
-2.684052e-09
-1.401327e-08
-2.631287e-09
-1.261538e-08
-2.567624e-09
-1.125715e-08
-2.493367e-09
-9.944088e-09
-2.408889e-09
-8.681431e-09
-2.314629e-09
-7.474162e-09
-2.211095e-09
-6.326955e-09
-2.098855e-09
-5.24414e-09
-1.978546e-09
-4.229673e-09
-1.850861e-09
-3.287102e-09
-1.716558e-09
-2.419534e-09
-1.576453e-09
-1.629599e-09
-1.431422e-09
-9.194225e-10
-1.282404e-09
-2.905855e-10
-1.130401e-09
2.559111e-10
-9.764822e-10
7.196862e-10
-8.217911e-10
1.101024e-09
-6.675552e-10
1.400925e-09
-5.150977e-10
1.621163e-09
-3.65855e-10
1.764359e-09
-2.21399e-10
1.834057e-09
-8.346633e-11
1.834827e-09
4.600511e-11
1.772379e-09
1.648302e-10
1.653701e-09
2.705215e-10
1.487212e-09
3.602259e-10
1.282929e-09
4.306609e-10
1.052635e-09
4.780666e-10
8.099938e-10
4.982163e-10
5.705612e-10
4.865778e-10
3.515729e-10
4.38799e-10
1.713411e-10
3.518441e-10
4.816487e-11
2.266717e-10
7.540157e-11
4.078064e-11
-1.337028e-10
1.094007e-10
-2.553827e-10
1.666836e-10
-2.622956e-10
1.840366e-10
-1.826583e-10
1.400122e-10
-3.956655e-11
1.892839e-11
1.481535e-10
-1.901143e-10
3.65543e-10
-4.940972e-10
6.009668e-10
-8.968301e-10
8.455126e-10
-1.399604e-09
1.092436e-09
-2.001753e-09
1.336695e-09
-2.701113e-09
1.57458e-09
-3.494395e-09
1.803412e-09
-4.377493e-09
2.021319e-09
-5.345726e-09
2.227051e-09
-6.394038e-09
2.419839e-09
-7.517147e-09
2.599283e-09
-8.709671e-09
2.765264e-09
-9.96621e-09
2.917878e-09
-1.128142e-08
3.057373e-09
-1.265007e-08
3.184113e-09
-1.406707e-08
3.298529e-09
-1.552748e-08
3.401101e-09
-1.702656e-08
3.492324e-09
-1.855975e-08
3.572695e-09
-2.012264e-08
3.642697e-09
-2.171104e-08
3.702787e-09
-2.332087e-08
3.753387e-09
-2.494824e-08
3.794873e-09
-2.658935e-08
3.827578e-09
-2.824053e-08
3.851785e-09
-2.989821e-08
3.867724e-09
-3.155888e-08
3.875577e-09
-3.321907e-08
3.875479e-09
-3.487537e-08
3.867515e-09
-3.652438e-08
3.851727e-09
-3.816269e-08
3.82812e-09
-3.97869e-08
3.796658e-09
-4.139358e-08
3.75728e-09
-4.297926e-08
3.709895e-09
-4.454043e-08
3.654393e-09
-4.607355e-08
3.59065e-09
-4.757501e-08
3.518532e-09
-4.904117e-08
3.437902e-09
-5.046832e-08
3.348622e-09
-5.185272e-08
3.250565e-09
-5.319059e-08
3.143615e-09
-5.447811e-08
3.027674e-09
-5.571145e-08
2.902669e-09
-5.688675e-08
2.768554e-09
-5.800018e-08
2.625315e-09
-5.904791e-08
2.472978e-09
-6.002616e-08
2.311609e-09
-6.093119e-08
2.141317e-09
-6.175935e-08
1.962262e-09
-6.250708e-08
1.774656e-09
-6.317095e-08
1.578763e-09
-6.374766e-08
1.374904e-09
-6.423408e-08
1.16346e-09
-6.462727e-08
9.448688e-10
-6.492451e-08
7.196301e-10
-6.512333e-08
4.883036e-10
-6.52215e-08
2.515094e-10
-6.521709e-08
9.927106e-12
-6.51085e-08
-2.357053e-10
-6.489443e-08
-4.845936e-10
-6.457397e-08
-7.358894e-10
-6.414658e-08
-9.886935e-10
-6.361209e-08
-1.242059e-09
-6.297078e-08
-1.494998e-09
-6.222334e-08
-1.74648e-09
-6.137089e-08
-1.995446e-09
-6.041503e-08
-2.240807e-09
-5.935781e-08
-2.481454e-09
-5.820172e-08
-2.716265e-09
-5.694974e-08
-2.944108e-09
-5.560533e-08
-3.163856e-09
-5.417238e-08
-3.374386e-09
-5.265525e-08
-3.574594e-09
-5.105874e-08
-3.763402e-09
-4.93881e-08
-3.939762e-09
-4.764896e-08
-4.102671e-09
-4.584736e-08
-4.251174e-09
-4.398972e-08
-4.384374e-09
-4.208276e-08
-4.501442e-09
-4.013355e-08
-4.601621e-09
-3.814943e-08
-4.684236e-09
-3.613795e-08
-4.748701e-09
-3.410689e-08
-4.794523e-09
-3.206419e-08
-4.821308e-09
-3.00179e-08
-4.828768e-09
-2.797613e-08
-4.816724e-09
-2.594703e-08
-4.78511e-09
-2.393874e-08
-4.733975e-09
-2.195931e-08
-4.663483e-09
-2.001668e-08
-4.573919e-09
-1.811862e-08
-4.465686e-09
-1.627268e-08
-4.339303e-09
-1.448616e-08
-4.195409e-09
-1.276603e-08
-4.034758e-09
-1.111891e-08
-3.858216e-09
-9.551e-09
-3.666762e-09
-8.068061e-09
-3.461484e-09
-6.675344e-09
-3.243578e-09
-5.377556e-09
-3.014345e-09
-4.178817e-09
-2.775191e-09
-3.082613e-09
-2.527626e-09
-2.091749e-09
-2.273268e-09
-1.208305e-09
-2.013845e-09
-4.335842e-10
-1.751203e-09
2.319378e-10
-1.487313e-09
7.886714e-10
-1.224288e-09
1.237976e-09
-9.644023e-10
1.582233e-09
-7.101117e-10
1.824926e-09
-4.640914e-10
1.970734e-09
-2.292739e-10
2.025639e-09
-8.899886e-12
1.997047e-09
1.934227e-10
1.893917e-09
3.736512e-10
1.726904e-09
5.272377e-10
1.508497e-09
6.490681e-10
1.25313e-09
7.334352e-10
9.772526e-10
7.741005e-10
6.992947e-10
7.645424e-10
4.395349e-10
6.985575e-10
2.199038e-10
5.714656e-10
6.412434e-11
3.824551e-10
1.395273e-10
3.080558e-11
-1.645184e-10
7.1977e-11
-2.96567e-10
8.464647e-11
-2.749808e-10
3.984177e-11
-1.378648e-10
-8.433851e-11
8.460852e-11
-3.040887e-10
3.679032e-10
-6.308356e-10
6.922933e-10
-1.072028e-09
1.042163e-09
-1.631821e-09
1.405306e-09
-2.311679e-09
1.772294e-09
-3.110915e-09
2.135932e-09
-4.027149e-09
2.490813e-09
-5.056694e-09
2.832956e-09
-6.194884e-09
3.159509e-09
-7.436344e-09
3.468512e-09
-8.775206e-09
3.758704e-09
-1.020529e-08
4.029371e-09
-1.172025e-08
4.280224e-09
-1.331367e-08
4.511295e-09
-1.497916e-08
4.722861e-09
-1.671042e-08
4.91537e-09
-1.850128e-08
5.08939e-09
-2.034574e-08
5.245563e-09
-2.223799e-08
5.384572e-09
-2.417241e-08
5.507105e-09
-2.614355e-08
5.613841e-09
-2.814619e-08
5.705424e-09
-3.017526e-08
5.782451e-09
-3.222585e-08
5.845462e-09
-3.42932e-08
5.894933e-09
-3.637269e-08
5.93127e-09
-3.845977e-08
5.954808e-09
-4.055001e-08
5.965811e-09
-4.2639e-08
5.964474e-09
-4.472241e-08
5.950923e-09
-4.679591e-08
5.925225e-09
-4.885518e-08
5.887386e-09
-5.089588e-08
5.837363e-09
-5.291367e-08
5.775067e-09
-5.490415e-08
5.700375e-09
-5.686289e-08
5.613134e-09
-5.878541e-08
5.513169e-09
-6.066717e-08
5.400294e-09
-6.250359e-08
5.274319e-09
-6.429002e-08
5.135057e-09
-6.602179e-08
4.982334e-09
-6.769417e-08
4.815994e-09
-6.930241e-08
4.635914e-09
-7.084174e-08
4.442002e-09
-7.23074e-08
4.234214e-09
-7.369464e-08
4.012552e-09
-7.499874e-08
3.777076e-09
-7.621504e-08
3.52791e-09
-7.733896e-08
3.265243e-09
-7.836604e-08
2.98934e-09
-7.929192e-08
2.70054e-09
-8.011243e-08
2.399267e-09
-8.082355e-08
2.086026e-09
-8.14215e-08
1.761411e-09
-8.190274e-08
1.426105e-09
-8.226398e-08
1.08088e-09
-8.250228e-08
7.265957e-10
-8.261497e-08
3.642053e-10
-8.259979e-08
-5.252048e-12
-8.245484e-08
-3.806504e-10
-8.217866e-08
-7.607806e-10
-8.177019e-08
-1.144354e-09
-8.122888e-08
-1.530007e-09
-8.055463e-08
-1.916308e-09
-7.974786e-08
-2.30176e-09
-7.880953e-08
-2.684811e-09
-7.774111e-08
-3.063864e-09
-7.654464e-08
-3.437279e-09
-7.522271e-08
-3.803388e-09
-7.377847e-08
-4.160504e-09
-7.221565e-08
-4.50693e-09
-7.053853e-08
-4.840972e-09
-6.875196e-08
-5.160951e-09
-6.686134e-08
-5.465212e-09
-6.487261e-08
-5.752139e-09
-6.27922e-08
-6.020167e-09
-6.062708e-08
-6.267794e-09
-5.838466e-08
-6.493593e-09
-5.607281e-08
-6.696226e-09
-5.369979e-08
-6.874452e-09
-5.127427e-08
-7.027143e-09
-4.880522e-08
-7.153292e-09
-4.630189e-08
-7.252022e-09
-4.377382e-08
-7.322598e-09
-4.123069e-08
-7.364434e-09
-3.868236e-08
-7.377102e-09
-3.613874e-08
-7.360336e-09
-3.360982e-08
-7.314038e-09
-3.110551e-08
-7.238282e-09
-2.863567e-08
-7.13332e-09
-2.621001e-08
-6.999578e-09
-2.383803e-08
-6.837664e-09
-2.152898e-08
-6.64836e-09
-1.929176e-08
-6.432627e-09
-1.713492e-08
-6.1916e-09
-1.506654e-08
-5.926588e-09
-1.309424e-08
-5.639065e-09
-1.122505e-08
-5.330676e-09
-9.465399e-09
-5.003227e-09
-7.821059e-09
-4.658685e-09
-6.29707e-09
-4.299179e-09
-4.8977e-09
-3.926996e-09
-3.626381e-09
-3.544587e-09
-2.485655e-09
-3.15457e-09
-1.477118e-09
-2.75974e-09
-6.013498e-10
-2.36308e-09
1.421446e-10
-1.967782e-09
7.550117e-10
-1.577269e-09
1.240127e-09
-1.195226e-09
1.60168e-09
-8.256442e-10
1.845272e-09
-4.728661e-10
1.97802e-09
-1.416472e-10
2.008666e-09
1.627775e-10
1.947696e-09
4.346215e-10
1.807457e-09
6.674771e-10
1.602257e-09
8.542657e-10
1.348456e-09
9.872333e-10
1.064512e-09
1.058044e-09
7.710058e-10
1.058054e-09
4.906832e-10
9.788857e-10
2.486904e-10
8.134546e-10
7.350448e-11
5.576405e-10
2.13033e-10
1.608528e-11
-1.806155e-10
1.859368e-11
-2.990874e-10
-2.852983e-11
-2.278696e-10
-1.529016e-10
-1.349777e-11
-3.756448e-10
3.073518e-10
-7.125048e-10
7.047624e-10
-1.174666e-09
1.154455e-09
-1.769449e-09
1.636947e-09
-2.500915e-09
2.136774e-09
-3.370412e-09
2.641792e-09
-4.377063e-09
3.142582e-09
-5.518202e-09
3.631949e-09
-6.789749e-09
4.104501e-09
-8.186541e-09
4.556301e-09
-9.702607e-09
4.98458e-09
-1.13314e-08
5.387497e-09
-1.306598e-08
5.763951e-09
-1.489917e-08
6.11342e-09
-1.682371e-08
6.435829e-09
-1.883229e-08
6.731442e-09
-2.091769e-08
7.000769e-09
-2.30728e-08
7.244497e-09
-2.529066e-08
7.463423e-09
-2.75645e-08
7.658411e-09
-2.988775e-08
7.830346e-09
-3.225401e-08
7.980102e-09
-3.46571e-08
8.108518e-09
-3.709103e-08
8.216377e-09
-3.954996e-08
8.304388e-09
-4.20282e-08
8.37318e-09
-4.452022e-08
8.42329e-09
-4.702058e-08
8.455164e-09
-4.952392e-08
8.469154e-09
-5.202497e-08
8.465522e-09
-5.451849e-08
8.444438e-09
-5.699925e-08
8.405992e-09
-5.946206e-08
8.350198e-09
-6.19017e-08
8.277e-09
-6.431292e-08
8.186288e-09
-6.669045e-08
8.077901e-09
-6.902896e-08
7.951642e-09
-7.132308e-08
7.807286e-09
-7.356738e-08
7.644594e-09
-7.575638e-08
7.463323e-09
-7.788456e-08
7.263237e-09
-7.994634e-08
7.044119e-09
-8.193613e-08
6.80578e-09
-8.384829e-08
6.548075e-09
-8.56772e-08
6.270908e-09
-8.741722e-08
5.974243e-09
-8.906279e-08
5.658116e-09
-9.060836e-08
5.322643e-09
-9.204847e-08
4.968023e-09
-9.337778e-08
4.594553e-09
-9.459107e-08
4.20263e-09
-9.568329e-08
3.79276e-09
-9.664958e-08
3.36556e-09
-9.748532e-08
2.921763e-09
-9.818613e-08
2.462222e-09
-9.874793e-08
1.987914e-09
-9.916699e-08
1.499937e-09
-9.943991e-08
9.995131e-10
-9.956369e-08
4.879884e-10
-9.953577e-08
-3.317151e-11
-9.935403e-08
-5.623832e-10
-9.901686e-08
-1.097949e-09
-9.852315e-08
-1.638065e-09
-9.787234e-08
-2.180824e-09
-9.706442e-08
-2.724225e-09
-9.61e-08
-3.266183e-09
-9.498027e-08
-3.804537e-09
-9.370707e-08
-4.337064e-09
-9.228286e-08
-4.861486e-09
-9.071076e-08
-5.37549e-09
-8.899453e-08
-5.876733e-09
-8.713859e-08
-6.362867e-09
-8.514802e-08
-6.831544e-09
-8.302853e-08
-7.280441e-09
-8.078647e-08
-7.70727e-09
-7.842881e-08
-8.109798e-09
-7.596311e-08
-8.485863e-09
-7.339752e-08
-8.83339e-09
-7.07407e-08
-9.15041e-09
-6.800185e-08
-9.435075e-09
-6.519063e-08
-9.685674e-09
-6.231712e-08
-9.900652e-09
-5.93918e-08
-1.007862e-08
-5.642546e-08
-1.021836e-08
-5.342918e-08
-1.031887e-08
-5.041427e-08
-1.037934e-08
-4.739219e-08
-1.039918e-08
-4.437451e-08
-1.037802e-08
-4.137282e-08
-1.031573e-08
-3.83987e-08
-1.021241e-08
-3.546361e-08
-1.00684e-08
-3.257888e-08
-9.884317e-09
-2.975556e-08
-9.660983e-09
-2.700442e-08
-9.399491e-09
-2.433588e-08
-9.101172e-09
-2.175987e-08
-8.767605e-09
-1.928586e-08
-8.400605e-09
-1.692269e-08
-8.002228e-09
-1.467861e-08
-7.57476e-09
-1.256112e-08
-7.120717e-09
-1.057696e-08
-6.642842e-09
-8.732039e-09
-6.144102e-09
-7.031345e-09
-5.62769e-09
-5.478906e-09
-5.097025e-09
-4.077716e-09
-4.55576e-09
-2.829666e-09
-4.00779e-09
-1.735475e-09
-3.457271e-09
-7.946196e-10
-2.908637e-09
-5.25747e-12
-2.366631e-09
6.358561e-10
-1.836339e-09
1.133453e-09
-1.323241e-09
1.493843e-09
-8.332562e-10
1.725013e-09
-3.728169e-10
1.836722e-09
5.106864e-11
1.840604e-09
4.307411e-10
1.750257e-09
7.578258e-10
1.581333e-09
1.023192e-09
1.351604e-09
1.21696e-09
1.081043e-09
1.328602e-09
7.919177e-10
1.347179e-09
5.090142e-10
1.261794e-09
2.601469e-10
1.062323e-09
7.739354e-11
7.403931e-10
2.904269e-10
-1.656636e-12
-1.789668e-10
-4.564355e-11
-2.551054e-10
-1.637665e-10
-1.097507e-10
-3.810354e-10
2.037726e-10
-7.168159e-10
6.431361e-10
-1.185622e-09
1.173569e-09
-1.79776e-09
1.766592e-09
-2.559909e-09
2.399096e-09
-3.475636e-09
3.052503e-09
-4.545873e-09
3.712029e-09
-5.76935e-09
4.366058e-09
-7.142993e-09
5.00559e-09
-8.662276e-09
5.623784e-09
-1.032154e-08
6.215567e-09
-1.211426e-08
6.7773e-09
-1.403327e-08
7.306507e-09
-1.607096e-08
7.801648e-09
-1.821946e-08
8.261918e-09
-2.047073e-08
8.687093e-09
-2.281668e-08
9.077392e-09
-2.524927e-08
9.433362e-09
-2.776056e-08
9.755786e-09
-3.034274e-08
1.00456e-08
-3.298818e-08
1.030385e-08
-3.568944e-08
1.05316e-08
-3.843926e-08
1.072992e-08
-4.123059e-08
1.089985e-08
-4.405656e-08
1.104235e-08
-4.691047e-08
1.11583e-08
-4.978579e-08
1.12485e-08
-5.26761e-08
1.13136e-08
-5.557511e-08
1.135418e-08
-5.847663e-08
1.137067e-08
-6.13745e-08
1.13634e-08
-6.426265e-08
1.133259e-08
-6.713501e-08
1.127835e-08
-6.998552e-08
1.120071e-08
-7.280811e-08
1.109959e-08
-7.55967e-08
1.097487e-08
-7.834515e-08
1.082635e-08
-8.104728e-08
1.065378e-08
-8.369689e-08
1.045689e-08
-8.628769e-08
1.023539e-08
-8.881335e-08
9.988992e-09
-9.126752e-08
9.717408e-09
-9.364379e-08
9.420384e-09
-9.593572e-08
9.097709e-09
-9.813687e-08
8.749224e-09
-1.002408e-07
8.374838e-09
-1.022411e-07
7.974544e-09
-1.041314e-07
7.548426e-09
-1.059054e-07
7.096673e-09
-1.07557e-07
6.619589e-09
-1.090801e-07
6.117603e-09
-1.104687e-07
5.591277e-09
-1.117173e-07
5.041313e-09
-1.128203e-07
4.468561e-09
-1.137725e-07
3.874023e-09
-1.145691e-07
3.258857e-09
-1.152056e-07
2.62438e-09
-1.156777e-07
1.972071e-09
-1.159818e-07
1.303567e-09
-1.161145e-07
6.206649e-10
-1.16073e-07
-7.468097e-11
-1.15855e-07
-7.803654e-10
-1.154588e-07
-1.494136e-09
-1.148833e-07
-2.213603e-09
-1.141278e-07
-2.936243e-09
-1.131926e-07
-3.659415e-09
-1.120785e-07
-4.380368e-09
-1.107867e-07
-5.096257e-09
-1.093196e-07
-5.804156e-09
-1.076801e-07
-6.50107e-09
-1.058716e-07
-7.18396e-09
-1.038986e-07
-7.849755e-09
-1.017661e-07
-8.495371e-09
-9.947988e-08
-9.117735e-09
-9.704652e-08
-9.713801e-09
-9.447321e-08
-1.028058e-08
-9.176788e-08
-1.081514e-08
-8.893908e-08
-1.131466e-08
-8.599605e-08
-1.177642e-08
-8.29486e-08
-1.219786e-08
-7.980713e-08
-1.257655e-08
-7.658255e-08
-1.291026e-08
-7.328624e-08
-1.319696e-08
-6.993004e-08
-1.343482e-08
-6.652612e-08
-1.362228e-08
-6.308699e-08
-1.3758e-08
-5.962541e-08
-1.384093e-08
-5.615429e-08
-1.387029e-08
-5.26867e-08
-1.384561e-08
-4.923571e-08
-1.376672e-08
-4.581438e-08
-1.363373e-08
-4.243566e-08
-1.344712e-08
-3.911232e-08
-1.320766e-08
-3.585686e-08
-1.291645e-08
-3.268144e-08
-1.25749e-08
-2.959783e-08
-1.218479e-08
-2.661727e-08
-1.174816e-08
-2.375046e-08
-1.126742e-08
-2.100744e-08
-1.074525e-08
-1.839752e-08
-1.018468e-08
-1.592923e-08
-9.589005e-09
-1.361022e-08
-8.961849e-09
-1.14472e-08
-8.30712e-09
-9.445869e-09
-7.629024e-09
-7.610823e-09
-6.932071e-09
-5.94551e-09
-6.221073e-09
-4.45214e-09
-5.501159e-09
-3.131619e-09
-4.777792e-09
-1.983465e-09
-4.056791e-09
-1.005736e-09
-3.34436e-09
-1.949466e-10
-2.647128e-09
4.540137e-10
-1.9722e-09
9.479669e-10
-1.327209e-09
1.295532e-09
-7.203814e-10
1.50721e-09
-1.606094e-10
1.595468e-09
3.424824e-10
1.574819e-09
7.784754e-10
1.461894e-09
1.136119e-09
1.27552e-09
1.403336e-09
1.036821e-09
1.567301e-09
7.693901e-10
1.614608e-09
4.996189e-10
1.531567e-09
2.573243e-10
1.304619e-09
7.696169e-11
9.207559e-10
3.673886e-10
-2.127915e-11
-1.576927e-10
-1.171168e-10
-1.592661e-10
-3.143479e-10
8.748036e-11
-6.345494e-10
5.239746e-10
-1.094593e-09
1.103183e-09
-1.707137e-09
1.786114e-09
-2.481083e-09
2.540539e-09
-3.422027e-09
3.34004e-09
-4.532682e-09
4.163157e-09
-5.813277e-09
4.992623e-09
-7.261936e-09
5.814715e-09
-8.875029e-09
6.618683e-09
-1.06475e-08
7.396254e-09
-1.257314e-08
8.141213e-09
-1.464487e-08
8.849034e-09
-1.685495e-08
9.516582e-09
-1.919514e-08
1.014184e-08
-2.165692e-08
1.07237e-08
-2.423157e-08
1.126175e-08
-2.691031e-08
1.175613e-08
-2.968437e-08
1.220742e-08
-3.254506e-08
1.261647e-08
-3.54838e-08
1.298434e-08
-3.849219e-08
1.331224e-08
-4.156201e-08
1.360141e-08
-4.46852e-08
1.385311e-08
-4.785393e-08
1.406857e-08
-5.106051e-08
1.424893e-08
-5.429745e-08
1.439525e-08
-5.755741e-08
1.450845e-08
-6.083317e-08
1.458936e-08
-6.411763e-08
1.463864e-08
-6.740377e-08
1.465682e-08
-7.068467e-08
1.464429e-08
-7.395342e-08
1.460134e-08
-7.720314e-08
1.452808e-08
-8.042698e-08
1.442454e-08
-8.361804e-08
1.429066e-08
-8.676944e-08
1.412627e-08
-8.987423e-08
1.393114e-08
-9.292543e-08
1.370498e-08
-9.591602e-08
1.344747e-08
-9.883891e-08
1.315828e-08
-1.01687e-07
1.283707e-08
-1.044531e-07
1.24835e-08
-1.0713e-07
1.209731e-08
-1.097106e-07
1.167826e-08
-1.121875e-07
1.122619e-08
-1.145537e-07
1.074103e-08
-1.16802e-07
1.022281e-08
-1.189252e-07
9.671695e-09
-1.209165e-07
9.087962e-09
-1.22769e-07
8.472043e-09
-1.244759e-07
7.824528e-09
-1.260308e-07
7.146173e-09
-1.274274e-07
6.437913e-09
-1.286597e-07
5.700865e-09
-1.29722e-07
4.93634e-09
-1.30609e-07
4.145845e-09
-1.313157e-07
3.331082e-09
-1.318376e-07
2.493958e-09
-1.321706e-07
1.636577e-09
-1.323112e-07
7.612438e-10
-1.322563e-07
-1.295453e-10
-1.320036e-07
-1.033103e-09
-1.315512e-07
-1.946562e-09
-1.308979e-07
-2.866881e-09
-1.300433e-07
-3.790859e-09
-1.289875e-07
-4.715147e-09
-1.277316e-07
-5.636261e-09
-1.262773e-07
-6.550602e-09
-1.24627e-07
-7.454472e-09
-1.227839e-07
-8.344091e-09
-1.207523e-07
-9.215623e-09
-1.185368e-07
-1.00652e-08
-1.161433e-07
-1.088893e-08
-1.135781e-07
-1.168295e-08
-1.108485e-07
-1.244342e-08
-1.079624e-07
-1.316658e-08
-1.049288e-07
-1.384876e-08
-1.017571e-07
-1.448639e-08
-9.845744e-08
-1.507607e-08
-9.504073e-08
-1.561456e-08
-9.151844e-08
-1.609883e-08
-8.790263e-08
-1.652607e-08
-8.420587e-08
-1.689372e-08
-8.044121e-08
-1.719949e-08
-7.662208e-08
-1.74414e-08
-7.27623e-08
-1.761778e-08
-6.887592e-08
-1.772731e-08
-6.497721e-08
-1.7769e-08
-6.108056e-08
-1.774226e-08
-5.720043e-08
-1.764685e-08
-5.335123e-08
-1.748294e-08
-4.954725e-08
-1.72511e-08
-4.58026e-08
-1.695231e-08
-4.21311e-08
-1.658794e-08
-3.854621e-08
-1.615979e-08
-3.506093e-08
-1.567006e-08
-3.168774e-08
-1.512136e-08
-2.843846e-08
-1.451669e-08
-2.532424e-08
-1.385947e-08
-2.235543e-08
-1.315349e-08
-1.95415e-08
-1.240293e-08
-1.689097e-08
-1.161237e-08
-1.441134e-08
-1.078675e-08
-1.210897e-08
-9.931392e-09
-9.989053e-09
-9.05199e-09
-8.055496e-09
-8.154629e-09
-6.310869e-09
-7.245786e-09
-4.756312e-09
-6.332349e-09
-3.391465e-09
-5.421638e-09
-2.214386e-09
-4.521438e-09
-1.221475e-09
-3.640039e-09
-4.073937e-10
-2.786281e-09
2.350117e-10
-1.969613e-09
7.147869e-10
-1.200156e-09
1.042943e-09
-4.88765e-10
1.232529e-09
1.528962e-10
1.2987e-09
7.123036e-10
1.258791e-09
1.176029e-09
1.132398e-09
1.529731e-09
9.415073e-10
1.758193e-09
7.106996e-10
1.845415e-09
4.675249e-10
1.774742e-09
2.431177e-10
1.529027e-09
7.322934e-11
1.090645e-09
4.40618e-10
-4.203594e-11
-1.156579e-10
-1.933012e-10
-7.994794e-12
-4.75378e-10
3.695592e-10
-9.059157e-10
9.54511e-10
-1.498778e-09
1.696045e-09
-2.264283e-09
2.551622e-09
-3.209502e-09
3.485759e-09
-4.338573e-09
4.469111e-09
-5.653035e-09
5.477616e-09
-7.152151e-09
6.491737e-09
-8.833232e-09
7.495795e-09
-1.069194e-08
8.477389e-09
-1.272256e-08
9.426881e-09
-1.491829e-08
1.033695e-08
-1.727146e-08
1.12022e-08
-1.977372e-08
1.201884e-08
-2.241626e-08
1.278437e-08
-2.518992e-08
1.349736e-08
-2.808538e-08
1.41572e-08
-3.10932e-08
1.476396e-08
-3.420396e-08
1.531818e-08
-3.740829e-08
1.582079e-08
-4.069692e-08
1.627298e-08
-4.406075e-08
1.667607e-08
-4.749084e-08
1.70315e-08
-5.097843e-08
1.73407e-08
-5.451492e-08
1.760506e-08
-5.809192e-08
1.782593e-08
-6.170117e-08
1.80045e-08
-6.53346e-08
1.814188e-08
-6.898423e-08
1.823899e-08
-7.264221e-08
1.829661e-08
-7.630077e-08
1.831537e-08
-7.99522e-08
1.829573e-08
-8.358885e-08
1.823798e-08
-8.720307e-08
1.81423e-08
-9.078723e-08
1.800871e-08
-9.43337e-08
1.783712e-08
-9.783478e-08
1.762736e-08
-1.012828e-07
1.737915e-08
-1.0467e-07
1.709217e-08
-1.079886e-07
1.676605e-08
-1.112307e-07
1.64004e-08
-1.143885e-07
1.599486e-08
-1.17454e-07
1.554906e-08
-1.204194e-07
1.506271e-08
-1.232767e-07
1.453555e-08
-1.26018e-07
1.396746e-08
-1.286353e-07
1.335839e-08
-1.31121e-07
1.270844e-08
-1.334671e-07
1.201784e-08
-1.356662e-07
1.1287e-08
-1.377106e-07
1.051651e-08
-1.395932e-07
9.707144e-09
-1.413069e-07