/*--------------------------------*- C++ -*----------------------------------*\
| =========                 |                                                 |
| \\      /  F ield         | OpenFOAM: The Open Source CFD Toolbox           |
|  \\    /   O peration     | Version:  2406                                  |
|   \\  /    A nd           | Website:  www.openfoam.com                      |
|    \\/     M anipulation  |                                                 |
\*---------------------------------------------------------------------------*/
FoamFile
{
    version     2.0;
    format      ascii;
    arch        "LSB;label=32;scalar=64";
    class       volVectorField;
    location    "6723";
    object      U;
}
// * * * * * * * * * * * * * * * * * * * * * * * * * * * * * * * * * * * * * //

dimensions      [0 1 -1 0 0 0 0];

internalField   nonuniform List<vector> 
16384
(
(1.089598e-09 -1.079761e-09 0)
(9.479623e-09 -2.803024e-09 0)
(2.259511e-08 -3.538944e-09 0)
(3.658046e-08 -3.472645e-09 0)
(4.825056e-08 -2.965088e-09 0)
(5.578053e-08 -2.211545e-09 0)
(5.80876e-08 -1.339798e-09 0)
(5.457018e-08 -4.279676e-10 0)
(4.495851e-08 4.787845e-10 0)
(2.920687e-08 1.35448e-09 0)
(7.418989e-09 2.184821e-09 0)
(-2.020075e-08 2.962404e-09 0)
(-5.338241e-08 3.683678e-09 0)
(-9.181574e-08 4.347639e-09 0)
(-1.351671e-07 4.955186e-09 0)
(-1.830913e-07 5.508431e-09 0)
(-2.35241e-07 6.010031e-09 0)
(-2.912727e-07 6.462763e-09 0)
(-3.508526e-07 6.869466e-09 0)
(-4.13659e-07 7.233176e-09 0)
(-4.793839e-07 7.557121e-09 0)
(-5.477343e-07 7.844516e-09 0)
(-6.184328e-07 8.098352e-09 0)
(-6.912178e-07 8.321314e-09 0)
(-7.658433e-07 8.515844e-09 0)
(-8.420778e-07 8.684223e-09 0)
(-9.197029e-07 8.828569e-09 0)
(-9.985125e-07 8.950776e-09 0)
(-1.078311e-06 9.052456e-09 0)
(-1.158914e-06 9.13492e-09 0)
(-1.240143e-06 9.199203e-09 0)
(-1.321827e-06 9.246114e-09 0)
(-1.403801e-06 9.276271e-09 0)
(-1.485904e-06 9.290102e-09 0)
(-1.567975e-06 9.287854e-09 0)
(-1.649858e-06 9.26958e-09 0)
(-1.731393e-06 9.235152e-09 0)
(-1.812424e-06 9.184282e-09 0)
(-1.892789e-06 9.116557e-09 0)
(-1.972327e-06 9.031464e-09 0)
(-2.050871e-06 8.928421e-09 0)
(-2.128253e-06 8.806794e-09 0)
(-2.204298e-06 8.665904e-09 0)
(-2.278831e-06 8.505031e-09 0)
(-2.351668e-06 8.323434e-09 0)
(-2.422626e-06 8.120362e-09 0)
(-2.491513e-06 7.895089e-09 0)
(-2.558137e-06 7.646934e-09 0)
(-2.622302e-06 7.375285e-09 0)
(-2.683807e-06 7.079618e-09 0)
(-2.742452e-06 6.759498e-09 0)
(-2.798035e-06 6.41459e-09 0)
(-2.850353e-06 6.044671e-09 0)
(-2.899203e-06 5.649641e-09 0)
(-2.944386e-06 5.22954e-09 0)
(-2.985704e-06 4.784565e-09 0)
(-3.022963e-06 4.315083e-09 0)
(-3.055976e-06 3.821639e-09 0)
(-3.084562e-06 3.304965e-09 0)
(-3.108549e-06 2.765982e-09 0)
(-3.127771e-06 2.205797e-09 0)
(-3.142078e-06 1.625708e-09 0)
(-3.151329e-06 1.027205e-09 0)
(-3.155398e-06 4.119784e-10 0)
(-3.154176e-06 -2.180815e-10 0)
(-3.147567e-06 -8.608883e-10 0)
(-3.135498e-06 -1.51416e-09 0)
(-3.11791e-06 -2.175433e-09 0)
(-3.094769e-06 -2.842072e-09 0)
(-3.066061e-06 -3.511285e-09 0)
(-3.031796e-06 -4.180132e-09 0)
(-2.992005e-06 -4.84554e-09 0)
(-2.946748e-06 -5.504326e-09 0)
(-2.896106e-06 -6.153207e-09 0)
(-2.840189e-06 -6.788828e-09 0)
(-2.779132e-06 -7.40778e-09 0)
(-2.713094e-06 -8.006625e-09 0)
(-2.642265e-06 -8.581929e-09 0)
(-2.566857e-06 -9.130281e-09 0)
(-2.48711e-06 -9.648326e-09 0)
(-2.403287e-06 -1.013279e-08 0)
(-2.315677e-06 -1.058052e-08 0)
(-2.224592e-06 -1.098849e-08 0)
(-2.130365e-06 -1.135385e-08 0)
(-2.03335e-06 -1.167394e-08 0)
(-1.93392e-06 -1.194635e-08 0)
(-1.832465e-06 -1.216888e-08 0)
(-1.729391e-06 -1.233963e-08 0)
(-1.625114e-06 -1.245699e-08 0)
(-1.520065e-06 -1.251964e-08 0)
(-1.414679e-06 -1.252661e-08 0)
(-1.3094e-06 -1.247727e-08 0)
(-1.204674e-06 -1.237131e-08 0)
(-1.100946e-06 -1.220881e-08 0)
(-9.98661e-07 -1.19902e-08 0)
(-8.982576e-07 -1.171624e-08 0)
(-8.00167e-07 -1.13881e-08 0)
(-7.0481e-07 -1.100725e-08 0)
(-6.125941e-07 -1.057552e-08 0)
(-5.23911e-07 -1.009506e-08 0)
(-4.39134e-07 -9.568349e-09 0)
(-3.586152e-07 -8.998136e-09 0)
(-2.826838e-07 -8.387468e-09 0)
(-2.11643e-07 -7.739647e-09 0)
(-1.457679e-07 -7.058227e-09 0)
(-8.530381e-08 -6.347002e-09 0)
(-3.046327e-08 -5.609993e-09 0)
(1.857559e-08 -4.851437e-09 0)
(6.167152e-08 -4.075819e-09 0)
(9.872246e-08 -3.287886e-09 0)
(1.296682e-07 -2.492672e-09 0)
(1.544931e-07 -1.695553e-09 0)
(1.7323e-07 -9.023508e-10 0)
(1.859637e-07 -1.194779e-10 0)
(1.928369e-07 6.458512e-10 0)
(1.94056e-07 1.38531e-09 0)
(1.898998e-07 2.088999e-09 0)
(1.807306e-07 2.744748e-09 0)
(1.670085e-07 3.337064e-09 0)
(1.49311e-07 3.845561e-09 0)
(1.283585e-07 4.242572e-09 0)
(1.050495e-07 4.489534e-09 0)
(8.050539e-08 4.531732e-09 0)
(5.612518e-08 4.292259e-09 0)
(3.363677e-08 3.670111e-09 0)
(1.513773e-08 2.547644e-09 0)
(3.061563e-09 8.366926e-10 0)
(-8.761651e-10 -8.773481e-10 0)
(2.821149e-09 -9.463367e-09 0)
(2.152383e-08 -2.145529e-08 0)
(4.70682e-08 -2.576466e-08 0)
(7.219501e-08 -2.373681e-08 0)
(9.056721e-08 -1.734507e-08 0)
(9.814301e-08 -8.156398e-09 0)
(9.227027e-08 2.701854e-09 0)
(7.131502e-08 1.444368e-08 0)
(3.441086e-08 2.652809e-08 0)
(-1.874615e-08 3.858478e-08 0)
(-8.805537e-08 5.036283e-08 0)
(-1.73127e-07 6.16942e-08 0)
(-2.733688e-07 7.246851e-08 0)
(-3.88052e-07 8.261686e-08 0)
(-5.163595e-07 9.210086e-08 0)
(-6.574211e-07 1.009044e-07 0)
(-8.103415e-07 1.090273e-07 0)
(-9.742204e-07 1.164802e-07 0)
(-1.148168e-06 1.232815e-07 0)
(-1.331313e-06 1.294553e-07 0)
(-1.522816e-06 1.350296e-07 0)
(-1.721866e-06 1.400344e-07 0)
(-1.927689e-06 1.445002e-07 0)
(-2.13955e-06 1.48457e-07 0)
(-2.356748e-06 1.519338e-07 0)
(-2.578618e-06 1.549576e-07 0)
(-2.804531e-06 1.575539e-07 0)
(-3.033885e-06 1.597455e-07 0)
(-3.266109e-06 1.615528e-07 0)
(-3.500654e-06 1.629931e-07 0)
(-3.736994e-06 1.64081e-07 0)
(-3.974621e-06 1.648281e-07 0)
(-4.213039e-06 1.652435e-07 0)
(-4.451763e-06 1.653334e-07 0)
(-4.690317e-06 1.65102e-07 0)
(-4.928227e-06 1.645509e-07 0)
(-5.165019e-06 1.636796e-07 0)
(-5.400221e-06 1.624858e-07 0)
(-5.633355e-06 1.609654e-07 0)
(-5.863938e-06 1.59113e-07 0)
(-6.091479e-06 1.569222e-07 0)
(-6.315479e-06 1.543857e-07 0)
(-6.53543e-06 1.514957e-07 0)
(-6.750812e-06 1.482442e-07 0)
(-6.961098e-06 1.446229e-07 0)
(-7.165748e-06 1.406239e-07 0)
(-7.364215e-06 1.362399e-07 0)
(-7.555942e-06 1.31464e-07 0)
(-7.740368e-06 1.262908e-07 0)
(-7.916922e-06 1.207156e-07 0)
(-8.085032e-06 1.147358e-07 0)
(-8.244125e-06 1.083499e-07 0)
(-8.393627e-06 1.015587e-07 0)
(-8.532971e-06 9.436472e-08 0)
(-8.661594e-06 8.677295e-08 0)
(-8.778944e-06 7.87906e-08 0)
(-8.884485e-06 7.042748e-08 0)
(-8.977693e-06 6.1696e-08 0)
(-9.05807e-06 5.261132e-08 0)
(-9.125139e-06 4.319142e-08 0)
(-9.178453e-06 3.345712e-08 0)
(-9.217597e-06 2.343212e-08 0)
(-9.242192e-06 1.3143e-08 0)
(-9.2519e-06 2.619214e-09 0)
(-9.246427e-06 -8.10697e-09 0)
(-9.225526e-06 -1.900052e-08 0)
(-9.189004e-06 -3.002374e-08 0)
(-9.136721e-06 -4.11364e-08 0)
(-9.068595e-06 -5.229593e-08 0)
(-8.984607e-06 -6.345756e-08 0)
(-8.884801e-06 -7.457459e-08 0)
(-8.769289e-06 -8.559858e-08 0)
(-8.638249e-06 -9.647966e-08 0)
(-8.491933e-06 -1.071668e-07 0)
(-8.330661e-06 -1.176082e-07 0)
(-8.154828e-06 -1.277514e-07 0)
(-7.9649e-06 -1.375441e-07 0)
(-7.761416e-06 -1.469339e-07 0)
(-7.544988e-06 -1.558694e-07 0)
(-7.316297e-06 -1.642998e-07 0)
(-7.076093e-06 -1.721762e-07 0)
(-6.825193e-06 -1.794514e-07 0)
(-6.564477e-06 -1.860803e-07 0)
(-6.294885e-06 -1.920206e-07 0)
(-6.017414e-06 -1.972332e-07 0)
(-5.733111e-06 -2.016821e-07 0)
(-5.443071e-06 -2.053354e-07 0)
(-5.148429e-06 -2.081652e-07 0)
(-4.850356e-06 -2.101479e-07 0)
(-4.550052e-06 -2.112648e-07 0)
(-4.248738e-06 -2.115019e-07 0)
(-3.947651e-06 -2.108504e-07 0)
(-3.648037e-06 -2.093069e-07 0)
(-3.351143e-06 -2.068733e-07 0)
(-3.058207e-06 -2.035567e-07 0)
(-2.770455e-06 -1.993702e-07 0)
(-2.489091e-06 -1.943319e-07 0)
(-2.215289e-06 -1.884655e-07 0)
(-1.950186e-06 -1.818002e-07 0)
(-1.694874e-06 -1.743702e-07 0)
(-1.450396e-06 -1.662149e-07 0)
(-1.217732e-06 -1.573786e-07 0)
(-9.978013e-07 -1.479105e-07 0)
(-7.914467e-07 -1.378645e-07 0)
(-5.994338e-07 -1.272988e-07 0)
(-4.224424e-07 -1.162762e-07 0)
(-2.610601e-07 -1.04864e-07 0)
(-1.157762e-07 -9.31339e-08 0)
(1.302555e-08 -8.116239e-08 0)
(1.250735e-07 -6.903097e-08 0)
(2.202161e-07 -5.682676e-08 0)
(2.984305e-07 -4.464332e-08 0)
(3.598318e-07 -3.258188e-08 0)
(4.046854e-07 -2.075294e-08 0)
(4.334204e-07 -9.278649e-09 0)
(4.466464e-07 1.704105e-09 0)
(4.451748e-07 1.203945e-08 0)
(4.300447e-07 2.154679e-08 0)
(4.025553e-07 3.001307e-08 0)
(3.643069e-07 3.718268e-08 0)
(3.172492e-07 4.274454e-08 0)
(2.637409e-07 4.631695e-08 0)
(2.066135e-07 4.743342e-08 0)
(1.492294e-07 4.554181e-08 0)
(9.549182e-08 4.004815e-08 0)
(4.979087e-08 3.0481e-08 0)
(1.703756e-08 1.707202e-08 0)
(8.27719e-10 3.049867e-09 0)
(3.575479e-09 -2.26323e-08 0)
(2.594541e-08 -4.703483e-08 0)
(5.366195e-08 -5.34251e-08 0)
(7.772686e-08 -4.577962e-08 0)
(9.025593e-08 -2.806713e-08 0)
(8.600327e-08 -3.538544e-09 0)
(6.133634e-08 2.531814e-08 0)
(1.388536e-08 5.665749e-08 0)
(-5.770797e-08 8.913369e-08 0)
(-1.540187e-07 1.21776e-07 0)
(-2.750305e-07 1.538924e-07 0)
(-4.202866e-07 1.849963e-07 0)
(-5.890081e-07 2.147526e-07 0)
(-7.801869e-07 2.429382e-07 0)
(-9.926574e-07 2.694152e-07 0)
(-1.225153e-06 2.94109e-07 0)
(-1.476348e-06 3.16992e-07 0)
(-1.744892e-06 3.380711e-07 0)
(-2.029437e-06 3.573786e-07 0)
(-2.328648e-06 3.749646e-07 0)
(-2.641224e-06 3.908919e-07 0)
(-2.965905e-06 4.052308e-07 0)
(-3.301475e-06 4.180552e-07 0)
(-3.64677e-06 4.294395e-07 0)
(-4.000675e-06 4.394568e-07 0)
(-4.362125e-06 4.481768e-07 0)
(-4.730104e-06 4.556648e-07 0)
(-5.103637e-06 4.619802e-07 0)
(-5.481792e-06 4.67176e-07 0)
(-5.863673e-06 4.712984e-07 0)
(-6.248413e-06 4.743861e-07 0)
(-6.635175e-06 4.764705e-07 0)
(-7.023138e-06 4.775763e-07 0)
(-7.4115e-06 4.777211e-07 0)
(-7.79947e-06 4.769163e-07 0)
(-8.186261e-06 4.751668e-07 0)
(-8.57109e-06 4.724724e-07 0)
(-8.953174e-06 4.688276e-07 0)
(-9.331722e-06 4.642228e-07 0)
(-9.705938e-06 4.586445e-07 0)
(-1.007501e-05 4.520767e-07 0)
(-1.043813e-05 4.445012e-07 0)
(-1.079446e-05 4.358982e-07 0)
(-1.114314e-05 4.262475e-07 0)
(-1.148333e-05 4.155287e-07 0)
(-1.181415e-05 4.037223e-07 0)
(-1.21347e-05 3.908102e-07 0)
(-1.244411e-05 3.767767e-07 0)
(-1.274145e-05 3.616087e-07 0)
(-1.302582e-05 3.452971e-07 0)
(-1.329631e-05 3.278365e-07 0)
(-1.355199e-05 3.092266e-07 0)
(-1.379196e-05 2.894721e-07 0)
(-1.401532e-05 2.685835e-07 0)
(-1.422118e-05 2.465776e-07 0)
(-1.440866e-05 2.234777e-07 0)
(-1.457693e-05 1.993142e-07 0)
(-1.472516e-05 1.741249e-07 0)
(-1.485258e-05 1.47955e-07 0)
(-1.495843e-05 1.208575e-07 0)
(-1.504204e-05 9.289327e-08 0)
(-1.510276e-05 6.413105e-08 0)
(-1.514001e-05 3.464758e-08 0)
(-1.515327e-05 4.527448e-09 0)
(-1.514209e-05 -2.61371e-08 0)
(-1.510611e-05 -5.724631e-08 0)
(-1.504504e-05 -8.869321e-08 0)
(-1.495869e-05 -1.20364e-07 0)
(-1.484694e-05 -1.521386e-07 0)
(-1.47098e-05 -1.83891e-07 0)
(-1.454735e-05 -2.154901e-07 0)
(-1.435979e-05 -2.468001e-07 0)
(-1.414742e-05 -2.776814e-07 0)
(-1.391067e-05 -3.079917e-07 0)
(-1.365007e-05 -3.375865e-07 0)
(-1.336624e-05 -3.663199e-07 0)
(-1.305996e-05 -3.940461e-07 0)
(-1.273209e-05 -4.206203e-07 0)
(-1.23836e-05 -4.458993e-07 0)
(-1.201559e-05 -4.697432e-07 0)
(-1.162926e-05 -4.920162e-07 0)
(-1.122591e-05 -5.125877e-07 0)
(-1.080692e-05 -5.313337e-07 0)
(-1.037381e-05 -5.481374e-07 0)
(-9.92814e-06 -5.628906e-07 0)
(-9.471574e-06 -5.754947e-07 0)
(-9.00584e-06 -5.858617e-07 0)
(-8.532734e-06 -5.939148e-07 0)
(-8.054103e-06 -5.995895e-07 0)
(-7.571839e-06 -6.028344e-07 0)
(-7.087869e-06 -6.036115e-07 0)
(-6.604144e-06 -6.01897e-07 0)
(-6.122625e-06 -5.976819e-07 0)
(-5.645278e-06 -5.909719e-07 0)
(-5.174053e-06 -5.81788e-07 0)
(-4.710882e-06 -5.701662e-07 0)
(-4.257661e-06 -5.56158e-07 0)
(-3.816238e-06 -5.398301e-07 0)
(-3.388404e-06 -5.21264e-07 0)
(-2.975882e-06 -5.00556e-07 0)
(-2.58031e-06 -4.778168e-07 0)
(-2.203236e-06 -4.531712e-07 0)
(-1.846103e-06 -4.267578e-07 0)
(-1.510239e-06 -3.987285e-07 0)
(-1.196849e-06 -3.692483e-07 0)
(-9.069979e-07 -3.384952e-07 0)
(-6.416081e-07 -3.066601e-07 0)
(-4.014429e-07 -2.739474e-07 0)
(-1.870978e-07 -2.405749e-07 0)
(1.010747e-09 -2.067754e-07 0)
(1.626584e-07 -1.727977e-07 0)
(2.978259e-07 -1.389091e-07 0)
(4.067144e-07 -1.053981e-07 0)
(4.897629e-07 -7.257873e-08 0)
(5.476685e-07 -4.079603e-08 0)
(5.814105e-07 -1.0433e-08 0)
(5.922792e-07 1.807983e-08 0)
(5.819096e-07 4.425259e-08 0)
(5.523219e-07 6.752112e-08 0)
(5.059686e-07 8.722903e-08 0)
(4.457866e-07 1.02608e-07 0)
(3.752525e-07 1.127603e-07 0)
(2.984329e-07 1.166533e-07 0)
(2.200093e-07 1.131529e-07 0)
(1.452276e-07 1.011489e-07 0)
(7.9809e-08 7.988173e-08 0)
(3.038659e-08 4.980173e-08 0)
(2.51836e-09 1.507684e-08 0)
(3.53771e-09 -3.67618e-08 0)
(2.405665e-08 -7.233285e-08 0)
(4.622982e-08 -7.755924e-08 0)
(6.020472e-08 -5.977609e-08 0)
(5.74211e-08 -2.521803e-08 0)
(3.204384e-08 2.102217e-08 0)
(-2.00787e-08 7.493356e-08 0)
(-1.017431e-07 1.334358e-07 0)
(-2.146216e-07 1.942026e-07 0)
(-3.594827e-07 2.554988e-07 0)
(-5.363864e-07 3.160464e-07 0)
(-7.448469e-07 3.749178e-07 0)
(-9.839651e-07 4.314539e-07 0)
(-1.252536e-06 4.852012e-07 0)
(-1.549137e-06 5.358635e-07 0)
(-1.872196e-06 5.832649e-07 0)
(-2.220047e-06 6.273209e-07 0)
(-2.590978e-06 6.680157e-07 0)
(-2.983255e-06 7.053853e-07 0)
(-3.395157e-06 7.395029e-07 0)
(-3.824986e-06 7.704678e-07 0)
(-4.271088e-06 7.983964e-07 0)
(-4.731858e-06 8.234143e-07 0)
(-5.205749e-06 8.456509e-07 0)
(-5.691268e-06 8.652347e-07 0)
(-6.186984e-06 8.822897e-07 0)
(-6.691521e-06 8.96933e-07 0)
(-7.203555e-06 9.092718e-07 0)
(-7.721814e-06 9.194023e-07 0)
(-8.245067e-06 9.274086e-07 0)
(-8.772123e-06 9.333619e-07 0)
(-9.301825e-06 9.373205e-07 0)
(-9.833038e-06 9.393302e-07 0)
(-1.036465e-05 9.394243e-07 0)
(-1.089556e-05 9.376241e-07 0)
(-1.142468e-05 9.339401e-07 0)
(-1.195093e-05 9.283725e-07 0)
(-1.24732e-05 9.209124e-07 0)
(-1.299042e-05 9.115432e-07 0)
(-1.350148e-05 9.002418e-07 0)
(-1.400525e-05 8.869797e-07 0)
(-1.450063e-05 8.717249e-07 0)
(-1.498645e-05 8.544427e-07 0)
(-1.546156e-05 8.350975e-07 0)
(-1.592479e-05 8.136539e-07 0)
(-1.637493e-05 7.900781e-07 0)
(-1.68108e-05 7.643396e-07 0)
(-1.723117e-05 7.364121e-07 0)
(-1.763481e-05 7.062752e-07 0)
(-1.80205e-05 6.739152e-07 0)
(-1.838701e-05 6.393265e-07 0)
(-1.873309e-05 6.025126e-07 0)
(-1.905755e-05 5.634873e-07 0)
(-1.935917e-05 5.222752e-07 0)
(-1.963677e-05 4.78913e-07 0)
(-1.988919e-05 4.334499e-07 0)
(-2.011531e-05 3.859488e-07 0)
(-2.031406e-05 3.364862e-07 0)
(-2.04844e-05 2.851531e-07 0)
(-2.062537e-05 2.320552e-07 0)
(-2.073604e-05 1.773131e-07 0)
(-2.08156e-05 1.210624e-07 0)
(-2.086328e-05 6.345357e-08 0)
(-2.087842e-05 4.652085e-09 0)
(-2.086046e-05 -5.516226e-08 0)
(-2.080892e-05 -1.157956e-07 0)
(-2.072345e-05 -1.770405e-07 0)
(-2.060383e-05 -2.38677e-07 0)
(-2.044992e-05 -3.004731e-07 0)
(-2.026175e-05 -3.621862e-07 0)
(-2.003948e-05 -4.235639e-07 0)
(-1.978339e-05 -4.843456e-07 0)
(-1.949391e-05 -5.442637e-07 0)
(-1.917164e-05 -6.030454e-07 0)
(-1.881729e-05 -6.604141e-07 0)
(-1.843174e-05 -7.160915e-07 0)
(-1.801603e-05 -7.697991e-07 0)
(-1.757132e-05 -8.212605e-07 0)
(-1.709894e-05 -8.702032e-07 0)
(-1.660036e-05 -9.163608e-07 0)
(-1.607718e-05 -9.594749e-07 0)
(-1.553115e-05 -9.992974e-07 0)
(-1.496414e-05 -1.035592e-06 0)
(-1.437813e-05 -1.068139e-06 0)
(-1.377525e-05 -1.09673e-06 0)
(-1.315769e-05 -1.121181e-06 0)
(-1.252776e-05 -1.141323e-06 0)
(-1.188785e-05 -1.157012e-06 0)
(-1.124042e-05 -1.168126e-06 0)
(-1.058799e-05 -1.174566e-06 0)
(-9.933103e-06 -1.176263e-06 0)
(-9.278364e-06 -1.17317e-06 0)
(-8.626378e-06 -1.165272e-06 0)
(-7.979751e-06 -1.152581e-06 0)
(-7.341078e-06 -1.135136e-06 0)
(-6.712922e-06 -1.113007e-06 0)
(-6.0978e-06 -1.086294e-06 0)
(-5.498169e-06 -1.055125e-06 0)
(-4.916407e-06 -1.019655e-06 0)
(-4.354801e-06 -9.80071e-07 0)
(-3.81553e-06 -9.365849e-07 0)
(-3.300649e-06 -8.894373e-07 0)
(-2.812075e-06 -8.388951e-07 0)
(-2.351573e-06 -7.852514e-07 0)
(-1.92074e-06 -7.288251e-07 0)
(-1.520992e-06 -6.699605e-07 0)
(-1.15355e-06 -6.090274e-07 0)
(-8.194243e-07 -5.464216e-07 0)
(-5.193997e-07 -4.825661e-07 0)
(-2.540218e-07 -4.179124e-07 0)
(-2.357952e-08 -3.529434e-07 0)
(1.719119e-07 -2.881768e-07 0)
(3.327302e-07 -2.241707e-07 0)
(4.59468e-07 -1.615298e-07 0)
(5.530566e-07 -1.009149e-07 0)
(6.147943e-07 -4.305345e-08 0)
(6.463782e-07 1.124537e-08 0)
(6.499401e-07 6.107404e-08 0)
(6.280878e-07 1.054062e-07 0)
(5.839483e-07 1.430746e-07 0)
(5.212143e-07 1.727499e-07 0)
(4.441859e-07 1.929289e-07 0)
(3.57804e-07 2.019461e-07 0)
(2.67655e-07 1.980443e-07 0)
(1.79906e-07 1.795597e-07 0)
(1.012795e-07 1.453205e-07 0)
(3.997953e-08 9.54899e-08 0)
(3.622843e-09 3.349896e-08 0)
(3.060337e-09 -4.866174e-08 0)
(1.774754e-08 -9.095167e-08 0)
(2.851908e-08 -9.016066e-08 0)
(2.543393e-08 -5.698021e-08 0)
(-8.137084e-11 2.911787e-11 0)
(-5.402444e-08 7.391129e-08 0)
(-1.407238e-07 1.591069e-07 0)
(-2.631409e-07 2.512526e-07 0)
(-4.23082e-07 3.469726e-07 0)
(-6.214009e-07 4.436865e-07 0)
(-8.581825e-07 5.394465e-07 0)
(-1.132903e-06 6.32805e-07 0)
(-1.444563e-06 7.22708e-07 0)
(-1.791802e-06 8.084102e-07 0)
(-2.172995e-06 8.894073e-07 0)
(-2.586328e-06 9.653827e-07 0)
(-3.029859e-06 1.036165e-06 0)
(-3.501576e-06 1.101693e-06 0)
(-3.999427e-06 1.161992e-06 0)
(-4.521359e-06 1.217149e-06 0)
(-5.065335e-06 1.267296e-06 0)
(-5.62936e-06 1.312593e-06 0)
(-6.211483e-06 1.35322e-06 0)
(-6.809813e-06 1.389365e-06 0)
(-7.42252e-06 1.421219e-06 0)
(-8.047835e-06 1.448965e-06 0)
(-8.684052e-06 1.47278e-06 0)
(-9.329522e-06 1.492825e-06 0)
(-9.982653e-06 1.509247e-06 0)
(-1.06419e-05 1.522172e-06 0)
(-1.130576e-05 1.531712e-06 0)
(-1.197277e-05 1.537955e-06 0)
(-1.264149e-05 1.540972e-06 0)
(-1.331052e-05 1.540816e-06 0)
(-1.397845e-05 1.53752e-06 0)
(-1.46439e-05 1.531101e-06 0)
(-1.530549e-05 1.52156e-06 0)
(-1.596183e-05 1.508886e-06 0)
(-1.661154e-05 1.493054e-06 0)
(-1.725321e-05 1.47403e-06 0)
(-1.788545e-05 1.451772e-06 0)
(-1.850681e-05 1.426232e-06 0)
(-1.911586e-05 1.39736e-06 0)
(-1.971113e-05 1.365103e-06 0)
(-2.029116e-05 1.32941e-06 0)
(-2.085445e-05 1.290231e-06 0)
(-2.139949e-05 1.247523e-06 0)
(-2.192477e-05 1.201251e-06 0)
(-2.242876e-05 1.151387e-06 0)
(-2.290994e-05 1.097916e-06 0)
(-2.336678e-05 1.040835e-06 0)
(-2.379777e-05 9.801563e-07 0)
(-2.42014e-05 9.159085e-07 0)
(-2.45762e-05 8.481378e-07 0)
(-2.492071e-05 7.769094e-07 0)
(-2.523353e-05 7.02309e-07 0)
(-2.551328e-05 6.244434e-07 0)
(-2.575865e-05 5.434417e-07 0)
(-2.596839e-05 4.59456e-07 0)
(-2.614133e-05 3.726615e-07 0)
(-2.627638e-05 2.83257e-07 0)
(-2.637253e-05 1.914653e-07 0)
(-2.642888e-05 9.753262e-08 0)
(-2.644465e-05 1.728537e-09 0)
(-2.641916e-05 -9.565453e-08 0)
(-2.635188e-05 -1.943021e-07 0)
(-2.62424e-05 -2.938787e-07 0)
(-2.609046e-05 -3.940289e-07 0)
(-2.589596e-05 -4.943788e-07 0)
(-2.565894e-05 -5.945379e-07 0)
(-2.537963e-05 -6.941007e-07 0)
(-2.505841e-05 -7.926489e-07 0)
(-2.469584e-05 -8.897536e-07 0)
(-2.429267e-05 -9.849781e-07 0)
(-2.38498e-05 -1.07788e-06 0)
(-2.336835e-05 -1.168015e-06 0)
(-2.28496e-05 -1.254938e-06 0)
(-2.2295e-05 -1.338209e-06 0)
(-2.17062e-05 -1.417392e-06 0)
(-2.108501e-05 -1.492065e-06 0)
(-2.043341e-05 -1.561816e-06 0)
(-1.975355e-05 -1.626249e-06 0)
(-1.904774e-05 -1.684991e-06 0)
(-1.831841e-05 -1.737689e-06 0)
(-1.756816e-05 -1.784017e-06 0)
(-1.679969e-05 -1.823678e-06 0)
(-1.601583e-05 -1.856407e-06 0)
(-1.52195e-05 -1.881975e-06 0)
(-1.441371e-05 -1.900186e-06 0)
(-1.360154e-05 -1.910888e-06 0)
(-1.278611e-05 -1.913967e-06 0)
(-1.197061e-05 -1.909354e-06 0)
(-1.115821e-05 -1.897022e-06 0)
(-1.03521e-05 -1.87699e-06 0)
(-9.555458e-06 -1.849324e-06 0)
(-8.771412e-06 -1.814137e-06 0)
(-8.003043e-06 -1.771586e-06 0)
(-7.253353e-06 -1.721878e-06 0)
(-6.525252e-06 -1.665262e-06 0)
(-5.821539e-06 -1.602038e-06 0)
(-5.144878e-06 -1.532545e-06 0)
(-4.497786e-06 -1.457172e-06 0)
(-3.882609e-06 -1.376346e-06 0)
(-3.301507e-06 -1.29054e-06 0)
(-2.756437e-06 -1.200268e-06 0)
(-2.249133e-06 -1.106085e-06 0)
(-1.781088e-06 -1.008588e-06 0)
(-1.353538e-06 -9.084165e-07 0)
(-9.67445e-07 -8.062535e-07 0)
(-6.234752e-07 -7.028285e-07 0)
(-3.219817e-07 -5.989207e-07 0)
(-6.298379e-08 -4.953644e-07 0)
(1.538553e-07 -3.930563e-07 0)
(3.292525e-07 -2.929642e-07 0)
(4.643311e-07 -1.961391e-07 0)
(5.606498e-07 -1.0373e-07 0)
(6.202347e-07 -1.700156e-08 0)
(6.456142e-07 6.264517e-08 0)
(6.398557e-07 1.3365e-07 0)
(6.066031e-07 1.942705e-07 0)
(5.501135e-07 2.425646e-07 0)
(4.752879e-07 2.763856e-07 0)
(3.876962e-07 2.934097e-07 0)
(2.935833e-07 2.912243e-07 0)
(1.998261e-07 2.675264e-07 0)
(1.140043e-07 2.204913e-07 0)
(4.568662e-08 1.494234e-07 0)
(4.240801e-09 5.594784e-08 0)
(2.330922e-09 -5.645535e-08 0)
(8.487865e-09 -9.867443e-08 0)
(3.526822e-09 -8.567954e-08 0)
(-2.195857e-08 -3.112091e-08 0)
(-7.602694e-08 5.423961e-08 0)
(-1.645015e-07 1.616522e-07 0)
(-2.916171e-07 2.840522e-07 0)
(-4.602825e-07 4.158093e-07 0)
(-6.722736e-07 5.524885e-07 0)
(-9.284148e-07 6.906356e-07 0)
(-1.228745e-06 8.275938e-07 0)
(-1.572664e-06 9.613512e-07 0)
(-1.959066e-06 1.090413e-06 0)
(-2.386446e-06 1.2137e-06 0)
(-2.853005e-06 1.330461e-06 0)
(-3.356721e-06 1.440206e-06 0)
(-3.895424e-06 1.54265e-06 0)
(-4.466845e-06 1.637667e-06 0)
(-5.068664e-06 1.725254e-06 0)
(-5.698543e-06 1.805499e-06 0)
(-6.354152e-06 1.878559e-06 0)
(-7.033195e-06 1.944637e-06 0)
(-7.733418e-06 2.003962e-06 0)
(-8.452623e-06 2.056784e-06 0)
(-9.188674e-06 2.103353e-06 0)
(-9.939497e-06 2.143919e-06 0)
(-1.070308e-05 2.178719e-06 0)
(-1.147748e-05 2.207973e-06 0)
(-1.226079e-05 2.23188e-06 0)
(-1.305119e-05 2.250617e-06 0)
(-1.384687e-05 2.264335e-06 0)
(-1.464608e-05 2.273157e-06 0)
(-1.54471e-05 2.277183e-06 0)
(-1.624822e-05 2.276484e-06 0)
(-1.704777e-05 2.271109e-06 0)
(-1.784407e-05 2.261082e-06 0)
(-1.863546e-05 2.246406e-06 0)
(-1.942027e-05 2.227065e-06 0)
(-2.019683e-05 2.203028e-06 0)
(-2.096345e-05 2.17425e-06 0)
(-2.171844e-05 2.140673e-06 0)
(-2.246009e-05 2.102235e-06 0)
(-2.318668e-05 2.058867e-06 0)
(-2.389645e-05 2.0105e-06 0)
(-2.458764e-05 1.957065e-06 0)
(-2.525848e-05 1.898501e-06 0)
(-2.590718e-05 1.834751e-06 0)
(-2.653194e-05 1.765771e-06 0)
(-2.713096e-05 1.691531e-06 0)
(-2.770244e-05 1.612018e-06 0)
(-2.824458e-05 1.527234e-06 0)
(-2.87556e-05 1.437208e-06 0)
(-2.923374e-05 1.341989e-06 0)
(-2.967726e-05 1.241653e-06 0)
(-3.008449e-05 1.136303e-06 0)
(-3.045377e-05 1.026072e-06 0)
(-3.078351e-05 9.111224e-07 0)
(-3.107219e-05 7.916501e-07 0)
(-3.131838e-05 6.678829e-07 0)
(-3.152071e-05 5.400819e-07 0)
(-3.167793e-05 4.085422e-07 0)
(-3.17889e-05 2.735928e-07 0)
(-3.185259e-05 1.355963e-07 0)
(-3.186812e-05 -5.051548e-09 0)
(-3.183472e-05 -1.479226e-07 0)
(-3.175181e-05 -2.925574e-07 0)
(-3.161893e-05 -4.384668e-07 0)
(-3.143583e-05 -5.851336e-07 0)
(-3.120241e-05 -7.320147e-07 0)
(-3.091876e-05 -8.785434e-07 0)
(-3.058517e-05 -1.024132e-06 0)
(-3.020213e-05 -1.168176e-06 0)
(-2.977033e-05 -1.310056e-06 0)
(-2.929064e-05 -1.44914e-06 0)
(-2.876418e-05 -1.584791e-06 0)
(-2.819226e-05 -1.716367e-06 0)
(-2.757638e-05 -1.84323e-06 0)
(-2.691829e-05 -1.964745e-06 0)
(-2.621991e-05 -2.080287e-06 0)
(-2.548338e-05 -2.189246e-06 0)
(-2.471101e-05 -2.291033e-06 0)
(-2.390533e-05 -2.38508e-06 0)
(-2.306904e-05 -2.470849e-06 0)
(-2.220498e-05 -2.547836e-06 0)
(-2.131618e-05 -2.615573e-06 0)
(-2.04058e-05 -2.673634e-06 0)
(-1.947714e-05 -2.72164e-06 0)
(-1.85336e-05 -2.759261e-06 0)
(-1.757869e-05 -2.786219e-06 0)
(-1.661599e-05 -2.802294e-06 0)
(-1.564915e-05 -2.807324e-06 0)
(-1.468186e-05 -2.801208e-06 0)
(-1.371784e-05 -2.783912e-06 0)
(-1.276079e-05 -2.755462e-06 0)
(-1.181441e-05 -2.715954e-06 0)
(-1.088234e-05 -2.66555e-06 0)
(-9.968182e-06 -2.604478e-06 0)
(-9.075425e-06 -2.533035e-06 0)
(-8.207464e-06 -2.451585e-06 0)
(-7.367562e-06 -2.360556e-06 0)
(-6.558827e-06 -2.260444e-06 0)
(-5.784195e-06 -2.151807e-06 0)
(-5.046407e-06 -2.035267e-06 0)
(-4.347985e-06 -1.91151e-06 0)
(-3.691217e-06 -1.781279e-06 0)
(-3.078128e-06 -1.645382e-06 0)
(-2.510468e-06 -1.504687e-06 0)
(-1.989686e-06 -1.360121e-06 0)
(-1.516909e-06 -1.212677e-06 0)
(-1.092925e-06 -1.063415e-06 0)
(-7.181572e-07 -9.134656e-07 0)
(-3.926426e-07 -7.640358e-07 0)
(-1.160091e-07 -6.1642e-07 0)
(1.125508e-07 -4.720095e-07 0)
(2.94306e-07 -3.323067e-07 0)
(4.310159e-07 -1.989423e-07 0)
(5.2496e-07 -7.369478e-08 0)
(5.789698e-07 4.14869e-08 0)
(5.964603e-07 1.444602e-07 0)
(5.814614e-07 2.328671e-07 0)
(5.386465e-07 3.041206e-07 0)
(4.733577e-07 3.554056e-07 0)
(3.916298e-07 3.837125e-07 0)
(3.002106e-07 3.859227e-07 0)
(2.065532e-07 3.589787e-07 0)
(1.189626e-07 3.001662e-07 0)
(4.806663e-08 2.075312e-07 0)
(4.49798e-09 8.044424e-08 0)
(1.468322e-09 -5.895442e-08 0)
(-2.69247e-09 -9.254955e-08 0)
(-2.650748e-08 -5.999541e-08 0)
(-7.841399e-08 2.262421e-08 0)
(-1.655559e-07 1.425909e-07 0)
(-2.933082e-07 2.895055e-07 0)
(-4.655899e-07 4.548936e-07 0)
(-6.850744e-07 6.319174e-07 0)
(-9.533615e-07 8.151144e-07 0)
(-1.271135e-06 1.000167e-06 0)
(-1.638307e-06 1.183703e-06 0)
(-2.054154e-06 1.363132e-06 0)
(-2.517432e-06 1.536495e-06 0)
(-3.026489e-06 1.702354e-06 0)
(-3.579354e-06 1.859686e-06 0)
(-4.173822e-06 2.007804e-06 0)
(-4.807514e-06 2.146288e-06 0)
(-5.477942e-06 2.27493e-06 0)
(-6.182548e-06 2.393684e-06 0)
(-6.918747e-06 2.502629e-06 0)
(-7.683953e-06 2.601938e-06 0)
(-8.475603e-06 2.691847e-06 0)
(-9.291175e-06 2.772635e-06 0)
(-1.01282e-05 2.844607e-06 0)
(-1.098426e-05 2.908076e-06 0)
(-1.1857e-05 2.963355e-06 0)
(-1.274414e-05 3.010743e-06 0)
(-1.364345e-05 3.05052e-06 0)
(-1.455276e-05 3.082941e-06 0)
(-1.546995e-05 3.108232e-06 0)
(-1.639296e-05 3.126586e-06 0)
(-1.731975e-05 3.138164e-06 0)
(-1.824833e-05 3.143093e-06 0)
(-1.917672e-05 3.141468e-06 0)
(-2.010297e-05 3.13335e-06 0)
(-2.102513e-05 3.118773e-06 0)
(-2.194128e-05 3.097741e-06 0)
(-2.284946e-05 3.070236e-06 0)
(-2.374774e-05 3.036217e-06 0)
(-2.463415e-05 2.995629e-06 0)
(-2.550674e-05 2.9484e-06 0)
(-2.636352e-05 2.894451e-06 0)
(-2.720249e-05 2.833696e-06 0)
(-2.802163e-05 2.766051e-06 0)
(-2.881892e-05 2.69143e-06 0)
(-2.95923e-05 2.609759e-06 0)
(-3.033972e-05 2.520973e-06 0)
(-3.105913e-05 2.425022e-06 0)
(-3.174846e-05 2.321875e-06 0)
(-3.240564e-05 2.211524e-06 0)
(-3.302865e-05 2.093987e-06 0)
(-3.361544e-05 1.96931e-06 0)
(-3.416402e-05 1.837573e-06 0)
(-3.467244e-05 1.69889e-06 0)
(-3.513877e-05 1.55341e-06 0)
(-3.556117e-05 1.401326e-06 0)
(-3.593784e-05 1.242868e-06 0)
(-3.626709e-05 1.078312e-06 0)
(-3.654729e-05 9.079748e-07 0)
(-3.677693e-05 7.322202e-07 0)
(-3.695462e-05 5.514563e-07 0)
(-3.707909e-05 3.661367e-07 0)
(-3.714921e-05 1.767596e-07 0)
(-3.7164e-05 -1.613274e-08 0)
(-3.712264e-05 -2.119549e-07 0)
(-3.702449e-05 -4.100801e-07 0)
(-3.686908e-05 -6.098422e-07 0)
(-3.665615e-05 -8.105383e-07 0)
(-3.638561e-05 -1.011431e-06 0)
(-3.605762e-05 -1.211753e-06 0)
(-3.567253e-05 -1.410708e-06 0)
(-3.523092e-05 -1.607478e-06 0)
(-3.473359e-05 -1.801226e-06 0)
(-3.418159e-05 -1.991102e-06 0)
(-3.357617e-05 -2.176244e-06 0)
(-3.291885e-05 -2.355791e-06 0)
(-3.221137e-05 -2.528879e-06 0)
(-3.145569e-05 -2.694657e-06 0)
(-3.065402e-05 -2.852283e-06 0)
(-2.980878e-05 -3.00094e-06 0)
(-2.892261e-05 -3.139833e-06 0)
(-2.799836e-05 -3.268202e-06 0)
(-2.703907e-05 -3.385324e-06 0)
(-2.6048e-05 -3.490522e-06 0)
(-2.502854e-05 -3.583168e-06 0)
(-2.398427e-05 -3.662692e-06 0)
(-2.291891e-05 -3.728584e-06 0)
(-2.18363e-05 -3.780401e-06 0)
(-2.074041e-05 -3.817771e-06 0)
(-1.963527e-05 -3.840399e-06 0)
(-1.8525e-05 -3.848067e-06 0)
(-1.741376e-05 -3.840641e-06 0)
(-1.630574e-05 -3.818072e-06 0)
(-1.520513e-05 -3.780399e-06 0)
(-1.41161e-05 -3.72775e-06 0)
(-1.304276e-05 -3.660342e-06 0)
(-1.198917e-05 -3.578484e-06 0)
(-1.095927e-05 -3.482575e-06 0)
(-9.956907e-06 -3.373107e-06 0)
(-8.985763e-06 -3.250657e-06 0)
(-8.049356e-06 -3.115894e-06 0)
(-7.151009e-06 -2.969575e-06 0)
(-6.293825e-06 -2.81254e-06 0)
(-5.480666e-06 -2.645715e-06 0)
(-4.714124e-06 -2.470111e-06 0)
(-3.996504e-06 -2.28682e-06 0)
(-3.329795e-06 -2.097018e-06 0)
(-2.715651e-06 -1.901964e-06 0)
(-2.155366e-06 -1.703004e-06 0)
(-1.649851e-06 -1.501571e-06 0)
(-1.19961e-06 -1.299195e-06 0)
(-8.04717e-07 -1.097505e-06 0)
(-4.647905e-07 -8.982422e-07 0)
(-1.789687e-07 -7.03272e-07 0)
(5.411704e-08 -5.145969e-07 0)
(2.36369e-07 -3.343766e-07 0)
(3.702509e-07 -1.649476e-07 0)
(4.588151e-07 -8.846393e-09 0)
(5.0573e-07 1.311681e-07 0)
(5.153062e-07 2.520946e-07 0)
(4.925205e-07 3.506772e-07 0)
(4.430392e-07 4.234089e-07 0)
(3.732466e-07 4.665612e-07 0)
(2.902796e-07 4.762512e-07 0)
(2.020509e-07 4.485626e-07 0)
(1.174363e-07 3.797251e-07 0)
(4.778153e-08 2.663249e-07 0)
(4.501155e-09 1.054203e-07 0)
(5.428256e-10 -5.540639e-08 0)
(-1.509509e-08 -7.05263e-08 0)
(-5.99639e-08 -1.008073e-08 0)
(-1.412617e-07 1.079346e-07 0)
(-2.649346e-07 2.691438e-07 0)
(-4.356935e-07 4.616907e-07 0)
(-6.569597e-07 6.758232e-07 0)
(-9.310169e-07 9.035885e-07 0)
(-1.259161e-06 1.138559e-06 0)
(-1.641832e-06 1.375592e-06 0)
(-2.078737e-06 1.610624e-06 0)
(-2.568969e-06 1.840487e-06 0)
(-3.111112e-06 2.06276e-06 0)
(-3.703343e-06 2.275635e-06 0)
(-4.343518e-06 2.477807e-06 0)
(-5.029246e-06 2.668378e-06 0)
(-5.75796e-06 2.84678e-06 0)
(-6.526965e-06 3.012709e-06 0)
(-7.333494e-06 3.166066e-06 0)
(-8.174739e-06 3.30691e-06 0)
(-9.047885e-06 3.435421e-06 0)
(-9.950134e-06 3.551864e-06 0)
(-1.087872e-05 3.656559e-06 0)
(-1.183093e-05 3.749866e-06 0)
(-1.280409e-05 3.832156e-06 0)
(-1.379561e-05 3.903804e-06 0)
(-1.480293e-05 3.96517e-06 0)
(-1.582359e-05 4.016594e-06 0)
(-1.685515e-05 4.058386e-06 0)
(-1.789523e-05 4.09082e-06 0)
(-1.894152e-05 4.114134e-06 0)
(-1.999172e-05 4.128526e-06 0)
(-2.104357e-05 4.134151e-06 0)
(-2.209485e-05 4.131124e-06 0)
(-2.314335e-05 4.119525e-06 0)
(-2.418685e-05 4.099392e-06 0)
(-2.522317e-05 4.070733e-06 0)
(-2.62501e-05 4.033526e-06 0)
(-2.726545e-05 3.987723e-06 0)
(-2.8267e-05 3.933257e-06 0)
(-2.925252e-05 3.870042e-06 0)