/*--------------------------------*- C++ -*----------------------------------*\
  =========                 |
  \\      /  F ield         | OpenFOAM: The Open Source CFD Toolbox
   \\    /   O peration     | Website:  https://openfoam.org
    \\  /    A nd           | Version:  11
     \\/     M anipulation  |
\*---------------------------------------------------------------------------*/
FoamFile
{
    format      ascii;
    class       volScalarField;
    location    "0.5";
    object      p;
}
// * * * * * * * * * * * * * * * * * * * * * * * * * * * * * * * * * * * * * //

dimensions      [0 2 -2 0 0 0 0];

internalField   nonuniform List<scalar> 
9600
(
-0.0218872
-0.0123941
-0.00929881
-0.0181009
-0.0243447
-0.0263337
-0.0275728
-0.0285683
-0.0298919
-0.0310975
-0.0321719
-0.0332258
-0.0344034
-0.0358412
-0.0375862
-0.0396735
-0.0421011
-0.0447958
-0.0475661
-0.050058
-0.0519178
-0.0531068
-0.0536872
-0.053938
-0.0538562
-0.0531294
-0.0513034
-0.0481593
-0.0438863
-0.038945
-0.0337688
-0.0287411
-0.0240316
-0.0198911
-0.0165515
-0.0135597
-0.0112671
-0.00934806
-0.0123776
-0.0176254
-0.018235
-0.013397
-0.0203983
-0.0293553
-0.0338044
-0.0347766
-0.035803
-0.0365704
-0.0371508
-0.0374423
-0.0377882
-0.0382465
-0.0389644
-0.0399437
-0.0411849
-0.0427725
-0.0447158
-0.0469525
-0.0492297
-0.0512047
-0.0525376
-0.0531114
-0.0532894
-0.0532127
-0.0529477
-0.0521657
-0.0502761
-0.0469604
-0.0423844
-0.03697
-0.031247
-0.025492
-0.0200458
-0.0152381
-0.011341
-0.00803842
-0.00581579
-0.00322891
-0.00257418
-0.00390218
-0.0094499
-0.00619081
-0.0128406
-0.0167325
-0.0188032
-0.0202473
-0.021014
-0.022375
-0.0243316
-0.0261716
-0.0279309
-0.0294718
-0.0311228
-0.0329994
-0.035163
-0.0376294
-0.0403734
-0.0433504
-0.0463997
-0.0492418
-0.0515218
-0.0532324
-0.0541299
-0.0548163
-0.0553429
-0.0554307
-0.0545986
-0.0525752
-0.0495022
-0.0458405
-0.0418149
-0.0378504
-0.0337543
-0.0295511
-0.0260376
-0.0222403
-0.0199353
-0.0163308
-0.0162415
-0.0155891
-0.0152675
-0.0167165
-0.028686
-0.0372598
-0.0402767
-0.0414468
-0.0427865
-0.0441431
-0.044148
-0.043526
-0.042968
-0.0428956
-0.0432636
-0.0439126
-0.0448067
-0.0460217
-0.0475741
-0.0494149
-0.0513094
-0.0528023
-0.0535731
-0.0535271
-0.0534966
-0.0531174
-0.0526045
-0.0516315
-0.0495317
-0.045929
-0.0408849
-0.0348674
-0.0285485
-0.0222229
-0.0164041
-0.011647
-0.00727339
-0.00438693
-0.00195052
-0.000628933
0.00360378
0.00176245
-0.0145327
-0.0111211
-0.0187214
-0.0195126
-0.0162397
-0.0160619
-0.0168136
-0.0179252
-0.0198487
-0.0222301
-0.0244002
-0.0262629
-0.0283084
-0.030605
-0.0331398
-0.0359283
-0.0389752
-0.0422417
-0.0456222
-0.0487653
-0.0515086
-0.0537286
-0.054788
-0.0558413
-0.0568769
-0.057633
-0.0576504
-0.0566626
-0.0547115
-0.0521043
-0.0491704
-0.0460524
-0.0423716
-0.0380087
-0.0336998
-0.0283178
-0.0246591
-0.0210477
-0.0201424
-0.014254
-0.0179776
-0.0198359
-0.0301113
-0.0380208
-0.0417936
-0.0445637
-0.0464912
-0.0478189
-0.0484022
-0.0474727
-0.046504
-0.0463625
-0.0467212
-0.0472528
-0.0479923
-0.0490199
-0.0503366
-0.0519319
-0.0534841
-0.0546083
-0.0548871
-0.0544272
-0.0542766
-0.0536768
-0.0528868
-0.0516384
-0.0492965
-0.0454492
-0.0400824
-0.0336976
-0.0268972
-0.0202495
-0.0144771
-0.0102526
-0.00637265
-0.00384737
-0.000719744
0.000499114
0.000473012
-0.000449604
-0.0208998
-0.0176587
-0.022867
-0.0230531
-0.0183083
-0.0161048
-0.0156881
-0.0160929
-0.0175045
-0.0199519
-0.022451
-0.0247908
-0.0270993
-0.0297124
-0.0325234
-0.0355288
-0.0387498
-0.0421528
-0.0456669
-0.0489932
-0.0520822
-0.0545445
-0.0557028
-0.0569058
-0.0582057
-0.0593454
-0.0599281
-0.059699
-0.0586445
-0.0569814
-0.0547211
-0.0520245
-0.0481263
-0.043539
-0.0377092
-0.0311662
-0.0258904
-0.0206405
-0.0174082
-0.0111313
-0.0228346
-0.0198917
-0.0275729
-0.0342292
-0.0386319
-0.0425811
-0.0462273
-0.0483089
-0.0494835
-0.0489786
-0.0479809
-0.0478918
-0.0485545
-0.0491857
-0.0500288
-0.0511369
-0.0524259
-0.0539651
-0.0554267
-0.0563685
-0.0563634
-0.055831
-0.0556358
-0.0549789
-0.0540751
-0.052702
-0.0501915
-0.0461596
-0.0405883
-0.0340575
-0.0273388
-0.020965
-0.0155045
-0.0113745
-0.00893207
-0.0071078
-0.00386337
-0.00312155
-0.00432091
-0.00554869
-0.024688
-0.0208081
-0.0258859
-0.027158
-0.023742
-0.0203023
-0.0186794
-0.0181113
-0.0186841
-0.0206231
-0.0226866
-0.0253968
-0.0280865
-0.0309421
-0.0339504
-0.0370468
-0.0402393
-0.0435717
-0.0470202
-0.0502737
-0.0533817
-0.0557868
-0.0569354
-0.0579743
-0.0592618
-0.0604377
-0.0611729
-0.0612931
-0.0607208
-0.0596315
-0.0576733
-0.0550168
-0.0504309
-0.0444903
-0.0371893
-0.0305305
-0.0247712
-0.0184559
-0.0138955
-0.00932575
-0.0256054
-0.0211919
-0.0260655
-0.0312118
-0.0338112
-0.0380826
-0.0426941
-0.0455753
-0.0474066
-0.0477729
-0.0472865
-0.0475034
-0.0485757
-0.0495434
-0.0506246
-0.0519551
-0.0534855
-0.0552741
-0.0568795
-0.0579184
-0.0579637
-0.0576244
-0.0575837
-0.057061
-0.0562033
-0.0550029
-0.0525733
-0.0485224
-0.0429994
-0.0365822
-0.0302209
-0.0246599
-0.0205441
-0.0172592
-0.0146729
-0.0128045
-0.0107617
-0.00970552
-0.0102681
-0.00909816
-0.0261045
-0.0215975
-0.0262151
-0.0299997
-0.0282016
-0.0258283
-0.0237256
-0.0227235
-0.0227307
-0.0239529
-0.0256771
-0.0281729
-0.0312662
-0.0343771
-0.0375043
-0.040605
-0.0436663
-0.0467287
-0.0497582
-0.0528443
-0.0556141
-0.0576371
-0.0586402
-0.0593307
-0.0601682
-0.0609756
-0.0614722
-0.0614846
-0.0609508
-0.0599388
-0.0580422
-0.0549147
-0.0493453
-0.0425044
-0.035436
-0.0287579
-0.0226886
-0.0166283
-0.0130511
-0.0104522
-0.026271
-0.0218866
-0.0260102
-0.030219
-0.0304689
-0.0324996
-0.0371623
-0.0410223
-0.0436219
-0.0447504
-0.0448256
-0.0456628
-0.0472315
-0.0486008
-0.0500642
-0.0517704
-0.0537132
-0.0559336
-0.057988
-0.0593164
-0.0598102
-0.0598303
-0.0598868
-0.0597647
-0.0592887
-0.0583033
-0.0562049
-0.0525252
-0.0473221
-0.0411871
-0.0352325
-0.0306174
-0.0276491
-0.024733
-0.0216821
-0.019612
-0.0171972
-0.0149043
-0.0133206
-0.0111392
-0.0260312
-0.0221612
-0.0259856
-0.0303142
-0.0299019
-0.028946
-0.0290945
-0.0284064
-0.0282018
-0.0287166
-0.0302107
-0.0328
-0.0361175
-0.0394428
-0.0426992
-0.0458036
-0.0487406
-0.0515048
-0.054122
-0.0566024
-0.0588097
-0.0604199
-0.0610926
-0.0612634
-0.0614095
-0.0615334
-0.0613831
-0.0608027
-0.0598979
-0.0586349
-0.0564652
-0.0528217
-0.047017
-0.0402741
-0.0339972
-0.0276878
-0.0218053
-0.0166986
-0.0145382
-0.0122144
-0.0255946
-0.0225092
-0.0259285
-0.0300977
-0.0295582
-0.0295937
-0.032849
-0.0364078
-0.0388449
-0.040702
-0.0423389
-0.0439473
-0.0456775
-0.0474806
-0.0494352
-0.0515958
-0.0540147
-0.0566885
-0.0592296
-0.061173
-0.0621471
-0.0624733
-0.0627322
-0.0628126
-0.0626189
-0.0619923
-0.0604982
-0.0573924
-0.0527256
-0.0470548
-0.0415095
-0.0373352
-0.0347361
-0.0320083
-0.0286072
-0.0256309
-0.0220867
-0.017883
-0.0155124
-0.0132101
-0.025533
-0.0230056
-0.0258032
-0.0298566
-0.0293365
-0.0294029
-0.0313507
-0.0323874
-0.0328352
-0.0337068
-0.0354606
-0.0381236
-0.0414183
-0.044893
-0.0482564
-0.0513751
-0.0542944
-0.0569979
-0.0594102
-0.0612758
-0.062874
-0.0639798
-0.0644266
-0.0644494
-0.0641021
-0.0634002
-0.0622033
-0.0605855
-0.0588768
-0.0570173
-0.0544547
-0.0506434
-0.0451933
-0.039327
-0.0339297
-0.0285583
-0.023752
-0.0192434
-0.0166774
-0.0143009
-0.0258942
-0.0233033
-0.0254253
-0.0293164
-0.0289597
-0.0289983
-0.0313152
-0.0341207
-0.036324
-0.0383105
-0.0404009
-0.0426403
-0.04518
-0.0479081
-0.0507019
-0.053567
-0.0563879
-0.0591618
-0.0617751
-0.064051
-0.0654517
-0.0660923
-0.0664058
-0.0663624
-0.0658675
-0.0650122
-0.0636424
-0.0614225
-0.0578837
-0.052946
-0.0477311
-0.0434981
-0.0405447
-0.0376162
-0.0340046
-0.0299277
-0.0253511
-0.0207181
-0.0179806
-0.0155017
-0.0256727
-0.0230621
-0.0247295
-0.028391
-0.0284848
-0.0287123
-0.0312034
-0.0338821
-0.0354538
-0.0371204
-0.0394858
-0.042541
-0.0459245
-0.0492418
-0.052416
-0.0555443
-0.058585
-0.0614907
-0.0641427
-0.0662867
-0.0676939
-0.0683534
-0.0686136
-0.0685054
-0.0678457
-0.0667869
-0.0652225
-0.062859
-0.0597562
-0.05678
-0.0536652
-0.0498264
-0.0449691
-0.0401311
-0.0357333
-0.0315063
-0.0269596
-0.0223118
-0.0194191
-0.016816
-0.0250754
-0.0226581
-0.0239584
-0.0273567
-0.0280071
-0.0284946
-0.0310495
-0.0340878
-0.0362882
-0.0383858
-0.0409603
-0.0440917
-0.0475876
-0.0510926
-0.0544986
-0.0578401
-0.0610807
-0.0641224
-0.0667857
-0.068957
-0.0703908
-0.0709478
-0.0711124
-0.0709214
-0.0700893
-0.0687978
-0.067033
-0.0645248
-0.0612515
-0.0574305
-0.0529177
-0.0484869
-0.0449345
-0.0413341
-0.0372742
-0.0330686
-0.0285208
-0.0239952
-0.0209927
-0.0182352
-0.0243238
-0.0223023
-0.0230865
-0.0262129
-0.0275844
-0.0282952
-0.0309789
-0.0343999
-0.0368356
-0.0391394
-0.0420052
-0.0454682
-0.0492901
-0.0530985
-0.0568017
-0.0604106
-0.0638682
-0.0670667
-0.0697937
-0.0720041
-0.0734463
-0.0739024
-0.0739561
-0.0736472
-0.0726195
-0.0710868
-0.0690934
-0.0663908
-0.0629667
-0.0591201
-0.0551042
-0.0511285
-0.0467091
-0.0427567
-0.0388286
-0.0346907
-0.0301693
-0.025693
-0.0225345
-0.019742
-0.0234812
-0.0217957
-0.0221145
-0.0251642
-0.0271418
-0.0280718
-0.0309448
-0.034717
-0.0374844
-0.040093
-0.0432971
-0.0470916
-0.0512297
-0.055371
-0.0594081
-0.0633171
-0.0670156
-0.0703859
-0.0732109
-0.0754769
-0.0769117
-0.0772705
-0.077188
-0.0767282
-0.0754853
-0.0736998
-0.071454
-0.0685266
-0.0649155
-0.0609149
-0.0566808
-0.052346
-0.0481765
-0.0441928
-0.0403192
-0.0362954
-0.0318748
-0.0274275
-0.0241172
-0.0213247
-0.0225131
-0.0210415
-0.0211375
-0.0242433
-0.026679
-0.0278648
-0.0309284
-0.0351026
-0.0382445
-0.0411927
-0.0447845
-0.0489505
-0.0534437
-0.0579635
-0.0623845
-0.0666223
-0.0705856
-0.0741463
-0.0770824
-0.0794148
-0.0808576
-0.0811167
-0.0808697
-0.0802187
-0.078751
-0.0767013
-0.0741735
-0.0709752
-0.0671368
-0.0629329
-0.0585442
-0.0541735
-0.049829
-0.0457365
-0.0418105
-0.0378499
-0.0335705
-0.0291938
-0.0257798
-0.0230005
-0.0214209
-0.0201091
-0.0202249
-0.0234231
-0.026215
-0.0276593
-0.0309153
-0.0355452
-0.0391322
-0.0424863
-0.0464983
-0.0510714
-0.0559846
-0.0609431
-0.0657783
-0.0703742
-0.0746411
-0.078423
-0.081487
-0.0838891
-0.0853426
-0.08552
-0.0850897
-0.0842005
-0.0824933
-0.0801685
-0.077327
-0.0738144
-0.069679
-0.0652237
-0.0606147
-0.0560204
-0.0515426
-0.0473473
-0.043346
-0.0394109
-0.03528
-0.0310072
-0.0275305
-0.0247683
-0.0202425
-0.0190992
-0.0194116
-0.022736
-0.0258318
-0.0275078
-0.0308596
-0.036017
-0.0401791
-0.0439785
-0.048482
-0.0535588
-0.0589562
-0.0644043
-0.0696954
-0.0746821
-0.0792776
-0.0833046
-0.0865212
-0.0889878
-0.0904477
-0.0905791
-0.089948
-0.0887731
-0.0868106
-0.0842032
-0.0809977
-0.0771099
-0.0726279
-0.0678498
-0.0629234
-0.0580696
-0.0533686
-0.0490073
-0.0449048
-0.0410022
-0.0370593
-0.0329276
-0.0293869
-0.0265193
-0.0189639
-0.0180615
-0.0186675
-0.0221815
-0.025602
-0.0275263
-0.0307726
-0.0362928
-0.0413468
-0.045757
-0.0508102
-0.0564746
-0.0624325
-0.0684196
-0.0742173
-0.0796489
-0.0846089
-0.0889101
-0.092309
-0.0948179
-0.0962756
-0.096403
-0.0955737
-0.0940621
-0.0918274
-0.0889174
-0.0852908
-0.0809603
-0.0760516
-0.0708368
-0.0655153
-0.060339
-0.0553616
-0.0507714
-0.0465379
-0.0426404
-0.0388984
-0.0349705
-0.0313907
-0.0283377
-0.0174155
-0.0170948
-0.0179753
-0.0216668
-0.0254664
-0.0276995
-0.0308544
-0.0364941
-0.0425357
-0.0478262
-0.0535621
-0.0599054
-0.0665057
-0.0730902
-0.0794442
-0.0853859
-0.0907681
-0.0953748
-0.0989834
-0.101544
-0.102954
-0.103108
-0.102126
-0.100289
-0.097735
-0.0944143
-0.0902839
-0.0854267
-0.0800166
-0.0743258
-0.0685398
-0.0629117
-0.0575585
-0.0526852
-0.0483116
-0.0443514
-0.0407008
-0.0369894
-0.0334737
-0.0302909
-0.0157198
-0.0163005
-0.0172115
-0.0211239
-0.0254038
-0.0280111
-0.031251
-0.037029
-0.0438457
-0.0501683
-0.0567864
-0.0639496
-0.0712769
-0.0785212
-0.085508
-0.0920505
-0.097941
-0.10292
-0.106754
-0.109377
-0.110774
-0.110865
-0.109728
-0.10762
-0.104658
-0.100808
-0.0960974
-0.09065
-0.0846902
-0.0784667
-0.0721621
-0.0660498
-0.0602574
-0.0549792
-0.0503143
-0.0461522
-0.0424395
-0.0388311
-0.0354379
-0.0322334
-0.0139884
-0.0152079
-0.0163132
-0.0205184
-0.0253971
-0.0285273
-0.0320835
-0.0382648
-0.0457262
-0.0529081
-0.0605002
-0.0686038
-0.0767809
-0.0848168
-0.0925688
-0.0998338
-0.106332
-0.111748
-0.115851
-0.11857
-0.119929
-0.119935
-0.118652
-0.116221
-0.112734
-0.108259
-0.102872
-0.0967831
-0.0902037
-0.0833465
-0.076486
-0.0699372
-0.0637837
-0.0580786
-0.052929
-0.048312
-0.0442313
-0.0404525
-0.0370823
-0.0339301
-0.0121086
-0.0140482
-0.0154321
-0.0199085
-0.0254894
-0.029326
-0.0334116
-0.0402596
-0.0486054
-0.0565611
-0.0649154
-0.0739722
-0.0831623
-0.0921712
-0.100854
-0.108976
-0.116176
-0.122107
-0.126549
-0.129416
-0.130724
-0.13061
-0.1291
-0.126277
-0.122219
-0.11701
-0.110832
-0.104008
-0.0968046
-0.0894325
-0.0820766
-0.0749841
-0.0682561
-0.0619781
-0.0562603
-0.0510894
-0.04649
-0.0421913
-0.038491
-0.035218
-0.0102525
-0.0128803
-0.0146087
-0.0193359
-0.0257584
-0.0305671
-0.0354023
-0.0430422
-0.0525136
-0.0614257
-0.0704907
-0.0804654
-0.0907885
-0.100935
-0.110693
-0.119782
-0.127778
-0.134308
-0.139156
-0.142244
-0.143544
-0.143208
-0.141352
-0.138053
-0.133383
-0.127447
-0.120534
-0.112985
-0.105062
-0.0969995
-0.0889513
-0.0811732
-0.0737712
-0.0668589
-0.0605371
-0.0547328
-0.0494837
-0.0443898
-0.0399554
-0.0362027
-0.00847906
-0.0117963
-0.0139103
-0.0189646
-0.0264255
-0.0324742
-0.0382286
-0.0467334
-0.0574891
-0.0676861
-0.0776983
-0.0886953
-0.100232
-0.111614
-0.122544
-0.132699
-0.141607
-0.148806
-0.154026
-0.157377
-0.15886
-0.158425
-0.156234
-0.152463
-0.147154
-0.140478
-0.132753
-0.124343
-0.115499
-0.106466
-0.0974554
-0.0888382
-0.0807619
-0.0731258
-0.0660577
-0.0593601
-0.0532178
-0.0472034
-0.041834
-0.0373014
-0.00652345
-0.0107788
-0.0135222
-0.0189682
-0.0277059
-0.0354055
-0.042123
-0.051445
-0.0636267
-0.0755785
-0.0869351
-0.0991694
-0.112074
-0.124812
-0.136996
-0.148337
-0.158372
-0.166523
-0.172061
-0.174786
-0.175249
-0.17414
-0.172023
-0.16814
-0.162469
-0.15528
-0.146883
-0.137673
-0.12801
-0.118117
-0.108031
-0.0979175
-0.088273
-0.0793478
-0.0713027
-0.0638214
-0.0570153
-0.0503938
-0.0441037
-0.0385466
-0.00451657
-0.0099413
-0.0136497
-0.0195982
-0.0298129
-0.039845
-0.0480686
-0.0585391
-0.0724489
-0.0862376
-0.0991391
-0.112746
-0.127161
-0.141396
-0.154897
-0.167398
-0.178563
-0.188061
-0.195787
-0.201237
-0.203699
-0.202884
-0.199425
-0.194013
-0.187019
-0.178451
-0.168605
-0.157976
-0.146954
-0.136035
-0.125418
-0.115213
-0.105205
-0.095075
-0.0848611
-0.0749821
-0.0660395
-0.0576204
-0.0497093
-0.0427927
-0.0023083
-0.00911045
-0.0136906
-0.0197221
-0.0306271
-0.0426293
-0.0525236
-0.0644465
-0.0808979
-0.0983772
-0.114058
-0.129646
-0.146036
-0.162258
-0.177363
-0.190748
-0.201783
-0.209978
-0.215196
-0.217665
-0.217673
-0.215568
-0.214322
-0.210845
-0.204418
-0.19547
-0.184612
-0.172186
-0.158529
-0.144097
-0.12949
-0.115183
-0.102134
-0.0904765
-0.0809892
-0.0719605
-0.0630908
-0.0546185
-0.0467548
-0.0397868
-0.00269285
-0.012334
-0.0202597
-0.029362
-0.0436949
-0.060276
-0.0733829
-0.0858809
-0.102163
-0.120721
-0.138414
-0.156054
-0.174675
-0.193631
-0.211993
-0.229326
-0.245116
-0.258808
-0.269824
-0.277276
-0.280806
-0.280225
-0.274556
-0.26589
-0.256516
-0.246328
-0.234566
-0.221568
-0.20793
-0.194099
-0.180341
-0.166396
-0.152359
-0.137789
-0.123081
-0.109123
-0.0961778
-0.0844103
-0.0731292
-0.0633224
0.00450555
-0.00462444
-0.012928
-0.02242
-0.0371526
-0.056255
-0.0736967
-0.0903843
-0.111804
-0.136379
-0.158442
-0.178103
-0.198043
-0.218137
-0.236504
-0.252087
-0.264619
-0.274056
-0.280292
-0.283467
-0.284263
-0.282985
-0.279727
-0.275882
-0.269078
-0.257236
-0.241685
-0.223721
-0.204449
-0.184039
-0.16399
-0.144218
-0.126356
-0.110016
-0.0955132
-0.0838315
-0.0721311
-0.0598523
-0.047888
-0.0385601
-0.0121776
-0.0306226
-0.0469577
-0.0611585
-0.0788938
-0.102772
-0.126204
-0.145317
-0.166167
-0.192035
-0.219126
-0.244947
-0.27099
-0.297778
-0.323828
-0.347712
-0.369168
-0.38768
-0.402314
-0.412481
-0.417354
-0.416712
-0.4093
-0.397201
-0.382649
-0.368725
-0.354641
-0.338402
-0.32038
-0.301637
-0.282553
-0.263234
-0.2431
-0.223133
-0.202551
-0.181873
-0.162869
-0.146151
-0.131128
-0.116509
0.019028
0.00463048
-0.0151756
-0.0371627
-0.0627777
-0.0939211
-0.125938
-0.152887
-0.178821
-0.208902
-0.240399
-0.268511
-0.293734
-0.318329
-0.341708
-0.361764
-0.377816
-0.39005
-0.398689
-0.403416
-0.404615
-0.401973
-0.397039
-0.390862
-0.381996
-0.367953
-0.348467
-0.323047
-0.294901
-0.266138
-0.237404
-0.209789
-0.183407
-0.159614
-0.136913
-0.115843
-0.0959931
-0.0770159
-0.0592802
-0.044356
-0.0776585
-0.108066
-0.139046
-0.170598
-0.199755
-0.229099
-0.26502
-0.305787
-0.342898
-0.375244
-0.410832
-0.452306
-0.494482
-0.532205
-0.565806
-0.597219
-0.625864
-0.650327
-0.668649
-0.68152
-0.687328
-0.686772
-0.67862
-0.660833
-0.643509
-0.620028
-0.59499
-0.571083
-0.547266
-0.521272
-0.49135
-0.460503
-0.429196
-0.398054
-0.368044
-0.337918
-0.31018
-0.284898
-0.261059
-0.237908
0.0131471
-0.0261164
-0.0703328
-0.115513
-0.160936
-0.205166
-0.249273
-0.294684
-0.33996
-0.382207
-0.422533
-0.462912
-0.50275
-0.539613
-0.571599
-0.600172
-0.625496
-0.647409
-0.663997
-0.674694
-0.679118
-0.678437
-0.672585
-0.663156
-0.643827
-0.622405
-0.594396
-0.560016
-0.523258
-0.484536
-0.442514
-0.401321
-0.359972
-0.319079
-0.278465
-0.240279
-0.202721
-0.167312
-0.133883
-0.106461
-0.440741
-0.489137
-0.540104
-0.602615
-0.67249
-0.743449
-0.812389
-0.878027
-0.938552
-0.993017
-1.04332
-1.09369
-1.14511
-1.19636
-1.24434
-1.2868
-1.32275
-1.35137
-1.37326
-1.38776
-1.39526
-1.39366
-1.38269
-1.36172
-1.33215
-1.29603
-1.25525
-1.21042
-1.16009
-1.1057
-1.05155
-0.994634
-0.936786
-0.877798
-0.818923
-0.759958
-0.701572
-0.643274
-0.58605
-0.528059
-0.0132309
0.00798416
-0.00874285
0.00125292
-0.00182934
-0.000508102
-0.00322374
-0.00384123
-0.00461154
-0.00494109
-0.00499088
-0.0049313
-0.00463212
-0.00447675
-0.00429919
-0.0039466
-0.00349992
-0.00285586
-0.0021687
-0.00181266
-0.00134471
8.2388e-05
0.00201303
0.00329994
0.00447926
0.00569488
0.00686869
0.00746492
0.00734226
0.00674774
0.00612598
0.00579353
0.00576909
0.00524002
0.0044384
0.00357159
0.00439166
0.00195112
-0.000820586
-0.00573899
-0.0129021
0.00603937
-0.00531224
-0.000605256
-0.00151296
-0.00108696
-0.00297649
-0.0038721
-0.00459734
-0.00501835
-0.00523626
-0.00526732
-0.00501873
-0.00483059
-0.00479311
-0.00457617
-0.0041745
-0.00356231
-0.00276283
-0.00227973
-0.00168319
-0.000469631
0.00111567
0.00189114
0.00275493
0.00361675
0.00444552
0.00494957
0.00508738
0.00459658
0.00413818
0.00421042
0.00446565
0.00418291
0.00341358
0.00339181
0.00399352
0.0029834
0.000276625
0.00217033
-0.00428313
0.00581767
-0.00370401
-0.00230752
-0.00223522
-0.00160892
-0.00288975
-0.00392252
-0.00462546
-0.00508997
-0.00540758
-0.0055335
-0.0054443
-0.00531877
-0.00538698
-0.00536031
-0.00501088
-0.00448804
-0.00362151
-0.00286183
-0.0020748
-0.00125669
2.45485e-05
0.000719972
0.00131261
0.00197863
0.00256139
0.00309342
0.00348495
0.00321016
0.00303869
0.00326589
0.00367039
0.00376407
0.00299249
0.00326169
0.00381026
0.00299641
0.000201664
-0.00049098
-0.00538823
0.00508149
-0.0029669
-0.00402154
-0.00306749
-0.0021242
-0.00307908
-0.00408132
-0.00476428
-0.00520033
-0.00553372
-0.00570147
-0.00572678
-0.00570972
-0.00582474
-0.00595093
-0.00571091
-0.00519485
-0.00436607
-0.00350216
-0.00272044
-0.00211117
-0.00124265
-0.000371595
3.6909e-05
0.000329089
0.00063989
0.00132327
0.00215605
0.00216105
0.00220715
0.00260062
0.00330024
0.0034643
0.00271109
0.00293974
0.00387962
0.00315356
0.000959705
0.00323338
-0.00314407
0.00487728
-0.00263679
-0.00506666
-0.00319297
-0.00266521
-0.00349635
-0.00434061
-0.00497131
-0.00533746
-0.00560961
-0.00576007
-0.00585806
-0.00592406
-0.00605058
-0.00619255
-0.00603872
-0.00559909
-0.00489708
-0.00419442
-0.00350628
-0.00282988
-0.00233695
-0.0014714
-0.0010153
-0.00115129
-0.0013306
-0.000724425
0.00021258
0.000755191
0.00124854
0.00211528
0.00306143
0.00308593
0.00223144
0.0027139
0.00382304
0.00300449
7.09294e-05
0.000158057
-0.00299589
0.00370687
-0.00285037
-0.00588722
-0.00361246
-0.0035023
-0.00411283
-0.00467131
-0.00517876
-0.00544702
-0.00562542
-0.00574704
-0.00586897
-0.00598659
-0.00612524
-0.00625874
-0.00614664
-0.00577211
-0.00524844
-0.00472252
-0.00412972
-0.00355063
-0.00332909
-0.00273676
-0.00216876
-0.00241327
-0.00314795
-0.00254943
-0.00182895
-0.000491381
0.00045068
0.00144203
0.00223326
0.00216566
0.0015176
0.00233532
0.00359323
0.00288571
0.00114895
0.00346644
-0.00395809
0.00210869
-0.00298309
-0.00685662
-0.00465374
-0.00475936
-0.00481947
-0.00503679
-0.00539313
-0.00554236
-0.00560496
-0.00566731
-0.0057865
-0.00594212
-0.00611629
-0.0062343
-0.00613803
-0.00583659
-0.00549189
-0.00508158
-0.00461517
-0.0042712
-0.00425309
-0.00428942
-0.00395379
-0.0039538
-0.00490278
-0.00434993
-0.00330391
-0.00196389
-0.000980499
1.61872e-05
0.000868592
0.000949517
0.000481667
0.00190873
0.00329945
0.00209129
0.000601556
0.0012094
-0.00420142
0.000183559
-0.00327686
-0.00716435
-0.00559503
-0.00532709
-0.00543255
-0.00541839
-0.00560218
-0.00560895
-0.00554547
-0.00554001
-0.0056377
-0.00581744
-0.00602481
-0.00613802
-0.0060693
-0.00586832
-0.00564407
-0.00536448
-0.00508903
-0.00488425
-0.00497514
-0.00554942
-0.0059692
-0.00561167
-0.00627293
-0.00594877
-0.00482941
-0.00378484
-0.00291317
-0.00175883
-0.000702405
-0.000668095
-0.000935856
0.00112229
0.00262756
0.00146893
0.000996388
0.00286466
-0.00582012
-0.00145366
-0.00385447
-0.00759264
-0.00585101
-0.00495668
-0.00599436
-0.00586556
-0.00580525
-0.0056371
-0.00544041
-0.0053567
-0.00542306
-0.00561455
-0.00585279
-0.00598326
-0.00596774
-0.00587059
-0.0057465
-0.00561794
-0.00548965
-0.00546753
-0.00566858
-0.00639179
-0.00758662
-0.00766353
-0.00766382
-0.00719981
-0.00648738
-0.00578188
-0.00510237
-0.0036407
-0.00245658
-0.00248018
-0.00221875
-2.48888e-05
0.00143611
0.000506042
0.000318257
0.00138325
-0.00698247
-0.00325546
-0.00525575
-0.00849732
-0.00616646
-0.00507132
-0.00660052
-0.00637841
-0.00600053
-0.00562354
-0.00528738
-0.00511156
-0.00513637
-0.00533708
-0.00561049
-0.00577589
-0.00583718
-0.00583308
-0.00581522
-0.00583087
-0.00590659
-0.00607315
-0.00636831
-0.00719304
-0.00855322
-0.00951775
-0.00916147
-0.00876229
-0.00837556
-0.00792623
-0.00705334
-0.00535852
-0.00414195
-0.00404208
-0.003041
-0.000876364
4.72489e-05
-0.000707026
-6.9213e-05
0.00138852
-0.00768717
-0.00548086
-0.00657943
-0.00913403
-0.00694985
-0.00623942
-0.0073844
-0.00689868
-0.00616384
-0.00555165
-0.00506922
-0.00479506
-0.00477362
-0.00497973
-0.00528594
-0.00551262
-0.00565614
-0.00574656
-0.00585508
-0.00604835
-0.00633805
-0.00665826
-0.00716586
-0.00827103
-0.00940456
-0.0105246
-0.0105556
-0.0104806
-0.010053
-0.00960015
-0.0085492
-0.00697852
-0.00571469
-0.00528326
-0.00390681
-0.0020206
-0.00153815
-0.0021148
-0.000949091
0.000964721
-0.00834167
-0.00733884
-0.00702667
-0.00901293
-0.00778017
-0.00817766
-0.0083097
-0.0073655
-0.00627694
-0.00541512
-0.00477699
-0.00439363
-0.00432815
-0.0045405
-0.00488523
-0.00518366
-0.00541501
-0.00561443
-0.00587609
-0.00625338
-0.00671927
-0.00731966
-0.0083485
-0.00975073
-0.0107273
-0.0114181
-0.0117629
-0.0118203
-0.0114415
-0.0108794
-0.00980916
-0.00832505
-0.00749307
-0.00699156
-0.0051111
-0.00305024
-0.0030524
-0.00354768
-0.00203311
0.000269972
-0.00943608
-0.00881272
-0.00720533
-0.00921039
-0.00903556
-0.0103454
-0.00918138
-0.00773617
-0.00631702
-0.00520476
-0.00439048
-0.00389382
-0.00378886
-0.00401161
-0.00439147
-0.00476732
-0.00509561
-0.00542832
-0.00586238
-0.00642873
-0.00715746
-0.00825985
-0.00990336
-0.011394
-0.0124651
-0.013099
-0.0134072
-0.0131969
-0.0125266
-0.0118956
-0.011049
-0.0101473
-0.00956328
-0.00866804
-0.0063553
-0.00396346
-0.0042071
-0.00487724
-0.00291063
-0.000602343
-0.0105692
-0.00991171
-0.00734461
-0.0102965
-0.0109761
-0.0114925
-0.00973221
-0.00796759
-0.00626811
-0.0049111
-0.00389821
-0.00327193
-0.00311985
-0.00336262
-0.00378347
-0.00423891
-0.0046829
-0.00518819
-0.0058504
-0.00671567
-0.00790846
-0.0095538
-0.0113018
-0.0129224
-0.0141305
-0.0150051
-0.0151955
-0.0144577
-0.0135537
-0.0130372
-0.0124556
-0.0118842
-0.010856
-0.00988677
-0.00747447
-0.00512206
-0.00540038
-0.00603431
-0.00380029
-0.00159113
-0.0117665
-0.0109385
-0.00805543
-0.0118578
-0.0128176
-0.0117233
-0.0100067
-0.00805548
-0.00612404
-0.00452108
-0.0032983
-0.00252458
-0.00230302
-0.00256006
-0.00303653
-0.00358956
-0.00420311
-0.0049673
-0.00598934
-0.00732633
-0.00899866
-0.0107326
-0.0124244
-0.0140719
-0.0151335
-0.0160494
-0.0162667
-0.0153925
-0.014536
-0.0141323
-0.013641
-0.0128167
-0.0119525
-0.0111717
-0.0087916
-0.00650117
-0.00679989
-0.00725347
-0.004888
-0.00282858
-0.0129964
-0.0121193
-0.0096884
-0.0133809
-0.014006
-0.011895
-0.0101071
-0.00801652
-0.00588279
-0.00402805
-0.00258821
-0.00166919
-0.00136049
-0.00161567
-0.00217492
-0.00287575
-0.00375634
-0.00491712
-0.00639834
-0.0081618
-0.00994905
-0.0116728
-0.0134579
-0.0148062
-0.0155533
-0.0165624
-0.0167055
-0.0158774
-0.015436
-0.015276
-0.0145637
-0.0134365
-0.0128551
-0.0123835
-0.0102751
-0.00806027
-0.00836167
-0.00857694
-0.00614573
-0.00425223
-0.0143683
-0.0137264
-0.0118166
-0.0147244
-0.0148813
-0.0120756
-0.0101128
-0.00786189
-0.00553299
-0.00342855
-0.00175738
-0.000703738
-0.000327878
-0.000597916
-0.00127782
-0.00220237
-0.00341889
-0.00502437
-0.0068461
-0.00879346
-0.0106971
-0.0125718
-0.014378
-0.0153725
-0.0160364
-0.016967
-0.0170773
-0.0168173
-0.0169987
-0.0167117
-0.0156505
-0.0145353
-0.014029
-0.013639
-0.0116912
-0.00968592
-0.0100315
-0.00999745
-0.00760195
-0.00585667
-0.0159646
-0.0156229
-0.013833
-0.0158622
-0.0154487
-0.0123256
-0.0100839
-0.00760446
-0.0050602
-0.00270908
-0.000808183
0.000370126
0.00075239
0.000428842
-0.000385788
-0.00156649
-0.00307932
-0.00500262
-0.00711594
-0.00927737
-0.0113925
-0.0134122
-0.0150869
-0.0160292
-0.0168524
-0.0177237
-0.0181922
-0.0186483
-0.0189689
-0.018231
-0.0170614
-0.0160307
-0.0156533
-0.015007
-0.0130992
-0.0113925
-0.0117619
-0.0114888
-0.00921498
-0.00761477
-0.017698
-0.0174437
-0.0155274
-0.0166686
-0.0157983
-0.0124457
-0.00996187
-0.00723695
-0.00445125
-0.00185745
0.000247944
0.00150333
0.00185258
0.00148155
0.000577575
-0.000813335
-0.00260193
-0.00483517
-0.00726437
-0.00968982
-0.0119917
-0.0140768
-0.0158197
-0.0169888
-0.0181257
-0.019202
-0.0198665
-0.0206038
-0.0207717
-0.0199193
-0.0185361
-0.0173316
-0.0169035
-0.0162591
-0.0145086
-0.0130068
-0.0134199
-0.0130187
-0.0109032
-0.00942277
-0.019396
-0.0190401
-0.0169795
-0.0171962
-0.0158266
-0.0123669
-0.00966735
-0.00672207
-0.00368145
-0.000860423
0.0014117
0.00270129
0.00305424
0.00264679
0.00166192
7.29286e-05
-0.00199649
-0.00456086
-0.00731621
-0.00998343
-0.0124513
-0.0147506
-0.0167177
-0.0181607
-0.0196239
-0.0208891
-0.0216551
-0.02231
-0.0223667
-0.0217333
-0.0201205
-0.0186778
-0.0179635
-0.0172987
-0.0157278
-0.01452
-0.0149208
-0.0143872
-0.0125658
-0.0112321
-0.0211025
-0.0205138
-0.0182312
-0.0174901
-0.0157495
-0.0122965
-0.00922735
-0.00600648
-0.00269732
0.000321153
0.0027199
0.00406184
0.0044304
0.00396566
0.00286431
0.00108346
-0.00126671
-0.00417655
-0.00723633
-0.0101396
-0.0128926
-0.0154386
-0.0174931
-0.0192005
-0.0208652
-0.0222296
-0.0231904
-0.0238129
-0.0239645
-0.0233529
-0.0216097
-0.0198525
-0.0191284
-0.018355
-0.0168845
-0.0159489
-0.0162902
-0.0156385
-0.0141065
-0.0129921
-0.022972
-0.0219658
-0.0192911
-0.0176188
-0.0156685
-0.012253
-0.00862146
-0.00499511
-0.0014217
0.0017354
0.00423954
0.0056548
0.0060315
0.00549546
0.00423843
0.00226895
-0.00040668
-0.00368331
-0.00704347
-0.0102536
-0.0132525
-0.0158152
-0.0180404
-0.020021
-0.0218336
-0.0233069
-0.024397
-0.0250843
-0.0253573
-0.0246167
-0.0226869
-0.0209432
-0.0203759
-0.0195348
-0.0181279
-0.0173584
-0.0176149
-0.0168712
-0.0155438
-0.0146376
-0.0246958
-0.0233691
-0.0202287
-0.0177706
-0.0154634
-0.0118982
-0.00774563
-0.00368069
0.000187429
0.00342657
0.00603345
0.0075387
0.00792834
0.00733725
0.00591039
0.00369793
0.000561299
-0.00312572
-0.00682447
-0.0103259
-0.0134393
-0.016168
-0.0186527
-0.0207526
-0.0226306
-0.0241457
-0.0253512
-0.0262186
-0.0265927
-0.0257684
-0.0239492
-0.0224411
-0.0218771
-0.0209493
-0.0195492
-0.0189355
-0.0190261
-0.0181768
-0.0169562
-0.0161722
-0.0262206
-0.0246113
-0.0210766
-0.0177805
-0.0149763
-0.0107689
-0.00647701
-0.00220362
0.00207274
0.00546507
0.00816313
0.00978237
0.0101924
0.00953859
0.00794729
0.00536982
0.00159467
-0.00252301
-0.00652214
-0.0102355
-0.0135425
-0.016519
-0.0190671
-0.0213114
-0.0232619
-0.0249167
-0.0262446
-0.0272745
-0.027745
-0.0271608
-0.0256126
-0.0241782
-0.023487
-0.0224117
-0.0210558
-0.0205651
-0.0204896
-0.019608
-0.0184759
-0.0177462
-0.0278035
-0.0258475
-0.0218156
-0.0175433
-0.0144789
-0.0096045
-0.00488681
-0.000457345
0.00419288
0.00792307
0.0107091
0.0124637
0.0128771
0.0121352
0.0103122
0.00713254
0.00272638
-0.00175138
-0.00599308
-0.00992931
-0.0134485
-0.0165714
-0.0192863
-0.0216661
-0.023729
-0.025494
-0.0269595
-0.028162
-0.0288368
-0.0285729
-0.0273308
-0.0259885
-0.0249744
-0.0236909
-0.0224879
-0.0220835
-0.0219346
-0.0211169
-0.0200562
-0.0194164
-0.0292345
-0.0268506
-0.0222645
-0.0173363
-0.0138993
-0.00890243
-0.00349332
0.00152863
0.00659557
0.0108056
0.0137586
0.0156395
0.0159983
0.0151249
0.0128873
0.00889428
0.00412604
-0.000644227
-0.00517783
-0.00940274
-0.0131819
-0.0165551
-0.0194752
-0.0219666
-0.0241002
-0.0259062
-0.0274992
-0.0287936
-0.0296777
-0.0297468
-0.0289007
-0.0277414
-0.0264862
-0.0250427
-0.0239918
-0.023625
-0.0234517
-0.0226543
-0.0216384
-0.02106
-0.0304325
-0.0275291
-0.0225429
-0.0170205
-0.0128777
-0.00766328
-0.00187036
0.00383927
0.00946335
0.014174
0.0173738
0.0193641
0.0195885
0.018447
0.0156334
0.0110298
0.00606425
0.000979942
-0.00393217
-0.00854103
-0.0127017
-0.0163715
-0.0195049
-0.0221585
-0.0244023
-0.0262688
-0.0278241
-0.0291385
-0.0301189
-0.0305073
-0.0301407
-0.0293835
-0.02816
-0.0267469