/*--------------------------------*- C++ -*----------------------------------*\
  =========                 |
  \\      /  F ield         | OpenFOAM: The Open Source CFD Toolbox
   \\    /   O peration     | Website:  https://openfoam.org
    \\  /    A nd           | Version:  11
     \\/     M anipulation  |
\*---------------------------------------------------------------------------*/
FoamFile
{
    format      ascii;
    class       surfaceScalarField;
    location    "0.5";
    object      phi;
}
// * * * * * * * * * * * * * * * * * * * * * * * * * * * * * * * * * * * * * //

dimensions      [0 3 -1 0 0 0 0];

internalField   nonuniform List<scalar> 
18960
(
0.080429
0.00354725
-0.0839762
0.0824726
-0.00204364
0.0870684
-0.00459584
0.090598
-0.00352954
0.0919208
-0.00132283
0.0921447
-0.000223899
0.0920227
0.000121979
0.0918621
0.000160599
0.0916698
0.000192347
0.0915014
0.000168408
0.0913569
0.000144484
0.0912427
0.000114194
0.0911305
0.000112168
0.091016
0.00011452
0.0908689
0.000147065
0.0906957
0.000173297
0.0905452
0.000150448
0.0904363
0.000108855
0.0903575
7.88347e-05
0.0903034
5.41426e-05
0.0902205
8.28453e-05
0.0901787
4.18083e-05
0.090181
-2.26745e-06
0.0902476
-6.65903e-05
0.0903602
-0.000112614
0.0904667
-0.000106475
0.0905519
-8.52176e-05
0.0906423
-9.04545e-05
0.09074
-9.76721e-05
0.090892
-0.000151956
0.0910981
-0.000206089
0.0913829
-0.000284873
0.0917395
-0.000356554
0.0921739
-0.000434464
0.0926707
-0.000496805
0.0935273
-0.000856507
0.0939683
-0.000441065
0.0952361
-0.00126778
0.09359
0.00164605
0.00177616
0.0918139
0.0871766
0.00163385
-0.0852632
0.0870507
-0.00191772
0.0855625
-0.00310764
0.0832041
-0.0011712
0.0821045
-0.000223173
0.0820659
-0.000185375
0.0824436
-0.000255724
0.0830086
-0.000404327
0.083616
-0.000415061
0.0842095
-0.000425103
0.0848209
-0.000466892
0.0854032
-0.000468111
0.0860052
-0.000489884
0.0865672
-0.00044743
0.0870987
-0.000384445
0.0875785
-0.000306531
0.0879598
-0.000230873
0.0882522
-0.000183485
0.088433
-0.000101988
0.0884993
-1.21673e-05
0.0885251
5.70378e-05
0.0884465
0.000120413
0.0882585
0.00018578
0.0879948
0.000197024
0.0876451
0.0002371
0.0872429
0.000295728
0.0868037
0.000353969
0.0863128
0.000400524
0.0858294
0.00038572
0.0853137
0.00036369
0.0848189
0.000288723
0.0843214
0.000212624
0.0837938
0.000171104
0.0832623
9.69908e-05
0.0824515
0.000313984
0.0817849
-0.000189932
0.0810253
0.000318588
0.0804986
-0.000741098
0.0808476
0.00129703
-0.00193861
0.0845624
0.0872909
-1.67646e-05
-0.0856403
0.0875467
-0.00217351
0.0883133
-0.00387422
0.0900221
-0.00288004
0.0914353
-0.00163639
0.0920811
-0.000831119
0.092244
-0.000418649
0.0920814
-0.000241727
0.0918391
-0.000172749
0.0915904
-0.00017645
0.0913382
-0.000214673
0.0911355
-0.000265351
0.0909354
-0.000289782
0.0907798
-0.000291879
0.0906551
-0.000259694
0.0905456
-0.000197123
0.0904656
-0.000150785
0.0903746
-9.24785e-05
0.090312
-3.9387e-05
0.0902833
1.64433e-05
0.0901959
0.000144438
0.0901524
0.000163977
0.0901636
0.000174536
0.0901699
0.000190781
0.0902054
0.000201601
0.0902661
0.000235002
0.0903758
0.000244297
0.0905522
0.000224121
0.0907438
0.000194073
0.0910063
0.000101156
0.091294
1.0257e-06
0.0916331
-0.000126456
0.0920088
-0.000204584
0.0925449
-0.000439068
0.0930061
-0.00014723
0.0937914
-0.000975252
0.0939831
0.000126869
0.0939991
-0.000757091
0.0931201
0.00217606
-9.72763e-05
0.0912788
0.0917283
-0.00236177
-0.0893833
0.0912846
-0.00172981
0.0895464
-0.00213597
0.0872011
-0.000534787
0.0853117
0.00025309
0.0843266
0.000153967
0.0839856
-7.76621e-05
0.0840101
-0.000266226
0.084278
-0.000440657
0.0847379
-0.000636352
0.0852694
-0.000746138
0.0858306
-0.000826589
0.0863885
-0.000847693
0.0869174
-0.000820732
0.0874122
-0.000754528
0.0878513
-0.000636205
0.0882052
-0.00050471
0.0884654
-0.000352643
0.088645
-0.000219039
0.0886917
-3.02758e-05
0.0887453
9.09113e-05
0.0886863
0.000222906
0.0885218
0.000339025
0.0882776
0.000435061
0.0879551
0.000524024
0.0875756
0.000614588
0.0871565
0.00066336
0.0866895
0.000691094
0.0862061
0.000677452
0.0857198
0.000587486
0.0852347
0.000486086
0.0848167
0.000291555
0.0843463
0.000265898
0.0839452
-3.80307e-05
0.0835921
0.000205916
0.0831885
-0.000571696
0.0834447
-0.000129306
0.0839178
-0.00123019
0.0858083
0.00028555
-0.00241125
0.0881223
0.0912782
-0.00215483
-0.0914851
0.0894891
5.93153e-05
0.0880637
-0.000710582
0.0887509
-0.00122205
0.0900993
-0.00109531
0.0911219
-0.000868554
0.091629
-0.000584769
0.0918236
-0.000460895
0.0917931
-0.000410078
0.0915808
-0.000424119
0.0913497
-0.000515031
0.0911048
-0.000581666
0.0908838
-0.000626648
0.090691
-0.000627981
0.0905313
-0.000594791
0.0903967
-0.000501591
0.0902861
-0.000394175
0.0902109
-0.000277452
0.0901453
-0.000153448
0.0901496
-3.45649e-05
0.0900635
0.000177014
0.0900175
0.000268917
0.0900218
0.000334784
0.0900581
0.000398673
0.0901235
0.000458678
0.090219
0.000519055
0.0903595
0.00052289
0.0905586
0.000491949
0.0908219
0.000414187
0.0910928
0.000316613
0.0914019
0.000176918
0.0917116
-1.80669e-05
0.0920161
-3.86093e-05
0.09244
-0.000461947
0.0928013
-0.000155364
0.0931287
-0.000899173
0.092806
0.000193445
0.0921181
-0.000542298
0.0910843
0.00131937
-0.00148625
0.0901593
0.0920716
-0.00170763
-0.0925188
0.0910481
0.00108282
0.0902228
0.000114682
0.0891524
-0.000151687
0.0876785
0.000378603
0.0864737
0.000336291
0.0858476
4.13338e-05
0.085566
-0.000179345
0.0854372
-0.000281269
0.0855784
-0.000565348
0.085965
-0.000901556
0.0864451
-0.0010618
0.0869371
-0.00111869
0.0874054
-0.00109626
0.0878533
-0.0010427
0.0882366
-0.000884828
0.0885529
-0.000710534
0.0887724
-0.000496955
0.088928
-0.00030903
0.0889383
-4.48843e-05
0.0890037
0.000111606
0.0889935
0.000279199
0.0888532
0.000475026
0.0886336
0.000618253
0.0883678
0.00072449
0.0880437
0.000843193
0.0876512
0.000915392
0.0871939
0.000949267
0.0867273
0.000880783
0.0862848
0.000759106
0.0858675
0.000594151
0.0855325
0.000316977
0.0852028
0.000291125
0.0848806
-0.000139749
0.0849561
-0.000230874
0.0849575
-0.00090056
0.08588
-0.000729059
0.0870077
-0.00167
0.0887436
-0.000416512
-0.00262266
0.08988
0.0914292
-0.000502726
-0.0926341
0.0900691
0.00244292
0.0890466
0.00113719
0.0886963
0.000198686
0.0891962
-0.000121321
0.0901277
-0.000595187
0.09086
-0.000690971
0.0912359
-0.000555304
0.0914039
-0.000449224
0.0913986
-0.000560019
0.0911909
-0.000693931
0.0909788
-0.000849661
0.0907478
-0.000887709
0.0905482
-0.00089665
0.0903756
-0.000870091
0.0902364
-0.000745683
0.0901289
-0.000603039
0.0900636
-0.000431663
0.0900127
-0.000258116
0.0900426
-7.47432e-05
0.089963
0.000191161
0.0899169
0.000325362
0.0899235
0.000468404
0.0899591
0.000582616
0.0900297
0.000653902
0.090135
0.000737905
0.0902878
0.000762633
0.0905112
0.000725814
0.0907668
0.000625184
0.0910659
0.000460002
0.0913318
0.000328291
0.091559
8.97543e-05
0.0918156
3.44939e-05
0.0919848
-0.000308926
0.0919687
-0.000214778
0.0918712
-0.000803038
0.0912436
-0.000101433
0.090828
-0.00125445
0.0901112
0.000300344
-0.00259976
0.0900883
0.0912571
0.000465426
-0.0922252
0.0907053
0.0029947
0.0902994
0.00154306
0.0898282
0.000669875
0.0890882
0.000618757
0.0881969
0.00029612
0.087401
0.000104847
0.086882
-3.62361e-05
0.0866538
-0.000221022
0.0866635
-0.000569739
0.0868677
-0.000898116
0.0872105
-0.00119244
0.0876164
-0.00129362
0.088008
-0.00128824
0.0883626
-0.00122475
0.0886789
-0.00106199
0.0889381
-0.000862236
0.0891251
-0.000618685
0.0892591
-0.000392074
0.0892249
-4.05022e-05
0.0892859
0.000130166
0.0893167
0.000294524
0.0892214
0.00056372
0.0890599
0.000744082
0.0888317
0.000882092
0.0885695
0.00100015
0.0882392
0.00109296
0.0878315
0.00113345
0.0874015
0.00105523
0.086984
0.000877477
0.0866589
0.000653363
0.0864625
0.000286133
0.0863504
0.000146685
0.086407
-0.000365602
0.0867477
-0.000555463
0.0870244
-0.00107975
0.0880212
-0.00109815
0.0887829
-0.00201615
0.0899977
-0.000914509
-0.00291176
0.0903097
0.0913131
0.00112585
-0.0919735
0.0907382
0.00356964
0.0899512
0.00233007
0.0893956
0.00122545
0.0891554
0.000858955
0.0895434
-9.1919e-05
0.0901113
-0.000463025
0.0906124
-0.000537353
0.0909347
-0.000543303
0.0910411
-0.000676112
0.0909675
-0.00082455
0.0907698
-0.000994738
0.0905658
-0.00108968
0.090391
-0.00111336
0.0902255
-0.00105923
0.0901016
-0.000938148
0.0900232
-0.000783868
0.0899503
-0.000545762
0.0899241
-0.000365902
0.0899938
-0.000110141
0.0899362
0.00018775
0.0898554
0.000375363
0.0898925
0.000526594
0.0899077
0.000728903
0.0899403
0.000849492
0.0900204
0.000920028
0.0901564
0.000956917
0.0903738
0.000916068
0.0906567
0.000772364
0.0909341
0.000600016
0.0911642
0.000423342
0.0912951
0.00015524
0.0913616
8.0095e-05
0.091244
-0.000247966
0.0909895
-0.000300994
0.0908191
-0.000909319
0.090364
-0.000643059
0.0901899
-0.00184204
0.0901915
-0.000916116
-0.00309281
0.0903726
0.0912401
0.00169027
-0.0918046
0.0907617
0.00404811
0.0903825
0.00270928
0.0902135
0.00139445
0.0899422
0.0011302
0.0892938
0.000556544
0.0886776
0.000153131
0.0881784
-3.81766e-05
0.0878624
-0.000227247
0.0877942
-0.000607911
0.0878299
-0.000860261
0.088018
-0.0011829
0.0883091
-0.0013807
0.0886041
-0.00140845
0.0888761
-0.00133118
0.0891304
-0.00119249
0.0893372
-0.000990658
0.0894941
-0.000702638
0.0895954
-0.000467252
0.0895402
-5.49093e-05
0.0895766
0.000151414
0.0896335
0.000318419
0.0895904
0.000569647
0.0894795
0.000839835
0.089274
0.00105505
0.0890489
0.00114505
0.0888019
0.00120397
0.0884875
0.0012305
0.0881201
0.00113973
0.0877735
0.000946632
0.0875111
0.000685679
0.0874695
0.000196911
0.0876246
-7.5015e-05
0.0878953
-0.000518677
0.0883167
-0.000722436
0.0886722
-0.00126478
0.0893849
-0.00135582
0.0897378
-0.00219486
0.0903335
-0.00151187
-0.00329822
0.0905389
0.0911742
0.00216527
-0.0916492
0.0908643
0.00435803
0.0904483
0.00312523
0.0900192
0.0018236
0.0896168
0.00153265
0.0894799
0.000693442
0.0898246
-0.00019161
0.0901956
-0.000409231
0.090539
-0.000570609
0.0906443
-0.000713174
0.0906655
-0.00088151
0.0905526
-0.00107003
0.0903831
-0.00121116
0.0902381
-0.00126348
0.0901284
-0.00122139
0.0900452
-0.00110936
0.0899885
-0.000933948
0.0899464
-0.000660569
0.0899359
-0.000456689
0.0900219
-0.000140973
0.0899838
0.000189507
0.0899168
0.00038545
0.0899106
0.000575913
0.0899078
0.000842552
0.0899134
0.00104952
0.0899519
0.00110655
0.0900519
0.0011039
0.0902458
0.00103659
0.0904948
0.000890786
0.0907527
0.000688719
0.0909576
0.000480775
0.0909142
0.000240305
0.0908
3.92194e-05
0.090619
-0.000337707
0.0904044
-0.000507809
0.0902994
-0.00115981
0.0901335
-0.00118989
0.0902017
-0.00226306
0.0904803
-0.00179049
-0.00344667
0.0906287
0.0911735
0.00256688
-0.0915751
0.0909472
0.00458436
0.0905132
0.00355915
0.0903032
0.00203362
0.09028
0.00155592
0.0900545
0.000918944
0.089562
0.000300812
0.0891111
4.17092e-05
0.0887852
-0.00024477
0.0886848
-0.000612756
0.0886852
-0.000881876
0.0888021
-0.00118697
0.0890038
-0.00141281
0.0892248
-0.00148449
0.0894123
-0.00140887
0.0895907
-0.00128774
0.0897341
-0.0010774
0.0898347
-0.000761174
0.0899352
-0.000557147
0.0898662
-7.19632e-05
0.0898903
0.000165386
0.0899264
0.000349317
0.0899151
0.000587238
0.0898422
0.000915446
0.0897037
0.00118799
0.0895606
0.00124965
0.0893684
0.00129613
0.0891215
0.00128352
0.0888216
0.00119068
0.0885494
0.000960897
0.0883899
0.000640292
0.0885321
9.81407e-05
0.0888175
-0.000246221
0.0891
-0.000620181
0.0894251
-0.00083294
0.0896788
-0.0014135
0.0900297
-0.00154077
0.0902296
-0.00246293
0.0905761
-0.00213703
-0.00360628
0.0907357
0.0911738
0.0028744
-0.0914813
0.0910019
0.00475626
0.090692
0.00386908
0.0904695
0.00225611
0.0901932
0.00183221
0.0898805
0.00123167
0.0898592
0.000322121
0.0901022
-0.000201333
0.0903346
-0.000477134
0.0904414
-0.000719551
0.0904584
-0.000898894
0.0903869
-0.0011155
0.0902825
-0.00130836
0.0901809
-0.0013829
0.0901263
-0.00135433
0.0900964
-0.00125782
0.0900824
-0.00106344
0.0900873
-0.000765984
0.0900676
-0.00053748
0.0901598
-0.000164137
0.0901441
0.000181088
0.0901067
0.000386626
0.0900731
0.000620854
0.0900349
0.000953699
0.0900037
0.00121921
0.0899902
0.00126307
0.0900397
0.00124663
0.0901673
0.00115597
0.0903698
0.000988111
0.0905904
0.000740372
0.0907228
0.000507863
0.090606
0.000214924
0.0903947
-3.49296e-05
0.0903303
-0.000555742
0.0902199
-0.000722592
0.0902127
-0.00140625
0.0903087
-0.00163674
0.0904348
-0.00258908
0.0907227
-0.00242488
-0.00372967
0.090846
0.0912353
0.00315085
-0.0915118
0.0911087
0.0048829
0.090848
0.00412979
0.090626
0.00247814
0.0904352
0.00202302
0.0903328
0.00133398
0.0901128
0.000542125
0.0898261
8.54161e-05
0.0895961
-0.000247143
0.0894515
-0.000574964
0.0894657
-0.000913065
0.0895682
-0.00121802
0.0896935
-0.00143368
0.089823
-0.00151241
0.089942
-0.0014733
0.0900372
-0.00135301
0.0901221
-0.00114839
0.0901664
-0.00081029
0.0902341
-0.000605111
0.0902082
-0.000138273
0.0902206
0.000168725
0.0902156
0.000391564
0.0902044
0.000632134
0.0901625
0.000995532
0.0901142
0.00126756
0.09003
0.00134724
0.0899093
0.00136729
0.0897604
0.00130494
0.0895521
0.00119641
0.0893332
0.000959225
0.0892447
0.000596408
0.0894325
2.70866e-05
0.0896775
-0.000279956
0.0898603
-0.000738543
0.0900951
-0.000957382
0.0902234
-0.00153453
0.0904298
-0.00184312
0.0906075
-0.00276674
0.09088
-0.00269743
-0.00386349
0.0910138
0.0913203
0.00345376
-0.0916232
0.0912535
0.00494972
0.0910404
0.00434292
0.0908429
0.00267562
0.0906438
0.00222212
0.0904382
0.00153955
0.0902103
0.000770006
0.0902726
2.31337e-05
0.090346
-0.000320471
0.090391
-0.000620044
0.090391
-0.000913067
0.090352
-0.00117895
0.0903141
-0.00139576
0.0902719
-0.0014703
0.0902638
-0.00146514
0.0902847
-0.00137394
0.0903112
-0.00117483
0.0903516
-0.000850691
0.0903493
-0.000602842
0.0904107
-0.000199626
0.0904076
0.000171758
0.0903923
0.000406886
0.0903447
0.000679764
0.090322
0.0010182
0.0902878
0.00130179
0.0902294
0.00140562
0.0901991
0.00139759
0.0902208
0.00128319
0.0903572
0.00106004
0.0905175
0.000798941
0.0906098
0.000504057
0.090466
0.00017088
0.0903352
-0.000149087
0.0903363
-0.000739706
0.0903767
-0.000997699
0.0904854
-0.00164324
0.0906239
-0.00198164
0.0907772
-0.00292006
0.0910231
-0.00294331
-0.00400601
0.0911656
0.0914768
0.00370632
-0.0917294
0.0914283
0.00499818
0.091257
0.00451431
0.0910495
0.00288311
0.0908634
0.00240813
0.0906801
0.00172293
0.0905332
0.000916888
0.0903583
0.000197971
0.0902092
-0.000171344
0.0901658
-0.000576631
0.0901817
-0.000928937
0.0902523
-0.00124959
0.0903039
-0.00144737
0.0903655
-0.00153185
0.0904195
-0.00151916
0.0904522
-0.00140664
0.0904892
-0.00121179
0.0905317
-0.000893203
0.0905748
-0.000645961
0.0905854
-0.000210243
0.0905813
0.000175852
0.0905509
0.00043729
0.0905219
0.000708767
0.0905068
0.00103331
0.0904875
0.00132111
0.0904338
0.00145934
0.0903833
0.00144804
0.0903285
0.00133797
0.0902148
0.0011738
0.0900876
0.000926104
0.090011
0.000580682
0.0901723
9.62101e-06
0.0903306
-0.000307467
0.0904125
-0.000821585
0.0905344
-0.00111958
0.0906514
-0.00176025
0.0908034
-0.00213361
0.0909511
-0.00306777
0.0911958
-0.00318803
-0.00412696
0.0913168
0.09159
0.00393982
-0.0918235
0.0915687
0.00501946
0.0914158
0.00466716
0.0911739
0.003125
0.0909955
0.00258662
0.0908268
0.00189158
0.0906724
0.00107128
0.090597
0.000273346
0.0906152
-0.000189458
0.0906065
-0.000568007
0.0906066
-0.000929047
0.0905941
-0.00123702
0.0905953
-0.00144862
0.0906063
-0.00154287
0.0906329
-0.00154572
0.0906634
-0.00143709
0.0907109
-0.00125937
0.0907452
-0.000927452
0.0907743
-0.00067507
0.0908072
-0.000243123
0.090777
0.000206003
0.0907486
0.000465717
0.0907214
0.000735988
0.0906955
0.00105919
0.0906834
0.00133322
0.0906579
0.00148477
0.0906174
0.00148859
0.0905713
0.00138401
0.0905784
0.00116677
0.0906519
0.000852566
0.0907308
0.000501783
0.0906342
0.000106209
0.0906305
-0.000303702
0.0906821
-0.000873228
0.09078
-0.00121744
0.0908762
-0.00185644
0.0910179
-0.00227537
0.0911573
-0.00320716
0.0913736
-0.00340432
-0.00426577
0.0915124
0.0917268
0.00413111
-0.0919181
0.0917013
0.00504489
0.0915678
0.00480071
0.0913243
0.0033685
0.0911605
0.00275041
0.091025
0.00202707
0.0908962
0.00120007
0.0908324
0.000337146
0.0907843
-0.000141378
0.0907799
-0.000563595
0.0907821
-0.000931251
0.0907927
-0.0012476
0.0908049
-0.00146083
0.0908418
-0.00157975
0.090884
-0.00158793
0.0909174
-0.00147046
0.0909549
-0.00129689
0.0909926
-0.000965155
0.0910206
-0.000703076
0.0910338
-0.000256362
0.0910334
0.000206408
0.0910026
0.000496517
0.0909619
0.000776725
0.0909329
0.00108816
0.0909185
0.00134759
0.0908966
0.00150672
0.0908597
0.00152544
0.0908321
0.0014116
0.0908
0.00119891
0.0907518
0.000900744
0.0906954
0.000558262
0.0907876
1.39358e-05
0.0908302
-0.000346322
0.0908917
-0.000934643
0.0909801
-0.00130591
0.0910834
-0.00195975
0.0912265
-0.00241838
0.0913667
-0.00334738
0.091584
-0.00362163
-0.00439519
0.0917134
0.0918396
0.00432942
-0.0920379
0.0917972
0.00508725
0.0916896
0.0049083
0.0914849
0.00357325
0.0913426
0.00289271
0.0912304
0.00213923
0.0911231
0.00130733
0.0910658
0.000394475
0.0910404
-0.000115974
0.0910265
-0.000549667
0.091031
-0.000935756
0.0910395
-0.00125612
0.0910775
-0.00149883
0.0911049
-0.00160709
0.0911381
-0.00162113
0.0911836
-0.00151597
0.0912231
-0.00133642
0.0912556
-0.000997704
0.0912718
-0.000719276
0.0913039
-0.000288463
0.0913043
0.000206028
0.0912803
0.000520512
0.0912393
0.000817752
0.0912025
0.00112495
0.091175
0.00137513
0.0911615
0.00152017
0.0911411
0.00154589
0.091093
0.00145964
0.0910726
0.0012194
0.0910686
0.000904726
0.0910816
0.000545241
0.0910478
4.77083e-05
0.0910992
-0.000397716
0.0911499
-0.000985364
0.0912291
-0.00138512
0.0913389
-0.00206951
0.091461
-0.00254046
0.0915905
-0.00347692
0.0917904
-0.00382154
-0.00454123
0.0919365
0.0919744
0.0045415
-0.0921864
0.0919522
0.00510936
0.0918664
0.00499411
0.0917029
0.00373674
0.091603
0.00299268
0.0914895
0.00225268
0.0914058
0.00139106
0.0913498
0.000450409
0.0913243
-9.04267e-05
0.0913092
-0.000534535
0.091327
-0.00095359
0.0913421
-0.00127124
0.0913605
-0.00151717
0.0913994
-0.00164605
0.0914466
-0.00166835
0.0914837
-0.00155307
0.0915341
-0.00138674
0.0915612
-0.00102489
0.091582
-0.000740028
0.0915934
-0.000299907
0.0916229
0.000176543
0.0915879
0.000555573
0.0915487
0.000856953
0.0915029
0.00117074
0.0914874
0.00139056
0.0914632
0.00154445
0.0914361
0.00157293
0.0914133
0.00148248
0.0913768
0.0012559
0.0913423
0.000939201
0.0913361
0.000551404
0.0913316
5.22893e-05
0.0913486
-0.000414736
0.0913871
-0.00102392
0.0914809
-0.00147891
0.0915775
-0.00216612
0.0917062
-0.00266914
0.0918373
-0.00360803
0.0920037
-0.00398792
-0.00469647
0.0921589
0.0921782
0.00470919
-0.0923459
0.0921707
0.00511692
0.0921317
0.00503305
0.0919934
0.00387513
0.0918966
0.00308943
0.0918039
0.00234541
0.0917003
0.00149468
0.0916364
0.000514315
0.0916042
-5.82809e-05
0.0916114
-0.000541758
0.0916197
-0.000961827
0.0916538
-0.0013054
0.0916747
-0.00153808
0.0917185
-0.00168976
0.0917627
-0.00171261
0.0918182
-0.00160857
0.0918597
-0.00142825
0.0919143
-0.00107946
0.091913
-0.000738703
0.0919447
-0.000331597
0.0919641
0.00015715
0.0919525
0.000567182
0.0918871
0.000922302
0.0918504
0.00120747
0.0918219
0.00141902
0.0918071
0.00155922
0.0917736
0.0016065
0.0917478
0.00150829
0.0917005
0.00130312
0.0916788
0.000960963
0.0916394
0.000590818
0.0916327
5.892e-05
0.091643
-0.000425024
0.0916811
-0.00106199
0.0917541
-0.00155191
0.0918649
-0.00227696
0.0920056
-0.00280977
0.0921116
-0.00371409
0.092257
-0.00413331
-0.00481768
0.0923782
0.0924418
0.00485104
-0.0925837
0.0924616
0.00509714
0.0924593
0.0050353
0.0923469
0.00398759
0.0922599
0.00317637
0.0921569
0.00244842
0.0920381
0.00161349
0.0919691
0.000583328
0.0919478
-3.69313e-05
0.0919628
-0.000556795
0.091982
-0.000980993
0.0919894
-0.00131284
0.0920316
-0.0015803
0.0920716
-0.00172978
0.0921357
-0.00177672
0.0921912
-0.00166405
0.0922374
-0.00147444
0.0922906
-0.00113263
0.092315
-0.000763139
0.0923232
-0.000339825
0.0923729
0.000107507
0.0923497
0.000590387
0.0922955
0.000976518
0.0922528
0.00125011
0.0922301
0.00144176
0.0921984
0.00159094
0.0921718
0.00163311
0.0921227
0.00155739
0.0920752
0.00135061
0.0920323
0.00100381
0.0919917
0.000631449
0.0919714
7.91656e-05
0.0919686
-0.000422176
0.0920047
-0.00109808
0.092086
-0.00163319
0.0922007
-0.00239166
0.0923346
-0.00294374
0.0924207
-0.00380019
0.0925423
-0.00425486
-0.00494177
0.0926664
0.0927678
0.00497844
-0.0928952
0.0928052
0.00505967
0.092827
0.00501353
0.092746
0.00406859
0.0926721
0.00325027
0.0925734
0.00254711
0.0924477
0.00173923
0.0923583
0.00067272
0.0923477
-2.63666e-05
0.0923361
-0.00054517
0.09237
-0.0010149
0.0924164
-0.00135927
0.0924614
-0.00162526
0.0925232
-0.0017916
0.0925764
-0.0018299
0.0926387
-0.00172637
0.0926787
-0.00151444
0.0927439
-0.00119783
0.0927521
-0.000771325
0.0927778
-0.000365567
0.0928087
7.66202e-05
0.0928259
0.000573169
0.0927719
0.00103053
0.0927243
0.00129775
0.0926764
0.0014896
0.0926385
0.00162893
0.0925884
0.00168311
0.0925507
0.00159514
0.0924958
0.00140548
0.0924345
0.00106516
0.0924248
0.000641181
0.0923963
0.00010764
0.092404
-0.000429938
0.0924456
-0.00113966
0.092526
-0.00171354
0.0926291
-0.00249477
0.0927222
-0.00303688
0.092768
-0.00384597
0.0928459
-0.0043328
-0.00506445
0.0929686
0.0930999
0.00507353
-0.093195
0.0931263
0.0050332
0.0931726
0.00496727
0.0931273
0.00411385
0.0931057
0.00327187
0.0930376
0.00261529
0.0929336
0.00184324
0.0928086
0.000797721
0.0927899
-7.67175e-06
0.0928006
-0.000555936
0.0928231
-0.0010374
0.0928788
-0.0014149
0.0929459
-0.00169241
0.0930011
-0.00184678
0.0930681
-0.00189689
0.0931271
-0.00178538
0.093174
-0.00156129
0.0932281
-0.00125199
0.0932733
-0.000816513
0.0932788
-0.000371076
0.0933139
4.15287e-05
0.0933263
0.000560747
0.0933205
0.00103635
0.093284
0.00133425
0.0932219
0.00155171
0.093153
0.00169779
0.0931031
0.00173305
0.093046
0.00165223
0.0930015
0.00145
0.0929494
0.00111727
0.0929133
0.000677228
0.0928899
0.000131092
0.0929198
-0.000459849
0.0929523
-0.00117213
0.0930255
-0.00178679
0.0930905
-0.00255978
0.0931354
-0.00308179
0.0931627
-0.00387326
0.0932207
-0.00439073
-0.00514725
0.0933035
0.0934717
0.00515349
-0.0935516
0.0935137
0.00499121
0.0935948
0.00488609
0.0935956
0.00411309
0.093608
0.00325944
0.0935779
0.00264538
0.0934964
0.00192474
0.0933809
0.000913252
0.0933344
3.88407e-05
0.0933415
-0.000563014
0.0933726
-0.00106853
0.0934134
-0.00145572
0.0934773
-0.00175633
0.0935469
-0.00191635
0.0936072
-0.00195719
0.0936838
-0.00186197
0.0937513
-0.00162886
0.093788
-0.00128861
0.0938427
-0.000871256
0.0938806
-0.000408961
0.093868
5.4118e-05
0.0938898
0.000538991
0.0939338
0.000992293
0.0939083
0.00135982
0.0938406
0.00161935
0.0937788
0.00175965
0.093713
0.00179877
0.0936613
0.00170397
0.0936335
0.0014778
0.0936022
0.00114852
0.0935852
0.000694291
0.0935749
0.000141376
0.0935631
-0.000448105
0.0935766
-0.00118557
0.0935838
-0.00179403
0.0935831
-0.00255906
0.0936036
-0.0031023
0.0936084
-0.003878
0.0936289
-0.00441126
-0.0052376
0.0937192
0.0939126
0.0051756
-0.0939347
0.0939829
0.00492091
0.0940901
0.00477884
0.0941032
0.00409998
0.0941141
0.00324863
0.0941162
0.00264329
0.0941027
0.00193815
0.0940311
0.000984911
0.0939769
9.30103e-05
0.0939702
-0.000556341
0.0939972
-0.0010955
0.0940595
-0.00151795
0.0941214
-0.00181827
0.0941809
-0.00197582
0.094255
-0.00203133
0.0943253
-0.00193227
0.0943906
-0.00169417
0.0944563
-0.00135434
0.0945084
-0.000923299
0.094546
-0.000446609
0.094554
4.61871e-05
0.0945644
0.000528579
0.0945719
0.000984727
0.0945707
0.00136106
0.0945479
0.00164218
0.0945044
0.00180311
0.0944799
0.00182326
0.0944588
0.00172506
0.0944461
0.00149051
0.0944646
0.00113007
0.0944803
0.000678605
0.0944866
0.000134994
0.0944542
-0.0004157
0.0943938
-0.0011251
0.0943015
-0.00170177
0.0942368
-0.00249432
0.094211
-0.00307657
0.0941829
-0.00384987
0.0941689
-0.00439726
-0.00529064
0.094222
0.0944421
0.00516517
-0.0944317
0.0945212
0.0048418
0.0946245
0.00467551
0.0946394
0.00408512
0.0946504
0.00323757
0.0946733
0.00262038
0.0947134
0.00189808
0.0947287
0.000969613
0.0947284
9.33482e-05
0.09473
-0.00055799
0.0947485
-0.00111396
0.094802
-0.00157144
0.0948552
-0.00187154
0.0949363
-0.00205693
0.0950002
-0.00209523
0.0950655
-0.00199755
0.0951311
-0.00175977
0.0951952
-0.00141838
0.0952567
-0.000984841
0.0953079
-0.000497843
0.0953378
1.63288e-05
0.0953646
0.000501726
0.0953925
0.000956831
0.095414
0.00133963
0.0954279
0.00162823
0.0954429
0.0017881
0.0954535
0.00181272
0.0954876
0.00169089
0.095507
0.00147115
0.0955069
0.00113018
0.0954634
0.000722049
0.0954188
0.000179666
0.0953354
-0.000332293
0.0952546
-0.00104438
0.0951502
-0.00159735
0.0950526
-0.00239669
0.0949359
-0.00295982
0.0948485
-0.00376248
0.0947971
-0.00434594
-0.00530766
0.0948142
0.0949935
0.0052036
-0.0950319
0.0950526
0.00478272
0.0951331
0.00459498
0.0951613
0.00405693
0.0952043
0.00319463
0.0952701
0.00255452
0.0953235
0.00184465
0.0953745
0.000918615
0.0954789
-1.09682e-05
0.0955429
-0.000622041
0.0955925
-0.00116351
0.0956493
-0.0016283
0.0957198
-0.00194199
0.0957843
-0.00212142
0.0958485
-0.00215951
0.0959156
-0.0020646
0.0959991
-0.0018433
0.0960735
-0.00149275
0.0961591
-0.00107045
0.0962253
-0.000563998
0.0962791
-3.75301e-05
0.096319
0.000461833
0.0963734
0.000902473
0.0964211
0.00129193
0.0964766
0.00157274
0.0965237
0.00174095
0.0965502
0.00178626
0.096543
0.00169809
0.096514
0.00150014
0.0964718
0.00117234
0.0964096
0.000784214
0.0963215
0.000267853
0.0962175
-0.000228324
0.0961187
-0.000945568
0.095986
-0.00146468
0.0958407
-0.00225136
0.095686
-0.0028052
0.0955863
-0.00366272
0.0954995
-0.00425918
-0.00531978
0.0955117
0.0956026
0.00524207
-0.0956411
0.0956524
0.00473301
0.0957656
0.00448173
0.0958487
0.00397385
0.0959625
0.00308079
0.0960919
0.00242518
0.0961726
0.00176392
0.0962393
0.000851969
0.0963415
-0.000113172
0.0964606
-0.000741225
0.0965621
-0.00126497
0.0966258
-0.00169199
0.0967051
-0.00202125
0.0967878
-0.00220419
0.0968717
-0.00224334
0.0969482
-0.00214112
0.0970285
-0.0019236
0.0971212
-0.00158549
0.0971947
-0.00114395
0.0972736
-0.000642851
0.0973512
-0.000115166
0.0974321
0.000380919
0.0974939
0.000840695
0.0975616
0.00122419
0.0976164
0.00151798
0.0976406
0.00171674
0.0976383
0.00178856
0.0976111
0.00172531
0.0975662
0.00154504
0.0974846
0.00125389
0.0973811
0.000887777
0.0972747
0.000374185
0.0971155
-6.90953e-05
0.0969493
-0.000779335
0.0967635
-0.00127892
0.0966049
-0.00209275
0.0964687
-0.00266896
0.0963924
-0.00358641
0.0963096
-0.00417637
-0.00527317
0.0962629
0.0963145
0.0052962
-0.0963686
0.096412
0.00463546
0.0965897
0.00430403
0.0967551
0.0038085
0.0969294
0.00290648
0.0971196
0.00223493
0.0972356
0.001648
0.0973051
0.00078242
0.0973874
-0.000195469
0.097538
-0.000891851
0.0976567
-0.00138368
0.0977819
-0.00181711
0.0978905
-0.00212988
0.0979837
-0.0022974
0.098073
-0.00233262
0.0981717
-0.00223985
0.0982675
-0.00201934
0.0983366
-0.00165469
0.0984255
-0.0012328
0.0985463
-0.000763664
0.098614
-0.000182912
0.0986837
0.000311221
0.0987602
0.000764207
0.098805
0.00117938
0.098838
0.00148502
0.0988616
0.00169313
0.0988561
0.0017941
0.0988094
0.00177195
0.0987076
0.0016469
0.0985968
0.0013647
0.0984178
0.0010668
0.098253
0.000538961
0.0980389
0.000144964
0.0978554
-0.000595819
0.0976765
-0.00110003
0.0975407
-0.00195699
0.0973964
-0.00252458
0.0973107
-0.0035008
0.0972019
-0.00406757
-0.00520969
0.0971385
0.0972558
0.00531625
-0.0972759
0.0973821
0.00450918
0.0976132
0.00407293
0.0978625
0.00355922
0.0981048
0.00266414
0.0983492
0.00199054
0.0985296
0.00146767
0.0986112
0.00070073
0.0987063
-0.00029055
0.0988533
-0.00103882
0.0990114
-0.00154182
0.0991604
-0.00196606
0.09929
-0.00225944
0.0994186
-0.00242605
0.0995381
-0.00245211
0.0996437
-0.00234549
0.0997518
-0.00212744
0.0998502
-0.00175302
0.0998847
-0.00126738
0.0999098
-0.000788696
0.100047
-0.000319804
0.10021
0.000148253
0.100304
0.000669551
0.10038
0.00110353
0.100417
0.0014477
0.100407
0.00170391
0.100353
0.00184752
0.100276
0.00184926
0.100141
0.00178148
0.0999952
0.0015109
0.099804
0.00125795
0.0996281
0.000714829
0.0994936
0.000279525
0.0993389
-0.000441094
0.0991686
-0.000929815
0.0989862
-0.0017745
0.0987627
-0.00230108
0.0985919
-0.00333003
0.0984126
-0.00388826
-0.00504497
0.0982479
0.0984945
0.00526869
-0.0984469
0.0986587
0.00434497
0.0989427
0.0037889
0.0992679
0.00323401
0.0996006
0.00233147
0.099988
0.00160311
0.10029
0.00116523
0.100405
0.000586139
0.100462
-0.000347955
0.100577
-0.00115369
0.100735
-0.00169958
0.100875
-0.00210619
0.101026
-0.00240983
0.101165
-0.00256514
0.101279
-0.00256653
0.101399
-0.00246582
0.10152
-0.00224811
0.101673
-0.00190576
0.101865
-0.00145941
0.102019
-0.000942648
0.101992
-0.000293319
0.101902
0.000238479
0.101875
0.000697079
0.101855
0.00112315
0.101824
0.00147886
0.101799
0.00172887
0.101733
0.00191288
0.101656
0.00192645
0.101562
0.0018762
0.101452
0.00162046
0.101333
0.00137709
0.101166
0.000881376
0.100896
0.000549721
0.100546
-9.06132e-05
0.100242
-0.000626086
0.100067
-0.00160003
0.0998744
-0.00210806
0.0997478
-0.00320343
0.0996221
-0.00376248
-0.00487836
0.0994554
0.10017
0.00524779
-0.100149
0.100235
0.00428004
0.100442
0.0035823
0.100692
0.00298356
0.100955
0.00206866
0.101383
0.00117499
0.101861
0.000687564
0.102303
0.000144497
0.10256
-0.000605498
0.102751
-0.00134441
0.102923
-0.00187128
0.103069
-0.00225254
0.103209
-0.00255019
0.103334
-0.00268966
0.103442
-0.00267494
0.103493
-0.00251624
0.103496
-0.00225177
0.103473
-0.00188293
0.103475
-0.00146075
0.10352
-0.000987704
0.103773
-0.000546394
0.10416
-0.000148898
0.104442
0.000415689
0.10468
0.000884697
0.104848
0.00131086
0.104928
0.00164941
0.104924
0.00191653
0.104871
0.00197962
0.104731
0.00201591
0.104587
0.00176412
0.10437
0.00159448
0.104255
0.000996432
0.104189
0.000616164
0.104327
-0.000229372
0.104277
-0.000576174
0.104107
-0.00143002
0.103852
-0.0018528
0.103488
-0.00283964
0.103023
-0.00329677
-0.00453625
0.10268
0.102975
0.00474919
-0.102477
0.103414
0.00384159
0.103909
0.00308738
0.104385
0.00250671
0.104769
0.00168551
0.105141
0.000803034
0.105515
0.000312736
0.105614
4.61644e-05
0.105689
-0.000681278
0.105759
-0.00141399
0.105844
-0.00195599
0.105946
-0.00235436
0.10607
-0.00267414
0.106246