/*--------------------------------*- C++ -*----------------------------------*\
  =========                 |
  \\      /  F ield         | OpenFOAM: The Open Source CFD Toolbox
   \\    /   O peration     | Website:  https://openfoam.org
    \\  /    A nd           | Version:  10
     \\/     M anipulation  |
\*---------------------------------------------------------------------------*/
FoamFile
{
    format      ascii;
    class       volScalarField;
    location    "0.849234";
    object      p;
}
// * * * * * * * * * * * * * * * * * * * * * * * * * * * * * * * * * * * * * //

dimensions      [1 -1 -2 0 0 0 0];

internalField   nonuniform List<scalar> 
16320
(
0.623207
0.61783
0.613541
0.610347
0.60799
0.606833
0.606673
0.607449
0.609178
0.61182
0.620575
0.63023
0.64068
0.650024
0.6571
0.66148
0.666406
0.671266
0.676153
0.680905
0.68539
0.689528
0.693401
0.696793
0.699691
0.702095
0.703223
0.703173
0.702366
0.701105
0.698807
0.694739
0.689632
0.683675
0.67702
0.669496
0.66096
0.65127
0.640559
0.628714
0.615781
0.601665
0.586069
0.569458
0.5531
0.534093
0.515385
0.498126
0.484472
0.479749
0.483148
0.495834
0.524488
0.567777
0.589317
0.583131
0.574387
0.56146
0.550091
0.543635
0.53895
0.538943
0.539547
0.54037
0.541398
0.543232
0.544287
0.546552
0.548625
0.551768
0.554839
0.558892
0.563974
0.570297
0.577595
0.585546
0.593904
0.600923
0.605892
0.607755
0.61151
0.613726
0.615811
0.617861
0.620003
0.623854
0.626769
0.631939
0.639289
0.648533
0.658559
0.667564
0.673847
0.674984
0.672411
0.666592
0.657724
0.646176
0.634706
0.626934
0.623343
0.622848
0.627115
0.6375
0.647302
0.658697
0.670664
0.684527
0.69808
0.709705
0.720621
0.728191
0.734884
0.620678
0.615063
0.610572
0.607239
0.605008
0.603832
0.60369
0.604688
0.606741
0.609342
0.615417
0.626917
0.63749
0.648326
0.656672
0.662028
0.666522
0.671186
0.675815
0.680405
0.684733
0.688676
0.692123
0.695324
0.697487
0.698595
0.699319
0.699387
0.698889
0.698458
0.696418
0.693073
0.688506
0.683503
0.677622
0.670402
0.661468
0.65182
0.64159
0.630083
0.617432
0.603498
0.588264
0.571908
0.555003
0.536803
0.519215
0.502587
0.489278
0.485021
0.488231
0.500468
0.528134
0.574683
0.603064
0.596255
0.586083
0.569952
0.556023
0.548427
0.543493
0.543964
0.544552
0.545199
0.546014
0.547581
0.548195
0.549988
0.551573
0.554347
0.557128
0.560722
0.565035
0.570305
0.57643
0.58348
0.59129
0.598359
0.603703
0.606268
0.610708
0.613504
0.615852
0.618592
0.621088
0.624308
0.627775
0.632787
0.640025
0.649896
0.661493
0.67329
0.683428
0.689802
0.690501
0.687132
0.679531
0.668361
0.655389
0.643879
0.637988
0.63586
0.637848
0.645789
0.658258
0.664867
0.679641
0.691391
0.704949
0.716289
0.726313
0.733818
0.739986
0.618251
0.612421
0.607731
0.604179
0.601823
0.600792
0.600842
0.601837
0.604329
0.607647
0.612136
0.623398
0.634857
0.646331
0.655707
0.661884
0.666151
0.670699
0.675164
0.679517
0.683665
0.687454
0.690772
0.693564
0.695683
0.697036
0.697759
0.697731
0.696806
0.694343
0.691631
0.688477
0.684922
0.68205
0.676823
0.669843
0.662302
0.654405
0.644935
0.633868
0.621004
0.607495
0.592631
0.577052
0.56032
0.543076
0.526341
0.511278
0.498772
0.495737
0.49914
0.511156
0.53816
0.58713
0.620401
0.614765
0.599767
0.58045
0.563615
0.554161
0.549854
0.550346
0.550651
0.55096
0.551369
0.552429
0.552812
0.554062
0.55521
0.557317
0.5597
0.562816
0.566424
0.570749
0.575476
0.58126
0.587844
0.595264
0.600724
0.604421
0.608333
0.612631
0.615526
0.618446
0.621514
0.624729
0.62971
0.634023
0.641136
0.651443
0.664092
0.67846
0.692473
0.703907
0.709479
0.708789
0.702893
0.691902
0.678278
0.665342
0.655434
0.651047
0.650959
0.65612
0.667208
0.67415
0.687801
0.697769
0.71108
0.722594
0.730756
0.738252
0.743869
0.61602
0.610002
0.605098
0.601349
0.598906
0.59792
0.598207
0.599381
0.602318
0.605946
0.610315
0.62129
0.632153
0.644331
0.654127
0.660796
0.665521
0.669851
0.674117
0.678299
0.682268
0.685894
0.689078
0.691714
0.693744
0.695125
0.69584
0.695792
0.694933
0.693171
0.69085
0.687935
0.684109
0.678221
0.672431
0.666405
0.661478
0.655826
0.647767
0.638246
0.628434
0.616312
0.602122
0.58692
0.570669
0.554941
0.539877
0.526218
0.515335
0.51398
0.517795
0.530676
0.558851
0.606521
0.639532
0.6337
0.615004
0.592399
0.573185
0.560966
0.558694
0.558274
0.55774
0.557635
0.557507
0.557521
0.55805
0.558433
0.55934
0.560377
0.562387
0.564743
0.567678
0.571659
0.574935
0.579177
0.584818
0.590946
0.597801
0.603607
0.605624
0.610191
0.614371
0.617881
0.621436
0.624888
0.628345
0.635933
0.642605
0.65352
0.666913
0.683256
0.700358
0.715537
0.727261
0.729535
0.72496
0.714634
0.700404
0.686158
0.674171
0.66745
0.665388
0.667754
0.675614
0.684874
0.695516
0.703277
0.716505
0.727936
0.73471
0.741628
0.746729
0.614024
0.607825
0.602591
0.598691
0.596298
0.595428
0.595939
0.59733
0.600518
0.60473
0.609663
0.620418
0.630969
0.64284
0.652492
0.659322
0.664248
0.668514
0.672672
0.676734
0.680587
0.684104
0.687189
0.689759
0.691735
0.693076
0.693762
0.693726
0.692948
0.691418
0.689243
0.686406
0.682813
0.678346
0.673478
0.668166
0.661141
0.653509
0.646162
0.640343
0.633789
0.624356
0.613365
0.600975
0.587058
0.572197
0.558464
0.546124
0.537444
0.537926
0.542454
0.555884
0.58492
0.629143
0.656583
0.64964
0.629132
0.604012
0.583931
0.569857
0.568758
0.567293
0.565561
0.565018
0.564512
0.563155
0.563276
0.562797
0.56347
0.56368
0.564553
0.566099
0.568478
0.571942
0.574673
0.577261
0.582015
0.587475
0.593376
0.599268
0.604328
0.607749
0.610927
0.61626
0.620701
0.625025
0.628892
0.635417
0.642335
0.653629
0.670073
0.688198
0.707821
0.726067
0.73971
0.74577
0.743107
0.733839
0.719942
0.705216
0.692342
0.683974
0.679385
0.679583
0.68461
0.693934
0.701833
0.709782
0.721464
0.732277
0.738062
0.744244
0.748823
0.612345
0.60581
0.60068
0.596427
0.593916
0.593085
0.593983
0.595639
0.599185
0.603769
0.610492
0.620237
0.630371
0.6414
0.650875
0.657618
0.662461
0.666771
0.670911
0.674912
0.678699
0.682156
0.685187
0.68774
0.689722
0.691067
0.691763
0.691758
0.69104
0.689585
0.687435
0.684621
0.681175
0.677182
0.672806
0.667972
0.662492
0.656508
0.650402
0.642454
0.633998
0.626591
0.621798
0.613058
0.602043
0.589854
0.578091
0.568103
0.56198
0.563622
0.569512
0.583453
0.611732
0.648813
0.667748
0.659376
0.63966
0.614627
0.594468
0.579879
0.579676
0.577187
0.573838
0.572893
0.571682
0.569127
0.568679
0.567491
0.567512
0.567155
0.567173
0.568019
0.56938
0.571368
0.57515
0.577422
0.579857
0.584278
0.589485
0.594746
0.600922
0.606346
0.611179
0.612875
0.619179
0.624378
0.628869
0.635819
0.643937
0.655806
0.672648
0.693162
0.714463
0.734225
0.748891
0.757437
0.756043
0.748064
0.734911
0.720711
0.707857
0.698279
0.691988
0.690475
0.693908
0.702114
0.707864
0.715322
0.725807
0.735635
0.740667
0.74613
0.750086
0.610736
0.604255
0.598946
0.594404
0.592169
0.591447
0.592456
0.594514
0.598499
0.603579
0.611445
0.620429
0.630124
0.640424
0.64937
0.656096
0.660214
0.664731
0.66893
0.672915
0.676671
0.680112
0.683158
0.68574
0.687783
0.689196
0.68993
0.689972
0.689311
0.687912
0.685798
0.68303
0.679678
0.675832
0.671588
0.667017
0.662147
0.657094
0.65204
0.646611
0.640691
0.63456
0.625752
0.617919
0.612965
0.606203
0.597139
0.589773
0.586869
0.588596
0.594354
0.607592
0.633738
0.662787
0.672551
0.664767
0.646545
0.622144
0.604629
0.590007
0.590925
0.587338
0.582447
0.580807
0.578785
0.575242
0.57426
0.572622
0.571477
0.570651
0.57012
0.570206
0.570828
0.57203
0.574074
0.577276
0.57935
0.581975
0.586097
0.590955
0.595568
0.601899
0.609636
0.611782
0.616969
0.622791
0.62789
0.634345
0.646296
0.658893
0.67666
0.698097
0.720034
0.740124
0.755042
0.763062
0.763328
0.756909
0.74517
0.73183
0.719411
0.7094
0.702406
0.699773
0.701888
0.708614
0.712854
0.71983
0.729339
0.738119
0.742469
0.747207
0.750592
0.609661
0.60287
0.597422
0.592982
0.590668
0.590107
0.591168
0.593938
0.598283
0.604057
0.611939
0.620712
0.630103
0.639486
0.647551
0.653866
0.658197
0.662617
0.666773
0.670767
0.674533
0.678023
0.681148
0.683829
0.685987
0.687518
0.688339
0.688431
0.687825
0.686487
0.684412
0.68169
0.678393
0.674649
0.670555
0.666193
0.66164
0.656999
0.652385
0.647855
0.643416
0.63901
0.634167
0.628991
0.621064
0.613582
0.609755
0.607498
0.607305
0.608874
0.614907
0.627561
0.648338
0.667953
0.672077
0.664428
0.646744
0.625058
0.615231
0.602736
0.60194
0.596823
0.591623
0.588076
0.585268
0.581546
0.579853
0.577443
0.57559
0.574118
0.57315
0.572568
0.572486
0.572843
0.573864
0.575734
0.577999
0.581319
0.583453
0.587982
0.592316
0.597396
0.603964
0.608243
0.613935
0.619866
0.626103
0.634913
0.645453
0.660729
0.680363
0.702577
0.724484
0.743775
0.757764
0.764992
0.766427
0.761041
0.750832
0.738669
0.727002
0.717151
0.710246
0.706988
0.70834
0.713422
0.716956
0.723444
0.732072
0.739682
0.743471
0.747543
0.750544
0.609007
0.601625
0.596073
0.591832
0.589628
0.589356
0.590595
0.593713
0.598423
0.604863
0.612441
0.621035
0.629928
0.6384
0.645681
0.651569
0.656097
0.660429
0.664569
0.668518
0.672317
0.675884
0.679148
0.681989
0.6843
0.68597
0.686891
0.686996
0.686416
0.68507
0.682958
0.680334
0.677093
0.673506
0.669656
0.665511
0.661225
0.656918
0.65271
0.648674
0.64483
0.641229
0.637809
0.634522
0.630725
0.627017
0.622628
0.619611
0.620023
0.623635
0.630171
0.641923
0.656148
0.668183
0.666822
0.659151
0.64593
0.635255
0.624629
0.613906
0.611479
0.604416
0.600009
0.59572
0.590695
0.587893
0.585221
0.582268
0.579782
0.577748
0.576169
0.575046
0.574289
0.573994
0.574182
0.574927
0.576404
0.578452
0.58134
0.583936
0.589176
0.594349
0.599835
0.603373
0.609702
0.615789
0.62326
0.6339
0.647121
0.664431
0.684645
0.706251
0.72728
0.745094
0.757757
0.764194
0.765733
0.761331
0.752586
0.741665
0.730931
0.721477
0.714951
0.711971
0.712851
0.716529
0.719609
0.725976
0.73372
0.740281
0.743847
0.747505
0.749875
0.608332
0.600708
0.594814
0.591
0.58901
0.588987
0.590561
0.594033
0.599135
0.605698
0.613271
0.621399
0.629568
0.637192
0.643809
0.649358
0.653989
0.658227
0.662245
0.666217
0.670116
0.673825
0.677311
0.68042
0.682983
0.684899
0.686249
0.686429
0.685949
0.68441
0.681674
0.678701
0.67499
0.671538
0.668169
0.66444
0.660595
0.656682
0.652918
0.64939
0.646069
0.643053
0.640338
0.637994
0.635913
0.634313
0.633207
0.632967
0.633974
0.636295
0.641724
0.649635
0.658975
0.664494
0.662059
0.653144
0.649627
0.639565
0.623019
0.624684
0.618652
0.611876
0.606663
0.602223
0.596384
0.593382
0.590137
0.586866
0.583897
0.581316
0.579166
0.577455
0.576172
0.575345
0.574977
0.574975
0.575694
0.576634
0.57903
0.5813
0.585277
0.59078
0.596411
0.60001
0.605371
0.611696
0.62094
0.632374
0.647217
0.665546
0.686345
0.707541
0.727737
0.744075
0.755392
0.760968
0.762338
0.758855
0.751405
0.741352
0.731426
0.722656
0.716774
0.714021
0.71488
0.718103
0.72069
0.727611
0.734448
0.740175
0.7436
0.746924
0.748871
0.607293
0.600327
0.593822
0.589998
0.588651
0.588546
0.590747
0.594759
0.600031
0.606625
0.614022
0.621693
0.629139
0.636027
0.642099
0.647331
0.651847
0.655829
0.659959
0.664102
0.668027
0.671649
0.674967
0.679141
0.682049
0.684625
0.685653
0.686156
0.685858
0.68471
0.683388
0.680967
0.675922
0.671922
0.667053
0.662548
0.659203
0.655826
0.652685
0.649743
0.646986
0.644579
0.642501
0.640888
0.639699
0.639079
0.639175
0.639958
0.641664
0.644734
0.648956
0.654421
0.658614
0.660877
0.654443
0.653365
0.648311
0.633627
0.635394
0.630462
0.622399
0.61909
0.6125
0.607446
0.602009
0.598383
0.594595
0.591111
0.587708
0.584655
0.581991
0.579752
0.577973
0.576713
0.575962
0.575788
0.576127
0.576711
0.578467
0.580339
0.583227
0.587404
0.592184
0.596391
0.601516
0.608011
0.618191
0.631139
0.647155
0.666265
0.687178
0.707901
0.726357
0.740929
0.750833
0.755891
0.757368
0.754599
0.747847
0.738743
0.729578
0.721857
0.716741
0.714265
0.715318
0.71839
0.720656
0.728219
0.734453
0.73932
0.742827
0.745691
0.747454
0.606671
0.599284
0.59351
0.589588
0.588352
0.588716
0.591284
0.595885
0.601152
0.607612
0.614762
0.621967
0.628817
0.635047
0.640611
0.64553
0.649448
0.653568
0.657588
0.661466
0.664564
0.669869
0.674979
0.679144
0.682601
0.685223
0.686696
0.687147
0.686706
0.685069
0.682407
0.67882
0.674425
0.670584
0.667229
0.66351
0.659005
0.654481
0.651725
0.649501
0.64733
0.645628
0.644151
0.643185
0.642665
0.642647
0.643115
0.644204
0.645914
0.648557
0.652295
0.655159
0.657332
0.655309
0.651625
0.652343
0.641389
0.643468
0.639421
0.632906
0.628942
0.622719
0.617344
0.611205
0.607027
0.602882
0.598669
0.594919
0.59114
0.587711
0.584554
0.58184
0.579653
0.578072
0.576924
0.576488
0.576478
0.576777
0.578226
0.57958
0.58229
0.585915
0.589273
0.593222
0.5977
0.605333
0.616147
0.63007
0.646964
0.666283
0.686675
0.706344
0.723609
0.736476
0.745438
0.749905
0.751873
0.749414
0.742698
0.734302
0.726065
0.719523
0.715039
0.713263
0.715025
0.717917
0.719245
0.728089
0.733956
0.737614
0.741376
0.744111
0.745743
0.60651
0.598685
0.592569
0.589292
0.588381
0.589374
0.591908
0.596368
0.602387
0.609085
0.615796
0.622411
0.62869
0.634361
0.639556
0.64338
0.647563
0.651161
0.654392
0.660102
0.665418
0.670626
0.675398
0.679776
0.683024
0.684944
0.68593
0.685862
0.684899
0.683106
0.680503
0.677398
0.673966
0.670395
0.665965
0.661983
0.658207
0.654901
0.650554
0.648912
0.647263
0.646049
0.645252
0.644886
0.644832
0.645183
0.645972
0.647219
0.648758
0.650469
0.65178
0.651914
0.652697
0.65104
0.650748
0.648481
0.648511
0.645241
0.640314
0.636098
0.631091
0.625478
0.620818
0.614872
0.61089
0.606644
0.602302
0.598218
0.594213
0.590373
0.586716
0.583616
0.581214
0.579261
0.577863
0.577231
0.576798
0.576992
0.578284
0.579321
0.581584
0.584349
0.587164
0.589828
0.595728
0.603497
0.614475
0.629107
0.645996
0.665289
0.685214
0.703564
0.719595
0.731326
0.739599
0.744235
0.746039
0.742991
0.736548
0.728773
0.721589
0.715897
0.712212
0.711064
0.712618
0.715859
0.717471
0.726807
0.73251
0.735894
0.739636
0.742297
0.743786
0.607025
0.598807
0.592319
0.588864
0.587898
0.589288
0.592542
0.59765
0.603621
0.610037
0.617035
0.62371
0.629317
0.634234
0.638662
0.64227
0.645783
0.648166
0.653669
0.659783
0.665396
0.670815
0.6759
0.679829
0.683021
0.684908
0.685301
0.684895
0.683718
0.68151
0.678657
0.675527
0.672267
0.668541
0.665185
0.661375
0.657801
0.654264
0.651956
0.649033
0.647133
0.64618
0.645825
0.645906
0.646264
0.646868
0.647861
0.649208
0.650718
0.652238
0.653444
0.654283
0.654861
0.654117
0.653272
0.651513
0.648702
0.644395
0.641104
0.637322
0.632162
0.627603
0.62248
0.618148
0.614035
0.609731
0.605362
0.601125
0.596805
0.592332
0.588316
0.585021
0.582416
0.580232
0.578862
0.577959
0.577357
0.577657
0.578062
0.579292
0.581208
0.583512
0.585438
0.589644
0.594462
0.602801
0.6144
0.628677
0.644625
0.663774
0.683432
0.701297
0.715717
0.726563
0.734394
0.738473
0.739536
0.736091
0.729906
0.722862
0.716656
0.711499
0.709005
0.708457
0.710041
0.712875
0.715887
0.724087
0.730193
0.734157
0.737913
0.740456
0.742001
0.608954
0.600201
0.592939
0.588896
0.587955
0.589313
0.593375
0.599068
0.605444
0.61175
0.618401
0.624234
0.629389
0.633977
0.638169
0.641602
0.644371
0.646119
0.654195
0.660221
0.666122
0.671955
0.676745
0.680217
0.682431
0.683816
0.68431
0.683753
0.682914
0.679958
0.676854
0.673395
0.669828
0.666774
0.663998
0.660547
0.657714
0.654126
0.651017
0.64822
0.646951
0.646139
0.64603
0.646459
0.647021
0.647847
0.648855
0.650058
0.651289
0.652475
0.653478
0.654038
0.654082
0.653178
0.651775
0.649486
0.646881
0.644101
0.641495
0.636949
0.632613
0.628577
0.623816
0.620153
0.616286
0.61205
0.607822
0.603388
0.598335
0.59351
0.589291
0.585807
0.582961
0.580963
0.579706
0.578612
0.5779
0.577885
0.578749
0.579726
0.580939
0.583253
0.585582
0.588865
0.594508
0.603473
0.614982
0.628974
0.647881
0.665764
0.682921
0.698809
0.712181
0.722479
0.729574
0.733166
0.732809
0.728963
0.722925
0.716576
0.711292
0.70704
0.706015
0.705051
0.707002
0.709407
0.713608
0.721026
0.727574
0.732186
0.736149
0.738688
0.740464
0.61209
0.603657
0.595627
0.590574
0.588709
0.59018
0.594683
0.600836
0.608056
0.614938
0.621086
0.626893
0.6313
0.635353
0.638889
0.641558
0.643043
0.649456
0.655639
0.66096
0.667527
0.673392
0.677973
0.679922
0.682041
0.6836
0.683777
0.684308
0.682147
0.67915
0.675493
0.671871
0.668749
0.665904
0.662478
0.659277
0.656764
0.654152
0.651165
0.648238
0.646437
0.646287
0.64599
0.64646
0.64716
0.648308
0.649426
0.650421
0.651241
0.651893
0.652238
0.652239
0.651828
0.650916
0.649193
0.646578
0.645843
0.643406
0.639775
0.63604
0.632363
0.628619
0.624347
0.621207
0.6176
0.613607
0.609365
0.604206
0.598929
0.593966
0.589652
0.586044
0.583152
0.581515
0.580311
0.579296
0.5786
0.579079
0.579608
0.580103
0.580629
0.581252
0.585128
0.589471
0.596343
0.605087
0.618022
0.633931
0.65021
0.667168
0.684168
0.697737
0.71001
0.718942
0.724683
0.727372
0.726026
0.721835
0.716168
0.710511
0.705784
0.70328
0.700392
0.701174
0.702776
0.705
0.711098
0.71773
0.724593
0.729891
0.734406
0.736846
0.738975
0.61778
0.60809
0.600287
0.594387
0.592072
0.592811
0.597561
0.604276
0.611727
0.618813
0.624829
0.630624
0.634158
0.637618
0.640572
0.64271
0.643859
0.651512
0.657282
0.662478
0.668868
0.673928
0.677182
0.679541
0.681452
0.682344
0.682745
0.682916
0.681077
0.678014
0.674465
0.670724
0.667162
0.664099
0.661676
0.65973
0.656774
0.653793
0.650821
0.648348
0.646079
0.645732
0.646381
0.646049
0.647027
0.648208
0.649335
0.650099
0.650445
0.65057
0.65041
0.649653
0.648711
0.647793
0.647516
0.646683
0.643844
0.640872
0.637669
0.634389
0.631137
0.627873
0.624098
0.621307
0.617973
0.614279
0.609368
0.604055
0.598729
0.593676
0.58933
0.585727
0.583128
0.581637
0.580671
0.580199
0.580217
0.580642
0.581153
0.581208
0.580451
0.583619
0.587611
0.592813
0.599628
0.611631
0.624855
0.639737
0.656014
0.671108
0.684989
0.697831
0.708326
0.715553
0.720401
0.721344
0.719177
0.714824
0.709479
0.704468
0.701015
0.69655
0.69629
0.696592
0.698189
0.700597
0.707648
0.714294
0.721521
0.727373
0.732415
0.735121
0.737706
0.625803
0.616134
0.607115
0.600732
0.597929
0.598367
0.60264
0.610165
0.617273
0.624285
0.629946
0.634756
0.638928
0.640301
0.642976
0.644152
0.64825
0.654135
0.658957
0.663934
0.670044
0.674457
0.674648
0.677988
0.679551
0.679167
0.68205
0.6823
0.680596
0.676789
0.67278
0.668501
0.664537
0.661746
0.659349
0.657153
0.654388
0.651898
0.64919
0.647033
0.645626
0.645054
0.645633
0.647152
0.648219
0.648898
0.649521
0.649801
0.649836
0.65018
0.650485
0.65037
0.649526
0.648074
0.645844
0.64371
0.640845
0.638003
0.635015
0.631996
0.629049
0.625657
0.623304
0.620303
0.617439
0.613078
0.608045
0.60264
0.597231
0.592254
0.588069
0.584786
0.582645
0.581402
0.580708
0.580446
0.58116
0.58202
0.582807
0.583141
0.585122
0.588005
0.591494
0.597086
0.606279
0.618944
0.633195
0.649022
0.662812
0.676891
0.688289
0.698586
0.70667
0.712988
0.715248
0.715005
0.71212
0.707734
0.703046
0.699189
0.694091
0.692901
0.692093
0.692192
0.693554
0.69634
0.703554
0.710626
0.718162
0.724569
0.730141
0.733395
0.736332
0.638331
0.627272
0.618567
0.611206
0.60698
0.606932
0.610581
0.617541
0.625807
0.631322
0.636505
0.640687
0.644102
0.643956
0.646626
0.647153
0.652623
0.65697
0.659945
0.664615
0.669209
0.671928
0.67207
0.674352
0.673274
0.674793
0.674641
0.674011
0.672478
0.669216
0.666951
0.665089
0.663899
0.660565
0.657025
0.65106
0.649762
0.648429
0.646249
0.645021
0.643731
0.643394
0.644425
0.645568
0.646773
0.647626
0.648416
0.64953
0.650186
0.650134
0.649328
0.648319
0.646996
0.645081
0.642645
0.640159
0.637497
0.634647
0.631724
0.628833
0.625782
0.623906
0.621399
0.619048
0.615062
0.61044
0.605238
0.599824
0.59452
0.589742
0.585975
0.583316
0.5817
0.580936
0.58076
0.581218
0.582318
0.583596
0.584373
0.584717
0.587966
0.592141
0.596384
0.601374
0.614072
0.628481
0.643727
0.657293
0.670673
0.681934
0.691396
0.69974
0.706022
0.709098
0.709974
0.708408
0.705093
0.701171
0.697512
0.692223
0.690599
0.688918
0.68784
0.687868
0.689108
0.692312
0.699353
0.706806
0.714646
0.721523
0.727418
0.731817
0.734964
0.653914
0.642536
0.63305
0.625842
0.621019
0.619078
0.621749
0.627857
0.636166
0.639964
0.644095
0.647353
0.649257
0.650975
0.651434
0.651046
0.656302
0.658978
0.66054
0.664275
0.667313
0.666899
0.66765
0.667354
0.663108
0.663428
0.659731
0.656811
0.654337
0.650727
0.647419
0.645301
0.645331
0.647033
0.649934
0.65172
0.650091
0.646436
0.640203
0.639578
0.639791
0.640088
0.641132
0.642779
0.644344
0.645517
0.646464
0.647247
0.647573
0.647373
0.646619
0.645312
0.643674
0.64159
0.639167
0.63653
0.63371
0.630755
0.627849
0.624853
0.623157
0.621042
0.618914
0.615515
0.611231
0.606278
0.600836
0.59546
0.590475
0.586272
0.583173
0.581252
0.580363
0.580316
0.581026
0.582303
0.583956
0.585342
0.585397
0.588119
0.591872
0.596028
0.599914
0.611286
0.624045
0.638775
0.652736
0.665559
0.67731
0.686889
0.694839
0.700819
0.704125
0.705277
0.704459
0.701925
0.698721
0.695573
0.690516
0.6885
0.686534
0.684686
0.683508
0.683575
0.684992
0.688236
0.695194
0.702887
0.711019
0.71834
0.724763
0.729927
0.733531
0.671285
0.660234
0.650808
0.643293
0.638184
0.635497
0.636306
0.641241
0.648154
0.649972
0.652533
0.654221
0.655445
0.656293
0.655816
0.654734
0.65869
0.659516
0.659924
0.661943
0.663469
0.661448
0.660802
0.657731
0.650341
0.646107
0.638478
0.631901
0.624972
0.617153
0.610851
0.608368
0.608706
0.611861
0.617841
0.624614
0.630653
0.634455
0.637455
0.636829
0.633988
0.633204
0.636113
0.637861
0.639249
0.640964
0.642609
0.643658
0.644129
0.64406
0.643371
0.642027
0.64027
0.637962
0.635354
0.632446
0.629569
0.626596
0.623377
0.621497
0.61939
0.617548
0.614421
0.610412
0.605564
0.600328
0.594934
0.589857
0.585456
0.582046
0.579942
0.579089
0.579338
0.580094
0.581667
0.583901
0.586003
0.588144
0.589607
0.593141
0.597587
0.602349
0.607695
0.619703
0.632921
0.647323
0.660736
0.673019
0.683271
0.691327
0.697329
0.700668
0.701798
0.701178
0.699008
0.696199
0.693459
0.689025
0.686568
0.684268
0.682103
0.680354
0.679401
0.679442
0.680984
0.684184
0.691068
0.69883
0.70725
0.714987
0.721882
0.727685
0.73214
0.688531
0.679287
0.670724
0.663285
0.657507
0.654061
0.653172
0.65617
0.660531
0.660243
0.660889
0.66139
0.661537
0.661168
0.659581
0.657704
0.659705
0.658578
0.65761
0.657537
0.656792
0.654455
0.650728
0.643761
0.633809
0.623192
0.611241
0.599212
0.588774
0.578809
0.570263
0.564526
0.562906
0.567093
0.575354
0.584638
0.595466
0.604634
0.61209
0.616936
0.623017
0.627013
0.629169
0.627817
0.6332
0.635523
0.637011
0.638221
0.639093
0.639479
0.639079
0.637808
0.635954
0.633639
0.631038
0.628319
0.625422
0.621755
0.619666
0.617526
0.615353
0.612791
0.609305
0.603844
0.598684
0.593052
0.587882
0.583317
0.579728
0.577418
0.576438
0.576702
0.577968
0.580047
0.582679
0.585741
0.588589
0.591255
0.593773
0.598142
0.603056
0.608336
0.614397
0.627334
0.640739
0.65485
0.667737
0.679024
0.688014
0.694443
0.698116
0.69942
0.698945
0.696924
0.694215
0.691614
0.687789
0.684989
0.682288
0.679917
0.677974
0.676137
0.675449
0.67564
0.677233
0.680261
0.686956
0.694667
0.703265
0.711441
0.718787
0.725281
0.730551
0.703327
0.698034
0.69168
0.684778
0.678623
0.674171
0.672711
0.673236
0.672126
0.669853
0.669134
0.668031
0.666766
0.664822
0.662163
0.659214
0.659152
0.656298
0.653359
0.651605
0.649019
0.644325
0.636829
0.626886
0.613609
0.599145
0.584945
0.574009
0.566255
0.558007
0.550121
0.543059
0.537097
0.534094
0.537297
0.545846
0.556649
0.569217
0.581165
0.589953
0.597857
0.604633
0.613314
0.622203
0.625771
0.626983
0.62973
0.632054
0.633953
0.634668
0.63396
0.632697
0.6311
0.629152
0.626819
0.623936
0.619966
0.617852
0.615589
0.61281
0.610595
0.607042
0.601986
0.59635
0.5906
0.585001
0.5801
0.576218
0.573716
0.572682
0.572989
0.574546
0.577061
0.580339
0.584083
0.588118
0.591621
0.595205
0.598328
0.603746
0.609047
0.614911
0.621535
0.634808
0.648042
0.66151
0.673541
0.683623
0.69112
0.695573
0.697362
0.697319
0.695577
0.692963
0.690254
0.686683
0.683842
0.680936
0.678218
0.676053
0.673926
0.672515
0.671904
0.672212
0.673824
0.676658
0.682744
0.690329
0.699016
0.707613
0.715468
0.722589
0.728739
0.717386
0.715786
0.712014
0.706629
0.700724
0.695049
0.691476
0.687408
0.682137
0.678228
0.675521
0.672956
0.670062
0.666785
0.663034
0.659241
0.655102
0.651644
0.647701
0.644183
0.639336
0.631596
0.621143
0.607761
0.591913
0.576121
0.566047
0.558089
0.55047
0.542697
0.535079
0.528664
0.523657
0.520294
0.518154
0.519461
0.527218
0.53893
0.55128
0.56439
0.571206
0.579059
0.591052
0.600138
0.610414
0.620528
0.619536
0.623782
0.625512
0.626424
0.626755
0.626202
0.624793
0.622811
0.620481
0.61805
0.616173
0.613694
0.610654
0.608538
0.605099
0.599713
0.594096
0.588012
0.582014
0.576481
0.571979
0.569067
0.567858
0.568155
0.569851
0.572779
0.576653
0.58108
0.585891
0.590963
0.595284
0.599663
0.604279
0.609903
0.615313
0.621591
0.628601
0.641698
0.654345
0.666916
0.677832
0.686593
0.692296
0.695005
0.695541
0.694336
0.692105
0.689525
0.685723
0.683109
0.680095
0.677281
0.674666
0.672319
0.670497
0.669278
0.668817
0.669185
0.670796
0.673718
0.67826
0.685891
0.694382
0.70348
0.711929
0.719591
0.726535
0.732196
0.733043
0.731898
0.728507
0.723302
0.713918
0.706859
0.69817
0.690811
0.684732
0.679822
0.675585
0.671369
0.666837
0.661626
0.657019
0.649636
0.646822
0.640594
0.634899
0.627615
0.617319
0.603942
0.587522
0.571689
0.559812
0.550529
0.542941
0.535275
0.52765
0.520547
0.51461
0.509991
0.506645
0.504168
0.503163
0.503958
0.512324
0.526404
0.540483
0.553362
0.559691
0.565248
0.577079
0.588688
0.601594
0.613569
0.616153
0.616855
0.619109
0.620006
0.619771
0.618972
0.617698
0.616046
0.614094
0.611447
0.608819
0.606456
0.602944
0.598326
0.592363
0.58594
0.57946
0.573339
0.567993
0.564159
0.562411
0.562472
0.564138
0.567316
0.57163
0.576729
0.582346
0.588206
0.594083
0.599614
0.604454
0.609683
0.615766
0.621677
0.628158
0.635172
0.647603
0.659424
0.670907
0.680571
0.687945
0.691919
0.693171
0.69271
0.691075
0.688805
0.685137
0.682799
0.679966
0.676794
0.674209
0.671195
0.669134
0.667508
0.66648
0.666104
0.666458
0.667958
0.670647
0.674563
0.681276
0.689609
0.698568
0.70791
0.716285
0.723768
0.748247
0.750087
0.749814
0.745726
0.738991
0.728308
0.717924
0.707815
0.697884
0.689244
0.682049
0.676135
0.670884
0.664975
0.658661
0.652245
0.64441
0.639418
0.632014
0.624097
0.614329
0.601935
0.586735
0.570397
0.555586
0.543643
0.535009
0.52737
0.519939
0.512686
0.505797
0.499854
0.495366
0.492117
0.490227
0.48956
0.490191
0.492669
0.501228
0.51564
0.531538
0.543903
0.550576
0.557035
0.567352
0.581323
0.59393
0.603269
0.610092
0.611456
0.610508
0.611284
0.61153
0.611009
0.609819
0.60832
0.607085
0.604532
0.601105
0.597081
0.591336
0.584846
0.578009
0.571326
0.565275
0.56038
0.557457
0.556676
0.557937
0.56091
0.565415
0.571135
0.57742
0.584148
0.590936
0.597598
0.603978
0.609536
0.61504
0.620977
0.627844
0.634476
0.641501
0.652063
0.663171
0.673552
0.682167
0.687995
0.690367
0.690632
0.689469
0.688244
0.684298
0.682646
0.680118
0.676883
0.673824
0.671115
0.668549
0.666643
0.665189
0.664221
0.663805
0.663944
0.665294
0.667721
0.671616
0.676812
0.684464
0.693434
0.702739
0.71232
0.720889
0.75871
0.759414
0.75842
0.754731
0.748071
0.73803
0.727308
0.71588
0.704056
0.69299
0.683502
0.676249
0.669617
0.661958
0.6542
0.646766
0.637801
0.629971
0.621032
0.611587
0.60022
0.586258
0.569797
0.553017
0.538749
0.527632
0.519609
0.511794
0.50405
0.496691
0.490246
0.485052
0.481155
0.47869
0.477576
0.477573
0.478683
0.480941
0.484682
0.493177
0.508678
0.527988
0.53732
0.544794
0.552381
0.560597
0.57464
0.584782
0.594175
0.600264
0.605425
0.607095
0.607635
0.607341
0.606346
0.604554
0.601872
0.599102
0.59563
0.590917
0.584772
0.577878
0.570919
0.564282
0.558657
0.554717
0.553143
0.553799
0.556146
0.560075
0.564943
0.570857
0.578137
0.58607
0.59376
0.601208
0.608142
0.614558
0.620486
0.626255
0.632571
0.640222
0.64736
0.655318
0.665813
0.675234
0.682859
0.687217
0.688431
0.687796
0.685973
0.684539
0.682274
0.680047
0.677876
0.674369
0.671358
0.66837
0.666074
0.66434
0.662927
0.661895
0.661449
0.661823
0.663021
0.665056
0.668656
0.673487
0.679729
0.687886
0.697202
0.706744
0.716655
0.763915
0.764475
0.763702
0.760604
0.754367
0.745899
0.735361
0.723102
0.709689
0.696688
0.685215
0.675863
0.667378
0.658293
0.648889
0.640373
0.630379
0.618773
0.609804
0.59859
0.585988
0.571071
0.554651
0.53727
0.523243
0.512549
0.504248
0.495446
0.487575
0.480575
0.474924
0.470684
0.467963
0.466563
0.466245
0.466939
0.468592
0.471173
0.474588
0.479269
0.487949
0.505967
0.526924
0.534155
0.541542
0.549949
0.557706
0.568611
0.579277
0.585719
0.592172
0.596348
0.598638
0.599529
0.599378
0.598362
0.596431
0.593926
0.59006
0.585024
0.578949
0.571797
0.565158
0.558943
0.554236
0.551711
0.551526
0.553248
0.556296
0.560544
0.566193
0.572748
0.57972
0.58733
0.595582
0.604005
0.611431
0.618242
0.624786
0.630914
0.63705
0.643189
0.651188
0.658585
0.667337
0.676058
0.682847
0.68609
0.686575
0.685582
0.683818
0.681718
0.680289
0.678078
0.675336
0.672283
0.669518
0.665655
0.66386
0.662247
0.660823
0.65978
0.659332
0.65951
0.66054
0.662804
0.666092
0.670349
0.676052
0.682941
0.691244
0.700641
0.710445
0.765741
0.766871
0.76672
0.764548
0.759215
0.751278
0.741008
0.728477
0.714094
0.699502
0.686162
0.674966
0.66472
0.654232
0.643337
0.633115
0.622327
0.611904
0.598629
0.586266
0.572517
0.556727
0.539893
0.524238
0.510718
0.499254
0.488796
0.47964
0.471714
0.46524
0.460639
0.457727
0.456174
0.455798
0.456341
0.457685
0.459787
0.462613
0.466123
0.470323
0.47526
0.485192
0.503923
0.521199
0.532401
0.539908
0.548517
0.55634
0.564094
0.573696
0.581323
0.586655
0.589592
0.591614
0.592704
0.592588
0.591311
0.588943
0.584949
0.579812
0.573598
0.566971
0.560735
0.555276
0.551689
0.55107
0.552673
0.55569
0.559495
0.563818
0.568831
0.574886
0.582199
0.590155
0.597831
0.604927
0.612285
0.619753
0.626401
0.632962
0.639482
0.645863
0.652696
0.660572
0.668266
0.676079
0.68235
0.685216
0.685365
0.683778
0.681582
0.680039
0.678582
0.676452
0.67357
0.670412
0.667494
0.663875
0.661873
0.660158
0.658619
0.657489
0.657072
0.657273
0.658359
0.66042
0.663449
0.667737
0.672899
0.678953
0.686202
0.694181
0.703429
0.764827
0.766256
0.766709
0.764489
0.759954
0.752604
0.742705
0.730358
0.71597
0.70057
0.68592
0.673079
0.66134
0.649599
0.637502
0.625202
0.612789
0.601229
0.587166
0.574334
0.56001
0.543833