/*--------------------------------*- C++ -*----------------------------------*\
  =========                 |
  \\      /  F ield         | OpenFOAM: The Open Source CFD Toolbox
   \\    /   O peration     | Website:  https://openfoam.org
    \\  /    A nd           | Version:  10
     \\/     M anipulation  |
\*---------------------------------------------------------------------------*/
FoamFile
{
    format      ascii;
    class       surfaceScalarField;
    location    "0.849234";
    object      phi;
}
// * * * * * * * * * * * * * * * * * * * * * * * * * * * * * * * * * * * * * //

dimensions      [1 0 -1 0 0 0 0];

internalField   nonuniform List<scalar> 
32368
(
-6.26268e-05
-6.38058e-05
-5.27183e-05
-5.58418e-05
-4.29916e-05
-4.60637e-05
-3.41125e-05
-3.52076e-05
-2.7873e-05
-2.43943e-05
-2.39753e-05
-1.49972e-05
-2.10758e-05
-6.30196e-06
-1.98227e-05
2.38057e-06
-2.24705e-05
1.13971e-05
-3.50371e-05
2.54405e-05
-4.25527e-05
5.36625e-05
-4.45324e-05
7.0667e-05
-4.37306e-05
7.13892e-05
-3.74949e-05
5.78527e-05
-2.92875e-05
3.61922e-05
-2.50415e-05
2.05915e-05
-2.28397e-05
1.72057e-05
-1.99341e-05
1.76187e-05
-1.63233e-05
1.94862e-05
-1.20064e-05
2.19939e-05
-6.92965e-06
2.52288e-05
-8.12766e-07
2.91323e-05
5.27823e-06
3.35485e-05
1.19111e-05
3.83254e-05
1.87775e-05
4.36082e-05
2.63762e-05
5.02655e-05
3.4149e-05
5.7135e-05
4.22652e-05
6.44741e-05
5.06461e-05
7.27499e-05
5.94315e-05
8.11864e-05
6.94187e-05
9.0248e-05
8.07334e-05
0.000100636
9.33225e-05
0.000112196
0.000107356
0.000124647
0.000122883
0.000138389
0.000139836
0.00015263
0.000157824
0.000168661
0.000177764
0.00018456
0.000199787
0.000204146
0.000222126
0.000223048
0.000245935
0.000242105
0.000269531
0.000262956
0.000287563
0.00028025
0.000302233
0.000292354
0.000321574
0.00030103
0.000353144
0.000313857
0.000396623
0.000335562
0.000442666
0.000367152
0.000477832
0.000404495
0.000487868
0.000438919
0.000476008
0.000458037
0.000455413
0.000468831
0.000418542
0.000484212
0.000355745
0.00049673
0.000265743
0.000428733
0.000179131
0.00029324
0.000137318
0.000173374
0.000118203
0.000108943
0.000102406
6.26597e-05
8.13618e-05
1.96172e-05
6.36093e-05
-1.55596e-05
5.5847e-05
-3.67204e-05
5.30443e-05
-4.9853e-05
5.47282e-05
-5.74606e-05
5.45015e-05
-6.25676e-05
5.20144e-05
-6.53001e-05
4.78329e-05
-6.73772e-05
4.6164e-05
-7.21436e-05
4.67807e-05
-7.78186e-05
5.13749e-05
-8.5456e-05
5.88531e-05
-9.58771e-05
6.97114e-05
-0.000108285
8.24352e-05
-0.000121189
9.43437e-05
-0.00013274
0.000102239
-0.000138756
0.000105965
-0.000137526
0.000106903
-0.000132085
9.94953e-05
-0.000123849
7.79791e-05
-0.000107978
5.16234e-05
-8.13442e-05
3.84399e-05
-6.05383e-05
3.27606e-05
-5.26326e-05
3.03018e-05
-5.11083e-05
2.99577e-05
-5.18867e-05
3.94343e-05
-5.51153e-05
5.95575e-05
-7.25253e-05
8.45718e-05
-0.000101714
0.000107792
-0.000129975
0.000123227
-0.000146295
0.000129141
-0.000141775
0.000130312
-0.000117104
0.000131493
-7.98178e-05
0.000129887
-3.59129e-05
0.000118727
7.73379e-06
9.86487e-05
4.07102e-05
7.63029e-05
5.90731e-05
5.33541e-05
6.35763e-05
2.70051e-05
5.38294e-05
-3.89571e-06
2.49599e-05
-3.46282e-05
-1.69676e-05
-6.70424e-05
-6.65413e-05
-9.34729e-05
-0.000123262
-0.00010742
-0.000181306
-9.19276e-05
-0.000215653
-7.45552e-05
-0.000195798
-7.55352e-05
-0.000182739
-9.32839e-05
-0.000189728
-0.000101179
-0.000233998
-9.30351e-05
-0.000219012
-8.26163e-05
-0.000189098
-6.91957e-05
-0.000149203
-6.54892e-05
-0.000110256
-7.70039e-05
-6.80314e-05
-6.55371e-05
-6.88517e-05
-5.69066e-05
-6.1199e-05
-4.86252e-05
-5.16873e-05
-4.11713e-05
-4.10598e-05
-3.43258e-05
-3.04067e-05
-2.92202e-05
-1.98454e-05
-2.59188e-05
-1.02462e-05
-2.4e-05
-8.46984e-07
-2.43215e-05
8.22868e-06
-3.17252e-05
1.927e-05
-4.98919e-05
4.05097e-05
-5.31757e-05
6.59296e-05
-5.30315e-05
7.27072e-05
-4.64987e-05
6.46242e-05
-3.65285e-05
4.45233e-05
-2.88945e-05
2.45056e-05
-2.60311e-05
1.63439e-05
-2.33812e-05
1.46338e-05
-2.00967e-05
1.5212e-05
-1.61034e-05
1.66833e-05
-1.1447e-05
1.8788e-05
-6.16154e-06
2.14899e-05
-3.83552e-07
2.47017e-05
5.46911e-06
2.84903e-05
1.18973e-05
3.24725e-05
1.85314e-05
3.6874e-05
2.57022e-05
4.19384e-05
3.36885e-05
4.78721e-05
4.21898e-05
5.52647e-05
5.18319e-05
6.47052e-05
6.25981e-05
7.56004e-05
7.47914e-05
8.85612e-05
8.79736e-05
0.000102944
0.000102485
0.000117672
0.000118573
0.000134009
0.000136352
0.000150995
0.000155581
0.000169426
0.000177119
0.000186586
0.000202123
0.000207465
0.000228482
0.000228811
0.000256855
0.000250781
0.000286828
0.000275966
0.000313283
0.000300011
0.000335091
0.000319829
0.000355453
0.000334292
0.000377844
0.000347537
0.000407662
0.000364171
0.000444463
0.000387947
0.000479186
0.000417485
0.000495052
0.000451709
0.000487649
0.000474179
0.000470267
0.000484753
0.000438974
0.000499898
0.000391286
0.000522492
0.000323
0.000481081
0.0002277
0.000358254
0.000174272
0.000218697
0.00014907
0.000139735
0.000126479
8.21742e-05
9.58348e-05
2.9797e-05
7.21184e-05
-1.12404e-05
6.21175e-05
-3.35481e-05
5.84951e-05
-4.6666e-05
5.93523e-05
-5.40943e-05
5.83183e-05
-5.86187e-05
5.44663e-05
-6.14786e-05
5.01631e-05
-6.40077e-05
4.83373e-05
-6.92634e-05
4.91928e-05
-7.55061e-05
5.26978e-05
-8.36801e-05
5.80577e-05
-9.18111e-05
6.62904e-05
-9.97577e-05
7.76443e-05
-0.000108753
9.05818e-05
-0.000119373
0.000101222
-0.000128337
0.000107411
-0.000131777
0.000110709
-0.000129103
0.000107188
-0.00012404
9.09261e-05
-0.000113441
6.47395e-05
-9.28122e-05
4.85191e-05
-7.07404e-05
3.99602e-05
-5.9582e-05
3.62117e-05
-5.50332e-05
3.47246e-05
-5.44336e-05
3.56753e-05
-5.52346e-05
4.9828e-05
-5.91223e-05
7.44225e-05
-8.03347e-05
0.000102322
-0.000109754
0.000124752
-0.000134469
0.000136544
-0.000144145
0.000139011
-0.000132413
0.000138497
-0.000103834
0.0001391
-6.56135e-05
0.000132909
-2.23981e-05
0.000117408
1.74561e-05
9.55411e-05
4.39443e-05
7.29409e-05
5.51197e-05
5.07796e-05
5.20627e-05
2.41858e-05
3.29773e-05
-4.63804e-06
-1.55867e-06
-3.40509e-05
-4.87069e-05
-6.41721e-05
-0.000105694
-8.66924e-05
-0.000167415
-8.74827e-05
-0.000216537
-6.73539e-05
-0.000213619
-6.63651e-05
-0.000188648
-7.85322e-05
-0.000185631
-9.38159e-05
-0.000227666
-8.71607e-05
-0.000219407
-7.68923e-05
-0.000187902
-6.47973e-05
-0.000141536
-6.24709e-05
-0.00010453
-7.1424e-05
-6.44037e-05
-6.90992e-05
-7.23652e-05
-6.18093e-05
-6.53374e-05
-5.47834e-05
-5.63074e-05
-4.86165e-05
-4.61327e-05
-4.32901e-05
-3.56824e-05
-3.80553e-05
-2.49834e-05
-3.33924e-05
-1.41904e-05
-3.12841e-05
-3.96959e-06
-3.08701e-05
5.62382e-06
-3.57869e-05
1.64053e-05
-5.4093e-05
3.41635e-05
-6.42981e-05
5.81254e-05
-6.31339e-05
6.94489e-05
-5.59691e-05
6.59663e-05
-4.3632e-05
4.83478e-05
-3.32115e-05
2.83352e-05
-2.87191e-05
1.59511e-05
-2.58782e-05
1.23441e-05
-2.27696e-05
1.16947e-05
-1.90793e-05
1.22456e-05
-1.4779e-05
1.35578e-05
-9.97624e-06
1.5657e-05
-4.83014e-06
1.83629e-05
6.50956e-07
2.15758e-05
6.27394e-06
2.51505e-05
1.1991e-05
2.89214e-05
1.7999e-05
3.30674e-05
2.45269e-05
3.7735e-05
3.21052e-05
4.31322e-05
4.03997e-05
4.93121e-05
5.00697e-05
5.6585e-05
6.17011e-05
6.59477e-05
7.46482e-05
7.76751e-05
9.00056e-05
9.26735e-05
0.000107559
0.000111425
0.000126853
0.000131993
0.000147457
0.00015509
0.000170469
0.000176745
0.000196826
0.00020224
0.000224651
0.000228062
0.000254813
0.000252365
0.00028791
0.000278455
0.000320286
0.000304262
0.000349682
0.000328165
0.000375549
0.000348349
0.000399698
0.000366169
0.000425789
0.000383534
0.000456093
0.000404591
0.000485621
0.000429632
0.000502638
0.000461162
0.00049984
0.000484872
0.000484904
0.000495962
0.000457187
0.000511491
0.000418492
0.000533618
0.000372008
0.000513087
0.000288673
0.000412571
0.00022479
0.00027152
0.000190307
0.000179421
0.000155609
0.000106173
0.000111089
4.12679e-05
8.09385e-05
-6.05282e-06
6.874e-05
-2.94577e-05
6.42339e-05
-4.2475e-05
6.41101e-05
-4.9703e-05
6.22471e-05
-5.39776e-05
5.67983e-05
-5.70779e-05
5.25937e-05
-6.02175e-05
5.06899e-05
-6.59365e-05
5.22571e-05
-7.29374e-05
5.44758e-05
-8.09081e-05
5.6706e-05
-8.58624e-05
6.0719e-05
-8.87516e-05
6.88354e-05
-9.29434e-05
8.18715e-05
-0.000100435
9.56572e-05
-0.000111758
0.000106022
-0.000121053
0.000111888
-0.000124264
0.000113367
-0.000122759
0.000104795
-0.000118293
8.18915e-05
-0.000107138
6.22859e-05
-8.56061e-05
5.02477e-05
-7.12464e-05
4.36162e-05
-6.31652e-05
4.09655e-05
-5.95851e-05
4.04759e-05
-5.92784e-05
4.3901e-05
-6.01013e-05
6.4085e-05
-6.63312e-05
9.24912e-05
-9.23289e-05
0.000120501
-0.000120331
0.00013841
-0.000139666
0.000143516
-0.000139941
0.000141823
-0.000121492
0.000140166
-9.02747e-05
0.000139443
-5.12167e-05
0.000128712
-9.09171e-06
0.000110029
2.43916e-05
8.76813e-05
4.30122e-05
6.64166e-05
4.62614e-05
4.42013e-05
3.44435e-05
1.94743e-05
5.84912e-06
-7.23916e-06
-3.51573e-05
-3.57346e-05
-9.01506e-05
-6.11744e-05
-0.000152325
-7.26397e-05
-0.000206308
-6.00762e-05
-0.000222004
-5.53188e-05
-0.000195086
-6.36617e-05
-0.00018428
-8.57251e-05
-0.000220001
-8.12813e-05
-0.000218593
-7.08349e-05
-0.000185655
-6.07878e-05
-0.000134006
-5.96938e-05
-9.76839e-05
-6.55893e-05
-6.2113e-05
-7.3873e-05
-7.41975e-05
-6.86776e-05
-6.85551e-05
-6.36868e-05
-6.09226e-05
-5.91036e-05
-5.18439e-05
-5.43972e-05
-4.14732e-05
-4.91757e-05
-2.98456e-05
-4.35985e-05
-1.80416e-05
-4.12644e-05
-7.1495e-06
-4.07452e-05
3.11423e-06
-4.58994e-05
1.41975e-05
-6.49833e-05
3.06691e-05
-7.51689e-05
5.21802e-05
-7.34575e-05
6.37099e-05
-6.43853e-05
6.3423e-05
-4.98185e-05
4.76354e-05
-3.76277e-05
2.88591e-05
-3.05642e-05
1.57377e-05
-2.74076e-05
1.03557e-05
-2.44849e-05
8.63966e-06
-2.10986e-05
8.4148e-06
-1.71891e-05
9.12662e-06
-1.28478e-05
1.0784e-05
-8.18524e-06
1.32208e-05
-3.23609e-06
1.61838e-05
1.92885e-06
1.95713e-05
7.19334e-06
2.32003e-05
1.26654e-05
2.70516e-05
1.84838e-05
3.12055e-05
2.47675e-05
3.57728e-05
3.14517e-05
4.08534e-05
3.8772e-05
4.64808e-05
4.7266e-05
5.32612e-05
5.76841e-05
6.12708e-05
7.00888e-05
7.02689e-05
8.55218e-05
8.22075e-05
0.000104366
9.65807e-05
0.000126182
0.000116949
0.000151822
0.000141705
0.000181577
0.000172472
0.000212954
0.000205448
0.000247064
0.000237571
0.000282951
0.000271219
0.000318327
0.000303172
0.000351056
0.000329174
0.000381064
0.000351551
0.000408671
0.000371225
0.000436165
0.000390746
0.000464628
0.000412476
0.000491535
0.000436763
0.000508998
0.000467664
0.000509125
0.000491625
0.000496645
0.000502243
0.00047333
0.000515801
0.000439276
0.000537236
0.00040956
0.000528556
0.000341962
0.000447946
0.00028155
0.000320801
0.000236143
0.000220489
0.00018492
0.000130136
0.000124612
5.2028e-05
8.91785e-05
6.35061e-08
7.53248e-05
-2.43522e-05
6.99814e-05
-3.72603e-05
6.87489e-05
-4.42207e-05
6.60156e-05
-4.86371e-05
5.89622e-05
-5.22616e-05
5.50866e-05
-5.62587e-05
5.33622e-05
-6.2649e-05
5.5481e-05
-7.02839e-05
5.60927e-05
-7.68149e-05
5.55379e-05
-7.94344e-05
5.5693e-05
-7.97233e-05
5.82461e-05
-8.07409e-05
6.95087e-05
-8.32071e-05
8.48374e-05
-9.29529e-05
9.98774e-05
-0.000105851
0.000110327
-0.000115722
0.00011565
-0.000119458
0.000114632
-0.000119617
0.000102186
-0.000115841
8.1257e-05
-0.0001047
6.52351e-05
-8.87087e-05
5.45903e-05
-7.7108e-05
4.89529e-05
-6.95146e-05
4.71461e-05
-6.63553e-05
4.81759e-05
-6.58134e-05
5.78389e-05
-6.73612e-05
8.32549e-05
-8.26727e-05
0.000112968
-0.000108797
0.000136456
-0.000132356
0.000144954
-0.000143166
0.000142477
-0.000133869
0.000137205
-0.000109419
0.000134873
-7.57446e-05
0.000131362
-3.53389e-05
0.000117251
3.09626e-06
9.69816e-05
2.98799e-05
7.60311e-05
3.94064e-05
5.65134e-05
3.29749e-05
3.52168e-05
1.02809e-05
1.31824e-05
-2.66437e-05
-1.27862e-05
-7.59391e-05
-3.73658e-05
-0.000135356
-5.30965e-05
-0.000191616
-5.13477e-05
-0.000220469
-4.44596e-05
-0.000198603
-5.15951e-05
-0.000182298
-7.69253e-05
-0.000212968
-7.50689e-05
-0.000215247
-6.52056e-05
-0.00018102
-5.76421e-05
-0.000126641
-5.79296e-05
-9.10828e-05
-6.0165e-05
-6.12066e-05
-7.98613e-05
-7.45884e-05
-7.79659e-05
-7.05938e-05
-7.64097e-05
-6.54248e-05
-7.40674e-05
-5.79766e-05
-6.94086e-05
-4.80771e-05
-6.29701e-05
-3.54845e-05
-5.67715e-05
-2.25151e-05
-5.44871e-05
-1.08211e-05
-5.42485e-05
2.41541e-07
-6.02345e-05
1.21939e-05
-7.93452e-05
2.83948e-05
-8.65247e-05
4.6437e-05
-8.29855e-05
5.69356e-05
-7.1652e-05
5.749e-05
-5.4315e-05
4.40927e-05
-4.00189e-05
2.69061e-05
-3.15807e-05
1.43404e-05
-2.81778e-05
8.27774e-06
-2.54386e-05
5.91661e-06
-2.24568e-05
5.11033e-06
-1.90179e-05
5.32093e-06
-1.51747e-05
6.63309e-06
-1.10354e-05
8.83467e-06
-6.62435e-06
1.16428e-05
-1.8838e-06
1.48169e-05
3.05794e-06
1.83596e-05
8.22149e-06
2.20825e-05
1.36798e-05
2.60049e-05
1.94522e-05
3.02393e-05
2.55127e-05
3.48742e-05
3.19481e-05
3.99118e-05
3.90078e-05
4.56127e-05
4.68007e-05
5.19998e-05
5.56477e-05
5.88816e-05
6.60004e-05
6.74112e-05
7.90337e-05
7.68881e-05
9.61427e-05
8.93898e-05
0.000118115
0.000103824
0.000147209
0.000124717
0.000181257
0.000153889
0.000221256
0.000191191
0.000265383
0.00023606
0.000307013
0.000279564
0.000346506
0.000317709
0.000380046
0.000349134
0.000411263
0.000373426
0.000440778
0.000394408
0.000469864
0.000417154
0.000496487
0.000442065
0.000515371
0.00047324
0.000517217
0.000497353
0.000506674
0.000507422
0.000484271
0.000520232
0.000457003
0.000537686
0.000436997
0.000531607
0.000390138
0.000468899
0.000329483
0.000359817
0.000273743
0.000251236
0.000207781
0.000148679
0.000134955
6.1034e-05
9.58164e-05
6.22102e-06
8.12442e-05
-1.84582e-05
7.53457e-05
-3.10973e-05
7.29321e-05
-3.77916e-05
6.92498e-05
-4.25864e-05
6.10181e-05
-4.71731e-05
5.75292e-05
-5.25228e-05
5.65108e-05
-5.97434e-05
5.83983e-05
-6.72004e-05
5.85073e-05
-7.26454e-05
5.71549e-05
-7.57925e-05
5.65879e-05
-7.71225e-05
5.72011e-05
-7.86887e-05
5.99206e-05
-7.95909e-05
7.22722e-05
-8.11236e-05
8.89673e-05
-9.0979e-05
0.000104275
-0.000103399
0.000113781
-0.000113096
0.000117738
-0.000117461
0.000115185
-0.000118972
0.000102861
-0.00011723
8.61696e-05
-0.000109525
7.05216e-05
-9.81711e-05
6.04695e-05
-8.51525e-05
5.61487e-05
-7.79829e-05
5.51741e-05
-7.54715e-05
6.01301e-05
-7.42288e-05
8.21407e-05
-8.3496e-05
0.000109628
-0.000109064
0.000133195
-0.000132476
0.000144982
-0.000145915
0.000142273
-0.000143184
0.000133654
-0.000124164
0.000125593
-9.43539e-05
0.000124293
-5.56518e-05
0.000116248
-1.57234e-05
9.95517e-05
1.7155e-05
7.96063e-05
3.36359e-05
6.07686e-05
3.19101e-05
4.19061e-05
1.35519e-05
2.37004e-05
-2.00253e-05
2.49575e-06
-6.35564e-05
-1.87422e-05
-0.000119803
-3.40428e-05
-0.000176821
-3.81468e-05
-0.00021229
-3.38734e-05
-0.00019811
-4.22146e-05
-0.000178566
-6.79432e-05
-0.000205133
-6.90075e-05
-0.00020959
-6.03541e-05
-0.000173425
-5.57984e-05
-0.000119073
-5.75894e-05
-8.49498e-05
-5.54251e-05
-6.17362e-05
-8.59811e-05
-7.34328e-05
-8.7667e-05
-7.10964e-05
-8.93966e-05
-6.7405e-05
-9.04331e-05
-6.16569e-05
-8.84276e-05
-5.40946e-05
-8.27296e-05
-4.28279e-05
-7.60221e-05
-2.95876e-05
-7.32107e-05
-1.64975e-05
-7.32877e-05
-3.77697e-06
-8.1425e-05
9.40111e-06
-9.55338e-05
2.41429e-05
-9.54723e-05
3.92951e-05
-8.95726e-05
4.8379e-05
-7.65383e-05
4.89666e-05
-5.71595e-05
3.83058e-05
-4.11895e-05
2.29111e-05
-3.20481e-05
1.20061e-05
-2.85744e-05
6.00857e-06
-2.60091e-05
3.41503e-06
-2.33104e-05
2.20444e-06
-2.02892e-05
2.05008e-06
-1.6916e-05
3.07197e-06
-1.33123e-05
5.1068e-06
-9.46017e-06
7.7585e-06
-5.29458e-06
1.07473e-05
-7.15682e-07
1.4007e-05
4.16299e-06
1.75529e-05
9.32164e-06
2.12918e-05
1.4806e-05
2.52671e-05
2.05908e-05
2.96153e-05
2.66897e-05
3.43546e-05
3.31571e-05
3.95881e-05
3.99815e-05
4.53227e-05
4.73611e-05
5.14599e-05
5.54891e-05
5.85356e-05
6.49291e-05
6.59907e-05
7.63365e-05
7.52085e-05
9.03412e-05
8.52394e-05
0.000109739
9.84302e-05
0.00013655
0.000116087
0.000172786
0.000138416
0.000219654
0.000172552
0.000271677
0.000222074
0.000322644
0.000274305
0.000367914
0.000323749
0.000404486
0.000361347
0.000439006
0.00039156
0.000470111
0.000418486
0.000497504
0.000446126
0.000519819
0.000477958
0.000523609
0.000503276
0.000512369
0.000514005
0.000493414
0.000524279
0.000470047
0.000537164
0.000456609
0.000529627
0.000415544
0.000474527
0.000363996
0.000379949
0.000298269
0.000270066
0.000220933
0.000161052
0.000140071
6.6795e-05
0.000100268
1.16037e-05
8.5974e-05
-1.18455e-05
7.99249e-05
-2.39872e-05
7.6546e-05
-3.05861e-05
7.11903e-05
-3.62951e-05
6.26132e-05
-4.2186e-05
5.96264e-05
-4.9017e-05
5.96311e-05
-5.6912e-05
6.08686e-05
-6.42655e-05
6.11968e-05
-6.97931e-05
6.02654e-05
-7.38963e-05
6.02043e-05
-7.65467e-05
6.09443e-05
-7.88362e-05
6.14944e-05
-8.01353e-05
6.51926e-05
-8.01267e-05
7.74788e-05
-8.13905e-05
9.39501e-05
-9.14724e-05
0.000107845
-0.000103746
0.000115892
-0.00011357
0.000118566
-0.00011859
0.00011635
-0.000121601
0.000105648
-0.000122261
9.12892e-05
-0.000117629
7.56228e-05
-0.00010462
6.76631e-05
-9.29454e-05
6.4821e-05
-8.82531e-05
6.53047e-05
-8.57312e-05
8.49537e-05
-8.93163e-05
0.000112371
-0.000115163
0.000133995
-0.000138895
0.000144076
-0.000151655
0.000140545
-0.000150659
0.000129368
-0.00013466
0.00011723
-0.000107482
0.000109947
-7.16313e-05
0.000107415
-2.96327e-05
9.49593e-05
7.16242e-06
7.66697e-05
2.93694e-05
5.86639e-05
3.18865e-05
4.18027e-05
1.63465e-05
2.58725e-05
-1.36526e-05
1.02296e-05
-5.44378e-05
-6.35357e-06
-0.000107435
-1.92591e-05
-0.000163198
-2.49543e-05
-0.000201609
-2.36398e-05
-0.000191838
-3.35889e-05
-0.000172654
-6.00477e-05
-0.000196574
-6.35138e-05
-0.000202045
-5.64391e-05
-0.000162723
-5.51902e-05
-0.000110955
-5.83689e-05
-7.87416e-05
-5.08812e-05
-6.24508e-05
-9.19337e-05
-7.14474e-05
-9.5541e-05
-6.97855e-05
-9.90706e-05
-6.68421e-05
-0.000103497
-6.25224e-05
-0.00010626
-5.66265e-05
-0.000105369
-4.76963e-05
-0.000101424
-3.58565e-05
-9.87157e-05
-2.32638e-05
-9.8047e-05
-9.68308e-06
-0.000103711
4.09354e-06
-0.000106135
1.86158e-05
-0.000101519
3.12811e-05
-9.34278e-05
3.91276e-05
-7.79857e-05
3.94577e-05
-5.74371e-05
3.07502e-05
-4.02049e-05
1.82026e-05
-3.21777e-05
8.93483e-06
-2.88197e-05
3.61104e-06
-2.61668e-05
9.59881e-07
-2.35159e-05
-4.4657e-07
-2.06766e-05
-8.20181e-07
-1.77786e-05
7.45635e-08
-1.47006e-05
2.00094e-06
-1.13958e-05
4.50045e-06
-7.75667e-06
7.29558e-06
-3.74385e-06
1.03223e-05
8.12295e-07
1.34665e-05
5.70149e-06
1.69863e-05
1.08741e-05
2.0759e-05
1.63533e-05
2.48406e-05
2.21106e-05
2.93132e-05
2.81253e-05
3.42157e-05
3.44073e-05
3.95139e-05
4.10876e-05
4.51816e-05
4.82285e-05
5.14513e-05
5.6113e-05
5.80717e-05
6.50748e-05
6.58245e-05
7.52501e-05
7.42501e-05
8.83107e-05
8.40332e-05
0.000105364
9.64593e-05
0.000128312
0.000111112
0.000163266
0.000132725
0.00021152
0.000164488
0.000267663
0.000207233
0.000326349
0.000260841
0.000379502
0.000317335
0.000422189
0.000365255
0.000460003
0.000405414
0.000491202
0.000441343
0.000514515
0.000477887
0.000521117
0.000506431
0.000513801
0.000517138
0.000494943
0.000527176
0.000477479
0.000536619
0.000464973
0.000524286
0.000431603
0.000474607
0.000377891
0.000388314
0.000310187
0.000279978
0.00022233
0.000167687
0.000138535
6.49863e-05
0.00010147
1.56216e-05
8.87093e-05
-4.74854e-06
8.32764e-05
-1.6143e-05
7.91103e-05
-2.31245e-05
7.17548e-05
-3.00041e-05
6.37304e-05
-3.77509e-05
6.14971e-05
-4.59163e-05
6.22891e-05
-5.41501e-05
6.32803e-05
-6.18323e-05
6.39849e-05
-6.78721e-05
6.38609e-05
-7.28474e-05
6.40557e-05
-7.64457e-05
6.46448e-05
-7.91384e-05
6.56041e-05
-8.08003e-05
6.64532e-05
-8.15755e-05
7.10772e-05
-8.13923e-05
8.34773e-05
-8.33925e-05
9.92647e-05
-9.50207e-05
0.000111185
-0.000107269
0.000117349
-0.000116934
0.000119198
-0.000122496
0.000116467
-0.000126963
0.000105835
-0.00012823
8.96261e-05
-0.000116686
8.02299e-05
-0.000107326
7.59661e-05
-0.000102377
7.41062e-05
-0.000100076
8.92133e-05
-0.00010385
0.000115849
-0.000126158
0.000136093
-0.000148375
0.00014266
-0.000159738
0.000136638
-0.000156982
0.000123246
-0.000141475
0.000108288
-0.000115419
9.6167e-05
-8.10633e-05
9.27168e-05
-3.86687e-05
8.38635e-05
2.01701e-07
6.77279e-05
2.68708e-05
5.09584e-05
3.28003e-05
3.59059e-05
1.91712e-05
2.30347e-05
-8.87027e-06
1.16602e-05
-4.81747e-05
8.75836e-07
-9.89764e-05
-8.01494e-06
-0.000150803
-1.36288e-05
-0.000190041
-1.5076e-05
-0.000181108
-2.65793e-05
-0.000164801
-5.33139e-05
-0.000187738
-5.87703e-05
-0.000192219
-5.35564e-05
-0.000149509
-5.51996e-05
-0.00010222
-5.95378e-05
-7.19848e-05
-4.60344e-05
-6.2909e-05
-9.66642e-05
-6.82103e-05
-0.000101276
-6.68413e-05
-0.000105947
-6.46837e-05
-0.000111941
-6.14361e-05
-0.00011779
-5.71178e-05
-0.000119234
-4.98599e-05
-0.000118439
-3.96143e-05
-0.000116824
-2.78651e-05
-0.0001157
-1.50749e-05
-0.000115613
-1.96315e-06
-0.000111531
1.16402e-05
-0.000104659
2.26746e-05
-9.32419e-05
2.92419e-05
-7.49065e-05
2.92362e-05
-5.44195e-05
2.26607e-05
-3.87409e-05
1.34035e-05
-3.20943e-05
5.7347e-06
-2.83833e-05
9.27683e-07
-2.54184e-05
-1.66477e-06
-2.23529e-05
-3.22933e-06
-1.9674e-05
-3.4872e-06
-1.71944e-05
-2.4321e-06
-1.47155e-05
-4.28557e-07
-1.20171e-05
1.93297e-06
-8.86427e-06
4.41555e-06
-5.41106e-06
7.29463e-06
-1.2353e-06
9.88214e-06
3.36898e-06
1.31258e-05
8.21851e-06
1.67829e-05
1.33401e-05
2.06978e-05
1.86883e-05
2.50195e-05
2.41714e-05
2.97797e-05
2.97908e-05
3.48133e-05
3.56361e-05
4.00978e-05
4.18387e-05
4.5643e-05
4.86397e-05
5.14194e-05
5.63371e-05
5.79531e-05
6.49809e-05
6.52208e-05
7.51295e-05
7.35884e-05
8.72926e-05
8.38159e-05
0.000102954
9.50758e-05
0.000125727
0.000110167
0.000158071
0.000131723
0.000202251
0.000161724
0.000257303
0.000199999
0.00031684
0.000248409
0.000373582
0.00030309
0.000422209
0.000358008
0.000463953
0.000410308
0.00049516
0.000458325
0.000508042
0.000496042
0.000500146
0.000514405
0.00048751
0.000521327
0.000473187
0.000524352
0.000462104
0.000515584
0.000426396
0.000468678
0.00038197
0.000386112
0.000309005
0.000270296
0.000211149
0.00015223
0.000129204
5.96789e-05
9.96833e-05
1.92524e-05
8.93383e-05
2.66983e-06
8.48796e-05
-7.65961e-06
8.0245e-05
-1.58516e-05
7.08173e-05
-2.46086e-05
6.43838e-05
-3.39784e-05
6.30049e-05
-4.3307e-05
6.41961e-05
-5.22057e-05
6.55773e-05
-6.03954e-05
6.65914e-05
-6.70152e-05
6.70531e-05
-7.23353e-05
6.73403e-05
-7.63225e-05
6.76991e-05
-7.92835e-05
6.82347e-05
-8.13434e-05
6.92736e-05
-8.25343e-05
7.06612e-05
-8.31461e-05
7.69595e-05
-8.32132e-05
9.02508e-05
-8.79865e-05
0.000103965
-0.000100457
0.000113652
-0.000113007
0.000117255
-0.000122401
0.000117985
-0.00012817
0.000112113
-0.000132092
9.91412e-05
-0.000126253
9.04841e-05
-0.000118535
8.6469e-05
-0.000116263
8.57471e-05
-0.000116658
0.000102832
-0.000127966
0.00012435
-0.000150201
0.000138085
-0.000164664
0.000139675
-0.000168594
0.000130585
-0.000161379
0.000115377
-0.000144654
9.80024e-05
-0.000118447
8.28119e-05
-8.48365e-05
7.49024e-05
-4.37483e-05
6.79549e-05
-2.50304e-06
5.34126e-05
2.66396e-05
3.84091e-05
3.42711e-05
2.6043e-05
2.13796e-05
1.62353e-05
-5.6662e-06
8.7328e-06
-4.43929e-05
3.09152e-06
-9.32008e-05
-6.51771e-07
-0.000141363
-4.53831e-06
-0.000178742
-8.7413e-06
-0.000164496
-2.14403e-05
-0.000155358
-4.7768e-05
-0.000179724
-5.49935e-05
-0.000179721
-5.18997e-05
-0.000134495
-5.5856e-05
-9.29069e-05
-6.10706e-05
-6.48929e-05
-4.05067e-05
-6.29809e-05
-9.98567e-05
-6.40429e-05
-0.000104651
-6.284e-05
-0.000110181
-6.1052e-05
-0.000116946
-5.88229e-05
-0.000124277
-5.58683e-05
-0.000126846
-5.05576e-05
-0.000126736
-4.20615e-05
-0.00012502
-3.15588e-05
-0.000122476
-2.00016e-05
-0.00011837
-7.87533e-06
-0.000112006
4.04236e-06
-0.000102161
1.36754e-05
-8.74559e-05
1.93138e-05
-6.90152e-05
1.96817e-05
-5.10409e-05
1.52532e-05
-3.79752e-05
8.64599e-06
-3.13308e-05
2.31221e-06
-2.70562e-05
-2.20144e-06
-2.30598e-05
-4.88582e-06
-1.99202e-05
-6.20503e-06
-1.73946e-05
-6.06039e-06
-1.54261e-05
-4.43505e-06
-1.36519e-05
-2.10691e-06
-1.13944e-05
-9.60868e-08
-8.76022e-06
2.14924e-06
-5.99705e-06
5.08426e-06
-2.43227e-06
7.08799e-06
1.65933e-06
1.00208e-05
6.12883e-06
1.35047e-05
1.09832e-05
1.71994e-05
1.60448e-05
2.13743e-05
2.11284e-05
2.60825e-05
2.62807e-05
3.10644e-05
3.13938e-05
3.6322e-05
3.66535e-05
4.1525e-05
4.21534e-05
4.68127e-05
4.82434e-05
5.22123e-05
5.5264e-05
5.79608e-05
6.38124e-05
6.45522e-05
7.39171e-05
7.29628e-05
8.58485e-05
8.26531e-05
0.000101687
9.46559e-05
0.000123921
0.000110013
0.000154427
0.000131696
0.000193981
0.000159533
0.00024326
0.000195976
0.000298819
0.000241756
0.000353897
0.000293624
0.000404651
0.000351454
0.000447922
0.000412002
0.000470754
0.000464309
0.000472168
0.000489905
0.000462566
0.000497522
0.000453822
0.000499449
0.000438844
0.000480672
0.000421641
0.00043965
0.000364337
0.000355131
0.000276444
0.000237257
0.000172548
0.000125401
0.000113015
5.06433e-05
9.42966e-05
2.39823e-05
8.79313e-05
9.59654e-06
8.45084e-05
8.97388e-07
7.93363e-05
-8.93517e-06
6.90636e-05
-2.06028e-05
6.49077e-05
-3.13014e-05
6.43868e-05
-4.17567e-05
6.606e-05
-5.1298e-05
6.77516e-05
-5.98193e-05
6.89102e-05
-6.66183e-05
6.95489e-05
-7.19407e-05
6.99023e-05
-7.62417e-05
7.01395e-05
-7.9651e-05
7.02437e-05
-8.21144e-05
7.05993e-05
-8.37194e-05
7.16854e-05
-8.45267e-05
7.3629e-05
-8.48871e-05
8.2053e-05
-8.59243e-05
9.52195e-05
-9.49538e-05
0.000106857
-0.000109517
0.0001133
-0.000121714
0.000115144
-0.000128832
0.000111563
-0.000133641
0.000101133
-0.000129996
9.67018e-05
-0.000128202
9.48321e-05
-0.000129677
0.000102495
-0.000139392
0.00012235
-0.000159458
0.000135638
-0.000173839
0.000139183
-0.000177141
0.000133669
-0.000172749
0.000121101
-0.000161104
0.000104591
-0.000142772
8.54993e-05
-0.000116318
6.8513e-05
-8.32419e-05
5.69189e-05
-4.38911e-05
4.86901e-05
-1.8308e-06
3.48042e-05
2.85311e-05
2.18281e-05
3.58874e-05
1.24209e-05
2.25835e-05
6.43142e-06
-4.55977e-06
3.67937e-06
-4.34355e-05
3.08838e-06
-8.90094e-05
3.47208e-06
-0.000135371
1.24915e-06
-0.000167286
-4.22382e-06
-0.000147593
-1.83063e-05
-0.000145132
-4.45012e-05
-0.000171305
-5.24948e-05
-0.000165282
-5.14403e-05
-0.00011844
-5.69744e-05
-8.28419e-05
-6.19341e-05
-5.71965e-05
-3.51075e-05
-6.24624e-05
-0.000102168
-5.96709e-05
-0.000104931
-5.87984e-05
-0.000110203
-5.67249e-05
-0.000116117
-5.45399e-05
-0.000124662
-5.22464e-05
-0.000129361
-4.86912e-05
-0.000129294
-4.32801e-05
-0.000126748
-3.45689e-05
-0.000122285
-2.43234e-05
-0.000115759
-1.34161e-05
-0.000106952
-3.01891e-06
-9.52513e-05
5.44391e-06
-8.02182e-05
1.05319e-05
-6.36073e-05
1.145e-05
-4.86079e-05
8.60889e-06
-3.7449e-05
3.57687e-06
-2.98934e-05
-1.85619e-06
-2.43797e-05
-5.86582e-06
-2.06092e-05
-8.29469e-06
-1.81737e-05
-8.98518e-06
-1.67586e-05
-8.05771e-06
-1.61646e-05
-5.57431e-06
-1.61366e-05
-2.2837e-06
-1.70178e-05
8.98652e-07
-1.86607e-05
3.77179e-06
-2.08472e-05
7.13308e-06
-1.96901e-05
1.07794e-05
-1.5205e-05
1.44695e-05
-8.67887e-06
1.79088e-05
-3.6977e-07
2.08007e-05
8.22103e-06
2.36323e-05
1.57423e-05
2.6051e-05
2.17167e-05
2.99786e-05
2.66582e-05
3.43913e-05
3.18428e-05
3.81943e-05
3.68809e-05
4.33745e-05
4.18992e-05
4.8435e-05
4.71241e-05
5.36256e-05
5.3337e-05
5.8567e-05
6.12547e-05
6.43859e-05
7.10542e-05
7.16555e-05
8.30225e-05
8.13819e-05
9.86939e-05
9.30592e-05
0.000119965
0.000108996
0.000147583
0.000129194
0.000183684
0.000155855
0.000227679
0.000191772
0.000277204
0.000235896
0.000329849
0.000289199
0.000379975
0.000350431
0.000411944
0.000407235
0.00041865
0.000437985
0.000415856
0.000444039
0.000406837
0.000438711
0.000400007
0.000421623
0.000364203
0.000369902
0.000298695
0.000283018
0.000209436
0.000180036
0.000125206
8.4229e-05
9.59663e-05
4.56548e-05
8.77212e-05
2.85052e-05
8.57855e-05
1.78725e-05
8.25149e-05
7.93124e-06
7.59001e-05
-3.70415e-06
6.72799e-05
-1.78428e-05
6.5075e-05
-2.99346e-05
6.536e-05
-4.11125e-05
6.74412e-05
-5.09973e-05
6.92198e-05
-5.95544e-05
7.03535e-05
-6.62424e-05
7.11237e-05
-7.16807e-05
7.17683e-05
-7.65822e-05
7.20058e-05
-8.05926e-05
7.19161e-05
-8.34545e-05
7.16273e-05
-8.53103e-05
7.12701e-05
-8.59242e-05
7.21983e-05
-8.59971e-05
7.6192e-05
-8.6719e-05
8.82194e-05
-9.41769e-05
0.000100035
-0.000110134
0.00010643
-0.000122203
0.000109249
-0.00012921
0.000106619
-0.000133777
0.000101365
-0.000134605
9.95541e-05
-0.000138359
0.000103129
-0.000146637
0.000119383
-0.000168165
0.000132626
-0.000184266
0.00013601
-0.000186504
0.000131991
-0.00018252
0.000121782
-0.000172749
0.000106973
-0.00015749
8.94116e-05
-0.000136907
6.9801e-05
-0.000109323
5.17924e-05
-7.68453e-05
3.76059e-05
-3.92297e-05
2.6059e-05
2.39488e-06
1.22485e-05
3.18503e-05
2.11056e-06
3.62936e-05
-2.97816e-06
2.12941e-05
-4.39348e-06
-6.42657e-06
-2.61696e-06
-4.45941e-05
1.31924e-06
-8.61379e-05
5.36924e-06
-0.000132726
4.6962e-06
-0.000153408
-1.68447e-06
-0.000133072
-1.72837e-05
-0.00013545
-4.26968e-05
-0.000161107
-5.13711e-05
-0.000148578
-5.17664e-05
-0.000102285
-5.79976e-05
-7.23918e-05
-6.22265e-05
-4.9224e-05
-3.02674e-05
-6.12174e-05
-0.00010493
-5.54269e-05
-0.000105391
-5.50274e-05
-0.00010743
-5.37558e-05
-0.000111453
-5.12728e-05
-0.000116422
-4.86111e-05
-0.000123965
-4.57113e-05
-0.000127303
-4.18559e-05
-0.000125163
-3.65535e-05
-0.000120249
-2.82173e-05
-0.00011194
-1.88774e-05
-0.000101111
-9.56738e-06
-8.8485e-05
-1.91309e-06
-7.44065e-05
2.86721e-06
-5.99703e-05
4.15536e-06
-4.6775e-05
2.17206e-06
-3.58458e-05
-1.9734e-06
-2.76607e-05
-6.09286e-06
-2.32229e-05
-9.45983e-06
-2.15489e-05
-1.08386e-05
-2.23695e-05
-1.03181e-05
-2.60663e-05
-8.26157e-06
-3.2991e-05
-5.41184e-06
-4.7445e-05
6.35141e-07
-6.23591e-05
5.45227e-06
-7.08201e-05
9.30414e-06
-7.31591e-05
1.28652e-05
-6.65138e-05
1.54958e-05
-5.47969e-05
1.78372e-05
-3.93667e-05
2.03896e-05
-2.51234e-05
2.39223e-05
-1.2289e-05
2.98868e-05
6.21724e-07
3.66263e-05
1.35052e-05
4.16146e-05
2.25417e-05
4.54885e-05
2.81281e-05
4.63959e-05
3.16945e-05
4.52214e-05
3.62382e-05
4.64948e-05
4.07899e-05
5.03973e-05
4.55176e-05
5.49691e-05
5.07315e-05
5.96556e-05
5.75202e-05
6.43111e-05
6.65227e-05
7.05541e-05
7.79141e-05
7.8988e-05
9.26208e-05
9.06849e-05
0.000111499
0.000104943
0.000136483
0.000123845
0.000168718
0.00014957
0.00020744
0.000183203
0.000253056
0.000223997
0.000298902
0.000276244
0.000331308
0.000326617
0.000341418
0.000353485
0.000337733
0.000356642
0.000335255
0.000350238
0.00031473
0.000323504
0.000266741
0.000266829
0.000206023
0.000190846
0.000128272
0.000109242
9.40977e-05
6.5311e-05
8.44638e-05