/*--------------------------------*- C++ -*----------------------------------*\
  =========                 |
  \\      /  F ield         | OpenFOAM: The Open Source CFD Toolbox
   \\    /   O peration     | Website:  https://openfoam.org
    \\  /    A nd           | Version:  10
     \\/     M anipulation  |
\*---------------------------------------------------------------------------*/
FoamFile
{
    format      ascii;
    class       volScalarField;
    location    "0.849234";
    object      rho;
}
// * * * * * * * * * * * * * * * * * * * * * * * * * * * * * * * * * * * * * //

dimensions      [1 -3 0 0 0 0 0];

internalField   nonuniform List<scalar> 
16320
(
0.359884
0.326343
0.29164
0.256962
0.226094
0.214228
0.210996
0.212529
0.233901
0.332194
0.472463
0.510554
0.487054
0.398115
0.279166
0.204397
0.188966
0.18728
0.188515
0.193187
0.201367
0.211962
0.224879
0.239418
0.252082
0.265867
0.27657
0.28742
0.300564
0.314256
0.329343
0.349245
0.372738
0.399174
0.430064
0.462428
0.497776
0.530341
0.571949
0.60838
0.643145
0.680067
0.702835
0.707629
0.714011
0.742463
0.812232
0.905842
1.00481
1.08907
1.13668
1.16485
1.21125
1.23345
1.09447
0.792316
0.574536
0.484521
0.442389
0.383227
0.299072
0.251693
0.243539
0.253656
0.269754
0.268291
0.253118
0.249459
0.255631
0.276205
0.314768
0.370453
0.434809
0.498195
0.544548
0.565918
0.571465
0.553132
0.476335
0.339418
0.237958
0.197266
0.187087
0.189754
0.218559
0.326665
0.483784
0.654532
0.805763
0.899298
0.943236
0.970395
1.01404
1.02651
1.00653
0.978795
0.963122
0.914769
0.760015
0.646758
0.69877
0.745649
0.751984
0.638729
0.422674
0.379143
0.425564
0.657822
0.751471
0.76627
0.729784
0.681398
0.680532
0.359695
0.328141
0.296923
0.267644
0.242946
0.220313
0.211287
0.209107
0.213523
0.249142
0.381621
0.493056
0.503312
0.44804
0.338315
0.231887
0.193975
0.186264
0.185107
0.18608
0.188644
0.192527
0.197289
0.203418
0.210113
0.220702
0.232482
0.246894
0.266054
0.286162
0.307423
0.332694
0.360723
0.391156
0.425987
0.461689
0.501796
0.540879
0.591503
0.641813
0.690704
0.743097
0.789083
0.814189
0.831553
0.847938
0.883189
0.944377
1.02978
1.12156
1.18051
1.21375
1.26452
1.32562
1.25679
0.989514
0.698595
0.581984
0.519986
0.433171
0.320253
0.2614
0.250824
0.260168
0.271747
0.267867
0.251132
0.248695
0.255288
0.275263
0.305203
0.343249
0.390145
0.444393
0.49316
0.52222
0.531209
0.522089
0.471842
0.365358
0.263769
0.211667
0.190231
0.186943
0.193153
0.231187
0.353295
0.515747
0.680387
0.812019
0.887248
0.924737
0.964747
1.01814
1.0267
1.00903
0.988123
0.961321
0.888933
0.744392
0.71625
0.776955
0.803379
0.732531
0.522008
0.386085
0.396132
0.61408
0.733409
0.743185
0.683281
0.652674
0.660759
0.357501
0.327775
0.298845
0.272756
0.252852
0.236909
0.219744
0.212608
0.212895
0.230119
0.31235
0.448755
0.497456
0.468898
0.373473
0.26157
0.202013
0.18723
0.183134
0.182229
0.182708
0.183838
0.185522
0.187845
0.190606
0.194712
0.199876
0.206707
0.216528
0.230512
0.248851
0.274996
0.308105
0.345117
0.387672
0.431739
0.481513
0.529194
0.58669
0.643516
0.69812
0.761168
0.820605
0.869438
0.904789
0.933529
0.964331
1.01328
1.07981
1.16588
1.2314
1.26949
1.32438
1.40898
1.39216
1.18895
0.872286
0.720758
0.619958
0.486852
0.338618
0.269965
0.257951
0.266552
0.27382
0.267035
0.249163
0.247602
0.255592
0.275906
0.291997
0.306532
0.329803
0.3702
0.422975
0.466202
0.486714
0.488955
0.465699
0.398477
0.301993
0.239965
0.205609
0.191501
0.191468
0.203108
0.259117
0.397554
0.561057
0.713793
0.815274
0.870239
0.90716
0.969585
1.02534
1.03135
1.01463
0.99211
0.952842
0.859918
0.778329
0.810358
0.849082
0.79844
0.601047
0.40396
0.381375
0.578014
0.722333
0.727372
0.641182
0.616891
0.632939
0.354384
0.329252
0.305334
0.285261
0.268512
0.251596
0.232373
0.220766
0.220121
0.234579
0.310445
0.431272
0.480028
0.470698
0.381835
0.28206
0.21173
0.188012
0.181623
0.179815
0.179531
0.179935
0.180676
0.181737
0.183062
0.184876
0.187377
0.190689
0.195327
0.201846
0.209979
0.222877
0.240523
0.264016
0.29941
0.344127
0.40391
0.46509
0.537632
0.612906
0.685872
0.76101
0.8315
0.889101
0.939864
0.981803
1.02287
1.07252
1.13343
1.21747
1.28731
1.32934
1.39097
1.47932
1.50192
1.34199
1.05956
0.883007
0.725138
0.53176
0.351621
0.277109
0.265009
0.272755
0.275867
0.265222
0.247111
0.246369
0.256603
0.271268
0.272495
0.268065
0.270457
0.288397
0.340729
0.396793
0.437353
0.453644
0.451712
0.423745
0.356329
0.285563
0.238106
0.209747
0.199659
0.202646
0.227482
0.31819
0.463856
0.622908
0.747364
0.816681
0.855128
0.898869
0.983589
1.03359
1.03397
1.01573
0.986889
0.936965
0.859214
0.873554
0.896325
0.838859
0.670801
0.439141
0.379269
0.547997
0.712556
0.713852
0.609919
0.586422
0.607006
0.351884
0.334367
0.321028
0.310367
0.296063
0.274268
0.24873
0.238135
0.237526
0.252744
0.3284
0.432175
0.469053
0.463332
0.377776
0.281039
0.212143
0.186805
0.180003
0.178094
0.177811
0.178104
0.17862
0.179327
0.180217
0.181327
0.182892
0.184908
0.18741
0.19085
0.19493
0.20149
0.210537
0.221708
0.23987
0.26268
0.298345
0.345404
0.415979
0.506845
0.6039
0.709951
0.810647
0.894565
0.960692
1.01524
1.0657
1.12198
1.18763
1.27539
1.3497
1.39664
1.46157
1.55214
1.5752
1.46396
1.21793
1.01725
0.805386
0.559782
0.35817
0.282536
0.271903
0.278349
0.278163
0.262246
0.245383
0.245581
0.257127
0.261411
0.257026
0.248114
0.246425
0.252663
0.267912
0.323482
0.378153
0.414277
0.427396
0.422432
0.399871
0.345905
0.290418
0.245145
0.221195
0.216823
0.227159
0.289728
0.41936
0.564671
0.696346
0.77809
0.818177
0.850958
0.908732
1.00236
1.03659
1.03004
1.00939
0.9743
0.92047
0.922579
0.925289
0.866345
0.704923
0.471338
0.376351
0.535693
0.705078
0.699836
0.587218
0.566662
0.59006
0.350347
0.338961
0.334904
0.333145
0.330381
0.312664
0.288807
0.276375
0.275718
0.296796
0.377119
0.435174
0.453219
0.443212
0.368561
0.274685
0.208395
0.184871
0.179078
0.177396
0.177066
0.177068
0.177248
0.177697
0.178301
0.179077
0.180052
0.181371
0.182969
0.185089
0.187694
0.191683
0.197076
0.203648
0.214287
0.226657
0.246701
0.271622
0.310498
0.367093
0.446609
0.565375
0.704224
0.833341
0.943216
1.02444
1.09414
1.1627
1.23823
1.3338
1.41627
1.46663
1.53409
1.60901
1.62784
1.52434
1.33674
1.10353
0.85074
0.565537
0.356501
0.286561
0.278537
0.283414
0.28007
0.257983
0.243651
0.244988
0.253008
0.252874
0.248567
0.243012
0.242006
0.241991
0.250233
0.264002
0.316508
0.366318
0.398031
0.410449
0.405979
0.395203
0.348219
0.295171
0.255273
0.242525
0.246209
0.286574
0.411142
0.550215
0.669626
0.751936
0.792293
0.818494
0.850548
0.937218
1.01625
1.0324
1.01973
0.991949
0.957812
0.953615
0.945389
0.882823
0.727335
0.490907
0.378224
0.528526
0.702166
0.682751
0.57142
0.556831
0.582325
0.35075
0.342182
0.339197
0.342448
0.350815
0.35266
0.346763
0.339413
0.340299
0.360864
0.409319
0.429819
0.437299
0.419336
0.350629
0.261256
0.20082
0.184083
0.17953
0.177825
0.176006
0.175516
0.175676
0.176048
0.176567
0.177138
0.177743
0.178428
0.179241
0.18034
0.181818
0.18418
0.187635
0.19227
0.199637
0.208209
0.221659
0.237823
0.260572
0.295124
0.340811
0.412498
0.522625
0.667978
0.82896
0.971069
1.08097
1.17811
1.27554
1.37859
1.46694
1.52313
1.58541
1.65169
1.64456
1.56096
1.37238
1.14681
0.853884
0.549265
0.345578
0.288479
0.284729
0.287833
0.280353
0.25322
0.242126
0.243966
0.248276
0.247832
0.245069
0.242337
0.241554
0.2424
0.242781
0.252232
0.269769
0.319606
0.366172
0.391858
0.403492
0.397724
0.391999
0.332224
0.291285
0.275618
0.278032
0.306638
0.419738
0.554164
0.665435
0.736577
0.771418
0.792364
0.814272
0.870239
0.981115
1.02199
1.02175
0.998921
0.974722
0.970235
0.957222
0.878523
0.737339
0.499511
0.3798
0.52853
0.702203
0.662372
0.559094
0.550132
0.575014
0.353623
0.343025
0.339417
0.343357
0.357623
0.367097
0.370488
0.373283
0.379218
0.395493
0.411933
0.420151
0.41917
0.388504
0.318716
0.241885
0.196992
0.18499
0.180714
0.177588
0.175044
0.174657
0.17484
0.175243
0.175786
0.176346
0.176824
0.177186
0.177484
0.177787
0.178198
0.17894
0.180263
0.182595
0.186941
0.193067
0.203075
0.216404
0.233585
0.257508
0.287407
0.333833
0.405167
0.505696
0.637728
0.800544
0.965795
1.11418
1.24843
1.37473
1.4864
1.54964
1.60766
1.64664
1.64383
1.54479
1.38828
1.11024
0.843642
0.492746
0.325246
0.289556
0.291001
0.29144
0.278038
0.248537
0.240689
0.241384
0.244751
0.245176
0.244507
0.243065
0.242568
0.24276
0.245002
0.246393
0.257721
0.285446
0.331794
0.374126
0.391696
0.398123
0.387365
0.356457
0.318875
0.309556
0.31687
0.357822
0.470202
0.585182
0.67473
0.730431
0.758555
0.771494
0.78618
0.82088
0.935565
1.00361
1.01501
0.998373
0.98348
0.977627
0.95105
0.849162
0.720388
0.489404
0.382727
0.535161
0.702958
0.640816
0.550763
0.546231
0.564054
0.358625
0.342905
0.337826
0.34135
0.356358
0.369188
0.374775
0.37899
0.384882
0.392736
0.39881
0.40055
0.385899
0.347269
0.289065
0.231662
0.198732
0.187951
0.182499
0.176953
0.175695
0.175456
0.175395
0.175649
0.176142
0.176894
0.177586
0.177983
0.17827
0.178396
0.178233
0.178273
0.178388
0.178783
0.17992
0.181978
0.187096
0.195683
0.209237
0.229626
0.253794
0.286842
0.335604
0.407259
0.502056
0.627
0.779733
0.947958
1.12013
1.29441
1.43549
1.52877
1.56862
1.60352
1.56422
1.51183
1.29998
1.09757
0.701338
0.407404
0.304227
0.291329
0.297777
0.294823
0.271787
0.245934
0.240715
0.241421
0.244595
0.245474
0.245224
0.245032
0.2454
0.246408
0.247031
0.250361
0.25301
0.269015
0.305288
0.349446
0.383003
0.389609
0.386893
0.356057
0.336368
0.340566
0.362979
0.450051
0.556563
0.63344
0.687419
0.723669
0.74627
0.75418
0.762548
0.788263
0.894989
0.985237
1.00542
0.993788
0.983006
0.973742
0.925104
0.815384
0.696285
0.454097
0.38683
0.557367
0.703432
0.618692
0.544069
0.541607
0.548574
0.369955
0.343753
0.333232
0.33065
0.343684
0.36287
0.370585
0.374117
0.376927
0.377051
0.375851
0.369898
0.350597
0.315899
0.272044
0.232544
0.206952
0.191982
0.18342
0.181414
0.181672
0.182452
0.182839
0.182835
0.188531
0.203585
0.232233
0.240818
0.237224
0.229694
0.215497
0.200487
0.189563
0.183158
0.180637
0.180437
0.181225
0.183725
0.189769
0.202943
0.222864
0.250476
0.285365
0.337573
0.406881
0.499572
0.623364
0.769898
0.944364
1.12893
1.31387
1.41033
1.4611
1.45622
1.45365
1.31166
1.21506
0.836933
0.522712
0.332403
0.292912
0.296882
0.304794
0.295943
0.264083
0.245668
0.242216
0.24304
0.245921
0.246744
0.247007
0.24893
0.251792
0.253674
0.255453
0.255309
0.257367
0.262862
0.291597
0.340059
0.371514
0.381248
0.377511
0.356419
0.355856
0.370223
0.434901
0.538866
0.605931
0.653784
0.688998
0.71154
0.729739
0.733572
0.740845
0.76308
0.86535
0.967072
0.991385
0.983619
0.973185
0.951879
0.869674
0.77824
0.652927
0.429501
0.394021
0.57783
0.702201
0.597466
0.537403
0.534407
0.533799
0.391163
0.358534
0.331601
0.32253
0.320878
0.334466
0.35829
0.367341
0.371528
0.370107
0.361009
0.348223
0.328997
0.301614
0.269845
0.239049
0.213157
0.197133
0.194185
0.197306
0.207659
0.228168
0.270233
0.385589
0.464121
0.523761
0.556429
0.552478
0.516634
0.466058
0.426084
0.382106
0.324271
0.264224
0.213914
0.191809
0.18419
0.183318
0.184
0.187667
0.197176
0.216831
0.243847
0.281891
0.331651
0.399079
0.491923
0.611597
0.755702
0.937787
1.10306
1.21301
1.22946
1.24479
1.15484
1.11707
0.83299
0.579321
0.359303
0.295035
0.292539
0.30942
0.310058
0.292744
0.259323
0.247396
0.245312
0.246122
0.248052
0.248925
0.251765
0.2577
0.262789
0.26577
0.26589
0.2627
0.261532
0.265399
0.288675
0.338992
0.368028
0.373455
0.370371
0.365954
0.378497
0.423848
0.530076
0.591663
0.629393
0.661681
0.686958
0.707355
0.721141
0.718803
0.724023
0.747726
0.856187
0.958521
0.978411
0.971848
0.954059
0.911117
0.807184
0.745954
0.592537
0.410793
0.408644
0.604547
0.696629
0.577463
0.529793
0.524638
0.517649
0.426481
0.391342
0.355617
0.32476
0.313904
0.311388
0.317649
0.344986
0.357767
0.363733
0.360946
0.344551
0.325004
0.300167
0.272111
0.241869
0.216916
0.21181
0.22027
0.262206
0.370893
0.529588
0.629854
0.670311
0.681007
0.670599
0.622505
0.576906
0.524906
0.481467
0.462091
0.44783
0.427264
0.398345
0.353261
0.286714
0.224936
0.194012
0.186067
0.185949
0.187522
0.1943
0.210031
0.237351
0.271542
0.318198
0.381395
0.465931
0.568119
0.699528
0.839262
0.91217
0.935844
0.896132
0.875411
0.700179
0.525889
0.361522
0.295554
0.288023
0.305818
0.32044
0.314277
0.285435
0.259677
0.252816
0.251193
0.251153
0.251903
0.255467
0.263693
0.272653
0.277843
0.27897
0.273646
0.265834
0.264812
0.268861
0.295387
0.345436
0.368025
0.371725
0.369617
0.382164
0.426842
0.527146
0.583125
0.617325
0.641204
0.668191
0.690575
0.708474
0.718312
0.710721
0.714832
0.743166
0.867759
0.952802
0.964153
0.953856
0.92513
0.8526
0.768582
0.699508
0.50765
0.405157
0.43216
0.6379
0.686831
0.559008
0.519742
0.513074
0.501744
0.480019
0.439281
0.401776
0.366705
0.327999
0.306898
0.30015
0.299194
0.309077
0.332713
0.342854
0.34438
0.325361
0.301118
0.271701
0.239175
0.228971
0.238123
0.306859
0.493261
0.643518
0.703719
0.717341
0.703052
0.638213
0.552586
0.449082
0.398335
0.377317
0.371009
0.374114
0.382966
0.393746
0.40053
0.395929
0.38071
0.338726
0.26724
0.207324
0.190569
0.187394
0.187885
0.19249
0.205229
0.227276
0.25653
0.294752
0.344912
0.405221
0.481748
0.556086
0.595953
0.596204
0.580098
0.508348
0.418089
0.334454
0.290173
0.283164
0.29863
0.32545
0.328393
0.315585
0.282116
0.264355
0.25864
0.256836
0.256592
0.260251
0.271312
0.284713
0.29309
0.294089
0.28954
0.275699
0.267449
0.267222
0.27555
0.316588
0.359251
0.371326
0.373663
0.386379
0.43071
0.528744
0.58323
0.61544
0.634713
0.658417
0.688201
0.707296
0.719251
0.718477
0.704969
0.710639
0.755748
0.886281
0.944479
0.948429
0.932921
0.880575
0.78205
0.741209
0.626111
0.445112
0.403376
0.46703
0.666515
0.673218
0.540563
0.504454
0.496378
0.485247
0.544251
0.513524
0.465448
0.423769
0.390315
0.357976
0.319637
0.292585
0.281048
0.275974
0.276059
0.291777
0.296876
0.28564
0.255591
0.23904
0.242534
0.297556
0.488736
0.652611
0.708872
0.717745
0.683743
0.587038
0.450883
0.381341
0.362594
0.356768
0.355985
0.363052
0.365559
0.364508
0.36196
0.36549
0.377036
0.388549
0.388062
0.358005
0.294832
0.219665
0.193516
0.188199
0.188117
0.191276
0.200439
0.217066
0.238104
0.264653
0.29616
0.333817
0.365187
0.376601
0.374421
0.361175
0.33031
0.299169
0.280063
0.278213
0.292457
0.324643
0.338912
0.335547
0.315507
0.284112
0.267957
0.262627
0.261834
0.266106
0.280971
0.300444
0.312566
0.313913
0.309947
0.293873
0.275541
0.270116
0.27258
0.293656
0.351609
0.373592
0.377115
0.387255
0.430041
0.531243
0.585483
0.614566
0.631975
0.658591
0.700324
0.734213
0.746915
0.737613
0.716161
0.701222
0.718058
0.79711
0.906447
0.93544
0.931781
0.896193
0.810834
0.743199
0.690523
0.516213
0.428096
0.407776
0.511946
0.681788
0.660286
0.529465
0.484558
0.469242
0.45989
0.591395
0.595195
0.578559
0.512049
0.440608
0.402327
0.382329
0.357468
0.329214
0.275586
0.24405
0.232984
0.22921
0.228985
0.228005
0.233934
0.26764
0.410912
0.608089
0.693034
0.708752
0.678705
0.570839
0.434164
0.383322
0.373339
0.374564
0.39831
0.437766
0.445308
0.438191
0.416812
0.385667
0.369516
0.369984
0.38322
0.399192
0.394407
0.366832
0.30741
0.228345
0.195485
0.18889
0.189274
0.192006
0.199581
0.211401
0.22577
0.24232
0.259975
0.273475
0.279198
0.280157
0.277739
0.272956
0.270877
0.274273
0.289492
0.321701
0.344321
0.348944
0.341551
0.314466
0.283446
0.269063
0.26707
0.271458
0.291038
0.319682
0.336115
0.33772
0.333644
0.320138
0.29308
0.278146
0.277846
0.287841
0.340941
0.377897
0.382286
0.388402
0.425302
0.536774
0.591288
0.614926
0.633784
0.667793
0.723916
0.769489
0.779845
0.768685
0.739676
0.709284
0.705367
0.746232
0.854927
0.915597
0.921548
0.903396
0.831452
0.74871
0.711457
0.582854
0.458948
0.423766
0.426672
0.566632
0.686713
0.643363
0.52518
0.469783
0.425586
0.412195
0.60719
0.65094
0.665592
0.659318
0.593112
0.475569
0.407367
0.385161
0.372974
0.359342
0.322731
0.24522
0.219125
0.215962
0.219564
0.241865
0.325444
0.524035
0.664771
0.701434
0.694116
0.610357
0.47878
0.399875
0.384215
0.384924
0.409643
0.467586
0.494477
0.499731
0.497573
0.489669
0.471101
0.435596
0.406575
0.401899
0.419058
0.443981
0.443177
0.40593
0.329859
0.235454
0.198479
0.19192
0.192794
0.197356
0.205961
0.215727
0.226345
0.236417
0.244495
0.250265
0.255363
0.260389
0.266065
0.272672
0.29027
0.320864
0.345463
0.357703
0.356834
0.343396
0.307522
0.27749
0.271948
0.276622
0.301201
0.341274
0.362927
0.365417
0.362222
0.352743
0.324681
0.295729
0.289686
0.293753
0.326096
0.383016
0.388981
0.390868
0.415728
0.52993
0.593684
0.614438
0.634239
0.677285
0.748171
0.786478
0.794064
0.78849
0.763003
0.721268
0.707554
0.726275
0.809918
0.89246
0.909125
0.900135
0.843571
0.75712
0.713586
0.625078
0.48824
0.448502
0.427253
0.459733
0.619021
0.686552
0.629123
0.526654
0.472153
0.396678
0.371062
0.654394
0.665487
0.721234
0.747588
0.74623
0.679686
0.52655
0.411643
0.383262
0.376698
0.372231
0.337125
0.2462
0.222243
0.225368
0.265401
0.409574
0.610925
0.701409
0.716713
0.679812
0.570524
0.447693
0.403637
0.398363
0.416627
0.481426
0.530175
0.542546
0.541969
0.535611
0.522126
0.511693
0.505358
0.49886
0.494882
0.497115
0.516108
0.514221
0.49189
0.430372
0.327024
0.244055
0.21081
0.202435
0.20312
0.208999
0.217544
0.226873
0.235642
0.243067
0.249636
0.256654
0.265606
0.277863
0.297377
0.32319
0.345708
0.361702
0.366195
0.359748
0.335424
0.288843
0.275346
0.279897
0.310138
0.361759
0.389185
0.396335
0.39743
0.392551
0.373535
0.332708
0.311338
0.311404
0.326627
0.385102
0.399283
0.395687
0.407729
0.49602
0.60833
0.613662
0.632479
0.678323
0.764179
0.799239
0.804497
0.795751
0.762335
0.726677
0.713678
0.725516
0.789318
0.871402
0.894067
0.889649
0.845422
0.764196
0.710918
0.639312
0.508938
0.471459
0.449422
0.446267
0.502741
0.652944
0.684564
0.622158
0.535327
0.479041
0.392112
0.363934
0.788982
0.740663
0.751518
0.802151
0.833943
0.832534
0.749537
0.548747
0.398817
0.377623
0.38152
0.378444
0.314762
0.241682
0.238927
0.302929
0.500281
0.672122
0.728421
0.733108
0.679385
0.559946
0.452221
0.429657
0.446928
0.565617
0.763391
0.85186
0.872627
0.865715
0.809535
0.69174
0.579552
0.535573
0.521543
0.517554
0.521161
0.53322
0.533757
0.524831
0.491298
0.411205
0.317952
0.272889
0.246143
0.234604
0.23105
0.234127
0.240351
0.24813
0.256567
0.266371
0.278888
0.293499
0.309829
0.328559
0.347814
0.363973
0.371604
0.368385
0.352941
0.304878
0.278825
0.281059
0.317037
0.378013
0.409239
0.42682
0.440545
0.442282
0.433062
0.401674
0.358933
0.341688
0.34533
0.382396
0.411652
0.403889
0.401296
0.453802
0.609934
0.63401
0.621323
0.662157
0.765082
0.809498
0.815547
0.799858
0.762221
0.73555
0.726255
0.73943
0.794126
0.859301
0.878811
0.87607
0.838347
0.763118
0.708763
0.640984
0.521165
0.48632
0.477339
0.4653
0.468834
0.554474
0.667901
0.682705
0.621053
0.552242
0.495644
0.401591
0.370807
0.90757
0.863869
0.839819
0.851979
0.894471
0.913636
0.895147
0.745633
0.490049
0.375859
0.373327
0.389258
0.36718
0.27994
0.264515
0.344411
0.572369
0.723673
0.76214
0.757853
0.688928
0.565115
0.497738
0.502141
0.617092
0.939662
1.21353
1.34408
1.38731
1.38948
1.3658
1.28177
1.11109
0.904179
0.713792
0.569838
0.525302
0.517107
0.515863
0.516968
0.502133
0.463702
0.401305
0.352623
0.321543
0.300867
0.288349
0.283049
0.282556
0.285856
0.292262
0.301028
0.311757
0.3238
0.337378
0.352783
0.367056
0.374863
0.373096
0.362459
0.320965
0.283496
0.282634
0.320826
0.385545
0.423678
0.453115
0.473859
0.485477
0.487308
0.473947
0.43866
0.396316
0.381997
0.391319
0.422977
0.420212
0.405207
0.421612
0.553504
0.653616
0.640338
0.629385
0.740687
0.812817
0.826337
0.811752
0.780268
0.757079
0.753233
0.769031
0.812627
0.8521
0.863916
0.859965
0.825593
0.760558
0.706707
0.636665
0.525269
0.495495
0.491875
0.486312
0.476065
0.484846
0.593809
0.674128
0.682518
0.624989
0.57188
0.523226
0.430555
0.385508
0.948423
0.946684
0.926218
0.9273
0.952898
0.977177
0.978348
0.867804
0.596365
0.38831
0.3685
0.386988
0.390359
0.321748
0.292655
0.375863
0.62423
0.770786
0.803946
0.797359
0.724122
0.632151
0.616272
0.654604
0.839875
1.18515
1.3839
1.46166
1.4951
1.51503
1.52497
1.52246
1.50542
1.45032
1.31915
1.09759
0.847745
0.653218
0.529082
0.488863
0.477769
0.462986
0.441335
0.420801
0.401596
0.378259
0.35738
0.343385
0.33505
0.331401
0.332141
0.335914
0.342678
0.35131
0.361713
0.371884
0.377327
0.375634
0.367211
0.333057
0.29016
0.285489
0.320354
0.376702
0.429698
0.468235
0.484634
0.495002
0.506259
0.511672
0.504214
0.481566
0.448154
0.433201
0.438611
0.43988
0.423293
0.408932
0.470516
0.616922
0.663999
0.638189
0.661199
0.798743
0.832076
0.829455
0.803698
0.787068
0.790384
0.803066
0.825699
0.845871
0.851975
0.845382
0.81392
0.757987
0.702473
0.624283
0.522649
0.500487
0.499046
0.497774
0.485354
0.483187
0.507558
0.607887
0.678598
0.685755
0.633407
0.590741
0.552292
0.466163
0.400142
0.950661
0.979934
0.99116
0.989177
1.0065
1.02796
1.0305
0.936904
0.658713
0.404922
0.370611
0.382549
0.401445
0.359229
0.321143
0.399333
0.669858
0.829957
0.867202
0.86659
0.826003
0.790694
0.787953
0.865529
1.08212
1.2706
1.32908
1.34372
1.33409
1.32088
1.33972
1.39705
1.45102
1.47057
1.47327
1.42812
1.31041
1.13951
0.881343
0.666525
0.53929
0.469785
0.438888
0.425669
0.420343
0.41782
0.408503
0.39634
0.38481
0.376287
0.371408
0.369878
0.371065
0.374237
0.378027
0.379356
0.376765
0.369048
0.340062
0.298215
0.289679
0.309809
0.362586
0.432203
0.469492
0.48577
0.494956
0.504211
0.517721
0.525765
0.52931
0.523099
0.505438
0.483206
0.468611
0.448532
0.426903
0.424105
0.517379
0.636596
0.665744
0.644022
0.711298
0.820022
0.842278
0.827858
0.812649
0.814102
0.822317
0.831251
0.840825
0.844037
0.835282
0.806424
0.757406
0.698344
0.607809
0.516618
0.500438
0.500277
0.501215
0.492427
0.483618
0.486123
0.513902
0.61001
0.683192
0.694084
0.649133
0.606568
0.580919
0.508306
0.428398
0.855996
0.995912
1.02616
1.04206
1.05477
1.06797
1.05842
0.941316
0.612224
0.404551
0.375761
0.379935
0.406129
0.387703
0.347043
0.407352
0.690847
0.889685
0.953557
0.9667
0.965277
0.966033
1.0072
1.10499
1.18195
1.19751
1.16473
1.02919
0.919987
0.870436
0.854884
0.924881
1.08779
1.22859
1.30406
1.33718
1.33937
1.25299
1.11761
0.955163
0.823865
0.662149
0.516187
0.449747
0.422635
0.415295
0.412194
0.409693
0.4047
0.398711
0.392909
0.388192
0.384768
0.382553
0.38027
0.376647
0.368315
0.341527
0.306004
0.294295
0.303063
0.353183
0.422934
0.463039
0.480334
0.490987
0.501221
0.514886
0.530576
0.538255
0.54047
0.541611
0.536324
0.520736
0.489757
0.459994
0.439141
0.448158
0.535678
0.642247
0.659927
0.652197
0.734299
0.831076
0.849787
0.834785
0.827653
0.831765
0.836075
0.840276
0.840212
0.830828
0.805814
0.763378
0.699276
0.595506
0.511682
0.497481
0.497778
0.498317
0.489683
0.479332
0.478551
0.48465
0.512945
0.604386
0.683396
0.702071
0.672469
0.623813
0.60702
0.554708
0.477741
0.764056
0.970113
1.05181
1.07964
1.09404
1.0953
1.04475
0.780254
0.468914
0.404174
0.384433
0.381389
0.408338
0.408344
0.369402
0.407054
0.688273
0.93563
1.03727
1.07708
1.09496
1.11599
1.15148
1.16245
1.13082
1.04278
0.844996
0.600579
0.514397
0.479966
0.467098
0.487321
0.571652
0.740062
0.933381
1.05728
1.1179
1.1386
1.05551
0.900178
0.859255
0.84118
0.787916
0.675185
0.49309
0.419869
0.405945
0.39807
0.397537
0.395396
0.391491
0.386993
0.382627
0.378867
0.373797
0.36276
0.337741
0.311594
0.30026
0.302083
0.339562
0.407168
0.452238
0.470669
0.483462
0.496719
0.512628
0.527218
0.536175
0.542948
0.547698
0.550768
0.552275
0.546565
0.523036
0.485027
0.45885
0.465867
0.541128
0.637317
0.653371
0.658698
0.745385
0.839846
0.858806
0.84348
0.839426
0.84326
0.843504
0.843145
0.834226
0.814049
0.776064
0.708714
0.596004
0.510247
0.494951
0.493949
0.491203
0.47331
0.46074
0.459879
0.467175
0.479349
0.502022
0.572193
0.670282
0.705077
0.703289
0.646456
0.631616
0.603954
0.54009
0.802573
0.997722
1.08027
1.10928
1.11528
1.06569
0.819288
0.496809
0.422698
0.405954
0.396993
0.387244
0.410146
0.421956
0.387045
0.402553
0.66177
0.954882
1.10708
1.16381
1.18532
1.1892
1.1787
1.12142
1.01023
0.772115
0.519876
0.440973
0.410443
0.392791
0.379628
0.374199
0.377842
0.407527
0.499237
0.700744
0.840428
0.909668
0.929304
0.818249
0.684105
0.691744
0.754977
0.774987
0.726612
0.558657
0.425047
0.393754
0.379705
0.373359
0.371581
0.369844
0.365704
0.35872
0.347112
0.330407
0.31547
0.306593
0.305418
0.328441
0.386561
0.437442
0.459538
0.471445
0.487211
0.508388
0.530785
0.543356
0.549692
0.55365
0.556397
0.558877
0.561719
0.56188
0.553259
0.517586
0.478624
0.475909
0.527214
0.617979
0.644328
0.657033
0.738067
0.844292
0.86899
0.857445
0.85244
0.854713
0.851225
0.845127
0.827163
0.790849
0.721487
0.607382
0.51141
0.492166
0.490277
0.48445
0.450479
0.427201
0.423777
0.427175
0.443675
0.463276
0.48077
0.528892
0.631551
0.703346
0.721571
0.696033
0.65412
0.64379
0.608434
0.931645
1.03386
1.07941
1.07747
0.985697
0.742932
0.473144
0.425513
0.420752
0.421663
0.420085
0.401438
0.411569
0.431401
0.402584
0.398118
0.602027
0.941306
1.13889
1.21329
1.22348
1.20731
1.15948
1.03826
0.805064
0.544056
0.440729
0.411349
0.39621
0.380648
0.360148
0.349135
0.344317
0.34312
0.355304
0.402296
0.561479
0.730951
0.817926
0.836661
0.675359
0.516055
0.542296
0.654738
0.723053
0.716774
0.593031
0.452539
0.388192
0.367904
0.357459
0.350261
0.343508
0.336894
0.328935
0.3203
0.313259
0.311967
0.325113
0.365581
0.418423
0.446329
0.458304
0.472844
0.497856
0.53276
0.56334
0.578359
0.58421
0.580771
0.576774
0.574227
0.572872
0.57322
0.570303
0.555149
0.503549
0.485755
0.501151
0.578119
0.624555
0.642529
0.699716
0.835674
0.877359
0.879579
0.868682
0.869433
0.861259
0.841881
0.80491
0.734698
0.618065
0.509432
0.48604
0.485565
0.482578
0.445034
0.389308
0.375049
0.372019
0.377419
0.403632
0.431812
0.44912
0.485615
0.550644
0.665779
0.719521
0.733766
0.69227
0.667759
0.659575
0.903385
0.927793
0.866746
0.727608
0.55816
0.457242
0.436784
0.448125
0.469744
0.478535
0.467673
0.427271
0.416726
0.437665
0.417214
0.394842
0.526746
0.889025
1.12438
1.22172
1.22763
1.19893
1.1221
0.94007
0.681771
0.482578
0.427275
0.409287
0.401371
0.390631
0.365319
0.341737
0.331419
0.326584
0.32488
0.329895
0.358067
0.472021
0.664115
0.766772
0.782333
0.535029
0.432349
0.451448
0.58641
0.676359
0.677426
0.606993
0.494087
0.408868
0.371526
0.354728
0.344307
0.336506
0.32922
0.323502
0.323037
0.329868
0.352744
0.397303
0.430962
0.44497
0.45667
0.478672
0.518656
0.5783
0.629378
0.654467
0.6634
0.649781
0.626643
0.610989
0.599933
0.592312
0.586861
0.578623
0.549748
0.503429
0.497602
0.525126
0.589223
0.619694
0.652755
0.799447
0.878715
0.895358
0.885772
0.880479
0.863014
0.826142
0.756311
0.637168
0.507993
0.475981
0.47668
0.481816
0.460227
0.38401
0.327999
0.31431
0.31137
0.318096
0.347264
0.382559
0.406876
0.441454
0.473872
0.55692
0.673043
0.730595
0.748322
0.707519
0.688246
0.595115
0.548037
0.495391
0.466508
0.457298
0.473097
0.499449
0.517052
0.534838
0.528319
0.503912
0.454347
0.433793
0.446462
0.433156
0.394244
0.454672
0.783662
1.07811
1.19908
1.21705
1.18325
1.09433
0.9101
0.658231
0.475212
0.433176
0.430403
0.429922
0.421137
0.386258
0.349693
0.329637
0.319798
0.314885
0.314045
0.315942
0.332599
0.414162
0.640037
0.777125
0.742959
0.450944
0.390098
0.410144
0.502035
0.613933
0.620185
0.581189
0.518516
0.456552
0.412438
0.385028
0.365789
0.353299
0.344032
0.342406
0.350073
0.380786
0.413836
0.430859
0.441109
0.457395
0.493257
0.570193
0.655502
0.703589
0.723062
0.737018
0.744962
0.731999
0.695744
0.66073
0.638658
0.62207
0.611638
0.599414
0.542359
0.511511
0.512377
0.534298
0.582036
0.616859
0.703893
0.856948
0.898693
0.900325
0.883394
0.857647
0.795185
0.680705
0.525284
0.464267
0.46013
0.477912
0.476049
0.42323
0.323021
0.281533
0.273449
0.272191
0.276482
0.290327
0.312747
0.342938
0.38265
0.417306
0.462657
0.547175
0.672185
0.742254
0.768297
0.734854
0.44989
0.461186
0.480434
0.501505
0.520756
0.527346
0.532509
0.557227
0.5671
0.554845
0.521147
0.473154
0.453261
0.456684
0.448641
0.397857
0.407387
0.62353
0.982683
1.15894
1.19456
1.17127
1.08962
0.910511
0.677725
0.503679
0.467128
0.466626
0.46854
0.455084
0.405767
0.36378
0.337483
0.322738
0.311247
0.307482
0.306947
0.308418
0.318074
0.378983
0.6326
0.784612
0.684497
0.443465
0.381767
0.38126
0.434962
0.523623
0.553038
0.528326
0.494042
0.453609
0.421734
0.394593
0.375098
0.359567
0.358429
0.372037
0.399228
0.417195
0.42653
0.437552
0.465127
0.546261
0.653473
0.709432
0.726397
0.736637
0.75444
0.776679
0.795659
0.800943
0.7794
0.736692
0.696455
0.669204
0.647922
0.638183
0.560376
0.519241
0.517002
0.528341
0.565908
0.60951
0.772272
0.88406
0.905231
0.887732
0.847735
0.755588
0.594902
0.462215
0.439998
0.454607
0.478248
0.468355
0.393069
0.292338
0.266235
0.261809
0.261356
0.265175
0.272557
0.278674
0.287483
0.307005
0.346728
0.394601
0.440632
0.52419
0.659585
0.750014
0.789703
0.493848
0.536282
0.555828
0.561005
0.557164
0.5499
0.553227
0.578029
0.592555
0.581641
0.544748
0.492326
0.472429
0.468268
0.462899
0.410487
0.386466
0.479711
0.816359
1.08181
1.16231
1.15581
1.10611
0.976426
0.789361
0.619226
0.544916
0.526133
0.520621
0.497251
0.450058
0.397015
0.353845
0.327932
0.313417
0.306709
0.303551
0.30305
0.304458
0.311003
0.373668
0.672923
0.76096
0.683137
0.464985
0.382484
0.367828
0.385601
0.432911
0.472083
0.470841
0.446953
0.419413
0.395981
0.378956
0.369731
0.373371
0.38954
0.4056
0.4143
0.420198
0.43559
0.495418
0.625566
0.706454
0.727222
0.728631
0.729205
0.740395
0.770668
0.805415
0.832326
0.850914
0.852783
0.830135
0.784966
0.73919
0.710645
0.675481
0.581347
0.529474
0.517007
0.521561
0.551761
0.610322
0.811354
0.893888
0.895462
0.845821
0.732208
0.541549
0.430732
0.418275
0.448459
0.477808
0.467779
0.388644
0.287011
0.262291
0.258331
0.25811
0.262406
0.268916
0.27216
0.274782
0.278665
0.288053
0.313353
0.364891
0.416243
0.488279
0.631376
0.744956
0.589774
0.613709
0.621393
0.619894
0.598918
0.577006
0.568137
0.57812
0.605323
0.600008
0.572807
0.51819
0.49506
0.485032
0.47749
0.435481
0.380873
0.4013
0.585405
0.933375
1.10489
1.12863
1.10395
1.03602
0.909542
0.765288
0.66699
0.621354
0.596039
0.564353
0.521485
0.449668
0.389101
0.345927
0.31921
0.307663
0.304304
0.303117
0.301848
0.303682
0.311983
0.419718
0.678877
0.739743
0.680841
0.49166
0.383892
0.367444
0.367489
0.380735