/*--------------------------------*- C++ -*----------------------------------*\
  =========                 |
  \\      /  F ield         | OpenFOAM: The Open Source CFD Toolbox
   \\    /   O peration     | Website:  https://openfoam.org
    \\  /    A nd           | Version:  10
     \\/     M anipulation  |
\*---------------------------------------------------------------------------*/
FoamFile
{
    format      ascii;
    class       volScalarField;
    location    "0.849234";
    object      T;
}
// * * * * * * * * * * * * * * * * * * * * * * * * * * * * * * * * * * * * * //

dimensions      [0 0 0 1 0 0 0];

internalField   nonuniform List<scalar> 
16320
(
0.0060337
0.00659642
0.00733012
0.00827602
0.00936959
0.00986976
0.0100183
0.00995874
0.00907457
0.00641721
0.00457658
0.00430102
0.0045833
0.00568899
0.0082013
0.011276
0.0122876
0.0124887
0.0124972
0.0122807
0.0118594
0.0113347
0.0107436
0.0101405
0.00967115
0.00920123
0.00885936
0.00852429
0.00814217
0.00777345
0.00739303
0.00693115
0.00644655
0.00596763
0.00548507
0.0050445
0.00462652
0.00427878
0.00390225
0.00360075
0.00333604
0.0030826
0.00290543
0.00280395
0.00269906
0.00250643
0.00221088
0.00191602
0.00167995
0.00153488
0.00148101
0.00148313
0.00150874
0.00160388
0.00187612
0.00256437
0.00348339
0.00403757
0.00433255
0.00494271
0.00627895
0.0074608
0.00771923
0.00742268
0.00699299
0.00705495
0.00749237
0.0076339
0.00747785
0.00696046
0.00614172
0.00525664
0.00451933
0.00398855
0.00369573
0.00360513
0.0036211
0.00378533
0.00443196
0.0062389
0.00895399
0.0108402
0.0114688
0.0113452
0.00988417
0.00665419
0.00451408
0.00336402
0.00276442
0.00251271
0.0024327
0.00239695
0.00231538
0.0022911
0.00232768
0.00237292
0.00237945
0.00246123
0.00290981
0.00337749
0.00310819
0.00291046
0.00290571
0.00347759
0.00533599
0.00605336
0.00549104
0.00362574
0.00323673
0.00322708
0.00344054
0.00372356
0.00376256
0.00601236
0.00653091
0.00716485
0.00790526
0.00867692
0.0095497
0.0099553
0.0100757
0.00990084
0.00852174
0.0056189
0.00443025
0.00441317
0.00504186
0.00676303
0.00994747
0.0119724
0.0125553
0.012721
0.0127404
0.0126471
0.0124634
0.0122235
0.01191
0.0115664
0.0110289
0.0104809
0.00987011
0.00915276
0.00850437
0.0078931
0.00725853
0.0066504
0.00608842
0.00554249
0.00505941
0.00459299
0.00419896
0.00377933
0.00342061
0.00311466
0.00282973
0.00259755
0.00244746
0.00232552
0.00220579
0.00204837
0.0018543
0.00165549
0.00150679
0.00144103
0.00143668
0.00145523
0.00151051
0.00167191
0.00209954
0.00292312
0.00341225
0.00372576
0.00441137
0.0059131
0.00725069
0.00756457
0.00730156
0.00700087
0.00712268
0.00760584
0.0077055
0.00752811
0.00701695
0.00636032
0.00569183
0.00504618
0.00447151
0.0040726
0.00389302
0.00387837
0.00399329
0.00445801
0.00578176
0.00806722
0.010099
0.01128
0.0115294
0.0112038
0.00940912
0.00619128
0.00427498
0.00327759
0.00278863
0.00259773
0.00253687
0.00246828
0.00236064
0.00234334
0.00237274
0.00239614
0.00242246
0.00256888
0.00301381
0.00310357
0.00285154
0.00276637
0.0030717
0.00439373
0.0060002
0.00597797
0.00392295
0.00334908
0.00335819
0.00370372
0.00391747
0.00390206
0.00602562
0.00651012
0.00708565
0.00771799
0.0082931
0.00883602
0.00952703
0.00986311
0.00989058
0.0092005
0.00682841
0.00484028
0.00444668
0.00480276
0.00611738
0.00881673
0.0114897
0.0124815
0.0128456
0.0129926
0.0130377
0.0130293
0.0129734
0.0128648
0.0127171
0.0124731
0.0121635
0.0117611
0.0112127
0.0104953
0.00968389
0.0087232
0.00774561
0.00688595
0.00608309
0.00540587
0.0047925
0.0043087
0.0038302
0.00343205
0.00309941
0.00278084
0.00251631
0.00231255
0.00215776
0.00202697
0.00190176
0.00175808
0.00160941
0.00148153
0.00141234
0.00140294
0.00141584
0.00145192
0.00155273
0.00180161
0.00239573
0.00280601
0.00316763
0.003966
0.00565785
0.00710301
0.00743795
0.00720198
0.00701601
0.00720811
0.00773052
0.00779684
0.00756876
0.00703811
0.00667869
0.00639741
0.00598413
0.00537184
0.00474052
0.00434421
0.00420826
0.00424184
0.00449453
0.00528506
0.00701873
0.00889538
0.0104308
0.0112524
0.0113101
0.0107171
0.00846757
0.00555678
0.0039816
0.00317993
0.00283817
0.00271644
0.0026597
0.00252955
0.00241093
0.00239455
0.00241377
0.00242996
0.00248028
0.00269589
0.00293413
0.0027993
0.00267127
0.00286322
0.00386783
0.00581477
0.00628383
0.00420618
0.00343001
0.0034614
0.00397105
0.00416975
0.00409495
0.00605667
0.0064553
0.00690501
0.00734512
0.00777157
0.00828044
0.00896972
0.00945986
0.00953406
0.00900034
0.00684989
0.00501946
0.00458849
0.00476958
0.00596898
0.00816282
0.010952
0.0124139
0.0129324
0.0131435
0.0132413
0.0132818
0.0132887
0.0132616
0.0132043
0.0131008
0.0129392
0.0127136
0.0123964
0.0119656
0.0114636
0.0107546
0.00991019
0.00895066
0.00782519
0.00674734
0.00570617
0.00491322
0.00419805
0.00362834
0.0031925
0.00282179
0.00252311
0.00230007
0.0021156
0.00196941
0.00183903
0.00170952
0.00158419
0.00147096
0.00140149
0.00139093
0.00139988
0.00142856
0.00148364
0.00164532
0.0020224
0.00233757
0.00275415
0.00367566
0.00553622
0.00701957
0.00733305
0.00712346
0.00704147
0.0073243
0.00786855
0.00789767
0.007595
0.00719774
0.00719104
0.00734049
0.00731337
0.00690653
0.00587927
0.00508582
0.0046591
0.00453886
0.00461114
0.00496322
0.00592197
0.00744522
0.00899029
0.0102642
0.0108448
0.0107443
0.00962421
0.00696367
0.00482698
0.00365552
0.00310922
0.00291504
0.00285366
0.00277364
0.00257627
0.00245931
0.00244298
0.00245143
0.00247283
0.00255161
0.0027339
0.00266221
0.00258657
0.00277359
0.00350929
0.005434
0.0063896
0.00447159
0.0035036
0.00355303
0.00419718
0.00440646
0.00428631
0.00607994
0.00633387
0.00654025
0.00672112
0.00701768
0.00756427
0.00834811
0.00873988
0.00880905
0.00833672
0.00646845
0.00500194
0.00468706
0.0048342
0.00601804
0.00817418
0.0109098
0.0124691
0.0130208
0.0132398
0.0133364
0.0133832
0.0134048
0.0134019
0.0133739
0.0133178
0.0132169
0.0130722
0.0128831
0.012623
0.0123199
0.0118697
0.0113003
0.0106607
0.00978276
0.00886282
0.00772127
0.00659232
0.00541233
0.00440202
0.00365674
0.0030642
0.00263634
0.00234077
0.00212917
0.00196378
0.00182589
0.00169598
0.00157676
0.00146958
0.00140036
0.0013868
0.00139441
0.00141231
0.00145234
0.00154617
0.00179984
0.00206885
0.00252622
0.003547
0.00553288
0.00699596
0.00724735
0.00707272
0.00707111
0.00748228
0.00799818
0.00798494
0.0076355
0.00751318
0.00765317
0.00794979
0.00803791
0.00788723
0.00747382
0.00621779
0.00536265
0.00494098
0.00483742
0.00494286
0.00526583
0.00612183
0.00732959
0.00875899
0.00977734
0.010044
0.00964629
0.00764157
0.00533689
0.0040332
0.00335283
0.00308175
0.00301433
0.00297292
0.00283622
0.00259235
0.00249782
0.00248233
0.00248514
0.00252199
0.00262075
0.00258315
0.0025583
0.00273316
0.00338388
0.00512979
0.00649762
0.00461661
0.00356526
0.0036458
0.00437933
0.0045762
0.00442178
0.00608992
0.00622732
0.00624938
0.0062379
0.00626361
0.00660927
0.00716605
0.00750927
0.00757199
0.00708805
0.00564047
0.00496603
0.00484621
0.00504233
0.00615322
0.00834167
0.0110761
0.0125667
0.0130538
0.0132562
0.0133554
0.0134232
0.0134692
0.0134852
0.0134783
0.0134461
0.0133867
0.0132893
0.0131595
0.0129814
0.0127613
0.0124446
0.0120431
0.0115861
0.0109397
0.0102684
0.00935673
0.00842151
0.00729856
0.0060979
0.00494623
0.00386155
0.00307647
0.00256326
0.00222398
0.0020062
0.00184092
0.00170245
0.00158137
0.00147235
0.0014011
0.00138612
0.00138939
0.001405
0.00142927
0.00150718
0.00166731
0.00194062
0.0024347
0.00357265
0.0056655
0.00701801
0.00717826
0.00704312
0.00711216
0.00768654
0.0081323
0.00807103
0.00781547
0.00781468
0.00795036
0.00814421
0.00819765
0.0082268
0.00800848
0.0076208
0.00638337
0.00555744
0.00516024
0.00504878
0.00515737
0.00534582
0.00611547
0.00723456
0.00845134
0.00897024
0.00889959
0.00773056
0.00545715
0.00415295
0.00350001
0.00321194
0.00314201
0.00312556
0.00306785
0.00281591
0.00259214
0.00252468
0.00251111
0.00253155
0.00257501
0.00255135
0.00255036
0.00272514
0.00332416
0.00498336
0.00652101
0.00471573
0.0036016
0.00375417
0.00451629
0.0046688
0.00448807
0.00606694
0.00615286
0.00615247
0.00604785
0.00588142
0.0058435
0.00595303
0.00610306
0.00612798
0.00582779
0.00520487
0.00502945
0.00502067
0.00532132
0.00645295
0.00875013
0.0114549
0.0125819
0.0129824
0.013185
0.0133956
0.0135014
0.0135495
0.013572
0.0135724
0.0135564
0.0135247
0.0134736
0.0133996
0.0132909
0.0131424
0.0129214
0.0126213
0.0122473
0.0117213
0.0111623
0.0104084
0.00962694
0.0087189
0.00763401
0.00655011
0.00536
0.00417182
0.00322317
0.00257641
0.00217511
0.00192476
0.00174427
0.0016031
0.00148764
0.00141171
0.00138992
0.00139278
0.00139817
0.00142492
0.00148386
0.0016415
0.00189022
0.0024672
0.00374274
0.005958
0.00709395
0.00712753
0.00703081
0.00719327
0.00791529
0.00826381
0.0081781
0.00802005
0.00802283
0.00810571
0.00819834
0.0082339
0.00822244
0.00823885
0.00797438
0.00748279
0.00634458
0.00557696
0.0052546
0.00514293
0.00527297
0.00541875
0.00641622
0.00738005
0.00787314
0.00786869
0.00720798
0.00536497
0.00414276
0.00354307
0.00330226
0.0032522
0.00325457
0.00323084
0.00305517
0.00271085
0.00258053
0.00254111
0.00255266
0.00257164
0.00254758
0.00255676
0.00277535
0.00331676
0.00494286
0.00653972
0.00474542
0.00361893
0.00388274
0.00462709
0.00473247
0.0045482
0.00600705
0.00612367
0.00613285
0.00601742
0.00575482
0.00560098
0.00555969
0.00554392
0.00549708
0.00532173
0.00517602
0.00514753
0.00523763
0.00573521
0.0070792
0.00941875
0.0116418
0.0124804
0.0128558
0.0131605
0.0134267
0.0135261
0.0135742
0.0135963
0.0135971
0.0135842
0.0135636
0.0135377
0.0135031
0.0134539
0.0133823
0.0132738
0.0131126
0.0128737
0.0124981
0.0120228
0.0113522
0.0105782
0.00973133
0.00876597
0.00780026
0.00666948
0.0054536
0.0043338
0.00339324
0.00267055
0.0021998
0.00189978
0.00169496
0.00154321
0.00144142
0.00141104
0.00140514
0.00141338
0.00142454
0.00149863
0.00162319
0.00196163
0.00254094
0.00426204
0.00644844
0.00718171
0.00708378
0.0070307
0.00733439
0.0081528
0.00839411
0.00833515
0.00819413
0.008159
0.00816753
0.00820764
0.00822328
0.00822192
0.00816118
0.00814155
0.00781433
0.00709584
0.00612704
0.00547595
0.00526888
0.00522828
0.00543256
0.00594544
0.00670835
0.00697705
0.00688459
0.00618245
0.00478292
0.0039341
0.00351338
0.00335142
0.00332779
0.0033591
0.00335835
0.00324707
0.00285438
0.00264214
0.00257742
0.00257793
0.00257563
0.00255594
0.00260207
0.00290092
0.00342601
0.00507918
0.00652705
0.00471014
0.00362859
0.00402185
0.00470341
0.00476841
0.00463628
0.00591693
0.00611316
0.00614781
0.00604105
0.00576509
0.00556218
0.00549077
0.00545836
0.00541745
0.00536623
0.00535072
0.00540223
0.00568763
0.00640532
0.0077828
0.00979986
0.0115031
0.0122432
0.012688
0.0131635
0.013333
0.013422
0.0134916
0.0135284
0.0135362
0.0135115
0.013477
0.013449
0.013416
0.0133803
0.0133511
0.0132969
0.013225
0.0131259
0.0129684
0.0127424
0.012314
0.011697
0.0108691
0.00984284
0.00885274
0.00778906
0.00662183
0.00542862
0.00437725
0.00348438
0.00278225
0.00227742
0.00192865
0.0016787
0.00152958
0.00146304
0.00145746
0.00145189
0.00148534
0.00151914
0.00173126
0.00201664
0.00310319
0.00525038
0.00700321
0.0072288
0.00702072
0.00704036
0.00757267
0.00832902
0.00847092
0.00840353
0.00825908
0.00820061
0.00818655
0.00817698
0.008154
0.00811645
0.00809862
0.00800127
0.00793787
0.00749212
0.00663491
0.00582236
0.00535991
0.00531528
0.005402
0.00590446
0.00631563
0.00630006
0.00598276
0.00490764
0.00405121
0.00365476
0.00347023
0.00340042
0.00339563
0.00344231
0.0034624
0.0033779
0.00298108
0.00269244
0.0026081
0.00260033
0.0025908
0.00258162
0.00269277
0.00304239
0.00356719
0.00549793
0.00648172
0.00453832
0.00363431
0.00416904
0.00476369
0.00480888
0.00476286
0.00572935
0.00608878
0.00621939
0.00622778
0.00597141
0.00565547
0.00555253
0.00553245
0.00553836
0.00559718
0.00568526
0.00585333
0.00625674
0.00702806
0.00824578
0.00972955
0.0110107
0.0119462
0.0125801
0.0127955
0.0128522
0.0128681
0.0129072
0.0129668
0.0126224
0.0117218
0.0102961
0.00993164
0.010075
0.010382
0.0110217
0.0117952
0.0124068
0.0127749
0.0128883
0.0128305
0.0127008
0.0124538
0.011988
0.0111493
0.0101008
0.00894528
0.00781848
0.0065851
0.00544557
0.00442405
0.0035393
0.00286459
0.00233909
0.00196384
0.00170181
0.00160495
0.00157146
0.00158992
0.0015869
0.001735
0.00186286
0.00266261
0.00415292
0.00654802
0.00735907
0.00718113
0.00693515
0.00709028
0.00786865
0.0084159
0.00848914
0.00841347
0.00827282
0.0082088
0.00816972
0.00808268
0.00797302
0.00790253
0.00784249
0.00784688
0.00779386
0.0076434
0.00691882
0.00595607
0.00548909
0.00539923
0.00550466
0.00586558
0.00592736
0.00575687
0.00497476
0.0040889
0.00372169
0.00354697
0.00347088
0.00346471
0.00347473
0.00353418
0.0035527
0.00347465
0.00306951
0.0027341
0.00264086
0.0026261
0.00261872
0.00264523
0.0028717
0.00319677
0.00381489
0.00582554
0.00637299
0.00438746
0.0036443
0.00431653
0.00482117
0.00486988
0.00488814
0.00540947
0.00583407
0.00623956
0.00637373
0.00639192
0.00613115
0.00574487
0.00564139
0.00562725
0.00571093
0.00592626
0.0062206
0.00666299
0.00734747
0.00829089
0.00943527
0.0106552
0.0115917
0.0118417
0.0117276
0.0112087
0.0102566
0.00870277
0.0061369
0.00512033
0.00455442
0.00429347
0.00432735
0.00462557
0.00511895
0.00558838
0.00620949
0.00726277
0.00886054
0.0108651
0.0120354
0.01247
0.0124651
0.0123595
0.0120633
0.0114328
0.0103578
0.00918058
0.00792163
0.00672062
0.00557968
0.00452728
0.00364586
0.00295849
0.00239547
0.00204989
0.00187978
0.00186652
0.00184985
0.00197454
0.00203793
0.0027118
0.00381091
0.00616165
0.00744558
0.00741308
0.0069714
0.00688301
0.00722992
0.00808866
0.00842754
0.00844531
0.00836822
0.00825532
0.0081836
0.00805442
0.00783868
0.00766329
0.0075608
0.00754755
0.00763688
0.00767551
0.00757132
0.00698204
0.00596493
0.00552167
0.00548041
0.00557101
0.00567829
0.00553731
0.00499822
0.00406348
0.00371676
0.00358262
0.00350843
0.00348541
0.00348697
0.00350949
0.00359154
0.00361331
0.00352233
0.00308214
0.00274302
0.00266321
0.00264855
0.00266447
0.00276052
0.00309388
0.00333627
0.00420627
0.00609329
0.00614465
0.00419707
0.00367347
0.0044609
0.00488535
0.00495237
0.0050311
0.00495641
0.00533569
0.00581514
0.00632558
0.00653061
0.00658746
0.00648578
0.00601832
0.00585461
0.00582046
0.00593442
0.00628967
0.00674138
0.00737152
0.00820279
0.00929932
0.010432
0.0107512
0.0104019
0.00878979
0.00624312
0.00440723
0.00373391
0.0035302
0.00349244
0.00356027
0.00384357
0.0041501
0.0045583
0.00495772
0.00514552
0.00528148
0.00549985
0.00586554
0.00658101
0.0080633
0.0102081
0.0117539
0.0122042
0.0121703
0.0120279
0.0115778
0.0106861
0.0094419
0.00824637
0.00703701
0.00587527
0.00481743
0.00396141
0.0032304
0.00270807
0.00250256
0.00244734
0.00254794
0.00259358
0.00324625
0.00424953
0.00620163
0.00753815
0.00765641
0.00716574
0.00677111
0.00684429
0.00746094
0.00814493
0.00830886
0.00830412
0.0082534
0.00817657
0.00801573
0.00772395
0.00743545
0.00726912
0.00722003
0.00734588
0.00755604
0.00758507
0.00747472
0.00682056
0.00584601
0.00551285
0.00549194
0.00555493
0.00540856
0.00487899
0.00400108
0.0036816
0.00355622
0.00351558
0.00347433
0.00346461
0.00347381
0.00350998
0.00361055
0.00363347
0.00351588
0.00301897
0.00274052
0.00268399
0.00268229
0.00273455
0.00294045
0.00324155
0.0035528
0.00490762
0.00617398
0.00579891
0.00397691
0.00372335
0.00459753
0.0049701
0.00505326
0.0051787
0.00440244
0.00474864
0.00513888
0.00559922
0.00625029
0.00669131
0.00687115
0.00694506
0.00679083
0.00637856
0.00625809
0.00629728
0.00673263
0.0073403
0.00820167
0.00937274
0.00985406
0.00952797
0.00743041
0.00466281
0.00360287
0.00332044
0.00328056
0.00336893
0.00372893
0.00431886
0.00532192
0.00599932
0.00632462
0.00641531
0.00633781
0.00616308
0.00596397
0.0058319
0.00586067
0.00605852
0.00677061
0.00853864
0.0109332
0.0118644
0.0120348
0.0119809
0.0116798
0.0109486
0.00988568
0.00876311
0.00763609
0.00653818
0.00557834
0.00470457
0.00408388
0.00381147
0.00381444
0.00391039
0.00446031
0.00540434
0.00675608
0.00774783
0.00787896
0.00742172
0.0067565
0.00663638
0.00685427
0.00759401
0.00805173
0.00817244
0.00817094
0.00812325
0.00795541
0.00758179
0.00718017
0.00693811
0.00688607
0.00697074
0.00730304
0.00752008
0.00752082
0.00729598
0.00636445
0.0056187
0.00545722
0.00544886
0.00529493
0.00477149
0.00392569
0.00360536
0.00347882
0.00345351
0.00341856
0.00336829
0.00337551
0.0034083
0.00348971
0.00361456
0.00362628
0.00343121
0.00293294
0.00274097
0.00270589
0.00272183
0.00285521
0.00318955
0.00334798
0.00395705
0.0055783
0.00618345
0.00535271
0.00379947
0.00379116
0.00474332
0.0051087
0.00521049
0.00534071
0.00388617
0.00406293
0.00443403
0.00484172
0.00524809
0.00573571
0.00645915
0.00711719
0.00748339
0.00770198
0.00778793
0.00744809
0.00738598
0.00773651
0.00870642
0.00936183
0.00927743
0.00758981
0.00466013
0.00352258
0.00327059
0.00325646
0.00344432
0.00403503
0.00527817
0.00625796
0.00658529
0.00668887
0.00669204
0.00654059
0.00646856
0.00645729
0.00647136
0.00637333
0.00614715
0.00593083
0.00590619
0.00636762
0.00770473
0.0102948
0.0116517
0.0119633
0.0119619
0.0117658
0.0112342
0.0103834
0.00948047
0.00854713
0.0076556
0.00680787
0.00623458
0.00605338
0.006094
0.00631033
0.00689107
0.00758789
0.00807056
0.00807029
0.00763801
0.00684017
0.00649913
0.00651696
0.00687433
0.00758084
0.00798439
0.00808933
0.0080557
0.00787089
0.0074009
0.00686936
0.00655817
0.00649345
0.00654727
0.00687948
0.00731985
0.00745524
0.00738015
0.00685403
0.00572833
0.00540274
0.00536996
0.00525009
0.00474335
0.00386732
0.00353772
0.00341759
0.00338739
0.00332602
0.00320717
0.00315001
0.00318815
0.00331274
0.00348213
0.0036102
0.00356356
0.00322798
0.0028427
0.00274176
0.0027294
0.0028104
0.00307959
0.00333567
0.00357754
0.00478188
0.00577905
0.00609124
0.00487231
0.00370045
0.00385318
0.00483132
0.00530607
0.00549815
0.00562166
0.00358774
0.0035136
0.00357089
0.0040072
0.00464949
0.00510365
0.00540762
0.0058392
0.00640781
0.00773446
0.00882887
0.00933543
0.00956751
0.00964673
0.00975227
0.00955622
0.00838879
0.0054787
0.00374847
0.00331932
0.00327471
0.00344963
0.00413071
0.00545894
0.00620311
0.0063819
0.00636562
0.00598126
0.00543548
0.00532029
0.00538203
0.00562915
0.00605152
0.00628723
0.00625312
0.00600578
0.00574075
0.00577871
0.00618356
0.00734715
0.00987176
0.0115167
0.0119168
0.0119005
0.0117413
0.0113101
0.0106944
0.0100323
0.00936478
0.00874473
0.00832581
0.00816214
0.00813476
0.00819425
0.00831992
0.00835431
0.00821778
0.00775232
0.00694791
0.00644549
0.00631679
0.00641233
0.00691188
0.00762328
0.00798073
0.00798502
0.00780167
0.00722373
0.0065214
0.00615253
0.00607977
0.00611766
0.00634478
0.00690679
0.00726188
0.007256
0.00699542
0.00590576
0.00533618
0.00528382
0.0052115
0.0047783
0.00380111
0.00347001
0.0033686
0.00331765
0.00320874
0.00302732
0.00293364
0.00297459
0.00309554
0.00329178
0.00349852
0.00356882
0.00340651
0.00298804
0.00278869
0.00275614
0.00278823
0.00300289
0.00331016
0.00346265
0.00422054
0.00535267
0.0058131
0.00579316
0.00438806
0.00365839
0.00394035
0.00485766
0.00545987
0.00604766
0.00625914
0.00351241
0.00323119
0.00311803
0.003121
0.00345842
0.00432399
0.00508644
0.00543535
0.00568041
0.00596263
0.00670541
0.00890741
0.0100383
0.0102507
0.0101386
0.00924224
0.00688457
0.00431821
0.00343642
0.00328324
0.00335082
0.00384413
0.0049339
0.00592447
0.00618514
0.00618787
0.00581598
0.00509922
0.00480668
0.00473526
0.00473018
0.00478076
0.0049461
0.00532649
0.00567734
0.00571565
0.0054607
0.00513367
0.00511951
0.00556412
0.00682829
0.00956387
0.0113403
0.0117364
0.0116958
0.0114458
0.0109865
0.0105052
0.010025
0.00960753
0.009295
0.00908072
0.00889384
0.00870997
0.00850157
0.00826217
0.00775244
0.00698679
0.00645266
0.0061955
0.00617468
0.00637832
0.00707399
0.00780016
0.00791289
0.00772889
0.00704912
0.00616874
0.00575002
0.00566353
0.00567198
0.00578876
0.00625805
0.00685142
0.00697986
0.00687119
0.00618225
0.00526787
0.00519182
0.00517117
0.00486635
0.00382173
0.00343407
0.00334271
0.0032761
0.00311287
0.00287818
0.00280847
0.00285307
0.00294818
0.00312428
0.00337061
0.00349638
0.00344911
0.00311761
0.00283976
0.00278255
0.00279411
0.00295806
0.00326979
0.00344619
0.00392019
0.0049983
0.00544722
0.0057312
0.00534315
0.00400256
0.00364252
0.00401303
0.00482888
0.0054196
0.00647221
0.00693901
0.00328934
0.00318377
0.00289999
0.00277027
0.0027645
0.00303894
0.00395418
0.0051148
0.0055613
0.00572374
0.00584874
0.00651769
0.00897476
0.00999645
0.00990351
0.00843776
0.00547737
0.00371576
0.00326508
0.00322063
0.0034282
0.00411579
0.00527035
0.00586595
0.00596033
0.0057065
0.00494132
0.00448809
0.00437395
0.00435892
0.00438757
0.00447592
0.00454292
0.00457875
0.00462147
0.00464492
0.00460334
0.00441381
0.00440987
0.00459255
0.00523065
0.00687996
0.00922817
0.0106779
0.0111366
0.0111193
0.0108253
0.0104123
0.00998948
0.00961955
0.00932341
0.00906753
0.00880679
0.0084979
0.00811957
0.007577
0.00694124
0.00645916
0.00614268
0.0060361
0.00611279
0.00652216
0.00752842
0.00786217
0.00769282
0.0069012
0.00586913
0.00540796
0.00526358
0.00520479
0.0052309
0.00546359
0.00610682
0.00650929
0.0064971
0.00618927
0.00524962
0.00506689
0.00511743
0.00496677
0.00407737
0.00334275
0.00333638
0.00326577
0.00308006
0.00278874
0.00272406
0.00277071
0.00287243
0.00306733
0.0032844
0.00340692
0.00340173
0.00315867
0.00288051
0.00281116
0.00281664
0.00294604
0.00323481
0.00345267
0.00382057
0.00476872
0.00514588
0.00540055
0.0054512
0.00485555
0.0037762
0.0036356
0.00404075
0.00473425
0.00532719
0.00653226
0.00706277
0.00276366
0.00289847
0.00281479
0.00260939
0.0024982
0.00250426
0.00280142
0.00387426
0.00539284
0.00576021
0.00575307
0.00584412
0.00707268
0.00923111
0.00937657
0.00740904
0.00451484
0.00339104
0.00315201
0.00315552
0.00343638
0.00419684
0.00519804
0.00549812
0.00529783
0.00418377
0.00311303
0.00279075
0.00271753
0.00272391
0.00289569
0.00336723
0.00399522
0.00430513
0.00440494
0.0044241
0.00437499
0.00425978
0.00423781
0.00429557
0.00457879
0.00546577
0.00707519
0.00826294
0.00917589
0.00963729
0.00979493
0.00967035
0.00942047
0.00912995
0.00883386
0.00850722
0.00811485
0.00769363
0.00726306
0.00682638
0.00641977
0.00610756
0.00595413
0.0059776
0.00621007
0.00715031
0.00778901
0.00768989
0.00678575
0.00565097
0.00517694
0.00491957
0.00472352
0.00466576
0.00473142
0.00507268
0.00565594
0.00592872
0.00585919
0.00528887
0.00491903
0.00502099
0.00506027
0.00447735
0.00334255
0.00323146
0.00331701
0.00314188
0.00276108
0.00266409
0.00270522
0.00282723
0.00302986
0.00320642
0.00330214
0.00329183
0.00310057
0.00289102
0.0028358
0.0028437
0.00295967
0.00323141
0.00345618
0.00380068
0.00464039
0.00496436
0.00505186
0.00518331
0.00515437
0.00437576
0.00367028
0.00362679
0.0040291
0.00457156
0.00513275
0.00636309
0.00691894
0.00245064
0.00253001
0.00256635
0.00249961
0.00236441
0.00231463
0.00237663
0.00288572
0.00444953
0.00585248
0.00594054
0.00573486
0.00611209
0.00801504
0.00851759
0.00654702
0.00397283
0.00316313
0.00301708
0.00305562
0.00338456
0.00414286
0.00470465
0.00467924
0.00380151
0.00250215
0.00193703
0.00174726
0.00168896
0.00167814
0.00170146
0.00180794
0.00208193
0.00254551
0.00320719
0.00398093
0.00430982
0.00436914
0.00436495
0.00434734
0.00446683
0.0048345
0.00559516
0.0063789
0.00700851
0.00750005
0.00783519
0.0079956
0.00801764
0.00792444
0.00774117
0.00750406
0.007231
0.00694147
0.00663695
0.00632257
0.00605146
0.00589894
0.00589957
0.00604491
0.00679327
0.00766807
0.00766056
0.00672309
0.0055585
0.00502019
0.00465406
0.00441051
0.0042669
0.0042167
0.00430787
0.0046333
0.00511413
0.00529886
0.00517105
0.0047878
0.00482843
0.00501821
0.00482937
0.00368077
0.00313432
0.00322203
0.00330159
0.00282894
0.00263233
0.00265002
0.00276307
0.00293514
0.00308662
0.00315447
0.00313254
0.00300026
0.00288696
0.00285989
0.00287657
0.00298972
0.00323019
0.00345699
0.00381728
0.00459175
0.00485625
0.00488008
0.00492818
0.00503445
0.00495219
0.00406227
0.00361467
0.00360828
0.00398412
0.00439602
0.00484405
0.00592225
0.00664272
0.00240233
0.00236487
0.00238144
0.00235157
0.00227076
0.00220743
0.0022143
0.00252088
0.00371683
0.00574236
0.00609012
0.00582851
0.00579518
0.00704956
0.00775583
0.00603525
0.00366331
0.00297887
0.00286277
0.00290274
0.00321094
0.00367581
0.00377477
0.00355215
0.00275096
0.00195045
0.00166103
0.00156569
0.00152491
0.00149655
0.00147924
0.00147683
0.00149361
0.00155445
0.00171667
0.00206888
0.00267192
0.00344811
0.00421608
0.00455848
0.00466589
0.0048171
0.00506166
0.0053223
0.0055904
0.0059461
0.00630273
0.00656754
0.0067343
0.00680636
0.00678328
0.00669353
0.00654475
0.00636328
0.00615693
0.00596382
0.00585176
0.00585072
0.00595736
0.00653691
0.00748296
0.00757959
0.00673155
0.00569318
0.00495629
0.00451151
0.00431972
0.00419141
0.00406389
0.00399228
0.00402992
0.00420555
0.00451218
0.00466755
0.00461562
0.00461241
0.00480677
0.00498738
0.00433501
0.00332161
0.0031058
0.0032541
0.00316134
0.00266656
0.00261317
0.0026833
0.00282982
0.00294638
0.00298582
0.00298023
0.00293209
0.00288679
0.00287963
0.00290684
0.0030157
0.00322658
0.00346567
0.00388217
0.00460339
0.0047932
0.00479331
0.00479263
0.0049068
0.0049293
0.00470234
0.00394483
0.0035695
0.00357134
0.00391122
0.00423689
0.00457237
0.00545577
0.00638731
0.00246034
0.00234755
0.00228782
0.00226594
0.00220926
0.00215403
0.00215145
0.00238473
0.00342844
0.00559291
0.00613478
0.00595869
0.00568885
0.00636561
0.00711537
0.00571274
0.00342619
0.00276875
0.00265147
0.00266146
0.00279868
0.00291475
0.00292203
0.00264777
0.002094
0.00177179
0.00167382
0.00163853
0.00163226
0.00162796
0.00158868
0.00151729
0.00146167
0.00144971
0.0014612
0.00152392
0.00167687
0.00193998
0.00252011
0.00332905
0.00409612
0.00469633
0.00505004
0.00522118
0.00529883
0.00534513
0.00548106
0.0056585
0.00583231
0.00596377
0.00603565
0.00604797
0.00601211
0.00593966
0.00585608
0.00580885
0.00582219
0.00591588
0.00638714
0.00726144
0.00745009
0.00694529
0.00590431
0.00492095
0.00449414
0.00430598
0.00418809
0.00407614
0.00394015
0.00385726
0.00381758
0.00385723
0.00399372
0.00418293
0.0043249
0.00453586
0.00478283
0.00483197
0.00397071
0.00324645
0.00312757
0.00325883
0.00297679
0.00263313
0.00261823
0.00272445
0.00283295
0.00288046
0.00289513
0.00289778
0.00288966
0.00289244
0.00292747
0.00302955
0.00321564
0.00347358
0.00397528
0.00464707
0.00478021
0.00476573
0.00474176
0.00481401
0.00489484
0.0048699
0.00461711
0.00390796
0.00352446
0.00350811
0.00379624
0.00410707
0.00432977
0.00498806
0.00595471
0.00280263
0.00237655
0.00227742
0.00221779
0.00217197
0.0021339
0.00215023
0.00242882
0.00375921
0.0056865
0.00612818
0.00606544
0.00567551
0.00594191
0.00662215
0.00562568
0.00332722
0.0025792
0.0024029
0.00236997
0.00237077
0.00236049
0.00225111
0.00202992
0.00186842
0.00181324
0.00182853
0.00202862
0.00222988
0.00231693
0.00232424
0.00212673
0.00180304
0.00160828
0.00153728
0.00152339
0.00154907
0.00168135
0.00190827
0.00225049
0.00263486
0.0032994
0.00424692
0.00486384
0.00522022
0.00533199
0.00538466
0.00542783
0.00550231
0.00558833
0.00566731
0.00572477
0.00575891
0.00577117
0.00578199
0.00581245
0.00591653
0.00634321
0.00705577
0.00731116
0.00707466
0.00604541
0.00501969
0.00454382
0.00434279
0.00420859
0.00408672
0.00394737
0.00380707
0.0037378
0.00371616
0.00371003
0.00375483
0.00388114
0.00414536
0.00443678
0.00467005
0.00459682
0.00386216
0.00324501
0.00318402
0.00324996
0.00291534
0.0026301
0.00262715
0.00273326
0.00281107
0.00284445
0.00286725
0.00287958
0.00289503
0.0029332
0.00302219
0.00318097
0.00345907
0.00404662
0.00468349
0.00479757
0.0047758
0.00475405
0.00482405
0.00491487
0.00491788
0.00485737
0.00460025
0.00392171
0.00350244
0.00344754
0.00364385
0.00397374
0.00412583
0.00455571
0.00532809
0.00320735
0.00250708
0.0022913
0.00220996
0.00216127
0.00214462
0.00224352
0.00300639
0.00499427
0.00577464
0.00606467
0.00610299
0.00568941
0.00567274
0.00624567
0.00564272
0.00333687
0.00244405
0.00219469
0.0021079
0.00206524
0.00201167
0.00192699
0.00187901
0.00189065
0.00200195
0.00241198
0.00333014
0.00383555
0.00405083
0.00410359
0.00388281
0.00327367
0.00251457
0.00200571
0.00179885
0.00173497
0.0017419
0.00191846
0.00228351
0.00242432
0.00250448
0.00271217
0.00321088
0.00442184
0.00520302
0.00540507
0.00553234
0.00555639
0.00559278
0.00564227
0.00569649
0.00574694
0.00578606
0.00584279
0.00599287
0.00639584
0.0069089
0.00714344
0.00706827
0.00626539
0.00519468
0.00463803
0.00441468
0.00425643
0.00410355
0.00394289
0.00380812
0.00372825
0.00367509
0.00364518
0.00363471
0.00364066
0.00369959
0.00389097
0.00422486
0.00449249
0.00445163
0.0038526
0.00330075
0.00324792
0.00325267
0.00290535
0.00263364
0.00262919
0.0027326
0.00279573
0.00282468
0.00285483
0.00287445
0.00291265
0.00298466
0.00312292
0.00340685
0.00403528
0.0046891
0.00481401
0.00480328
0.00481085
0.00497678
0.00509648
0.00509534
0.00501119
0.00488617
0.00467667
0.00412041
0.00354907
0.0034114
0.00346312
0.00381391
0.00394685
0.00416871
0.00470132
0.00311446
0.0024997
0.00229653
0.00221955
0.00218915
0.00227247
0.00294072
0.00482102
0.00562283
0.00582121
0.00592884
0.00605503
0.00569234
0.00550596
0.00596881
0.00570604
0.00344918
0.0023778
0.00203849
0.00192859
0.00187936
0.00185054
0.00183612
0.00188834
0.00204151
0.00259983
0.00379373
0.00440966
0.00467298
0.00481404
0.00491103
0.00492256
0.00482892
0.00444843
0.00361631
0.0025829
0.00218576
0.00206425
0.00206694
0.0024033
0.00290927
0.00291669
0.00272776
0.00269818
0.00292709
0.00387017
0.00507859
0.00551979
0.00573989
0.00584596
0.00587702
0.00589944
0.0059528
0.00604943
0.00622834
0.00651761
0.00680549
0.00697435
0.0069665
0.00645571
0.00545409
0.0047768
0.00450453
0.00434579
0.00416227
0.00395097
0.0037547
0.00364916
0.00359944
0.00357557
0.00356854
0.00357096
0.00357692
0.00360334
0.0036898
0.00397825
0.00433355
0.00439033
0.0039936
0.00343875
0.00332738
0.00329634
0.00296751
0.00264821
0.00262365
0.00271006
0.00277059
0.00279894
0.00283375
0.00286537
0.00292985
0.00305907
0.00334239
0.00395551
0.00467189
0.00483606
0.00483328
0.00487118
0.00521829
0.00548349
0.00551282
0.00545902
0.00525238
0.00503293
0.00486147
0.00443839
0.00374198
0.00339781
0.003353
0.00352157
0.00379221
0.00389453
0.00416061
0.00273836
0.00247047
0.00236254