/*--------------------------------*- C++ -*----------------------------------*\
  =========                 |
  \\      /  F ield         | OpenFOAM: The Open Source CFD Toolbox
   \\    /   O peration     | Website:  https://openfoam.org
    \\  /    A nd           | Version:  10
     \\/     M anipulation  |
\*---------------------------------------------------------------------------*/
FoamFile
{
    format      ascii;
    class       surfaceScalarField;
    location    "0.55123";
    object      phi;
}
// * * * * * * * * * * * * * * * * * * * * * * * * * * * * * * * * * * * * * //

dimensions      [1 0 -1 0 0 0 0];

internalField   nonuniform List<scalar> 
32368
(
0.000125685
-0.000245915
0.000125881
-0.000227976
0.000126977
-0.000195398
0.000126574
-0.000152334
0.000120267
-0.000105756
0.000108888
-5.97421e-05
9.8547e-05
-2.33374e-05
8.70555e-05
8.14913e-06
7.29998e-05
3.57607e-05
5.58164e-05
6.25633e-05
3.71549e-05
8.90794e-05
1.92527e-05
0.000116554
5.73068e-06
0.000146654
2.88342e-07
0.000177539
2.63665e-06
0.000208357
1.25628e-05
0.000238643
2.74639e-05
0.000269297
4.47713e-05
0.000299199
6.22863e-05
0.000326408
7.84498e-05
0.000348549
9.04729e-05
0.000357933
9.8913e-05
0.000345428
0.000109623
0.000332061
0.000121522
0.000317785
0.000134712
0.000297784
0.000151213
0.000278083
0.000162768
0.000249721
0.000171624
0.00021402
0.000174727
0.000175476
0.000169034
0.000128696
0.000153135
8.25338e-05
0.000138623
3.66585e-05
-1.22353e-07
0.000127822
9.58974e-05
-0.000244381
9.55179e-05
-0.000234177
9.71582e-05
-0.000210473
9.83187e-05
-0.000171778
9.27081e-05
-0.000124498
8.05921e-05
-7.38369e-05
7.15283e-05
-3.22806e-05
6.19735e-05
1.95091e-06
4.95922e-05
3.30248e-05
3.4443e-05
6.31674e-05
1.77912e-05
9.30573e-05
2.59291e-06
0.000124163
-8.41225e-06
0.000157033
-1.33305e-05
0.000187592
-1.0498e-05
0.000215842
-8.50205e-07
0.000242946
1.33625e-05
0.000270267
2.99116e-05
0.000297833
4.72505e-05
0.000323799
6.41856e-05
0.000345542
7.84632e-05
0.00035558
9.09507e-05
0.000348406
0.000104857
0.000339155
0.000118973
0.000325676
0.000133985
0.000305961
0.00014918
0.000284409
0.000161001
0.000253691
0.000170968
0.000219698
0.00017407
0.000178172
0.000170335
0.000131596
0.000156038
8.35101e-05
0.000146129
3.98284e-05
4.71856e-06
0.000138757
8.20746e-05
-0.000223014
8.18885e-05
-0.000217333
8.52247e-05
-0.000206306
8.86302e-05
-0.000182132
8.53864e-05
-0.000140966
7.24057e-05
-9.15728e-05
6.27267e-05
-4.33843e-05
5.28079e-05
-5.00187e-06
4.05421e-05
2.88482e-05
2.62007e-05
6.12898e-05
1.0686e-05
9.34253e-05
-3.81352e-06
0.000127425
-1.51401e-05
0.000162672
-2.03856e-05
0.000193863
-1.86446e-05
0.000221588
-1.05608e-05
0.000247225
2.4364e-06
0.000271898
1.78893e-05
0.000296368
3.50241e-05
0.000320232
5.25236e-05
0.000340773
6.8675e-05
0.000350946
8.4286e-05
0.000348445
0.000100431
0.000342061
0.000116024
0.000328986
0.000131885
0.000309733
0.000147018
0.00028652
0.000160182
0.000256084
0.000169963
0.000219574
0.000173189
0.00017494
0.000170376
0.000128398
0.000159108
7.83186e-05
0.000153518
3.8032e-05
5.13278e-06
0.000150787
9.15705e-05
-0.000214402
8.50819e-05
-0.000202589
8.90893e-05
-0.000186619
9.47179e-05
-0.000169769
9.45754e-05
-0.000146179
8.36348e-05
-0.000105414
6.94495e-05
-5.67328e-05
5.79542e-05
-1.2531e-05
4.43647e-05
2.48446e-05
2.93107e-05
5.91085e-05
1.38494e-05
9.17312e-05
-1.12188e-06
0.000127602
-1.33662e-05
0.000164294
-2.07222e-05
0.0001964
-2.12834e-05
0.000224645
-1.56334e-05
0.000250471
-4.70656e-06
0.000274812
9.8653e-06
0.000298035
2.6503e-05
0.00031978
4.40044e-05
0.000337775
6.15854e-05
0.000347571
7.92451e-05
0.000348226
9.67899e-05
0.000343133
0.000113596
0.000330145
0.000130583
0.000310979
0.000146263
0.000285806
0.000159537
0.000252458
0.000167914
0.000211487
0.000171902
0.00016553
0.000167824
0.000116354
0.000161826
6.87796e-05
0.000161065
3.17855e-05
1.1107e-06
0.000164485
0.000132854
-0.00021442
0.000120877
-0.000200651
0.00011078
-0.00018228
0.000107164
-0.000158523
0.000111909
-0.000133514
0.000106937
-0.000107324
9.15738e-05
-6.63932e-05
7.45837e-05
-2.01618e-05
5.88657e-05
2.19064e-05
4.21839e-05
5.78792e-05
2.57431e-05
9.07927e-05
9.8396e-06
0.000124573
-4.11881e-06
0.000163376
-1.39787e-05
0.000197271
-1.7907e-05
0.000226278
-1.54559e-05
0.000251671
-7.09441e-06
0.000275709
5.8164e-06
0.000298882
2.16462e-05
0.000319983
3.94469e-05
0.000336733
5.78979e-05
0.000345913
7.67266e-05
0.000347562
9.51648e-05
0.000341941
0.000112709
0.000327858
0.00012994
0.000306437
0.000144784
0.000277049
0.000156404
0.000239686
0.000164972
0.000196709
0.000168459
0.000148598
0.000164013
9.78321e-05
0.000164831
5.63803e-05
0.000168103
2.15411e-05
-5.70433e-06
0.000179682
0.000188032
-0.000216485
0.00017368
-0.000199468
0.000159076
-0.000178985
0.000145213
-0.000154067
0.000133179
-0.000126042
0.000131806
-9.503e-05
0.000122538
-6.46726e-05
0.000104197
-2.25054e-05
8.24671e-05
1.91663e-05
6.31273e-05
5.83974e-05
4.41219e-05
9.21523e-05
2.7334e-05
0.000123797
1.11958e-05
0.000158084
-1.32215e-06
0.000194853
-8.63337e-06
0.000226363
-9.28979e-06
0.000252343
-4.16316e-06
0.000275268
6.1826e-06
0.000296523
2.06612e-05
0.000315983
3.78605e-05
0.000331375
5.63996e-05
0.000339642
7.54575e-05
0.000340505
9.39794e-05
0.000332854
0.000111165
0.000316292
0.000126929
0.000291511
0.000140561
0.000259096
0.000152257
0.000219524
0.000160455
0.000173297
0.000159852
0.000122876
0.000162667
7.85e-05
0.000168381
4.09221e-05
0.000177759
8.90198e-06
-1.41059e-05
0.000194916
0.000243814
-0.000221217
0.000230676
-0.00020052
0.000215958
-0.000176148
0.000199095
-0.000148129
0.000179396
-0.000116706
0.000160239
-8.47829e-05
0.000149069
-5.02677e-05
0.000133823
-1.70688e-05
0.000113702
2.1587e-05
9.02839e-05
6.08164e-05
6.82014e-05
9.60961e-05
4.81374e-05
0.000127245
3.14081e-05
0.000157092
1.58785e-05
0.000188151
5.31827e-06
0.000220003
1.22969e-06
0.00024943
3.13936e-06
0.000273039
1.08492e-05
0.00029256
2.30468e-05
0.000309052
3.84741e-05
0.000321461
5.57374e-05
0.000327172
7.37283e-05
0.000325471
9.11221e-05
0.000315313
0.000107248
0.000296394
0.000122376
0.000269127
0.000135726
0.000233303
0.000146021
0.000189075
0.000149592
0.000141186
0.000155722
9.74086e-05
0.000163997
5.85391e-05
0.000173963
2.43837e-05
0.000191347
-3.04959e-06
-2.49945e-05
0.00020531
0.000293235
-0.000230052
0.000283013
-0.000206244
0.000270569
-0.000178239
0.000254982
-0.000145892
0.000235784
-0.0001101
0.00021215
-7.29362e-05
0.000187783
-3.72811e-05
0.000170844
-2.46863e-06
0.000149407
3.28455e-05
0.000124291
6.88382e-05
9.77505e-05
0.000104525
7.33538e-05
0.000135043
5.27355e-05
0.000162659
3.5738e-05
0.000188664
2.30841e-05
0.000213523
1.49619e-05
0.000238531
1.34688e-05
0.000262774
1.82398e-05
0.000283228
2.77699e-05
0.000298578
4.06668e-05
0.000308179
5.58068e-05
0.000310715
7.18671e-05
0.000305589
8.77654e-05
0.000291904
0.000103136
0.000268705
0.000116979
0.000235874
0.000126669
0.000195521
0.000134498
0.000152851
0.000144489
0.000111808
0.000155404
7.35576e-05
0.000167139
3.93418e-05
0.000182711
1.0225e-05
0.000195171
-1.50684e-05
-3.38518e-05
0.000203436
0.000335402
-0.000245995
0.000329442
-0.000219376
0.000321038
-0.000187788
0.000308892
-0.000150638
0.000291726
-0.000109366
0.00026762
-6.60157e-05
0.000239922
-2.49534e-05
0.00021255
1.27309e-05
0.00018828
4.79481e-05
0.00016211
8.45347e-05
0.000132217
0.000117799
0.000102658
0.000148297
7.71116e-05
0.000173818
5.65292e-05
0.000196091
4.08174e-05
0.00021558
3.07069e-05
0.000233721
2.62058e-05
0.000250373
2.70018e-05
0.00026494
3.28267e-05
0.000276142
4.29681e-05
0.000282925
5.55675e-05
0.000282167
6.91216e-05
0.000272923
8.24418e-05
0.000254824
9.45272e-05
0.000228674
0.00010553
0.000195696
0.000117497
0.000159335
0.000130193
0.000122131
0.000142996
8.56082e-05
0.000156415
5.25637e-05
0.000169351
2.34545e-05
0.000177089
-1.54268e-06
0.000182712
-2.24489e-05
-3.80919e-05
0.000186418
0.000373589
-0.000272772
0.000372212
-0.000243479
0.000367988
-0.000206703
0.000359571
-0.000162531
0.000345292
-0.000114235
0.000323798
-6.39409e-05
0.000292246
-1.49543e-05
0.000258076
2.81962e-05
0.000225935
6.55766e-05
0.000196462
9.95801e-05
0.000166233
0.000134549
0.000133962
0.000164325
0.000103833
0.000188503
7.87622e-05
0.000207792
5.90688e-05
0.000223277
4.53239e-05
0.000235833
3.77072e-05
0.000246074
3.53465e-05
0.000254032
3.79036e-05
0.000258593
4.43467e-05
0.000258729
5.29609e-05
0.000252876
6.3059e-05
0.000240026
7.43907e-05
0.000220061
8.6632e-05
0.000193769
9.94402e-05
0.00016257
0.000113038
0.000129087
0.000125733
9.56027e-05
0.000136947
6.39055e-05
0.000146149
3.67912e-05
0.000149749
1.27876e-05
0.000150141
-7.54367e-06
0.000150392
-2.51152e-05
-3.81199e-05
0.000152462
0.000407129
-0.00029872
0.000408384
-0.000264956
0.000406583
-0.000224853
0.000399981
-0.000176111
0.000387591
-0.000122125
0.000369019
-6.50453e-05
0.00034197
-8.3723e-06
0.000301266
4.33456e-05
0.000261268
8.54852e-05
0.000225636
0.000119365
0.000193202
0.000150416
0.000161481
0.000179786
0.00012924
0.000204071
9.98854e-05
0.000221793
7.61937e-05
0.000233361
5.88075e-05
0.000241184
4.77788e-05
0.000246013
4.23096e-05
0.000248027
4.15463e-05
0.000246646
4.45102e-05
0.000241065
5.03273e-05
0.000230261
5.86394e-05
0.000213772
6.88676e-05
0.000191691
8.03844e-05
0.000164735
9.19487e-05
0.000134754
0.000102305
0.000104245
0.000110313
7.49745e-05
0.000113423
4.89034e-05
0.000111282
2.69557e-05
0.000107345
7.09122e-06
0.000107284
-9.52482e-06
0.000109511
-2.32277e-05
-3.53892e-05
0.000107434
0.000405791
-0.00030881
0.000408209
-0.000275091
0.000409309
-0.000234725
0.000407975
-0.00018614
0.000403156
-0.000129446
0.000391984
-6.78518e-05
0.000372026
-5.43146e-06
0.000340333
5.48287e-05
0.000293271
0.000104793
0.000249942
0.000141919
0.000213289
0.000169827
0.000179408
0.000195428
0.000147412
0.000217375
0.000117049
0.000234158
9.02441e-05
0.000243778
6.94131e-05
0.000246993
5.49275e-05
0.000247035
4.61292e-05
0.000243748
4.21213e-05
0.000236872
4.21769e-05
0.000225952
4.56274e-05
0.000210533
5.1729e-05
0.000190567
5.93193e-05
0.000166466
6.73248e-05
0.000139801
7.40434e-05
0.000111894
7.71488e-05
8.49617e-05
7.47246e-05
6.03325e-05
6.95099e-05
4.03739e-05
6.45203e-05
2.29847e-05
6.54095e-05
6.19699e-06
6.40462e-05
-6.71142e-06
5.79265e-05
-1.79195e-05
-2.5557e-05
4.84795e-05
0.000379865
-0.000315793
0.000384098
-0.00028341
0.000388382
-0.000244075
0.00039026
-0.000196286
0.000390052
-0.00013884
0.00038637
-7.46183e-05
0.000374927
-7.00036e-06
0.000353774
5.99454e-05
0.00031799
0.000119855
0.000268418
0.000164111
0.000225757
0.000192057
0.000189531
0.00021288
0.000156499
0.000230163
0.000125793
0.000242578
9.76616e-05
0.000250277
7.44552e-05
0.000251278
5.68227e-05
0.000246675
4.45193e-05
0.000238206
3.7085e-05
0.000225926
3.40628e-05
0.000210062
3.4511e-05
0.000190901
3.72191e-05
0.000168476
4.04313e-05
0.000144024
4.22118e-05
0.000119352
4.16092e-05
9.46301e-05
3.74538e-05
7.38491e-05
3.10383e-05
5.63715e-05
2.51355e-05
3.92179e-05
2.19558e-05
2.3932e-05
1.52209e-05
1.02153e-05
4.09754e-06
5.74383e-07
-5.44347e-06
-8.60858e-06
-2.08617e-05
-6.02299e-06
0.000341457
-0.00032324
0.000346698
-0.000292338
0.000353105
-0.000254221
0.000359426
-0.000207729
0.000363528
-0.000151422
0.000364565
-8.58682e-05
0.000358588
-1.39764e-05
0.000343993
5.89353e-05
0.000319269
0.000125747
0.0002787
0.000181633
0.000230193
0.000215337
0.000191084
0.000231182
0.000156501
0.000244087
0.000124316
0.000251285
9.56141e-05
0.000252978
7.05343e-05
0.000249896
5.0121e-05
0.00024133
3.47901e-05
0.000228552
2.42449e-05
0.000212154
1.79097e-05
0.000192878
1.4669e-05
0.000172218
1.31115e-05
0.000150306
1.16976e-05
0.000128721
7.42208e-06
0.000109185
9.60862e-07
8.99603e-05
-6.86785e-06
7.33279e-05
-1.63216e-05
5.88126e-05
-2.56432e-05
4.486e-05
-3.83566e-05
3.22897e-05
-5.04247e-05
1.95208e-05
-5.13355e-05
4.19888e-06
-4.54145e-05
-1.12054e-05
-2.42797e-05
-3.6847e-05
0.000294559
-0.000332683
0.000299825
-0.000300688
0.000306689
-0.000262859
0.00031507
-0.000218125
0.000323833
-0.000164161
0.000330627
-9.94983e-05
0.000333107
-2.55484e-05
0.000322282
5.25103e-05
0.000302319
0.000126352
0.000272105
0.000189172
0.000227166
0.000234416
0.00018277
0.00025239
0.000146657
0.000257423
0.000113778
0.000260586
8.41532e-05
0.000256649
5.73938e-05
0.000248563
3.48441e-05
0.000235677
1.7084e-05
0.000219002
4.08943e-06
0.000200117
-4.93771e-06
0.000180669
-1.18671e-05
0.000160895
-1.85622e-05
0.0001421
-2.63424e-05
0.000125173
-3.51218e-05
0.000109215
-4.58345e-05
9.33883e-05
-5.97438e-05
8.08128e-05
-7.57225e-05
6.82797e-05
-8.79315e-05
5.41085e-05
-9.24545e-05
3.62962e-05
-8.63339e-05
1.52662e-05
-7.68869e-05
-2.99627e-06
-6.54018e-05
-1.76539e-05
-2.80365e-05
-5.31129e-05
0.000242517
-0.000341584
0.000246317
-0.000307019
0.000252927
-0.000268612
0.000262763
-0.000226464
0.000274526
-0.000176484
0.000285507
-0.000114924
0.000293854
-4.08814e-05
0.000290812
4.21048e-05
0.000272797
0.000122423
0.00024654
0.000191259
0.000210172
0.000243527
0.000165427
0.000269536
0.000126805
0.000271539
9.3648e-05
0.000267633
6.3275e-05
0.000260512
3.57058e-05
0.000248051
1.19721e-05
0.00023147
-7.38552e-06
0.000213044
-2.27107e-05
0.000193885
-3.57752e-05
0.000175589
-4.77784e-05
0.000158593
-5.96355e-05
0.000143713
-7.23727e-05
0.000129789
-8.61946e-05
0.000115681
-0.000104686
0.000104725
-0.000121872
9.33371e-05
-0.00012923
7.48124e-05
-0.000125677
5.15088e-05
-0.000115733
2.62068e-05
-0.00010381
5.84908e-06
-9.0641e-05
-1.03466e-05
-7.82912e-05
-1.96373e-05
-2.50794e-05
-6.73434e-05
0.000186853
-0.000345166
0.000187538
-0.000304433
0.000192592
-0.000265264
0.000203466
-0.00022612
0.000218696
-0.000183134
0.000234665
-0.000127689
0.000246458
-5.5957e-05
0.000248133
2.94289e-05
0.000232525
0.000115148
0.000207744
0.00018968
0.000174786
0.000246554
0.000135357
0.000277796
9.67465e-05
0.000282694
6.36198e-05
0.000274082
3.2855e-05
0.000263321
5.16124e-06
0.000247656
-1.92364e-05
0.000229645
-4.0624e-05
0.000211314
-5.97747e-05
0.000193202
-7.67626e-05
0.000176961
-9.3239e-05
0.000163551
-0.000109652
0.000151699
-0.000127471
0.000139807
-0.000148909
0.000129891
-0.000165187
0.000117599
-0.000167083
9.52486e-05
-0.000157096
6.64703e-05
-0.000143081
3.821e-05
-0.000129453
1.58667e-05
-0.000114407
-1.37192e-06
-0.000100226
-1.04989e-05
-9.20337e-05
-1.63633e-05
-2.046e-05
-8.68541e-05
0.000128252
-0.000342611
0.000126302
-0.000295037
0.000130441
-0.00025542
0.000140717
-0.000221326
0.000156284
-0.000184715
0.000173734
-0.000135479
0.000189236
-6.8682e-05
0.000195633
1.52193e-05
0.000184971
0.000105339
0.000160655
0.000185235
0.000128098
0.000245454
9.08616e-05
0.000279231
5.4914e-05
0.000286848
2.22485e-05
0.000277294
-7.84189e-06
0.000263548
-3.54556e-05
0.000247062
-6.10945e-05
0.000229341
-8.48086e-05
0.000211673
-0.000106075
0.000196648
-0.000126759
0.000183777
-0.000146548
0.000172887
-0.000168512
0.0001645
-0.000193309
0.00015439
-0.000207322
0.000140662
-0.00020419
0.000115008
-0.00018946
8.16636e-05
-0.000172074
5.06632e-05
-0.000154998
2.55662e-05
-0.000136203
8.78319e-06
-0.000121591
-1.57641e-06
-0.000115612
-7.86384e-06
-0.000111001
-1.21566e-05
-1.57099e-05
-0.000106852
7.42191e-05
-0.000341848
7.05635e-05
-0.000293901
7.35095e-05
-0.000249483
8.21573e-05
-0.00021592
9.51127e-05
-0.000183113
0.000112055
-0.000139137
0.000128912
-7.80207e-05
0.000137862
2.85474e-06
0.000129529
9.52677e-05
0.000105311
0.00018154
7.22788e-05
0.000243649
3.57052e-05
0.000278064
9.01472e-07
0.000285559
-3.03115e-05
0.000275651
-5.86289e-05
0.000260947
-8.58945e-05
0.000244862
-0.000111871
0.000228873
-0.000136449
0.000214941
-0.000160606
0.000203475
-0.000183809
0.000193132
-0.000210607
0.000188244
-0.00023699
0.000179192
-0.000247824
0.000162302
-0.000241112
0.000134006
-0.000222277
9.68384e-05
-0.000201052
6.36247e-05
-0.000179834
3.63412e-05
-0.000155374
1.83264e-05
-0.000141761
6.17605e-06
-0.000135385
-7.2259e-07
-0.000130488
-5.37406e-06
-0.000126264
-9.16882e-06
-1.245e-05
-0.000123002
2.56148e-05
-0.000343677
2.21259e-05
-0.000297849
2.24345e-05
-0.000252546
2.91906e-05
-0.000213693
4.12395e-05
-0.000181108
5.67103e-05
-0.000141014
7.35409e-05
-8.52284e-05
8.2969e-05
-6.4902e-06
7.35249e-05
8.92587e-05
4.53984e-05
0.000180402
8.5964e-06
0.000242182
-2.87081e-05
0.000272387
-6.12608e-05
0.000277221
-8.98267e-05
0.000268471
-0.000115913
0.000254706
-0.000141531
0.000241326
-0.000167627
0.000229931
-0.000194234
0.000220516
-0.000220184
0.000211549
-0.00025278
0.000209969
-0.000277835
0.000202754
-0.000285587
0.000182269
-0.000276144
0.00015119
-0.000254597
0.00011149
-0.00023089
7.68062e-05
-0.000206935
4.80696e-05
-0.000180023
2.7999e-05
-0.000165741
1.37487e-05
-0.00015869
5.68478e-06
-0.000152943
1.60185e-07
-0.000147652
-4.0175e-06
-0.00014347
-7.5462e-06
-1.05853e-05
-0.000140208
-2.06101e-05
-0.000343298
-2.36183e-05
-0.000301417
-2.20427e-05
-0.000257335
-1.60137e-05
-0.000217311
-4.91756e-06
-0.000179754
8.53257e-06
-0.000142188
2.2832e-05
-9.02321e-05
2.89935e-05
-1.1685e-05
1.60231e-05
8.5052e-05
-1.7419e-05
0.000175546
-5.73204e-05
0.000233606
-9.36013e-05
0.000257825
-0.000123818
0.000260308
-0.000149867
0.000253708
-0.00017427
0.000246113
-0.000199958
0.000238438
-0.000226229
0.000231434
-0.00025542
0.000228019
-0.000291057
0.000228391
-0.000315395
0.000221655
-0.000319618
0.000198582
-0.000307928
0.00016552
-0.000284722
0.000124688
-0.000260525
8.92438e-05
-0.000235461
5.91183e-05
-0.000208206
3.69261e-05
-0.000192794
2.07817e-05
-0.000183252
1.07286e-05
-0.000175967
4.43317e-06
-0.00016946
3.02982e-08
-0.00016473
-3.61633e-06
-0.000161318
-6.72927e-06
-9.38204e-06
-0.00015805
-6.36419e-05
-0.000340611
-6.72497e-05
-0.000307657
-6.51424e-05
-0.000263596
-5.84041e-05
-0.000221495
-4.81045e-05
-0.000182535
-3.62462e-05
-0.000142814
-2.61464e-05
-9.04243e-05
-2.14726e-05
-1.46259e-05
-3.42543e-05
7.66578e-05
-7.00278e-05
0.000163234
-0.000113021
0.000216698
-0.000149517
0.000236996
-0.000178477
0.000242855
-0.00020544
0.000243713
-0.000231713
0.000240681
-0.000258099
0.000236646
-0.000292142
0.000239841
-0.000327844
0.000242207
-0.000349153
0.000233056
-0.000349211
0.000208747
-0.000335783
0.000173898
-0.000312107
0.000134165
-0.000287412
9.84472e-05
-0.000261819
6.88223e-05
-0.000237804
4.36556e-05
-0.000224467
2.58935e-05
-0.000214501
1.46531e-05
-0.00020648
7.45803e-06
-0.000201377
2.65962e-06
-0.000198762
-5.5466e-07
-0.000196877
-3.18467e-06
-0.000193804
-5.21821e-06
-6.83489e-06
-0.000189479
-0.000105845
-0.000331355
-0.000110093
-0.00030842
-0.000108852
-0.000274192
-9.99023e-05
-0.00022917
-8.92344e-05
-0.000185233
-7.8405e-05
-0.000142202
-6.75587e-05
-9.02531e-05
-6.12408e-05
-1.86862e-05
-7.20837e-05
6.82557e-05
-0.000109294
0.000151276
-0.000155317
0.000203935
-0.000195822
0.000226683
-0.000230965
0.000234135
-0.000259001
0.000235816
-0.000289875
0.00024088
-0.000325353
0.000247065
-0.000358282
0.000248162
-0.000375061
0.000235669
-0.000373019
0.000211818
-0.000357388
0.00017549
-0.000333618
0.000138788
-0.000310038
0.000104087
-0.000286009
7.43904e-05
-0.000269991
4.72969e-05
-0.000257099
2.90619e-05
-0.000248676
1.61521e-05
-0.000244122
7.7449e-06
-0.000240691
2.98895e-06
-0.0002376
7.05086e-07
-0.000232075
-8.85679e-08
-0.000225472
-2.60538e-07
-0.00021953
-1.88855e-07
-2.67002e-07
-0.000214827
-0.00014221
-0.000312435
-0.000152538
-0.000297743
-0.000153325
-0.000273527
-0.000144403
-0.000240754
-0.000129515
-0.000196021
-0.000114536
-0.000144755
-0.000100533
-9.04808e-05
-9.24636e-05
-2.25445e-05
-9.947e-05
6.14236e-05
-0.000139319
0.000144178
-0.000193744
0.000198737
-0.000239845
0.000220402
-0.000281583
0.000231608
-0.000321527
0.000241597
-0.000357732
0.000248416
-0.000383385
0.00024412
-0.000393375
0.000229971
-0.000388754
0.000205445
-0.000372271
0.000171706
-0.000350881
0.000137209
-0.000330917
0.00010493
-0.000309738
7.4567e-05
-0.000295945
4.78526e-05
-0.000285071
2.85203e-05
-0.00028004
1.45499e-05
-0.000277765
5.35944e-06
-0.000274731
1.27928e-06
-0.000267099
6.05497e-07
-0.000259061
1.88897e-06
-0.000252635
4.00398e-06
-0.00024775
6.60894e-06
-0.000244517
8.4071e-06
9.23924e-06
-0.000242865
-0.000170237
-0.000281588
-0.000187379
-0.000275216
-0.000196865
-0.000258828
-0.00019406
-0.000233962
-0.00017834
-0.000200907
-0.000156301
-0.000154724
-0.000134622
-9.54053e-05
-0.000122371
-2.62928e-05
-0.000124783
5.40733e-05
-0.000167139
0.000134495
-0.000234861
0.00019548
-0.000293712
0.000226881
-0.000342763
0.000239841
-0.000380192
0.000237887
-0.000397585
0.000229779
-0.000402401
0.000215515
-0.000395975
0.000190452
-0.000382683
0.000162291
-0.00036523
0.000130654
-0.000345993
0.00010005
-0.000328716
7.03995e-05
-0.000316148
4.49144e-05
-0.000307706
2.50186e-05
-0.00030473
1.10232e-05
-0.000304706
2.02151e-06
-0.000301271
-1.27549e-06
-0.000294821
-6.39279e-07
-0.000288714
2.77093e-06
-0.000283685
7.3352e-06
-0.000279542
1.24179e-05
-0.000278036
1.63469e-05
-0.00027808
1.88841e-05
1.97656e-05
-0.000278552
-0.000180145
-0.000246079
-0.000208265
-0.000239675
-0.000226466
-0.000228655
-0.000235541
-0.000209867
-0.000232897
-0.000181482
-0.000218076
-0.000142701
-0.000197687
-9.18413e-05
-0.000179307
-2.50098e-05
-0.000173713
4.79932e-05
-0.000212009
0.000124093
-0.000286915
0.00018374
-0.000345728
0.000210022
-0.000380244
0.000213945
-0.00039783
0.000207423
-0.00040307
0.000191475
-0.000396287
0.000170941
-0.000386338
0.000146066
-0.000374752
0.000119414
-0.000356805
9.03262e-05
-0.000341335
6.30783e-05
-0.000331114
3.871e-05
-0.000324343
1.9621e-05
-0.000322725
6.35378e-06
-0.000324919
-1.7046e-06
-0.000324787
-4.65589e-06
-0.000320993
-2.34128e-06
-0.000317504
2.76854e-06
-0.000313589
9.77692e-06
-0.000310502
1.67536e-05
-0.000311093
2.28059e-05
-0.000312703
2.72761e-05
-0.000314162
2.94132e-05
2.88299e-05
-0.0003152
-0.000178497
-0.000220983
-0.00020524
-0.00020965
-0.000228467
-0.000193687
-0.000248396
-0.000174148
-0.000258313
-0.00014886
-0.000257868
-0.000115782
-0.000247663
-7.28241e-05
-0.0002311
-2.04263e-05
-0.000218572
3.47456e-05
-0.00024328
8.68559e-05
-0.000307344
0.000126996
-0.000358064
0.000154081
-0.000381657
0.000162061
-0.000389357
0.000157334
-0.000390421
0.000143117
-0.000385306
0.000124896
-0.000376548
0.000102871
-0.000363848
7.78258e-05
-0.000348943
5.32429e-05
-0.000340346
3.10757e-05
-0.000335449
1.33585e-05
-0.000335276
1.31058e-06
-0.000339809
-5.57459e-06
-0.000343859
-7.9016e-06
-0.000343742
-4.21086e-06
-0.000343482
2.36577e-06
-0.000341451
1.11268e-05
-0.000340928
2.02207e-05
-0.000343603
2.80467e-05
-0.000346029
3.40848e-05
-0.000347632
3.75919e-05
-0.000347773
3.80976e-05
3.56619e-05
-0.000344521
-0.000170201
-0.000200879
-0.000191597
-0.000189889
-0.000210009
-0.000172385
-0.000226063
-0.000149599
-0.000239587
-0.000122083
-0.000247329
-8.99583e-05
-0.000247595
-5.4586e-05
-0.000240693
-1.89206e-05
-0.000229487
1.12676e-05
-0.000242921
3.96214e-05
-0.00029218
5.30485e-05
-0.000341202
7.37496e-05
-0.000362846
9.54914e-05
-0.000372179
0.000102193
-0.000375188
9.49744e-05
-0.000372166
8.0594e-05
-0.000364093
6.1812e-05
-0.000352479
4.1481e-05
-0.000343441
2.27561e-05
-0.000340516
7.50291e-06
-0.000342138
-3.1344e-06
-0.000348588
-8.70761e-06
-0.000357399
-1.01586e-05
-0.000362181
-6.21779e-06
-0.000365665
1.70771e-06
-0.000367632
1.18401e-05
-0.000368592
2.26397e-05
-0.000371573
3.23029e-05
-0.000374532
4.00046e-05
-0.0003757
4.47771e-05
-0.000373966
4.63038e-05
-0.000368392
4.43732e-05
3.87977e-05
-0.000357792
-0.000154028
-0.000187415
-0.000171002
-0.000178558
-0.000184038
-0.000162223
-0.000193482
-0.000139459
-0.000199354
-0.000111889
-0.000201015
-8.14805e-05
-0.000199521
-5.22018e-05
-0.000197549
-2.72985e-05
-0.000197729
-1.1231e-05
-0.000209192
-3.84328e-06
-0.000249664
-2.26006e-06
-0.000302552
7.17076e-06
-0.000337799
2.62414e-05
-0.000352399
4.4009e-05
-0.000357785
4.70586e-05
-0.000355461
3.87438e-05
-0.000350978
2.65003e-05
-0.000342708
1.34532e-05
-0.000340128
2.1135e-06
-0.000343702
-6.41894e-06
-0.00035193
-1.05359e-05
-0.000364489
-1.09619e-05
-0.000375534
-7.28062e-06
-0.000382897
1.27473e-06
-0.000389736
1.2289e-05
-0.000393983
2.44843e-05
-0.000396788
3.58844e-05
-0.000399132
4.5074e-05
-0.000398597
5.14632e-05
-0.0003939
5.38235e-05
-0.000385882
5.22257e-05
-0.000372732
4.72695e-05
4.01995e-05
-0.000355622
-0.000136517
-0.000177053
-0.000150729
-0.000175378
-0.000158116
-0.000164003
-0.00015976
-0.000142979
-0.000158526
-0.000116511
-0.000155458
-8.91426e-05
-0.000152828
-6.38534e-05
-0.000153243
-4.48142e-05
-0.000159903
-3.55182e-05
-0.00017707
-3.5547e-05
-0.000211666
-4.14592e-05
-0.000257004
-4.27915e-05
-0.000300544
-3.07421e-05
-0.000326781
-1.12923e-05
-0.000335802
1.78189e-06
-0.00033775
3.86333e-06
-0.000336259
5.2941e-07
-0.000334936
-4.13007e-06
-0.000340147
-8.69429e-06
-0.000350061
-1.08935e-05
-0.000365096
-1.0131e-05
-0.000382557
-6.54412e-06
-0.000395338
1.53245e-06
-0.000405561
1.32018e-05
-0.000413854
2.60418e-05
-0.000418009
3.87587e-05
-0.000418202
4.94937e-05
-0.000414974
5.7164e-05
-0.000408797
6.06912e-05
-0.000398754
6.02543e-05
-0.000384572
5.61555e-05
-0.000368501
4.93586e-05
4.00597e-05
-0.000356338
-0.000115808
-0.00016683
-0.000129727
-0.000172526
-0.000134808
-0.000171071
-0.000132962
-0.000159174
-0.000126059
-0.000137319
-0.000118149
-0.000110869
-0.000113229
-8.64166e-05
-0.00011512
-6.83328e-05
-0.000123948
-5.95601e-05
-0.000143528
-6.02974e-05
-0.00017359
-6.76763e-05
-0.000212237
-7.37113e-05
-0.000253545
-7.00361e-05
-0.000289054
-5.33745e-05
-0.000309533
-3.26742e-05
-0.000318477
-1.98482e-05
-0.000322116
-1.44239e-05
-0.000331351
-1.23703e-05
-0.000343393
-1.0633e-05
-0.000359937
-7.99521e-06
-0.000381747
-3.67335e-06
-0.0004018
3.59491e-06
-0.000415313
1.50213e-05
-0.000426068
2.80369e-05
-0.000431683
4.13713e-05
-0.000431529
5.32801e-05
-0.000426814
6.21821e-05
-0.00041882
6.72625e-05
-0.000407898
6.8415e-05
-0.000394873
6.56767e-05
-0.000381496
5.9545e-05
-0.000371007
5.03653e-05
3.9148e-05
-0.000362413
-9.35145e-05
-0.000157175
-0.000107278
-0.000169942
-0.000112496
-0.000177428
-0.000109225
-0.000174666
-0.000100291
-0.000162121
-8.97807e-05
-0.000142804
-8.19954e-05
-0.000119803
-8.093e-05
-9.76536e-05
-8.9695e-05
-8.30822e-05
-0.000108994
-7.90017e-05
-0.000137036
-8.27372e-05
-0.000171449
-8.90433e-05
-0.000210681
-8.93862e-05
-0.000250974
-7.70756e-05
-0.00028242
-5.35183e-05
-0.000299117
-3.2129e-05
-0.000313881
-1.96513e-05
-0.000330878
-1.19416e-05
-0.000350697
-5.80009e-06
-0.000374185
7.724e-07
-0.000399878
7.63098e-06
-0.000418401
1.80132e-05
-0.000430815
3.09125e-05
-0.000438701
4.39902e-05
-0.000439317
5.65196e-05
-0.000434355
6.66311e-05
-0.000425428
7.33869e-05
-0.000414632
7.61142e-05
-0.000404639
7.58468e-05
-0.000395183
7.10141e-05
-0.000387217
6.25526e-05
-0.000380629
5.17547e-05
3.95264e-05
-0.000376117
-7.38456e-05
-0.000149283
-8.705e-05
-0.000165951
-9.31666e-05
-0.00018195
-9.04667e-05
-0.000187378
-8.24043e-05
-0.000181795
-7.20064e-05
-0.000168791
-6.2184e-05
-0.000151329
-5.88881e-05
-0.000131447
-6.41976e-05
-0.000110958
-8.00501e-05
-9.63024e-05
-0.000105374
-9.18203e-05
-0.000136791
-9.36372e-05
-0.00017418
-9.36346e-05
-0.000216208
-8.31377e-05
-0.000256719
-6.00331e-05
-0.000285621
-3.45059e-05
-0.000309739
-1.63125e-05
-0.000333691
-4.79426e-06
-0.000361762
4.51119e-06
-0.000390487
1.32007e-05
-0.000414526
2.26142e-05
-0.0004292
3.43579e-05
-0.00043899
4.70146e-05
-0.000441636
5.94602e-05
-0.000437332
7.04053e-05
-0.000428376
7.8565e-05
-0.000418103
8.37615e-05
-0.000409968
8.52478e-05
-0.000404269
8.26379e-05
-0.000400001
7.66333e-05
-0.000397933
6.73915e-05
-0.000401874
5.56095e-05
4.15391e-05
-0.000410535
-5.81439e-05
-0.000143149
-7.03446e-05
-0.000160527
-7.81587e-05
-0.000182675
-7.70577e-05
-0.000196098
-7.08065e-05
-0.000196565
-6.25518e-05
-0.000187882
-5.50062e-05
-0.000173742
-5.05013e-05
-0.000155931
-5.26121e-05
-0.00013642
-6.48072e-05
-0.000117639
-8.4912e-05
-0.000102581
-0.000112906
-9.431e-05
-0.000148107
-8.90308e-05
-0.000190716
-7.76525e-05
-0.00023738
-5.47738e-05
-0.000278466
-2.76958e-05
-0.000310701
-6.22757e-06
-0.000342418
7.55402e-06
-0.000374238
1.82129e-05
-0.000403966
2.77109e-05
-0.000422921
3.85754e-05
-0.000433645
5.05947e-05
-0.000438897
6.24143e-05
-0.000435983
7.35466e-05
-0.000427114
8.24637e-05
-0.000416289
8.95022e-05
-0.000409555
9.31726e-05
-0.000405972
9.38525e-05
-0.000404796
9.05342e-05
-0.000409651
8.36465e-05
-0.000423285
7.35377e-05
-0.000445822
5.99197e-05
4.1233e-05
-0.000469358
-4.65047e-05
-0.000139887
-5.86701e-05
-0.000155877
-6.73857e-05
-0.000179951
-6.82012e-05
-0.000199735
-6.40529e-05
-0.000204755
-5.84344e-05
-0.000198239
-5.40944e-05
-0.000184971
-5.30965e-05
-0.000170062
-5.75009e-05
-0.000152123
-6.73083e-05
-0.000132179
-8.3983e-05
-0.000113623
-0.000107485
-9.73946e-05
-0.000137877
-8.30491e-05
-0.000177682
-6.58512e-05
-0.000227001
-4.17089e-05
-0.000275189
-1.37278e-05
-0.000314121
8.20583e-06
-0.000350059
2.28979e-05
-0.000384622
3.35809e-05
-0.00041193
4.37514e-05
-0.000425856
5.46764e-05
-0.000432783
6.59604e-05
-0.000432395
7.66485e-05
-0.000424232
8.58922e-05
-0.000412452
9.34621e-05
-0.000404981
9.88927e-05
-0.00040233
0.000101915
-0.000401408
0.000101011
-0.000406038
9.63521e-05
-0.000418274
8.80978e-05
-0.000439304
7.594e-05
-0.000464045
5.84285e-05
3.50757e-05
-0.000484442
-3.99473e-05
-0.000140874
-5.17173e-05
-0.000152063
-6.16855e-05
-0.000176922
-6.4467e-05
-0.000201204
-6.27022e-05
-0.000211427
-5.8531e-05
-0.000204868
-5.74697e-05
-0.000186637
-6.07631e-05
-0.000169596
-7.00196e-05
-0.00015464
-8.33648e-05
-0.000137878
-0.000100596
-0.000116251
-0.000122669
-9.42409e-05
-0.000149552
-7.30007e-05
-0.000181531
-5.06197e-05
-0.00022598
-2.35374e-05
-0.000276137
3.26958e-06
-0.000320129
2.51676e-05
-0.000358941
3.96399e-05
-0.000393299
4.96911e-05
-0.00041676
6.00415e-05
-0.000425605
6.98945e-05
-0.00042841
7.99181e-05
-0.000422598
8.88751e-05
-0.000410486
9.65793e-05
-0.000399031
0.000102153
-0.00039425
0.000106766
-0.000389996
0.000107694
-0.000388304
0.000104565
-0.000391419
9.78334e-05
-0.000400252
8.72528e-05
-0.000412909
7.19609e-05
-0.000426226
5.13171e-05