/*--------------------------------*- C++ -*----------------------------------*\
  =========                 |
  \\      /  F ield         | OpenFOAM: The Open Source CFD Toolbox
   \\    /   O peration     | Website:  https://openfoam.org
    \\  /    A nd           | Version:  10
     \\/     M anipulation  |
\*---------------------------------------------------------------------------*/
FoamFile
{
    format      ascii;
    class       volScalarField;
    location    "0.55123";
    object      rho;
}
// * * * * * * * * * * * * * * * * * * * * * * * * * * * * * * * * * * * * * //

dimensions      [1 -3 0 0 0 0 0];

internalField   nonuniform List<scalar> 
16320
(
0.946844
0.9636
0.969809
0.957946
0.921259
0.84327
0.778313
0.751365
0.74058
0.737368
0.737675
0.743726
0.756779
0.779619
0.805664
0.823705
0.836122
0.842906
0.844406
0.838932
0.817444
0.763959
0.731685
0.727318
0.735713
0.771233
0.813889
0.844217
0.891869
0.897366
0.866881
0.804042
0.786252
0.935402
0.960746
0.979922
0.974932
0.932925
0.825439
0.755084
0.730725
0.725702
0.729834
0.738173
0.755591
0.784075
0.810445
0.829476
0.841369
0.848822
0.853416
0.854082
0.850409
0.832752
0.789883
0.769871
0.769646
0.7794
0.811175
0.836657
0.873777
0.908869
0.903003
0.86347
0.804945
0.789044
0.855446
0.892571
0.942552
0.970686
0.939331
0.836677
0.75394
0.723727
0.718394
0.723469
0.74054
0.769879
0.813704
0.842698
0.858464
0.863143
0.862496
0.860745
0.860575
0.857936
0.843671
0.815064
0.805233
0.807293
0.817539
0.84215
0.868935
0.907474
0.921729
0.908662
0.853476
0.805631
0.793396
0.772402
0.781401
0.825391
0.900336
0.929899
0.880847
0.781099
0.734291
0.721537
0.721192
0.736302
0.776979
0.824743
0.859116
0.879606
0.887593
0.886517
0.879364
0.874103
0.869576
0.857836
0.841894
0.839725
0.844473
0.857925
0.883117
0.912082
0.932676
0.932396
0.906961
0.840119
0.809999
0.804341
0.758099
0.753964
0.758016
0.777474
0.84605
0.888075
0.847067
0.766117
0.734366
0.727132
0.731573
0.770599
0.827883
0.863944
0.88599
0.899574
0.905293
0.903684
0.900745
0.895765
0.887347
0.88096
0.883826
0.891002
0.906881
0.927689
0.942564
0.948076
0.937496
0.884456
0.835358
0.819535
0.827482
0.758584
0.752097
0.752233
0.753329
0.760628
0.805909
0.861344
0.841145
0.771531
0.741773
0.736858
0.749865
0.806816
0.857747
0.885334
0.900693
0.90966
0.915652
0.9201
0.921361
0.91939
0.920333
0.925711
0.93343
0.9437
0.953516
0.960325
0.95569
0.916988
0.863016
0.842453
0.838224
0.879034
0.758829
0.753355
0.752959
0.753587
0.753433
0.754938
0.781484
0.828744
0.819175
0.781254
0.750604
0.74936
0.768879
0.819173
0.865819
0.892236
0.906147
0.914994
0.923321
0.930318
0.934686
0.940656
0.947321
0.954532
0.962932
0.969846
0.965916
0.931377
0.885279
0.86561
0.859976
0.88808
0.941271
0.758448
0.757781
0.759461
0.760022
0.757632
0.753098
0.748496
0.762246
0.808398
0.805572
0.785503
0.759983
0.762031
0.780028
0.813664
0.853979
0.88624
0.904785
0.918474
0.929554
0.938406
0.948181
0.957972
0.966818
0.971639
0.962218
0.930775
0.898898
0.88705
0.884964
0.907309
0.94401
0.972315
0.767465
0.772369
0.779228
0.782555
0.780727
0.771892
0.750923
0.739884
0.744955
0.786656
0.793618
0.782623
0.768115
0.771023
0.783607
0.806062
0.834503
0.864621
0.890765
0.911994
0.926943
0.939517
0.948606
0.950236
0.941014
0.924339
0.910687
0.906417
0.909511
0.929068
0.946284
0.960609
0.98096
0.800226
0.80921
0.820994
0.826429
0.825087
0.816397
0.796325
0.755418
0.738998
0.740153
0.770434
0.781158
0.777764
0.773287
0.775812
0.785814
0.802527
0.823957
0.846379
0.868595
0.887229
0.90262
0.913107
0.918053
0.918169
0.917379
0.918651
0.921011
0.932758
0.943632
0.936953
0.939062
0.974447
0.857801
0.865552
0.875162
0.877933
0.875268
0.86288
0.845742
0.809908
0.751199
0.73143
0.732081
0.754791
0.769279
0.771303
0.772985
0.779643
0.791505
0.808241
0.827354
0.84812
0.868341
0.886402
0.901669
0.912993
0.91962
0.922103
0.922335
0.919786
0.907527
0.88638
0.889319
0.958321
1.00627
0.868738
0.872055
0.881176
0.886578
0.887763
0.885678
0.873648
0.853535
0.804678
0.737546
0.718921
0.7209
0.739803
0.759373
0.76749
0.776098
0.78869
0.80502
0.824945
0.846754
0.868114
0.887985
0.903684
0.912538
0.913581
0.905796
0.884245
0.852702
0.836067
0.859165
0.962374
1.01444
1.01112
0.854214
0.857482
0.865191
0.871866
0.87324
0.872578
0.868276
0.859077
0.83698
0.77968
0.717613
0.705476
0.711038
0.730501
0.754695
0.770191
0.786128
0.805642
0.827011
0.848716
0.868389
0.883414
0.888924
0.884922
0.869096
0.84273
0.818009
0.816252
0.85359
0.982638
1.02245
0.991947
0.901496
0.835292
0.837954
0.844468
0.8526
0.856023
0.855733
0.851823
0.840144
0.830551
0.805694
0.741839
0.698661
0.69541
0.705773
0.726681
0.752605
0.774907
0.797362
0.817474
0.833959
0.846231
0.849971
0.84895
0.840783
0.819466
0.807589
0.817488
0.876695
1.00273
1.00845
0.934575
0.850058
0.817364
0.817283
0.816817
0.819466
0.82427
0.82918
0.832444
0.833405
0.827467
0.810839
0.800604
0.772028
0.708667
0.688198
0.69256
0.708675
0.732061
0.756379
0.779014
0.797577
0.809528
0.819399
0.823079
0.819808
0.808059
0.805819
0.82292
0.918296
1.0003
0.979671
0.884334
0.830877
0.803637
0.780597
0.799921
0.792275
0.789137
0.790927
0.795831
0.801941
0.80573
0.808015
0.796305
0.782788
0.77273
0.736624
0.690707
0.690111
0.701737
0.722481
0.745719
0.766089
0.782215
0.799055
0.80415
0.802369
0.801871
0.807733
0.835829
0.949581
0.985284
0.954392
0.860782
0.815888
0.788207
0.753727
0.707204
0.784517
0.759163
0.744483
0.742188
0.751228
0.76367
0.773469
0.779871
0.773992
0.763385
0.758183
0.742623
0.712279
0.69465
0.704905
0.72267
0.742534
0.763214
0.780344
0.784788
0.788677
0.795079
0.807309
0.850699
0.956812
0.973964
0.933441
0.845054
0.800221
0.767463
0.7138
0.660223
0.63976
0.758491
0.706636
0.683156
0.679318
0.691628
0.707045
0.723307
0.740845
0.750956
0.749062
0.74958
0.740056
0.720777
0.706239
0.71155
0.727085
0.745161
0.75977
0.765052
0.773394
0.786153
0.805802
0.866844
0.958887
0.962424
0.915607
0.831563
0.786082
0.737559
0.662339
0.627723
0.614821
0.610069
0.732395
0.669589
0.628749
0.626462
0.637566
0.64822
0.662863
0.687364
0.717237
0.72955
0.739044
0.737753
0.724133
0.712893
0.715728
0.727121
0.737864
0.742457
0.756958
0.775515
0.804121
0.887746
0.954488
0.950682
0.89917
0.811618
0.763131
0.694044
0.614743
0.587019
0.57577
0.571168
0.575742
0.72795
0.663884
0.611088
0.590201
0.592751
0.593709
0.61181
0.644155
0.692674
0.721591
0.735264
0.734532
0.721626
0.710769
0.710527
0.711608
0.717465
0.736551
0.76004
0.802699
0.89937
0.942813
0.935343
0.879692
0.791139
0.74266
0.666343
0.597639
0.572158
0.561271
0.5555
0.556697
0.566514
0.7357
0.670913
0.616757
0.583863
0.568578
0.568552
0.589008
0.632776
0.693575
0.728975
0.737907
0.727106
0.708143
0.69186
0.682387
0.692578
0.715
0.742617
0.800482
0.893955
0.924891
0.915032
0.85656
0.776966
0.73288
0.661175
0.605607
0.581851
0.570013
0.563635
0.564299
0.573693
0.587296
0.751034
0.6942
0.634132
0.596816
0.571923
0.569922
0.591868
0.638324
0.689989
0.716485
0.714139
0.687092
0.661806
0.654753
0.667778
0.691026
0.729292
0.813846
0.882797
0.902421
0.885893
0.832526
0.764857
0.725162
0.663614
0.633298
0.618318
0.611528
0.612266
0.622793
0.641464
0.657854
0.668302
0.772826
0.737156
0.681814
0.624341
0.595165
0.591622
0.611501
0.649993
0.687455
0.697547
0.674429
0.650593
0.641527
0.64955
0.670586
0.721785
0.810497
0.861291
0.874648
0.85159
0.800417
0.748782
0.714948
0.6791
0.664542
0.659927
0.668521
0.682517
0.700211
0.713204
0.715661
0.714176
0.711498
0.788456
0.767802
0.742859
0.698005
0.645128
0.628419
0.644187
0.674106
0.700523
0.702941
0.676178
0.653318
0.648716
0.669584
0.741634
0.796943
0.830395
0.833685
0.812972
0.763503
0.736096
0.706309
0.688893
0.679826
0.687985
0.705135
0.725672
0.733189
0.731778
0.727668
0.722561
0.716142
0.71227
0.788836
0.791933
0.783166
0.774265
0.758791
0.718576
0.70526
0.728256
0.753775
0.755208
0.717938
0.692229
0.719371
0.754805
0.776107
0.792739
0.784947
0.765755
0.734354
0.71833
0.693806
0.685165
0.682634
0.693724
0.712071
0.729198
0.732696
0.729646
0.725791
0.716905
0.7091
0.705537
0.703167
0.759929
0.789352
0.807498
0.821739
0.835186
0.851273
0.857007
0.858388
0.875415
0.880614
0.846732
0.80057
0.773789
0.760765
0.749162
0.73952
0.714875
0.708564
0.693374
0.677939
0.671958
0.673096
0.682135
0.698606
0.715796
0.719884
0.71847
0.713421
0.702287
0.696219
0.694358
0.693528
0.694624
0.755177
0.76188
0.788363
0.829013
0.875691
0.914855
0.958494
0.997953
1.02433
1.02233
0.948187
0.838322
0.767282
0.729983
0.698045
0.681002
0.676298
0.668638
0.65882
0.653814
0.656147
0.663502
0.678039
0.695933
0.702974
0.703879
0.699822
0.690035
0.687106
0.687089
0.687346
0.689217
0.689117
0.768874
0.771036
0.779869
0.800784
0.840897
0.898345
0.96214
1.01786
1.05392
1.05408
0.982286
0.853451
0.746524
0.691217
0.664504
0.65281
0.645805
0.6402
0.633546
0.634369
0.641211
0.653822
0.672868
0.686066
0.690312
0.691011
0.684547
0.681076
0.681671
0.682359
0.681319
0.677978
0.669929
0.782496
0.785604
0.791615
0.805021
0.829163
0.862095
0.903394
0.945953
0.975241
0.979547
0.939998
0.848675
0.75224
0.685962
0.653377
0.636694
0.62647
0.616918
0.612522
0.618116
0.629989
0.649088
0.669173
0.67877
0.684662
0.685296
0.681964
0.680338
0.679266
0.67302
0.663999
0.651811
0.631911
0.802743
0.816681
0.819707
0.822609
0.83217
0.851431
0.87633
0.901799
0.917497
0.922368
0.900846
0.852442
0.775198
0.704276
0.655225
0.629173
0.611579
0.597687
0.59691
0.607295
0.625137
0.650175
0.669348
0.678831
0.68552
0.68618
0.68182
0.673948
0.664461
0.652287
0.635275
0.615945
0.6021
0.805907
0.838378
0.865299
0.876581
0.874155
0.870944
0.87575
0.882525
0.889253
0.885979
0.874802
0.843228
0.794586
0.728041
0.667321
0.628578
0.600512
0.586503
0.588571
0.602917
0.627557
0.656115
0.673068
0.682374
0.68602
0.681349
0.670912
0.657584
0.641982
0.624696
0.609023
0.598594
0.594666
0.794546
0.835057
0.874968
0.901988
0.916605
0.916467
0.902208
0.884912
0.874881
0.867869
0.855322
0.838832
0.804517
0.751332
0.683835
0.631361
0.595991
0.583266
0.587947
0.606488
0.636743
0.661994
0.674904
0.682219
0.679905
0.669543
0.654565
0.637492
0.622221
0.611836
0.6054
0.603788
0.606712
0.778578
0.819012
0.866675
0.895838
0.915232
0.928042
0.93494
0.924809
0.892499
0.866611
0.851235
0.835
0.811505
0.766991
0.701019
0.63864
0.598469
0.585933
0.594021
0.616081
0.645788
0.664593
0.674834
0.677536
0.669618
0.65522
0.637821
0.623341
0.618055
0.616071
0.61903
0.63226
0.660589
0.769799
0.795931
0.84833
0.882059
0.899221
0.911992
0.924751
0.934751
0.935009
0.905829
0.865608
0.842658
0.820152
0.782147
0.718656
0.652587
0.607859
0.595083
0.605458
0.628352
0.651451
0.66472
0.672011
0.66892
0.656662
0.639377
0.626853
0.623866
0.626322
0.637061
0.664877
0.711515
0.776269
0.76764
0.780882
0.822158
0.857619
0.871768
0.879799
0.893633
0.915514
0.934847
0.944847
0.927889
0.882868
0.844912
0.804521
0.743816
0.672635
0.621753
0.607444
0.619191
0.639263
0.655003
0.663906
0.666824
0.658427
0.642698
0.630534
0.62925
0.634245
0.647768
0.676057
0.721662
0.78772
0.85421
0.784271
0.776308
0.801438
0.832438
0.841594
0.8321
0.827136
0.850147
0.899513
0.94095
0.953042
0.943473
0.908618
0.850634
0.776136
0.695698
0.637414
0.621971
0.634508
0.648755
0.656275
0.662225
0.660569
0.648603
0.634701
0.630903
0.635578
0.642926
0.662277
0.69271
0.737848
0.788687
0.842267
0.816918
0.782855
0.794346
0.820214
0.830247
0.811365
0.770091
0.764731
0.80396
0.897125
0.945701
0.958258
0.937033
0.879182
0.796717
0.715117
0.655845
0.640252
0.650246
0.656318
0.658542
0.66137
0.654663
0.641304
0.629383
0.633341
0.635772
0.644047
0.659543
0.684298
0.713946
0.749272
0.781843
0.894015
0.807853
0.794951
0.814757
0.824744
0.803367
0.747321
0.732641
0.748148
0.829984
0.910869
0.939439
0.932838
0.875081
0.806101
0.730854
0.679414
0.662148
0.663446
0.662207
0.660352
0.658335
0.648059
0.633019
0.627906
0.62817
0.631913
0.636194
0.648318
0.662153
0.676942
0.68742
0.695083
0.961463
0.844103
0.806866
0.812177
0.818604
0.795372
0.735725
0.72215
0.731144
0.778112
0.852324
0.883407
0.885851
0.840515
0.8036
0.749948
0.713914
0.688649
0.675983
0.667483
0.663102
0.65585
0.642562
0.627618
0.619651
0.62402
0.625039
0.62898
0.633334
0.64002
0.642738
0.644244
0.644875
0.97561
0.918622
0.824861
0.812348
0.815642
0.791845
0.732264
0.721258
0.729492
0.759754
0.795014
0.816532
0.82684
0.824286
0.81094
0.79314
0.753503
0.713947
0.688995
0.673562
0.666566
0.653311
0.635781
0.620033
0.618192
0.618366
0.619968
0.620505
0.623525
0.626383
0.627728
0.62735
0.628663
0.965805
0.963258
0.853295
0.818097
0.813155
0.791136
0.733742
0.725131
0.734465
0.760551
0.784127
0.804295
0.821735
0.834837
0.850186
0.843848
0.800002
0.739563
0.699832
0.682727
0.669776
0.651586
0.631366
0.616753
0.610224
0.613742
0.613619
0.614818
0.615472
0.617886
0.619062
0.620962
0.62338
0.939949
0.967797
0.906563
0.824791
0.810513
0.792821
0.739562
0.731281
0.74225
0.768343
0.791776
0.814944
0.842081
0.869975
0.901041
0.908136
0.854998
0.769118
0.718712
0.692469
0.676098
0.651259
0.629443
0.612883
0.607333
0.604931
0.606704
0.606331
0.607562
0.60896
0.612753
0.619194
0.631037
0.900552
0.95005
0.94636
0.838237
0.809644
0.796223
0.749886
0.741401
0.753065
0.779282
0.807147
0.835387
0.875512
0.918348
0.971771
0.991294
0.924272
0.811786
0.74094
0.707559
0.681334
0.654497
0.632514
0.615512
0.603067
0.600776
0.599077
0.600641
0.602282
0.608688
0.62281
0.649049
0.680016
0.863693
0.918934
0.952655
0.86835
0.810946
0.799019
0.760204
0.747509
0.759898
0.785866
0.81725
0.852007
0.906979
0.973701
1.04542
1.08063
1.01368
0.868641
0.773058
0.727742
0.69722
0.665765
0.644203
0.62563
0.613153
0.607016
0.611186
0.618602
0.638158
0.670387
0.705051
0.721769
0.723062
0.828814
0.874592
0.941428
0.908703
0.815521
0.800439
0.773696
0.751258
0.762614
0.786035
0.820066
0.857251
0.919133
1.00206
1.08577
1.14478
1.11088
0.967568
0.846818
0.780506
0.748828
0.723663
0.705526
0.696993
0.69493
0.701753
0.715226
0.733859
0.7437
0.74333
0.737166
0.720038
0.703706
0.80266
0.833552
0.917286
0.935355
0.826732
0.800873
0.786811
0.75489
0.762263
0.781358
0.810994
0.848732
0.905035
0.986016
1.06314
1.13097
1.13902
1.03986
0.901259
0.827944
0.79125
0.773805
0.765808
0.761369
0.759815
0.758141
0.75217
0.741324
0.72104
0.695644
0.667444
0.647658
0.635617
0.783324
0.803336
0.885148
0.937298
0.857049
0.802655
0.796196
0.761988
0.757317
0.772223
0.794225
0.824852
0.867499
0.924941
0.973787
1.01454
1.04135
1.01779
0.922479
0.815992
0.769272
0.740462
0.722241
0.711594
0.695079
0.67456
0.654314
0.633966
0.619622
0.612749
0.613242
0.613957
0.61537
0.775145
0.7798
0.838599
0.929042
0.892798
0.806405
0.798179
0.777498
0.751081
0.759308
0.774737
0.795183
0.825011
0.862625
0.893845
0.9161
0.92802
0.910396
0.848905
0.751693
0.689026
0.64568
0.625746
0.611582
0.600627
0.593473
0.589975
0.588256
0.588606
0.590965
0.595131
0.600517
0.605393
0.772234
0.763945
0.798612
0.910774
0.923138
0.81605
0.797477
0.793957
0.75287
0.745505
0.752461
0.763758
0.777333
0.794032
0.808298
0.816135
0.824494
0.822189
0.786318
0.727092
0.657938
0.60692
0.582169
0.568315
0.560809
0.558346
0.557744
0.560391
0.565224
0.572144
0.579733
0.588101
0.597116
0.770847
0.753127
0.774311
0.881389
0.931865
0.842261
0.797535
0.798168
0.772296
0.737865
0.73546
0.736797
0.731449
0.729289
0.720412
0.703649
0.694417
0.679955
0.668353
0.640065
0.596724
0.55039
0.522993
0.50683
0.502338
0.503125
0.507375
0.515573
0.525867
0.539017
0.553247
0.570791
0.585699
0.769728
0.750994
0.75556
0.83447
0.926742
0.880519
0.797704
0.795913
0.791713
0.740734
0.724744
0.720756
0.710055
0.697877
0.683624
0.660642
0.6373
0.619258
0.593934
0.567114
0.53407
0.497185
0.465302
0.447249
0.438746
0.439388
0.44542
0.456439
0.471576
0.491109
0.513826
0.539844
0.565881
0.768562
0.754877
0.74502
0.780057
0.913044
0.911854
0.806325
0.793087
0.799171
0.762622
0.722191
0.710442
0.700881
0.681911
0.667042
0.643976
0.618007
0.595169
0.575246
0.547946
0.517097
0.481133
0.44674
0.421422
0.407436
0.401984
0.40283
0.408562
0.419552
0.43649
0.460995
0.492597
0.529884
0.767609
0.756634
0.738878
0.755045
0.881432
0.92416
0.836665
0.790383
0.798731
0.787024
0.73256
0.706379
0.694816
0.677793
0.661483
0.642816
0.617185
0.591207
0.568514
0.545891
0.517441
0.483735
0.447613
0.417221
0.396528
0.38557
0.381235
0.382267
0.387618
0.398252
0.415754
0.442346
0.479088
0.764836
0.75734
0.740457
0.740706
0.828064
0.918921
0.881998
0.792664
0.794413
0.804643
0.757851
0.713655
0.691837
0.677821
0.660213
0.645791
0.624451
0.597734
0.572414
0.549566
0.52418
0.49406
0.459559
0.425674
0.398404
0.382614
0.373314
0.370695
0.371695
0.37702
0.387654
0.405843
0.434291
0.765734
0.757619
0.745964
0.734296
0.761211
0.901301
0.909108
0.809535
0.787824
0.806972
0.790242
0.734698
0.697599
0.681125
0.663616
0.649961
0.634906
0.611871
0.58535
0.558746
0.53522
0.507591
0.477714
0.442861
0.41153
0.388551
0.374954
0.368136
0.366103
0.367142
0.371783
0.381681
0.400739
0.768197
0.757386
0.74846
0.732104
0.736195
0.855961
0.911228
0.85485
0.785014
0.800345
0.81206
0.76834
0.71578
0.688615
0.672519
0.65744
0.645645
0.628786
0.601376
0.572867
0.547638
0.52368
0.497549
0.468305
0.435274
0.407041
0.387139
0.374408
0.368194
0.366245
0.367466
0.371962
0.380905
0.771741
0.759422
0.749324
0.738069
0.727285
0.783775
0.899431
0.891681
0.796327
0.788227
0.813953
0.80357
0.751392
0.705238
0.68678
0.673904
0.660853
0.646356
0.622835
0.594523
0.564735
0.539639
0.513926
0.489349
0.46128
0.433216
0.410685
0.395581
0.384797
0.376075
0.372508
0.372308
0.376015
0.776079
0.762908
0.75029
0.741031
0.726148
0.734111
0.858101
0.898119
0.83932
0.77758
0.806694
0.822431
0.792925
0.741189
0.70318
0.686112
0.674215
0.661364
0.644446
0.622175
0.595233
0.565991
0.538076
0.509968
0.483164
0.45626
0.433659
0.417926
0.407807
0.40146
0.39333
0.384188
0.382411
0.779585
0.767972
0.753461
0.742517
0.731853
0.72139
0.784495
0.881851
0.875679
0.78661
0.785228
0.820947
0.819996
0.785522
0.742649
0.709121
0.690631
0.677966
0.665652
0.65119
0.63377
0.61243
0.587276
0.558118
0.526063
0.493566
0.464633
0.443923
0.430897
0.42392
0.42003
0.413456
0.400497
0.78244
0.773611
0.759117
0.743327
0.733797
0.719619
0.732238
0.8422
0.876989
0.8272
0.775477
0.799258
0.822664
0.813582
0.788406
0.759218
0.734572
0.717265
0.706773
0.702354
0.702831
0.704767
0.706511
0.699266
0.674693
0.637472
0.597026
0.553119
0.507106
0.465044
0.450279
0.444111
0.437038
0.782389
0.777495
0.766659
0.746175
0.734577
0.725987
0.717389
0.767501
0.853983
0.853143
0.785839
0.777379
0.806258
0.816468
0.808058
0.796004
0.783446
0.77498
0.774117
0.778048
0.78707
0.794909
0.797135
0.788564
0.765491
0.733045
0.697567
0.666638
0.641315
0.615094
0.575734
0.521603
0.481428
0.78017
0.780323
0.7711
0.751017
0.734365
0.727926
0.714215
0.72535
0.807074
0.845291
0.815829
0.77096
0.780787
0.802801
0.807218
0.803386
0.798273
0.795965
0.796405
0.798727
0.799595
0.793997
0.78031
0.7627
0.740632
0.712587
0.681841
0.655699
0.644488
0.64768
0.65608
0.638575
0.608369
0.776168
0.780175
0.773735
0.755116
0.736487
0.725096
0.718094
0.711763
0.739781
0.819811
0.823723
0.781548
0.767187
0.779371
0.790807
0.792286
0.790221
0.786545
0.781507
0.772521
0.754983
0.734141
0.726299
0.732358
0.743849
0.732685
0.701243
0.663535
0.634166
0.619167
0.63352
0.670279
0.669318
0.77096
0.775648
0.773447
0.756497
0.736957
0.721914
0.717966
0.707525
0.712213
0.761836
0.806484
0.796084
0.761965
0.756954
0.766542
0.772719
0.767913
0.761929
0.752824
0.740234
0.731644
0.736933
0.78655
0.893907
0.954854
0.949043
0.891729
0.798056
0.699715
0.635793
0.610299
0.631951
0.678137
0.76372
0.768693
0.767412
0.754183
0.735188
0.72043
0.711488
0.706621
0.701802
0.713107
0.771077
0.786532
0.766511
0.747464
0.744247
0.751421
0.75222
0.747219
0.74097
0.738711
0.755504
0.854824
1.00386
1.06522
1.08171
1.07392
1.04375
0.98413
0.890453
0.743527
0.630642
0.606654
0.63922
0.754253
0.758648
0.7577
0.744623
0.72765
0.716674
0.703937
0.701436
0.693355
0.694915
0.718499
0.766626
0.766096
0.747031
0.734169
0.73166
0.736371
0.740866
0.751395
0.788419
0.88321
0.982855
1.03894
1.04386
1.04918
1.0546
1.04853
1.02047
0.975106
0.894055
0.734024
0.617891
0.607835
0.742905
0.746764
0.745097
0.729269
0.714486
0.705578
0.697746
0.689378
0.683539
0.682675
0.6872
0.72753
0.75054
0.744543
0.728973
0.720765
0.719828
0.72747
0.753038
0.803219
0.871758
0.941319
0.944144
0.920082
0.928546
0.989169
1.02519
1.01468
0.981201
0.932371
0.839143
0.676986
0.601267
0.73013
0.732669
0.729593
0.711161
0.696113
0.690161
0.687226
0.678946
0.672946
0.670872
0.670042
0.679096
0.720488
0.731645
0.724831
0.712728
0.708173
0.712543
0.735889
0.782694
0.847323
0.859824
0.807868
0.758243
0.767621
0.868416
0.964666
0.99697
0.976495
0.936504
0.865208
0.734839
0.616257
0.715536
0.716045
0.711308
0.692363
0.675929
0.672687
0.670496
0.667894
0.660084
0.657016
0.655397
0.656793
0.675224
0.710231
0.714594
0.707415
0.69948
0.698047
0.711101
0.758639
0.808314
0.790008
0.727702
0.691776
0.696893
0.784266
0.912161
0.968199
0.959366
0.926826
0.867544
0.752136
0.630052
0.698638
0.697835
0.689922
0.672205
0.662043
0.658394
0.656519
0.654583
0.648046
0.643975
0.641064
0.639787
0.644935
0.67778
0.698579
0.700763
0.6955
0.692377
0.694951
0.726741
0.750485
0.736447
0.696156
0.673705
0.677615
0.757252
0.894908
0.955943
0.94269
0.904216
0.838316
0.743765
0.633764
0.679857
0.677843
0.666891
0.656953
0.650851
0.647058
0.644265
0.641791
0.636251
0.631251
0.627477
0.625601
0.626436
0.637569
0.674658
0.690931
0.694357
0.692375
0.692782
0.702565
0.713075
0.706983
0.686331
0.675603
0.680563
0.761156
0.898526
0.95297
0.934023
0.883393
0.781458
0.685723
0.615101
0.660215
0.657266
0.651532
0.645621
0.64037
0.635931
0.632388
0.629202
0.624737
0.619366
0.615091
0.613212
0.612809
0.61741
0.639537
0.677653
0.692163
0.697408
0.698207
0.703074
0.707555
0.704879
0.693689
0.68995
0.69844
0.787376
0.920286
0.953491
0.924764
0.84993
0.720067
0.627627
0.580901
0.64117
0.642953
0.640174
0.635326
0.631208
0.627787
0.624093
0.619952
0.615077
0.609701
0.605256
0.603188
0.603449
0.606527
0.617943
0.657506
0.689506
0.704656
0.71294
0.720019
0.724126
0.71884
0.715776
0.715547
0.732054
0.845165
0.952929
0.953442
0.905784
0.779171
0.647106
0.589632
0.567398
0.628
0.632337
0.62986
0.62741
0.627613
0.624825
0.619929
0.614182
0.608724
0.602712
0.597377
0.596074
0.597225
0.600752
0.6088
0.629509
0.681063
0.716569
0.736504
0.751777
0.754993
0.751612
0.751433
0.75538
0.792966
0.930387
0.980815
0.950532
0.853648
0.689888
0.608527
0.574307
0.555073
0.617634
0.622336
0.622355
0.625633
0.622911
0.616632
0.610678
0.605966
0.601667
0.59846
0.594276
0.593875
0.596488
0.600291
0.609068
0.626248
0.665329
0.732727
0.768152
0.790422
0.798135
0.798073
0.799723
0.815377
0.908955
1.00698
0.992555
0.91928
0.745986
0.636035
0.589247
0.562607
0.54622
0.609131
0.616456
0.619478
0.619333
0.612659
0.605843
0.600054
0.596173
0.593769
0.593248
0.592596
0.594709
0.599252
0.605693
0.615045
0.634458
0.668389
0.739896
0.799771
0.836274
0.852308
0.862062
0.875456
0.924957
1.03676
1.03993
0.978676
0.807018
0.678608
0.620203
0.584147
0.557511
0.539978
0.605183
0.612807
0.612624
0.608966
0.60091
0.592944
0.588466
0.586847
0.586936
0.589213
0.591886
0.597043
0.605427
0.614662
0.626517
0.646454
0.680696
0.741038
0.817926
0.877797
0.906143
0.925075
0.972302
1.07454
1.09128
1.03672
0.863268
0.722225
0.663396
0.623947
0.588052
0.558563
0.536391
0.603277
0.606502
0.603086
0.597178
0.584586
0.576471
0.575187
0.576835
0.580356
0.585135
0.590759
0.598686
0.610298
0.620572
0.634396
0.656953
0.687795
0.739344
0.843311
0.914345
0.955744
1.01848
1.11271
1.13499
1.08436
0.906167
0.767505
0.710143
0.67388
0.638109
0.59516
0.560599
0.535825
0.600207
0.598712
0.593474
0.581261
0.56147
0.554651
0.555809
0.558488
0.563617
0.570668
0.577584
0.585866
0.598523
0.606619
0.619392
0.637129
0.677127
0.757535
0.870993
0.955338
1.04423
1.13952
1.16157
1.1156
0.932088
0.80043
0.759073
0.739805
0.712619
0.671862
0.608252
0.562185
0.535228
0.594576
0.591608
0.581772
0.558228
0.535009
0.529773
0.529053
0.520603
0.516123
0.514076
0.522259
0.532853
0.548327
0.563186
0.588109
0.628765
0.68827
0.794418
0.923219
1.05323
1.15114
1.16925
1.12229
0.931728
0.825551
0.802835
0.803456
0.799055
0.765134
0.711406
0.623215
0.56586
0.536616
0.588922
0.584689
0.565788
0.534958
0.510406
0.501469
0.489159
0.480103
0.481563
0.488105
0.49962
0.516469
0.536745
0.561591
0.593564
0.646585
0.745697
0.911791
1.06111
1.14313
1.16055
1.10071
0.912952
0.839552
0.828175
0.832649
0.830874
0.821131
0.793146
0.745741
0.656118
0.573189
0.538327
0.58424
0.576265
0.549249
0.513356
0.488711
0.47952
0.476089
0.479175
0.48523
0.497016
0.51162
0.530473
0.554069
0.586923
0.642789
0.771688
0.940275
1.05342
1.11751
1.12988
1.04825
0.885015
0.838599
0.834252
0.840536
0.839024
0.830463
0.820354
0.803351
0.762269
0.694191
0.589416
0.542469
0.580295
0.568228
0.534434
0.493312
0.476835
0.47639
0.481224
0.492324
0.512759
0.537892
0.570286
0.608595
0.657997
0.728733
0.841574
0.953223
1.02873
1.07502
1.07614
0.962018
0.847545
0.822937
0.823656
0.831513
0.822664
0.80962
0.798559
0.793632
0.79197
0.769121
0.717547
0.62082
0.548379
0.577143
0.561846
0.520607
0.481854
0.475974
0.480982
0.494938
0.526337
0.576345
0.634866
0.689937
0.738601
0.796554
0.866164
0.932324
0.982552
1.02152
0.993067
0.878883
0.800614
0.794494
0.804908
0.802424
0.786063
0.763671
0.746905
0.735238
0.735591
0.750311
0.759312
0.724544
0.654906
0.558228
0.575449
0.558348
0.511182
0.479364
0.479359
0.488325
0.513296
0.562822
0.630105
0.693498
0.739134
0.783963
0.838131
0.88352
0.922462
0.923808
0.864578
0.78833
0.761519
0.767926
0.786734
0.775923
0.735166
0.681593
0.652728
0.639233
0.637291
0.658845
0.683947
0.719613
0.722583
0.673155
0.581952
0.575455
0.55953
0.509597
0.480915
0.48404
0.497523
0.532451
0.592894
0.661045
0.707373
0.746723
0.781439
0.808693
0.813613
0.784096
0.739581
0.725974
0.732436
0.758807
0.761187
0.733324
0.656793
0.564372
0.512929
0.493656
0.485775
0.496592
0.54924
0.594421
0.651527
0.699269
0.677274
0.608962
0.575904
0.56351
0.513011
0.484666
0.489287
0.506691
0.549146
0.615613
0.660681
0.686526
0.704149
0.714524
0.695909
0.673424
0.675784
0.68987
0.715984
0.740963
0.734553
0.667611
0.561838
0.496168
0.473988
0.45854
0.443186
0.427272
0.419356
0.437261
0.49213
0.566065
0.650782
0.674517
0.627521
0.576698
0.56942
0.519922
0.489328
0.494412
0.513651
0.560342
0.613479
0.634573
0.646285
0.649751
0.631513
0.625492
0.637117
0.657799
0.697108
0.721048
0.717625
0.620209
0.518714
0.482703
0.471101
0.470319
0.460372
0.442855
0.416012
0.396355
0.38966
0.404357
0.473109
0.588051
0.659049
0.633417
0.577491
0.578096
0.532851
0.494305
0.498574
0.517366
0.562055
0.598134
0.611125
0.615828
0.602319
0.595854
0.606115
0.627133
0.668651
0.695804
0.697593
0.632485
0.535166
0.494486
0.479969
0.493973
0.521155
0.512
0.475432
0.418489
0.386918
0.374809
0.37292
0.401914
0.536006
0.643296
0.639559
0.577167
0.586423
0.551566
0.500601
0.501053
0.516799
0.555353
0.583805
0.593439
0.590734
0.576722
0.581999
0.597568
0.636197
0.673256
0.6912
0.67367
0.600947
0.52744
0.511207
0.520072
0.536649
0.557425
0.560956
0.521645
0.453785
0.405926
0.382718
0.37836
0.401871
0.540224
0.655335
0.653404
0.575534
0.591835
0.573005
0.511374
0.50263
0.514253
0.545562
0.571505
0.579631
0.573536
0.565936
0.574136
0.59933
0.648721
0.678255
0.692206
0.670606
0.614388
0.579169
0.564132
0.555311
0.548942
0.566615
0.575273
0.569589
0.548819
0.516898
0.48153
0.488008
0.557586
0.655108
0.695814
0.669207
0.571417
0.594037
0.592008
0.532997
0.504325
0.511482
0.53458
0.5606
0.568862
0.563981
0.560837
0.570753
0.60406
0.662373
0.696534
0.718274
0.730864
0.728857
0.689312
0.611062
0.577982
0.563465
0.564821
0.572366
0.576605
0.583588
0.596343
0.614824
0.647961
0.680248
0.703884
0.703351
0.671657
0.565874
0.593882
0.605575
0.564097
0.509451
0.509376
0.524311
0.550465
0.560658
0.559168
0.5578
0.568523
0.604617
0.672274
0.728349
0.763934
0.786687
0.799139
0.786804
0.735256
0.660802
0.603781
0.572829
0.563457
0.561449
0.572106
0.596807
0.631487
0.666496
0.68332
0.685094
0.676174
0.651889
0.562731
0.592206
0.612513
0.596711
0.525616
0.508934
0.517283
0.539645
0.554704
0.557221
0.556395
0.565906
0.600331
0.66595
0.729921
0.768969
0.794878
0.810204
0.815163
0.80116
0.755923
0.6806
0.612496
0.567215
0.547728
0.537312
0.530012
0.53518
0.54694
0.572605
0.596627
0.608167
0.599503
0.563185
0.587205
0.614163
0.618623
0.561945
0.511605
0.513305
0.527298
0.549205
0.556139
0.556802
0.563732
0.593299
0.651938
0.710961
0.754697
0.786432
0.804222
0.811809
0.806135
0.772555
0.702123
0.635539
0.592305
0.561732
0.540148
0.523462
0.508776
0.49635
0.484239
0.481874
0.491524
0.495989
0.566537
0.583277
0.61247
0.630462
0.603324
0.525119
0.511983
0.519591
0.538881
0.554434
0.558344
0.563218
0.586529
0.631973
0.676946
0.714458
0.756465
0.787482
0.798146
0.79423
0.75921
0.683487
0.62492
0.59276
0.571983
0.557342
0.543381
0.524229
0.504773
0.483889
0.465374
0.4509
0.440579
0.573063
0.584606
0.609281
0.634384
0.632895
0.563318
0.51388
0.516163
0.527412
0.549545
0.560154
0.56471
0.58167
0.613577
0.643429
0.668282
0.701252
0.750592
0.764198
0.755352
0.698443
0.620941
0.593623
0.583126
0.575661
0.564133
0.55049
0.533609
0.52129
0.508535
0.497034
0.471375
0.45162
0.809081
0.886456
0.902833
0.845263
0.853587
0.793408
0.65817
0.551052
0.809165
0.879632
0.911155
0.860129
0.839207
0.822423
0.748043
0.617701
0.820943
0.88314
0.91773
0.889463
0.845514
0.822745
0.793299
0.730685
0.845702
0.896241
0.923617
0.91749
0.876365
0.84059
0.814151
0.786412
0.883142
0.920639
0.937179
0.937235
0.907968
0.867135
0.835659
0.815772
0.932596
0.959232
0.965221
0.96154
0.942211
0.912637
0.870625
0.845984
0.971822
0.987659
0.989777
0.983969
0.971928
0.95167
0.925838
0.884273
0.990891
1.00299
1.00461
0.999792
0.992217
0.977584
0.962958
0.933712
0.998442
1.01071
1.01199
1.00644
1.00056
0.99052
0.979886
0.962054
1.00479
1.01385
1.00964
0.996871
0.982949
0.974032
0.966272
0.954976
1.01567
0.9956
0.967889
0.933563
0.896716
0.885815
0.883273
0.880213
0.965609
0.895153
0.845468
0.820406
0.806468
0.799933
0.799564
0.79827
0.837418
0.810357
0.793228
0.783367
0.775845
0.771846
0.770178
0.768112
0.796988
0.779817
0.763481
0.747732