FoamFile
{
    version     2.0;
    format      ascii;
    class       volVectorField;
    object      U;
}
dimensions      [0 1 -1 0 0 0 0];

internalField   nonuniform List<vector>
16384
(
(0.08303850183673615 0.30894008117452143 0.0)
(-0.03711300850061393 0.19698284340418365 0.0)
(-0.1634114110980691 0.09142926818749855 0.0)
(-0.2796052212268975 0.002774538456769733 0.0)
(-0.37004350203875686 -0.06200876766600931 0.0)
(-0.42207528307843095 -0.10025956449324278 0.0)
(-0.42801799360305787 -0.11379422385710351 0.0)
(-0.3863826770956035 -0.10843760453784441 0.0)
(-0.30216757453762655 -0.09299227818850019 0.0)
(-0.18618516510154942 -0.07779436167532396 0.0)
(-0.05354409908536856 -0.07306014407014837 0.0)
(0.0784601960699588 -0.08725663468364103 0.0)
(0.1927061723470056 -0.12572712665216418 0.0)
(0.2744912242743 -0.1897695539214552 0.0)
(0.31332958526351135 -0.27630451730086486 0.0)
(0.30406038197273744 -0.3781888120801294 0.0)
(0.24714801084575824 -0.48513953946568694 0.0)
(0.14819436485998194 -0.5851456469786878 0.0)
(0.016807612035802545 -0.666170481285455 0.0)
(-0.1349362343432573 -0.7179016432802325 0.0)
(-0.29415914856374015 -0.7332909777936754 0.0)
(-0.4487037610352126 -0.7096513052725599 0.0)
(-0.5882991131079597 -0.6491356306753313 0.0)
(-0.7052462415154658 -0.5585118118084362 0.0)
(-0.7946049004454211 -0.44824917991582713 0.0)
(-0.8539600537346779 -0.3310384098372054 0.0)
(-0.8829180390254913 -0.21995606459769002 0.0)
(-0.8825148075561928 -0.1265461486886798 0.0)
(-0.8547080858764591 -0.059111963164338 0.0)
(-0.8020764212277722 -0.02148757263886983 0.0)
(-0.7277734169677135 -0.012491150049065952 0.0)
(-0.6357026816043555 -0.02616119513172495 0.0)
(-0.5308071218731302 -0.052755863708912554 0.0)
(-0.41932165522694975 -0.08037394565144632 0.0)
(-0.3088316923576594 -0.09695290996391887 0.0)
(-0.20801321840045278 -0.09233222999508965 0.0)
(-0.12599771874784546 -0.06005109959789104 0.0)
(-0.07139288063679158 0.0014165507412832318 0.0)
(-0.05107960247148452 0.08820384083117028 0.0)
(-0.0689780106785652 0.19146341084837265 0.0)
(-0.1250134903531257 0.29860553103566073 0.0)
(-0.2145080483237994 0.39518145112424014 0.0)
(-0.3281709771148113 0.4671222092576096 0.0)
(-0.4527731017758943 0.5029785104204595 0.0)
(-0.572475968320617 0.4957993445980391 0.0)
(-0.6706712995326541 0.4443385246410789 0.0)
(-0.732088305881943 0.3533821942533515 0.0)
(-0.7448656410451757 0.23313053839308806 0.0)
(-0.7022732633381676 0.09772087501249614 0.0)
(-0.6038108288891312 -0.03687838238267544 0.0)
(-0.455497639009899 -0.1552667507378158 0.0)
(-0.2692902383134606 -0.24491509756563715 0.0)
(-0.061697229008703294 -0.29799638334534806 0.0)
(0.14821582285358526 -0.3124413209668489 0.0)
(0.34114612521282284 -0.29204283466258096 0.0)
(0.49986658107958176 -0.24559064631509192 0.0)
(0.6112075365894453 -0.18517983312270597 0.0)
(0.6674412128650633 -0.12397742012269952 0.0)
(0.6669010703046976 -0.07382498828607789 0.0)
(0.6137893980825412 -0.04308639428807041 0.0)
(0.5172492827101637 -0.035111943141920524 0.0)
(0.3898814414831717 -0.047589273687047906 0.0)
(0.245955945766035 -0.07290317467033347 0.0)
(0.099594148943452 -0.09945607739658549 0.0)
(-0.03682409785034854 -0.11373668258608317 0.0)
(-0.15383188450349422 -0.1027939399219787 0.0)
(-0.24551402192645833 -0.056699777883991866 0.0)
(-0.30959564693169705 0.029420401967864294 0.0)
(-0.34704901451718084 0.15414401626432386 0.0)
(-0.3613506961176607 0.3095222446684666 0.0)
(-0.35755444200728753 0.4819273769894773 0.0)
(-0.34134498525808393 0.6538603274076397 0.0)
(-0.3182093634874713 0.8064419320245384 0.0)
(-0.29281434823185054 0.9221961472497864 0.0)
(-0.2686235531531237 0.9876818162123812 0.0)
(-0.24773806068563153 0.9955509747738505 0.0)
(-0.23090974702731146 0.9457022797838981 0.0)
(-0.21766223316238612 0.8453430553043213 0.0)
(-0.20646057838406617 0.7079486565842289 0.0)
(-0.1948925466174607 0.5512843902033613 0.0)
(-0.17985309256433477 0.3948040741220357 0.0)
(-0.15774989507925957 0.25683622797814154 0.0)
(-0.12476268899510079 0.15199839993580005 0.0)
(-0.07718744919815043 0.08923809928379878 0.0)
(-0.011877412919083591 0.07079291482463335 0.0)
(0.07323936962212815 0.09221079928460625 0.0)
(0.17862363425926747 0.14339961698719284 0.0)
(0.30265945277794254 0.2105112703917852 0.0)
(0.441366361125381 0.27833662627172573 0.0)
(0.5883899096322986 0.33281346531224876 0.0)
(0.7353404766229555 0.36324175063247466 0.0)
(0.8724970644205869 0.3638585530009586 0.0)
(0.9898261362854046 0.3345380634386292 0.0)
(1.0781979628892289 0.2805305667780036 0.0)
(1.1306286293857046 0.21131301203432148 0.0)
(1.1433476673717926 0.1387667863317006 0.0)
(1.1164978935379348 0.0750026057494466 0.0)
(1.0543178036640106 0.030202109565185098 0.0)
(0.96473284059778 0.010834140875545812 0.0)
(0.8583782670140795 0.018534314763123016 0.0)
(0.7471765435560375 0.04982207915602716 0.0)
(0.6426774239016566 0.09668972838438562 0.0)
(0.5544224249493729 0.14795588958922926 0.0)
(0.48860493080184775 0.19115465259759937 0.0)
(0.44725858443181893 0.2146495146829746 0.0)
(0.4281243127574747 0.2096305350277043 0.0)
(0.42523326003383544 0.17167688721126292 0.0)
(0.43011838301801825 0.10163998504932843 0.0)
(0.43345379716048604 0.0057116406736111985 0.0)
(0.4268393788477504 -0.1053307783369341 0.0)
(0.4044147341849622 -0.2175846890325698 0.0)
(0.36400923356679526 -0.3159661448029783 0.0)
(0.30761111876471153 -0.3863468665158134 0.0)
(0.24105648624831433 -0.41757087138610416 0.0)
(0.1729780070286013 -0.40306075813480763 0.0)
(0.1131888432623128 -0.34178896819473537 0.0)
(0.07078460641620708 -0.23848506754699983 0.0)
(0.05230513162147487 -0.10306121980786048 0.0)
(0.06029642790806858 0.05065198609580434 0.0)
(0.09255023150562806 0.20667385577311367 0.0)
(0.1421841208125528 0.3488962403883267 0.0)
(0.19857867309735938 0.46308304836285796 0.0)
(0.24903533380041185 0.5385803374704984 0.0)
(0.28088678933918015 0.5695175156500196 0.0)
(0.2837045988623869 0.5553547702128168 0.0)
(0.2512228458786628 0.5007231221571457 0.0)
(0.18263708212907012 0.4145987699829267 0.0)
(0.0830385018367364 0.30894008117452293 0.0)
(0.13040892012304672 0.43974390392726015 0.0)
(0.034658346826617795 0.342574109610048 0.0)
(-0.07945464993289253 0.23938096898410047 0.0)
(-0.1956846713420421 0.1393925865117292 0.0)
(-0.2966648076030371 0.050071062640165594 0.0)
(-0.36665812771776085 -0.02363799300161752 0.0)
(-0.3940902588064018 -0.07969949594172347 0.0)
(-0.3734531966954587 -0.11899094231237105 0.0)
(-0.30627540708604545 -0.14492234449907657 0.0)
(-0.20100814293871977 -0.16272860587718566 0.0)
(-0.0718556644385856 -0.17852866813987878 0.0)
(0.06325291690780241 -0.19827627843888723 0.0)
(0.18521886793252823 -0.22674439021683893 0.0)
(0.276449511769898 -0.2666857423901119 0.0)
(0.32324183042397847 -0.3182942432043356 0.0)
(0.3175237992059423 -0.37905574708285744 0.0)
(0.2577207903027234 -0.4440256008156147 0.0)
(0.14866489536606203 -0.5065096121323608 0.0)
(0.0006213489531798101 -0.5590628390715481 0.0)
(-0.17235870496701805 -0.5946661762838179 0.0)
(-0.35445823091299167 -0.607903488045102 0.0)
(-0.5301514476466588 -0.5959497373483716 0.0)
(-0.6859870976979316 -0.5591976886367739 0.0)
(-0.8118626710599671 -0.50139736482682 0.0)
(-0.9016643222464743 -0.42925353943013717 0.0)
(-0.9532688118613906 -0.35151243349739963 0.0)
(-0.9680138344308615 -0.2776562319975521 0.0)
(-0.9498218921371377 -0.21639827122789024 0.0)
(-0.9041979228002527 -0.17421896942718199 0.0)
(-0.8373089057860559 -0.15419248255197326 0.0)
(-0.7553008177372218 -0.15532204125247365 0.0)
(-0.6639285782067439 -0.17253031844567684 0.0)
(-0.5684867122013091 -0.1973494719102627 0.0)
(-0.47395183123255086 -0.21923917417258645 0.0)
(-0.3851989569348548 -0.2273491284457036 0.0)
(-0.30714200307924994 -0.2124549455271436 0.0)
(-0.2446759183291389 -0.16874955427086352 0.0)
(-0.2023571611562509 -0.09517716578225274 0.0)
(-0.18383655302246965 0.003944533239110523 0.0)
(-0.19113644206496375 0.11916283224019339 0.0)
(-0.22392461062398708 0.23700129583049206 0.0)
(-0.27896610759062385 0.34181007146978665 0.0)
(-0.3499233389511755 0.41809056697947006 0.0)
(-0.4276246635189233 0.45293747276533963 0.0)
(-0.5008409870473753 0.4382047304109804 0.0)
(-0.5575135766655108 0.37203037536991734 0.0)
(-0.5862832964689615 0.2594460759235491 0.0)
(-0.5781003819373689 0.11193763567573475 0.0)
(-0.5276596299914893 -0.054009331385287 0.0)
(-0.4344166225636858 -0.21917648329822118 0.0)
(-0.3029960242582356 -0.3643512318008244 0.0)
(-0.14289431596875213 -0.4731090324449251 0.0)
(0.03250912409075225 -0.5341948157636954 0.0)
(0.2075065387617263 -0.5431156566401747 0.0)
(0.3659630457910059 -0.5026795372030224 0.0)
(0.49328876824645695 -0.422384476727021 0.0)
(0.5781947932217485 -0.31675063917653445 0.0)
(0.6139822130426578 -0.20286375250182864 0.0)
(0.5991904527372882 -0.09753133160238647 0.0)
(0.5375346865672824 -0.014520617053871653 0.0)
(0.4371739435342649 0.037663458367910393 0.0)
(0.30945207593609614 0.057089697304798286 0.0)
(0.16732631652065016 0.0485816718104367 0.0)
(0.023731510306220865 0.02273742359693335 0.0)
(-0.1098813933398238 -0.006047932516876402 0.0)
(-0.22464214278972583 -0.02222401332299903 0.0)
(-0.3148786185649802 -0.01194566879065842 0.0)
(-0.37822826493432044 0.0343317360909232 0.0)
(-0.41530047248032587 0.1199628683819499 0.0)
(-0.4290113025452114 0.24125178450031393 0.0)
(-0.4237472098120478 0.3877710037906289 0.0)
(-0.40451687183277724 0.5438138327711263 0.0)
(-0.3762229536485456 0.6907442272819341 0.0)
(-0.34313739609119887 0.8098593057340551 0.0)
(-0.3086069467820627 0.8852955289598936 0.0)
(-0.2749632558012895 0.9065043445744602 0.0)
(-0.24357498252360182 0.8698970619196148 0.0)
(-0.21496471973546658 0.7793987306625776 0.0)
(-0.188922244178511 0.6458326088033333 0.0)
(-0.1645731424668031 0.4852493621708576 0.0)
(-0.14039934566967405 0.31648593763728317 0.0)
(-0.11424444230094445 0.1583597351181114 0.0)
(-0.08336119214498294 0.02695483769017621 0.0)
(-0.04456379715958999 -0.06656867220269534 0.0)
(0.0054695625890284275 -0.11730803440462209 0.0)
(0.06973476199936621 -0.12690949666890203 0.0)
(0.15031876167495078 -0.10281091537653643 0.0)
(0.24778140985390168 -0.056601081317182014 0.0)
(0.3606224598756764 -0.0018022024889028931 0.0)
(0.48496575129535224 0.04853285438727074 0.0)
(0.6145748299767173 0.08400005953961102 0.0)
(0.7412675914573752 0.09844419659435802 0.0)
(0.8557285652314283 0.09073358254243766 0.0)
(0.9486385475063384 0.06461213381978866 0.0)
(1.0119681007112828 0.02769129139079167 0.0)
(1.040229865011068 -0.01021159453078388 0.0)
(1.031467463508894 -0.03907738224516216 0.0)
(0.9877828364796831 -0.050672254765433224 0.0)
(0.9152681174484968 -0.040172128063893156 0.0)
(0.823303545553907 -0.007150259071733684 0.0)
(0.7232934512906843 0.04423064305526979 0.0)
(0.6270180340521858 0.10584219569853232 0.0)
(0.544859070640454 0.1669131034354376 0.0)
(0.48419604487020435 0.2158204750954384 0.0)
(0.4482557092491236 0.24204740758881613 0.0)
(0.4356323185374638 0.23798451558958167 0.0)
(0.4405870989402166 0.20028603954035087 0.0)
(0.45410184929803155 0.13056948403854104 0.0)
(0.46552633944800303 0.03535675997641038 0.0)
(0.46454713268929576 -0.07472436938985406 0.0)
(0.4431381029240546 -0.18634687494981897 0.0)
(0.39714431702660224 -0.2852798629012454 0.0)
(0.3272048755922138 -0.35830357364214854 0.0)
(0.23882915382988906 -0.39496782475304765 0.0)
(0.1415867367500174 -0.3889522350626049 0.0)
(0.04752894334323825 -0.3388545182697257 0.0)
(-0.03089896786143413 -0.24832203534749842 0.0)
(-0.08309698067404782 -0.12553696390866387 0.0)
(-0.10230543091837227 0.017847462775387485 0.0)
(-0.08699268388843692 0.1681549762505027 0.0)
(-0.04136967917631797 0.31131424609657055 0.0)
(0.025087107754495554 0.43445333879542103 0.0)
(0.09905109969223508 0.5272667347017692 0.0)
(0.16548026860702 0.5830036393199582 0.0)
(0.21012100459554303 0.5989840833904169 0.0)
(0.22195924719829974 0.5766131968785005 0.0)
(0.19519736187888392 0.5209255768219176 0.0)
(0.13040892012304683 0.4397439039272616 0.0)
(0.14185867694120613 0.5184611004816687 0.0)
(0.08023260320302257 0.44574292893136147 0.0)
(-0.009539471579457323 0.35635261641005794 0.0)
(-0.1124235712548065 0.2568550908564131 0.0)
(-0.21081152554222007 0.15386681154962537 0.0)
(-0.2874225709867076 0.05353176276617104 0.0)
(-0.32817370358950565 -0.038961585221356926 0.0)
(-0.32454718014247064 -0.11978422726082595 0.0)
(-0.2750694421908786 -0.18674638675012367 0.0)
(-0.18566560005895516 -0.23940833161307404 0.0)
(-0.06884109844455957 -0.2789887668621954 0.0)
(0.058165207515005604 -0.30806043256365745 0.0)
(0.1759474368903284 -0.3300549670133643 0.0)
(0.2657996034823267 -0.3486352034352185 0.0)
(0.3124267161906094 -0.36702510844912656 0.0)
(0.30608295660264734 -0.3874073899721325 0.0)
(0.24382670801146253 -0.41049980594303376 0.0)
(0.12973622597874668 -0.43540014172947333 0.0)
(-0.02589706302239715 -0.45974796358896236 0.0)
(-0.20821852581740694 -0.48019463971029697 0.0)
(-0.4000005046426786 -0.49311175176437094 0.0)
(-0.5840031932920585 -0.49541408948775323 0.0)
(-0.7451359613539029 -0.4853388891891779 0.0)
(-0.8721102148485992 -0.463016988106672 0.0)
(-0.9583837628441384 -0.43069823971359616 0.0)
(-1.002330891240238 -0.3925506369822015 0.0)
(-1.0067064518056061 -0.3540314323939479 0.0)
(-0.9775823359225722 -0.3209152144749467 0.0)
(-0.9230026909046983 -0.29814167671459224 0.0)
(-0.8516210674623917 -0.2886983260772827 0.0)
(-0.7715494495671436 -0.29276793964512293 0.0)
(-0.6895763244867905 -0.30734101504822076 0.0)
(-0.6108160161798221 -0.326421829888175 0.0)
(-0.5387550104433468 -0.34185351267949565 0.0)
(-0.47558250214573095 -0.3446701895112568 0.0)
(-0.42264661382030827 -0.3267743106162332 0.0)
(-0.38087185013669717 -0.28265632991830536 0.0)
(-0.3510059001431983 -0.210839635997536 0.0)
(-0.3336254361984289 -0.11475597780958538 0.0)
(-0.3289059105881728 -0.0028355119998554803 0.0)
(-0.3362319449992382 0.11227969654567717 0.0)
(-0.3537764976581145 0.21533931764026973 0.0)
(-0.37819701561223407 0.29069567006900804 0.0)
(-0.4045806804871976 0.32478913388044256 0.0)
(-0.42672192940474646 0.3085038920849313 0.0)
(-0.4377440397045188 0.23898575363249952 0.0)
(-0.43099791403910914 0.12058142801106268 0.0)
(-0.40110215728138 -0.03531043528989584 0.0)
(-0.3449441263474663 -0.21151202312650602 0.0)
(-0.26245195313757425 -0.3873100404490454 0.0)
(-0.15697567813653082 -0.5413470393795617 0.0)
(-0.035177028676961195 -0.6547154879219598 0.0)
(0.09358927074659883 -0.7137597413411643 0.0)
(0.21833024686915914 -0.712123989866792 0.0)
(0.32775451492302976 -0.6516968730212893 0.0)
(0.4116937104599833 -0.5422785382232816 0.0)
(0.4623855863243357 -0.4000048329684702 0.0)
(0.47542158268292073 -0.2447707998574938 0.0)
(0.45021914807998675 -0.09706591749968979 0.0)
(0.38996027014481843 0.025263387318150227 0.0)
(0.30102719021954605 0.10979134282648224 0.0)
(0.19204745682569663 0.15137097163190708 0.0)
(0.07271862360550471 0.15276485879732346 0.0)
(-0.047391876865449746 0.12394567517896644 0.0)
(-0.15988712369322944 0.08018720008397286 0.0)
(-0.2582801515430145 0.03927051913290788 0.0)
(-0.3383570028991073 0.01827923903421528 0.0)
(-0.3981621948531519 0.03052622900895307 0.0)
(-0.43767315233426823 0.08313072396950484 0.0)
(-0.45827841773513334 0.17565275109366948 0.0)
(-0.462194826558628 0.30001118571871427 0.0)
(-0.4519491225800981 0.4416935835238594 0.0)
(-0.4300138968334301 0.5820479172923145 0.0)
(-0.3986358501538281 0.7012658711699084 0.0)
(-0.3598389365023549 0.7815550409798832 0.0)
(-0.31553900748707475 0.8099718046675176 0.0)
(-0.2676806676560735 0.7804510955994142 0.0)
(-0.21830684548175894 0.6947115232736436 0.0)
(-0.1694966912684192 0.5619086227441009 0.0)
(-0.1231514520419691 0.3971212049427148 0.0)
(-0.08065999019280184 0.21894902530139432 0.0)
(-0.042522507444351806 0.046641443062147736 0.0)
(-0.008040507652254364 -0.10275679442939216 0.0)
(0.024815590763404574 -0.21677471204882917 0.0)
(0.05927543799841206 -0.289028867089021 0.0)
(0.09933956529557803 -0.3196693380631879 0.0)
(0.14908375852354772 -0.3147348772399043 0.0)
(0.2117966644207625 -0.2845810381176174 0.0)
(0.2891042447467739 -0.24169712881353378 0.0)
(0.3802611384425425 -0.19831967589173796 0.0)
(0.4817794151686892 -0.16426766255552971 0.0)
(0.5875182002724135 -0.14536756415108154 0.0)
(0.6892796782976538 -0.14271675900632985 0.0)
(0.777861495661053 -0.15287540412195064 0.0)
(0.8444206772952516 -0.16890859747865922 0.0)
(0.881929139944739 -0.182052578365538 0.0)
(0.8864623552790024 -0.1836761875210792 0.0)
(0.8580711324385119 -0.16716819084938975 0.0)
(0.801043655153187 -0.12940717805021265 0.0)
(0.723463136126294 -0.07155641487115806 0.0)
(0.6360895568268194 0.0009461522945746334 0.0)
(0.5507199797943899 0.07918670960592282 0.0)
(0.4782870848512024 0.15220963642243607 0.0)
(0.42701882580849854 0.20882768409481894 0.0)
(0.4009892502396556 0.23949255080788137 0.0)
(0.39933730568403364 0.23791007723291374 0.0)
(0.4163237705231443 0.20213805177690522 0.0)
(0.4422535292407373 0.135000189854155 0.0)
(0.46513599741372497 0.04376858447153284 0.0)
(0.4728184825182302 -0.06081279441735318 0.0)
(0.4552315892279701 -0.1659896921174974 0.0)
(0.4063515432854754 -0.25870399892277907 0.0)
(0.3255199959091044 -0.3272819680698885 0.0)
(0.2178634314240576 -0.36286245724260435 0.0)
(0.09370552238934027 -0.36038156898727464 0.0)
(-0.03295908418215348 -0.31901203463854855 0.0)
(-0.1466928232252323 -0.24204549004008996 0.0)
(-0.23317742227469954 -0.13628762936774996 0.0)
(-0.28167330346519187 -0.011097357503641764 0.0)
(-0.28694548923838537 0.12276614223266552 0.0)
(-0.2503077377655334 0.2543216947651604 0.0)
(-0.17958214392503577 0.3734262260433554 0.0)
(-0.08795549181696502 0.47161409641429936 0.0)
(0.0080955955120065 0.5426616122538263 0.0)
(0.09147468694132657 0.5828686350270185 0.0)
(0.14728671489815137 0.5910848911613044 0.0)
(0.16533378733819004 0.5685297910467061 0.0)
(0.14185867694120596 0.5184611004816703 0.0)
(0.11112435580210081 0.5378529748523623 0.0)
(0.08950389966550341 0.4956692311436498 0.0)
(0.03348794726386946 0.4288440708710151 0.0)
(-0.04412188871057499 0.3403061589241244 0.0)
(-0.1269268657487175 0.23475193339605127 0.0)
(-0.19777085268535827 0.11848446645001437 0.0)
(-0.24169140014845297 -0.0010383371330951133 0.0)
(-0.24849096808726853 -0.11592160068120025 0.0)
(-0.21450583265598794 -0.2187273341551413 0.0)
(-0.14328914735610476 -0.30340282373056426 0.0)
(-0.04510905337567524 -0.3660775190378209 0.0)
(0.06463959514362425 -0.4055719898023546 0.0)
(0.1678342841688259 -0.42350637393484136 0.0)
(0.24643224524695934 -0.42396637591491193 0.0)
(0.2852274183348752 -0.41276865998708995 0.0)
(0.2741198143802168 -0.39644732551610273 0.0)
(0.20955366288672922 -0.38114205365786713 0.0)
(0.09492787804338258 -0.3715932074979213 0.0)
(-0.06004378590620349 -0.37043307232720757 0.0)
(-0.24087552177623028 -0.37790728298053705 0.0)
(-0.4304703238024513 -0.3920763018315372 0.0)
(-0.6115308233149246 -0.4094500360111112 0.0)
(-0.768834497604968 -0.42591900231358076 0.0)
(-0.8910352213100684 -0.4377817851347051 0.0)
(-0.9717538830919488 -0.44264506969631895 0.0)
(-1.009854124038359 -0.4399955889829733 0.0)
(-1.0089400154207986 -0.431309751423255 0.0)
(-0.976235729121602 -0.4196642040802165 0.0)
(-0.9210927066185904 -0.40891985486284943 0.0)
(-0.8534053550978751 -0.40265039922352014 0.0)
(-0.7821996035182222 -0.40305291372637536 0.0)
(-0.7145971346887101 -0.41009703091130617 0.0)
(-0.6552668826082744 -0.42113416980091956 0.0)
(-0.6063739549440851 -0.4311036777666549 0.0)
(-0.5679444437237423 -0.4333533722328792 0.0)
(-0.538499154074366 -0.4209605534143555 0.0)
(-0.5157802735682163 -0.3883224232034172 0.0)
(-0.49740465270195616 -0.33270681700668886 0.0)
(-0.48132004044044246 -0.25543350961995165 0.0)
(-0.466004450192801 -0.1624008657261751 0.0)
(-0.45041849333837813 -0.06377750848756929 0.0)
(-0.4337805499358106 0.02717296393589204 0.0)
(-0.41527264704105127 0.0960007314951436 0.0)
(-0.3937939509775162 0.12942700725179299 0.0)
(-0.36785856493788366 0.11775726636175679 0.0)
(-0.335690969337764 0.05691731406516631 0.0)
(-0.29551688628086564 -0.05028320938877662 0.0)
(-0.2459928267534072 -0.19394212560410234 0.0)
(-0.18667669784186378 -0.3580216917395259 0.0)
(-0.11842388373507905 -0.5223814188781399 0.0)
(-0.04360218911750441 -0.6656023533750168 0.0)
(0.03394704826267421 -0.7681658000514535 0.0)
(0.10922298027547894 -0.8154681028656997 0.0)
(0.17661810524402083 -0.800160352097824 0.0)
(0.23062239409390572 -0.7233995131367529 0.0)
(0.26655734101775486 -0.5947708795195088 0.0)
(0.28120963636236285 -0.4308622430902909 0.0)
(0.27325200883339906 -0.2526998303040057 0.0)
(0.2433796758324425 -0.08245442864466407 0.0)
(0.19414609715539052 0.06004247425321556 0.0)
(0.12953963862164597 0.16039269205322979 0.0)
(0.05439109786008059 0.21181549486452508 0.0)
(-0.02626928365575694 0.21605252840096598 0.0)
(-0.10778352888884957 0.18284005562914715 0.0)
(-0.18626719412394313 0.1280391297386721 0.0)
(-0.25878418478495413 0.0707439159035309 0.0)
(-0.323293020693046 0.02986328467240936 0.0)
(-0.37841505106465856 0.02076023660679678 0.0)
(-0.42311459048382116 0.05252195202234646 0.0)
(-0.45639835246421256 0.1263224318910201 0.0)
(-0.47713282544082314 0.23514944858107353 0.0)
(-0.48404513122477155 0.36493147827055983 0.0)
(-0.4759227441766437 0.49686000271236425 0.0)
(-0.45197160111362855 0.6105001028400912 0.0)
(-0.4122436080848629 0.6871526660330174 0.0)
(-0.3580151681592225 0.7128966272032358 0.0)
(-0.29199608211991745 0.6808043063736281 0.0)
(-0.21827522345094924 0.5919742604712276 0.0)
(-0.14196148934389907 0.45523612951107933 0.0)
(-0.06854557080418093 0.28561275811410386 0.0)
(-0.003076042390664408 0.1018354207285978 0.0)
(0.05070295257555347 -0.0766383499142309 0.0)
(0.0910785298930282 -0.23258379948271954 0.0)
(0.11879502583750022 -0.3534464092052723 0.0)
(0.13705834159941216 -0.4328681524740644 0.0)
(0.15107207935157813 -0.4710867507455373 0.0)
(0.16714935089836214 -0.4741981128771585 0.0)
(0.1915334480665042 -0.4524725517562736 0.0)
(0.22913032888306684 -0.41807451372409393 0.0)
(0.2823905235719161 -0.38262619937937314 0.0)
(0.35056815520903356 -0.35506355367090725 0.0)
(0.4295292273692593 -0.34015999488105514 0.0)
(0.5121881202536271 -0.33795497729582963 0.0)
(0.5895362563241059 -0.34414843156935515 0.0)
(0.6521112448371182 -0.3513416903177642 0.0)
(0.691660901870372 -0.3508537704351361 0.0)
(0.7027037677685282 -0.33474556389267246 0.0)
(0.6836885710914773 -0.2976592214034639 0.0)
(0.6375123010173156 -0.2381278384081764 0.0)
(0.5712622691837002 -0.1591199971160887 0.0)
(0.49518425840710123 -0.06773238423344054 0.0)
(0.4210223583763284 0.025897194950487742 0.0)
(0.35999978763148704 0.11024415271119647 0.0)
(0.3207898702976977 0.17431067818002655 0.0)
(0.307845547680866 0.2094543073414485 0.0)
(0.32040816920571025 0.21081499644909868 0.0)
(0.35240782315315633 0.17810769961610443 0.0)
(0.39331563491783206 0.11566879348874663 0.0)
(0.42983941650043844 0.031779733794056415 0.0)
(0.4481980084999293 -0.06258540204982287 0.0)
(0.4365954494515219 -0.1553522677327688 0.0)
(0.38746584292516223 -0.2350008234532544 0.0)
(0.29908459970203294 -0.2920156305201314 0.0)
(0.17623943190097274 -0.31992343091764847 0.0)
(0.02980964111535183 -0.3158002424015284 0.0)
(-0.1247113117718452 -0.2802338306462255 0.0)
(-0.2695296749073414 -0.21682320802042843 0.0)
(-0.38733023591112403 -0.13136694424080447 0.0)
(-0.46405905758407 -0.030925125428767138 0.0)
(-0.4912381391243277 0.07706735825484103 0.0)
(-0.46741109603802056 0.1855005426145123 0.0)
(-0.3984608560589487 0.28803117046291904 0.0)
(-0.2967292449075853 0.37926676333387455 0.0)
(-0.17907174446260476 0.45475350840082646 0.0)
(-0.06416331790724789 0.5108676587405233 0.0)
(0.030498951721952626 0.5447179912856099 0.0)
(0.09139647891310526 0.5541444906150221 0.0)
(0.11112435580210045 0.5378529748523637 0.0)
(0.038953020263493274 0.4991131936784383 0.0)
(0.058630745012107424 0.4892596511604618 0.0)
(0.04173283927118783 0.44995423311179594 0.0)
(-0.0018850168707867363 0.380056931655464 0.0)
(-0.058264173086877646 0.2816713639157822 0.0)
(-0.11192800525188215 0.16041419680712438 0.0)
(-0.14866354827271988 0.025079723312453436 0.0)
(-0.15803108261513932 -0.11329854089649302 0.0)
(-0.13518783497683803 -0.24286442599505062 0.0)
(-0.0817352885269513 -0.35260567887387306 0.0)
(-0.005468957467260728 -0.4339805446526345 0.0)
(0.08090498795802589 -0.4822079832430244 0.0)
(0.1618520377404833 -0.4969771415482458 0.0)
(0.22153060370021233 -0.48243323132461075 0.0)
(0.24633042813975234 -0.446428992168403 0.0)
(0.22701688564652825 -0.3991679144868873 0.0)
(0.16014850096743843 -0.35148037654723996 0.0)
(0.04856580194893949 -0.31304379587432996 0.0)
(-0.09909151102246266 -0.29086844112549926 0.0)
(-0.2697231451443349 -0.2883189802457434 0.0)
(-0.4477143468929174 -0.3048377840379388 0.0)
(-0.6171567806461207 -0.33639965659017373 0.0)
(-0.7639861668142182 -0.3765858601982336 0.0)
(-0.8777138822260614 -0.4180462092581751 0.0)
(-0.9525157992844578 -0.45404548418926755 0.0)
(-0.9875608873899899 -0.4797791720359736 0.0)
(-0.9865921605537687 -0.49319607202882126 0.0)
(-0.9568906343860404 -0.49517125206272655 0.0)
(-0.9078398842366207 -0.4890109226239276 0.0)
(-0.8493522022715754 -0.4794129610131167 0.0)
(-0.7904134118879339 -0.4711238403034944 0.0)
(-0.7379569260511756 -0.4676000833334736 0.0)
(-0.6962005816485201 -0.4699853259712391 0.0)
(-0.6664885191252897 -0.476650816874865 0.0)
(-0.6475923602524977 -0.48342942545416173 0.0)
(-0.6363563953646787 -0.48452413893781193 0.0)
(-0.6285307830952325 -0.4739217633574617 0.0)
(-0.6196288596704334 -0.4470223161037682 0.0)
(-0.6056669554039275 -0.40213039435034176 0.0)
(-0.5836895730799855 -0.3414620008189277 0.0)
(-0.5520379828086748 -0.2714002898661617 0.0)
(-0.5103740414481462 -0.2018731772203073 0.0)
(-0.45951291787766274 -0.144899005984576 0.0)
(-0.40114168305609127 -0.11252005558914682 0.0)
(-0.33750344010213296 -0.11448289580836679 0.0)
(-0.27111155376333784 -0.15610022115897187 0.0)
(-0.20453195751702657 -0.2367230832088421 0.0)
(-0.14024170400671343 -0.3491628692029256 0.0)
(-0.08054692383793254 -0.48024268035187956 0.0)
(-0.02752914616784683 -0.612455723788226 0.0)
(0.017011861313979575 -0.7265008414551509 0.0)
(0.05163910970778964 -0.8042915357557864 0.0)
(0.07538435922197714 -0.83192884925926 0.0)
(0.08785951472624404 -0.8021124807921419 0.0)
(0.08933872431334446 -0.7155445438817951 0.0)
(0.0807719861828815 -0.5810445406263424 0.0)
(0.06369972713623315 -0.414314567602124 0.0)
(0.04005842584320804 -0.23553148490586578 0.0)
(0.011895323512476883 -0.06615468174790273 0.0)
(-0.01896139149196188 0.07451504984514762 0.0)
(-0.05120955243475056 0.17243615668393988 0.0)
(-0.08428271404481302 0.22104765428283613 0.0)
(-0.11839875403586622 0.22221974861271535 0.0)
(-0.15441148744316224 0.1857613442101498 0.0)
(-0.193470144208549 0.1275639330349022 0.0)
(-0.23653702110629854 0.06670115769455173 0.0)
(-0.28385378185277543 0.021987875248970216 0.0)
(-0.3344719204619809 0.008598409025615948 0.0)
(-0.3859654356955538 0.035333381167113716 0.0)
(-0.43442069299979924 0.10300975355854972 0.0)
(-0.4747520082019956 0.20425005424104065 0.0)
(-0.5013291859165985 0.3246999667160291 0.0)
(-0.5088366799492945 0.44545286496760395 0.0)
(-0.4932267417267372 0.546250351554897 0.0)
(-0.45259364376510175 0.6088965931216099 0.0)
(-0.3877920721040841 0.6202940310615055 0.0)
(-0.3026536700171614 0.5745831928659706 0.0)
(-0.2037182700510767 0.47403505672755514 0.0)
(-0.09948072904726085 0.3285697191220426 0.0)
(0.0007544476171236214 0.1540185865430873 0.0)
(0.08823769112540283 -0.030535133521669006 0.0)
(0.15613126930256482 -0.20584991676461356 0.0)
(0.2006169011930946 -0.3555035811997319 0.0)
(0.22154236379220715 -0.46824335687023017 0.0)
(0.22246691000047464 -0.5393255318012365 0.0)
(0.2100673906030398 -0.5706560188076788 0.0)
(0.19298195929784615 -0.569765571710068 0.0)
(0.18027509998043886 -0.5478625859317318 0.0)
(0.1797858723724714 -0.5173644664437054 0.0)
(0.19665457976139145 -0.4893878205627735 0.0)
(0.23230310096807505 -0.4716658837197863 0.0)
(0.28407215775930117 -0.46726347878597047 0.0)
(0.3456059336406478 -0.4742962180962441 0.0)
(0.4079400203880316 -0.48666400426650563 0.0)
(0.461116808833432 -0.4956168879871543 0.0)
(0.4960478274338315 -0.4918198019582979 0.0)
(0.5062857178304223 -0.4674988187402627 0.0)
(0.48937194849558063 -0.4182490869294079 0.0)
(0.44749168807837675 -0.34416146399568553 0.0)
(0.38728473297744986 -0.2500641370267974 0.0)
(0.31881123887954366 -0.14484894814978722 0.0)
(0.25382679918320383 -0.04002583648783209 0.0)
(0.2036547112422845 0.05221012680699341 0.0)
(0.17702884624839665 0.12103186630685034 0.0)
(0.1783011162288263 0.1587756127965912 0.0)
(0.20635720094554152 0.1621612348597234 0.0)
(0.254469814038275 0.13273863413751813 0.0)
(0.3111590643793237 0.0765121299011573 0.0)
(0.36195186741625124 0.002848183851719796 0.0)
(0.3917683116760036 -0.0771017600521296 0.0)
(0.38754217219819337 -0.15215533519316832 0.0)
(0.3406280958293019 -0.21270876991128024 0.0)
(0.24857074911189336 -0.25192947322643416 0.0)
(0.11590920531521401 -0.26635828504125264 0.0)
(-0.04615261092356809 -0.2558749054488814 0.0)
(-0.221188041592853 -0.22310812964483834 0.0)
(-0.38989025049574666 -0.1724758652529757 0.0)
(-0.5329455263228856 -0.10909854690048243 0.0)
(-0.6339712297330453 -0.03783342446093134 0.0)
(-0.6820345596229975 0.03737210363521571 0.0)
(-0.6733332013011425 0.11369975813789067 0.0)
(-0.6117559020515189 0.18925340302214486 0.0)
(-0.5082269223032341 0.2625316986313968 0.0)
(-0.378941321020382 0.3317632259080918 0.0)
(-0.24278327254696794 0.39431951734318743 0.0)
(-0.1183552532702951 0.4464027865058292 0.0)
(-0.021108786992574916 0.48313954481458854 0.0)
(0.0389530202634929 0.4991131936784394 0.0)
(-0.06712234757471068 0.41192613952921925 0.0)
(-0.009436447521201884 0.4319131981752634 0.0)
(0.013479513415902717 0.4207816363491615 0.0)
(0.008198617871095451 0.3734568806139522 0.0)
(-0.014618767745939577 0.28925055735003546 0.0)