/*--------------------------------*- C++ -*----------------------------------*\
  =========                 |
  \\      /  F ield         | OpenFOAM: The Open Source CFD Toolbox
   \\    /   O peration     | Website:  https://openfoam.org
    \\  /    A nd           | Version:  11
     \\/     M anipulation  |
\*---------------------------------------------------------------------------*/
FoamFile
{
    format      ascii;
    class       volScalarField;
    location    "5";
    object      mag(U);
}
// * * * * * * * * * * * * * * * * * * * * * * * * * * * * * * * * * * * * * //

dimensions      [0 1 -1 0 0 0 0];

internalField   nonuniform List<scalar> 
9600
(
0.990433
0.990201
0.989676
0.989121
0.988717
0.9885
0.988683
0.989182
0.990013
0.991222
0.992895
0.99497
0.998172
1.00036
0.996159
0.976921
0.960459
0.954687
0.955478
0.963244
0.982254
1.00046
1.01668
1.03257
1.04527
1.05472
1.06305
1.0691
1.071
1.07055
1.06882
1.06619
1.06305
1.05924
1.05436
1.04812
1.04073
1.03405
1.02795
1.021
0.991468
0.991495
0.991591
0.991689
0.991775
0.992087
0.992708
0.994069
0.995869
0.997331
0.998601
1.00072
1.00382
1.00661
1.01064
1.01607
1.01947
1.01962
1.02012
1.02291
1.02838
1.03602
1.04397
1.05092
1.05723
1.06293
1.0668
1.069
1.0693
1.06871
1.06715
1.06337
1.0596
1.05229
1.04792
1.03963
1.03516
1.0265
1.02298
1.00924
0.991399
0.991543
0.991642
0.991736
0.991979
0.992448
0.993244
0.994573
0.996091
0.997233
0.998489
1.00138
1.00637
1.01138
1.01502
1.01623
1.01546
1.01119
1.01011
1.01215
1.01961
1.02796
1.03875
1.04836
1.05866
1.06646
1.07288
1.0779
1.08168
1.08386
1.08382
1.08245
1.07989
1.07398
1.0693
1.06169
1.05697
1.04896
1.04549
1.03719
0.991341
0.991549
0.991635
0.991727
0.991989
0.992434
0.993331
0.994511
0.99594
0.997909
0.999888
1.00195
1.00552
1.01122
1.01596
1.01896
1.02266
1.02767
1.03454
1.04145
1.04802
1.05391
1.05994
1.06416
1.06826
1.07064
1.07287
1.07459
1.07468
1.07399
1.07182
1.06717
1.06374
1.05744
1.05311
1.04645
1.04195
1.03388
1.02958
1.02009
0.991245
0.991473
0.991609
0.991732
0.991998
0.992545
0.993409
0.99472
0.99639
0.998313
1.00056
1.00305
1.00533
1.0089
1.01693
1.02524
1.0321
1.03465
1.03644
1.03668
1.03815
1.04076
1.04659
1.0527
1.06061
1.06682
1.07319
1.07682
1.08003
1.08225
1.08353
1.08289
1.08146
1.07665
1.07213
1.06473
1.06012
1.05226
1.04823
1.04115
0.991116
0.991389
0.991584
0.991665
0.99201
0.992498
0.993407
0.994903
0.996821
0.998835
1.00033
1.00242
1.00646
1.01158
1.01722
1.02313
1.02917
1.03454
1.04173
1.04858
1.05549
1.06097
1.06679
1.07121
1.07588
1.07858
1.07997
1.08155
1.08196
1.08146
1.07902
1.0736
1.06974
1.0634
1.05937
1.05277
1.04854
1.04064
1.03647
1.02677
0.99104
0.991305
0.991527
0.991643
0.992101
0.992678
0.993546
0.995026
0.997266
0.99933
1.00075
1.00257
1.00674
1.01213
1.01797
1.02378
1.03096
1.03808
1.04442
1.04875
1.05178
1.05344
1.05643
1.05969
1.06497
1.06908
1.07497
1.07778
1.08088
1.08193
1.084
1.08385
1.08359
1.07966
1.07589
1.06866
1.06402
1.05638
1.05178
1.04472
0.990825
0.991173
0.991427
0.991616
0.992085
0.992636
0.993538
0.99514
0.997626
0.999169
1.0013
1.00383
1.00718
1.01179
1.01852
1.02493
1.03154
1.03655
1.04219
1.04821
1.05556
1.06251
1.06936
1.07458
1.07984
1.0835
1.08633
1.0875
1.08843
1.08898
1.08762
1.08281
1.07825
1.07085
1.0667
1.05984
1.05566
1.04777
1.04352
1.03374
0.990768
0.991071
0.991388
0.99167
0.992131
0.992775
0.993738
0.99529
0.997917
1.00006
1.00206
1.00402
1.00719
1.01208
1.0187
1.0252
1.03092
1.03749
1.04379
1.04998
1.0554
1.06031
1.06502
1.06872
1.07248
1.07482
1.07937
1.08147
1.08422
1.08421
1.08557
1.08527
1.08619
1.08331
1.08048
1.07386
1.06902
1.06157
1.05629
1.04902
0.990586
0.990793
0.991133
0.991573
0.992011
0.99267
0.993735
0.995356
0.997823
1.00033
1.00227
1.00438
1.00767
1.01211
1.01854
1.02507
1.03181
1.03779
1.04311
1.04781
1.05336
1.06018
1.06777
1.07465
1.0808
1.08547
1.09013
1.09231
1.09432
1.095
1.09528
1.09246
1.08906
1.08111
1.07634
1.06866
1.06428
1.05587
1.05137
1.04116
0.990416
0.990819
0.991141
0.99148
0.992172
0.992875
0.993883
0.995391
0.998014
1.00071
1.00305
1.00503
1.00742
1.01222
1.01867
1.02586
1.03196
1.03796
1.04316
1.04878
1.0541
1.05997
1.06554
1.0717
1.07762
1.08115
1.08542
1.08732
1.09044
1.09007
1.09071
1.08896
1.09005
1.08742
1.08557
1.07997
1.07518
1.06804
1.06259
1.05443
0.989967
0.990469
0.990796
0.991056
0.991919
0.992562
0.993531
0.995215
0.997867
1.0006
1.00323
1.00495
1.00784
1.0123
1.01886
1.02564
1.03263
1.03871
1.04412
1.04839
1.05227
1.057
1.06329
1.07066
1.07859
1.08504
1.09163
1.09538
1.09941
1.10067
1.10227
1.10097
1.09965
1.09316
1.08843
1.07993
1.07482
1.06612
1.0611
1.04981
0.989877
0.990391
0.990745
0.991097
0.991891
0.992596
0.993924
0.99544
0.998087
1.00084
1.00338
1.00578
1.00857
1.01331
1.01928
1.02579
1.03228
1.03885
1.04376
1.04831
1.05205
1.05693
1.06196
1.06792
1.0757
1.08227
1.08915
1.0927
1.09747
1.09844
1.0998
1.09751
1.09715
1.09411
1.09236
1.08763
1.08328
1.0758
1.07086
1.06193
0.989375
0.989824
0.990272
0.990619
0.991365
0.992025
0.993356
0.995033
0.997872
1
1.00356
1.00595
1.00903
1.0134
1.01927
1.02545
1.03207
1.03828
1.04397
1.04857
1.05226
1.05533
1.05986
1.06471
1.07289
1.08006
1.08917
1.09535
1.10193
1.10585
1.10914
1.10944
1.10985
1.10552
1.10184
1.09401
1.08798
1.07865
1.07343
1.0614
0.989118
0.989783
0.990187
0.990569
0.991633
0.992073
0.993395
0.995351
0.998022
1.00111
1.00404
1.00693
1.01007
1.0146
1.02026
1.02609
1.03148
1.03796
1.04382
1.04923
1.05271
1.0559
1.05984
1.06376
1.07025
1.07713
1.08673
1.09315
1.10094
1.10521
1.10955
1.10971
1.10929
1.10581
1.10323
1.09785
1.09414
1.08597
1.08147
1.07122
0.988232
0.988972
0.989306
0.989648
0.990958
0.991503
0.992792
0.994361
0.997572
1.0002
1.00339
1.0068
1.01008
1.0148
1.01998
1.02547
1.03119
1.03695
1.04308
1.04823
1.05353
1.05664
1.06071
1.06376
1.0686
1.07434
1.08271
1.09151
1.10038
1.10757
1.114
1.11719
1.12004
1.1183
1.11597
1.10957
1.10463
1.09412
1.08917
1.07645
0.988073
0.988719
0.989359
0.989408
0.990945
0.992047
0.993028
0.994819
0.997401
1.0008
1.00429
1.00807
1.01141
1.01601
1.02045
1.0268
1.03144
1.03723
1.04226
1.04805
1.05342
1.05743
1.06178
1.06504
1.06958
1.07369
1.08068
1.08819
1.09761
1.1056
1.11343
1.11814
1.12174
1.1205
1.1195
1.11276
1.10977
1.10022
1.09625
1.08417
0.986881
0.98736
0.988132
0.988228
0.989642
0.990642
0.9925
0.993696
0.996105
0.99981
1.00306
1.00746
1.01058
1.01549
1.01999
1.02608
1.03103
1.03687
1.04163
1.0467
1.05207
1.05677
1.06182
1.06611
1.07015
1.07505
1.07977
1.08625
1.09365
1.10232
1.11235
1.11954
1.12652
1.1283
1.13062
1.12543
1.12339
1.1127
1.10838
1.09505
0.98707
0.987257
0.98832
0.988398
0.989152
0.990483
0.992667
0.994685
0.996739
1.00016
1.00334
1.00835
1.01151
1.01739
1.02099
1.02712
1.03136
1.03769
1.04226
1.04739
1.05145
1.05636
1.06095
1.0658
1.07085
1.07599
1.08099
1.08721
1.0937
1.10102
1.11001
1.1177
1.12711
1.12999
1.13549
1.13133
1.13098
1.12061
1.11722
1.1024
0.985442
0.985811
0.986895
0.986743
0.987644
0.988584
0.990667
0.993715
0.995597
0.999321
1.00182
1.00683
1.01056
1.01607
1.0201
1.02603
1.0302
1.0366
1.04128
1.04698
1.05096
1.05531
1.05925
1.0643
1.06912
1.07537
1.08095
1.08784
1.09476
1.10152
1.10995
1.11664
1.12731
1.13227
1.14134
1.14027
1.14357
1.13513
1.1331
1.11804
0.985264
0.985802
0.986698
0.986955
0.987732
0.988845
0.990469
0.99365
0.996192
1.00045
1.00296
1.0078
1.01123
1.01699
1.0216
1.02763
1.0322
1.03797
1.04221
1.0475
1.05189
1.05544
1.05978
1.06278
1.06729
1.07316
1.07983
1.0865
1.0951
1.10223
1.11275
1.11893
1.13012
1.1338
1.14445
1.14434
1.15072
1.14401
1.14478
1.1292
0.983029
0.983669
0.98446
0.985016
0.985645
0.987295
0.988399
0.991428
0.993894
0.998424
1.00175
1.00623
1.01025
1.01566
1.02022
1.02647
1.03149
1.03694
1.04151
1.0457
1.05033
1.05411
1.0587
1.0614
1.06601
1.06956
1.0773
1.08293
1.09317
1.10018
1.11305
1.12018
1.13396
1.13839
1.15047
1.15072
1.15959
1.15417
1.15918
1.14451
0.982388
0.983487
0.984073
0.984913
0.985517
0.987495
0.988955
0.992158
0.99465
0.998867
1.00247
1.00719
1.01206
1.01757
1.02243
1.02817
1.03326
1.03926
1.04395
1.04794
1.05204
1.05507
1.05898
1.0613
1.06567
1.06803
1.07374
1.0784
1.0892
1.09655
1.11076
1.11912
1.1362
1.14302
1.15906
1.16013
1.17106
1.16521
1.17139
1.15705
0.97908
0.980896
0.980956
0.982269
0.982558
0.984425
0.986367
0.989334
0.992704
0.996507
1.0006
1.00523
1.01015
1.01609
1.02187
1.02765
1.03258
1.03801
1.04302
1.04738
1.05112
1.05347
1.05711
1.05856
1.06221
1.06405
1.06971
1.07342
1.08362
1.09049
1.10547
1.11476
1.13402
1.14285
1.16417
1.16852
1.18502
1.1812
1.1902
1.17391
0.978177
0.980369
0.980655
0.982036
0.982915
0.984617
0.986828
0.989738
0.993694
0.997744
1.00259
1.00718
1.01275
1.01825
1.02407
1.03051
1.03581
1.04129
1.04602
1.05028
1.05387
1.05541
1.05841
1.05887
1.0613
1.06185
1.06633
1.0689
1.07765
1.08342
1.09776
1.10738
1.12833
1.13908
1.16419
1.17345
1.19659
1.1969
1.21218
1.19622
0.974079
0.97604
0.976682
0.977641
0.97908
0.980821
0.983566
0.986627
0.990762
0.994882
1.00062
1.0054
1.01157
1.0177
1.02342
1.02978
1.03552
1.04071
1.04586
1.04963
1.05338
1.05475
1.05682
1.05676
1.05766
1.05728
1.06015
1.06087
1.06781
1.07265
1.08616
1.09602
1.11772
1.13069
1.15903
1.17106
1.20274
1.20738
1.233
1.22023
0.97427
0.975664
0.976843
0.977433
0.979265
0.980804
0.984481
0.987187
0.993034
0.996703
1.00312
1.00828
1.01524
1.02064
1.02858
1.03365
1.04089
1.04488
1.05068
1.05356
1.0571
1.0581
1.05865
1.05778
1.05703
1.05555
1.05617
1.05596
1.05987
1.06265
1.07301
1.08136
1.10159
1.1159
1.14697
1.16304
1.20105
1.2119
1.24936
1.24544
0.969323
0.970632
0.972026
0.972525
0.974983
0.975968
0.980616
0.983005
0.989414
0.99366
1.00104
1.00609
1.01448
1.01975
1.02822
1.03375
1.0412
1.04613
1.05129
1.05482
1.0572
1.05858
1.0584
1.05671
1.05476
1.05188
1.04976
1.04722
1.04806
1.04819
1.05452
1.0609
1.07744
1.09177
1.12215
1.14246
1.18614
1.20533
1.25577
1.26757
0.969694
0.97008
0.973222
0.972651
0.976567
0.977413
0.983076
0.985092
0.992944
0.996495
1.00544
1.01022
1.01961
1.02541
1.03411
1.04091
1.04748
1.05378
1.0579
1.06198
1.06348
1.06438
1.06321
1.06057
1.05648
1.0523
1.04706
1.04278
1.03884
1.03707
1.03754
1.04152
1.0514
1.06358
1.0874
1.10985
1.15155
1.18055
1.23744
1.27059
0.962087
0.962533
0.966211
0.966111
0.970404
0.972102
0.977731
0.981575
0.989078
0.994399
1.00311
1.0096
1.01867
1.0259
1.03447
1.04224
1.0492
1.05586
1.06041
1.06452
1.06583
1.0665
1.0648
1.06194
1.05614
1.05128
1.04352
1.03738
1.02941
1.02396
1.0181
1.01754
1.0177
1.02715
1.03855
1.06273
1.0919
1.13042
1.17796
1.23543
0.96126
0.963438
0.965793
0.9694
0.970644
0.976755
0.979973
0.98695
0.993398
1.00117
1.01009
1.01818
1.02753
1.03656
1.04486
1.05406
1.0608
1.06812
1.07257
1.07688
1.07774
1.07844
1.07522
1.07224
1.0645
1.0586
1.04768
1.03924
1.02629
1.01834
1.00476
1.0012
0.989368
0.99535
0.989686
1.01015
1.01852
1.05925
1.08449
1.15313
0.948382
0.953076
0.954742
0.959761
0.962747
0.96844
0.974567
0.981439
0.989969
0.998233
1.00795
1.01808
1.02781
1.03854
1.04775
1.05777
1.06545
1.07354
1.07833
1.08338
1.08392
1.08532
1.08105
1.07873
1.06949
1.06341
1.05007
1.04131
1.02415
1.01462
0.994811
0.986951
0.9653
0.962956
0.943717
0.953116
0.941024
0.970353
0.974003
1.04111
0.947794
0.953439
0.956395
0.961289
0.96532
0.971703
0.978293
0.987133
0.996475
1.0085
1.01877
1.03113
1.04193
1.05415
1.06422
1.0757
1.08356
1.09276
1.09745
1.10364
1.10358
1.1063
1.10076
1.09906
1.08862
1.0827
1.06714
1.05767
1.0377
1.02584
1.00144
0.988629
0.960054
0.947312
0.920089
0.911327
0.890658
0.890468
0.875125
0.914019
0.935618
0.941729
0.947305
0.954424
0.960369
0.969135
0.977264
0.987221
0.997843
1.01022
1.02156
1.03544
1.04773
1.06158
1.0721
1.08515
1.09306
1.10358
1.10795
1.11546
1.11506
1.11878
1.11344
1.11207
1.10177
1.09571
1.08069
1.07027
1.05129
1.03682
1.01408
0.996011
0.971222
0.945107
0.919166
0.89343
0.860956
0.84374
0.802819
0.80185
0.93378
0.941416
0.947104
0.954714
0.963368
0.973576
0.98554
0.998764
1.01335
1.02906
1.04418
1.06112
1.07487
1.09152
1.10254
1.11832
1.12626
1.13908
1.14311
1.15181
1.15122
1.15503
1.15016
1.14891
1.14026
1.13396
1.12193
1.11084
1.09445
1.07868
1.05846
1.03945
1.01122
0.991251
0.954373
0.929897
0.884836
0.857018
0.804368
0.77331
0.922732
0.934593
0.94602
0.956379
0.968644
0.980484
0.99441
1.00809
1.0242
1.04058
1.05826
1.07643
1.093
1.11134
1.12398
1.14142
1.14894
1.16448
1.1667
1.17932
1.17664
1.18553
1.17798
1.1833
1.1713
1.17323
1.1575
1.1559
1.13725
1.13018
1.10836
1.09233
1.06815
1.04413
1.01481
0.985609
0.947848
0.91457
0.868974
0.830287
0.915209
0.927386
0.941259
0.958133
0.975968
0.996456
1.01773
1.04018
1.06221
1.08401
1.10454
1.12486
1.14254
1.16149
1.17538
1.19216
1.20117
1.21505
1.21854
1.22912
1.22694
1.23425
1.22678
1.23162
1.21955
1.22295
1.20748
1.20951
1.19127
1.19189
1.16986
1.16711
1.14106
1.12887
1.09754
1.07565
1.04373
1.02057
0.984508
0.961387
0.9205
0.944713
0.964118
0.986863
1.0074
1.0286
1.05029
1.0725
1.09617
1.12024
1.14366
1.16719
1.18774
1.20871
1.22501
1.24235
1.25303
1.26629
1.27045
1.27977
1.27722
1.28354
1.27511
1.28034
1.26802
1.27311
1.25943
1.26541
1.25267
1.26009
1.24588
1.2533
1.23083
1.23367
1.19318
1.18483
1.11952
1.09649
1.02007
1.0138
0.93727
0.977113
1.01184
1.04881
1.0856
1.11946
1.15695
1.18838
1.22232
1.25061
1.28033
1.30365
1.32854
1.3457
1.36558
1.37612
1.38983
1.39404
1.39972
1.39756
1.3949
1.38618
1.37656
1.36573
1.34929
1.33547
1.31848
1.30547
1.29523
1.28636
1.28758
1.28463
1.30164
1.30099
1.32045
1.34241
1.31116
1.27148
1.18868
1.18112
1.09281
1.12919
1.16553
1.20186
1.23739
1.27108
1.3019
1.32943
1.35478
1.37166
1.39371
1.39906
1.41463
1.41644
1.42605
1.42493
1.42293
1.41574
1.39957
1.38552
1.35713
1.33473
1.29441
1.26169
1.20635
1.16913
1.10372
1.05929
0.996421
0.932585
0.89246
0.806043
0.794705
0.748956
0.525152
0.153358
0.059782
0.15158
0.215589
0.2701
1.02124
1.02036
1.01781
1.0139
1.00675
0.998515
0.987384
0.969516
0.951988
0.94048
0.939723
0.967908
1.00283
1.00985
1.00553
1.00152
1.00021
1
1.001
1.00216
1.00373
1.00482
1.00558
1.00658
1.00699
1.00762
1.00763
1.00816
1.00801
1.00836
1.00811
1.00821
1.00799
1.00801
1.00789
1.00772
1.00749
1.00734
1.00758
1.01034
1.02287
1.02236
1.01907
1.01467
1.0077
0.998262
0.986172
0.968054
0.949168
0.934149
0.928236
0.959151
1.00385
1.01243
1.00827
1.00246
1.00053
1.00009
1.00081
1.00209
1.0036
1.00478
1.00557
1.0067
1.00707
1.00788
1.00786
1.00838
1.00816
1.00855
1.00827
1.0084
1.00819
1.00816
1.00814
1.00797
1.00778
1.00743
1.00699
1.0053
1.02702
1.02462
1.0217
1.0167
1.00934
1.00022
0.987562
0.967076
0.946286
0.928662
0.917888
0.951141
1.00437
1.01423
1.00974
1.00288
1.00064
1.00035
1.00095
1.00221
1.00376
1.00504
1.00571
1.00697
1.00737
1.00811
1.00813
1.0087
1.00843
1.0089
1.00859
1.00881
1.00851
1.00854
1.00843
1.00828
1.00819
1.00801
1.00846
1.01062
1.02646
1.02627
1.02303
1.0182
1.01042
1.00015
0.987107
0.965752
0.94403
0.923733
0.905651
0.938683
1.00381
1.01575
1.01178
1.0036
1.00083
1.00046
1.0007
1.00195
1.00346
1.00502
1.00564
1.00715
1.00742
1.00817
1.0082
1.00875
1.00866
1.00911
1.00889
1.0092
1.00895
1.00892
1.00879
1.00853
1.00827
1.00792
1.00752
1.00558
1.03136
1.02893
1.02566
1.02071
1.01244
1.00262
0.988926
0.964987
0.942354
0.920453
0.895457
0.925667
1.00162
1.01625
1.01273
1.00381
1.00085
1.00041
1.00064
1.00205
1.00362
1.00521
1.00577
1.00751
1.00771
1.00851
1.00864
1.00919
1.00919
1.00967
1.00942
1.00966
1.00943
1.00933
1.00917
1.00897
1.00888
1.0086
1.00894
1.01032
1.03119
1.03013
1.02741
1.02329
1.01375
1.00346
0.989844
0.963856
0.940752
0.918488
0.885536
0.908979
0.996916
1.01592
1.01339
1.00398
1.00076
1.00027
1.00022
1.00177
1.00323
1.0049
1.00567
1.00749
1.00776
1.00874
1.00892
1.00956
1.00953
1.00992
1.00967
1.00981
1.00967
1.00951
1.00933
1.00905
1.00896
1.00856
1.00824
1.00648
1.03646
1.03329
1.03026
1.02639
1.01658
1.00654
0.992322
0.964123
0.940098
0.918227
0.878346
0.89126
0.989138
1.01473
1.01298
1.00348
1.00033
0.999861
0.999961
1.00183
1.00326
1.005
1.00601
1.00774
1.00811
1.00909
1.00923
1.00994
1.00983
1.01022
1.01005
1.01008
1.00997
1.00986
1.00985
1.00961
1.00957
1.00931
1.00948
1.01039
1.03671
1.03504
1.03282
1.03
1.01871
1.00845
0.994373
0.964374
0.939175
0.918826
0.873162
0.871402
0.977346
1.01209
1.01143
1.00244
0.999562
0.999423
0.999563
1.00147
1.00274
1.00464
1.0059
1.00755
1.00816
1.00927
1.00942
1.01019
1.0101
1.01043
1.01031
1.01034
1.01029
1.0101
1.01001
1.00977
1.00967
1.00932
1.00903
1.00765
1.04241
1.03865
1.03682
1.03434
1.02279
1.01249
0.997849
0.966346
0.939596
0.920387
0.871499
0.851157
0.96087
1.00795
1.00884
1.0005
0.998243
0.998576
0.999039
1.00124
1.00273
1.00482
1.00626
1.00777
1.00852
1.00962
1.00982
1.01069
1.01057
1.01091
1.01081
1.0108
1.01077
1.0106
1.01055
1.01043
1.01024
1.01006
1.01007
1.01065
1.04319
1.04091
1.0402
1.03887
1.02612
1.01588
1.00163
0.968922
0.940208
0.921808
0.872473
0.830258
0.9394
1.00114
1.00475
0.997648
0.996499
0.9975
0.998417
1.00094
1.00237
1.00462
1.00611
1.00771
1.00879
1.00986
1.01012
1.01092
1.01096
1.01128
1.01119
1.01111
1.01092
1.01067
1.01058
1.01046
1.01032
1.01009
1.00983
1.00891
1.04979
1.0451
1.04537
1.04442
1.03195
1.02149
1.00664
0.972861
0.942765
0.924108
0.875578
0.809987
0.912862
0.991188
0.999371
0.993718
0.993971
0.99571
0.9974
1.0005
1.00217
1.00479
1.00626
1.00793
1.00906
1.01014
1.01059
1.01139
1.01142
1.01182
1.01173
1.01172
1.01154
1.01139
1.01124
1.01113
1.01098
1.01087
1.0107
1.01105
1.05141
1.04872
1.0502
1.05007
1.03748
1.0272
1.01209
0.977352
0.946356
0.926395
0.878627
0.79048
0.881482
0.977582
0.992062
0.988418
0.990783
0.993476
0.996142
0.999778
1.00154
1.00443
1.00592
1.00792
1.00926
1.0104
1.01101
1.01173
1.01181
1.01218
1.01212
1.01218
1.01203
1.01186
1.01165
1.01132
1.01111
1.01093
1.01066
1.01018
1.05868
1.05483
1.0579
1.05751
1.04626
1.03551
1.01891
0.983369
0.952271
0.929383
0.880227
0.771051
0.846732
0.96033
0.982848
0.981738
0.986707
0.990478
0.994198
0.998683
1.00111
1.00444
1.00612
1.00827
1.00965
1.01078
1.0114
1.01212
1.01221
1.01275
1.01275
1.01291
1.01295
1.01272
1.01257
1.01219
1.0119
1.01175
1.01147
1.01163
1.06123
1.05981
1.06437
1.06436
1.055
1.04425
1.02653
0.990032
0.959365
0.931755
0.878214
0.750577
0.810028
0.939688
0.970942
0.973566
0.981844
0.986962
0.991926
0.997541
1.00039
1.00398
1.006
1.00826
1.00979
1.01109
1.01176
1.01249
1.01245
1.01292
1.01285
1.01289
1.01298
1.01279
1.01276
1.0124
1.01205
1.01191
1.01155
1.01144
1.06966
1.06887
1.07462
1.07327
1.06673
1.05481
1.03557
0.999156
0.968342
0.933304
0.870896
0.727997
0.771262
0.915419
0.95673
0.963999
0.976118
0.982639
0.989094
0.995837
0.999489
1.00363
1.0062
1.00854
1.01021
1.0117
1.01231
1.0132
1.0132
1.01356
1.01351
1.01356
1.01367
1.01358
1.01358
1.01338
1.01302
1.01295
1.01238
1.01243
1.07378
1.07669
1.0835
1.08188
1.07849
1.06623
1.04575
1.00956
0.977066
0.931985
0.855886
0.701372
0.731499
0.888537
0.940028
0.952895
0.969264
0.977606
0.985971
0.993693
0.998136
1.00282
1.0059
1.0086
1.01061
1.01232
1.01311
1.01399
1.01412
1.01443
1.01428
1.01433
1.01431
1.01416
1.01388
1.01376
1.01322
1.0132
1.01264
1.01262
1.08454
1.09137
1.09791
1.09614
1.09475
1.0812
1.05967
1.02447
0.986035
0.926393
0.830524
0.669542
0.691405
0.860098
0.921056
0.940767
0.961644
0.972008
0.982362
0.9906
0.996224
1.00175
1.00539
1.00849
1.01084
1.01282
1.01394
1.01484
1.01537
1.01574
1.01573
1.01582
1.01553
1.01547
1.01486
1.01482
1.01408
1.01413
1.01333
1.01352
1.09277
1.10169
1.10769
1.10969
1.1102
1.09855
1.07863
1.04234
0.991133
0.911098
0.792374
0.631619
0.652131
0.83214
0.900692
0.927995
0.953461
0.966091
0.97881
0.987518
0.994378
1.00018
1.00443
1.00788
1.01047
1.01245
1.01401
1.01478
1.01572
1.0159
1.01599
1.01612
1.01562
1.01574
1.01501
1.01518
1.01439
1.01462
1.01393
1.01413
1.10597
1.11914
1.12273
1.1292
1.12969
1.12003
1.10288
1.06114
0.989128
0.882204
0.740627
0.586788
0.616126
0.805686
0.87955
0.9154
0.945039
0.960538
0.975693
0.98472
0.992991
0.999079
1.00394
1.00743
1.0104
1.01227
1.01439
1.01498
1.0164
1.01635
1.01687
1.017
1.01677
1.01717
1.01646
1.01677
1.01573
1.01587
1.01512
1.01536
1.12139
1.13286
1.13524
1.14787
1.15068
1.14913
1.13525
1.07356
0.97073
0.833391
0.673275
0.536176
0.585817
0.781568
0.857852
0.90301
0.93625
0.955612
0.972806
0.983059
0.992198
0.998455
1.00407
1.00772
1.01122
1.0127
1.01521
1.01533
1.01737
1.01703
1.01815
1.01798
1.01801
1.01828
1.01765
1.01785
1.01692
1.01694
1.01619
1.01651
1.13718
1.15123
1.15906
1.17689
1.18482
1.19381
1.17134
1.07261
0.92867
0.761253
0.590951
0.486737
0.567336
0.761884
0.837926
0.891054
0.928044
0.951094
0.97004
0.981418
0.991724
0.998603
1.00471
1.00831
1.01232
1.01365
1.0167
1.01676
1.0192
1.01859
1.02017
1.01959
1.01995
1.01971
1.01924
1.01897
1.01826
1.01806
1.01756
1.01773
1.15523
1.16582
1.18182
1.20652
1.22903
1.25396
1.18523
1.04466
0.85414
0.661605
0.499444
0.450776
0.56447
0.747512
0.822188
0.881307
0.920216
0.946844
0.967776
0.980425
0.991537
0.998339
1.00485
1.00847
1.01245
1.01386
1.01698
1.01717
1.01968
1.01895
1.02064
1.01966
1.02045
1.01976
1.01987
1.01922
1.01906
1.01861
1.01863
1.01879
1.17138
1.18795
1.2152
1.25222
1.3003
1.29286
1.18361
0.974538
0.742756
0.539338
0.424102
0.442006
0.579197
0.739301
0.812142
0.876377
0.914551
0.945152
0.966179
0.980125
0.991556
0.998746
1.00512
1.00946
1.01283
1.01529
1.01761
1.01828
1.02064
1.02003
1.0218
1.02071
1.02174
1.02063
1.02112
1.01987
1.02016
1.01921
1.01973
1.01963
1.19587
1.21936
1.25491
1.3131
1.37252
1.31009
1.1399
0.851317
0.591252
0.41668
0.403407
0.465932
0.607577
0.738915
0.810002
0.876639
0.912204
0.946692
0.966697
0.983137
0.993137
1.0018
1.00713
1.01269
1.01423
1.018
1.01883
1.02062
1.02169
1.02167
1.02288
1.02216
1.02331
1.02196
1.02271
1.02119
1.02164
1.02047
1.02095
1.02052
1.22354
1.2548
1.31123
1.40595
1.41379
1.30434
1.02714
0.66891
0.422421
0.379838
0.444648
0.520954
0.647362
0.751066
0.819118
0.882858
0.915648
0.952332
0.969106
0.988553
0.99658
1.00749
1.0104
1.01797
1.01758
1.0231
1.02186
1.02531
1.02448
1.0259
1.02562
1.02588
1.02601
1.025
1.02517
1.02349
1.0237
1.02224
1.02254
1.022
1.25384
1.2908
1.38529
1.47763
1.43171
1.23451
0.82827
0.461013
0.372189
0.47199
0.533192
0.589412
0.69445
0.775187
0.840979
0.896482
0.926386
0.961539
0.976429
0.996503
1.00193
1.01419
1.0148
1.02382
1.02154
1.0282
1.02531
1.03019
1.02729
1.03073
1.02846
1.0305
1.02874
1.02922
1.02788
1.02686
1.02626
1.02472
1.02479
1.02393
1.28142
1.3423
1.48868
1.51426
1.41717
1.09065
0.614475
0.448637
0.553343
0.61043
0.631895
0.661931
0.750901
0.811235
0.877202
0.917097
0.947797
0.974213
0.990032
1.00602
1.01297
1.02253
1.02341
1.03096
1.02795
1.03443
1.03072
1.03546
1.03195
1.03512
1.03195
1.03429
1.03125
1.03299
1.03026
1.03078
1.02891
1.02826
1.02784
1.02708
1.31005
1.41334
1.55434
1.51699
1.29017
0.884469
0.687309
0.716856
0.738614
0.737708
0.70547
0.744308
0.819302
0.859926
0.924025
0.946125
0.979819
0.991621
1.01364
1.01825
1.03085
1.03167
1.03611
1.03835
1.03665
1.04031
1.03665
1.04026
1.0367
1.03931
1.03608
1.03775
1.03492
1.03644
1.03358
1.03457
1.03196
1.0322
1.03078
1.03037
1.32711
1.4671
1.47686
1.31553
1.06023
0.908728
0.876896
0.8639
0.830832
0.781657
0.767911
0.827038
0.873103
0.930475
0.97419
0.991184
1.01922
1.01806
1.04309
1.03651
1.05349
1.04537
1.05301
1.04935
1.05004
1.0492
1.04749
1.04758
1.04606
1.04585
1.0443
1.04371
1.04213
1.0416
1.0395
1.03905
1.03705
1.03704
1.03549
1.03574
1.30209
1.36602
1.23966
1.06475
0.989271
0.925184
0.889947
0.864922
0.801402
0.771929
0.793749
0.851387
0.913155
0.97524
1.02762
1.05073
1.06332
1.06213
1.07542
1.0672
1.08004
1.06945
1.07408
1.06915
1.06862
1.06525
1.0634
1.06083
1.05933
1.05703
1.05595
1.0531
1.05265
1.04896
1.0482
1.0443
1.04371
1.041
1.04027
1.04
1.20639
1.12703
0.95801
0.906585
0.854792
0.798103
0.770785
0.749384
0.702138
0.741579
0.78928
0.85291
0.921381
0.992312
1.05694
1.09148
1.11563
1.11396
1.11417
1.11081
1.11113
1.105
1.10113
1.09727
1.09187
1.08761
1.08145
1.0793
1.073
1.07185
1.06742
1.06583
1.06334
1.0601
1.05878
1.05464
1.05376
1.04972
1.04954
1.04742
1.01892
0.870549
0.733417
0.670513
0.629866
0.585175
0.579889
0.578064
0.584257
0.663796
0.731657
0.823923
0.91711
0.999272
1.06598
1.11569
1.14464
1.15702
1.15579
1.15006
1.14636
1.13993
1.13206
1.12454
1.11876
1.11022
1.10407
1.09886
1.09118
1.08839
1.08189
1.07953
1.07419
1.07187
1.06786
1.06526
1.06218
1.05944
1.05901
1.05715
0.854305
0.676974
0.527505
0.440784
0.374085
0.336166
0.344018
0.358615
0.413717
0.505154
0.607436
0.738563
0.868624
0.979987
1.06801
1.12355
1.16168
1.18412
1.18846
1.18601
1.17955
1.174
1.1661
1.15445
1.1499
1.13667
1.1334
1.12239
1.1181
1.10941
1.10571
1.09784
1.09397
1.08749
1.08326
1.07896
1.07474
1.07159
1.06911
1.06828
0.742963
0.625073
0.472465
0.373505
0.274272
0.225268
0.165192
0.137141
0.166062
0.259952
0.387219
0.55412
0.737198
0.902224
1.02715
1.11518
1.16688
1.19842
1.215
1.22287
1.21616
1.21479
1.20532
1.19709
1.18643
1.17822
1.16844
1.15941
1.1504
1.14191
1.13572
1.1253
1.12176
1.11164
1.10806
1.10082
1.09901
1.09311
1.09217
1.08854
0.702043
0.645858
0.571875
0.487844
0.436814
0.442128
0.397363
0.333314
0.267434
0.180502
0.158165
0.279226
0.49467
0.717594
0.910512
1.04785
1.14024
1.19702
1.23111
1.24884
1.25646
1.25331
1.25158
1.24545
1.23602
1.2299
1.21871
1.21083
1.1965
1.19176
1.17859
1.17236
1.16257
1.15565
1.14488
1.13773
1.12943
1.12194
1.11552
1.11188
0.776417
0.725635
0.691186
0.668912
0.625544
0.614967
0.672201
0.688144
0.657302
0.582135
0.480015
0.379617
0.341551
0.464029
0.677275
0.863834
1.0209
1.11555
1.18972
1.2266
1.25745
1.2705
1.27692
1.27772
1.27447
1.26731
1.26219
1.25454
1.24947
1.24238
1.23578
1.22691
1.22284
1.21717
1.20943
1.20211
1.19031
1.18182
1.16759
1.16075
0.924679
0.888361
0.847199
0.80646
0.764016
0.75841
0.761424
0.823511
0.905221
0.914937
0.884474
0.828839
0.745449
0.642255
0.547047
0.538131
0.637123
0.789691
0.929668
1.03605
1.11189
1.17809
1.22254
1.24654
1.25895
1.2658
1.27078
1.27143
1.27036
1.26621
1.26423
1.25845
1.25447
1.24964
1.24666
1.24469
1.23771
1.23438
1.22495
1.21937
0.968953
0.918949
0.875734
0.834323
0.789676
0.771666
0.763017
0.772422
0.802613
0.827061
0.828055
0.81019
0.792707
0.729631
0.687608
0.674883
0.60055
0.503762
0.503818
0.567393
0.633899
0.738511
0.878051
1.01052
1.10181
1.15263
1.20212
1.22772
1.24728
1.25871
1.26656
1.26901
1.2676
1.26081
1.25517
1.25926
1.25466
1.25887
1.2576
1.26412
1.06358
0.937797
0.838438
0.728025
0.642986
0.584213
0.498719
0.422461
0.434348
0.498315
0.547594
0.578378
0.585574
0.574018
0.569299
0.55813
0.529743
0.514687
0.533136
0.557877
0.526003
0.346738
0.225828
0.296293
0.421246
0.561703
0.688681
0.794955
0.877156
0.945509
1.00541
1.05342
1.10131
1.13857
1.17003
1.19151
1.2181
1.23489
1.25162
1.25852
0.338702
0.313893
0.283916
0.264233
0.260248
0.259667
0.262115
0.267885
0.270416
0.252685
0.247654
0.237048
0.241927
0.267034
0.289617
0.322109
0.358288
0.389301
0.410383
0.417839
0.418984
0.418945
0.42872
0.445694
0.450295
0.421158
0.259602
0.317748
0.559663
0.632233
0.683678
0.725516
0.762628
0.796734
0.835379
0.872798
0.913033
0.960749
1.0086
1.06459
1.01661
1.0166
1.01791
1.0182
1.01897
1.01901
1.0195
1.01928
1.01949
1.01908
1.01887
1.01791
1.0173
1.01536
1.01343
1.01017
1.0057
1.00037
0.992647
0.985101
0.977867
0.976006
0.978841
0.988033
0.999306
1.00885
1.01052
1.00954
1.009
1.00856
1.00825
1.008
1.00774
1.00743
1.00709
1.00671
1.00633
1.00592
1.00554
1.0053
0.999367
0.999762
0.998907
0.999538
0.999017
0.999794
0.99949
1.00033
0.999933
1.00088
1.00065
1.00171
1.00224
1.00361
1.00556
1.00791
1.01168
1.01508
1.01955
1.02329
1.02539
1.02615
1.02551
1.02131
1.0136
1.00972
1.00886
1.00911
1.00925
1.00936
1.00935
1.00915
1.00876
1.00835
1.00791
1.00734
1.00684
1.0064
1.00598
1.00569
1.01567
1.01623
1.01756
1.01779
1.01867
1.01852
1.01895
1.01844
1.01851
1.01747
1.01731
1.01572
1.01478
1.01281
1.01045
1.00792
1.00447
1.00166
0.998582
0.99922
1.00062
1.00439
1.00654
1.00796
1.00839
1.0085
1.00861
1.00887
1.009
1.00917
1.00928
1.00921
1.00898
1.00863
1.00819
1.00779
1.0073
1.00692
1.00665
1.00635
1.00123
1.00183
1.00125
1.00183
1.00154
1.00229
1.0023
1.00333
1.00346
1.00475
1.00537
1.00702
1.00842
1.0107
1.01333
1.01612
1.01942
1.02229
1.02456
1.02563
1.02609
1.02553
1.02294
1.01937
1.01585
1.01308
1.01148
1.01088
1.01063
1.01029
1.01005
1.00977
1.0093
1.00893
1.00846
1.00795
1.00761
1.00706
1.00677
1.00656
1.0143
1.01511
1.01608
1.0164
1.01688
1.01674
1.01685
1.0163
1.01607
1.01515
1.01454
1.01324
1.01182
1.01033
1.0083
1.00681
1.00514
1.0049
1.00499
1.00663
1.00744
1.00889
1.00932
1.01
1.01025
1.01028
1.01025
1.01021
1.01011
1.01006
1.01017
1.01008
1.00965
1.00926
1.00901
1.00848
1.00802
1.00774
1.00733
1.00709
1.00328
1.00379
1.00363
1.00426
1.00432
1.00525
1.00551
1.00674
1.00727
1.00854
1.00953
1.01101
1.01254
1.01415
1.01594
1.01756
1.01913
1.02049
1.02139
1.02196
1.02197
1.02119
1.01959
1.0178
1.01617
1.01498
1.0137
1.01219
1.01147
1.01115
1.01091
1.01046
1.00992
1.0095
1.00914
1.00867
1.00822
1.00776
1.00751
1.00724
1.01333
1.01412
1.01474
1.01507
1.01522
1.01518
1.01495
1.01464
1.01426
1.0136
1.01276
1.01198
1.01069
1.00995
1.00871
1.00825
1.00773
1.00814
1.00836
1.0091
1.00957
1.01025
1.01053
1.0113
1.01161
1.01174
1.01172
1.01156
1.01126
1.01121
1.01122
1.0109
1.01057
1.0102
1.00957
1.00911
1.00886
1.00843
1.00803
1.0078
1.00542
1.00589
1.00613
1.00686
1.00729
1.00815
1.00882
1.00957
1.01047
1.0114
1.01237
1.01349
1.01445
1.01551
1.0164
1.01721
1.01792
1.01841
1.01892
1.0194
1.01937
1.01879
1.01749
1.01616
1.01564
1.01516
1.01402
1.01282
1.01229
1.01197
1.01158
1.01111
1.01092
1.01041
1.00983
1.00938
1.009
1.00863
1.00824
1.00796
1.01262
1.01328
1.01366
1.01392
1.01397
1.01406
1.01388
1.01374
1.0133
1.01298
1.01232
1.01202
1.01151
1.01139
1.01114
1.01128
1.01137
1.01164
1.01134
1.01135
1.01155
1.01185
1.01201
1.01242
1.01284
1.01294
1.01289
1.01263
1.01247
1.01244
1.01215
1.01181
1.01144
1.01094
1.01051
1.01002
1.0097
1.00929
1.00899
1.00868
1.00749
1.00813
1.00857
1.00929
1.00986
1.01057
1.01124
1.01188
1.0127
1.01337
1.0141
1.01483
1.01541
1.01606
1.01665
1.01716
1.01741
1.01757
1.01793
1.01818
1.01793
1.01732
1.01641
1.01583
1.01563
1.01499
1.01401
1.01342
1.01313
1.01275
1.0124
1.01221
1.01185
1.01129
1.01069
1.01028
1.00989
1.00947
1.00917