/*--------------------------------*- C++ -*----------------------------------*\
  =========                 |
  \\      /  F ield         | OpenFOAM: The Open Source CFD Toolbox
   \\    /   O peration     | Website:  https://openfoam.org
    \\  /    A nd           | Version:  11
     \\/     M anipulation  |
\*---------------------------------------------------------------------------*/
FoamFile
{
    format      ascii;
    class       volVectorField;
    location    "5";
    object      U;
}
// * * * * * * * * * * * * * * * * * * * * * * * * * * * * * * * * * * * * * //

dimensions      [0 1 -1 0 0 0 0];

internalField   nonuniform List<vector> 
9600
(
(0.990433 0.000258998 -3.75254e-21)
(0.990201 0.000173284 0)
(0.989676 0.000350695 -3.73022e-21)
(0.989121 0.00022729 3.68526e-21)
(0.988717 0.000358832 0)
(0.9885 0.000352354 1.75714e-21)
(0.988683 0.000311128 -3.43431e-21)
(0.989182 0.000190577 1.68112e-21)
(0.990013 -1.01808e-05 1.53608e-21)
(0.991222 -0.000287859 -1.53971e-21)
(0.992895 -0.000629375 1.06139e-23)
(0.99497 -0.000973462 0)
(0.998172 -0.000787656 0)
(1.00036 0.001368 -4.14709e-22)
(0.996147 0.00483943 9.25592e-23)
(0.976891 0.00764899 3.22317e-22)
(0.960439 0.00613716 0)
(0.954683 0.00258659 0)
(0.955478 -9.66425e-06 -2.48257e-27)
(0.963234 -0.00441552 0)
(0.982211 -0.00920723 0)
(1.00038 -0.0127497 4.13167e-25)
(1.01655 -0.0159796 -1.04032e-24)
(1.0324 -0.0189518 3.4485e-22)
(1.04507 -0.0203464 -3.42014e-22)
(1.0545 -0.0215682 -4.22366e-22)
(1.0628 -0.0229688 4.253e-22)
(1.06886 -0.0227303 9.42362e-22)
(1.07077 -0.022266 -9.16077e-22)
(1.07033 -0.0217387 0)
(1.0686 -0.0214387 0)
(1.06598 -0.0212608 -9.15989e-22)
(1.06284 -0.0210937 1.77024e-21)
(1.05904 -0.0204138 -8.63427e-22)
(1.05418 -0.019539 0)
(1.04797 -0.0179236 -1.16581e-23)
(1.04061 -0.015987 -1.26752e-21)
(1.03395 -0.0141413 1.25523e-21)
(1.02789 -0.0113327 8.87312e-24)
(1.02093 -0.0117311 2.05677e-21)
(0.991468 0.000333874 -3.83366e-21)
(0.991495 0.000241128 -2.18454e-23)
(0.991591 8.18076e-05 7.26514e-23)
(0.991689 -3.97226e-05 3.81234e-21)
(0.991775 -0.000254318 1.83756e-21)
(0.992087 -0.000569972 -1.84355e-21)
(0.992708 -0.000787865 2.75076e-23)
(0.994069 -0.000932743 1.34131e-23)
(0.995868 -0.00102156 -1.561e-21)
(0.997331 -0.000984889 1.58846e-21)
(0.998601 -0.00083538 -1.10826e-23)
(1.00072 -0.00104666 1.96072e-23)
(1.00382 -0.00106077 4.93609e-22)
(1.00661 0.000349795 -9.25669e-22)
(1.01063 0.00331336 4.20305e-22)
(1.01606 0.00391843 2.25092e-22)
(1.01947 0.000957704 -2.2576e-22)
(1.01962 -0.00167593 1.41235e-23)
(1.02011 -0.00379727 -1.36011e-23)
(1.0229 -0.00538802 0)
(1.02837 -0.00395101 0)
(1.03602 0.000274406 1.24922e-22)
(1.04396 0.00514128 -1.22979e-22)
(1.05088 0.00947504 -2.58869e-24)
(1.05715 0.0131119 0)
(1.06281 0.0156442 -4.53141e-22)
(1.06664 0.0184133 -3.10306e-23)
(1.06881 0.0200414 -5.20687e-22)
(1.06907 0.0223234 9.76616e-22)
(1.06846 0.0230113 1.55245e-23)
(1.06689 0.0236684 -1.0196e-21)
(1.06311 0.0236964 1.02475e-21)
(1.05933 0.0240837 -9.58845e-22)
(1.05203 0.023335 1.83177e-21)
(1.04765 0.0235808 -8.60731e-22)
(1.03941 0.0212594 1.20034e-23)
(1.03496 0.0203088 1.08626e-23)
(1.02636 0.0170051 0)
(1.02287 0.014751 -9.07179e-24)
(1.00918 0.010785 1.10675e-21)
(0.991399 0.000356499 0)
(0.991543 0.000105084 3.91535e-21)
(0.991642 3.29402e-05 -3.88805e-21)
(0.991736 -8.05354e-05 0)
(0.991979 -0.000229061 0)
(0.992448 -0.000224928 -5.76089e-23)
(0.993244 -0.000387065 -8.39739e-23)
(0.994573 -0.000848201 0)
(0.996091 -0.000921725 -1.63122e-21)
(0.997232 -0.00103037 1.56034e-21)
(0.998487 -0.00176234 0)
(1.00138 -0.00274492 -2.00661e-23)
(1.00637 -0.00235443 1.75879e-23)
(1.01138 -0.000151905 0)
(1.01502 0.00305154 -3.25212e-22)
(1.01622 0.00497524 3.16316e-22)
(1.01545 0.00515451 5.1089e-24)
(1.01119 0.00227318 -5.19897e-25)
(1.01011 -0.000662111 1.05406e-23)
(1.01213 -0.0065996 -1.06458e-23)
(1.01954 -0.0122372 -4.50017e-23)
(1.02782 -0.0170044 4.75775e-23)
(1.03856 -0.0196301 -2.13664e-24)
(1.04812 -0.0224615 3.39738e-22)
(1.0584 -0.0234971 -3.33419e-22)
(1.06618 -0.0245672 -4.03371e-22)
(1.0726 -0.0246739 4.22798e-22)
(1.07765 -0.0234314 -9.4392e-22)
(1.08145 -0.0225393 9.42267e-22)
(1.08366 -0.0208261 -1.58977e-23)
(1.08363 -0.0200439 0)
(1.08229 -0.0183569 -9.72211e-22)
(1.07975 -0.0174065 1.93125e-21)
(1.07387 -0.0155792 -9.39813e-22)
(1.06921 -0.0139432 -8.72081e-22)
(1.06162 -0.0118015 2.4162e-21)
(1.05693 -0.00929082 -1.23535e-22)
(1.04893 -0.00761506 -1.4401e-21)
(1.04548 -0.00518007 1.9895e-23)
(1.03718 -0.00444842 -3.42843e-25)
(0.991341 0.000367607 -8.02596e-21)
(0.991549 3.42401e-05 3.99796e-21)
(0.991635 -0.000124513 3.91556e-21)
(0.991727 -0.000270081 -3.9301e-21)
(0.991989 -0.000459373 0)
(0.992434 -0.000768238 1.90651e-21)
(0.99333 -0.00145849 -1.79648e-21)
(0.994509 -0.00204983 1.75145e-21)
(0.995938 -0.0020697 -1.04087e-22)
(0.997906 -0.00230824 -1.60156e-21)
(0.999883 -0.00302965 -1.29901e-21)
(1.00194 -0.00437053 2.57582e-21)
(1.00551 -0.00444531 -6.83188e-22)
(1.01122 -0.00190884 -9.26975e-22)
(1.01596 0.00173981 4.16989e-22)
(1.01895 0.00371934 2.21475e-22)
(1.02266 0.00277688 -2.16137e-22)
(1.02767 -0.000684522 -9.93826e-25)
(1.03452 -0.00565383 1.08947e-25)
(1.0414 -0.0103552 0)
(1.04795 -0.0116788 0)
(1.05387 -0.00923529 -1.77633e-24)
(1.05993 -0.00472477 0)
(1.06416 2.99364e-05 0)
(1.06825 0.0043961 6.10299e-24)
(1.07061 0.00823195 -1.36772e-23)
(1.0728 0.0121138 4.91675e-22)
(1.07449 0.0144117 5.23659e-22)
(1.07452 0.0187228 -1.09004e-21)
(1.07379 0.0205933 1.11204e-21)
(1.07155 0.0238705 -1.10957e-21)
(1.06689 0.0243859 -3.33813e-23)
(1.06342 0.0261708 -1.00695e-21)
(1.05713 0.0254146 1.03634e-21)
(1.05278 0.0265345 8.84733e-22)
(1.04618 0.0236536 7.74991e-22)
(1.04169 0.0234232 -1.41107e-22)
(1.03369 0.0198831 -1.53291e-21)
(1.02942 0.0183592 -2.03651e-23)
(1.02 0.0132943 -1.8366e-23)
(0.991245 0.000313833 0)
(0.991473 -7.94914e-05 4.15701e-21)
(0.991609 -0.000352938 -8.16957e-21)
(0.991732 -0.000546286 4.01026e-21)
(0.991998 -0.000831799 0)
(0.992544 -0.00130091 0)
(0.993407 -0.00183065 0)
(0.994717 -0.00231841 5.42503e-23)
(0.996387 -0.0025503 -1.55781e-21)
(0.998309 -0.0028574 1.61487e-21)
(1.00055 -0.00370727 -4.49414e-23)
(1.00304 -0.00519282 1.15254e-21)
(1.00532 -0.0053011 -1.70463e-21)
(1.00889 -0.00342558 5.0987e-22)
(1.01693 0.000799688 0)
(1.02524 0.00205637 1.99137e-22)
(1.0321 0.00128726 -2.07696e-22)
(1.03465 -0.00250756 1.01934e-24)
(1.03643 -0.00528045 0)
(1.03663 -0.0104641 0)
(1.03805 -0.0144131 4.98915e-23)
(1.04059 -0.018576 -4.98732e-23)
(1.04639 -0.0204038 0)
(1.05246 -0.0225265 3.55579e-22)
(1.06036 -0.0230801 -3.67812e-22)
(1.06655 -0.0239757 -4.38443e-22)
(1.07292 -0.02397 4.22729e-22)
(1.07658 -0.0227012 -9.45e-22)
(1.07982 -0.021342 1.00756e-21)
(1.08207 -0.0194963 3.41465e-23)
(1.08338 -0.0179489 0)
(1.08277 -0.0160332 3.41931e-23)
(1.08138 -0.0133799 9.93768e-22)
(1.07659 -0.0112292 -1.02379e-21)
(1.0721 -0.00814098 3.02637e-23)
(1.06471 -0.00626139 0)
(1.06011 -0.00336537 0)
(1.05226 -0.0019359 -1.51426e-21)
(1.04823 0.00133624 1.46262e-21)
(1.04115 0.000638259 -4.11113e-23)
(0.991116 0.000198004 -4.08959e-21)
(0.991389 -0.000296277 -1.29862e-22)
(0.991584 -0.000603651 1.28636e-22)
(0.991665 -0.000850294 1.26683e-22)
(0.992009 -0.00117878 0)
(0.992497 -0.00164011 0)
(0.993404 -0.0024956 0)
(0.994898 -0.00324208 1.62689e-21)
(0.996816 -0.00329671 -3.48121e-21)
(0.998826 -0.00416919 1.53823e-21)
(1.00032 -0.00536936 0)
(1.0024 -0.00665666 1.15678e-21)
(1.00644 -0.00620641 -1.19896e-21)
(1.01157 -0.00531484 -4.14686e-22)
(1.01721 -0.00326539 4.15359e-22)
(1.02313 -0.00179741 7.84569e-24)
(1.02917 -0.000920811 -4.58216e-24)
(1.03453 -0.00349348 0)
(1.0417 -0.00774342 -6.40364e-25)
(1.0485 -0.0126534 0)
(1.05537 -0.0155937 7.54037e-25)
(1.06086 -0.01549 4.01244e-24)
(1.06671 -0.0128408 0)
(1.07117 -0.00873459 -4.20698e-22)
(1.07587 -0.00464586 4.21868e-22)
(1.07858 -0.000109228 -4.73286e-22)
(1.07996 0.00449706 5.32134e-22)
(1.08152 0.00782383 1.0961e-21)
(1.08188 0.0131367 -1.0926e-21)
(1.08134 0.0160977 1.21062e-25)
(1.0788 0.0217011 -7.14464e-23)
(1.07334 0.0237398 7.15867e-23)
(1.06941 0.0264315 -1.15312e-21)
(1.06307 0.0265027 2.24251e-21)
(1.05899 0.0283655 -1.08933e-21)
(1.05243 0.0266593 0)
(1.0482 0.0267973 -5.79681e-23)
(1.04037 0.0239116 5.33717e-23)
(1.03623 0.0224182 4.65065e-23)
(1.02662 0.0178161 -1.27606e-21)
(0.99104 3.72082e-05 -1.86885e-22)
(0.991305 -0.000499218 -8.35906e-21)
(0.991527 -0.000903568 1.95711e-22)
(0.991642 -0.00121702 4.05317e-21)
(0.9921 -0.00157825 0)
(0.992676 -0.00210274 1.23872e-22)
(0.993541 -0.00309518 1.1905e-22)
(0.995018 -0.00408188 0)
(0.997255 -0.00459814 1.75935e-21)
(0.999317 -0.00505524 -1.45707e-21)
(1.00073 -0.00567535 0)
(1.00254 -0.00809388 8.06055e-23)
(1.0067 -0.0088914 -5.11081e-22)
(1.0121 -0.00765691 5.12055e-22)
(1.01796 -0.00345942 0)
(1.02378 -0.00276052 1.88818e-22)
(1.03095 -0.00349007 -1.96717e-22)
(1.03805 -0.00768089 0)
(1.04437 -0.0106123 2.35256e-23)
(1.04864 -0.0148846 -2.2049e-23)
(1.05164 -0.0171949 -1.5817e-24)
(1.05325 -0.0200143 -8.32905e-24)
(1.05622 -0.0210056 1.01636e-23)
(1.05945 -0.0224141 3.98707e-22)
(1.06473 -0.0224733 -3.99888e-22)
(1.06884 -0.0224498 -2.95192e-23)
(1.07474 -0.0222003 -4.96543e-22)
(1.07757 -0.0213282 5.62728e-22)
(1.08071 -0.0194026 1.034e-21)
(1.08179 -0.0174879 -1.02985e-21)
(1.0839 -0.0150833 7.33661e-23)
(1.08377 -0.0129405 1.94412e-24)
(1.08355 -0.00940766 0)
(1.07964 -0.00687107 7.27251e-23)
(1.07589 -0.00291235 1.05443e-21)
(1.06866 -0.00109843 9.49643e-22)
(1.06402 0.00225127 -6.12787e-23)
(1.05637 0.00330852 -1.91846e-21)
(1.05175 0.00770367 1.60433e-21)
(1.0447 0.00606223 -1.63541e-21)
(0.990825 -0.000166633 4.37866e-21)
(0.991173 -0.000800424 6.57476e-23)
(0.991426 -0.00132591 -8.46094e-21)
(0.991615 -0.00172122 4.14815e-21)
(0.992083 -0.00211325 0)
(0.992632 -0.00269804 -1.27198e-22)
(0.99353 -0.00396153 -1.89824e-21)
(0.995126 -0.00530824 3.81313e-21)
(0.997612 -0.00525128 -3.36575e-21)
(0.999151 -0.00595077 1.57807e-21)
(1.00127 -0.00737523 0)
(1.00378 -0.0100777 1.16872e-21)
(1.00713 -0.00997434 -1.17773e-21)
(1.01175 -0.00895906 -3.80949e-22)
(1.0185 -0.00696105 4.10231e-22)
(1.02491 -0.00703387 0)
(1.03152 -0.00705766 4.2551e-25)
(1.0365 -0.0097461 0)
(1.04211 -0.0129254 -1.93584e-24)
(1.04808 -0.0167451 1.19495e-24)
(1.05538 -0.0193454 8.30021e-25)
(1.06232 -0.0199106 4.32744e-24)
(1.0692 -0.018668 -1.04455e-23)
(1.07446 -0.0157294 4.44498e-22)
(1.07977 -0.0125711 -4.59612e-22)
(1.08347 -0.00840228 -5.27047e-22)
(1.08632 -0.0034368 5.26185e-22)
(1.0875 0.000364681 1.15932e-21)
(1.08841 0.00654301 -2.44278e-21)
(1.08893 0.0102196 2.46668e-21)
(1.08748 0.0171572 -1.28968e-21)
(1.0826 0.0210718 -7.74619e-23)
(1.07795 0.0255851 0)
(1.07052 0.0266063 -7.48104e-23)
(1.06629 0.029459 0)
(1.05944 0.029138 0)
(1.05523 0.0301144 0)
(1.04739 0.0280973 -1.82909e-21)
(1.04317 0.0271287 1.93061e-21)
(1.03348 0.0232144 9.72566e-23)
(0.990768 -0.00039984 -4.27119e-21)
(0.99107 -0.00117762 -4.20336e-25)
(0.991386 -0.00179438 -4.63937e-21)
(0.991667 -0.00223965 4.51889e-21)
(0.992128 -0.00261354 -2.6621e-22)
(0.992769 -0.00335647 -2.15803e-21)
(0.993727 -0.00474666 1.78761e-21)
(0.995271 -0.00621069 -1.18479e-22)
(0.997896 -0.00652176 -1.81134e-21)
(1.00003 -0.00741618 3.26108e-21)
(1.00202 -0.00858914 -1.65191e-21)
(1.00396 -0.0113737 0)
(1.00712 -0.012077 -1.05282e-22)
(1.01201 -0.0121051 -2.93318e-23)
(1.01866 -0.00887842 2.12965e-23)
(1.02516 -0.00865744 1.65225e-22)
(1.03088 -0.00881472 -1.75436e-22)
(1.03741 -0.0126591 0)
(1.04367 -0.0156426 2.48852e-24)
(1.04979 -0.0200592 1.30218e-25)
(1.05517 -0.0218764 0)
(1.06005 -0.0235689 -4.85732e-24)
(1.06477 -0.0232387 -1.14294e-23)
(1.06846 -0.0234382 -1.28578e-23)
(1.07224 -0.0227066 2.88711e-23)
(1.07459 -0.0219967 0)
(1.07917 -0.020762 0)
(1.08129 -0.0198082 -1.1201e-21)
(1.08408 -0.0177057 1.04287e-21)
(1.0841 -0.0157339 7.78515e-23)
(1.0855 -0.0123886 0)
(1.08523 -0.0097126 1.31638e-21)
(1.08617 -0.00601972 -2.47224e-21)
(1.08331 -0.00286033 2.47073e-21)
(1.08048 0.00202616 -1.22831e-21)
(1.07385 0.00385337 1.51126e-22)
(1.06899 0.00800118 2.0058e-21)
(1.06154 0.00827422 -2.13921e-21)
(1.0562 0.0139303 -1.98084e-21)
(1.04895 0.0118478 3.55085e-21)
(0.990586 -0.000708368 -4.61218e-21)
(0.990792 -0.00166592 8.5798e-21)
(0.99113 -0.00231492 -8.16826e-23)
(0.991569 -0.00287614 -4.77211e-21)
(0.992005 -0.00340236 2.73742e-22)
(0.992661 -0.00416103 1.33054e-22)
(0.993718 -0.00579813 1.2759e-22)
(0.995326 -0.00772749 1.86098e-21)
(0.997793 -0.00776479 -1.39666e-22)
(1.00029 -0.00856995 -1.73337e-21)
(1.00222 -0.0101604 -1.31525e-21)
(1.00429 -0.0134261 2.6914e-22)
(1.00757 -0.0139427 1.81244e-21)
(1.01202 -0.0133974 -9.12436e-22)
(1.01847 -0.0115908 3.78535e-22)
(1.025 -0.0119574 2.79674e-23)
(1.03173 -0.0126172 0)
(1.03767 -0.015578 2.46244e-23)
(1.04294 -0.0188006 -6.20039e-23)
(1.04758 -0.0221522 3.45543e-23)
(1.05307 -0.0247998 0)
(1.05987 -0.0256738 1.83305e-22)
(1.06749 -0.0246224 -1.66297e-22)
(1.07443 -0.021925 4.635e-22)
(1.08064 -0.0187772 -4.32159e-22)
(1.08536 -0.015642 -5.21636e-22)
(1.09008 -0.0108509 1.18249e-21)
(1.09229 -0.00702551 6.65984e-22)
(1.09432 -0.000366921 -1.17847e-21)
(1.09499 0.00380206 -1.61495e-22)
(1.09522 0.0111129 0)
(1.09234 0.0162503 -1.70812e-22)
(1.08881 0.0231058 0)
(1.0808 0.0258166 -1.3721e-21)
(1.07593 0.0297883 1.53445e-21)
(1.06822 0.0307481 2.50624e-21)
(1.06377 0.0330484 -2.3418e-21)
(1.05538 0.0321506 0)
(1.05088 0.0321378 1.96631e-21)
(1.04075 0.0291598 -2.05279e-21)
(0.990415 -0.00112239 -5.11844e-21)
(0.990817 -0.00208711 2.93992e-22)
(0.991136 -0.00301255 -4.59404e-21)
(0.991473 -0.00366519 5.18726e-21)
(0.992164 -0.00407093 0)
(0.992861 -0.00523859 0)
(0.993858 -0.00698547 0)
(0.995354 -0.00861713 0)
(0.997975 -0.00886602 -1.76001e-21)
(1.00066 -0.0102214 1.76593e-21)
(1.00298 -0.0118674 0)
(1.00492 -0.0149926 -8.42818e-23)
(1.0073 -0.0154644 -5.79986e-22)
(1.01209 -0.0162167 5.11309e-22)
(1.01857 -0.0144161 0)
(1.02575 -0.0150472 1.38802e-22)
(1.03185 -0.0151268 -1.57969e-22)
(1.0378 -0.0182873 0)
(1.04296 -0.0206054 2.16336e-24)
(1.04849 -0.0247327 0)
(1.05376 -0.0268947 0)
(1.05958 -0.0288357 -5.77062e-24)
(1.06517 -0.0279967 -1.31637e-23)
(1.07136 -0.0270767 -2.92112e-23)
(1.07733 -0.0249433 -6.33283e-23)
(1.08089 -0.0236223 -6.25639e-22)
(1.08521 -0.0211821 5.19991e-22)
(1.08714 -0.0195683 -1.30092e-21)
(1.09031 -0.0167223 1.22156e-21)
(1.08997 -0.0146074 8.37897e-23)
(1.09066 -0.0107097 0)
(1.08893 -0.00751555 8.88471e-23)
(1.09005 -0.00271206 0)
(1.08742 0.00067211 0)
(1.08555 0.00663381 -1.7291e-22)
(1.07994 0.0085774 -2.78454e-21)
(1.07509 0.0141196 4.93221e-21)
(1.06795 0.0136107 -4.67464e-21)
(1.0624 0.0201194 1.3133e-22)
(1.05427 0.0181006 2.30603e-21)
(0.989966 -0.00157717 9.77039e-23)
(0.990465 -0.00274537 9.6856e-21)
(0.990789 -0.00368259 -9.54408e-21)
(0.991046 -0.00444513 -1.9253e-22)
(0.991907 -0.00495823 6.93595e-21)
(0.992541 -0.00644456 -2.27709e-21)
(0.993499 -0.00798941 0)
(0.995163 -0.0101522 -1.94316e-21)
(0.997811 -0.0106073 1.54433e-22)
(1.00053 -0.0121961 1.80224e-21)
(1.00314 -0.013482 -9.56131e-23)
(1.00481 -0.0165398 8.31406e-23)
(1.00769 -0.0176513 1.41762e-22)
(1.01213 -0.0184678 0)
(1.01871 -0.0176231 0)
(1.02548 -0.0180509 0)
(1.03246 -0.018556 1.58818e-24)
(1.0385 -0.020809 0)
(1.04385 -0.0238415 -7.56563e-24)
(1.04804 -0.0272087 2.06919e-24)
(1.05185 -0.0298976 -2.67446e-24)
(1.05653 -0.0316273 5.951e-24)
(1.06283 -0.0314215 1.35756e-23)
(1.07025 -0.0294698 5.41942e-22)
(1.07828 -0.0257488 -4.78153e-22)
(1.0848 -0.022681 -5.55324e-22)
(1.09148 -0.0179264 5.13299e-22)
(1.09529 -0.014312 -9.63709e-25)
(1.09938 -0.00758956 1.3166e-21)
(1.10067 -0.00285033 -1.30886e-21)
(1.10226 0.00492675 0)
(1.10092 0.0100678 0)
(1.09949 0.0184633 -1.3994e-21)
(1.09292 0.0231234 9.07123e-25)
(1.08804 0.0292255 3.1266e-21)
(1.07949 0.0309467 1.3925e-21)
(1.07424 0.0353701 1.87682e-22)
(1.06553 0.0354 -2.90218e-21)
(1.06044 0.037445 -2.37442e-21)
(1.04922 0.0352572 2.33159e-21)
(0.989875 -0.00221231 0)
(0.990385 -0.00342941 3.12399e-22)
(0.990735 -0.00452339 -3.07674e-22)
(0.991082 -0.00553034 0)
(0.991872 -0.00609586 0)
(0.992567 -0.00754241 0)
(0.99388 -0.0093439 -2.7447e-22)
(0.995373 -0.0115516 -2.57963e-22)
(0.998014 -0.0120777 1.83436e-21)
(1.00074 -0.0138369 -1.95006e-21)
(1.00327 -0.0150571 9.86409e-23)
(1.00561 -0.0186385 1.1574e-21)
(1.00838 -0.0195926 -1.8214e-21)
(1.01309 -0.0212373 5.04058e-22)
(1.01907 -0.0204857 -1.83811e-23)
(1.02556 -0.0217389 1.01737e-22)
(1.03205 -0.0218605 -1.08127e-22)
(1.03857 -0.0242627 0)
(1.04344 -0.0257681 5.50713e-24)
(1.04791 -0.0290921 -2.13614e-24)
(1.05159 -0.0310057 2.76142e-24)
(1.05639 -0.0337944 0)
(1.06143 -0.0336894 0)
(1.06739 -0.0334911 0)
(1.07526 -0.030614 0)
(1.08189 -0.0286386 -6.12723e-22)
(1.08887 -0.0247 1.33169e-21)
(1.09248 -0.0221271 -1.89565e-21)
(1.09732 -0.0180204 1.42164e-21)
(1.09834 -0.0150537 1.3526e-21)
(1.09975 -0.0102556 -1.34436e-21)
(1.09749 -0.00688736 1.53955e-21)
(1.09715 -0.000629749 -1.7342e-21)
(1.09411 0.00297296 -2.0719e-22)
(1.09231 0.0106166 0)
(1.08756 0.0126922 3.08059e-21)
(1.0831 0.0200091 -2.9826e-22)
(1.07562 0.0195798 -3.12299e-21)
(1.07053 0.0264084 -2.46113e-21)
(1.06163 0.0250847 5.09666e-21)
(0.989371 -0.00277641 -5.65349e-21)
(0.989815 -0.004219 4.78464e-21)
(0.990257 -0.0054129 -4.8175e-21)
(0.990598 -0.00643738 -4.94232e-21)
(0.991339 -0.00714416 4.95941e-21)
(0.991983 -0.00907512 2.96319e-22)
(0.993297 -0.0107816 2.83285e-22)
(0.994946 -0.0131376 1.1093e-24)
(0.997777 -0.0137731 -1.878e-21)
(0.999875 -0.0158838 1.99786e-21)
(1.00341 -0.0173356 0)
(1.00574 -0.0205181 0)
(1.00879 -0.021976 0)
(1.01312 -0.0237908 -4.12615e-22)
(1.01899 -0.0240415 3.80146e-22)
(1.02515 -0.024959 1.87625e-23)
(1.03176 -0.025331 0)
(1.03794 -0.0266691 0)
(1.04359 -0.028249 0)
(1.0481 -0.031238 0)
(1.05172 -0.0335554 -3.41864e-24)
(1.05471 -0.0362151 0)
(1.05921 -0.0370439 0)
(1.06406 -0.0372995 6.18109e-22)
(1.07233 -0.0345405 7.01563e-23)
(1.07959 -0.0318978 -6.12024e-22)
(1.08884 -0.0266591 0)
(1.09511 -0.0227976 -1.31511e-21)
(1.10181 -0.0159236 -7.98172e-23)
(1.1058 -0.010893 1.47152e-21)
(1.10914 -0.00178556 -9.75153e-23)
(1.10943 0.00342414 0)
(1.10977 0.0129968 -1.78176e-21)
(1.10537 0.0181651 4.18606e-22)
(1.1015 0.0275246 1.78428e-21)
(1.09359 0.0303296 -2.2001e-22)
(1.08735 0.0369342 2.13416e-22)
(1.07798 0.0378873 -2.92155e-21)
(1.07261 0.0420595 2.90907e-21)
(1.06059 0.0414811 0)
(0.989111 -0.00364777 -5.5165e-21)
(0.989768 -0.00536289 4.95409e-21)
(0.990165 -0.0066017 -1.12228e-22)
(0.990538 -0.00784999 -1.03449e-20)
(0.991596 -0.00857626 5.13115e-21)
(0.992017 -0.0105458 -3.06259e-22)
(0.99332 -0.0122379 0)
(0.995239 -0.0149377 8.53937e-25)
(0.997899 -0.0156739 -1.67002e-21)
(1.00095 -0.0181274 2.04297e-21)
(1.00385 -0.0193896 0)
(1.00667 -0.0229375 0)
(1.00978 -0.0243609 5.57145e-22)
(1.01424 -0.0268962 -3.85643e-22)
(1.01991 -0.0268658 0)
(1.0257 -0.0283954 4.03904e-23)
(1.03109 -0.0284812 -4.91135e-23)
(1.03751 -0.0305593 0)
(1.04336 -0.031044 0)
(1.04868 -0.0338863 3.26182e-24)
(1.05214 -0.0345585 3.53756e-24)
(1.05522 -0.0378401 0)
(1.05915 -0.0381705 0)
(1.06301 -0.0399867 -3.75002e-23)
(1.06957 -0.0380878 -3.9275e-23)
(1.0765 -0.0369793 0)
(1.08624 -0.0326926 -6.98093e-22)
(1.09276 -0.0293231 6.96628e-22)
(1.10069 -0.0235647 0)
(1.10503 -0.0196975 0)
(1.10948 -0.0125759 0)
(1.10968 -0.00860848 0)
(1.10929 -0.000334852 0)
(1.1058 0.00345454 -2.05954e-21)
(1.10316 0.0127507 1.82234e-21)
(1.09774 0.0157528 2.27076e-22)
(1.09386 0.0249699 -3.98869e-21)
(1.08567 0.0256221 3.7438e-21)
(1.08097 0.0328925 0)
(1.07072 0.0326575 2.05153e-22)
(0.988222 -0.0044173 3.53016e-22)
(0.988952 -0.00628542 5.83631e-21)
(0.989277 -0.00755275 -5.52261e-21)
(0.989607 -0.00895516 -4.96062e-21)
(0.99091 -0.00978094 7.89064e-21)
(0.991429 -0.0121129 -2.26808e-21)
(0.992694 -0.013925 -2.02904e-21)
(0.994216 -0.016977 4.788e-21)
(0.997415 -0.0176892 -4.61089e-22)
(0.99999 -0.0203141 -2.09773e-21)
(1.00315 -0.0218171 0)
(1.00648 -0.0254425 0)
(1.00972 -0.0271514 -7.08253e-23)
(1.01437 -0.0296154 -3.72542e-22)
(1.01953 -0.03018 3.21131e-22)
(1.02498 -0.0316334 7.19458e-24)
(1.0307 -0.0319226 -7.20619e-24)
(1.0364 -0.0337049 0)
(1.04253 -0.0340049 0)
(1.04761 -0.0359749 -3.3787e-24)
(1.05289 -0.0366299 -4.4722e-24)
(1.05591 -0.0393587 0)
(1.05994 -0.0403315 0)
(1.0629 -0.0426575 6.81378e-22)
(1.06778 -0.0419198 -6.79887e-22)
(1.07351 -0.0422914 -7.11859e-22)
(1.08205 -0.0377131 7.10333e-22)
(1.09095 -0.0349197 -1.84109e-22)
(1.10005 -0.0271484 1.55881e-21)
(1.10734 -0.0226325 -1.55357e-21)
(1.11394 -0.0117191 0)
(1.11718 -0.00564266 0)
(1.12002 0.00649275 -1.97866e-21)
(1.11823 0.0120577 -3.302e-22)
(1.11572 0.0238182 4.37276e-21)
(1.10921 0.0281118 -2.32853e-21)
(1.104 0.0373142 4.53024e-21)
(1.0934 0.0397928 -8.1019e-21)
(1.08821 0.0456065 1.70488e-22)
(1.0754 0.0475855 3.41117e-21)
(0.988056 -0.00571292 0)
(0.988687 -0.00789981 5.3507e-21)
(0.989318 -0.00904214 -1.17224e-20)
(0.989348 -0.0108525 5.30264e-21)
(0.990876 -0.0116955 -3.41726e-22)
(0.991946 -0.0141876 -2.89196e-21)
(0.992901 -0.0158676 1.94999e-21)
(0.994635 -0.0191296 0)
(0.997198 -0.0201328 -1.75673e-21)
(1.00053 -0.0231502 1.79394e-21)
(1.00399 -0.0246089 0)
(1.00766 -0.0285804 1.23213e-21)
(1.01097 -0.0299209 -1.2361e-21)
(1.01548 -0.0328862 0)
(1.01991 -0.0331654 -9.84725e-23)
(1.0262 -0.0351301 1.21468e-22)
(1.03085 -0.0347521 -9.89164e-24)
(1.03656 -0.0372781 0)
(1.04161 -0.0367822 1.41968e-23)
(1.0473 -0.0396643 0)
(1.0527 -0.0390313 -5.15974e-25)
(1.0566 -0.0417901 -2.23626e-23)
(1.06096 -0.0416431 -4.68307e-23)
(1.06412 -0.0443292 0)
(1.06869 -0.0436767 0)
(1.07275 -0.0449585 -7.54333e-22)
(1.07984 -0.0426703 1.51566e-21)
(1.0874 -0.0413355 8.87843e-22)
(1.09707 -0.0345181 -3.25128e-21)
(1.10518 -0.0304354 1.59914e-21)
(1.11323 -0.0208933 0)
(1.11803 -0.0159272 0)
(1.12173 -0.00447079 0)
(1.1205 0.0010697 2.60749e-22)
(1.11943 0.0124071 -5.4643e-22)
(1.11263 0.0169357 2.71604e-22)
(1.10943 0.0274272 3.8036e-21)
(1.09978 0.0311021 -4.61618e-21)
(1.09556 0.0388504 2.73997e-22)
(1.08339 0.0411545 3.98583e-21)
(0.986859 -0.00659087 -6.65409e-21)
(0.98732 -0.00892182 3.75518e-22)
(0.98808 -0.0101478 5.85367e-21)
(0.988151 -0.0123341 -1.12613e-20)
(0.989552 -0.0133305 8.90395e-21)
(0.990512 -0.0160253 -2.79778e-21)
(0.992348 -0.0173463 6.49252e-22)
(0.993474 -0.0210209 2.3034e-21)
(0.995851 -0.0224955 -4.67172e-21)
(0.999476 -0.0258343 4.15558e-21)
(1.00268 -0.0274475 -1.82825e-21)
(1.00697 -0.031327 -1.21649e-21)
(1.01005 -0.0327864 1.15728e-21)
(1.01486 -0.0357473 0)
(1.01934 -0.0362846 -2.36061e-23)
(1.02535 -0.0385986 -1.08822e-22)
(1.03033 -0.0379703 1.19277e-22)
(1.03609 -0.0402393 -2.17008e-22)
(1.04086 -0.0400196 1.85264e-22)
(1.04583 -0.0426174 -5.26389e-24)
(1.05123 -0.0419471 1.92968e-22)
(1.05585 -0.0441193 -5.61335e-22)
(1.06093 -0.0433944 3.92553e-22)
(1.0651 -0.0463485 8.18826e-22)
(1.06918 -0.0455946 -8.17329e-22)
(1.07394 -0.0487397 -8.04214e-22)
(1.07877 -0.0464262 7.01333e-22)
(1.0852 -0.0476728 9.94736e-23)
(1.09285 -0.0416996 1.00639e-22)
(1.10163 -0.0389115 1.72471e-21)
(1.11201 -0.0274542 -1.93599e-21)
(1.11934 -0.0210369 0)
(1.1265 -0.00614779 2.57974e-22)
(1.1283 0.00204004 -2.3114e-21)
(1.13049 0.0168454 4.70823e-21)
(1.12517 0.0240704 -2.40577e-21)
(1.12283 0.0353082 5.22845e-21)
(1.11194 0.0410038 -7.95586e-23)
(1.10732 0.0485647 -9.80943e-21)
(1.09378 0.0528021 4.35796e-21)
(0.987035 -0.00836326 8.07654e-22)
(0.987195 -0.0110359 6.23336e-21)
(0.988244 -0.0122735 -5.4999e-21)
(0.98829 -0.0146349 -7.60882e-22)
(0.989025 -0.0158738 0)
(0.990306 -0.018703 0)
(0.992466 -0.019992 -3.37574e-22)
(0.994399 -0.0238424 0)
(0.996412 -0.0255462 2.1355e-21)
(0.999726 -0.0295441 -3.74945e-21)
(1.00286 -0.0309446 1.86045e-21)
(1.00774 -0.0351099 8.35491e-23)
(1.01086 -0.0362815 5.79362e-24)
(1.01663 -0.0393806 3.55075e-23)
(1.02022 -0.0395813 0)
(1.02624 -0.0425361 0)
(1.03054 -0.0412283 2.04648e-23)
(1.03676 -0.044035 -3.18054e-23)
(1.0414 -0.042356 1.78667e-23)
(1.0464 -0.0455651 5.47522e-24)
(1.05051 -0.0444487 0)
(1.05529 -0.0475767 0)
(1.05994 -0.0463703 1.14844e-22)
(1.06467 -0.0491397 8.46845e-22)
(1.06978 -0.0478053 -9.62808e-22)
(1.07478 -0.0509221 0)
(1.07988 -0.0490203 1.04869e-22)
(1.086 -0.0512454 -1.03601e-22)
(1.09269 -0.0469011 -1.67967e-21)
(1.10006 -0.0459919 1.56667e-21)
(1.1094 -0.0368117 2.26363e-22)
(1.11726 -0.03149 0)
(1.12697 -0.0178427 -2.67926e-22)
(1.12995 -0.00962313 -2.91099e-22)
(1.13548 0.00505487 3.10004e-22)
(1.13124 0.0139554 5.33061e-21)
(1.13067 0.0264175 1.10411e-22)
(1.1201 0.0339348 -5.04698e-21)
(1.11638 0.0433587 -3.50391e-22)
(1.10128 0.0497494 3.11683e-22)
(0.985397 -0.00939201 -7.34367e-21)
(0.985734 -0.012326 6.53758e-21)
(0.9868 -0.0136593 -1.34037e-20)
(0.98661 -0.0162092 1.35403e-20)
(0.987488 -0.0175414 -6.31258e-21)
(0.988365 -0.0207869 -2.89375e-21)
(0.990419 -0.0221633 2.91462e-21)
(0.993375 -0.0259749 2.46989e-21)
(0.995205 -0.0279359 -4.3831e-21)
(0.998803 -0.0321764 4.07973e-21)
(1.00124 -0.034033 -1.88917e-21)
(1.0061 -0.0382279 -8.68927e-23)
(1.0098 -0.0393049 -2.51044e-22)
(1.01517 -0.0428702 1.78001e-22)
(1.01922 -0.0422906 1.56515e-22)
(1.02502 -0.0454681 -2.95082e-22)
(1.02924 -0.0445763 2.60382e-22)
(1.03551 -0.0474785 -6.84995e-24)
(1.04028 -0.0455191 -2.52391e-23)
(1.04586 -0.0484022 0)
(1.04991 -0.0470012 8.12217e-24)
(1.05412 -0.0500411 0)
(1.05812 -0.0488316 -6.22465e-23)
(1.06301 -0.052406 -5.31465e-24)
(1.06793 -0.050431 -8.51009e-22)
(1.07402 -0.0538738 9.7333e-22)
(1.0797 -0.0520345 -8.84679e-22)
(1.08643 -0.055456 -9.3647e-22)
(1.0935 -0.052581 1.8075e-21)
(1.10025 -0.0529298 1.08222e-22)
(1.10898 -0.0464093 0)
(1.11585 -0.0419503 2.0588e-21)
(1.12694 -0.0287882 -2.04805e-21)
(1.13213 -0.0179608 3.02717e-22)
(1.14134 -0.000985573 0)
(1.14021 0.0119872 0)
(1.14324 0.027513 0)
(1.13449 0.0382312 0)
(1.13201 0.0498026 6.8901e-21)
(1.11653 0.0580143 -1.17682e-20)
(0.985193 -0.0118281 7.04205e-21)
(0.985687 -0.015041 -6.39292e-22)
(0.986562 -0.0163789 -1.3694e-20)
(0.986769 -0.0191524 -2.18144e-22)
(0.987516 -0.0206775 6.64394e-21)
(0.988551 -0.0241117 0)
(0.99013 -0.0259054 0)
(0.993198 -0.0299829 0)
(0.995685 -0.0317935 1.94669e-21)
(0.999794 -0.036344 -2.52655e-21)
(1.00223 -0.0382593 1.05059e-22)
(1.0069 -0.0425155 -1.09648e-21)
(1.0103 -0.043428 1.04257e-21)
(1.01589 -0.0472144 -1.97415e-23)
(1.02056 -0.0460915 -1.17515e-23)
(1.02643 -0.0497425 -6.57894e-24)
(1.03108 -0.048138 0)
(1.0367 -0.0514177 9.16034e-23)
(1.04105 -0.0491335 2.63333e-23)
(1.04622 -0.0517446 8.80634e-24)
(1.05072 -0.0496373 -3.13213e-22)
(1.05414 -0.0523822 3.35177e-22)
(1.05855 -0.0509549 -7.96752e-23)
(1.06138 -0.0545335 7.00464e-23)
(1.06592 -0.0539964 -1.39312e-22)
(1.07157 -0.0584623 -8.77517e-22)
(1.07835 -0.0565161 1.01135e-21)
(1.08485 -0.0598398 1.76227e-21)
(1.0936 -0.0573389 -2.69894e-22)
(1.10069 -0.0583308 -1.69342e-21)
(1.11149 -0.0529897 0)
(1.11784 -0.0494528 -2.2745e-22)
(1.12941 -0.0399925 0)
(1.13337 -0.0313844 -2.32518e-21)
(1.14434 -0.0157008 5.53049e-21)
(1.14434 -0.0021956 -9.25573e-21)
(1.15063 0.0146994 1.34376e-20)
(1.14366 0.0284785 -7.10719e-21)
(1.14399 0.0425497 6.53898e-21)
(1.12782 0.0557646 -6.81512e-21)
(0.982941 -0.0131167 -4.78923e-22)
(0.983528 -0.0166313 8.2031e-21)
(0.984294 -0.0180964 -7.33597e-21)
(0.984791 -0.0210332 4.46932e-22)
(0.985383 -0.0227122 0)
(0.986949 -0.0261361 -4.14046e-22)
(0.987991 -0.0283868 0)
(0.990891 -0.0326229 3.00998e-21)
(0.993288 -0.0347114 -6.73681e-22)
(0.997634 -0.0397053 -2.05992e-21)
(1.00091 -0.0411105 -1.09761e-22)
(1.00518 -0.0459792 -7.49586e-23)
(1.00919 -0.0463379 0)
(1.01439 -0.0508479 3.30613e-23)
(1.01901 -0.0496935 -7.53436e-25)
(1.02509 -0.053185 -5.1777e-22)
(1.03022 -0.0511673 5.87788e-22)
(1.0355 -0.0546221 -5.21735e-23)
(1.04022 -0.0518002 2.5775e-22)
(1.04428 -0.0544357 -3.03887e-22)
(1.04904 -0.0520436 9.96372e-24)
(1.05267 -0.0551686 -8.87975e-23)
(1.05735 -0.0535088 8.35833e-23)
(1.0599 -0.0564702 -8.96717e-23)
(1.06454 -0.0559217 7.51542e-23)
(1.06784 -0.0606406 -1.39562e-21)
(1.07556 -0.0611839 1.24211e-21)
(1.08098 -0.0649749 1.84265e-21)
(1.09129 -0.0640126 -1.83445e-21)
(1.09825 -0.0651874 -1.00294e-22)
(1.11132 -0.0620974 0)
(1.11861 -0.0592215 2.17522e-21)
(1.13279 -0.0514548 -1.68507e-21)
(1.13756 -0.0434289 -2.65315e-21)
(1.15009 -0.0295691 2.27094e-21)
(1.15062 -0.0148192 0)
(1.15958 0.00370257 6.98016e-21)
(1.15397 0.0212601 -6.90009e-21)
(1.15854 0.0384907 0)
(1.14307 0.0573613 -4.75907e-22)
(0.982252 -0.0163585 1.67067e-22)
(0.98328 -0.0201911 -8.46413e-21)
(0.98383 -0.02188 7.57631e-21)
(0.984596 -0.0250017 -1.54816e-20)
(0.985151 -0.0268733 1.1434e-20)
(0.987025 -0.0304478 -3.14063e-21)
(0.988413 -0.0327483 0)
(0.991452 -0.0374338 -3.68809e-22)
(0.993861 -0.0396188 -2.03719e-21)
(0.997856 -0.0449334 2.10165e-21)
(1.0014 -0.0462402 1.01859e-22)
(1.00588 -0.0513152 -8.96038e-22)
(1.01077 -0.0510249 1.04303e-21)
(1.01604 -0.0557953 -1.67249e-22)
(1.02098 -0.0543693 0)
(1.02652 -0.0581644 0)
(1.03177 -0.0555099 -4.8788e-23)
(1.03761 -0.0585917 5.42001e-22)
(1.04247 -0.0555286 -8.9241e-22)
(1.04635 -0.0576517 3.57013e-22)
(1.0506 -0.0551209 -4.23135e-22)
(1.0535 -0.0575733 4.02377e-22)
(1.05748 -0.0562922 1.10152e-22)
(1.05966 -0.0590249 1.61082e-21)
(1.06406 -0.0585719 -1.515e-21)
(1.06621 -0.0623925 -1.24278e-21)
(1.07187 -0.0633737 1.90724e-24)
(1.07617 -0.0693268 -7.06065e-22)
(1.08687 -0.0712487 2.12975e-21)
(1.09404 -0.0741365 2.01785e-22)
(1.10837 -0.0727721 -1.81337e-22)
(1.11691 -0.0703606 1.87365e-22)
(1.13443 -0.0633487 -2.52518e-22)
(1.1417 -0.0549493 -2.85077e-21)
(1.15827 -0.0428055 5.94025e-21)
(1.15978 -0.0285768 -3.02866e-21)
(1.17099 -0.0129817 0)
(1.16519 0.00634703 0)
(1.17116 0.0234422 0)
(1.15602 0.0488615 -9.54252e-21)
(0.978911 -0.0182093 0)
(0.980646 -0.022164 8.24565e-21)
(0.98066 -0.024088 -8.83369e-21)
(0.981891 -0.0272391 7.84445e-21)
(0.982118 -0.0294061 -8.86854e-21)
(0.98386 -0.0333453 -4.62219e-22)
(0.985729 -0.0354777 4.27448e-22)
(0.988498 -0.0406728 0)
(0.991791 -0.0425748 2.40904e-21)