/*--------------------------------*- C++ -*----------------------------------*\
  =========                 |
  \\      /  F ield         | OpenFOAM: The Open Source CFD Toolbox
   \\    /   O peration     | Website:  https://openfoam.org
    \\  /    A nd           | Version:  11
     \\/     M anipulation  |
\*---------------------------------------------------------------------------*/
FoamFile
{
    format      ascii;
    class       surfaceScalarField;
    location    "5";
    object      phi;
}
// * * * * * * * * * * * * * * * * * * * * * * * * * * * * * * * * * * * * * //

dimensions      [0 3 -1 0 0 0 0];

internalField   nonuniform List<scalar> 
18960
(
0.0476487
0.000505435
-0.0481541
0.0471327
0.000515997
0.0465863
0.000546389
0.0460782
0.000508138
0.0457123
0.000365905
0.0453666
0.000345636
0.0448651
0.000501513
0.0442834
0.000581693
0.0439192
0.000364233
0.0437763
0.000142892
0.0436792
9.70779e-05
0.0433959
0.000283341
0.0423884
0.00100747
0.0408394
0.00154898
0.0397532
0.00108621
0.0394816
0.000271639
0.0395849
-0.000103291
0.0400382
-0.000453367
0.0411097
-0.00107145
0.0424142
-0.00130454
0.0434118
-0.000997592
0.0442828
-0.000870973
0.0451903
-0.000907509
0.0461627
-0.00097243
0.0473865
-0.00122373
0.0492574
-0.00187091
0.0519337
-0.0026763
0.0547052
-0.00277157
0.0564744
-0.00176913
0.0569517
-0.000477314
0.0564734
0.000478284
0.0552307
0.00124275
0.0532133
0.00201733
0.0509831
0.00223026
0.0490831
0.00189996
0.0479398
0.00114333
0.0469669
0.000972898
0.0467763
0.000190543
0.0462618
0.000514552
-0.000545858
0.0468076
0.0478961
0.000771801
-0.0481624
0.0476122
0.000799908
0.0472735
0.00088505
0.0469371
0.000844525
0.0466248
0.000678247
0.0463205
0.000649937
0.0459972
0.000824814
0.045694
0.000884904
0.0454563
0.000601919
0.0452648
0.000334381
0.0450631
0.000298788
0.0448504
0.000496023
0.044493
0.00136488
0.0440598
0.00198215
0.0437083
0.00143774
0.0436508
0.000329103
0.043692
-0.000144494
0.0438778
-0.000639189
0.0444093
-0.00160291
0.0452956
-0.00219084
0.0461531
-0.00185505
0.0468445
-0.00156241
0.0475596
-0.00162261
0.0484945
-0.0019073
0.0495857
-0.00231499
0.0509828
-0.003268
0.0528771
-0.00457058
0.0552842
-0.00517867
0.0576556
-0.00414049
0.0592628
-0.00208459
0.0598764
-0.000135317
0.0599783
0.00114086
0.0593725
0.00262315
0.0581572
0.00344554
0.056627
0.00343024
0.0551807
0.00258964
0.0539783
0.00217529
0.0527964
0.00137242
0.0520433
0.00126764
0.000539162
0.0509583
0.0478136
0.00116058
-0.0482024
0.0474602
0.00115333
0.0470984
0.00124685
0.0467067
0.00123627
0.0462946
0.00109029
0.0458866
0.00105801
0.0455579
0.00115352
0.0452967
0.00114602
0.045037
0.00086162
0.0448211
0.000550288
0.0446521
0.000467822
0.0445256
0.000622561
0.044428
0.00146247
0.0443927
0.00201737
0.044246
0.00158451
0.0440882
0.000486833
0.0440757
-0.000131941
0.0443099
-0.000873386
0.0448849
-0.00217787
0.0456648
-0.00297076
0.0463714
-0.00256165
0.0468455
-0.00203652
0.047227
-0.00200413
0.0478679
-0.00254822
0.0488266
-0.00327368
0.0500343
-0.00447568
0.0517204
-0.0062567
0.0541219
-0.00758015
0.0567403
-0.00675892
0.0585872
-0.00393153
0.0592863
-0.000834339
0.059109
0.00131817
0.058297
0.00343511
0.056796
0.00494654
0.0550193
0.00520695
0.0535027
0.00410618
0.0522138
0.00346423
0.0513224
0.00226382
0.0507525
0.00183751
0.000632688
0.050659
0.0477243
0.00155178
-0.0481155
0.0473912
0.0014864
0.0470389
0.00159921
0.0466617
0.00161343
0.0463267
0.00142528
0.0460458
0.00133896
0.0457895
0.00140982
0.0455545
0.00138103
0.0453466
0.00106945
0.0451919
0.000705052
0.0450204
0.000639253
0.0448936
0.000749419
0.0449199
0.00143618
0.0449568
0.00198041
0.0449964
0.001545
0.0450477
0.000435452
0.0451888
-0.000273013
0.0456158
-0.00130041
0.0461095
-0.00267151
0.0466168
-0.00347812
0.0471505
-0.0030953
0.0476451
-0.00253113
0.0479661
-0.00232514
0.0484356
-0.00301769
0.0492072
-0.00404533
0.0502566
-0.00552509
0.0515903
-0.00759035
0.053557
-0.0095469
0.0561852
-0.00938706
0.0588258
-0.00657214
0.0605348
-0.00254336
0.0612126
0.000640352
0.061086
0.00356179
0.0602745
0.00575796
0.0588107
0.00667081
0.057354
0.00556284
0.055933
0.00488528
0.0547508
0.00344603
0.0535113
0.00307695
0.00165379
0.0524902
0.0476838
0.0019517
-0.0480837
0.0473268
0.00184346
0.0469464
0.00197961
0.0465785
0.00198132
0.0462495
0.00175421
0.0458938
0.00169472
0.045567
0.00173655
0.0453266
0.00162145
0.0451466
0.00124951
0.0449136
0.000938028
0.0447211
0.000831742
0.0446347
0.000835797
0.044771
0.00129986
0.0451404
0.00161106
0.0455411
0.00114429
0.0457845
0.000192003
0.0459602
-0.000448644
0.0462705
-0.00161077
0.0465769
-0.00297792
0.0468402
-0.00374135
0.0472035
-0.00345867
0.0475764
-0.00290395
0.0478134
-0.00256222
0.0480658
-0.00327003
0.04865
-0.00462958
0.0495783
-0.00645332
0.050801
-0.00881312
0.0525147
-0.0112606
0.0548956
-0.0117679
0.0575703
-0.00924689
0.0595198
-0.00449281
0.060442
-0.000281866
0.0604852
0.00351859
0.0598407
0.00640242
0.0584582
0.00805335
0.0568715
0.00714954
0.0553659
0.00639087
0.0541686
0.00464329
0.0530646
0.00418101
0.00225261
0.0524658
0.0475731
0.00234442
-0.0479658
0.0472082
0.00220842
0.0468417
0.00234611
0.0465246
0.00229839
0.0461829
0.0020959
0.0458334
0.00204418
0.0455703
0.00199971
0.0454192
0.00177256
0.0452747
0.00139397
0.0450997
0.00111301
0.0449697
0.000961769
0.0449147
0.000890816
0.0450836
0.00113088
0.0455318
0.00116295
0.0458598
0.00081628
0.0460967
-4.4966e-05
0.0463739
-0.000725807
0.0467913
-0.00202815
0.0471451
-0.00333173
0.047417
-0.00401323
0.0476924
-0.00373412
0.0479971
-0.00320861
0.0482458
-0.00281091
0.0484523
-0.00347658
0.0487929
-0.00497015
0.0494997
-0.00716016
0.05052
-0.0098334
0.052022
-0.0127626
0.0542414
-0.0139873
0.0572807
-0.0122862
0.060128
-0.00734005
0.0619352
-0.00208911
0.0624875
0.0029663
0.0621951
0.00669478
0.0610337
0.00921475
0.0595949
0.00858838
0.0580399
0.00794583
0.0567523
0.00593095
0.0553665
0.00556677
0.00343672
0.0541824
0.0475347
0.00273092
-0.0479212
0.047163
0.00258018
0.0468171
0.00269194
0.0464835
0.00263198
0.0461179
0.00246156
0.0457644
0.00239768
0.0455427
0.00222134
0.0453939
0.00192136
0.0452117
0.00157623
0.0450331
0.00129163
0.0449113
0.00108357
0.0449317
0.000870399
0.0451503
0.000912279
0.0455987
0.000714493
0.0460145
0.000400482
0.0463733
-0.000403742
0.0467572
-0.00110965
0.0471462
-0.0024172
0.0474429
-0.0036284
0.0476441
-0.00421447
0.047804
-0.003894
0.0479877
-0.00339236
0.0481606
-0.00298375
0.0482659
-0.00358194
0.0484547
-0.00515895
0.0489547
-0.00766011
0.049818
-0.0106967
0.0511328
-0.0140775
0.0530441
-0.0158986
0.0558145
-0.0150566
0.0587635
-0.010289
0.0611672
-0.00449288
0.0623176
0.00181593
0.0625084
0.00650397
0.0617268
0.00999635
0.0603756
0.00993957
0.0587986
0.00952287
0.0574096
0.00731996
0.0560024
0.00697397
0.00451935
0.0549197
0.0474086
0.00311632
-0.047794
0.0470343
0.00295447
0.0467039
0.00302234
0.0463864
0.00294945
0.0460108
0.00283717
0.0457213
0.00268714
0.0455276
0.00241507
0.0453687
0.00208023
0.0452045
0.00174049
0.0450896
0.00140652
0.0450263
0.00114684
0.0450943
0.000802425
0.0453476
0.000658969
0.0458067
0.000255361
0.0462602
-5.30135e-05
0.0466295
-0.000773031
0.0469786
-0.00145876
0.0473306
-0.00276922
0.0475996
-0.00389738
0.0478254
-0.00444028
0.0480183
-0.00408687
0.0481985
-0.00357249
0.0483572
-0.00314251
0.0484577
-0.00368242
0.0485196
-0.00522084
0.0487778
-0.00791834
0.0493797
-0.0112986
0.0504677
-0.0151654
0.0522292
-0.0176602
0.0551098
-0.0179371
0.0585999
-0.0137792
0.0617547
-0.00764766
0.0636513
-8.06412e-05
0.0643694
0.00578591
0.0638851
0.0104806
0.0626374
0.0111873
0.0609575
0.0112028
0.0594875
0.00878995
0.0579916
0.00846986
0.00586594
0.056645
0.0473692
0.00350452
-0.0477574
0.0469869
0.00333681
0.0466605
0.00334875
0.0463357
0.00327423
0.0459778
0.00319504
0.04572
0.00294499
0.0455246
0.00261043
0.0453609
0.00224399
0.0452124
0.00188895
0.0451338
0.00148516
0.0450965
0.00118408
0.0452206
0.000678373
0.0455102
0.000369304
0.0459524
-0.000186827
0.0463658
-0.000466369
0.0467806
-0.00118782
0.0471702
-0.00184835
0.0475026
-0.00310167
0.0477249
-0.0041197
0.0479014
-0.00461674
0.0480553
-0.00424084
0.0481686
-0.00368572
0.0482925
-0.00326639
0.0483607
-0.00375063
0.0483341
-0.00519428
0.0484469
-0.00803113
0.0487477
-0.0115994
0.0496417
-0.0160594
0.0511098
-0.0191283
0.0536491
-0.0204765
0.0569505
-0.0170805
0.0605536
-0.0112508
0.0632485
-0.00277551
0.0647348
0.00429961
0.0647793
0.0104361
0.0639234
0.0120432
0.0623151
0.0128111
0.0607418
0.0103632
0.0591688
0.0100429
0.00721552
0.0578192
0.0472219
0.00389092
-0.0476083
0.0468691
0.00368965
0.0465425
0.00367535
0.0462049
0.00361179
0.0459134
0.00348651
0.0456955
0.00316292
0.0455082
0.00279775
0.045352
0.0024002
0.0452234
0.00201749
0.0451671
0.00154149
0.045187
0.00116424
0.0453481
0.000517193
0.0456549
6.25725e-05
0.0460728
-0.00060477
0.0465358
-0.000929388
0.0469965
-0.00164848
0.0474032
-0.00225503
0.0476505
-0.00334904
0.0477935
-0.00426268
0.0479088
-0.00473201
0.0480555
-0.00438752
0.048153
-0.00378324
0.0482626
-0.00337603
0.0483248
-0.00381279
0.0482969
-0.0051664
0.0482899
-0.00802416
0.0483779
-0.0116874
0.0489457
-0.0166271
0.0501487
-0.0203312
0.052591
-0.0229188
0.056082
-0.0205715
0.0603015
-0.0154704
0.0638312
-0.0063052
0.0662667
0.00186407
0.0670372
0.00966566
0.0665338
0.0125466
0.0650895
0.0142554
0.0635093
0.0119434
0.0617918
0.0117604
0.00881986
0.0601875
0.0471775
0.00427269
-0.0475593
0.0468247
0.00404243
0.0465018
0.00399826
0.0461815
0.00393207
0.045905
0.00376304
0.0456891
0.00337884
0.0454873
0.00299957
0.0453546
0.00253288
0.0452559
0.00211616
0.0452349
0.00156249
0.0452744
0.00112477
0.0454668
0.000324809
0.0458175
-0.000288143
0.0462696
-0.00105692
0.0466857
-0.00134542
0.0471024
-0.0020652
0.0475257
-0.00267838
0.0478402
-0.00366347
0.0479878
-0.0044103
0.0480349
-0.0047791
0.0480491
-0.00440171
0.0480701
-0.00380428
0.0480585
-0.00336443
0.048066
-0.00382033
0.0479612
-0.00506151
0.0478322
-0.00789526
0.0477414
-0.0115966
0.0481052
-0.016991
0.0490066
-0.0212326
0.0511184
-0.0250306
0.0542793
-0.0237324
0.0586462
-0.0198372
0.0628788
-0.0105378
0.0662521
-0.0015092
0.0677352
0.00818249
0.0677181
0.0125637
0.0664828
0.0154907
0.064852
0.0135742
0.0631695
0.0134429
0.0104855
0.0615039
0.0470275
0.00463574
-0.0473906
0.0466924
0.00437753
0.0463638
0.00432687
0.0460837
0.00421214
0.0458432
0.00400354
0.0456336
0.00358846
0.0454542
0.00317894
0.0453612
0.00262596
0.0452823
0.00219501
0.0453053
0.0015395
0.0453822
0.00104792
0.0456234
8.35357e-05
0.045976
-0.000640697
0.0463986
-0.00147954
0.0468058
-0.00175261
0.0472504
-0.0025098
0.0477282
-0.00315621
0.0480284
-0.00396369
0.0481486
-0.00453048
0.0481062
-0.00473666
0.0480373
-0.00433282
0.0479754
-0.00374241
0.0479257
-0.00331467
0.0478374
-0.00373203
0.0476867
-0.00491082
0.0474843
-0.00769291
0.0472364
-0.0113487
0.0472767
-0.0170312
0.0477207
-0.0216766
0.0495743
-0.0268842
0.0527026
-0.0268607
0.0574243
-0.0245589
0.0624092
-0.0155227
0.0668621
-0.00596208
0.0695323
0.00551229
0.0703867
0.0117093
0.0696153
0.0162622
0.0680796
0.0151098
0.0663343
0.0151883
0.0123005
0.0645192
0.047003
0.00498911
-0.0473564
0.0466565
0.00472399
0.0463518
0.00463159
0.0460857
0.00447826
0.0458285
0.0042607
0.0456395
0.00377748
0.0454858
0.00333263
0.0453908
0.00272096
0.0453417
0.00224412
0.0454015
0.00147974
0.0455132
0.0009362
0.0457777
-0.000180969
0.0461028
-0.000965797
0.0465359
-0.00191263
0.0469889
-0.00220563
0.047432
-0.00295293
0.0478346
-0.00355877
0.0481345
-0.00426354
0.0482987
-0.00469473
0.0482981
-0.00473604
0.0481883
-0.00422303
0.0480061
-0.00356018
0.0477958
-0.00310438
0.0475641
-0.00350039
0.0472193
-0.00456602
0.0468012
-0.00727475
0.0462758
-0.0108234
0.0460793
-0.0168347
0.0462017
-0.021799
0.0475729
-0.0282554
0.0502773
-0.0295651
0.0549615
-0.0292432
0.0605469
-0.021108
0.0661601
-0.0115753
0.0700551
0.00161723
0.0718247
0.00993976
0.0715257
0.0165611
0.0700188
0.0166166
0.0682194
0.0169877
0.014302
0.0662179
0.0468431
0.0053316
-0.0471856
0.0465159
0.00505123
0.0462371
0.00491039
0.0459859
0.00472943
0.045772
0.00447457
0.0455975
0.00395202
0.0454751
0.00345496
0.0454198
0.00277629
0.0454147
0.00224921
0.0454996
0.00139491
0.0456326
0.000803167
0.0459211
-0.000469513
0.0462668
-0.00131151
0.0466825
-0.00232832
0.0471408
-0.00266389
0.0475587
-0.0033708
0.0479524
-0.00395249
0.0482725
-0.00458364
0.0484788
-0.00490103
0.0484655
-0.00472278
0.0483275
-0.00408502
0.0480452
-0.0032779
0.0477659
-0.00282499
0.0473847
-0.00311925
0.046905
-0.00408625
0.0463603
-0.00673011
0.0456542
-0.0101173
0.0450835
-0.016264
0.0446191
-0.0213346
0.0452931
-0.0289294
0.0474881
-0.0317601
0.0520649
-0.03382
0.058267
-0.0273101
0.0651876
-0.0184959
0.0706979
-0.00389315
0.0739316
0.00670608
0.0746941
0.0157987
0.0735976
0.0177131
0.0718714
0.018714
0.0163751
0.0697983
0.0468278
0.00567475
-0.047171
0.0465165
0.00536257
0.0462428
0.00518413
0.0459845
0.00498773
0.0457867
0.00467236
0.0456349
0.00410381
0.0455368
0.00355307
0.045513
0.00280008
0.0455297
0.00223251
0.0456393
0.00128528
0.0457877
0.000654784
0.0460895
-0.00077131
0.0464473
-0.00166936
0.0468291
-0.00271006
0.0472642
-0.00309904
0.047703
-0.00380961
0.048079
-0.00432844
0.048391
-0.00489566
0.0485523
-0.00506228
0.0485772
-0.0047477
0.0485112
-0.00401906
0.0482906
-0.00305729
0.047895
-0.00242938
0.0473923
-0.00261653
0.0467406
-0.00343453
0.0459449
-0.00593446
0.0448407
-0.00901304
0.0438146
-0.015238
0.0429562
-0.0204761
0.0429759
-0.0289491
0.0442922
-0.0330764
0.0480155
-0.0375433
0.0542158
-0.0335104
0.0622863
-0.0265663
0.0698382
-0.0114451
0.0749694
0.00157486
0.0770853
0.0136828
0.0765982
0.0182002
0.0748832
0.020429
0.0187199
0.0725384
0.0466656
0.0059989
-0.0469898
0.0463768
0.00565145
0.0461219
0.00543903
0.0459068
0.00520281
0.0457418
0.00483731
0.045615
0.00423064
0.0455391
0.003629
0.0455656
0.00277358
0.0456064
0.0021917
0.0457412
0.0011505
0.0459514
0.000444526
0.0462642
-0.0010841
0.0466062
-0.0020114
0.0469762
-0.00308005
0.047382
-0.00350483
0.0478421
-0.00426966
0.0482178
-0.00470412
0.048497
-0.00517486
0.0486604
-0.00522572
0.048705
-0.00479231
0.0486656
-0.00397962
0.0484608
-0.00285252
0.0480518
-0.0020204
0.0474819
-0.00204658
0.0466702
-0.00262285
0.0457473
-0.0050116
0.0445576
-0.00782328
0.0431734
-0.0138538
0.0417591
-0.0190618
0.040918
-0.028108
0.0413145
-0.0334729
0.0439037
-0.0401325
0.0494462
-0.0390529
0.0578342
-0.0349543
0.0674515
-0.0210623
0.0752644
-0.00623811
0.0796168
0.00933042
0.0804252
0.0173918
0.0791937
0.0216604
0.0210653
0.0768484
0.046669
0.00631641
-0.0469865
0.0463974
0.00592308
0.0461363
0.00570012
0.0459455
0.00539362
0.0457932
0.00498955
0.0457125
0.00431136
0.0456523
0.00368919
0.0456901
0.00273578
0.045775
0.00210684
0.0459214
0.00100414
0.0461555
0.000210395
0.0464407
-0.00136931
0.0467681
-0.0023388
0.0471411
-0.00345303
0.0475633
-0.00392706
0.0479983
-0.00470465
0.0483565
-0.00506228
0.0486778
-0.00549622
0.0488442
-0.00539213
0.0488254
-0.0047735
0.0487195
-0.00387371
0.0485531
-0.00268614
0.0481686
-0.00163589
0.0475926
-0.0014705
0.0467699
-0.00180019
0.0457445
-0.00398621
0.0443496
-0.00642833
0.0425377
-0.0120419
0.040698
-0.0172222
0.0391402
-0.0265501
0.0387082
-0.0330408
0.0399562
-0.0413805
0.0443816
-0.0434784
0.0517962
-0.0423689
0.0625098
-0.0317759
0.0730233
-0.0167516
0.0807653
0.00158841
0.0838717
0.0142854
0.0835338
0.0219983
0.0235157
0.0810834
0.0464969
0.00660487
-0.0467854
0.0462573
0.00616265
0.0460382
0.00591922
0.0458686
0.00556324
0.0457581
0.00510005
0.0457167
0.00435273
0.0456968
0.00370909
0.045759
0.00267366
0.0458956
0.00197021
0.046098
0.000801699
0.0463468
-3.84271e-05
0.0466183
-0.00164074
0.0469119
-0.00263248
0.0473095
-0.00385056
0.047725
-0.00434256
0.0481693
-0.00514895
0.0485619
-0.00545493
0.0488331
-0.00576741
0.048974
-0.005533
0.0489668
-0.00476631
0.0488587
-0.00376566
0.0486671
-0.0024945
0.0483144
-0.00128319
0.0477646
-0.000920667
0.0468862
-0.000921858
0.0457455
-0.00284547
0.0443735
-0.00505636
0.0424636
-0.010132
0.0403125
-0.015071
0.0378648
-0.0241025
0.0364694
-0.0316454
0.0362382
-0.0411493
0.0395079
-0.0467481
0.04556
-0.048421
0.0562726
-0.0424885
0.0681142
-0.0285932
0.0795715
-0.00986883
0.0863692
0.00748765
0.0884785
0.019889
0.0254254
0.0865687
0.046536
0.00687329
-0.0468044
0.0463034
0.00639527
0.0461062
0.00611645
0.0459573
0.00571215
0.0458695
0.00518776
0.0458473
0.00437495
0.0458488
0.00370761
0.0459239
0.00259858
0.0460757
0.0018184
0.046302
0.000575402
0.0465795
-0.000315964
0.0468815
-0.00194274
0.047163
-0.00291395
0.0475181
-0.00420564
0.0479245
-0.00474895
0.0484319
-0.00565642
0.0488366
-0.00585959
0.0490795
-0.00601035
0.0492257
-0.00567918
0.0492185
-0.00475915
0.0491012
-0.00364827
0.0489056
-0.00229897
0.0485363
-0.000913885
0.0479826
-0.000366996
0.0471445
-8.36971e-05
0.0459747
-0.00167565
0.0445561
-0.00363776
0.0424504
-0.00802631
0.0400628
-0.0126835
0.0368727
-0.0209124
0.0345316
-0.0293043
0.0325797
-0.0391975
0.0340533
-0.0482216
0.038468
-0.0528358
0.0488263
-0.0528468
0.06098
-0.0407469
0.0754242
-0.0243131
0.0862383
-0.0033264
0.0924492
0.0136781
0.0257298
0.0921449
0.0463757
0.00710467
-0.0466071
0.0461768
0.00659414
0.0460041
0.00628916
0.0459046
0.00581171
0.0458515
0.00524078
0.0458679
0.00435864
0.0459487
0.00362679
0.0460749
0.00247233
0.046242
0.00165137
0.0464791
0.000338237
0.0467672
-0.000604005
0.0470884
-0.00226399
0.0473732
-0.00319878
0.0477799
-0.00461233
0.0481293
-0.00509828
0.0485693
-0.00609645
0.0489526
-0.00624287
0.0492516
-0.00630932
0.0494493
-0.00587689
0.0494515
-0.00476134
0.0493406
-0.00353746
0.0491948
-0.00215316
0.0488477
-0.000566785
0.0483422
0.000138593
0.0475492
0.000709207
0.0462934
-0.000419819
0.0447719
-0.00211628
0.0425899
-0.00584424
0.0402497
-0.0103433
0.0365457
-0.0172084
0.033275
-0.0260336
0.0295493
-0.0354717
0.028551
-0.0472233
0.0304152
-0.0547001
0.0390269
-0.0614584
0.0509584
-0.0526784
0.0684929
-0.0418476
0.0828478
-0.0176813
0.0943936
0.00213223
0.0232884
0.096835
0.0464451
0.00732585
-0.0466662
0.0462534
0.00678583
0.0461228
0.00641976
0.0460548
0.0058797
0.0460434
0.00525218
0.0460617
0.00434035
0.0461633
0.00352514
0.0463004
0.00233522
0.0465122
0.00143962
0.0467844
6.60054e-05
0.0470527
-0.000872357
0.0474078
-0.00261903
0.0476835
-0.00347449
0.0480839
-0.00501272
0.048471
-0.00548536
0.0488516
-0.00647709
0.0492342
-0.00662545
0.0494453
-0.00652044
0.0496368
-0.00606839
0.049719
-0.00484352
0.0496396
-0.00345805
0.0494946
-0.0020082
0.0492281
-0.000300278
0.0487278
0.000638861
0.0480345
0.00140255
0.0468047
0.000809935
0.0453585
-0.000670045
0.0430453
-0.00353107
0.0406177
-0.00791566
0.0366177
-0.0132085
0.0326244
-0.0220403
0.0275484
-0.0303957
0.0240003
-0.0436752
0.0226176
-0.0533174
0.0267077
-0.0655486
0.0365784
-0.0625491
0.0553081
-0.0605772
0.0740319
-0.0364051
0.0931448
-0.0169807
0.0162764
0.100157
0.0462886
0.00749656
-0.0464593
0.0461512
0.0069232
0.0460711
0.00649987
0.046046
0.00590475
0.0460767
0.00522149
0.0461612
0.00425584
0.0462915
0.00339491
0.0464834
0.00214332
0.0466972
0.00122582
0.0470186
-0.000255417
0.0472968
-0.00115058
0.047679
-0.00300124
0.0479551
-0.00375061
0.048329
-0.00538659
0.0487307
-0.00588707
0.0490548
-0.00680115
0.0494376
-0.00700821
0.0496324
-0.0067153
0.0497808
-0.00621678
0.0498649
-0.00492757
0.0498434
-0.00343664
0.0497254
-0.00189013
0.0495621
-0.000136983
0.0491401
0.00106088
0.0485932
0.00194938
0.0474587
0.00194446
0.0460917
0.000697009
0.0437054
-0.00114484
0.0412614
-0.00547168
0.0374065
-0.0093535
0.0328237
-0.0174576
0.0269677
-0.0245397
0.0210138
-0.0377213
0.0166273
-0.0489308
0.0143318
-0.0632531
0.0197407
-0.067958
0.0340007
-0.0748373
0.0544724
-0.0568767
0.0817841
-0.0442924
-0.00116137
0.0992218
0.0464488
0.00764907
-0.0466013
0.0463289
0.0070431
0.0462882
0.00654059
0.0462733
0.00591966
0.0463365
0.00515829
0.0464463
0.00414605
0.0465863
0.00325482
0.0468238
0.00190587
0.0470375
0.00101207
0.0473857
-0.000603591
0.0476899
-0.00145481
0.0480633
-0.00337457
0.0484063
-0.00409361
0.0487439
-0.00572421
0.0491585
-0.00630164
0.0494265
-0.00706919
0.0497568
-0.00733847
0.0499889
-0.00694743
0.0501354
-0.00636329
0.0502028
-0.00499497
0.0502152
-0.00344903
0.0500926
-0.00176756
0.0499712
-1.55249e-05
0.0495729
0.00145918
0.0491652
0.00235704
0.0481159
0.00299376
0.0469657
0.0018472
0.044767
0.00105386
0.0421387
-0.0028434
0.0386576
-0.0058724
0.0338061
-0.012606
0.0278614
-0.018595
0.0200706
-0.0299305
0.0128164
-0.0416766
0.00459605
-0.0550328
0.00263716
-0.0659991
0.00921131
-0.0814115
0.0276938
-0.0753592
0.0551789
-0.0717776
-0.0298433
0.0838608
0.0463188
0.00773272
-0.0464024
0.0462616
0.00710025
0.046266
0.00653617
0.0463316
0.00585404
0.0464046
0.00508529
0.046581
0.00396964
0.0467621
0.00307377
0.0470266
0.00164132
0.0472908
0.000747904
0.0476668
-0.000979622
0.0480002
-0.00178816
0.0483487
-0.00372307
0.0487448
-0.0044897
0.0490119
-0.00599131
0.0494657
-0.00675542
0.0497451
-0.00734862
0.0500152
-0.00760854
0.0502281
-0.00716038
0.0503691
-0.00650431
0.0504384
-0.0050642
0.0505242
-0.00353483
0.0504381
-0.00168148
0.0504101
1.24282e-05
0.0500408
0.00182848
0.0497911
0.00260676
0.0488631
0.00392175
0.0477349
0.00297537
0.0460079
0.00278089
0.0434014
-0.000236932
0.0401754
-0.0026463
0.0356226
-0.00805324
0.0301007
-0.0130732
0.02164
-0.0214698
0.011894
-0.0319306
0.00114239
-0.0442812
-0.00689381
-0.0579629
-0.00964622
-0.078659
-0.00282732
-0.0821781
0.0159939
-0.0905988
-0.0657885
0.0519391
0.0465913
0.0078049
-0.0466635
0.0465733
0.0071183
0.0465851
0.0065243
0.0466932
0.00574595
0.046806
0.0049725
0.0470028
0.00377282
0.0472031
0.00287353
0.0474953
0.00134906
0.0477894
0.000453796
0.0481352
-0.00132535
0.0485426
-0.00219556
0.0488702
-0.00405066
0.0493093
-0.00492885
0.0495908
-0.00627276
0.0499647
-0.00712937
0.0502059
-0.0075898
0.0504547
-0.00785736
0.0506452
-0.00735086
0.0507851
-0.0066442
0.05084
-0.00511912
0.0509551
-0.00364995
0.0508822
-0.00160851
0.0510187
-0.000124092
0.0507051
0.00214202
0.0504645
0.00284736
0.0499324
0.00445389
0.0488642
0.00404357
0.0473722
0.00427284
0.0450882
0.00204709
0.0421249
0.00031701
0.0380059
-0.00393421
0.0329389
-0.00800618
0.0255545
-0.0140854
0.015295
-0.0216711
0.00289858
-0.0318847
-0.00835713
-0.0467072
-0.0209496
-0.0660666
-0.0238716
-0.0792561
-0.0211687
-0.0933016
-0.0866018
-0.00035543
0.0464832
0.00781864
-0.046497
0.0465324
0.00706915
0.0466019
0.00645481
0.0467415
0.00560634
0.0469211
0.00479282
0.0471838
0.0035102
0.0474443
0.00261299
0.0477465
0.00104686
0.0481294
7.09521e-05
0.0484373
-0.00163328
0.0489213
-0.00267956
0.0491964
-0.00432578
0.0496835
-0.00541599
0.049983
-0.00657225
0.0503386
-0.00748494
0.0505993
-0.00785046
0.0508191
-0.00807723
0.0509589
-0.00749066
0.0511051
-0.00679042
0.0511644
-0.00517834
0.0513252
-0.0038108
0.0512904
-0.00157373
0.0513952
-0.000228887
0.0513766
0.00216066
0.0511189
0.00310501
0.0507872
0.0047856
0.0500098
0.00482105
0.0489557
0.00532685
0.046934
0.00406885
0.0444357
0.00281526
0.0408814
-0.000379881
0.0361025
-0.00322729
0.0302211
-0.00820397
0.0220677
-0.0135177
0.0100551
-0.0198722
-0.00374674
-0.0329053
-0.0207078
-0.0491055
-0.0321659
-0.067798
-0.0421188
-0.0833488
-0.0913292
-0.0373913
0.0469141
0.00781285
-0.0469083
0.0469786
0.0070046
0.0471074
0.006326
0.0472999
0.0054139
0.0475545
0.00453817
0.0477199
0.00334486
0.0481369
0.00219593
0.0483871
0.000796663
0.0488671
-0.000408989
0.0491105
-0.00187676
0.0496628
-0.00323178
0.0499473
-0.00461032
0.0504185
-0.00588716
0.0506769
-0.00683063
0.0509875
-0.0077956
0.0512185
-0.00808145
0.0513974
-0.00825613
0.0515403
-0.00763353
0.0516324
-0.0068825
0.0517233
-0.00526925
0.0518348
-0.00392235
0.0519538
-0.00169274
0.051999
-0.00027403
0.0521653
0.00199431
0.0519972
0.00327309
0.0519355
0.00484737
0.0512527
0.00550384
0.0504864
0.00609313
0.0490811
0.00547418
0.0467657
0.00513068
0.0438987
0.00248708
0.0400509
0.000620547
0.0347741
-0.00292721
0.0286485
-0.00739212
0.0197987
-0.0110224
0.00606147
-0.0191681
-0.0111552
-0.0318888
-0.0293383
-0.0496149
-0.0451251
-0.0675621
-0.0821751
-0.0542792
0.0468849
0.00773263
-0.0468047
0.0470146
0.00687489
0.0472412
0.00609943
0.0474062
0.00524884
0.0477627
0.00418177
0.047955
0.00315247
0.0484898
0.00166122
0.0486909
0.000595496
0.0492475
-0.000965557
0.0495721
-0.00220139
0.0501018
-0.00376151
0.0504518
-0.00496032
0.0508522
-0.00628756
0.0511987
-0.00717705
0.051456
-0.00805294
0.0517001
-0.00832557
0.0518438
-0.00839984
0.051966
-0.00775568
0.0520492
-0.00696576
0.0521772
-0.00539726
0.052279
-0.0040241
0.052525
-0.00193874
0.0525686
-0.000317645
0.0528975
0.00166539
0.052872
0.00329859
0.0529629
0.00475652
0.0527676
0.00569914
0.0520501
0.00681059
0.0510767
0.00644762
0.0495018
0.00670559
0.0468047
0.00518412
0.0439986
0.00342662
0.0396699
0.00140152
0.0344068
-0.00212899
0.0286647
-0.00528028
0.0182038
-0.00870718
0.0029573
-0.0166423
-0.0179025
-0.0287551
-0.0383005
-0.0471641
-0.0650637
-0.0554119
0.0476691
0.00763936
-0.0475758
0.0477848
0.00675915
0.0480394
0.00584481
0.0482388
0.00504947
0.0486307
0.00378984
0.0489531
0.00283006
0.0493407
0.00127366
0.049737
0.000199146
0.050119
-0.00134753
0.0506325
-0.0027149
0.0509916
-0.00412062
0.0514724
-0.00544106
0.0517466
-0.00656184
0.0521015
-0.00753195
0.0522997
-0.00825112
0.052493
-0.00851882
0.0525787
-0.00848553
0.0526996
-0.00787662
0.052738
-0.00700416
0.0529135
-0.00557272
0.0529383
-0.00404888
0.0532637
-0.00226419
0.0533793
-0.000433236
0.0537266
0.00131808
0.0540639
0.00296125
0.0541729
0.00464757
0.0543231
0.00554891
0.0541191
0.00701465
0.0532774
0.00728927
0.0524791
0.00750389
0.050452
0.00721119
0.0480545
0.00582416
0.0450389
0.00441708
0.0403773
0.00253264
0.0358587
-0.000761643
0.029836
-0.00268456
0.0188535
-0.0056598
0.00144301
-0.0113446
-0.02184
-0.023881
-0.0424714
-0.0444324
0.0477037
0.00736335
-0.0474277
0.0479219
0.00654096
0.0482194
0.00554733
0.0485986
0.00467024
0.0489537
0.00343475
0.0494393
0.0023445
0.0497513
0.000961627
0.0503219
-0.000371409
0.0506647
-0.00169033
0.0513243
-0.00337455
0.051652
-0.00444832
0.0521123
-0.00590133
0.0524217
-0.0068712
0.0527442
-0.00785446
0.0529288
-0.00843579
0.053108
-0.00869797
0.0531681
-0.00854568
0.0532398
-0.00794826
0.0532968
-0.00706123
0.0534208
-0.00569669
0.0535758
-0.00420384
0.0538107
-0.00249909
0.0542227
-0.000845242
0.0545209
0.00101988
0.0550922
0.00238992
0.0555323
0.00420745
0.0557756
0.00530569
0.0561839
0.00660626
0.0558075
0.00766568
0.0552543
0.00805716
0.0541487
0.00831677
0.0520081
0.00796471
0.0499799
0.00644535
0.0469021
0.00561042
0.0425509
0.00358952
0.0388506
0.00101578
0.0337798
-0.000589008
0.0240471
-0.00161185
0.00556326
-0.00539718
-0.0191572
-0.0177509
0.048761
0.00710014
-0.0484978
0.0491659
0.00613609
0.0494875
0.00522574
0.0499354
0.00422232
0.050246
0.00312413
0.0507925
0.00179808
0.0511026
0.000651497
0.0517323
-0.00100109
0.0521554
-0.00211345
0.0526367
-0.0038559
0.0530683
-0.00487985
0.0534081
-0.00624112
0.0537703
-0.00723343
0.0539698
-0.00805401
0.0541548
-0.00862077
0.0541751
-0.00871826
0.0542573
-0.00862785
0.0541893
-0.0078803
0.0543066
-0.00717855
0.0542945
-0.00568457
0.054546
-0.00445529
0.0547206
-0.00267371
0.0551804
-0.00130507
0.0556993
0.000500991
0.0562402
0.00184898
0.0570454
0.00340228
0.0576038
0.00474726
0.0581836
0.00602653
0.0586041
0.00724511
0.0583228
0.00833845
0.0580943
0.00854533
0.0570216
0.00903737
0.0548386
0.00862836
0.0529864
0.00746264
0.0499825
0.00659338
0.045797
0.00520126
0.0424663
0.00274168
0.0395732
0.00128134
0.0326478
0.00152823
-0.00393866
0.0174293
0.0488788
0.00680178
-0.0485805
0.0493357
0.00567925
0.0498013
0.00476009
0.0504121
0.00361153
0.0509507
0.00258551
0.0515645
0.00118431
0.0520733
0.000142701
0.0526619
-0.00158972
0.0532457
-0.00269727
0.0536838
-0.00429395
0.0542047
-0.00540074
0.054501
-0.00653745
0.0548408
-0.00757319
0.0549671
-0.00818036
0.0550961
-0.00874977
0.0550542
-0.00867636
0.0550813
-0.00865495
0.0550204
-0.0078194
0.0549838
-0.00714197
0.0550939
-0.00579465
0.0552061
-0.00456755
0.055591
-0.0030586
0.0559868
-0.0017008
0.056712
-0.000224237
0.0574372
0.00112381
0.0584044
0.00243507
0.0593942
0.00375741
0.0602964
0.00512439
0.0611678
0.0063737
0.0618404
0.00766584
0.0618892
0.00849651
0.0617719
0.00915468
0.0609898
0.00941043
0.05916
0.00929248
0.0571794
0.00857397
0.05456
0.00782063
0.0502416
0.00706009
0.0472452
0.00427774
0.0449389
0.00383454
0.00177472
0.0392255
0.0507598
0.00635671
-0.0503147
0.0511747
0.00526429
0.051654
0.00428083
0.0521121
0.0031534
0.0526338
0.00206381
0.0532604
0.000557743
0.0539206
-0.00051753
0.0544558
-0.00212487
0.0550505
-0.00329197
0.0554709
-0.00471434
0.0559213
-0.0058512
0.0562586
-0.00687476
0.0564274
-0.00774196
0.0565561
-0.00830905
0.056493
-0.00868663
0.0565225
-0.00870585
0.0562895
-0.00842197
0.0563087
-0.0078386
0.0561341
-0.00696737
0.0561914
-0.00585198
0.0563197
-0.00469586
0.0566771
-0.00341604
0.0571294
-0.00215305
0.0579278
-0.00102266
0.0588605
0.000191111
0.0599364
0.00135914
0.0612921
0.00240173
0.0625598
0.00385671
0.0638338
0.0050997
0.065286
0.00621368
0.0661897
0.0075928
0.0668045
0.00853989
0.0670406
0.00917434
0.0667283
0.00960478
0.0652537
0.0100485
0.0640228
0.00905153
0.0616756
0.00940726
0.0578837
0.00806963
0.0544455
0.00727279
0.00519027
0.0510299
0.0518439
0.00559805
-0.0510852
0.0525527
0.00455542
0.0533259
0.00350765
0.0541086
0.00237069
0.0547919
0.00138055
0.0553178
3.18363e-05
0.0560194
-0.0012191
0.0565422
-0.00264769
0.0571858
-0.00393556
0.0575197
-0.00504823
0.0578603
-0.00619179
0.0580765
-0.00709102
0.05812
-0.00778548
0.058115
-0.00830396
0.0579889
-0.00856057
0.0577811
-0.00849808
0.0575432
-0.00818405
0.057363
-0.00765842
0.0571315
-0.00673585
0.0571301
-0.00585051
0.0572455
-0.00481126
0.0574331
-0.00360371
0.0581425
-0.00286246
0.0588974
-0.00177753
0.059877
-0.000788498
0.0613732
-0.000137058
0.0628189
0.000956018
0.0645111
0.00216454
0.0663917
0.00321911
0.0683407
0.00426466
0.0700123
0.00592118
0.0719537
0.00659851
0.0730075
0.00812054
0.0739759
0.00863639
0.0744708
0.00955358
0.0739365
0.00958586
0.0730885
0.0102553
0.0715211
0.00963703