/*--------------------------------*- C++ -*----------------------------------*\
  =========                 |
  \\      /  F ield         | OpenFOAM: The Open Source CFD Toolbox
   \\    /   O peration     | Website:  https://openfoam.org
    \\  /    A nd           | Version:  11
     \\/     M anipulation  |
\*---------------------------------------------------------------------------*/
FoamFile
{
    format      ascii;
    class       volVectorField;
    location    "5";
    object      U;
}
// * * * * * * * * * * * * * * * * * * * * * * * * * * * * * * * * * * * * * //

dimensions      [0 1 -1 0 0 0 0];

internalField   nonuniform List<vector> 
9600
(
(0.968781 0.0015237 4.48105e-21)
(0.966491 0.00179001 0)
(0.963094 0.00232117 0)
(0.957087 0.00260871 7.66728e-23)
(0.952743 0.00259294 0)
(0.952356 0.00318621 -8.11497e-23)
(0.950717 0.00452664 -2.65427e-21)
(0.94317 0.0053309 2.66789e-21)
(0.934905 0.00483935 -2.66536e-21)
(0.932542 0.00381102 2.65224e-21)
(0.933656 0.00339872 0)
(0.935398 0.00401734 -2.2839e-21)
(0.93023 0.00659786 2.33605e-21)
(0.898597 0.00727128 -2.84089e-23)
(0.863919 0.00432276 5.55982e-22)
(0.852079 0.00117898 -5.46676e-22)
(0.851903 -5.45613e-05 0)
(0.856044 -0.00171021 1.87433e-22)
(0.87097 -0.00450839 -1.89091e-22)
(0.902933 -0.00674795 1.48539e-24)
(0.928769 -0.00811128 -1.69916e-24)
(0.94997 -0.00991537 -3.75467e-22)
(0.971633 -0.0115045 3.78443e-22)
(0.993602 -0.0132411 0)
(1.01653 -0.0152451 0)
(1.04706 -0.0166518 3.09611e-22)
(1.09234 -0.0148527 4.934e-23)
(1.14784 -0.00888084 -3.71362e-22)
(1.19188 -0.00188983 3.04777e-24)
(1.2064 0.00105774 9.46914e-24)
(1.20281 -4.9919e-05 0)
(1.19029 -0.00330608 -2.05351e-21)
(1.1611 -0.00926966 2.03477e-21)
(1.1088 -0.0129708 1.52434e-21)
(1.06351 -0.0164691 -1.51724e-21)
(1.02907 -0.0168239 -3.66664e-23)
(1.00347 -0.0169462 0)
(0.987236 -0.0166709 -1.36769e-21)
(0.975528 -0.0138007 1.37352e-21)
(0.956822 -0.015221 -1.86303e-23)
(0.971922 0.000225678 2.20872e-22)
(0.97071 0.000237376 0)
(0.969666 0.000222517 0)
(0.968176 -0.00018645 -2.36457e-22)
(0.965028 -0.00129227 -5.25602e-21)
(0.962444 -0.00194711 8.23525e-21)
(0.960935 -0.00176303 -2.71043e-21)
(0.958949 -0.00177234 -8.58915e-23)
(0.956628 -0.00312575 -8.54441e-23)
(0.955265 -0.00410748 0)
(0.955525 -0.00410593 -7.95204e-23)
(0.956789 -0.00321517 -2.36677e-21)
(0.957119 -0.000167806 3.26491e-21)
(0.952179 0.00325957 -9.99535e-22)
(0.943992 0.00249191 -1.06822e-23)
(0.940769 -0.000287696 0)
(0.941034 -0.00166665 5.72332e-23)
(0.943306 -0.00312382 -5.58221e-23)
(0.949889 -0.00539913 1.68529e-22)
(0.967432 -0.00476306 -1.70513e-22)
(0.989471 -0.000753869 -2.20596e-22)
(1.00635 0.00214552 2.11921e-22)
(1.01994 0.00337657 0)
(1.03587 0.00442139 2.82345e-22)
(1.05568 0.00436944 -2.81777e-22)
(1.08014 0.000450872 3.36629e-24)
(1.11422 -0.00600228 -3.72839e-22)
(1.16131 -0.0107232 3.70337e-22)
(1.21174 -0.00874669 -1.44436e-23)
(1.24564 -0.00187303 9.28376e-22)
(1.25416 0.00712128 -9.8156e-22)
(1.24828 0.015194 2.14586e-21)
(1.22495 0.0256289 -2.11724e-21)
(1.1806 0.0303919 6.11848e-23)
(1.14027 0.0315188 -3.02276e-21)
(1.09866 0.0264915 2.9424e-21)
(1.07177 0.0256174 0)
(1.0401 0.020061 -1.58214e-21)
(1.02597 0.0198304 1.59371e-21)
(0.996762 0.0127373 5.88899e-23)
(0.970768 0.000455666 4.6782e-21)
(0.969498 0.000828851 -1.53977e-22)
(0.968527 0.00158867 0)
(0.967366 0.00192114 1.61479e-22)
(0.96466 0.001867 0)
(0.961896 0.00245502 -2.92126e-21)
(0.960844 0.00393946 -1.80631e-23)
(0.96024 0.00459245 2.87203e-21)
(0.95863 0.0040726 8.69348e-23)
(0.955225 0.00338431 0)
(0.955104 0.00339403 2.44518e-22)
(0.956451 0.00440024 -2.28372e-21)
(0.959737 0.00884948 2.3829e-21)
(0.961877 0.0114153 8.29426e-23)
(0.960742 0.00883395 -3.85938e-23)
(0.952621 0.00223495 1.03368e-23)
(0.950059 -0.000168706 5.93883e-23)
(0.951569 -0.00221742 1.55565e-22)
(0.959958 -0.00739979 -2.26451e-22)
(0.976932 -0.0127669 3.21659e-24)
(0.996247 -0.0134554 -3.65112e-24)
(1.01229 -0.0135668 -4.06491e-22)
(1.0219 -0.0147008 4.13138e-22)
(1.03409 -0.0174669 3.00922e-22)
(1.05418 -0.0202867 -3.00299e-22)
(1.07934 -0.0239403 0)
(1.11048 -0.0285398 -1.23843e-23)
(1.15382 -0.030919 5.2523e-23)
(1.20496 -0.0247778 1.15992e-23)
(1.24375 -0.0134354 2.90444e-23)
(1.25553 -0.00436792 1.13249e-22)
(1.25271 -0.000380808 -2.21317e-21)
(1.23714 0.00377917 -5.15951e-24)
(1.19533 0.00713985 2.04245e-21)
(1.1519 0.00618177 1.03448e-22)
(1.11032 0.00352292 0)
(1.0818 0.000560166 7.17895e-23)
(1.05211 -0.00118483 -1.62231e-21)
(1.03838 -0.00218839 1.61439e-21)
(1.0188 -0.00179709 -4.05122e-23)
(0.970475 0.000909545 3.1113e-22)
(0.96886 0.0010313 -1.59674e-22)
(0.967582 0.00170816 0)
(0.966001 0.00174775 0)
(0.963031 0.00108457 -5.22089e-21)
(0.960679 0.000721701 5.42328e-21)
(0.959878 0.000694593 2.69181e-21)
(0.959089 0.000385785 -2.69498e-21)
(0.956436 -0.00111008 2.81536e-21)
(0.954734 -0.00284863 -2.64172e-21)
(0.955212 -0.0032259 -1.65116e-22)
(0.956467 -0.00237398 -7.46588e-23)
(0.961018 0.0011234 -6.90612e-23)
(0.967254 0.00369136 -5.64987e-23)
(0.969808 0.00273627 5.52715e-22)
(0.969729 -0.000384443 -3.04255e-22)
(0.970971 -0.00301248 -8.23954e-23)
(0.975865 -0.0073467 -8.21206e-23)
(0.988694 -0.0129839 9.5985e-24)
(1.00064 -0.0142474 -6.67966e-24)
(1.01407 -0.00973643 2.45849e-22)
(1.02769 -0.00475806 -6.85866e-22)
(1.03609 -0.00280048 4.69295e-22)
(1.04292 -0.00447386 3.4047e-23)
(1.05695 -0.00747284 0)
(1.07945 -0.0134578 0)
(1.10875 -0.0230571 -4.25187e-22)
(1.1463 -0.0306697 4.55794e-22)
(1.19267 -0.0280645 -2.04827e-22)
(1.2374 -0.0144988 1.87822e-22)
(1.26298 0.00343626 -7.41108e-23)
(1.26442 0.0172509 1.25986e-22)
(1.24894 0.030395 -1.46949e-22)
(1.21018 0.0390841 2.10252e-21)
(1.16944 0.0423898 -5.61292e-21)
(1.12811 0.0363504 6.34864e-21)
(1.09804 0.0345451 -2.74047e-21)
(1.06459 0.0269414 1.31172e-22)
(1.04981 0.0252665 -1.60036e-22)
(1.02106 0.0157565 9.34352e-23)
(0.970074 0.000986458 4.78687e-21)
(0.968426 0.000968951 -2.70792e-24)
(0.966729 0.00176893 0)
(0.96477 0.00216651 0)
(0.962259 0.00165677 -3.54269e-22)
(0.960231 0.00161332 5.45359e-22)
(0.959052 0.00270266 -2.74821e-21)
(0.958263 0.0031694 5.63323e-21)
(0.957763 0.00244833 -2.90217e-21)
(0.956048 0.00167386 -1.78099e-22)
(0.955325 0.00215348 0)
(0.956139 0.00277684 -4.58858e-21)
(0.959952 0.00574291 4.64333e-21)
(0.971561 0.00862062 -8.4158e-22)
(0.981249 0.00631809 7.0004e-22)
(0.985458 0.000883433 -3.83506e-23)
(0.988105 -0.00132333 9.73578e-23)
(0.992729 -0.00503916 1.60743e-22)
(1.0012 -0.0109856 -2.56181e-22)
(1.00821 -0.0156411 3.46937e-24)
(1.0169 -0.0159629 2.52769e-22)
(1.02864 -0.014966 -7.17039e-22)
(1.03769 -0.0144054 4.37947e-22)
(1.04344 -0.0179124 -3.49107e-23)
(1.05523 -0.0230523 -1.52595e-23)
(1.07666 -0.0294794 2.64935e-22)
(1.10601 -0.0376769 -2.152e-22)
(1.14229 -0.0464714 3.7723e-24)
(1.18635 -0.0466916 -5.03564e-23)
(1.23173 -0.0345442 0)
(1.26291 -0.0162521 5.00417e-23)
(1.26989 -0.000652299 0)
(1.25895 0.0134288 4.47862e-22)
(1.22338 0.0255094 0)
(1.18163 0.0311113 0)
(1.13752 0.0272734 3.08063e-21)
(1.10658 0.0232245 -3.22626e-21)
(1.07282 0.0176556 -2.30103e-21)
(1.05523 0.0156995 2.11844e-21)
(1.02979 0.0113823 -9.55443e-23)
(0.969489 0.00161404 0)
(0.967619 0.00139571 -3.00445e-24)
(0.965594 0.00240518 0)
(0.963561 0.00272202 0)
(0.961352 0.00196285 -5.90833e-21)
(0.959224 0.00233354 2.57861e-21)
(0.957508 0.00260621 5.96163e-21)
(0.957458 0.00212681 -2.98051e-21)
(0.957233 0.000327945 0)
(0.955467 -0.000993342 0)
(0.955693 -0.00152029 0)
(0.957025 -0.00141479 -2.02235e-21)
(0.96135 0.000762526 2.22067e-21)
(0.9738 0.00151207 8.41209e-22)
(0.985144 0.000313569 -8.07997e-22)
(0.989239 -0.00277476 -9.99652e-23)
(0.993337 -0.00560442 2.28613e-22)
(1.00165 -0.0117613 -1.12165e-22)
(1.0118 -0.0176693 2.08072e-22)
(1.0208 -0.019509 -2.08228e-22)
(1.0289 -0.0160626 -8.58804e-24)
(1.0376 -0.0113542 -3.42662e-23)
(1.04527 -0.00802364 5.92867e-23)
(1.05006 -0.0101281 0)
(1.05759 -0.0162194 1.56544e-23)
(1.07431 -0.0251181 -2.48364e-22)
(1.10132 -0.0363734 1.48327e-22)
(1.13646 -0.0483234 9.29902e-22)
(1.1785 -0.0517585 -1.51752e-21)
(1.22417 -0.0405141 5.51982e-22)
(1.26287 -0.0146084 -1.34501e-21)
(1.27924 0.00996025 1.01269e-21)
(1.27182 0.0298665 -3.05307e-22)
(1.23901 0.0438811 -2.47885e-21)
(1.19721 0.0534748 -1.86173e-21)
(1.1513 0.0494136 4.04405e-21)
(1.11958 0.047027 0)
(1.08278 0.0375377 -2.33924e-21)
(1.06582 0.0363674 2.13814e-22)
(1.03688 0.0246738 2.04317e-21)
(0.968747 0.00164406 6.11348e-21)
(0.96694 0.00142458 -3.28058e-24)
(0.964712 0.00252832 0)
(0.962718 0.00269465 0)
(0.960434 0.00243503 5.71142e-21)
(0.958141 0.00275817 -5.74904e-21)
(0.957116 0.00264896 3.05652e-21)
(0.957267 0.001793 3.3815e-22)
(0.956509 0.000684457 -3.07972e-21)
(0.95577 0.000304634 2.82778e-21)
(0.956225 0.000300661 -2.48566e-21)
(0.958096 0.000351758 -2.4985e-21)
(0.963431 0.00139244 2.63134e-21)
(0.976056 0.00175654 0)
(0.986904 0.000760374 4.8909e-22)
(0.9941 -0.00251664 -5.31545e-22)
(1.00111 -0.00526011 2.17426e-22)
(1.01024 -0.010382 1.70271e-22)
(1.01916 -0.015442 -5.52071e-23)
(1.02687 -0.0182692 -2.23173e-22)
(1.033 -0.0173464 -2.78159e-22)
(1.03905 -0.0157332 -2.50417e-22)
(1.04542 -0.0140623 4.73922e-22)
(1.05029 -0.016854 5.14415e-22)
(1.05663 -0.0235908 -5.12958e-22)
(1.07031 -0.0337639 2.33248e-22)
(1.09634 -0.0462359 -2.31542e-22)
(1.13073 -0.060252 -7.49245e-23)
(1.17224 -0.0664495 0)
(1.2169 -0.0598597 -5.12624e-23)
(1.25902 -0.0379754 7.54923e-23)
(1.28509 -0.0128053 -1.78304e-21)
(1.28453 0.0154265 1.97537e-21)
(1.25373 0.0365956 3.06145e-21)
(1.21513 0.0510239 -2.35512e-21)
(1.16781 0.0502358 -2.93944e-23)
(1.13403 0.0474194 0)
(1.0959 0.0384443 -2.2533e-21)
(1.07632 0.0363667 6.96972e-22)
(1.0457 0.027272 1.7739e-21)
(0.967999 0.00230907 4.91996e-21)
(0.966057 0.00209557 -3.64357e-22)
(0.963628 0.00301042 6.00826e-21)
(0.961516 0.00329235 -6.05622e-21)
(0.959184 0.00316856 3.90001e-22)
(0.957159 0.00320662 -3.9617e-22)
(0.95674 0.00257026 0)
(0.956746 0.00158147 2.34118e-21)
(0.955682 0.000800715 -3.15349e-21)
(0.955687 -0.000221941 0)
(0.956697 -0.000916886 1.98719e-21)
(0.959212 -0.00173451 -2.38489e-21)
(0.965103 -0.00129174 -3.29439e-24)
(0.977218 -0.00240639 0)
(0.988121 -0.00349673 4.01177e-22)
(0.997699 -0.00657606 -3.70974e-22)
(1.00463 -0.00930738 1.52989e-22)
(1.01321 -0.0152856 1.76601e-22)
(1.02152 -0.0206695 -1.15774e-22)
(1.02992 -0.0227535 -2.5669e-22)
(1.03771 -0.019771 0)
(1.04395 -0.0155948 -5.03071e-22)
(1.04947 -0.0120572 5.0948e-22)
(1.05355 -0.0136592 0)
(1.05871 -0.020498 5.26489e-23)
(1.06845 -0.0323204 0)
(1.09058 -0.0468637 -4.14336e-22)
(1.12171 -0.0630479 1.85169e-21)
(1.16311 -0.0730887 -1.42562e-21)
(1.21064 -0.0704935 1.86294e-22)
(1.25618 -0.0452875 -8.01073e-22)
(1.28933 -0.0130903 2.85928e-21)
(1.29738 0.0209032 -2.17852e-21)
(1.2721 0.0456861 2.9462e-21)
(1.23482 0.0656896 -8.37759e-21)
(1.18486 0.0663896 5.74812e-21)
(1.14694 0.0656657 0)
(1.10573 0.0536667 -3.20639e-21)
(1.08413 0.0536326 3.21892e-22)
(1.0517 0.0404073 2.73678e-21)
(0.967039 0.00225212 0)
(0.965113 0.00204113 7.39574e-22)
(0.962747 0.00304173 0)
(0.960677 0.00331132 7.95207e-22)
(0.958218 0.0035006 5.67412e-21)
(0.956647 0.00325194 -3.25049e-21)
(0.956656 0.00234318 -3.27099e-21)
(0.956011 0.00150305 4.07628e-22)
(0.955358 0.000419071 0)
(0.9558 -0.000777415 0)
(0.957316 -0.00140772 3.0956e-21)
(0.960276 -0.00267619 -3.0724e-21)
(0.966948 -0.00330683 -4.10801e-22)
(0.979052 -0.00495753 -1.03953e-22)
(0.988786 -0.00523407 3.7804e-22)
(0.999325 -0.00811653 -3.55487e-22)
(1.00748 -0.0108147 1.78731e-22)
(1.01687 -0.0163081 1.83519e-22)
(1.02479 -0.0205596 -1.03634e-22)
(1.03191 -0.0222053 -2.59893e-22)
(1.039 -0.0196891 -2.11765e-23)
(1.04427 -0.0168613 -6.7028e-22)
(1.04842 -0.0144489 7.00247e-22)
(1.05311 -0.0163474 5.7022e-23)
(1.0571 -0.0229653 -1.16786e-22)
(1.066 -0.0356845 0)
(1.08499 -0.0523379 -5.79296e-22)
(1.11424 -0.0723264 3.57982e-22)
(1.15618 -0.0847108 1.72198e-22)
(1.20152 -0.0873132 -2.56328e-22)
(1.2518 -0.0689827 -1.05447e-23)
(1.28947 -0.0388351 -1.89813e-21)
(1.30768 0.0022361 2.30397e-21)
(1.28904 0.0362838 -7.6427e-22)
(1.25464 0.0627355 -3.88213e-22)
(1.2044 0.069895 6.11107e-21)
(1.16479 0.071581 -5.30036e-21)
(1.11974 0.0606245 -3.49708e-21)
(1.09777 0.0580603 3.46601e-21)
(1.06357 0.0452367 0)
(0.966205 0.00307308 0)
(0.964285 0.00288992 0)
(0.961816 0.00357939 7.23886e-21)
(0.959422 0.00398935 -1.39103e-20)
(0.957048 0.0042426 6.6468e-21)
(0.956147 0.00338593 0)
(0.955926 0.00230852 3.35064e-21)
(0.955176 0.00118371 -7.83448e-23)
(0.95499 3.51341e-05 -2.91228e-21)
(0.955744 -0.00131432 0)
(0.957757 -0.00219508 -3.63884e-22)
(0.96104 -0.00445083 3.25376e-22)
(0.968437 -0.00546287 1.24948e-21)
(0.97936 -0.0077632 -8.67876e-22)
(0.989304 -0.00876412 0)
(1.00175 -0.0113726 -2.38719e-23)
(1.01181 -0.0136362 2.5531e-22)
(1.02039 -0.0188719 -6.45528e-22)
(1.02636 -0.0232937 3.99023e-22)
(1.03207 -0.0252913 -1.03193e-24)
(1.03875 -0.0225458 4.044e-22)
(1.04472 -0.0182506 -3.59816e-22)
(1.04852 -0.0145808 8.4063e-23)
(1.0522 -0.0154311 -5.85965e-23)
(1.05637 -0.021371 6.42133e-23)
(1.06406 -0.0348624 0)
(1.08059 -0.0520891 0)
(1.10546 -0.0746565 1.74938e-22)
(1.1449 -0.091405 -1.49875e-21)
(1.19398 -0.100682 1.63979e-21)
(1.24678 -0.0825644 0)
(1.29069 -0.0513043 1.62759e-21)
(1.31869 -0.00319528 -1.81778e-21)
(1.30955 0.0355252 3.75984e-21)
(1.28033 0.0730674 -3.33986e-21)
(1.22996 0.0839401 5.37901e-21)
(1.18695 0.0911666 -6.11798e-21)
(1.13901 0.0777224 0)
(1.11406 0.0775191 0)
(1.07491 0.062193 -4.05695e-22)
(0.965177 0.00299121 -3.35212e-23)
(0.963319 0.00270208 7.14547e-21)
(0.960867 0.0034404 -8.22259e-22)
(0.958414 0.00406789 -8.53097e-22)
(0.956463 0.00410493 -6.93222e-21)
(0.955682 0.00306432 1.04557e-20)
(0.955309 0.00210041 -3.50162e-21)
(0.954653 0.000689617 3.38518e-21)
(0.954884 -0.000384738 -4.24673e-21)
(0.955828 -0.00230883 -3.48107e-21)
(0.958326 -0.00328636 6.28766e-21)
(0.961716 -0.00611712 -5.59518e-21)
(0.968838 -0.00823389 2.44467e-21)
(0.98085 -0.0111371 0)
(0.991295 -0.0115717 0)
(1.00229 -0.0144595 2.93646e-23)
(1.01256 -0.0168112 1.0683e-22)
(1.02273 -0.0215146 -2.42715e-22)
(1.03031 -0.0246745 -3.41802e-22)
(1.03628 -0.0257895 3.28271e-22)
(1.03993 -0.0225506 -2.36566e-23)
(1.04347 -0.0182837 -7.5373e-22)
(1.04534 -0.0151759 6.57873e-22)
(1.047 -0.0166739 8.60648e-22)
(1.05161 -0.0225365 -8.69804e-22)
(1.05646 -0.0364036 0)
(1.07163 -0.054722 0)
(1.09553 -0.0809756 1.85438e-22)
(1.13463 -0.100164 -1.76638e-21)
(1.18212 -0.114686 1.75684e-21)
(1.23987 -0.105001 2.61749e-22)
(1.28887 -0.0797774 -1.49234e-21)
(1.3269 -0.0298387 1.25947e-21)
(1.32731 0.0186385 3.54612e-21)
(1.30414 0.0645829 -1.11781e-20)
(1.2523 0.0844041 6.59849e-21)
(1.20748 0.0960392 8.86112e-22)
(1.15384 0.085348 -4.84417e-21)
(1.12712 0.084682 4.2188e-21)
(1.0858 0.0684488 -6.26271e-23)
(0.964337 0.0039021 -6.53622e-21)
(0.962416 0.00348958 1.24801e-20)
(0.95976 0.00426516 1.3318e-22)
(0.95725 0.00463043 -1.40732e-20)
(0.955588 0.00447452 8.93594e-21)
(0.954687 0.00328303 0)
(0.954391 0.00201151 0)
(0.954032 0.000292073 8.8516e-22)
(0.954461 -0.00104985 4.30631e-22)
(0.955964 -0.0031682 -2.32826e-21)
(0.958409 -0.00467002 3.16759e-21)
(0.962231 -0.00857723 -2.45499e-21)
(0.970039 -0.0111519 3.43723e-21)
(0.98123 -0.0142896 -7.70979e-22)
(0.991912 -0.0149195 2.9518e-22)
(1.00251 -0.0179076 -1.64195e-22)
(1.01526 -0.020002 1.9693e-22)
(1.02625 -0.0234079 2.58256e-22)
(1.03383 -0.0259183 -1.93702e-22)
(1.03868 -0.026585 -3.36282e-22)
(1.04012 -0.023819 0)
(1.04208 -0.0194969 -7.18621e-22)
(1.04322 -0.0155835 8.18037e-22)
(1.04305 -0.0163983 0)
(1.04475 -0.0211242 0)
(1.0492 -0.0349169 -3.20029e-23)
(1.06298 -0.0531222 5.67483e-22)
(1.08292 -0.0815045 -9.12903e-22)
(1.11825 -0.104947 2.65706e-22)
(1.16585 -0.128855 0)
(1.22801 -0.121946 -7.0237e-22)
(1.28571 -0.102149 5.6987e-22)
(1.33375 -0.04797 3.8152e-22)
(1.348 0.00407216 0)
(1.33276 0.0631415 0)
(1.28595 0.092391 9.26878e-21)
(1.23852 0.113824 -9.08058e-21)
(1.18041 0.104955 -4.93796e-21)
(1.14876 0.104967 7.05189e-21)
(1.10357 0.0896366 4.91172e-22)
(0.963134 0.00365848 -6.79088e-21)
(0.961284 0.00324241 7.72358e-21)
(0.958617 0.00392907 0)
(0.956322 0.0042197 1.82864e-21)
(0.954925 0.0042143 -1.85767e-21)
(0.953752 0.00275672 4.63963e-21)
(0.954003 0.00155565 -4.66725e-21)
(0.953621 -0.000618488 1.39932e-25)
(0.954565 -0.00187401 -3.43319e-21)
(0.95615 -0.00468583 5.83684e-21)
(0.958636 -0.00655023 -2.46762e-21)
(0.963356 -0.0110094 2.81749e-21)
(0.970419 -0.0141325 -1.52431e-21)
(0.980293 -0.0180707 -1.18391e-21)
(0.992954 -0.0182456 0)
(1.00509 -0.0211297 0)
(1.01652 -0.0233584 0)
(1.02706 -0.0267671 5.42971e-22)
(1.03564 -0.0284826 -3.80285e-22)
(1.04248 -0.0277075 0)
(1.04455 -0.0236241 -4.70851e-22)
(1.0442 -0.0186074 -4.3987e-22)
(1.04132 -0.0147823 3.60677e-24)
(1.03765 -0.0158259 7.91746e-22)
(1.03649 -0.0205173 0)
(1.03646 -0.0345165 -9.49987e-23)
(1.04656 -0.0539841 5.55512e-22)
(1.06339 -0.0855835 -4.99831e-22)
(1.09768 -0.110544 1.23438e-23)
(1.14216 -0.140269 0)
(1.20729 -0.142928 -1.08106e-21)
(1.27281 -0.132908 1.07344e-21)
(1.33537 -0.0827512 -6.65044e-22)
(1.36364 -0.0253659 3.02963e-21)
(1.36262 0.0460291 -1.19422e-20)
(1.31794 0.0874752 9.23004e-21)
(1.26936 0.118904 0)
(1.20292 0.114801 -7.93669e-21)
(1.16668 0.116789 7.10384e-21)
(1.11501 0.0994707 6.95735e-22)
(0.962134 0.00456182 0)
(0.960249 0.00410124 7.27043e-21)
(0.957542 0.00462302 1.25492e-22)
(0.955257 0.00484069 -9.44445e-21)
(0.953913 0.00460623 7.66977e-21)
(0.952707 0.00280322 -7.74399e-21)
(0.953002 0.00130755 9.57637e-22)
(0.953331 -0.00121979 2.74452e-21)
(0.954135 -0.00287987 -4.6205e-21)
(0.956046 -0.00618906 4.15921e-21)
(0.959132 -0.00820736 -6.28849e-21)
(0.963315 -0.0140003 2.63104e-21)
(0.970773 -0.0174338 9.68361e-22)
(0.980874 -0.0216974 -9.73173e-22)
(0.993429 -0.0220757 -3.16774e-22)
(1.00621 -0.0250312 -3.16275e-23)
(1.01697 -0.0273687 6.14171e-22)
(1.02852 -0.0294456 -3.03405e-22)
(1.0392 -0.0300165 -8.73125e-23)
(1.0462 -0.0281871 2.93913e-23)
(1.04825 -0.0233518 -5.18433e-22)
(1.04588 -0.0178146 3.9092e-22)
(1.04136 -0.0138109 -9.18661e-24)
(1.03554 -0.0142172 1.57669e-21)
(1.03054 -0.0187248 -1.35608e-21)
(1.02692 -0.0323395 1.88195e-22)
(1.03357 -0.0498801 -2.65268e-23)
(1.04492 -0.0828948 1.92951e-22)
(1.07312 -0.110669 -2.87512e-21)
(1.11315 -0.151299 4.11794e-23)
(1.1762 -0.160746 2.50513e-21)
(1.24876 -0.162845 8.98929e-23)
(1.32528 -0.114979 1.91309e-22)
(1.37546 -0.0575236 3.8494e-21)
(1.39215 0.0258063 -5.99074e-21)
(1.35836 0.0818264 0)
(1.31031 0.128248 0)
(1.23959 0.134347 -9.92879e-21)
(1.1962 0.137474 7.65891e-21)
(1.13966 0.123209 -1.5754e-21)
(0.9608 0.00412245 -1.65217e-23)
(0.959046 0.00362853 6.51638e-21)
(0.956295 0.00405753 9.70199e-22)
(0.954243 0.00429242 9.83499e-22)
(0.953061 0.00392602 9.96621e-21)
(0.951961 0.00201545 -5.07552e-21)
(0.952317 0.0002492 -5.00873e-21)
(0.95318 -0.00262685 0)
(0.954149 -0.00451429 9.37825e-22)
(0.956235 -0.00831426 2.49781e-21)
(0.959532 -0.0105708 -4.22179e-21)
(0.963452 -0.017118 -2.53801e-21)
(0.971679 -0.0207308 2.83522e-21)
(0.981678 -0.0255663 0)
(0.992602 -0.0264029 2.68792e-22)
(1.0069 -0.028973 -1.6331e-22)
(1.01865 -0.0303933 4.24074e-22)
(1.0303 -0.0325202 1.14664e-22)
(1.0404 -0.0326686 -1.13181e-21)
(1.04739 -0.0298489 4.21705e-22)
(1.05139 -0.024009 3.65638e-23)
(1.05107 -0.0168417 0)
(1.04533 -0.0116749 1.31924e-22)
(1.03581 -0.0113534 -2.19886e-22)
(1.02737 -0.0151154 1.76013e-22)
(1.01942 -0.028479 -4.38996e-22)
(1.01908 -0.0468426 -5.31211e-23)
(1.02319 -0.0836488 3.74499e-22)
(1.04594 -0.112478 0)
(1.07973 -0.157241 0)
(1.14049 -0.176427 -2.31005e-21)
(1.21125 -0.193864 2.29227e-21)
(1.30056 -0.15899 0)
(1.36933 -0.106336 1.21968e-21)
(1.41475 -0.010654 1.07756e-20)
(1.39732 0.0618189 1.84882e-21)
(1.35663 0.126941 -1.2347e-20)
(1.27828 0.144547 -9.32563e-21)
(1.22989 0.154804 1.05481e-20)
(1.158 0.140344 -1.99768e-22)
(0.95977 0.00510689 -7.68993e-21)
(0.95794 0.00446491 7.76959e-21)
(0.955423 0.00468461 -9.99764e-22)
(0.953078 0.00477227 0)
(0.951946 0.00410348 -9.31758e-21)
(0.951124 0.00184041 1.24825e-20)
(0.951371 -0.000250161 -3.14005e-21)
(0.95217 -0.00371647 0)
(0.954464 -0.00569419 8.47019e-21)
(0.955535 -0.0104148 -4.53652e-21)
(0.959075 -0.0130782 -3.50031e-21)
(0.964563 -0.0206506 -2.56942e-21)
(0.970755 -0.0248316 3.26091e-21)
(0.981602 -0.0297537 -7.77181e-22)
(0.992551 -0.0302333 1.80839e-22)
(1.00698 -0.0330883 -7.69603e-23)
(1.01977 -0.0344688 4.89087e-22)
(1.03147 -0.0362533 2.65166e-22)
(1.04184 -0.0352195 -3.77984e-22)
(1.05003 -0.0307239 -4.66869e-22)
(1.05418 -0.0238349 -7.84289e-23)
(1.05439 -0.0155013 -1.26002e-21)
(1.04829 -0.00921446 1.41833e-21)
(1.03777 -0.00815633 1.82964e-21)
(1.02557 -0.0105648 -2.00608e-21)
(1.01369 -0.0247818 4.83479e-22)
(1.00921 -0.0405211 -4.29202e-22)
(1.00801 -0.0756108 0)
(1.02247 -0.105626 -3.24874e-21)
(1.04841 -0.1599 -5.3845e-23)
(1.10438 -0.187132 -5.29114e-22)
(1.17152 -0.219743 2.96809e-21)
(1.26517 -0.199571 0)
(1.34713 -0.160209 2.64418e-21)
(1.42147 -0.0622646 -2.0103e-21)
(1.43362 0.0298812 -1.64635e-21)
(1.40931 0.116783 1.95198e-21)
(1.33051 0.156235 0)
(1.27482 0.175558 0)
(1.19153 0.166651 2.51205e-21)
(0.95842 0.00451084 -8.03545e-21)
(0.95656 0.00371654 8.12084e-21)
(0.954326 0.00396836 0)
(0.951873 0.00390663 0)
(0.95102 0.00296722 0)
(0.950397 0.000514684 0)
(0.950616 -0.00189838 0)
(0.951758 -0.00585173 0)
(0.953806 -0.0079781 -5.88562e-21)
(0.95621 -0.0130309 6.73817e-21)
(0.95967 -0.0160624 3.15967e-21)
(0.964519 -0.0244678 -9.42483e-22)
(0.970928 -0.0286757 -1.6698e-21)
(0.981764 -0.0335422 -1.15657e-21)
(0.993295 -0.0348677 -1.10861e-22)
(1.00846 -0.0381824 5.38472e-22)
(1.02061 -0.0387474 2.83805e-23)
(1.03392 -0.0394125 3.79132e-22)
(1.04544 -0.0372179 -4.93515e-23)
(1.05328 -0.0322919 -5.58684e-22)
(1.0555 -0.0248328 -3.09881e-24)
(1.05551 -0.0152415 -1.59865e-21)
(1.05052 -0.00688744 2.89515e-21)
(1.03899 -0.00404901 -9.72757e-22)
(1.02499 -0.00517895 0)
(1.01104 -0.017157 -3.11467e-22)
(1.00161 -0.0321928 -5.31655e-23)
(0.993606 -0.0692343 0)
(1.00251 -0.10174 -2.68982e-21)
(1.01742 -0.158302 2.55151e-21)
(1.07059 -0.193365 9.39053e-22)
(1.13029 -0.239801 0)
(1.23098 -0.238371 0)
(1.3157 -0.219499 2.52083e-21)
(1.41275 -0.131686 -2.496e-21)
(1.45137 -0.027759 1.49719e-23)
(1.46073 0.0879284 1.81532e-22)
(1.38813 0.154661 -1.42161e-20)
(1.33224 0.192798 1.63814e-20)
(1.22726 0.192146 -1.43722e-21)
(0.957227 0.00541936 0)
(0.955331 0.00434478 0)
(0.953246 0.00438758 0)
(0.950552 0.00404267 0)
(0.949584 0.00286201 0)
(0.949052 -7.06587e-05 5.60785e-21)
(0.950459 -0.00261392 -4.52343e-21)
(0.950398 -0.00768546 -4.23843e-21)
(0.95242 -0.0101339 9.32634e-21)
(0.956509 -0.0157192 -2.3082e-21)
(0.959492 -0.0195827 -4.1591e-21)
(0.965278 -0.0282029 7.46603e-22)
(0.970157 -0.0326013 2.82765e-22)
(0.98086 -0.0386706 -1.76013e-22)
(0.993447 -0.0397138 -5.9762e-23)
(1.0094 -0.0425984 1.1136e-22)
(1.02263 -0.0429631 6.55456e-22)
(1.03703 -0.0433468 -6.5721e-22)
(1.04753 -0.0403503 3.45338e-22)
(1.05608 -0.0337196 -6.70393e-22)
(1.0587 -0.0247951 -3.57148e-24)
(1.05818 -0.0139271 1.94397e-22)
(1.0518 -0.00395021 -3.73636e-22)
(1.04104 -2.90221e-05 2.49901e-21)
(1.02548 0.00137933 -2.45638e-21)
(1.00714 -0.0110598 7.16242e-22)
(0.995608 -0.0245297 -1.35605e-22)
(0.983644 -0.058117 1.3481e-22)
(0.987917 -0.0879729 2.64375e-22)
(0.991184 -0.149213 0)
(1.0379 -0.193665 -4.30152e-21)
(1.08647 -0.252238 7.8151e-21)
(1.19316 -0.272492 -3.51794e-21)
(1.28038 -0.270216 0)
(1.40016 -0.207112 0)
(1.45586 -0.103482 1.81134e-20)
(1.50276 0.0303886 -2.08414e-20)
(1.44796 0.134119 2.09066e-20)
(1.4022 0.203123 -2.02441e-20)
(1.28154 0.221307 -2.41578e-21)
(0.955852 0.00456025 0)
(0.953873 0.00315308 0)
(0.952207 0.00334381 9.26027e-21)
(0.949514 0.00264828 -1.05641e-20)
(0.948356 0.00112965 9.43486e-21)
(0.948276 -0.00229285 -1.19137e-20)
(0.949413 -0.00482244 -5.74773e-21)
(0.950089 -0.010126 -9.27432e-22)
(0.952059 -0.0129702 5.53843e-21)
(0.955654 -0.0196066 0)
(0.959755 -0.0232919 9.05662e-22)
(0.96634 -0.0324072 -3.42861e-21)
(0.971308 -0.0372046 2.3941e-21)
(0.982549 -0.0434851 1.82921e-22)
(0.993104 -0.0450354 2.54291e-23)
(1.01108 -0.0488013 1.55447e-23)
(1.02673 -0.0477948 6.03713e-22)
(1.04078 -0.0476422 3.42536e-22)
(1.05192 -0.0432008 -2.47177e-22)
(1.0613 -0.0345269 -7.0688e-22)
(1.06419 -0.0247063 5.25125e-23)
(1.06255 -0.0131066 -1.78517e-21)
(1.05613 -0.00159739 1.78178e-21)
(1.04378 0.0042171 -3.76808e-22)
(1.02765 0.00759186 0)
(1.00597 -0.00202141 -4.08575e-22)
(0.993049 -0.0139589 4.18659e-22)
(0.973013 -0.0445818 6.41207e-22)
(0.975591 -0.076701 1.4759e-21)
(0.965636 -0.136306 -6.50365e-21)
(1.00539 -0.188294 8.94607e-21)
(1.03679 -0.255268 -9.31724e-21)
(1.14266 -0.300562 5.6259e-21)
(1.22672 -0.320019 0)
(1.38115 -0.287871 0)
(1.45071 -0.191717 0)
(1.53778 -0.0551659 -1.51062e-23)
(1.50419 0.0823138 -2.79138e-20)
(1.47859 0.190721 2.46506e-20)
(1.34781 0.24664 5.69086e-21)
(0.954225 0.00510189 -9.28854e-21)
(0.952134 0.00348624 9.40291e-21)
(0.950543 0.00353491 0)
(0.947747 0.00240635 1.2284e-21)
(0.947087 0.000600559 0)
(0.9465 -0.0035721 2.48732e-21)
(0.94782 -0.00638826 -9.60018e-21)
(0.949936 -0.0123463 7.45499e-21)
(0.950927 -0.0162408 -1.94848e-21)
(0.955159 -0.0231085 3.3351e-21)
(0.95845 -0.0276005 -3.88269e-24)
(0.965604 -0.0371117 3.4655e-21)
(0.9718 -0.0413532 -2.71302e-21)
(0.9832 -0.0488375 -1.50922e-22)
(0.994934 -0.0502763 -2.64691e-23)
(1.01075 -0.0544299 1.80396e-23)
(1.02653 -0.0535374 1.62372e-22)
(1.04222 -0.0514435 1.25882e-21)
(1.05627 -0.0457813 -2.05813e-21)
(1.06588 -0.0361859 7.97696e-22)
(1.06927 -0.0252656 1.06335e-21)
(1.06779 -0.0121673 -3.01747e-21)
(1.06213 0.00182117 1.0448e-22)
(1.04805 0.0090165 1.90474e-21)
(1.03269 0.0150369 -4.02415e-22)
(1.00723 0.00718503 -2.35042e-21)
(0.991056 -0.00331833 1.73475e-21)
(0.963814 -0.0319879 1.15512e-22)
(0.963943 -0.0609484 -1.47188e-22)
(0.944633 -0.113728 -4.41337e-22)
(0.971161 -0.174268 -1.15974e-21)
(0.988966 -0.243354 0)
(1.07698 -0.316588 -1.18296e-21)
(1.15541 -0.35756 0)
(1.32977 -0.373443 2.07613e-22)
(1.41956 -0.290842 0)
(1.56505 -0.170441 4.99806e-21)
(1.55489 -0.000135887 -2.97901e-20)
(1.56577 0.142574 2.80717e-21)
(1.42509 0.258052 3.06776e-20)
(0.952687 0.00373381 8.59775e-21)
(0.950817 0.00199421 0)
(0.948981 0.00169562 1.2917e-21)
(0.9469 0.000287498 -1.17341e-20)
(0.945903 -0.00180112 1.05366e-20)
(0.946231 -0.00629749 -2.61853e-21)
(0.946464 -0.00970803 1.1351e-20)
(0.94869 -0.0161189 -1.26838e-20)
(0.950737 -0.0199186 1.18013e-21)
(0.955486 -0.0277439 1.094e-21)
(0.958922 -0.0326575 -4.84392e-22)
(0.966423 -0.0425029 -3.99894e-22)
(0.972805 -0.046888 8.55899e-22)
(0.9843 -0.0553906 -7.04728e-22)
(0.998334 -0.0559037 0)
(1.01313 -0.0613803 2.13793e-23)
(1.03044 -0.0592258 2.18981e-22)
(1.04548 -0.0564679 0)
(1.05872 -0.0506661 9.0262e-22)
(1.07025 -0.0385071 -9.0355e-22)
(1.07636 -0.0252517 -6.6424e-23)
(1.07338 -0.011154 0)
(1.06865 0.00462157 0)
(1.05392 0.0139777 0)
(1.039 0.0219048 8.93589e-22)
(1.01038 0.0179334 6.3117e-22)
(0.993691 0.00841926 -1.20778e-21)
(0.959714 -0.0137845 1.0788e-21)
(0.953364 -0.0444606 2.05571e-22)
(0.928416 -0.0899104 -3.23287e-22)
(0.93705 -0.154633 -4.11391e-21)
(0.947826 -0.220579 1.27596e-20)
(0.998426 -0.312906 -5.9736e-21)
(1.08149 -0.375166 3.51737e-21)
(1.23149 -0.445982 -2.18701e-21)
(1.33617 -0.393729 -1.48459e-21)
(1.54252 -0.331901 -2.5146e-21)
(1.57878 -0.127928 -3.85926e-20)
(1.65516 0.0476671 -8.79479e-21)
(1.52214 0.246381 3.84354e-20)
(0.950407 0.00399639 1.27906e-21)
(0.948453 0.00184078 -1.33405e-21)
(0.946797 0.00133473 2.82955e-23)
(0.945047 -0.000654022 1.36848e-21)
(0.94359 -0.00324596 0)
(0.944757 -0.00816215 -2.67539e-21)
(0.944595 -0.0122892 5.52453e-21)
(0.94753 -0.0192944 6.39083e-21)
(0.948766 -0.0240496 -5.14092e-21)
(0.953715 -0.032589 1.14155e-21)
(0.959239 -0.0367739 0)
(0.965833 -0.0483599 -2.30809e-21)
(0.974431 -0.0519401 3.79447e-21)
(0.984454 -0.061209 -6.99201e-22)
(0.999302 -0.0625625 7.57983e-23)
(1.01455 -0.066959 -1.61792e-21)
(1.03227 -0.0648238 1.27534e-21)
(1.04849 -0.060552 0)
(1.06205 -0.0538373 0)
(1.07242 -0.0404357 0)
(1.08026 -0.0256117 8.13097e-23)
(1.07784 -0.0104936 0)
(1.07428 0.00713273 -2.50771e-21)
(1.05948 0.0188965 7.03362e-21)
(1.04552 0.0288726 -5.00514e-21)
(1.0159 0.0293759 -9.04686e-22)
(0.997655 0.0218292 0)
(0.960954 0.00486551 0)
(0.943702 -0.027883 -1.26539e-22)
(0.920419 -0.0594956 3.62352e-21)
(0.903729 -0.127322 2.81449e-21)
(0.916544 -0.183591 -5.17541e-21)
(0.915107 -0.29071 -1.62797e-21)
(1.01887 -0.367196 -7.10289e-21)
(1.0782 -0.477158 5.30964e-21)
(1.21079 -0.473613 4.20192e-22)
(1.40117 -0.488069 0)
(1.51527 -0.308243 3.9898e-21)
(1.68821 -0.14805 -4.69242e-20)
(1.63204 0.182561 4.64236e-20)
(0.948472 0.00184028 -1.2468e-20)
(0.947196 -0.000498569 1.38562e-21)
(0.944735 -0.00143612 -1.42333e-21)
(0.944167 -0.00376598 1.48533e-21)
(0.942189 -0.00683418 -1.49355e-21)
(0.94347 -0.0121488 1.00965e-20)
(0.943494 -0.0165892 -1.17226e-20)
(0.94663 -0.0243841 0)
(0.949077 -0.0289929 1.3126e-21)
(0.953406 -0.0389656 3.22296e-21)
(0.959435 -0.043345 -4.46076e-21)
(0.966319 -0.0557697 -3.08817e-21)
(0.977204 -0.058305 3.15124e-21)
(0.986905 -0.069532 -7.69054e-22)
(1.00316 -0.0698668 4.86495e-23)
(1.01922 -0.0737368 0)
(1.03534 -0.0731798 1.71693e-21)
(1.05324 -0.0661639 4.96515e-23)
(1.06963 -0.057807 -1.90561e-21)
(1.079 -0.0439584 0)
(1.08814 -0.0274209 -8.51981e-23)
(1.08566 -0.0100376 -2.97573e-21)
(1.08198 0.00877238 3.74312e-21)
(1.06569 0.023606 -7.36797e-22)
(1.05256 0.0350757 0)
(1.02281 0.0403045 2.04568e-21)
(1.00141 0.0339102 0)
(0.967951 0.0263808 0)
(0.936811 -0.00676319 3.01851e-22)
(0.916373 -0.0315073 0)
(0.878765 -0.0924605 -9.89216e-22)
(0.889838 -0.143663 4.65642e-21)
(0.852285 -0.250097 -2.75627e-21)
(0.945115 -0.337138 1.78876e-21)
(0.904823 -0.458403 -9.47729e-21)
(1.0565 -0.512202 8.91452e-21)
(1.15921 -0.604446 0)
(1.38905 -0.483784 -2.00687e-21)
(1.55957 -0.412743 5.70055e-20)
(1.67964 0.0016014 -5.64199e-20)
(0.944799 0.00147027 -1.03908e-20)
(0.944401 -0.00117116 0)