/*--------------------------------*- C++ -*----------------------------------*\
  =========                 |
  \\      /  F ield         | OpenFOAM: The Open Source CFD Toolbox
   \\    /   O peration     | Website:  https://openfoam.org
    \\  /    A nd           | Version:  10
     \\/     M anipulation  |
\*---------------------------------------------------------------------------*/
FoamFile
{
    format      ascii;
    class       volScalarField;
    location    "0.598575";
    object      T;
}
// * * * * * * * * * * * * * * * * * * * * * * * * * * * * * * * * * * * * * //

dimensions      [0 0 0 1 0 0 0];

internalField   nonuniform List<scalar> 
15708
(
0.0087555
0.00875544
0.00875557
0.00875589
0.00875676
0.00875804
0.00875929
0.0087607
0.00876237
0.00876386
0.00876623
0.00876796
0.00877134
0.00877345
0.00877754
0.00878033
0.00878426
0.00878819
0.00879196
0.00879626
0.00880071
0.00880508
0.00880961
0.00881441
0.00881916
0.00882394
0.00882869
0.0088337
0.00883875
0.00884377
0.00884886
0.00885403
0.00885919
0.00886453
0.00886988
0.00887525
0.00888071
0.00888598
0.00889134
0.00889659
0.00890172
0.00890664
0.00891156
0.00891614
0.00892031
0.0089242
0.00892762
0.00893066
0.00893326
0.00893531
0.00893673
0.00875843
0.00875775
0.00875741
0.00875743
0.00875776
0.00875832
0.00875909
0.00876032
0.00876129
0.00876302
0.00876438
0.00876674
0.00876876
0.00877169
0.00877448
0.00877785
0.00878124
0.00878492
0.00878879
0.00879292
0.00879707
0.00880139
0.00880587
0.00881045
0.00881508
0.00881983
0.00882463
0.0088296
0.00883465
0.00883968
0.00884465
0.00884978
0.00885486
0.00886017
0.0088655
0.00887085
0.00887625
0.00888159
0.00888689
0.00889215
0.00889727
0.0089023
0.00890717
0.00891176
0.00891614
0.00892003
0.00892368
0.00892681
0.00892946
0.00893165
0.00893327
0.00875943
0.00875839
0.00875785
0.00875764
0.00875774
0.00875801
0.00875858
0.00875946
0.00876029
0.00876178
0.00876295
0.00876504
0.00876697
0.00876951
0.00877233
0.00877528
0.00877863
0.00878211
0.00878584
0.0087898
0.0087939
0.00879814
0.00880252
0.00880697
0.00881148
0.00881615
0.00882082
0.00882572
0.00883073
0.00883572
0.00884068
0.0088457
0.00885083
0.00885608
0.0088614
0.00886671
0.00887207
0.00887744
0.00888272
0.00888799
0.0088932
0.00889815
0.00890305
0.00890775
0.00891223
0.00891621
0.0089198
0.00892296
0.00892583
0.00892813
0.00892994
0.00875987
0.0087587
0.00875799
0.00875753
0.00875725
0.00875742
0.00875755
0.00875822
0.00875903
0.00876007
0.00876138
0.0087631
0.00876495
0.00876722
0.00876986
0.00877269
0.00877583
0.00877922
0.00878281
0.0087866
0.00879061
0.00879481
0.00879913
0.00880347
0.00880796
0.00881261
0.00881725
0.00882209
0.00882702
0.00883199
0.00883686
0.00884181
0.00884691
0.00885212
0.00885748
0.00886276
0.00886805
0.00887336
0.00887858
0.00888382
0.00888903
0.00889408
0.00889897
0.00890366
0.00890811
0.00891226
0.00891597
0.00891925
0.00892221
0.00892456
0.00892652
0.00876018
0.0087589
0.00875775
0.00875683
0.00875632
0.00875635
0.00875641
0.00875679
0.00875751
0.00875834
0.00875943
0.00876117
0.00876263
0.00876497
0.00876757
0.00877023
0.00877313
0.00877655
0.00878001
0.00878363
0.00878751
0.00879163
0.00879581
0.00880006
0.00880455
0.00880909
0.00881377
0.00881853
0.00882348
0.0088284
0.00883325
0.00883822
0.00884323
0.00884843
0.00885369
0.00885892
0.0088642
0.00886942
0.00887467
0.00887983
0.00888498
0.00889004
0.00889494
0.0088996
0.00890407
0.00890828
0.00891205
0.0089155
0.00891857
0.00892102
0.00892312
0.00875894
0.0087565
0.00875511
0.00875441
0.00875437
0.00875446
0.00875472
0.00875513
0.00875571
0.00875649
0.0087574
0.00875893
0.00876064
0.00876261
0.00876529
0.00876791
0.0087708
0.00877398
0.00877737
0.0087809
0.00878459
0.00878856
0.00879269
0.00879697
0.00880145
0.00880594
0.00881057
0.00881526
0.00882011
0.00882497
0.00882976
0.00883466
0.00883965
0.0088448
0.00884999
0.00885524
0.00886044
0.00886561
0.0088709
0.00887607
0.00888113
0.00888613
0.00889099
0.00889558
0.00890008
0.00890433
0.00890818
0.00891178
0.0089149
0.00891748
0.00891965
0.00875715
0.00875441
0.00875314
0.00875254
0.00875257
0.00875251
0.00875284
0.00875338
0.00875395
0.00875474
0.00875563
0.0087572
0.00875871
0.00876142
0.00876366
0.00876582
0.00876766
0.00877019
0.00877338
0.00877693
0.00878081
0.00878507
0.00878947
0.00879405
0.00879865
0.00880324
0.0088078
0.00881248
0.00881715
0.00882186
0.00882656
0.00883139
0.00883632
0.0088414
0.0088465
0.0088517
0.00885682
0.00886195
0.00886711
0.00887228
0.0088773
0.00888237
0.00888729
0.00889186
0.00889634
0.00890059
0.00890442
0.00890806
0.00891123
0.00891397
0.00891619
0.00875368
0.00875302
0.00875208
0.00875103
0.0087499
0.00874985
0.00875008
0.00875092
0.00875192
0.00875273
0.00875402
0.00875508
0.00875705
0.00875869
0.00876088
0.00876289
0.00876473
0.00876752
0.00877111
0.00877497
0.00877892
0.00878269
0.0087866
0.00879092
0.00879561
0.00880034
0.00880497
0.00880964
0.00881416
0.00881876
0.00882333
0.00882821
0.00883305
0.00883815
0.00884325
0.00884832
0.00885346
0.00885849
0.00886361
0.0088688
0.00887379
0.00887864
0.00888349
0.00888822
0.0088926
0.00889686
0.00890071
0.00890443
0.0089076
0.0089105
0.0089128
0.00874871
0.00874739
0.00874835
0.00874904
0.00875026
0.00875025
0.0087497
0.00874872
0.00874862
0.00874859
0.00874972
0.00875116
0.00875261
0.00875504
0.00875727
0.0087601
0.00876306
0.00876633
0.0087696
0.00877306
0.00877669
0.00878062
0.00878477
0.00878884
0.00879316
0.00879748
0.00880193
0.00880655
0.00881107
0.00881571
0.00882036
0.00882517
0.00883009
0.00883507
0.00884013
0.00884505
0.00885009
0.00885514
0.00886018
0.00886524
0.00887025
0.00887517
0.00887998
0.00888464
0.0088889
0.00889324
0.00889705
0.00890074
0.00890402
0.00890698
0.00890932
0.00874665
0.00874707
0.00874711
0.00874655
0.00874567
0.00874445
0.0087433
0.00874321
0.00874351
0.00874521
0.00874767
0.00874971
0.00875101
0.00875331
0.00875519
0.00875797
0.00876079
0.00876425
0.00876756
0.00877104
0.00877468
0.00877858
0.00878233
0.00878661
0.00879084
0.00879527
0.0087996
0.00880395
0.00880846
0.00881301
0.00881758
0.00882239
0.00882721
0.00883201
0.00883697
0.00884198
0.00884691
0.00885184
0.0088569
0.00886194
0.00886682
0.00887174
0.00887641
0.00888114
0.00888544
0.00888977
0.0088936
0.00889731
0.00890059
0.00890364
0.00890616
0.00874459
0.00874334
0.00874181
0.0087411
0.00874092
0.0087414
0.00874214
0.00874276
0.00874358
0.00874413
0.00874507
0.00874603
0.0087477
0.0087495
0.00875277
0.00875571
0.00875895
0.00876146
0.00876412
0.00876747
0.00877149
0.00877541
0.00877967
0.0087839
0.00878823
0.00879262
0.00879707
0.0088016
0.00880608
0.00881063
0.00881517
0.00881976
0.00882454
0.00882929
0.00883405
0.00883893
0.00884382
0.00884881
0.00885366
0.0088586
0.00886356
0.0088684
0.00887307
0.00887771
0.00888207
0.0088863
0.00889023
0.00889394
0.00889727
0.00890015
0.00890271
0.00873927
0.00873942
0.00873926
0.00873897
0.00873887
0.00873833
0.00873823
0.00873837
0.00873877
0.00873972
0.00874129
0.00874315
0.00874504
0.00874721
0.00874995
0.00875243
0.00875576
0.00875913
0.00876282
0.00876643
0.0087703
0.00877429
0.00877808
0.00878233
0.00878653
0.00879084
0.00879493
0.00879925
0.00880358
0.00880798
0.00881249
0.00881703
0.00882166
0.00882651
0.00883133
0.00883603
0.00884081
0.00884563
0.00885057
0.00885537
0.00886027
0.00886516
0.00886983
0.00887437
0.00887874
0.00888301
0.00888681
0.0088906
0.00889392
0.0088969
0.00889947
0.00873313
0.00873242
0.00873199
0.00873268
0.00873269
0.00873255
0.00873236
0.00873296
0.00873408
0.00873564
0.00873801
0.00874037
0.00874247
0.00874496
0.00874733
0.00875028
0.00875347
0.00875681
0.00876043
0.00876444
0.00876815
0.00877212
0.00877614
0.00878059
0.00878468
0.00878879
0.00879285
0.00879702
0.00880133
0.00880575
0.0088102
0.00881464
0.00881914
0.00882356
0.00882806
0.00883285
0.00883793
0.008843
0.00884786
0.00885263
0.00885731
0.00886194
0.00886657
0.00887106
0.00887548
0.00887952
0.00888354
0.00888708
0.00889053
0.00889339
0.00889615
0.00872774
0.00872775
0.00872693
0.00872679
0.00872651
0.00872776
0.0087293
0.00873092
0.00873191
0.00873377
0.00873502
0.00873688
0.00873963
0.00874152
0.00874466
0.00874763
0.00875096
0.00875457
0.00875852
0.00876228
0.00876638
0.00877033
0.00877446
0.00877865
0.00878285
0.00878693
0.00879099
0.00879507
0.00879915
0.00880334
0.00880773
0.00881218
0.00881665
0.00882082
0.00882531
0.00883031
0.00883533
0.00884014
0.00884483
0.00884946
0.00885415
0.00885887
0.0088634
0.00886793
0.00887223
0.00887645
0.00888021
0.00888387
0.00888708
0.00889005
0.00889268
0.00872237
0.00872187
0.00872255
0.00872357
0.00872472
0.00872537
0.00872599
0.00872671
0.00872766
0.00872899
0.00873112
0.00873313
0.00873634
0.00873854
0.00874219
0.0087447
0.00874848
0.0087523
0.00875607
0.00876042
0.00876456
0.00876892
0.00877319
0.00877717
0.00878119
0.00878522
0.00878925
0.00879329
0.00879735
0.00880137
0.00880562
0.00880974
0.00881402
0.00881844
0.0088228
0.00882745
0.008832
0.00883699
0.00884204
0.00884672
0.00885131
0.00885583
0.0088603
0.00886476
0.00886901
0.00887322
0.00887708
0.00888081
0.00888416
0.00888715
0.00888988
0.00871651
0.00871814
0.00871873
0.00871928
0.00871965
0.00872026
0.0087205
0.00871983
0.00872188
0.00872383
0.00872658
0.00872912
0.00873141
0.00873421
0.00873793
0.00874214
0.00874693
0.00875124
0.00875534
0.00875939
0.00876333
0.0087673
0.00877147
0.00877551
0.00877955
0.00878351
0.00878754
0.00879148
0.00879534
0.00879945
0.00880342
0.00880746
0.00881177
0.00881576
0.00882035
0.00882461
0.00882948
0.00883405
0.00883866
0.00884347
0.00884821
0.00885276
0.00885737
0.00886185
0.00886616
0.00887027
0.00887412
0.00887771
0.00888113
0.00888387
0.00888671
0.00871092
0.00871225
0.00871322
0.00871307
0.00871289
0.0087138
0.00871528
0.00871665
0.00871872
0.00872059
0.00872277
0.00872495
0.00872841
0.00873165
0.00873631
0.00873943
0.00874302
0.00874712
0.00875194
0.00875661
0.00876173
0.00876634
0.00877073
0.00877485
0.00877866
0.00878255
0.00878637
0.00879006
0.00879385
0.00879762
0.00880142
0.0088052
0.00880916
0.00881341
0.00881768
0.00882192
0.00882654
0.00883115
0.00883576
0.00884041
0.00884518
0.00884973
0.00885438
0.00885885
0.00886319
0.00886734
0.00887131
0.00887509
0.00887859
0.00888145
0.00888426
0.00870793
0.00870801
0.00870754
0.00870779
0.00870785
0.00870945
0.00870921
0.00871059
0.00871114
0.00871467
0.0087178
0.00872166
0.00872543
0.00872972
0.00873378
0.0087381
0.00874201
0.00874648
0.00875076
0.00875566
0.00876057
0.00876509
0.00876947
0.00877363
0.00877767
0.00878152
0.00878504
0.00878854
0.00879209
0.00879562
0.00879921
0.00880289
0.00880648
0.00881097
0.00881475
0.00881952
0.00882346
0.00882819
0.00883273
0.00883757
0.00884202
0.00884676
0.00885149
0.00885605
0.00886056
0.0088646
0.00886866
0.0088726
0.00887622
0.00887951
0.00888219
0.00870138
0.00870237
0.00870298
0.0087028
0.00870356
0.00870448
0.00870486
0.00870604
0.00870743
0.00870924
0.00871255
0.00871725
0.00872126
0.00872636
0.00873036
0.00873601
0.00874114
0.00874616
0.00875084
0.00875548
0.00875996
0.00876445
0.00876872
0.00877279
0.00877659
0.00878055
0.00878386
0.0087874
0.00879062
0.00879379
0.00879707
0.0088001
0.00880477
0.00880691
0.00881387
0.00881451
0.00882204
0.00882427
0.00883047
0.00883449
0.00883957
0.00884391
0.00884846
0.00885314
0.00885793
0.00886241
0.0088667
0.00887021
0.00887384
0.00887689
0.00887937
0.00869329
0.00869673
0.00869839
0.00869819
0.00869811
0.00869859
0.00869868
0.0087001
0.00870246
0.00870567
0.00870822
0.00871263
0.00871743
0.00872405
0.00872873
0.00873313
0.00873802
0.0087429
0.00874886
0.00875424
0.00875954
0.00876409
0.00876826
0.00877209
0.00877597
0.00877965
0.00878309
0.00878658
0.00878984
0.00879251
0.00879542
0.00879867
0.00880114
0.00880665
0.00880704
0.00881526
0.00881471
0.00882532
0.00882379
0.00883254
0.00883551
0.00884148
0.00884601
0.00885063
0.00885538
0.00885984
0.00886413
0.00886773
0.00887146
0.00887567
0.00887845
0.00867439
0.0086854
0.00869078
0.00869321
0.0086939
0.00869521
0.00869509
0.00869756
0.00869733
0.00870108
0.00870509
0.0087085
0.00871282
0.00871863
0.00872486
0.00873103
0.0087371
0.00874265
0.00874811
0.00875365
0.00875918
0.00876424
0.00876885
0.00877271
0.00877646
0.00877939
0.00878179
0.00878483
0.00878733
0.00878991
0.00879225
0.00879558
0.00879751
0.008804
0.00880355
0.00881045
0.00881649
0.00881518
0.0088258
0.00882503
0.00883517
0.0088353
0.00884325
0.00884821
0.00885317
0.00885828
0.00886285
0.00886716
0.00887056
0.00887473
0.0088778
0.00864421
0.00866491
0.00867581
0.00868159
0.0086849
0.00868479
0.00868958
0.00868911
0.00869475
0.00869366
0.0087011
0.00870619
0.00871069
0.00871659
0.00872203
0.00872865
0.00873508
0.00874153
0.00874753
0.00875313
0.00875848
0.00876353
0.00876829
0.00877216
0.00877596
0.00877878
0.00878175
0.00878469
0.00878695
0.00878897
0.00879141
0.00879305
0.00879752
0.00879765
0.00880421
0.00880409
0.0088108
0.00881621
0.00882007
0.00882414
0.00883069
0.00883524
0.00884039
0.00884598
0.00885096
0.00885648
0.00886154
0.00886639
0.00887082
0.00887466
0.00887827
0.00861223
0.00864313
0.0086592
0.00866846
0.00867347
0.00867887
0.00867834
0.00868646
0.00868475
0.00869136
0.00869624
0.00870338
0.00870857
0.00871448
0.00872059
0.00872734
0.00873485
0.00874248
0.00874899
0.00875494
0.0087604
0.00876528
0.00876985
0.00877353
0.00877703
0.00877943
0.00878179
0.00878396
0.00878518
0.00878616
0.00878855
0.00878839
0.00879353
0.00879366
0.00880023
0.00879977
0.00880892
0.00880825
0.0088186
0.0088185
0.00882636
0.0088338
0.00883994
0.00884594
0.0088512
0.0088574
0.00886234
0.00886764
0.00887234
0.00887644
0.00887991
0.00858644
0.00862067
0.00864052
0.00865147
0.00865904
0.00866127
0.00866994
0.00866809
0.008678
0.00868069
0.00868917
0.00869737
0.00870578
0.00871355
0.00872084
0.00872853
0.00873614
0.00874455
0.00875249
0.00875918
0.00876461
0.00876932
0.00877348
0.00877667
0.00877935
0.00878085
0.00878265
0.0087839
0.00878437
0.00878491
0.00878616
0.00878617
0.0087891
0.00878864
0.00879295
0.00879831
0.00879949
0.00880909
0.0088076
0.00881755
0.00882567
0.00882623
0.00883831
0.00884542
0.00885142
0.00885863
0.00886465
0.00886978
0.0088748
0.00888081
0.00888521
0.00858442
0.00860596
0.00861807
0.00862533
0.00863075
0.00863294
0.00863502
0.00863759
0.00863754
0.00865116
0.0086466
0.00866783
0.00868542
0.00870009
0.00871354
0.00872537
0.00873558
0.0087454
0.00875502
0.0087642
0.00877251
0.00877727
0.00878038
0.00878198
0.00878316
0.00878336
0.0087843
0.00878396
0.00878373
0.00878287
0.00878259
0.0087823
0.00878273
0.00878288
0.00878514
0.00878926
0.00879296
0.00878981
0.00880204
0.00879695
0.00880805
0.00881822
0.00881578
0.00883138
0.00884114
0.00885247
0.00886189
0.00886943
0.00887488
0.00888193
0.00889062
0.00853273
0.00848914
0.00848961
0.00844588
0.00840395
0.00835794
0.00834695
0.00833167
0.00833591
0.00834581
0.00836012
0.00843321
0.00848689
0.00855515
0.00861548
0.00866522
0.00870473
0.00873155
0.00874901
0.00876164
0.00877277
0.00878137
0.00878644
0.00878816
0.0087883
0.00878834
0.00878698
0.00878479
0.00878252
0.00878088
0.00877767
0.00877465
0.00876923
0.00877041
0.00876527
0.00876242
0.00874499
0.00875289
0.00873904
0.00873023
0.00872826
0.00873856
0.00875338
0.00876368
0.00878963
0.00881697
0.008839
0.00885646
0.00886792
0.00887955
0.00889158
0.0078241
0.00747748
0.00713633
0.00695276
0.00676771
0.00659595
0.00653764
0.00644737
0.00647674
0.0064687
0.00675417
0.00677199
0.00718175
0.00757428
0.00804366
0.00834526
0.00852232
0.00863267
0.00870555
0.00874783
0.00876961
0.00878266
0.00879156
0.00879385
0.00879449
0.00879324
0.00879124
0.00878668
0.00878065
0.00877432
0.00876144
0.00875728
0.00874203
0.00870816
0.00872351
0.00863694
0.00855239
0.00849293
0.00841016
0.00831596
0.00831985
0.00829326
0.00834879
0.00844677
0.00855973
0.00867236
0.00876269
0.0088161
0.00884659
0.00887095
0.00888999
0.00550031
0.00531953
0.00517584
0.00507223
0.00498405
0.00490643
0.00486157
0.00483335
0.00484039
0.00489746
0.00492652
0.00518029
0.00516356
0.00565754
0.00614242
0.00708492
0.00791797
0.00836128
0.00857787
0.00868798
0.0087468
0.0087769
0.00879053
0.00879627
0.00879588
0.00879617
0.00878956
0.00878289
0.00877296
0.00875423
0.00872911
0.00868968
0.00872113
0.00841629
0.00809358
0.00773066
0.00731565
0.00703348
0.00675907
0.0066414
0.00663604
0.00672446
0.00680448
0.00717328
0.00775559
0.00823679
0.00852376
0.00867954
0.00875948
0.00883395
0.0088802
0.00494164
0.00495116
0.00494717
0.00493018
0.0048964
0.00484833
0.00477443
0.0047355
0.00469567
0.00468379
0.00468617
0.00473112
0.0047493
0.00490594
0.00504502
0.00571767
0.00671831
0.00759726
0.00817373
0.00849761
0.00866535
0.00874704
0.00878267
0.00879383
0.00879483
0.00879204
0.00878705
0.00875403
0.00874771
0.008637
0.00868909
0.00799408
0.00716728
0.00644651
0.00591596
0.00555117
0.00534659
0.00525577
0.00520863
0.00521755
0.00523596
0.00535489
0.00547451
0.00578658
0.00622302
0.00701982
0.00780898
0.00837814
0.00869616
0.0088355
0.00888191
0.00576246
0.0060491
0.00618557
0.00625831
0.00621561
0.00609581
0.00590914
0.00561407
0.0053232
0.00508511
0.00487406
0.00476586
0.00476604
0.00477117
0.00489969
0.00516556
0.00606283
0.00714272
0.00794844
0.0084176
0.00864702
0.00874573
0.00878305
0.00879197
0.00879023
0.00878562
0.00874175
0.0087413
0.00839761
0.00755347
0.0062787
0.00554758
0.00512435
0.00493831
0.0048718
0.00487171
0.0048905
0.0048915
0.0048872
0.00487471
0.00485424
0.0048828
0.00495448
0.00511243
0.00547637
0.0064792
0.00770891
0.00841755
0.00875521
0.00886641
0.00887552
0.00771362
0.00771134
0.00766138
0.00761314
0.00759905
0.00758203
0.00750352
0.00735088
0.00696483
0.00644922
0.00579578
0.00524694
0.00490881
0.0048313
0.00489334
0.00523842
0.00614567
0.00726813
0.00804881
0.00848004
0.00868126
0.0087632
0.00878673
0.00878684
0.00877876
0.00872218
0.00839206
0.00704883
0.00572486
0.00505121
0.00480159
0.00474389
0.00477193
0.00489528
0.0049888
0.00505536
0.00506082
0.00503928
0.00497386
0.00490924
0.00485339
0.00479578
0.0048021
0.00496051
0.00546387
0.00665581
0.00795483
0.00867074
0.00883027
0.00880881
0.00841292
0.00803733
0.00783998
0.00763666
0.00755192
0.0076005
0.00769958
0.00776871
0.00774495
0.00761616
0.00722456
0.00619841
0.00532546
0.00494489
0.00488667
0.00500992
0.00549634
0.00666761
0.00772353
0.00836408
0.00865625
0.00876239
0.00878609
0.00878381
0.00874263
0.00831914
0.00661269
0.00530766
0.00480324
0.0046799
0.00469958
0.0048395
0.00518184
0.00555106
0.00588843
0.00611616
0.00616964
0.00610888
0.00592439
0.00563155
0.00531957
0.00496657
0.00476711
0.00481836
0.00500104
0.00576241
0.00752887
0.00855221
0.00871907
0.0085712
0.00757762
0.00563441
0.00755746
0.00696234
0.00656216
0.00644828
0.00661457
0.00704506
0.00750761
0.00757901
0.00733074
0.00666212
0.00561165
0.00510826
0.00495355
0.00505437
0.00547204
0.00660354
0.00783104
0.00845527
0.00870332
0.00877161
0.00877599
0.00868959
0.00783123
0.00624008
0.00520245
0.00472131
0.00464193
0.00471605
0.0049904
0.00567557
0.00652264
0.00719199
0.00758203
0.00768369
0.00762393
0.00739386
0.00715532
0.00678725
0.00615164
0.00545012
0.00492769
0.00480514
0.00486087
0.00559528
0.00713638
0.00836489
0.0085402
0.00813604
0.00644451
0.00512902
0.00476191
0.00720367
0.00654156
0.00609086
0.00595168
0.00593284
0.00608275
0.00627545
0.00629328
0.00577522
0.0054006
0.00521498
0.00516352
0.00532818
0.00584958
0.00721034
0.00817199
0.00857979
0.00870487
0.00871902
0.00855777
0.00773898
0.0062419
0.00502582
0.00467461
0.00462687
0.0047396
0.00510346
0.00598463
0.00720831
0.00797854
0.00822888
0.00818276
0.00788057
0.00765996
0.00760106
0.00742949
0.00719682
0.00673554
0.00604314
0.00517995
0.00499553
0.00487277
0.00562248
0.00702975
0.00813326
0.00826586
0.0076021
0.00589395
0.00488998
0.00476167
0.00475508
0.00720968
0.00653226
0.00610366
0.0058472
0.00577078
0.00567483
0.00562941
0.00557882
0.00551284
0.00550444
0.00561903
0.00596677
0.00714533
0.00804553
0.00838168
0.00858042
0.0085993
0.00842615
0.00774541
0.00602946
0.00507414
0.00472655
0.00461474
0.00472859
0.00511107
0.00593512
0.00728837
0.00822417
0.00844781
0.00831252
0.00780522
0.00715999
0.00691949
0.00689017
0.0070506
0.00706188
0.00684169
0.00608313
0.00530609
0.00519816
0.00506901
0.00605562
0.00717151
0.00782695
0.00791578
0.00694793
0.0055904
0.00474353
0.0046901
0.00470134
0.00491735
0.00803912
0.0076213
0.00704955
0.00658436
0.00641106
0.00622482
0.00619859
0.00623193
0.00651755
0.00693547
0.00751492
0.00823906
0.00827032
0.00841912
0.00839948
0.00817962
0.00742365
0.00593233
0.005118
0.0047416
0.00465109
0.00472691
0.00501586
0.00573428
0.00687063
0.00811427
0.00847452
0.00845624
0.00806996
0.00737872
0.00660113
0.00624999
0.0061294
0.00615243
0.00614519
0.00614517
0.00584006
0.00545154
0.0053472
0.00522764
0.00664287
0.00726952
0.00739677
0.00727048
0.00643246
0.00527951
0.00462506
0.00461867
0.00461527
0.00470726
0.00489033
0.00831525
0.00824591
0.00814349
0.00803179
0.00792875
0.00793014
0.00791895
0.00801615
0.00813609
0.00820619
0.00824269
0.00826401
0.00810959
0.0077832
0.00693956
0.005636
0.00504219
0.00471851
0.00467966
0.00467536
0.00490909
0.0054228
0.00633229
0.0075697
0.00838481
0.00854294
0.00848422
0.00813171
0.00751305
0.00680132
0.00629794
0.00602827
0.00601233
0.00593694
0.00592321
0.00583546
0.00570353
0.00559089
0.00588569
0.00671653
0.00721431
0.00717214
0.00687197
0.00595214
0.00473826
0.00469335
0.0045241
0.00453377
0.00455232
0.0046328
0.00463977
0.00829092
0.00828796
0.00829565
0.00827691
0.00828366
0.00824939
0.00823861
0.00816264
0.00810581
0.00789611
0.00758099
0.00692249
0.00598722
0.00531803
0.00483551
0.00477948
0.00463573
0.00463926
0.00478317
0.00511255
0.00574497
0.0065993
0.00779761
0.00846074
0.00860765
0.00859523
0.0084077
0.00800677
0.00742254
0.00684111
0.00626624
0.00621302
0.00603305
0.00606233
0.00602681
0.00601526
0.00613715
0.00660109
0.00682188
0.00700495
0.00694143
0.00666268
0.00540591
0.00460178
0.00456936
0.00449061
0.00446688
0.00447569
0.00447961
0.00448598
0.0044819
0.00769737
0.00769544
0.00770894
0.00769217
0.00760884
0.00747213
0.00723402
0.00689868
0.00644199
0.00588414
0.00530261
0.00492545
0.00464463
0.0046594
0.00459607
0.00460113
0.00465759
0.0048787
0.00523326
0.00580319
0.00653928
0.00761858
0.00836327
0.00862773
0.00864315
0.00860411
0.00844392
0.00812044
0.00770161
0.00727692
0.0070279
0.00669096
0.00672697
0.00667576
0.00670605
0.00684189
0.00692865
0.00700127
0.00688252
0.00676487
0.0057874
0.00461089
0.00474208
0.00446756
0.00446931
0.00443513
0.0044323
0.00443433
0.00443409
0.00443068
0.00442544
0.00613182
0.00612175
0.00601749
0.00588048
0.00569058
0.0054848
0.005272
0.0050294
0.00483167
0.00467728
0.004536
0.00453863
0.00452125
0.00452997
0.00456559
0.00467984
0.00487028
0.00519027
0.00561461
0.0062452
0.00707898
0.00803511
0.00857071
0.00860019
0.0086442
0.00859479
0.00848661
0.00827155
0.00804745
0.00781156
0.00761118
0.00742194
0.00729905
0.00715947
0.00706687
0.00698629
0.00687743
0.00663229
0.00578419
0.00470472
0.0049835
0.00448786
0.00450931
0.00442239
0.00442085
0.00441328
0.00441471
0.00441476
0.00441399
0.00440882
0.00440567
0.0048873
0.00486904
0.00482547
0.00477382
0.00469317
0.00461623
0.00456503
0.004501
0.00445808
0.00446616
0.0044608
0.00445928
0.00448611
0.00453762
0.00463678
0.00479193
0.00501754
0.0053504
0.00581789
0.00648068
0.00731894
0.00813377
0.00856632
0.00856707
0.00858464
0.00856344
0.0084406
0.00826784
0.0080506
0.00786216
0.00765325
0.00745468
0.00726419
0.00706214
0.00683576
0.00652226
0.00578436
0.00481288
0.00494365
0.00456551
0.00460264
0.00442588
0.00442788
0.00440296
0.00440287
0.00440343
0.00440412
0.00440427
0.00440274
0.00439906
0.00439438
0.00449468
0.00448319
0.0044654
0.00444865
0.00442384
0.00440983
0.00440401
0.00440448
0.00440396
0.00441006
0.00442452
0.00444937
0.00449546
0.00456261
0.00467082
0.00482594
0.00505328
0.00538176
0.00584505
0.00646335
0.00720498
0.00802663
0.0082577
0.00848115
0.00843427
0.00840763
0.00830208
0.00810763
0.00788058
0.00764562
0.00737539
0.00706467
0.00668447
0.00617172
0.0056511
0.00507263
0.00487928
0.00451084
0.00459815
0.00446365
0.00442905
0.00440752
0.00438962
0.00439235
0.00439545
0.00439598
0.00439647
0.00439649
0.00439423
0.00439218
0.00438714
0.00437556
0.00437052
0.00437034
0.00436801
0.00436842
0.00436961
0.00437394
0.00437763
0.00438802
0.00440161
0.00442054
0.00445109
0.00449405
0.00455797
0.00465148
0.00478235
0.00497542
0.00524167
0.00561152
0.00608793
0.00665078
0.00722388
0.00778928
0.00783824
0.0078716
0.00787308
0.00771029
0.00738362
0.00700284
0.00662289
0.00620856
0.00578538
0.00538238
0.0050601
0.00480737
0.00464452
0.0044852
0.00449248
0.00441029
0.00441039
0.00438624
0.00438697
0.00438515
0.00439076
0.00438984
0.00439149
0.00439169
0.00439103
0.00438867
0.0043856
0.00438221
0.00434658
0.00434718
0.0043505
0.00435339
0.00435592
0.00436245
0.00436646
0.00437544
0.00438418
0.0044004
0.00441909
0.00444618
0.00447973
0.00452818
0.00459706
0.00469502
0.00483109
0.00502085
0.00526761
0.00557756
0.00592353
0.00623885
0.00655971
0.00655078
0.00660813
0.00656974
0.00631231
0.00598392
0.00569592
0.00544771
0.00517862
0.00495467
0.00475198
0.00461464
0.00452083
0.00443801
0.00443757
0.00438812
0.00439152
0.00438227
0.00438035
0.00438157
0.00438514
0.00438486
0.00438651
0.00438634
0.00438604
0.00438529
0.00438328
0.00438181
0.00437954
0.00433828
0.00434258
0.00434457
0.00435214
0.00435136
0.00436731
0.00436463
0.00438323
0.00438303
0.0044053
0.00441681
0.00443968
0.00446594
0.00450138
0.00455022
0.00461429
0.00470513
0.00482246
0.004971
0.00514788
0.00533637
0.00549858
0.00558248
0.00562606
0.00562922
0.00554408
0.00534678
0.00515294
0.00499316
0.00485366
0.00470934
0.0046014
0.00450647
0.0044579
0.00442682
0.00439549
0.00439599
0.00437825
0.00438047
0.00437738
0.0043781
0.00437945
0.00438051
0.00438193
0.0043828
0.00438346
0.00438399
0.00438411
0.00438388
0.00438292
0.00438149
0.00433773
0.00434275
0.00434728
0.00435319
0.0043599
0.00436504
0.00437505
0.0043817
0.00439505
0.00440442
0.00442058
0.00443634
0.0044582
0.00448414
0.00451665
0.00455805
0.00461399
0.00467941
0.00476383
0.00485266
0.00494493
0.00500904
0.00505529
0.0050584
0.00505049
0.00496311
0.0048498
0.00474994
0.00466881
0.00459344
0.00452226
0.00446928
0.00443063
0.0044132
0.0043979
0.00438721
0.00438066
0.00437883
0.00437592
0.00437553
0.00437565
0.00437707
0.00437875
0.00438056
0.00438257
0.00438404
0.00438563
0.00438722
0.00438747
0.00438789
0.00438749
0.00433964
0.00434481
0.00435026
0.00435663
0.00436323
0.00437058
0.00437824
0.00438711
0.00439837
0.00440965
0.00442258
0.00443788
0.00445407
0.00447456
0.00449848
0.00452616
0.00455868
0.00459727
0.00463796
0.00468403
0.0047215
0.00476296
0.00476331
0.00476942
0.0047435
0.00468708
0.00462862
0.00457395
0.00453212
0.00448916
0.00445442
0.00442639
0.00441026
0.00439968
0.00439087
0.00438498
0.00437676
0.00437815
0.00437501
0.00437494
0.00437492
0.00437691
0.00437921
0.00438246
0.0043864
0.00438984
0.00439396
0.00439519
0.00439953
0.00439992
0.00440178
0.00433984
0.00434529
0.0043522
0.0043582
0.00436681
0.00437376
0.00438357
0.00439301
0.00440305
0.00441445
0.00442728
0.00444006
0.00445552
0.00447123
0.00449164
0.00451051
0.00453416
0.00455513
0.00457999
0.00460257
0.00462031
0.00463098
0.0046341
0.00462726
0.00460172
0.00457049
0.00453614
0.00450683
0.00448182
0.00445655
0.00443638
0.00441992
0.00440959
0.00439943
0.00439139
0.00438427
0.00438
0.00437703
0.00437612
0.00437534
0.00437595
0.00437878
0.00438242
0.00438721
0.00439138
0.00439643
0.00440119
0.0044057
0.00441044
0.00441399
0.00441733
0.00434022
0.00434686
0.00435364
0.00436148
0.00436962
0.00437795
0.0043877
0.00439752
0.0044085
0.00442003
0.00443207
0.00444567
0.00445931
0.00447497
0.00449044
0.0045069
0.00452306
0.00453834
0.00455391
0.00456486
0.00457453
0.00457702
0.00457572
0.00456735
0.00454861
0.00453044
0.00450821
0.00449041
0.00447182
0.00445377
0.00443705
0.00442223
0.00441211
0.00440179
0.00439386
0.00438408
0.00438311
0.00437989
0.00437716
0.00437761
0.00437913
0.00438443
0.00438994
0.00439694
0.00440413
0.00441332
0.00442186
0.00443074
0.00444035
0.0044484
0.00445683
0.0043396
0.00434708
0.00435458
0.00436369
0.00437239
0.00438107
0.00439075
0.00440175
0.00441558
0.00442168
0.00444083
0.00444795
0.00446604
0.00447778
0.00449369
0.00450662
0.00452192
0.00453538
0.00454652
0.00455482
0.00455981
0.00456155
0.00455844
0.00455189
0.00453904
0.00452577
0.00450876
0.00449225
0.00447435
0.00445712
0.00444127
0.00442797
0.00441634
0.00440607
0.00439778
0.00439287
0.00438259
0.00438541
0.00438317
0.00438445
0.00438726
0.00439319
0.004399
0.00440848
0.0044169
0.00442812
0.00443848
0.00444931
0.00445996
0.0044699
0.00448086
0.00433877
0.00434656
0.00435502
0.00436393
0.00437416
0.0043831
0.00439424
0.00440507
0.00441699
0.00442917
0.00444265
0.00445431
0.00447001
0.00448306
0.00449787
0.00451085
0.00452514
0.00453598
0.00454647
0.00455659
0.00456016
0.00456148
0.00455927
0.00455365
0.00454139
0.00452915
0.00451337
0.00449857
0.00448198
0.0044662
0.0044512
0.00443769
0.00442576
0.00441471
0.00440652
0.00439367
0.00439509
0.00438597
0.00438749
0.00438429
0.00438415
0.00438676
0.00439037
0.00439645
0.00440198
0.00441003
0.00441895
0.00442787
0.00443422
0.00444472
0.00445027
0.00893773
0.00893768
0.00893714
0.00893629
0.00893452
0.00893206
0.00892876
0.00892465
0.00892006
0.00891471
0.00890879
0.00890205
0.00889485
0.00888727
0.00887899
0.0088702
0.00886091
0.00885113
0.00884128
0.00883074
0.00882042
0.00880962
0.00879852
0.00878777
0.00877595
0.00876519
0.0089343
0.00893469
0.00893416
0.00893395
0.00893174
0.00892971
0.00892684
0.00892288
0.00891846
0.00891341
0.00890761
0.00890113
0.00889413
0.0088866
0.00887849
0.00887002
0.00886078
0.0088514
0.0088415
0.00883145
0.00882105
0.00881053
0.00879938
0.00878914
0.0087771
0.00876689
0.00893107
0.00893179
0.00893135
0.00893129
0.00892932
0.00892766
0.00892483
0.0089213
0.00891703
0.00891219
0.00890671
0.00890061
0.00889374
0.00888645
0.00887856
0.00887029
0.00886145
0.00885213
0.00884252
0.00883251
0.00882249
0.00881194
0.00880118
0.00879091
0.00877922
0.00876935
0.00892783
0.00892875
0.00892849
0.00892829
0.00892701
0.00892544
0.00892269
0.0089196
0.00891562
0.00891104