/*--------------------------------*- C++ -*----------------------------------*\
  =========                 |
  \\      /  F ield         | OpenFOAM: The Open Source CFD Toolbox
   \\    /   O peration     | Website:  https://openfoam.org
    \\  /    A nd           | Version:  10
     \\/     M anipulation  |
\*---------------------------------------------------------------------------*/
FoamFile
{
    format      ascii;
    class       volVectorField;
    location    "0.598575";
    object      U;
}
// * * * * * * * * * * * * * * * * * * * * * * * * * * * * * * * * * * * * * //

dimensions      [0 1 -1 0 0 0 0];

internalField   nonuniform List<vector> 
15708
(
(0.478674 -0.111134 0)
(0.471834 -0.107184 0)
(0.465392 -0.103069 0)
(0.459227 -0.0988096 0)
(0.453338 -0.0944284 0)
(0.447724 -0.089951 0)
(0.442374 -0.0854004 0)
(0.437278 -0.0807883 0)
(0.432428 -0.0761302 0)
(0.427819 -0.0714397 0)
(0.423448 -0.0667284 0)
(0.419313 -0.0620061 0)
(0.415413 -0.0572819 0)
(0.411748 -0.0525646 0)
(0.408318 -0.0478622 0)
(0.405123 -0.0431832 0)
(0.402164 -0.0385354 0)
(0.399441 -0.0339265 0)
(0.396955 -0.029364 0)
(0.394703 -0.0248545 0)
(0.392686 -0.0204045 0)
(0.390901 -0.0160201 0)
(0.389346 -0.0117067 0)
(0.388019 -0.00746961 0)
(0.386913 -0.00331535 0)
(0.386029 0.00075377 0)
(0.385358 0.00473157 0)
(0.384893 0.00861173 0)
(0.384631 0.0123924 0)
(0.384567 0.0160677 0)
(0.384693 0.0196334 0)
(0.385004 0.0230833 0)
(0.385496 0.0264113 0)
(0.386164 0.0296105 0)
(0.387003 0.0326733 0)
(0.388012 0.0355908 0)
(0.389187 0.0383534 0)
(0.39053 0.0409501 0)
(0.392039 0.043369 0)
(0.393717 0.0455973 0)
(0.395565 0.0476209 0)
(0.397586 0.0494256 0)
(0.399781 0.0509969 0)
(0.402151 0.0523205 0)
(0.404696 0.053382 0)
(0.407415 0.0541691 0)
(0.410303 0.0546716 0)
(0.413352 0.0548818 0)
(0.41655 0.0547952 0)
(0.419882 0.0544109 0)
(0.42333 0.0537338 0)
(0.482422 -0.101882 0)
(0.475751 -0.0980743 0)
(0.469451 -0.0941281 0)
(0.463407 -0.0900653 0)
(0.457616 -0.0858972 0)
(0.452079 -0.0816425 0)
(0.446796 -0.0773181 0)
(0.441757 -0.0729368 0)
(0.436951 -0.0685139 0)
(0.432373 -0.0640623 0)
(0.428022 -0.0595925 0)
(0.423897 -0.0551138 0)
(0.419996 -0.0506357 0)
(0.416322 -0.0461646 0)
(0.412873 -0.0417106 0)
(0.409652 -0.0372799 0)
(0.406659 -0.0328811 0)
(0.403896 -0.0285219 0)
(0.401363 -0.0242097 0)
(0.39906 -0.0199508 0)
(0.396986 -0.0157521 0)
(0.39514 -0.0116194 0)
(0.39352 -0.00755758 0)
(0.392122 -0.00357393 0)
(0.390945 0.000329402 0)
(0.389984 0.00414906 0)
(0.389229 0.00787605 0)
(0.388677 0.0115088 0)
(0.388323 0.0150437 0)
(0.388161 0.0184754 0)
(0.388184 0.0217994 0)
(0.388384 0.0250106 0)
(0.388756 0.0281023 0)
(0.389295 0.0310683 0)
(0.389996 0.0339009 0)
(0.390856 0.0365918 0)
(0.391871 0.0391318 0)
(0.393041 0.0415106 0)
(0.394366 0.0437173 0)
(0.395846 0.0457398 0)
(0.397483 0.0475658 0)
(0.399279 0.0491825 0)
(0.401237 0.0505769 0)
(0.403359 0.051737 0)
(0.405644 0.0526512 0)
(0.408095 0.0533092 0)
(0.410707 0.0537033 0)
(0.413477 0.0538285 0)
(0.416396 0.0536827 0)
(0.419452 0.053268 0)
(0.422634 0.0525906 0)
(0.486084 -0.0927763 0)
(0.479541 -0.0890855 0)
(0.473349 -0.0852885 0)
(0.4674 -0.0813902 0)
(0.461695 -0.0774042 0)
(0.456234 -0.073345 0)
(0.451012 -0.0692184 0)
(0.446021 -0.0650478 0)
(0.441251 -0.0608412 0)
(0.436698 -0.0566141 0)
(0.432362 -0.0523737 0)
(0.428242 -0.0481287 0)
(0.424337 -0.0438873 0)
(0.42065 -0.0396566 0)
(0.41718 -0.0354445 0)
(0.41393 -0.0312582 0)
(0.410902 -0.0271056 0)
(0.408096 -0.0229941 0)
(0.405514 -0.0189308 0)
(0.403156 -0.0149225 0)
(0.401023 -0.0109753 0)
(0.399114 -0.00709453 0)
(0.397425 -0.00328788 0)
(0.395957 0.000445074 0)
(0.394707 0.00409988 0)
(0.393664 0.0076668 0)
(0.392825 0.0111454 0)
(0.392186 0.0145327 0)
(0.391741 0.0178246 0)
(0.391481 0.0210165 0)
(0.3914 0.0241034 0)
(0.39149 0.0270813 0)
(0.391745 0.0299435 0)
(0.392158 0.0326837 0)
(0.392724 0.0352945 0)
(0.393439 0.0377678 0)
(0.394299 0.0400946 0)
(0.395303 0.0422652 0)
(0.39645 0.0442689 0)
(0.39774 0.0460947 0)
(0.399176 0.0477315 0)
(0.400761 0.0491672 0)
(0.402496 0.0503903 0)
(0.404385 0.0513905 0)
(0.406429 0.0521582 0)
(0.408632 0.0526848 0)
(0.410992 0.0529647 0)
(0.413508 0.052995 0)
(0.416174 0.0527762 0)
(0.418983 0.0523117 0)
(0.421927 0.0516096 0)
(0.489666 -0.083827 0)
(0.483225 -0.0802184 0)
(0.477129 -0.0765305 0)
(0.471264 -0.0727676 0)
(0.465622 -0.0689316 0)
(0.460215 -0.0650408 0)
(0.455039 -0.0611009 0)
(0.450083 -0.0571242 0)
(0.445339 -0.0531226 0)
(0.440803 -0.049108 0)
(0.436477 -0.0450866 0)
(0.432357 -0.041066 0)
(0.428445 -0.0370536 0)
(0.424741 -0.0330563 0)
(0.421247 -0.0290809 0)
(0.417965 -0.0251346 0)
(0.414897 -0.0212249 0)
(0.412046 -0.0173587 0)
(0.409412 -0.0135427 0)
(0.406997 -0.00978339 0)
(0.404803 -0.00608758 0)
(0.402825 -0.00246298 0)
(0.40107 0.00109658 0)
(0.39953 0.00458034 0)
(0.398199 0.00798106 0)
(0.397075 0.0112992 0)
(0.396153 0.0145322 0)
(0.395426 0.0176769 0)
(0.394889 0.0207296 0)
(0.394532 0.023686 0)
(0.394349 0.0265413 0)
(0.39433 0.0292915 0)
(0.394468 0.031931 0)
(0.394758 0.0344528 0)
(0.395191 0.0368498 0)
(0.395764 0.039114 0)
(0.396473 0.0412364 0)
(0.397315 0.0432076 0)
(0.398289 0.0450171 0)
(0.399398 0.0466544 0)
(0.400641 0.0481088 0)
(0.402022 0.0493692 0)
(0.403545 0.0504252 0)
(0.405213 0.0512671 0)
(0.407031 0.0518871 0)
(0.409002 0.0522782 0)
(0.411128 0.0524361 0)
(0.41341 0.0523598 0)
(0.415845 0.0520514 0)
(0.41843 0.051516 0)
(0.421161 0.0507635 0)
(0.493223 -0.0749841 0)
(0.486851 -0.071427 0)
(0.480809 -0.0678287 0)
(0.474995 -0.0641876 0)
(0.469402 -0.0604993 0)
(0.46403 -0.0567632 0)
(0.458885 -0.0529972 0)
(0.453954 -0.0492013 0)
(0.449226 -0.0453937 0)
(0.4447 -0.0415758 0)
(0.440377 -0.037761 0)
(0.436252 -0.0339525 0)
(0.432327 -0.030159 0)
(0.428601 -0.0263853 0)
(0.425078 -0.0226384 0)
(0.42176 -0.0189251 0)
(0.41865 -0.0152527 0)
(0.41575 -0.0116277 0)
(0.413062 -0.00805703 0)
(0.410587 -0.00454834 0)
(0.408327 -0.00110456 0)
(0.406288 0.00228025 0)
(0.404458 0.00558804 0)
(0.40284 0.00881755 0)
(0.401429 0.0119691 0)
(0.400224 0.0150409 0)
(0.399218 0.0180305 0)
(0.398404 0.0209353 0)
(0.397775 0.0237521 0)
(0.397322 0.0264773 0)
(0.397037 0.0291068 0)
(0.396911 0.0316359 0)
(0.396936 0.0340599 0)
(0.397103 0.0363716 0)
(0.397406 0.0385636 0)
(0.39784 0.0406279 0)
(0.3984 0.0425552 0)
(0.399084 0.0443359 0)
(0.39989 0.0459599 0)
(0.40082 0.0474164 0)
(0.401875 0.0486946 0)
(0.403059 0.0497845 0)
(0.404376 0.0506757 0)
(0.405833 0.0513593 0)
(0.407434 0.0518283 0)
(0.409184 0.0520774 0)
(0.411088 0.0521031 0)
(0.413151 0.0519059 0)
(0.415372 0.0514894 0)
(0.417751 0.0508599 0)
(0.420287 0.0500292 0)
(0.496767 -0.0662248 0)
(0.490428 -0.062718 0)
(0.48441 -0.0592027 0)
(0.478621 -0.0556638 0)
(0.473052 -0.0521065 0)
(0.467702 -0.0485155 0)
(0.462571 -0.0449077 0)
(0.45765 -0.0412841 0)
(0.45293 -0.0376573 0)
(0.448407 -0.0340286 0)
(0.444077 -0.0304101 0)
(0.43994 -0.0268039 0)
(0.435994 -0.0232201 0)
(0.432242 -0.0196621 0)
(0.428685 -0.016136 0)
(0.425326 -0.0126487 0)
(0.422168 -0.00920702 0)
(0.419213 -0.00582014 0)
(0.416464 -0.00249571 0)
(0.413929 0.000775402 0)
(0.411606 0.00398329 0)
(0.40949 0.00711332 0)
(0.407584 0.0101687 0)
(0.405889 0.0131494 0)
(0.4044 0.0160547 0)
(0.403114 0.0188829 0)
(0.402025 0.0216323 0)
(0.401125 0.0243008 0)
(0.400406 0.0268861 0)
(0.399859 0.0293852 0)
(0.399476 0.0317944 0)
(0.399246 0.0341093 0)
(0.39916 0.0363247 0)
(0.399208 0.0384346 0)
(0.399384 0.0404304 0)
(0.399682 0.0423039 0)
(0.400095 0.0440457 0)
(0.400623 0.0456453 0)
(0.401262 0.0470924 0)
(0.402015 0.0483759 0)
(0.402884 0.0494845 0)
(0.403874 0.050408 0)
(0.404989 0.0511365 0)
(0.406237 0.051661 0)
(0.407626 0.051975 0)
(0.409161 0.0520742 0)
(0.410852 0.0519559 0)
(0.412704 0.0516215 0)
(0.414721 0.0510757 0)
(0.416907 0.050327 0)
(0.419263 0.049388 0)
(0.500307 -0.0575785 0)
(0.493955 -0.0541185 0)
(0.487939 -0.0506699 0)
(0.482148 -0.0472313 0)
(0.476578 -0.0437906 0)
(0.471228 -0.0403386 0)
(0.466095 -0.0368741 0)
(0.461172 -0.0334115 0)
(0.456448 -0.0299453 0)
(0.451919 -0.0264937 0)
(0.44758 -0.0230569 0)
(0.443426 -0.0196421 0)
(0.439454 -0.0162544 0)
(0.435671 -0.0129009 0)
(0.432077 -0.00958733 0)
(0.428674 -0.00632191 0)
(0.425462 -0.00311358 0)
(0.422452 4.7709e-05 0)
(0.419645 0.00315455 0)
(0.417038 0.00618642 0)
(0.414637 0.00914329 0)
(0.412443 0.012027 0)
(0.41046 0.0148367 0)
(0.408685 0.0175722 0)
(0.407117 0.0202329 0)
(0.40575 0.0228187 0)
(0.404578 0.0253291 0)
(0.403594 0.0277635 0)
(0.402789 0.0301206 0)
(0.402154 0.0323981 0)
(0.401677 0.034593 0)
(0.401347 0.0367012 0)
(0.401155 0.038717 0)
(0.401089 0.040634 0)
(0.401142 0.0424442 0)
(0.401306 0.0441377 0)
(0.401576 0.0457046 0)
(0.401948 0.0471337 0)
(0.402422 0.0484136 0)
(0.402998 0.0495325 0)
(0.403681 0.0504786 0)
(0.404474 0.0512405 0)
(0.405387 0.0518081 0)
(0.406426 0.0521725 0)
(0.407603 0.0523267 0)
(0.408925 0.0522668 0)
(0.410405 0.051991 0)
(0.41205 0.0515015 0)
(0.413869 0.0508038 0)
(0.415868 0.0499083 0)
(0.418052 0.0488285 0)
(0.503817 -0.0489834 0)
(0.497431 -0.0455642 0)
(0.491384 -0.0421929 0)
(0.485568 -0.0388429 0)
(0.479986 -0.0355163 0)
(0.474633 -0.0321983 0)
(0.469492 -0.0288764 0)
(0.464563 -0.0255657 0)
(0.459832 -0.022261 0)
(0.455285 -0.0189759 0)
(0.450925 -0.0157161 0)
(0.446746 -0.0124789 0)
(0.442742 -0.00928228 0)
(0.438917 -0.00612812 0)
(0.435272 -0.00302503 0)
(0.431815 3.70431e-05 0)
(0.428547 0.00304933 0)
(0.425466 0.00598899 0)
(0.42258 0.00885457 0)
(0.419894 0.0116466 0)
(0.417415 0.0143643 0)
(0.415144 0.0170068 0)
(0.413083 0.0195739 0)
(0.411231 0.0220663 0)
(0.409584 0.0244849 0)
(0.408139 0.0268309 0)
(0.406889 0.0291054 0)
(0.405826 0.0313094 0)
(0.404941 0.0334425 0)
(0.404221 0.0355039 0)
(0.403656 0.0374912 0)
(0.403233 0.0394005 0)
(0.402939 0.0412262 0)
(0.402764 0.0429611 0)
(0.402698 0.0445966 0)
(0.402732 0.0461224 0)
(0.40286 0.0475267 0)
(0.403078 0.0487975 0)
(0.403386 0.0499217 0)
(0.403784 0.0508861 0)
(0.404278 0.0516777 0)
(0.404873 0.0522838 0)
(0.405579 0.0526931 0)
(0.406406 0.0528966 0)
(0.407366 0.0528862 0)
(0.408472 0.0526577 0)
(0.409737 0.0522104 0)
(0.411174 0.0515466 0)
(0.412794 0.0506726 0)
(0.414608 0.0496005 0)
(0.416625 0.0483449 0)
(0.507304 -0.0404665 0)
(0.500849 -0.0370927 0)
(0.494759 -0.0338036 0)
(0.488906 -0.030555 0)
(0.483275 -0.0273414 0)
(0.477892 -0.02415 0)
(0.472733 -0.0209716 0)
(0.467789 -0.0178017 0)
(0.463045 -0.0146465 0)
(0.458481 -0.0115161 0)
(0.454105 -0.00841559 0)
(0.449896 -0.00535365 0)
(0.445847 -0.00233472 0)
(0.441979 0.000649856 0)
(0.438284 0.00358823 0)
(0.434758 0.00645367 0)
(0.431411 0.00924479 0)
(0.42825 0.0119622 0)
(0.425285 0.0146036 0)
(0.422519 0.0171661 0)
(0.419959 0.0196489 0)
(0.417607 0.0220522 0)
(0.415465 0.0243771 0)
(0.413532 0.0266258 0)
(0.411808 0.0288015 0)
(0.410287 0.0309074 0)
(0.408963 0.0329469 0)
(0.407826 0.0349224 0)
(0.406866 0.0368353 0)
(0.406069 0.038686 0)
(0.405424 0.0404726 0)
(0.404915 0.0421916 0)
(0.404528 0.0438374 0)
(0.40425 0.0454021 0)
(0.404071 0.0468758 0)
(0.40398 0.0482474 0)
(0.40397 0.0495036 0)
(0.404036 0.0506306 0)
(0.404177 0.051613 0)
(0.404396 0.0524355 0)
(0.404697 0.0530831 0)
(0.405088 0.0535414 0)
(0.40558 0.0537973 0)
(0.406187 0.0538398 0)
(0.406923 0.0536607 0)
(0.407804 0.0532548 0)
(0.408847 0.0526212 0)
(0.410068 0.0517625 0)
(0.411485 0.0506862 0)
(0.41311 0.0494057 0)
(0.414958 0.0479374 0)
(0.510753 -0.03194 0)
(0.504197 -0.0286326 0)
(0.498017 -0.0254328 0)
(0.492108 -0.0223119 0)
(0.486444 -0.0192282 0)
(0.481034 -0.0161728 0)
(0.475857 -0.0131317 0)
(0.470899 -0.0101064 0)
(0.46613 -0.00709931 0)
(0.461533 -0.00412194 0)
(0.457117 -0.001165 0)
(0.452868 0.00175153 0)
(0.448779 0.00463051 0)
(0.44485 0.00743827 0)
(0.441083 0.010181 0)
(0.437484 0.0128498 0)
(0.434061 0.0154442 0)
(0.43082 0.0179585 0)
(0.427769 0.0203876 0)
(0.424916 0.0227281 0)
(0.422267 0.0249803 0)
(0.419828 0.027146 0)
(0.417601 0.0292285 0)
(0.415588 0.0312334 0)
(0.413787 0.0331661 0)
(0.412194 0.0350324 0)
(0.4108 0.0368375 0)
(0.409596 0.0385862 0)
(0.40857 0.0402821 0)
(0.407707 0.0419266 0)
(0.406992 0.0435191 0)
(0.406408 0.0450566 0)
(0.405938 0.0465332 0)
(0.405568 0.0479406 0)
(0.405284 0.049268 0)
(0.405074 0.0505019 0)
(0.40493 0.0516273 0)
(0.404847 0.0526276 0)
(0.404821 0.053485 0)
(0.404857 0.0541812 0)
(0.40496 0.0546981 0)
(0.40514 0.0550188 0)
(0.405409 0.0551279 0)
(0.405784 0.055012 0)
(0.406283 0.0546614 0)
(0.406927 0.0540697 0)
(0.407735 0.0532351 0)
(0.408729 0.0521608 0)
(0.409931 0.0508551 0)
(0.411359 0.0493324 0)
(0.413032 0.0476116 0)
(0.514098 -0.0234318 0)
(0.507429 -0.0202427 0)
(0.501164 -0.0171657 0)
(0.495196 -0.0141716 0)
(0.489489 -0.0112269 0)
(0.484044 -0.00830807 0)
(0.478832 -0.00540861 0)
(0.473838 -0.00252105 0)
(0.469045 0.000355521 0)
(0.464431 0.00321674 0)
(0.459981 0.0060381 0)
(0.455687 0.0088071 0)
(0.451542 0.0115217 0)
(0.447551 0.0141736 0)
(0.443713 0.0167549 0)
(0.440031 0.0192554 0)
(0.43652 0.0216672 0)
(0.433187 0.0239837 0)
(0.430041 0.0262016 0)
(0.42709 0.0283207 0)
(0.424345 0.0303426 0)
(0.421813 0.0322709 0)
(0.419497 0.0341115 0)
(0.417402 0.0358716 0)
(0.415525 0.0375596 0)
(0.413863 0.0391845 0)
(0.412406 0.0407545 0)
(0.411144 0.042277 0)
(0.410063 0.043758 0)
(0.409145 0.0452007 0)
(0.408373 0.046606 0)
(0.407727 0.0479714 0)
(0.407189 0.0492912 0)
(0.406739 0.0505561 0)
(0.406361 0.051754 0)
(0.406041 0.0528695 0)
(0.405769 0.0538845 0)
(0.405539 0.0547791 0)
(0.405347 0.0555321 0)
(0.405197 0.0561214 0)
(0.405095 0.0565252 0)
(0.405053 0.0567226 0)
(0.405087 0.0566949 0)
(0.405216 0.0564259 0)
(0.405462 0.055903 0)
(0.40585 0.0551184 0)
(0.406405 0.0540693 0)
(0.407154 0.0527584 0)
(0.408124 0.0511947 0)
(0.40934 0.0493939 0)
(0.410825 0.0473776 0)
(0.517332 -0.0149083 0)
(0.510527 -0.0118652 0)
(0.504161 -0.00893984 0)
(0.498111 -0.00610177 0)
(0.492353 -0.00331645 0)
(0.486879 -0.000548799 0)
(0.481657 0.00221367 0)
(0.476658 0.00497692 0)
(0.471844 0.00772569 0)
(0.467198 0.0104429 0)
(0.462712 0.0131297 0)
(0.458371 0.0157743 0)
(0.454168 0.0183616 0)
(0.450103 0.0208808 0)
(0.44618 0.0233137 0)
(0.442406 0.0256552 0)
(0.438791 0.0278934 0)
(0.435348 0.0300217 0)
(0.432089 0.0320374 0)
(0.429028 0.0339409 0)
(0.426176 0.0357348 0)
(0.423544 0.0374247 0)
(0.421137 0.0390195 0)
(0.418959 0.0405301 0)
(0.41701 0.0419685 0)
(0.415285 0.0433469 0)
(0.413775 0.0446774 0)
(0.412467 0.0459711 0)
(0.411345 0.0472368 0)
(0.41039 0.0484806 0)
(0.409578 0.049705 0)
(0.408889 0.0509083 0)
(0.408298 0.0520849 0)
(0.407783 0.0532246 0)
(0.407326 0.054313 0)
(0.406908 0.055332 0)
(0.406516 0.0562607 0)
(0.406143 0.057075 0)
(0.405785 0.0577489 0)
(0.405445 0.0582555 0)
(0.40513 0.058568 0)
(0.404855 0.0586609 0)
(0.404638 0.0585105 0)
(0.404502 0.058097 0)
(0.404472 0.0574044 0)
(0.404581 0.0564223 0)
(0.404859 0.0551458 0)
(0.405338 0.0535777 0)
(0.406053 0.051727 0)
(0.407035 0.0496108 0)
(0.408314 0.0472537 0)
(0.520346 -0.00636034 0)
(0.513417 -0.00351402 0)
(0.50697 -0.000789242 0)
(0.500869 0.00186455 0)
(0.495077 0.00448186 0)
(0.489582 0.00708371 0)
(0.484346 0.00969264 0)
(0.479338 0.0123025 0)
(0.474507 0.0149171 0)
(0.469835 0.0175287 0)
(0.465316 0.0201143 0)
(0.460925 0.022656 0)
(0.456656 0.0251361 0)
(0.45251 0.0275381 0)
(0.448492 0.0298442 0)
(0.444611 0.0320419 0)
(0.44088 0.0341197 0)
(0.437314 0.0360695 0)
(0.433931 0.0378885 0)
(0.430747 0.0395776 0)
(0.427778 0.0411417 0)
(0.425036 0.0425894 0)
(0.422531 0.043933 0)
(0.420268 0.0451874 0)
(0.418248 0.0463685 0)
(0.416465 0.0474933 0)
(0.414911 0.0485784 0)
(0.41357 0.0496394 0)
(0.412423 0.0506888 0)
(0.411448 0.0517356 0)
(0.410618 0.0527847 0)
(0.409906 0.0538356 0)
(0.409284 0.0548831 0)
(0.408725 0.0559158 0)
(0.408205 0.0569172 0)
(0.407703 0.0578667 0)
(0.407202 0.0587387 0)
(0.406692 0.0595035 0)
(0.406168 0.0601291 0)
(0.405633 0.0605827 0)
(0.405097 0.0608313 0)
(0.404574 0.0608434 0)
(0.404085 0.0605896 0)
(0.40366 0.0600448 0)
(0.403328 0.0591887 0)
(0.403127 0.0580072 0)
(0.403096 0.0564932 0)
(0.403273 0.0546479 0)
(0.403701 0.052481 0)
(0.404419 0.0500101 0)
(0.405464 0.0472644 0)
(0.523048 0.00224334 0)
(0.516013 0.0048487 0)
(0.50949 0.00732545 0)
(0.503352 0.00973764 0)
(0.497556 0.0121275 0)
(0.492076 0.0145414 0)
(0.48685 0.0169894 0)
(0.481845 0.0194675 0)
(0.477028 0.0219674 0)
(0.472357 0.0244863 0)
(0.46781 0.0269846 0)
(0.463373 0.0294413 0)
(0.459039 0.0318355 0)
(0.454804 0.0341422 0)
(0.450677 0.0363406 0)
(0.446671 0.0384127 0)
(0.442803 0.0403441 0)
(0.439094 0.0421262 0)
(0.435566 0.0437551 0)
(0.432241 0.0452319 0)
(0.429139 0.0465642 0)
(0.426276 0.047764 0)
(0.423665 0.0488475 0)
(0.421314 0.0498342 0)
(0.419225 0.0507453 0)
(0.417392 0.0516038 0)
(0.415805 0.0524323 0)
(0.414448 0.0532515 0)
(0.413297 0.054079 0)
(0.412325 0.0549279 0)
(0.411502 0.0558062 0)
(0.410794 0.0567151 0)
(0.410167 0.0576493 0)
(0.409588 0.0585966 0)
(0.409027 0.0595385 0)
(0.408459 0.0604497 0)
(0.407862 0.0612985 0)
(0.407223 0.0620492 0)
(0.406535 0.0626633 0)
(0.405801 0.0631006 0)
(0.40503 0.0633202 0)
(0.404239 0.0632827 0)
(0.403455 0.0629513 0)
(0.40271 0.0622942 0)
(0.402042 0.0612853 0)
(0.401493 0.0599061 0)
(0.401112 0.0581465 0)
(0.400945 0.056006 0)
(0.401044 0.0534935 0)
(0.401458 0.0506281 0)
(0.402234 0.0474407 0)
(0.525164 0.0108244 0)
(0.518097 0.0130969 0)
(0.511576 0.015274 0)
(0.505465 0.0174155 0)
(0.499717 0.0195805 0)
(0.494301 0.0218 0)
(0.489144 0.0240849 0)
(0.484203 0.0264293 0)
(0.479431 0.0288355 0)
(0.474777 0.0312881 0)
(0.470216 0.0337176 0)
(0.465737 0.0361179 0)
(0.461331 0.0384539 0)
(0.456997 0.0406917 0)
(0.452747 0.0428046 0)
(0.448598 0.0447692 0)
(0.444573 0.0465691 0)
(0.440698 0.048193 0)
(0.437003 0.0496352 0)
(0.433514 0.0508987 0)
(0.430259 0.0519935 0)
(0.427258 0.0529358 0)
(0.42453 0.0537461 0)
(0.422085 0.0544497 0)
(0.419926 0.0550747 0)
(0.41805 0.0556509 0)
(0.416444 0.0562077 0)
(0.415089 0.0567729 0)
(0.413959 0.0573701 0)
(0.41302 0.0580181 0)
(0.412236 0.0587284 0)
(0.411565 0.0595048 0)
(0.410966 0.0603426 0)
(0.410398 0.0612287 0)
(0.409825 0.0621409 0)
(0.409213 0.0630489 0)
(0.408536 0.0639149 0)
(0.407777 0.0646962 0)
(0.406927 0.0653448 0)
(0.405987 0.0658106 0)
(0.404966 0.0660436 0)
(0.403886 0.0659947 0)
(0.402776 0.0656184 0)
(0.401673 0.0648744 0)
(0.400625 0.0637296 0)
(0.399681 0.0621596 0)
(0.398898 0.0601501 0)
(0.398335 0.0576982 0)
(0.398052 0.0548122 0)
(0.398109 0.0515127 0)
(0.398565 0.0478314 0)
(0.526339 0.0193532 0)
(0.519392 0.0212479 0)
(0.512989 0.0230685 0)
(0.507031 0.0248866 0)
(0.501458 0.0267827 0)
(0.496206 0.0287852 0)
(0.491191 0.0309162 0)
(0.486373 0.0331479 0)
(0.481717 0.0354754 0)
(0.47711 0.0378617 0)
(0.472545 0.0402668 0)
(0.468043 0.042649 0)
(0.463566 0.044963 0)
(0.459122 0.047169 0)
(0.454728 0.0492306 0)
(0.450409 0.0511177 0)
(0.446197 0.0528066 0)
(0.442125 0.0542831 0)
(0.438231 0.055544 0)
(0.434552 0.0565938 0)
(0.431121 0.057444 0)
(0.427966 0.0581145 0)
(0.425108 0.0586322 0)
(0.422562 0.0590296 0)
(0.420335 0.0593434 0)
(0.418424 0.0596119 0)
(0.416814 0.059874 0)
(0.415485 0.0601656 0)
(0.414405 0.0605186 0)
(0.413533 0.0609582 0)
(0.412825 0.0615012 0)
(0.412232 0.0621544 0)
(0.411701 0.0629142 0)
(0.411183 0.0637658 0)
(0.41063 0.0646835 0)
(0.410003 0.065631 0)
(0.409268 0.0665623 0)
(0.408402 0.0674257 0)
(0.407392 0.0681622 0)
(0.406238 0.0687109 0)
(0.404951 0.0690101 0)
(0.403552 0.0689985 0)
(0.402078 0.0686193 0)
(0.400573 0.0678221 0)
(0.39909 0.0665648 0)
(0.397691 0.0648158 0)
(0.396444 0.0625557 0)
(0.395419 0.0597785 0)
(0.394688 0.0564913 0)
(0.394324 0.0527158 0)
(0.394396 0.0484871 0)
(0.525718 0.0276113 0)
(0.519218 0.0290835 0)
(0.513235 0.0305144 0)
(0.50768 0.0320063 0)
(0.502483 0.0336309 0)
(0.497579 0.0354237 0)
(0.492859 0.0373974 0)
(0.48827 0.0395531 0)
(0.483769 0.0418405 0)
(0.479286 0.0441945 0)
(0.474796 0.0466257 0)
(0.470284 0.0490355 0)
(0.465744 0.051374 0)
(0.461185 0.053589 0)
(0.456632 0.055634 0)
(0.45212 0.0574689 0)
(0.447691 0.059066 0)
(0.443391 0.0604089 0)
(0.439268 0.061493 0)
(0.435365 0.0623242 0)
(0.431725 0.0629173 0)
(0.428386 0.0632971 0)
(0.425378 0.0634975 0)
(0.422721 0.0635599 0)
(0.420424 0.0635309 0)
(0.418485 0.0634602 0)
(0.416891 0.0633973 0)
(0.415615 0.0633891 0)
(0.41462 0.0634777 0)
(0.413858 0.0636969 0)
(0.413274 0.0640699 0)
(0.412807 0.0646079 0)
(0.412394 0.0653086 0)
(0.411972 0.0661565 0)
(0.411484 0.0671198 0)
(0.410876 0.068157 0)
(0.410108 0.0692095 0)
(0.40915 0.0702168 0)
(0.407984 0.0711064 0)
(0.406608 0.0718038 0)
(0.405032 0.0722336 0)
(0.403282 0.0723192 0)
(0.401398 0.07199 0)
(0.399434 0.0711835 0)
(0.397452 0.0698461 0)
(0.395527 0.0679376 0)
(0.393738 0.0654321 0)
(0.392171 0.0623197 0)
(0.39091 0.0586059 0)
(0.390043 0.0543125 0)
(0.389655 0.0494778 0)
(0.521762 0.0351355 0)
(0.516359 0.0362031 0)
(0.511363 0.0372702 0)
(0.506698 0.0384546 0)
(0.502277 0.0398461 0)
(0.498024 0.0414822 0)
(0.493866 0.0433515 0)
(0.489735 0.045472 0)
(0.485559 0.0477819 0)
(0.481308 0.0502231 0)
(0.476956 0.0527349 0)
(0.472475 0.0552419 0)
(0.467885 0.0576692 0)
(0.463205 0.0599499 0)
(0.458473 0.0620241 0)
(0.453737 0.063844 0)
(0.449053 0.0653779 0)
(0.444481 0.0666052 0)
(0.440082 0.0675169 0)
(0.435915 0.0681207 0)
(0.432032 0.0684372 0)
(0.428482 0.068499 0)
(0.425303 0.0683483 0)
(0.422522 0.0680366 0)
(0.420154 0.0676228 0)
(0.418198 0.0671698 0)
(0.416641 0.066741 0)
(0.415451 0.0663975 0)
(0.414584 0.0661938 0)
(0.413984 0.0661742 0)
(0.413581 0.0663708 0)
(0.413302 0.0667999 0)
(0.413069 0.067462 0)
(0.412802 0.0683414 0)
(0.41243 0.069394 0)
(0.411885 0.0705853 0)
(0.411116 0.0718145 0)
(0.410087 0.0730483 0)
(0.408769 0.0741667 0)
(0.407161 0.0750909 0)
(0.405273 0.0757273 0)
(0.40313 0.0759817 0)
(0.400783 0.0757665 0)
(0.398291 0.0750056 0)
(0.395732 0.0736304 0)
(0.393192 0.0715898 0)
(0.390768 0.0688507 0)
(0.388561 0.0653978 0)
(0.386673 0.0612348 0)
(0.385205 0.0563838 0)
(0.384261 0.0508848 0)
(0.51293 0.0410858 0)
(0.509537 0.0418903 0)
(0.506322 0.0427312 0)
(0.503225 0.0437397 0)
(0.500171 0.0450154 0)
(0.497066 0.0466106 0)
(0.493851 0.0485222 0)
(0.490479 0.050733 0)
(0.486883 0.0531865 0)
(0.483039 0.0558108 0)
(0.478939 0.0585115 0)
(0.47458 0.0612115 0)
(0.469986 0.0638141 0)
(0.465198 0.0662367 0)
(0.460273 0.0684052 0)
(0.455282 0.0702607 0)
(0.4503 0.0717617 0)
(0.445405 0.0728861 0)
(0.440677 0.0736291 0)
(0.436193 0.0740002 0)
(0.43202 0.0740234 0)
(0.428219 0.0737367 0)
(0.424839 0.0731934 0)
(0.421916 0.0724583 0)
(0.419471 0.0716057 0)
(0.417509 0.0707155 0)
(0.416013 0.0698679 0)
(0.414949 0.0691415 0)
(0.414265 0.0686071 0)
(0.41389 0.0683221 0)
(0.413741 0.0683303 0)
(0.413726 0.0686548 0)
(0.413751 0.0692973 0)
(0.41371 0.0702454 0)
(0.413524 0.0714423 0)
(0.413089 0.0728377 0)
(0.412361 0.0743588 0)
(0.411294 0.0758742 0)
(0.409822 0.0773405 0)
(0.407973 0.078568 0)
(0.405742 0.0795222 0)
(0.40316 0.0800352 0)
(0.400284 0.0800118 0)
(0.397187 0.0793651 0)
(0.393956 0.0780052 0)
(0.390699 0.0758692 0)
(0.387529 0.0729139 0)
(0.384568 0.069118 0)
(0.381934 0.0644837 0)
(0.379749 0.0590343 0)
(0.378135 0.0528121 0)
(0.49803 0.0444331 0)
(0.497671 0.0452148 0)
(0.497172 0.046061 0)
(0.496473 0.0471358 0)
(0.495496 0.0485397 0)
(0.49416 0.0503184 0)
(0.492413 0.0524811 0)
(0.490219 0.0549981 0)
(0.487526 0.0577871 0)
(0.484337 0.0607614 0)
(0.480673 0.0638323 0)
(0.476551 0.0668762 0)
(0.472021 0.0697845 0)
(0.467152 0.0724572 0)
(0.462029 0.0748054 0)
(0.456752 0.0767603 0)
(0.451426 0.0782735 0)
(0.446156 0.0793215 0)
(0.441044 0.079901 0)
(0.436183 0.0800256 0)
(0.431658 0.079725 0)
(0.427551 0.0790469 0)
(0.423928 0.0780564 0)
(0.420837 0.0768346 0)
(0.418309 0.0754743 0)
(0.416351 0.0740746 0)
(0.414946 0.0727387 0)
(0.414058 0.0715661 0)
(0.41362 0.0706477 0)
(0.413548 0.0700616 0)
(0.413742 0.0698627 0)
(0.414083 0.0700832 0)
(0.414461 0.0707298 0)
(0.414737 0.0717832 0)
(0.414807 0.0732019 0)
(0.414578 0.0748684 0)
(0.413928 0.0767589 0)
(0.412841 0.0786837 0)
(0.411243 0.0805617 0)
(0.409132 0.0822611 0)
(0.406545 0.0836012 0)
(0.403445 0.0845009 0)
(0.399964 0.0847558 0)
(0.396168 0.0843249 0)
(0.392154 0.0830501 0)
(0.388056 0.0808667 0)
(0.384009 0.0777218 0)
(0.380156 0.073588 0)
(0.376639 0.0684655 0)
(0.373598 0.06238 0)
(0.371174 0.0553756 0)
(0.477066 0.0441912 0)
(0.480595 0.0452524 0)
(0.48365 0.0464246 0)
(0.486135 0.0478877 0)
(0.487942 0.0497486 0)
(0.488993 0.0520446 0)
(0.489256 0.0547603 0)
(0.488691 0.0578707 0)
(0.487273 0.0612627 0)
(0.485052 0.0648578 0)
(0.482054 0.0684872 0)
(0.47832 0.0720895 0)
(0.473947 0.0754777 0)
(0.469038 0.0785459 0)
(0.463716 0.0811921 0)
(0.458119 0.0833378 0)
(0.452391 0.0849298 0)
(0.446673 0.0859418 0)
(0.441096 0.0863739 0)
(0.435782 0.086243 0)
(0.430839 0.085587 0)
(0.426368 0.0844661 0)
(0.422455 0.0829622 0)
(0.419168 0.0811747 0)
(0.416546 0.0792187 0)
(0.414605 0.0772189 0)
(0.413331 0.0753053 0)
(0.412678 0.0736057 0)
(0.412571 0.072236 0)
(0.412905 0.0712978 0)
(0.413552 0.0708624 0)
(0.414371 0.070976 0)
(0.415216 0.0716538 0)
(0.415935 0.0728578 0)
(0.416354 0.0745553 0)
(0.416379 0.076638 0)
(0.4159 0.0789486 0)
(0.414817 0.0814428 0)
(0.413113 0.0838754 0)
(0.410728 0.0861512 0)
(0.407701 0.0880364 0)
(0.404048 0.0894174 0)
(0.399866 0.0901123 0)
(0.395269 0.0899734 0)
(0.390322 0.0888706 0)
(0.385235 0.0867043 0)
(0.380154 0.0834093 0)
(0.375246 0.0789512 0)
(0.370682 0.0733269 0)
(0.366622 0.0665655 0)
(0.363225 0.05872 0)
(0.451194 0.0396931 0)
(0.4591 0.0412686 0)
(0.466263 0.0430798 0)
(0.472502 0.0452936 0)
(0.477653 0.0479937 0)
(0.481602 0.0512011 0)
(0.48433 0.0548708 0)
(0.485813 0.0589318 0)
(0.486036 0.0633053 0)
(0.485034 0.0678135 0)
(0.482921 0.0723704 0)
(0.479764 0.0767823 0)
(0.47563 0.0808947 0)
(0.470723 0.0845631 0)
(0.4652 0.0876647 0)
(0.459245 0.0901076 0)
(0.453053 0.0918402 0)
(0.44681 0.0928491 0)
(0.440684 0.0931422 0)
(0.434824 0.0927418 0)
(0.429374 0.0916936 0)
(0.424464 0.0900684 0)
(0.420208 0.0879665 0)
(0.416692 0.0855112 0)
(0.413973 0.0828462 0)
(0.412075 0.0801297 0)
(0.410985 0.0775228 0)
(0.410652 0.0751884 0)
(0.410986 0.0732778 0)
(0.411855 0.0719157 0)
(0.413103 0.0712037 0)
(0.414557 0.0711996 0)
(0.416018 0.07193 0)
(0.417306 0.0733538 0)
(0.418231 0.0753949 0)
(0.418591 0.0779888 0)
(0.418312 0.0809136 0)
(0.4173 0.0840815 0)
(0.415426 0.0872448 0)
(0.412714 0.0902432 0)
(0.409179 0.0928436 0)
(0.404852 0.0948847 0)
(0.39983 0.0961649 0)
(0.394234 0.0964449 0)
(0.38821 0.0956144 0)
(0.381949 0.0935389 0)
(0.375641 0.0901402 0)
(0.369483 0.0853773 0)
(0.363671 0.0792438 0)
(0.358394 0.0717713 0)
(0.353827 0.0630262 0)
(0.42195 0.0308369 0)
(0.434441 0.0330302 0)
(0.445958 0.0357185 0)
(0.456221 0.0390173 0)
(0.465004 0.0429304 0)
(0.472155 0.0474376 0)
(0.477634 0.0524226 0)
(0.481438 0.0578146 0)
(0.483527 0.0634439 0)
(0.484013 0.0692745 0)
(0.482976 0.0750543 0)
(0.480455 0.0806059 0)
(0.476657 0.0857322 0)
(0.471767 0.090284 0)
(0.466006 0.094097 0)
(0.459623 0.0970324 0)
(0.452884 0.0990318 0)
(0.446026 0.100107 0)
(0.439254 0.10029 0)
(0.432755 0.0996115 0)
(0.42671 0.0981249 0)
(0.421289 0.0959174 0)
(0.416643 0.0931114 0)
(0.412885 0.0898602 0)
(0.410094 0.0863431 0)
(0.408304 0.0827565 0)
(0.407502 0.0793082 0)
(0.40763 0.0762009 0)
(0.408575 0.07363 0)
(0.410175 0.0717571 0)
(0.412231 0.0707155 0)
(0.414526 0.070584 0)
(0.416808 0.0713985 0)
(0.418817 0.0731124 0)
(0.420339 0.0756292 0)
(0.421142 0.0788503 0)
(0.421074 0.0825842 0)
(0.420021 0.0866021 0)
(0.417905 0.0907014 0)
(0.414689 0.0946059 0)
(0.41044 0.0981544 0)
(0.405222 0.101036 0)
(0.399075 0.103004 0)
(0.392219 0.1039 0)
(0.384823 0.10347 0)
(0.377118 0.101575 0)
(0.369329 0.0981332 0)
(0.361675 0.0930929 0)
(0.354377 0.0864451 0)
(0.34765 0.0782293 0)
(0.341689 0.0685272 0)
(0.389906 0.0178332 0)
(0.407083 0.020716 0)
(0.423103 0.0244158 0)
(0.437555 0.0290569 0)
(0.450091 0.0345131 0)
(0.46048 0.0407434 0)
(0.468688 0.0475136 0)
(0.474721 0.0546632 0)
(0.478681 0.0620533 0)
(0.480602 0.069608 0)
(0.480547 0.0769631 0)
(0.478705 0.0839659 0)
(0.475223 0.0903273 0)
(0.470378 0.0959331 0)
(0.464369 0.100611 0)
(0.457515 0.104172 0)
(0.45019 0.106551 0)
(0.442705 0.107777 0)
(0.435286 0.107892 0)
(0.428138 0.106928 0)
(0.421492 0.104947 0)
(0.415576 0.102059 0)
(0.410584 0.0984141 0)
(0.406669 0.0942038 0)
(0.403933 0.0896526 0)
(0.402422 0.085007 0)
(0.402124 0.0805274 0)
(0.402965 0.076478 0)
(0.404802 0.0730976 0)
(0.407429 0.0706078 0)
(0.410593 0.0691757 0)
(0.414004 0.0689196 0)
(0.417317 0.0698661 0)
(0.420191 0.0719818 0)
(0.422362 0.0751501 0)
(0.423512 0.0792303 0)
(0.423457 0.0839819 0)
(0.422095 0.0891332 0)
(0.419301 0.0943897 0)
(0.415184 0.0995197 0)
(0.409781 0.104171 0)
(0.4031 0.108145 0)
(0.395436 0.11106 0)
(0.386925 0.112586 0)
(0.377741 0.11266 0)
(0.368234 0.111019 0)
(0.358656 0.107589 0)
(0.349233 0.1023 0)
(0.34021 0.0951375 0)
(0.331826 0.0861475 0)
(0.324286 0.0754318 0)
(0.354456 -0.000538129 0)
(0.376754 0.00312708 0)
(0.397477 0.00805932 0)
(0.41599 0.0145062 0)
(0.431837 0.0217594 0)
(0.444837 0.0300437 0)
(0.454957 0.0389686 0)
(0.462456 0.0482907 0)
(0.467534 0.0579629 0)
(0.470241 0.0677232 0)
(0.470733 0.0771943 0)
(0.469177 0.086547 0)
(0.465877 0.094652 0)
(0.461154 0.1019 0)
(0.455126 0.107707 0)
(0.448117 0.111801 0)
(0.440589 0.11448 0)
(0.432876 0.115879 0)
(0.425186 0.115951 0)
(0.41774 0.114674 0)
(0.410829 0.112118 0)
(0.404745 0.108418 0)
(0.399741 0.103759 0)
(0.396022 0.098382 0)
(0.393722 0.092568 0)
(0.3929 0.0866265 0)
(0.393548 0.0808909 0)
(0.395565 0.0756789 0)
(0.398765 0.0713254 0)
(0.40288 0.0680994 0)
(0.407558 0.0662332 0)
(0.412373 0.065905 0)
(0.416853 0.0671157 0)
(0.420526 0.0699167 0)
(0.423039 0.074058 0)
(0.424049 0.0793711 0)
(0.423333 0.0855058 0)
(0.420802 0.0922177 0)
(0.416546 0.0989982 0)
(0.410592 0.105584 0)
(0.403177 0.111636 0)
(0.394454 0.116867 0)
(0.384412 0.120967 0)
(0.373636 0.123322 0)
(0.362357 0.123818 0)
(0.350776 0.1224 0)
(0.339248 0.118942 0)
(0.32797 0.113341 0)
(0.317199 0.10559 0)
(0.307193 0.0957427 0)
(0.298162 0.0839071 0)