/*--------------------------------*- C++ -*----------------------------------*\
  =========                 |
  \\      /  F ield         | OpenFOAM: The Open Source CFD Toolbox
   \\    /   O peration     | Website:  https://openfoam.org
    \\  /    A nd           | Version:  11
     \\/     M anipulation  |
\*---------------------------------------------------------------------------*/
FoamFile
{
    format      ascii;
    class       surfaceScalarField;
    location    "2";
    object      phi;
}
// * * * * * * * * * * * * * * * * * * * * * * * * * * * * * * * * * * * * * //

dimensions      [0 3 -1 0 0 0 0];

internalField   nonuniform List<scalar> 
18960
(
0.0893444
0.000456737
-0.0898012
0.0888807
0.000463708
0.0881703
0.000710388
0.0863227
0.00184757
0.0832299
0.00309286
0.0807355
0.0024944
0.0806484
8.70509e-05
0.0822192
-0.0015708
0.0846171
-0.00239789
0.0866817
-0.00206457
0.0881341
-0.00145243
0.0890693
-0.000935187
0.0896605
-0.000591188
0.090073
-0.00041251
0.0903794
-0.000306381
0.0905992
-0.000219852
0.0907447
-0.000145502
0.0908352
-9.04718e-05
0.0908941
-5.88942e-05
0.0909207
-2.65644e-05
0.0908743
4.6384e-05
0.0908011
7.32158e-05
0.0906862
0.000114853
0.0905506
0.000135582
0.0903798
0.000170839
0.0901677
0.000212093
0.089946
0.000221743
0.0897849
0.000161025
0.0896673
0.00011766
0.089639
2.82409e-05
0.0896374
1.60579e-06
0.089754
-0.000116533
0.0898999
-0.000145928
0.0900728
-0.000172884
0.0903431
-0.000270302
0.0906585
-0.000315412
0.0911053
-0.000446847
0.0916539
-0.000548603
0.0921645
-0.000510521
7.73532e-05
0.0920871
0.0893097
0.000813984
-0.089667
0.0888353
0.000938105
0.088187
0.00135869
0.0876938
0.00234081
0.0877895
0.00299711
0.0879073
0.0023766
0.0875952
0.000399231
0.0872503
-0.00122592
0.0866844
-0.00183204
0.0861447
-0.00152481
0.0858812
-0.00118892
0.0858639
-0.00091793
0.0861304
-0.000857722
0.086626
-0.000908092
0.0872475
-0.000927867
0.0878679
-0.000840281
0.0884036
-0.000681156
0.088875
-0.000561857
0.0892522
-0.00043614
0.0895282
-0.000302568
0.0897551
-0.00018049
0.0898531
-2.48018e-05
0.0898522
0.000115752
0.0897711
0.000216675
0.0896046
0.000337345
0.0893867
0.000430044
0.0890822
0.000526215
0.0887439
0.000499338
0.0883312
0.000530369
0.0880047
0.000354666
0.087588
0.000418295
0.0873052
0.000166269
0.0869505
0.000208829
0.0867685
9.118e-06
0.0864752
2.29885e-05
0.0862909
-0.000131066
0.0859344
-9.04179e-05
0.0857208
-0.000334989
0.0858235
-0.000613179
-0.000716056
0.0866169
0.0893454
0.0012123
-0.0897437
0.0889531
0.00133038
0.0883038
0.002008
0.0873334
0.00331122
0.0864309
0.00389954
0.085646
0.00316148
0.0855629
0.000482415
0.0858279
-0.001491
0.0867279
-0.00273196
0.0879873
-0.00278424
0.0889403
-0.00214197
0.0896845
-0.00166206
0.0902126
-0.00138585
0.0905761
-0.00127159
0.0908051
-0.00115688
0.0909495
-0.000984701
0.091083
-0.00081466
0.0911569
-0.000635682
0.0912065
-0.000485797
0.0912325
-0.00032857
0.0911961
-0.000144108
0.0911689
2.4596e-06
0.0910888
0.000195848
0.090962
0.000343454
0.0907933
0.000506019
0.0906441
0.000579258
0.0904993
0.000671038
0.090441
0.000557582
0.0903704
0.000601018
0.090409
0.000316087
0.0904646
0.000362634
0.0905732
5.77478e-05
0.0907171
6.4876e-05
0.0909497
-0.000223479
0.0911631
-0.0001904
0.0915477
-0.000515674
0.0920333
-0.000576032
0.0923925
-0.000694137
0.0925918
-0.000812563
-0.0005396
0.0924154
0.0893949
0.00164294
-0.0898255
0.0889038
0.00182142
0.0882346
0.00267721
0.0878905
0.00365537
0.0880925
0.0036975
0.0889921
0.00226192
0.0898145
-0.000340053
0.090203
-0.00187942
0.0898857
-0.00241465
0.0890724
-0.00197097
0.0882109
-0.0012805
0.0877094
-0.00116052
0.087558
-0.00123444
0.0876043
-0.00131788
0.0878213
-0.00137392
0.0882384
-0.00140183
0.0887004
-0.00127665
0.0891087
-0.00104395
0.0894701
-0.000847209
0.0897194
-0.000577904
0.0899306
-0.000355261
0.090002
-6.89056e-05
0.0900228
0.00017497
0.0899728
0.000393484
0.0898721
0.000606738
0.0897238
0.000727554
0.0894678
0.000927046
0.0891773
0.000848085
0.0887817
0.000996633
0.088419
0.000678717
0.0879951
0.000786573
0.0876616
0.000391273
0.0872907
0.000435706
0.0870643
2.96417e-06
0.0868247
4.92295e-05
0.0865747
-0.000265674
0.0863408
-0.000342143
0.0862554
-0.000608732
0.086385
-0.000942238
-0.00128723
0.0871327
0.0894285
0.00204426
-0.0898298
0.0889605
0.00228946
0.0884978
0.00313989
0.0884058
0.00374735
0.0885892
0.00351407
0.0888518
0.00199932
0.0886272
-0.000115414
0.0880183
-0.00127055
0.0875757
-0.00197199
0.0878999
-0.00229524
0.0886783
-0.00205889
0.0894295
-0.00191171
0.0900283
-0.00183324
0.0904649
-0.00175445
0.0907634
-0.00167239
0.0909207
-0.00155917
0.0910047
-0.00136065
0.0910694
-0.00110864
0.0910912
-0.000868976
0.0911088
-0.000595504
0.0910902
-0.00033671
0.0911107
-8.93483e-05
0.0910469
0.000238752
0.0909922
0.00044819
0.0908645
0.000734387
0.0907424
0.000849632
0.0906261
0.00104339
0.0905965
0.000877735
0.0906062
0.000986908
0.0906584
0.000626501
0.0908125
0.000632426
0.0909281
0.000275718
0.0911446
0.000219237
0.0913003
-0.000152739
0.0915105
-0.000160995
0.0918483
-0.000603521
0.0922193
-0.000713112
0.0925807
-0.000970121
0.0927145
-0.00107606
-0.000921421
0.0923487
0.0894477
0.00243029
-0.0898337
0.0890538
0.00268328
0.0887863
0.00340741
0.0887941
0.00373957
0.0891162
0.00319194
0.0898902
0.00122536
0.0905041
-0.000729357
0.0908525
-0.00161887
0.0908251
-0.00194462
0.090425
-0.00189512
0.089763
-0.00139696
0.0891861
-0.00133481
0.0888295
-0.00147664
0.0886841
-0.00160899
0.0886925
-0.0016808
0.0888317
-0.00169838
0.0891088
-0.0016378
0.0894352
-0.00143498
0.0897593
-0.00119308
0.0899923
-0.000828542
0.0901726
-0.000517047
0.0902536
-0.000170253
0.0902907
0.000201618
0.090225
0.000513854
0.0901619
0.000797502
0.0900898
0.000921705
0.0899069
0.00122632
0.0896389
0.0011457
0.0892918
0.00133402
0.0889105
0.00100783
0.0884838
0.00105911
0.0881189
0.00064066
0.0877304
0.000607666
0.0874711
0.000106622
0.0872876
2.24903e-05
0.0870746
-0.000390557
0.0869052
-0.000543643
0.0868077
-0.000872681
0.086983
-0.00125131
-0.00174959
0.0878111
0.0895522
0.00275719
-0.0898792
0.0892375
0.00299799
0.0890833
0.00356167
0.0892283
0.00359453
0.089624
0.0027963
0.0901043
0.00074504
0.0900534
-0.000678485
0.0895293
-0.00109474
0.0888356
-0.00125095
0.088427
-0.00148647
0.088695
-0.00166499
0.0892796
-0.00191941
0.0898414
-0.00203849
0.0903059
-0.00207341
0.0906451
-0.00202001
0.0908609
-0.00191421
0.0909633
-0.00174018
0.0910295
-0.00150121
0.0910407
-0.00120423
0.0910593
-0.000847151
0.0910402
-0.000497939
0.0910787
-0.000208761
0.0910689
0.000211348
0.0910628
0.00052001
0.0909873
0.000872995
0.0908655
0.00104349
0.0907873
0.00130456
0.09077
0.00116299
0.0908106
0.00129343
0.0909179
0.000900454
0.0911028
0.000874252
0.0912548
0.000488682
0.0915159
0.000346503
0.0916482
-2.56548e-05
0.0917642
-9.35038e-05
0.0920602
-0.00068657
0.0923196
-0.000802993
0.0926517
-0.00120479
0.0927257
-0.00132532
-0.00124784
0.0922239
0.0896762
0.00303623
-0.0899553
0.0894209
0.00325328
0.089369
0.00361365
0.089541
0.00342251
0.0901087
0.00222852
0.0906101
0.000243647
0.0907544
-0.000822764
0.0908237
-0.00116403
0.0909226
-0.00134987
0.0908559
-0.00141976
0.0906162
-0.0014253
0.0902024
-0.00150556
0.0898273
-0.00166337
0.0895837
-0.0018299
0.089483
-0.00191929
0.0895005
-0.00193165
0.0896309
-0.00187064
0.0898414
-0.00171167
0.0900969
-0.00145974
0.0903164
-0.00106667
0.0904735
-0.000655029
0.0905439
-0.00027921
0.0905898
0.0001655
0.0905709
0.000538896
0.0905023
0.000941618
0.0904642
0.00108153
0.0903645
0.00140435
0.0901544
0.00137307
0.0898527
0.00159507
0.089478
0.00127519
0.0890692
0.00128305
0.088668
0.000889924
0.0882812
0.000733289
0.0880289
0.000226567
0.0879332
2.28876e-06
0.0877524
-0.000505843
0.0876073
-0.000657886
0.0875555
-0.00115293
0.0877325
-0.00150232
-0.00208843
0.0885731
0.0898405
0.00325421
-0.0900585
0.0896452
0.00344859
0.0896903
0.00356852
0.0900402
0.00307269
0.0906445
0.0016242
0.0908851
2.98642e-06
0.0908008
-0.000738433
0.0905239
-0.000887104
0.0900545
-0.000880467
0.0895709
-0.000936169
0.0893734
-0.00122784
0.0894908
-0.00162293
0.0898261
-0.0019987
0.0902094
-0.00221319
0.0905386
-0.00224849
0.0907777
-0.00217066
0.0909484
-0.00204143
0.0910205
-0.00178374
0.0910483
-0.00148754
0.0910802
-0.00109852
0.0910925
-0.00066734
0.0911078
-0.000294541
0.0911468
0.000126493
0.0911693
0.000516415
0.0911605
0.000950415
0.0910633
0.00117868
0.0909646
0.0015031
0.0909526
0.0013851
0.0910552
0.00149242
0.0911701
0.00116031
0.0913665
0.00108669
0.0915767
0.000679711
0.0918069
0.000503024
0.0919246
0.000108852
0.0919695
-4.26e-05
0.0921753
-0.000711606
0.0923873
-0.000869897
0.0926215
-0.00138716
0.0926297
-0.00151053
-0.00155704
0.0920983
0.0900168
0.00345394
-0.0902165
0.0898916
0.00357373
0.0900095
0.00345065
0.09041
0.00267218
0.090872
0.00116224
0.0910343
-0.000159345
0.0909652
-0.000669292
0.0908694
-0.000791355
0.0908906
-0.000901674
0.091
-0.00104559
0.0909371
-0.00116487
0.0906875
-0.00137338
0.0904564
-0.00176759
0.090271
-0.00202777
0.0901689
-0.00214639
0.0901439
-0.0021457
0.0902107
-0.00210816
0.0903432
-0.00191631
0.0904973
-0.00164156
0.0906966
-0.00129784
0.0908699
-0.000840635
0.0909108
-0.000335494
0.0909031
0.000134199
0.0909217
0.000497776
0.0908816
0.000990586
0.0908488
0.00121144
0.0908003
0.00155161
0.0906583
0.00152711
0.0904348
0.00171589
0.0901134
0.00148177
0.0897088
0.00149124
0.0892979
0.00109061
0.088936
0.000864895
0.0887161
0.000328759
0.0886823
-8.79052e-06
0.088499
-0.000528297
0.0884176
-0.000788496
0.0884174
-0.0013869
0.0885783
-0.00167149
-0.0023351
0.0893564
0.0902633
0.00361004
-0.0904194
0.0902343
0.00360276
0.090472
0.00321294
0.0909062
0.00223797
0.0911268
0.000941624
0.0911279
-0.000160492
0.0910648
-0.000606202
0.0909369
-0.000663437
0.0907464
-0.000711189
0.0904494
-0.000748591
0.0901953
-0.000910753
0.0900795
-0.0012576
0.0901486
-0.00183663
0.0903414
-0.00222063
0.0905683
-0.00237329
0.0907916
-0.00236897
0.0909536
-0.00227019
0.0910736
-0.00203629
0.091128
-0.0016959
0.091178
-0.00134788
0.0911958
-0.000858416
0.091238
-0.000377673
0.0913113
6.08391e-05
0.0913568
0.000452328
0.0913934
0.00095394
0.0913319
0.00127298
0.0912365
0.00164703
0.0912096
0.00155399
0.0912955
0.00162993
0.0914116
0.00136568
0.0916358
0.00126708
0.0918383
0.000888116
0.0920687
0.00063452
0.0921927
0.000204757
0.0921628
2.11191e-05
0.0922923
-0.000657851
0.0924198
-0.00091601
0.0925664
-0.0015335
0.0925141
-0.00161916
-0.00183278
0.0920118
0.0905497
0.00372625
-0.0906659
0.0905754
0.00357705
0.0907768
0.00301156
0.0910758
0.00193899
0.091216
0.000801417
0.0912118
-0.000156307
0.0911602
-0.000554652
0.0910538
-0.000556962
0.090982
-0.000639465
0.0910066
-0.000773192
0.0910401
-0.000944242
0.0909886
-0.00120605
0.0908644
-0.00171244
0.0907677
-0.00212389
0.0907038
-0.00230947
0.0907087
-0.00237383
0.0907532
-0.00231469
0.0908408
-0.00212393
0.090977
-0.00183207
0.091121
-0.00149184
0.0912588
-0.000996289
0.0913264
-0.000445258
0.0913069
8.03363e-05
0.0913264
0.000432819
0.0912835
0.000996873
0.0912754
0.00128113
0.0912627
0.0016597
0.0911811
0.00163559
0.0910133
0.00179769
0.0907598
0.00161916
0.0904106
0.00161629
0.0900224
0.00127636
0.0896938
0.000963137
0.0894768
0.000421695
0.0894769
2.10743e-05
0.0893226
-0.000503533
0.0892942
-0.00088768
0.0892893
-0.00152856
0.0894774
-0.00180725
-0.00252665
0.0901712
0.0908199
0.00380372
-0.0908974
0.0908457
0.0035513
0.0910566
0.00280059
0.0913044
0.00169124
0.0913564
0.000749376
0.0912338
-3.36254e-05
0.0911245
-0.000445402
0.0911041
-0.000536538
0.0910679
-0.000603288
0.090951
-0.000656317
0.090818
-0.000811186
0.0907263
-0.00111436
0.0906783
-0.00166442
0.0907117
-0.00215729
0.0908223
-0.0024201
0.0909708
-0.00252238
0.0911209
-0.00246475
0.091248
-0.00225101
0.0913195
-0.00190362
0.091368
-0.00154034
0.0914043
-0.00103259
0.0914762
-0.0005171
0.0915852
-2.87049e-05
0.0916269
0.00039116
0.0916983
0.000925484
0.0916929
0.00128655
0.0916284
0.00172419
0.0915724
0.00169159
0.0916061
0.00176392
0.0917334
0.00149189
0.0919181
0.00143162
0.0921437
0.00105075
0.0923341
0.000772759
0.0924372
0.00031859
0.0923801
7.81715e-05
0.092458
-0.000581451
0.092495
-0.000924632
0.0924876
-0.00152123
0.0924346
-0.00175419
-0.00211764
0.0920256
0.0910486
0.00386245
-0.0911074
0.0910962
0.00350374
0.091282
0.00261476
0.091407
0.00156621
0.0913541
0.00080234
0.091222
9.8463e-05
0.0911807
-0.000404078
0.0911873
-0.000543172
0.0911463
-0.000562286
0.0911071
-0.000617082
0.0911696
-0.000873728
0.091223
-0.00116778
0.0912302
-0.00167158
0.0912249
-0.00215198
0.0912175
-0.00241277
0.0912254
-0.00253025
0.0912814
-0.00252079
0.0913515
-0.00232105
0.0914645
-0.00201662
0.0915747
-0.00165059
0.0917129
-0.0011708
0.0918055
-0.000609691
0.0917634
1.34247e-05
0.0917763
0.000378238
0.0917578
0.000944033
0.0917736
0.00127075
0.0917787
0.00171906
0.0917532
0.0017171
0.0916434
0.00187373
0.0914333
0.001702
0.0911785
0.00168638
0.0908457
0.0013835
0.0905129
0.00110558
0.0903009
0.000530644
0.0902821
9.69297e-05
0.0901724
-0.000471737
0.0901848
-0.000937028
0.090216
-0.0015524
0.0904151
-0.0019533
-0.0026583
0.0909557
0.0913092
0.00393612
-0.0913828
0.0913512
0.00346176
0.0914769
0.002489
0.0915022
0.00154095
0.0913916
0.000912899
0.0912499
0.000240152
0.091158
-0.000312168
0.0911616
-0.000546764
0.0912426
-0.000643311
0.0913419
-0.000716378
0.0913812
-0.000912938
0.0913632
-0.00114979
0.091314
-0.00162242
0.0912768
-0.00211477
0.0912875
-0.00242344
0.0913509
-0.00259363
0.091439
-0.00260891
0.0915386
-0.00242064
0.091608
-0.00208606
0.0916773
-0.0017199
0.0917166
-0.00121005
0.091809
-0.000702127
0.0919647
-0.000142289
0.0920105
0.000332497
0.0920721
0.000882446
0.0921301
0.00121269
0.0921199
0.00172928
0.0920564
0.00178062
0.0920439
0.0018862
0.0921243
0.00162161
0.0922783
0.00153237
0.0924854
0.00117642
0.0926652
0.00092579
0.0927553
0.00044057
0.0926807
0.000171516
0.0927069
-0.000497923
0.0926224
-0.000852583
0.0925874
-0.00151744
0.0924654
-0.00183124
-0.00243274
0.0922398
0.0915148
0.00395335
-0.091532
0.0915766
0.00339998
0.0916444
0.00242116
0.0915973
0.00158808
0.0914791
0.00103113
0.0913217
0.000397519
0.0912643
-0.000254765
0.0913252
-0.000607674
0.0914309
-0.00074898
0.0915275
-0.000813002
0.0916001
-0.000985588
0.0916931
-0.00124278
0.0917135
-0.00164278
0.0917299
-0.00213116
0.0917361
-0.00242965
0.0917413
-0.0025989
0.0917749
-0.00264246
0.0918479
-0.00249365
0.0919569
-0.002195
0.0920625
-0.00182553
0.0922049
-0.00135244
0.0923099
-0.00080712
0.0922807
-0.000113078
0.0923123
0.000300894
0.0923091
0.000885621
0.0923367
0.00118509
0.0923818
0.00168415
0.0923801
0.00178233
0.0923143
0.00195202
0.0921753
0.00176059
0.0919569
0.00175074
0.091712
0.00142132
0.0914303
0.00120747
0.0912521
0.000618826
0.0912081
0.000215469
0.091154
-0.000443817
0.0911789
-0.000877469
0.0912365
-0.00157503
0.0914041
-0.00199879
-0.00275413
0.0917255
0.0918292
0.00396099
-0.0918369
0.0918707
0.00335851
0.0918376
0.00245425
0.0917368
0.00168892
0.0916097
0.00115826
0.0914433
0.000563913
0.091388
-0.000199513
0.0914511
-0.000670785
0.0915671
-0.000864938
0.0916942
-0.000940089
0.0918445
-0.00113586
0.0919597
-0.00135799
0.0919578
-0.00164094
0.0919011
-0.0020744
0.0918794
-0.00240794
0.0918713
-0.0025908
0.0919232
-0.00269436
0.0919972
-0.00256772
0.0920694
-0.00226718
0.0921524
-0.00190855
0.0921993
-0.00139931
0.0922812
-0.000889039
0.0924503
-0.000282142
0.0925265
0.000224674
0.0926092
0.000802868
0.0926891
0.00110527
0.0927243
0.00164888
0.0927232
0.00178345
0.0926776
0.00199766
0.0926678
0.00177036
0.0927739
0.00164466
0.0929276
0.00126762
0.0930824
0.00105263
0.0931471
0.000554167
0.0930936
0.00026901
0.0930594
-0.000409623
0.0929429
-0.000761016
0.0928943
-0.00152638
0.0927656
-0.00187011
-0.00263925
0.0926507
0.0920448
0.00396695
-0.0920507
0.0920472
0.0033561
0.0919702
0.00253126
0.0918609
0.00179819
0.0917512
0.00126799
0.0916172
0.000697889
0.091543
-0.000125339
0.0915651
-0.000692915
0.0916678
-0.000967626
0.0918525
-0.00112473
0.0920246
-0.00130803
0.0921602
-0.00149353
0.092199
-0.00167975
0.0922075
-0.00208297
0.0922318
-0.00243218
0.0922481
-0.00260708
0.0922847
-0.00273104
0.0923803
-0.00266331
0.0924865
-0.0023733
0.0925899
-0.00201198
0.0927331
-0.00154251
0.092874
-0.00103
0.0929013
-0.000309434
0.0929507
0.000175333
0.092977
0.000776573
0.0929933
0.00108896
0.0930595
0.00158267
0.093108
0.00173497
0.0931045
0.00200116
0.0930248
0.00185003
0.0928475
0.00182191
0.0926541
0.00146103
0.0924317
0.00127508
0.0922955
0.000690376
0.0922424
0.000322145
0.092217
-0.000384266
0.0922538
-0.000797861
0.0923105
-0.00158304
0.0924087
-0.00196835
-0.00279767
0.0925672
0.0923437
0.00397133
-0.092348
0.0923265
0.00337323
0.0922085
0.00264926
0.0920748
0.00193186
0.0919617
0.00138115
0.0918431
0.000816499
0.0917258
-8.05656e-06
0.091696
-0.000663144
0.0917837
-0.00105525
0.0919662
-0.00130728
0.0921673
-0.00150909
0.0923453
-0.00167159
0.0924776
-0.00181205
0.0924999
-0.00210526
0.0925195
-0.00245175
0.0925515
-0.0026391
0.0925675
-0.00274701
0.0926168
-0.00271266
0.0926744
-0.00243093
0.0927655
-0.00210308
0.0928192
-0.00159617
0.0929033
-0.00111412
0.0930553
-0.000461417
0.0932251
5.56673e-06
0.0933043
0.000697362
0.0933843
0.00100896
0.0934425
0.00152447
0.0934723
0.00170517
0.0934982
0.00197527
0.0934918
0.00185642
0.0935098
0.00180392
0.0935737
0.00139708
0.093666
0.00118283
0.0937073
0.000649048
0.0936526
0.00037689
0.0936127
-0.000344436
0.0934876
-0.000672668
0.0934048
-0.0015003
0.0933182
-0.00188174
-0.00275786
0.0932784
0.0925771
0.00402397
-0.0926297
0.0925025
0.00344784
0.092353
0.00279878
0.0922171
0.00206772
0.092149
0.00144922
0.0920447
0.000920891
0.0919342
0.000102438
0.091895
-0.000624001
0.0919597
-0.00111992
0.0921077
-0.00145533
0.0923366
-0.0017379
0.0925659
-0.00190097
0.0927395
-0.00198565
0.0928332
-0.00219888
0.0928885
-0.00250706
0.0929365
-0.00268711
0.0929821
-0.00279262
0.0930274
-0.00275799
0.0931341
-0.00253757
0.0932436
-0.00221263
0.093379
-0.00173156
0.0935155
-0.00125062
0.0936339
-0.000579862
0.09368
-4.05416e-05
0.0937771
0.000600254
0.0938174
0.000968675
0.0938753
0.00146662
0.0939484
0.00163205
0.0940013
0.00192235
0.0940043
0.0018534
0.0939222
0.00188602
0.0937823
0.001537
0.0936025
0.00136263
0.0934729
0.000778617
0.0934063
0.00044354
0.0933665
-0.000304665
0.0933778
-0.000683935
0.0934095
-0.00153204
0.0934245
-0.00189674
-0.00283185
0.0934985
0.0928069
0.00415738
-0.0929403
0.0927051
0.00354966
0.0926136
0.00289026
0.0924999
0.00218144
0.0924311
0.00151798
0.092361
0.000990955
0.0922359
0.000227552
0.0921669
-0.000554941
0.0921827
-0.00113576
0.0923159
-0.00158851
0.0925162
-0.00193821
0.0927794
-0.00216423
0.0930267
-0.00223291
0.0932066
-0.00237877
0.0932963
-0.00259673
0.0933725
-0.00276334
0.0934069
-0.00282699
0.0934671
-0.00281818
0.0935168
-0.0025873
0.0936145
-0.00231029
0.0936869
-0.00180397
0.0937794
-0.00134317
0.0938807
-0.000681124
0.0940588
-0.000218626
0.0941789
0.000480158
0.0942917
0.000855797
0.094357
0.0014014
0.0944429
0.00154607
0.0944783
0.00188703
0.0945156
0.00181604
0.094522
0.00187967
0.0945509
0.0015081
0.0945527
0.00136079
0.0945479
0.000783398
0.0944806
0.000510923
0.0944081
-0.00023222
0.0943097
-0.000585547
0.0942281
-0.00145043
0.0941722
-0.00184085
-0.00277823
0.0941186
0.092997
0.00422479
-0.0930644
0.0929627
0.00358397
0.0929098
0.00294322
0.0927925
0.00229872
0.0926909
0.00161961
0.0926233
0.00105847
0.0925208
0.000330133
0.0924567
-0.00049089
0.0924532
-0.00113227
0.0925424
-0.00167765
0.0927406
-0.00213643
0.0930101
-0.00243379
0.0933286
-0.00255135
0.0935805
-0.0026307
0.093745
-0.00276124
0.093847
-0.00286529
0.0939043
-0.00288431
0.0939529
-0.00286676
0.0940149
-0.00264935
0.0940918
-0.0023872
0.0942225
-0.00193462
0.094366
-0.00148669
0.0944838
-0.000798964
0.0945901
-0.000324925
0.0947348
0.000335439
0.0948439
0.000746752
0.0949378
0.00130745
0.0949968
0.00148712
0.0950657
0.0018181
0.0951457
0.00173601
0.0951524
0.00187298
0.0951211
0.00153941
0.0949956
0.0014863
0.0948841
0.000894953
0.0947811
0.000613857
0.094715
-0.000166123
0.0946756
-0.000546142
0.0946641
-0.00143886
0.0946259
-0.00180268
-0.00274624
0.0945939
0.0934782
0.00434661
-0.0936
0.0933631
0.00369905
0.093243
0.00306339
0.0931208
0.00242093
0.0930165
0.00172382
0.0929797
0.00109533
0.0929074
0.000402457
0.0928554
-0.000438968
0.0928565
-0.00113337
0.0928769
-0.00169804
0.0930278
-0.00228728
0.0932932
-0.00269921
0.0936057
-0.00286388
0.0939272
-0.00295217
0.0941636
-0.00299767
0.0943447
-0.00304639
0.0944485
-0.00298807
0.094537
-0.00295529
0.0945881
-0.00270047
0.0946577
-0.00245678
0.0947414
-0.00201831
0.094874
-0.00161927
0.0949829
-0.000907838
0.0951358
-0.00047781
0.0952809
0.000190337
0.0954522
0.000575371
0.0955781
0.00118162
0.0956803
0.00138486
0.0957359
0.00176251
0.0957899
0.001682
0.0958349
0.00182805
0.0958669
0.00150734
0.0958791
0.00147411
0.0958484
0.000925713
0.09577
0.000692242
0.0956874
-8.34999e-05
0.0955736
-0.000432423
0.0954825
-0.00134773
0.0953795
-0.00169967
-0.00269858
0.0953318
0.0936109
0.00443131
-0.0936956
0.0935017
0.00380823
0.0934393
0.0031258
0.0934103
0.00244992
0.0933884
0.00174574
0.0933836
0.00110018
0.0933466
0.000439405
0.0932919
-0.000384262
0.0932962
-0.00113767
0.0933215
-0.00172327
0.0933874
-0.00235324
0.0935916
-0.0029034
0.0939017
-0.00317395
0.0942379
-0.00328839
0.0945547
-0.00331445
0.0948115
-0.00330326
0.0949998
-0.00317629
0.0951259
-0.00308145
0.0952334
-0.00280798
0.0953044
-0.00252776
0.0953754
-0.00208925
0.0954829
-0.00172681
0.0956414
-0.00106631
0.095795
-0.000631394
0.09595
3.52706e-05
0.0961151
0.000410348
0.0962883
0.00100837
0.0964316
0.00124158
0.0965221
0.00167199
0.096592
0.00161213
0.0966307
0.00178928
0.0966655
0.00147261
0.0966825
0.00145705
0.0966398
0.000968445
0.09656
0.000772048
0.0964942
-1.77071e-05
0.0963842
-0.000322421
0.0962883
-0.00125181
0.0961831
-0.00159449
-0.0026089
0.0960934
0.0941817
0.00456124
-0.0943117
0.0940844
0.0039056
0.0940169
0.00319324
0.0939687
0.00249814
0.0939255
0.00178892
0.0938937
0.00113198
0.0938457
0.000487454
0.0938162
-0.000354815
0.0938362
-0.00115764
0.0938656
-0.00175267
0.0938921
-0.00237975
0.0939905
-0.00300181
0.0942361
-0.0034195
0.094567
-0.00361935
0.094908
-0.00365543
0.0952666
-0.00366182
0.095568
-0.00347771
0.0957742
-0.00328767
0.0959148
-0.00294855
0.0960506
-0.00266355
0.0961157
-0.00215444
0.0962132
-0.0018243
0.0963537
-0.00120674
0.096507
-0.000784756
0.0966695
-0.000127217
0.0968608
0.000219072
0.0970454
0.000823778
0.0972308
0.00105616
0.097399
0.00150382
0.0975097
0.00150141
0.0975793
0.00171972
0.0976079
0.00144393
0.0976067
0.00145824
0.0976623
0.000912844
0.0976619
0.000772541
0.0976053
3.88554e-05
0.097513
-0.000230135
0.097387
-0.00112585
0.0972307
-0.00143817
-0.00250702
0.0971288
0.0943218
0.00463102
-0.0943916
0.0942916
0.00393587
0.0942607
0.00322414
0.0942413
0.00251748
0.0942468
0.00178344
0.0942974
0.00108136
0.094354
0.000430884
0.0943862
-0.00038698
0.0944475
-0.00121896
0.0945195
-0.0018247
0.0945298
-0.00239001
0.0945786
-0.00305066
0.0947219
-0.00356273
0.0949807
-0.00387821
0.0953107
-0.00398543
0.0956881
-0.00403921
0.0960547
-0.00384432
0.096405
-0.00363798
0.0966371
-0.00318061
0.0968324
-0.00285886
0.0969541
-0.00227616
0.0970656
-0.0019358
0.0971789
-0.00132002
0.097348
-0.000953894
0.0975302
-0.000309378
0.0977304
1.89121e-05
0.097953
0.000601172
0.0981746
0.000834522
0.0983713
0.00130708
0.098565
0.00130772
0.0987234
0.0015614
0.0988462
0.00132107
0.098904
0.00140048
0.0989181
0.000898702
0.0988552
0.000835509
0.0987555
0.000138502
0.0986096
-8.42052e-05
0.0984531
-0.000969391
0.0982811
-0.00126611
-0.00232248
0.0980965
0.0951419
0.00467785
-0.0951887
0.0951231
0.00395464
0.0950796
0.0032677
0.0950399
0.00255717
0.0950234
0.00179994
0.0950681
0.00103661
0.0951534
0.000345633
0.09519
-0.000423576
0.0952167
-0.00124572
0.0953235
-0.00193144
0.0953506
-0.00241719
0.0953468
-0.00304679
0.0953912
-0.00360715
0.0955804
-0.00406742
0.0958149
-0.00421997
0.0961499
-0.00437416
0.0965139
-0.00420835
0.0969334
-0.00405749
0.0972824
-0.00352962
0.0975971
-0.0031735
0.0978309
-0.00251
0.0980226
-0.0021275
0.0981854
-0.00148277
0.0983661
-0.00113459
0.0985685
-0.000511828
0.0988064
-0.000218922
0.0990469
0.000360657
0.0993473
0.000534138
0.0996263
0.00102807
0.0998844
0.00104961
0.100066
0.00138025
0.10023
0.00115682
0.100297
0.00133366
0.100342
0.000853524
0.100337
0.000840003
0.100338
0.000138065
0.100273
-1.93472e-05
0.100165
-0.000861689
0.100005
-0.0011059
-0.00215368
0.0998361
0.0953144
0.00469362
-0.0953301
0.095337
0.00393198
0.0953372
0.0032675
0.095362
0.00253236
0.095421
0.00174094
0.0955442
0.000913422
0.095685
0.000204821
0.0957753
-0.000513835
0.0958591
-0.00132948
0.0960113
-0.00208364
0.0961569
-0.00256284
0.0962406
-0.00313049
0.0962866
-0.00365314
0.0964103
-0.00419108
0.0965428
-0.00435255
0.0967663
-0.00459767
0.0970465
-0.00448849
0.0974402
-0.00445119
0.0978614
-0.00395085
0.0982911
-0.00360316
0.098674
-0.00289288
0.099007
-0.00246052
0.0992856
-0.00176143
0.0995461
-0.00139503
0.0997819
-0.000747683
0.10007
-0.000507356
0.100337
9.38022e-05
0.100637
0.000234428
0.100913
0.000752074
0.1012
0.000762662
0.101432
0.00114835
0.101608
0.000980137
0.101733
0.00120895
0.101794
0.000792218
0.101781
0.000853075
0.101674
0.000245716
0.101518
0.000136468
0.101342
-0.000685585
0.10112
-0.000883747
-0.00185625
0.100822
0.0964307
0.00473158
-0.0964686
0.0964253
0.00393732
0.0964992
0.00319362
0.0965912
0.00244041
0.0966443
0.00168777
0.0967015
0.000856243
0.0967933
0.000113037
0.0968846
-0.000605136
0.0968936
-0.00133851
0.0969903
-0.0021803
0.0971679
-0.00274047
0.097327
-0.0032896
0.097391
-0.00371717
0.0975244
-0.00432444
0.0976233
-0.00445143
0.0977479
-0.00472225
0.0978676
-0.0046082
0.0981279
-0.00471151
0.0984722
-0.00429518
0.0989111
-0.00404206
0.0993986
-0.00338038
0.0999421
-0.00300401
0.100393
-0.00221237
0.100847
-0.00184896
0.101203
-0.00110357
0.101527
-0.000831054
0.101813
-0.000192868
0.102157
-0.000109137
0.102457
0.000451509
0.102793
0.000426619
0.103071
0.00087061
0.103368
0.000682904
0.103568
0.00100909
0.103767
0.000592995
0.103837
0.00078404
0.10396
0.000122175
0.103967
0.000129758
0.103948
-0.000666614
0.103907
-0.00084269
-0.00180977
0.10386
0.096683
0.00470305
-0.0966544
0.0967426
0.00387764
0.0968389
0.00309732
0.0969802
0.00229915
0.09712
0.00154798
0.0972527
0.000723493
0.0973306
3.51712e-05
0.0975197
-0.000794193
0.0976368
-0.00145567
0.0978403
-0.00238374
0.0980544
-0.00295463
0.0983594
-0.00359462
0.0985322
-0.00388991
0.0986976
-0.0044899
0.098843
-0.0045968
0.0990147
-0.00489394
0.0991118
-0.00470532
0.0992065
-0.00480623
0.0993764
-0.00446508
0.0997173
-0.00438288
0.100133
-0.00379661
0.100667
-0.0035375
0.101238
-0.00278314
0.101839
-0.00245059
0.102388
-0.00165241
0.102929
-0.0013714
0.103429
-0.000693446
0.103781
-0.000461289
0.104162
7.12383e-05
0.10444
0.000147864
0.104795
0.000516134
0.104991
0.000487089
0.105284
0.000715718
0.105382
0.000494831
0.105586
0.000580262
0.105522
0.000185638
0.105546
0.000105886
0.105396
-0.000515988
0.105264
-0.000711048
-0.00144281
0.104897
0.0983595
0.00466443
-0.0983209
0.0984232
0.00381395
0.0984634
0.00305705
0.0985359
0.00222674
0.0985989
0.00148497
0.0987283
0.000594106
0.0989057
-0.00014225
0.0991434
-0.0010319
0.0992938
-0.00160606
0.0994715
-0.00256149
0.0996026
-0.00308573
0.0998597
-0.00385164
0.100032
-0.00406192
0.100172
-0.00463035
0.10031
-0.00473461
0.100484
-0.00506755
0.100631
-0.00485282
0.100774
-0.00494873
0.100877
-0.00456835
0.101041
-0.00454674
0.101291
-0.00404689
0.101695
-0.00394126
0.102202
-0.00329074
0.10285
-0.0030983
0.103544
-0.00234642
0.104288
-0.00211499
0.104941
-0.00134695
0.105595
-0.00111487
0.106185
-0.000518674
0.106761
-0.000428347
0.107205
7.19504e-05
0.107666
2.62366e-05
0.108054
0.000327891
0.108458
9.04714e-05
0.108784
0.000254523
0.109118
-0.000148869
0.109349
-0.00012527
0.109493
-0.000659554
0.109596
-0.00081403
-0.00151285
0.109666
0.0986766
0.00447398
-0.0984861
0.0989313
0.00355923
0.0991458
0.0028425
0.0994031
0.00196943
0.0995866
0.00130151
0.0997912
0.000389483
0.0999146
-0.000265606
0.100172
-0.00128939
0.100427
-0.00186088
0.100662
-0.00279625
0.100843
-0.00326701
0.101071
-0.00407984
0.101265
-0.00425538
0.101431
-0.00479693
0.101572
-0.00487544
0.101765
-0.00526073
0.101965
-0.00505304
0.102172
-0.00515553
0.102432
-0.00482769
0.102692
-0.00480733
0.102962
-0.00431688
0.103163
-0.00414228
0.103498
-0.00362541
0.103839
-0.00343939
0.104398
-0.00290593
0.105059
-0.00277512
0.105886
-0.00217468
0.106822
-0.0020503
0.10779
-0.00148737
0.108606
-0.00124442
0.109409
-0.000730491
0.110069
-0.000633585
0.110673
-0.000275982
0.11104
-0.000276672
0.111387
-9.30271e-05
0.111561
-0.000322111
0.111736
-0.000300725
0.111723
-0.000646232
0.111666
-0.000757111
-0.0011669
0.11132
0.101054
0.00454711
-0.101127
0.101116
0.00349742
0.101119
0.00283929
0.101266
0.0018222
0.101438
0.00112947
0.101817
1.10614e-05
0.102129
-0.000577494
0.102399
-0.00155985
0.10266
-0.00212157
0.102887
-0.00302361
0.103067
-0.00344691
0.10324
-0.00425278
0.103432
-0.00444707
0.103642
-0.00500727
0.10374
-0.0049737
0.103865
-0.00538517
0.10399
-0.005178
0.104171
-0.00533672
0.104337
-0.00499373
0.104577
-0.00504737
0.104925
-0.00466486
0.105375
-0.0045928
0.105867
-0.00411717
0.1064
-0.00397188
0.106979
-0.00348575
0.107581
-0.00337624
0.108276
-0.00286982
0.109047
-0.00282157
0.109947
-0.00238713
0.111077
-0.00237512
0.112327
-0.00198037
0.113584
-0.00189014
0.114775
-0.00146711
0.115892
-0.00139414
0.116864
-0.00106423
0.117648
-0.00110643
0.118266
-0.000918783
0.11866
-0.00104025
0.119036
-0.00113304
-0.00123222
0.119101
0.102443
0.00409111
-0.101987
0.102926
0.0030149
0.103351
0.00241433
0.103742
0.00143094
0.104005
0.00086658
0.104124
-0.000107512
0.104305
-0.000759155
0.104544
-0.00179816
0.104743
-0.00232048
0.104917
-0.00319765
0.105063
-0.00359317
0.105146
-0.00433582
0.105254
-0.00455466
0.10537
-0.00512329
0.105472
-0.00507582
0.105529
-0.00544228
0.105646
-0.00529571
0.105808
-0.00549789
0.105987
-0.00517349
0.10615
-0.00520989
0.106333
-0.00484791
0.106627
-0.0048873