/*--------------------------------*- C++ -*----------------------------------*\
  =========                 |
  \\      /  F ield         | OpenFOAM: The Open Source CFD Toolbox
   \\    /   O peration     | Website:  https://openfoam.org
    \\  /    A nd           | Version:  10
     \\/     M anipulation  |
\*---------------------------------------------------------------------------*/
FoamFile
{
    format      ascii;
    class       volScalarField;
    location    "0.200576";
    object      p;
}
// * * * * * * * * * * * * * * * * * * * * * * * * * * * * * * * * * * * * * //

dimensions      [1 -1 -2 0 0 0 0];

internalField   nonuniform List<scalar> 
16320
(
0.919064
0.964181
0.994508
1.04414
1.06173
1.10045
1.09999
0.896979
0.64023
0.503819
0.44192
0.413934
0.403293
0.400004
0.404426
0.413461
0.424352
0.437382
0.449767
0.46239
0.475
0.483254
0.494194
0.509487
0.527326
0.552216
0.579425
0.604387
0.628727
0.65233
0.675002
0.696925
0.717748
0.73691
0.754234
0.769986
0.785449
0.801514
0.820199
0.850834
0.87948
0.903631
0.964251
1.02415
1.06231
1.05982
1.04996
1.03338
1.01134
0.98846
0.968353
0.942775
0.918552
0.862985
0.78925
0.721208
0.659316
0.602786
0.535795
0.479854
0.441474
0.41109
0.390537
0.381957
0.383879
0.384179
0.382611
0.37944
0.375202
0.370525
0.365616
0.362442
0.360242
0.358355
0.356471
0.354277
0.349972
0.349964
0.345255
0.341884
0.350326
0.396631
0.554923
0.82655
1.00077
1.1391
1.3222
1.50646
1.59746
1.61265
1.62562
1.51814
1.1878
0.896696
0.699003
0.600466
0.538568
0.507798
0.499417
0.49928
0.502279
0.521498
0.55103
0.582432
0.617568
0.649615
0.676063
0.695046
0.709421
0.709736
0.684987
0.624012
0.551285
0.896146
0.925865
0.95457
0.996459
1.02666
1.04458
1.0244
0.876572
0.662558
0.522421
0.455221
0.423886
0.410784
0.407144
0.411721
0.422278
0.434989
0.449818
0.462992
0.476327
0.489381
0.495701
0.505282
0.519414
0.536708
0.560598
0.586071
0.609478
0.632044
0.65362
0.673991
0.693036
0.710301
0.725126
0.736896
0.746773
0.756811
0.767704
0.777228
0.779126
0.787277
0.834181
0.935058
0.997378
1.01911
1.01885
1.01804
1.01731
1.01068
0.991987
0.977682
0.9526
0.933579
0.876477
0.802465
0.733083
0.665801
0.600687
0.528388
0.469887
0.429241
0.395621
0.373525
0.365202
0.367617
0.368722
0.368558
0.367254
0.364828
0.362044
0.358807
0.35708
0.355457
0.35386
0.352112
0.349984
0.345755
0.344063
0.336882
0.328196
0.332019
0.366623
0.494344
0.756923
1.01952
1.19544
1.41572
1.66969
1.77481
1.75506
1.79694
1.74651
1.38915
0.967466
0.715819
0.600956
0.533881
0.503711
0.4946
0.490822
0.494587
0.50952
0.539298
0.570761
0.609091
0.650093
0.685674
0.718265
0.734836
0.734885
0.696868
0.612843
0.525161
0.881986
0.905189
0.927795
0.956245
0.979305
0.985008
0.951285
0.844483
0.677782
0.539292
0.465601
0.431846
0.418748
0.414982
0.420437
0.432755
0.447999
0.462681
0.477373
0.490958
0.504533
0.51149
0.523586
0.538976
0.551874
0.572291
0.595357
0.617482
0.63625
0.65468
0.671893
0.687247
0.700054
0.708897
0.713954
0.716974
0.719059
0.703811
0.688157
0.681338
0.705588
0.790811
0.901885
0.96666
0.990704
1.00337
0.996383
1.00003
1.00441
0.991787
0.982168
0.959668
0.942091
0.886251
0.814653
0.743149
0.67692
0.604428
0.526777
0.465937
0.421147
0.385651
0.363088
0.355489
0.356461
0.35721
0.357328
0.356984
0.355959
0.354653
0.352715
0.351809
0.350609
0.349235
0.347561
0.345549
0.342422
0.337867
0.329425
0.31918
0.322732
0.357742
0.476595
0.717933
0.979392
1.18371
1.42423
1.71074
1.84607
1.89098
1.89669
1.88373
1.6497
1.11007
0.760502
0.608909
0.533711
0.499641
0.48727
0.481644
0.485614
0.499993
0.523078
0.547497
0.581247
0.625953
0.674606
0.714381
0.732455
0.724206
0.663468
0.564464
0.481726
0.868294
0.886105
0.903566
0.920979
0.936269
0.934808
0.895725
0.805245
0.677559
0.552411
0.47927
0.443919
0.429856
0.426276
0.433796
0.448956
0.465109
0.47907
0.49457
0.511921
0.529053
0.534228
0.545366
0.561471
0.571609
0.589136
0.608321
0.62633
0.640872
0.655368
0.668696
0.679688
0.686949
0.689452
0.688365
0.685145
0.67203
0.645612
0.627763
0.62857
0.681406
0.789304
0.904513
0.961607
0.981468
0.987246
0.984974
0.991601
0.996913
0.990043
0.982272
0.967954
0.94126
0.890194
0.823489
0.7527
0.697133
0.614074
0.530293
0.466203
0.418152
0.380354
0.35824
0.351547
0.349838
0.349263
0.349185
0.349042
0.348674
0.347883
0.347433
0.34682
0.345824
0.344543
0.342787
0.340548
0.338208
0.332067
0.321331
0.311289
0.31894
0.358928
0.480704
0.703672
0.924845
1.077
1.28071
1.57563
1.75818
1.84166
1.852
1.86912
1.80487
1.3057
0.849938
0.632014
0.538483
0.498956
0.479945
0.47312
0.475022
0.487962
0.503737
0.51916
0.54258
0.575087
0.615027
0.65307
0.666417
0.643122
0.568733
0.4869
0.431578
0.853243
0.866891
0.879695
0.8897
0.898928
0.896286
0.860958
0.78441
0.680441
0.572063
0.502077
0.466844
0.452486
0.449637
0.457599
0.473763
0.487689
0.498788
0.513472
0.532762
0.551236
0.556605
0.568425
0.585902
0.594838
0.610276
0.625752
0.637016
0.645949
0.65582
0.664332
0.670032
0.671925
0.669833
0.66399
0.655871
0.633679
0.609794
0.598936
0.617063
0.684232
0.796964
0.910582
0.967224
0.985252
0.98522
0.984493
0.987205
0.990581
0.988208
0.978881
0.966504
0.936487
0.887894
0.827022
0.761428
0.718852
0.629104
0.53942
0.470951
0.418124
0.378223
0.357095
0.350805
0.34661
0.344612
0.343725
0.343366
0.343108
0.34233
0.342496
0.342105
0.341178
0.339892
0.33791
0.335126
0.333128
0.32466
0.312616
0.30765
0.320466
0.379353
0.52375
0.722225
0.874311
0.9632
1.09644
1.35027
1.52174
1.58722
1.68849
1.79076
1.77585
1.45103
0.949975
0.668186
0.547106
0.497152
0.47408
0.465678
0.463858
0.473844
0.483511
0.49312
0.505409
0.516891
0.535576
0.555557
0.554516
0.523183
0.465527
0.419209
0.395153
0.836039
0.846229
0.85475
0.859336
0.866308
0.864562
0.841615
0.780775
0.690342
0.603007
0.543393
0.509454
0.492932
0.489003
0.494193
0.504867
0.514736
0.518519
0.531105
0.55134
0.572128
0.57815
0.591017
0.610002
0.618975
0.632151
0.641734
0.645775
0.650602
0.655317
0.658563
0.659704
0.657806
0.65197
0.643193
0.632116
0.610364
0.593607
0.587568
0.613698
0.680612
0.786148
0.898791
0.963433
0.981754
0.981456
0.981219
0.981887
0.982536
0.979318
0.971336
0.955107
0.925065
0.87979
0.825123
0.767355
0.737562
0.64829
0.552165
0.479967
0.420133
0.377709
0.359614
0.351143
0.345483
0.342192
0.340319
0.339409
0.338988
0.337735
0.338044
0.337675
0.336715
0.335359
0.333251
0.330277
0.327936
0.319413
0.30807
0.308829
0.333725
0.42022
0.589775
0.75844
0.8361
0.884466
0.987239
1.17155
1.29563
1.37443
1.46176
1.61413
1.68002
1.46951
1.02166
0.701468
0.557015
0.496111
0.469176
0.458577
0.455613
0.460379
0.465919
0.470021
0.472981
0.472706
0.472831
0.470698
0.45548
0.428337
0.397873
0.379578
0.376612
0.817734
0.82587
0.831813
0.832346
0.837241
0.835938
0.820621
0.774856
0.704157
0.630258
0.580639
0.548602
0.530138
0.524302
0.527144
0.533757
0.53528
0.536595
0.546796
0.567241
0.589627
0.596469
0.610163
0.630568
0.639776
0.652092
0.658156
0.654848
0.654142
0.65369
0.652151
0.64969
0.644917
0.637302
0.627413
0.616111
0.598677
0.587891
0.583359
0.602818
0.647943
0.733749
0.855317
0.957436
0.977669
0.974579
0.974949
0.973569
0.971743
0.967104
0.957392
0.939134
0.907609
0.868025
0.823142
0.776197
0.748522
0.66567
0.565811
0.488443
0.421124
0.376048
0.362181
0.352234
0.345479
0.341104
0.338288
0.336707
0.336
0.334079
0.334209
0.333632
0.332501
0.330952
0.328617
0.325483
0.322201
0.313649
0.305181
0.311341
0.353917
0.477119
0.662218
0.778873
0.814276
0.850497
0.937935
1.04939
1.13247
1.20338
1.25967
1.39574
1.5127
1.41395
1.03898
0.721847
0.56465
0.495562
0.465465
0.452566
0.451372
0.450353
0.452374
0.451487
0.448298
0.440059
0.429592
0.414345
0.39377
0.373856
0.360828
0.35862
0.370009
0.79923
0.805995
0.810303
0.809828
0.815954
0.813576
0.80019
0.763403
0.707391
0.659763
0.619311
0.589529
0.569929
0.560838
0.557073
0.557195
0.552249
0.550995
0.561021
0.580282
0.602157
0.60971
0.623814
0.644726
0.654056
0.663277
0.666418
0.659062
0.654692
0.649816
0.644851
0.640026
0.634307
0.626553
0.617146
0.605859
0.591442
0.58311
0.577984
0.584367
0.607011
0.657504
0.753774
0.881487
0.957288
0.963425
0.962072
0.961896
0.95802
0.952195
0.94061
0.92035
0.893814
0.860222
0.821529
0.779066
0.755074
0.681578
0.579365
0.497713
0.426432
0.378957
0.364446
0.353422
0.345972
0.340874
0.337252
0.334938
0.333717
0.3313
0.331048
0.330078
0.328651
0.326807
0.324158
0.320711
0.317933
0.310054
0.305295
0.320614
0.38876
0.542084
0.719219
0.785818
0.806596
0.841856
0.920691
0.973803
1.03736
1.09417
1.14424
1.22842
1.3491
1.30074
1.01972
0.727452
0.567518
0.496357
0.465366
0.450745
0.447118
0.444523
0.441699
0.436611
0.427678
0.414189
0.397573
0.376765
0.35628
0.342067
0.339019
0.34764
0.367852
0.780638
0.787005
0.789907
0.786992
0.787352
0.783791
0.775419
0.751658
0.715336
0.677266
0.643145
0.614321
0.598745
0.580697
0.571494
0.569417
0.567606
0.564693
0.572716
0.588674
0.608728
0.616855
0.631494
0.650342
0.663523
0.671202
0.670855
0.657146
0.651373
0.643344
0.637036
0.631523
0.625922
0.619071
0.610365
0.599839
0.589015
0.579418
0.571591
0.567643
0.573066
0.603435
0.67696
0.79337
0.901503
0.937059
0.944331
0.947388
0.942091
0.935944
0.923853
0.905338
0.881416
0.851348
0.817239
0.778805
0.758224
0.692717
0.591339
0.506585
0.432095
0.381719
0.365802
0.354234
0.346461
0.341098
0.336965
0.333958
0.331964
0.329431
0.328595
0.327106
0.325279
0.323067
0.320086
0.316317
0.315297
0.308921
0.309294
0.336325
0.428748
0.602751
0.747046
0.789039
0.807128
0.847697
0.911138
0.948592
0.99002
1.03154
1.08516
1.14215
1.20376
1.1741
0.976059
0.724638
0.570969
0.499912
0.46925
0.454365
0.446468
0.440998
0.434164
0.424869
0.409632
0.391813
0.370442
0.348003
0.329908
0.321278
0.325447
0.342467
0.369609
0.761581
0.767579
0.770275
0.771037
0.772507
0.770976
0.762775
0.744131
0.717439
0.687223
0.655894
0.63153
0.617342
0.597705
0.58693
0.582828
0.57772
0.575065
0.580185
0.592356
0.60934
0.618443
0.634237
0.648974
0.667431
0.672085
0.6689
0.653358
0.640872
0.633668
0.627124
0.622773
0.61908
0.613554
0.605971
0.596703
0.586178
0.575282
0.564202
0.554466
0.555487
0.572866
0.628705
0.721978
0.839049
0.889994
0.91912
0.922823
0.921589
0.916403
0.905783
0.888952
0.866539
0.839843
0.809688
0.775873
0.757103
0.698678
0.602923
0.51246
0.437819
0.383422
0.365356
0.354464
0.346774
0.341531
0.337257
0.333756
0.330981
0.328321
0.326771
0.324715
0.322457
0.319902
0.316676
0.312998
0.311168
0.306414
0.311586
0.35128
0.45945
0.644
0.760351
0.793522
0.818934
0.871751
0.906324
0.942101
0.975617
1.0246
1.08275
1.12912
1.1474
1.08525
0.925563
0.7248
0.582292
0.513937
0.483288
0.466928
0.453448
0.440788
0.429538
0.414608
0.392637
0.369475
0.345685
0.324151
0.310413
0.306941
0.316532
0.339464
0.366622
0.742053
0.748576
0.752169
0.755663
0.758161
0.757503
0.751482
0.737621
0.717047
0.691198
0.665172
0.640797
0.62208
0.597528
0.585799
0.584425
0.581477
0.579424
0.582447
0.592349
0.606952
0.616189
0.631521
0.644414
0.663115
0.665123
0.655613
0.641589
0.624336
0.619221
0.615928
0.613264
0.610857
0.607847
0.60216
0.5937
0.583757
0.573657
0.56238
0.554255
0.555794
0.569122
0.604736
0.68075
0.783886
0.841777
0.882936
0.892419
0.895996
0.892411
0.883205
0.868473
0.849172
0.826125
0.799913
0.770663
0.751313
0.700334
0.612988
0.520353
0.444798
0.38858
0.358875
0.353487
0.347258
0.342225
0.338029
0.33424
0.330756
0.327914
0.325471
0.322826
0.320159
0.317307
0.313942
0.310649
0.309686
0.307041
0.316141
0.365364
0.490649
0.67838
0.768811
0.796525
0.834124
0.892135
0.912325
0.951768
0.986935
1.03921
1.09713
1.13962
1.1552
1.09169
0.936455
0.749947
0.619886
0.554064
0.52055
0.496963
0.468466
0.447756
0.426203
0.401341
0.377538
0.353457
0.329022
0.30861
0.296299
0.297035
0.3106
0.337375
0.362545
0.722258
0.729051
0.733933
0.739019
0.743105
0.743501
0.740026
0.730847
0.714198
0.693448
0.668681
0.641786
0.612889
0.581228
0.567814
0.571741
0.576294
0.577207
0.580345
0.588794
0.599372
0.607531
0.619807
0.626621
0.642056
0.641833
0.628484
0.616663
0.612392
0.602461
0.600834
0.601739
0.602615
0.601638
0.597953
0.591235
0.58286
0.574212
0.566285
0.560869
0.560942
0.563943
0.584578
0.64784
0.737892
0.803446
0.848122
0.865053
0.869425
0.867905
0.860557
0.847997
0.831401
0.811448
0.788299
0.76276
0.740224
0.697098
0.624084
0.533911
0.453781
0.399135
0.362164
0.348103
0.34795
0.343718
0.339646
0.335455
0.331431
0.327949
0.324575
0.321333
0.318285
0.315112
0.311519
0.308244
0.307066
0.304754
0.316649
0.370898
0.509974
0.698991
0.773926
0.797774
0.839999
0.902918
0.92187
0.963428
1.0033
1.04428
1.11975
1.17156
1.19133
1.13196
0.988151
0.828119
0.70993
0.643209
0.594572
0.547018
0.500417
0.45928
0.420925
0.391313
0.365722
0.340512
0.316305
0.297777
0.288383
0.29081
0.307694
0.334966
0.352533
0.702418
0.709405
0.715541
0.722158
0.727456
0.729654
0.728028
0.721985
0.709724
0.692204
0.666097
0.632485
0.591231
0.546013
0.526786
0.534031
0.549977
0.560679
0.56589
0.57162
0.578915
0.586603
0.597667
0.606925
0.62014
0.613584
0.595535
0.585057
0.582408
0.584562
0.583417
0.588194
0.592648
0.594602
0.593308
0.588787
0.582031
0.574359
0.567276
0.56183
0.558513
0.55609
0.553016
0.596363
0.683975
0.767254
0.820759
0.840977
0.846922
0.846487
0.840209
0.829155
0.814362
0.796428
0.775549
0.752217
0.725777
0.690436
0.633394
0.549968
0.46503
0.403864
0.36918
0.347756
0.346602
0.346375
0.342295
0.337648
0.332949
0.328426
0.324096
0.320176
0.316703
0.31314
0.309249
0.305941
0.303284
0.300047
0.313143
0.37168
0.519302
0.709564
0.776172
0.798042
0.841359
0.906321
0.926736
0.967271
1.00848
1.04461
1.10596
1.16465
1.20173
1.18931
1.08755
0.955103
0.835473
0.751848
0.684362
0.617445
0.554675
0.481875
0.422638
0.384481
0.356085
0.330624
0.307467
0.290977
0.28346
0.287576
0.304913
0.332544
0.346551
0.682611
0.689804
0.697612
0.704861
0.711037
0.714683
0.714462
0.711101
0.702195
0.686531
0.657865
0.61619
0.560836
0.503591
0.478324
0.485065
0.505325
0.52327
0.536967
0.547812
0.55772
0.564032
0.57026
0.570475
0.578365
0.567689
0.552227
0.545994
0.546735
0.556447
0.5667
0.573929
0.580496
0.585792
0.587131
0.584655
0.579231
0.57193
0.564225
0.557519
0.554373
0.534643
0.507714
0.531159
0.617632
0.726194
0.797506
0.82081
0.829234
0.828939
0.822995
0.81262
0.798876
0.782318
0.762773
0.739994
0.713904
0.681878
0.63797
0.569734
0.482505
0.412694
0.376791
0.356297
0.34475
0.349188
0.346573
0.341141
0.335348
0.329456
0.324147
0.319413
0.315377
0.31126
0.306943
0.304074
0.29912
0.295311
0.30826
0.370848
0.522962
0.713727
0.774985
0.795001
0.835528
0.900544
0.925803
0.963182
0.999785
1.03625
1.06755
1.11883
1.14423
1.13656
1.07584
0.985456
0.901802
0.824699
0.75924
0.695938
0.624341
0.517539
0.430204
0.380233
0.3489
0.323593
0.30185
0.286805
0.280972
0.285617
0.303579
0.32749
0.344874
0.662995
0.670681
0.67908
0.687425
0.694228
0.698622
0.699536
0.697417
0.689755
0.674388
0.642931
0.59289
0.524898
0.458914
0.428575
0.434052
0.458073
0.481342
0.499439
0.514169
0.525905
0.531031
0.535599
0.532423
0.530478
0.513203
0.500236
0.496178
0.505315
0.524714
0.545985
0.556726
0.56905
0.575237
0.577931
0.577185
0.572404
0.564789
0.555341
0.552809
0.536588
0.501355
0.469554
0.482495
0.545261
0.659742
0.767692
0.808073
0.816304
0.815179
0.808861
0.798449
0.785342
0.76981
0.751209
0.729558
0.704761
0.673651
0.641007
0.585358
0.50466
0.429214
0.386407
0.366165
0.353799
0.350774
0.351639
0.34638
0.338882
0.331454
0.324617
0.318941
0.314292
0.309399
0.304621
0.301686
0.294486
0.289598
0.302851
0.367096
0.5197
0.7125
0.77001
0.786054
0.821254
0.881922
0.915632
0.953509
0.987456
1.01546
1.03529
1.04448
1.04554
1.03466
1.00076
0.949832
0.901091
0.856406
0.812158
0.768595
0.696829
0.566065
0.445678
0.379979
0.344855
0.31943
0.29896
0.284471
0.278363
0.282314
0.300897
0.320788
0.344533
0.643521
0.651604
0.660382
0.668926
0.676014
0.680645
0.681722
0.679754
0.671848
0.654879
0.619887
0.562775
0.486385
0.416918
0.38348
0.38665
0.411463
0.439192
0.461931
0.480197
0.493747
0.49806
0.500908
0.490901
0.477822
0.454741
0.443783
0.441305
0.456285
0.483296
0.514398
0.540717
0.55613
0.564634
0.567402
0.565664
0.560465
0.552198
0.541767
0.536644
0.509277
0.466796
0.441545
0.450644
0.497532
0.604529
0.729709
0.785164
0.800604
0.802963
0.796834
0.786622
0.774027
0.759127
0.741477
0.721298
0.698562
0.670969
0.644253
0.597049
0.524853
0.452606
0.402471
0.38015
0.36898
0.355774
0.358774
0.353681
0.343747
0.334425
0.325352
0.319185
0.313561
0.307609
0.302312
0.298611
0.290737
0.286218
0.300668
0.364544
0.509887
0.698941
0.757955
0.773738
0.805822
0.861012
0.898047
0.934272
0.96455
0.98786
1.00149
1.0054
1.00261
0.991501
0.968847
0.939356
0.908526
0.879139
0.851251
0.824191
0.766622
0.632365
0.472509
0.385917
0.344887
0.318877
0.298273
0.282166
0.274248
0.277101
0.295716
0.313493
0.343634
0.624095
0.632287
0.641058
0.649351
0.656047
0.660132
0.660628
0.657404
0.647214
0.62679
0.58859
0.528155
0.450665
0.38294
0.347705
0.347535
0.370307
0.399908
0.425816
0.446631
0.460634
0.463969
0.464833
0.452122
0.426526
0.406867
0.394485
0.392316
0.405898
0.43424
0.471944
0.508998
0.536075
0.549981
0.553655
0.551467
0.545384
0.535737
0.522316
0.513881
0.484379
0.444757
0.425811
0.435644
0.47272
0.560697
0.694063
0.761952
0.784841
0.789439
0.785642
0.776744
0.764629
0.750331
0.733786
0.714453
0.693267
0.669899
0.645654
0.609321
0.546448
0.47923
0.426503
0.400091
0.387332
0.366702
0.368432
0.362806
0.349845
0.338525
0.327047
0.319948
0.313162
0.306139
0.29997
0.295404
0.287491
0.284042
0.300172
0.362112
0.495532
0.675142
0.740144
0.758812
0.789417
0.841269
0.876391
0.910547
0.937658
0.958343
0.969812
0.972201
0.973628
0.967517
0.953783
0.935
0.914088
0.894496
0.877723
0.860532
0.82535
0.712899
0.521868
0.401798
0.34859
0.320417
0.297739
0.277701
0.26755
0.269438
0.288508
0.307311
0.342005
0.604533
0.612429
0.62076
0.62831
0.63407
0.63694
0.635959
0.630159
0.616317
0.591432
0.552338
0.494363
0.423129
0.359663
0.322487
0.316784
0.335005
0.364389
0.392476
0.415203
0.429205
0.431256
0.430057
0.415005
0.388464
0.364187
0.356381
0.35602
0.367166
0.389721
0.424485
0.467644
0.505752
0.528303
0.534932
0.533945
0.527471
0.517106
0.503258
0.486519
0.464376
0.434095
0.421555
0.431446
0.461725
0.533857
0.657631
0.735057
0.764972
0.775973
0.775568
0.768848
0.757301
0.743509
0.727831
0.70995
0.690544
0.669897
0.643475
0.623087
0.571888
0.509151
0.456425
0.426433
0.407552
0.387213
0.378108
0.372216
0.356899
0.343815
0.329579
0.321347
0.313149
0.304957
0.297763
0.292206
0.284884
0.282876
0.300572
0.358579
0.475077
0.641776
0.718496
0.742798
0.77416
0.822646
0.854181
0.885279
0.91025
0.929869
0.940494
0.947226
0.950676
0.94829
0.940097
0.927841
0.913921
0.900734
0.890839
0.882351
0.865802
0.798899
0.601473
0.436632
0.359181
0.324306
0.295771
0.269639
0.258187
0.259535
0.279056
0.302344
0.342231
0.58473
0.591799
0.599266
0.605616
0.60994
0.611121
0.607919
0.598614
0.581112
0.553532
0.516534
0.466828
0.405686
0.345909
0.304828
0.291071
0.302442
0.329365
0.359284
0.384556
0.399559
0.403053
0.397486
0.382377
0.360731
0.339192
0.326279
0.323943
0.333648
0.356311
0.387861
0.42561
0.468146
0.500658
0.513824
0.514299
0.509063
0.499027
0.485639
0.468394
0.448613
0.431401
0.420427
0.430166
0.456221
0.517852
0.621229
0.702628
0.744501
0.763112
0.76701
0.762482
0.752157
0.738857
0.7239
0.707396
0.689017
0.669804
0.646667
0.630572
0.594353
0.538926
0.486048
0.454288
0.429644
0.410971
0.391285
0.382198
0.364346
0.349343
0.333527
0.323561
0.313624
0.304162
0.295963
0.289284
0.282321
0.280897
0.298422
0.352072
0.456625
0.60674
0.694907
0.72767
0.761078
0.805826
0.831883
0.861498
0.885327
0.904714
0.915759
0.924105
0.928936
0.92905
0.924964
0.917518
0.908551
0.900751
0.895588
0.892378
0.886226
0.859436
0.717349
0.504668
0.383322
0.328831
0.290848
0.261256
0.249781
0.250902
0.270593
0.299583
0.343877
0.564535
0.570362
0.576564
0.581339
0.583789
0.582923
0.576877
0.564252
0.544099
0.516843
0.484931
0.447129
0.395182
0.335577
0.287965
0.264819
0.268335
0.291342
0.323258
0.353513
0.372928
0.377967
0.370775
0.358484
0.340363
0.324184
0.314987
0.312465
0.316404
0.328385
0.353369
0.390927
0.433251
0.470738
0.49105
0.495979
0.492064
0.483766
0.471962
0.458138
0.443254
0.428495
0.420912
0.427128
0.450312
0.501427
0.589425
0.673956
0.726056
0.751733
0.760676
0.758072
0.74934
0.736425
0.721981
0.706308
0.68897
0.671096
0.652204
0.63299
0.605881
0.562656
0.509389
0.478817
0.450684
0.43366
0.408417
0.393317
0.371876
0.352955
0.339
0.326627
0.314601
0.303765
0.294461
0.287064
0.281325
0.28108
0.298059
0.347899
0.438703
0.569298
0.668362
0.712272
0.749654
0.78963
0.81353
0.840489
0.863231
0.882269
0.893233
0.901887
0.907544
0.909733
0.908723
0.904955
0.900236
0.896516
0.894868
0.894738
0.893805
0.884345
0.821106
0.616719
0.433377
0.334769
0.280598
0.250378
0.240175
0.242058
0.263709
0.297719
0.346647
0.543916
0.548247
0.55282
0.555679
0.555945
0.552508
0.54343
0.528434
0.50761
0.483494
0.457893
0.430024
0.384132
0.320495
0.265636
0.235157
0.231891
0.250622
0.284067
0.321638
0.34973
0.357608
0.353998
0.341064
0.327045
0.314412
0.306745
0.304537
0.307665
0.317325
0.336475
0.36641
0.405748
0.444677
0.470485
0.478958
0.47798
0.471691
0.462548
0.451554
0.439925
0.427625
0.420271
0.424869
0.442935
0.48185
0.552237
0.639084
0.707926
0.742968
0.756315
0.755797
0.74837
0.735586
0.72148
0.706407
0.690247
0.672968
0.65489
0.629926
0.6163
0.580833
0.528124
0.502318
0.464855
0.448701
0.425479
0.404182
0.380791
0.359314
0.344508
0.330039
0.315982
0.30367
0.293333
0.285574
0.279491
0.279459
0.296633
0.34273
0.425
0.539073
0.634659
0.695785
0.738158
0.773952
0.797139
0.821942
0.843538
0.861637
0.871518
0.880234
0.886793
0.890705
0.892057
0.891587
0.890272
0.889641
0.890466
0.892803
0.893598
0.8919
0.868182
0.741147
0.505944
0.347715
0.273033
0.2433
0.234681
0.237144
0.258266
0.298451
0.352163
0.522983
0.52561
0.528283
0.529007
0.526922
0.520461
0.509049
0.492424
0.472544
0.452311
0.432719
0.40959
0.364243
0.295916
0.238033
0.205355
0.198152
0.21232
0.24517
0.289993
0.330544
0.345822
0.344145
0.33374
0.321421
0.30885
0.301484
0.299444
0.301646
0.309662
0.32524
0.35122
0.386657
0.425456
0.454832
0.466528
0.467719
0.463676
0.45688
0.448458
0.438758
0.426948
0.419827
0.422314
0.43785
0.471691
0.532934
0.614155
0.695507
0.739705
0.754399
0.755128
0.74885
0.736159
0.722158
0.707471
0.691861
0.674381
0.655389
0.630721
0.621333
0.594945
0.543936
0.516407
0.474864
0.458257
0.436909
0.411132
0.386948
0.366861
0.350376
0.333649
0.317617
0.30377
0.292575
0.284431
0.278166
0.278567
0.29605
0.340194
0.416957
0.515559
0.602109
0.674342
0.726114
0.757597
0.780931
0.804044
0.824496
0.841762
0.8498
0.858827
0.866071
0.871539
0.875292
0.877394
0.878871
0.880717
0.883526
0.887352
0.890663
0.891323
0.882868
0.820201
0.597375
0.379009
0.275825
0.241876
0.23365
0.236405
0.256819
0.298795
0.358389
0.501947
0.502778
0.503383
0.501997
0.49739
0.488343
0.475158
0.458005
0.440145
0.423145
0.407198
0.383651
0.334798
0.265672
0.210866
0.180992
0.172824
0.182248
0.21148
0.2598
0.313976
0.341109
0.342621
0.333074
0.320158
0.308738
0.300288
0.296957
0.297744
0.303777
0.316502
0.339049
0.371979
0.410493
0.442936
0.458186
0.461199
0.458958
0.454146
0.44729
0.437489
0.427995
0.421338
0.425636
0.443143
0.476831
0.529102
0.603446
0.685946
0.733835
0.753683
0.755222
0.749878
0.737689
0.723454
0.708941
0.693355
0.675411
0.655478
0.632589
0.624234
0.60147
0.554196
0.521901
0.483483
0.463201
0.442624
0.417154
0.391315
0.374008
0.355799
0.337052
0.319133
0.304011
0.292282
0.283883
0.277778
0.28046
0.299872
0.341756
0.412127
0.497337
0.573973
0.650265
0.71076
0.740558
0.764557
0.786006
0.80524
0.820845
0.828491
0.837235
0.845111
0.851926
0.857647
0.862131
0.866072
0.870076
0.874671
0.879836
0.885223
0.886271
0.883746
0.851251
0.683826
0.427526
0.287793
0.243869
0.234955
0.237557
0.257197
0.299724
0.362152
0.48113
0.480251
0.478847
0.475379
0.468568
0.457673
0.443294
0.426493
0.410241
0.395553
0.379741
0.353151
0.302009
0.238082
0.190617
0.16545
0.157492
0.162967
0.185812
0.232989
0.298045
0.341222
0.346793
0.337669
0.323432
0.310809
0.300843
0.297025
0.296992
0.301644
0.312388
0.331819
0.362038
0.399306
0.433702
0.45211
0.456822
0.456155
0.453205
0.446778
0.438074
0.4304
0.4293
0.440457
0.464231
0.500088
0.546833
0.60554
0.681524
0.728957
0.751265
0.75513
0.750443
0.738694
0.724626
0.709917
0.694223
0.676126
0.655827
0.635132
0.625602
0.602454
0.557193
0.524147
0.48946
0.461049
0.442457
0.420072
0.397218
0.38016
0.360942
0.340022
0.320216
0.304231
0.292419
0.284442
0.278964
0.282894
0.30353
0.344208
0.409732
0.48305
0.549478
0.624342
0.692138
0.7232
0.747553
0.767439
0.785762
0.799727
0.806652
0.814983
0.823602
0.831969
0.839605
0.846413
0.852659
0.858386
0.864384
0.870614
0.87696
0.879013
0.880572
0.86016
0.742751
0.478371
0.311852
0.251035
0.239623
0.241908
0.260283
0.30141
0.363421
0.461078
0.458728
0.45546
0.450114
0.441489
0.429277
0.414438
0.398127
0.382588
0.367662
0.350442
0.322573
0.274098
0.218967
0.179304
0.157995
0.150005
0.152556
0.168342
0.211226
0.282145
0.343387
0.356886
0.34892
0.332636
0.316668
0.303909
0.298003
0.29705
0.300304
0.309231
0.326185
0.35404
0.390331
0.426063
0.447029
0.453306
0.454444
0.45452
0.449969
0.442599
0.43599
0.448941
0.470821
0.499221
0.537648
0.580504
0.622843
0.67951
0.72126
0.74586
0.753071
0.749207
0.738784
0.724964
0.710266
0.694473
0.676303
0.656133
0.636453
0.62404
0.600683
0.555286
0.525529
0.487989
0.458007
0.44057
0.420719
0.403311
0.385261
0.364706
0.342156
0.320477
0.30417
0.292594
0.284781
0.281599
0.288502
0.311122
0.350566
0.409594
0.472079
0.528765
0.598052
0.668819
0.703207
0.728382
0.74736
0.76455
0.776278
0.783247
0.791609
0.80105
0.811433
0.821241
0.830697
0.839611
0.846817
0.854045
0.860813
0.86758
0.871294
0.874286
0.859767
0.7707
0.524182
0.339782
0.263293
0.244822
0.247972
0.26525
0.304101
0.363553
0.442209
0.438704
0.43387
0.42684
0.416627
0.403615
0.388474
0.372345
0.356607
0.340698
0.322277
0.295317
0.254745
0.209058
0.175174
0.155996
0.147506
0.147864
0.158531
0.194319
0.266089
0.344956
0.367542
0.362529
0.343881
0.324676
0.309255
0.300752
0.298309
0.300449
0.308024
0.322964
0.348152
0.382854
0.418903
0.441147
0.448596
0.452848
0.454982
0.452261
0.452413
0.451147
0.474553
0.504234
0.537085
0.577607
0.613206
0.644221
0.682773
0.716009
0.739224
0.747581
0.745073
0.736115
0.722976
0.708975
0.693771
0.675891
0.656222
0.636454
0.621751
0.598425
0.552563
0.524475
0.483284
0.453445
0.438502
0.422597
0.407596
0.389538
0.36782
0.342524
0.319576
0.303381
0.292347
0.285684
0.284877
0.29474
0.319016
0.357561
0.409982
0.463712
0.511954
0.572695
0.640412
0.678396
0.705892
0.725069
0.741983
0.751171
0.758423
0.766788
0.776985
0.789323
0.802131
0.814986
0.827164
0.835791
0.843951
0.851153
0.857219
0.862243
0.864459
0.852134
0.779951
0.56023
0.36602
0.279352
0.252966
0.252054
0.267805
0.304445
0.361861
0.424905
0.420809
0.414205
0.405536
0.394081
0.380238
0.364808
0.348449
0.33232
0.316252
0.298296
0.275334
0.24368
0.206355
0.175859
0.157132
0.14793
0.146643
0.154061
0.182411
0.251717
0.34445
0.378825
0.37526
0.356053
0.334079
0.316312
0.305362
0.30137
0.301735
0.308073
0.321077
0.343468
0.376139
0.411734
0.435492
0.44271
0.449419
0.454233
0.455047
0.462518
0.464378
0.495626
0.53204
0.567983
0.607509
0.634792
0.655877
0.68364
0.709077
0.729474
0.739227
0.736516
0.729483
0.718602
0.705884
0.691691
0.675037
0.656091
0.635482
0.620059
0.595589
0.550357
0.522377
0.483058
0.452113
0.43914
0.425861
0.410852
0.392064
0.368573
0.340372
0.317336
0.301611
0.291665
0.286884
0.288145
0.300293
0.324953
0.360795
0.408349
0.45609
0.497983
0.549017
0.608467
0.649477
0.679687
0.699675
0.716243
0.724892
0.732025
0.739829
0.750239
0.764486
0.780389
0.796968
0.812971
0.823603
0.832971
0.839766
0.845235
0.848064
0.845166
0.836182
0.774188
0.587419
0.397677
0.297487
0.262608
0.258472
0.272253
0.306009
0.35547
0.409755
0.404565
0.396464
0.386376
0.37363
0.358784
0.343015
0.326509
0.310552
0.295501
0.279961
0.261908
0.237857
0.207476
0.179279
0.160572
0.150441
0.147432
0.152881
0.175708
0.239896
0.341786
0.389188
0.388473
0.368427
0.344903
0.325027
0.311812
0.305976
0.30485
0.308888
0.319817
0.339555
0.369836
0.404017
0.427941
0.435414
0.44398
0.451256
0.455678
0.463472
0.470012
0.509853
0.550703
0.586459
0.621325
0.642369
0.658826
0.679889
0.698214
0.715247
0.725096
0.72391
0.719801
0.711224
0.700516
0.687875
0.673418
0.65611
0.634901
0.619661
0.593254
0.552717
0.523221
0.487295
0.45348
0.442524
0.430539
0.414619
0.393366
0.36648
0.334665
0.313555
0.298712
0.29068
0.288036
0.291178
0.303507
0.326462
0.359898
0.403631
0.447641
0.485192
0.526965
0.57621
0.617194
0.648771
0.670683
0.68604
0.696866
0.703383
0.709745
0.719192
0.734412
0.752807
0.772868
0.790378
0.803132
0.813988
0.821929
0.826115
0.82661
0.819248
0.806513
0.754703
0.609198
0.436356
0.323542
0.274997
0.264366
0.274887
0.30698
0.354301
0.397151
0.389883
0.38094
0.369562
0.355239
0.339302
0.323325
0.307303
0.292523
0.279509
0.267023
0.252918
0.234536
0.209811
0.183504
0.164481
0.153635
0.149577
0.153505
0.172461
0.230592
0.338631
0.399362
0.401767
0.382086
0.357198
0.335801
0.320457
0.312103
0.308895
0.310856
0.319092
0.335979
0.363481
0.39535
0.418726
0.42664
0.436013
0.444247
0.45049
0.460875
0.468136
0.516531
0.556804
0.593637
0.625942
0.640964
0.656199
0.67124
0.684461
0.698471
0.709118
0.708858
0.707235
0.701465
0.692868
0.682729
0.670278
0.656033
0.637641
0.619388
0.594044
0.559832
0.528878
0.499799
0.459011
0.449476
0.435545
0.417667
0.393265
0.359451
0.326932
0.307313
0.295194
0.289663
0.28894
0.293026
0.304601
0.325571
0.354166
0.395347
0.437096
0.472095
0.506713
0.545718
0.583205
0.613351
0.635809
0.654103
0.665752
0.671707
0.675561
0.681592
0.693991
0.709458
0.727419
0.744741
0.762403
0.776097
0.785895
0.794252
0.79492
0.787784
0.765349
0.725682
0.622793
0.481272
0.361603
0.295588
0.273525
0.278195
0.305255
0.352226
0.386799
0.378258
0.368306
0.355549
0.338389
0.322138
0.306501
0.291721
0.278929
0.268361
0.258488
0.247115
0.232211
0.211648
0.187556
0.168381
0.156979
0.152228
0.155361
0.171672
0.225472
0.335257
0.409949
0.415232
0.39617
0.37087
0.348505
0.331661
0.3205
0.314691
0.313655
0.319414
0.333887
0.358436
0.386596
0.408442
0.416699
0.426323