/*--------------------------------*- C++ -*----------------------------------*\
  =========                 |
  \\      /  F ield         | OpenFOAM: The Open Source CFD Toolbox
   \\    /   O peration     | Website:  https://openfoam.org
    \\  /    A nd           | Version:  10
     \\/     M anipulation  |
\*---------------------------------------------------------------------------*/
FoamFile
{
    format      ascii;
    class       volScalarField;
    location    "0.450413";
    object      rho;
}
// * * * * * * * * * * * * * * * * * * * * * * * * * * * * * * * * * * * * * //

dimensions      [1 -3 0 0 0 0 0];

internalField   nonuniform List<scalar> 
16320
(
0.694654
0.480002
0.435595
0.424606
0.408427
0.366257
0.329702
0.288108
0.249867
0.221653
0.203319
0.183556
0.158684
0.137236
0.130579
0.129719
0.133172
0.144763
0.16782
0.20395
0.246823
0.279809
0.296266
0.302573
0.302891
0.292533
0.267199
0.229165
0.181673
0.140839
0.126874
0.124025
0.125072
0.128164
0.132224
0.136891
0.141768
0.146497
0.150614
0.154083
0.157014
0.159772
0.162226
0.165331
0.170992
0.185541
0.212879
0.243158
0.270053
0.291566
0.306136
0.316086
0.32375
0.334991
0.349722
0.3591
0.353449
0.321276
0.247346
0.219003
0.223604
0.261354
0.336552
0.480864
0.572525
0.595124
0.581274
0.548695
0.465053
0.312458
0.187966
0.156241
0.145122
0.123257
0.118045
0.126029
0.216872
0.413078
0.594721
0.696434
0.733915
0.749062
0.760437
0.786622
0.829531
0.935059
1.10231
1.25945
1.26769
1.08291
1.04443
1.03612
0.970655
1.02266
1.20486
1.02016
0.616973
0.383382
0.324664
0.305325
0.292072
0.270811
0.264358
0.270085
0.290813
0.346613
0.453483
0.611292
0.783938
0.929138
1.01998
1.0502
1.02288
0.723715
0.513596
0.477195
0.485959
0.490394
0.451142
0.40183
0.346504
0.293275
0.253546
0.222522
0.193554
0.167176
0.145549
0.13399
0.131473
0.132967
0.142507
0.162944
0.19575
0.238748
0.275834
0.295637
0.302973
0.305379
0.296845
0.269632
0.228262
0.179158
0.138189
0.125406
0.122897
0.124168
0.127268
0.131439
0.136278
0.141457
0.146758
0.151818
0.156478
0.160761
0.164414
0.168234
0.173428
0.182962
0.20451
0.231756
0.259631
0.28448
0.303842
0.316949
0.326682
0.335677
0.348605
0.361001
0.361123
0.347995
0.2855
0.227898
0.212566
0.221796
0.257402
0.339482
0.479865
0.560623
0.577233
0.566682
0.546595
0.492401
0.367696
0.212875
0.162625
0.142102
0.120969
0.116214
0.122974
0.216395
0.425316
0.619814
0.726134
0.765222
0.781003
0.794678
0.817675
0.83657
0.889167
1.02466
1.18695
1.27746
1.15994
1.05928
1.03615
0.961897
0.969377
1.12811
1.11015
0.799385
0.504503
0.407314
0.372137
0.337066
0.285486
0.259614
0.261912
0.281173
0.338476
0.448605
0.589745
0.75321
0.896068
0.988496
1.01458
0.966887
0.766819
0.5482
0.510039
0.525445
0.549355
0.531964
0.488549
0.430381
0.366557
0.310743
0.261796
0.217459
0.182664
0.157064
0.140343
0.135513
0.134925
0.142301
0.161276
0.192501
0.234902
0.274301
0.290898
0.299121
0.301388
0.292523
0.264266
0.221448
0.169239
0.131353
0.122221
0.121371
0.123343
0.126785
0.131202
0.136668
0.143261
0.150572
0.158466
0.16609
0.172946
0.179882
0.187989
0.200151
0.217071
0.239132
0.261218
0.283737
0.303531
0.319571
0.33079
0.339634
0.348738
0.360314
0.367954
0.361585
0.32965
0.253332
0.216379
0.209715
0.223146
0.25455
0.353346
0.482339
0.54467
0.564416
0.565014
0.552379
0.518554
0.423322
0.263534
0.176304
0.144057
0.121882
0.116664
0.124346
0.226295
0.451261
0.653402
0.764906
0.807833
0.825702
0.84576
0.873961
0.875242
0.861487
0.925735
1.063
1.20667
1.2074
1.07935
1.03943
0.959544
0.920819
1.02229
1.13372
0.981413
0.683005
0.504493
0.434386
0.374379
0.302463
0.253728
0.25153
0.268433
0.327176
0.451762
0.584903
0.7449
0.882012
0.96603
0.978319
0.899621
0.817798
0.587545
0.534787
0.542694
0.569823
0.567731
0.547878
0.511776
0.456731
0.395279
0.326861
0.262637
0.212389
0.175913
0.151005
0.142061
0.139225
0.143606
0.160384
0.191344
0.235609
0.265547
0.288096
0.291554
0.294045
0.282748
0.249157
0.1993
0.144653
0.122233
0.119398
0.120248
0.122808
0.126886
0.133362
0.142295
0.150806
0.160031
0.169271
0.179937
0.188974
0.19739
0.206892
0.222297
0.244185
0.268744
0.290833
0.310298
0.325863
0.337603
0.346103
0.3534
0.361652
0.369942
0.371436
0.357611
0.300306
0.232048
0.209873
0.208598
0.226479
0.256587
0.372031
0.481356
0.539483
0.567535
0.574629
0.566944
0.54877
0.48273
0.337948
0.203938
0.150339
0.124253
0.118307
0.128753
0.250119
0.471943
0.675222
0.799319
0.855397
0.878286
0.905708
0.935751
0.934602
0.850545
0.828645
0.911968
1.07564
1.15711
1.10265
1.04421
0.966765
0.878546
0.900692
1.07222
1.04668
0.828472
0.604948
0.487481
0.413459
0.322921
0.248519
0.24162
0.255341
0.308975
0.445462
0.592399
0.743123
0.870367
0.951269
0.95747
0.865181
0.872084
0.638393
0.551226
0.548805
0.56916
0.571228
0.562252
0.547042
0.521791
0.48018
0.413467
0.333811
0.263266
0.207778
0.168558
0.151998
0.145808
0.146631
0.15943
0.187051
0.22545
0.268225
0.26804
0.278233
0.276458
0.256698
0.212561
0.155992
0.123996
0.118066
0.11814
0.120278
0.124604
0.134107
0.143877
0.151972
0.164013
0.178523
0.196359
0.214688
0.231761
0.245254
0.251839
0.254945
0.266845
0.285924
0.307801
0.328695
0.343878
0.354407
0.36105
0.366469
0.372945
0.377742
0.373904
0.348144
0.27586
0.220378
0.206646
0.208852
0.230012
0.262222
0.386464
0.48069
0.543016
0.579405
0.595049
0.595865
0.582594
0.533679
0.409045
0.25488
0.162792
0.127844
0.120743
0.136627
0.269089
0.479926
0.680579
0.823232
0.897664
0.930554
0.964255
0.987402
0.961985
0.838796
0.748276
0.77962
0.891713
1.04964
1.0697
1.03054
0.972753
0.8543
0.830359
0.928405
0.995197
0.879005
0.676736
0.533322
0.451174
0.347145
0.246621
0.235619
0.246356
0.293373
0.42269
0.58258
0.735132
0.856187
0.935756
0.941991
0.849275
0.916003
0.718783
0.56998
0.550433
0.557874
0.559416
0.55502
0.550963
0.543818
0.523102
0.486027
0.420493
0.33705
0.259188
0.198213
0.166228
0.154951
0.151106
0.158017
0.179342
0.213727
0.228979
0.245855
0.242679
0.237265
0.204858
0.15503
0.125129
0.11756
0.116859
0.118912
0.124054
0.137031
0.147602
0.15827
0.181102
0.220832
0.271418
0.320908
0.360218
0.378034
0.370104
0.356812
0.345555
0.329634
0.321461
0.326762
0.340845
0.35475
0.365941
0.372847
0.377494
0.381808
0.383186
0.375646
0.339137
0.259198
0.214541
0.205784
0.21037
0.232674
0.28313
0.401872
0.475026
0.553497
0.609026
0.63939
0.64519
0.629799
0.573244
0.455519
0.307829
0.184988
0.133779
0.123993
0.145586
0.280266
0.467625
0.666488
0.837813
0.934201
0.976004
1.00371
1.0004
0.941565
0.808514
0.692317
0.686769
0.7418
0.91472
0.984708
0.988876
0.951348
0.835692
0.779163
0.790126
0.856703
0.81853
0.696915
0.567944
0.484829
0.378566
0.248083
0.230471
0.238765
0.282023
0.40242
0.559804
0.715517
0.835373
0.915446
0.925555
0.839533
0.958918
0.820414
0.611274
0.552566
0.544751
0.543045
0.540168
0.542692
0.54298
0.531769
0.512851
0.481463
0.421933
0.331278
0.247576
0.188608
0.166461
0.157556
0.157437
0.167921
0.184712
0.192218
0.194838
0.194244
0.179418
0.148262
0.124648
0.117335
0.116475
0.118688
0.126177
0.144119
0.154501
0.169326
0.223918
0.30339
0.38474
0.459676
0.517731
0.540445
0.558035
0.556385
0.530575
0.48746
0.442222
0.404229
0.375642
0.362957
0.366679
0.373926
0.38063
0.385368
0.387934
0.38651
0.375581
0.331779
0.249862
0.212528
0.206553
0.213332
0.236429
0.314189
0.404677
0.463648
0.555972
0.625842
0.666353
0.677331
0.660624
0.593022
0.463432
0.332986
0.208358
0.140559
0.128796
0.152122
0.265994
0.433039
0.660895
0.86172
0.966723
1.00441
1.01614
0.986791
0.88726
0.749383
0.646062
0.631109
0.661675
0.799101
0.899211
0.921139
0.907616
0.827414
0.736156
0.715946
0.737473
0.727282
0.664687
0.585166
0.510012
0.408069
0.251342
0.223461
0.230813
0.275307
0.386928
0.534815
0.690257
0.807777
0.886445
0.896491
0.809995
1.00653
0.900825
0.717058
0.57234
0.536757
0.528522
0.529221
0.535581
0.534808
0.521413
0.511563
0.500836
0.478062
0.413288
0.31599
0.230673
0.182459
0.166591
0.159433
0.160577
0.1649
0.164038
0.160751
0.155525
0.140439
0.123914
0.117389
0.116578
0.118821
0.128141
0.150599
0.16446
0.190929
0.272262
0.386795
0.498439
0.595703
0.675984
0.747551
0.819472
0.853184
0.809251
0.719347
0.616918
0.549986
0.499238
0.454191
0.415775
0.391006
0.384774
0.387194
0.39083
0.391993
0.389173
0.374191
0.327822
0.245419
0.212869
0.208194
0.217675
0.243986
0.332115
0.387433
0.436255
0.534989
0.623868
0.678409
0.692952
0.670867
0.580405
0.446871
0.332147
0.214382
0.141249
0.132021
0.152948
0.237475
0.429004
0.677676
0.886282
0.984277
1.0153
1.01499
0.955682
0.811432
0.695603
0.61386
0.595818
0.613154
0.721302
0.827681
0.858989
0.856331
0.810508
0.706941
0.670241
0.660833
0.663352
0.63393
0.586819
0.525739
0.418575
0.252871
0.214936
0.222034
0.271867
0.376382
0.510896
0.661501
0.776849
0.85209
0.856428
0.758553
1.01519
0.976428
0.835597
0.641104
0.549766
0.522113
0.523165
0.534572
0.532266
0.505115
0.48313
0.494361
0.497215
0.473382
0.396336
0.294014
0.213924
0.178436
0.16603
0.159444
0.156715
0.150645
0.143955
0.135574
0.12456
0.118761
0.117698
0.118957
0.129331
0.155623
0.177568
0.210534
0.300643
0.452955
0.59946
0.733179
0.856417
0.973972
1.08435
1.09866
1.03254
0.907218
0.767908
0.647105
0.591207
0.554649
0.51756
0.475453
0.435944
0.407644
0.396277
0.395858
0.395386
0.390909
0.373437
0.324119
0.243349
0.214483
0.211498
0.221818
0.264969
0.340393
0.36469
0.400776
0.501977
0.612637
0.68331
0.695429
0.6567
0.522971
0.413815
0.320787
0.210985
0.139788
0.133528
0.14494
0.233896
0.44794
0.715252
0.915448
0.995161
1.01787
1.00487
0.902512
0.734571
0.65248
0.590082
0.571047
0.581506
0.671444
0.773776
0.807541
0.809486
0.781939
0.690346
0.639768
0.623361
0.620272
0.6166
0.587611
0.535213
0.403718
0.240943
0.206542
0.212811
0.268785
0.370161
0.4935
0.630581
0.745127
0.81739
0.811173
0.694478
1.00479
1.02331
0.92902
0.766111
0.595566
0.537579
0.52535
0.542203
0.538263
0.493206
0.452627
0.45529
0.49632
0.501538
0.462783
0.371751
0.269572
0.200967
0.175803
0.165126
0.157043
0.148868
0.139372
0.129589
0.122802
0.119521
0.119487
0.132114
0.158403
0.186322
0.22039
0.30174
0.482211
0.669475
0.839613
0.995115
1.13795
1.24974
1.24554
1.14199
0.955506
0.777441
0.682667
0.61797
0.586289
0.562526
0.539946
0.511649
0.47567
0.440117
0.414704
0.402664
0.39874
0.393101
0.373705
0.321444
0.242667
0.218018
0.215619
0.228587
0.289135
0.339871
0.344852
0.37253
0.475486
0.611252
0.684443
0.685791
0.616621
0.445194
0.361294
0.299215
0.202479
0.136809
0.133479
0.144072
0.246364
0.499166
0.772815
0.940761
0.997729
1.01056
0.979294
0.828302
0.664422
0.620394
0.573611
0.55492
0.56024
0.640123
0.734292
0.768136
0.77169
0.75423
0.679888
0.621511
0.607659
0.6039
0.610354
0.591507
0.544332
0.389476
0.224433
0.19772
0.204555
0.264782
0.370526
0.483589
0.611322
0.718768
0.783462
0.763654
0.635344
0.979091
1.02261
1.0014
0.880921
0.712335
0.583231
0.554722
0.56133
0.559213
0.505045
0.437782
0.422492
0.460148
0.510747
0.503499
0.443705
0.340772
0.246362
0.193572
0.174785
0.164083
0.153527
0.142794
0.132713
0.125823
0.125117
0.135325
0.158906
0.187647
0.221788
0.289871
0.465767
0.68223
0.878423
1.05651
1.22264
1.34048
1.34781
1.15316
0.762405
0.465003
0.421276
0.449854
0.505966
0.543204
0.552661
0.54219
0.521633
0.495895
0.465622
0.437268
0.417572
0.406039
0.397067
0.372034
0.315866
0.240945
0.222026
0.219971
0.2464
0.303223
0.323335
0.328675
0.372335
0.489429
0.6315
0.688101
0.681538
0.583703
0.385357
0.302995
0.269001
0.18847
0.13254
0.131329
0.145647
0.285543
0.571127
0.805993
0.944987
0.989343
0.994422
0.944861
0.756764
0.611018
0.593303
0.57042
0.550958
0.551627
0.622522
0.7053
0.738165
0.742424
0.731549
0.67082
0.614556
0.600085
0.600449
0.610276
0.602649
0.550784
0.378571
0.218028
0.192962
0.199546
0.263024
0.374244
0.485068
0.59874
0.696989
0.752406
0.713949
0.573662
0.913989
1.00344
1.01757
0.962044
0.836096
0.68529
0.608418
0.597332
0.59831
0.538427
0.432186
0.405061
0.416733
0.494425
0.522375
0.494596
0.417571
0.308406
0.228575
0.190007
0.175024
0.163821
0.151994
0.141346
0.135153
0.141386
0.159954
0.186156
0.219136
0.272136
0.397227
0.637403
0.855584
1.04102
1.21292
1.36454
1.38604
1.1283
0.609158
0.296952
0.254965
0.255221
0.286876
0.349602
0.432232
0.497675
0.524569
0.521339
0.50181
0.478161
0.453311
0.432195
0.416328
0.399161
0.369302
0.305758
0.238478
0.225425
0.229129
0.275381
0.307368
0.308083
0.321265
0.377749
0.517457
0.646924
0.691653
0.683026
0.573081
0.354224
0.251188
0.237565
0.170557
0.128711
0.129396
0.153345
0.346827
0.603615
0.807044
0.933464
0.974418
0.973596
0.906799
0.689642
0.572237
0.572646
0.576614
0.560166
0.556781
0.620722
0.687238
0.717448
0.722394
0.71693
0.670153
0.618256
0.603852
0.60563
0.615772
0.623677
0.550894
0.358666
0.212569
0.190052
0.196
0.259465
0.376194
0.490256
0.592192
0.678248
0.72569
0.671111
0.529762
0.778299
0.956955
1.0022
0.990779
0.920187
0.803786
0.698222
0.671584
0.659394
0.5902
0.457046
0.396918
0.390982
0.447022
0.528061
0.525528
0.477385
0.382431
0.279845
0.21794
0.19155
0.177351
0.165151
0.155835
0.155145
0.165525
0.1839
0.210715
0.249981
0.329214
0.532755
0.778306
0.972528
1.13855
1.31324
1.38175
1.19635
0.744637
0.362019
0.254355
0.240092
0.237006
0.251424
0.289273
0.348708
0.42415
0.482293
0.506175
0.50108
0.481976
0.458674
0.437614
0.419398
0.398179
0.356097
0.278758
0.239656
0.232085
0.255383
0.288438
0.303071
0.293596
0.311633
0.360922
0.476555
0.611745
0.683486
0.685516
0.582993
0.343725
0.223774
0.21071
0.153798
0.126584
0.129211
0.172078
0.37797
0.60629
0.792533
0.913822
0.955327
0.951228
0.867483
0.6277
0.53855
0.556531
0.591298
0.578394
0.574352
0.635905
0.682312
0.705373
0.711372
0.710974
0.676624
0.632398
0.617874
0.620064
0.6328
0.649281
0.538568
0.314267
0.201433
0.185961
0.192307
0.254337
0.376204
0.494253
0.591366
0.664919
0.70022
0.6283
0.511627
0.575705
0.852007
0.971279
0.980272
0.95653
0.893764
0.798497
0.742206
0.720176
0.652338
0.515052
0.394814
0.375548
0.404201
0.509773
0.542438
0.517453
0.451851
0.344117
0.257218
0.220867
0.201133
0.186701
0.179707
0.180745
0.19054
0.206007
0.232086
0.281606
0.405384
0.650028
0.875044
1.03669
1.19457
1.33705
1.33346
1.13401
0.746183
0.404997
0.33217
0.302851
0.263578
0.254436
0.27485
0.328412
0.406481
0.475754
0.487406
0.496477
0.481331
0.460145
0.438719
0.417586
0.385042
0.321196
0.259767
0.243247
0.249156
0.275707
0.2898
0.285114
0.279126
0.291885
0.316139
0.378315
0.519203
0.651385
0.685302
0.61317
0.366496
0.214134
0.189018
0.141795
0.126065
0.131168
0.191329
0.384738
0.580554
0.739949
0.885024
0.935332
0.928432
0.826426
0.570306
0.50297
0.547448
0.609039
0.601166
0.600589
0.658066
0.68438
0.700251
0.708635
0.712785
0.688633
0.64949
0.637566
0.642205
0.662758
0.660475
0.500679
0.266285
0.193453
0.183333
0.189052
0.247172
0.375375
0.500393
0.59366
0.660264
0.67872
0.590695
0.511116
0.442173
0.666601
0.899673
0.961403
0.95538
0.937156
0.892612
0.819619
0.789458
0.718299
0.564533
0.412118
0.369859
0.380529
0.47427
0.546541
0.540966
0.502365
0.41585
0.305614
0.253275
0.230369
0.213981
0.20522
0.206728
0.215393
0.227746
0.254874
0.322905
0.488535
0.735273
0.926609
1.06825
1.21774
1.33301
1.33765
1.19606
0.907596
0.780718
0.759279
0.674547
0.460959
0.296502
0.281481
0.313023
0.392269
0.436529
0.480605
0.471235
0.471644
0.4526
0.42842
0.396688
0.339872
0.281435
0.259499
0.253057
0.269609
0.279571
0.281616
0.268038
0.266452
0.271746
0.282122
0.311291
0.408759
0.591233
0.672849
0.636743
0.419401
0.21337
0.174315
0.136861
0.126689
0.135113
0.198693
0.370015
0.502992
0.678936
0.852437
0.912612
0.903323
0.78292
0.522417
0.466805
0.551527
0.629207
0.622055
0.631085
0.679301
0.687945
0.699392
0.710476
0.717489
0.699382
0.668547
0.661757
0.668007
0.700609
0.649724
0.453254
0.246238
0.193088
0.184711
0.189554
0.239937
0.371978
0.506358
0.59716
0.65988
0.665755
0.564825
0.51461
0.377079
0.510245
0.753445
0.914824
0.949707
0.945162
0.934098
0.903983
0.869842
0.789204
0.611981
0.426514
0.369005
0.371912
0.43889
0.536705
0.554158
0.533581
0.475492
0.368218
0.288406
0.259905
0.242041
0.231758
0.232611
0.241021
0.251371
0.277077
0.351653
0.532011
0.763279
0.930516
1.06444
1.20879
1.32008
1.35581
1.39511
1.42856
1.38142
1.31183
1.02583
0.61929
0.331452
0.28089
0.288878
0.342003
0.400374
0.413603
0.430683
0.426688
0.415691
0.383196
0.334793
0.29243
0.271863
0.263675
0.267828
0.273997
0.276302
0.264835
0.257739
0.257273
0.258465
0.263313
0.281155
0.339624
0.522236
0.648519
0.644665
0.487815
0.251558
0.162304
0.135935
0.128254
0.139333
0.19844
0.322096
0.418582
0.614991
0.818227
0.889689
0.875848
0.734342
0.482773
0.449091
0.568733
0.657447
0.649206
0.666968
0.690833
0.690032
0.701947
0.715869
0.725217
0.710044
0.681936
0.683205
0.698859
0.710091
0.616739
0.388278
0.227381
0.191538
0.184971
0.188772
0.230442
0.363875
0.510183
0.601809
0.662489
0.652721
0.544654
0.516948
0.347924
0.427824
0.615016
0.801727
0.918616
0.949992
0.947378
0.935248
0.900495
0.812173
0.620866
0.433105
0.36665
0.363824
0.409179
0.519706
0.558374
0.550544
0.517802
0.434969
0.328613
0.288807
0.268697
0.256326
0.255042
0.26364
0.270911
0.290198
0.35892
0.534664
0.749659
0.911254
1.03307
1.17402
1.26949
1.33811
1.55883
1.83728
1.89401
1.73746
1.26635
0.731113
0.370296
0.274194
0.270954
0.293665
0.326012
0.34104
0.349204
0.347801
0.341832
0.319608
0.294203
0.279427
0.271942
0.268723
0.270622
0.271282
0.262489
0.254918
0.251943
0.251153
0.250936
0.253131
0.263849
0.301791
0.451308
0.610557
0.634771
0.541529
0.301678
0.160102
0.136663
0.130332
0.141292
0.188411
0.272676
0.337246
0.58181
0.799932
0.868553
0.84718
0.677027
0.455746
0.44309
0.602611
0.674265
0.670848
0.695207
0.699751
0.692165
0.707951
0.722158
0.728747
0.709117
0.698767
0.702863
0.725909
0.694173
0.537923
0.297071
0.206893
0.18927
0.186154
0.190109
0.221228
0.350194
0.511523
0.609439
0.665728
0.634723
0.528415
0.516685
0.337994
0.395262
0.54613
0.720407
0.851994
0.946221
0.95624
0.949816
0.909457
0.803001
0.583571
0.411781
0.35963
0.357044
0.388428
0.501054
0.555942
0.559571
0.542145
0.4865
0.37901
0.318546
0.294083
0.279981
0.274532
0.281834
0.290968
0.306672
0.364182
0.527117
0.743496
0.871377
0.989684
1.11327
1.18974
1.25987
1.52884
1.93947
2.10926
1.9465
1.42585
0.854797
0.442674
0.281755
0.267735
0.269777
0.281433
0.291977
0.297165
0.29791
0.294831
0.287552
0.279004
0.273802
0.270675
0.268533
0.266489
0.259695
0.253975
0.250961
0.249853
0.249136
0.248303
0.248545
0.25334
0.27736
0.374173
0.558361
0.614339
0.572616
0.363293
0.169097
0.139563
0.133242
0.141439
0.172327
0.226746
0.306561
0.578623
0.795355
0.852701
0.818233
0.616926
0.438359
0.458678
0.636029
0.690594
0.691868
0.70405
0.703282
0.697321
0.714615
0.726058
0.726228
0.7109
0.713475
0.73001
0.719267
0.640748
0.419736
0.241226
0.199505
0.191248
0.189537
0.194239
0.215315
0.330273
0.508641
0.619118
0.669237
0.612599
0.516455
0.51594
0.338182
0.390302
0.524039
0.691339
0.816973
0.929937
0.945576
0.936567
0.874495
0.710286
0.477873
0.375514
0.348881
0.350984
0.377939
0.48797
0.551465
0.563873
0.554552
0.520914
0.432897
0.34821
0.317869
0.302114
0.293637
0.296017
0.305872
0.317755
0.36964
0.501567
0.710124
0.852405
0.945115
1.04878
1.08521
1.12643
1.36409
1.82207
2.0454
1.97454
1.52153
0.995126
0.569321
0.324636
0.280284
0.272253
0.271108
0.273712
0.275121
0.275057
0.274608
0.272276
0.268969
0.266394
0.264494
0.261733
0.258018
0.254448
0.251967
0.250656
0.250002
0.249259
0.248251
0.247509
0.248439
0.259792
0.316474
0.4891
0.586843
0.5821
0.441419
0.210323
0.145374
0.137069
0.141194
0.15983
0.193109
0.305208
0.588468
0.795395
0.840239
0.784796
0.557493
0.429154
0.493116
0.665629
0.701817
0.701064
0.707562
0.705413
0.704491
0.718745
0.725104
0.720789
0.721515
0.733895
0.731708
0.692715
0.531775
0.301439
0.217516
0.199397
0.194499
0.194211
0.198724
0.215641
0.311747
0.499673
0.626991
0.672005
0.596174
0.51059
0.517271
0.341392
0.394568
0.524152
0.679769
0.793659
0.881811
0.885965
0.848211
0.72531
0.512152
0.388359
0.34826
0.34198
0.347106
0.375606
0.483661
0.551094
0.566247
0.560313
0.540887
0.480517
0.38032
0.33942
0.321033
0.311133
0.30794
0.314884
0.324595
0.363305
0.46772
0.654262
0.812084
0.908458
0.992838
0.991472
0.956094
1.06089
1.35372
1.76448
1.8454
1.60682
1.16017
0.722793
0.440063
0.34674
0.313198
0.295394
0.283667
0.278209
0.274947
0.272544
0.270152
0.267418
0.264933
0.262567
0.260037
0.257472
0.255118
0.253827
0.253513
0.253255
0.252102
0.250175
0.248172
0.246857
0.251106
0.281222
0.410584
0.548282
0.568881
0.497782
0.274699
0.156589
0.142042
0.141646
0.1535
0.181009
0.314978
0.608634
0.798901
0.828316
0.743595
0.504089
0.426682
0.530433
0.682603
0.708173
0.7065
0.709426
0.707587
0.70834
0.718852
0.723962
0.72915
0.740568
0.738959
0.715135
0.606276
0.378203
0.241677
0.209662
0.201485
0.198783
0.200836
0.20485
0.217694
0.291541
0.479264
0.629377
0.674497
0.595837
0.510684
0.519062
0.34486
0.399549
0.522757
0.651599
0.738847
0.774652
0.743483
0.643428
0.489403
0.386038
0.345819
0.337418
0.340395
0.349043
0.38091
0.485861
0.553006
0.565754
0.563136
0.5514
0.511172
0.41483
0.358813
0.337213
0.325692
0.319411
0.323428
0.327729
0.352336
0.425887
0.576344
0.737272
0.846507
0.924258
0.907199
0.843456
0.78515
0.870486
1.30381
1.6788
1.74089
1.60015
1.28007
0.998481
0.8524
0.74481
0.61887
0.478994
0.377917
0.323688
0.296692
0.283404
0.27648
0.272092
0.268957
0.2667
0.265284
0.264798
0.264863
0.264789
0.263405
0.260645
0.256199
0.251497
0.247624
0.247669
0.263421
0.343432
0.50118
0.549769
0.526298
0.355707
0.180749
0.145726
0.143175
0.151405
0.177593
0.33163
0.634245
0.803115
0.816393
0.691858
0.466067
0.428463
0.562217
0.694232
0.714003
0.711562
0.710202
0.71034
0.712579
0.724442
0.740111
0.747042
0.744272
0.726824
0.64729
0.445179
0.268052
0.221574
0.209415
0.205738
0.206898
0.209623
0.212378
0.222929
0.266965
0.439031
0.620093
0.685599
0.623425
0.518639
0.523056
0.346919
0.400597
0.50425
0.580787
0.619067
0.589872
0.52435
0.437312
0.371614
0.34011
0.333022
0.336698
0.348044
0.362883
0.403485
0.495207
0.556769
0.566787
0.563467
0.555566
0.531573
0.451089
0.378144
0.350771
0.338143
0.330255
0.330056
0.333532
0.344928
0.38821
0.488374
0.635015
0.757679
0.83403
0.818374
0.769328
0.646025
0.632428
0.837758
1.39123
1.76435
1.95111
1.98212
1.90898
1.81886
1.6743
1.43226
1.12059
0.833294
0.633496
0.505039
0.4158
0.365046
0.336483
0.319833
0.310151
0.304844
0.302912
0.300953
0.297927
0.292434
0.284073
0.273222
0.262088
0.251542
0.247105
0.255288
0.301253
0.445569
0.529562
0.532523
0.424109
0.225677
0.153726
0.145756
0.15094
0.177778
0.356379
0.665371
0.804916
0.798954
0.632094
0.447013
0.434308
0.584898
0.705169
0.723135
0.718702
0.71437
0.716995
0.731472
0.746185
0.751391
0.750628
0.734299
0.662894
0.478471
0.289025
0.232224
0.217549
0.213873
0.215877
0.220434
0.220749
0.222223
0.230438
0.255193
0.382139
0.580193
0.688117
0.678071
0.55578
0.535575
0.343444
0.387382
0.441507
0.461671
0.469095
0.432897
0.388879
0.352819
0.333578
0.329213
0.332276
0.342974
0.373962
0.393214
0.43713
0.516107
0.565167
0.569041
0.560994
0.557561
0.542969
0.486848
0.396419
0.361538
0.347992
0.339614
0.336857
0.337092
0.342932
0.367171
0.423076
0.518681
0.633727
0.746925
0.748383
0.709708
0.601392
0.518603
0.574368
0.975192
1.5194
1.96399
2.23226
2.29227
2.26011
2.09496
1.80402
1.46732
1.14941
0.920246
0.770123
0.642171
0.550094
0.484349
0.438919
0.409485
0.389403
0.37029
0.351036
0.331282
0.3124
0.294743
0.279279
0.266206
0.255545
0.248884
0.252564
0.281608
0.392662
0.502376
0.524753
0.464289
0.28223
0.167698
0.150839
0.15154
0.181175
0.390719
0.700652
0.803741
0.777021
0.576374
0.439548
0.44653
0.609587
0.714905
0.733081
0.731381
0.727286
0.734551
0.746811
0.752898
0.754344
0.736885
0.663828
0.484796
0.298736
0.239062
0.224907
0.222803
0.228843
0.236511
0.236954
0.234726
0.234294
0.24084
0.256595
0.320023
0.509863
0.670954
0.717005
0.624695
0.569382
0.334813
0.360638
0.377532
0.382743
0.376683
0.355059
0.337148
0.327814
0.326683
0.330028
0.338602
0.363116
0.406862
0.430595
0.47222
0.537474
0.574756
0.573986
0.557166
0.558029
0.549448
0.510814
0.416005
0.370969
0.354447
0.346064
0.342416
0.343125
0.344364
0.355525
0.385211
0.438755
0.496359
0.604899
0.653499
0.637186
0.57933
0.481012
0.464386
0.626435
1.14466
1.74314
2.19262
2.2963
2.21085
1.95019
1.57911
1.26567
1.05998
0.916189
0.809597
0.708705
0.628977
0.562773
0.508092
0.462079
0.421871
0.386381
0.355506
0.329914
0.307752
0.289379
0.275302
0.264024
0.255487
0.250506
0.252698
0.273379
0.353294
0.471917
0.508115
0.48656
0.34732
0.196614
0.155727
0.15345
0.188364
0.430868
0.732824
0.805289
0.755243
0.537355
0.435413
0.456076
0.623518
0.72465
0.742017
0.74024
0.737535
0.743836
0.754153
0.753574
0.73268
0.648228
0.465789
0.294846
0.240973
0.231366
0.232991
0.249477
0.262048
0.263222
0.257888
0.252044
0.248277
0.249391
0.262158
0.295461
0.432355
0.620335
0.717622
0.716595
0.61529
0.329385
0.339251
0.343455
0.340982
0.335027
0.32741
0.324307
0.325304
0.329426
0.338793
0.356436
0.394185
0.442906
0.471359
0.506336
0.558086
0.58468
0.580774
0.551887
0.553995
0.563547
0.53649
0.443414
0.38071
0.360283
0.351035
0.346218
0.347228
0.349556
0.354564
0.367014
0.393927
0.419422
0.472373
0.543611
0.549911
0.531339
0.47093
0.420258
0.46311
0.789032
1.40405
2.03997
2.20087
2.11125
1.79798
1.34996
0.989168
0.848212
0.795916
0.747282
0.682754
0.619068
0.558203
0.502983
0.453229
0.407058
0.364441
0.323391
0.299841
0.283333
0.275017
0.26879
0.263002
0.256398
0.253149
0.254699
0.271536
0.330007
0.442216
0.494082
0.496239
0.403137
0.239414
0.164252
0.156422
0.199095
0.473769
0.762015
0.809701
0.74061
0.517892
0.431815
0.459303
0.629417
0.730684
0.749217
0.748245
0.746036
0.74859
0.747994
0.711987
0.611434
0.426107
0.281617
0.239746
0.23742
0.248308
0.285099
0.30587
0.306691
0.297746
0.28515
0.272045
0.263168
0.260599
0.27056
0.289119
0.345925
0.529587
0.687057
0.740676
0.712122
0.325923
0.328007
0.327453
0.323785
0.322366
0.322413
0.324856
0.329481
0.33907
0.354931
0.379103
0.426799
0.48301
0.510918
0.538281
0.577979
0.594991
0.58832
0.549663
0.55052
0.575818
0.56037
0.495134
0.397447
0.365869
0.354484
0.34949
0.348594
0.351817
0.357141
0.364907
0.376361
0.387434
0.406257
0.456228
0.485024
0.480318
0.456324
0.403165
0.408138
0.545814
1.08401
1.82271
2.07433
1.99902
1.64347
1.16674
0.83217
0.721498
0.680065
0.658409
0.620312
0.569538
0.508239
0.443492
0.376043
0.33142
0.302936
0.29093
0.285769
0.282655
0.280197
0.27623
0.268674
0.261569
0.258523
0.259112
0.273512
0.32101
0.420458
0.480208
0.497077
0.444276
0.290693
0.176454
0.16092
0.213041
0.517871
0.785269
0.815337
0.732095
0.509045
0.420048
0.447046
0.613926
0.721591
0.744883
0.745473
0.74054
0.723678
0.676223
0.549741
0.375501
0.268657
0.240092
0.242648
0.279746
0.342872
0.37373
0.37922
0.369338
0.349478
0.322328
0.300264
0.283159
0.27396
0.275111
0.288076
0.3157
0.421794
0.613138
0.727154
0.758158
0.324388
0.324197
0.321127
0.320343
0.3214
0.324408
0.329693
0.338137
0.350681
0.370786
0.40155
0.450036
0.515229
0.547261
0.565278
0.594649
0.605209
0.597192
0.55186
0.542967
0.575842
0.599022
0.553269
0.436138
0.377493
0.359576
0.353009
0.351362
0.352296
0.356464
0.363236
0.372164
0.377967
0.385196
0.406303
0.439497
0.441856
0.43277
0.395816
0.384452
0.435773
0.808102
1.5947
1.96687
1.85142
1.38717
0.882607
0.671834
0.614976
0.58629
0.544673
0.489236
0.422891
0.367795
0.3269
0.308764
0.302677
0.301039
0.302779
0.312402
0.315296
0.314683
0.308886
0.295997
0.280862
0.271735
0.269088
0.278357
0.319591
0.40736
0.469131
0.492377
0.471336
0.352418
0.20372
0.166503
0.228068
0.555801
0.804965
0.825764
0.740957
0.523453
0.404053
0.410661
0.551906
0.673823
0.704852
0.706798
0.685733
0.615953
0.480012
0.32889
0.259402
0.245968
0.263297
0.33873
0.393882
0.417594
0.424672
0.422934
0.414844
0.402144
0.380608
0.347657
0.316954
0.296139
0.286985
0.29354
0.310568
0.351815
0.503459
0.676225
0.753912
0.325301
0.323437
0.321339
0.321659
0.32388
0.328688
0.334578
0.341802
0.353863
0.374014
0.406434
0.458215
0.528995
0.571762
0.591003
0.607959
0.61505
0.607488
0.556278
0.531383
0.570108
0.643527
0.61246
0.522528
0.404908
0.368746
0.357547
0.355177
0.354941
0.357148
0.36049
0.3658
0.371164
0.375074
0.384101
0.408611
0.412674
0.407882
0.385325
0.370533
0.39312
0.6121
1.39326
1.91325
1.73421
1.11014
0.64934
0.546612
0.504164
0.450007
0.383554
0.341597
0.324461
0.313104
0.309978
0.311387
0.320198
0.34077
0.353015
0.357645
0.357674
0.353925
0.348238
0.342961
0.331142
0.314289
0.30312
0.301608
0.333087
0.40422
0.467266
0.496511
0.489176
0.411904
0.250018
0.174066
0.238542
0.57904
0.82023
0.838339
0.762028
0.55915
0.395311
0.374032
0.440174
0.556938
0.595161
0.596048
0.539316
0.416417
0.30168
0.254664
0.25055
0.282474
0.368627
0.420979
0.437882
0.440802
0.439836
0.436562
0.431103
0.424574
0.415879
0.402073
0.376023
0.338853
0.312743
0.304275
0.312573
0.331927
0.390884
0.567608
0.717631
0.32745
0.324604
0.323541
0.324607
0.327762
0.332264
0.336442
0.342381
0.35093
0.364447
0.389213
0.442834
0.529866
0.5815
0.608419
0.621273
0.624536
0.617725
0.56545
0.523805
0.557443
0.653428
0.676331
0.613449
0.499431
0.398454
0.369125
0.361247
0.35995
0.361523
0.362368
0.364204
0.365462
0.367105
0.370579
0.383605
0.38872
0.386322
0.37361
0.361906
0.375132
0.501264
1.25285
1.87562
1.63814
0.868617
0.569143
0.504086
0.448852
0.373568
0.33535
0.322887
0.319054
0.319599
0.331142
0.359445
0.390614
0.406788
0.41364
0.414162
0.400348
0.386826
0.37963
0.37628
0.3747
0.373858
0.381378
0.395806
0.415934
0.443269
0.481121
0.508383
0.505207
0.455927
0.307669
0.187085
0.244837
0.591631
0.827814
0.851381
0.791224
0.603216
0.408627
0.351331
0.362924
0.421825
0.441053
0.432683
0.369294
0.293469
0.252646
0.250269
0.28517
0.375409
0.427146
0.443495
0.44467
0.441964
0.440043
0.437309
0.433509
0.430081
0.426789
0.423069
0.416805
0.400668
0.365691
0.331116
0.321166
0.330531
0.354747
0.437433
0.617489
0.33038
0.327202
0.326269
0.327576
0.330846
0.334355
0.337528
0.34198
0.347486
0.354926
0.367285
0.395097
0.481999
0.583143
0.616583
0.63331
0.635345
0.629059
0.584389
0.52434
0.538744
0.647524
0.713803
0.69119
0.615585
0.503708
0.411517
0.379464
0.370256
0.36859
0.368293
0.368498
0.367507
0.365639
0.365728
0.36855
0.370847
0.369725
0.363571
0.356421
0.366393
0.45101
1.13344
1.87391