/*--------------------------------*- C++ -*----------------------------------*\
  =========                 |
  \\      /  F ield         | OpenFOAM: The Open Source CFD Toolbox
   \\    /   O peration     | Website:  https://openfoam.org
    \\  /    A nd           | Version:  10
     \\/     M anipulation  |
\*---------------------------------------------------------------------------*/
FoamFile
{
    format      ascii;
    class       volScalarField;
    location    "0.450413";
    object      T;
}
// * * * * * * * * * * * * * * * * * * * * * * * * * * * * * * * * * * * * * //

dimensions      [0 0 0 1 0 0 0];

internalField   nonuniform List<scalar> 
16320
(
0.00341179
0.00479594
0.00512105
0.00490142
0.00458623
0.00449069
0.00447143
0.00475953
0.00527379
0.00581434
0.00625833
0.00687959
0.00792779
0.00908862
0.00951003
0.009533
0.00923952
0.00846658
0.00728829
0.00599578
0.00496888
0.00442417
0.00421677
0.00416685
0.00420678
0.00440517
0.00488104
0.00576574
0.00737922
0.00967458
0.0109496
0.0114841
0.0117494
0.0119144
0.0120741
0.0122394
0.0124098
0.0125743
0.012733
0.0128648
0.0129489
0.01297
0.0129421
0.0128078
0.0124483
0.0115044
0.0100387
0.00879052
0.00790995
0.00731437
0.00694852
0.00671179
0.00652998
0.00628336
0.00598554
0.00578779
0.00582666
0.00634004
0.00812586
0.00908047
0.00877673
0.00740286
0.00562603
0.00383807
0.00312079
0.00290915
0.00290183
0.00301012
0.00349731
0.0051585
0.00859332
0.0103565
0.0111564
0.0131285
0.0136799
0.0127446
0.00736618
0.00378426
0.00253271
0.00207195
0.00190772
0.00185824
0.00185811
0.00188448
0.0019681
0.00202554
0.00204404
0.00203722
0.00213874
0.00255083
0.00267282
0.00272404
0.00293797
0.00280217
0.00237028
0.00242659
0.00311049
0.00397285
0.00410369
0.00410573
0.00421058
0.0045457
0.00472289
0.00472624
0.00450688
0.00390897
0.00312748
0.00247676
0.002101
0.00193612
0.0018974
0.00191208
0.00198397
0.00317911
0.00442886
0.00474457
0.00455676
0.00431629
0.00428005
0.00428541
0.00449685
0.00492543
0.00541116
0.00595431
0.006697
0.00764403
0.00869191
0.00933585
0.00944612
0.00925687
0.00857182
0.00745151
0.00618238
0.00506466
0.00441532
0.0041472
0.00408221
0.00409092
0.0042598
0.0047569
0.00571229
0.00740858
0.00976517
0.0109835
0.0114994
0.0117471
0.0119126
0.0120655
0.012226
0.0123911
0.0125448
0.0126767
0.0127619
0.0127826
0.0127557
0.012631
0.0123422
0.0117473
0.0105484
0.00931582
0.00831227
0.00757535
0.00707577
0.00676138
0.00653753
0.00633575
0.00606977
0.00582441
0.00577606
0.00593624
0.00714487
0.00886392
0.00940145
0.00889985
0.00756354
0.00562526
0.00388685
0.00323075
0.00304958
0.00303237
0.00308519
0.00337969
0.00449066
0.00773469
0.0101662
0.0116619
0.0137107
0.0142567
0.0134156
0.00759574
0.00379834
0.00252599
0.00207949
0.00192871
0.00189162
0.001897
0.00194481
0.00208583
0.00223055
0.00223818
0.00218058
0.00215967
0.00242631
0.00267219
0.00273443
0.00294505
0.00290947
0.00246582
0.00235164
0.00263784
0.00327001
0.00341433
0.00343617
0.00368719
0.0043419
0.00482655
0.00488269
0.00466372
0.00400272
0.00316359
0.00257499
0.00220167
0.00202878
0.00197934
0.00199063
0.00210904
0.00290841
0.00407795
0.00441145
0.00431489
0.0041495
0.00417259
0.00422973
0.00434518
0.00461135
0.00498784
0.00555172
0.0063763
0.00733685
0.00834275
0.00912508
0.0093147
0.00921718
0.00862574
0.00752704
0.00624803
0.00509348
0.00438137
0.00414785
0.00406884
0.00408027
0.0042627
0.00479276
0.00582232
0.00774976
0.0101536
0.0111569
0.0115383
0.0117231
0.0118534
0.0119864
0.0121067
0.0121827
0.0122183
0.0122086
0.012159
0.0120763
0.011891
0.0115454
0.0109192
0.0100902
0.00914649
0.00836464
0.00768844
0.00717018
0.00678898
0.00653377
0.00633653
0.00614083
0.0059085
0.00574371
0.00579267
0.00628523
0.00808952
0.00938552
0.00958372
0.00890584
0.00770294
0.00545919
0.00391219
0.00337575
0.00317688
0.00310584
0.00312447
0.00328941
0.00400135
0.00639378
0.00960315
0.0117904
0.0139593
0.0145816
0.01364
0.00748197
0.003705
0.00250217
0.00208226
0.00194966
0.00192287
0.00193179
0.00198232
0.00215596
0.00243747
0.00253303
0.0024322
0.00228409
0.0023496
0.00263623
0.00272657
0.00293348
0.00301581
0.00265802
0.00230974
0.0023391
0.00265954
0.00294397
0.00304998
0.00338294
0.00414637
0.00496871
0.00509862
0.00488422
0.00412816
0.00312485
0.0025861
0.00222798
0.00207281
0.00203872
0.00207317
0.00227749
0.0026584
0.00373878
0.00414707
0.00416623
0.00406539
0.00412857
0.00422364
0.00430745
0.00443882
0.0046401
0.00510141
0.00587846
0.00687247
0.00796177
0.00892478
0.00922779
0.0091821
0.00869708
0.00763563
0.0063045
0.00506485
0.00446433
0.00414289
0.0041141
0.00412422
0.00435003
0.00501829
0.00638937
0.00894063
0.0107926
0.0113144
0.0115333
0.0116589
0.0117206
0.0116726
0.0115384
0.0115163
0.0114888
0.0114759
0.0113488
0.0112346
0.0110465
0.0106938
0.0100006
0.00910894
0.00826081
0.00761059
0.00711222
0.00675029
0.00649057
0.00630351
0.00614247
0.00596781
0.00579417
0.00572291
0.0058853
0.00692874
0.00888608
0.00973457
0.00969652
0.00884259
0.00770382
0.00524137
0.00396944
0.00346346
0.00322231
0.00312508
0.00312391
0.00319534
0.00360962
0.00512679
0.00850749
0.0115808
0.0140424
0.0147558
0.0135369
0.00697533
0.0036749
0.00253868
0.00211806
0.00198085
0.00195835
0.00196966
0.00202194
0.00218361
0.00257397
0.00284186
0.00277265
0.00249183
0.00239629
0.00255324
0.00268969
0.00287539
0.00309934
0.00293096
0.00239266
0.00228002
0.00238947
0.00269139
0.00287845
0.00315522
0.00394867
0.00511855
0.00532962
0.00513452
0.00435277
0.00314041
0.00252677
0.00221655
0.00209586
0.0020765
0.00212816
0.00238259
0.00244146
0.00338299
0.00395468
0.00405097
0.00401469
0.00409229
0.00420189
0.00428921
0.00435668
0.00443875
0.00469711
0.00528778
0.00618398
0.0073752
0.00864908
0.00919519
0.00923144
0.00884811
0.00787195
0.00651755
0.00530947
0.00444591
0.00440388
0.00427038
0.00433718
0.00473549
0.00581769
0.00803247
0.0103152
0.0110673
0.0113188
0.0114059
0.0113543
0.0109657
0.0107091
0.0106803
0.0104791
0.0102313
0.00988153
0.00959006
0.0093197
0.00907725
0.00896316
0.00889618
0.00848488
0.00788497
0.00728282
0.0067942
0.00646769
0.00624856
0.00610332
0.00597892
0.00583638
0.00571739
0.00572382
0.00607954
0.0075866
0.00941273
0.00994885
0.00975275
0.00877275
0.00760285
0.00509934
0.00402704
0.00349872
0.00322181
0.00309213
0.00305512
0.0031014
0.00336767
0.0043675
0.00698331
0.0109583
0.0139796
0.0148132
0.0130898
0.00666828
0.00374037
0.00263772
0.00218642
0.00202588
0.00200099
0.00201183
0.00206226
0.00221114
0.00263585
0.00310086
0.00312124
0.00285165
0.00251454
0.00253557
0.00263972
0.0027739
0.00309204
0.00307793
0.00267504
0.00236579
0.00238147
0.00259708
0.00283685
0.00301358
0.00374759
0.00521779
0.00549355
0.00532359
0.00456351
0.00327491
0.00253306
0.00220773
0.00211144
0.00210781
0.00217088
0.00243937
0.00228589
0.00296704
0.00375892
0.00395352
0.00398645
0.00407038
0.00418087
0.00425085
0.00428178
0.00433796
0.00443698
0.00473759
0.00541515
0.00652696
0.00804223
0.00910805
0.00934652
0.00913566
0.00833181
0.00701387
0.00564581
0.00521333
0.00479053
0.0048594
0.00500316
0.00583952
0.00784864
0.0099471
0.010777
0.0110671
0.0111175
0.010923
0.0102146
0.00982131
0.00955578
0.00881403
0.00773139
0.00679025
0.00619486
0.00590527
0.00591444
0.00622086
0.00651305
0.00671499
0.00698554
0.00709842
0.00694177
0.00662939
0.00633863
0.00611731
0.00597139
0.00586064
0.00575167
0.00568102
0.00573663
0.00627889
0.00812421
0.00972932
0.0100562
0.00975122
0.008741
0.00710815
0.00495154
0.00412838
0.00349177
0.00313222
0.00295383
0.00290687
0.00296289
0.00323847
0.00404663
0.00594679
0.00987142
0.0136588
0.0147437
0.0125709
0.00656908
0.00396175
0.00280148
0.00225646
0.0020682
0.0020355
0.00204019
0.00209596
0.0022731
0.00271071
0.00325983
0.00338324
0.00322401
0.00270879
0.0025804
0.00260506
0.00269843
0.00302506
0.00315819
0.00301011
0.00266021
0.00257492
0.0026602
0.0028336
0.00294299
0.00351643
0.00524821
0.00564732
0.00549513
0.00472635
0.00340867
0.00259859
0.0022337
0.00213943
0.00214472
0.00221302
0.00247448
0.00214803
0.00255933
0.00345802
0.00385284
0.00396423
0.00404671
0.00414665
0.00419407
0.00422603
0.00428955
0.00434165
0.00442499
0.00472138
0.00558428
0.00700898
0.00870575
0.00942101
0.00947267
0.00896593
0.00792615
0.00684634
0.00629629
0.00613148
0.00607564
0.00659631
0.00808862
0.00975493
0.0105028
0.0107628
0.0107674
0.0103575
0.00931053
0.0089243
0.00840088
0.00666995
0.00521378
0.0044158
0.0040192
0.00389158
0.00403018
0.00415213
0.00430029
0.00452686
0.00487213
0.00528507
0.00570691
0.0061022
0.0062769
0.00619723
0.00604719
0.00590824
0.00579584
0.00571074
0.00567641
0.00577622
0.0064569
0.00848104
0.0098856
0.0100879
0.00968823
0.00866926
0.00646368
0.0049679
0.00428679
0.00353737
0.00311503
0.00290894
0.00285107
0.0029128
0.00322488
0.00408593
0.0056423
0.00896253
0.0132634
0.0144653
0.0122665
0.00705925
0.00435234
0.00289809
0.00227856
0.00208121
0.00204357
0.00205087
0.00213424
0.00239818
0.00287162
0.0033765
0.00351062
0.00341055
0.00289682
0.00263007
0.00260846
0.00265089
0.00288605
0.00318195
0.00316982
0.00297575
0.00284765
0.00284466
0.00287055
0.00290224
0.00333264
0.00522772
0.00584525
0.0056792
0.00481836
0.00351777
0.00268335
0.00228233
0.00218805
0.00220026
0.00228019
0.00256339
0.00201174
0.00229219
0.0029111
0.00364781
0.00390655
0.00400696
0.00406222
0.00408624
0.00415525
0.00429242
0.0043412
0.00433521
0.00436429
0.00476574
0.00587291
0.0076403
0.00923185
0.00967837
0.00958143
0.00892969
0.00813635
0.00772356
0.00759777
0.00772049
0.00850658
0.00967872
0.0102771
0.0104591
0.0104291
0.00985665
0.0085645
0.00803209
0.00711997
0.00520573
0.00383763
0.00316723
0.00285995
0.00275533
0.00273967
0.002742
0.00282794
0.00306894
0.00343648
0.00391939
0.00429623
0.00466273
0.00508775
0.00553587
0.00586123
0.00592825
0.00586243
0.00576614
0.00569861
0.00568038
0.00583726
0.00657537
0.00869021
0.00993694
0.010079
0.00956795
0.00846864
0.00617066
0.00524237
0.00461993
0.00374239
0.00319434
0.00293071
0.00286426
0.0029478
0.00337761
0.00433406
0.00577362
0.00887177
0.0134144
0.0143289
0.0123778
0.00798631
0.00447054
0.002879
0.00225019
0.00206925
0.00203572
0.00205642
0.00219491
0.00258602
0.00301798
0.00343073
0.00355597
0.00348675
0.00300983
0.00266248
0.0026018
0.00262155
0.00276801
0.00313869
0.00324296
0.00318529
0.00304739
0.00298288
0.00292253
0.00289628
0.0032802
0.00520932
0.00607674
0.00588036
0.00484255
0.00357937
0.00277026
0.00234948
0.0022519
0.00227135
0.00237451
0.00272484
0.00196691
0.00208046
0.00245793
0.00319252
0.00370532
0.00391084
0.00394473
0.00393148
0.00403199
0.00431547
0.00453142
0.00439039
0.00426744
0.00431259
0.00490469
0.00631214
0.00833741
0.00963497
0.00990784
0.00973291
0.00923147
0.0089404
0.00884096
0.00905049
0.009673
0.0100864
0.010178
0.0101527
0.00947222
0.00798857
0.00714446
0.00617897
0.0044682
0.00310778
0.00248431
0.00218219
0.00203842
0.00197379
0.00195253
0.00209609
0.0023631
0.00274588
0.00321779
0.00373837
0.00400881
0.0042162
0.00449131
0.00487245
0.00529706
0.00564337
0.00577106
0.00573804
0.00569214
0.00569367
0.005887
0.00669155
0.00882171
0.00992893
0.00999613
0.00946504
0.00786876
0.00607664
0.00563472
0.00510232
0.00406156
0.00332338
0.00297894
0.00292329
0.00307924
0.0038161
0.0047625
0.00606909
0.00913789
0.0137208
0.0143287
0.013186
0.00819401
0.00431106
0.002738
0.00218174
0.00204682
0.00202739
0.00206649
0.00229313
0.00279983
0.00312847
0.00344639
0.00355974
0.0035031
0.0030555
0.00267292
0.0025867
0.0025962
0.0026963
0.00303889
0.00324493
0.00325935
0.00318303
0.00304829
0.00294242
0.00288769
0.0034102
0.0054532
0.0062898
0.00608991
0.00485349
0.00359532
0.00283078
0.0024327
0.00232509
0.00235035
0.00249127
0.00296057
0.00196634
0.00195229
0.00216772
0.00261287
0.00332416
0.00366636
0.00377512
0.00372887
0.00385533
0.00431124
0.00475394
0.00473526
0.00429315
0.00414323
0.00432514
0.00517496
0.00689681
0.00897301
0.00992861
0.0100916
0.00995723
0.00973073
0.00965586
0.00979931
0.00995833
0.0100412
0.00999358
0.00907659
0.00762132
0.00656688
0.00566569
0.00423882
0.00276445
0.00211051
0.00181339
0.00168373
0.00163975
0.00165166
0.00180174
0.00208834
0.00257394
0.0031862
0.0035929
0.0039042
0.00405187
0.00417691
0.0043289
0.00455882
0.00488982
0.00526504
0.00555718
0.00567711
0.00568013
0.00569587
0.00591804
0.00679301
0.00891101
0.00984464
0.00988015
0.00926074
0.00727513
0.00615074
0.00603374
0.00556621
0.00436284
0.0033966
0.00303504
0.00302208
0.00333148
0.0045352
0.00551536
0.00657553
0.00961358
0.0141425
0.0144499
0.0133596
0.00782138
0.00387142
0.00252933
0.00211825
0.00203051
0.00202332
0.00208928
0.00244831
0.00302303
0.00319818
0.003431
0.00352737
0.00348266
0.00305348
0.00266785
0.00256483
0.00256849
0.00264366
0.00293401
0.0032068
0.00325435
0.00320504
0.00306379
0.00293733
0.00286253
0.00353102
0.00584078
0.0065491
0.00629484
0.00488039
0.00355069
0.00285346
0.00248115
0.00239061
0.00243897
0.00263049
0.00321666
0.00199814
0.00192146
0.00196883
0.00221923
0.00269798
0.00326847
0.00345663
0.00347891
0.00360188
0.00411793
0.00484017
0.00505712
0.00463033
0.00410777
0.00405213
0.00444634
0.00561411
0.00756997
0.0094109
0.0100922
0.0102188
0.0101796
0.0100806
0.0100352
0.00995653
0.00968018
0.0088177
0.00746992
0.00633688
0.00542644
0.00423375
0.00270627
0.00195293
0.00163699
0.00151722
0.00148634
0.00153164
0.00168485
0.00210987
0.00327133
0.0053114
0.00583731
0.00538585
0.004751
0.00438992
0.00428112
0.00434505
0.00450046
0.00472329
0.00501069
0.00530544
0.00551472
0.00561587
0.00567765
0.00598375
0.00696346
0.00904436
0.00973888
0.00975367
0.0086591
0.00699373
0.00652833
0.00640674
0.00565091
0.00430362
0.00334201
0.00306772
0.00308394
0.00355186
0.00527207
0.00661602
0.00736303
0.0103955
0.0146858
0.0147647
0.0132735
0.00675751
0.00338491
0.00241687
0.00209226
0.00202179
0.0020205
0.00211951
0.0026169
0.00320578
0.00325505
0.00334741
0.00343534
0.00340697
0.00301476
0.00265742
0.00254554
0.00254523
0.00260497
0.0028578
0.00314318
0.00322229
0.00318863
0.00306194
0.00290647
0.00284899
0.00363374
0.00602504
0.00671333
0.00644028
0.00489411
0.00348557
0.0028285
0.00251648
0.00245368
0.00253144
0.0027981
0.00354364
0.00212482
0.00193315
0.00189944
0.00198268
0.00223468
0.00269772
0.00305702
0.00318441
0.00329603
0.00379778
0.00484515
0.00523444
0.00510574
0.00426945
0.00395856
0.00406612
0.00468214
0.00619817
0.0082182
0.00967905
0.0101357
0.0102183
0.0101768
0.0100042
0.00965773
0.00874781
0.00746657
0.0063224
0.00535566
0.00434715
0.00300673
0.00196047
0.00156693
0.00143098
0.00140147
0.00144221
0.00162535
0.00219386
0.00422902
0.00862415
0.00998976
0.00982885
0.00859497
0.00690987
0.00551987
0.00477632
0.00452733
0.0045451
0.00470472
0.00491329
0.00515102
0.00536033
0.00551062
0.00568456
0.00607089
0.00725174
0.00920978
0.0096629
0.00942683
0.00780931
0.00695989
0.00692155
0.00662458
0.00563686
0.00412454
0.00330486
0.00308801
0.00310558
0.00363289
0.00574489
0.00800206
0.00836719
0.0115314
0.0151795
0.0150314
0.0126415
0.00556375
0.00319319
0.00239142
0.00208719
0.002016
0.00201873
0.00215557
0.00280029
0.00333645
0.00328756
0.00322166
0.00328006
0.00327045
0.00292464
0.00263534
0.00252942
0.00252724
0.00257561
0.00278875
0.00306824
0.00316448
0.00314676
0.00304688
0.00284301
0.00286126
0.00383694
0.00624087
0.00686383
0.00658241
0.00497498
0.0034606
0.00278835
0.00253982
0.00251812
0.0026225
0.00296626
0.00381948
0.00248478
0.00200632
0.00189713
0.00188358
0.00198074
0.00224078
0.00260139
0.0027733
0.00293472
0.00342269
0.00454231
0.00530931
0.00543184
0.00474244
0.00395743
0.00388741
0.0041735
0.00509262
0.00686498
0.00869429
0.00964987
0.00997662
0.0100159
0.00972885
0.00890261
0.00768114
0.00653489
0.00554971
0.0046351
0.00351643
0.00219702
0.00159674
0.00139674
0.00135071
0.00135944
0.00151431
0.0020226
0.00348596
0.0073285
0.0103909
0.0108674
0.0107926
0.00999403
0.00853287
0.00696624
0.00567747
0.00497463
0.00471692
0.00474604
0.00491141
0.00512592
0.00532843
0.00550706
0.00573712
0.00633776
0.00800428
0.00923341
0.00946159
0.00853764
0.00751143
0.00711656
0.00732296
0.00688919
0.00595267
0.00451897
0.00352571
0.0031488
0.0031097
0.00357495
0.00591196
0.00899267
0.00944841
0.012812
0.0154617
0.0150736
0.0112593
0.00509704
0.00315955
0.00241107
0.00209867
0.00201386
0.00201792
0.0021971
0.00300063
0.0034573
0.00330061
0.00306366
0.00309502
0.00308735
0.00278052
0.0025892
0.00251339
0.00251456
0.00255586
0.00273508
0.00298503
0.0030907
0.00308011
0.00297994
0.00275366
0.00292175
0.00439171
0.00668674
0.00710444
0.00678331
0.00512887
0.00348134
0.00275894
0.00254974
0.00257744
0.00272542
0.0031656
0.00391986
0.00333249
0.00223812
0.00193326
0.00187058
0.00187292
0.00198182
0.00224142
0.00247918
0.00265829
0.00306017
0.0040125
0.00531765
0.00564813
0.00526082
0.00413813
0.00382148
0.00391952
0.00439604
0.00568587
0.00751708
0.00863269
0.00919756
0.00941
0.00904655
0.00813878
0.00696556
0.00593742
0.00504388
0.00405865
0.00278732
0.0017801
0.00141463
0.00131873
0.00130926
0.0013805
0.00163891
0.00222195
0.00358499
0.00672182
0.00823913
0.00889256
0.00992508
0.0100993
0.00920372
0.00756153
0.00603332
0.00512995
0.00496229
0.00483477
0.00495726
0.0051506
0.00535675
0.00557117
0.00597051
0.00706736
0.00865803
0.00916709
0.00887925
0.00795805
0.0075223
0.00760741
0.0077507
0.00740298
0.00683702
0.0057217
0.00417516
0.00331723
0.00311591
0.00339552
0.0055287
0.00939892
0.0105293
0.0138988
0.015529
0.0148529
0.0101122
0.00499366
0.00328015
0.00255683
0.00213443
0.00201556
0.00201992
0.00224988
0.00322559
0.00361867
0.00328294
0.00290866
0.00291213
0.00288965
0.00263412
0.00253875
0.00249972
0.00250475
0.00254164
0.0026903
0.00291468
0.00300678
0.00298328
0.00285233
0.00269858
0.00311383
0.00524537
0.00707171
0.00732395
0.0070131
0.00536327
0.00353602
0.00274208
0.00254434
0.00260527
0.00281396
0.0033609
0.00391253
0.00433209
0.00283866
0.00207699
0.00189246
0.00186275
0.00188411
0.00200039
0.00224203
0.00242307
0.00277078
0.00363995
0.00509042
0.00573611
0.0056032
0.00448644
0.00384123
0.00380991
0.0040252
0.0047913
0.006451
0.00769495
0.00828779
0.00859853
0.0084299
0.00763516
0.00654132
0.00556236
0.00464162
0.00352459
0.00227803
0.00156001
0.00132601
0.00127549
0.00128583
0.00139565
0.00165541
0.00215818
0.00306516
0.00364
0.00377941
0.00416737
0.00590798
0.00883601
0.00923752
0.00814573
0.00637235
0.00566487
0.00512885
0.00516026
0.00511675
0.00528646
0.00553267
0.00591271
0.006797
0.00813582
0.00873507
0.00887197
0.00825154
0.00789053
0.00777759
0.00813583
0.00815914
0.00798781
0.00769197
0.00697361
0.00531314
0.00365978
0.00317239
0.00326639
0.00482537
0.00940891
0.0113922
0.0143845
0.0154407
0.014393
0.00972289
0.00517394
0.00376744
0.00276322
0.00218622
0.00202833
0.00203183
0.0023228
0.00344611
0.0038178
0.00319543
0.00276048
0.00276072
0.00270355
0.00251611
0.00250131
0.00249195
0.00249892
0.00253243
0.00266397
0.00284626
0.00290091
0.00286076
0.00267652
0.00269617
0.00339145
0.00579022
0.0072318
0.007419
0.00714267
0.0056368
0.00363454
0.00273943
0.00253087
0.0026128
0.00286847
0.00350441
0.00387844
0.00507471
0.00371727
0.00247685
0.00199703
0.00188198
0.00187945
0.00192204
0.00204194
0.00220791
0.00252851
0.00336014
0.00491346
0.00575984
0.00575749
0.00488148
0.00395343
0.00377249
0.00385309
0.00426213
0.00544355
0.00688549
0.00752301
0.00786485
0.00784979
0.0072622
0.00628931
0.00534153
0.004392
0.00325834
0.00208355
0.001485
0.00130042
0.00126564
0.0012874
0.00140505
0.00163055
0.00188097
0.00204496
0.00221428
0.00236727
0.00291704
0.00459155
0.00815976
0.00950557
0.00905603
0.00751636
0.00627227
0.00601963
0.0057197
0.00572008
0.00580876
0.00621025
0.00702419
0.00797529
0.00848536
0.00865124
0.00842788
0.00815699
0.00802596
0.00830933
0.00849605
0.00848092
0.0084246
0.00826095
0.00773079
0.00639083
0.00413786
0.00328422
0.00322083
0.00414401
0.00794034
0.0121952
0.0144517
0.0152231
0.0139263
0.00971054
0.00592497
0.00451217
0.00303323
0.00225251
0.00204713
0.00205549
0.00242891
0.00366064
0.00390023
0.00304619
0.00259824
0.00260632
0.00252676
0.00245155
0.00248382
0.00248354
0.00248838
0.00251818
0.00262961
0.00278022
0.00278174
0.00269827
0.00258408
0.00275712
0.00390665
0.00644148
0.00746705
0.00757865
0.00734111
0.00599455
0.0037929
0.00275891
0.00251511
0.00260278
0.00293013
0.00360689
0.00385406
0.00550727
0.00444091
0.00305373
0.00229248
0.0019687
0.00189626
0.00192272
0.00199963
0.00215417
0.00247346
0.00332531
0.00485721
0.00581329
0.00590892
0.00526749
0.00412081
0.00379089
0.00378987
0.00397474
0.00467741
0.00613727
0.00689737
0.00726127
0.00735544
0.00700105
0.00619152
0.00534675
0.00442424
0.00327091
0.00209044
0.00149502
0.00130187
0.00126896
0.00129931
0.00144155
0.00162711
0.00167889
0.00167281
0.00173759
0.00192207
0.00250371
0.00404596
0.00762257
0.00996793
0.0099348
0.00897894
0.0079273
0.00742868
0.00717756
0.00709741
0.00712556
0.0075358
0.00808222
0.00840856
0.0085311
0.00853152
0.00837577
0.0082746
0.00846776
0.0086582
0.00871474
0.00870789
0.00869205
0.00859926
0.00823258
0.00717425
0.00477107
0.00347596
0.00326016
0.00372443
0.00658395
0.01232
0.0143381
0.0149473
0.0137055
0.0102088
0.00698816
0.00559052
0.00319496
0.00228698
0.00207115
0.00209191
0.0025926
0.00382198
0.00389848
0.00283067
0.00249805
0.002494
0.00240628
0.00241237
0.00247581
0.00246594
0.0024685
0.00249794
0.00261137
0.00267299
0.00264776
0.00253255
0.00256513
0.00306581
0.00512676
0.00723005
0.00771613
0.00769678
0.00745343
0.00636198
0.00403167
0.00280061
0.00249524
0.00258266
0.00301385
0.00369263
0.00384519
0.00568973
0.00482277
0.00347049
0.00258884
0.00216304
0.00194792
0.00195084
0.002014
0.00217029
0.00253419
0.00356441
0.00513875
0.00594815
0.00604041
0.00557114
0.00430712
0.00384747
0.00377524
0.00384839
0.00423939
0.0053876
0.00634524
0.00675648
0.00690574
0.00675279
0.00616272
0.00539425
0.00452731
0.0033858
0.00217514
0.00150901
0.00132427
0.00127966
0.00131795
0.00148802
0.00166151
0.0016864
0.00160964
0.00160651
0.00177261
0.00229419
0.00357721
0.00658203
0.00994348
0.0103287
0.0100234
0.00939447
0.00887331
0.00857444
0.00842033
0.00837544
0.00845805
0.00858724
0.00862547
0.00861079
0.00857045
0.0085287
0.00865517
0.00877384
0.00880904
0.00880005
0.00878738
0.00878686
0.00875128
0.00855547
0.00777811
0.00572627
0.00378122
0.00335177
0.00351289
0.00544485
0.0116224
0.0140069
0.0145946
0.0136724
0.0111517
0.00840757
0.0061431
0.00321388
0.00229271
0.00209681
0.00214819
0.00282151
0.00393937
0.00372925
0.0026545
0.00241876
0.00240643
0.00237394
0.00240132
0.00245781
0.00243875
0.00244295
0.00248208
0.00256209
0.00255635
0.00248401
0.00248059
0.00268476
0.00384017
0.00646436
0.00764419
0.00779321
0.0077314
0.00745952
0.00665843
0.00437902
0.00287417
0.00247505
0.0025516
0.00311845
0.00376175
0.0038424
0.00572387
0.00492609
0.00364871
0.00274814
0.00231301
0.00204082
0.00203305
0.0020981
0.00230735
0.00290865
0.0043833
0.00565637
0.00614787
0.00615671
0.00573932
0.00444537
0.00390827
0.00378323
0.00380493
0.0040054
0.00476701
0.00587232
0.00633782
0.00651768
0.00648064
0.00612946
0.00550714
0.00479808
0.00365389
0.00239545
0.00164108
0.00135439
0.00131069
0.00134897
0.00156844
0.00178138
0.00181
0.00167177
0.00162929
0.00172264
0.0021543
0.00312806
0.00526248
0.00883997
0.0101108
0.0101667
0.00995274
0.00962992
0.00938613
0.00920944
0.00905692
0.00897802
0.00894093
0.00888949
0.00882361
0.00879604
0.0088184
0.00884638
0.00885116
0.00882629
0.00879754
0.00878168
0.00878064
0.00877026
0.00869461
0.00826557
0.00673517
0.00429027
0.00349457
0.00344955
0.00447293
0.0093117
0.0134226
0.0141762
0.0136955
0.0120329
0.00988819
0.00618995
0.00316401
0.00229074
0.00212385
0.00223388
0.00311536
0.00401062
0.00345368
0.00252678
0.00237879
0.00237749
0.00236631
0.00239805
0.00242934
0.00241328
0.00242156
0.00245876
0.00246592
0.00242204
0.0024143
0.00251655
0.00318216
0.00536452
0.00732708
0.00779342
0.00781677
0.00770965
0.00744243
0.00678763
0.00473112
0.00298103
0.00246763
0.00251801
0.00319255
0.00379723
0.00383273
0.00571644
0.00492349
0.00369366
0.00284328
0.0024351
0.00221143
0.00223269
0.00237655
0.00283722
0.00406209
0.00543081
0.0061171
0.00628222
0.00623278
0.00578327
0.00449763
0.00392948
0.00379493
0.00379959
0.00389507
0.0043369
0.00542453
0.00599871
0.0062169
0.00623349
0.00606645
0.00562996
0.00508701
0.00416441
0.00287326
0.00185311
0.00148456
0.00137822
0.00141237
0.00166755
0.00204183
0.00216268
0.00201007
0.00175582
0.00173611
0.00199958
0.00269091
0.00418363
0.00669889
0.00834312
0.00898
0.00924939
0.0093748
0.00934587
0.00925533
0.00915063
0.00906318
0.00900031
0.00894187
0.00888984
0.00885488
0.00883448
0.00881891
0.00878182
0.00872381
0.00868011
0.0086743
0.00869829
0.00872356
0.008718
0.00850965
0.00753513
0.0050833
0.00373193
0.00352597
0.00396351
0.00712946
0.0124522
0.0136915
0.0136775
0.0125649
0.010592
0.00602054
0.00306935
0.00228673
0.00215796
0.00236321
0.00345575
0.00404064
0.00321246
0.00246981
0.00236589
0.00236892
0.00236931
0.00239348
0.0024096
0.00239532
0.0023957
0.00238934
0.00235917
0.00236381
0.00243473
0.0028394
0.0044329
0.00686731
0.00772135
0.00784769
0.00779877
0.00760157
0.00735268
0.00685488
0.00514313
0.00315909
0.00248503
0.00249505
0.00316953
0.00379443
0.00382658
0.00571069
0.00491664
0.00375358
0.00301338
0.00267272
0.00258155
0.00272684
0.00318308
0.00423516
0.00543592
0.00612281
0.00632503
0.00631672
0.00619899
0.00570055
0.00447949
0.00392515
0.00381745
0.00380633
0.00385148
0.00411227
0.00500934
0.00572257
0.0059795
0.00603846
0.00596519
0.005674
0.00533412
0.00469051
0.00360847
0.00240652
0.00173368
0.00154672
0.00154697
0.001827
0.00231064
0.00280196
0.00283247
0.00209359
0.00177928
0.00176601
0.0019359
0.002388
0.00300422
0.00344654
0.00384389
0.00449443
0.00563243
0.00693502
0.007862
0.00838457
0.0086136
0.00868006
0.00868295
0.0086567
0.00861489
0.00855916
0.0084863
0.0084072
0.00834735
0.00833928
0.00837988
0.00847729
0.00858407
0.00865903
0.0085889
0.00799635
0.00605363
0.00407775
0.00364794
0.00375385
0.00551244
0.0108104
0.0133842
0.0135863
0.0128029
0.010858
0.00575502
0.00296368
0.00228815
0.0022037
0.00256421
0.00376415
0.00405215
0.00305249
0.0024424
0.00235999
0.0023645
0.00237502
0.00238665
0.00239014
0.0023614
0.00232459
0.00231413
0.00233424
0.00239888
0.00269161
0.00387694
0.00640561
0.0076015
0.00784524
0.00781317
0.00763121
0.00740025
0.00720935
0.00682011
0.00570375
0.00350207
0.00254899
0.00245487
0.00297373
0.00374164
0.00381026
0.00573171
0.0049589
0.00394607
0.00343683
0.00323893
0.00343426
0.00390795
0.00474745
0.00563616
0.00620274
0.00637511
0.00634512
0.00617733
0.00595657
0.00537664
0.00438985
0.00390215
0.00382255
0.00382456
0.0038475
0.0039838
0.0046371
0.00546771
0.00579343
0.00587553
0.00585313
0.00568802
0.00544486
0.00509138
0.00436352
0.00330774
0.00237329
0.00192888
0.00184335
0.00208652
0.00251978
0.00333206
0.00368995
0.00298173
0.00197005
0.00166147
0.00155569
0.00154562
0.00160248
0.00165985
0.00175328
0.00196833
0.0024127
0.00313358
0.00402528
0.0049357
0.00586696
0.00655817
0.00699958
0.00725939
0.00739312
0.00744119
0.0074185
0.00740035
0.00742144
0.00751139
0.00768419
0.00793807
0.00821819
0.00849791
0.00857751
0.0082161
0.00688197
0.00458612
0.0037931
0.00372167
0.00463925
0.00869764
0.0127497
0.0134307
0.0129388
0.0109367
0.00540763
0.00285146
0.00230545
0.00227521
0.00284217
0.0039724
0.00404295
0.00296582
0.00242441
0.00234639
0.00235453
0.00237056
0.00236978
0.0023318
0.00229616
0.00229688
0.00231736
0.00238655
0.00265549
0.0036629
0.00608326
0.00750696
0.00783117
0.00779432
0.0075719
0.0072606
0.00712076
0.00698145
0.00668446
0.0060299
0.0040861
0.00275004
0.0024346
0.00266666
0.0035142
0.00373556
0.00584091
0.00517205
0.00454464
0.00437134
0.00434197
0.00475179
0.00533575
0.00593177
0.00631436
0.00643196
0.00640304
0.00623144
0.00574438
0.00548632
0.00495172
0.00420513
0.00384542
0.00381575
0.00385724
0.00385532
0.00392521
0.00432614
0.00524214
0.00565287
0.0057514
0.00575255
0.00566624
0.00552862
0.00533153
0.00491106
0.00421777
0.00340166
0.00275585
0.00237009
0.00245955
0.00275961
0.00350242
0.00430286
0.00416416
0.00258788
0.0018019
0.00149202
0.00136288
0.00134536
0.00136454
0.0014285
0.00157891
0.00183389
0.00223509
0.00270896
0.00316927
0.00373023
0.00428544
0.00480196
0.00523948
0.005563
0.0058017
0.00605512
0.00634189
0.00667188
0.00703122
0.00740496
0.00776145
0.00808172
0.0083506
0.00849859
0.00829198
0.00735741
0.00521138
0.00401322
0.00379709
0.00426422
0.00700436
0.0117658
0.013091
0.0130171
0.0108492
0.00499626
0.00274413
0.00234016
0.00237685
0.00317088
0.00411194
0.00399541
0.00288993
0.00242042
0.00233742
0.00233341
0.00234532
0.00232781
0.00229704
0.00229163
0.00231303
0.00239808
0.00269476
0.00369809
0.00604293
0.00749447
0.00782558
0.00774717
0.00739775
0.00699345
0.00682882
0.00676845
0.0066943
0.0064759
0.0060893
0.00493049
0.00315914
0.002496
0.0024924
0.00308957
0.00351778
0.00605464
0.0056173
0.00538421
0.00534168
0.00546921
0.00584784
0.00620139
0.00641936
0.00647634
0.00643728
0.00629525
0.00588885
0.00527252
0.0049998
0.0045744
0.00403178
0.00378065
0.00379027
0.00389655
0.00387229
0.00390215
0.00415056
0.00501366
0.00553169
0.00567563
0.00568835
0.00563669
0.0055321
0.00545791
0.00527706
0.00489594
0.0043434
0.00388012
0.00322034
0.0030117
0.00313274
0.00355397
0.0044971
0.00491934
0.00385572
0.00223067
0.0015889
0.0013579
0.00132244
0.00136811
0.00148564
0.00174334
0.00206057
0.0023518
0.00263019
0.00290832
0.00327519
0.00365441
0.00405482
0.00446448
0.00488428
0.00532487
0.0057869
0.00625877
0.00670778
0.00714798
0.00755176
0.00788079
0.00815285
0.00835516
0.00844658
0.00829526
0.00759404
0.00581406
0.0042994
0.00395358
0.00410687
0.00574798
0.0101578
0.0128292
0.0130205
0.0105771
0.00460039
0.00266575
0.00237807
0.00249525
0.00347454
0.00423963
0.00399543
0.00288195
0.00242895
0.00234224
0.00233457
0.00233977
0.00232657
0.00230535
0.00232959
0.00243942
0.0027995
0.00389915
0.00621726
0.0075885
0.00781602
0.00763855
0.00701701
0.00652551
0.0063412
0.00632762
0.00635386
0.00637126
0.00631301
0.00602454
0.00539548
0.00377659
0.00271339
0.00246796
0.00263357
0.00325325
0.00622059
0.00603739