/*--------------------------------*- C++ -*----------------------------------*\
  =========                 |
  \\      /  F ield         | OpenFOAM: The Open Source CFD Toolbox
   \\    /   O peration     | Website:  https://openfoam.org
    \\  /    A nd           | Version:  10
     \\/     M anipulation  |
\*---------------------------------------------------------------------------*/
FoamFile
{
    format      ascii;
    class       volVectorField;
    location    "0.450413";
    object      U;
}
// * * * * * * * * * * * * * * * * * * * * * * * * * * * * * * * * * * * * * //

dimensions      [0 1 -1 0 0 0 0];

internalField   nonuniform List<vector> 
16320
(
(0.09402 -0.010839 0)
(0.0592868 -0.154708 0)
(-0.0091303 -0.207791 0)
(-0.0937409 -0.179566 0)
(-0.213099 -0.116911 0)
(-0.33262 -0.0489253 0)
(-0.432471 0.00922247 0)
(-0.498768 0.0459322 0)
(-0.540845 0.0699678 0)
(-0.567382 0.090057 0)
(-0.581777 0.110522 0)
(-0.584953 0.132963 0)
(-0.575723 0.15997 0)
(-0.559008 0.195188 0)
(-0.542692 0.253127 0)
(-0.520184 0.318914 0)
(-0.488549 0.390254 0)
(-0.453604 0.461296 0)
(-0.419709 0.523415 0)
(-0.391873 0.572728 0)
(-0.370699 0.611981 0)
(-0.348104 0.636576 0)
(-0.320763 0.651659 0)
(-0.29278 0.658853 0)
(-0.267616 0.661686 0)
(-0.245569 0.661586 0)
(-0.226457 0.661725 0)
(-0.211473 0.664262 0)
(-0.202946 0.672482 0)
(-0.205096 0.686913 0)
(-0.214218 0.692849 0)
(-0.226564 0.691163 0)
(-0.241059 0.686153 0)
(-0.260633 0.679022 0)
(-0.285036 0.671459 0)
(-0.311983 0.664433 0)
(-0.337766 0.657903 0)
(-0.357629 0.651297 0)
(-0.368392 0.644216 0)
(-0.367752 0.636613 0)
(-0.356035 0.628916 0)
(-0.334344 0.622478 0)
(-0.304549 0.618183 0)
(-0.268639 0.614305 0)
(-0.227343 0.60958 0)
(-0.183892 0.60433 0)
(-0.142414 0.601703 0)
(-0.105293 0.599833 0)
(-0.0719852 0.597668 0)
(-0.0409063 0.592014 0)
(-0.012374 0.581271 0)
(0.0155653 0.563902 0)
(0.0408461 0.541645 0)
(0.0633071 0.516657 0)
(0.0822462 0.489884 0)
(0.0975421 0.464592 0)
(0.109548 0.448164 0)
(0.118204 0.440777 0)
(0.121635 0.425211 0)
(0.119017 0.393427 0)
(0.126933 0.321843 0)
(0.144413 0.219607 0)
(0.17157 0.0998852 0)
(0.180308 0.00453233 0)
(0.193941 -0.0555252 0)
(0.20613 -0.091226 0)
(0.21932 -0.112121 0)
(0.23443 -0.122501 0)
(0.247234 -0.11972 0)
(0.252284 -0.0988602 0)
(0.238771 -0.0547125 0)
(0.229397 -0.00328375 0)
(0.223242 0.040209 0)
(0.222306 0.026347 0)
(0.209345 -0.0509191 0)
(0.180433 -0.195079 0)
(0.171205 -0.274684 0)
(0.174279 -0.295111 0)
(0.168311 -0.302609 0)
(0.160774 -0.303259 0)
(0.159841 -0.298927 0)
(0.167619 -0.290046 0)
(0.176996 -0.278381 0)
(0.176211 -0.265753 0)
(0.156461 -0.247103 0)
(0.115428 -0.209403 0)
(0.067829 -0.14191 0)
(0.0494452 -0.0544107 0)
(0.0603061 0.035559 0)
(0.0891904 0.127439 0)
(0.124888 0.196844 0)
(0.144186 0.226211 0)
(0.161981 0.211643 0)
(0.158645 0.147523 0)
(0.138253 0.0367553 0)
(0.0952656 -0.0222509 0)
(-0.00929612 -0.0338183 0)
(-0.17228 -0.032337 0)
(-0.317036 -0.0477406 0)
(-0.370941 -0.0964078 0)
(-0.377392 -0.159428 0)
(-0.361952 -0.216743 0)
(-0.336121 -0.25126 0)
(-0.304404 -0.256419 0)
(-0.269524 -0.232682 0)
(-0.237714 -0.195953 0)
(-0.213953 -0.165319 0)
(-0.197088 -0.143595 0)
(-0.182835 -0.12544 0)
(-0.168236 -0.118306 0)
(-0.15009 -0.120077 0)
(-0.120211 -0.123631 0)
(-0.0801859 -0.125067 0)
(0.0726826 -0.0014852 0)
(0.0327279 -0.142923 0)
(-0.031908 -0.212548 0)
(-0.0917993 -0.220008 0)
(-0.174483 -0.205048 0)
(-0.264956 -0.177564 0)
(-0.362192 -0.128329 0)
(-0.441984 -0.0767519 0)
(-0.500922 -0.0303066 0)
(-0.54253 0.0100197 0)
(-0.568951 0.0440851 0)
(-0.582156 0.0748416 0)
(-0.583214 0.107304 0)
(-0.571545 0.143811 0)
(-0.556365 0.199691 0)
(-0.539576 0.268546 0)
(-0.51252 0.343897 0)
(-0.480162 0.421718 0)
(-0.447318 0.492562 0)
(-0.418351 0.550339 0)
(-0.396857 0.593512 0)
(-0.3744 0.622124 0)
(-0.346628 0.641532 0)
(-0.318532 0.652844 0)
(-0.294223 0.659651 0)
(-0.274601 0.663452 0)
(-0.258576 0.66809 0)
(-0.246511 0.67564 0)
(-0.239866 0.688678 0)
(-0.245522 0.70563 0)
(-0.25763 0.704798 0)
(-0.268037 0.696168 0)
(-0.278479 0.685336 0)
(-0.293041 0.674135 0)
(-0.312354 0.663874 0)
(-0.335465 0.655203 0)
(-0.359463 0.646955 0)
(-0.378955 0.63721 0)
(-0.388787 0.625592 0)
(-0.385634 0.613468 0)
(-0.369161 0.601469 0)
(-0.341109 0.592013 0)
(-0.304328 0.585476 0)
(-0.261495 0.582589 0)
(-0.216106 0.582909 0)
(-0.169896 0.585508 0)
(-0.128716 0.588789 0)
(-0.0943694 0.592485 0)
(-0.0635348 0.594671 0)
(-0.0351736 0.592547 0)
(-0.00935936 0.584623 0)
(0.0157786 0.570005 0)
(0.0383003 0.550384 0)
(0.0581266 0.527538 0)
(0.0747183 0.502861 0)
(0.0886015 0.480552 0)
(0.100135 0.468218 0)
(0.109211 0.458644 0)
(0.10893 0.443722 0)
(0.112467 0.406555 0)
(0.125943 0.327662 0)
(0.149541 0.218905 0)
(0.173886 0.0970431 0)
(0.183607 0.00902654 0)
(0.196315 -0.0489347 0)
(0.208687 -0.0848261 0)
(0.220963 -0.106486 0)
(0.231593 -0.117996 0)
(0.23955 -0.11725 0)
(0.241574 -0.0977425 0)
(0.23002 -0.0576247 0)
(0.213278 -0.00901659 0)
(0.208379 0.0266811 0)
(0.211162 0.00719744 0)
(0.208355 -0.071671 0)
(0.18066 -0.215832 0)
(0.171369 -0.280246 0)
(0.176752 -0.297395 0)
(0.172548 -0.309056 0)
(0.165457 -0.315053 0)
(0.164196 -0.316036 0)
(0.171399 -0.311667 0)
(0.179701 -0.305194 0)
(0.180357 -0.298687 0)
(0.166035 -0.288038 0)
(0.136503 -0.261411 0)
(0.102605 -0.197498 0)
(0.0840351 -0.105311 0)
(0.0954232 -0.00812136 0)
(0.112959 0.086418 0)
(0.143676 0.172301 0)
(0.165478 0.2228 0)
(0.18758 0.229069 0)
(0.186636 0.185788 0)
(0.163958 0.0877081 0)
(0.152402 0.00882583 0)
(0.066017 -0.0228403 0)
(-0.0805022 -0.0287625 0)
(-0.229471 -0.0422289 0)
(-0.298824 -0.0900765 0)
(-0.317812 -0.155033 0)
(-0.31222 -0.217372 0)
(-0.297442 -0.257942 0)
(-0.276346 -0.262911 0)
(-0.24953 -0.236727 0)
(-0.222079 -0.2 0)
(-0.200896 -0.174834 0)
(-0.192358 -0.15376 0)
(-0.187397 -0.130479 0)
(-0.17951 -0.117225 0)
(-0.162056 -0.113165 0)
(-0.132014 -0.115145 0)
(-0.0950059 -0.118491 0)
(0.0468102 0.0225127 0)
(0.00470563 -0.10967 0)
(-0.0609349 -0.187015 0)
(-0.110069 -0.220629 0)
(-0.164359 -0.244214 0)
(-0.216102 -0.268145 0)
(-0.281925 -0.265431 0)
(-0.353158 -0.231316 0)
(-0.419848 -0.178581 0)
(-0.478344 -0.116528 0)
(-0.522051 -0.061396 0)
(-0.550161 -0.0150699 0)
(-0.565434 0.0283857 0)
(-0.564052 0.0738916 0)
(-0.554844 0.131195 0)
(-0.545421 0.206895 0)
(-0.525285 0.289436 0)
(-0.497043 0.376322 0)
(-0.466899 0.456924 0)
(-0.440523 0.523537 0)
(-0.421715 0.574347 0)
(-0.400967 0.608807 0)
(-0.374802 0.6333 0)
(-0.348922 0.650412 0)
(-0.327101 0.661965 0)
(-0.310647 0.671219 0)
(-0.297771 0.682197 0)
(-0.289155 0.696016 0)
(-0.286153 0.715148 0)
(-0.298035 0.725217 0)
(-0.311827 0.714939 0)
(-0.315878 0.698951 0)
(-0.319491 0.681517 0)
(-0.327503 0.664795 0)
(-0.34085 0.648992 0)
(-0.358932 0.635678 0)
(-0.378363 0.625898 0)
(-0.392781 0.616006 0)
(-0.397822 0.602356 0)
(-0.39002 0.587047 0)
(-0.369721 0.57207 0)
(-0.335852 0.559616 0)
(-0.290496 0.552516 0)
(-0.237722 0.553664 0)
(-0.186309 0.560539 0)
(-0.142582 0.570234 0)
(-0.106651 0.579191 0)
(-0.0759963 0.588327 0)
(-0.0491942 0.594535 0)
(-0.0248736 0.595481 0)
(-0.00275882 0.589907 0)
(0.0186171 0.577656 0)
(0.0376508 0.560261 0)
(0.0544802 0.539087 0)
(0.0687738 0.516008 0)
(0.0813065 0.496789 0)
(0.0910408 0.485589 0)
(0.0978131 0.474061 0)
(0.0981376 0.459636 0)
(0.106249 0.414842 0)
(0.122756 0.329426 0)
(0.150516 0.215414 0)
(0.169089 0.0945548 0)
(0.181684 0.0124591 0)
(0.194571 -0.0425916 0)
(0.206417 -0.0773807 0)
(0.218287 -0.0994488 0)
(0.227495 -0.111641 0)
(0.233725 -0.111376 0)
(0.236154 -0.0948493 0)
(0.224807 -0.0617637 0)
(0.198075 -0.0205238 0)
(0.190211 0.00737922 0)
(0.195375 -0.0178339 0)
(0.19692 -0.0971176 0)
(0.169074 -0.242774 0)
(0.162769 -0.287906 0)
(0.170894 -0.303006 0)
(0.169263 -0.320194 0)
(0.163196 -0.333138 0)
(0.161886 -0.340693 0)
(0.167398 -0.342922 0)
(0.173587 -0.342777 0)
(0.177124 -0.339616 0)
(0.169175 -0.335437 0)
(0.151024 -0.313485 0)
(0.132874 -0.252908 0)
(0.122724 -0.154194 0)
(0.13199 -0.0516311 0)
(0.145927 0.0461641 0)
(0.17056 0.140853 0)
(0.190893 0.209285 0)
(0.215528 0.234406 0)
(0.221545 0.212398 0)
(0.198 0.139681 0)
(0.194465 0.0535897 0)
(0.134464 -0.00406256 0)
(0.0156385 -0.0252384 0)
(-0.125667 -0.0430444 0)
(-0.214946 -0.0839116 0)
(-0.251519 -0.146611 0)
(-0.257168 -0.212532 0)
(-0.252942 -0.261044 0)
(-0.241939 -0.266562 0)
(-0.222904 -0.238579 0)
(-0.199867 -0.2018 0)
(-0.18092 -0.180775 0)
(-0.181175 -0.158634 0)
(-0.185193 -0.13266 0)
(-0.186405 -0.113788 0)
(-0.175608 -0.104059 0)
(-0.150016 -0.105336 0)
(-0.119408 -0.110053 0)
(0.0290412 0.0555596 0)
(-0.0136385 -0.0622467 0)
(-0.0823986 -0.142673 0)
(-0.125433 -0.193179 0)
(-0.163561 -0.239044 0)
(-0.194164 -0.296292 0)
(-0.229449 -0.337493 0)
(-0.270616 -0.34504 0)
(-0.319866 -0.317755 0)
(-0.377526 -0.261263 0)
(-0.433214 -0.195419 0)
(-0.478821 -0.13495 0)
(-0.511937 -0.0786755 0)
(-0.528244 -0.0221344 0)
(-0.531071 0.0396521 0)
(-0.532086 0.125035 0)
(-0.523577 0.219879 0)
(-0.5041 0.320154 0)
(-0.481613 0.415449 0)
(-0.459774 0.494912 0)
(-0.445599 0.552909 0)
(-0.429796 0.59868 0)
(-0.40753 0.629805 0)
(-0.385139 0.654019 0)
(-0.367744 0.671743 0)
(-0.355021 0.687333 0)
(-0.34694 0.704795 0)
(-0.342694 0.725186 0)
(-0.348752 0.74093 0)
(-0.366063 0.738764 0)
(-0.370201 0.72052 0)
(-0.365275 0.696883 0)
(-0.361405 0.671039 0)
(-0.361624 0.645075 0)
(-0.365387 0.623929 0)
(-0.369837 0.610688 0)
(-0.378466 0.603759 0)
(-0.389966 0.594852 0)
(-0.395946 0.576852 0)
(-0.386837 0.552657 0)
(-0.363425 0.529249 0)
(-0.324352 0.514036 0)
(-0.271325 0.512902 0)
(-0.212918 0.523075 0)
(-0.160499 0.539143 0)
(-0.117196 0.555798 0)
(-0.0825198 0.573445 0)
(-0.0551098 0.588322 0)
(-0.0325958 0.598229 0)
(-0.0127509 0.601551 0)
(0.0052983 0.597788 0)
(0.022523 0.587345 0)
(0.0378567 0.571584 0)
(0.0515806 0.551496 0)
(0.0638717 0.529311 0)
(0.0738432 0.511864 0)
(0.0815487 0.499376 0)
(0.0857307 0.490456 0)
(0.0882932 0.472415 0)
(0.0994935 0.419317 0)
(0.117769 0.328616 0)
(0.147246 0.2108 0)
(0.159689 0.0953758 0)
(0.174119 0.0169293 0)
(0.184655 -0.0355786 0)
(0.19641 -0.070944 0)
(0.209609 -0.0951088 0)
(0.219871 -0.108223 0)
(0.226342 -0.107254 0)
(0.229543 -0.0906238 0)
(0.219084 -0.06197 0)
(0.18696 -0.0283954 0)
(0.16968 -0.0123094 0)
(0.17434 -0.0453944 0)
(0.176074 -0.124871 0)
(0.149677 -0.269961 0)
(0.148905 -0.296276 0)
(0.159149 -0.314859 0)
(0.158768 -0.337675 0)
(0.153554 -0.356402 0)
(0.151631 -0.369699 0)
(0.154189 -0.379866 0)
(0.159308 -0.384737 0)
(0.166313 -0.381917 0)
(0.170039 -0.374818 0)
(0.166054 -0.350364 0)
(0.161609 -0.290871 0)
(0.158187 -0.189163 0)
(0.167624 -0.0814281 0)
(0.182265 0.0177038 0)
(0.200745 0.111548 0)
(0.218471 0.191486 0)
(0.243907 0.231882 0)
(0.261085 0.229998 0)
(0.243836 0.184959 0)
(0.228654 0.101068 0)
(0.202614 0.0274425 0)
(0.117771 -0.0199152 0)
(-0.0106146 -0.0473185 0)
(-0.117514 -0.0827799 0)
(-0.178311 -0.137252 0)
(-0.198633 -0.205407 0)
(-0.204365 -0.263906 0)
(-0.202619 -0.269875 0)
(-0.19095 -0.240373 0)
(-0.173489 -0.203433 0)
(-0.158947 -0.186365 0)
(-0.164891 -0.162963 0)
(-0.178382 -0.1333 0)
(-0.190467 -0.108285 0)
(-0.188773 -0.0931157 0)
(-0.169501 -0.0930632 0)
(-0.1437 -0.097077 0)
(0.0189309 0.0902706 0)
(-0.0211667 -0.00256492 0)
(-0.0893194 -0.0888006 0)
(-0.132282 -0.148665 0)
(-0.160952 -0.205477 0)
(-0.179867 -0.27751 0)
(-0.198826 -0.341944 0)
(-0.220135 -0.381838 0)
(-0.246742 -0.388438 0)
(-0.281638 -0.361881 0)
(-0.324664 -0.313863 0)
(-0.373681 -0.253021 0)
(-0.422025 -0.189339 0)
(-0.458843 -0.128665 0)
(-0.477726 -0.0675753 0)
(-0.493364 0.0219694 0)
(-0.502189 0.130035 0)
(-0.496482 0.245981 0)
(-0.48605 0.36163 0)
(-0.478942 0.461276 0)
(-0.470714 0.537674 0)
(-0.460225 0.586519 0)
(-0.444913 0.632309 0)
(-0.428895 0.66268 0)
(-0.417206 0.687252 0)
(-0.410112 0.709658 0)
(-0.407166 0.731076 0)
(-0.414659 0.750935 0)
(-0.429548 0.760193 0)
(-0.433597 0.748348 0)
(-0.426151 0.721368 0)
(-0.412696 0.68602 0)
(-0.399595 0.648693 0)
(-0.384153 0.618139 0)
(-0.368853 0.59517 0)
(-0.361093 0.572363 0)
(-0.362483 0.547645 0)
(-0.368578 0.522357 0)
(-0.365182 0.497308 0)
(-0.345132 0.473001 0)
(-0.310081 0.454038 0)
(-0.263257 0.448504 0)
(-0.212335 0.459103 0)
(-0.164694 0.481568 0)
(-0.122561 0.511758 0)
(-0.0861936 0.543826 0)
(-0.0564745 0.571595 0)
(-0.0345198 0.591741 0)
(-0.0169192 0.605106 0)
(-0.00153595 0.610492 0)
(0.0124908 0.608285 0)
(0.0257679 0.599168 0)
(0.0375771 0.584374 0)
(0.0481779 0.564787 0)
(0.058295 0.543165 0)
(0.0655409 0.526049 0)
(0.0723286 0.513309 0)
(0.0746448 0.506648 0)
(0.0782721 0.482401 0)
(0.0920859 0.421737 0)
(0.111124 0.325951 0)
(0.139281 0.205356 0)
(0.145528 0.0991675 0)
(0.15803 0.0225728 0)
(0.168639 -0.0306847 0)
(0.183472 -0.0698112 0)
(0.19876 -0.0961608 0)
(0.209956 -0.10929 0)
(0.216774 -0.10747 0)
(0.219758 -0.0879431 0)
(0.211392 -0.059216 0)
(0.181132 -0.0290429 0)
(0.150973 -0.0272495 0)
(0.148965 -0.0707896 0)
(0.145817 -0.15188 0)
(0.125158 -0.291895 0)
(0.131774 -0.31085 0)
(0.141585 -0.332782 0)
(0.141514 -0.358032 0)
(0.137128 -0.379544 0)
(0.133256 -0.398588 0)
(0.133217 -0.413679 0)
(0.140257 -0.419054 0)
(0.154625 -0.412535 0)
(0.171874 -0.395969 0)
(0.180388 -0.367332 0)
(0.185727 -0.307007 0)
(0.188183 -0.207635 0)
(0.197533 -0.0910368 0)
(0.214741 0.00541334 0)
(0.230745 0.0963043 0)
(0.245922 0.177791 0)
(0.270752 0.228054 0)
(0.29904 0.241668 0)
(0.292511 0.214881 0)
(0.270346 0.144015 0)
(0.259272 0.0665918 0)
(0.208447 -0.00354133 0)
(0.110499 -0.0483129 0)
(-0.0112148 -0.0839191 0)
(-0.0974926 -0.130531 0)
(-0.136177 -0.200778 0)
(-0.151709 -0.270823 0)
(-0.158675 -0.276502 0)
(-0.153702 -0.245385 0)
(-0.143205 -0.207539 0)
(-0.136119 -0.192859 0)
(-0.149331 -0.167015 0)
(-0.17038 -0.135036 0)
(-0.192773 -0.104702 0)
(-0.200669 -0.0849493 0)
(-0.187323 -0.0819356 0)
(-0.162872 -0.0820974 0)
(0.0112902 0.125927 0)
(-0.0232297 0.067004 0)
(-0.0802033 -0.0297056 0)
(-0.128752 -0.0944305 0)
(-0.150628 -0.156917 0)
(-0.163173 -0.233573 0)
(-0.17301 -0.308579 0)
(-0.185375 -0.363352 0)
(-0.201751 -0.390867 0)
(-0.22016 -0.393686 0)
(-0.241245 -0.373815 0)
(-0.270962 -0.331008 0)
(-0.314536 -0.272899 0)
(-0.361933 -0.215253 0)
(-0.398947 -0.160264 0)
(-0.428661 -0.0889664 0)
(-0.458396 0.0255633 0)
(-0.470101 0.153018 0)
(-0.475341 0.287051 0)
(-0.480096 0.409562 0)
(-0.496086 0.506448 0)
(-0.49441 0.575335 0)
(-0.484309 0.626112 0)
(-0.481111 0.668234 0)
(-0.47616 0.699481 0)
(-0.478299 0.726914 0)
(-0.488604 0.753869 0)
(-0.497452 0.773814 0)
(-0.498706 0.776341 0)
(-0.492594 0.75241 0)
(-0.475922 0.711428 0)
(-0.452198 0.66437 0)
(-0.419547 0.621202 0)
(-0.386569 0.583445 0)
(-0.364597 0.537412 0)
(-0.344489 0.49289 0)
(-0.317868 0.453704 0)
(-0.289763 0.426797 0)
(-0.263663 0.412664 0)
(-0.237915 0.40556 0)
(-0.208945 0.400643 0)
(-0.173802 0.404937 0)
(-0.132463 0.424801 0)
(-0.0935663 0.460364 0)
(-0.0629157 0.502693 0)
(-0.041346 0.543127 0)
(-0.0271593 0.575579 0)
(-0.0153187 0.600021 0)
(-0.00383881 0.615413 0)
(0.0068252 0.621984 0)
(0.017016 0.620957 0)
(0.0267824 0.612735 0)
(0.0355708 0.59837 0)
(0.043693 0.57886 0)
(0.0516977 0.55771 0)
(0.0564565 0.540709 0)
(0.0624805 0.528696 0)
(0.0637168 0.521051 0)
(0.0684994 0.489938 0)
(0.0833982 0.422876 0)
(0.102221 0.322781 0)
(0.124357 0.204493 0)
(0.129194 0.106163 0)
(0.142658 0.027813 0)
(0.153954 -0.0308541 0)
(0.17018 -0.0731338 0)
(0.185348 -0.0995864 0)
(0.195929 -0.112223 0)
(0.202303 -0.110053 0)
(0.205669 -0.0871586 0)
(0.197891 -0.0532316 0)
(0.172148 -0.0234384 0)
(0.138752 -0.0298069 0)
(0.124237 -0.0879746 0)
(0.113043 -0.173863 0)
(0.100124 -0.310624 0)
(0.112424 -0.328874 0)
(0.120521 -0.349898 0)
(0.119515 -0.37383 0)
(0.113499 -0.397681 0)
(0.108504 -0.419935 0)
(0.110756 -0.434028 0)
(0.123738 -0.436006 0)
(0.145878 -0.425583 0)
(0.169665 -0.404757 0)
(0.186384 -0.37176 0)
(0.200982 -0.30777 0)
(0.211676 -0.2107 0)
(0.219232 -0.0887981 0)
(0.238053 0.00918182 0)
(0.25431 0.0978016 0)
(0.26782 0.174682 0)
(0.293277 0.228782 0)
(0.327004 0.250456 0)
(0.335464 0.231877 0)
(0.322158 0.179348 0)
(0.318489 0.101612 0)
(0.29167 0.0220766 0)
(0.216382 -0.0415117 0)
(0.102274 -0.0811856 0)
(-0.0116483 -0.125828 0)
(-0.0691807 -0.203609 0)
(-0.0945278 -0.285487 0)
(-0.111117 -0.288961 0)
(-0.112443 -0.256045 0)
(-0.109373 -0.216034 0)
(-0.110437 -0.201992 0)
(-0.133262 -0.172768 0)
(-0.163174 -0.137979 0)
(-0.195154 -0.10424 0)
(-0.211221 -0.0817172 0)
(-0.202318 -0.0747969 0)
(-0.178228 -0.0687621 0)
(0.00501188 0.161811 0)
(-0.0216304 0.121925 0)
(-0.0630514 0.0530175 0)
(-0.113103 -0.033389 0)
(-0.13171 -0.100975 0)
(-0.140109 -0.176994 0)
(-0.145972 -0.254177 0)
(-0.155061 -0.314079 0)
(-0.168248 -0.353021 0)
(-0.181213 -0.375613 0)
(-0.19124 -0.379265 0)
(-0.201119 -0.35774 0)
(-0.223858 -0.311124 0)
(-0.261082 -0.260555 0)
(-0.304024 -0.215626 0)
(-0.343967 -0.166906 0)
(-0.38711 -0.0748105 0)
(-0.423985 0.0555752 0)
(-0.44643 0.197393 0)
(-0.473877 0.337534 0)
(-0.501989 0.453702 0)
(-0.522665 0.551269 0)
(-0.530502 0.614329 0)
(-0.534072 0.667698 0)
(-0.543105 0.70959 0)
(-0.551241 0.746216 0)
(-0.557477 0.78185 0)
(-0.56015 0.800183 0)
(-0.555222 0.785613 0)
(-0.53968 0.747296 0)
(-0.51026 0.696826 0)
(-0.467988 0.641581 0)
(-0.423134 0.585267 0)
(-0.3853 0.51753 0)
(-0.339339 0.455047 0)
(-0.291222 0.409529 0)
(-0.25189 0.37903 0)
(-0.22072 0.359779 0)
(-0.19432 0.348662 0)
(-0.17544 0.34358 0)
(-0.150369 0.345629 0)
(-0.11163 0.36515 0)
(-0.0680463 0.405316 0)
(-0.0328046 0.460656 0)
(-0.0115212 0.515781 0)
(-0.00321247 0.55864 0)
(-0.000383428 0.590672 0)
(0.00111467 0.613624 0)
(0.00404764 0.628708 0)
(0.0100877 0.636538 0)
(0.0172345 0.635396 0)
(0.0241884 0.627456 0)
(0.03074 0.613071 0)
(0.0371806 0.593416 0)
(0.0436337 0.572184 0)
(0.0463561 0.55546 0)
(0.0514906 0.543971 0)
(0.0525646 0.533605 0)
(0.0586171 0.495727 0)
(0.0744624 0.423742 0)
(0.0943886 0.32075 0)
(0.108581 0.209135 0)
(0.117945 0.113939 0)
(0.134307 0.0309628 0)
(0.148231 -0.0337072 0)
(0.163612 -0.0769818 0)
(0.175841 -0.101976 0)
(0.182902 -0.113665 0)
(0.186781 -0.11206 0)
(0.189353 -0.0881816 0)
(0.181398 -0.0512709 0)
(0.157266 -0.0154682 0)
(0.126347 -0.0217506 0)
(0.103628 -0.0918027 0)
(0.0830242 -0.185183 0)
(0.0816671 -0.324434 0)
(0.0973879 -0.345828 0)
(0.098697 -0.365322 0)
(0.0912304 -0.386641 0)
(0.0843656 -0.409433 0)
(0.0835797 -0.428924 0)
(0.0916399 -0.438721 0)
(0.110335 -0.438237 0)
(0.135556 -0.428719 0)
(0.161224 -0.408603 0)
(0.184542 -0.368581 0)
(0.207322 -0.298662 0)
(0.22429 -0.201321 0)
(0.232684 -0.080492 0)
(0.251708 0.0225452 0)
(0.269414 0.107945 0)
(0.282963 0.182246 0)
(0.309224 0.235711 0)
(0.344733 0.258496 0)
(0.365574 0.244748 0)
(0.363468 0.199701 0)
(0.363282 0.127635 0)
(0.353947 0.0471852 0)
(0.299253 -0.0250068 0)
(0.200355 -0.0743622 0)
(0.0763163 -0.121687 0)
(-0.000787853 -0.214057 0)
(-0.0352914 -0.308262 0)
(-0.0603723 -0.310606 0)
(-0.0675428 -0.275865 0)
(-0.0713762 -0.232577 0)
(-0.0816083 -0.21364 0)
(-0.114811 -0.180304 0)
(-0.155269 -0.142867 0)
(-0.198093 -0.107113 0)
(-0.222632 -0.0830396 0)
(-0.218466 -0.07197 0)
(-0.19645 -0.0573099 0)
(-0.000632558 0.192674 0)
(-0.0174059 0.165042 0)
(-0.0449496 0.120873 0)
(-0.0793016 0.0491486 0)
(-0.10694 -0.0372458 0)
(-0.110116 -0.114096 0)
(-0.115296 -0.187272 0)
(-0.1254 -0.246886 0)
(-0.138925 -0.292885 0)
(-0.151655 -0.331636 0)
(-0.15993 -0.356017 0)
(-0.16084 -0.351076 0)
(-0.162744 -0.314934 0)
(-0.181333 -0.266674 0)
(-0.214091 -0.227362 0)
(-0.252576 -0.193338 0)
(-0.297561 -0.139039 0)
(-0.352442 -0.0283148 0)
(-0.394107 0.111197 0)
(-0.436041 0.259212 0)
(-0.4846 0.399193 0)
(-0.527334 0.514331 0)
(-0.558091 0.608361 0)
(-0.578379 0.67623 0)
(-0.592697 0.733319 0)
(-0.601598 0.782144 0)
(-0.606141 0.814198 0)
(-0.605221 0.814594 0)
(-0.59163 0.786103 0)
(-0.560986 0.740421 0)
(-0.519134 0.68213 0)
(-0.472461 0.614041 0)
(-0.421764 0.533816 0)
(-0.363856 0.453616 0)
(-0.307724 0.395581 0)
(-0.261161 0.348664 0)
(-0.223646 0.311059 0)
(-0.195828 0.280476 0)
(-0.172916 0.258538 0)
(-0.148448 0.252301 0)
(-0.115452 0.269568 0)
(-0.0729193 0.312871 0)
(-0.0302118 0.382072 0)
(-0.000407211 0.464602 0)
(0.0127639 0.534842 0)
(0.0130165 0.582862 0)
(0.00910165 0.614288 0)
(0.00490473 0.633964 0)
(0.00469406 0.646429 0)
(0.00681337 0.652343 0)
(0.0108002 0.651097 0)
(0.0165801 0.6426 0)
(0.022066 0.6277 0)
(0.027563 0.607644 0)
(0.0330732 0.586242 0)
(0.0344397 0.569881 0)
(0.0392145 0.557983 0)
(0.0411851 0.543882 0)
(0.0489634 0.499167 0)
(0.0661047 0.423294 0)
(0.0865419 0.31714 0)
(0.0986068 0.212101 0)
(0.114311 0.116334 0)
(0.134319 0.0291051 0)
(0.149001 -0.0387771 0)
(0.160191 -0.07985 0)
(0.167713 -0.101717 0)
(0.169587 -0.112018 0)
(0.170124 -0.110644 0)
(0.168224 -0.0903391 0)
(0.159249 -0.0482955 0)
(0.139076 -0.00670945 0)
(0.110055 -0.0151772 0)
(0.085243 -0.0937267 0)
(0.0624822 -0.190964 0)
(0.0771692 -0.337691 0)
(0.0785358 -0.368104 0)
(0.0682523 -0.378032 0)
(0.0613185 -0.393458 0)
(0.0588295 -0.412232 0)
(0.0627998 -0.427989 0)
(0.0748968 -0.43476 0)
(0.0967061 -0.434624 0)
(0.122264 -0.42811 0)
(0.150408 -0.40721 0)
(0.179291 -0.35954 0)
(0.206028 -0.284662 0)
(0.225971 -0.186219 0)
(0.238373 -0.0657283 0)
(0.256792 0.0418027 0)
(0.274566 0.124746 0)
(0.289331 0.196547 0)
(0.316462 0.247135 0)
(0.352396 0.266754 0)
(0.379394 0.254808 0)
(0.390038 0.209738 0)
(0.393494 0.144554 0)
(0.3888 0.0645214 0)
(0.351765 -0.00817203 0)
(0.270408 -0.0657034 0)
(0.151884 -0.123523 0)
(0.0715916 -0.231289 0)
(0.0201987 -0.338076 0)
(-0.00806012 -0.347494 0)
(-0.0202317 -0.309333 0)
(-0.0289126 -0.26116 0)
(-0.0492798 -0.230155 0)
(-0.0936078 -0.190317 0)
(-0.147107 -0.149185 0)
(-0.202238 -0.112092 0)
(-0.236023 -0.0869038 0)
(-0.237408 -0.0701302 0)
(-0.22007 -0.0429641 0)
(-0.00430231 0.219856 0)
(-0.0122626 0.200401 0)
(-0.030292 0.170912 0)
(-0.0483061 0.121602 0)
(-0.0639839 0.045579 0)
(-0.0774197 -0.0451506 0)
(-0.0804044 -0.114128 0)
(-0.0943434 -0.170553 0)
(-0.110818 -0.22021 0)
(-0.126057 -0.27371 0)
(-0.13569 -0.320507 0)
(-0.136314 -0.332102 0)
(-0.125819 -0.301947 0)
(-0.125802 -0.253746 0)
(-0.142423 -0.210145 0)
(-0.169646 -0.181703 0)
(-0.20829 -0.15084 0)
(-0.259603 -0.0798874 0)
(-0.317395 0.0439181 0)
(-0.36835 0.187943 0)
(-0.428741 0.337503 0)
(-0.491709 0.476202 0)
(-0.547044 0.594509 0)
(-0.586881 0.688115 0)
(-0.612678 0.759913 0)
(-0.626354 0.810674 0)
(-0.630881 0.829273 0)
(-0.624496 0.818275 0)
(-0.597138 0.784679 0)
(-0.557733 0.731174 0)
(-0.513731 0.660533 0)
(-0.460949 0.578104 0)
(-0.40508 0.488904 0)
(-0.349799 0.414432 0)
(-0.301066 0.350134 0)
(-0.261654 0.290039 0)
(-0.228958 0.234439 0)
(-0.202015 0.188266 0)
(-0.175589 0.160976 0)
(-0.146947 0.157299 0)
(-0.111948 0.189935 0)
(-0.0699738 0.260598 0)
(-0.0281097 0.363413 0)
(-0.0024767 0.473579 0)
(0.0059941 0.557355 0)
(0.00376025 0.609769 0)
(-0.00151434 0.640593 0)
(-0.00704353 0.657973 0)
(-0.00917812 0.666937 0)
(-0.00719623 0.669068 0)
(-0.00295479 0.666077 0)
(0.00235948 0.656886 0)
(0.00825247 0.64134 0)
(0.013864 0.62084 0)
(0.0189771 0.599652 0)
(0.019823 0.583178 0)
(0.0248994 0.569994 0)
(0.0282719 0.550896 0)
(0.0387427 0.500494 0)
(0.0574149 0.42029 0)
(0.0766774 0.314787 0)
(0.0927577 0.211423 0)
(0.113839 0.112423 0)
(0.137518 0.0226439 0)
(0.14762 -0.0433234 0)
(0.151811 -0.078868 0)
(0.153422 -0.0975274 0)
(0.150184 -0.10707 0)
(0.148829 -0.105501 0)
(0.141442 -0.09418 0)
(0.13152 -0.0437695 0)
(0.116899 0.00368122 0)
(0.0917285 -0.00861349 0)
(0.0684022 -0.0933514 0)
(0.056174 -0.199823 0)
(0.0665071 -0.363865 0)
(0.0538175 -0.384112 0)
(0.0422028 -0.378689 0)
(0.036397 -0.391106 0)
(0.036612 -0.409145 0)
(0.043777 -0.422936 0)
(0.058429 -0.427787 0)
(0.0828061 -0.428239 0)
(0.108041 -0.424101 0)
(0.13855 -0.399871 0)
(0.170899 -0.346276 0)
(0.198511 -0.267771 0)
(0.219561 -0.167839 0)
(0.235503 -0.0464178 0)
(0.254198 0.0624201 0)
(0.272185 0.144762 0)
(0.287497 0.214303 0)
(0.315083 0.261337 0)
(0.351801 0.276576 0)
(0.381072 0.263252 0)
(0.39958 0.217257 0)
(0.407624 0.151878 0)
(0.404741 0.0754661 0)
(0.379933 0.00283809 0)
(0.315421 -0.0595547 0)
(0.209613 -0.129147 0)
(0.142692 -0.256644 0)
(0.0763183 -0.376227 0)
(0.0479717 -0.402113 0)
(0.0304874 -0.360168 0)
(0.0155238 -0.301399 0)
(-0.0136847 -0.252234 0)
(-0.0686221 -0.203424 0)
(-0.138094 -0.157039 0)
(-0.206931 -0.117594 0)
(-0.250632 -0.0895736 0)
(-0.258507 -0.0640302 0)
(-0.249898 -0.020042 0)
(-0.00665748 0.24558 0)
(-0.00845554 0.230236 0)
(-0.0171984 0.209896 0)
(-0.0231932 0.1783 0)
(-0.0252168 0.123526 0)
(-0.0321773 0.0416938 0)
(-0.0446429 -0.0360103 0)
(-0.0626365 -0.0893853 0)
(-0.0834937 -0.140488 0)
(-0.101761 -0.206518 0)
(-0.115316 -0.278174 0)
(-0.119315 -0.309534 0)
(-0.103739 -0.285816 0)
(-0.0901275 -0.234507 0)
(-0.0902563 -0.184685 0)
(-0.10435 -0.149475 0)
(-0.12837 -0.125523 0)
(-0.167987 -0.0859808 0)
(-0.22282 0.00397744 0)
(-0.279648 0.134309 0)
(-0.342027 0.280851 0)
(-0.415997 0.43068 0)
(-0.490635 0.56951 0)
(-0.552626 0.685254 0)
(-0.595823 0.771317 0)
(-0.621202 0.821149 0)
(-0.627828 0.836448 0)
(-0.611029 0.821572 0)
(-0.579413 0.782574 0)
(-0.541337 0.71784 0)
(-0.493515 0.637288 0)
(-0.442339 0.547644 0)
(-0.394304 0.46007 0)
(-0.350708 0.384339 0)
(-0.315051 0.308361 0)
(-0.285206 0.23393 0)
(-0.256209 0.166233 0)
(-0.226735 0.11499 0)
(-0.197703 0.0887528 0)
(-0.165584 0.0940709 0)
(-0.129742 0.137192 0)
(-0.0931729 0.229125 0)
(-0.0640366 0.360811 0)
(-0.0463667 0.489692 0)
(-0.0360028 0.582095 0)
(-0.0332594 0.635638 0)
(-0.0344094 0.664256 0)
(-0.0371777 0.678717 0)
(-0.0372136 0.684712 0)
(-0.0335737 0.684387 0)
(-0.0269372 0.678635 0)
(-0.0190863 0.667824 0)
(-0.0116832 0.651393 0)
(-0.00533196 0.631035 0)
(-0.000311686 0.610982 0)
(0.00115543 0.594307 0)
(0.00780562 0.579368 0)
(0.0143429 0.554924 0)
(0.0295668 0.49906 0)
(0.0492269 0.412289 0)
(0.0673731 0.312386 0)
(0.0879912 0.206178 0)
(0.112534 0.103166 0)
(0.132403 0.0123111 0)
(0.134906 -0.0438327 0)
(0.131553 -0.0712334 0)
(0.129781 -0.0884206 0)
(0.125091 -0.0983444 0)
(0.123076 -0.0974434 0)
(0.110487 -0.0984737 0)
(0.10029 -0.0438883 0)
(0.0936834 0.012803 0)
(0.0733903 -0.00503642 0)
(0.05366 -0.0955358 0)
(0.055669 -0.214236 0)
(0.0531942 -0.387645 0)
(0.0332473 -0.377367 0)
(0.0197223 -0.371306 0)
(0.014356 -0.38711 0)
(0.0171195 -0.404582 0)
(0.0267437 -0.41608 0)
(0.0432127 -0.418245 0)
(0.0692522 -0.41852 0)
(0.0936856 -0.416394 0)
(0.125613 -0.38775 0)
(0.158701 -0.329809 0)
(0.185164 -0.247945 0)
(0.206856 -0.146359 0)
(0.22479 -0.0235353 0)
(0.244293 0.0852912 0)
(0.263373 0.166799 0)
(0.278931 0.233912 0)
(0.306691 0.27712 0)
(0.343781 0.28734 0)
(0.373746 0.269574 0)
(0.394479 0.222199 0)
(0.40669 0.154675 0)
(0.407368 0.0810091 0)
(0.391476 0.00837393 0)
(0.342325 -0.0574584 0)
(0.25362 -0.138774 0)
(0.203781 -0.282082 0)
(0.13234 -0.421196 0)
(0.104373 -0.462782 0)
(0.0842982 -0.420618 0)
(0.0629191 -0.348604 0)
(0.0262235 -0.280465 0)
(-0.0395217 -0.218914 0)
(-0.123687 -0.166001 0)
(-0.209034 -0.121363 0)
(-0.26455 -0.0873461 0)
(-0.27953 -0.0500565 0)
(-0.283021 0.0124598 0)
(-0.00971067 0.269855 0)
(-0.00538112 0.258708 0)
(-0.00650617 0.242722 0)
(-0.00401603 0.220784 0)
(0.00326875 0.186069 0)
(0.00922665 0.12907 0)
(-0.00466995 0.0539228 0)
(-0.0308579 -0.0098132 0)
(-0.0580878 -0.0614671 0)
(-0.0810517 -0.13498 0)
(-0.0995542 -0.229642 0)
(-0.10736 -0.282806 0)
(-0.0898121 -0.272141 0)
(-0.0684349 -0.216899 0)
(-0.0536561 -0.159604 0)
(-0.0549034 -0.115112 0)
(-0.0647634 -0.0857242 0)
(-0.0899304 -0.0569319 0)
(-0.128893 -0.00332699 0)
(-0.18133 0.101214 0)
(-0.239188 0.236715 0)
(-0.311459 0.385185 0)
(-0.395366 0.533544 0)
(-0.476777 0.665264 0)
(-0.544209 0.764836 0)
(-0.583716 0.822378 0)
(-0.592962 0.842798 0)
(-0.579085 0.826253 0)
(-0.551716 0.778699 0)
(-0.51455 0.707679 0)
(-0.467205 0.622431 0)
(-0.427053 0.528395 0)
(-0.393447 0.44436 0)
(-0.364813 0.363266 0)
(-0.341644 0.279834 0)
(-0.317219 0.197773 0)
(-0.289809 0.126867 0)
(-0.259793 0.0812783 0)
(-0.232518 0.0540811 0)
(-0.205924 0.0395164 0)
(-0.174824 0.0617415 0)
(-0.159752 0.172659 0)
(-0.143756 0.332219 0)
(-0.124822 0.484126 0)
(-0.108858 0.592012 0)
(-0.0981883 0.65181 0)
(-0.0908997 0.679827 0)
(-0.0854588 0.691806 0)
(-0.0794609 0.695202 0)
(-0.0714651 0.693468 0)
(-0.0613859 0.68663 0)
(-0.0502442 0.674655 0)
(-0.0394814 0.65782 0)
(-0.0306137 0.638 0)
(-0.0246287 0.619264 0)
(-0.0207822 0.601793 0)
(-0.0104912 0.584974 0)
(-0.000163949 0.554546 0)
(0.0178953 0.493032 0)
(0.0388679 0.403399 0)
(0.0614095 0.304253 0)
(0.0818363 0.194936 0)
(0.099969 0.0910403 0)
(0.104395 0.00885148 0)
(0.0994983 -0.036187 0)
(0.0949325 -0.0600735 0)
(0.0973061 -0.0794908 0)
(0.0958239 -0.0896929 0)
(0.092937 -0.0897434 0)
(0.0786577 -0.100286 0)
(0.0646373 -0.0522803 0)
(0.0701079 0.0198277 0)
(0.055989 -0.00613821 0)
(0.0426413 -0.102014 0)
(0.0531932 -0.230414 0)
(0.0406326 -0.395498 0)
(0.0131072 -0.359672 0)
(-0.00167503 -0.364077 0)
(-0.00363161 -0.381369 0)
(0.00110355 -0.39732 0)
(0.0121377 -0.406522 0)
(0.029589 -0.405688 0)
(0.0556301 -0.40602 0)
(0.0792058 -0.405301 0)
(0.111091 -0.372365 0)
(0.1428 -0.310482 0)
(0.166972 -0.225914 0)
(0.188262 -0.123242 0)
(0.20737 0.000896092 0)
(0.228144 0.109954 0)
(0.248337 0.189996 0)
(0.264393 0.254219 0)
(0.292127 0.292726 0)
(0.328949 0.296888 0)
(0.359511 0.273305 0)
(0.381487 0.22333 0)
(0.396759 0.155788 0)
(0.402249 0.0824932 0)
(0.395531 0.00864096 0)
(0.358002 -0.0598018 0)
(0.290546 -0.152754 0)
(0.25652 -0.308238 0)
(0.187997 -0.469627 0)
(0.159074 -0.520262 0)
(0.132809 -0.476688 0)
(0.107068 -0.390225 0)
(0.0677545 -0.307417 0)
(-0.00401849 -0.23501 0)
(-0.104499 -0.172523 0)
(-0.207365 -0.121035 0)
(-0.275415 -0.0778441 0)
(-0.298618 -0.0263408 0)
(-0.314218 0.0520429 0)
(-0.0128155 0.292623 0)
(-0.00371702 0.286671 0)
(0.00139132 0.273169 0)
(0.0103843 0.256509 0)
(0.0235772 0.231348 0)
(0.0314849 0.194664 0)
(0.0279912 0.137149 0)
(0.00620918 0.0779824 0)
(-0.0297767 0.0165708 0)
(-0.0613937 -0.0642208 0)
(-0.085669 -0.173534 0)
(-0.0960913 -0.253291 0)
(-0.0808714 -0.258886 0)
(-0.0520776 -0.206391 0)