/*--------------------------------*- C++ -*----------------------------------*\
  =========                 |
  \\      /  F ield         | OpenFOAM: The Open Source CFD Toolbox
   \\    /   O peration     | Website:  https://openfoam.org
    \\  /    A nd           | Version:  10
     \\/     M anipulation  |
\*---------------------------------------------------------------------------*/
FoamFile
{
    format      ascii;
    class       volScalarField;
    location    "0.699165";
    object      p;
}
// * * * * * * * * * * * * * * * * * * * * * * * * * * * * * * * * * * * * * //

dimensions      [1 -1 -2 0 0 0 0];

internalField   nonuniform List<scalar> 
16320
(
0.781188
0.792995
0.800204
0.802271
0.799314
0.791577
0.781845
0.770133
0.75694
0.743068
0.7297
0.716266
0.698929
0.679589
0.659862
0.644633
0.63328
0.62562
0.619315
0.614118
0.608936
0.603819
0.59875
0.5938
0.589005
0.58439
0.579967
0.575751
0.571765
0.567995
0.564564
0.56139
0.558544
0.556082
0.554048
0.552637
0.552042
0.552389
0.554078
0.557845
0.564362
0.574028
0.587347
0.604607
0.625367
0.645497
0.658545
0.662362
0.657577
0.649598
0.628756
0.617553
0.608868
0.603156
0.596602
0.590588
0.585971
0.579842
0.572032
0.564414
0.556293
0.548525
0.540811
0.535532
0.531369
0.527229
0.524724
0.520006
0.516332
0.514584
0.516088
0.521837
0.535137
0.556355
0.580124
0.600103
0.612153
0.616222
0.620073
0.624629
0.62794
0.631763
0.636395
0.639612
0.647371
0.651421
0.65394
0.654317
0.652687
0.649168
0.644122
0.638314
0.63145
0.624949
0.616487
0.603072
0.587685
0.572292
0.564025
0.55454
0.542946
0.532689
0.525745
0.523065
0.521857
0.5227
0.51875
0.51645
0.514213
0.51483
0.51977
0.52975
0.544294
0.787302
0.798199
0.80399
0.803848
0.797552
0.786941
0.775406
0.761779
0.747071
0.731995
0.718118
0.705167
0.691134
0.67441
0.656328
0.641091
0.629555
0.621722
0.615562
0.610928
0.606096
0.601235
0.596439
0.591759
0.587243
0.582915
0.578795
0.574904
0.57126
0.567875
0.564772
0.561945
0.559503
0.557459
0.555806
0.554726
0.554321
0.554719
0.556242
0.559351
0.564442
0.57164
0.581534
0.594379
0.60968
0.624916
0.635656
0.640758
0.641835
0.631192
0.627419
0.61749
0.608847
0.606677
0.599843
0.592649
0.58932
0.581009
0.57275
0.564534
0.555817
0.548003
0.539915
0.535458
0.530745
0.527711
0.522946
0.518377
0.514831
0.513107
0.514725
0.520881
0.535153
0.558303
0.584591
0.607198
0.619873
0.625015
0.627364
0.630938
0.634617
0.637367
0.640774
0.642623
0.650308
0.653807
0.656017
0.656448
0.65468
0.650687
0.64675
0.641035
0.634487
0.627642
0.618037
0.607539
0.592513
0.575652
0.566073
0.556647
0.544849
0.532765
0.525156
0.52262
0.521602
0.52337
0.521955
0.520217
0.518637
0.51918
0.523693
0.532982
0.54701
0.79266
0.802251
0.806537
0.804102
0.794605
0.780623
0.765301
0.750207
0.734763
0.719005
0.704727
0.692056
0.67916
0.665654
0.649079
0.635955
0.625256
0.617439
0.612102
0.607684
0.603195
0.598627
0.594132
0.589755
0.585548
0.581537
0.577747
0.574203
0.570925
0.567926
0.565212
0.562802
0.56074
0.55904
0.557794
0.557092
0.556976
0.557542
0.559045
0.561701
0.565681
0.571455
0.578812
0.588084
0.598858
0.609668
0.618375
0.624676
0.623997
0.619412
0.619469
0.607404
0.611771
0.607673
0.600691
0.596499
0.589263
0.580945
0.572624
0.563796
0.554947
0.547186
0.539374
0.535133
0.530354
0.527231
0.521797
0.517151
0.513781
0.512309
0.51422
0.520857
0.536084
0.560654
0.588483
0.612043
0.625448
0.63058
0.632084
0.634894
0.638121
0.639932
0.642127
0.642765
0.65055
0.653517
0.65554
0.655643
0.653751
0.650487
0.644807
0.639809
0.634332
0.626243
0.618197
0.607701
0.594137
0.580907
0.566418
0.557553
0.54755
0.53483
0.525753
0.523448
0.522866
0.524449
0.525962
0.52452
0.523842
0.524423
0.528513
0.536889
0.54963
0.794847
0.803002
0.805261
0.799985
0.78726
0.770061
0.75221
0.735288
0.71819
0.703045
0.689422
0.677577
0.665259
0.654331
0.641168
0.62969
0.620254
0.613252
0.608507
0.604486
0.600325
0.596083
0.591914
0.587887
0.584015
0.580343
0.576905
0.57373
0.570837
0.56823
0.565925
0.563927
0.562253
0.560932
0.560027
0.559601
0.55975
0.560553
0.562141
0.564624
0.568104
0.572675
0.578656
0.585615
0.59354
0.601654
0.608604
0.614891
0.616691
0.618562
0.610755
0.61376
0.6121
0.607413
0.60129
0.596971
0.588561
0.580292
0.571688
0.562424
0.553939
0.545099
0.539794
0.534882
0.530873
0.525842
0.520646
0.516284
0.513281
0.512206
0.514405
0.521689
0.537854
0.563238
0.591234
0.614378
0.62783
0.63276
0.634118
0.636423
0.639086
0.640369
0.641481
0.640643
0.6474
0.649545
0.651301
0.651527
0.649744
0.646392
0.640396
0.636803
0.630317
0.623992
0.615514
0.60548
0.594596
0.582174
0.56819
0.558876
0.549526
0.538493
0.526515
0.524392
0.525665
0.527095
0.529808
0.529163
0.52947
0.530272
0.5338
0.541221
0.552366
0.792284
0.797862
0.797017
0.788385
0.772633
0.752974
0.733677
0.716175
0.699286
0.683716
0.671859
0.661731
0.650812
0.642129
0.631718
0.622447
0.615238
0.609216
0.605112
0.601424
0.597572
0.593701
0.589887
0.586215
0.582706
0.57938
0.576303
0.573504
0.571
0.568797
0.566896
0.565296
0.564004
0.563042
0.562454
0.5623
0.562658
0.563601
0.565271
0.56772
0.570921
0.574933
0.579813
0.585733
0.592218
0.599038
0.605275
0.610933
0.614387
0.615808
0.615621
0.614175
0.610891
0.605614
0.602469
0.595169
0.587168
0.578958
0.570015
0.560928
0.552763
0.544203
0.539601
0.534263
0.530674
0.524956
0.519961
0.515727
0.513121
0.512506
0.515182
0.523208
0.54016
0.565663
0.592568
0.614632
0.627651
0.632662
0.634129
0.63621
0.638228
0.639186
0.639455
0.638181
0.643829
0.644951
0.645732
0.645789
0.643862
0.640589
0.635372
0.630637
0.62529
0.619216
0.611536
0.602821
0.592701
0.581861
0.570438
0.560769
0.551557
0.541839
0.531506
0.526778
0.528847
0.531151
0.53442
0.534687
0.53536
0.536345
0.53932
0.545706
0.55507
0.782575
0.784233
0.779428
0.767122
0.748906
0.72824
0.709099
0.692143
0.676834
0.663382
0.653204
0.644836
0.635858
0.629391
0.621847
0.615459
0.609919
0.605206
0.601728
0.598485
0.595076
0.591546
0.588129
0.584816
0.581655
0.578666
0.575941
0.573512
0.571386
0.569568
0.568059
0.566848
0.565926
0.565295
0.564992
0.565072
0.565622
0.566711
0.568419
0.570774
0.573802
0.577479
0.581802
0.586797
0.592442
0.598257
0.603775
0.608497
0.611627
0.614068
0.613726
0.611963
0.608186
0.605855
0.600164
0.592979
0.585408
0.577092
0.567972
0.559378
0.550176
0.544659
0.539568
0.534219
0.529867
0.524092
0.51937
0.51566
0.513378
0.513317
0.516434
0.525005
0.542255
0.566798
0.591838
0.612105
0.624451
0.629867
0.631919
0.633895
0.635997
0.637244
0.636863
0.635703
0.640495
0.640666
0.64015
0.639615
0.637461
0.633149
0.628613
0.622274
0.619842
0.613429
0.607224
0.598452
0.589798
0.580875
0.571301
0.56224
0.55372
0.545491
0.536726
0.532901
0.532588
0.536049
0.539271
0.540597
0.54126
0.54237
0.544748
0.550022
0.557324
0.76485
0.761963
0.752487
0.736843
0.717252
0.697233
0.679942
0.664373
0.651969
0.641421
0.633809
0.627998
0.621545
0.617201
0.612542
0.608698
0.605006
0.601612
0.598598
0.595778
0.592902
0.58962
0.586685
0.583734
0.580876
0.578198
0.575799
0.573712
0.571943
0.570476
0.569326
0.568494
0.567934
0.567629
0.56758
0.567849
0.568557
0.569764
0.571508
0.5738
0.576659
0.580035
0.583917
0.588255
0.592998
0.597786
0.602397
0.60626
0.609114
0.610877
0.61045
0.608833
0.607598
0.603394
0.597454
0.590842
0.583385
0.574974
0.566291
0.557882
0.549304
0.544604
0.539042
0.534695
0.528925
0.523467
0.519065
0.51578
0.514017
0.514642
0.518079
0.526779
0.543482
0.566513
0.589977
0.60924
0.620865
0.626148
0.628501
0.630472
0.632088
0.633046
0.633788
0.632945
0.637135
0.63673
0.634977
0.633089
0.630525
0.62519
0.620799
0.615656
0.611879
0.606202
0.600274
0.593773
0.586566
0.578928
0.571457
0.56355
0.55622
0.549391
0.541939
0.539178
0.539005
0.540937
0.544484
0.546467
0.547077
0.548169
0.549904
0.554022
0.559488
0.739207
0.731897
0.718601
0.701267
0.681999
0.66414
0.649858
0.63598
0.62727
0.619747
0.614559
0.611633
0.608922
0.606828
0.604697
0.602848
0.600774
0.598464
0.595959
0.593484
0.590874
0.58826
0.585635
0.582989
0.580368
0.577926
0.575795
0.574014
0.572557
0.571365
0.570506
0.570037
0.56981
0.569854
0.57011
0.570514
0.571363
0.572688
0.574468
0.576696
0.579424
0.582539
0.586005
0.589757
0.593693
0.597689
0.601446
0.604675
0.607022
0.608204
0.607624
0.607851
0.604976
0.60052
0.595132
0.588774
0.581364
0.573049
0.564955
0.555726
0.550036
0.5447
0.538861
0.534671
0.528548
0.523233
0.519096
0.516197
0.515033
0.516595
0.520143
0.528664
0.54387
0.565012
0.586733
0.604785
0.616325
0.621361
0.624053
0.626094
0.627861
0.629232
0.630219
0.630322
0.633088
0.632065
0.629245
0.626106
0.622733
0.61686
0.612437
0.607597
0.602393
0.599666
0.59358
0.588733
0.581808
0.576414
0.570533
0.564566
0.558889
0.55353
0.547416
0.54567
0.54588
0.546681
0.549543
0.551951
0.552607
0.553508
0.554699
0.557672
0.561574
0.707631
0.697063
0.68209
0.665031
0.647882
0.633103
0.622218
0.611007
0.605742
0.601242
0.598248
0.598113
0.598225
0.598386
0.598491
0.598197
0.597264
0.595715
0.593862
0.592061
0.589279
0.587252
0.584919
0.582499
0.580077
0.577814
0.576031
0.574697
0.573616
0.572392
0.57165
0.571159
0.571063
0.571642
0.571873
0.572021
0.573026
0.574651
0.576846
0.579247
0.582047
0.584931
0.58803
0.591347
0.594648
0.597957
0.600984
0.6033
0.604922
0.606138
0.606964
0.605297
0.602352
0.598313
0.593195
0.586948
0.579619
0.57165
0.563674
0.555299
0.55036
0.544907
0.539081
0.534465
0.528457
0.523427
0.519581
0.516928
0.516309
0.517011
0.52222
0.530575
0.544027
0.562199
0.581827
0.598824
0.610412
0.616025
0.618928
0.62081
0.622502
0.623989
0.624633
0.625074
0.626413
0.625259
0.621969
0.617945
0.613982
0.607972
0.603478
0.598668
0.594143
0.592003
0.586647
0.5816
0.577281
0.573407
0.569065
0.565566
0.561485
0.556727
0.553605
0.552236
0.552474
0.552813
0.554714
0.556928
0.558459
0.558349
0.559151
0.561201
0.563674
0.673237
0.661353
0.647117
0.631999
0.618135
0.606534
0.598293
0.592547
0.588442
0.586788
0.585365
0.588044
0.589984
0.592077
0.59393
0.594811
0.594801
0.593839
0.592373
0.590903
0.588694
0.586715
0.584553
0.582346
0.580127
0.578011
0.575894
0.572403
0.571047
0.570314
0.571569
0.573121
0.573067
0.572166
0.572197
0.57461
0.576418
0.578237
0.580205
0.581535
0.584351
0.587035
0.589933
0.59279
0.595475
0.598051
0.600398
0.603048
0.605178
0.605901
0.605003
0.603324
0.600585
0.596721
0.59175
0.585639
0.5785
0.571062
0.562613
0.556453
0.551066
0.545304
0.540126
0.534406
0.528721
0.524068
0.520268
0.518374
0.518199
0.519588
0.523733
0.532398
0.544137
0.559683
0.576529
0.592036
0.603616
0.609754
0.613074
0.614875
0.616409
0.617673
0.618271
0.618484
0.618668
0.616859
0.613037
0.608368
0.603685
0.598606
0.594089
0.589816
0.585913
0.583298
0.579055
0.575208
0.573054
0.56981
0.56779
0.566064
0.563994
0.560506
0.559081
0.558398
0.55865
0.558766
0.560011
0.561794
0.563456
0.563138
0.563322
0.564488
0.566247
0.639697
0.628395
0.616492
0.604322
0.594083
0.585621
0.580562
0.578517
0.575397
0.576279
0.576546
0.581118
0.584261
0.587781
0.591019
0.592882
0.593396
0.59291
0.59179
0.590425
0.588648
0.586798
0.584733
0.582556
0.580253
0.576168
0.576204
0.577374
0.579045
0.579268
0.5823
0.585528
0.586234
0.585646
0.584922
0.581548
0.579934
0.580027
0.581922
0.585292
0.587204
0.588915
0.592094
0.594771
0.597123
0.59971
0.602082
0.603626
0.604443
0.604607
0.60387
0.602251
0.599548
0.595799
0.590965
0.585073
0.578296
0.571101
0.563046
0.557638
0.552029
0.54619
0.541024
0.53504
0.529513
0.525075
0.52152
0.519996
0.520204
0.522064
0.526189
0.532884
0.544611
0.55747
0.571857
0.585254
0.59594
0.602552
0.60639
0.608267
0.609649
0.610584
0.611012
0.611207
0.609998
0.606848
0.60234
0.597659
0.592511
0.588215
0.584247
0.5806
0.577251
0.573748
0.572656
0.569679
0.568633
0.566825
0.566982
0.567027
0.566954
0.565043
0.564357
0.564096
0.564145
0.564574
0.565274
0.566647
0.56806
0.567728
0.567298
0.567754
0.569277
0.610443
0.600525
0.591284
0.582805
0.575289
0.569826
0.567147
0.566594
0.567986
0.568771
0.572428
0.575961
0.581244
0.585707
0.589587
0.592183
0.593058
0.592959
0.592507
0.590461
0.589308
0.587632
0.585256
0.581578
0.581995
0.581018
0.580777
0.580469
0.583812
0.584482
0.584208
0.582682
0.582187
0.581936
0.582319
0.583068
0.583427
0.584752
0.585419
0.586886
0.589686
0.593776
0.595113
0.597062
0.599284
0.600942
0.60253
0.603696
0.604372
0.604403
0.603643
0.601944
0.599283
0.595657
0.591
0.585352
0.579057
0.572009
0.564369
0.558992
0.553445
0.547496
0.542279
0.536246
0.530759
0.526349
0.523047
0.521678
0.522133
0.524361
0.528856
0.535649
0.544967
0.555894
0.567962
0.579186
0.588557
0.595379
0.598866
0.601006
0.602314
0.60281
0.603032
0.602447
0.599407
0.595065
0.590095
0.585543
0.580876
0.577245
0.574003
0.571071
0.568196
0.565294
0.56672
0.565423
0.564941
0.565329
0.566958
0.568811
0.569691
0.569958
0.569514
0.569598
0.568505
0.570476
0.570417
0.571583
0.572211
0.571857
0.57109
0.571255
0.572678
0.586756
0.578563
0.571594
0.56599
0.561237
0.558277
0.557244
0.55801
0.560922
0.565434
0.569513
0.574965
0.579982
0.585508
0.589614
0.592565
0.593685
0.593783
0.593406
0.591981
0.590767
0.588673
0.584354
0.585304
0.584588
0.582181
0.583335
0.583858
0.583409
0.58249
0.58313
0.583382
0.583407
0.582857
0.582465
0.582242
0.583356
0.58496
0.587323
0.590131
0.592574
0.595625
0.597703
0.599651
0.601411
0.602865
0.603983
0.604814
0.605211
0.605021
0.604134
0.6024
0.599798
0.596283
0.591841
0.586529
0.580557
0.573821
0.566503
0.56119
0.555369
0.549257
0.543886
0.537828
0.532392
0.52783
0.524707
0.523387
0.524024
0.526504
0.531248
0.537877
0.545624
0.555259
0.564904
0.574187
0.582056
0.588097
0.592164
0.593317
0.594543
0.594536
0.594653
0.591623
0.587044
0.581927
0.576952
0.572562
0.568928
0.566188
0.563853
0.561773
0.559922
0.558313
0.561054
0.56133
0.562422
0.564716
0.567748
0.571018
0.573505
0.574662
0.574677
0.575081
0.57352
0.575407
0.574997
0.576258
0.576275
0.575734
0.574831
0.574987
0.576648
0.568708
0.56174
0.556652
0.553072
0.550805
0.549798
0.550082
0.552093
0.556438
0.562536
0.569199
0.574741
0.580503
0.586571
0.591571
0.594368
0.595655
0.596119
0.594765
0.59402
0.592158
0.588338
0.589421
0.588772
0.585653
0.58501
0.584332
0.5829
0.585359
0.585739
0.585202
0.583781
0.583924
0.583207
0.58328
0.58275
0.583479
0.585914
0.589295
0.592763
0.59645
0.599364
0.601728
0.60343
0.604645
0.60563
0.60636
0.606757
0.60685
0.606457
0.605428
0.60368
0.601165
0.597803
0.59356
0.588517
0.582787
0.576352
0.569253
0.563731
0.557777
0.551501
0.545782
0.539687
0.53414
0.52952
0.526389
0.525077
0.525859
0.528534
0.533482
0.539929
0.547097
0.554941
0.562671
0.570122
0.576303
0.581112
0.584706
0.586017
0.586634
0.585872
0.585411
0.579981
0.574172
0.568596
0.563797
0.559975
0.557265
0.555483
0.55427
0.553261
0.552927
0.552683
0.556424
0.558368
0.561226
0.565272
0.569398
0.574008
0.577496
0.57905
0.579715
0.58026
0.578707
0.57942
0.578839
0.580563
0.579964
0.579313
0.578594
0.579123
0.581104
0.556398
0.550543
0.546238
0.543855
0.543139
0.54364
0.545562
0.548828
0.554214
0.561568
0.569394
0.576536
0.582156
0.587312
0.592317
0.596313
0.597964
0.598182
0.597474
0.596232
0.59278
0.592506
0.593421
0.591026
0.588219
0.586021
0.584536
0.585035
0.585815
0.58592
0.583673
0.584841
0.584754
0.584006
0.585451
0.585256
0.586071
0.588798
0.593328
0.597128
0.601856
0.604753
0.607097
0.60837
0.609019
0.609332
0.609527
0.609523
0.609246
0.608594
0.607452
0.605702
0.603235
0.599969
0.595899
0.591141
0.585531
0.579366
0.572347
0.566668
0.560496
0.554031
0.547893
0.541612
0.53588
0.531153
0.527944
0.526672
0.527512
0.530414
0.535512
0.541904
0.548578
0.554944
0.561416
0.567068
0.571883
0.575572
0.578301
0.579305
0.579156
0.577842
0.575239
0.568403
0.561951
0.556262
0.551634
0.548529
0.546601
0.545688
0.5457
0.546032
0.547403
0.548859
0.553572
0.557115
0.561804
0.567139
0.572134
0.577779
0.58174
0.583549
0.584437
0.584312
0.583739
0.583398
0.582472
0.584361
0.583094
0.582795
0.582248
0.58334
0.586011
0.549272
0.543524
0.539453
0.538111
0.538385
0.540069
0.543308
0.547867
0.553545
0.562045
0.571382
0.579398
0.585608
0.590114
0.594464
0.597828
0.599722
0.60057
0.600612
0.599164
0.595028
0.598016
0.59689
0.59254
0.590154
0.58656
0.585521
0.584844
0.585569
0.582277
0.584182
0.585313
0.585658
0.586177
0.587706
0.589446
0.591621
0.594556
0.599451
0.604185
0.609005
0.611933
0.613615
0.614347
0.614339
0.614019
0.61359
0.613107
0.612455
0.611571
0.610257
0.608411
0.605922
0.60271
0.5987
0.593963
0.5884
0.581923
0.575832
0.569659
0.563222
0.556543
0.549945
0.543367
0.53739
0.532476
0.529157
0.527919
0.528905
0.532122
0.537433
0.543636
0.549859
0.555403
0.560445
0.564734
0.568309
0.570957
0.572927
0.573444
0.572548
0.571132
0.565163
0.558066
0.551021
0.54557
0.541366
0.538711
0.537403
0.53775
0.539154
0.541222
0.544557
0.548304
0.553336
0.558286
0.564251
0.570787
0.576361
0.582392
0.586212
0.588378
0.589606
0.5883
0.587766
0.586857
0.585764
0.58773
0.585901
0.585715
0.585664
0.58746
0.590444
0.549103
0.540919
0.537272
0.535531
0.536779
0.539063
0.542868
0.548522
0.555444
0.564244
0.574771
0.583626
0.590054
0.594807
0.598062
0.60129
0.603527
0.604458
0.60433
0.601909
0.600311
0.602057
0.59944
0.594365
0.590894
0.586725
0.584637
0.584685
0.585356
0.579486
0.582815
0.584472
0.585725
0.58767
0.590331
0.593684
0.597562
0.602041
0.606983
0.611773
0.616117
0.618862
0.620753
0.621103
0.620548
0.619617
0.618379
0.617415
0.616326
0.615064
0.613472
0.611435
0.608803
0.605459
0.60138
0.596673
0.591215
0.584265
0.578529
0.572178
0.565429
0.558509
0.551532
0.544621
0.53834
0.533189
0.529778
0.528654
0.529906
0.533528
0.539001
0.545115
0.551009
0.556037
0.560063
0.563302
0.565929
0.567591
0.568761
0.568666
0.566952
0.564016
0.556743
0.549444
0.542431
0.537127
0.533225
0.530623
0.530607
0.532372
0.535979
0.540377
0.544766
0.550163
0.555576
0.561786
0.568688
0.575123
0.581822
0.587163
0.591351
0.593655
0.593315
0.59289
0.591445
0.589973
0.58887
0.590457
0.588286
0.587992
0.588771
0.591343
0.595102
0.554437
0.545077
0.539992
0.539269
0.53968
0.54209
0.545989
0.551504
0.559797
0.567926
0.579307
0.588992
0.595985
0.600508
0.604028
0.605796
0.608365
0.609583
0.609207
0.606152
0.607775
0.606998
0.601651
0.5958
0.590358
0.585156
0.582843
0.582321
0.58194
0.578019
0.580802
0.582433
0.584758
0.588844
0.592868
0.596628
0.601437
0.607664
0.614287
0.619693
0.623808
0.626423
0.627814
0.62804
0.627116
0.625613
0.623807
0.622111
0.620527
0.618791
0.616756
0.614271
0.611258
0.607652
0.603376
0.59852
0.591788
0.586322
0.580239
0.573639
0.56672
0.559611
0.552162
0.544922
0.538312
0.532963
0.529588
0.528704
0.530335
0.534465
0.540257
0.546399
0.552122
0.556799
0.560194
0.562706
0.564517
0.565411
0.565903
0.565106
0.563048
0.557757
0.550567
0.543054
0.536496
0.531596
0.527929
0.526934
0.528089
0.531879
0.537197
0.542731
0.548105
0.554331
0.560863
0.567834
0.574704
0.581624
0.588044
0.593333
0.596953
0.598412
0.597649
0.596417
0.594677
0.592907
0.59206
0.592122
0.590766
0.59005
0.591744
0.595065
0.599637
0.566257
0.555798
0.549948
0.54798
0.548343
0.550564
0.55383
0.558298
0.565271
0.575083
0.584826
0.595629
0.602953
0.607755
0.611186
0.612367
0.614288
0.616049
0.615682
0.612128
0.614254
0.611326
0.603811
0.597051
0.589643
0.583049
0.579895
0.579272
0.574835
0.576807
0.576795
0.576044
0.580852
0.584162
0.589063
0.595582
0.603178
0.611089
0.618278
0.625103
0.63036
0.633121
0.63458
0.634908
0.633758
0.631725
0.629355
0.62651
0.624428
0.62207
0.619421
0.616407
0.612828
0.608626
0.603262
0.598001
0.592601
0.586792
0.580379
0.573809
0.566571
0.558991
0.551207
0.543627
0.536799
0.531475
0.528317
0.527892
0.530081
0.534933
0.541217
0.54763
0.553399
0.557909
0.560688
0.562679
0.564054
0.564448
0.564319
0.562863
0.559946
0.553875
0.546748
0.539547
0.533776
0.528933
0.52622
0.52678
0.530921
0.53632
0.542517
0.549072
0.555628
0.562311
0.569242
0.575879
0.582549
0.589057
0.594366
0.599289
0.602907
0.603509
0.601712
0.599872
0.5978
0.595773
0.595263
0.593534
0.593207
0.592398
0.594725
0.598751
0.604113
0.583259
0.571795
0.565827
0.563729
0.563793
0.563941
0.566612
0.569754
0.574479
0.583781
0.593018
0.603594
0.610692
0.615828
0.618906
0.621134
0.621214
0.623467
0.623366
0.619567
0.620782
0.615638
0.606356
0.597967
0.589482
0.580785
0.576087
0.5742
0.569722
0.572492
0.572695
0.572622
0.578039
0.581547
0.586058
0.593189
0.601439
0.610114
0.618496
0.626614
0.633563
0.638816
0.641378
0.641194
0.639804
0.637272
0.634187
0.630812
0.627734
0.624524
0.621021
0.61708
0.612477
0.60726
0.60244
0.597177
0.591427
0.585406
0.578606
0.57146
0.563876
0.555951
0.54789
0.540215
0.533469
0.528396
0.525707
0.525923
0.529038
0.53493
0.542052
0.549033
0.555102
0.5597
0.561894
0.563578
0.564807
0.5646
0.563996
0.562075
0.558056
0.5523
0.545168
0.538753
0.533174
0.528957
0.529078
0.532533
0.53852
0.545783
0.553075
0.559966
0.566642
0.573127
0.579114
0.585195
0.59106
0.596125
0.60105
0.60511
0.606462
0.60622
0.605054
0.603172
0.600907
0.598777
0.597838
0.595978
0.595847
0.595214
0.597961
0.602589
0.60871
0.596587
0.591277
0.585637
0.583811
0.583619
0.583334
0.584176
0.585042
0.587601
0.595504
0.603436
0.612152
0.618804
0.623847
0.627267
0.629738
0.629455
0.631429
0.631818
0.627483
0.627604
0.620412
0.609239
0.598873
0.588715
0.578194
0.571366
0.566083
0.565584
0.565425
0.566575
0.568819
0.572998
0.578101
0.582394
0.588617
0.597101
0.60721
0.618265
0.62875
0.63534
0.638708
0.641704
0.643713
0.643422
0.639826
0.636826
0.632869
0.628856
0.6246
0.619957
0.615102
0.610345
0.605487
0.600168
0.594355
0.588046
0.580754
0.573363
0.565784
0.557986
0.549973
0.541799
0.534236
0.527777
0.523187
0.521271
0.522476
0.527054
0.534462
0.542897
0.550812
0.557431
0.562186
0.564324
0.566194
0.566866
0.566157
0.564917
0.562572
0.558318
0.552153
0.545937
0.540182
0.5348
0.532812
0.534909
0.541657
0.549431
0.557836
0.565708
0.572946
0.579411
0.58488
0.590115
0.594751
0.598892
0.603038
0.606949
0.608333
0.609263
0.60918
0.608187
0.606204
0.603974
0.602038
0.600584
0.599163
0.599011
0.598715
0.601603
0.606725
0.613541
0.609766
0.607821
0.60633
0.605598
0.605411
0.605174
0.603979
0.602765
0.604074
0.609355
0.614095
0.621279
0.626926
0.631276
0.635158
0.637456
0.638716
0.639278
0.640065
0.635798
0.634918
0.62593
0.612518
0.600129
0.588198
0.576556
0.567279
0.562745
0.561869
0.5624
0.565294
0.569288
0.574131
0.579523
0.583839
0.589338
0.596959
0.60713
0.619026
0.630692
0.640518
0.64741
0.650189
0.648386
0.643133
0.641298
0.638329
0.63336
0.62862
0.623774
0.618612
0.613202
0.608024
0.602465
0.595226
0.587521
0.579914
0.572274
0.56461
0.556707
0.548687
0.540714
0.533106
0.525892
0.520028
0.516337
0.515623
0.518192
0.524215
0.533388
0.543645
0.553018
0.560553
0.565585
0.568433
0.570168
0.570333
0.569313
0.567754
0.564603
0.559753
0.553958
0.54847
0.542717
0.539557
0.539793
0.544628
0.551986
0.561105
0.570586
0.579008
0.586095
0.591692
0.596282
0.599972
0.602929
0.605441
0.608708
0.609847
0.611463
0.611762
0.611749
0.610743
0.608819
0.606937
0.605229
0.603809
0.602866
0.60271
0.603491
0.605885
0.611425
0.618821
0.62225
0.621981
0.624314
0.626196
0.626855
0.626517
0.624741
0.622291
0.622163
0.62215
0.624315
0.629544
0.634366
0.638235
0.641976
0.644494
0.646552
0.646117
0.647209
0.643785
0.64213
0.631461
0.616289
0.602113
0.588948
0.576732
0.567511
0.56402
0.563625
0.565605
0.570641
0.576159
0.582956
0.590193
0.596352
0.600488
0.606784
0.616445
0.627804
0.639233
0.648942
0.655714
0.658299
0.657974
0.653997
0.646081
0.639091
0.633239
0.628469
0.622869
0.617102
0.610306
0.601701
0.592974
0.584811
0.57679
0.568893
0.56092
0.552863
0.544387
0.535542
0.527004
0.519351
0.512996
0.508499
0.506474
0.507443
0.511867
0.520156
0.531519
0.544046
0.555655
0.56477
0.570513
0.573954
0.575664
0.575568
0.574363
0.572517
0.568642
0.563759
0.558565
0.553343
0.548342
0.546471
0.547738
0.55364
0.562265
0.572315
0.582412
0.591051
0.597738
0.60237
0.605336
0.607333
0.608592
0.609952
0.610349
0.611738
0.612212
0.612808
0.612901
0.612341
0.611104
0.609579
0.608287
0.607199
0.606871
0.607299
0.608869
0.61087
0.61694
0.624742
0.636511
0.637504
0.641659
0.64536
0.64699
0.647168
0.645056
0.642465
0.636806
0.633848
0.633993
0.636737
0.64047
0.643966
0.647358
0.650119
0.652239
0.651411
0.653041
0.651192
0.648629
0.637323
0.620484
0.605125
0.590936
0.578778
0.570697
0.568577
0.569397
0.573074
0.579024
0.585461
0.592276
0.600342
0.608658
0.614558
0.622362
0.632424
0.643599
0.653376
0.659889
0.663519
0.663405
0.661608
0.656813
0.64966
0.641723
0.632916
0.623654
0.615251
0.606229
0.597792
0.589343
0.580948
0.572625
0.5643
0.55589
0.547053
0.537522
0.527737
0.518572
0.510388
0.503497
0.498436
0.495597
0.495392
0.498216
0.504786
0.51529
0.52918
0.544667
0.559644
0.570167
0.576915
0.581044
0.582784
0.582632
0.581289
0.57928
0.575585
0.570753
0.566053
0.561039
0.556848
0.55515
0.556912
0.562979
0.571949
0.582164
0.592231
0.600473
0.606476
0.609969
0.611463
0.611844
0.611901
0.610255
0.611555
0.61127
0.611964
0.612493
0.612845
0.612817
0.612464
0.611762
0.610995
0.610484
0.610477
0.612443
0.614693
0.616922
0.6233
0.631612
0.652039
0.653796
0.659081
0.663375
0.66537
0.667258
0.664765
0.65389
0.646936
0.642956
0.641403
0.642484
0.645161
0.648366
0.651704
0.65516
0.658103
0.657125
0.658388
0.657586
0.654189
0.643025
0.625467
0.608888
0.594184
0.582882
0.576746
0.575824
0.577103
0.580125
0.584597
0.589367
0.595383
0.602279
0.610087
0.620635
0.629892
0.640669
0.652317
0.660679
0.664033
0.663566
0.661814
0.658636
0.652836
0.645324
0.636597
0.626593
0.6162
0.605027
0.595076
0.585634
0.576598
0.56795
0.559306
0.550441
0.540613
0.529973
0.519533
0.509781
0.501103
0.493601
0.487808
0.483953
0.482493
0.483788
0.488343
0.496916
0.509644
0.526146
0.544771
0.562754
0.576708
0.584839
0.589649
0.591475
0.591442
0.590357
0.588337
0.585118
0.580586
0.576406
0.571759
0.568051
0.565943
0.567302
0.57272
0.580969
0.590634
0.600032
0.607706
0.612721
0.614958
0.615173
0.614152
0.611375
0.611247
0.610138
0.610355
0.610505
0.611079
0.611754
0.612332
0.612751
0.613036
0.613112
0.613309
0.613972
0.616385
0.619761
0.625039
0.630795
0.639739
0.670694
0.672823
0.677136
0.680811
0.685871
0.683244
0.66684
0.660962
0.654847
0.649463
0.646405
0.64643
0.648505
0.651515
0.654937
0.658615
0.661265
0.662489
0.662644
0.663121
0.657404
0.649136
0.631327
0.613432
0.598264
0.588168
0.583594
0.582884
0.58362
0.585677
0.589675
0.594861
0.600932
0.607911
0.615446
0.623512
0.631459
0.641048
0.653159
0.660691
0.662446
0.659669
0.65442
0.650109
0.643139
0.634785
0.625645
0.615498
0.604773
0.592081
0.581878
0.572606
0.563686
0.554659
0.545207
0.534305
0.522863
0.51199
0.502044
0.492819
0.484858
0.478261
0.473352
0.470479
0.470051
0.472341
0.478118
0.488195
0.502911
0.521998
0.543711
0.565127
0.582865
0.594239
0.599642
0.601895
0.602216
0.601487
0.59999
0.597269
0.593376
0.589721
0.585862
0.582897
0.57988
0.579847
0.583686
0.590627
0.598953
0.607278
0.61402
0.618121
0.619558
0.618605
0.615078
0.613091
0.611085
0.609556
0.60864
0.608506
0.609019
0.609876
0.610911
0.612049
0.61313
0.614242
0.615418
0.616838
0.619356
0.624656
0.631497
0.63977
0.649019
0.690798
0.693138
0.695675
0.696175
0.691365
0.684468
0.676097
0.668216
0.660518
0.653803
0.649775
0.649112
0.650965
0.654264
0.6576
0.661262
0.664002
0.665971
0.665459
0.666166
0.662036
0.654914
0.638303
0.619435
0.603729
0.593756
0.589172
0.588506
0.589152
0.591081
0.594522
0.59925
0.605071
0.611587
0.618403
0.625098
0.63156
0.637195
0.645912
0.652478
0.65341
0.649972
0.643371
0.637551
0.630775
0.621924
0.612343
0.601718
0.590767
0.57884
0.56957
0.560483
0.550919
0.540776
0.528928
0.516913
0.505646
0.495462
0.486235
0.47847
0.471213
0.465112
0.460766
0.458475
0.458636
0.461446
0.467813
0.478627
0.494736
0.516144
0.541195
0.566384
0.588211
0.603414
0.611434
0.614111
0.614954
0.614734
0.614142
0.612415
0.609553
0.606498
0.603714
0.602042
0.598162
0.596425
0.598134
0.602814
0.609363
0.616271
0.621965
0.625415
0.625899
0.622435
0.61907
0.615208
0.611699
0.608892
0.607236
0.606646
0.606907
0.607673
0.608896
0.610446
0.612216
0.613972
0.616044
0.618683
0.621934
0.627255
0.636561
0.647497
0.65909
0.703559
0.703609
0.701784
0.699646
0.696425
0.690678
0.682737
0.674087
0.665442
0.657852
0.653246
0.652056
0.653749
0.65665
0.659937
0.663398
0.666055
0.667914
0.667788
0.667616
0.665589
0.658201
0.645492
0.626918
0.610916
0.601065
0.596596
0.59577
0.596131
0.597431
0.60022
0.604318
0.609338
0.614711
0.619918
0.624968
0.629876
0.63446
0.637944
0.641637
0.64117
0.635835
0.630129
0.623514
0.615884
0.606552
0.596658
0.586835
0.576438
0.567352
0.558118
0.548413
0.537515
0.524809
0.512197
0.500595
0.490599
0.48182
0.473913
0.466435
0.459436
0.453208
0.448617
0.446257
0.446622
0.449922
0.457081
0.468214
0.485128
0.508186
0.536479
0.566132
0.592492
0.611907
0.623436
0.628541
0.629768
0.630162
0.631017
0.630932
0.629768
0.627094
0.625228
0.625528
0.622143
0.618565
0.617816
0.619883
0.624119
0.62934
0.634085
0.636403
0.63378
0.629849
0.624984
0.618552
0.61342
0.609323
0.606816
0.605619
0.605417
0.605777
0.60685
0.608589
0.610669
0.612817
0.615802
0.619366
0.624039
0.63007
0.63899
0.65241
0.667605
0.712281
0.710218
0.707915
0.705075
0.700943
0.694924
0.687288
0.678781
0.670166
0.662306
0.657282
0.655457
0.6566
0.65917
0.662266
0.665366
0.667777
0.669355
0.669836
0.669583
0.668309
0.663175
0.654156
0.637059
0.621155
0.61095
0.606223
0.605573
0.605744
0.606091
0.607296
0.609909
0.613538
0.617255
0.620706
0.623733
0.626235
0.628228
0.628817
0.629966
0.628142
0.621317
0.614878
0.608532
0.601549
0.593156
0.584192
0.574944
0.565399
0.556048
0.546241
0.535122
0.522262
0.509142
0.496945
0.487111
0.478718
0.471286
0.463655
0.456394
0.448249
0.441913
0.437899
0.435642
0.435439
0.437428
0.44329
0.455182
0.473641
0.497962
0.528888
0.563263
0.595022
0.619754
0.635589
0.643873
0.647048
0.64817
0.650207
0.652823
0.653603
0.651759
0.650646
0.651738
0.652172
0.647484
0.644684
0.644097
0.645605
0.648204
0.650688
0.649676
0.644941
0.639179
0.632609
0.624326
0.616847
0.611109
0.607612
0.605586
0.60483
0.604738
0.60544
0.607138
0.609533
0.611454
0.614874
0.619184
0.624833
0.632165
0.64155
0.654496
0.672375
0.720055
0.716628
0.71312
0.709138
0.704173
0.697946
0.69062
0.682604
0.674728
0.667463
0.662232
0.659867
0.660257
0.662354
0.664951
0.667595
0.669666
0.671035
0.671523
0.671642
0.670631
0.667819