/*--------------------------------*- C++ -*----------------------------------*\
  =========                 |
  \\      /  F ield         | OpenFOAM: The Open Source CFD Toolbox
   \\    /   O peration     | Website:  https://openfoam.org
    \\  /    A nd           | Version:  10
     \\/     M anipulation  |
\*---------------------------------------------------------------------------*/
FoamFile
{
    format      ascii;
    class       volScalarField;
    location    "0.699165";
    object      rho;
}
// * * * * * * * * * * * * * * * * * * * * * * * * * * * * * * * * * * * * * //

dimensions      [1 -3 0 0 0 0 0];

internalField   nonuniform List<scalar> 
16320
(
0.503027
0.476037
0.439248
0.399906
0.348384
0.29543
0.259126
0.244673
0.238506
0.237003
0.249373
0.309907
0.460251
0.531402
0.505162
0.427437
0.318479
0.229758
0.182287
0.169563
0.16569
0.163838
0.162626
0.162038
0.161996
0.162531
0.16372
0.16548
0.168103
0.1716
0.176443
0.182695
0.190986
0.202877
0.217876
0.238867
0.266469
0.304806
0.358961
0.42754
0.512744
0.61662
0.744574
0.904266
1.08985
1.25958
1.35364
1.41291
1.33558
1.23692
0.892064
0.619006
0.377489
0.245197
0.199059
0.193082
0.207948
0.244897
0.263463
0.289589
0.309008
0.304399
0.274757
0.230413
0.224593
0.239726
0.302743
0.365584
0.434406
0.502582
0.562079
0.598276
0.614741
0.62706
0.601646
0.483643
0.296293
0.199382
0.181931
0.196441
0.290011
0.496645
0.715664
0.896083
0.997212
1.04127
1.04984
1.01735
1.00341
1.02457
1.02028
0.995375
0.929964
0.893557
0.915654
0.918432
0.817567
0.577833
0.517816
0.539805
0.556871
0.517994
0.397604
0.296327
0.271392
0.278673
0.399206
0.598404
0.712764
0.76721
0.788369
0.789955
0.711218
0.556961
0.537282
0.50402
0.458023
0.389651
0.320945
0.269351
0.248868
0.240213
0.23515
0.23879
0.268885
0.376162
0.483169
0.495592
0.446733
0.351158
0.255273
0.19199
0.171308
0.165237
0.162931
0.161583
0.160803
0.160579
0.160824
0.161641
0.162933
0.16455
0.166957
0.170333
0.174976
0.181332
0.1898
0.201075
0.216333
0.236346
0.264085
0.301933
0.349698
0.410256
0.487298
0.586299
0.714616
0.868156
1.01587
1.10739
1.13776
1.15731
0.996178
0.872811
0.524665
0.312462
0.217793
0.194856
0.197694
0.230114
0.255961
0.276245
0.304557
0.311966
0.299334
0.251409
0.221781
0.222331
0.256574
0.311046
0.363123
0.42663
0.496843
0.559169
0.597239
0.615081
0.630391
0.613052
0.514045
0.332331
0.213328
0.185568
0.193463
0.262567
0.444681
0.652156
0.843212
0.969328
1.02196
1.04474
1.02641
0.973411
0.976311
1.00514
0.997452
0.960322
0.903128
0.89219
0.909508
0.868074
0.696925
0.572586
0.585343
0.624126
0.605811
0.509997
0.352413
0.270984
0.264804
0.335673
0.538756
0.667505
0.733555
0.760112
0.769226
0.707528
0.582647
0.566007
0.538399
0.497343
0.432061
0.357308
0.292655
0.26224
0.250208
0.242661
0.240043
0.262433
0.342027
0.446806
0.471269
0.447483
0.370082
0.273588
0.201253
0.172623
0.164816
0.162145
0.160715
0.159777
0.159337
0.15926
0.159517
0.160058
0.160854
0.162287
0.164489
0.167539
0.171741
0.177507
0.185396
0.195969
0.210069
0.229368
0.255122
0.287814
0.329515
0.384125
0.456702
0.551931
0.664507
0.769383
0.833329
0.854181
0.824886
0.811552
0.572461
0.383536
0.241158
0.198777
0.194684
0.213564
0.248356
0.266983
0.292113
0.3148
0.311771
0.28542
0.230812
0.216929
0.226683
0.27464
0.313579
0.351481
0.411577
0.485185
0.55166
0.591875
0.610919
0.627819
0.614229
0.522124
0.345502
0.219434
0.1871
0.191875
0.24608
0.396689
0.579215
0.772252
0.922761
0.991952
1.02016
1.01574
0.955549
0.93141
0.95475
0.980664
0.966867
0.91735
0.885391
0.889068
0.87536
0.806024
0.65178
0.627618
0.662753
0.66152
0.584106
0.452453
0.287645
0.258486
0.296975
0.487019
0.63198
0.701099
0.728806
0.739353
0.685494
0.593714
0.575873
0.551596
0.513829
0.454071
0.383079
0.313013
0.277751
0.26417
0.256497
0.251945
0.266613
0.337128
0.425659
0.449171
0.438125
0.374531
0.281508
0.204185
0.173138
0.164793
0.16164
0.160065
0.15895
0.15821
0.157776
0.157626
0.157727
0.158015
0.158587
0.159573
0.161187
0.163518
0.166863
0.171516
0.17815
0.187155
0.199538
0.216015
0.237046
0.26412
0.300256
0.349087
0.411431
0.480424
0.539487
0.572304
0.578929
0.560553
0.484425
0.369443
0.251646
0.202307
0.193217
0.202087
0.237675
0.260416
0.280317
0.309315
0.318695
0.307088
0.258376
0.217971
0.214677
0.238239
0.28329
0.303717
0.333136
0.397881
0.475761
0.54227
0.579513
0.597299
0.612156
0.595695
0.510814
0.346052
0.220878
0.187044
0.189041
0.229061
0.344922
0.49771
0.68211
0.85457
0.944576
0.983494
0.981468
0.92877
0.879285
0.882043
0.936669
0.949829
0.929031
0.884373
0.872528
0.871234
0.842836
0.754669
0.709657
0.716262
0.704037
0.634034
0.526386
0.33454
0.259008
0.268529
0.435319
0.605236
0.677031
0.701383
0.706739
0.647963
0.59678
0.576371
0.551117
0.516035
0.466176
0.400339
0.330046
0.293678
0.280636
0.273086
0.270515
0.2867
0.344576
0.4156
0.431272
0.422199
0.370927
0.28385
0.209012
0.176295
0.166097
0.162079
0.159647
0.158241
0.157278
0.156655
0.15622
0.155903
0.155713
0.155736
0.156003
0.15658
0.157563
0.159081
0.161466
0.164994
0.170062
0.177201
0.186861
0.19934
0.215525
0.23764
0.266507
0.301334
0.336352
0.363457
0.376474
0.376203
0.355376
0.302755
0.240147
0.201802
0.191821
0.196544
0.226218
0.254884
0.272973
0.297756
0.320696
0.318049
0.292279
0.232604
0.211314
0.215827
0.254065
0.284048
0.294985
0.324187
0.391741
0.471637
0.53472
0.563551
0.578511
0.583012
0.54735
0.463031
0.324127
0.21678
0.183961
0.183857
0.210548
0.288143
0.406572
0.577186
0.766229
0.883471
0.934697
0.931672
0.880462
0.821335
0.81779
0.862892
0.924124
0.920867
0.890427
0.862727
0.856844
0.845357
0.814094
0.785167
0.777146
0.749866
0.669333
0.568293
0.400769
0.261729
0.258115
0.388024
0.584793
0.660791
0.680763
0.674685
0.597223
0.592752
0.568335
0.539096
0.506253
0.468828
0.414657
0.344855
0.309634
0.298588
0.292904
0.296137
0.315827
0.364304
0.409239
0.417625
0.40852
0.362843
0.283025
0.213733
0.182355
0.171182
0.163664
0.159113
0.157368
0.156425
0.155749
0.155274
0.154924
0.154664
0.154453
0.154353
0.154423
0.15465
0.155221
0.156152
0.157649
0.16005
0.163628
0.168705
0.175402
0.184298
0.196509
0.211646
0.22822
0.243633
0.254592
0.258834
0.255933
0.240702
0.215447
0.195651
0.189861
0.193842
0.217538
0.249724
0.268735
0.288272
0.316142
0.324867
0.312807
0.26247
0.216331
0.208578
0.221244
0.262359
0.27654
0.286731
0.318426
0.380547
0.456502
0.517407
0.545512
0.558668
0.551798
0.505481
0.417147
0.29293
0.208847
0.179941
0.176524
0.189035
0.230354
0.316879
0.468725
0.665052
0.813182
0.883563
0.883071
0.845381
0.765526
0.752901
0.770424
0.867445
0.903608
0.891547
0.858368
0.843342
0.840548
0.829857
0.821059
0.80808
0.775093
0.689603
0.596653
0.445328
0.274086
0.2544
0.356006
0.570158
0.651461
0.667152
0.64575
0.543479
0.583072
0.554777
0.519821
0.487701
0.459258
0.4172
0.355846
0.322033
0.313068
0.31419
0.329467
0.349439
0.376695
0.398323
0.400325
0.390358
0.349328
0.281706
0.22038
0.189424
0.176356
0.16266
0.158064
0.156661
0.155881
0.155411
0.155148
0.154928
0.154696
0.154499
0.15438
0.154393
0.154472
0.154693
0.154952
0.155455
0.156334
0.157744
0.159978
0.163172
0.167632
0.173691
0.18091
0.188285
0.194349
0.19845
0.199906
0.198178
0.19226
0.186899
0.186676
0.192486
0.213109
0.244405
0.266324
0.283447
0.306798
0.327731
0.324178
0.296349
0.234278
0.208796
0.20819
0.232992
0.261183
0.270158
0.280914
0.306292
0.348882
0.410665
0.47633
0.519227
0.536944
0.536778
0.497069
0.408029
0.286039
0.20691
0.178456
0.173209
0.175289
0.188643
0.239064
0.374004
0.568553
0.739487
0.831269
0.83727
0.811346
0.729888
0.703098
0.707672
0.782622
0.870647
0.877733
0.856842
0.83307
0.826977
0.829672
0.830814
0.819424
0.786749
0.699841
0.610881
0.471634
0.292504
0.254839
0.332835
0.561519
0.646288
0.655538
0.617633
0.501535
0.570443
0.538602
0.497986
0.467127
0.445514
0.414676
0.363423
0.326083
0.317734
0.323321
0.351436
0.375156
0.383508
0.386349
0.385188
0.373526
0.338084
0.282826
0.230706
0.197534
0.174449
0.16124
0.15769
0.156594
0.155949
0.155673
0.155696
0.155942
0.156258
0.156421
0.156794
0.157162
0.15723
0.157265
0.157028
0.15687
0.157048
0.15747
0.158179
0.159344
0.161152
0.163871
0.167176
0.170619
0.173755
0.175921
0.177536
0.17864
0.180038
0.183354
0.191552
0.212736
0.240184
0.264661
0.281202
0.300107
0.323867
0.331862
0.319407
0.268274
0.218509
0.206472
0.210568
0.240987
0.260008
0.264468
0.27078
0.278412
0.291857
0.329671
0.400211
0.469622
0.506507
0.520122
0.497519
0.41585
0.292933
0.211763
0.18049
0.171973
0.171472
0.176752
0.205784
0.328787
0.522408
0.691577
0.784122
0.793582
0.771205
0.699206
0.665321
0.663128
0.698622
0.818792
0.859145
0.851055
0.825007
0.813422
0.818024
0.829261
0.819932
0.778977
0.681058
0.616366
0.488068
0.30324
0.257459
0.317321
0.557312
0.64602
0.645327
0.588421
0.46984
0.556805
0.525463
0.481231
0.449876
0.430753
0.408942
0.36986
0.32677
0.316066
0.320586
0.352581
0.377016
0.382145
0.382462
0.378763
0.364951
0.334023
0.287314
0.239553
0.200526
0.171406
0.161097
0.158473
0.157623
0.15743
0.158353
0.161175
0.165926
0.172927
0.184435
0.202867
0.212552
0.213035
0.204553
0.192762
0.180717
0.171729
0.165281
0.16148
0.160565
0.160995
0.16201
0.163551
0.165582
0.168367
0.171684
0.174558
0.177464
0.181939
0.192277
0.213748
0.23885
0.263406
0.280713
0.297127
0.31786
0.335317
0.332291
0.306399
0.244071
0.21232
0.206821
0.21485
0.242761
0.256413
0.259303
0.254527
0.243947
0.240534
0.247975
0.296861
0.386173
0.455489
0.487733
0.492483
0.446196
0.327094
0.230696
0.190573
0.174673
0.170562
0.173957
0.197482
0.311625
0.501876
0.668628
0.750435
0.758177
0.734659
0.673349
0.638176
0.632719
0.646588
0.745418
0.829994
0.837354
0.819734
0.800654
0.800632
0.815883
0.805654
0.74824
0.665875
0.614653
0.495959
0.309445
0.26151
0.31232
0.555501
0.647582
0.634124
0.557348
0.44845
0.543744
0.517023
0.473503
0.437404
0.419011
0.404444
0.378124
0.3326
0.312964
0.313278
0.342419
0.373777
0.381745
0.383219
0.377647
0.362639
0.333558
0.290661
0.242893
0.198845
0.170753
0.163238
0.161774
0.162716
0.168355
0.183336
0.219625
0.299021
0.429498
0.531931
0.591923
0.614041
0.613901
0.600528
0.556876
0.488697
0.404724
0.318955
0.236512
0.183349
0.168127
0.164447
0.164471
0.166012
0.169073
0.174751
0.181348
0.18895
0.201127
0.22024
0.242027
0.263252
0.282828
0.297068
0.314283
0.333132
0.340602
0.330715
0.28899
0.231452
0.211408
0.209217
0.220595
0.245394
0.251739
0.248378
0.237554
0.227918
0.225326
0.226726
0.239137
0.297613
0.388901
0.448497
0.470751
0.459451
0.390426
0.27557
0.214258
0.184812
0.174936
0.176335
0.195216
0.304197
0.492234
0.655059
0.725026
0.727849
0.699257
0.650626
0.617649
0.609712
0.614519
0.680105
0.790829
0.821326
0.813331
0.788867
0.785506
0.78473
0.770722
0.706397
0.653513
0.6113
0.489669
0.308657
0.265315
0.313015
0.557448
0.649784
0.621674
0.530125
0.441224
0.533683
0.513257
0.477355
0.434034
0.413123
0.401137
0.385347
0.350203
0.309752
0.302144
0.31592
0.360448
0.378443
0.382678
0.379179
0.363025
0.334151
0.292163
0.242655
0.19415
0.173644
0.170247
0.174276
0.194746
0.254815
0.407554
0.605566
0.737478
0.79095
0.798406
0.778697
0.710672
0.60669
0.565592
0.561082
0.559562
0.535895
0.502307
0.452983
0.362757
0.247296
0.18701
0.172633
0.171128
0.175463
0.189387
0.206077
0.222197
0.237415
0.252488
0.26912
0.286418
0.300918
0.314539
0.33089
0.34404
0.343293
0.327267
0.277157
0.228827
0.214019
0.213217
0.22618
0.242534
0.243576
0.239323
0.22981
0.223972
0.222341
0.223003
0.227013
0.246757
0.321404
0.403156
0.444129
0.453217
0.427642
0.344475
0.25382
0.203772
0.185339
0.186958
0.206477
0.324725
0.51513
0.653593
0.701006
0.69677
0.661938
0.628452
0.602597
0.593203
0.593923
0.631965
0.752474
0.804144
0.803886
0.781844
0.768211
0.759819
0.734608
0.671111
0.644129
0.607742
0.477456
0.303858
0.269782
0.320177
0.569816
0.650325
0.604135
0.506388
0.439377
0.530462
0.514502
0.491052
0.449951
0.415802
0.40107
0.39166
0.371636
0.32668
0.293397
0.290095
0.318837
0.362412
0.375068
0.377228
0.363908
0.332988
0.288673
0.233658
0.19088
0.181841
0.187062
0.224894
0.349813
0.570928
0.735054
0.790824
0.791884
0.7281
0.576398
0.436916
0.338368
0.295571
0.283969
0.281955
0.302715
0.361155
0.435577
0.473559
0.482979
0.42645
0.30606
0.220507
0.196593
0.198157
0.213651
0.231929
0.250516
0.267598
0.282734
0.295803
0.308028
0.318773
0.331745
0.344651
0.350898
0.346163
0.326125
0.273101
0.230641
0.219837
0.21967
0.231131
0.239746
0.238186
0.233852
0.226867
0.223346
0.222314
0.223017
0.225644
0.234047
0.271781
0.356773
0.417576
0.439181
0.434189
0.392023
0.303826
0.228352
0.201691
0.202886
0.232744
0.38721
0.569396
0.660087
0.676213
0.66375
0.627305
0.610185
0.592428
0.582972
0.581804
0.603776
0.711092
0.785137
0.793371
0.776544
0.757132
0.741357
0.69444
0.652646
0.63963
0.602549
0.4458
0.295648
0.275324
0.337827
0.585963
0.64905
0.585736
0.496906
0.440821
0.537259
0.522012
0.511992
0.486457
0.438743
0.408619
0.396253
0.386748
0.363889
0.311638
0.278277
0.275007
0.308916
0.347276
0.357029
0.354416
0.325184
0.274144
0.215854
0.193796
0.194785
0.233346
0.38024
0.605875
0.739394
0.765274
0.736618
0.606504
0.441953
0.345684
0.316364
0.300163
0.288361
0.281321
0.275323
0.272749
0.273938
0.298575
0.371896
0.469319
0.51441
0.448662
0.325751
0.262527
0.240574
0.243536
0.25688
0.274762
0.291291
0.306127
0.318508
0.328384
0.336741
0.346591
0.355147
0.355677
0.348892
0.32648
0.273165
0.236302
0.227219
0.226948
0.234121
0.23631
0.233914
0.23048
0.226223
0.22385
0.223454
0.224292
0.22662
0.231948
0.248415
0.312334
0.387073
0.422655
0.428533
0.409793
0.347389
0.253904
0.21963
0.22364
0.280391
0.475898
0.611363
0.652196
0.64733
0.625073
0.604508
0.597594
0.588914
0.576305
0.574617
0.593542
0.69261
0.771025
0.783708
0.771221
0.750045
0.715276
0.661649
0.646104
0.640408
0.589937
0.404551
0.292869
0.282435
0.359237
0.607503
0.644682
0.568629
0.494894
0.44525
0.567531
0.539238
0.534825
0.528795
0.496061
0.439295
0.407325
0.393097
0.383436
0.360753
0.30264
0.259753
0.252978
0.274115
0.30413
0.310615
0.296943
0.247541
0.205349
0.199417
0.222979
0.342602
0.572223
0.717897
0.745636
0.714822
0.58597
0.44272
0.39754
0.377937
0.338387
0.301616
0.293957
0.296589
0.307498
0.308933
0.301144
0.298795
0.335422
0.452068
0.538638
0.530288
0.423806
0.336222
0.295003
0.282678
0.286507
0.297303
0.310538
0.323386
0.334098
0.342546
0.350327
0.357624
0.362079
0.35963
0.351579
0.327159
0.274498
0.242977
0.234794
0.233322
0.235246
0.234778
0.232397
0.229568
0.227402
0.227021
0.228146
0.229296
0.230883
0.233711
0.241879
0.276122
0.352871
0.402832
0.417596
0.409983
0.366902
0.273055
0.238161
0.248482
0.361209
0.5541
0.62207
0.629526
0.613383
0.598929
0.594105
0.595673
0.59221
0.577676
0.571858
0.590621
0.68847
0.763478
0.775797
0.766703
0.734638
0.684067
0.646274
0.646338
0.640475
0.554922
0.356951
0.292105
0.291856
0.393002
0.629641
0.636446
0.552249
0.495941
0.446437
0.683235
0.5748
0.560337
0.562545
0.56066
0.522266
0.450401
0.406644
0.391496
0.384352
0.364185
0.300725
0.239621
0.227055
0.226651
0.237456
0.237728
0.217354
0.203282
0.210922
0.278661
0.487266
0.679074
0.737382
0.730097
0.643456
0.516996
0.466687
0.442295
0.371179
0.306717
0.2974
0.302264
0.332306
0.378024
0.395024
0.393833
0.379153
0.380845
0.478258
0.547573
0.551883
0.48
0.398627
0.351236
0.333014
0.32634
0.32742
0.332527
0.339649
0.346975
0.354085
0.361147
0.365459
0.366278
0.362937
0.353059
0.325084
0.272724
0.247004
0.23968
0.237097
0.23594
0.234663
0.232574
0.231279
0.23177
0.234553
0.236711
0.237954
0.238517
0.23806
0.24209
0.257723
0.319104
0.381354
0.405012
0.404608
0.370062
0.281903
0.256581
0.282758
0.466772
0.593917
0.614598
0.599728
0.586101
0.585292
0.591296
0.606735
0.602925
0.582878
0.574017
0.595607
0.692817
0.759441
0.769551
0.759682
0.711652
0.659995
0.645931
0.652722
0.632783
0.485777
0.323063
0.296144
0.3032
0.434485
0.646836
0.622286
0.538915
0.503195
0.455543
0.822264
0.697009
0.619259
0.610364
0.615071
0.616031
0.562906
0.456037
0.404602
0.39122
0.38852
0.37322
0.303392
0.223063
0.206624
0.202285
0.201742
0.201022
0.204473
0.23418
0.367908
0.604394
0.736988
0.757295
0.728991
0.632159
0.552883
0.523401
0.449852
0.333174
0.301579
0.300631
0.318463
0.359598
0.405686
0.439199
0.456467
0.466203
0.473502
0.516249
0.545949
0.549847
0.499545
0.440143
0.402564
0.383761
0.37246
0.36473
0.361214
0.361278
0.363189
0.366146
0.369473
0.372032
0.370639
0.365024
0.35071
0.310329
0.264606
0.246895
0.241262
0.238606
0.237208
0.236787
0.237026
0.239616
0.243602
0.247261
0.248853
0.24999
0.247481
0.242602
0.244177
0.252461
0.292964
0.3616
0.394039
0.397354
0.366641
0.284435
0.277598
0.343624
0.551795
0.604701
0.591314
0.572377
0.572943
0.588099
0.629538
0.630316
0.61984
0.582958
0.581261
0.621508
0.714834
0.758861
0.76511
0.745087
0.683004
0.650108
0.657098
0.664674
0.598873
0.393158
0.312894
0.306482
0.320636
0.483591
0.65522
0.600397
0.536842
0.51309
0.468933
0.886713
0.826986
0.734126
0.68295
0.679212
0.684537
0.679108
0.595745
0.441993
0.397373
0.392739
0.396151
0.383626
0.297957
0.212424
0.19811
0.196548
0.198582
0.212673
0.271613
0.470139
0.694116
0.783387
0.788002
0.749954
0.672154
0.627431
0.575333
0.438227
0.322628
0.306404
0.310312
0.334629
0.372125
0.403711
0.424799
0.447341
0.471744
0.495279
0.509545
0.520468
0.523522
0.504882
0.464463
0.442158
0.425501
0.411508
0.399814
0.389455
0.383181
0.37983
0.378843
0.378836
0.377368
0.372781
0.362884
0.332892
0.279428
0.25359
0.245167
0.242244
0.241304
0.243073
0.246819
0.25193
0.257641
0.261477
0.262828
0.262786
0.26001
0.251729
0.245553
0.245711
0.251675
0.282315
0.352831
0.38954
0.393043
0.358634
0.290203
0.302182
0.458256
0.595946
0.598521
0.562667
0.560224
0.579448
0.65073
0.669671
0.657205
0.618972
0.586678
0.60416
0.672915
0.734774
0.758573
0.757115
0.711954
0.662552
0.655675
0.677095
0.659791
0.494368
0.340947
0.319465
0.321685
0.342373
0.537539
0.65658
0.5812
0.540508
0.525044
0.484296
0.90303
0.888324
0.846175
0.787443
0.758212
0.760121
0.763039
0.725246
0.585425
0.411298
0.381252
0.39164
0.409499
0.386349
0.274401
0.206454
0.198814
0.202057
0.227905
0.325664
0.564788
0.763537
0.825177
0.825236
0.802584
0.760952
0.727312
0.616734
0.436392
0.343064
0.336064
0.348898
0.380529
0.402808
0.412292
0.415471
0.417981
0.430723
0.456624
0.483569
0.496369
0.500867
0.498776
0.475195
0.460337
0.447039
0.432967
0.420335
0.409392
0.399976
0.392902
0.387627
0.383006
0.378175
0.368408
0.339548
0.28588
0.257343
0.248615
0.246244
0.24739
0.254098
0.26197
0.270339
0.277365
0.279588
0.277733
0.275826
0.272002
0.263562
0.253777
0.247418
0.247086
0.252427
0.28109
0.352234
0.388928
0.39109
0.344495
0.301813
0.342479
0.552295
0.61141
0.575035
0.545537
0.561212
0.646396
0.701703
0.695141
0.658504
0.619175
0.606571
0.652359
0.712732
0.745274
0.75553
0.733608
0.680388
0.662834
0.683726
0.690053
0.581828
0.375917
0.33247
0.336243
0.339664
0.364983
0.590032
0.652963
0.57201
0.546629
0.53774
0.502358
0.892022
0.911319
0.904001
0.881166
0.852399
0.837271
0.83936
0.819711
0.716589
0.499166
0.371733
0.367562
0.408801
0.424039
0.366487
0.236482
0.208205
0.209155
0.243758
0.375328
0.640384
0.832953
0.893984
0.902329
0.894953
0.877096
0.820817
0.679995
0.5016
0.455742
0.471267
0.552041
0.624323
0.645241
0.643085
0.589882
0.504643
0.438344
0.415802
0.413677
0.437477
0.46504
0.473529
0.472738
0.463179
0.451813
0.438694
0.426079
0.414861
0.40462
0.395731
0.38832
0.380354
0.366001
0.330246
0.280644
0.257741
0.252045
0.251747
0.25859
0.271856
0.28455
0.294081
0.299229
0.296904
0.293192
0.289308
0.284534
0.277542
0.269486
0.259535
0.251695
0.250402
0.25558
0.285352
0.35701
0.391295
0.390305
0.334523
0.319567
0.417463
0.613259
0.611558
0.531792
0.541129
0.622414
0.711975
0.721892
0.699609
0.66214
0.635785
0.652873
0.701103
0.733277
0.752214
0.740337
0.700895
0.676016
0.686218
0.709906
0.644137
0.416535
0.347007
0.352462
0.356534
0.35063
0.400557
0.61539
0.648998
0.570649
0.553945
0.549992
0.521667
0.797267
0.915524
0.93341
0.936572
0.929238
0.919308
0.912874
0.895846
0.800935
0.575679
0.37345
0.350737
0.377298
0.434878
0.425821
0.309766
0.225586
0.220492
0.260025
0.422319
0.702772
0.902657
0.980501
1.0028
1.00083
0.984309
0.930249
0.803591
0.721285
0.725721
0.805187
0.953016
1.09859
1.16899
1.19308
1.18524
1.09784
0.935045
0.72469
0.524177
0.414295
0.382242
0.379961
0.40695
0.428939
0.432917
0.428182
0.419267
0.408928
0.398647
0.385038
0.369517
0.344328
0.303633
0.269295
0.257558
0.256126
0.262892
0.281279
0.297183
0.309074
0.315439
0.316898
0.315261
0.312798
0.310194
0.307373
0.3043
0.299166
0.288653
0.274265
0.262067
0.258444
0.263544
0.296009
0.366509
0.396247
0.389313
0.331613
0.34228
0.518032
0.642737
0.599908
0.514835
0.567194
0.711043
0.737741
0.729772
0.703257
0.681212
0.674881
0.701656
0.730592
0.746112
0.746621
0.718168
0.694773
0.698623
0.724098
0.685199
0.460842
0.356609
0.375342
0.388389
0.371455
0.360459
0.433905
0.623952
0.649214
0.573267
0.5613
0.562028
0.540648
0.603781
0.862152
0.952284
0.970949
0.978181
0.978757
0.974269
0.946714
0.849214
0.617326
0.379826
0.344366
0.355478
0.425748
0.454297
0.383029
0.257098
0.237002
0.273904
0.461057
0.764444
0.981826
1.07674
1.10922
1.11113
1.09519
1.06243
1.00362
0.992298
1.02293
1.10293
1.21032
1.33262
1.44003
1.4918
1.51943
1.53206
1.49325
1.39212
1.2146
0.971555
0.713973
0.47915
0.360196
0.332549
0.3366
0.345903
0.350996
0.348114
0.340048
0.32061
0.294493
0.272546
0.261749
0.259836
0.267586
0.293763
0.311365
0.319276
0.325136
0.328896
0.333169
0.340403
0.348219
0.352736
0.352988
0.351756
0.348709
0.339974
0.323805
0.302302
0.282347
0.274093
0.278748
0.314243
0.380394
0.402249
0.385493
0.335494
0.375652
0.590962
0.652181
0.556903
0.514314
0.671262
0.745741
0.74749
0.736657
0.716799
0.710254
0.713955
0.734921
0.746811
0.751056
0.734947
0.71877
0.715383
0.733657
0.706974
0.492046
0.360316
0.396637
0.433619
0.409424
0.378846
0.378825
0.449911
0.629521
0.660616
0.585372
0.56907
0.572331
0.558687
0.483196
0.71881
0.928254
0.995811
1.01417
1.01787
1.01277
0.978844
0.863421
0.569886
0.367957
0.345282
0.35172
0.396251
0.466403
0.43721
0.30515
0.257641
0.282273
0.463388
0.797843
1.05027
1.15841
1.19131
1.1904
1.17355
1.15329
1.13643
1.13747
1.15957
1.19974
1.25622
1.35043
1.45524
1.52827
1.5747
1.60465
1.6189
1.59562
1.52367
1.37939
1.18944
1.00679
0.803009
0.543201
0.359395
0.309092
0.291111
0.282658
0.27685
0.270563
0.266966
0.267637
0.279659
0.309872
0.332887
0.334991
0.333497
0.333796
0.340119
0.35717
0.37762
0.392337
0.399796
0.401463
0.400355
0.399196
0.397103
0.389029
0.373663
0.348002
0.317734
0.301281
0.304052
0.338955
0.394402
0.407618
0.380508
0.34937
0.435278
0.6311
0.652886
0.535642
0.548189
0.728254
0.759048
0.757452
0.744565
0.73603
0.737381
0.744487
0.753826
0.758352
0.75303
0.743619
0.739255
0.743057
0.713601
0.492002
0.351824
0.41493
0.466444
0.461417
0.419468
0.396568
0.394046
0.453196
0.625376
0.674275
0.614198
0.578229
0.582612
0.577377
0.469138
0.623253
0.845197
0.981221
1.03819
1.05047
1.04016
0.971339
0.740008
0.428236
0.358579
0.349152
0.354311
0.385968
0.467614
0.470239
0.358323
0.278267
0.288047
0.446674
0.797682
1.0839
1.2136
1.24312
1.23322
1.21013
1.18061
1.14103
1.1244
1.1175
1.1081
1.1101
1.15501
1.22268
1.31415
1.46343
1.55926
1.60769
1.62043
1.56481
1.4307
1.2411
1.10509
1.02235
0.926875
0.773343
0.526851
0.385868
0.334812
0.320938
0.322077
0.333188
0.355888
0.369678
0.362142
0.349819
0.341357
0.341112
0.356919
0.384464
0.400185
0.407355
0.410977
0.41372
0.415605
0.416592
0.417774
0.420026
0.423673
0.425518
0.412575
0.375567
0.345106
0.3413
0.367517
0.408041
0.414307
0.381677
0.367935
0.495148
0.650544
0.64266
0.53678
0.60323
0.752981
0.769809
0.764266
0.755624
0.753656
0.756616
0.763364
0.769385
0.770449
0.766205
0.759887
0.752269
0.716399
0.498661
0.350717
0.432158
0.479829
0.482983
0.47346
0.448718
0.414984
0.407511
0.437841
0.597245
0.682604
0.649374
0.59081
0.593904
0.598231
0.50383
0.650634
0.855995
0.988276
1.04778
1.05779
1.00954
0.813465
0.48377
0.376321
0.358786
0.354408
0.359562
0.384908
0.459928
0.491056
0.413235
0.301461
0.294308
0.414081
0.769605
1.08597
1.2343
1.26716
1.25015
1.21968
1.17286
1.09852
0.999015
0.875771
0.770452
0.714259
0.699965
0.717187
0.819604
1.03051
1.30068
1.46726
1.53382
1.5186
1.34017
1.03182
0.917019
0.906219
0.928642
0.898326
0.806525
0.67876
0.562534
0.497342
0.464986
0.440633
0.41514
0.384365
0.35675
0.344944
0.349178
0.374298
0.396673
0.402366
0.404235
0.405118
0.407373
0.410638
0.414909
0.418855
0.422719
0.428556
0.440012
0.456971
0.467854
0.456885
0.412221
0.390774
0.400129
0.421747
0.421161
0.387487
0.38635
0.539456
0.664406
0.636525
0.544167
0.634343
0.769657
0.780553
0.772661
0.767495
0.768282
0.773652
0.782283
0.785794
0.787072
0.778294
0.76116
0.711442
0.512999
0.369205
0.429194
0.486112
0.488047
0.484712
0.476399
0.464539
0.439849
0.42295
0.431215
0.530924
0.682083
0.698784
0.619962
0.608167
0.616597
0.590336
0.721891
0.890661
0.977277
1.00246
0.970638
0.771439
0.472888
0.382371
0.368621
0.366121
0.367778
0.373545
0.391342
0.455845
0.505491
0.462058
0.334676
0.30436
0.376816
0.705456
1.06226
1.23764
1.27415
1.25582
1.21768
1.12956
0.951544
0.746855
0.593408
0.518077
0.473577
0.457898
0.456184
0.473669
0.55047
0.808703
1.14873
1.3246
1.3573
1.17608
0.790182
0.651477
0.647185
0.729734
0.796267
0.804198
0.71873
0.625344
0.55291
0.49507
0.444856
0.397141
0.354934
0.343666
0.355462
0.387354
0.397176
0.395978
0.393621
0.393468
0.394916
0.398603
0.403184
0.409398
0.416158
0.42339
0.432482
0.447379
0.470356
0.491535
0.504974
0.494252
0.454809
0.439517
0.439575
0.430335
0.396999
0.404202
0.564691
0.677692
0.641419
0.55434
0.654312
0.785097
0.793156
0.783606
0.780047
0.784724
0.796592
0.806166
0.805466
0.795695
0.771299
0.70193
0.510169
0.386789
0.412403
0.485306
0.489519
0.486176
0.480825
0.475239
0.468072
0.456997
0.439422
0.433905
0.46818
0.629437
0.721071
0.69526
0.630196
0.631342
0.674019
0.783119
0.846637
0.862496
0.808378
0.622746
0.422488
0.380326
0.375278
0.380571
0.398207
0.403153
0.405725
0.409646
0.458063
0.515231
0.495174
0.379607
0.318501
0.349494
0.601614
1.00058
1.22438
1.27635
1.25683
1.19745
1.04651
0.829973
0.633156
0.51459
0.474229
0.457919
0.436078
0.425275
0.42306
0.434521
0.489373
0.775801
1.08383
1.19452
1.09559
0.733058
0.521347
0.508917
0.578207
0.650588
0.672653
0.67536
0.597609
0.517245
0.449357
0.385165
0.350232
0.34203
0.362544
0.391555
0.392515
0.388008
0.382117
0.37767
0.380186
0.384301
0.390333
0.396519
0.404313
0.413079
0.423304
0.435851
0.451961
0.474287
0.499055
0.521763
0.535789
0.527742
0.492731
0.470396
0.446046
0.408537
0.417531
0.580113
0.692511
0.654698
0.565599
0.657426
0.802867
0.810329
0.799476
0.800623
0.810098
0.819263
0.819738
0.810575
0.783313
0.698331
0.503851
0.39574
0.40083
0.478055
0.488609
0.482343
0.47225
0.465653
0.464443
0.46559
0.460595
0.451903
0.44511
0.449032
0.511476
0.687948
0.749645
0.689715
0.653254
0.637953
0.654349
0.645827
0.556084
0.440415
0.391373
0.382178
0.383957
0.403673
0.429356
0.453243
0.461255
0.449917
0.438167
0.464795
0.523694
0.52
0.43053
0.33712
0.337672
0.48789
0.886036
1.18259
1.26856
1.25602
1.19596
1.05483
0.842781
0.649684
0.534434
0.491025
0.472615
0.454245
0.427134
0.413122
0.409971
0.42192
0.496452
0.821943
1.03745
1.04792
0.755511
0.476835
0.427991
0.453756
0.518388
0.543586
0.542426
0.501124
0.411152
0.360927
0.341872
0.341314
0.372753
0.394364
0.389148
0.377913
0.363016
0.355256
0.360541
0.369969
0.378649
0.388745
0.397424
0.406195
0.414466
0.422813
0.43753
0.454364
0.474973
0.500052
0.526301
0.54844
0.5615
0.554881
0.525664
0.476908
0.422295
0.427386
0.58592
0.710759
0.689628
0.579814
0.629173
0.819955
0.833399
0.827267
0.826879
0.831151
0.831778
0.824676
0.79509
0.702193
0.502883
0.401766
0.399749
0.466009
0.484765
0.477115
0.455684
0.437323
0.430175
0.432987
0.446633
0.452819
0.453654
0.4493
0.448907
0.459342
0.534195
0.717611
0.772287
0.712621
0.456373
0.444326
0.405806
0.389927
0.386103
0.387381
0.401619
0.419476
0.433492
0.459546
0.492334
0.499076
0.486723
0.470887
0.477577
0.533218
0.53844
0.480212
0.366691
0.338497
0.403784
0.710907
1.08443
1.24205
1.24997
1.20641
1.08805
0.898024
0.722275
0.613879
0.557979
0.52354
0.4797
0.44265
0.413313
0.3994
0.397905
0.420851
0.592108
0.918269
1.01856
0.839399
0.480555
0.400947
0.383991
0.386937
0.394152
0.394515
0.379357
0.352253
0.340225
0.346005
0.382715
0.397495
0.387584
0.366858
0.339037
0.330755
0.340816
0.356217
0.376586
0.395635
0.411948
0.422422
0.430295
0.435296
0.438485
0.445948
0.459555
0.478765
0.501541
0.527173
0.552821
0.57207
0.582533
0.577978
0.530334
0.444006
0.435404
0.565922
0.722812
0.723999
0.599419
0.592032
0.827205
0.857429
0.853164
0.848557
0.847481
0.841014
0.810035
0.714582
0.507696
0.407835
0.398741
0.45049
0.48094
0.476063
0.444942
0.403821
0.380309
0.369809
0.372272
0.398419
0.418402
0.437265
0.446231
0.448396
0.450419
0.465079
0.547425
0.74457
0.794759
0.385421
0.383007
0.382835
0.386838
0.40013
0.416424
0.428317
0.436435
0.451101
0.484509
0.52534
0.533752
0.522755
0.505535
0.504872
0.546316
0.55338
0.515804
0.41438
0.349157
0.366167
0.526783
0.906734
1.16788
1.23051
1.21151
1.13316
1.00205
0.847429
0.719726
0.62605
0.551919
0.487689
0.446997
0.417909
0.394754
0.384668
0.385903
0.43487
0.736819
0.98036
0.943746
0.595322
0.400882
0.371418
0.360355
0.354563
0.350068
0.346608
0.342265
0.353232
0.390924
0.400051
0.389078
0.359863
0.31848
0.303954
0.317233
0.343694
0.382225
0.429355
0.472487
0.500796
0.513159
0.514243
0.508838
0.494677
0.482809
0.482842
0.493489
0.511779
0.533547
0.556388
0.577315
0.592318
0.600842
0.585905
0.489992
0.445995
0.52507
0.712728
0.755442
0.64205
0.564731
0.788334
0.881026
0.88166
0.873814
0.864105
0.834888
0.740376
0.532784
0.420016
0.394853
0.43118
0.477391
0.478163
0.448683
0.385484
0.338597
0.311598
0.298088
0.295678
0.315963
0.344839
0.383445
0.416261
0.436696
0.446199
0.451714
0.468156
0.553496
0.776245
0.377968
0.383214
0.393512
0.408522
0.427784
0.443637
0.450697
0.456444
0.465968
0.49604
0.546284
0.56242
0.557865
0.541257
0.536919
0.559836
0.564217
0.542875
0.46789
0.375414
0.358635
0.419397
0.654497
1.00116
1.16915
1.19655
1.15689
1.06032
0.93186
0.793765
0.671281
0.567446
0.484274
0.432723
0.408185
0.392745
0.378552
0.374562
0.385545
0.514114