/*--------------------------------*- C++ -*----------------------------------*\
  =========                 |
  \\      /  F ield         | OpenFOAM: The Open Source CFD Toolbox
   \\    /   O peration     | Website:  https://openfoam.org
    \\  /    A nd           | Version:  10
     \\/     M anipulation  |
\*---------------------------------------------------------------------------*/
FoamFile
{
    format      ascii;
    class       volVectorField;
    location    "0.699165";
    object      U;
}
// * * * * * * * * * * * * * * * * * * * * * * * * * * * * * * * * * * * * * //

dimensions      [0 1 -1 0 0 0 0];

internalField   nonuniform List<vector> 
16320
(
(-0.146035 -0.0284391 0)
(-0.116882 -0.0337821 0)
(-0.0841873 -0.0333793 0)
(-0.0516966 -0.025295 0)
(-0.0174572 -0.00634636 0)
(0.0156143 0.0223905 0)
(0.0374301 0.0486966 0)
(0.0431187 0.069447 0)
(0.0452882 0.100063 0)
(0.0457925 0.151482 0)
(0.0406055 0.212828 0)
(0.00445217 0.259073 0)
(-0.0603427 0.291099 0)
(-0.0981333 0.306908 0)
(-0.122178 0.322966 0)
(-0.14512 0.330733 0)
(-0.161093 0.330446 0)
(-0.170229 0.32238 0)
(-0.178264 0.303366 0)
(-0.187456 0.274973 0)
(-0.185331 0.247053 0)
(-0.17419 0.228889 0)
(-0.157924 0.220119 0)
(-0.139388 0.21778 0)
(-0.119937 0.218955 0)
(-0.099612 0.222203 0)
(-0.0782097 0.227014 0)
(-0.0552389 0.233382 0)
(-0.0304273 0.241127 0)
(-0.0034507 0.250458 0)
(0.0250525 0.260975 0)
(0.0550386 0.272557 0)
(0.085534 0.284659 0)
(0.114849 0.29686 0)
(0.143197 0.309883 0)
(0.170696 0.324326 0)
(0.197005 0.340127 0)
(0.221563 0.356915 0)
(0.243665 0.374087 0)
(0.262168 0.391397 0)
(0.276697 0.409806 0)
(0.28666 0.42978 0)
(0.292267 0.452104 0)
(0.294829 0.476366 0)
(0.297065 0.502296 0)
(0.302475 0.528742 0)
(0.316266 0.550194 0)
(0.339819 0.556274 0)
(0.367291 0.542298 0)
(0.396463 0.506584 0)
(0.42214 0.457608 0)
(0.440119 0.3771 0)
(0.458093 0.275576 0)
(0.486816 0.155567 0)
(0.497362 0.0566844 0)
(0.461693 -0.00318562 0)
(0.41086 -0.0177453 0)
(0.376675 0.0013821 0)
(0.345573 0.0107401 0)
(0.314488 0.0137705 0)
(0.291477 0.00710827 0)
(0.282638 -0.0181073 0)
(0.283375 -0.0613879 0)
(0.278643 -0.123332 0)
(0.268227 -0.174612 0)
(0.254391 -0.208258 0)
(0.247598 -0.215741 0)
(0.242896 -0.222234 0)
(0.233986 -0.226983 0)
(0.222338 -0.22901 0)
(0.206748 -0.22781 0)
(0.185718 -0.223628 0)
(0.15608 -0.217001 0)
(0.12066 -0.210184 0)
(0.0887482 -0.209389 0)
(0.0592445 -0.230739 0)
(0.00542984 -0.291275 0)
(-0.0520445 -0.390574 0)
(-0.0891632 -0.455452 0)
(-0.117626 -0.471859 0)
(-0.103434 -0.427358 0)
(-0.0790253 -0.368802 0)
(-0.0574838 -0.335364 0)
(-0.0260661 -0.315456 0)
(0.0134879 -0.304105 0)
(0.0564569 -0.288275 0)
(0.0995991 -0.264162 0)
(0.142573 -0.230298 0)
(0.184566 -0.179661 0)
(0.2224 -0.124804 0)
(0.252146 -0.0764782 0)
(0.269951 -0.0342297 0)
(0.274921 -0.00470364 0)
(0.259542 0.0110435 0)
(0.233972 0.0162765 0)
(0.217274 0.00150781 0)
(0.198782 -0.0281847 0)
(0.155996 -0.0533753 0)
(0.0755623 -0.0965459 0)
(0.0119097 -0.155045 0)
(-0.0423855 -0.2251 0)
(-0.0921455 -0.30541 0)
(-0.134812 -0.396875 0)
(-0.169376 -0.492598 0)
(-0.192693 -0.552127 0)
(-0.176279 -0.537472 0)
(-0.144484 -0.455295 0)
(-0.127949 -0.364634 0)
(-0.115231 -0.303273 0)
(-0.106042 -0.258187 0)
(-0.102204 -0.223025 0)
(-0.101959 -0.195854 0)
(-0.0962523 -0.173507 0)
(-0.159202 -0.0159097 0)
(-0.14117 -0.0300488 0)
(-0.120587 -0.0403053 0)
(-0.0989201 -0.0439695 0)
(-0.0737406 -0.0346592 0)
(-0.0481189 -0.0113751 0)
(-0.0231124 0.0201812 0)
(-0.014079 0.0437434 0)
(-0.0144843 0.0707052 0)
(-0.0146976 0.121948 0)
(-0.0163513 0.19325 0)
(-0.0336479 0.256173 0)
(-0.0874103 0.292154 0)
(-0.128253 0.306548 0)
(-0.150995 0.319329 0)
(-0.174253 0.324967 0)
(-0.191518 0.320722 0)
(-0.202201 0.30809 0)
(-0.209643 0.282766 0)
(-0.217315 0.250836 0)
(-0.218888 0.217093 0)
(-0.211426 0.194643 0)
(-0.199147 0.184059 0)
(-0.184384 0.181388 0)
(-0.168552 0.182838 0)
(-0.151837 0.186362 0)
(-0.134075 0.191112 0)
(-0.114786 0.196903 0)
(-0.0934299 0.203716 0)
(-0.0696857 0.211755 0)
(-0.043733 0.22122 0)
(-0.0155577 0.23286 0)
(0.0148013 0.246061 0)
(0.0457425 0.260709 0)
(0.0771076 0.276721 0)
(0.106843 0.293316 0)
(0.135593 0.312066 0)
(0.162831 0.332554 0)
(0.187977 0.354305 0)
(0.210357 0.376548 0)
(0.229884 0.39948 0)
(0.245738 0.423158 0)
(0.257702 0.448128 0)
(0.26718 0.473695 0)
(0.276474 0.499234 0)
(0.287978 0.523531 0)
(0.304225 0.543055 0)
(0.328855 0.548077 0)
(0.359369 0.533313 0)
(0.391123 0.507147 0)
(0.411635 0.448814 0)
(0.424193 0.382436 0)
(0.450058 0.281229 0)
(0.472932 0.178701 0)
(0.4721 0.100731 0)
(0.426677 0.0569788 0)
(0.384858 0.0584304 0)
(0.358009 0.062635 0)
(0.328198 0.0616389 0)
(0.301605 0.0574368 0)
(0.285653 0.0411793 0)
(0.284468 0.00846549 0)
(0.287437 -0.0464168 0)
(0.279001 -0.107504 0)
(0.265535 -0.157892 0)
(0.254054 -0.187185 0)
(0.250309 -0.198865 0)
(0.243218 -0.209921 0)
(0.234419 -0.218252 0)
(0.223405 -0.222251 0)
(0.208407 -0.222104 0)
(0.18745 -0.218766 0)
(0.157178 -0.213074 0)
(0.11994 -0.206704 0)
(0.0851119 -0.204005 0)
(0.0590082 -0.217146 0)
(0.0193953 -0.264831 0)
(-0.0310409 -0.350069 0)
(-0.0659915 -0.421037 0)
(-0.101524 -0.451479 0)
(-0.0990467 -0.425036 0)
(-0.073994 -0.371757 0)
(-0.0536185 -0.332241 0)
(-0.0238381 -0.30632 0)
(0.0148718 -0.292001 0)
(0.0571296 -0.277408 0)
(0.10023 -0.254952 0)
(0.144764 -0.224227 0)
(0.189872 -0.178807 0)
(0.229093 -0.12235 0)
(0.260526 -0.0703529 0)
(0.283977 -0.0259379 0)
(0.296251 0.00697372 0)
(0.292131 0.0292498 0)
(0.273326 0.0382858 0)
(0.253621 0.0285738 0)
(0.238763 0.00343077 0)
(0.214421 -0.0268624 0)
(0.145448 -0.0578636 0)
(0.0777009 -0.110795 0)
(0.0206517 -0.186512 0)
(-0.0339561 -0.272158 0)
(-0.0844366 -0.365533 0)
(-0.120982 -0.467268 0)
(-0.157724 -0.558518 0)
(-0.165066 -0.566891 0)
(-0.137181 -0.494034 0)
(-0.118433 -0.389139 0)
(-0.108581 -0.318142 0)
(-0.0998117 -0.266631 0)
(-0.0962944 -0.225609 0)
(-0.096261 -0.193559 0)
(-0.0917669 -0.165534 0)
(-0.159747 0.00356673 0)
(-0.149676 -0.0183633 0)
(-0.140456 -0.037999 0)
(-0.132411 -0.0526909 0)
(-0.123124 -0.0555742 0)
(-0.111502 -0.043146 0)
(-0.096449 -0.0171547 0)
(-0.0878019 0.010669 0)
(-0.0905374 0.0384709 0)
(-0.0922748 0.088898 0)
(-0.0908887 0.162596 0)
(-0.0975219 0.235423 0)
(-0.13556 0.282186 0)
(-0.170214 0.299737 0)
(-0.187453 0.310993 0)
(-0.206589 0.316042 0)
(-0.222382 0.308701 0)
(-0.232743 0.291722 0)
(-0.238528 0.26286 0)
(-0.2444 0.226121 0)
(-0.248953 0.187963 0)
(-0.244491 0.162282 0)
(-0.235641 0.150381 0)
(-0.224421 0.147354 0)
(-0.211976 0.148985 0)
(-0.198673 0.152775 0)
(-0.184403 0.15751 0)
(-0.168713 0.162771 0)
(-0.150993 0.168614 0)
(-0.130748 0.175418 0)
(-0.107828 0.183673 0)
(-0.0822764 0.194009 0)
(-0.0542377 0.206472 0)
(-0.024577 0.221524 0)
(0.00671256 0.239388 0)
(0.0392298 0.259263 0)
(0.0706811 0.280709 0)
(0.100206 0.303397 0)
(0.128231 0.328223 0)
(0.154219 0.354311 0)
(0.177764 0.381295 0)
(0.198957 0.408702 0)
(0.217397 0.436262 0)
(0.233602 0.463715 0)
(0.249341 0.489899 0)
(0.266103 0.513467 0)
(0.285445 0.531017 0)
(0.312042 0.535745 0)
(0.350514 0.522825 0)
(0.376222 0.488275 0)
(0.396019 0.435928 0)
(0.415222 0.366357 0)
(0.424659 0.278794 0)
(0.451323 0.205435 0)
(0.428635 0.146745 0)
(0.388226 0.121558 0)
(0.361613 0.120369 0)
(0.33573 0.114769 0)
(0.309845 0.107296 0)
(0.290057 0.095265 0)
(0.282533 0.0693245 0)
(0.286792 0.03018 0)
(0.285752 -0.032869 0)
(0.275351 -0.0907243 0)
(0.261585 -0.140733 0)
(0.254232 -0.165126 0)
(0.251017 -0.183313 0)
(0.243384 -0.198929 0)
(0.234075 -0.210433 0)
(0.222958 -0.216238 0)
(0.208036 -0.217298 0)
(0.186837 -0.215135 0)
(0.155771 -0.210716 0)
(0.117386 -0.205239 0)
(0.0809605 -0.201402 0)
(0.054612 -0.20829 0)
(0.0223859 -0.24329 0)
(-0.0183685 -0.313147 0)
(-0.0496187 -0.384912 0)
(-0.0837901 -0.425232 0)
(-0.0877479 -0.413895 0)
(-0.0651951 -0.371229 0)
(-0.0470543 -0.328505 0)
(-0.0202934 -0.297858 0)
(0.017196 -0.2807 0)
(0.0578362 -0.266401 0)
(0.0996785 -0.246222 0)
(0.144664 -0.216334 0)
(0.190871 -0.17403 0)
(0.232055 -0.118501 0)
(0.265481 -0.0610839 0)
(0.291299 -0.0142837 0)
(0.308778 0.022474 0)
(0.31342 0.0485331 0)
(0.302413 0.0610821 0)
(0.284276 0.0573925 0)
(0.267913 0.0373379 0)
(0.24923 0.00430581 0)
(0.206178 -0.025771 0)
(0.141759 -0.0690006 0)
(0.0862169 -0.139815 0)
(0.0346393 -0.227317 0)
(-0.0254434 -0.32558 0)
(-0.0709415 -0.429353 0)
(-0.110939 -0.544576 0)
(-0.140054 -0.584961 0)
(-0.123086 -0.52239 0)
(-0.104517 -0.410569 0)
(-0.098163 -0.330096 0)
(-0.0910752 -0.273688 0)
(-0.0888396 -0.227474 0)
(-0.0898176 -0.191323 0)
(-0.087466 -0.158114 0)
(-0.154817 0.0218881 0)
(-0.151414 -0.00576955 0)
(-0.151936 -0.0327243 0)
(-0.156087 -0.0559826 0)
(-0.161556 -0.0694901 0)
(-0.165551 -0.0684962 0)
(-0.163192 -0.0513199 0)
(-0.163504 -0.0258737 0)
(-0.172786 0.00150368 0)
(-0.178319 0.0523994 0)
(-0.176867 0.126034 0)
(-0.174592 0.201848 0)
(-0.196734 0.255492 0)
(-0.220196 0.281083 0)
(-0.228913 0.296066 0)
(-0.241921 0.30161 0)
(-0.254863 0.292915 0)
(-0.261982 0.27339 0)
(-0.265185 0.241665 0)
(-0.270228 0.199715 0)
(-0.275985 0.158552 0)
(-0.273192 0.131128 0)
(-0.266699 0.118414 0)
(-0.258164 0.115333 0)
(-0.24843 0.117275 0)
(-0.238062 0.121497 0)
(-0.22696 0.126346 0)
(-0.214574 0.131169 0)
(-0.200222 0.136079 0)
(-0.183343 0.141613 0)
(-0.163638 0.148466 0)
(-0.141027 0.15735 0)
(-0.115643 0.168734 0)
(-0.0881463 0.182952 0)
(-0.0588018 0.200528 0)
(-0.0276121 0.221739 0)
(0.00365505 0.245373 0)
(0.0359703 0.271866 0)
(0.0657852 0.298935 0)
(0.0939905 0.327434 0)
(0.120671 0.357162 0)
(0.145449 0.387793 0)
(0.168847 0.417851 0)
(0.19086 0.446671 0)
(0.211978 0.473583 0)
(0.233611 0.496837 0)
(0.257167 0.513162 0)
(0.288314 0.517983 0)
(0.322304 0.504967 0)
(0.356067 0.462545 0)
(0.376785 0.419295 0)
(0.387895 0.343914 0)
(0.411993 0.292124 0)
(0.409285 0.237076 0)
(0.379728 0.194724 0)
(0.354246 0.182193 0)
(0.334252 0.172021 0)
(0.312026 0.160093 0)
(0.291884 0.147335 0)
(0.280084 0.126388 0)
(0.281678 0.0945339 0)
(0.287842 0.0453186 0)
(0.282031 -0.0178661 0)
(0.270269 -0.0730891 0)
(0.258666 -0.11907 0)
(0.255748 -0.145209 0)
(0.251385 -0.168067 0)
(0.242962 -0.188085 0)
(0.232528 -0.202753 0)
(0.220905 -0.210488 0)
(0.205687 -0.212871 0)
(0.183839 -0.211978 0)
(0.151775 -0.208882 0)
(0.112392 -0.204479 0)
(0.0752226 -0.199882 0)
(0.0498229 -0.20257 0)
(0.0213363 -0.226902 0)
(-0.0136246 -0.283886 0)
(-0.0400225 -0.352903 0)
(-0.0698407 -0.400017 0)
(-0.0773088 -0.401975 0)
(-0.0580449 -0.368775 0)
(-0.040691 -0.322845 0)
(-0.0170233 -0.287952 0)
(0.0197202 -0.269112 0)
(0.0588905 -0.255371 0)
(0.0993869 -0.237065 0)
(0.143291 -0.208315 0)
(0.188658 -0.16804 0)
(0.2322 -0.113457 0)
(0.267058 -0.0522728 0)
(0.293884 -0.000621734 0)
(0.314192 0.0402163 0)
(0.324106 0.0684791 0)
(0.321269 0.0854711 0)
(0.307003 0.0867773 0)
(0.289754 0.0702601 0)
(0.271834 0.0407748 0)
(0.2427 0.00595158 0)
(0.191712 -0.0344474 0)
(0.143588 -0.0957065 0)
(0.0994514 -0.178855 0)
(0.0414739 -0.276345 0)
(-0.0173567 -0.38434 0)
(-0.0597327 -0.507259 0)
(-0.10245 -0.586872 0)
(-0.10207 -0.541355 0)
(-0.0881846 -0.428474 0)
(-0.0841186 -0.338001 0)
(-0.0801012 -0.278022 0)
(-0.0797496 -0.228013 0)
(-0.082821 -0.188576 0)
(-0.0828588 -0.150251 0)
(-0.150051 0.037269 0)
(-0.153462 0.00401463 0)
(-0.162964 -0.0296125 0)
(-0.178836 -0.0610123 0)
(-0.19833 -0.0849031 0)
(-0.215931 -0.0943197 0)
(-0.225617 -0.0854592 0)
(-0.236312 -0.063713 0)
(-0.252808 -0.0388749 0)
(-0.26266 0.00989355 0)
(-0.26281 0.0826949 0)
(-0.256382 0.158781 0)
(-0.263488 0.21622 0)
(-0.272694 0.250533 0)
(-0.272769 0.27218 0)
(-0.27886 0.279368 0)
(-0.286351 0.272196 0)
(-0.289425 0.251578 0)
(-0.290174 0.217221 0)
(-0.293265 0.171107 0)
(-0.29784 0.128792 0)
(-0.295456 0.10096 0)
(-0.290285 0.0879292 0)
(-0.283833 0.0848587 0)
(-0.276548 0.0874739 0)
(-0.268763 0.092484 0)
(-0.260424 0.0977175 0)
(-0.250829 0.102307 0)
(-0.239266 0.106368 0)
(-0.225164 0.110555 0)
(-0.208109 0.115845 0)
(-0.187936 0.123223 0)
(-0.164906 0.133401 0)
(-0.139666 0.146766 0)
(-0.112617 0.163819 0)
(-0.0839701 0.184762 0)
(-0.0548858 0.209008 0)
(-0.0246734 0.237247 0)
(0.00549992 0.267524 0)
(0.0343403 0.298943 0)
(0.0617211 0.330702 0)
(0.0881983 0.363415 0)
(0.11348 0.396028 0)
(0.13852 0.426697 0)
(0.163609 0.454756 0)
(0.189456 0.478532 0)
(0.217948 0.494577 0)
(0.251666 0.499902 0)
(0.287383 0.485944 0)
(0.31856 0.456268 0)
(0.343886 0.404402 0)
(0.364685 0.361826 0)
(0.370881 0.315238 0)
(0.354335 0.269386 0)
(0.335337 0.24453 0)
(0.322079 0.230318 0)
(0.305697 0.214421 0)
(0.289056 0.198422 0)
(0.276135 0.180024 0)
(0.273008 0.151363 0)
(0.28094 0.115052 0)
(0.28391 0.0559687 0)
(0.277385 -0.00139539 0)
(0.26551 -0.0573989 0)
(0.257866 -0.0967194 0)
(0.256773 -0.127165 0)
(0.251055 -0.153861 0)
(0.241123 -0.177709 0)
(0.229523 -0.195198 0)
(0.217278 -0.205288 0)
(0.201854 -0.209203 0)
(0.179478 -0.209165 0)
(0.146551 -0.206748 0)
(0.106022 -0.202474 0)
(0.0664107 -0.196372 0)
(0.0399635 -0.195719 0)
(0.0148499 -0.212917 0)
(-0.0140986 -0.26027 0)
(-0.036233 -0.325368 0)
(-0.0610773 -0.376454 0)
(-0.0692606 -0.389809 0)
(-0.0529461 -0.364117 0)
(-0.0357871 -0.315458 0)
(-0.0153697 -0.277851 0)
(0.0212527 -0.258678 0)
(0.060264 -0.245689 0)
(0.0997826 -0.228335 0)
(0.141733 -0.201113 0)
(0.184831 -0.161469 0)
(0.228351 -0.106005 0)
(0.264796 -0.0429496 0)
(0.292415 0.0162138 0)
(0.313485 0.0587949 0)
(0.327199 0.0906735 0)
(0.330683 0.110167 0)
(0.3218 0.115855 0)
(0.305898 0.104062 0)
(0.286928 0.0775648 0)
(0.260838 0.041151 0)
(0.222087 -0.00339265 0)
(0.184477 -0.0606415 0)
(0.148536 -0.136806 0)
(0.099476 -0.230158 0)
(0.0429368 -0.33423 0)
(-0.00586644 -0.454985 0)
(-0.0601835 -0.569935 0)
(-0.0748101 -0.548716 0)
(-0.0687186 -0.440731 0)
(-0.0664965 -0.341387 0)
(-0.067469 -0.278703 0)
(-0.0694805 -0.226468 0)
(-0.0754876 -0.18432 0)
(-0.078748 -0.140393 0)
(-0.146948 0.0472619 0)
(-0.157016 0.00809397 0)
(-0.175326 -0.0314586 0)
(-0.202237 -0.0704255 0)
(-0.234587 -0.104002 0)
(-0.264101 -0.12327 0)
(-0.28297 -0.121868 0)
(-0.302568 -0.104449 0)
(-0.325776 -0.0812924 0)
(-0.338685 -0.0354764 0)
(-0.339027 0.0329587 0)
(-0.330243 0.106953 0)
(-0.326617 0.168234 0)
(-0.322955 0.211985 0)
(-0.315063 0.240225 0)
(-0.313876 0.250716 0)
(-0.314793 0.24598 0)
(-0.313518 0.225316 0)
(-0.311694 0.189438 0)
(-0.312597 0.140898 0)
(-0.31349 0.0988856 0)
(-0.309756 0.0725224 0)
(-0.305514 0.0588984 0)
(-0.301098 0.0559101 0)
(-0.295951 0.0596439 0)
(-0.290659 0.0657026 0)
(-0.284779 0.0713246 0)
(-0.277433 0.0756025 0)
(-0.267921 0.0787028 0)
(-0.255605 0.0814867 0)
(-0.239994 0.0851076 0)
(-0.220961 0.0908224 0)
(-0.198982 0.0997953 0)
(-0.175017 0.112614 0)
(-0.149776 0.129529 0)
(-0.123557 0.150523 0)
(-0.0969632 0.175318 0)
(-0.0699743 0.204169 0)
(-0.0428608 0.235891 0)
(-0.0166592 0.269359 0)
(0.00962414 0.304459 0)
(0.0349356 0.339185 0)
(0.0596475 0.373693 0)
(0.0847496 0.40703 0)
(0.111341 0.437164 0)
(0.140098 0.462415 0)
(0.172456 0.479611 0)
(0.208362 0.485934 0)
(0.243278 0.47649 0)
(0.275754 0.45195 0)
(0.302866 0.417694 0)
(0.316594 0.376755 0)
(0.313306 0.334456 0)
(0.305001 0.303651 0)
(0.298999 0.285638 0)
(0.289977 0.267085 0)
(0.278991 0.248183 0)
(0.268557 0.229391 0)
(0.263483 0.204528 0)
(0.270023 0.173618 0)
(0.279288 0.12818 0)
(0.277594 0.0674878 0)
(0.273122 0.0148546 0)
(0.264283 -0.0403505 0)
(0.261055 -0.0776117 0)
(0.258997 -0.110935 0)
(0.251483 -0.140991 0)
(0.240176 -0.16762 0)
(0.227609 -0.188067 0)
(0.214137 -0.201134 0)
(0.198418 -0.206801 0)
(0.175946 -0.206991 0)
(0.143154 -0.204013 0)
(0.102688 -0.198705 0)
(0.0610045 -0.192018 0)
(0.0300086 -0.190047 0)
(0.00262704 -0.202904 0)
(-0.0198834 -0.243477 0)
(-0.0359033 -0.302913 0)
(-0.0558348 -0.35379 0)
(-0.0642923 -0.373899 0)
(-0.051929 -0.354243 0)
(-0.0341017 -0.308266 0)
(-0.0147778 -0.271507 0)
(0.0232423 -0.25342 0)
(0.0634493 -0.241062 0)
(0.101817 -0.223234 0)
(0.141185 -0.196224 0)
(0.181252 -0.155919 0)
(0.223123 -0.0988694 0)
(0.261495 -0.0340172 0)
(0.288919 0.031112 0)
(0.309607 0.0783866 0)
(0.325256 0.113509 0)
(0.332412 0.135506 0)
(0.32931 0.14461 0)
(0.315588 0.137163 0)
(0.296839 0.113885 0)
(0.273113 0.0781135 0)
(0.242887 0.0331357 0)
(0.211436 -0.0266475 0)
(0.18114 -0.100567 0)
(0.139268 -0.190106 0)
(0.0937841 -0.290916 0)
(0.0502259 -0.400154 0)
(-0.0132879 -0.530809 0)
(-0.0433036 -0.541298 0)
(-0.0477602 -0.444201 0)
(-0.0472066 -0.33986 0)
(-0.0541388 -0.275432 0)
(-0.0587162 -0.222301 0)
(-0.0679679 -0.177718 0)
(-0.0756298 -0.127818 0)
(-0.146339 0.0510875 0)
(-0.163312 0.0049387 0)
(-0.189557 -0.0403059 0)
(-0.22565 -0.0856183 0)
(-0.267572 -0.126401 0)
(-0.305841 -0.152942 0)
(-0.331665 -0.159221 0)
(-0.357228 -0.14707 0)
(-0.384349 -0.124761 0)
(-0.398644 -0.0812236 0)
(-0.401344 -0.0204663 0)
(-0.391037 0.0481684 0)
(-0.378493 0.11406 0)
(-0.365496 0.167378 0)
(-0.352046 0.201556 0)
(-0.344253 0.216155 0)
(-0.338405 0.213662 0)
(-0.332366 0.193548 0)
(-0.32784 0.156948 0)
(-0.325681 0.110252 0)
(-0.321288 0.070664 0)
(-0.315831 0.0444932 0)
(-0.31308 0.0302938 0)
(-0.309439 0.0286919 0)
(-0.306202 0.0343669 0)
(-0.303365 0.0417273 0)
(-0.299749 0.0476365 0)
(-0.294276 0.0514903 0)
(-0.286197 0.0536607 0)
(-0.274834 0.0553065 0)
(-0.259661 0.0575075 0)
(-0.240405 0.0615462 0)
(-0.217805 0.0697905 0)
(-0.193459 0.082656 0)
(-0.168635 0.100119 0)
(-0.143817 0.121641 0)
(-0.119273 0.14684 0)
(-0.0950439 0.175888 0)
(-0.0713864 0.208504 0)
(-0.048671 0.243186 0)
(-0.0262773 0.279621 0)
(-0.00400517 0.316294 0)
(0.0182978 0.352637 0)
(0.0415585 0.387231 0)
(0.0674632 0.418666 0)
(0.0968115 0.444529 0)
(0.130134 0.462652 0)
(0.165629 0.469991 0)
(0.199769 0.464529 0)
(0.230531 0.447219 0)
(0.251973 0.417167 0)
(0.261132 0.382497 0)
(0.265064 0.35405 0)
(0.266823 0.334093 0)
(0.265297 0.314709 0)
(0.261078 0.294603 0)
(0.256163 0.274572 0)
(0.251857 0.252977 0)
(0.255751 0.223525 0)
(0.267816 0.189629 0)
(0.273883 0.133509 0)
(0.274384 0.0794179 0)
(0.269872 0.0272046 0)
(0.264387 -0.0232736 0)
(0.266603 -0.0613676 0)
(0.263057 -0.0971298 0)
(0.254964 -0.129821 0)
(0.243581 -0.158338 0)
(0.229566 -0.181691 0)
(0.213971 -0.197945 0)
(0.197389 -0.205851 0)
(0.175417 -0.206148 0)
(0.143432 -0.201404 0)
(0.104857 -0.194483 0)
(0.0658668 -0.187746 0)
(0.0341876 -0.185871 0)
(0.00485896 -0.197628 0)
(-0.0159367 -0.23263 0)
(-0.0283078 -0.28634 0)
(-0.0436119 -0.335719 0)
(-0.0525983 -0.359545 0)
(-0.0501816 -0.343968 0)
(-0.034751 -0.300504 0)
(-0.0109381 -0.271523 0)
(0.0290012 -0.255234 0)
(0.0703095 -0.242696 0)
(0.107126 -0.22307 0)
(0.143409 -0.194099 0)
(0.180322 -0.151606 0)
(0.218724 -0.0928637 0)
(0.25534 -0.0250974 0)
(0.282667 0.0436346 0)
(0.303448 0.0995032 0)
(0.319821 0.13641 0)
(0.328771 0.161462 0)
(0.329403 0.172664 0)
(0.319733 0.169315 0)
(0.302453 0.149459 0)
(0.280704 0.114493 0)
(0.25584 0.0686343 0)
(0.229949 0.00897436 0)
(0.2031 -0.0641484 0)
(0.165893 -0.153002 0)
(0.127801 -0.251466 0)
(0.0947347 -0.356148 0)
(0.0391074 -0.478667 0)
(-0.0109826 -0.519945 0)
(-0.0260458 -0.439037 0)
(-0.0282622 -0.333483 0)
(-0.0410497 -0.268138 0)
(-0.0483642 -0.215387 0)
(-0.0611165 -0.168523 0)
(-0.0741805 -0.113277 0)
(-0.148675 0.0479838 0)
(-0.172884 -0.00483887 0)
(-0.205548 -0.0552589 0)
(-0.248418 -0.105353 0)
(-0.296444 -0.150938 0)
(-0.340139 -0.182298 0)
(-0.370326 -0.194794 0)
(-0.397997 -0.18866 0)
(-0.425894 -0.166234 0)
(-0.439963 -0.125164 0)
(-0.443335 -0.0689716 0)
(-0.433884 -0.00801844 0)
(-0.415976 0.0586292 0)
(-0.397564 0.117514 0)
(-0.380558 0.156505 0)
(-0.367156 0.175632 0)
(-0.355519 0.175933 0)
(-0.344895 0.157299 0)
(-0.336465 0.122041 0)
(-0.329696 0.0792099 0)
(-0.3207 0.0423221 0)
(-0.312535 0.0138754 0)
(-0.30801 0.00119867 0)
(-0.304747 0.00322067 0)
(-0.303878 0.0119706 0)
(-0.303867 0.0205238 0)
(-0.302834 0.0258149 0)
(-0.299454 0.0283068 0)
(-0.293166 0.0285375 0)
(-0.28365 0.0279411 0)
(-0.27061 0.0269907 0)
(-0.252522 0.0265761 0)
(-0.229871 0.032803 0)
(-0.204996 0.0448435 0)
(-0.179446 0.0651829 0)
(-0.154199 0.0903997 0)
(-0.129453 0.118999 0)
(-0.10525 0.151243 0)
(-0.082784 0.186804 0)
(-0.0621891 0.222081 0)
(-0.0428459 0.258997 0)
(-0.0240475 0.296189 0)
(-0.00498873 0.332935 0)
(0.0154403 0.367201 0)
(0.0388856 0.397284 0)
(0.0662987 0.421819 0)
(0.0974144 0.439637 0)
(0.130033 0.448275 0)
(0.16086 0.445824 0)
(0.186179 0.431382 0)
(0.204615 0.409769 0)
(0.219072 0.389582 0)
(0.228899 0.371744 0)
(0.233817 0.353716 0)
(0.236391 0.334702 0)
(0.237374 0.314719 0)
(0.237644 0.294334 0)
(0.239454 0.268865 0)
(0.251569 0.238187 0)
(0.264502 0.195534 0)
(0.268482 0.138072 0)
(0.273595 0.0891021 0)
(0.270391 0.0360356 0)
(0.269158 -0.00891952 0)
(0.272969 -0.0490286 0)
(0.270254 -0.086369 0)
(0.263196 -0.120243 0)
(0.252955 -0.150218 0)
(0.23823 -0.175104 0)
(0.218823 -0.193319 0)
(0.199483 -0.205078 0)
(0.178316 -0.206142 0)
(0.147545 -0.200087 0)
(0.111269 -0.190356 0)
(0.0774511 -0.181626 0)
(0.0484852 -0.177729 0)
(0.019145 -0.187732 0)
(-0.00176107 -0.22072 0)
(-0.0129393 -0.271991 0)
(-0.0244761 -0.321479 0)
(-0.0308932 -0.350517 0)
(-0.0315748 -0.342745 0)
(-0.0239833 -0.300997 0)
(0.00530774 -0.282471 0)
(0.0448589 -0.266899 0)
(0.0826722 -0.251049 0)
(0.116557 -0.227349 0)
(0.14963 -0.194151 0)
(0.182403 -0.147661 0)
(0.215815 -0.0870489 0)
(0.248731 -0.0166473 0)
(0.276312 0.0560659 0)
(0.296232 0.120283 0)
(0.311612 0.159549 0)
(0.321368 0.186776 0)
(0.32433 0.200845 0)
(0.31846 0.20046 0)
(0.303022 0.182963 0)
(0.282936 0.149418 0)
(0.261245 0.102456 0)
(0.240322 0.0432543 0)
(0.218113 -0.029891 0)
(0.184751 -0.119366 0)
(0.152752 -0.214745 0)
(0.126866 -0.313732 0)
(0.0807777 -0.431109 0)
(0.0234629 -0.485717 0)
(-0.00533145 -0.425399 0)
(-0.0107295 -0.323224 0)
(-0.0291939 -0.256948 0)
(-0.0395559 -0.205764 0)
(-0.0562095 -0.15706 0)
(-0.0745189 -0.0986053 0)
(-0.152359 0.0395516 0)
(-0.183443 -0.0190208 0)
(-0.220929 -0.0732996 0)
(-0.267684 -0.125486 0)
(-0.318867 -0.17289 0)
(-0.365479 -0.206856 0)
(-0.399258 -0.223987 0)
(-0.426448 -0.225661 0)
(-0.452604 -0.203939 0)
(-0.466362 -0.166122 0)
(-0.469317 -0.112859 0)
(-0.459419 -0.0550754 0)
(-0.439474 0.00813672 0)
(-0.418463 0.0667638 0)
(-0.398505 0.108269 0)
(-0.380566 0.131203 0)
(-0.364424 0.134623 0)
(-0.349815 0.118682 0)
(-0.337119 0.0861967 0)
(-0.32365 0.0454954 0)
(-0.308102 0.00850199 0)
(-0.294923 -0.0202042 0)
(-0.287934 -0.0273325 0)
(-0.286858 -0.0200324 0)
(-0.290996 -0.00791742 0)
(-0.29849 0.00272421 0)
(-0.305326 0.00936826 0)
(-0.309329 0.0163436 0)
(-0.309108 0.018101 0)
(-0.30301 0.0120629 0)
(-0.290317 0.000335658 0)
(-0.268582 -0.00744816 0)
(-0.241601 -0.00528659 0)
(-0.213178 0.00398349 0)
(-0.184908 0.0143792 0)
(-0.16049 0.0287335 0)
(-0.136487 0.0530058 0)
(-0.112129 0.0881592 0)
(-0.0893029 0.134299 0)
(-0.0695758 0.187584 0)
(-0.0492476 0.236079 0)
(-0.0308194 0.277631 0)
(-0.013908 0.315585 0)
(0.00322034 0.348949 0)
(0.0232898 0.376026 0)
(0.0472255 0.396481 0)
(0.0740601 0.411091 0)
(0.101191 0.419237 0)
(0.126203 0.420357 0)
(0.150514 0.415274 0)
(0.172775 0.406765 0)
(0.188485 0.395642 0)
(0.198758 0.381112 0)
(0.207031 0.365382 0)
(0.213509 0.347651 0)
(0.218861 0.328378 0)
(0.222997 0.307676 0)
(0.231378 0.278702 0)
(0.248018 0.245644 0)
(0.260236 0.193968 0)
(0.267338 0.141545 0)
(0.274218 0.0950985 0)
(0.275053 0.0433514 0)
(0.278797 0.00113833 0)
(0.281845 -0.0406771 0)
(0.28027 -0.0793899 0)
(0.275874 -0.11302 0)
(0.26782 -0.143755 0)
(0.254516 -0.169773 0)
(0.228929 -0.189465 0)
(0.202631 -0.200656 0)
(0.181752 -0.204929 0)
(0.153698 -0.199599 0)
(0.119907 -0.187826 0)
(0.0911873 -0.176585 0)
(0.0696573 -0.171479 0)
(0.0434451 -0.178386 0)
(0.0210432 -0.20855 0)
(0.0113301 -0.258945 0)
(0.00261274 -0.30862 0)
(0.000205601 -0.341267 0)
(5.31563e-05 -0.341563 0)
(0.00548085 -0.31258 0)
(0.0374983 -0.300199 0)
(0.0710274 -0.284768 0)
(0.101507 -0.263591 0)
(0.13066 -0.234017 0)
(0.159644 -0.195311 0)
(0.18722 -0.143977 0)
(0.214776 -0.0806556 0)
(0.243701 -0.00775017 0)
(0.270226 0.0685247 0)
(0.286829 0.138326 0)
(0.300466 0.183959 0)
(0.311574 0.212789 0)
(0.315282 0.229033 0)
(0.311235 0.229834 0)
(0.298556 0.214478 0)
(0.28068 0.181837 0)
(0.261488 0.134159 0)
(0.245154 0.0739943 0)
(0.2263 0.000935104 0)
(0.195314 -0.0881242 0)
(0.170978 -0.181104 0)
(0.150396 -0.274946 0)
(0.110801 -0.386897 0)
(0.0530237 -0.445834 0)
(0.0125485 -0.402154 0)
(0.00440988 -0.309266 0)
(-0.0188211 -0.242695 0)
(-0.0335331 -0.19335 0)
(-0.0546841 -0.143356 0)
(-0.0776956 -0.0842245 0)
(-0.153628 0.0297832 0)
(-0.190742 -0.0326412 0)
(-0.231473 -0.0890868 0)
(-0.279569 -0.141373 0)
(-0.332075 -0.188532 0)
(-0.380073 -0.223915 0)
(-0.417922 -0.244591 0)
(-0.443614 -0.251886 0)
(-0.466285 -0.236516 0)
(-0.481936 -0.203405 0)
(-0.485262 -0.155025 0)
(-0.474528 -0.0986369 0)
(-0.452348 -0.039982 0)
(-0.429146 0.0166189 0)
(-0.406158 0.0603158 0)
(-0.38458 0.0855464 0)
(-0.365071 0.0916172 0)
(-0.346812 0.0779872 0)
(-0.329083 0.0473077 0)
(-0.306989 0.00634566 0)
(-0.28224 -0.0335218 0)
(-0.267623 -0.0561615 0)
(-0.263838 -0.0538522 0)
(-0.270868 -0.0365594 0)
(-0.284804 -0.0157553 0)
(-0.299217 0.00303108 0)
(-0.303297 -0.000614986 0)
(-0.2996 -0.0119042 0)
(-0.293587 -0.0200918 0)
(-0.283199 -0.0246033 0)
(-0.266873 -0.0301307 0)
(-0.242695 -0.0338517 0)
(-0.214792 -0.0307231 0)
(-0.189895 -0.01785 0)
(-0.168329 0.00103953 0)
(-0.144504 0.0248651 0)
(-0.118977 0.0487245 0)
(-0.093598 0.0770814 0)
(-0.0667185 0.108781 0)
(-0.047545 0.145592 0)
(-0.0404752 0.195141 0)
(-0.0294806 0.252996 0)
(-0.0150477 0.297514 0)
(-0.00166125 0.331673 0)
(0.0133938 0.356284 0)
(0.0324477 0.37216 0)
(0.0546683 0.384639 0)
(0.0795353 0.394604 0)
(0.105852 0.401951 0)
(0.129886 0.405871 0)
(0.148773 0.403358 0)
(0.16323 0.395335 0)
(0.175479 0.384221 0)
(0.186595 0.370727 0)
(0.19616 0.354364 0)
(0.204773 0.336168 0)
(0.212554 0.314292 0)
(0.227049 0.282218 0)
(0.244366 0.24344 0)
(0.256526 0.190108 0)
(0.269669 0.141136 0)
(0.276977 0.0952188 0)
(0.281871 0.046593 0)
(0.289134 0.00393675 0)
(0.293216 -0.0372464 0)
(0.294063 -0.0751666 0)
(0.290564 -0.109567 0)
(0.280491 -0.141804 0)
(0.266403 -0.169094 0)
(0.245027 -0.18979 0)
(0.211279 -0.199136 0)
(0.181435 -0.202092 0)
(0.157534 -0.199318 0)
(0.128577 -0.187865 0)
(0.102702 -0.174683 0)
(0.0889781 -0.168064 0)
(0.075224 -0.175412 0)
(0.0535946 -0.199651 0)
(0.0416181 -0.247026 0)
(0.0348648 -0.297876 0)
(0.0362461 -0.33287 0)
(0.0351651 -0.338272 0)
(0.0421883 -0.321358 0)
(0.0737011 -0.314677 0)
(0.100957 -0.299905 0)
(0.124085 -0.274566 0)
(0.147396 -0.239733 0)
(0.17168 -0.195678 0)
(0.193619 -0.139622 0)
(0.215199 -0.0729532 0)
(0.239513 0.00237376 0)
(0.262586 0.0811037 0)
(0.2769 0.154942 0)
(0.288581 0.209145 0)
(0.29885 0.23928 0)
(0.301977 0.256002 0)
(0.298963 0.257543 0)
(0.288765 0.243854 0)
(0.273388 0.211387 0)
(0.2574 0.163013 0)
(0.24441 0.101919 0)
(0.227057 0.027363 0)
(0.199544 -0.0601567 0)
(0.182807 -0.151177 0)
(0.166943 -0.240921 0)
(0.130433 -0.347497 0)
(0.0748473 -0.405575 0)
(0.0272817 -0.371064 0)
(0.0157301 -0.289397 0)
(-0.011121 -0.226232 0)
(-0.0308468 -0.178014 0)
(-0.0574878 -0.127477 0)
(-0.0843357 -0.0700283 0)
(-0.147913 0.0220807 0)
(-0.189802 -0.0412381 0)
(-0.233161 -0.098116 0)
(-0.280911 -0.149497 0)
(-0.333424 -0.195166 0)
(-0.38272 -0.231497 0)
(-0.422864 -0.254485 0)
(-0.449486 -0.264737 0)
(-0.470057 -0.261866 0)
(-0.486805 -0.235425 0)
(-0.491887 -0.193849 0)
(-0.481526 -0.138634 0)
(-0.458171 -0.0849488 0)
(-0.431171 -0.0320246 0)
(-0.405299 0.0126299 0)
(-0.380716 0.0402507 0)
(-0.357971 0.0478091 0)
(-0.335953 0.0350884 0)
(-0.311421 0.00288683 0)
(-0.279921 -0.0384322 0)
(-0.252258 -0.0780777 0)
(-0.24371 -0.0870975 0)
(-0.25159 -0.0652407 0)
(-0.272398 -0.031367 0)
(-0.294425 -0.0163176 0)
(-0.318643 -0.0139792 0)
(-0.329776 -0.0156927 0)
(-0.327194 -0.0222471 0)
(-0.3161 -0.0346634 0)
(-0.299352 -0.0437522 0)
(-0.278133 -0.0442565 0)
(-0.248004 -0.0385349 0)
(-0.208131 -0.0316541 0)
(-0.164058 -0.0213991 0)
(-0.123366 -0.000431508 0)
(-0.0963713 0.0285767 0)
(-0.0783684 0.0605879 0)
(-0.061857 0.0928861 0)
(-0.0508196 0.123826 0)
(-0.0378406 0.154898 0)
(-0.0198848 0.185522 0)
(-0.011915 0.227288 0)
(-0.0110575 0.273814 0)
(-0.00275101 0.312073 0)
(0.00867744 0.337827 0)
(0.0255757 0.355368 0)
(0.0463036 0.369357 0)
(0.0683588 0.381471 0)
(0.0907564 0.390666 0)
(0.111255 0.395325 0)
(0.128774 0.394926 0)
(0.14416 0.390213 0)
(0.158394 0.381968 0)
(0.171492 0.370146 0)
(0.183322 0.355292 0)
(0.193853 0.33822 0)
(0.204982 0.314015 0)
(0.223819 0.277455 0)
(0.242577 0.23346 0)
(0.256844 0.183117 0)
(0.273225 0.135863 0)
(0.283355 0.0908479 0)
(0.291628 0.0455935 0)
(0.302041 0.00356486 0)
(0.307531 -0.0371462 0)
(0.308662 -0.0745594 0)
(0.30357 -0.110659 0)
(0.29165 -0.142869 0)
(0.275325 -0.169719 0)
(0.253605 -0.190005 0)
(0.223812 -0.202963 0)
(0.184798 -0.204009 0)
(0.156698 -0.20005 0)
(0.135012 -0.189295 0)
(0.112531 -0.176188 0)
(0.10035 -0.1679 0)
(0.0974798 -0.175052 0)
(0.086703 -0.198797 0)
(0.0730518 -0.237988 0)
(0.0661216 -0.288414 0)
(0.0701369 -0.3264 0)
(0.067288 -0.337202 0)
(0.075562 -0.32805 0)
(0.106251 -0.324245 0)
(0.12825 -0.309715 0)
(0.145572 -0.281951 0)
(0.163591 -0.242798 0)
(0.182873 -0.193514 0)
(0.199758 -0.133506 0)
(0.215784 -0.0634156 0)
(0.23506 0.0138978 0)
(0.253726 0.0951443 0)
(0.265983 0.172837 0)
(0.274706 0.233531 0)
(0.282596 0.264345 0)
(0.284971 0.280913 0)
(0.282499 0.282985 0)
(0.27408 0.269379 0)
(0.260406 0.236881 0)
(0.247347 0.187383 0)
(0.236229 0.125702 0)
(0.219903 0.049331 0)
(0.199007 -0.0370822 0)
(0.18988 -0.125662 0)
(0.177019 -0.212327 0)
(0.141627 -0.313368 0)
(0.088483 -0.365271 0)
(0.0384072 -0.336049 0)
(0.0225872 -0.263635 0)
(-0.00768758 -0.206712 0)
(-0.0319193 -0.159227 0)
(-0.065002 -0.109134 0)
(-0.0955711 -0.0540805 0)
(-0.130546 0.0206862 0)
(-0.176693 -0.041654 0)
(-0.222701 -0.0974855 0)
(-0.269766 -0.147465 0)
(-0.321091 -0.19204 0)
(-0.371314 -0.22946 0)
(-0.413146 -0.254623 0)
(-0.444644 -0.26834 0)
(-0.464037 -0.273371 0)
(-0.479261 -0.261238 0)
(-0.488137 -0.227579 0)
(-0.48149 -0.177598 0)
(-0.459167 -0.124683 0)