/*--------------------------------*- C++ -*----------------------------------*\
  =========                 |
  \\      /  F ield         | OpenFOAM: The Open Source CFD Toolbox
   \\    /   O peration     | Website:  https://openfoam.org
    \\  /    A nd           | Version:  10
     \\/     M anipulation  |
\*---------------------------------------------------------------------------*/
FoamFile
{
    format      ascii;
    class       volScalarField;
    location    "0.796907";
    object      p;
}
// * * * * * * * * * * * * * * * * * * * * * * * * * * * * * * * * * * * * * //

dimensions      [1 -1 -2 0 0 0 0];

internalField   nonuniform List<scalar> 
15984
(
2.43823
2.43726
2.43658
2.43616
2.43598
2.43601
2.43622
2.43664
2.43723
2.43796
2.43883
2.43985
2.441
2.4423
2.44374
2.44534
2.44708
2.449
2.45108
2.45335
2.45581
2.45845
2.4613
2.46435
2.46759
2.47102
2.47464
2.47842
2.48236
2.48642
2.49059
2.49483
2.49912
2.50342
2.5077
2.51192
2.51606
2.52009
2.52398
2.52771
2.53126
2.53462
2.53779
2.54076
2.54353
2.54612
2.54852
2.55076
2.55285
2.5548
2.55664
2.55838
2.56004
2.56163
2.43788
2.43701
2.4364
2.43605
2.43592
2.43597
2.4362
2.43661
2.43716
2.43782
2.43862
2.43953
2.44056
2.44172
2.443
2.44442
2.44598
2.4477
2.44957
2.45163
2.45386
2.45629
2.45891
2.46173
2.46475
2.46797
2.47137
2.47496
2.47871
2.48261
2.48663
2.49075
2.49494
2.49917
2.50341
2.50764
2.51181
2.5159
2.51988
2.52374
2.52745
2.531
2.53438
2.53758
2.54061
2.54346
2.54614
2.54866
2.55104
2.55328
2.5554
2.55741
2.55933
2.56116
2.43709
2.43631
2.43581
2.43554
2.43547
2.43558
2.43586
2.43627
2.4368
2.43743
2.43817
2.43901
2.43995
2.44099
2.44215
2.44343
2.44484
2.44639
2.4481
2.44997
2.45202
2.45426
2.45669
2.45931
2.46214
2.46517
2.46839
2.4718
2.47538
2.47912
2.48301
2.48701
2.49111
2.49527
2.49947
2.50368
2.50787
2.51201
2.51607
2.52004
2.52388
2.52759
2.53116
2.53457
2.53782
2.54091
2.54384
2.54663
2.54927
2.55177
2.55414
2.5564
2.55855
2.5606
2.43587
2.43521
2.43481
2.43464
2.43466
2.43484
2.43518
2.43562
2.43616
2.43679
2.4375
2.43829
2.43917
2.44014
2.44121
2.44238
2.44367
2.4451
2.44667
2.4484
2.4503
2.45238
2.45465
2.45711
2.45977
2.46264
2.4657
2.46896
2.47239
2.476
2.47976
2.48366
2.48767
2.49176
2.49592
2.5001
2.50429
2.50846
2.51258
2.51663
2.52058
2.52443
2.52815
2.53174
2.53518
2.53848
2.54164
2.54465
2.54752
2.55025
2.55284
2.55531
2.55765
2.55988
2.43424
2.4337
2.43343
2.43337
2.43349
2.43378
2.43419
2.43468
2.43526
2.4359
2.43662
2.43739
2.43824
2.43916
2.44017
2.44127
2.44248
2.44381
2.44528
2.4469
2.44869
2.45064
2.45279
2.45513
2.45766
2.46039
2.46333
2.46646
2.46977
2.47326
2.47692
2.48072
2.48465
2.48867
2.49278
2.49694
2.50112
2.5053
2.50946
2.51356
2.5176
2.52154
2.52539
2.52912
2.53272
2.5362
2.53953
2.54273
2.54579
2.5487
2.55148
2.55411
2.5566
2.55895
2.43221
2.4318
2.43167
2.43174
2.43198
2.43239
2.43288
2.43346
2.4341
2.43478
2.43552
2.43631
2.43715
2.43806
2.43903
2.4401
2.44126
2.44253
2.44394
2.44549
2.44719
2.44907
2.45113
2.45337
2.45581
2.45845
2.46128
2.46431
2.46753
2.47093
2.4745
2.47822
2.48207
2.48604
2.4901
2.49422
2.49838
2.50256
2.50673
2.51087
2.51496
2.51898
2.52291
2.52674
2.53046
2.53406
2.53754
2.54087
2.54407
2.54712
2.55002
2.55276
2.55534
2.55777
2.42977
2.42952
2.42953
2.42974
2.43015
2.43068
2.43128
2.43196
2.43268
2.43343
2.43422
2.43505
2.43592
2.43684
2.43781
2.43887
2.44002
2.44127
2.44264
2.44416
2.44582
2.44765
2.44966
2.45185
2.45423
2.4568
2.45957
2.46254
2.46569
2.46902
2.47253
2.47618
2.47998
2.48389
2.4879
2.49199
2.49613
2.50029
2.50445
2.5086
2.51271
2.51676
2.52074
2.52463
2.52842
2.5321
2.53566
2.53908
2.54236
2.54548
2.54844
2.55123
2.55384
2.55627
2.42695
2.42686
2.42702
2.42742
2.42798
2.42865
2.4294
2.43018
2.43101
2.43185
2.43272
2.43361
2.43453
2.43549
2.43651
2.43759
2.43875
2.44001
2.44139
2.44291
2.44457
2.44639
2.44839
2.45056
2.45292
2.45547
2.45821
2.46114
2.46426
2.46756
2.47102
2.47464
2.47839
2.48226
2.48623
2.49028
2.49438
2.49852
2.50266
2.50679
2.51089
2.51494
2.51892
2.52282
2.52663
2.53033
2.53391
2.53736
2.54065
2.54378
2.54673
2.54949
2.55205
2.55441
2.42373
2.42381
2.42416
2.42476
2.42551
2.42635
2.42724
2.42817
2.42911
2.43007
2.43103
2.432
2.433
2.43402
2.4351
2.43623
2.43745
2.43876
2.44019
2.44174
2.44344
2.44529
2.44731
2.44951
2.45189
2.45445
2.45721
2.46014
2.46326
2.46655
2.47
2.4736
2.47733
2.48117
2.48511
2.48912
2.49319
2.49728
2.50138
2.50547
2.50953
2.51354
2.51749
2.52136
2.52513
2.52879
2.53233
2.53572
2.53895
2.54201
2.54487
2.54752
2.54995
2.55214
2.42013
2.4204
2.421
2.42182
2.42277
2.42379
2.42486
2.42595
2.42704
2.42813
2.42921
2.43029
2.43138
2.43249
2.43364
2.43485
2.43613
2.43752
2.43902
2.44065
2.44242
2.44435
2.44644
2.4487
2.45114
2.45376
2.45656
2.45954
2.4627
2.46601
2.46949
2.4731
2.47683
2.48067
2.48459
2.48857
2.4926
2.49665
2.50069
2.50471
2.5087
2.51263
2.51649
2.52026
2.52394
2.5275
2.53092
2.53418
2.53727
2.54016
2.54284
2.54529
2.5475
2.54946
2.41615
2.41668
2.41751
2.41856
2.41973
2.42096
2.42222
2.42348
2.42474
2.42598
2.42721
2.42843
2.42965
2.43088
2.43214
2.43346
2.43485
2.43632
2.43792
2.43964
2.44151
2.44354
2.44575
2.44812
2.45066
2.45338
2.45628
2.45934
2.46257
2.46596
2.46948
2.47313
2.47689
2.48074
2.48466
2.48863
2.49262
2.49662
2.5006
2.50454
2.50842
2.51224
2.51597
2.5196
2.5231
2.52649
2.52971
2.53276
2.53562
2.53826
2.54067
2.54282
2.54474
2.54639
2.41176
2.41257
2.41367
2.41495
2.41635
2.4178
2.41927
2.42074
2.42219
2.4236
2.425
2.42638
2.42775
2.42914
2.43054
2.43201
2.43354
2.43516
2.4369
2.43875
2.44075
2.44292
2.44525
2.44777
2.45046
2.45333
2.45636
2.45955
2.4629
2.46639
2.47
2.47373
2.47755
2.48143
2.48537
2.48933
2.49329
2.49724
2.50114
2.50498
2.50874
2.51241
2.51596
2.51939
2.52268
2.5258
2.52875
2.53149
2.53402
2.53631
2.53837
2.54013
2.54175
2.54292
2.40693
2.40806
2.40943
2.41098
2.41263
2.41433
2.41603
2.41772
2.41937
2.42099
2.42257
2.42414
2.42569
2.42724
2.42883
2.43046
2.43217
2.43397
2.43589
2.43794
2.44013
2.44247
2.44498
2.44767
2.45053
2.45359
2.4568
2.46017
2.46368
2.46732
2.47106
2.47489
2.4788
2.48275
2.48672
2.49069
2.49464
2.49853
2.50235
2.50608
2.50969
2.51317
2.51651
2.51969
2.52269
2.52549
2.52806
2.53041
2.53251
2.53435
2.53599
2.53723
2.53855
2.53916
2.40165
2.4031
2.40478
2.40663
2.40855
2.41053
2.41249
2.41442
2.4163
2.41813
2.41992
2.42169
2.42344
2.42519
2.42698
2.42882
2.43074
2.43275
2.43489
2.43716
2.43958
2.44217
2.44491
2.44783
2.45091
2.45417
2.45761
2.4612
2.46492
2.46874
2.47266
2.47664
2.48067
2.48471
2.48875
2.49275
2.49669
2.50054
2.50427
2.50787
2.51131
2.51458
2.51766
2.52054
2.52318
2.52558
2.52771
2.52954
2.53111
2.53243
2.53366
2.53436
2.53525
2.53569
2.39591
2.3977
2.39971
2.40188
2.40413
2.40639
2.40863
2.41082
2.41295
2.41501
2.41703
2.41903
2.421
2.42297
2.42498
2.42706
2.42921
2.43148
2.43387
2.43642
2.43911
2.44197
2.44501
2.44821
2.45159
2.45512
2.4588
2.46264
2.46661
2.47067
2.4748
2.47897
2.48315
2.48732
2.49145
2.4955
2.49945
2.50326
2.50692
2.51038
2.51364
2.51667
2.51946
2.52198
2.52421
2.52613
2.52772
2.52896
2.52992
2.53054
2.53142
2.53147
2.53188
2.53234
2.38965
2.39181
2.39421
2.39674
2.39934
2.40192
2.40445
2.40692
2.40931
2.41163
2.41391
2.41613
2.41834
2.42057
2.42282
2.42516
2.42758
2.43013
2.43281
2.43567
2.43868
2.44187
2.44524
2.44879
2.45251
2.45638
2.46038
2.46451
2.46876
2.4731
2.47749
2.48189
2.48627
2.4906
2.49484
2.49897
2.50295
2.50674
2.51031
2.51364
2.5167
2.51947
2.52193
2.52405
2.52582
2.52719
2.52817
2.52871
2.529
2.52869
2.52921
2.52749
2.52778
2.52563
2.38282
2.38545
2.38825
2.3912
2.39415
2.39708
2.39994
2.40271
2.40538
2.40798
2.41051
2.41299
2.41546
2.41795
2.42048
2.4231
2.42582
2.42869
2.43171
2.43491
2.43829
2.44186
2.44562
2.44956
2.45367
2.45793
2.46232
2.46682
2.47139
2.47604
2.48072
2.48539
2.49001
2.49453
2.49893
2.50317
2.50719
2.51098
2.51448
2.51767
2.52052
2.52301
2.52511
2.52679
2.52804
2.52884
2.52916
2.52897
2.52854
2.52701
2.52609
2.52433
2.52001
2.52119
2.37549
2.37855
2.38187
2.38523
2.38859
2.39189
2.39509
2.39818
2.40115
2.40403
2.40683
2.40959
2.41233
2.4151
2.41792
2.42086
2.42391
2.42713
2.43053
2.43411
2.43791
2.44191
2.44612
2.45051
2.45508
2.45979
2.46461
2.46953
2.47451
2.4795
2.4845
2.48948
2.49438
2.49914
2.50372
2.50809
2.51219
2.51598
2.51943
2.52248
2.52512
2.5273
2.52901
2.53022
2.53091
2.53106
2.53072
2.52995
2.52829
2.52637
2.52132
2.51918
2.51966
2.51806
2.3677
2.37137
2.37515
2.37896
2.38271
2.38638
2.38994
2.39335
2.39662
2.39979
2.40287
2.40591
2.40894
2.412
2.41514
2.4184
2.42182
2.42542
2.42923
2.43326
2.43752
2.44201
2.44672
2.45162
2.4567
2.46192
2.46725
2.47264
2.47807
2.48349
2.48886
2.49417
2.49937
2.5044
2.50921
2.51374
2.51794
2.52176
2.52516
2.52808
2.53049
2.53236
2.53365
2.53436
2.53445
2.53391
2.53281
2.53118
2.52863
2.52513
2.52308
2.51979
2.51764
2.51486
2.35948
2.36389
2.36823
2.37246
2.37661
2.38065
2.38454
2.38826
2.39182
2.39525
2.39863
2.40195
2.40527
2.40864
2.41209
2.41571
2.41952
2.42354
2.4278
2.43232
2.4371
2.44213
2.4474
2.45288
2.45853
2.46432
2.47021
2.47615
2.48209
2.48798
2.49378
2.49945
2.50498
2.51032
2.51538
2.5201
2.52443
2.5283
2.53166
2.53445
2.53663
2.53816
2.53901
2.53917
2.53864
2.53731
2.53536
2.53259
2.52965
2.52741
2.524
2.52095
2.51697
2.51215
2.35103
2.35664
2.36127
2.36591
2.37046
2.37485
2.37903
2.38301
2.38682
2.39051
2.39412
2.3977
2.40128
2.40498
2.40876
2.41277
2.41698
2.42144
2.42621
2.43126
2.43661
2.44225
2.44815
2.45426
2.46056
2.46699
2.47351
2.48005
2.48656
2.49298
2.49925
2.50534
2.51121
2.51686
2.52221
2.52715
2.53163
2.53557
2.5389
2.54156
2.5435
2.54467
2.54506
2.54466
2.5434
2.54122
2.53829
2.53518
2.53265
2.52977
2.52604
2.52122
2.51571
2.50938
2.34136
2.34906
2.35425
2.35946
2.36436
2.36905
2.37348
2.37766
2.38168
2.38555
2.38939
2.39321
2.39705
2.40104
2.40514
2.40952
2.41416
2.41912
2.42442
2.43007
2.43603
2.44233
2.44892
2.45574
2.46276
2.46991
2.47712
2.48433
2.49147
2.49847
2.50527
2.51181
2.51807
2.52402
2.52965
2.53484
2.53949
2.54351
2.54682
2.54934
2.55103
2.55182
2.5517
2.55067
2.54854
2.54563
2.5423
2.53984
2.53699
2.53304
2.52813
2.52223
2.51532
2.50736
2.3335
2.34249
2.34594
2.3524
2.35841
2.36337
2.36795
2.37229
2.37644
2.3805
2.38448
2.38848
2.39257
2.3968
2.40124
2.40598
2.41106
2.41653
2.4224
2.42866
2.43531
2.44234
2.44968
2.45728
2.4651
2.47304
2.48103
2.48898
2.49681
2.50444
2.51179
2.51883
2.52551
2.53177
2.53764
2.54307
2.5479
2.55201
2.55529
2.55768
2.5591
2.55949
2.55882
2.55699
2.5541
2.551
2.54882
2.546
2.54219
2.53729
2.53122
2.52399
2.51555
2.50602
2.32703
2.33433
2.34011
2.34524
2.35222
2.35771
2.36258
2.367
2.37121
2.37532
2.37941
2.38355
2.38782
2.39228
2.39702
2.40213
2.40764
2.41363
2.42009
2.42705
2.43441
2.44223
2.45039
2.45885
2.46753
2.47635
2.48519
2.49396
2.50254
2.51085
2.5188
2.52634
2.53345
2.54007
2.54616
2.55173
2.55673
2.56092
2.56418
2.56642
2.56758
2.56753
2.56622
2.56365
2.56063
2.5591
2.55668
2.55317
2.54841
2.54232
2.53494
2.5263
2.51643
2.5054
2.32074
2.32779
2.33377
2.34039
2.34611
2.35201
2.35734
2.36176
2.36595
2.37004
2.37417
2.3784
2.3828
2.38746
2.39246
2.39791
2.40387
2.41038
2.41747
2.42512
2.43331
2.44195
2.45099
2.46035
2.46998
2.47974
2.48952
2.49918
2.50861
2.51764
2.52621
2.53427
2.54179
2.54875
2.55512
2.5608
2.56582
2.57007
2.5733
2.57539
2.57625
2.5758
2.57395
2.57117
2.57004
2.56833
2.56532
2.56093
2.5551
2.54781
2.53913
2.52913
2.5179
2.50556
2.31603
2.32266
2.32913
2.33538
2.34137
2.34628
2.35194
2.35645
2.36068
2.36486
2.36895
2.37314
2.37757
2.38235
2.38758
2.39333
2.39968
2.40671
2.41445
2.42286
2.43189
2.44143
2.45139
2.4617
2.47233
2.48312
2.49394
2.50459
2.51491
2.52475
2.53399
2.54256
2.55046
2.55773
2.56433
2.57016
2.57515
2.5793
2.58248
2.58443
2.58508
2.58442
2.58239
2.58143
2.58005
2.57802
2.57431
2.56898
2.56208
2.55362
2.54369
2.53243
2.51997
2.50655
2.3129
2.31904
2.32523
2.33091
2.33654
2.34193
2.34682
2.35118
2.35531
2.35931
2.36331
2.36747
2.37194
2.37685
2.38227
2.38832
2.39506
2.40261
2.41102
2.42025
2.43021
2.44063
2.45149
2.46272
2.47428
2.48617
2.49815
2.50991
2.52137
2.53207
2.54212
2.55123
2.55947
2.56697
2.57373
2.57964
2.58454
2.5885
2.59153
2.59331
2.59377
2.59341
2.59197
2.5922
2.59077
2.58797
2.58345
2.57719
2.56925
2.55968
2.54863
2.5363
2.52281
2.5088
2.31116
2.31681
2.32239
2.32773
2.33209
2.33724
2.34194
2.34616
2.35007
2.35381
2.35759
2.3616
2.3661
2.37114
2.37674
2.38305
2.39004
2.39805
2.40699
2.4169
2.42787
2.43909
2.45075
2.46284
2.47523
2.48841
2.50206
2.51523
2.52811
2.53987
2.55087
2.56044
2.56886
2.57645
2.58324
2.58912
2.59386
2.59756
2.60024
2.60173
2.60144
2.60338
2.60334
2.60297
2.60116
2.59769
2.59243
2.58532
2.5764
2.56581
2.55376
2.54054
2.52662
2.51191
2.31118
2.31594
2.32058
2.32504
2.32885
2.33328
2.33748
2.34129
2.34484
2.34817
2.35155
2.35527
2.3597
2.36475
2.3703
2.37668
2.3839
2.39212
2.40124
2.41158
2.42453
2.43718
2.45042
2.46428
2.4786
2.49274
2.50676
2.52146
2.53584
2.54905
2.56061
2.57031
2.57865
2.58613
2.59275
2.59837
2.60275
2.60595
2.60802
2.60887
2.6115
2.61328
2.61391
2.61329
2.61103
2.60699
2.60103
2.59311
2.58329
2.57181
2.55902
2.54551
2.53212
2.51715
2.31072
2.31423
2.31807
2.32211
2.32638
2.33026
2.33381
2.33672
2.33922
2.34189
2.34459
2.34766
2.35234
2.35797
2.36404
2.37112
2.37938
2.38876
2.39927
2.41029
2.42068
2.43389
2.44839
2.46386
2.48003
2.49648
2.51277
2.52898
2.54483
2.55944
2.57112
2.58067
2.58859
2.59565
2.60188
2.60709
2.61106
2.61348
2.61464
2.61756
2.62099
2.62312
2.62381
2.62293
2.62028
2.61571
2.60912
2.60045
2.58985
2.57765
2.56447
2.55119
2.53824
2.52276
2.31147
2.31458
2.31772
2.32052
2.32355
2.32726
2.33088
2.33383
2.33664
2.33895
2.34111
2.3434
2.34473
2.34725
2.35217
2.35903
2.36763
2.37779
2.38941
2.40192
2.41531
2.43034
2.44677
2.46423
2.48235
2.50072
2.51893
2.53685
2.55432
2.57012
2.58167
2.5908
2.59787
2.6045
2.61033
2.61511
2.61845
2.61972
2.62355
2.62771
2.6306
2.63254
2.63299
2.6318
2.62877
2.62374
2.6166
2.60733
2.59611
2.5834
2.57037
2.55891
2.54295
2.52742
2.31462
2.31718
2.31971
2.32202
2.32335
2.32368
2.32355
2.32409
2.3247
2.32554
2.32644
2.32788
2.3297
2.33294
2.33835
2.34586
2.35539
2.36673
2.37968
2.39381
2.40919
2.42624
2.44473
2.46425
2.48427
2.50446
2.52453
2.54416
2.563
2.5801
2.59085
2.59883
2.60595
2.61239
2.61786
2.62212
2.62485
2.6264
2.63261
2.6365
2.63949
2.64113
2.6413
2.63978
2.63639
2.63093
2.62329
2.61348
2.60168
2.58831
2.57448
2.55994
2.54727
2.53337
2.31247
2.31358
2.31449
2.31506
2.31502
2.31441
2.31331
2.31298
2.3124
2.31205
2.31233
2.31356
2.31601
2.32016
2.32643
2.33468
2.34518
2.35755
2.37161
2.38697
2.40387
2.42247
2.44272
2.46413
2.48587
2.50746
2.52922
2.55063
2.57091
2.58725
2.59726
2.60545
2.61277
2.61911
2.6242
2.62782
2.63
2.63605
2.6411
2.64488
2.64747
2.64872
2.64857
2.64671
2.64294
2.6371
2.629
2.61868
2.60639
2.59277
2.5793
2.56805
2.55183
2.53811
2.31116
2.30977
2.30838
2.30644
2.30401
2.30221
2.30067
2.29969
2.29901
2.29864
2.29881
2.29996
2.30257
2.30687
2.31316
2.32131
2.33171
2.34437
2.35919
2.3763
2.39539
2.41636
2.43868
2.46193
2.48564
2.50942
2.53281
2.55543
2.5758
2.59135
2.60171
2.61059
2.61822
2.62446
2.62923
2.63239
2.63806
2.64411
2.64904
2.65249
2.65446
2.65522
2.65468
2.65243
2.64832
2.64218
2.63388
2.62342
2.61102
2.5972
2.58305
2.56836
2.55831
2.54577
2.30925
2.30733
2.30564
2.3042
2.30256
2.30007
2.29716
2.29419
2.29244
2.29097
2.29061
2.29151
2.29375
2.29804
2.30473
2.31441
2.32574
2.33926
2.35491
2.37257
2.3921
2.41341
2.43626
2.46063
2.48564
2.51088
2.53552
2.55921
2.58048
2.59344
2.60485
2.61438
2.6222
2.62851
2.63307
2.63948
2.64523
2.65141
2.65606
2.65908
2.66045
2.66062
2.65957
2.6569
2.65246
2.64611
2.63773
2.62731
2.61503
2.60135
2.5871
2.57255
2.56267
2.55183
2.30784
2.30534
2.30302
2.30074
2.29811
2.29502
2.29159
2.28801
2.28508
2.28411
2.28364
2.2844
2.28719
2.29209
2.29921
2.30819
2.32007
2.33457
2.35098
2.36898
2.38867
2.41035
2.43383
2.45998
2.4863
2.51267
2.53802
2.56026
2.58116
2.59485
2.60673
2.61683
2.62495
2.6311
2.63883
2.64442
2.65267
2.65807
2.66216
2.66463
2.66551
2.66497
2.66323
2.66013
2.65537
2.64887
2.64054
2.63037
2.61848
2.60522
2.59123
2.57709
2.56296
2.55478
2.30699
2.30386
2.30083
2.2977
2.29429
2.29054
2.28655
2.2824
2.27835
2.27704
2.27612
2.27656
2.27957
2.28506
2.2932
2.30341
2.31603
2.33132
2.34841
2.36674
2.38686
2.41009
2.43429
2.46119
2.48815
2.51502
2.54229
2.56415
2.5807
2.59545
2.60792
2.61738
2.62639
2.63569
2.64235
2.65202
2.65852
2.6637
2.6673
2.66918
2.66961
2.66849
2.66596
2.66225
2.65713
2.65046
2.64222
2.63244
2.62119
2.60861
2.59498
2.58108
2.56713
2.5537
2.30594
2.30233
2.29878
2.29513
2.29124
2.28707
2.28271
2.27816
2.27347
2.27214
2.27132
2.27192
2.27555
2.28165
2.29069
2.30071
2.31414
2.33026
2.34923
2.369
2.38948
2.41144
2.43601
2.46409
2.49015
2.51494
2.53983
2.56169
2.57982
2.5951
2.60673
2.61818
2.63002
2.63796
2.64945
2.6574
2.66367
2.66841
2.67153
2.6729
2.67287
2.67123
2.66802
2.66354
2.65795
2.65102
2.64278
2.63327
2.62263
2.61103
2.59863
2.5857
2.57226
2.55856
2.30495
2.30098
2.29708
2.29311
2.28896
2.28462
2.28017
2.27565
2.27117
2.26992
2.26853
2.26942
2.27485
2.28124
2.29116
2.30283
2.31705
2.33357
2.35037
2.37008
2.39128
2.41461
2.44228
2.46669
2.48849
2.52099
2.54316
2.56077
2.57892
2.59235
2.60945
2.62054
2.63175
2.64483
2.65381
2.66194
2.66794
2.67237
2.67501
2.67597
2.67542
2.67329
2.6696
2.66442
2.65815
2.65091
2.64258
2.63323
2.62302
2.61205
2.60053
2.58865
2.5766
2.56466
2.30393
2.29975
2.29571
2.29167
2.28756
2.28338
2.2792
2.27515
2.27152
2.26964
2.26839
2.26958
2.27718
2.2831
2.29248
2.30493
2.31891
2.33622
2.35431
2.37481
2.39895
2.4218
2.44243
2.47172
2.49474
2.51991
2.54237
2.5582
2.57891
2.58668
2.60809
2.61957
2.63973
2.64861
2.65788
2.66563
2.67148
2.67565
2.67782
2.67844
2.67743
2.6748
2.67064
2.66502
2.65812
2.65035
2.64186
2.63261
2.6227
2.61224
2.60143
2.59049
2.57938
2.56834
2.30284
2.29861
2.29458
2.29066
2.28683
2.28307
2.27944
2.27606
2.27336
2.27192
2.27159
2.27299
2.28028
2.28652
2.29691
2.31039
2.32533
2.34198
2.36015
2.37954
2.39835
2.42179
2.45005
2.47429
2.49759
2.52008
2.54043
2.56002
2.57187
2.58737
2.60848
2.62768
2.64033
2.65152
2.66097
2.66858
2.67437
2.67826
2.68008
2.68036
2.67889
2.67579
2.67116
2.66512
2.65785
2.64957
2.64069
2.63144
2.62183
2.6119
2.60176
2.59154
2.58122
2.57083
2.30171
2.2975
2.29362
2.28996
2.28651
2.2833
2.28039
2.27791
2.27629
2.27566
2.27645
2.27935
2.2842
2.29212
2.30138
2.31324
2.32843
2.34484
2.36349
2.3862
2.40941
2.43127
2.45474
2.47568
2.49772
2.52206
2.538
2.5552
2.57476
2.58961
2.61029
2.63068
2.64245
2.65397
2.66335
2.67089
2.67658
2.68017
2.68174
2.68165
2.67974
2.67617
2.67105
2.66456
2.65694
2.6484
2.63923
2.62981
2.62037
2.61095
2.60148
2.59196
2.58235
2.5726
2.30043
2.29636
2.29271
2.28937
2.28639
2.28375
2.28156
2.28005
2.2794
2.27974
2.28162
2.28544
2.2912
2.29945
2.31015
2.32277
2.33766
2.35416
2.37252
2.39341
2.41464
2.4359
2.45703
2.47839
2.50046
2.52913
2.53883
2.55506
2.57759
2.59476
2.61546
2.63151
2.64416
2.65556
2.665
2.67253
2.67808
2.68143
2.6827
2.68225
2.67991
2.67586
2.67024
2.66328
2.65526
2.64648
2.63724
2.6278
2.61846
2.60944
2.60065
2.59186
2.5829
2.57361
2.29902
2.29511
2.29179
2.28875
2.28628
2.28423
2.28279
2.28215
2.28236
2.28373
2.28662
2.29128
2.29783
2.30662
2.3175
2.33035
2.34491
2.36085
2.37819
2.39726
2.41737
2.43939
2.46357
2.48922
2.50083
2.52661
2.53811
2.56155
2.58243
2.59902
2.61766
2.63239
2.64532
2.65664
2.66603
2.67349
2.67886
2.68191
2.68291
2.68206
2.67927
2.6747
2.66854
2.66106
2.65262
2.64357
2.63426
2.625
2.61602
2.60747
2.59938
2.59144
2.58319
2.5743
2.29747
2.29383
2.29081
2.28815
2.2861
2.28463
2.28395
2.28402
2.2851
2.2874
2.29112
2.29642
2.30341
2.31234
2.32318
2.33579
2.34996
2.36569
2.38341
2.40396
2.42527
2.44659
2.46476
2.48559
2.50575
2.52849
2.54657
2.56607
2.58584
2.60192
2.61873
2.6332
2.64605
2.65716
2.66645
2.67376
2.67888
2.68157
2.68229
2.68099
2.67766
2.67252
2.66576
2.65772
2.64881
2.63943
2.63004
2.62101
2.61258
2.60487
2.59776
2.59085
2.58349
2.57499
2.29582
2.29252
2.28975
2.28746
2.28581
2.2849
2.28469
2.28532
2.28698
2.28986
2.29412
2.29987
2.30732
2.31674
2.32831
2.34195
2.35729
2.37437
2.39254
2.4105
2.42973
2.4502
2.46626
2.48773
2.50832
2.53037
2.55055
2.56916
2.58756
2.60384
2.61951
2.6337
2.64631
2.6572
2.66628
2.67339
2.67817
2.68044
2.68077
2.67891
2.67498
2.66916
2.66172
2.65301
2.64357
2.6338
2.62436
2.61562
2.60785
2.6013
2.59569
2.59041
2.58436
2.57642
2.29416
2.29118
2.28872
2.28677
2.28548
2.28492
2.28505
2.2861
2.28827
2.29174
2.29671
2.30334
2.3117
2.32164
2.33294
2.3459
2.36095
2.37782
2.39605
2.41459
2.43391
2.45198
2.47146
2.49174
2.51185
2.53256
2.55224
2.57091
2.58848
2.60482
2.62007
2.63391
2.64622
2.65686
2.66566
2.67241
2.6767
2.67848
2.67831
2.67583
2.6711
2.66445
2.65621
2.6468
2.63666
2.62653
2.61716
2.6087
2.60184
2.59664
2.59308
2.59027
2.58651
2.57964
2.29255
2.29008
2.28777
2.28598
2.28494
2.28454
2.28495
2.28635
2.28894
2.29292
2.2984
2.30552
2.31432
2.32482
2.33684
2.35037
2.36545
2.38184
2.39958
2.41729
2.43671
2.45544
2.47461
2.49546
2.51473
2.53482
2.55376
2.57203
2.58933
2.6055
2.62041
2.63396
2.6459
2.65618
2.66461
2.6709
2.67461
2.67585
2.67498
2.67166
2.66603
2.65845
2.64926
2.639
2.62827
2.61771
2.60827
2.60035
2.59459
2.59113
2.59025
2.59095
2.59089
2.58629
2.29095
2.28857
2.28657
2.28508
2.2842
2.28403
2.2848
2.28669
2.28977
2.29425
2.30021
2.30778
2.31684
2.32745
2.33979
2.35357
2.36878
2.38504
2.40242
2.42016
2.43893
2.45848
2.47778
2.49781
2.51726
2.53651
2.55519
2.57311
2.59011
2.60599
2.6207
2.63394
2.64558
2.65543
2.6634
2.66909
2.67204
2.67266
2.67089
2.66662
2.66
2.65128
2.64101
2.62985
2.61841
2.60765
2.59814
2.59119
2.58665
2.58569
2.58755
2.59315
2.59866
2.59908
2.28832
2.28608
2.28499
2.28393
2.28336
2.28346
2.28457
2.2869
2.29043
2.29535
2.30167
2.30959
2.31907
2.32946
2.34219
2.35595
2.37126
2.38756
2.40483
2.42277
2.44147
2.46076
2.48018
2.49978
2.51915
2.53815
2.5566
2.57428
2.59102
2.60669
2.62112
2.63397
2.64533
2.65473
2.66221
2.66704
2.66921
2.66909
2.66636
2.66102
2.65318
2.64334
2.632
2.61989
2.60785
2.59679
2.58774
2.58184
2.57959
2.58108
2.58668
2.59682
2.61128
2.62032
2.28625
2.28429
2.28318
2.28245
2.28224
2.28278
2.28433
2.28706
2.29103
2.29631
2.30284
2.31086
2.32087
2.33168
2.34412
2.35796
2.37344
2.38968
2.40699
2.42501
2.44372
2.46292
2.48215
2.50166
2.52093
2.53981
2.55813
2.5756
2.59223
2.60765
2.6218
2.6344
2.6453
2.65429
2.66115
2.66523
2.66663
2.66555
2.66168
2.65518
2.64616
2.63515
2.62267
2.60978
2.59737
2.58621
2.57807
2.57423
2.57411
2.57913
2.59006
2.60421
2.61972
2.63613
2.28435
2.2825
2.28155
2.2812
2.28134
2.28232
2.28429
2.28736
2.29164
2.29714
2.30415
2.31232
2.32218
2.33346
2.34601
2.36004
2.37532
2.39165
2.40893
2.42702
2.44568
2.46491
2.48417
2.50353
2.52278
2.54166
2.55984
2.57732
2.59377
2.60907
2.62299
2.63527
2.64582
2.65435
2.66059
2.66384
2.6645
2.66237
2.65746
2.64962
2.63948
2.62719
2.6139
2.60022
2.58754
2.57675
2.57025
2.56828
2.57217
2.58257
2.59568
2.60747
2.61713
2.62481
2.28292
2.28145
2.28071
2.28052
2.281
2.28232
2.28461
2.28795
2.29249
2.29816
2.30533
2.31383
2.32375
2.33511
2.34782
2.36191
2.37721
2.39357
2.41089
2.42898
2.44765
2.46682
2.48612
2.50571
2.52484
2.5437
2.56194
2.57935
2.5958
2.61101
2.62475
2.63682
2.64699
2.65511
2.66073
2.66319
2.66308
2.66001
2.65394
2.64501
2.63356
2.6203
2.60597
2.59178
2.57889
2.56872
2.56353
2.56346
2.57063
2.5818
2.59353
2.60007
2.60004
2.58739
2.28225
2.28105
2.28056
2.28056
2.28128
2.28284
2.28535
2.28888
2.29361
2.29943
2.30678
2.31531
2.32533
2.33686
2.34958
2.36374
2.37909
2.3955
2.41287
2.43098
2.44971
2.46885
2.48826
2.50775
2.52704
2.54608
2.56436
2.58185
2.59833
2.61353
2.6272
2.63911
2.64903
2.65676
2.66172
2.66363
2.66278
2.65875
2.65164
2.64158
2.62903
2.61468
2.59941
2.58454
2.57132
2.56152
2.55725
2.55867
2.56607
2.57722
2.58792
2.59264
2.58716
2.54484
2.56317
2.56468
2.56617
2.56763
2.56903
2.5704
2.57175
2.5731
2.57444
2.57576
2.57708
2.57838
2.57966
2.58098
2.58229
2.58356
2.58492
2.58629
2.5878
2.58939
2.56293
2.56465
2.56631
2.56794
2.56953
2.57103
2.57246
2.57385
2.5752
2.57651
2.57779
2.57902
2.58023
2.58143
2.58261
2.58383
2.58503
2.58636
2.58775
2.58933
2.56256
2.56445
2.56626
2.56801
2.5697
2.57132
2.57282
2.57421
2.57552
2.57678
2.57797
2.57908
2.58018
2.58123
2.58229
2.58333
2.58445
2.58565
2.587
2.58853
2.562
2.56401
2.56593
2.56776
2.5695
2.57114
2.57268
2.57407
2.57531
2.57645
2.57749
2.57847
2.57938
2.58026
2.58113
2.582
2.58295
2.58404
2.58534
2.58684
2.56118
2.56327
2.56525
2.5671
2.56883
2.57043
2.57192
2.57327
2.57442
2.5754
2.57626
2.57699
2.57768
2.57832
2.57895
2.5796
2.5804
2.58137
2.58261
2.58413
2.56004
2.56215
2.56412
2.56593
2.56759
2.56909
2.57045
2.57164
2.57268
2.57348
2.57408
2.57455
2.57494
2.57526
2.57561
2.57604
2.57666
2.5775
2.57872
2.58033
2.55852
2.56058
2.56246
2.56416
2.56567
2.567
2.56816
2.56912
2.56991
2.5705
2.57083
2.57096
2.57095
2.57094
2.57095
2.57114
2.57155
2.57232
2.57357
2.57534
2.55655
2.55848
2.5602
2.5617
2.56299
2.56408
2.56495
2.56557
2.56601
2.56625
2.56626
2.56603
2.56557
2.56505
2.56472
2.56464
2.56494
2.56564
2.56699
2.5691
2.5541
2.55581
2.55729
2.5585
2.55949
2.56025
2.56073
2.56093
2.56091
2.56066
2.56024
2.55958
2.55852
2.55737
2.55664
2.55628
2.5566
2.55731
2.55893
2.56153
2.55115
2.55254
2.55373
2.55457
2.55515
2.55558
2.5556
2.55526
2.55467
2.55382
2.55277
2.55137
2.54971
2.54701
2.54663
2.54592
2.54613
2.54729
2.5494
2.55267
2.54777
2.54877
2.54963
2.54994
2.54994
2.55024
2.55003
2.54879
2.5477
2.54614
2.54443
2.54239
2.53834
2.53489
2.53461
2.53268
2.53329
2.53464
2.53971
2.54358
2.54406
2.54447
2.54527
2.54495
2.54444
2.54396
2.54348
2.54237
2.54011
2.53742
2.53481
2.53212
2.52811
2.52249
2.51998
2.51646
2.51686
2.52071
2.525
2.53276
2.53981
2.53924
2.54103
2.53954
2.53758
2.53628
2.53455
2.53316
2.53168
2.52876
2.5248
2.52004
2.515
2.50996
2.50333
2.50116
2.49972
2.50167
2.51199
2.51854
2.53543
2.53535
2.53286
2.53132
2.53079
2.5304
2.52847
2.52496
2.52084
2.51593
2.51033
2.50442
2.49808
2.49149
2.48743
2.48162
2.48444
2.484
2.50399
2.49731
2.52865
2.5284
2.52797
2.52715
2.52503
2.52202
2.51805
2.51326
2.50781
2.50193
2.49551
2.48868
2.48157
2.47404
2.4689
2.46281
2.46694
2.4598
2.48406
2.46858
2.52387
2.52406
2.52228
2.51991
2.51614
2.51174
2.50676
2.50092
2.49471
2.48767
2.48027
2.47218
2.46405
2.45567
2.44866
2.4424
2.44067
2.44158
2.44902
2.45737
2.52025
2.51841
2.51508
2.51104
2.50626
2.50077
2.49457
2.48787
2.48047
2.47257
2.46413
2.4553
2.44641
2.43718
2.42968
2.42151
2.41861
2.4188
2.42194
2.42825
2.51531
2.51172
2.5073
2.50209
2.49612
2.4892
2.48176
2.4739
2.46537
2.45651
2.44742
2.43818
2.4289
2.41956
2.41065
2.40312
2.3981
2.39883
2.4011
2.4051
2.51074
2.50575
2.49991
2.49314
2.48551
2.4772
2.46837
2.45908
2.44956
2.44
2.43056
2.42119
2.4118
2.40245
2.39393
2.38481
2.37875
2.37835
2.38307
2.39162
2.50641
2.49978
2.49228
2.48385
2.47456
2.4646
2.45431
2.44378
2.43343
2.42364
2.41412
2.40478
2.39537
2.38644
2.37721
2.36805
2.36312
2.36006
2.3647
2.37453
2.50214
2.4939
2.48465
2.47445
2.46343
2.45193
2.44051
2.42891
2.41789
2.40844
2.39903
2.38977
2.38017
2.37225
2.36183
2.3528
2.34794
2.34489
2.34998
2.36147
2.49843
2.48843
2.47736
2.46543
2.45307
2.4402
2.42845
2.41584
2.40377
2.39278
2.3836
2.37491
2.36596
2.35923
2.34793
2.33906
2.3343
2.33253
2.33862
2.35172
2.4953
2.48349
2.47077
2.45773
2.44486
2.4301
2.4142
2.40117
2.38979
2.37953
2.3705
2.36235
2.35414
2.34564
2.33503
2.32686
2.32284
2.32329
2.33124
2.34642
2.4931
2.47963
2.46583
2.45215
2.43424
2.41814
2.40339
2.38976
2.37782
2.36723
2.35808
2.34989
2.34252
2.33284
2.32372
2.31687
2.31478
2.31814
2.32882
2.34632
2.49219
2.47786
2.46262
2.44417
2.42713
2.41084
2.39467
2.37986
2.36703
2.35614
2.34704
2.33883
2.33149
2.32233
2.31469
2.31119
2.31193
2.31875
2.33204
2.35149
2.49281
2.47796
2.45904
2.4406
2.42268
2.40476
2.38702
2.37203
2.35917
2.3483
2.33923
2.33131
2.32394
2.31749
2.31224
2.31124
2.31599
2.3259
2.34153
2.36289
2.49487
2.47664
2.45877
2.43944
2.41914
2.40152
2.38543
2.37046
2.35735
2.34618
2.33681
2.32891
2.32237
2.31788
2.31728
2.31949
2.32707
2.33928
2.35639
2.37834
2.49501
2.47808
2.45935
2.4393
2.42181
2.4037
2.38718
2.37241
2.35979
2.34901
2.33986
2.3324
2.32709
2.32578
2.3272
2.33251
2.34235
2.35613
2.37469
2.39818
2.49958
2.48187
2.462
2.44408
2.42608
2.40837
2.39284
2.37912
2.36747
2.35737
2.34857
2.34171
2.33805
2.33843
2.3422
2.3496
2.36135
2.37699
2.39662
2.41991
2.50577
2.48714
2.46847
2.45019
2.43312
2.41658
2.4029
2.38963
2.37928
2.37029
2.36229
2.35564
2.35441
2.35714
2.36174
2.37065
2.38355
2.3999
2.41886
2.43984
2.51091
2.49272
2.47564
2.45867
2.44157
2.42719
2.41559
2.40248
2.39292
2.38571
2.37931
2.3753
2.37354
2.37733
2.38374
2.39301
2.40546
2.42095
2.43969
2.46157
2.51703
2.49981
2.48252
2.46859
2.45173
2.43867
2.42848
2.41571
2.40809
2.402
2.39706
2.39415
2.39405
2.39874
2.40518
2.4153
2.42818
2.44328
2.46099
2.48121
2.52319
2.50597
2.49035
2.47822
2.46248
2.45028
2.4402
2.43127
2.42324
2.41666
2.4142
2.41255
2.41372
2.41797
2.42498
2.43529
2.4483
2.46304
2.48042
2.49888
2.52769
2.51378
2.49829
2.48507
2.47492
2.462
2.45282
2.44592
2.43569
2.43214
2.43056
2.42958
2.43201
2.43661
2.44428
2.4543
2.46715
2.48181
2.49828
2.51606
2.53363
2.51969
2.50568
2.49391
2.48351
2.47366
2.46462
2.45766
2.44949
2.44663
2.44556
2.44553
2.44858
2.45397
2.46187
2.4722
2.48458
2.49909
2.51497
2.53157
2.54494
2.52437
2.51197
2.50191
2.49304
2.48275
2.47487
2.46797
2.46242
2.45941
2.45874
2.45996
2.4635
2.46933
2.47766
2.48803
2.50046
2.51442
2.52943
2.54545
2.54556
2.5385
2.51647
2.50945
2.50081
2.49201
2.48542
2.47746
2.47373
2.47041
2.47089
2.47234
2.4763
2.48269
2.4914
2.50194
2.51431
2.52788
2.54251
2.558
2.54486
2.53766
2.52072
2.51708
2.50954
2.49799
2.49584
2.48529
2.48412
2.47979
2.48134
2.48342
2.48717
2.49421
2.50337
2.51394
2.52615
2.53953
2.55358
2.56811
2.55319
2.54256
2.53054
2.51805
2.50878
2.50279
2.49675
2.49306
2.49039
2.48589
2.48842
2.49267
2.49373
2.50269
2.51276
2.52266
2.5354
2.54859
2.56188
2.57605
2.55748
2.54683
2.53614
2.52656
2.51812
2.51108
2.50474
2.49907
2.49546
2.49384
2.49387
2.49748
2.50187
2.50912
2.51913
2.53021
2.54251
2.55467