/*--------------------------------*- C++ -*----------------------------------*\
  =========                 |
  \\      /  F ield         | OpenFOAM: The Open Source CFD Toolbox
   \\    /   O peration     | Website:  https://openfoam.org
    \\  /    A nd           | Version:  10
     \\/     M anipulation  |
\*---------------------------------------------------------------------------*/
FoamFile
{
    format      ascii;
    class       volScalarField;
    location    "0.796907";
    object      rho;
}
// * * * * * * * * * * * * * * * * * * * * * * * * * * * * * * * * * * * * * //

dimensions      [1 -3 0 0 0 0 0];

internalField   nonuniform List<scalar> 
15984
(
0.981713
0.981385
0.981179
0.981037
0.980947
0.980942
0.980966
0.981081
0.981239
0.981474
0.98176
0.98214
0.98248
0.982856
0.983237
0.983685
0.984134
0.984688
0.98525
0.985909
0.986602
0.987357
0.988167
0.989036
0.989962
0.990954
0.991982
0.993073
0.994181
0.995343
0.996547
0.997749
0.999009
1.00023
1.00148
1.00271
1.0039
1.00505
1.00619
1.00725
1.00827
1.00926
1.0102
1.01104
1.01188
1.01262
1.01335
1.01402
1.01464
1.01524
1.01581
1.01634
1.01685
1.01735
0.981547
0.981263
0.981065
0.980921
0.980852
0.980847
0.980909
0.981021
0.9812
0.981474
0.981721
0.982044
0.982341
0.982649
0.982991
0.983362
0.983787
0.984257
0.984791
0.985376
0.986024
0.986713
0.987463
0.988275
0.989135
0.990062
0.991027
0.992066
0.993128
0.994252
0.995402
0.996572
0.997808
0.998996
1.00025
1.00147
1.00267
1.00384
1.00498
1.00608
1.00717
1.0082
1.00917
1.01011
1.01099
1.01182
1.01263
1.01335
1.01408
1.01477
1.01542
1.01606
1.01663
1.01723
0.981302
0.98107
0.98092
0.980849
0.980813
0.980854
0.980872
0.981045
0.981188
0.981375
0.981602
0.981826
0.982093
0.982374
0.982688
0.983047
0.983446
0.98388
0.984374
0.984922
0.985506
0.986151
0.986843
0.987587
0.988392
0.98927
0.990192
0.991181
0.992201
0.993277
0.994386
0.995533
0.996723
0.997888
0.99913
1.00031
1.00154
1.00271
1.00388
1.00502
1.00615
1.0072
1.00824
1.00924
1.01017
1.01111
1.01196
1.0128
1.01359
1.01433
1.01508
1.01575
1.01641
1.01703
0.980947
0.980685
0.980593
0.980549
0.980556
0.98061
0.980757
0.980895
0.981038
0.981158
0.981337
0.98153
0.981802
0.982079
0.982404
0.982728
0.983103
0.98349
0.983958
0.984437
0.984991
0.985591
0.986235
0.986948
0.987717
0.98855
0.98943
0.990367
0.991353
0.992379
0.993457
0.99456
0.995712
0.996878
0.998085
0.999277
1.00049
1.00167
1.00284
1.00404
1.00518
1.00627
1.00736
1.00839
1.0094
1.01038
1.0113
1.01219
1.01304
1.01388
1.01465
1.01543
1.01615
1.01683
0.980377
0.980225
0.980172
0.980153
0.980197
0.980269
0.980419
0.98057
0.980712
0.980887
0.981078
0.981308
0.981536
0.981787
0.982053
0.982358
0.982693
0.983092
0.983513
0.984
0.984509
0.985086
0.985703
0.986371
0.987115
0.987905
0.98876
0.98966
0.990613
0.991593
0.992641
0.993708
0.994829
0.995969
0.997165
0.998338
0.999555
1.00073
1.00193
1.00314
1.00429
1.00544
1.00653
1.00761
1.00867
1.00972
1.01067
1.01161
1.01254
1.01341
1.01426
1.01508
1.01584
1.01655
0.979707
0.979645
0.979608
0.979627
0.979664
0.979821
0.979933
0.980079
0.980282
0.980509
0.98075
0.980988
0.981242
0.981487
0.981763
0.982042
0.982373
0.982728
0.983132
0.983578
0.98408
0.98462
0.985216
0.985874
0.986583
0.987349
0.988173
0.989042
0.989973
0.990924
0.991943
0.992988
0.99409
0.995212
0.996393
0.997546
0.998767
0.999925
1.00116
1.00234
1.00352
1.00468
1.0058
1.00691
1.00798
1.00905
1.01009
1.0111
1.01206
1.01297
1.01387
1.0147
1.01547
1.01623
0.979108
0.97901
0.978974
0.979062
0.979108
0.979345
0.97942
0.979685
0.979935
0.980169
0.980384
0.980629
0.980846
0.9811
0.981344
0.981632
0.981948
0.982306
0.982714
0.983161
0.983668
0.984198
0.984793
0.985428
0.986128
0.986878
0.987683
0.988534
0.989432
0.99037
0.991364
0.9924
0.99348
0.994597
0.995768
0.996916
0.998105
0.999276
1.00049
1.00168
1.00283
1.00403
1.00517
1.00631
1.00743
1.00851
1.00955
1.01055
1.01155
1.01247
1.01341
1.01429
1.01507
1.01582
0.978295
0.978265
0.97824
0.9784
0.978446
0.978716
0.978841
0.979145
0.979459
0.979708
0.97995
0.98018
0.980416
0.980658
0.980918
0.981223
0.981566
0.981945
0.982353
0.982817
0.983302
0.983847
0.984438
0.985073
0.985763
0.986504
0.987293
0.988146
0.989035
0.989978
0.990957
0.991984
0.993042
0.994144
0.995279
0.996426
0.997554
0.998771
0.999943
1.00114
1.00228
1.00348
1.00463
1.00579
1.00688
1.00797
1.00903
1.01004
1.01108
1.01196
1.01298
1.01381
1.01456
1.01532
0.977297
0.977209
0.977368
0.977384
0.977732
0.977947
0.978211
0.978516
0.978776
0.979068
0.979346
0.979627
0.979911
0.980209
0.980534
0.980882
0.981251
0.98164
0.982054
0.982514
0.983008
0.983553
0.98415
0.984786
0.985482
0.986227
0.987024
0.987876
0.988772
0.989708
0.990686
0.991703
0.992754
0.993831
0.994949
0.996092
0.997176
0.998427
0.999538
1.00075
1.00187
1.00308
1.00414
1.00531
1.00637
1.00747
1.00853
1.00954
1.01052
1.01153
1.01242
1.01324
1.01409
1.0148
0.976181
0.97629
0.976372
0.976702
0.976888
0.977285
0.977554
0.977875
0.978219
0.978555
0.978835
0.979109
0.979388
0.979701
0.980045
0.980415
0.980783
0.981198
0.981653
0.982161
0.982719
0.98329
0.983919
0.984554
0.985272
0.986029
0.986848
0.987722
0.988638
0.989581
0.990567
0.991569
0.99262
0.993676
0.994806
0.995911
0.997019
0.99821
0.999323
1.0005
1.0016
1.00274
1.00381
1.00492
1.00603
1.00709
1.00806
1.00913
1.01003
1.01093
1.01182
1.01255
1.01339
1.01386
0.975031
0.975296
0.97529
0.975794
0.975921
0.976365
0.976752
0.977058
0.977432
0.977785
0.978146
0.978524
0.978864
0.97927
0.979607
0.97996
0.980339
0.980824
0.981357
0.981943
0.982526
0.98311
0.983729
0.984397
0.985157
0.985973
0.986842
0.987746
0.98867
0.989619
0.9906
0.991602
0.992659
0.993702
0.994843
0.995907
0.997042
0.998159
0.999286
1.00043
1.0015
1.00256
1.00362
1.00471
1.00576
1.00673
1.0077
1.00863
1.00957
1.01038
1.01121
1.01197
1.01264
1.01356
0.973721
0.974083
0.97419
0.974759
0.975036
0.975497
0.975849
0.976321
0.976682
0.977117
0.977451
0.977888
0.978281
0.978698
0.979038
0.979525
0.979973
0.980497
0.981011
0.981585
0.982149
0.98277
0.983452
0.984243
0.985107
0.986024
0.986964
0.987895
0.988836
0.989789
0.990764
0.991773
0.992825
0.993889
0.995003
0.996121
0.997175
0.998352
0.999413
1.00051
1.00152
1.0026
1.00364
1.00465
1.00561
1.00649
1.00741
1.0083
1.00905
1.00983
1.01051
1.01145
1.01213
1.01418
0.972421
0.972541
0.973195
0.973566
0.974032
0.974518
0.975016
0.975415
0.975922
0.976319
0.976803
0.977191
0.977661
0.978055
0.978561
0.97897
0.979573
0.980063
0.980753
0.981342
0.981978
0.98273
0.983481
0.984267
0.98512
0.986077
0.98707
0.988079
0.989089
0.990084
0.991106
0.992141
0.99322
0.994297
0.995409
0.996517
0.997635
0.998649
0.999808
1.00075
1.00184
1.00272
1.00374
1.0046
1.00551
1.00637
1.00719
1.00795
1.00862
1.00947
1.0101
1.01162
1.01512
1.01604
0.970983
0.971104
0.971867
0.972079
0.972894
0.973326
0.973891
0.974452
0.974948
0.975473
0.975977
0.976493
0.976975
0.977545
0.978005
0.978572
0.979107
0.979725
0.980347
0.98103
0.98176
0.982591
0.983472
0.984417
0.985339
0.986295
0.987283
0.988316
0.98938
0.990455
0.991558
0.992669
0.993785
0.994895
0.996005
0.99714
0.998174
0.999217
1.00025
1.00123
1.00209
1.00309
1.00395
1.00479
1.00563
1.00639
1.00708
1.00772
1.00826
1.00936
1.01112
1.01239
1.02399
1.02459
0.969041
0.969531
0.970151
0.97066
0.971397
0.972066
0.972788
0.973394
0.974088
0.974596
0.975226
0.975712
0.976324
0.976786
0.977415
0.977983
0.978681
0.979342
0.980105
0.980801
0.981698
0.982653
0.983533
0.984474
0.985489
0.986581
0.987702
0.988839
0.989975
0.991078
0.992187
0.993309
0.994473
0.995614
0.996771
0.997899
0.998932
0.999953
1.00092
1.00184
1.00276
1.0036
1.0044
1.00517
1.00587
1.0065
1.00709
1.00776
1.00859
1.00933
1.01612
1.01628
1.05082
1.05947
0.966892
0.968181
0.96827
0.969392
0.969953
0.970774
0.971479
0.972276
0.972921
0.973645
0.974198
0.974908
0.975505
0.976224
0.976732
0.977528
0.978094
0.979067
0.979692
0.980659
0.981634
0.982613
0.983578
0.984617
0.985727
0.986937
0.988164
0.989379
0.990598
0.991788
0.992984
0.994162
0.995367
0.99652
0.99773
0.998812
0.999932
1.00084
1.00187
1.0027
1.00357
1.00432
1.00513
1.00575
1.00621
1.00683
1.00745
1.00781
1.01038
1.01027
1.0315
1.03149
1.13326
1.3198
0.966067
0.965807
0.96693
0.967348
0.968283
0.969202
0.97005
0.970987
0.971705
0.972536
0.973192
0.973987
0.974613
0.975412
0.976058
0.976897
0.977591
0.978533
0.979385
0.980333
0.981414
0.98251
0.983662
0.984863
0.986129
0.987444
0.988754
0.990067
0.991354
0.992602
0.993866
0.995115
0.996413
0.997648
0.998928
1.00003
1.00116
1.00203
1.00294
1.00374
1.00448
1.00527
1.00589
1.00642
1.00699
1.00764
1.00812
1.00801
1.01577
1.01567
1.08052
1.13436
1.49406
1.73063
0.966462
0.966242
0.966047
0.966509
0.96704
0.967764
0.968614
0.969532
0.970435
0.971259
0.972156
0.972847
0.973676
0.974448
0.975333
0.976186
0.97712
0.978003
0.979117
0.980062
0.981468
0.982552
0.983812
0.985125
0.986513
0.987963
0.989421
0.990879
0.992317
0.99368
0.995042
0.996377
0.997765
0.99901
1.00029
1.00134
1.00241
1.00334
1.00419
1.00499
1.00578
1.00638
1.007
1.00754
1.00819
1.00827
1.00909
1.01065
1.03251
1.06702
1.23384
1.6564
1.83405
1.94128
0.975475
0.970716
0.968305
0.966947
0.966605
0.96684
0.967441
0.968063
0.969193
0.969755
0.970968
0.971694
0.972575
0.97351
0.974311
0.975402
0.976302
0.977537
0.97855
0.980011
0.9811
0.982778
0.984147
0.985591
0.987086
0.988612
0.99019
0.991763
0.993344
0.994864
0.996307
0.997697
0.99909
1.00042
1.00175
1.00288
1.00399
1.00491
1.00569
1.00651
1.0072
1.00782
1.00835
1.00895
1.00899
1.00964
1.01147
1.03705
1.07544
1.35177
1.67945
1.84472
1.94217
1.9793
1.00592
0.990321
0.979716
0.973243
0.969539
0.96772
0.96717
0.967378
0.967657
0.969062
0.969213
0.970784
0.971067
0.972678
0.973097
0.974662
0.975309
0.977025
0.977935
0.979783
0.980978
0.982632
0.984257
0.985941
0.987667
0.989417
0.991152
0.992824
0.994495
0.996122
0.997695
0.999212
1.0007
1.0021
1.00348
1.00466
1.00581
1.00672
1.00745
1.00826
1.0089
1.00946
1.00999
1.01
1.01066
1.01166
1.03821
1.08421
1.41153
1.70442
1.90443
1.98322
1.99831
1.99714
1.10425
1.04565
1.01192
0.992122
0.980287
0.973496
0.96977
0.968083
0.967534
0.967634
0.968468
0.96896
0.970485
0.970958
0.972624
0.973335
0.975106
0.975961
0.977922
0.979064
0.981218
0.982715
0.984512
0.986315
0.988213
0.990142
0.992081
0.993953
0.995778
0.997535
0.999225
1.00083
1.00237
1.0039
1.00537
1.00661
1.00778
1.00864
1.00941
1.01017
1.01084
1.01133
1.01162
1.01212
1.01342
1.03028
1.09631
1.41725
1.74724
1.9485
1.99537
2.00168
1.99914
1.99093
1.30932
1.20362
1.10367
1.0404
1.00651
0.987802
0.977411
0.971856
0.968909
0.967897
0.967681
0.968122
0.968627
0.970229
0.970877
0.972742
0.973658
0.975636
0.976876
0.979174
0.980563
0.982916
0.984925
0.98687
0.98886
0.990932
0.993052
0.995116
0.997108
0.998998
1.00079
1.00251
1.00403
1.0055
1.00697
1.00838
1.00971
1.01066
1.0115
1.0123
1.01297
1.01352
1.0137
1.01462
1.02639
1.09388
1.39953
1.79372
1.96821
2.00294
2.00694
2.00336
1.99305
1.97321
1.44856
1.35783
1.28193
1.16225
1.0777
1.02646
0.997736
0.982326
0.974407
0.970283
0.968273
0.967879
0.967932
0.968463
0.969985
0.970963
0.972992
0.974217
0.976441
0.978319
0.980157
0.982668
0.984653
0.987549
0.989526
0.991744
0.994003
0.996323
0.998492
1.00058
1.00257
1.00435
1.00592
1.00752
1.009
1.01046
1.01172
1.01271
1.01369
1.01458
1.01525
1.01555
1.01624
1.02386
1.08124
1.37074
1.81376
1.97811
2.0117
2.01434
2.00915
1.99688
1.97425
1.93784
1.44963
1.45171
1.39871
1.31591
1.19037
1.09932
1.04111
1.0062
0.986643
0.975996
0.970886
0.968122
0.96795
0.967466
0.968885
0.969861
0.971383
0.973557
0.975152
0.977899
0.979629
0.982737
0.984867
0.987199
0.990421
0.992824
0.995509
0.997973
1.00045
1.00271
1.00484
1.00676
1.00828
1.00962
1.01081
1.01232
1.01362
1.0149
1.01611
1.01704
1.01785
1.01818
1.02233
1.06643
1.32123
1.82229
1.99131
2.02115
2.02236
2.01549
2.00166
1.97813
1.9386
1.87212
1.46477
1.47304
1.45304
1.4361
1.2993
1.18284
1.09659
1.03974
1.00515
0.985799
0.975798
0.970089
0.96838
0.967074
0.967825
0.968767
0.970515
0.97251
0.97437
0.976887
0.97952
0.982354
0.985523
0.988389
0.991192
0.994966
0.997435
1.00132
1.00354
1.00585
1.00789
1.00979
1.01109
1.0122
1.01336
1.01471
1.01596
1.01739
1.01866
1.01973
1.02003
1.02243
1.0537
1.27112
1.81465
2.00437
2.03041
2.0305
2.02274
2.00903
1.98569
1.94435
1.87312
1.7638
1.47357
1.49374
1.49251
1.48134
1.40928
1.28599
1.17778
1.09971
1.04738
1.01301
0.992278
0.979565
0.973234
0.96965
0.968875
0.968446
0.969461
0.971645
0.973946
0.976599
0.979536
0.982993
0.986423
0.990393
0.994883
0.999354
1.00387
1.00727
1.01159
1.01389
1.01416
1.01441
1.01482
1.01518
1.01594
1.01707
1.01843
1.01999
1.02136
1.02218
1.02314
1.04672
1.22318
1.80242
2.017
2.04001
2.03892
2.03068
2.01892
1.99628
1.95509
1.88355
1.77075
1.61475
1.49813
1.51444
1.51396
1.48799
1.40995
1.28288
1.17765
1.10158
1.04979
1.01631
0.994826
0.982156
0.974725
0.970108
0.968728
0.968598
0.96949
0.971521
0.974323
0.977634
0.98199
0.986835
0.992322
1.00045
1.01049
1.02017
1.0261
1.03408
1.03702
1.03479
1.02681
1.02161
1.01915
1.01825
1.01859
1.01951
1.02105
1.02264
1.02403
1.02471
1.03821
1.2127
1.77051
2.03207
2.04765
2.04635
2.03936
2.03034
2.00801
1.97034
1.9028
1.7921
1.63288
1.43702
1.5181
1.51813
1.50313
1.45703
1.35451
1.24182
1.15005
1.08339
1.03776
1.00786
0.988803
0.977695
0.972194
0.969323
0.968475
0.969139
0.971581
0.97584
0.981429
0.989007
1.00177
1.01563
1.03186
1.05896
1.08862
1.11103
1.12665
1.13491
1.1377
1.09833
1.05564
1.03411
1.0247
1.02128
1.02085
1.02198
1.02382
1.02554
1.02628
1.03667
1.18686
1.7792
2.03066
2.05354
2.05373
2.04882
2.04107
2.02141
1.98872
1.92793
1.82557
1.67323
1.47549
1.27043
1.47927
1.4485
1.39033
1.30052
1.19827
1.11658
1.0577
1.01891
0.996421
0.984072
0.977516
0.9745
0.974259
0.979417
0.986044
0.997234
1.01313
1.03189
1.05605
1.08744
1.13547
1.18468
1.23648
1.29782
1.34851
1.37722
1.39167
1.39123
1.3645
1.25755
1.12695
1.06362
1.03354
1.02433
1.02316
1.02479
1.02653
1.02784
1.04185
1.2064
1.76728
2.02701
2.05841
2.06066
2.05739
2.05082
2.03569
2.00781
1.95599
1.86698
1.72908
1.54223
1.32653
1.15262
1.18912
1.13691
1.08458
1.04203
1.01758
1.00385
0.998581
1.00029
1.00772
1.02433
1.04189
1.06578
1.10454
1.15835
1.2063
1.25672
1.30832
1.35662
1.40214
1.44579
1.49022
1.52597
1.56002
1.59374
1.61863
1.63087
1.63301
1.61625
1.56863
1.45068
1.22357
1.08176
1.0361
1.02593
1.02573
1.0275
1.03049
1.04924
1.19739
1.72083
2.01431
2.06155
2.06636
2.06512
2.05997
2.04893
2.02631
1.98503
1.91219
1.79478
1.62729
1.42329
1.21293
1.13404
1.05093
1.05409
1.06098
1.07136
1.09057
1.1471
1.20747
1.28363
1.3751
1.45496
1.51166
1.55389
1.59377
1.62123
1.63561
1.64496
1.65395
1.66591
1.67963
1.69305
1.709
1.72501
1.74282
1.76167
1.77557
1.78454
1.7833
1.76422
1.7122
1.52908
1.22353
1.07696
1.03398
1.02672
1.02819
1.03185
1.05016
1.16949
1.65041
1.99153
2.06169
2.07095
2.0715
2.06791
2.0603
2.04384
2.01289
1.95804
1.86585
1.72596
1.54055
1.33302
1.17135
1.09742
1.50005
1.52412
1.55683
1.60618
1.64732
1.70399
1.72296
1.73854
1.74816
1.74848
1.72933
1.7167
1.70438
1.69167
1.68473
1.67921
1.68153
1.69003
1.70199
1.71925
1.73819
1.75944
1.78465
1.80932
1.83066
1.84487
1.85159
1.84021
1.75638
1.51386
1.19314
1.05735
1.0302
1.02931
1.03295
1.05085
1.15097
1.55255
1.95599
2.05732
2.07402
2.07631
2.07483
2.06942
2.05963
2.03988
2.00431
1.94159
1.83916
1.68889
1.49919
1.30359
1.10979
1.1012
1.81634
1.80748
1.7944
1.77593
1.74848
1.7167
1.68238
1.64799
1.61253
1.56797
1.52763
1.49255
1.46955
1.45623
1.46414
1.47922
1.5046
1.53848
1.58102
1.63318
1.68098
1.72718
1.76947
1.80315
1.83138
1.85866
1.87307
1.84566
1.72404
1.42414
1.11388
1.03924
1.03071
1.03348
1.04999
1.13896
1.46869
1.91828
2.04234
2.0762
2.08004
2.08035
2.07713
2.07212
2.06056
2.04056
2.00323
1.93732
1.83082
1.67629
1.48158
1.27207
1.1332
1.07777
1.622
1.57882
1.52492
1.4563
1.37465
1.28636
1.20414
1.13925
1.09581
1.0708
1.05921
1.05675
1.06071
1.07145
1.09824
1.13216
1.17424
1.22892
1.29306
1.38081
1.47199
1.57464
1.65951
1.72216
1.80793
1.86179
1.87675
1.84569
1.66261
1.22653
1.06019
1.03334
1.03489
1.04867
1.13223
1.41525
1.89144
2.01782
2.07571
2.083
2.0846
2.08324
2.08035
2.07476
2.06368
2.04341
2.00688
1.94463
1.84295
1.694
1.505
1.30549
1.12273
1.08905
1.22645
1.15217
1.0822
1.0242
0.984957
0.969848
0.965917
0.965525
0.969814
0.980305
0.999729
1.02752
1.05771
1.0812
1.0912
1.09694
1.11685
1.12415
1.14724
1.19495
1.2647
1.37689
1.52392
1.69237
1.81029
1.86168
1.84045
1.71424
1.42253
1.0969
1.0377
1.03583
1.04741
1.13376
1.39077
1.85735
1.98741
2.06942
2.0844
2.08766
2.08804
2.08609
2.08388
2.07845
2.07023
2.05414
2.02574
1.97517
1.89174
1.76389
1.59017
1.38799
1.19248
1.11523
0.977705
0.96007
0.954182
0.953098
0.954936
0.962683
0.980537
1.01191
1.05655
1.10911
1.16548
1.20335
1.21505
1.2149
1.18038
1.13471
1.10526
1.09883
1.1119
1.15759
1.23905
1.37083
1.5533
1.71587
1.811
1.82863
1.79299
1.50808
1.13341
1.04706
1.03935
1.0487
1.13488
1.3649
1.82068
1.92122
2.06505
2.08239
2.08937
2.09103
2.09019
2.08895
2.08581
2.08125
2.07368
2.06065
2.03935
2.00361
1.94535
1.8513
1.71217
1.53296
1.34054
1.15286
0.947215
0.947484
0.950354
0.956181
0.97119
0.994804
1.03193
1.0853
1.15903
1.24216
1.28056
1.28933
1.28632
1.26349
1.21024
1.14119
1.10574
1.10258
1.11931
1.17632
1.27973
1.44334
1.61313
1.74424
1.7667
1.7688
1.48601
1.16972
1.05501
1.04661
1.06476
1.13232
1.35004
1.79825
1.90043
2.06282
2.0723
2.08948
2.09281
2.09295
2.09265
2.0911
2.08821
2.08464
2.07925
2.07185
2.06023
2.04156
2.01232
1.96497
1.88868
1.76673
1.59373
1.39335
0.944988
0.947146
0.951757
0.963048
0.981447
1.0119
1.05677
1.12161
1.2072
1.2716
1.30053
1.30008
1.29997
1.27676
1.23186
1.17471
1.15413
1.15882
1.20165
1.31389
1.45124
1.60737
1.66122
1.70847
1.68813
1.45682
1.15263
1.06644
1.04742
1.0632
1.09797
1.3541
1.78907
1.87859
2.05088
2.06231
2.08736
2.09318
2.09522
2.09518
2.09453
2.09281
2.09015
2.08655
2.0822
2.07663
2.06899
2.05823
2.04286
2.02012
1.98581
1.93463
1.85866
1.75192
0.942821
0.945723
0.951699
0.962757
0.980188
1.00816
1.05006
1.1086
1.18408
1.25824
1.29481
1.30617
1.30589
1.30792
1.2955
1.29298
1.29914
1.33309
1.38549
1.4623
1.555
1.57416
1.62082
1.57012
1.33083
1.10419
1.08446
1.04997
1.07081
1.08073
1.47996
1.80072
1.85171
2.04187
2.05515
2.08715
2.09121
2.09586
2.09655
2.09657
2.0957
2.09389
2.09125
2.08767
2.08338
2.07857
2.0727
2.0655
2.05732
2.04684
2.03302
2.014
1.9874
1.9499
0.941165
0.942534
0.945195
0.951992
0.963696
0.984121
1.01568
1.06183
1.12228
1.19248
1.25915
1.28464
1.30844
1.30514
1.32592
1.33117
1.36977
1.38148
1.44295
1.47214
1.50563
1.51752
1.32698
1.19676
1.09876
1.04037
1.05295
1.04292
1.09778
1.62398
1.62876
1.86099
2.05636
2.04018
2.08353
2.08879
2.09463
2.09727
2.09787
2.09746
2.09662
2.09443
2.09155
2.0877
2.08306
2.07796
2.0728
2.06719
2.06113
2.05454
2.04714
2.03914
2.03011
2.02032
0.939726
0.940672
0.941465
0.944327
0.94958
0.959297
0.97578
1.00178
1.04001
1.09018
1.149
1.20875
1.23674
1.28484
1.28442
1.32232
1.32486
1.34257
1.35104
1.32805
1.26921
1.12893
1.10262
1.03551
1.04922
1.05154
1.07987
1.24236
1.63236
1.61279
1.84701
2.04285
2.04164
2.07911
2.08567
2.09293
2.09685
2.09818
2.09872
2.09822
2.09692
2.09438
2.09131
2.08743
2.08289
2.07777
2.07216
2.06654
2.06056
2.05501
2.04919
2.0435
2.0379
2.032
0.939771
0.940334
0.939411
0.94142
0.94294
0.947042
0.953474
0.964158
0.980248
1.00271
1.03082
1.06313
1.09772
1.11714
1.15634
1.15614
1.16193
1.14676
1.12373
1.09149
1.06603
1.04046
1.0591
1.06013
1.08575
1.13023
1.30016
1.53818
1.74809
1.8384
1.94988
2.06551
2.06865
2.08117
2.0902
2.0949
2.09667
2.09909
2.09878
2.09836
2.09663
2.0941
2.09088
2.0869
2.08225
2.07667
2.07118
2.06493
2.05932
2.05399
2.04879
2.04385
2.03882
2.03399
0.94044
0.939851
0.940075
0.940325
0.941435
0.942968
0.94547
0.948907
0.954131
0.961357
0.971387
0.982965
0.995317
1.00524
1.01554
1.02053
1.02593
1.02413
1.02456
1.02459
1.03222
1.03841
1.05518
1.07229
1.16384
1.40612
1.67813
1.69322
1.89698
1.94258
2.03603
2.06485
2.07638
2.08566
2.09156
2.09503
2.09766
2.09902
2.09932
2.0985
2.09658
2.09386
2.09025
2.08594
2.08096
2.07552
2.06991
2.06385
2.05828
2.053
2.04811
2.04351
2.03862
2.03418
0.941295
0.943084
0.941152
0.943577
0.943051
0.94511
0.9467
0.949325
0.952709
0.956663
0.961767
0.967548
0.974395
0.981493
0.989109
0.997269
1.00578
1.01434
1.02492
1.03736
1.05769
1.09793
1.17641
1.34877
1.59842
1.60753
1.84842
1.87049
1.99479
2.00607
2.05729
2.06987
2.0805
2.08681
2.09191
2.09507
2.09808
2.09911
2.09927
2.09819
2.09593
2.09273
2.08866
2.08405
2.07871
2.07314
2.06727
2.06149
2.05611
2.05115
2.04653
2.04238
2.038
2.03361
0.945378
0.947084
0.946407
0.949209
0.94967
0.952192
0.954146
0.957058
0.960386
0.96464
0.969756
0.976042
0.983488
0.991888
1.00239
1.01509
1.03112
1.05283
1.08527
1.13914
1.23847
1.35614
1.51813
1.64751
1.75444
1.85086
1.92939
1.97848
2.0258
2.03823
2.06303
2.07428
2.08138
2.08679
2.09193
2.09499
2.09753
2.09852
2.09817
2.09665
2.09395
2.09037
2.0861
2.08091
2.0753
2.06897
2.06328
2.05736
2.05266
2.04806
2.04412
2.04031
2.03644
2.03191
0.954285
0.955525
0.959394
0.963644
0.967427
0.973223
0.978272
0.98487
0.992162
1.0009
1.01205
1.02605
1.0441
1.06849
1.10197
1.14881
1.20591
1.27683
1.36683
1.46404
1.55496
1.65528
1.79036
1.78952
1.91506
1.92895
1.99486
2.01383
2.03732
2.0541
2.06681
2.07447
2.08117
2.08646
2.09109
2.09445
2.09646
2.09696
2.09624
2.0944
2.09125
2.08714
2.08196
2.07641
2.06885
2.06413
2.05636
2.05274
2.04627
2.04285
2.03904
2.03615
2.03293
2.02842
0.972251
0.978516
0.98746
0.99794
1.01254
1.02866
1.05027
1.07532
1.10814
1.14544
1.19053
1.23935
1.29413
1.35026
1.40959
1.46536
1.52486
1.58719
1.64874
1.7144
1.77769
1.84636
1.86559
1.93836
1.95231
1.99573
2.01159
2.03248
2.04654
2.05928
2.06717
2.07377
2.08133
2.08565
2.09041
2.09316
2.09487
2.09463
2.09361
2.09096
2.0871
2.08181
2.07592
2.06899
2.06351
2.05519
2.04906
2.04198
2.03671
2.0318
2.02905
2.02656
2.0238
2.01899
1.02743
1.03482
1.05333
1.07947
1.11241
1.15524
1.20356
1.26061
1.32303
1.38575
1.4495
1.50927
1.56748
1.61793
1.66239
1.6991
1.73665
1.77542
1.81552
1.86082
1.87602
1.92268
1.93683
1.97166
1.98683
2.00983
2.02478
2.03945
2.04916
2.05943
2.06629
2.07409
2.08065
2.08453
2.08914
2.09134
2.09206
2.09223
2.08999
2.08685
2.0821
2.07635
2.06938
2.06199
2.05264
2.04445
2.03289
2.02761
2.0185
2.01743
2.01071
2.01162
2.00771
2.00382
1.20012
1.20485
1.22612
1.25726
1.30461
1.35379
1.41172
1.4697
1.53452
1.59301
1.65156
1.69749
1.74003
1.77041
1.79412
1.8191
1.84293
1.86545
1.88842
1.91414
1.92733
1.95314
1.96858
1.98769
2.00316
2.01783
2.02901
2.04109
2.04983
2.05934
2.06474
2.07507
2.0778
2.08478
2.08763
2.0898
2.09039
2.08886
2.08657
2.08212
2.07628
2.06929
2.05954
2.04686
2.03771
2.02291
2.01718
2.00528
2.00191
1.99092
1.9933
1.98497
1.98922
1.98201
1.46879
1.47463
1.4756
1.4952
1.52164
1.55787
1.60646
1.64708
1.69581
1.73213
1.77269
1.80001
1.8199
1.83634
1.85699
1.866
1.88788
1.90318
1.92047
1.93639
1.95245
1.96834
1.98262
1.99607
2.0089
2.02049
2.03102
2.04175
2.04978
2.05919
2.06594
2.07455
2.07718
2.08404
2.08553
2.08771
2.08586
2.08505
2.08084
2.07618
2.06764
2.05707
2.0458
2.03465
2.02146
2.01056
2.00039
1.98977
1.98101
1.97244
1.96595
1.96415
1.96615
1.9648
1.67485
1.6749
1.67479
1.68263
1.6945
1.71566
1.73926
1.76664
1.78956
1.81291
1.82984
1.84197
1.85869
1.86483
1.88067
1.89312
1.90828
1.92108
1.93546
1.949
1.96166
1.9758
1.98662
1.99995
2.01073
2.02192
2.03238
2.04077
2.05124
2.05877
2.06618
2.07301
2.07755
2.08231
2.08365
2.08446
2.08321
2.08067
2.07584
2.06551
2.05731
2.04558
2.03561
2.0199
2.00779
1.99404
1.97166
1.96215
1.94917
1.94695
1.95306
1.96432
1.97298
1.97888
1.79083
1.78717
1.78799
1.78909
1.79514
1.80275
1.81381
1.8253
1.83704
1.84773
1.85601
1.86553
1.87359
1.88489
1.89503
1.90658
1.91818
1.93062
1.94277
1.95431
1.96881
1.97632
1.99227
2.00154
2.01015
2.02451
2.03083
2.04398
2.0512
2.05941
2.06688
2.07274
2.07717
2.08036
2.08228
2.0824
2.08041
2.07636
2.06728
2.06076
2.04898
2.03892
2.01888
2.00715
1.98213
1.96245
1.95768
1.95272
1.95668
1.9764
1.99972
2.01457
2.0257
2.03039
1.83925
1.83803
1.83721
1.83836
1.83987
1.84347
1.84731
1.85293
1.85805
1.86455
1.87034
1.8777
1.88539
1.8942
1.90317
1.91397
1.92385
1.93592
1.94575
1.95831
1.96849
1.97977
1.99162
1.99918
2.01473
2.0226
2.0346
2.04428
2.05203
2.06032
2.06704
2.07235
2.07676
2.0799
2.08116
2.07959
2.07593
2.06974
2.06184
2.053
2.03995
2.02395
2.0039
1.98486
1.96987
1.96065
1.95771
1.96694
1.99089
2.0039
2.01409
2.02145
2.02482
2.01671
1.85862
1.85759
1.85711
1.85716
1.85797
1.85951
1.86188
1.8649
1.86891
1.87308
1.87946
1.88436
1.89318
1.89898
1.90934
1.91706
1.92833
1.93655
1.94944
1.95801
1.97057
1.98047
1.99238
2.00288
2.01597
2.02337
2.03657
2.044
2.05381
2.06125
2.06796
2.07326
2.07742
2.08
2.08011
2.0777
2.07359
2.06697
2.05818
2.04673
2.03011
2.01046
1.99198
1.97708
1.96601
1.96285
1.97788
1.98531
1.98978
1.9955
2.00409
2.01469
2.01616
1.98996
1.01781
1.01828
1.01875
1.01917
1.0196
1.01999
1.02035
1.02071
1.02107
1.0214
1.02176
1.02201
1.02256
1.02251
1.02327
1.02316
1.02388
1.02393
1.02454
1.02476
1.01775
1.01827
1.01876
1.01926
1.0197
1.02012
1.02048
1.02085
1.02119
1.02157
1.02186
1.02223
1.02242
1.02301
1.02291
1.02358
1.02361
1.0242
1.02434
1.02496
1.01765
1.0182
1.01873
1.01923
1.01972
1.02019
1.02063
1.02098
1.02143
1.02158
1.02211
1.02218
1.02269
1.02268
1.02318
1.02317
1.0237
1.02385
1.02426
1.02451
1.01746
1.01808
1.01866
1.01924
1.01977
1.02028
1.02071
1.02117
1.0213
1.0218
1.02187
1.02229
1.02233
1.02271
1.02265
1.0231
1.02304
1.02357
1.02371
1.02408
1.01725
1.01789
1.01852
1.01908
1.01962
1.02009
1.02055
1.02088
1.02132
1.02137
1.02182
1.0217
1.02205
1.02199
1.02231
1.02216
1.02253
1.02251
1.0231
1.0232
1.01693
1.01758
1.01824
1.0187
1.01941
1.01962
1.02028
1.02041
1.02087
1.02096
1.02116
1.02111
1.02128
1.02113
1.02127
1.02124
1.0214
1.02155
1.02179
1.02222
1.01652
1.01716
1.01778
1.01828
1.01884
1.01908
1.01961
1.01979
1.01998
1.02018
1.02022
1.02021
1.02005
1.02011
1.01982
1.01992
1.01986
1.02014
1.02027
1.02082
1.01596
1.01658
1.01717
1.01757
1.01816
1.01821
1.01867
1.01869
1.01887
1.01888
1.01884
1.01868
1.01842
1.01802
1.01807
1.01764
1.01786
1.01789
1.01832
1.01913
1.01528
1.01598
1.01625
1.0168
1.01722
1.01754
1.01798
1.01827
1.01863
1.0187
1.01864
1.01776
1.01679
1.01689
1.01513
1.01566
1.01443
1.01536
1.01534
1.01658
1.0146
1.01516
1.01611
1.017
1.01803
1.01811
1.02063
1.02244
1.02498
1.02724
1.02734
1.02477
1.02528
1.01648
1.02024
1.01351
1.01505
1.01191
1.01438
1.01332
1.01397
1.01631
1.01617
1.02165
1.02022
1.0311
1.03375
1.05297
1.06345
1.07504
1.0862
1.0859
1.07401
1.08076
1.03286
1.05782
1.02057
1.02313
1.01473
1.01668
1.01486
1.02154
1.02385
1.03468
1.04908
1.08344
1.12137
1.17021
1.23414
1.2836
1.34565
1.36139
1.35304
1.30095
1.31555
1.16028
1.17842
1.05119
1.04125
1.02502
1.03324
1.02812
1.06858
1.09069
1.17459
1.29532
1.43313
1.57877
1.67893
1.74325
1.78936
1.80411
1.79374
1.78071
1.68796
1.68335
1.47618
1.61551
1.25216
1.11168
1.07029
1.07566
1.21232
1.38109
1.58375
1.73139
1.83498
1.89159
1.92417
1.9384
1.94165
1.93648
1.93134
1.91155
1.91057
1.84929
1.84151
1.666
1.72199
1.49716
1.18293
1.40387
1.61523
1.78268
1.88162
1.93708
1.96103
1.96919
1.96536
1.96025
1.95119
1.94192
1.92872
1.91117
1.90518
1.87438
1.90412
1.78204
1.85594
1.60871
1.56919
1.76842
1.89243
1.949
1.97282
1.9793
1.97568
1.96732
1.96209
1.94673
1.93649
1.89922
1.89232
1.8644
1.84046
1.82165
1.8214
1.81668
1.77963
1.81698
1.88658
1.95835
1.98343
1.98783
1.98377
1.97871
1.9641
1.95693
1.93319
1.90417
1.86999
1.83915
1.79031
1.78709
1.74503
1.70377
1.69372
1.69759
1.74768
1.7374
1.97969
1.98851
1.98753
1.98158
1.97468
1.95073
1.94015
1.90063
1.86419
1.82131
1.76882
1.72763
1.69559
1.66732
1.6603
1.6271
1.58772
1.57282
1.56508
1.70504
1.98845
1.98655
1.98063
1.96475
1.939
1.91537
1.86445
1.81576
1.75824
1.69622
1.62693
1.59045
1.57351
1.56223
1.55935
1.53772
1.50417
1.4768
1.47828
1.48664
1.99057
1.9799
1.95853
1.92387
1.88768
1.81791
1.75372
1.68257
1.60261
1.51575
1.45769
1.42673
1.42235
1.42332
1.44613
1.45334
1.44159
1.40047
1.39695
1.41057
1.97465
1.94779
1.90454
1.85449
1.77286
1.6838
1.59327
1.50456
1.4041
1.31767
1.26956
1.26165
1.2606
1.306
1.36566
1.38765
1.38367
1.3533
1.33741
1.34786
1.94168
1.8908
1.8241
1.7228
1.61743
1.49728
1.38854
1.28211
1.19344
1.13927
1.12244
1.12199
1.15504
1.26425
1.33255
1.34742
1.34087
1.30998
1.29299
1.30206
1.87935
1.79172
1.67758
1.5468
1.40474
1.26955
1.17487
1.1233
1.09321
1.07746
1.07347
1.08014
1.13273
1.27277
1.32064
1.3207
1.30551
1.27354
1.26672
1.27972
1.77234
1.63832
1.4906
1.31693
1.1843
1.12451
1.09907
1.0828
1.07018
1.06406
1.06235
1.07772
1.19137
1.30963
1.30788
1.29844
1.2858
1.26115
1.26003
1.27843
1.61762
1.44605
1.25946
1.14409
1.10763
1.09422
1.08634
1.07849
1.07372
1.0721
1.08238
1.14128
1.30578
1.32352
1.28567
1.29609
1.29474
1.26334
1.26651
1.29771
1.42632
1.23884
1.12627
1.10318
1.09706
1.10116
1.11522
1.12178
1.12453
1.13558
1.18581
1.27199
1.33582
1.3047
1.31015
1.34471
1.32493
1.29642
1.30399
1.36694
1.23479
1.11413
1.10095
1.10436
1.13481
1.17534
1.1965
1.19731
1.20073
1.21906
1.26604
1.29888
1.30986
1.33729
1.38171
1.39051
1.37785
1.37414
1.38717
1.43299
1.13801
1.11003
1.11438
1.16054
1.21107
1.23543
1.23022
1.22325
1.22382
1.24223
1.27479
1.29399
1.33385
1.39018
1.41177
1.41723
1.41762
1.42034
1.43054
1.44687
1.10832
1.10861
1.15107
1.21265
1.24606
1.24076
1.23421
1.22366
1.21994
1.22555
1.24122
1.29379
1.3715
1.4039
1.42072
1.42521
1.42786
1.42626
1.42568
1.42081
1.10898
1.12257
1.18168
1.23317
1.24235
1.23394
1.20696
1.18119
1.16931
1.17421
1.20834
1.27789
1.35128
1.39193
1.39347
1.40528
1.40185
1.38299
1.35137
1.28471
1.11241
1.12803
1.19648
1.22417
1.21867
1.19892
1.15812
1.11917
1.10078
1.10482
1.12955
1.18032
1.24125
1.26198
1.27973
1.28305
1.24851
1.19485
1.15674
1.10885
1.08106
1.12595
1.1701
1.19032
1.18119
1.15455
1.11943
1.07037
1.04642
1.04247
1.05298
1.06663
1.0805
1.09701
1.09831
1.08949
1.06864
1.05863
1.03511
1.02529
1.0651
1.07176
1.10029
1.1423
1.13035
1.11438
1.08595
1.04136
1.01868
1.00508
1.01091
1.0095
1.01204
1.01544
1.01296
1.00731
1.01337
0.999852
1.00937
0.998817
1.05493
1.04918
1.05077
1.05826
1.07713
1.06966
1.0493
1.02467
1.0052
0.990304
0.990731
0.990938
0.987927