/*--------------------------------*- C++ -*----------------------------------*\
  =========                 |
  \\      /  F ield         | OpenFOAM: The Open Source CFD Toolbox
   \\    /   O peration     | Website:  https://openfoam.org
    \\  /    A nd           | Version:  10
     \\/     M anipulation  |
\*---------------------------------------------------------------------------*/
FoamFile
{
    format      ascii;
    class       volScalarField;
    location    "0.796907";
    object      T;
}
// * * * * * * * * * * * * * * * * * * * * * * * * * * * * * * * * * * * * * //

dimensions      [0 0 0 1 0 0 0];

internalField   nonuniform List<scalar> 
15984
(
0.00865374
0.00865318
0.00865259
0.00865236
0.00865251
0.00865265
0.00865319
0.00865368
0.00865436
0.00865488
0.00865546
0.00865572
0.00865683
0.00865812
0.00865987
0.00866156
0.00866381
0.0086657
0.00866813
0.00867035
0.00867293
0.00867565
0.00867858
0.00868168
0.00868498
0.00868835
0.00869205
0.00869578
0.00869988
0.00870394
0.00870799
0.00871232
0.00871628
0.00872064
0.00872458
0.00872856
0.00873266
0.00873657
0.00874021
0.00874389
0.00874726
0.00875034
0.00875314
0.00875609
0.00875836
0.00876084
0.00876282
0.00876471
0.00876653
0.00876801
0.00876947
0.00877084
0.0087721
0.00877322
0.00865398
0.00865337
0.00865297
0.00865299
0.00865312
0.00865337
0.00865365
0.00865411
0.00865445
0.00865441
0.00865504
0.00865542
0.00865648
0.00865786
0.0086594
0.00866116
0.00866295
0.00866489
0.00866683
0.00866894
0.00867115
0.00867366
0.00867632
0.00867914
0.00868223
0.00868542
0.00868894
0.00869243
0.00869629
0.00870012
0.00870415
0.00870833
0.00871217
0.00871658
0.00872041
0.00872453
0.00872858
0.00873261
0.00873648
0.00874026
0.00874371
0.00874702
0.0087503
0.00875317
0.00875596
0.00875863
0.00876086
0.00876325
0.00876512
0.00876685
0.00876853
0.00876988
0.00877154
0.00877264
0.00865333
0.00865262
0.00865213
0.00865181
0.0086519
0.0086519
0.00865273
0.00865268
0.00865329
0.00865389
0.00865451
0.0086555
0.00865649
0.00865772
0.00865906
0.00866043
0.00866192
0.0086636
0.0086653
0.0086671
0.00866921
0.00867143
0.00867392
0.00867666
0.00867956
0.00868251
0.00868576
0.00868907
0.00869273
0.00869645
0.00870036
0.00870435
0.00870828
0.00871265
0.00871647
0.00872081
0.0087247
0.00872887
0.00873285
0.00873667
0.00874017
0.00874393
0.00874718
0.00875032
0.00875346
0.00875598
0.00875876
0.00876101
0.00876331
0.00876546
0.00876717
0.00876911
0.00877079
0.00877246
0.00865212
0.00865208
0.00865148
0.00865127
0.00865128
0.00865143
0.00865134
0.00865168
0.00865235
0.00865352
0.00865447
0.00865558
0.00865631
0.0086573
0.00865821
0.00865952
0.0086608
0.00866244
0.00866388
0.00866579
0.00866763
0.0086697
0.00867206
0.0086745
0.00867714
0.00867992
0.00868298
0.00868622
0.00868967
0.00869336
0.00869712
0.00870112
0.00870508
0.00870921
0.00871318
0.00871738
0.00872138
0.00872564
0.00872977
0.00873334
0.00873721
0.00874102
0.00874447
0.00874788
0.00875105
0.00875396
0.00875681
0.00875948
0.00876204
0.00876414
0.00876638
0.00876815
0.00876994
0.00877168
0.00865136
0.00865079
0.00865028
0.00865025
0.00865029
0.00865066
0.00865079
0.00865122
0.00865201
0.00865277
0.00865362
0.00865435
0.00865534
0.0086564
0.00865761
0.00865884
0.00866018
0.00866139
0.00866289
0.00866434
0.00866617
0.00866803
0.00867018
0.00867256
0.00867497
0.00867767
0.00868051
0.00868362
0.00868694
0.00869062
0.00869428
0.00869827
0.00870223
0.00870635
0.00871025
0.00871453
0.00871849
0.00872284
0.00872682
0.00873056
0.00873453
0.00873822
0.00874211
0.00874565
0.0087489
0.00875179
0.00875501
0.00875793
0.00876045
0.00876294
0.00876508
0.00876707
0.00876902
0.00877098
0.00865003
0.00864915
0.008649
0.00864908
0.00864963
0.00864967
0.00865046
0.00865121
0.00865168
0.00865213
0.00865262
0.00865333
0.00865408
0.00865513
0.00865616
0.00865747
0.00865868
0.00866007
0.00866148
0.00866305
0.00866466
0.00866655
0.00866858
0.00867073
0.00867311
0.00867569
0.00867845
0.0086815
0.00868467
0.00868829
0.0086919
0.0086958
0.00869967
0.00870376
0.00870762
0.00871196
0.00871584
0.0087203
0.00872406
0.00872815
0.00873212
0.00873598
0.00873988
0.0087435
0.00874702
0.00875023
0.00875317
0.00875592
0.00875865
0.00876127
0.00876348
0.00876569
0.00876794
0.0087697
0.00864666
0.00864663
0.008647
0.00864698
0.00864801
0.00864781
0.0086493
0.00864935
0.00864972
0.00865032
0.00865124
0.00865202
0.00865318
0.0086542
0.00865552
0.00865673
0.00865801
0.0086593
0.00866058
0.00866201
0.00866343
0.00866525
0.0086671
0.00866926
0.00867152
0.00867402
0.00867673
0.00867971
0.00868294
0.00868643
0.00869004
0.00869381
0.00869767
0.00870161
0.00870541
0.00870967
0.00871373
0.00871803
0.00872193
0.00872605
0.00873032
0.00873394
0.00873781
0.00874139
0.00874479
0.00874814
0.00875141
0.00875452
0.00875717
0.00875994
0.008762
0.00876399
0.00876619
0.00876811
0.0086438
0.00864375
0.00864453
0.00864454
0.00864614
0.00864614
0.0086477
0.0086478
0.00864797
0.00864876
0.00864971
0.00865085
0.00865204
0.00865333
0.00865463
0.00865578
0.00865689
0.00865803
0.00865933
0.00866062
0.00866223
0.00866388
0.00866574
0.00866784
0.00867011
0.0086726
0.00867535
0.00867821
0.00868139
0.00868472
0.00868831
0.00869201
0.00869592
0.00869985
0.00870383
0.00870797
0.00871245
0.00871626
0.00872048
0.00872443
0.00872874
0.00873239
0.00873623
0.00873968
0.00874338
0.00874668
0.00874984
0.00875303
0.00875531
0.00875851
0.00875984
0.00876211
0.00876445
0.008766
0.00864116
0.0086422
0.00864205
0.00864407
0.00864365
0.00864474
0.00864559
0.0086462
0.00864726
0.00864807
0.00864904
0.00865003
0.00865105
0.00865206
0.00865301
0.00865398
0.00865505
0.00865629
0.00865769
0.00865915
0.00866081
0.00866257
0.00866447
0.00866665
0.00866894
0.00867146
0.00867416
0.00867704
0.00868016
0.00868353
0.00868709
0.00869083
0.00869472
0.00869878
0.0087028
0.00870685
0.00871159
0.00871496
0.00871957
0.00872323
0.00872762
0.00873099
0.00873545
0.0087387
0.00874259
0.00874573
0.0087487
0.00875171
0.0087543
0.0087561
0.00875823
0.00876033
0.0087613
0.00876271
0.00863817
0.00863817
0.00863961
0.0086396
0.00864134
0.00864148
0.00864292
0.00864395
0.00864479
0.00864569
0.00864707
0.00864849
0.0086499
0.00865109
0.00865215
0.00865318
0.00865451
0.00865576
0.00865707
0.00865838
0.00865975
0.00866154
0.0086634
0.00866582
0.00866813
0.00867073
0.00867343
0.00867628
0.00867935
0.00868277
0.00868634
0.00869024
0.00869414
0.00869836
0.00870222
0.0087065
0.0087109
0.00871464
0.00871903
0.00872278
0.00872702
0.00873077
0.00873485
0.00873832
0.00874143
0.00874453
0.00874794
0.00874994
0.00875277
0.00875498
0.00875653
0.00875865
0.00875891
0.0087616
0.00863416
0.00863371
0.00863671
0.008636
0.00863906
0.00863951
0.00864057
0.00864238
0.00864356
0.00864487
0.00864605
0.00864705
0.00864838
0.00864919
0.0086507
0.00865226
0.00865384
0.00865482
0.00865577
0.00865671
0.00865822
0.00866028
0.00866264
0.00866515
0.00866747
0.0086699
0.00867248
0.00867537
0.00867864
0.00868223
0.00868603
0.00869009
0.00869403
0.0086984
0.00870215
0.00870673
0.00871078
0.00871497
0.00871902
0.00872274
0.00872696
0.00873099
0.00873476
0.00873783
0.00874083
0.00874414
0.00874691
0.0087494
0.00875108
0.00875317
0.00875426
0.00875508
0.00875592
0.00875362
0.00863005
0.00862975
0.00863272
0.00863227
0.00863482
0.00863592
0.00863806
0.00863911
0.00864108
0.00864229
0.00864433
0.00864536
0.00864679
0.00864803
0.00865004
0.00865093
0.00865244
0.00865358
0.0086552
0.00865674
0.00865886
0.00866105
0.00866333
0.00866527
0.0086672
0.00866926
0.00867171
0.0086748
0.00867834
0.00868226
0.00868643
0.00869068
0.00869486
0.00869918
0.00870322
0.00870731
0.00871196
0.00871545
0.0087198
0.0087236
0.0087279
0.00873127
0.00873454
0.00873766
0.00874073
0.00874385
0.00874609
0.00874781
0.00875008
0.00875124
0.00875239
0.0087503
0.0087501
0.00873635
0.00862428
0.00862725
0.00862637
0.00862864
0.0086304
0.00863217
0.00863386
0.00863635
0.00863777
0.00864003
0.00864138
0.00864354
0.00864492
0.00864695
0.00864815
0.00865033
0.0086511
0.00865318
0.00865391
0.00865598
0.00865815
0.00865983
0.00866211
0.00866469
0.00866734
0.00866971
0.00867235
0.00867537
0.00867887
0.00868294
0.00868714
0.00869155
0.0086958
0.00870023
0.00870442
0.00870863
0.00871264
0.00871738
0.00872059
0.00872533
0.00872844
0.00873284
0.00873555
0.00873912
0.0087416
0.00874379
0.00874562
0.00874717
0.00874861
0.0087476
0.00874772
0.00873893
0.00871327
0.00870752
0.00861811
0.00862224
0.00862148
0.00862624
0.0086259
0.00862914
0.00863115
0.00863309
0.00863542
0.00863731
0.00863924
0.00864098
0.00864296
0.00864418
0.00864647
0.008648
0.0086501
0.00865182
0.00865393
0.00865598
0.00865813
0.00865996
0.00866195
0.00866395
0.00866675
0.00866986
0.0086733
0.0086769
0.00868067
0.00868471
0.0086888
0.00869306
0.0086974
0.00870186
0.00870629
0.00871035
0.00871508
0.00871941
0.00872338
0.0087274
0.00873185
0.0087345
0.00873778
0.00874037
0.00874226
0.00874394
0.00874539
0.00874611
0.00874689
0.00874189
0.00873095
0.00872232
0.00862659
0.00862305
0.00861474
0.0086168
0.00861854
0.00862182
0.00862333
0.00862551
0.00862713
0.0086296
0.00863107
0.00863394
0.00863558
0.0086384
0.00864001
0.00864297
0.00864458
0.00864694
0.00864844
0.00865068
0.00865243
0.00865535
0.008657
0.00865874
0.00866173
0.0086648
0.00866781
0.00867069
0.00867384
0.00867738
0.00868139
0.00868602
0.00869081
0.00869562
0.00870011
0.00870472
0.00870904
0.00871335
0.00871811
0.0087225
0.00872677
0.0087308
0.00873411
0.00873731
0.00874005
0.00874209
0.00874372
0.00874495
0.00874531
0.00874377
0.00873992
0.00873567
0.00868024
0.00867905
0.00839512
0.00832817
0.00861134
0.00860764
0.00861548
0.00861461
0.00861895
0.00862093
0.00862377
0.00862555
0.00862839
0.00863027
0.00863351
0.00863517
0.00863779
0.00863937
0.0086429
0.00864419
0.00864782
0.0086483
0.00865234
0.00865394
0.00865604
0.00865874
0.00866218
0.0086656
0.00866897
0.008672
0.00867537
0.00867925
0.0086835
0.00868833
0.00869326
0.00869839
0.00870319
0.00870826
0.00871253
0.00871749
0.00872159
0.00872686
0.00873036
0.00873465
0.00873775
0.00874079
0.00874228
0.00874421
0.00874637
0.00874574
0.00874373
0.00874247
0.00872126
0.00872108
0.00854338
0.00853765
0.00777183
0.00666772
0.00859404
0.00860586
0.00860593
0.00861285
0.00861515
0.00861752
0.00862025
0.00862189
0.00862508
0.00862701
0.00863025
0.0086321
0.00863538
0.00863719
0.00864051
0.00864243
0.00864601
0.00864789
0.00865111
0.00865411
0.00865659
0.0086596
0.00866278
0.00866617
0.00866956
0.00867305
0.00867702
0.00868134
0.00868614
0.00869151
0.00869689
0.00870232
0.00870714
0.00871216
0.00871634
0.00872151
0.0087257
0.00873128
0.00873548
0.00873961
0.00874307
0.00874477
0.00874667
0.00874787
0.00874728
0.00874442
0.00874136
0.00874162
0.0086734
0.00866899
0.00814574
0.0077537
0.00587691
0.00507593
0.0085641
0.00857711
0.0085908
0.0085988
0.0086062
0.00861163
0.00861558
0.00861853
0.00862119
0.0086242
0.00862628
0.00863003
0.0086325
0.00863556
0.00863779
0.00864075
0.00864334
0.00864702
0.00864927
0.00865366
0.00865477
0.00865941
0.00866322
0.00866722
0.00867113
0.00867502
0.00867924
0.00868376
0.00868864
0.00869423
0.00869986
0.00870561
0.00871059
0.00871634
0.00872117
0.00872717
0.00873212
0.0087372
0.00874182
0.00874545
0.00874766
0.00875005
0.00875052
0.00875001
0.00874683
0.00874665
0.0087383
0.00872222
0.00853194
0.00824971
0.00712006
0.00529916
0.0047868
0.00451954
0.00845717
0.0085118
0.00854657
0.00857232
0.00858887
0.00860002
0.00860748
0.00861422
0.00861594
0.00862235
0.00862261
0.00862709
0.00863011
0.00863278
0.00863692
0.00863891
0.00864313
0.00864505
0.00864966
0.00865109
0.00865664
0.00865777
0.00866239
0.00866705
0.00867184
0.00867684
0.00868177
0.00868696
0.00869217
0.00869786
0.00870404
0.00871045
0.00871645
0.00872236
0.00872753
0.0087334
0.00873832
0.00874361
0.00874858
0.00875159
0.00875396
0.00875502
0.00875481
0.00875212
0.00875212
0.00874461
0.00872499
0.00850424
0.00819247
0.00650871
0.00523452
0.00475936
0.00451668
0.00442706
0.00817273
0.00831699
0.00842244
0.00849359
0.00854095
0.00857156
0.00859045
0.00860201
0.00861234
0.00861219
0.008623
0.00862094
0.00863034
0.00862812
0.00863678
0.00863584
0.00864373
0.00864287
0.00865
0.00864978
0.00865623
0.00865949
0.00866385
0.0086684
0.0086732
0.00867825
0.00868377
0.00868998
0.00869619
0.00870259
0.00870911
0.00871567
0.008722
0.0087283
0.00873392
0.00874003
0.00874502
0.00875051
0.00875583
0.00875839
0.00876036
0.0087608
0.00875913
0.00875962
0.00875204
0.00873882
0.00850879
0.00813889
0.00624432
0.00516669
0.00461782
0.00442901
0.00438863
0.00438278
0.00741829
0.00785277
0.00813044
0.00830897
0.00842545
0.00849994
0.00854762
0.00857684
0.00859544
0.00860783
0.0086134
0.00862188
0.00862121
0.00863028
0.00862905
0.00863708
0.00863643
0.00864481
0.00864447
0.00865237
0.00865236
0.00865919
0.00866423
0.00867
0.00867555
0.00868129
0.00868722
0.00869378
0.00870062
0.00870771
0.00871487
0.00872212
0.00872908
0.00873539
0.00874112
0.00874747
0.00875281
0.00875895
0.0087638
0.0087664
0.00876722
0.00876705
0.00876589
0.00876015
0.00874455
0.0085941
0.00806717
0.00623268
0.00505052
0.00452372
0.00441093
0.00438863
0.0043846
0.00439162
0.00623069
0.00680012
0.00743236
0.0079018
0.00818481
0.00835638
0.00846101
0.00852437
0.00856474
0.00858763
0.00860338
0.0086132
0.00862253
0.00862262
0.00863159
0.00863073
0.00863921
0.0086394
0.00864734
0.00864715
0.00865607
0.0086577
0.00866333
0.00867033
0.00867762
0.00868462
0.0086914
0.00869862
0.00870618
0.00871411
0.00872215
0.00872997
0.00873847
0.00874634
0.008753
0.00875871
0.00876324
0.00876887
0.00877292
0.00877472
0.0087747
0.00877263
0.00877067
0.00875923
0.0086515
0.00810847
0.00632933
0.00493363
0.00449118
0.00440644
0.00438913
0.00438671
0.00439731
0.00442748
0.00561288
0.00601097
0.00637627
0.0070522
0.00762494
0.00802237
0.00826933
0.00841446
0.00849769
0.00854836
0.00858044
0.00859835
0.00861259
0.00862307
0.00862551
0.00863383
0.00863402
0.00864273
0.00864397
0.0086497
0.0086571
0.0086599
0.00866841
0.00866983
0.00868002
0.00868852
0.00869679
0.00870434
0.00871274
0.00872112
0.00872937
0.00873834
0.00874779
0.00875559
0.00876297
0.00876903
0.00877476
0.0087803
0.00878309
0.00878358
0.00878272
0.00878141
0.00877316
0.00870168
0.00823055
0.00648438
0.00489636
0.00448459
0.00440311
0.00438885
0.00438966
0.00440401
0.00443963
0.00450588
0.00559319
0.00560269
0.0058294
0.00620976
0.00688509
0.00747271
0.00790684
0.00819653
0.00837384
0.00847986
0.00853917
0.00857845
0.00859533
0.00861568
0.00862012
0.00862978
0.00863605
0.0086382
0.00864715
0.00864766
0.00865857
0.00865892
0.00866907
0.00867844
0.00868074
0.00869067
0.00869819
0.00870731
0.00871565
0.00872484
0.00873392
0.00874342
0.00875476
0.008766
0.00877665
0.00878277
0.00878865
0.00879201
0.00879269
0.0087923
0.00878932
0.00878631
0.00874616
0.00837603
0.00675278
0.0048931
0.00447353
0.00440144
0.00439061
0.00439505
0.00441256
0.00444984
0.00452282
0.00466292
0.00552041
0.00550608
0.00559622
0.00567829
0.00629145
0.00692828
0.00749017
0.00791455
0.00820145
0.00837684
0.00847746
0.00854254
0.00857344
0.00860181
0.00861314
0.00862438
0.00863024
0.00863584
0.00864471
0.00864975
0.0086556
0.00866128
0.00866539
0.00867328
0.00868258
0.00868385
0.0086965
0.00869638
0.00870987
0.00872119
0.00873313
0.00874449
0.0087592
0.00877356
0.00878537
0.00879322
0.00879964
0.00880183
0.00880188
0.00879973
0.00880011
0.00877794
0.00851135
0.00704789
0.0049347
0.00446464
0.00440222
0.0043945
0.0044013
0.00441872
0.0044554
0.00453222
0.00468367
0.00494959
0.00547629
0.00541781
0.00543741
0.00549307
0.00578876
0.00635705
0.00695788
0.00746609
0.00785317
0.00813398
0.00831834
0.00844121
0.00851198
0.00856061
0.00858627
0.00861074
0.00862457
0.0086304
0.00863769
0.00864424
0.00865044
0.0086538
0.0086589
0.00866048
0.00865862
0.00865751
0.00865607
0.00866373
0.00866229
0.00867645
0.00870585
0.00873315
0.00875679
0.00877864
0.00879473
0.00880491
0.00881016
0.00881092
0.00880991
0.00880947
0.00880347
0.00860296
0.00735609
0.0049902
0.00445694
0.00440319
0.00439919
0.00440791
0.00442168
0.00445707
0.00453326
0.00468463
0.00495853
0.00540861
0.00537924
0.00533545
0.00535138
0.00545806
0.0057741
0.00636067
0.00694347
0.00743673
0.00781734
0.00808857
0.00827727
0.00839879
0.00847881
0.00853679
0.00856848
0.00859137
0.00860769
0.0086168
0.00862208
0.00862578
0.00862283
0.00861732
0.00860779
0.00857694
0.00853158
0.00849126
0.00848286
0.00845708
0.00847152
0.00852582
0.00862626
0.00870122
0.00875036
0.00878379
0.00880396
0.00881618
0.00881963
0.00881938
0.00881777
0.00881797
0.00870481
0.00745133
0.00510087
0.00444471
0.00440847
0.00440649
0.00441387
0.00442274
0.00445814
0.00452646
0.00466689
0.0049312
0.00538325
0.00608299
0.00530449
0.00531735
0.00538337
0.00556646
0.00599899
0.0065578
0.00709533
0.00754548
0.00789039
0.00813744
0.00830754
0.00841623
0.00847998
0.00852321
0.00855082
0.00856765
0.00857115
0.00856235
0.00854533
0.00851479
0.00844443
0.00836769
0.00827545
0.00810348
0.00792233
0.00780389
0.00773785
0.00772202
0.00774253
0.00805733
0.00841952
0.00862703
0.0087349
0.00879005
0.00881691
0.00882724
0.0088275
0.00882525
0.00882796
0.00874451
0.00763707
0.00509831
0.00446692
0.00441651
0.00441304
0.00441771
0.00442552
0.00445628
0.00451392
0.00463711
0.00487411
0.00529035
0.00596646
0.00688916
0.00544378
0.00557087
0.00581558
0.00622913
0.00677175
0.00728102
0.00770015
0.00800637
0.00819943
0.00831411
0.00838195
0.00842117
0.00843911
0.00841261
0.00837569
0.008304
0.00819853
0.00807726
0.00792257
0.007727
0.00743985
0.00716805
0.00690506
0.00661592
0.00640421
0.00630647
0.0062761
0.00631489
0.00647531
0.00706265
0.00791685
0.00842005
0.00869319
0.00879681
0.00882935
0.00883446
0.00883437
0.00883391
0.00872209
0.00753486
0.00514871
0.00449206
0.00442459
0.0044187
0.0044219
0.00442921
0.00445193
0.00449999
0.00460173
0.00479969
0.00515671
0.00575094
0.00665092
0.00760917
0.00677073
0.00709243
0.00744694
0.00776451
0.00796576
0.00808815
0.00814322
0.00813942
0.00808804
0.007966
0.00784077
0.00767501
0.00742048
0.00709273
0.00682832
0.00657399
0.0063367
0.00613517
0.00596215
0.00580868
0.00565982
0.00555735
0.00546846
0.00538657
0.00533854
0.00533363
0.0053614
0.00545195
0.00565263
0.00614733
0.00732161
0.00831221
0.00870511
0.00881545
0.00883824
0.00884072
0.00882851
0.00867874
0.00760837
0.00529995
0.0045337
0.00443342
0.00442426
0.00442542
0.004432
0.00444812
0.00448645
0.00456453
0.00471908
0.0050041
0.00549092
0.00624544
0.00729141
0.00775105
0.00766355
0.0076508
0.00761145
0.0075468
0.00742355
0.00706901
0.00672599
0.00633493
0.00592069
0.00560123
0.00539615
0.0052546
0.00512603
0.00504463
0.00501074
0.00499678
0.00498775
0.0049732
0.00495668
0.00494313
0.0049243
0.00490895
0.00489163
0.00487382
0.00487123
0.00488263
0.00492159
0.00501021
0.00519799
0.00585649
0.00735187
0.008382
0.00875421
0.00883865
0.00884578
0.00883054
0.00868764
0.00780499
0.00553874
0.00459731
0.00444576
0.00442915
0.00442872
0.00443441
0.00444566
0.00447289
0.00452929
0.00463968
0.00484798
0.00521525
0.00581345
0.00668854
0.00756425
0.00802453
0.00537634
0.00529729
0.00519166
0.00503717
0.00491417
0.00475142
0.00469884
0.00465781
0.00463341
0.00463423
0.00468737
0.00472477
0.00476262
0.00480508
0.00483607
0.00486756
0.00488059
0.00487943
0.00487164
0.00485137
0.00482934
0.00480476
0.004773
0.0047455
0.0047283
0.00473001
0.00475061
0.00481717
0.00508445
0.00593833
0.00756597
0.00856388
0.0088137
0.00884312
0.00883043
0.0086941
0.00794609
0.00589426
0.00468957
0.00446519
0.00443426
0.00443211
0.00443556
0.00444461
0.00446
0.00449386
0.00456033
0.00469003
0.00492888
0.00533985
0.00598339
0.00684234
0.00799734
0.00801576
0.00443603
0.00445991
0.00449417
0.00454204
0.00461327
0.00469744
0.00479098
0.00489026
0.00499653
0.00513776
0.00527407
0.00540089
0.00549124
0.00555142
0.00553632
0.00549931
0.00543086
0.00533927
0.00522661
0.00509244
0.00498265
0.00488691
0.00480999
0.00476154
0.00472948
0.00470054
0.00470486
0.00481514
0.00519582
0.00632995
0.00812438
0.00873534
0.00883239
0.0088301
0.00870813
0.00803901
0.00623936
0.00478802
0.00450577
0.00443864
0.00443479
0.00443623
0.00444285
0.00445046
0.00446906
0.00450289
0.00457272
0.00470972
0.0049603
0.00538924
0.00606583
0.00703404
0.00784621
0.00820542
0.00496471
0.00509743
0.00527443
0.00551832
0.00583993
0.00623588
0.00665718
0.00703335
0.00731005
0.00747958
0.00756198
0.00758334
0.00756364
0.00750178
0.00733876
0.00714398
0.00691883
0.00664684
0.00635707
0.00599627
0.00567002
0.0053468
0.00512023
0.004981
0.00479038
0.00469632
0.00470228
0.00482414
0.00539802
0.0073614
0.00855043
0.00880257
0.00881502
0.00872
0.00809112
0.00648084
0.00485968
0.00456573
0.00444669
0.00443689
0.00443678
0.00444093
0.00444622
0.0044544
0.00447138
0.00450528
0.00457288
0.0047005
0.0049364
0.00534202
0.00598013
0.00685485
0.00793944
0.00814487
0.00656047
0.00697762
0.0074233
0.00783877
0.00814531
0.00826326
0.00828638
0.00827903
0.00823614
0.00814278
0.00798331
0.00777046
0.00755603
0.00740571
0.00735922
0.00735143
0.00725571
0.00725049
0.00715209
0.00691801
0.00659028
0.00610727
0.00557023
0.005066
0.00478414
0.00469932
0.00480018
0.00520173
0.00632055
0.00823806
0.00874634
0.00879412
0.00872292
0.00807793
0.00659661
0.00495152
0.00463755
0.00446417
0.00443988
0.00443798
0.00443947
0.00444389
0.00444685
0.00445399
0.00446422
0.00448841
0.0045369
0.00463469
0.00481647
0.00513854
0.00566869
0.00645789
0.0074878
0.00797261
0.00822454
0.00836653
0.00840971
0.00841093
0.00838515
0.00830646
0.00814304
0.00787824
0.00753574
0.00717554
0.00682708
0.00661446
0.00655875
0.00657363
0.00678692
0.00708762
0.00731394
0.0074027
0.00736707
0.00713055
0.00671709
0.00612647
0.00545945
0.0049953
0.00478353
0.00478767
0.00493209
0.00591526
0.0079349
0.00863484
0.00873872
0.00869437
0.00805907
0.00671663
0.00505
0.00479587
0.00447576
0.00444753
0.00443948
0.00444008
0.00444334
0.00444507
0.00444885
0.00445341
0.00446168
0.00447889
0.00451144
0.00457422
0.00468991
0.00490321
0.00527319
0.0058575
0.00666157
0.00772127
0.00848615
0.00847225
0.00843555
0.00837272
0.00823109
0.0080226
0.00772048
0.00732749
0.00684922
0.00638713
0.00619312
0.00615221
0.00617473
0.00630143
0.00660214
0.00703277
0.007298
0.00736725
0.00731034
0.00701035
0.00649867
0.00581807
0.00525795
0.00491647
0.00490714
0.00495425
0.00596096
0.00763796
0.00852303
0.00864054
0.00853405
0.00805403
0.00677838
0.0051069
0.00484454
0.0044795
0.00446994
0.00444184
0.00444073
0.0044436
0.00444494
0.00444636
0.0044483
0.00444972
0.00445267
0.00445734
0.00446857
0.00449273
0.00453854
0.00462558
0.0047873
0.00509032
0.00561237
0.00638592
0.0085023
0.00846964
0.00841559
0.00830374
0.00813425
0.00787508
0.00752631
0.00707713
0.00656182
0.00622588
0.00608519
0.00608884
0.00609913
0.00622662
0.00647914
0.00682411
0.00698631
0.0070065
0.00681179
0.00628231
0.00573692
0.00522727
0.00510934
0.00502531
0.00513963
0.00601499
0.00767765
0.00836956
0.00858185
0.00850459
0.00827214
0.00673693
0.00512207
0.0048927
0.00450121
0.00448969
0.00444627
0.00444181
0.00444268
0.00444504
0.00444636
0.00444728
0.00444761
0.0044478
0.00444772
0.00444803
0.00445058
0.00445775
0.00447314
0.00450349
0.00455953
0.00465686
0.00482201
0.00508856
0.00851817
0.00847739
0.0084099
0.00829894
0.00813661
0.00789583
0.00756603
0.00715229
0.00668316
0.0062858
0.00610452
0.0060538
0.00606958
0.00607721
0.00616216
0.00620561
0.0062143
0.00609921
0.00591082
0.0056473
0.00535816
0.00534455
0.00525016
0.00547389
0.00651521
0.00795502
0.00817102
0.00849781
0.00839148
0.00835775
0.00614345
0.00507057
0.00495207
0.00451318
0.00449924
0.00444385
0.0044452
0.00444271
0.00444563
0.0044472
0.00444811
0.00444842
0.00444789
0.00444687
0.00444555
0.00444371
0.00444227
0.004442
0.00444235
0.00444643
0.00445693
0.00447846
0.00451728
0.00458281
0.00852937
0.00850153
0.0084627
0.00838751
0.00827079
0.00808433
0.00781884
0.00746564
0.00705227
0.00663163
0.00627705
0.0061557
0.00606398
0.00609512
0.00602426
0.00603306
0.0058986
0.00589229
0.00568494
0.00562075
0.00555159
0.00556058
0.00641315
0.00719623
0.00791108
0.00843942
0.00841285
0.00854667
0.00818526
0.00554978
0.00557927
0.00490457
0.00447276
0.00452338
0.00444477
0.00444651
0.00444383
0.00444519
0.00444752
0.00444941
0.0044495
0.00444978
0.00444899
0.00444782
0.00444618
0.00444406
0.00444084
0.00443731
0.0044336
0.00443009
0.00442771
0.00442637
0.004427
0.00442942
0.00853841
0.00851416
0.00849207
0.00845187
0.00839104
0.0082924
0.00813936
0.00791631
0.0076163
0.00726122
0.0068885
0.00655202
0.00642427
0.0062007
0.00623092
0.00608781
0.00611547
0.00607801
0.00608676
0.00624298
0.00658402
0.0074745
0.00774216
0.00832547
0.00829407
0.00835029
0.00819693
0.00717976
0.0054897
0.00558977
0.00492077
0.00448176
0.00450602
0.00444356
0.00444539
0.00444263
0.00444393
0.00444759
0.00444945
0.00445098
0.0044513
0.00445154
0.00445036
0.00444857
0.00444609
0.00444315
0.00444026
0.00443673
0.00443337
0.0044285
0.00442385
0.00441874
0.00441322
0.00440822
0.00853381
0.00851308
0.00850707
0.00847537
0.00844897
0.00840057
0.00833324
0.00823194
0.00809107
0.00790761
0.00769464
0.00747031
0.0072503
0.00714901
0.00693455
0.00697143
0.0069823
0.00712452
0.0073283
0.00761726
0.00787509
0.00814178
0.00807572
0.00813676
0.00801544
0.00777502
0.00680156
0.00578804
0.00513199
0.00490804
0.00466439
0.00443767
0.00445075
0.00444328
0.0044397
0.00444228
0.00444799
0.00444883
0.00445209
0.00445284
0.00445333
0.00445277
0.00445109
0.00444875
0.00444593
0.00444356
0.0044399
0.00443744
0.00443357
0.0044291
0.00442421
0.00441869
0.00441316
0.00440693
0.00852297
0.00851325
0.00849768
0.00848305
0.00846201
0.00843851
0.00840811
0.00837209
0.00832391
0.00826255
0.00818398
0.00810113
0.00802076
0.00797016
0.00792609
0.00793035
0.00793919
0.00800925
0.0080684
0.00813918
0.00815068
0.00817342
0.00811331
0.00805323
0.00748586
0.00626704
0.00527135
0.00525779
0.0047344
0.00465406
0.00447588
0.00444048
0.00443705
0.00443637
0.00443958
0.00444475
0.00444838
0.00445106
0.00445253
0.00445352
0.00445372
0.00445276
0.00445109
0.00444866
0.00444587
0.00444279
0.00443928
0.00443639
0.00443257
0.00442866
0.00442429
0.00441927
0.00441455
0.00440828
0.00851002
0.00847943
0.00848455
0.00845152
0.00844711
0.00842115
0.00840171
0.00837614
0.00834713
0.00831765
0.00828396
0.00825123
0.00821669
0.00818846
0.00816375
0.00814186
0.00812338
0.00810961
0.00808479
0.00805194
0.00796339
0.00774138
0.00729662
0.0064304
0.00545139
0.00547637
0.00478435
0.00477156
0.00451073
0.00451417
0.00443335
0.0044312
0.00443021
0.00443572
0.00444055
0.00444626
0.00444879
0.00445167
0.00445299
0.00445388
0.00445403
0.00445324
0.00445164
0.00444899
0.00444625
0.00444299
0.00443993
0.00443673
0.00443311
0.00442931
0.00442553
0.00442099
0.00441637
0.00441069
0.00846757
0.00843891
0.00843382
0.00839917
0.00838757
0.00835996
0.00834037
0.00831527
0.00829037
0.00826211
0.00823188
0.00819779
0.00816049
0.00812275
0.00807535
0.00801758
0.00794081
0.00782914
0.00765198
0.007353
0.00682319
0.00628595
0.00565691
0.00525672
0.00497639
0.00475995
0.00459886
0.0045191
0.00444755
0.00444789
0.00442283
0.00442313
0.00442956
0.00443663
0.00444121
0.00444686
0.00445
0.00445236
0.0044543
0.00445536
0.00445556
0.00445462
0.00445246
0.00445011
0.00444716
0.00444499
0.00444138
0.00443888
0.00443473
0.00443157
0.00442799
0.00442446
0.00442026
0.00441555
0.00838251
0.00835961
0.00831581
0.00827087
0.00823257
0.00818029
0.00813732
0.00808504
0.00803146
0.00797134
0.00789819
0.00780993
0.00769979
0.00755477
0.00736179
0.00710304
0.006811
0.00647929
0.00609901
0.00573679
0.00544441
0.00515756
0.00479967
0.00484374
0.00456367
0.00457065
0.00445486
0.00444509
0.00442532
0.00441679
0.00441604
0.00442358
0.00443045
0.00443739
0.0044427
0.0044474
0.00445107
0.00445378
0.00445587
0.0044567
0.00445685
0.00445593
0.00445456
0.00445184
0.00445221
0.0044459
0.00444672
0.00443971
0.00444052
0.00443677
0.00443548
0.00443275
0.0044294
0.00442559
0.00822166
0.00815839
0.00807584
0.00798422
0.00786467
0.00773952
0.00758066
0.00740747
0.00719489
0.00697121
0.0067217
0.00647556
0.00622399
0.00599089
0.00576667
0.00557798
0.00539475
0.0052199
0.00506359
0.00490732
0.00477049
0.00462716
0.00461585
0.00447901
0.00448289
0.00442152
0.00442074
0.00440732
0.00440695
0.00440733
0.00441622
0.00442542
0.00442995
0.00443855
0.00444312
0.0044485
0.00445201
0.00445549
0.00445736
0.0044589
0.00445925
0.00445944
0.00445827
0.00445735
0.00445206
0.00445292
0.0044503
0.00445129
0.00445108
0.00445292
0.00445284
0.00445348
0.00445308
0.00445182
0.00777467
0.00771079
0.00756765
0.00737863
0.00715692
0.00689031
0.00661488
0.00631938
0.00602806
0.00576525
0.00552484
0.00532248
0.0051444
0.00500661
0.00489788
0.00481982
0.00474587
0.0046744
0.0046052
0.00452625
0.00452564
0.00444976
0.00445174
0.00440994
0.00441006
0.00439443
0.00439458
0.00439418
0.00440275
0.00440817
0.00441868
0.00442483
0.00443086
0.00443979
0.00444406
0.00444986
0.0044545
0.00445622
0.00445954
0.00446072
0.00446146
0.00446111
0.00446065
0.00445929
0.0044614
0.00446127
0.00447046
0.0044685
0.00447873
0.0044751
0.00448855
0.00448774
0.00449636
0.00449711
0.00665129
0.0066183
0.00649778
0.00633271
0.00610056
0.00587847
0.00563917
0.00542119
0.00519916
0.00501808
0.00485274
0.00473698
0.00463931
0.00458058
0.004544
0.004508
0.00447847
0.00445477
0.00443266
0.00440539
0.00440918
0.00438579
0.00438554
0.00437849
0.0043785
0.0043799
0.00438786
0.00439248
0.00440265
0.00440918
0.00442247
0.00442269
0.0044364
0.00443802
0.00444525
0.00445013
0.00445379
0.00445809
0.00446002
0.00446241
0.00446385
0.00446426
0.00446801
0.00447669
0.00447722
0.00449144
0.00448779
0.00450235
0.00450202
0.00452519
0.00452303
0.00455185
0.00455177
0.00456907
0.00542838
0.00540159
0.00539548
0.00532228
0.0052285
0.00510713
0.00495505
0.00483779
0.00470603
0.00461722
0.00452402
0.00447069
0.00443999
0.00441994
0.00439466
0.00439914
0.0043764
0.00437108
0.00436305
0.00435945
0.004357
0.00435596
0.00435872
0.00436355
0.00436927
0.00437697
0.00438594
0.00439307
0.0044043
0.00441069
0.00442063
0.00442385
0.00443732
0.00443841
0.00444775
0.00445116
0.00445873
0.00446026
0.00446472
0.00446577
0.00447102
0.00447732
0.00448268
0.0044865
0.00449502
0.00450023
0.00450734
0.00452105