/*--------------------------------*- C++ -*----------------------------------*\
| =========                 |                                                 |
| \\      /  F ield         | OpenFOAM: The Open Source CFD Toolbox           |
|  \\    /   O peration     | Version:  2406                                  |
|   \\  /    A nd           | Website:  www.openfoam.com                      |
|    \\/     M anipulation  |                                                 |
\*---------------------------------------------------------------------------*/
FoamFile
{
    version     2.0;
    format      ascii;
    arch        "LSB;label=32;scalar=64";
    class       volScalarField;
    location    "500";
    object      p;
}
// * * * * * * * * * * * * * * * * * * * * * * * * * * * * * * * * * * * * * //

dimensions      [0 2 -2 0 0 0 0];

internalField   nonuniform List<scalar> 
16384
(
1.82879e-09
2.787621e-09
2.631774e-09
2.205832e-09
1.653222e-09
9.826846e-10
2.210437e-10
-6.041523e-10
-1.472876e-09
-2.370295e-09
-3.284788e-09
-4.211352e-09
-5.142788e-09
-6.077959e-09
-7.017194e-09
-7.959317e-09
-8.906112e-09
-9.858938e-09
-1.081971e-08
-1.178908e-08
-1.276868e-08
-1.37568e-08
-1.475278e-08
-1.575783e-08
-1.676792e-08
-1.778062e-08
-1.879476e-08
-1.980592e-08
-2.080706e-08
-2.179448e-08
-2.276265e-08
-2.370465e-08
-2.461367e-08
-2.548211e-08
-2.630303e-08
-2.706739e-08
-2.776593e-08
-2.838959e-08
-2.89296e-08
-2.937663e-08
-2.971984e-08
-2.995028e-08
-3.005773e-08
-3.003165e-08
-2.986307e-08
-2.954119e-08
-2.905786e-08
-2.84057e-08
-2.757528e-08
-2.656092e-08
-2.535778e-08
-2.396063e-08
-2.236851e-08
-2.058094e-08
-1.859693e-08
-1.642026e-08
-1.405765e-08
-1.151559e-08
-8.804228e-09
-5.938133e-09
-2.932635e-09
1.937754e-10
3.417037e-09
6.711759e-09
1.005114e-08
1.340234e-08
1.672869e-08
1.999393e-08
2.31595e-08
2.61827e-08
2.902051e-08
3.163115e-08
3.397174e-08
3.599911e-08
3.767277e-08
3.895523e-08
3.981047e-08
4.020483e-08
4.011037e-08
3.950577e-08
3.837428e-08
3.670351e-08
3.4488e-08
3.173029e-08
2.843882e-08
2.462732e-08
2.031665e-08
1.553477e-08
1.03149e-08
4.694414e-09
-1.284907e-09
-7.576405e-09
-1.413027e-08
-2.089565e-08
-2.782123e-08
-3.485462e-08
-4.194281e-08
-4.903381e-08
-5.607806e-08
-6.302936e-08
-6.984408e-08
-7.64816e-08
-8.290554e-08
-8.908422e-08
-9.499063e-08
-1.006017e-07
-1.058978e-07
-1.108636e-07
-1.154878e-07
-1.197627e-07
-1.236829e-07
-1.272451e-07
-1.304476e-07
-1.332909e-07
-1.357769e-07
-1.379076e-07
-1.396853e-07
-1.411128e-07
-1.421938e-07
-1.429345e-07
-1.433441e-07
-1.434378e-07
-1.432403e-07
-1.427914e-07
-1.421544e-07
-1.414279e-07
-1.407669e-07
-1.403589e-07
2.745894e-09
2.81478e-09
2.58771e-09
2.192076e-09
1.68012e-09
1.067235e-09
3.716547e-10
-3.869002e-10
-1.191177e-09
-2.027842e-09
-2.888897e-09
-3.764969e-09
-4.649792e-09
-5.545189e-09
-6.44787e-09
-7.356256e-09
-8.273809e-09
-9.198778e-09
-1.013161e-08
-1.107445e-08
-1.202709e-08
-1.298781e-08
-1.39565e-08
-1.493301e-08
-1.59137e-08
-1.68959e-08
-1.787734e-08
-1.885472e-08
-1.982175e-08
-2.077453e-08
-2.170781e-08
-2.261411e-08
-2.348723e-08
-2.432032e-08
-2.510671e-08
-2.583768e-08
-2.650447e-08
-2.70988e-08
-2.761213e-08
-2.803588e-08
-2.835943e-08
-2.857411e-08
-2.867098e-08
-2.863954e-08
-2.847164e-08
-2.815754e-08
-2.768856e-08
-2.705848e-08
-2.625861e-08
-2.528268e-08
-2.412755e-08
-2.278892e-08
-2.126435e-08
-1.955393e-08
-1.765807e-08
-1.557981e-08
-1.332558e-08
-1.090271e-08
-8.320192e-09
-5.591666e-09
-2.733805e-09
2.354081e-10
3.294613e-09
6.418789e-09
9.580602e-09
1.274935e-08
1.589067e-08
1.896855e-08
2.194565e-08
2.478225e-08
2.743712e-08
2.98691e-08
3.203728e-08
3.39016e-08
3.542341e-08
3.656548e-08
3.729311e-08
3.757552e-08
3.738666e-08
3.670535e-08
3.551542e-08
3.380625e-08
3.157335e-08
2.881876e-08
2.555062e-08
2.178323e-08
1.753754e-08
1.284033e-08
7.72333e-09
2.223196e-09
-3.618763e-09
-9.757529e-09
-1.614588e-08
-2.273521e-08
-2.947569e-08
-3.631646e-08
-4.320653e-08
-5.00967e-08
-5.693959e-08
-6.369045e-08
-7.030728e-08
-7.675137e-08
-8.298849e-08
-8.898857e-08
-9.472529e-08
-1.001762e-07
-1.053229e-07
-1.101509e-07
-1.146498e-07
-1.18812e-07
-1.226322e-07
-1.261075e-07
-1.29237e-07
-1.320214e-07
-1.344632e-07
-1.365653e-07
-1.383312e-07
-1.397649e-07
-1.408722e-07
-1.41661e-07
-1.421429e-07
-1.423352e-07
-1.422623e-07
-1.419608e-07
-1.414855e-07
-1.409154e-07
-1.403573e-07
-1.399503e-07
2.839386e-09
2.813013e-09
2.603952e-09
2.250152e-09
1.783469e-09
1.220436e-09
5.815662e-10
-1.180442e-10
-8.628554e-10
-1.644807e-09
-2.452583e-09
-3.278792e-09
-4.120766e-09
-4.974752e-09
-5.8381e-09
-6.712315e-09
-7.59749e-09
-8.491191e-09
-9.39615e-09
-1.031153e-08
-1.123471e-08
-1.216672e-08
-1.310836e-08
-1.405632e-08
-1.500691e-08
-1.595995e-08
-1.691192e-08
-1.785746e-08
-1.879195e-08
-1.971229e-08
-2.061321e-08
-2.148708e-08
-2.232843e-08
-2.313122e-08
-2.388804e-08
-2.459027e-08
-2.523034e-08
-2.580141e-08
-2.629475e-08
-2.670119e-08
-2.701138e-08
-2.721748e-08
-2.731123e-08
-2.728222e-08
-2.712197e-08
-2.682269e-08
-2.637629e-08
-2.57754e-08
-2.501293e-08
-2.408355e-08
-2.29831e-08
-2.1708e-08
-2.025658e-08
-1.862799e-08
-1.682318e-08
-1.484617e-08
-1.270184e-08
-1.039651e-08
-7.940786e-09
-5.347944e-09
-2.632423e-09
1.877544e-10
3.090983e-09
6.054428e-09
9.052253e-09
1.20534e-08
1.50246e-08
1.793263e-08
2.074151e-08
2.341141e-08
2.590247e-08
2.817641e-08
3.019409e-08
3.191557e-08
3.330311e-08
3.432181e-08
3.49386e-08
3.512293e-08
3.484953e-08
3.409907e-08
3.285647e-08
3.111081e-08
2.885753e-08
2.609981e-08
2.284666e-08
1.911175e-08
1.491497e-08
1.028301e-08
5.247845e-09
-1.545433e-10
-5.884282e-09
-1.18978e-08
-1.814889e-08
-2.458992e-08
-3.117245e-08
-3.784763e-08
-4.456625e-08
-5.128043e-08
-5.794423e-08
-6.451459e-08
-7.095169e-08
-7.721862e-08
-8.328213e-08
-8.911329e-08
-9.468725e-08
-9.998313e-08
-1.049837e-07
-1.096752e-07
-1.140477e-07
-1.180946e-07
-1.218111e-07
-1.251952e-07
-1.282465e-07
-1.309667e-07
-1.333591e-07
-1.354274e-07
-1.371758e-07
-1.386099e-07
-1.397367e-07
-1.405653e-07
-1.41108e-07
-1.413812e-07
-1.414071e-07
-1.41216e-07
-1.408507e-07
-1.403632e-07
-1.398028e-07
-1.392883e-07
3.024926e-09
2.969925e-09
2.76694e-09
2.429376e-09
1.985267e-09
1.452834e-09
8.494651e-10
1.913942e-10
-5.123391e-10
-1.251014e-09
-2.014466e-09
-2.80036e-09
-3.603965e-09
-4.420702e-09
-5.250424e-09
-6.09177e-09
-6.945491e-09
-7.810751e-09
-8.688071e-09
-9.576305e-09
-1.047453e-08
-1.138202e-08
-1.22972e-08
-1.321942e-08
-1.414567e-08
-1.507415e-08
-1.600112e-08
-1.692191e-08
-1.783251e-08
-1.872861e-08
-1.960483e-08
-2.045544e-08
-2.127516e-08
-2.205728e-08
-2.279414e-08
-2.347883e-08
-2.410466e-08
-2.466392e-08
-2.514794e-08
-2.554829e-08
-2.585718e-08
-2.606671e-08
-2.616771e-08
-2.615149e-08
-2.600994e-08
-2.573462e-08
-2.531895e-08
-2.475557e-08
-2.403661e-08
-2.315812e-08
-2.211619e-08
-2.090585e-08
-1.952607e-08
-1.797691e-08
-1.625792e-08
-1.437257e-08
-1.232675e-08
-1.012589e-08
-7.779283e-09
-5.300928e-09
-2.705158e-09
-7.894523e-12
2.770304e-09
5.60619e-09
8.474716e-09
1.134692e-08
1.41905e-08
1.697206e-08
1.965625e-08
2.22049e-08
2.457925e-08
2.674115e-08
2.865203e-08
3.02733e-08
3.1568e-08
3.250112e-08
3.303986e-08
3.315507e-08
3.282238e-08
3.202213e-08
3.073911e-08
2.896326e-08
2.66907e-08
2.392438e-08
2.067319e-08
1.695103e-08
1.277799e-08
8.180631e-09
3.190957e-09
-2.155184e-09
-7.818326e-09
-1.375533e-08
-1.992034e-08
-2.62664e-08
-3.274596e-08
-3.931077e-08
-4.591198e-08
-5.250247e-08
-5.903805e-08
-6.547709e-08
-7.178045e-08
-7.791204e-08
-8.383976e-08
-8.95362e-08
-9.497791e-08
-1.001449e-07
-1.050209e-07
-1.095936e-07
-1.138542e-07
-1.177966e-07
-1.214174e-07
-1.247152e-07
-1.276908e-07
-1.303474e-07
-1.326886e-07
-1.34719e-07
-1.364441e-07
-1.378699e-07
-1.390035e-07
-1.398543e-07
-1.404333e-07
-1.407543e-07
-1.408343e-07
-1.406954e-07
-1.403681e-07
-1.398816e-07
-1.39238e-07
-1.385614e-07
3.399068e-09
3.289846e-09
3.059604e-09
2.713235e-09
2.273408e-09
1.755653e-09
1.176275e-09
5.445586e-10
-1.280256e-10
-8.306959e-10
-1.559507e-09
-2.310009e-09
-3.077249e-09
-3.860792e-09
-4.658888e-09
-5.469312e-09
-6.293522e-09
-7.130983e-09
-7.981164e-09
-8.843044e-09
-9.717033e-09
-1.060217e-08
-1.14949e-08
-1.239533e-08
-1.330059e-08
-1.420794e-08
-1.511462e-08
-1.601624e-08
-1.69084e-08
-1.778669e-08
-1.864615e-08
-1.948168e-08
-2.028731e-08
-2.105676e-08
-2.178336e-08
-2.246052e-08
-2.308175e-08
-2.363892e-08
-2.412438e-08
-2.453e-08
-2.484804e-08
-2.507183e-08
-2.519133e-08
-2.519799e-08
-2.50857e-08
-2.484544e-08
-2.446974e-08
-2.39525e-08
-2.328603e-08
-2.246561e-08
-2.148777e-08
-2.034768e-08
-1.904307e-08
-1.757411e-08
-1.594101e-08
-1.414588e-08
-1.219345e-08
-1.008997e-08
-7.844717e-09
-5.470032e-09
-2.979446e-09
-3.891741e-10
2.281114e-09
5.009951e-09
7.773114e-09
1.054186e-08
1.328444e-08
1.596835e-08
1.855882e-08
2.101774e-08
2.33066e-08
2.538819e-08
2.72244e-08
2.877617e-08
3.000632e-08
3.088055e-08
3.13665e-08
3.143467e-08
3.106061e-08
3.022502e-08
2.891267e-08
2.711322e-08
2.482309e-08
2.204543e-08
1.878896e-08
1.506763e-08
1.090189e-08
6.318561e-09
1.349564e-09
-3.968935e-09
-9.596849e-09
-1.549103e-08
-2.160607e-08
-2.789491e-08
-3.430957e-08
-4.080185e-08
-4.732367e-08
-5.382832e-08
-6.027187e-08
-6.661328e-08
-7.281426e-08
-7.883981e-08
-8.465858e-08
-9.024376e-08
-9.557315e-08
-1.006282e-07
-1.05394e-07
-1.09859e-07
-1.140158e-07
-1.178594e-07
-1.213877e-07
-1.246008e-07
-1.275005e-07
-1.300909e-07
-1.323772e-07
-1.343648e-07
-1.360594e-07
-1.374673e-07
-1.385958e-07
-1.394539e-07
-1.400507e-07
-1.403963e-07
-1.405018e-07
-1.403812e-07
-1.400533e-07
-1.395293e-07
-1.387755e-07
-1.379302e-07
3.919641e-09
3.742734e-09
3.46196e-09
3.089154e-09
2.6373e-09
2.121224e-09
1.550918e-09
9.366616e-10
2.88946e-10
-3.877311e-10
-1.088097e-09
-1.807263e-09
-2.54332e-09
-3.296034e-09
-4.063078e-09
-4.844854e-09
-5.642644e-09
-6.453686e-09
-7.27803e-09
-8.116722e-09
-8.968294e-09
-9.831247e-09
-1.070439e-08
-1.158725e-08
-1.247565e-08
-1.336628e-08
-1.425785e-08
-1.514597e-08
-1.602561e-08
-1.68928e-08
-1.774284e-08
-1.857119e-08
-1.937149e-08
-2.013733e-08
-2.086319e-08
-2.154298e-08
-2.217013e-08
-2.273588e-08
-2.323361e-08
-2.365672e-08
-2.399613e-08
-2.4245e-08
-2.439491e-08
-2.443725e-08
-2.436571e-08
-2.417173e-08
-2.384752e-08
-2.338676e-08
-2.278255e-08
-2.202997e-08
-2.112421e-08
-2.006046e-08
-1.883698e-08
-1.745283e-08
-1.590725e-08
-1.420249e-08
-1.234282e-08
-1.03336e-08
-8.183759e-09
-5.905289e-09
-3.510867e-09
-1.016102e-09
1.560189e-09
4.197822e-09
6.873405e-09
9.558804e-09
1.222278e-08
1.483286e-08
1.735427e-08
1.974939e-08
2.198002e-08
2.400851e-08
2.579651e-08
2.730505e-08
2.849651e-08
2.933592e-08
2.979095e-08
2.983223e-08
2.94348e-08
2.85787e-08
2.724856e-08
2.543394e-08
2.313097e-08
2.034279e-08
1.707827e-08
1.335138e-08
9.182574e-09
4.599097e-09
-3.665069e-10
-5.677752e-09
-1.129439e-08
-1.717225e-08
-2.326511e-08
-2.952574e-08
-3.5906e-08
-4.23572e-08
-4.883093e-08
-5.528036e-08
-6.166177e-08
-6.793459e-08
-7.40607e-08
-8.00054e-08
-8.573811e-08
-9.123277e-08
-9.646804e-08
-1.014267e-07
-1.060951e-07
-1.104629e-07
-1.145238e-07
-1.182743e-07
-1.217135e-07
-1.248433e-07
-1.276669e-07
-1.301893e-07
-1.324168e-07
-1.343556e-07
-1.360121e-07
-1.37393e-07
-1.385057e-07
-1.393579e-07
-1.399565e-07
-1.403083e-07
-1.404194e-07
-1.402961e-07
-1.399473e-07
-1.393697e-07
-1.385031e-07
-1.375032e-07
4.56311e-09
4.304705e-09
3.957696e-09
3.542692e-09
3.067273e-09
2.537827e-09
1.965978e-09
1.361837e-09
7.292128e-10
7.233118e-11
-6.041266e-10
-1.297637e-09
-2.007e-09
-2.731989e-09
-3.471756e-09
-4.227441e-09
-4.999571e-09
-5.785868e-09
-6.587589e-09
-7.40573e-09
-8.237572e-09
-9.081875e-09
-9.939185e-09
-1.080751e-08
-1.168281e-08
-1.25625e-08
-1.344539e-08
-1.432632e-08
-1.519967e-08
-1.606335e-08
-1.691288e-08
-1.774249e-08
-1.854617e-08
-1.931874e-08
-2.005514e-08
-2.07484e-08
-2.139229e-08
-2.19793e-08
-2.250243e-08
-2.295515e-08
-2.332894e-08
-2.361666e-08
-2.381031e-08
-2.390202e-08
-2.388506e-08
-2.375019e-08
-2.349016e-08
-2.309895e-08
-2.256898e-08
-2.189491e-08
-2.107158e-08
-2.009348e-08
-1.895863e-08
-1.766562e-08
-1.62126e-08
-1.460119e-08
-1.283552e-08
-1.092028e-08
-8.863551e-09
-6.676861e-09
-4.372331e-09
-1.964946e-09
5.274244e-10
3.086058e-09
5.688586e-09
8.307221e-09
1.091096e-08
1.346761e-08
1.594213e-08
1.829638e-08
2.049237e-08
2.249272e-08
2.425805e-08
2.574799e-08
2.692457e-08
2.775288e-08
2.819994e-08
2.823543e-08
2.78336e-08
2.697391e-08
2.564042e-08
2.382233e-08
2.151553e-08
1.872274e-08
1.545244e-08
1.171872e-08
7.542551e-09
2.95159e-09
-2.021377e-09
-7.339409e-09
-1.29614e-08
-1.884251e-08
-2.493514e-08
-3.119097e-08
-3.756149e-08
-4.399714e-08
-5.044883e-08
-5.686946e-08
-6.321505e-08
-6.944497e-08
-7.552096e-08
-8.140812e-08
-8.707619e-08
-9.249995e-08
-9.765888e-08
-1.025368e-07
-1.071211e-07
-1.114026e-07
-1.153761e-07
-1.190397e-07
-1.223945e-07
-1.254434e-07
-1.281913e-07
-1.306442e-07
-1.328093e-07
-1.346943e-07
-1.363063e-07
-1.376524e-07
-1.387397e-07
-1.395748e-07
-1.401625e-07
-1.405064e-07
-1.406086e-07
-1.404696e-07
-1.400897e-07
-1.394549e-07
-1.384857e-07
-1.373546e-07
5.306396e-09
4.953872e-09
4.527221e-09
4.059355e-09
3.545904e-09
2.994815e-09
2.41443e-09
1.809899e-09
1.18424e-09
5.421171e-10
-1.153944e-10
-7.880176e-10
-1.473862e-09
-2.17461e-09
-2.891025e-09
-3.623079e-09
-4.371771e-09
-5.136862e-09
-5.919481e-09
-6.719156e-09
-7.534385e-09
-8.36513e-09
-9.210995e-09
-1.006892e-08
-1.093645e-08
-1.18116e-08
-1.269145e-08
-1.357186e-08
-1.444757e-08
-1.531631e-08
-1.617382e-08
-1.701427e-08
-1.783209e-08
-1.86225e-08
-1.938076e-08
-2.010014e-08
-2.077391e-08
-2.139527e-08
-2.195813e-08
-2.245517e-08
-2.287764e-08
-2.321941e-08
-2.347287e-08
-2.362955e-08
-2.368233e-08
-2.362216e-08
-2.344191e-08
-2.313531e-08
-2.269402e-08
-2.211211e-08
-2.138422e-08
-2.050406e-08
-1.946859e-08
-1.827607e-08
-1.6924e-08
-1.541274e-08
-1.374573e-08
-1.192769e-08
-9.966015e-09
-7.870878e-09
-5.653671e-09
-3.329405e-09
-9.15322e-10
1.571773e-09
4.111286e-09
6.676095e-09
9.234591e-09
1.175377e-08
1.419904e-08
1.653291e-08
1.871656e-08
2.071102e-08
2.247616e-08
2.397126e-08
2.515753e-08
2.599896e-08
2.64615e-08
2.651385e-08
2.612925e-08
2.528632e-08
2.396829e-08
2.21635e-08
1.986689e-08
1.708074e-08
1.381359e-08
1.007948e-08
5.899116e-09
1.300311e-09
-3.683374e-09
-9.014141e-09
-1.465021e-08
-2.054601e-08
-2.66531e-08
-3.292132e-08
-3.930026e-08
-4.573965e-08
-5.218981e-08
-5.860326e-08
-6.493523e-08
-7.114412e-08
-7.719118e-08
-8.30412e-08
-8.866425e-08
-9.403569e-08
-9.913536e-08
-1.039475e-07
-1.084607e-07
-1.126668e-07
-1.165621e-07
-1.201463e-07
-1.234218e-07
-1.263933e-07
-1.290669e-07
-1.3145e-07
-1.335509e-07
-1.353785e-07
-1.369408e-07
-1.382459e-07
-1.393003e-07
-1.401092e-07
-1.406763e-07
-1.410029e-07
-1.410873e-07
-1.409253e-07
-1.405114e-07
-1.398238e-07
-1.387688e-07
-1.375339e-07
6.124388e-09
5.6679e-09
5.15131e-09
4.618136e-09
4.05897e-09
3.479095e-09
2.881402e-09
2.26936e-09
1.646227e-09
1.013044e-09
3.690245e-10
-2.861914e-10
-9.527296e-10
-1.633931e-09
-2.329814e-09
-3.04083e-09
-3.7697e-09
-4.517153e-09
-5.283555e-09
-6.06863e-09
-6.871915e-09
-7.693188e-09
-8.532053e-09
-9.385778e-09
-1.025164e-08
-1.112857e-08
-1.201261e-08
-1.289991e-08
-1.378681e-08
-1.467029e-08
-1.554562e-08
-1.640723e-08
-1.725074e-08
-1.807201e-08
-1.886509e-08
-1.962353e-08
-2.034206e-08
-2.101371e-08
-2.163166e-08
-2.218893e-08
-2.267757e-08
-2.309128e-08
-2.342207e-08
-2.366166e-08
-2.380285e-08
-2.383602e-08
-2.37537e-08
-2.354981e-08
-2.321556e-08
-2.274339e-08
-2.212702e-08
-2.136054e-08
-2.044028e-08
-1.936232e-08
-1.812292e-08
-1.672272e-08
-1.51649e-08
-1.345272e-08
-1.159208e-08
-9.592409e-09
-7.465242e-09
-5.225754e-09
-2.889704e-09
-4.707066e-10
2.011844e-09
4.53001e-09
7.052496e-09
9.547074e-09
1.197886e-08
1.430936e-08
1.649906e-08
1.850833e-08
2.029597e-08
2.182001e-08
2.304059e-08
2.39205e-08
2.442432e-08
2.451951e-08
2.417821e-08
2.337749e-08
2.209885e-08
2.032959e-08
1.806428e-08
1.530449e-08
1.205765e-08
8.33719e-09
4.163882e-09
-4.339149e-10
-5.422157e-09
-1.076265e-08
-1.641318e-08
-2.232715e-08
-2.84546e-08
-3.474359e-08
-4.114227e-08
-4.759881e-08
-5.40624e-08
-6.048483e-08
-6.68201e-08
-7.302533e-08
-7.906109e-08
-8.489185e-08
-9.048745e-08
-9.582336e-08
-1.008797e-07
-1.056407e-07
-1.100955e-07
-1.142376e-07
-1.180646e-07
-1.215775e-07
-1.247805e-07
-1.276793e-07
-1.302813e-07
-1.325956e-07
-1.346321e-07
-1.364009e-07
-1.379109e-07
-1.391703e-07
-1.401861e-07
-1.409628e-07
-1.415033e-07
-1.418066e-07
-1.418687e-07
-1.416815e-07
-1.412357e-07
-1.405043e-07
-1.393835e-07
-1.380724e-07
6.990687e-09
6.423337e-09
5.806133e-09
5.201176e-09
4.591097e-09
3.973575e-09
3.351944e-09
2.728398e-09
2.102445e-09
1.472647e-09
8.382132e-10
1.963991e-10
-4.552012e-10
-1.119999e-09
-1.797919e-09
-2.492365e-09
-3.206339e-09
-3.93946e-09
-4.692597e-09
-5.467418e-09
-6.264633e-09
-7.08147e-09
-7.918018e-09
-8.774344e-09
-9.646031e-09
-1.05311e-08
-1.142738e-08
-1.233127e-08
-1.323915e-08
-1.4147e-08
-1.505085e-08
-1.594659e-08
-1.682915e-08
-1.769423e-08
-1.853688e-08
-1.93507e-08
-2.013009e-08
-2.086877e-08
-2.156042e-08
-2.219713e-08
-2.277092e-08
-2.327682e-08
-2.370663e-08
-2.405057e-08
-2.430097e-08
-2.444938e-08
-2.448843e-08
-2.440985e-08
-2.420343e-08
-2.386235e-08
-2.338017e-08
-2.274882e-08
-2.196272e-08
-2.101755e-08
-1.990943e-08
-1.863804e-08
-1.720481e-08
-1.561145e-08
-1.386353e-08
-1.197049e-08
-9.942667e-09
-7.793869e-09
-5.539787e-09
-3.192153e-09
-7.676979e-10
1.706466e-09
4.199144e-09
6.677755e-09
9.107189e-09
1.144849e-08
1.366131e-08
1.570508e-08
1.753744e-08
1.91148e-08
2.039568e-08
2.134184e-08
2.191676e-08
2.208583e-08
2.18188e-08
2.109094e-08
1.988269e-08
1.818003e-08
1.597599e-08
1.327052e-08
1.006982e-08
6.38691e-09
2.242569e-09
-2.334892e-09
-7.311611e-09
-1.264927e-08
-1.830493e-08
-2.423063e-08
-3.03748e-08
-3.668423e-08
-4.310541e-08
-4.958529e-08
-5.607151e-08
-6.251325e-08
-6.886319e-08
-7.50775e-08
-8.111584e-08
-8.694215e-08
-9.252567e-08
-9.78412e-08
-1.028686e-07
-1.075923e-07
-1.12002e-07
-1.160921e-07
-1.198618e-07
-1.233131e-07
-1.264511e-07
-1.292829e-07
-1.31818e-07
-1.340668e-07
-1.360406e-07
-1.377507e-07
-1.392073e-07
-1.404193e-07
-1.413936e-07
-1.42135e-07
-1.426457e-07
-1.429234e-07
-1.429619e-07
-1.427509e-07
-1.422788e-07
-1.415145e-07
-1.403489e-07
-1.389878e-07
7.880583e-09
7.193885e-09
6.471406e-09
5.790599e-09
5.120908e-09
4.460386e-09
3.811392e-09
3.171607e-09
2.537946e-09
1.908476e-09
1.279768e-09
6.464911e-10
6.549836e-12
-6.447644e-10
-1.309168e-09
-1.991192e-09
-2.693695e-09
-3.416239e-09
-4.162394e-09
-4.93247e-09
-5.727362e-09
-6.545921e-09
-7.387808e-09
-8.253201e-09
-9.137875e-09
-1.003962e-08
-1.095779e-08
-1.188827e-08
-1.282725e-08
-1.37715e-08
-1.471664e-08
-1.565952e-08
-1.659618e-08
-1.752131e-08
-1.842924e-08
-1.931569e-08
-2.017599e-08
-2.10018e-08
-2.178649e-08
-2.252424e-08
-2.32076e-08
-2.38298e-08
-2.43816e-08
-2.485461e-08
-2.524183e-08
-2.553281e-08
-2.571875e-08
-2.579182e-08
-2.574178e-08
-2.556016e-08
-2.523871e-08
-2.47683e-08
-2.414276e-08
-2.335693e-08
-2.240533e-08
-2.128572e-08
-1.999868e-08
-1.854565e-08
-1.693084e-08
-1.516169e-08
-1.32476e-08
-1.120257e-08
-9.04279e-09
-6.776503e-09
-4.416437e-09
-1.989287e-09
4.738228e-10
2.940206e-09
5.374699e-09
7.738275e-09
9.98981e-09
1.208705e-08
1.398589e-08
1.564165e-08
1.701184e-08
1.805654e-08
1.873683e-08
1.901554e-08
1.886025e-08
1.824448e-08
1.714688e-08
1.555114e-08
1.344793e-08
1.083533e-08
7.718281e-09
4.108999e-09
2.758405e-11
-4.498544e-09
-9.436087e-09
-1.47465e-08
-2.038604e-08
-2.630566e-08
-3.245236e-08
-3.87719e-08
-4.520937e-08
-5.170987e-08
-5.821896e-08
-6.468373e-08
-7.105449e-08
-7.728581e-08
-8.333673e-08
-8.916996e-08
-9.47537e-08
-1.000618e-07
-1.050735e-07
-1.097734e-07
-1.141514e-07
-1.182026e-07
-1.219265e-07
-1.253263e-07
-1.284085e-07
-1.311814e-07
-1.33656e-07
-1.358444e-07
-1.377594e-07
-1.394136e-07
-1.408183e-07
-1.419834e-07
-1.429166e-07
-1.436224e-07
-1.44103e-07
-1.443553e-07
-1.44372e-07
-1.441414e-07
-1.436504e-07
-1.428655e-07
-1.416753e-07
-1.402885e-07
8.76738e-09
7.95789e-09
7.125316e-09
6.361686e-09
5.628957e-09
4.922997e-09
4.241882e-09
3.581534e-09
2.937443e-09
2.304793e-09
1.677677e-09
1.049888e-09
4.188422e-10
-2.229904e-10
-8.788283e-10
-1.552145e-09
-2.247372e-09
-2.964048e-09
-3.70815e-09
-4.480212e-09
-5.278693e-09
-6.105208e-09
-6.960194e-09
-7.842405e-09
-8.748328e-09
-9.676326e-09
-1.062674e-08
-1.15956e-08
-1.257714e-08
-1.356982e-08
-1.457181e-08
-1.557839e-08
-1.658402e-08
-1.758602e-08
-1.858014e-08
-1.956018e-08
-2.052103e-08
-2.145618e-08
-2.235985e-08
-2.322483e-08
-2.404287e-08
-2.480847e-08
-2.551279e-08
-2.614595e-08
-2.669998e-08
-2.716473e-08
-2.753122e-08
-2.779037e-08
-2.793042e-08
-2.79417e-08
-2.781521e-08
-2.754093e-08
-2.711089e-08
-2.651769e-08
-2.575484e-08
-2.481969e-08
-2.371114e-08
-2.242823e-08
-2.097376e-08
-1.93545e-08
-1.75787e-08
-1.565918e-08
-1.361274e-08
-1.144493e-08
-9.163466e-09
-6.793791e-09
-4.366732e-09
-1.914112e-09
5.294236e-10
2.924145e-09
5.22735e-09
7.39536e-09
9.383195e-09
1.114529e-08
1.263734e-08
1.381678e-08
1.464197e-08
1.507331e-08
1.507614e-08
1.462152e-08
1.36852e-08
1.224781e-08
1.029716e-08
7.829211e-09
4.847241e-09
1.361697e-09
-2.608967e-09
-7.038773e-09
-1.189526e-08
-1.713989e-08
-2.272823e-08
-2.861072e-08
-3.47337e-08
-4.104165e-08
-4.747814e-08
-5.398617e-08
-6.050903e-08
-6.699174e-08
-7.338242e-08
-7.963387e-08
-8.570277e-08
-9.155017e-08
-9.714299e-08
-1.024541e-07
-1.07462e-07
-1.121509e-07
-1.165105e-07
-1.205357e-07
-1.242264e-07
-1.275865e-07
-1.306233e-07
-1.333472e-07
-1.357702e-07
-1.37906e-07
-1.397686e-07
-1.413719e-07
-1.427289e-07
-1.438504e-07
-1.447449e-07
-1.454177e-07
-1.458705e-07
-1.461004e-07
-1.460994e-07
-1.458556e-07
-1.453544e-07
-1.445617e-07
-1.433657e-07
-1.419752e-07
9.62801e-09
8.692131e-09
7.742153e-09
6.892113e-09
6.095153e-09
5.340102e-09
4.62335e-09
3.940181e-09
3.282794e-09
2.642842e-09
2.014141e-09
1.389232e-09
7.630843e-10
1.265491e-10
-5.242748e-10
-1.192472e-09
-1.885392e-09
-2.60364e-09
-3.350514e-09
-4.129343e-09
-4.939288e-09
-5.782158e-09
-6.658026e-09
-7.564946e-09
-8.502045e-09
-9.468595e-09
-1.046212e-08
-1.147997e-08
-1.251918e-08
-1.357673e-08
-1.464998e-08
-1.573666e-08
-1.683199e-08
-1.793172e-08
-1.903194e-08
-2.012831e-08
-2.121612e-08
-2.228754e-08
-2.333668e-08
-2.435784e-08
-2.534314e-08
-2.62857e-08
-2.717584e-08
-2.800412e-08
-2.876284e-08
-2.944092e-08
-3.00278e-08
-3.051307e-08
-3.088449e-08
-3.113195e-08
-3.124452e-08
-3.120956e-08
-3.101762e-08
-3.06608e-08
-3.013111e-08
-2.942345e-08
-2.853451e-08
-2.746166e-08
-2.620639e-08
-2.47742e-08
-2.317144e-08
-2.140869e-08
-1.950281e-08
-1.745954e-08
-1.528128e-08
-1.298856e-08
-1.061072e-08
-8.178714e-09
-5.727556e-09
-3.297881e-09
-9.330881e-10
1.322584e-09
3.423186e-09
5.321446e-09
6.970758e-09
8.325813e-09
9.342238e-09
9.97787e-09
1.019506e-08
9.961406e-09
9.248753e-09
8.034231e-09
6.302443e-09
4.046566e-09
1.26705e-09
-2.028538e-09
-5.824278e-09
-1.00961e-08
-1.481267e-08
-1.99362e-08
-2.54225e-08
-3.122188e-08
-3.728036e-08
-4.354124e-08
-4.994644e-08
-5.643695e-08
-6.295373e-08
-6.943968e-08
-7.584106e-08
-8.210773e-08
-8.819352e-08
-9.405767e-08
-9.966477e-08
-1.049862e-07
-1.099997e-07
-1.146888e-07
-1.190423e-07
-1.230542e-07
-1.267245e-07
-1.300578e-07
-1.330623e-07
-1.357492e-07
-1.381318e-07
-1.402251e-07
-1.420443e-07
-1.43605e-07
-1.449211e-07
-1.460048e-07
-1.468658e-07
-1.475103e-07
-1.479403e-07
-1.481533e-07
-1.481408e-07
-1.478916e-07
-1.473896e-07
-1.46602e-07
-1.454174e-07
-1.440427e-07
1.043641e-08
9.368438e-09
8.299458e-09
7.36133e-09
6.495883e-09
5.68899e-09
4.935768e-09
4.227505e-09
3.553617e-09
2.904403e-09
2.272318e-09
1.646727e-09
1.020635e-09
3.857987e-10
-2.633673e-10
-9.321246e-10
-1.627668e-09
-2.352687e-09
-3.109427e-09
-3.90218e-09
-4.731626e-09
-5.598045e-09
-6.503578e-09
-7.446942e-09
-8.42573e-09
-9.441028e-09
-1.049209e-08
-1.157401e-08
-1.268444e-08
-1.38234e-08
-1.498829e-08
-1.617502e-08
-1.737959e-08
-1.86001e-08
-1.983311e-08
-2.107302e-08
-2.231486e-08
-2.35525e-08
-2.47811e-08
-2.599412e-08
-2.718269e-08
-2.833997e-08
-2.945696e-08
-3.052434e-08
-3.153315e-08
-3.247062e-08
-3.332545e-08
-3.408736e-08
-3.4743e-08
-3.527966e-08
-3.56843e-08
-3.594317e-08
-3.604557e-08
-3.598167e-08
-3.574106e-08
-3.531597e-08
-3.470086e-08
-3.389163e-08
-3.288798e-08
-3.16927e-08
-3.030924e-08
-2.874601e-08
-2.701962e-08
-2.513857e-08
-2.309861e-08
-2.091111e-08
-1.86041e-08
-1.620795e-08
-1.375749e-08
-1.129344e-08
-8.85944e-09
-6.500211e-09
-4.262827e-09
-2.196656e-09
-3.508226e-10
1.226772e-09
2.488958e-09
3.390293e-09
3.889043e-09
3.948479e-09
3.536066e-09
2.624906e-09
1.195518e-09
-7.630016e-10
-3.25439e-09
-6.274994e-09
-9.81206e-09
-1.384423e-08
-1.834235e-08
-2.327021e-08
-2.858491e-08
-3.42372e-08
-4.017307e-08
-4.633499e-08
-5.266314e-08
-5.909682e-08
-6.557521e-08
-7.203858e-08
-7.843043e-08
-8.469794e-08
-9.079196e-08
-9.666852e-08
-1.0229e-07
-1.07626e-07
-1.12652e-07
-1.173502e-07
-1.21708e-07
-1.257191e-07
-1.293828e-07
-1.327035e-07
-1.356899e-07
-1.383537e-07
-1.407092e-07
-1.427723e-07
-1.445598e-07
-1.460883e-07
-1.473733e-07
-1.484281e-07
-1.492637e-07
-1.498873e-07
-1.50302e-07
-1.505053e-07
-1.504896e-07
-1.502435e-07
-1.497513e-07
-1.489807e-07
-1.478234e-07
-1.46481e-07
1.116492e-08
9.963049e-09
8.773354e-09
7.743499e-09
6.807608e-09
5.948282e-09
5.156766e-09
4.420679e-09
3.728577e-09
3.06856e-09
2.429709e-09
1.800167e-09
1.171276e-09
5.341688e-10
-1.182696e-10
-7.935331e-10
-1.498078e-09
-2.235146e-09
-3.00902e-09
-3.823338e-09
-4.68127e-09
-5.581546e-09
-6.525382e-09
-7.515553e-09
-8.550746e-09
-9.628528e-09
-1.074898e-08
-1.191108e-08
-1.311278e-08
-1.435236e-08
-1.562758e-08
-1.693656e-08
-1.827656e-08
-1.964519e-08
-2.103834e-08
-2.245151e-08
-2.388124e-08
-2.532178e-08
-2.676784e-08
-2.821234e-08
-2.964676e-08
-3.106516e-08
-3.245843e-08
-3.381588e-08
-3.512742e-08
-3.638017e-08
-3.75625e-08
-3.866254e-08
-3.966499e-08
-4.055522e-08
-4.131859e-08
-4.193998e-08
-4.240668e-08
-4.27059e-08
-4.282429e-08
-4.275187e-08
-4.248099e-08
-4.200471e-08
-4.131948e-08
-4.042498e-08
-3.932202e-08
-3.80162e-08
-3.652225e-08
-3.485266e-08
-3.299739e-08
-3.095559e-08
-2.87522e-08
-2.641666e-08
-2.398291e-08
-2.149087e-08
-1.898399e-08
-1.650766e-08
-1.411033e-08
-1.18432e-08
-9.757591e-09
-7.904165e-09
-6.333637e-09
-5.095636e-09
-4.23654e-09
-3.798008e-09
-3.817559e-09
-4.327253e-09
-5.351991e-09
-6.908222e-09
-9.004949e-09
-1.16435e-08
-1.481548e-08
-1.850336e-08
-2.268163e-08
-2.731686e-08
-3.236841e-08
-3.778817e-08
-4.352235e-08
-4.95134e-08
-5.570063e-08
-6.202153e-08
-6.84133e-08
-7.481386e-08
-8.116358e-08
-8.74062e-08
-9.348938e-08
-9.93661e-08
-1.049957e-07
-1.103446e-07
-1.153862e-07
-1.200996e-07
-1.244707e-07
-1.284921e-07
-1.321623e-07
-1.354852e-07
-1.384688e-07
-1.411249e-07
-1.434684e-07
-1.455161e-07
-1.47286e-07
-1.487958e-07
-1.500624e-07
-1.511002e-07
-1.519214e-07
-1.525343e-07
-1.529431e-07
-1.531461e-07
-1.531366e-07
-1.529032e-07
-1.524313e-07
-1.516893e-07
-1.505732e-07
-1.492774e-07
1.178869e-08
1.045014e-08
9.135861e-09
8.013405e-09
7.006542e-09
6.092899e-09
5.260931e-09
4.496049e-09
3.784612e-09
3.111767e-09
2.462782e-09
1.825997e-09
1.191529e-09
5.47969e-10
-1.131587e-10
-8.004807e-10
-1.52019e-09
-2.275698e-09
-3.075403e-09
-3.921406e-09
-4.814548e-09
-5.75804e-09
-6.754789e-09
-7.804944e-09
-8.90723e-09
-1.006218e-08
-1.127068e-08
-1.253157e-08
-1.384293e-08
-1.520397e-08
-1.661406e-08
-1.807205e-08
-1.957509e-08
-2.112125e-08
-2.270735e-08
-2.43301e-08
-2.598671e-08
-2.76712e-08
-2.937835e-08
-3.110181e-08
-3.283371e-08
-3.456784e-08
-3.629433e-08
-3.800216e-08
-3.968095e-08
-4.13171e-08
-4.289786e-08
-4.440957e-08
-4.583506e-08
-4.715828e-08
-4.836291e-08
-4.94313e-08
-5.034782e-08
-5.109685e-08
-5.166234e-08
-5.203135e-08
-5.219278e-08
-5.2136e-08
-5.185383e-08
-5.134239e-08
-5.059905e-08
-4.962569e-08
-4.843346e-08
-4.703701e-08
-4.542563e-08
-4.35852e-08
-4.153162e-08
-3.929264e-08
-3.690062e-08
-3.439429e-08
-3.181669e-08
-2.921361e-08
-2.663444e-08
-2.413185e-08
-2.17595e-08
-1.957127e-08
-1.762198e-08
-1.596608e-08
-1.465495e-08
-1.373592e-08
-1.325258e-08
-1.324367e-08
-1.374078e-08
-1.476726e-08
-1.633871e-08
-1.84628e-08
-2.113719e-08
-2.434981e-08
-2.808038e-08
-3.229962e-08
-3.696996e-08
-4.204582e-08
-4.747476e-08
-5.319962e-08
-5.915962e-08
-6.529123e-08
-7.15295e-08
-7.780958e-08
-8.406869e-08
-9.024708e-08
-9.628882e-08
-1.021432e-07
-1.077657e-07
-1.131194e-07
-1.181736e-07
-1.229043e-07
-1.272951e-07
-1.313363e-07
-1.350254e-07
-1.383649e-07
-1.413617e-07
-1.440268e-07
-1.463752e-07
-1.484243e-07
-1.501932e-07
-1.517007e-07
-1.529643e-07
-1.539997e-07
-1.548202e-07
-1.554351e-07
-1.558498e-07
-1.560636e-07
-1.560706e-07
-1.558607e-07
-1.554194e-07
-1.547172e-07
-1.536543e-07
-1.524173e-07
1.228049e-08
1.080089e-08
9.360438e-09
8.145121e-09
7.065942e-09
6.096542e-09
5.22397e-09
4.430439e-09
3.69708e-09
3.008098e-09
2.347527e-09
1.701715e-09
1.057615e-09
4.01108e-10
-2.737457e-10
-9.771113e-10
-1.719426e-09
-2.503486e-09
-3.335455e-09
-4.221254e-09
-5.162228e-09
-6.161098e-09
-7.221795e-09
-8.345544e-09
-9.531223e-09
-1.078054e-08
-1.209538e-08
-1.347503e-08
-1.491857e-08
-1.642618e-08
-1.79982e-08
-1.963431e-08
-2.13322e-08
-2.309094e-08
-2.490847e-08
-2.678225e-08
-2.871003e-08
-3.068643e-08
-3.270697e-08
-3.47657e-08
-3.685488e-08
-3.896841e-08
-4.109624e-08
-4.32271e-08
-4.535014e-08
-4.745063e-08
-4.951437e-08
-5.15264e-08
-5.346798e-08
-5.532086e-08
-5.706621e-08
-5.868379e-08
-6.015502e-08
-6.146094e-08
-6.258188e-08
-6.350108e-08
-6.420334e-08
-6.467357e-08
-6.490007e-08
-6.487455e-08
-6.459004e-08
-6.404373e-08
-6.324143e-08
-6.219563e-08
-6.09022e-08
-5.933508e-08
-5.749241e-08
-5.539889e-08
-5.308493e-08
-5.058764e-08
-4.794898e-08
-4.521444e-08
-4.243382e-08
-3.966111e-08
-3.695262e-08
-3.436579e-08
-3.19598e-08
-2.979415e-08
-2.792593e-08
-2.640917e-08
-2.529485e-08
-2.462975e-08
-2.445361e-08
-2.479801e-08