/*--------------------------------*- C++ -*----------------------------------*\
| =========                 |                                                 |
| \\      /  F ield         | OpenFOAM: The Open Source CFD Toolbox           |
|  \\    /   O peration     | Version:  2406                                  |
|   \\  /    A nd           | Website:  www.openfoam.com                      |
|    \\/     M anipulation  |                                                 |
\*---------------------------------------------------------------------------*/
FoamFile
{
    version     2.0;
    format      ascii;
    arch        "LSB;label=32;scalar=64";
    class       surfaceScalarField;
    location    "500";
    object      phi;
}
// * * * * * * * * * * * * * * * * * * * * * * * * * * * * * * * * * * * * * //

dimensions      [0 3 -1 0 0 0 0];

oriented        oriented;

internalField   nonuniform List<scalar> 
32512
(
6.337059e-11
-2.108065e-10
4.466199e-10
-3.813782e-10
8.075022e-10
-3.620172e-10
1.082399e-09
-2.775015e-10
1.225858e-09
-1.433558e-10
1.220198e-09
7.223193e-12
1.063281e-09
1.559014e-10
7.65889e-10
2.973847e-10
3.390761e-10
4.278904e-10
-2.076154e-10
5.43021e-10
-8.550139e-10
6.479217e-10
-1.593443e-09
7.37771e-10
-2.408639e-09
8.142922e-10
-3.288784e-09
8.821911e-10
-4.229784e-09
9.393156e-10
-5.221756e-09
9.904081e-10
-6.259161e-09
1.039792e-09
-7.341366e-09
1.084346e-09
-8.466881e-09
1.125498e-09
-9.631617e-09
1.168203e-09
-1.08419e-08
1.210704e-09
-1.20983e-08
1.253802e-09
-1.339932e-08
1.301263e-09
-1.475125e-08
1.351984e-09
-1.615593e-08
1.404729e-09
-1.761676e-08
1.460876e-09
-1.913594e-08
1.520336e-09
-2.071911e-08
1.582176e-09
-2.236782e-08
1.646624e-09
-2.408446e-08
1.714523e-09
-2.586991e-08
1.785543e-09
-2.772578e-08
1.856811e-09
-2.965455e-08
1.928193e-09
-3.165425e-08
2.00034e-09
-3.372589e-08
2.072016e-09
-3.586859e-08
2.141803e-09
-3.807963e-08
2.209393e-09
-4.035468e-08
2.274786e-09
-4.26903e-08
2.336316e-09
-4.508359e-08
2.392715e-09
-4.752631e-08
2.442641e-09
-5.001247e-08
2.485552e-09
-5.25341e-08
2.521462e-09
-5.508093e-08
2.547548e-09
-5.764594e-08
2.56252e-09
-6.021425e-08
2.566532e-09
-6.277202e-08
2.557377e-09
-6.530904e-08
2.534524e-09
-6.780708e-08
2.496976e-09
-7.02502e-08
2.441904e-09
-7.262322e-08
2.369894e-09
-7.490416e-08
2.280898e-09
-7.707517e-08
2.171646e-09
-7.911953e-08
2.041862e-09
-8.101305e-08
1.892624e-09
-8.273379e-08
1.721961e-09
-8.426406e-08
1.529191e-09
-8.558083e-08
1.315726e-09
-8.666038e-08
1.080448e-09
-8.748445e-08
8.228153e-10
-8.803228e-08
5.459113e-10
-8.828092e-08
2.50509e-10
-8.821407e-08
-6.533394e-11
-8.781666e-08
-3.994577e-10
-8.706923e-08
-7.475331e-10
-8.595742e-08
-1.108601e-09
-8.447491e-08
-1.481453e-09
-8.261447e-08
-1.861209e-09
-8.03689e-08
-2.243694e-09
-7.773929e-08
-2.62694e-09
-7.473219e-08
-3.006987e-09
-7.135419e-08
-3.377924e-09
-6.761624e-08
-3.73574e-09
-6.353674e-08
-4.078016e-09
-5.913758e-08
-4.400375e-09
-5.444182e-08
-4.69652e-09
-4.947701e-08
-4.962125e-09
-4.42781e-08
-5.195484e-09
-3.888365e-08
-5.393803e-09
-3.333173e-08
-5.552324e-09
-2.766195e-08
-5.667906e-09
-2.191906e-08
-5.740135e-09
-1.615045e-08
-5.768085e-09
-1.040109e-08
-5.749535e-09
-4.715397e-09
-5.683792e-09
8.600561e-10
-5.572603e-09
6.279069e-09
-5.417968e-09
1.149935e-08
-5.220632e-09
1.648242e-08
-4.982029e-09
2.119097e-08
-4.706004e-09
2.558966e-08
-4.397293e-09
2.964868e-08
-4.05967e-09
3.334444e-08
-3.696291e-09
3.665736e-08
-3.311358e-09
3.957051e-08
-2.910315e-09
4.207126e-08
-2.498657e-09
4.415336e-08
-2.081335e-09
4.581599e-08
-1.662382e-09
4.706314e-08
-1.24619e-09
4.790168e-08
-8.376073e-10
4.834221e-08
-4.408215e-10
4.839989e-08
-5.910834e-11
4.809321e-08
3.05211e-10
4.744304e-08
6.498146e-10
4.647129e-08
9.718829e-10
4.520103e-08
1.269476e-09
4.365755e-08
1.541944e-09
4.186729e-08
1.78924e-09
3.985615e-08
2.01125e-09
3.764913e-08
2.207569e-09
3.527128e-08
2.377907e-09
3.274754e-08
2.522768e-09
3.010409e-08
2.64287e-09
2.736655e-08
2.738117e-09
2.455951e-08
2.807884e-09
2.170909e-08
2.851024e-09
1.88437e-08
2.86545e-09
1.599541e-08
2.848026e-09
1.320142e-08
2.794006e-09
1.050488e-08
2.696799e-09
7.957026e-09
2.548304e-09
5.619257e-09
2.338561e-09
3.564464e-09
2.055456e-09
1.876351e-09
1.687698e-09
6.445944e-10
1.230938e-09
-5.338243e-11
6.979762e-10
-2.024338e-10
1.497037e-10
-2.010842e-10
1.946581e-10
-4.046049e-10
7.106002e-10
-9.02898e-10
1.257339e-09
-9.068045e-10
1.604531e-09
-6.263948e-10
1.654748e-09
-1.923929e-10
1.349297e-09
3.110148e-10
6.718834e-10
8.308608e-10
-3.692832e-10
1.338963e-09
-1.756559e-09
1.811624e-09
-3.456875e-09
2.24516e-09
-5.444633e-09
2.631549e-09
-7.686511e-09
2.972919e-09
-1.014687e-08
3.276818e-09
-1.280576e-08
3.541049e-09
-1.563945e-08
3.772823e-09
-1.862667e-08
3.983136e-09
-2.176122e-08
4.174083e-09
-2.503176e-08
4.35181e-09
-2.842954e-08
4.526002e-09
-3.195555e-08
4.697199e-09
-3.56144e-08
4.867405e-09
-3.940416e-08
5.044273e-09
-4.333066e-08
5.229956e-09
-4.740526e-08
5.423737e-09
-5.163019e-08
5.628569e-09
-5.601423e-08
5.846187e-09
-6.05651e-08
6.07385e-09
-6.529199e-08
6.309812e-09
-7.019834e-08
6.555592e-09
-7.529088e-08
6.809301e-09
-8.057565e-08
7.068867e-09
-8.605219e-08
7.33285e-09
-9.17221e-08
7.599358e-09
-9.758394e-08
7.865592e-09
-1.036371e-07
8.127181e-09
-1.098758e-07
8.381554e-09
-1.162913e-07
8.626703e-09
-1.228738e-07
8.859803e-09
-1.296109e-07
9.076023e-09
-1.364897e-07
9.271174e-09
-1.434882e-07
9.443003e-09
-1.505861e-07
9.586975e-09
-1.577626e-07
9.698567e-09
-1.649875e-07
9.773498e-09
-1.722329e-07
9.806602e-09
-1.794641e-07
9.795602e-09
-1.866415e-07
9.736246e-09
-1.937308e-07
9.621795e-09
-2.006872e-07
9.449787e-09
-2.074619e-07
9.217283e-09
-2.140105e-07
8.918667e-09
-2.202819e-07
8.551259e-09
-2.26222e-07
8.11269e-09
-2.317792e-07
7.598656e-09
-2.368967e-07
7.008258e-09
-2.415157e-07
6.342065e-09
-2.455822e-07
5.596929e-09
-2.490407e-07
4.771639e-09
-2.518322e-07
3.870156e-09
-2.539017e-07
2.894391e-09
-2.551993e-07
1.844238e-09
-2.556742e-07
7.240666e-10
-2.552789e-07
-4.602065e-10
-2.53972e-07
-1.70497e-09
-2.517154e-07
-3.003881e-09
-2.484771e-07
-4.346009e-09
-2.442348e-07
-5.721085e-09
-2.389746e-07
-7.119988e-09
-2.326886e-07
-8.530032e-09
-2.253799e-07
-9.935451e-09
-2.170633e-07
-1.132205e-08
-2.077632e-07
-1.267739e-08
-1.975144e-07
-1.398689e-08
-1.863623e-07
-1.523353e-08
-1.74362e-07
-1.640185e-08
-1.615793e-07
-1.747893e-08
-1.480912e-07
-1.84513e-08
-1.339841e-07
-1.930468e-08
-1.193522e-07
-2.002711e-08
-1.042965e-07
-2.060968e-08
-8.892374e-08
-2.104393e-08
-7.334643e-08
-2.132136e-08
-5.768118e-08
-2.143624e-08
-4.204577e-08
-2.138691e-08
-2.655862e-08
-2.117381e-08
-1.133807e-08
-2.079754e-08
3.500704e-09
-2.026064e-08
1.784684e-08
-1.956936e-08
3.159513e-08
-1.873287e-08
4.464683e-08
-1.776162e-08
5.691165e-08
-1.6667e-08
6.831029e-08
-1.546209e-08
7.87745e-08
-1.416187e-08
8.82462e-08
-1.278269e-08
9.66776e-08
-1.134148e-08
1.040329e-07
-9.854914e-09
1.102907e-07
-8.339881e-09
1.154412e-07
-6.813378e-09
1.19486e-07
-5.291844e-09
1.224376e-07
-3.790762e-09
1.243184e-07
-2.323702e-09
1.251618e-07
-9.032863e-10
1.250091e-07
4.583138e-10
1.239078e-07
1.75099e-09
1.219119e-07
2.966851e-09
1.190805e-07
4.099918e-09
1.154769e-07
5.14565e-09
1.111677e-07
6.100334e-09
1.062197e-07
6.961505e-09
1.007007e-07
7.728116e-09
9.468016e-08
8.399854e-09
8.822758e-08
8.976442e-09
8.141407e-08
9.457754e-09
7.431169e-08
9.842953e-09
6.699296e-08
1.012927e-08
5.953431e-08
1.031192e-08
5.201817e-08
1.038319e-08
4.453533e-08
1.033166e-08
3.718795e-08
1.01422e-08
3.009207e-08
9.794735e-09
2.337965e-08
9.263846e-09
1.720016e-08
8.520336e-09
1.172224e-08
7.534148e-09
7.127968e-09
6.282146e-09
3.595341e-09
4.764116e-09
1.262219e-09
3.032591e-09
1.509275e-10
1.262641e-09
-4.960404e-11
2.65574e-10
-6.712079e-10
7.192259e-10
-1.357177e-09
1.099518e-09
-1.28736e-09
1.177231e-09
-7.026824e-10
8.16058e-10
1.723654e-10
-6.502253e-11
1.190518e-09
-1.490134e-09
2.258128e-09
-3.462688e-09
3.305824e-09
-5.949658e-09
4.300929e-09
-8.919983e-09
5.216236e-09
-1.233158e-08
6.040971e-09
-1.613659e-08
6.780492e-09
-2.029844e-08
7.436419e-09
-2.477763e-08
8.01694e-09
-2.95373e-08
8.537973e-09
-3.455658e-08
9.006243e-09
-3.981811e-08
9.43474e-09
-4.530162e-08
9.839282e-09
-5.100385e-08
1.022929e-08
-5.692204e-08
1.061296e-08
-6.305394e-08
1.099992e-08
-6.940302e-08
1.139723e-08
-7.597899e-08
1.180701e-08
-8.279144e-08
1.223462e-08
-8.984585e-08
1.268417e-08
-9.715749e-08
1.315572e-08
-1.047356e-07
1.364827e-08
-1.125884e-07
1.416062e-08
-1.207243e-07
1.46916e-08
-1.291512e-07
1.523659e-08
-1.378754e-07
1.579126e-08
-1.468963e-07
1.635346e-08
-1.56215e-07
1.691819e-08
-1.658291e-07
1.747887e-08
-1.757327e-07
1.802868e-08
-1.859145e-07
1.856241e-08
-1.963602e-07
1.907358e-08
-2.070543e-07
1.955376e-08
-2.179742e-07
1.999534e-08
-2.290943e-07
2.039016e-08
-2.403823e-07
2.073138e-08
-2.518039e-07
2.100998e-08
-2.633223e-07
2.121506e-08
-2.748906e-07
2.133951e-08
-2.864591e-07
2.137455e-08
-2.979744e-07
2.130971e-08
-3.093776e-07
2.113749e-08
-3.206064e-07
2.084859e-08
-3.315917e-07
2.043334e-08
-3.422614e-07
1.988591e-08
-3.525413e-07
1.919873e-08
-3.623522e-07
1.836253e-08
-3.716136e-07
1.737273e-08
-3.802418e-07
1.622646e-08
-3.881493e-07
1.491833e-08
-3.952527e-07
1.344562e-08
-4.014674e-07
1.180965e-08
-4.067057e-07
1.001057e-08
-4.108838e-07
8.04969e-09
-4.139237e-07
5.933344e-09
-4.157473e-07
3.668424e-09
-4.162807e-07
1.260541e-09
-4.154597e-07
-1.280963e-09
-4.132244e-07
-3.941772e-09
-4.095192e-07
-6.706339e-09
-4.043028e-07
-9.557982e-09
-3.975485e-07
-1.247549e-08
-3.892363e-07
-1.543355e-08
-3.793575e-07
-1.840597e-08
-3.67923e-07
-2.136619e-08
-3.549603e-07
-2.428547e-08
-3.405069e-07
-2.713304e-08
-3.246149e-07
-2.987846e-08
-3.073555e-07
-3.249216e-08
-2.888148e-07
-3.49441e-08
-2.690908e-07
-3.720396e-08
-2.482959e-07
-3.924364e-08
-2.265593e-07
-4.103848e-08
-2.040217e-07
-4.256559e-08
-1.808306e-07
-4.380303e-08
-1.571416e-07
-4.473214e-08
-1.331208e-07
-4.533936e-08
-1.089414e-07
-4.56152e-08
-8.477664e-08
-4.555325e-08
-6.079925e-08
-4.515124e-08
-3.718352e-08
-4.441167e-08
-1.410162e-08
-4.334151e-08
8.280778e-09
-4.195218e-08
2.980636e-08
-4.025935e-08
5.032686e-08
-3.828272e-08
6.970494e-08
-3.604559e-08
8.781727e-08
-3.357475e-08
1.04556e-07
-3.090018e-08
1.198285e-07
-2.805372e-08
1.335578e-07
-2.506831e-08
1.456834e-07
-2.197845e-08
1.561643e-07
-1.881946e-08
1.64977e-07
-1.562608e-08
1.721153e-07
-1.243067e-08
1.775897e-07
-9.264461e-09
1.814248e-07
-6.157921e-09
1.836608e-07
-3.138996e-09
1.843516e-07
-2.325242e-10
1.835624e-07
2.540253e-09
1.813687e-07
5.16141e-09
1.778537e-07
7.61566e-09
1.731084e-07
9.891115e-09
1.672297e-07
1.197921e-08
1.603182e-07
1.387368e-08
1.524766e-07
1.556986e-08
1.438111e-07
1.706484e-08
1.3443e-07
1.835651e-08
1.244447e-07
1.944255e-08
1.139684e-07
2.031945e-08
1.031175e-07
2.098044e-08
9.201414e-08
2.141485e-08
8.078927e-08
2.16072e-08
6.958574e-08
2.153505e-08
5.856045e-08
2.116836e-08
4.788697e-08
2.046999e-08
3.775806e-08
1.939531e-08
2.838521e-08
1.789456e-08
1.999852e-08
1.592068e-08
1.283764e-08
1.344272e-08
7.130075e-09
1.047121e-08
3.058623e-09
7.103981e-09
7.083793e-10
3.614157e-09
6.590025e-10
2.191803e-10
-8.912951e-10
4.823783e-10
-1.622097e-09
5.029123e-10
-1.30648e-09
6.787381e-11
-2.718854e-10
-9.528581e-10
1.192462e-09
-2.637962e-09
2.879765e-09
-5.023238e-09
4.639999e-09
-8.098791e-09
6.382624e-09
-1.183985e-08
8.041187e-09
-1.620558e-08
9.576893e-09
-2.113931e-08
1.097837e-08
-2.659481e-08
1.223768e-08
-3.252441e-08
1.336188e-08
-3.887537e-08
1.437043e-08
-4.561412e-08
1.5277e-08
-5.270748e-08
1.609911e-08
-6.012974e-08
1.685939e-08
-6.786251e-08
1.757688e-08
-7.590014e-08
1.826614e-08
-8.423572e-08
1.894515e-08
-9.286747e-08
1.962994e-08
-1.018026e-07
2.032983e-08
-1.110473e-07
2.105082e-08
-1.206127e-07
2.180073e-08
-1.305085e-07
2.258327e-08
-1.407517e-07
2.339815e-08
-1.513525e-07
2.424674e-08
-1.623196e-07
2.512754e-08
-1.736649e-07
2.603573e-08
-1.853959e-07
2.696537e-08
-1.975155e-07
2.79103e-08
-2.100245e-07
2.886417e-08
-2.229226e-07
2.981723e-08
-2.362043e-07
3.075947e-08
-2.498573e-07
3.168105e-08
-2.638658e-07
3.257146e-08
-2.782101e-07
3.341882e-08
-2.928655e-07
3.420884e-08
-3.078001e-07
3.492938e-08
-3.229757e-07
3.556706e-08
-3.383497e-07
3.610703e-08
-3.538753e-07
3.653562e-08
-3.694968e-07
3.683641e-08
-3.851522e-07
3.69942e-08
-4.007752e-07
3.699615e-08
-4.162904e-07
3.682569e-08
-4.316203e-07
3.646663e-08
-4.466815e-07
3.590655e-08
-4.613788e-07
3.51317e-08
-4.756189e-07
3.41277e-08
-4.89306e-07
3.288362e-08
-5.023324e-07
3.138935e-08
-5.145921e-07
2.963449e-08
-5.259799e-07
2.761281e-08
-5.363825e-07
2.532111e-08
-5.456891e-07
2.275531e-08
-5.537947e-07
1.991416e-08
-5.60589e-07
1.680238e-08
-5.659636e-07
1.342655e-08
-5.698215e-07
9.793672e-09
-5.720693e-07
5.914731e-09
-5.726146e-07
1.805255e-09
-5.713762e-07
-2.517381e-09
-5.682843e-07
-7.032807e-09
-5.632759e-07
-1.171468e-08
-5.563017e-07
-1.653123e-08
-5.473293e-07
-2.144699e-08
-5.363399e-07
-2.642295e-08
-5.233293e-07
-3.141628e-08
-5.083139e-07
-3.638106e-08
-4.913297e-07
-4.127015e-08
-4.724284e-07
-4.603602e-08
-4.516796e-07
-5.06298e-08
-4.291734e-07
-5.500124e-08
-4.050181e-07
-5.910119e-08
-3.793383e-07
-6.288363e-08
-3.522774e-07
-6.630464e-08
-3.239958e-07
-6.932205e-08
-2.946666e-07
-7.189748e-08
-2.64474e-07
-7.399748e-08
-2.336137e-07
-7.559332e-08
-2.022923e-07
-7.666172e-08
-1.707237e-07
-7.718598e-08
-1.391239e-07
-7.715571e-08
-1.077095e-07
-7.656694e-08
-7.669887e-08
-7.542277e-08
-4.630846e-08
-7.37335e-08
-1.674723e-08
-7.151623e-08
1.178544e-08
-6.879433e-08
3.90995e-08
-6.559813e-08
6.501695e-08
-6.196467e-08
8.937593e-08
-5.793604e-08
1.120333e-07
-5.355854e-08
1.328644e-07
-4.888298e-08
1.517624e-07
-4.396365e-08
1.686405e-07
-3.885623e-08
1.834363e-07
-3.361619e-08
1.961101e-07
-2.829935e-08
2.066421e-07
-2.296065e-08
2.150323e-07
-1.765289e-08
2.21301e-07
-1.242599e-08
2.254883e-07
-7.326159e-09
2.276527e-07
-2.395825e-09
2.278676e-07
2.326949e-09
2.262198e-07
6.810014e-09
2.228093e-07
1.102659e-08
2.177465e-07
1.495447e-08
2.111509e-07
1.857583e-08
2.031481e-07
2.187715e-08
1.938695e-07
2.484827e-08
1.834519e-07
2.748177e-08
1.720364e-07
2.977151e-08
1.597693e-07
3.171055e-08
1.468e-07
3.32903e-08
1.332833e-07
3.449881e-08
1.193821e-07
3.53178e-08
1.05269e-07
3.572102e-08
9.113026e-08
3.567369e-08
7.716842e-08
3.513105e-08
6.360233e-08
3.403789e-08
5.066957e-08
3.232968e-08
3.862671e-08
2.993756e-08
2.774718e-08
2.679905e-08
1.831268e-08
2.287616e-08
1.059675e-08
1.818683e-08
4.846099e-09
1.285578e-08
1.260206e-09
7.201954e-09
1.918876e-09
1.1257e-10
-1.004751e-09
5.478466e-11
-1.56155e-09
-4.445841e-10
-8.041711e-10
-1.573313e-09
8.54002e-10
-3.445211e-09
3.066092e-09
-6.132763e-09
5.56409e-09
-9.651469e-09
8.163781e-09
-1.399651e-08
1.072991e-08
-1.913603e-08
1.317626e-08
-2.501545e-08
1.545792e-08
-3.158258e-08
1.754566e-08
-3.87798e-08
1.943316e-08
-4.654774e-08
2.113332e-08
-5.48379e-08
2.266313e-08
-6.360998e-08
2.40455e-08
-7.282184e-08
2.531084e-08
-8.244736e-08
2.648692e-08
-9.246892e-08
2.759873e-08
-1.028739e-07
2.867105e-08
-1.136542e-07
2.972895e-08
-1.248121e-07
3.078998e-08
-1.363561e-07
3.186911e-08
-1.48289e-07
3.298186e-08
-1.606247e-07
3.413577e-08
-1.733761e-07
3.533416e-08
-1.865577e-07
3.657848e-08
-2.001818e-07
3.787001e-08
-2.142593e-07
3.920489e-08
-2.288021e-07
4.05759e-08
-2.438163e-07
4.197608e-08
-2.59303e-07
4.339612e-08
-2.752629e-07
4.482421e-08
-2.916927e-07
4.624585e-08
-3.085818e-07
4.764658e-08
-3.259133e-07
4.901194e-08
-3.436659e-07
5.032462e-08
-3.618144e-07
5.156612e-08
-3.80323e-07
5.271629e-08
-3.991509e-07
5.375596e-08
-4.1825e-07
5.466605e-08
-4.375638e-07
5.542309e-08
-4.570346e-07
5.600462e-08
-4.765902e-07
5.638998e-08
-4.961505e-07
5.655613e-08
-5.156359e-07
5.648031e-08
-5.34953e-07
5.614108e-08
-5.540017e-07
5.551597e-08
-5.726809e-07
5.458378e-08
-5.908763e-07
5.332625e-08
-6.084711e-07
5.172487e-08
-6.253487e-07
4.976105e-08
-6.413818e-07
4.74209e-08
-6.564406e-07
4.469424e-08
-6.703975e-07
4.157129e-08
-6.831216e-07
3.804537e-08
-6.944816e-07
3.411498e-08
-7.043497e-07
2.978197e-08
-7.125985e-07
2.505173e-08
-7.191051e-07
1.993457e-08
-7.237556e-07
1.444476e-08
-7.264412e-07
8.600143e-09
-7.270582e-07
2.423334e-09
-7.255163e-07
-4.058357e-09
-7.217363e-07
-1.081268e-08
-7.156489e-07
-1.780075e-08
-7.072013e-07
-2.497668e-08
-6.963601e-07
-3.228814e-08
-6.831065e-07
-3.967707e-08
-6.674392e-07
-4.708133e-08
-6.493812e-07
-5.44362e-08
-6.289778e-07
-6.167434e-08
-6.062906e-07
-6.87258e-08
-5.814009e-07
-7.551991e-08
-5.544146e-07
-8.198672e-08
-5.254591e-07
-8.805705e-08
-4.946789e-07
-9.366376e-08
-4.622379e-07
-9.874379e-08
-4.283205e-07
-1.032383e-07
-3.931261e-07
-1.070925e-07
-3.568662e-07
-1.102577e-07
-3.197653e-07
-1.126927e-07
-2.820613e-07
-1.143642e-07
-2.439998e-07
-1.152475e-07
-2.058295e-07
-1.153263e-07
-1.678014e-07
-1.145941e-07
-1.301691e-07
-1.130538e-07
-9.318417e-08
-1.10718e-07
-5.709105e-08
-1.076097e-07
-2.212484e-08
-1.037612e-07
1.148938e-08
-9.921338e-08
4.353905e-08
-9.401525e-08
7.382814e-08
-8.822507e-08
1.021798e-07
-8.190908e-08
1.284371e-07
-7.513885e-08
1.524646e-07
-6.79899e-08
1.741498e-07
-6.054102e-08
1.93406e-07
-5.287263e-08
2.101721e-07
-4.506544e-08
2.244109e-07
-3.719882e-08
2.361085e-07
-2.934962e-08
2.452748e-07
-2.159175e-08
2.519429e-07
-1.39947e-08
2.561684e-07
-6.622063e-09
2.580261e-07
4.688239e-10
2.576083e-07
7.227578e-09
2.550232e-07
1.36112e-08
2.503936e-07
1.958357e-08
2.438548e-07
2.511461e-08
2.355517e-07
3.018038e-08
2.256379e-07
3.476208e-08
2.14275e-07
3.884466e-08
2.016311e-07
4.241531e-08
1.878822e-07
4.546124e-08
1.732096e-07
4.796654e-08
1.578007e-07
4.991076e-08
1.418528e-07
5.12669e-08
1.255748e-07
5.199835e-08
1.0919e-07
5.205745e-08
9.293746e-08
5.138407e-08
7.707194e-08
4.990482e-08
6.186634e-08
4.753592e-08
4.761274e-08
4.419044e-08
3.462049e-08
3.979031e-08
2.321105e-08
3.428596e-08
1.370943e-08
2.768993e-08
6.442121e-09
2.012553e-08
1.742349e-09
1.190353e-08
3.660946e-09
-3.847999e-11
-9.658645e-10
-5.150344e-10
-1.086282e-09
-1.66064e-09
3.400433e-10
-3.6247e-09
2.822828e-09
-6.50831e-09
5.945764e-09
-1.035222e-08
9.408378e-09
-1.516542e-08
1.297837e-08
-2.092799e-08
1.649131e-08
-2.759286e-08
1.984539e-08
-3.510901e-08
2.297424e-08
-4.341452e-08
2.584687e-08
-5.244104e-08
2.846005e-08
-6.212995e-08
3.082505e-08
-7.242851e-08
3.296262e-08
-8.328869e-08
3.490662e-08
-9.46691e-08
3.669528e-08
-1.065437e-07
3.836272e-08
-1.188919e-07
3.994471e-08
-1.316975e-07
4.147687e-08
-1.449563e-07
4.29888e-08
-1.5867e-07
4.450405e-08
-1.728438e-07
4.604354e-08
-1.874858e-07
4.762591e-08
-2.026116e-07
4.926035e-08
-2.182339e-07
5.095385e-08
-2.343653e-07
5.270961e-08
-2.510211e-07
5.452573e-08
-2.682133e-07
5.639614e-08
-2.85951e-07
5.831185e-08
-3.042401e-07
6.026367e-08
-3.230806e-07
6.223747e-08
-3.42472e-07
6.421521e-08
-3.624063e-07
6.617833e-08
-3.828676e-07
6.810733e-08
-4.038354e-07
6.998057e-08
-4.252821e-07
7.177266e-08
-4.471759e-07
7.345773e-08
-4.694706e-07
7.501043e-08
-4.921152e-07
7.640246e-08
-5.150544e-07
7.760487e-08
-5.382183e-07
7.858793e-08
-5.615339e-07
7.932033e-08
-5.849174e-07
7.977203e-08
-6.08273e-07
7.991334e-08
-6.315045e-07
7.971256e-08
-6.54503e-07
7.913851e-08
-6.771508e-07
7.816327e-08
-6.993265e-07
7.675969e-08
-7.208991e-07
7.490055e-08
-7.417351e-07
7.256137e-08
-7.616962e-07
6.972084e-08
-7.806352e-07
6.636065e-08
-7.984061e-07
6.246663e-08
-8.14863e-07
5.802819e-08
-8.298558e-07
5.303835e-08
-8.432367e-07
4.749611e-08
-8.548624e-07
4.140658e-08
-8.645896e-07
3.477932e-08
-8.722819e-07
2.762909e-08
-8.778141e-07
1.997706e-08
-8.810657e-07
1.18504e-08
-8.81923e-07
3.281566e-09
-8.802883e-07
-5.691537e-09
-8.760771e-07
-1.502418e-08
-8.692152e-07
-2.466281e-08
-8.596465e-07
-3.454455e-08
-8.473358e-07
-4.459858e-08
-8.322652e-07
-5.474766e-08
-8.144366e-07
-6.490876e-08
-7.938772e-07
-7.499455e-08
-7.706372e-07
-8.491545e-08
-7.447855e-07
-9.457981e-08
-7.164135e-07
-1.038936e-07
-6.856374e-07
-1.12763e-07
-6.52597e-07
-1.210971e-07
-6.174518e-07
-1.288089e-07
-5.803816e-07
-1.35814e-07
-5.41587e-07
-1.420331e-07
-5.012862e-07
-1.473941e-07
-4.597114e-07
-1.518326e-07
-4.171098e-07
-1.552934e-07
-3.737421e-07
-1.577312e-07
-3.298785e-07
-1.591117e-07
-2.857941e-07
-1.594119e-07
-2.417671e-07
-1.586205e-07
-1.980795e-07
-1.567396e-07
-1.550129e-07
-1.537845e-07
-1.128423e-07
-1.497823e-07
-7.183293e-08
-1.447723e-07
-3.224049e-08
-1.388061e-07
5.691307e-09
-1.319471e-07
4.173441e-08
-1.24269e-07
7.568044e-08
-1.158556e-07
1.073422e-07
-1.067998e-07
1.365542e-07
-9.720087e-08
1.63176e-07
-8.716309e-08
1.870949e-07
-7.679307e-08
2.082264e-07
-6.619791e-08
2.265125e-07
-5.548434e-08
2.419204e-07
-4.475685e-08
2.544447e-07
-3.411627e-08
2.641072e-07
-2.36583e-08
2.709553e-07
-1.347137e-08
2.750594e-07
-3.635808e-09
2.765107e-07
5.776328e-09
2.754202e-07
1.470198e-08
2.719168e-07
2.308701e-08
2.661463e-07
3.088558e-08
2.582673e-07
3.805996e-08
2.484501e-07
4.457981e-08
2.368764e-07
5.041994e-08
2.237367e-07
5.555752e-08
2.092306e-07
5.997038e-08
1.935664e-07
6.363404e-08
1.769605e-07
6.651897e-08
1.596397e-07
6.858823e-08
1.418439e-07
6.979382e-08
1.238271e-07
7.007449e-08
1.058586e-07
6.935418e-08
8.822279e-08
6.754202e-08
7.122325e-08
6.453607e-08
5.518329e-08
6.023047e-08
4.044557e-08
5.452804e-08
2.737306e-08
4.736015e-08
1.634726e-08
3.871754e-08
7.78122e-09
2.869457e-08
2.137833e-09
1.754792e-08
5.79957e-09
-2.231704e-10
-7.441711e-10
-1.18794e-09
-1.227532e-10
-3.074176e-09
2.228603e-09
-5.999521e-09
5.743778e-09
-1.001714e-08
9.968175e-09
-1.515428e-08
1.454601e-08
-2.139809e-08
1.921695e-08
-2.870417e-08
2.37988e-08
-3.702058e-08
2.816444e-08
-4.628472e-08
3.22374e-08
-5.642456e-08
3.598709e-08
-6.73696e-08
3.9408e-08
-7.905997e-08
4.25129e-08
-9.143422e-08
4.53351e-08
-1.044417e-07
4.791642e-08
-1.180451e-07
5.029958e-08
-1.322147e-07
5.25306e-08
-1.469276e-07
5.465707e-08
-1.621701e-07
5.67211e-08
-1.779403e-07
5.875759e-08
-1.94239e-07
6.079998e-08
-2.110698e-07
6.287614e-08
-2.284467e-07
6.500449e-08
-2.46384e-07
6.719708e-08
-2.648949e-07
6.946413e-08
-2.839939e-07
7.180937e-08
-3.036972e-07
7.422762e-08
-3.240164e-07
7.671234e-08
-3.449572e-07
7.92526e-08
-3.665267e-07
8.183316e-08
-3.887243e-07
8.443485e-08
-4.115454e-07
8.703489e-08
-4.349774e-07
8.960939e-08
-4.590005e-07
9.213141e-08
-4.835908e-07
9.457074e-08
-5.087134e-07
9.689526e-08
-5.343275e-07
9.907068e-08
-5.603803e-07
1.010626e-07
-5.868111e-07
1.02835e-07
-6.135541e-07
1.04348e-07
-6.40529e-07
1.055622e-07
-6.67649e-07
1.064394e-07
-6.948161e-07
1.069397e-07
-7.219231e-07
1.070221e-07
-7.488588e-07
1.066467e-07
-7.754967e-07
1.057755e-07
-8.017037e-07
1.043717e-07
-8.273437e-07
1.023998e-07
-8.522685e-07
9.9826e-08
-8.763272e-07
9.662037e-08
-8.993651e-07
9.275725e-08
-9.212179e-07
8.821438e-08
-9.417238e-07
8.297405e-08
-9.607221e-07
7.702496e-08
-9.78046e-07
7.036158e-08
-9.935327e-07
6.298388e-08
-1.007026e-06
5.489934e-08
-1.01837e-06
4.612344e-08
-1.027418e-06
3.667805e-08
-1.034031e-06
2.659144e-08
-1.038082e-06
1.590003e-08
-1.039448e-06
4.648274e-09
-1.038025e-06
-7.113085e-09
-1.033724e-06
-1.932594e-08
-1.026465e-06
-3.192186e-08
-1.016188e-06
-4.482049e-08
-1.002857e-06
-5.793046e-08
-9.864517e-07
-7.115251e-08
-9.669749e-07
-8.438263e-08
-9.444559e-07
-9.75121e-08
-9.189475e-07
-1.104266e-07
-8.905211e-07
-1.230086e-07
-8.592728e-07
-1.351408e-07
-8.253271e-07
-1.467069e-07
-7.888318e-07
-1.575925e-07
-7.499546e-07
-1.676864e-07
-7.088853e-07
-1.768823e-07
-6.658367e-07
-1.850807e-07
-6.210406e-07
-1.921899e-07
-5.747445e-07
-1.981282e-07
-5.272119e-07
-2.028248e-07
-4.787221e-07
-2.062205e-07
-4.295645e-07
-2.082695e-07
-3.800353e-07
-2.089407e-07
-3.304366e-07
-2.08218e-07
-2.81075e-07
-2.061005e-07
-2.322575e-07
-2.026027e-07
-1.842856e-07
-1.977553e-07
-1.374533e-07
-1.916052e-07
-9.204569e-08
-1.842142e-07
-4.833595e-08
-1.756579e-07
-6.580753e-09
-1.660254e-07
3.298143e-08
-1.55418e-07
7.013216e-08
-1.439498e-07
1.046753e-07
-1.31744e-07
1.364413e-07
-1.189305e-07
1.652895e-07
-1.056432e-07
1.911092e-07
-9.201799e-08
2.138179e-07
-7.819143e-08
2.333606e-07
-6.42984e-08
2.49713e-07
-5.046937e-08
2.628815e-07
-3.682868e-08
2.729011e-07
-2.349244e-08
2.798333e-07
-1.056764e-08
2.837629e-07
1.847903e-09
2.847986e-07
1.366699e-08
2.83071e-07
2.4814e-08
2.787314e-07
3.522432e-08
2.71948e-07
4.484329e-08
2.629035e-07
5.362503e-08
2.517942e-07
6.153053e-08
2.388284e-07
6.852464e-08
2.242264e-07
7.457384e-08
2.082191e-07
7.964298e-08
1.910479e-07
8.369178e-08
1.729649e-07
8.667174e-08
1.542362e-07
8.85228e-08
1.351423e-07
8.916987e-08
1.159785e-07
8.85205e-08
9.705603e-08
8.64662e-08
7.870607e-08
8.288671e-08
6.128146e-08
7.76556e-08
4.515841e-08
7.065127e-08
3.074242e-08
6.177706e-08
1.847444e-08
5.098666e-08
8.849949e-09
3.832124e-08
2.447509e-09
2.395072e-08
8.24862e-09
-4.2877e-10
-3.157204e-10
-1.934223e-09
1.383061e-09
-4.644216e-09
4.9339e-09
-8.61962e-09
9.721088e-09
-1.388544e-08
1.523557e-08
-2.043132e-08
2.109073e-08
-2.821601e-08
2.700292e-08
-3.718205e-08
3.276576e-08
-4.726129e-08
3.824026e-08
-5.837272e-08
4.334921e-08
-7.044052e-08
4.805672e-08
-8.339142e-08
5.23579e-08
-9.715583e-08
5.627584e-08
-1.116704e-07
5.98524e-08
-1.26887e-07
6.313514e-08
-1.427659e-07
6.617815e-08
-1.592749e-07
6.904021e-08
-1.76394e-07
7.177739e-08
-1.941133e-07
7.443936e-08
-2.124281e-07
7.70715e-08
-2.313405e-07
7.971373e-08
-2.508593e-07
8.239662e-08
-2.710001e-07
8.514357e-08
-2.917747e-07
8.797187e-08
-3.131983e-07
9.089018e-08
-3.352903e-07
9.390128e-08
-3.580637e-07
9.699976e-08
-3.815302e-07
1.001767e-07
-4.056955e-07
1.034184e-07
-4.305656e-07
1.067034e-07
-4.561388e-07
1.100069e-07
-4.824057e-07
1.133009e-07
-5.093508e-07
1.165545e-07
-5.369509e-07
1.197329e-07
-5.651766e-07
1.227964e-07
-5.939873e-07
1.257044e-07
-6.233333e-07
1.284158e-07
-6.531542e-07
1.30885e-07
-6.833828e-07
1.33064e-07
-7.139422e-07
1.349051e-07
-7.447396e-07
1.363599e-07
-7.756776e-07
1.373779e-07
-8.066474e-07
1.379088e-07
-8.37528e-07
1.37903e-07
-8.681938e-07
1.373115e-07
-8.985045e-07
1.360863e-07
-9.283131e-07
1.341814e-07
-9.574692e-07
1.315547e-07
-9.858091e-07
1.281664e-07
-1.013166e-06
1.239789e-07
-1.039372e-06
1.189611e-07
-1.064248e-06
1.130892e-07
-1.087617e-06
1.06344e-07
-1.109303e-06
9.871119e-08
-1.129129e-06
9.018523e-08
-1.146916e-06
8.077075e-08
-1.162497e-06
7.048009e-08
-1.175704e-06
5.933242e-08
-1.186381e-06
4.735582e-08
-1.194379e-06
3.458864e-08
-1.19956e-06
2.107929e-08
-1.201795e-06
6.884418e-09
-1.200972e-06
-7.933258e-09
-1.196998e-06
-2.330239e-08
-1.189785e-06
-3.913696e-08
-1.179269e-06
-5.533634e-08
-1.165408e-06
-7.179016e-08
-1.14818e-06
-8.83796e-08
-1.127586e-06
-1.04977e-07
-1.103651e-06
-1.214476e-07
-1.076426e-06
-1.376529e-07
-1.045984e-06
-1.534519e-07
-1.012422e-06
-1.687019e-07
-9.758667e-07
-1.832614e-07
-9.364689e-07
-1.969908e-07
-8.944007e-07
-2.097548e-07
-8.49858e-07
-2.214239e-07
-8.030612e-07
-2.318763e-07
-7.542517e-07
-2.41e-07
-7.036879e-07
-2.48693e-07
-6.516455e-07
-2.548664e-07
-5.984185e-07
-2.594462e-07
-5.443136e-07
-2.623746e-07
-4.896458e-07
-2.636098e-07
-4.347368e-07
-2.631272e-07
-3.799154e-07
-2.609209e-07
-3.255131e-07
-2.570048e-07
-2.718575e-07
-2.514123e-07
-2.192695e-07
-2.441948e-07
-1.680623e-07
-2.354223e-07
-1.185385e-07
-2.251819e-07
-7.098541e-08
-2.135781e-07
-2.56718e-08
-2.007313e-07
1.71543e-08
-1.867755e-07
5.726622e-08
-1.718565e-07
9.44631e-08
-1.561286e-07
1.285744e-07
-1.397547e-07
1.594594e-07
-1.229015e-07
1.87008e-07
-1.057376e-07
2.111408e-07
-8.84299e-08
2.318112e-07
-7.114068e-08
2.49007e-07
-5.40256e-08
2.62747e-07
-3.723229e-08
2.73079e-07
-2.089823e-08
2.80078e-07
-5.149763e-09
2.83847e-07
9.898551e-09
2.845143e-07
2.414569e-08
2.822328e-07
3.750441e-08
2.77176e-07
4.989967e-08
2.69535e-07
6.126661e-08
2.595173e-07
7.15491e-08
2.473459e-07
8.069674e-08
2.33258e-07
8.866195e-08
2.175038e-07
9.53969e-08
2.00346e-07
1.008496e-07
1.820596e-07
1.049588e-07
1.629333e-07
1.076502e-07
1.432702e-07
1.088337e-07
1.233896e-07
1.084016e-07
1.036288e-07
1.06228e-07
8.434524e-08
1.021717e-07
6.591963e-08
9.608177e-08
4.876297e-08
8.780814e-08
3.332315e-08
7.721669e-08
2.009909e-08
6.421161e-08
9.658732e-09
4.876191e-08
2.678514e-09
3.093141e-08
1.092811e-08
-6.491848e-10
3.347645e-10
-2.739695e-09
3.47181e-09
-6.329988e-09
8.527423e-09
-1.143961e-08
1.482973e-08
-1.804509e-08
2.183772e-08
-2.609446e-08
2.914264e-08
-3.552263e-08
3.643329e-08
-4.625028e-08
4.349038e-08
-5.818526e-08
5.017463e-08
-7.123587e-08
5.640386e-08
-8.531939e-08
6.214039e-08
-1.003525e-07
6.738993e-08
-1.162598e-07
7.218553e-08
-1.329802e-07
7.657502e-08
-1.504639e-07
8.06175e-08
-1.686681e-07
8.438241e-08
-1.875625e-07
8.793775e-08
-2.07131e-07
9.134717e-08
-2.273642e-07
9.467132e-08
-2.482585e-07
9.79657e-08
-2.698201e-07
1.012769e-07
-2.920599e-07
1.046378e-07
-3.149941e-07
1.080767e-07
-3.386375e-07
1.116154e-07
-3.630063e-07
1.152615e-07
-3.881226e-07
1.190153e-07
-4.139976e-07
1.22873e-07
-4.406425e-07
1.268217e-07
-4.680659e-07
1.308421e-07
-4.962715e-07
1.349075e-07
-5.252547e-07
1.389877e-07
-5.550032e-07
1.430493e-07
-5.854985e-07
1.470513e-07
-6.167158e-07
1.509494e-07
-6.486186e-07
1.546975e-07
-6.811587e-07
1.582451e-07
-7.142825e-07
1.615388e-07
-7.479225e-07
1.645239e-07
-7.820018e-07
1.671432e-07
-8.164338e-07
1.69336e-07
-8.51117e-07
1.710422e-07
-8.859436e-07
1.72203e-07
-9.207924e-07
1.727575e-07
-9.555311e-07
1.726432e-07
-9.900225e-07
1.718006e-07
-1.024113e-06
1.701751e-07
-1.057642e-06
1.677129e-07
-1.090446e-06
1.643602e-07
-1.12235e-06
1.600691e-07
-1.153172e-06
1.547999e-07
-1.18273e-06
1.48518e-07
-1.210831e-06
1.411927e-07
-1.237288e-06
1.328014e-07
-1.261912e-06
1.233317e-07
-1.284509e-06
1.127813e-07
-1.304892e-06
1.011558e-07
-1.32288e-06
8.846999e-08
-1.338298e-06
7.474933e-08
-1.350974e-06
6.003162e-08
-1.36075e-06
4.436579e-08
-1.36748e-06
2.780974e-08
-1.371025e-06
1.043103e-08
-1.371268e-06
-7.691888e-09
-1.368102e-06
-2.647067e-08