/*--------------------------------*- C++ -*----------------------------------*\
| =========                 |                                                 |
| \\      /  F ield         | OpenFOAM: The Open Source CFD Toolbox           |
|  \\    /   O peration     | Version:  2406                                  |
|   \\  /    A nd           | Website:  www.openfoam.com                      |
|    \\/     M anipulation  |                                                 |
\*---------------------------------------------------------------------------*/
FoamFile
{
    version     2.0;
    format      ascii;
    arch        "LSB;label=32;scalar=64";
    class       volVectorField;
    location    "500";
    object      U;
}
// * * * * * * * * * * * * * * * * * * * * * * * * * * * * * * * * * * * * * //

dimensions      [0 1 -1 0 0 0 0];

internalField   nonuniform List<vector> 
16384
(
(-1.523695e-07 -1.784078e-07 0)
(-1.550027e-07 -1.199639e-07 0)
(6.231195e-08 -6.199721e-08 0)
(2.107802e-07 -4.266559e-08 0)
(2.976658e-07 -2.885805e-08 0)
(3.325356e-07 -1.727658e-08 0)
(3.157843e-07 -7.789275e-09 0)
(2.495926e-07 1.626253e-10 0)
(1.379993e-07 6.938031e-09 0)
(-1.434235e-08 1.269826e-08 0)
(-2.025044e-07 1.75717e-08 0)
(-4.221192e-07 2.131949e-08 0)
(-6.689646e-07 2.432786e-08 0)
(-9.389921e-07 2.69646e-08 0)
(-1.229371e-06 2.90583e-08 0)
(-1.537608e-06 3.075364e-08 0)
(-1.861677e-06 3.239674e-08 0)
(-2.200232e-06 3.392154e-08 0)
(-2.552529e-06 3.525708e-08 0)
(-2.91837e-06 3.660393e-08 0)
(-3.297939e-06 3.802591e-08 0)
(-3.691582e-06 3.966434e-08 0)
(-4.099624e-06 4.151942e-08 0)
(-4.523227e-06 4.343433e-08 0)
(-4.963556e-06 4.559501e-08 0)
(-5.421117e-06 4.802597e-08 0)
(-5.897046e-06 5.048547e-08 0)
(-6.392905e-06 5.309563e-08 0)
(-6.90935e-06 5.60191e-08 0)
(-7.446872e-06 5.910733e-08 0)
(-8.006501e-06 6.227954e-08 0)
(-8.58888e-06 6.555052e-08 0)
(-9.19419e-06 6.89612e-08 0)
(-9.822445e-06 7.244297e-08 0)
(-1.047371e-05 7.591173e-08 0)
(-1.114787e-05 7.936219e-08 0)
(-1.184427e-05 8.278334e-08 0)
(-1.256201e-05 8.615249e-08 0)
(-1.329995e-05 8.942444e-08 0)
(-1.405677e-05 9.25996e-08 0)
(-1.483061e-05 9.559051e-08 0)
(-1.561937e-05 9.828283e-08 0)
(-1.642083e-05 1.006971e-07 0)
(-1.723214e-05 1.027982e-07 0)
(-1.805013e-05 1.045502e-07 0)
(-1.887127e-05 1.058794e-07 0)
(-1.969156e-05 1.066043e-07 0)
(-2.050702e-05 1.067514e-07 0)
(-2.131292e-05 1.063535e-07 0)
(-2.210398e-05 1.052563e-07 0)
(-2.287497e-05 1.034364e-07 0)
(-2.362018e-05 1.008506e-07 0)
(-2.433352e-05 9.731324e-08 0)
(-2.500897e-05 9.284128e-08 0)
(-2.56399e-05 8.753302e-08 0)
(-2.621928e-05 8.126427e-08 0)
(-2.674047e-05 7.39313e-08 0)
(-2.719674e-05 6.557324e-08 0)
(-2.758103e-05 5.613099e-08 0)
(-2.788652e-05 4.557133e-08 0)
(-2.810668e-05 3.405008e-08 0)
(-2.823479e-05 2.157897e-08 0)
(-2.826469e-05 7.989304e-09 0)
(-2.81909e-05 -6.647513e-09 0)
(-2.800808e-05 -2.210402e-08 0)
(-2.771127e-05 -3.833899e-08 0)
(-2.729681e-05 -5.530667e-08 0)
(-2.676205e-05 -7.275683e-08 0)
(-2.610501e-05 -9.048668e-08 0)
(-2.532495e-05 -1.084191e-07 0)
(-2.442274e-05 -1.263484e-07 0)
(-2.340035e-05 -1.439454e-07 0)
(-2.22609e-05 -1.609908e-07 0)
(-2.100906e-05 -1.773655e-07 0)
(-1.965101e-05 -1.928367e-07 0)
(-1.819411e-05 -2.070518e-07 0)
(-1.664684e-05 -2.197817e-07 0)
(-1.501914e-05 -2.309555e-07 0)
(-1.332238e-05 -2.404174e-07 0)
(-1.156873e-05 -2.478823e-07 0)
(-9.77094e-06 -2.531572e-07 0)
(-7.942653e-06 -2.562223e-07 0)
(-6.098321e-06 -2.570425e-07 0)
(-4.252652e-06 -2.555103e-07 0)
(-2.420281e-06 -2.515932e-07 0)
(-6.159095e-07 -2.453825e-07 0)
(1.145846e-06 -2.369795e-07 0)
(2.850935e-06 -2.264557e-07 0)
(4.486138e-06 -2.139258e-07 0)
(6.039081e-06 -1.996116e-07 0)
(7.498292e-06 -1.837889e-07 0)
(8.853502e-06 -1.666694e-07 0)
(1.009596e-05 -1.484182e-07 0)
(1.121844e-05 -1.292652e-07 0)
(1.221512e-05 -1.095301e-07 0)
(1.308158e-05 -8.952739e-08 0)
(1.3815e-05 -6.949817e-08 0)
(1.441423e-05 -4.960701e-08 0)
(1.48797e-05 -3.007677e-08 0)
(1.521313e-05 -1.119389e-08 0)
(1.541741e-05 6.821585e-09 0)
(1.54967e-05 2.38457e-08 0)
(1.54563e-05 3.980999e-08 0)
(1.530245e-05 5.462562e-08 0)
(1.504197e-05 6.816799e-08 0)
(1.468221e-05 8.036208e-08 0)
(1.423093e-05 9.122007e-08 0)
(1.36963e-05 1.008079e-07 0)
(1.308663e-05 1.091865e-07 0)
(1.241021e-05 1.163882e-07 0)
(1.167521e-05 1.224399e-07 0)
(1.088969e-05 1.274093e-07 0)
(1.006168e-05 1.313787e-07 0)
(9.199238e-06 1.343887e-07 0)
(8.310386e-06 1.364474e-07 0)
(7.403339e-06 1.37528e-07 0)
(6.486828e-06 1.375468e-07 0)
(5.570435e-06 1.363532e-07 0)
(4.665047e-06 1.336763e-07 0)
(3.783318e-06 1.290822e-07 0)
(2.940232e-06 1.219787e-07 0)
(2.153775e-06 1.115675e-07 0)
(1.445538e-06 9.674325e-08 0)
(8.409358e-07 7.618887e-08 0)
(3.68623e-07 4.871628e-08 0)
(5.751075e-08 1.380572e-08 0)
(-7.548525e-08 -2.507891e-08 0)
(-4.599551e-08 -4.639271e-08 0)
(-6.774483e-08 -3.289107e-07 0)
(-1.398754e-08 -3.586946e-07 0)
(1.951629e-07 -2.968476e-07 0)
(3.693633e-07 -2.104087e-07 0)
(4.535059e-07 -1.11592e-07 0)
(4.270259e-07 -9.618533e-09 0)
(2.800678e-07 8.944055e-08 0)
(1.177898e-08 1.82536e-07 0)
(-3.724819e-07 2.677772e-07 0)
(-8.638145e-07 3.444927e-07 0)
(-1.452257e-06 4.121552e-07 0)
(-2.127576e-06 4.708781e-07 0)
(-2.878956e-06 5.220299e-07 0)
(-3.697401e-06 5.664374e-07 0)
(-4.57578e-06 6.050141e-07 0)
(-5.507085e-06 6.393683e-07 0)
(-6.486376e-06 6.707185e-07 0)
(-7.510364e-06 6.998961e-07 0)
(-8.576449e-06 7.27945e-07 0)
(-9.68372e-06 7.556769e-07 0)
(-1.08323e-05 7.836255e-07 0)
(-1.202265e-05 8.127432e-07 0)
(-1.3256e-05 8.435774e-07 0)
(-1.453476e-05 8.759739e-07 0)
(-1.586126e-05 9.102419e-07 0)
(-1.723735e-05 9.467336e-07 0)
(-1.866558e-05 9.851433e-07 0)
(-2.01489e-05 1.025269e-06 0)
(-2.16892e-05 1.067198e-06 0)
(-2.328805e-05 1.110679e-06 0)
(-2.494746e-05 1.155373e-06 0)
(-2.666864e-05 1.20088e-06 0)
(-2.845177e-05 1.246906e-06 0)
(-3.029672e-05 1.293065e-06 0)
(-3.220312e-05 1.338727e-06 0)
(-3.41699e-05 1.383368e-06 0)
(-3.619488e-05 1.426563e-06 0)
(-3.827519e-05 1.467869e-06 0)
(-4.040724e-05 1.506596e-06 0)
(-4.258668e-05 1.542038e-06 0)
(-4.480803e-05 1.573583e-06 0)
(-4.706488e-05 1.600558e-06 0)
(-4.935031e-05 1.622352e-06 0)
(-5.165607e-05 1.63816e-06 0)
(-5.397285e-05 1.647151e-06 0)
(-5.629057e-05 1.648707e-06 0)
(-5.859791e-05 1.641981e-06 0)
(-6.088289e-05 1.626189e-06 0)
(-6.313239e-05 1.600775e-06 0)
(-6.533191e-05 1.564964e-06 0)
(-6.746657e-05 1.518011e-06 0)
(-6.952089e-05 1.459345e-06 0)
(-7.147826e-05 1.388311e-06 0)
(-7.332156e-05 1.304414e-06 0)
(-7.50331e-05 1.207465e-06 0)
(-7.659463e-05 1.097176e-06 0)
(-7.798807e-05 9.731762e-07 0)
(-7.919551e-05 8.354245e-07 0)
(-8.019878e-05 6.841214e-07 0)
(-8.097994e-05 5.194767e-07 0)
(-8.152189e-05 3.418892e-07 0)
(-8.180828e-05 1.519317e-07 0)
(-8.182356e-05 -4.984689e-08 0)
(-8.155353e-05 -2.626333e-07 0)
(-8.098538e-05 -4.851143e-07 0)
(-8.010794e-05 -7.157399e-07 0)
(-7.891239e-05 -9.528241e-07 0)
(-7.739262e-05 -1.194389e-06 0)
(-7.554511e-05 -1.438194e-06 0)
(-7.336928e-05 -1.681846e-06 0)
(-7.08679e-05 -1.922807e-06 0)
(-6.80471e-05 -2.158463e-06 0)
(-6.49163e-05 -2.386173e-06 0)
(-6.148835e-05 -2.60324e-06 0)
(-5.77795e-05 -2.806936e-06 0)
(-5.38093e-05 -2.994607e-06 0)
(-4.960063e-05 -3.163778e-06 0)
(-4.517953e-05 -3.31218e-06 0)
(-4.057486e-05 -3.437684e-06 0)
(-3.581786e-05 -3.538359e-06 0)
(-3.094186e-05 -3.612587e-06 0)
(-2.598207e-05 -3.659129e-06 0)
(-2.09752e-05 -3.677088e-06 0)
(-1.595884e-05 -3.665961e-06 0)
(-1.097092e-05 -3.625683e-06 0)
(-6.04942e-06 -3.556561e-06 0)
(-1.231763e-06 -3.459263e-06 0)
(3.445771e-06 -3.334884e-06 0)
(7.94841e-06 -3.184985e-06 0)
(1.22434e-05 -3.011518e-06 0)
(1.63005e-05 -2.816731e-06 0)
(2.009246e-05 -2.603066e-06 0)
(2.359537e-05 -2.37318e-06 0)
(2.678876e-05 -2.129976e-06 0)
(2.965581e-05 -1.876531e-06 0)
(3.218347e-05 -1.615915e-06 0)
(3.436275e-05 -1.351153e-06 0)
(3.618857e-05 -1.085184e-06 0)
(3.765965e-05 -8.208948e-07 0)
(3.877827e-05 -5.610632e-07 0)
(3.955009e-05 -3.081595e-07 0)
(3.998407e-05 -6.436366e-08 0)
(4.009208e-05 1.683982e-07 0)
(3.988842e-05 3.884898e-07 0)
(3.938946e-05 5.945524e-07 0)
(3.861335e-05 7.855773e-07 0)
(3.757968e-05 9.608978e-07 0)
(3.630917e-05 1.120109e-06 0)
(3.482325e-05 1.263011e-06 0)
(3.314372e-05 1.389557e-06 0)
(3.129266e-05 1.499795e-06 0)
(2.929227e-05 1.593853e-06 0)
(2.716488e-05 1.671853e-06 0)
(2.493318e-05 1.733735e-06 0)
(2.262023e-05 1.779129e-06 0)
(2.024991e-05 1.807273e-06 0)
(1.784758e-05 1.816851e-06 0)
(1.544074e-05 1.805838e-06 0)
(1.305994e-05 1.77134e-06 0)
(1.073975e-05 1.709397e-06 0)
(8.51963e-06 1.61494e-06 0)
(6.444721e-06 1.481926e-06 0)
(4.566319e-06 1.30372e-06 0)
(2.941302e-06 1.074488e-06 0)
(1.628967e-06 7.925209e-07 0)
(6.835488e-07 4.672184e-07 0)
(1.390639e-07 1.371998e-07 0)
(-2.420545e-08 -7.605171e-08 0)
(-2.843121e-09 -3.144131e-07 0)
(7.026628e-08 -4.987774e-07 0)
(2.158133e-07 -4.626804e-07 0)
(3.07056e-07 -3.087907e-07 0)
(2.765782e-07 -9.301585e-08 0)
(8.90083e-08 1.502664e-07 0)
(-2.72411e-07 3.99233e-07 0)
(-8.110391e-07 6.404232e-07 0)
(-1.521489e-06 8.663386e-07 0)
(-2.39354e-06 1.072677e-06 0)
(-3.414393e-06 1.257388e-06 0)
(-4.569348e-06 1.421292e-06 0)
(-5.844357e-06 1.566006e-06 0)
(-7.226973e-06 1.69312e-06 0)
(-8.705804e-06 1.805672e-06 0)
(-1.027116e-05 1.906812e-06 0)
(-1.191609e-05 1.999341e-06 0)
(-1.363511e-05 2.086092e-06 0)
(-1.542452e-05 2.169573e-06 0)
(-1.728299e-05 2.251816e-06 0)
(-1.920982e-05 2.334789e-06 0)
(-2.120538e-05 2.420162e-06 0)
(-2.327193e-05 2.508916e-06 0)
(-2.541257e-05 2.601817e-06 0)
(-2.76299e-05 2.699515e-06 0)
(-2.992686e-05 2.802368e-06 0)
(-3.230735e-05 2.910159e-06 0)
(-3.477495e-05 3.022458e-06 0)
(-3.733205e-05 3.138996e-06 0)
(-3.998095e-05 3.259036e-06 0)
(-4.272416e-05 3.381719e-06 0)
(-4.556292e-05 3.506237e-06 0)
(-4.849717e-05 3.631535e-06 0)
(-5.15264e-05 3.756332e-06 0)
(-5.46494e-05 3.879137e-06 0)
(-5.78636e-05 3.998656e-06 0)
(-6.116498e-05 4.113524e-06 0)
(-6.454864e-05 4.222096e-06 0)
(-6.800849e-05 4.322577e-06 0)
(-7.153681e-05 4.413155e-06 0)
(-7.512427e-05 4.492234e-06 0)
(-7.876034e-05 4.557942e-06 0)
(-8.243348e-05 4.608202e-06 0)
(-8.613025e-05 4.641049e-06 0)
(-8.983534e-05 4.654347e-06 0)
(-9.353222e-05 4.646114e-06 0)
(-9.720297e-05 4.614495e-06 0)
(-0.0001008282 4.557396e-06 0)
(-0.0001043868 4.472921e-06 0)
(-0.0001078564 4.359343e-06 0)
(-0.0001112136 4.214788e-06 0)
(-0.0001144336 4.037611e-06 0)
(-0.0001174911 3.826598e-06 0)
(-0.0001203593 3.58066e-06 0)
(-0.0001230112 3.298879e-06 0)
(-0.0001254192 2.980719e-06 0)
(-0.0001275559 2.625885e-06 0)
(-0.000129394 2.234364e-06 0)
(-0.0001309063 1.806744e-06 0)
(-0.0001320667 1.344014e-06 0)
(-0.0001328498 8.473202e-07 0)
(-0.0001332316 3.182345e-07 0)
(-0.0001331898 -2.411285e-07 0)
(-0.0001327043 -8.281333e-07 0)
(-0.0001317568 -1.439427e-06 0)
(-0.0001303321 -2.070878e-06 0)
(-0.0001284185 -2.717723e-06 0)
(-0.0001260084 -3.374655e-06 0)
(-0.0001230974 -4.035806e-06 0)
(-0.0001196862 -4.694857e-06 0)
(-0.0001157803 -5.345231e-06 0)
(-0.0001113899 -5.980183e-06 0)
(-0.0001065298 -6.592796e-06 0)
(-0.0001012198 -7.17606e-06 0)
(-9.54848e-05 -7.723077e-06 0)
(-8.935453e-05 -8.2272e-06 0)
(-8.286299e-05 -8.682079e-06 0)
(-7.604876e-05 -9.081762e-06 0)
(-6.895465e-05 -9.42081e-06 0)
(-6.162684e-05 -9.694421e-06 0)
(-5.411431e-05 -9.898523e-06 0)
(-4.646877e-05 -1.002987e-05 0)
(-3.874433e-05 -1.008616e-05 0)
(-3.099636e-05 -1.006607e-05 0)
(-2.328063e-05 -9.969295e-06 0)
(-1.565299e-05 -9.79646e-06 0)
(-8.168909e-06 -9.549176e-06 0)
(-8.824153e-07 -9.230125e-06 0)
(6.154634e-06 -8.843063e-06 0)
(1.289301e-05 -8.392652e-06 0)
(1.928691e-05 -7.88435e-06 0)
(2.529447e-05 -7.324355e-06 0)
(3.087845e-05 -6.719546e-06 0)
(3.600652e-05 -6.07728e-06 0)
(4.065161e-05 -5.40521e-06 0)
(4.479199e-05 -4.711162e-06 0)
(4.841157e-05 -4.003053e-06 0)
(5.149998e-05 -3.288719e-06 0)
(5.405246e-05 -2.575676e-06 0)
(5.606967e-05 -1.871084e-06 0)
(5.75573e-05 -1.181628e-06 0)
(5.852586e-05 -5.134104e-07 0)
(5.899048e-05 1.281034e-07 0)
(5.897021e-05 7.382483e-07 0)
(5.848763e-05 1.313164e-06 0)
(5.756826e-05 1.849743e-06 0)
(5.62401e-05 2.345618e-06 0)
(5.453324e-05 2.79909e-06 0)
(5.247934e-05 3.209025e-06 0)
(5.011116e-05 3.574735e-06 0)
(4.746229e-05 3.895854e-06 0)
(4.4567e-05 4.172139e-06 0)
(4.146024e-05 4.403298e-06 0)
(3.817773e-05 4.588691e-06 0)
(3.475616e-05 4.726968e-06 0)
(3.123374e-05 4.815843e-06 0)
(2.765088e-05 4.851787e-06 0)
(2.40511e-05 4.829644e-06 0)
(2.048194e-05 4.742366e-06 0)
(1.699596e-05 4.580864e-06 0)
(1.365169e-05 4.334017e-06 0)
(1.051411e-05 3.989291e-06 0)
(7.654503e-06 3.534351e-06 0)
(5.148886e-06 2.960452e-06 0)
(3.073291e-06 2.269236e-06 0)
(1.496059e-06 1.485516e-06 0)
(4.737864e-07 6.843836e-07 0)
(1.489767e-08 5.869805e-08 0)
(1.04535e-08 -3.55822e-07 0)
(7.315538e-08 -6.054093e-07 0)
(1.211932e-07 -5.372609e-07 0)
(6.495828e-08 -2.722495e-07 0)
(-1.579065e-07 1.051663e-07 0)
(-5.836087e-07 5.379119e-07 0)
(-1.23017e-06 9.877121e-07 0)
(-2.101085e-06 1.42959e-06 0)
(-3.190646e-06 1.84786e-06 0)
(-4.487686e-06 2.233187e-06 0)
(-5.976563e-06 2.582298e-06 0)
(-7.640421e-06 2.89507e-06 0)
(-9.463222e-06 3.173223e-06 0)
(-1.142945e-05 3.420582e-06 0)
(-1.352528e-05 3.641901e-06 0)
(-1.57391e-05 3.842066e-06 0)
(-1.806198e-05 4.026327e-06 0)
(-2.048732e-05 4.199692e-06 0)
(-2.301055e-05 4.366437e-06 0)
(-2.562937e-05 4.53069e-06 0)
(-2.834301e-05 4.696206e-06 0)
(-3.115228e-05 4.86553e-06 0)
(-3.405932e-05 5.04037e-06 0)
(-3.706732e-05 5.222593e-06 0)
(-4.01798e-05 5.413247e-06 0)
(-4.340037e-05 5.612529e-06 0)
(-4.673339e-05 5.82042e-06 0)
(-5.018286e-05 6.036445e-06 0)
(-5.375173e-05 6.259685e-06 0)
(-5.744257e-05 6.488729e-06 0)
(-6.12577e-05 6.722013e-06 0)
(-6.51981e-05 6.957883e-06 0)
(-6.926345e-05 7.194122e-06 0)
(-7.345244e-05 7.428306e-06 0)
(-7.776249e-05 7.657919e-06 0)
(-8.218937e-05 7.880376e-06 0)
(-8.672741e-05 8.092778e-06 0)
(-9.136938e-05 8.291803e-06 0)
(-9.610621e-05 8.474247e-06 0)
(-0.0001009267 8.636824e-06 0)
(-0.0001058179 8.776185e-06 0)
(-0.0001107654 8.888757e-06 0)
(-0.0001157529 8.970549e-06 0)
(-0.0001207617 9.01784e-06 0)
(-0.000125771 9.026982e-06 0)
(-0.0001307582 8.994073e-06 0)
(-0.000135699 8.915453e-06 0)
(-0.0001405673 8.787583e-06 0)
(-0.000145335 8.606868e-06 0)
(-0.000149972 8.369997e-06 0)
(-0.0001544476 8.07396e-06 0)
(-0.0001587291 7.715963e-06 0)
(-0.0001627828 7.293695e-06 0)
(-0.0001665745 6.805438e-06 0)
(-0.0001700689 6.249821e-06 0)
(-0.0001732306 5.625934e-06 0)
(-0.0001760244 4.93366e-06 0)
(-0.0001784157 4.173576e-06 0)
(-0.0001803701 3.346871e-06 0)
(-0.0001818545 2.455502e-06 0)
(-0.0001828379 1.502174e-06 0)
(-0.0001832905 4.902663e-07 0)
(-0.0001831849 -5.760771e-07 0)
(-0.0001824966 -1.691625e-06 0)
(-0.0001812042 -2.84988e-06 0)
(-0.00017929 -4.043149e-06 0)
(-0.0001767404 -5.262536e-06 0)
(-0.000173547 -6.498085e-06 0)
(-0.0001697063 -7.739037e-06 0)
(-0.0001652202 -8.973987e-06 0)
(-0.000160097 -1.019097e-05 0)
(-0.0001543503 -1.137767e-05 0)
(-0.0001479999 -1.252158e-05 0)
(-0.0001410714 -1.361021e-05 0)
(-0.0001335967 -1.463123e-05 0)
(-0.0001256131 -1.557267e-05 0)
(-0.0001171637 -1.642312e-05 0)
(-0.0001082968 -1.717199e-05 0)
(-9.906581e-05 -1.780956e-05 0)
(-8.952809e-05 -1.832721e-05 0)
(-7.974482e-05 -1.871762e-05 0)
(-6.978045e-05 -1.8975e-05 0)
(-5.970214e-05 -1.909517e-05 0)
(-4.957877e-05 -1.907554e-05 0)
(-3.948002e-05 -1.891526e-05 0)
(-2.947582e-05 -1.861531e-05 0)
(-1.963573e-05 -1.817849e-05 0)
(-1.00278e-05 -1.760929e-05 0)
(-7.176059e-07 -1.691392e-05 0)
(8.232176e-06 -1.610028e-05 0)
(1.676243e-05 -1.517799e-05 0)
(2.481871e-05 -1.4158e-05 0)
(3.235194e-05 -1.305237e-05 0)
(3.93189e-05 -1.187409e-05 0)
(4.568257e-05 -1.063685e-05 0)
(5.141232e-05 -9.354755e-06 0)
(5.648446e-05 -8.042071e-06 0)
(6.088241e-05 -6.712988e-06 0)
(6.459648e-05 -5.381298e-06 0)
(6.762363e-05 -4.060237e-06 0)
(6.996731e-05 -2.762314e-06 0)
(7.163732e-05 -1.49904e-06 0)
(7.264944e-05 -2.808176e-07 0)
(7.302472e-05 8.832004e-07 0)
(7.278896e-05 1.985263e-06 0)
(7.197222e-05 3.018938e-06 0)
(7.060827e-05 3.979077e-06 0)
(6.873395e-05 4.861745e-06 0)
(6.638863e-05 5.664044e-06 0)
(6.361365e-05 6.383876e-06 0)
(6.045201e-05 7.019756e-06 0)
(5.694817e-05 7.570477e-06 0)
(5.314787e-05 8.034708e-06 0)
(4.909827e-05 8.410606e-06 0)
(4.484805e-05 8.6953e-06 0)
(4.044808e-05 8.884346e-06 0)
(3.595197e-05 8.971238e-06 0)
(3.141689e-05 8.94694e-06 0)
(2.690459e-05 8.799538e-06 0)
(2.248216e-05 8.5142e-06 0)
(1.82227e-05 8.073433e-06 0)
(1.420569e-05 7.458284e-06 0)
(1.051652e-05 6.6512e-06 0)
(7.24479e-06 5.641334e-06 0)
(4.479623e-06 4.434116e-06 0)
(2.304705e-06 3.067362e-06 0)
(8.098714e-07 1.640191e-06 0)
(5.085039e-08 3.756633e-07 0)
(1.17015e-08 -3.950013e-07 0)
(2.183176e-08 -6.320183e-07 0)
(-6.558208e-08 -4.643066e-07 0)
(-3.204982e-07 -3.418256e-08 0)
(-7.951016e-07 5.528629e-07 0)
(-1.520496e-06 1.220636e-06 0)
(-2.511261e-06 1.915726e-06 0)
(-3.769217e-06 2.601575e-06 0)
(-5.287449e-06 3.254001e-06 0)
(-7.052026e-06 3.859544e-06 0)
(-9.045559e-06 4.412149e-06 0)
(-1.124997e-05 4.910316e-06 0)
(-1.364676e-05 5.356751e-06 0)
(-1.621857e-05 5.757004e-06 0)
(-1.895027e-05 6.117623e-06 0)
(-2.182867e-05 6.446235e-06 0)
(-2.484365e-05 6.750439e-06 0)
(-2.79878e-05 7.037395e-06 0)
(-3.125584e-05 7.314001e-06 0)
(-3.464488e-05 7.586636e-06 0)
(-3.81542e-05 7.860422e-06 0)
(-4.1785e-05 8.139453e-06 0)
(-4.553944e-05 8.427031e-06 0)
(-4.942085e-05 8.725547e-06 0)
(-5.343329e-05 9.036314e-06 0)
(-5.75807e-05 9.35977e-06 0)
(-6.18677e-05 9.695978e-06 0)
(-6.629868e-05 1.004406e-05 0)
(-7.087677e-05 1.040239e-05 0)
(-7.560447e-05 1.076891e-05 0)
(-8.048378e-05 1.114113e-05 0)
(-8.551535e-05 1.151609e-05 0)
(-9.069813e-05 1.189022e-05 0)
(-9.602963e-05 1.22597e-05 0)
(-0.0001015059 1.262059e-05 0)
(-0.000107121 1.296846e-05 0)
(-0.0001128674 1.32985e-05 0)
(-0.0001187353 1.360556e-05 0)
(-0.0001247124 1.38846e-05 0)
(-0.0001307845 1.413036e-05 0)
(-0.0001369348 1.433712e-05 0)
(-0.000143145 1.44991e-05 0)
(-0.0001493943 1.461038e-05 0)
(-0.0001556588 1.466495e-05 0)
(-0.0001619126 1.465697e-05 0)
(-0.0001681275 1.458055e-05 0)
(-0.0001742731 1.442981e-05 0)
(-0.0001803171 1.419924e-05 0)
(-0.0001862251 1.388358e-05 0)
(-0.0001919603 1.347772e-05 0)
(-0.000197485 1.297711e-05 0)
(-0.0002027598 1.237784e-05 0)
(-0.0002077441 1.167664e-05 0)
(-0.0002123965 1.087093e-05 0)
(-0.0002166752 9.959031e-06 0)
(-0.0002205381 8.940114e-06 0)
(-0.0002239439 7.814307e-06 0)
(-0.0002268515 6.582936e-06 0)
(-0.0002292212 5.248425e-06 0)
(-0.0002310147 3.814207e-06 0)
(-0.000232196 2.284914e-06 0)
(-0.0002327312 6.6643e-07 0)
(-0.0002325892 -1.034325e-06 0)
(-0.0002317427 -2.809001e-06 0)
(-0.0002301681 -4.647244e-06 0)
(-0.0002278456 -6.536788e-06 0)
(-0.0002247612 -8.463746e-06 0)
(-0.0002209063 -1.041279e-05 0)
(-0.0002162779 -1.236735e-05 0)
(-0.0002108795 -1.430988e-05 0)
(-0.0002047215 -1.622214e-05 0)
(-0.0001978209 -1.808541e-05 0)
(-0.0001902009 -1.988077e-05 0)
(-0.0001818919 -2.15893e-05 0)
(-0.0001729309 -2.319231e-05 0)
(-0.0001633615 -2.467179e-05 0)
(-0.0001532332 -2.601058e-05 0)
(-0.0001426018 -2.719264e-05 0)
(-0.0001315285 -2.820327e-05 0)
(-0.0001200793 -2.902948e-05 0)
(-0.0001083243 -2.966021e-05 0)
(-9.633767e-05 -3.008654e-05 0)
(-8.419663e-05 -3.030187e-05 0)
(-7.198042e-05 -3.030209e-05 0)
(-5.976949e-05 -3.008566e-05 0)
(-4.764487e-05 -2.965365e-05 0)
(-3.568737e-05 -2.900982e-05 0)
(-2.39764e-05 -2.816054e-05 0)
(-1.2589e-05 -2.711474e-05 0)
(-1.599061e-06 -2.588377e-05 0)
(8.923195e-06 -2.448139e-05 0)
(1.891209e-05 -2.292375e-05 0)
(2.83077e-05 -2.12288e-05 0)
(3.705641e-05 -1.941593e-05 0)
(4.511143e-05 -1.750566e-05 0)
(5.243327e-05 -1.55193e-05 0)
(5.899008e-05 -1.347847e-05 0)
(6.475803e-05 -1.140485e-05 0)
(6.972124e-05 -9.319743e-06 0)
(7.387163e-05 -7.243695e-06 0)
(7.720876e-05 -5.196247e-06 0)
(7.973966e-05 -3.195602e-06 0)
(8.147855e-05 -1.258407e-06 0)
(8.244628e-05 6.003973e-07 0)
(8.266959e-05 2.367863e-06 0)
(8.218081e-05 4.033066e-06 0)
(8.101709e-05 5.586982e-06 0)
(7.921983e-05 7.022322e-06 0)
(7.683399e-05 8.333399e-06 0)
(7.390748e-05 9.515822e-06 0)
(7.049085e-05 1.056614e-05 0)
(6.663686e-05 1.148143e-05 0)
(6.240038e-05 1.225868e-05 0)
(5.783842e-05 1.289417e-05 0)
(5.301008e-05 1.338289e-05 0)
(4.797704e-05 1.371775e-05 0)
(4.280421e-05 1.388883e-05 0)
(3.756044e-05 1.388295e-05 0)
(3.231924e-05 1.368319e-05 0)
(2.715944e-05 1.326898e-05 0)
(2.216557e-05 1.261667e-05 0)
(1.742834e-05 1.17014e-05 0)
(1.304434e-05 1.05008e-05 0)
(9.11489e-06 9.001268e-06 0)
(5.742719e-06 7.208871e-06 0)
(3.030596e-06 5.165942e-06 0)
(1.10718e-06 2.977369e-06 0)
(8.002868e-08 8.608539e-07 0)
(7.610585e-09 -3.968803e-07 0)
(-6.532193e-08 -5.401284e-07 0)
(-3.216103e-07 -2.016762e-07 0)
(-8.16901e-07 4.542309e-07 0)
(-1.590714e-06 1.303306e-06 0)
(-2.665909e-06 2.253217e-06 0)
(-4.051348e-06 3.236557e-06 0)
(-5.745092e-06 4.205725e-06 0)
(-7.736263e-06 5.130114e-06 0)
(-1.000846e-05 5.991652e-06 0)
(-1.254281e-05 6.781189e-06 0)
(-1.531905e-05 7.496904e-06 0)
(-1.831687e-05 8.142385e-06 0)
(-2.151774e-05 8.724543e-06 0)
(-2.490526e-05 9.252386e-06 0)
(-2.846535e-05 9.736176e-06 0)
(-3.218759e-05 1.018612e-05 0)
(-3.606386e-05 1.061217e-05 0)
(-4.008818e-05 1.102397e-05 0)
(-4.425791e-05 1.143005e-05 0)
(-4.857262e-05 1.183715e-05 0)
(-5.303325e-05 1.225107e-05 0)
(-5.76422e-05 1.26767e-05 0)
(-6.240346e-05 1.311706e-05 0)
(-6.732144e-05 1.357392e-05 0)
(-7.240009e-05 1.404805e-05 0)
(-7.764423e-05 1.453923e-05 0)
(-8.305858e-05 1.504603e-05 0)
(-8.864621e-05 1.556605e-05 0)
(-9.44093e-05 1.609645e-05 0)
(-0.0001003495 1.663353e-05 0)
(-0.0001064669 1.717275e-05 0)
(-0.0001127596 1.770902e-05 0)
(-0.0001192238 1.823687e-05 0)
(-0.0001258539 1.875036e-05 0)
(-0.0001326425 1.924291e-05 0)
(-0.0001395799 1.970756e-05 0)
(-0.0001466534 2.013709e-05 0)
(-0.0001538479 2.0524e-05 0)
(-0.000161146 2.086058e-05 0)
(-0.0001685275 2.113859e-05 0)
(-0.00017597 2.134962e-05 0)
(-0.0001834482 2.148536e-05 0)
(-0.0001909338 2.153734e-05 0)
(-0.0001983955 2.149707e-05 0)
(-0.0002058003 2.135621e-05 0)
(-0.0002131121 2.110672e-05 0)
(-0.0002202931 2.074086e-05 0)
(-0.0002273026 2.025128e-05 0)
(-0.0002340984 1.963117e-05 0)
(-0.0002406364 1.887436e-05 0)
(-0.0002468711 1.797566e-05 0)
(-0.0002527558 1.693096e-05 0)
(-0.0002582435 1.57371e-05 0)
(-0.0002632865 1.439205e-05 0)
(-0.0002678371 1.289527e-05 0)
(-0.0002718486 1.124763e-05 0)
(-0.0002752752 9.451439e-06 0)
(-0.0002780723 7.510626e-06 0)
(-0.0002801976 5.430762e-06 0)
(-0.0002816112 3.218981e-06 0)
(-0.0002822762 8.840035e-07 0)
(-0.0002821584 -1.563924e-06 0)
(-0.0002812286 -4.112582e-06 0)
(-0.0002794612 -6.747183e-06 0)
(-0.0002768355 -9.450397e-06 0)
(-0.0002733366 -1.220269e-05 0)
(-0.0002689558 -1.498261e-05 0)
(-0.0002636906 -1.776708e-05 0)
(-0.0002575457 -2.053182e-05 0)
(-0.0002505329 -2.32517e-05 0)
(-0.0002426713 -2.590099e-05 0)
(-0.0002339871 -2.845362e-05 0)
(-0.0002245137 -3.08836e-05 0)
(-0.0002142917 -3.316543e-05 0)
(-0.0002033692 -3.527443e-05 0)
(-0.0001918004 -3.718708e-05 0)
(-0.0001796464 -3.888138e-05 0)
(-0.000166974 -4.033718e-05 0)
(-0.0001538557 -4.153654e-05 0)
(-0.0001403684 -4.246415e-05 0)
(-0.0001265935 -4.310755e-05 0)
(-0.0001126158 -4.345738e-05 0)
(-9.852291e-05 -4.350753e-05 0)
(-8.440372e-05 -4.325535e-05 0)
(-7.03482e-05 -4.270176e-05 0)
(-5.644648e-05 -4.185125e-05 0)
(-4.278759e-05 -4.071191e-05 0)
(-2.945837e-05 -3.929527e-05 0)
(-1.654264e-05 -3.761621e-05 0)
(-4.120504e-06 -3.569276e-05 0)
(7.732648e-06 -3.354591e-05 0)
(1.894656e-05 -3.119972e-05 0)
(2.945763e-05 -2.868049e-05 0)
(3.920931e-05 -2.601606e-05 0)
(4.815281e-05 -2.323554e-05 0)
(5.624762e-05 -2.036876e-05 0)
(6.346193e-05 -1.744568e-05 0)
(6.977274e-05 -1.449594e-05 0)
(7.516563e-05 -1.154839e-05 0)
(7.963475e-05 -8.630728e-06 0)
(8.318288e-05 -5.769049e-06 0)
(8.582105e-05 -2.987413e-06 0)
(8.756805e-05 -3.076194e-07 0)
(8.844973e-05 2.250968e-06 0)
(8.84987e-05 4.671658e-06 0)
(8.775366e-05 6.940352e-06 0)
(8.625867e-05 9.045305e-06 0)
(8.406248e-05 1.097696e-05 0)
(8.121786e-05 1.272763e-05 0)
(7.778122e-05 1.4291e-05 0)
(7.38121e-05 1.566156e-05 0)
(6.937293e-05 1.683387e-05 0)
(6.452893e-05 1.780176e-05 0)
(5.934813e-05 1.855746e-05 0)
(5.390155e-05 1.909082e-05 0)
(4.826376e-05 1.938834e-05 0)
(4.251344e-05 1.943253e-05 0)
(3.673397e-05 1.920151e-05 0)
(3.101387e-05 1.866903e-05 0)
(2.544735e-05 1.780553e-05 0)
(2.013476e-05 1.658031e-05 0)
(1.518266e-05 1.496564e-05 0)
(1.070385e-05 1.294325e-05 0)
(6.815892e-06 1.051491e-05 0)
(3.643171e-06 7.717716e-06 0)
(1.353502e-06 4.645689e-06 0)
(1.025413e-07 1.487272e-06 0)
(4.607114e-10 -3.472392e-07 0)
(-1.759882e-07 -3.040722e-07 0)
(-6.284348e-07 2.840924e-07 0)
(-1.398349e-06 1.23263e-06 0)
(-2.510214e-06 2.400693e-06 0)
(-3.977132e-06 3.681323e-06 0)
(-5.800781e-06 4.995082e-06 0)
(-7.972355e-06 6.286057e-06 0)
(-1.047637e-05 7.51743e-06 0)
(-1.329365e-05 8.666565e-06 0)
(-1.640255e-05 9.722776e-06 0)
(-1.978064e-05 1.068435e-05 0)
(-2.340614e-05 1.155565e-05 0)
(-2.725939e-05 1.23456e-05 0)
(-3.132318e-05 1.30658e-05 0)
(-3.558305e-05 1.372899e-05 0)
(-4.002815e-05 1.434848e-05 0)
(-4.465e-05 1.493754e-05 0)
(-4.944273e-05 1.550833e-05 0)
(-5.440418e-05 1.60714e-05 0)
(-5.953415e-05 1.663583e-05 0)
(-6.483354e-05 1.720925e-05 0)
(-7.030527e-05 1.779756e-05 0)
(-7.59539e-05 1.840454e-05 0)
(-8.178395e-05 1.90327e-05 0)
(-8.779966e-05 1.968297e-05 0)
(-9.400619e-05 2.03546e-05 0)
(-0.0001004084 2.104562e-05 0)
(-0.0001070089 2.175283e-05 0)
(-0.0001138097 2.247219e-05 0)
(-0.0001208121 2.319854e-05 0)
(-0.0001280155 2.392563e-05 0)
(-0.0001354168 2.464659e-05 0)
(-0.000143011 2.535393e-05 0)
(-0.0001507913 2.60394e-05 0)
(-0.0001587481 2.669403e-05 0)
(-0.0001668695 2.730837e-05 0)
(-0.0001751403 2.787272e-05 0)
(-0.0001835427 2.837685e-05 0)
(-0.000192056 2.881005e-05 0)
(-0.0002006568 2.916135e-05 0)
(-0.0002093187 2.941961e-05 0)
(-0.0002180123 2.957358e-05 0)
(-0.0002267048 2.961194e-05 0)
(-0.0002353606 2.952345e-05 0)
(-0.0002439416 2.929714e-05 0)
(-0.0002524067 2.892252e-05 0)
(-0.0002607129 2.83895e-05 0)
(-0.0002688145 2.768853e-05 0)
(-0.0002766635 2.68109e-05 0)
(-0.0002842108 2.574905e-05 0)
(-0.0002914054 2.449651e-05 0)
(-0.0002981953 2.304824e-05 0)
(-0.0003045283 2.14007e-05 0)
(-0.0003103519 1.955191e-05 0)
(-0.0003156135 1.750166e-05 0)
(-0.000320262 1.525176e-05 0)
(-0.0003242472 1.280604e-05 0)
(-0.0003275207 1.017035e-05 0)
(-0.0003300366 7.352612e-06 0)
(-0.0003317519 4.362897e-06 0)
(-0.0003326268 1.213374e-06 0)
(-0.0003326248 -2.08189e-06 0)
(-0.0003317147 -5.506468e-06 0)
(-0.0003298696 -9.040786e-06 0)
(-0.0003270672 -1.266198e-05 0)
(-0.0003232919 -1.634431e-05 0)
(-0.0003185343 -2.005969e-05 0)
(-0.0003127918 -2.377819e-05 0)
(-0.0003060693 -2.74684e-05 0)
(-0.0002983796 -3.109776e-05 0)
(-0.0002897427 -3.463299e-05 0)
(-0.000280186 -3.804048e-05 0)
(-0.0002697448 -4.128678e-05 0)
(-0.0002584623 -4.433908e-05 0)
(-0.0002463889 -4.71656e-05 0)
(-0.0002335822 -4.973599e-05 0)
(-0.0002201066 -5.202177e-05 0)
(-0.0002060332 -5.399687e-05 0)
(-0.0001914389 -5.563802e-05 0)
(-0.0001764058 -5.692515e-05 0)
(-0.0001610207 -5.784176e-05 0)
(-0.0001453748 -5.837519e-05 0)
(-0.000129562 -5.851691e-05 0)
(-0.0001136784 -5.826276e-05 0)
(-9.782156e-05 -5.761306e-05 0)
(-8.208974e-05 -5.657266e-05 0)
(-6.658036e-05 -5.515097e-05 0)
(-5.138912e-05 -5.336189e-05 0)
(-3.660905e-05 -5.122365e-05 0)
(-2.232968e-05 -4.875853e-05 0)
(-8.635946e-06 -4.599261e-05 0)
(4.392954e-06 -4.295535e-05 0)
(1.668335e-05 -3.967988e-05 0)
(2.816882e-05 -3.620188e-05 0)
(3.879085e-05 -3.255869e-05 0)
(4.84997e-05 -2.878875e-05 0)
(5.725485e-05 -2.493092e-05 0)
(6.502517e-05 -2.1024e-05 0)
(7.178885e-05 -1.710606e-05 0)
(7.75335e-05 -1.321386e-05 0)
(8.225629e-05 -9.382318e-06 0)
(8.596378e-05 -5.643966e-06 0)
(8.867126e-05 -2.028604e-06 0)
(9.040223e-05 1.436862e-06 0)
(9.11879e-05 4.728726e-06 0)
(9.106696e-05 7.826578e-06 0)
(9.008459e-05 1.07131e-05 0)
(8.829187e-05 1.337376e-05 0)
(8.574501e-05 1.579654e-05 0)
(8.25048e-05 1.797129e-05 0)
(7.863617e-05 1.988902e-05 0)
(7.420774e-05 2.154109e-05 0)
(6.929169e-05 2.291819e-05 0)
(6.396363e-05 2.400936e-05 0)
(5.830259e-05 2.480098e-05 0)
(5.239142e-05 2.527572e-05 0)
(4.631727e-05 2.541172e-05 0)
(4.017197e-05 2.51821e-05 0)
(3.405253e-05 2.455508e-05 0)
(2.806178e-05 2.349514e-05 0)
(2.230905e-05 2.196528e-05 0)
(1.691073e-05 1.993096e-05 0)
(1.19913e-05 1.736651e-05 0)
(7.683859e-06 1.426424e-05 0)
(4.134767e-06 1.06474e-05 0)
(1.547743e-06 6.586544e-06 0)
(1.192149e-07 2.22652e-06 0)
(-8.270203e-09 -2.370477e-07 0)
(-3.021343e-07 9.567791e-08 0)
(-9.727629e-07 1.020396e-06 0)
(-2.045192e-06 2.334342e-06 0)
(-3.527759e-06 3.881931e-06 0)
(-5.422401e-06 5.543633e-06 0)
(-7.720711e-06 7.231094e-06 0)
(-1.040661e-05 8.881391e-06 0)
(-1.345951e-05 1.045215e-05 0)
(-1.685577e-05 1.191819e-05 0)
(-2.057024e-05 1.326805e-05 0)
(-2.457845e-05 1.450043e-05 0)
(-2.885705e-05 1.562132e-05 0)
(-3.338524e-05 1.6642e-05 0)
(-3.814548e-05 1.757668e-05 0)
(-4.312296e-05 1.844127e-05 0)
(-4.830645e-05 1.925253e-05 0)
(-5.368772e-05 2.002678e-05 0)
(-5.926162e-05 2.077872e-05 0)
(-6.502633e-05 2.152141e-05 0)
(-7.09818e-05 2.22663e-05 0)
(-7.712958e-05 2.302268e-05 0)
(-8.347337e-05 2.379753e-05 0)
(-9.0018e-05 2.459562e-05 0)
(-9.676823e-05 2.541979e-05 0)
(-0.0001037289 2.627099e-05 0)
(-0.0001109055 2.714795e-05 0)
(-0.0001183025 2.804808e-05 0)
(-0.0001259227 2.896732e-05 0)
(-0.0001337677 2.989998e-05 0)
(-0.0001418384 3.08392e-05 0)
(-0.0001501334 3.177696e-05 0)
(-0.0001586486 3.270433e-05 0)
(-0.0001673777 3.361142e-05 0)
(-0.0001763124 3.448733e-05 0)
(-0.0001854415 3.532052e-05 0)
(-0.0001947507 3.609887e-05 0)
(-0.0002042224 3.680963e-05 0)
(-0.000213836 3.743952e-05 0)
(-0.0002235683 3.797473e-05 0)
(-0.0002333921 3.840121e-05 0)
(-0.0002432776 3.870471e-05 0)
(-0.0002531916 3.887081e-05 0)
(-0.0002630974 3.888511e-05 0)
(-0.0002729549 3.873346e-05 0)
(-0.0002827216 3.840211e-05 0)
(-0.0002923519 3.787783e-05 0)
(-0.0003017982 3.714812e-05 0)