/*--------------------------------*- C++ -*----------------------------------*\
  =========                 |
  \\      /  F ield         | OpenFOAM: The Open Source CFD Toolbox
   \\    /   O peration     | Website:  https://openfoam.org
    \\  /    A nd           | Version:  10
     \\/     M anipulation  |
\*---------------------------------------------------------------------------*/
FoamFile
{
    format      ascii;
    class       volScalarField;
    location    "0.450413";
    object      p;
}
// * * * * * * * * * * * * * * * * * * * * * * * * * * * * * * * * * * * * * //

dimensions      [1 -1 -2 0 0 0 0];

internalField   nonuniform List<scalar> 
16320
(
0.680201
0.660698
0.640219
0.597302
0.537597
0.472046
0.423111
0.393554
0.378196
0.369879
0.365194
0.362425
0.361054
0.357976
0.356403
0.354912
0.353142
0.351764
0.351039
0.350958
0.35199
0.355287
0.358549
0.361847
0.365698
0.369848
0.374312
0.379219
0.384758
0.391058
0.398709
0.408782
0.421758
0.438253
0.458196
0.48086
0.504928
0.528684
0.550407
0.568909
0.583523
0.594739
0.602577
0.607736
0.610901
0.612618
0.613332
0.613464
0.613069
0.612069
0.610509
0.608877
0.606747
0.604103
0.600775
0.596505
0.591062
0.584597
0.576846
0.570749
0.563246
0.555284
0.543425
0.52969
0.512796
0.49689
0.484105
0.474024
0.466791
0.462595
0.463581
0.4644
0.464667
0.464422
0.463465
0.460981
0.458493
0.448641
0.432299
0.414138
0.401834
0.399489
0.405528
0.425444
0.46856
0.543584
0.646665
0.736383
0.77814
0.792796
0.801187
0.810043
0.818463
0.822452
0.819636
0.710475
0.550783
0.437139
0.38238
0.359782
0.352954
0.353308
0.358333
0.366356
0.376162
0.388861
0.407045
0.434528
0.47271
0.516296
0.555438
0.576319
0.582432
0.660326
0.65283
0.6498
0.635538
0.607493
0.554177
0.494221
0.447201
0.414577
0.393762
0.380269
0.372021
0.36676
0.363087
0.359015
0.356432
0.353259
0.350586
0.348472
0.34733
0.347037
0.349539
0.351885
0.354965
0.358546
0.362915
0.368113
0.374222
0.380941
0.387293
0.395318
0.405603
0.418624
0.435124
0.45515
0.478184
0.503063
0.528389
0.552353
0.573134
0.589775
0.601907
0.609872
0.614324
0.616858
0.619138
0.619637
0.619386
0.618501
0.617032
0.61505
0.61295
0.610387
0.607284
0.603457
0.59865
0.592885
0.585446
0.579764
0.573555
0.56653
0.558757
0.548082
0.535308
0.519829
0.505217
0.493183
0.483987
0.477619
0.473899
0.472557
0.474495
0.475617
0.476015
0.475512
0.473488
0.471742
0.463651
0.449345
0.43337
0.423584
0.424006
0.432658
0.456399
0.500803
0.569222
0.658205
0.742832
0.791809
0.807734
0.812388
0.813162
0.813032
0.809454
0.798362
0.749269
0.605189
0.473477
0.399136
0.366998
0.356694
0.355754
0.359625
0.367029
0.37635
0.388838
0.407315
0.435838
0.475942
0.521749
0.56154
0.579644
0.585257
0.640081
0.641603
0.64576
0.650703
0.654237
0.637051
0.593071
0.536718
0.485127
0.444836
0.417134
0.397953
0.384635
0.376074
0.367546
0.362273
0.356925
0.352282
0.3484
0.345193
0.34339
0.344924
0.346298
0.349304
0.35294
0.357874
0.363507
0.370045
0.376422
0.382779
0.391362
0.401923
0.414994
0.431318
0.451354
0.474875
0.50091
0.528008
0.55525
0.579598
0.599422
0.613895
0.622915
0.627242
0.62862
0.627737
0.627098
0.626094
0.624626
0.62267
0.6203
0.617658
0.614628
0.611005
0.606557
0.601139
0.594647
0.588164
0.582855
0.576832
0.57036
0.56275
0.553624
0.541574
0.527703
0.514619
0.503644
0.495336
0.489551
0.486142
0.483594
0.485917
0.48747
0.488303
0.488235
0.48678
0.485934
0.479847
0.469227
0.457119
0.45203
0.455679
0.468914
0.497223
0.541569
0.602663
0.672996
0.742023
0.791023
0.814197
0.816644
0.813387
0.807857
0.797011
0.779865
0.751544
0.658849
0.521335
0.426261
0.38024
0.363489
0.359936
0.361825
0.368069
0.376285
0.387635
0.405158
0.434125
0.476316
0.52471
0.565242
0.582105
0.588033
0.623953
0.63046
0.636515
0.648911
0.664858
0.672711
0.664135
0.632682
0.581853
0.526401
0.478563
0.443103
0.41892
0.401971
0.38679
0.376235
0.366899
0.358454
0.351473
0.346219
0.342487
0.340239
0.342552
0.344255
0.34805
0.353003
0.358852
0.365469
0.371177
0.378616
0.387717
0.398032
0.410931
0.426825
0.446771
0.471214
0.498443
0.527674
0.557514
0.586078
0.609319
0.625797
0.634983
0.638038
0.63837
0.637158
0.635254
0.633388
0.631311
0.628891
0.626143
0.623011
0.61943
0.615192
0.610081
0.60404
0.597178
0.591799
0.586355
0.580514
0.574769
0.567317
0.559641
0.54838
0.536259
0.524862
0.515389
0.508306
0.503262
0.500095
0.497257
0.497949
0.499687
0.500762
0.501025
0.50022
0.500723
0.497762
0.491973
0.485897
0.486302
0.493642
0.511996
0.543018
0.585716
0.628328
0.67586
0.725705
0.769257
0.795793
0.808008
0.806076
0.797819
0.781483
0.757658
0.736292
0.684921
0.568153
0.467283
0.402719
0.374411
0.365959
0.365084
0.369587
0.376276
0.385989
0.401497
0.429601
0.472743
0.523541
0.56692
0.58481
0.591619
0.611074
0.619834
0.625644
0.638062
0.655802
0.670907
0.67805
0.673417
0.652437
0.611718
0.557388
0.506594
0.46725
0.439804
0.418414
0.401128
0.38631
0.372359
0.360197
0.349888
0.343547
0.342252
0.338782
0.341006
0.344131
0.348878
0.354912
0.359614
0.36709
0.375019
0.383782
0.393734
0.406051
0.422059
0.442214
0.465837
0.493273
0.524219
0.55688
0.590901
0.619911
0.638934
0.647843
0.650933
0.649817
0.647049
0.643363
0.640941
0.638323
0.635577
0.632441
0.628849
0.624705
0.619839
0.614232
0.607458
0.60065
0.595346
0.590046
0.584591
0.579126
0.57218
0.5656
0.555569
0.545266
0.535758
0.528075
0.522471
0.518573
0.515817
0.512732
0.510838
0.511991
0.512934
0.513328
0.513281
0.514986
0.515199
0.515221
0.516584
0.521933
0.534407
0.556761
0.584418
0.61048
0.634547
0.665933
0.698387
0.729807
0.757503
0.778435
0.780746
0.774426
0.758127
0.733519
0.712777
0.675728
0.60079
0.504419
0.434222
0.390222
0.373378
0.36932
0.371492
0.376403
0.384243
0.39729
0.423532
0.465797
0.51884
0.566084
0.586906
0.594583
0.600949
0.612079
0.614906
0.624561
0.638276
0.653515
0.665981
0.672179
0.668288
0.651265
0.618919
0.571745
0.52383
0.485526
0.457503
0.434526
0.415654
0.396193
0.377858
0.361016
0.346316
0.342607
0.338024
0.338455
0.340693
0.343334
0.349217
0.357223
0.363618
0.37118
0.379418
0.3889
0.401724
0.416052
0.43406
0.458126
0.49001
0.528944
0.570556
0.610508
0.641698
0.660786
0.666976
0.665961
0.660873
0.654901
0.65101
0.64851
0.645363
0.642477
0.638988
0.634953
0.630268
0.624773
0.618474
0.611144
0.604363
0.599071
0.593923
0.588747
0.583708
0.577602
0.571102
0.562838
0.554687
0.547487
0.542047
0.538268
0.535554
0.532802
0.529036
0.525385
0.524095
0.52443
0.524674
0.525257
0.528398
0.531706
0.535879
0.542576
0.554523
0.570176
0.58771
0.601784
0.614264
0.629008
0.647718
0.666852
0.686388
0.711131
0.729258
0.739343
0.736779
0.725548
0.706241
0.682597
0.654082
0.604901
0.532083
0.461881
0.409509
0.382059
0.373676
0.373547
0.37656
0.382558
0.393686
0.417504
0.458702
0.512939
0.563494
0.587859
0.596222
0.591165
0.602624
0.606665
0.611013
0.619788
0.630702
0.642854
0.653243
0.658571
0.654668
0.639046
0.611451
0.57174
0.530941
0.498022
0.471252
0.450086
0.428343
0.405123
0.381991
0.362944
0.347348
0.342867
0.338709
0.339667
0.344183
0.348976
0.353687
0.359786
0.36678
0.375078
0.385107
0.395722
0.408258
0.428644
0.453984
0.487599
0.530246
0.57825
0.625117
0.664994
0.686688
0.689333
0.681623
0.670775
0.662087
0.657881
0.653862
0.652184
0.64897
0.645428
0.641029
0.635823
0.629682
0.622636
0.614835
0.608185
0.602982
0.598026
0.59318
0.58826
0.58285
0.576989
0.570435
0.564442
0.559517
0.55632
0.554237
0.552269
0.548872
0.543455
0.539223
0.535953
0.535058
0.534708
0.535546
0.538911
0.540923
0.549707
0.563525
0.577437
0.589097
0.598104
0.604442
0.610688
0.617613
0.626077
0.635878
0.647671
0.664368
0.678758
0.689597
0.690526
0.685351
0.672278
0.65133
0.629838
0.594395
0.542667
0.482092
0.424815
0.390309
0.377106
0.374878
0.376212
0.380717
0.390647
0.411876
0.452143
0.507265
0.559772
0.586682
0.595913
0.581146
0.592621
0.599097
0.599201
0.601808
0.607805
0.617002
0.628109
0.637796
0.642348
0.637374
0.623148
0.598803
0.565287
0.532615
0.505817
0.483437
0.462744
0.438423
0.411533
0.385068
0.36362
0.35053
0.344613
0.34287
0.344212
0.346245
0.349941
0.355652
0.362495
0.370177
0.379117
0.390154
0.406776
0.426021
0.453084
0.488962
0.534559
0.587794
0.644894
0.692468
0.712785
0.709477
0.693956
0.678149
0.668088
0.663209
0.660587
0.657746
0.654663
0.651468
0.646784
0.641111
0.634463
0.626886
0.61865
0.612104
0.607087
0.602241
0.597741
0.593013
0.588174
0.582922
0.578445
0.574619
0.571953
0.570625
0.569642
0.567571
0.562635
0.555857
0.550382
0.545865
0.543805
0.542926
0.543343
0.544316
0.550437
0.559951
0.572371
0.584543
0.593199
0.599047
0.602027
0.602241
0.602511
0.604424
0.608075
0.613587
0.623081
0.632464
0.641428
0.644297
0.643889
0.636822
0.623819
0.604125
0.580174
0.542704
0.492208
0.437015
0.394057
0.378065
0.374857
0.374722
0.377848
0.386653
0.4062
0.446054
0.502079
0.555464
0.583648
0.593217
0.573082
0.583023
0.589457
0.587419
0.584642
0.58603
0.592301
0.603182
0.615933
0.625611
0.628326
0.622921
0.608972
0.585917
0.557905
0.532636
0.51189
0.493422
0.472118
0.445385
0.415211
0.386542
0.365268
0.352155
0.3458
0.343793
0.343808
0.346622
0.351593
0.356805
0.3641
0.373358
0.38554
0.404009
0.427417
0.459187
0.501031
0.55174
0.60765
0.660933
0.700286
0.714955
0.709173
0.694294
0.680207
0.671159
0.667145
0.664877
0.662753
0.660246
0.656358
0.651912
0.645926
0.638784
0.630954
0.622468
0.616126
0.611198
0.606771
0.602566
0.598394
0.593649
0.58977
0.586889
0.585144
0.584345
0.584205
0.583459
0.580359
0.572774
0.565624
0.558761
0.55333
0.550471
0.549115
0.548511
0.550055
0.554231
0.562055
0.573222
0.584601
0.592266
0.595975
0.593974
0.590271
0.585847
0.583663
0.583414
0.584646
0.588813
0.593591
0.599511
0.603162
0.605101
0.602099
0.595818
0.583118
0.566643
0.539444
0.496228
0.44357
0.395134
0.377095
0.372847
0.371956
0.374408
0.381956
0.40094
0.440266
0.497228
0.551376
0.579989
0.590092
0.567047
0.573373
0.577982
0.574506
0.568196
0.56567
0.569201
0.580263
0.595584
0.610262
0.617562
0.618753
0.611538
0.596389
0.574465
0.552135
0.533593
0.517546
0.500957
0.478257
0.44879
0.415752
0.386236
0.364459
0.350977
0.344442
0.342711
0.344158
0.34648
0.351164
0.35837
0.367083
0.382589
0.405517
0.436976
0.480876
0.535535
0.592418
0.644075
0.684461
0.70586
0.710929
0.703947
0.692445
0.681794
0.674348
0.670833
0.669438
0.667551
0.665051
0.661423
0.656079
0.650032
0.642614
0.634736
0.626692
0.620616
0.615996
0.611415
0.60755
0.603708
0.599968
0.597181
0.595123
0.595379
0.595869
0.596195
0.594817
0.589578
0.579471
0.571901
0.564677
0.558664
0.555298
0.553558
0.552408
0.553027
0.554628
0.561005
0.571928
0.581438
0.58683
0.587214
0.582025
0.576464
0.569452
0.564838
0.561782
0.559978
0.560977
0.562233
0.565436
0.568861
0.572263
0.572512
0.572015
0.567558
0.5555
0.536694
0.498654
0.447197
0.394701
0.376221
0.371637
0.369557
0.370876
0.377588
0.396036
0.43532
0.493155
0.548415
0.576525
0.586543
0.56148
0.563932
0.565851
0.561081
0.551581
0.547105
0.550319
0.560463
0.578087
0.59689
0.608142
0.613207
0.611498
0.602141
0.585556
0.566217
0.549073
0.535247
0.52283
0.506266
0.481229
0.44854
0.413123
0.382232
0.359546
0.347604
0.342468
0.340677
0.341274
0.345413
0.352222
0.361764
0.382387
0.412702
0.460051
0.521557
0.589252
0.651742
0.698286
0.715806
0.708844
0.705773
0.695363
0.68991
0.684392
0.67905
0.676133
0.673764
0.672233
0.669602
0.665817
0.660909
0.654442
0.647021
0.638913
0.631268
0.625435
0.620582
0.615773
0.612351
0.608636
0.605816
0.604351
0.603863
0.604519
0.605713
0.605835
0.603229
0.595023
0.583083
0.575331
0.568456
0.562308
0.558636
0.556508
0.554844
0.553788
0.554837
0.559076
0.56745
0.574075
0.576655
0.574765
0.568373
0.562177
0.554268
0.548012
0.543218
0.539387
0.538633
0.537924
0.539287
0.542331
0.546932
0.550204
0.554392
0.554962
0.549499
0.536301
0.502708
0.450358
0.394809
0.377016
0.371789
0.368836
0.36945
0.374382
0.393771
0.432432
0.490828
0.546647
0.573346
0.583434
0.557377
0.556729
0.554719
0.547435
0.536237
0.530589
0.53381
0.545923
0.565984
0.586872
0.600986
0.608523
0.610664
0.605841
0.593479
0.577188
0.561127
0.54862
0.539128
0.527824
0.509142
0.480437
0.443941
0.405838
0.374617
0.354971
0.342769
0.337788
0.336831
0.339529
0.342784
0.358642
0.384767
0.427543
0.487864
0.564812
0.646559
0.710431
0.73936
0.735002
0.731006
0.719955
0.707659
0.693313
0.68475
0.682221
0.681603
0.680064
0.677577
0.674269
0.670156
0.664902
0.658449
0.651224
0.643458
0.636365
0.630353
0.625166
0.619915
0.617209
0.613971
0.612008
0.610812
0.611119
0.612542
0.613611
0.612989
0.608788
0.597523
0.584045
0.576882
0.570491
0.564462
0.560737
0.558223
0.556356
0.553818
0.553185
0.55391
0.559173
0.563797
0.564082
0.560995
0.554259
0.547958
0.540314
0.533152
0.527332
0.522611
0.521022
0.519792
0.520832
0.523971
0.529959
0.536376
0.544432
0.548428
0.546961
0.538471
0.50889
0.452388
0.394968
0.380741
0.37439
0.370277
0.370473
0.373636
0.392335
0.431669
0.490176
0.546202
0.571333
0.580726
0.555034
0.551032
0.545678
0.535607
0.523107
0.516923
0.521296
0.534545
0.55539
0.579766
0.59583
0.604818
0.609523
0.608438
0.599767
0.586331
0.571814
0.558959
0.551369
0.543823
0.530506
0.507813
0.474742
0.435124
0.396407
0.364902
0.34491
0.335624
0.332546
0.332251
0.33593
0.356674
0.389855
0.441369
0.512379
0.600526
0.694471
0.744995
0.761434
0.758541
0.748842
0.734131
0.721162
0.708417
0.697183
0.691131
0.688585
0.685244
0.682535
0.679388
0.674779
0.669232
0.662875
0.65563
0.647724
0.640378
0.635093
0.630228
0.625771
0.621815
0.619015
0.617053
0.616167
0.616611
0.61807
0.619018
0.617676
0.611817
0.598162
0.583215
0.577542
0.571387
0.565529
0.561721
0.558984
0.556065
0.552919
0.549783
0.54842
0.550418
0.552163
0.550904
0.547013
0.540568
0.534379
0.527194
0.519916
0.513776
0.508921
0.507463
0.50703
0.508821
0.513388
0.521527
0.531134
0.541783
0.548079
0.548138
0.541203
0.513131
0.451617
0.396112
0.386572
0.379174
0.37439
0.374383
0.375886
0.391361
0.432751
0.491863
0.547713
0.570832
0.575586
0.550624
0.547284
0.538916
0.52627
0.514167
0.508362
0.513669
0.528104
0.549447
0.572935
0.593134
0.602557
0.608775
0.610291
0.605434
0.594933
0.582091
0.570089
0.561551
0.554929
0.547222
0.530937
0.504222
0.466589
0.422192
0.380916
0.351047
0.335969
0.328027
0.324295
0.332095
0.35527
0.392367
0.448873
0.529748
0.627219
0.723167
0.76775
0.781312
0.785466
0.772934
0.750808
0.737486
0.726014
0.712714
0.703855
0.700457
0.694159
0.688907
0.684812
0.680203
0.674487
0.667695
0.659789
0.651497
0.64549
0.639978
0.634942
0.62971
0.625656
0.622504
0.620909
0.620162
0.620341
0.621248
0.622153
0.620153
0.612849
0.59755
0.581539
0.577631
0.571201
0.565619
0.561855
0.559146
0.555281
0.551404
0.54654
0.542987
0.542156
0.541063
0.538233
0.53364
0.527962
0.522369
0.515812
0.508422
0.502449
0.49809
0.497497
0.49866
0.50238
0.509417
0.519946
0.53171
0.543313
0.550189
0.549863
0.542552
0.511539
0.447446
0.400874
0.392633
0.385365
0.380519
0.380465
0.380949
0.393802
0.43351
0.493691
0.548145
0.569777
0.573936
0.549764
0.543082
0.536297
0.522177
0.51076
0.506762
0.512464
0.527399
0.549011
0.571206
0.589753
0.602089
0.608891
0.611942
0.61068
0.602531
0.591522
0.580355
0.571843
0.56583
0.559352
0.547961
0.528062
0.496511
0.453006
0.404374
0.363576
0.339532
0.32664
0.319405
0.329201
0.352637
0.391055
0.449392
0.533946
0.63553
0.740845
0.79842
0.815609
0.82359
0.806789
0.781606
0.751918
0.74626
0.7318
0.717413
0.709723
0.707448
0.697903
0.692618
0.686698
0.680284
0.673166
0.663008
0.657151
0.650561
0.644355
0.638493
0.633118
0.62862
0.62587
0.623951
0.622984
0.622818
0.623033
0.62331
0.621012
0.612619
0.596923
0.580827
0.576182
0.569938
0.565016
0.561427
0.558125
0.554451
0.549448
0.543868
0.538432
0.534862
0.531265
0.526765
0.521933
0.516693
0.511488
0.505803
0.498499
0.492875
0.489676
0.490544
0.493865
0.500202
0.509552
0.521482
0.534725
0.546125
0.550959
0.548466
0.538185
0.502763
0.441178
0.409202
0.400763
0.3933
0.388579
0.388165
0.388018
0.398111
0.433758
0.494831
0.548089
0.568086
0.572825
0.549198
0.544364
0.535597
0.524334
0.512968
0.509827
0.515278
0.529773
0.551199
0.572718
0.590176
0.60146
0.609998
0.614554
0.614884
0.60897
0.599996
0.590058
0.581642
0.575272
0.569936
0.561168
0.546342
0.522129
0.484825
0.435054
0.38536
0.34926
0.32885
0.318135
0.32531
0.347292
0.38665
0.446632
0.532329
0.634485
0.753143
0.838435
0.877897
0.891274
0.858819
0.816092
0.77622
0.766304
0.750823
0.737773
0.720736
0.714563
0.706995
0.700485
0.693011
0.682993
0.674931
0.669351
0.662075
0.654687
0.647829
0.641448
0.636453
0.631577
0.628467
0.626215
0.624939
0.624293
0.623814
0.622934
0.620196
0.61128
0.59592
0.580179
0.573276
0.568071
0.563816
0.560349
0.556898
0.553042
0.547718
0.542066
0.535377
0.528963
0.522721
0.516691
0.511912
0.507208
0.502701
0.497224
0.49026
0.485619
0.483676
0.486071
0.491899
0.500335
0.511253
0.524133
0.535873
0.544139
0.545448
0.541203
0.52663
0.488026
0.435345
0.420365
0.410478
0.40233
0.397727
0.396464
0.396105
0.40397
0.434413
0.494883
0.548909
0.563818
0.57181
0.549929
0.545284
0.539017
0.527494
0.519039
0.517016
0.522787
0.536739
0.556733
0.576553
0.592538
0.603763
0.61173
0.617001
0.61859
0.614648
0.607509
0.598829
0.590689
0.583916
0.578823
0.571711
0.559966
0.541113
0.51246
0.468483
0.415721
0.368485
0.33694
0.320778
0.32166
0.340481
0.376236
0.437798
0.525221
0.624876
0.75112
0.882078
0.944526
0.958453
0.909965
0.848969
0.810097
0.784422
0.772575
0.75677
0.741729
0.727114
0.719353
0.708463
0.699065
0.691246
0.682438
0.674334
0.665837
0.657987
0.65054
0.64425
0.63792
0.633453
0.630148
0.627678
0.625995
0.62473
0.623416
0.621396
0.61798
0.609098
0.593939
0.578852
0.570055
0.566101
0.562377
0.559114
0.555777
0.552038
0.546885
0.54111
0.533499
0.52505
0.516291
0.508633
0.503764
0.499916
0.495761
0.489568
0.483413
0.480184
0.480116
0.484477
0.491828
0.501039
0.511624
0.52245
0.531463
0.536063
0.534115
0.527627
0.51105
0.473316
0.437109
0.429312
0.419147
0.411213
0.406672
0.403942
0.40521
0.411153
0.436443
0.493457
0.549026
0.560012
0.570203
0.551933
0.547102
0.543968
0.535266
0.528917
0.528993
0.535394
0.549016
0.566481
0.584038
0.59699
0.607309
0.613937
0.618977
0.62107
0.61938
0.61389
0.606298
0.598798
0.591932
0.586046
0.580104
0.570265
0.554913
0.532061
0.498484
0.450467
0.398474
0.353888
0.329064
0.322001
0.331183
0.363477
0.4211
0.508097
0.600777
0.739958
0.895979
0.972527
0.990268
0.938834
0.877594
0.836238
0.804074
0.79366
0.776081
0.758811
0.743567
0.73129
0.719947
0.708706
0.698027
0.687621
0.677805
0.668926
0.660522
0.652301
0.645098
0.639538
0.634484
0.631039
0.628323
0.626183
0.624255
0.622062
0.619161
0.614936
0.605945
0.590975
0.577317
0.567714
0.564049
0.561049
0.55811
0.555011
0.551544
0.547137
0.540493
0.533718
0.523354
0.513147
0.504471
0.499575
0.495613
0.490926
0.484558
0.479404
0.477839
0.479688
0.484691
0.49189
0.50018
0.509063
0.517338
0.522744
0.523463
0.520438
0.512073
0.493719
0.462607
0.447543
0.437694
0.427759
0.420571
0.415847
0.411464
0.415085
0.419575
0.439787
0.490094
0.548279
0.557582
0.568968
0.555554
0.551809
0.548768
0.545276
0.54234
0.544683
0.551735
0.563964
0.579103
0.59294
0.601174
0.609608
0.615585
0.620187
0.622541
0.622568
0.61857
0.612252
0.605585
0.598823
0.592266
0.586864
0.578195
0.565133
0.546154
0.520745
0.48345
0.437569
0.387633
0.344827
0.334465
0.331341
0.355526
0.406044
0.488504
0.5759
0.708608
0.874238
0.956451
0.976218
0.940745
0.893387
0.859872
0.823631
0.813334
0.794402
0.77441
0.75649
0.741133
0.727012
0.713806
0.701579
0.690194
0.679652
0.669805
0.660742
0.653019
0.646028
0.640074
0.634954
0.631234
0.628224
0.625609
0.623003
0.619948
0.616288
0.611748
0.602238
0.588575
0.576297
0.566669
0.562084
0.560027
0.557678
0.554985
0.551968
0.548032
0.542212
0.534376
0.522931
0.512169
0.503156
0.498465
0.493982
0.488784
0.48271
0.479144
0.478368
0.480533
0.485499
0.491191
0.497815
0.503942
0.508641
0.510635
0.510155
0.507007
0.500318
0.485665
0.464106
0.457413
0.445998
0.436346
0.429728
0.424474
0.420083
0.423304
0.427501
0.444045
0.485643
0.546256
0.556448
0.569001
0.560099
0.557547
0.555648
0.554711
0.554672
0.559674
0.567717
0.578543
0.590613
0.597082
0.605318
0.611414
0.616595
0.620911
0.623437
0.624325
0.621508
0.616731
0.611017
0.604656
0.598101
0.592103
0.58436
0.572809
0.556627
0.536151
0.508794
0.473905
0.434222
0.385698
0.347968
0.346007
0.359344
0.40245
0.474509
0.560282
0.658492
0.780955
0.889167
0.919505
0.92213
0.895995
0.867868
0.846065
0.830268
0.8072
0.784154
0.763233
0.746238
0.730342
0.715772
0.702707
0.69077
0.679909
0.669916
0.660851
0.652825
0.645718
0.639747
0.634735
0.630913
0.627621
0.624545
0.621344
0.617659
0.613275
0.608172
0.599009
0.587251
0.575687
0.566245
0.562081
0.559618
0.558154
0.556027
0.553545
0.550258
0.544254
0.536153
0.524318
0.513009
0.504343
0.49996
0.494811
0.489051
0.483857
0.480863
0.48034
0.482408
0.486066
0.489862
0.494185
0.497777
0.500013
0.501429
0.501325
0.499717
0.494064
0.481171
0.47633
0.464621
0.453806
0.444931
0.438158
0.432282
0.428285
0.430341
0.434533
0.448877
0.482998
0.542012
0.556142
0.570054
0.565219
0.563799
0.56316
0.563535
0.566753
0.573948
0.581857
0.587806
0.594871
0.602267
0.607695
0.612514
0.617108
0.620992
0.623197
0.624637
0.622976
0.61985
0.615185
0.60951
0.603302
0.596399
0.589312
0.578703
0.564442
0.546841
0.526688
0.501723
0.474311
0.441066
0.398069
0.366846
0.375775
0.410357
0.475695
0.559346
0.631393
0.70764
0.783412
0.857295
0.882372
0.889055
0.877311
0.860909
0.843165
0.82168
0.798288
0.774306
0.752195
0.730375
0.713958
0.70061
0.688767
0.678061
0.668222
0.659416
0.651671
0.644939
0.639085
0.634357
0.630433
0.626863
0.623335
0.6196
0.615386
0.610513
0.604544
0.596681
0.586543
0.575592
0.567015
0.562759
0.560796
0.559781
0.558284
0.556331
0.553426
0.547755
0.539478
0.527411
0.516342
0.509162
0.503501
0.498293
0.492544
0.486639
0.483611
0.482879
0.4841
0.486564
0.488813
0.490974
0.493775
0.496156
0.498612
0.500408
0.500032
0.495347
0.492795
0.483398
0.471521
0.461348
0.453144
0.445217
0.439433
0.436359
0.43702
0.441272
0.45364
0.483041
0.532073
0.556947
0.571991
0.570686
0.570137
0.57108
0.572876
0.575474
0.581403
0.588107
0.595852
0.60112
0.605466
0.609322
0.61315
0.617052
0.620368
0.622622
0.623911
0.62354
0.621812
0.618494
0.613479
0.60778
0.600336
0.593402
0.583238
0.570208
0.554784
0.538808
0.521207
0.504023
0.486173
0.463628
0.432534
0.419446
0.44124
0.490073
0.556365
0.617799
0.669757
0.716923
0.786616
0.841321
0.871147
0.879262
0.877972
0.866475
0.842499
0.809106
0.775957
0.749418
0.731857
0.715418
0.700138
0.687095
0.675961
0.666362
0.658093
0.651038
0.64494
0.6392
0.634576
0.630426
0.62649
0.622466
0.618173
0.613491
0.608315
0.601979
0.595018
0.58647
0.576497
0.568803
0.564692
0.563346
0.562513
0.561838
0.560512
0.558018
0.553102
0.544524
0.532589
0.521711
0.515605
0.509636
0.503945
0.497864
0.490665
0.486974
0.485667
0.486027
0.487652
0.489526
0.491739
0.495325
0.499233
0.502956
0.505213
0.502999
0.504612
0.500331
0.488956
0.478433
0.469134
0.459343
0.451139
0.445267
0.442085
0.441636
0.448143
0.457929
0.480812
0.518955
0.56055
0.574199
0.575734
0.575027
0.575868
0.579206
0.584567
0.590375
0.59552
0.600651
0.604524
0.607725
0.61062
0.61339
0.616534
0.61915
0.621232
0.622882
0.623744
0.623174
0.621042
0.616934
0.611679
0.604478
0.596415
0.586556
0.574419
0.560702
0.547806
0.534874
0.524742
0.517523
0.512138
0.506381
0.501238
0.508075
0.528283
0.562099
0.604522
0.64044
0.686441
0.724303
0.78576
0.841009
0.873153
0.885094
0.885122
0.858895
0.817494
0.772299
0.737318
0.715472
0.700496
0.6875
0.676579
0.667518
0.660022
0.653783
0.648395
0.643504
0.638934
0.634355
0.630417
0.626401
0.62211
0.617459
0.61245
0.607057
0.601058
0.594643
0.587296
0.57864
0.571863
0.568217
0.567358
0.566287
0.566726
0.566144
0.564132
0.560268
0.551814
0.539819
0.530056
0.52453
0.518728
0.512033
0.505602
0.49662
0.491785
0.489802
0.489546
0.490746
0.492341
0.495184
0.500769
0.507165
0.513407
0.514544
0.518109
0.514206
0.505133
0.495393
0.485873
0.47471
0.464403
0.45597
0.450145
0.447625
0.448436
0.452854
0.462283
0.480644
0.512891
0.553927
0.574855
0.581804
0.581413
0.583394
0.586774
0.59127
0.595911
0.600062
0.603957
0.607214
0.609733
0.611771
0.613708
0.615675
0.617884
0.619963
0.621929
0.623642
0.624392
0.62309
0.620169
0.615342
0.608492
0.598603
0.588954
0.577367
0.564974
0.553942
0.544788
0.539424
0.538454
0.541279
0.546937
0.552749
0.559076
0.564862
0.572897
0.590917
0.620832
0.65565
0.693215
0.732822
0.794905
0.854513
0.871547
0.86809
0.831526
0.790095
0.748504
0.715461
0.691604
0.675768
0.666174
0.659688
0.654924
0.651028
0.647744
0.644725
0.641724
0.638589
0.635135
0.63135
0.627193
0.622681
0.617789
0.612645
0.607275
0.601613
0.595832
0.589524
0.582317
0.576552
0.573501
0.572968
0.573194
0.573391
0.573432
0.571811
0.568886
0.560667
0.54962
0.540861
0.535853
0.529804
0.522982
0.51573
0.505164
0.498804
0.495981
0.49527
0.496684
0.498979
0.503839
0.512965
0.520828
0.521249
0.526115
0.524821
0.519004
0.510783
0.502423
0.490774
0.479049
0.468337
0.459621
0.453992
0.451859
0.453287
0.457527
0.468626
0.483087
0.508299
0.541633
0.574491
0.58806
0.587837
0.589351
0.592187
0.596084
0.600125
0.603833
0.607124
0.609844
0.611895
0.613285
0.614196
0.6154
0.617144
0.619168
0.621403
0.623672
0.625266
0.624926
0.623086
0.619101
0.612215
0.600686
0.590951
0.579552
0.568184
0.558681
0.552593
0.550417
0.552283
0.557794
0.56551
0.572389
0.576966
0.578155
0.578256
0.582988
0.600816
0.630168
0.664641
0.694107
0.735409
0.808883
0.832977
0.824937
0.789766
0.750924
0.713746
0.685745
0.666108
0.654483
0.648673
0.645262
0.643925
0.643753
0.643374
0.642612
0.641202
0.638966
0.636179
0.63282
0.628878
0.624398
0.619359
0.614206
0.60904
0.603852
0.598764
0.593438
0.587799
0.583264
0.580717
0.580429
0.581356
0.581468
0.582203
0.581106
0.579146
0.571697
0.561833
0.553919
0.548776
0.543155
0.536243
0.528334
0.516859
0.508869
0.505124
0.504177
0.506141
0.510711
0.518261
0.527261
0.527563
0.53302
0.532695
0.529404
0.524141
0.517031
0.505978
0.494107
0.481799
0.470675
0.462274
0.457136
0.455852
0.45785
0.46394
0.473683
0.487231
0.507347
0.535007
0.5661
0.594607
0.593971
0.594808
0.597143
0.600544
0.604161
0.607617
0.610539
0.612946
0.614439
0.615382
0.615634
0.616131
0.617406
0.619297
0.621583
0.624068
0.6262
0.626711
0.625627
0.622511
0.615313
0.603834
0.592875
0.58153
0.571006
0.562837
0.558649
0.558868
0.562096
0.56856
0.575422
0.580604
0.583084
0.582878
0.580855
0.581402
0.590723
0.610183
0.638926
0.668914
0.69148
0.742417
0.776992
0.765248
0.74058
0.710075
0.682972
0.663866
0.647812
0.637238
0.63326
0.632922
0.634675
0.636805
0.638398
0.639979
0.640639
0.640146
0.638221
0.635232
0.631378
0.626718
0.621949
0.617115
0.612357
0.607754
0.603493
0.599364
0.595295
0.592066
0.590265
0.590131
0.591311
0.591119
0.592598
0.592067
0.591134
0.584641
0.576252
0.56885
0.563421
0.558525
0.552005
0.54369
0.531816
0.522435
0.517829
0.516673
0.519049
0.525133
0.53004
0.532019
0.536935
0.537087
0.535318
0.533864
0.528215
0.519788
0.508677
0.495935
0.482682
0.471636
0.463878
0.459734
0.459466
0.462414
0.469336
0.479623
0.492575
0.509359
0.531351
0.557614
0.601654
0.600396
0.600636
0.602335
0.605099
0.608275
0.61151
0.614434
0.616673
0.618159
0.618861
0.618702
0.618464
0.61898
0.620442
0.622572
0.625134
0.627541
0.628599
0.628118
0.625769
0.619204
0.607647
0.593001
0.58252
0.573355
0.566848
0.564312
0.565771
0.570477
0.576969
0.582821
0.586579
0.587859
0.58712
0.584767
0.583679
0.588461
0.601167
0.622967
0.648345
0.67931
0.691142
0.729601
0.714789
0.697995
0.675508
0.661303
0.647447
0.634641
0.626366
0.622977
0.622985
0.626909
0.632147
0.636946
0.640052
0.64166
0.642508
0.640612
0.637902
0.634358
0.630264
0.625921
0.621579
0.61731
0.613259
0.609701
0.606728
0.604424
0.602675
0.601834
0.602011
0.602892
0.603411
0.604725
0.604976
0.605249
0.599825
0.592754
0.585529
0.579793
0.575086
0.569332
0.561022
0.54945
0.538671
0.532841
0.531026
0.532782
0.5323
0.535401
0.539626
0.540568
0.53851
0.538881
0.534827
0.528907
0.520311
0.509177
0.496592
0.48408
0.47293
0.464513
0.461816
0.462711
0.467062
0.474647
0.485128
0.497276
0.514579
0.531947
0.552797
0.609156
0.607186
0.606747
0.60776
0.609816
0.61262
0.615609
0.618522
0.621057
0.622989
0.624003
0.623929
0.623232
0.622833
0.623482
0.62511
0.627376
0.629701
0.631032
0.630892
0.628904
0.622963
0.610892
0.594644
0.582209
0.574794
0.570346
0.56976
0.572522
0.578427
0.584935
0.590311
0.593341
0.594079
0.592925
0.591099
0.589271
0.592033
0.601246
0.618433
0.640132
0.668505
0.690259
0.710536
0.698563
0.683814
0.661309
0.652173
0.639473
0.627857
0.622155
0.620965
0.622562
0.625917
0.630569
0.635774
0.64055
0.642639
0.642659
0.642614
0.640988
0.638485
0.635322
0.631683
0.627846
0.62401
0.620282
0.617259
0.615251
0.614421
0.614438
0.614918
0.615753
0.616451
0.617715
0.61793
0.619434
0.62063
0.617068
0.61144
0.604441
0.597843
0.591868
0.586493
0.577982
0.567564
0.557179
0.549486
0.543936
0.541168
0.542798
0.543716
0.543526
0.542277
0.540318
0.537478
0.533298
0.527181
0.518724
0.508115
0.496297
0.484562
0.474537
0.467889
0.464248
0.465361
0.471482
0.480475
0.491318
0.504514
0.519324
0.535271
0.552647
0.616992
0.614121
0.61299
0.613161
0.614613
0.61687
0.619686
0.62279
0.625869
0.628598
0.630697
0.631623
0.63094
0.629799
0.629538
0.630134
0.631499
0.633174
0.634261
0.634366
0.632455
0.627264
0.61543
0.598892
0.585283
0.574946
0.573593
0.574996
0.579749
0.58669
0.593425
0.59851
0.601216
0.601747
0.600626
0.5987
0.596845
0.5988
0.606219
0.62089
0.640819
0.666772
0.705622
0.709696
0.709109
0.684
0.665784
0.653028
0.640025
0.62851
0.6224
0.620305
0.62067
0.623813
0.629264
0.635206
0.639546
0.642804
0.644882
0.64548
0.644958
0.643682
0.641486
0.638806
0.635896
0.632806
0.629336
0.62629
0.625003
0.625264
0.626687
0.628571
0.63026
0.631142
0.632649
0.63159
0.634697
0.637345
0.635354
0.631338
0.62497
0.617095
0.609604
0.60398
0.596685
0.587293
0.575792
0.565548
0.558689
0.554358
0.551591
0.548783
0.545863
0.542692
0.539635
0.535831
0.530967
0.524347
0.516167
0.506403
0.495785
0.485326
0.476725
0.471138
0.469212
0.471404
0.475895
0.48611
0.498037
0.51118
0.525746
0.540768
0.556122
0.624716
0.621
0.618956
0.6183
0.6189
0.620618
0.623296
0.626702
0.630559
0.634472
0.638018
0.640362
0.64047
0.63991
0.638527
0.63781
0.637812
0.638316
0.638564
0.638493
0.635891