/*--------------------------------*- C++ -*----------------------------------*\
  =========                 |
  \\      /  F ield         | OpenFOAM: The Open Source CFD Toolbox
   \\    /   O peration     | Website:  https://openfoam.org
    \\  /    A nd           | Version:  10
     \\/     M anipulation  |
\*---------------------------------------------------------------------------*/
FoamFile
{
    format      ascii;
    class       surfaceScalarField;
    location    "0.450413";
    object      phi;
}
// * * * * * * * * * * * * * * * * * * * * * * * * * * * * * * * * * * * * * //

dimensions      [1 0 -1 0 0 0 0];

internalField   nonuniform List<scalar> 
32368
(
2.99443e-05
-1.22314e-06
7.58494e-06
-5.74649e-05
-1.82512e-05
-7.5205e-05
-4.88175e-05
-7.07241e-05
-8.10297e-05
-5.67716e-05
-0.00010347
-3.58077e-05
-0.000112581
-1.73441e-05
-0.000109911
-2.36018e-06
-0.000102669
5.74184e-06
-9.56891e-05
1.04828e-05
-8.83554e-05
1.37724e-05
-7.79431e-05
1.58856e-05
-6.56531e-05
1.74497e-05
-5.73641e-05
1.89472e-05
-5.40713e-05
2.35899e-05
-5.17409e-05
3.00762e-05
-5.12084e-05
3.82815e-05
-5.36148e-05
4.96219e-05
-5.94983e-05
6.56899e-05
-6.76322e-05
8.76952e-05
-7.47823e-05
0.000114282
-7.57996e-05
0.0001366
-7.20722e-05
0.000149558
-6.63383e-05
0.000155279
-5.97202e-05
0.000157155
-5.13987e-05
0.00015271
-4.20661e-05
0.000139496
-3.28397e-05
0.000119607
-2.5356e-05
9.57787e-05
-2.16223e-05
7.58432e-05
-2.14834e-05
6.88364e-05
-2.26219e-05
6.68765e-05
-2.47336e-05
6.67207e-05
-2.77164e-05
6.74479e-05
-3.14078e-05
6.87171e-05
-3.54802e-05
7.04019e-05
-3.93336e-05
7.2241e-05
-4.23286e-05
7.39454e-05
-4.4005e-05
7.52639e-05
-4.40975e-05
7.61743e-05
-4.28285e-05
7.67573e-05
-4.01824e-05
7.74246e-05
-3.65995e-05
7.83056e-05
-3.24955e-05
7.97731e-05
-2.86974e-05
8.25174e-05
-2.58392e-05
9.05734e-05
-2.2556e-05
0.000103328
-1.823e-05
0.000116957
-1.27304e-05
0.000128989
-6.41302e-06
0.000137608
3.03925e-07
0.000141753
6.87807e-06
0.00014219
1.32051e-05
0.00014047
1.93415e-05
0.000139242
2.49428e-05
0.000137697
2.89504e-05
0.000132963
3.05839e-05
0.000125939
2.6246e-05
0.000107156
2.14181e-05
8.07567e-05
2.10739e-05
6.74429e-05
2.43991e-05
5.64153e-05
3.51675e-05
4.43506e-05
5.36134e-05
2.59798e-05
7.68886e-05
2.5984e-06
9.17059e-05
-2.27485e-05
9.83479e-05
-3.99154e-05
0.000101949
-4.88647e-05
9.76933e-05
-5.21785e-05
7.7655e-05
-4.51499e-05
4.49313e-05
-2.62766e-05
3.109e-05
-8.5726e-06
2.64181e-05
-6.31702e-07
2.31205e-05
3.88286e-06
2.01938e-05
1.64958e-06
1.94943e-05
-5.57583e-06
2.25492e-05
-1.98069e-05
4.46817e-05
-4.67745e-05
6.95106e-05
-9.68636e-05
8.3304e-05
-0.000144753
8.84954e-05
-0.000171309
9.32409e-05
-0.000179495
9.89814e-05
-0.000179318
0.000104957
-0.000176563
0.000106977
-0.000176328
9.77016e-05
-0.000174523
7.48793e-05
-0.000169743
4.88365e-05
-0.000143299
5.10027e-05
-7.79233e-05
7.58456e-05
1.31592e-05
9.32619e-05
9.59398e-05
0.000110274
0.000151139
0.000116788
0.000182587
0.000115408
0.000167979
0.000125487
0.000134385
0.000121723
5.86815e-05
3.08954e-05
-6.89252e-06
-4.12152e-05
-1.6011e-05
-7.07747e-05
-1.03921e-05
-8.3881e-05
-1.26854e-05
-8.64964e-05
-2.47066e-05
-8.19646e-05
-3.85716e-05
-7.26263e-05
-4.70716e-05
-6.73634e-05
-5.21113e-05
-6.33674e-05
-5.41333e-05
-6.42739e-05
-5.26355e-05
-7.23662e-05
-5.32439e-05
-8.78551e-05
-6.08206e-05
-0.000106221
-7.21202e-05
-0.000121425
-7.97912e-05
-0.00012577
-8.63896e-05
-0.000115031
-9.34737e-05
-8.44227e-05
-9.83047e-05
-9.648e-05
-4.28582e-05
2.15482e-05
6.55662e-06
-1.14174e-06
-5.2942e-05
-2.5195e-05
-7.76282e-05
-5.06956e-05
-8.9294e-05
-7.91069e-05
-9.45617e-05
-0.000103618
-8.79694e-05
-0.000117679
-6.92869e-05
-0.000118271
-4.69943e-05
-0.000112154
-2.6067e-05
-0.000103894
-1.13494e-05
-9.39222e-05
-5.92289e-07
-8.23149e-05
5.59618e-06
-7.0986e-05
9.8805e-06
-6.12231e-05
1.3439e-05
-5.69078e-05
1.80616e-05
-5.43306e-05
2.50013e-05
-5.34717e-05
3.3162e-05
-5.56057e-05
4.44228e-05
-6.11216e-05
6.02063e-05
-6.95718e-05
8.1564e-05
-7.84502e-05
0.000108075
-8.09309e-05
0.000132136
-7.8111e-05
0.000146037
-7.28235e-05
0.000153131
-6.69521e-05
0.000156536
-5.88519e-05
0.000153544
-4.89176e-05
0.000140808
-3.8536e-05
0.000120701
-2.96967e-05
9.57113e-05
-2.57874e-05
7.5656e-05
-2.54025e-05
6.877e-05
-2.62558e-05
6.65568e-05
-2.79954e-05
6.6057e-05
-3.05493e-05
6.64372e-05
-3.38778e-05
6.74305e-05
-3.77594e-05
6.90309e-05
-4.17612e-05
7.10157e-05
-4.50054e-05
7.28151e-05
-4.68431e-05
7.4204e-05
-4.69593e-05
7.52925e-05
-4.52512e-05
7.60946e-05
-4.1932e-05
7.70416e-05
-3.76773e-05
7.88284e-05
-3.3306e-05
8.2402e-05
-2.95836e-05
8.89869e-05
-2.56597e-05
0.000100178
-2.17635e-05
0.000112299
-1.70765e-05
0.000125069
-1.15763e-05
0.000136316
-5.53483e-06
0.000144431
7.34342e-07
0.000148379
6.84618e-06
0.000149165
1.27274e-05
0.000148273
1.83793e-05
0.000147528
2.31426e-05
0.000144977
2.63485e-05
0.000138091
2.65703e-05
0.000127054
2.1115e-05
9.84759e-05
1.90149e-05
7.85025e-05
1.97825e-05
6.77263e-05
2.46434e-05
5.70369e-05
3.56345e-05
4.32844e-05
5.48621e-05
2.56125e-05
7.73486e-05
4.17008e-06
9.05913e-05
-1.9362e-05
9.65392e-05
-3.58482e-05
9.9467e-05
-4.53501e-05
9.70717e-05
-4.96782e-05
8.15498e-05
-4.57975e-05
5.14017e-05
-2.97663e-05
3.11078e-05
-1.0905e-05
2.48864e-05
-1.99864e-06
2.12891e-05
1.85636e-06
1.93953e-05
-4.97444e-07
1.91075e-05
-7.68485e-06
2.21444e-05
-2.21523e-05
4.54899e-05
-4.93479e-05
7.32947e-05
-0.000102964
8.91755e-05
-0.000156358
9.4905e-05
-0.000188281
9.96376e-05
-0.000201272
0.000105067
-0.000204719
0.000112307
-0.000206869
0.000114399
-0.000210479
0.000104704
-0.000208716
9.12477e-05
-0.000200325
7.67882e-05
-0.000178892
8.01038e-05
-0.000120364
0.000103055
-3.19271e-05
0.000115677
6.10505e-05
0.000129012
0.000130203
0.000137173
0.000175642
0.000135782
0.000175005
0.000138656
0.000149763
0.00015309
0.000101228
8.67311e-05
2.54923e-05
-8.67674e-06
-1.07898e-05
-5.82035e-05
-1.3163e-05
-7.93012e-05
-1.46823e-05
-8.44096e-05
-2.75849e-05
-7.73169e-05
-4.21081e-05
-6.36889e-05
-4.94316e-05
-5.87458e-05
-5.20827e-05
-5.60998e-05
-5.33116e-05
-5.80071e-05
-5.12226e-05
-6.67019e-05
-5.23737e-05
-8.13311e-05
-6.23863e-05
-0.00010047
-7.21774e-05
-0.000121275
-7.81118e-05
-0.00013136
-8.18812e-05
-0.000121028
-8.43568e-05
-9.02083e-05
-8.65316e-05
-8.34952e-05
-4.90324e-05
1.05667e-05
2.34425e-05
-1.40922e-05
-3.93367e-05
-3.67286e-05
-6.84293e-05
-6.00293e-05
-8.78678e-05
-8.00769e-05
-0.000109819
-9.87653e-05
-0.000128948
-0.000113522
-0.000129514
-0.00012055
-0.000109259
-0.00011911
-8.03595e-05
-0.000112704
-5.10038e-05
-0.000100872
-2.88953e-05
-8.74773e-05
-1.40406e-05
-7.55555e-05
-3.34798e-06
-6.48568e-05
3.90577e-06
-5.92688e-05
1.01608e-05
-5.66373e-05
1.82856e-05
-5.53926e-05
2.74347e-05
-5.74328e-05
3.88827e-05
-6.3213e-05
5.46583e-05
-7.20562e-05
7.61895e-05
-8.31658e-05
0.000104089
-8.5859e-05
0.0001276
-8.3815e-05
0.000142759
-7.92269e-05
0.000150635
-7.4082e-05
0.000155203
-6.60789e-05
0.000152831
-5.56143e-05
0.000139383
-4.39975e-05
0.000117019
-3.38759e-05
8.99302e-05
-3.0349e-05
7.24565e-05
-2.97756e-05
6.76286e-05
-3.02547e-05
6.58226e-05
-3.15308e-05
6.5029e-05
-3.3674e-05
6.50852e-05
-3.66266e-05
6.5932e-05
-4.03652e-05
6.78403e-05
-4.44857e-05
7.05839e-05
-4.80411e-05
7.37757e-05
-5.0192e-05
7.61487e-05
-5.05296e-05
7.80921e-05
-4.87942e-05
7.92309e-05
-4.51739e-05
8.06247e-05
-4.02204e-05
8.35614e-05
-3.47309e-05
8.9957e-05
-2.9471e-05
9.96621e-05
-2.46071e-05
0.000111732
-1.95749e-05
0.000124051
-1.44781e-05
0.000136195
-9.14366e-06
0.000146303
-3.61947e-06
0.000153376
1.97282e-06
0.00015678
7.44397e-06
0.000157472
1.26631e-05
0.000156854
1.75459e-05
0.000155424
2.15011e-05
0.000150947
2.39411e-05
0.000141966
2.13588e-05
0.000121357
1.7589e-05
9.16175e-05
1.7071e-05
7.76225e-05
1.87637e-05
6.80927e-05
2.4538e-05
5.76792e-05
3.55273e-05
4.25143e-05
5.54372e-05
2.66523e-05
7.54909e-05
5.63539e-06
8.73808e-05
-1.65264e-05
9.42282e-05
-3.27773e-05
9.81393e-05
-4.34632e-05
9.7743e-05
-4.85663e-05
8.70063e-05
-4.62397e-05
6.04882e-05
-3.29909e-05
3.3619e-05
-1.42884e-05
2.40245e-05
-3.59503e-06
1.97877e-05
-2.91517e-07
1.82519e-05
-3.07223e-06
1.82569e-05
-1.0229e-05
2.13593e-05
-2.53851e-05
4.54272e-05
-5.43776e-05
7.48052e-05
-0.0001114
9.24287e-05
-0.000170676
9.85274e-05
-0.00021053
0.000102584
-0.000230551
0.000108815
-0.000239836
0.000118039
-0.000248201
0.000121476
-0.000254393
0.000110167
-0.000252009
0.000100281
-0.000229762
9.64615e-05
-0.000195805
0.000106747
-0.000139367
0.00012815
-6.41614e-05
0.000146757
2.86768e-05
0.000152981
0.000108642
0.000159792
0.000163179
0.000158782
0.000175052
0.000157978
0.000155818
0.000172932
0.000128174
0.000146117
6.94035e-05
5.00322e-05
7.05636e-06
-2.90722e-05
-1.47749e-05
-6.20217e-05
-2.07479e-05
-7.29841e-05
-3.0212e-05
-6.82103e-05
-4.39037e-05
-5.38677e-05
-5.12368e-05
-4.90582e-05
-5.16349e-05
-4.74229e-05
-5.19111e-05
-4.99151e-05
-4.92025e-05
-5.96721e-05
-5.05296e-05
-7.403e-05
-6.39241e-05
-9.48535e-05
-7.37154e-05
-0.000120461
-7.74189e-05
-0.000136217
-7.6134e-05
-0.000129644
-7.38508e-05
-0.000100047
-7.48129e-05
-7.11143e-05
-6.03059e-05
3.09583e-06
4.70385e-05
-2.35252e-05
-1.70859e-05
-4.63549e-05
-4.98098e-05
-6.64093e-05
-7.34655e-05
-8.14809e-05
-0.000100528
-9.36825e-05
-0.000131926
-0.000103326
-0.000155189
-0.000111254
-0.000160085
-0.000115869
-0.000142293
-0.000114754
-0.000107618
-0.00010571
-7.27412e-05
-9.24236e-05
-4.43509e-05
-7.95466e-05
-2.45088e-05
-6.78154e-05
-1.11185e-05
-6.0752e-05
-1.53942e-06
-5.82119e-05
8.7441e-06
-5.67885e-05
1.97437e-05
-5.87732e-05
3.21943e-05
-6.51381e-05
4.83815e-05
-7.57068e-05
7.05627e-05
-8.60992e-05
9.73188e-05
-9.16064e-05
0.000123704
-8.97941e-05
0.000137776
-8.61741e-05
0.000146482
-8.15198e-05
0.000151581
-7.28793e-05
0.000147358
-6.07548e-05
0.000130038
-4.62274e-05
0.000103447
-3.74178e-05
7.8669e-05
-3.47611e-05
6.96895e-05
-3.42954e-05
6.68763e-05
-3.44402e-05
6.5044e-05
-3.51606e-05
6.40284e-05
-3.70675e-05
6.43998e-05
-3.98412e-05
6.60628e-05
-4.27951e-05
6.89905e-05
-4.65866e-05
7.30287e-05
-5.09055e-05
7.72791e-05
-5.38744e-05
8.07212e-05
-5.44867e-05
8.28406e-05
-5.22446e-05
8.39358e-05
-4.74858e-05
8.54451e-05
-4.0819e-05
8.86436e-05
-3.42708e-05
9.465e-05
-2.80716e-05
0.000105247
-2.19086e-05
0.000118779
-1.61789e-05
0.000133426
-1.09441e-05
0.000146917
-5.96838e-06
0.000157095
-1.08641e-06
0.000163566
3.71591e-06
0.00016634
8.3447e-06
0.000166613
1.2746e-05
0.000165683
1.67305e-05
0.000162896
1.99692e-05
0.000156026
2.05644e-05
0.000143006
1.69297e-05
0.000114165
1.49161e-05
8.82479e-05
1.53554e-05
7.76751e-05
1.77075e-05
6.84974e-05
2.42664e-05
5.83273e-05
3.51066e-05
4.21922e-05
5.44393e-05
2.84696e-05
7.13083e-05
7.45112e-06
8.28573e-05
-1.41198e-05
9.11661e-05
-3.14931e-05
9.65309e-05
-4.36525e-05
9.84624e-05
-4.93581e-05
9.25635e-05
-4.76553e-05
7.08673e-05
-3.58266e-05
3.93008e-05
-1.80241e-05
2.39043e-05
-4.96072e-06
1.82178e-05
-2.2923e-06
1.66147e-05
-5.74434e-06
1.67477e-05
-1.30105e-05
2.04704e-05
-2.91774e-05
4.4154e-05
-6.14339e-05
7.21311e-05
-0.000120567
8.98629e-05
-0.000184782
9.71093e-05
-0.000233957
0.000100329
-0.0002628
0.000107177
-0.000280246
0.000117788
-0.000293851
0.000124729
-0.000301437
0.00011973
-0.000295292
0.000108934
-0.000245462
0.00010697
-0.000190764
0.000120109
-0.000136284
0.000147669
-6.98153e-05
0.000171332
1.03531e-05
0.000179497
8.86806e-05
0.000185017
0.000151126
0.000182331
0.000174522
0.000175574
0.000160491
0.000186585
0.000139638
0.000189134
0.000100503
0.000119136
3.8388e-05
3.11943e-05
-9.27707e-06
-2.86908e-05
-2.50945e-05
-5.25067e-05
-3.39716e-05
-5.57472e-05
-4.52861e-05
-4.34998e-05
-5.32031e-05
-3.92186e-05
-5.19145e-05
-3.83937e-05
-5.11288e-05
-4.06815e-05
-4.77795e-05
-5.02301e-05
-4.85385e-05
-6.6192e-05
-6.42652e-05
-8.82075e-05
-7.51294e-05
-0.000117605
-7.70439e-05
-0.000139848
-7.1552e-05
-0.000139404
-6.50385e-05
-0.000113044
-6.43908e-05
-6.00394e-05
-7.37815e-05
-1.03372e-06
7.44005e-05
-2.84914e-05
1.40437e-05
-5.02572e-05
-2.50702e-05
-6.77703e-05
-5.16632e-05
-7.87198e-05
-7.95082e-05
-8.63337e-05
-0.000114385
-9.17453e-05
-0.000145766
-9.76879e-05
-0.00016528
-0.000103162
-0.000170496
-0.000105341
-0.000155978
-0.000102302
-0.000123322
-9.32887e-05
-8.49924e-05
-8.1778e-05
-5.32146e-05
-6.96289e-05
-3.08016e-05
-6.07329e-05
-1.62856e-05
-5.83019e-05
-4.02395e-06
-5.71012e-05
9.26879e-06
-5.8963e-05
2.33819e-05
-6.55866e-05
4.02857e-05
-7.58554e-05
6.18393e-05
-8.9439e-05
9.04953e-05
-9.47816e-05
0.000112087
-9.35234e-05
0.000127693
-9.1615e-05
0.000136152
-8.63384e-05
0.000139819
-7.50924e-05
0.000130704
-5.91941e-05
0.000107315
-4.65614e-05
8.32702e-05
-4.07387e-05
7.2391e-05
-3.96142e-05
6.88879e-05
-3.89857e-05
6.64944e-05
-3.88149e-05
6.46146e-05
-3.99292e-05
6.48251e-05
-4.1008e-05
6.66659e-05
-4.22699e-05
6.87379e-05
-4.46949e-05
7.17652e-05
-4.89211e-05
7.78259e-05
-5.416e-05
8.54927e-05
-5.81507e-05
9.39934e-05
-5.80714e-05
0.000101165
-5.42971e-05
0.000105126
-4.66053e-05
0.000105562
-3.75728e-05
0.00010706
-2.90282e-05
0.000110913
-2.24411e-05
0.000117238
-1.61659e-05
0.000128219
-1.13265e-05
0.000141809
-6.84736e-06
0.000155425
-2.63784e-06
0.000166303
1.46351e-06
0.000173173
5.37542e-06
0.00017601
9.09715e-06
0.000175921
1.25949e-05
0.000174218
1.56255e-05
0.000169878
1.7937e-05
0.000161129
1.71967e-05
0.000143285
1.38511e-05
0.000109069
1.27132e-05
8.73211e-05
1.37411e-05
7.82967e-05
1.66931e-05
6.91325e-05
2.32592e-05
5.84942e-05
3.39584e-05
4.32943e-05
5.05202e-05
3.16973e-05
6.46229e-05
9.62476e-06
7.72855e-05
-1.33461e-05
8.81414e-05
-3.30139e-05
9.58189e-05
-4.68654e-05
9.94632e-05
-5.33251e-05
9.58376e-05
-5.13096e-05
7.79914e-05
-3.82352e-05
4.70406e-05
-1.97461e-05
2.50255e-05
-6.05761e-06
1.66728e-05
-3.75792e-06
1.4421e-05
-8.08069e-06
1.43368e-05
-1.56568e-05
1.8497e-05
-3.30649e-05
3.9759e-05
-6.86934e-05
6.41166e-05
-0.000127649
8.08901e-05
-0.000194695
8.85106e-05
-0.000253173
9.3075e-05
-0.00029369
0.000100505
-0.000316873
0.000112397
-0.000334515
0.000125325
-0.000336063
0.000128592
-0.000306591
0.000115172
-0.000242818
0.000111629
-0.000176494
0.000120688
-0.000122824
0.000151392
-5.78322e-05
0.000181473
6.1571e-06
0.00019886
7.91555e-05
0.000208154
0.000139268
0.000205847
0.000172237
0.000194755
0.000163176
0.000194063
0.000140664
0.000208584
0.000112937
0.000172953
6.54068e-05
9.36783e-05
7.10681e-06
2.35844e-05
-2.59295e-05
-2.20908e-05
-3.63554e-05
-3.89483e-05
-4.71904e-05
-3.24253e-05
-5.69722e-05
-2.95874e-05
-5.40092e-05
-2.96295e-05
-5.15736e-05
-3.16025e-05
-4.76153e-05
-3.95025e-05
-4.77917e-05
-5.55783e-05
-6.39053e-05
-8.06297e-05
-7.5831e-05
-0.000113388
-7.71103e-05
-0.000141288
-6.86088e-05
-0.000148297
-5.96465e-05
-0.000125073
-5.65403e-05
-4.91821e-05
-8.7208e-05
-4.77555e-06
0.000104703
-2.85096e-05
5.16936e-05
-4.88661e-05
4.42387e-06
-6.36944e-05
-2.61574e-05
-7.15985e-05
-5.39372e-05
-7.56813e-05
-8.8383e-05
-7.91605e-05
-0.000122158
-8.3288e-05
-0.000147775
-8.84014e-05
-0.000162082
-9.12107e-05
-0.000164394
-9.01834e-05
-0.000153196
-8.67178e-05
-0.00012375
-7.93167e-05
-8.511e-05
-6.92754e-05
-5.3924e-05
-5.93186e-05
-3.21347e-05
-5.62754e-05
-1.7773e-05
-5.57448e-05
-3.18147e-06
-5.72735e-05
1.25016e-05
-6.31076e-05
2.99104e-05
-7.42555e-05
5.05443e-05
-8.66112e-05
7.41334e-05
-8.87667e-05
9.21625e-05
-9.27661e-05
0.000105309
-8.98035e-05
0.000113653
-8.23034e-05
0.000114653
-6.84924e-05
0.000100989
-5.43677e-05
8.36538e-05
-4.6988e-05
7.47035e-05
-4.54021e-05
7.14805e-05
-4.45702e-05
6.90973e-05
-4.41225e-05
6.72709e-05
-4.49766e-05
6.83307e-05
-4.47905e-05
6.95271e-05
-4.47178e-05
7.00472e-05
-4.77158e-05
7.62014e-05
-5.32442e-05
8.92549e-05
-5.96365e-05
0.000104261
-6.46345e-05
0.00012017
-6.81713e-05
0.000132898
-6.59271e-05
0.000140278
-5.74781e-05
0.000144162
-4.42818e-05
0.000144508
-3.07733e-05
0.000145317
-1.98474e-05
0.000148769
-1.22415e-05
0.000152106
-8.21742e-06
0.000154705
-5.91409e-06
0.000158856
-2.59322e-06
0.000166707
3.44371e-07
0.000175329
3.37048e-06
0.000181704
6.36777e-06
0.000184761
9.21843e-06
0.000184666
1.18744e-05
0.000182033
1.41703e-05
0.000176141
1.55544e-05
0.000165761
1.41567e-05
0.000143704
1.13413e-05
0.000106721
1.08435e-05
8.79511e-05
1.22288e-05
7.93455e-05
1.53766e-05
6.99901e-05
2.16822e-05
5.90794e-05
3.24493e-05
4.83268e-05
4.52681e-05
3.50647e-05
5.79386e-05
1.09456e-05
7.30342e-05
-1.38882e-05
8.69378e-05
-3.58505e-05
9.63899e-05
-5.11785e-05
0.000100427
-5.82355e-05
9.64596e-05
-5.59182e-05
7.9146e-05
-4.02096e-05
5.13917e-05
-1.88601e-05
2.71997e-05
-5.30671e-06
1.55892e-05
-4.20273e-06
1.20946e-05
-9.85003e-06
1.14776e-05
-1.78677e-05
1.57256e-05
-3.70962e-05
3.3036e-05
-7.32067e-05
5.21058e-05
-0.000127123
6.74181e-05
-0.00019746
7.54348e-05
-0.00026918
8.078e-05
-0.00031915
8.95425e-05
-0.00034519
0.000105318
-0.00035503
0.000121961
-0.00034037
0.000126516
-0.000295906
0.000115975
-0.000228385
0.0001118
-0.000159999
0.000118067
-0.000106648
0.000141359
-4.59214e-05
0.000179362
1.16027e-05
0.000203148
7.68069e-05
0.000218643
0.000134081
0.00022104
0.000170008
0.000206502
0.000166692
0.000200591
0.000141857
0.000210943
0.000114366
0.000200956
7.34454e-05
0.000147516
2.33002e-05
7.48065e-05
-1.7601e-05
1.91846e-05
-3.59146e-05
-1.63282e-05
-4.79614e-05
-2.01736e-05
-6.42701e-05
-1.97722e-05
-5.81495e-05
-2.06782e-05
-5.32688e-05
-2.26776e-05
-4.86991e-05
-2.90835e-05
-4.86419e-05
-4.40031e-05
-6.41543e-05
-7.15308e-05
-7.54512e-05
-0.000108078
-7.70941e-05
-0.000141202
-6.75762e-05
-0.000155319
-5.75617e-05
-0.000135102
-5.15579e-05
-3.97191e-05
-9.79325e-05
-7.42384e-06
0.00013657
-2.71421e-05
9.3046e-05
-4.21831e-05
3.92874e-05
-5.55272e-05
3.03107e-06
-6.04399e-05
-2.76509e-05
-6.28757e-05
-5.97309e-05
-6.53503e-05
-9.26642e-05
-6.94776e-05
-0.000119936
-7.3891e-05
-0.000138189
-7.68318e-05
-0.000148454
-7.66142e-05
-0.000150689
-7.42521e-05
-0.000139888
-7.14814e-05
-0.000110307
-6.48778e-05
-7.55622e-05
-5.67041e-05
-4.78511e-05
-5.16257e-05
-2.91806e-05
-5.20539e-05
-1.47654e-05
-5.37092e-05
1.50764e-06
-5.84389e-05
1.89422e-05
-6.71752e-05
3.83581e-05
-7.48869e-05
5.8205e-05
-7.99524e-05
7.43419e-05
-7.98271e-05
8.43355e-05
-7.8763e-05
9.18162e-05
-7.05023e-05
8.99731e-05
-5.92041e-05
8.18191e-05
-5.27209e-05
7.58036e-05
-5.09321e-05
7.38872e-05
-5.02973e-05
7.22836e-05
-5.04705e-05
7.1543e-05
-5.2145e-05
7.49029e-05
-5.20674e-05
7.67189e-05
-5.09712e-05
7.6542e-05
-5.785e-05
8.54776e-05
-6.66646e-05
0.000105334
-7.51601e-05
0.000123423
-7.97626e-05
0.00013745
-8.03777e-05
0.000148948
-7.75586e-05
0.000158833
-7.22534e-05
0.000168486
-6.03186e-05
0.000178733
-3.86884e-05
0.000186602
-1.83867e-05
0.000194136
-6.79051e-06
0.000199968
-1.94051e-06
0.00020398
-8.4644e-07
0.000201424
1.89583e-07
0.000195414
5.29506e-07
0.000189556
1.98044e-06
0.000188298
4.01583e-06
0.00019108
6.14835e-06
0.000192859
8.28458e-06
0.000192479
1.03102e-05
0.000188952
1.21106e-05
0.000181929
1.2852e-05
0.00016963
1.1257e-05
0.000144985
9.12138e-06
0.000106611
9.12645e-06
8.95068e-05
1.06826e-05
8.06284e-05
1.42599e-05
7.13919e-05
2.06211e-05
6.01315e-05
3.04108e-05
5.3355e-05
4.11597e-05
3.61498e-05
5.39056e-05
1.05046e-05
7.10849e-05
-1.55878e-05
8.57949e-05
-3.81474e-05
9.466e-05
-5.33212e-05
9.76137e-05
-6.02886e-05
9.25617e-05
-5.80419e-05
7.45103e-05
-4.13595e-05
4.88769e-05
-1.79838e-05
2.73913e-05
-2.91836e-06
1.44044e-05
-3.27222e-06
1.00903e-05
-1.04177e-05
8.66057e-06
-1.92524e-05
1.27361e-05
-3.97428e-05
2.61707e-05
-7.08594e-05
3.99127e-05
-0.000126349
5.07861e-05
-0.000207758
5.8474e-05
-0.000286699
6.64152e-05
-0.000334676
7.86436e-05
-0.000352858
9.67132e-05
-0.000353716
0.000112034
-0.000330978
0.000114571
-0.000274226
0.000109541
-0.000206611
0.000108465
-0.000143783
0.000114496
-9.27688e-05
0.000130969
-3.55461e-05
0.000170405
2.04851e-05
0.000197447
8.02705e-05
0.000216713
0.000133444
0.000227428
0.000167832
0.000213995
0.000169086
0.000206458
0.000141415
0.000206348
0.000111126
0.000207578
7.59197e-05
0.000176006
3.18521e-05
0.000119021
-7.03676e-06
5.83875e-05
-3.16861e-05
1.36141e-05
-4.89412e-05
-6.08644e-06
-7.15325e-05
-9.69552e-06
-6.3162e-05
-1.15484e-05
-5.62949e-05
-1.35449e-05
-5.16615e-05
-1.89792e-05
-5.25595e-05
-3.25806e-05
-6.58747e-05
-6.17085e-05
-7.5515e-05
-0.000102135
-7.68417e-05
-0.000140223
-6.75952e-05
-0.000160118
-5.73171e-05
-0.000142802
-4.82358e-05
-2.9838e-05
-0.000107043
-8.28241e-06
0.0001648
-2.31371e-05
0.000132873
-3.37848e-05
8.23537e-05
-4.23844e-05
3.59094e-05
-4.70537e-05
1.32799e-06
-4.85464e-05
-3.12058e-05
-5.15564e-05
-6.18748e-05
-5.62097e-05
-8.87389e-05
-6.07252e-05
-0.000108398
-6.34939e-05
-0.000122959
-6.45819e-05
-0.000133567
-6.19006e-05
-0.000134714
-5.89668e-05
-0.000118255
-5.6817e-05
-8.90472e-05
-5.17421e-05
-6.00635e-05
-4.60621e-05
-3.76145e-05
-4.58152e-05
-2.26034e-05
-4.80139e-05
-7.54885e-06
-5.18117e-05
9.50243e-06
-5.82418e-05
2.77942e-05
-6.49737e-05
4.64195e-05
-6.86778e-05
6.13779e-05
-6.98545e-05
7.20952e-05
-6.75784e-05
7.81964e-05
-6.19221e-05
7.76953e-05
-5.67999e-05
7.57353e-05
-5.53389e-05
7.55566e-05
-5.5125e-05
7.51784e-05
-5.59172e-05
7.59544e-05
-5.90498e-05
8.20416e-05
-6.1291e-05
8.65657e-05
-6.24647e-05
8.79138e-05
-7.36928e-05
0.000100391
-8.91273e-05
0.000126121
-0.000101412
0.000145758
-0.000106236
0.000154406
-0.000105853
0.000155469
-0.000103309
0.000154268
-0.000101417
0.000157846
-9.09291e-05
0.000164931
-6.45985e-05
0.000177861
-2.90493e-05
0.000195445
-5.96502e-06
0.000218166
3.4739e-06
0.000233272
5.61913e-06
0.000245944
3.92325e-06
0.000247801
2.06883e-06
0.000239328
1.41592e-06
0.00022537
1.82592e-06
0.000212193
2.48286e-06
0.000204108
4.19302e-06
0.000201535
5.91615e-06
0.000199639
7.64493e-06
0.000195096
9.13968e-06
0.000187079
9.71699e-06
0.000173122
8.38797e-06
0.000146902
6.96871e-06
0.00010771
7.4653e-06
9.13853e-05
9.26112e-06
8.18463e-05
1.32296e-05
7.24245e-05
1.96236e-05
6.26358e-05
2.88963e-05
5.55057e-05
3.78808e-05
3.3052e-05
5.12828e-05
7.91106e-06
6.92301e-05
-1.71468e-05
8.37707e-05
-3.8622e-05
9.06964e-05
-5.31861e-05
9.09254e-05
-5.95986e-05
8.24467e-05
-5.65627e-05
6.33822e-05
-4.07986e-05
4.23158e-05
-1.57187e-05
2.41735e-05
-4.86705e-07
1.23348e-05
-2.00878e-06
8.11642e-06
-1.03262e-05
6.9371e-06
-2.01489e-05
1.14427e-05
-4.11216e-05
1.87289e-05
-7.03892e-05
2.74862e-05
-0.000130965
3.52355e-05
-0.000215052
4.27711e-05
-0.00029235
5.28825e-05
-0.000334082
6.7282e-05
-0.000347979
8.54584e-05
-0.000345177
9.80575e-05
-0.00031286
0.000100746
-0.00024553
0.000100785
-0.000186162
0.000102823
-0.000129855
0.000109002
-8.04434e-05
0.0001221
-2.52161e-05
0.000158375
2.95455e-05
0.000186498
8.60577e-05
0.000206808
0.000135397
0.000221693
0.00016654
0.000216206
0.000169638
0.000205609
0.00014223
0.000203611
0.000109783
0.000203357
7.56506e-05
0.000187341
3.57073e-05
0.000146466
-5.68685e-07
9.1301e-05
-2.81855e-05
4.02197e-05
-5.14904e-05
1.05318e-05
-7.82306e-05
1.02164e-07
-6.76671e-05
-2.50882e-06
-6.11162e-05
-4.45559e-06
-5.64508e-05
-8.80142e-06
-5.90567e-05
-2.20207e-05
-7.02816e-05
-5.18829e-05
-7.69059e-05
-9.64623e-05
-7.66961e-05
-0.000140061
-6.78271e-05
-0.000164196
-5.73847e-05
-0.000149837
-4.33754e-05
-1.68985e-05
-0.000115987
-7.43714e-06
0.000186342
-1.78917e-05
0.00016918
-2.48126e-05
0.000127791
-2.7054e-05
7.55131e-05
-3.04285e-05
3.42041e-05
-3.34567e-05
-6.45785e-07
-3.73395e-05
-3.09077e-05
-4.3586e-05
-5.63681e-05
-4.92808e-05
-7.72013e-05
-5.13644e-05
-9.45022e-05
-5.30315e-05
-0.000109802
-5.16958e-05
-0.000120409
-4.68661e-05
-0.000114312
-4.50477e-05
-9.14357e-05
-4.32224e-05
-6.52828e-05
-4.0147e-05
-4.28342e-05
-3.81483e-05
-2.57335e-05
-4.01753e-05
-1.24346e-05
-4.37194e-05
2.82012e-06
-4.89111e-05
2.00843e-05
-5.50427e-05
3.78007e-05
-5.97952e-05
5.31767e-05
-6.17077e-05
6.46528e-05
-6.09424e-05
7.14056e-05
-5.87693e-05
7.4065e-05
-5.801e-05
7.59453e-05
-5.80737e-05
7.70842e-05
-5.9704e-05
8.0107e-05
-6.43554e-05
8.84308e-05
-7.0149e-05
9.70372e-05
-7.46208e-05
0.000101306
-8.82033e-05
0.000114283
-0.000114861
0.000147135
-0.000136983
0.000175192
-0.000149746
0.000182544
-0.000155618
0.000173716
-0.000156716
0.000154406
-0.000154976
0.000134875
-0.000139755
0.000116265
-0.000108827
0.000106183
-6.81892e-05
0.000119541
-2.96456e-05
0.000155853
-6.55039e-06
0.000205072
1.49895e-06
0.000239653
2.19761e-06
0.000263716
4.27442e-07
0.000272884
-1.91589e-06
0.000270599
-3.13041e-06
0.000258271
-2.95712e-06
0.000240714
-1.54094e-06
0.000224137
-1.84277e-07
0.000212811
1.68707e-06
0.000206619
3.49853e-06
0.000200596
5.02177e-06
0.000191789
5.56235e-06
0.000176792
5.01667e-06
0.00014857
4.61014e-06
0.000109116
5.5641e-06
9.33091e-05
7.92747e-06
8.34188e-05
1.19076e-05
7.36391e-05
1.91998e-05
6.80824e-05
2.75842e-05
5.4981e-05
3.56176e-05
2.91188e-05
4.82497e-05
4.87543e-06
6.53502e-05
-1.69581e-05
7.81649e-05
-3.60576e-05
8.19038e-05
-4.98644e-05
7.89232e-05
-5.55609e-05
6.52957e-05
-5.06126e-05
4.77546e-05
-3.78442e-05
3.36563e-05
-1.36756e-05
1.9665e-05
1.81537e-06
9.95817e-06
-1.08076e-06
6.65194e-06
-1.02525e-05
6.36463e-06
-2.15182e-05
8.83607e-06
-4.2857e-05
1.32869e-05
-7.18512e-05
1.76944e-05
-0.000138776
2.1489e-05
-0.000225952
2.8246e-05
-0.000297181
3.94894e-05
-0.000330071
5.49902e-05
-0.000338667
7.35549e-05
-0.000330918
8.28996e-05
-0.000285687
8.7382e-05
-0.000215534
9.16423e-05
-0.000167854
9.55322e-05
-0.000117073
0.000101765
-6.86253e-05
0.00011293
-1.44768e-05
0.000146425
3.90417e-05
0.000173572
9.33668e-05
0.000193078
0.000139315
0.000209116
0.000167255
0.00021179
0.000169859
0.000200749
0.000143142
0.000199422
0.000108622
0.000196879
7.36861e-05
0.000191047
3.82121e-05
0.000163251
3.16283e-06
0.000114408
-2.64273e-05
6.37943e-05
-5.58599e-05
2.40331e-05
-8.34528e-05
9.6325e-06
-7.17442e-05
6.32347e-06
-6.73628e-05
4.67049e-06
-6.27369e-05
1.02336e-06
-6.671e-05
-1.20458e-05
-7.66316e-05
-4.22774e-05
-8.05023e-05
-9.07035e-05
-7.81034e-05
-0.0001397
-6.8023e-05
-0.000168776
-5.50077e-05
-0.000156766
-3.45496e-05
-9.29695e-07
-0.000124321
-6.16183e-06
0.000202817
-1.17454e-05
0.000197578
-1.44102e-05
0.000170204
-1.28908e-05
0.000122686
-1.18988e-05
7.19517e-05
-1.60245e-05
3.40654e-05
-2.3196e-05
3.39007e-06
-3.19107e-05
-2.26683e-05
-3.95052e-05
-4.54915e-05
-4.12758e-05
-6.77792e-05
-4.30998e-05
-8.82707e-05
-4.25548e-05
-0.000101906
-3.77703e-05
-0.000104692
-3.29055e-05
-8.76587e-05
-3.18251e-05
-6.36848e-05
-3.13457e-05
-4.19393e-05
-3.0476e-05
-2.54157e-05
-3.11819e-05
-1.24692e-05
-3.43663e-05
-6.68266e-08
-3.89678e-05
1.53528e-05
-4.49295e-05
3.21509e-05
-5.10023e-05
4.80374e-05
-5.4918e-05
6.08621e-05
-5.67236e-05
6.93396e-05
-5.77485e-05
7.48209e-05
-5.81983e-05
7.79946e-05
-6.13409e-05
8.36053e-05
-6.76529e-05
9.39803e-05
-7.58463e-05
0.000105788
-8.30476e-05
0.00011392
-9.63582e-05
0.000125791
-0.000131206
0.000163313
-0.000170688
0.000206378
-0.00019882
0.000221774
-0.000218833
0.000212933
-0.000230721
0.000184289
-0.000230167
0.000142076
-0.000209947
9.63086e-05
-0.000172504
6.04638e-05
-0.000121298
4.09834e-05
-7.13304e-05
4.80968e-05
-4.31955e-05
8.63744e-05
-2.82287e-05
0.000149129
-1.96138e-05
0.000212532
-1.56578e-05
0.000258331
-1.45268e-05
0.000279623
-1.51089e-05
0.000283245
-1.4549e-05
0.000276272
-1.27196e-05
0.000261884
-1.0109e-05
0.000243697
-7.21092e-06
0.000227182
-4.71741e-06
0.000214872
-2.46805e-06
0.000205496
-5.96208e-07
0.000195693
5.75032e-07
0.000179268
1.16847e-06
0.000149048
1.91756e-06
0.00010997
3.84158e-06
9.53737e-05
6.52888e-06
8.44775e-05
1.09567e-05
7.55915e-05
1.85187e-05
7.13078e-05
2.62241e-05
5.12152e-05
3.27895e-05
2.47025e-05
4.33771e-05
2.47829e-06
5.79973e-05
-1.53038e-05
6.74301e-05
-3.20423e-05
6.78369e-05
-4.49352e-05
6.26935e-05
-5.00163e-05
4.60912e-05
-4.38298e-05
3.12709e-05
-3.32839e-05
2.43143e-05
-1.29746e-05
1.49994e-05
3.37579e-06
7.72207e-06
-8.47866e-07
5.47333e-06
-1.04006e-05
5.88412e-06
-2.30263e-05
6.92444e-06
-4.43946e-05
8.9568e-06
-7.67367e-05
8.02905e-06
-0.000153216
8.55276e-06
-0.000238263
1.51521e-05
-0.000297369
2.67947e-05
-0.000321301
4.31149e-05
-0.00032429
6.12989e-05
-0.000310797
6.73316e-05
-0.00025453
7.42562e-05
-0.000188825
8.1653e-05
-0.000151307
8.72292e-05
-0.000105825
9.38851e-05
-5.79628e-05
0.000104041
-4.32577e-06
0.000134414
4.93859e-05
0.000159693
0.000101848
0.0001781
0.000144817
0.000194573
0.000169384
0.000201753
0.000169996
0.000193363
0.000143565
0.00019367
0.000108016
0.000193089
7.35425e-05
0.000190699
3.86423e-05
0.000173306
4.06778e-06
0.000131382
-2.70261e-05
8.38373e-05
-6.21652e-05
3.54115e-05
-8.9098e-05
1.83007e-05
-7.69588e-05
1.49001e-05
-7.46026e-05
1.38789e-05
-7.00419e-05
1.28941e-05
-7.51024e-05
-1.12254e-06
-8.41812e-05
-3.21871e-05
-8.57558e-05
-8.43064e-05
-7.97917e-05
-0.000139422
-6.66009e-05
-0.000172107
-4.9216e-05
-0.000162071
-2.14125e-05
1.61629e-05
-0.000132338
-5.94445e-06
0.000211338
-5.77962e-06
0.000218891
-4.44132e-06
0.000205859
3.34897e-07
0.000170269
4.13456e-06
0.000119534
1.3049e-06
7.32532e-05
-7.5552e-06
3.95614e-05
-2.11779e-05
1.38413e-05
-3.21159e-05
-1.28567e-05
-3.51824e-05
-4.34052e-05
-3.65298e-05
-6.8425e-05
-3.49533e-05
-8.63562e-05
-3.13119e-05
-9.11761e-05
-2.28767e-05
-8.1804e-05
-1.95176e-05
-5.75455e-05
-1.92096e-05
-3.62358e-05
-2.07358e-05
-1.98778e-05
-2.21601e-05
-7.98033e-06
-2.43671e-05
1.19726e-06
-2.82003e-05
1.35214e-05
-3.38255e-05
2.92182e-05
-4.06462e-05
4.51785e-05
-4.69177e-05
5.90765e-05
-5.15424e-05
6.95725e-05
-5.48937e-05
7.69065e-05
-6.02021e-05
8.52932e-05
-6.74184e-05
9.7917e-05
-7.67709e-05
0.000111629
-8.58692e-05
0.000123716
-9.94259e-05
0.000136413
-0.000133276
0.00016824
-0.00018657
0.0002266
-0.000231965
0.000262852
-0.000269927
0.000267078
-0.000298494
0.000241963
-0.000312084
0.000193178
-0.000297602
0.000128839
-0.000255634
7.54531e-05
-0.000177442
2.42998e-05
-8.96447e-05
1.68095e-06
-5.91657e-05
3.89372e-06
-5.16414e-05
2.83323e-05
-5.05353e-05
7.48577e-05
-4.97875e-05
0.000143352
-4.54263e-05
0.000214779
-4.1231e-05
0.000263364
-3.71191e-05
0.000282389
-3.29367e-05
0.000281696
-2.83629e-05
0.000270583
-2.32571e-05
0.000255638
-1.848e-05
0.000238967
-1.42798e-05
0.000224295