/*--------------------------------*- C++ -*----------------------------------*\
  =========                 |
  \\      /  F ield         | OpenFOAM: The Open Source CFD Toolbox
   \\    /   O peration     | Website:  https://openfoam.org
    \\  /    A nd           | Version:  11
     \\/     M anipulation  |
\*---------------------------------------------------------------------------*/
FoamFile
{
    format      ascii;
    class       volScalarField;
    location    "4";
    object      mag(U);
}
// * * * * * * * * * * * * * * * * * * * * * * * * * * * * * * * * * * * * * //

dimensions      [0 1 -1 0 0 0 0];

internalField   nonuniform List<scalar> 
9600
(
0.992005
0.991494
0.991246
0.991093
0.990422
0.990275
0.99058
0.991409
0.993023
0.995423
0.994336
0.977589
0.951552
0.93941
0.938757
0.945916
0.965747
0.986524
1.005
1.02129
1.03491
1.04622
1.05635
1.06296
1.06806
1.07068
1.07027
1.06871
1.06621
1.06265
1.05775
1.05197
1.04538
1.03915
1.03325
1.02782
1.02264
1.01794
1.01362
1.00915
0.992594
0.992873
0.99292
0.992982
0.993388
0.994369
0.995096
0.995683
0.996602
0.997744
1.00005
1.004
1.00697
1.00803
1.00823
1.01007
1.01516
1.02418
1.03196
1.03876
1.04492
1.05058
1.05587
1.06045
1.06249
1.06258
1.06224
1.06045
1.05793
1.05267
1.04822
1.04201
1.03584
1.03003
1.024
1.01728
1.01305
1.00671
1.00413
0.994992
0.992688
0.992893
0.992986
0.993195
0.993756
0.994398
0.994985
0.995957
0.998195
1.00184
1.00472
1.00517
1.00432
0.998126
0.993235
0.99565
1.00309
1.01242
1.02454
1.03569
1.04702
1.05523
1.06471
1.07032
1.07589
1.07829
1.08042
1.07919
1.07806
1.07401
1.06927
1.06391
1.05763
1.05202
1.04688
1.04027
1.03685
1.03138
1.0288
1.02221
0.99265
0.99287
0.992976
0.993211
0.993745
0.994468
0.995435
0.996832
0.998627
1.00129
1.00608
1.00916
1.01094
1.01569
1.02355
1.03082
1.03802
1.04434
1.04967
1.05356
1.05657
1.05872
1.06157
1.06449
1.06625
1.06643
1.06583
1.06334
1.06106
1.05639
1.05198
1.0473
1.0408
1.0357
1.02984
1.02308
1.01825
1.01213
1.00844
1.00335
0.992624
0.992867
0.992963
0.993211
0.993732
0.994759
0.995987
0.997241
0.998807
1.00102
1.00694
1.01487
1.02065
1.02322
1.0231
1.02151
1.02199
1.02466
1.03106
1.03877
1.04807
1.05563
1.06361
1.06936
1.07432
1.07673
1.07886
1.07877
1.07859
1.07448
1.07127
1.06502
1.06007
1.05377
1.04909
1.04243
1.03904
1.03341
1.03054
1.02412
0.992501
0.992765
0.992851
0.993157
0.993913
0.995095
0.996035
0.997156
0.999335
1.00386
1.00899
1.01319
1.01835
1.02424
1.03113
1.03817
1.04569
1.05263
1.05784
1.06202
1.06557
1.06746
1.06963
1.07081
1.0722
1.07241
1.07179
1.06816
1.06507
1.06095
1.05677
1.05231
1.04615
1.04117
1.03542
1.02877
1.02383
1.01741
1.01374
1.00761
0.992458
0.992841
0.992959
0.993269
0.99402
0.995383
0.996407
0.99754
0.999814
1.00443
1.01016
1.01513
1.02092
1.02755
1.03349
1.03668
1.03803
1.03871
1.04088
1.04487
1.05087
1.05744
1.06397
1.06951
1.0742
1.07667
1.07844
1.07891
1.07942
1.07624
1.07341
1.06722
1.06283
1.0563
1.05164
1.04498
1.04154
1.0356
1.03256
1.02593
0.992349
0.992727
0.992863
0.993237
0.994296
0.995652
0.996581
0.998182
1.00085
1.00553
1.0104
1.01588
1.02191
1.02688
1.03251
1.03888
1.04642
1.05442
1.06169
1.0664
1.07077
1.07348
1.07638
1.07754
1.07855
1.07887
1.07873
1.07548
1.0712
1.06614
1.06236
1.05752
1.05211
1.04702
1.04104
1.0347
1.02952
1.02286
1.01935
1.01244
0.992324
0.992867
0.993066
0.993577
0.994602
0.995893
0.99719
0.998628
1.00121
1.0057
1.01097
1.01641
1.0224
1.02809
1.03421
1.04028
1.04582
1.04971
1.0529
1.05568
1.05844
1.06243
1.06679
1.07178
1.07559
1.07794
1.07907
1.07997
1.08073
1.07888
1.07641
1.07054
1.06622
1.05958
1.05478
1.04797
1.04448
1.03822
1.03497
1.02829
0.99216
0.992843
0.993007
0.993435
0.994732
0.995825
0.9973
0.999035
1.00152
1.00597
1.01145
1.01685
1.02292
1.02845
1.03346
1.03896
1.04578
1.05321
1.06147
1.06816
1.07344
1.07703
1.08071
1.08336
1.08476
1.08524
1.0854
1.08365
1.07951
1.0739
1.06914
1.0637
1.05908
1.05325
1.04713
1.04087
1.03545
1.02831
1.02485
1.01751
0.992238
0.992932
0.993185
0.993636
0.994676
0.996231
0.997876
0.999278
1.00162
1.00615
1.01228
1.01783
1.02363
1.02846
1.03392
1.03967
1.0465
1.05306
1.05877
1.06359
1.06713
1.07047
1.0732
1.07659
1.07946
1.08178
1.08196
1.08247
1.08265
1.08195
1.08011
1.07485
1.07077
1.06398
1.05902
1.05198
1.04817
1.04147
1.03781
1.03127
0.99188
0.992609
0.992868
0.993335
0.994489
0.996328
0.99783
0.999215
1.00206
1.00654
1.01251
1.0187
1.02442
1.02926
1.03384
1.03833
1.04463
1.05139
1.05951
1.06734
1.07469
1.07984
1.08439
1.08792
1.09033
1.09149
1.09207
1.09147
1.0885
1.08328
1.07791
1.07173
1.06702
1.06056
1.05488
1.04796
1.0422
1.03444
1.03059
1.02276
0.991909
0.992722
0.993035
0.993608
0.994773
0.996442
0.998152
0.999943
1.00279
1.00737
1.01312
1.01866
1.02443
1.02909
1.03342
1.03818
1.04383
1.05109
1.05868
1.06589
1.0725
1.07788
1.08141
1.08445
1.08642
1.08858
1.08836
1.08789
1.08701
1.08626
1.0849
1.08035
1.07651
1.06964
1.06468
1.05724
1.05298
1.04593
1.04161
1.03496
0.991345
0.992005
0.992494
0.993205
0.994561
0.996171
0.997991
0.999947
1.0032
1.00749
1.0127
1.0186
1.02445
1.02879
1.03358
1.03734
1.04278
1.04899
1.05661
1.06482
1.07364
1.08099
1.08725
1.09222
1.09592
1.09813
1.09924
1.09908
1.09771
1.09307
1.08879
1.08159
1.07642
1.06943
1.06352
1.05649
1.05031
1.04193
1.03704
1.02884
0.991505
0.992064
0.992728
0.993588
0.995158
0.997078
0.998621
1.00076
1.00409
1.00813
1.01337
1.0185
1.02401
1.02913
1.03372
1.03814
1.04237
1.04794
1.05559
1.06399
1.07271
1.08099
1.08739
1.0927
1.09554
1.09799
1.09828
1.09728
1.0953
1.09268
1.09153
1.08729
1.08387
1.07683
1.07202
1.06405
1.05905
1.05204
1.04694
1.03976
0.990745
0.991345
0.992048
0.9927
0.994391
0.99647
0.998111
1.00028
1.00383
1.00793
1.01262
1.01751
1.02354
1.02852
1.03411
1.03864
1.04316
1.04852
1.05472
1.06227
1.07115
1.0805
1.08913
1.09619
1.10176
1.10513
1.1076
1.10748
1.10748
1.10366
1.09999
1.09377
1.08763
1.08057
1.07381
1.0664
1.06004
1.05143
1.04525
1.03677
0.990891
0.991802
0.992202
0.992964
0.994695
0.997397
0.999247
1.00099
1.00469
1.00812
1.01281
1.01778
1.02312
1.02868
1.03428
1.03998
1.04509
1.04974
1.05513
1.06238
1.06999
1.0798
1.08843
1.09733
1.10317
1.10706
1.10897
1.10869
1.10761
1.10363
1.10139
1.09697
1.09352
1.0868
1.08132
1.0735
1.06723
1.06001
1.05455
1.04646
0.989713
0.990827
0.990987
0.991784
0.993324
0.995769
0.998186
1.00008
1.00322
1.00707
1.01224
1.01673
1.02241
1.0276
1.03366
1.04034
1.04611
1.05204
1.05709
1.06323
1.06954
1.07818
1.08641
1.09611
1.10419
1.11072
1.11508
1.11647
1.11746
1.11541
1.11216
1.107
1.1009
1.09378
1.08684
1.07871
1.07178
1.06281
1.05605
1.04672
0.989525
0.991111
0.991487
0.992409
0.993581
0.995469
0.998868
1.00096
1.00398
1.00747
1.01231
1.0171
1.02235
1.02809
1.0341
1.04049
1.0472
1.05453
1.05951
1.06614
1.07088
1.07895
1.0858
1.09553
1.10363
1.11196
1.11717
1.1203
1.12096
1.11897
1.11584
1.11119
1.10613
1.0998
1.09372
1.08598
1.07888
1.0703
1.06474
1.05532
0.98767
0.98934
0.990178
0.990862
0.991799
0.993146
0.99637
0.999149
1.00223
1.00526
1.01047
1.01555
1.02133
1.02765
1.03343
1.04061
1.04686
1.05508
1.06167
1.06928
1.07417
1.0814
1.08692
1.0953
1.10295
1.11165
1.11849
1.12449
1.12749
1.12865
1.12687
1.12349
1.11765
1.11051
1.10328
1.09414
1.08721
1.07673
1.07014
1.0593
0.987512
0.989149
0.990423
0.991062
0.99237
0.993144
0.996145
0.999184
1.00285
1.00637
1.01105
1.01654
1.02188
1.02815
1.03409
1.04176
1.04735
1.0563
1.06293
1.07222
1.07787
1.0855
1.09023
1.09799
1.10381
1.11294
1.11935
1.12698
1.13087
1.1339
1.13301
1.13039
1.12575
1.11947
1.11244
1.10344
1.09654
1.08539
1.07975
1.06839
0.985285
0.98649
0.987608
0.988164
0.989824
0.990889
0.99341
0.99618
1.00012
1.00425
1.00891
1.01459
1.01928
1.02679
1.03278
1.04182
1.04804
1.05683
1.06344
1.07339
1.08014
1.08914
1.09491
1.10222
1.10767
1.11513
1.12091
1.12803
1.13333
1.13835
1.14082
1.14015
1.13836
1.13175
1.1264
1.11528
1.10885
1.09625
1.08996
1.07698
0.985365
0.986509
0.987456
0.987743
0.989382
0.991154
0.993759
0.996868
1.00027
1.00497
1.00968
1.01632
1.0208
1.02857
1.03429
1.04414
1.0501
1.05919
1.06544
1.0751
1.08191
1.09177
1.09862
1.10762
1.11302
1.12068
1.12555
1.13228
1.13699
1.14201
1.1454
1.14656
1.14628
1.14183
1.13816
1.12787
1.12206
1.10826
1.10247
1.088
0.981858
0.983214
0.984059
0.984092
0.985536
0.987512
0.990299
0.994088
0.997124
1.00242
1.00607
1.01409
1.01886
1.0271
1.03275
1.04262
1.04947
1.05928
1.06602
1.07648
1.08375
1.09305
1.10039
1.11059
1.11827
1.12665
1.13321
1.13859
1.14368
1.1467
1.15148
1.15187
1.155
1.15089
1.15073
1.14144
1.13747
1.12366
1.11779
1.10183
0.981553
0.982642
0.983972
0.984281
0.985374
0.987644
0.989853
0.994751
0.997752
1.00391
1.00767
1.01525
1.0207
1.0294
1.03539
1.04504
1.05233
1.06261
1.06911
1.07955
1.08736
1.09734
1.10389
1.11277
1.12106
1.1308
1.13935
1.14675
1.15305
1.15672
1.16115
1.1609
1.16418
1.15976
1.16144
1.15262
1.15145
1.13892
1.13443
1.11739
0.977039
0.978287
0.978971
0.980144
0.98082
0.983827
0.985275
0.99041
0.993517
1.00037
1.00466
1.01242
1.01818
1.0275
1.03353
1.04379
1.05075
1.06233
1.06932
1.07927
1.08702
1.09827
1.1066
1.11588
1.12377
1.13258
1.14264
1.15162
1.16205
1.16685
1.17438
1.17345
1.1782
1.1727
1.17495
1.16618
1.16581
1.15361
1.15171
1.13463
0.976123
0.97834
0.978345
0.980085
0.980577
0.984097
0.986024
0.9912
0.994563
1.00121
1.0064
1.01443
1.0206
1.03036
1.03696
1.04699
1.05457
1.0652
1.07425
1.08336
1.09205
1.10042
1.11096
1.11961
1.12993
1.13754
1.14829
1.15558
1.16764
1.17351
1.1856
1.18699
1.19561
1.19078
1.19435
1.18449
1.18504
1.17152
1.16988
1.1526
0.969112
0.972401
0.972122
0.974171
0.97465
0.97815
0.980434
0.985736
0.989963
0.996703
1.00218
1.01061
1.01717
1.02729
1.03488
1.04541
1.05368
1.06383
1.07357
1.08308
1.09229
1.10015
1.11037
1.1187
1.13048
1.13821
1.15115
1.15865
1.17268
1.17888
1.19357
1.19645
1.20984
1.20786
1.2165
1.20815
1.21037
1.19727
1.19547
1.17643
0.967979
0.971115
0.971652
0.973364
0.974986
0.978132
0.981774
0.98665
0.991974
0.99862
1.00572
1.0132
1.02192
1.02967
1.04058
1.04835
1.06024
1.06752
1.07952
1.08684
1.09843
1.10458
1.11583
1.12205
1.13457
1.14127
1.15544
1.16219
1.1786
1.18439
1.20318
1.20636
1.22339
1.22388
1.23635
1.23205
1.23891
1.22747
1.22871
1.20954
0.959689
0.962205
0.96331
0.964543
0.966867
0.969766
0.974226
0.979389
0.985982
0.992414
1.00099
1.00849
1.01843
1.02667
1.03822
1.04647
1.05861
1.06624
1.07847
1.08508
1.09772
1.10319
1.1149
1.12045
1.13268
1.13917
1.15311
1.16065
1.17739
1.18455
1.20524
1.21247
1.23431
1.23815
1.25659
1.25461
1.26647
1.25849
1.26294
1.24716
0.959709
0.960949
0.964708
0.963796
0.969232
0.969885
0.977598
0.9803
0.990441
0.994954
1.00685
1.01262
1.02548
1.03236
1.04585
1.05351
1.06629
1.07418
1.08571
1.09276
1.10352
1.10995
1.11931
1.12583
1.1351
1.14254
1.15403
1.16279
1.17839
1.18775
1.20855
1.21745
1.24286
1.25119
1.27666
1.28112
1.30009
1.29747
1.30634
1.29117
0.946783
0.948917
0.952473
0.953654
0.957946
0.961511
0.968199
0.973373
0.982706
0.989617
1.00135
1.0083
1.02201
1.03017
1.04326
1.05232
1.06496
1.07284
1.08491
1.09171
1.10203
1.10831
1.11691
1.12316
1.13063
1.13805
1.14699
1.1565
1.16957
1.1813
1.20085
1.21391
1.24131
1.25305
1.28626
1.29589
1.32986
1.33336
1.35866
1.34896
0.945453
0.94832
0.952267
0.955404
0.958512
0.965688
0.970366
0.980396
0.988141
0.998955
1.00936
1.02027
1.03233
1.04224
1.05575
1.06426
1.07757
1.08507
1.09608
1.10304
1.11191
1.11775
1.12461
1.13006
1.1353
1.1419
1.14724
1.1556
1.1641
1.17623
1.19077
1.20627
1.23075
1.24904
1.28593
1.30326
1.34957
1.36065
1.41085
1.41292
0.928637
0.9318
0.938233
0.942038
0.947749
0.954236
0.963204
0.970896
0.983044
0.992407
1.00647
1.0167
1.03121
1.04202
1.05525
1.06595
1.07752
1.08707
1.09656
1.10456
1.11175
1.11782
1.1233
1.12874
1.13301
1.13842
1.14156
1.14794
1.15147
1.16084
1.16807
1.18294
1.19841
1.21923
1.24827
1.27477
1.32143
1.35002
1.41167
1.44133
0.922222
0.929034
0.934338
0.940935
0.948031
0.958156
0.96779
0.981081
0.993931
1.00826
1.02158
1.03697
1.0494
1.06447
1.07531
1.0892
1.0981
1.10954
1.11639
1.12478
1.12983
1.13533
1.13805
1.14144
1.14227
1.14387
1.14414
1.14491
1.14399
1.14677
1.14634
1.15531
1.16007
1.17763
1.18756
1.21575
1.2339
1.28023
1.30521
1.381
0.904203
0.916588
0.924043
0.935063
0.94263
0.954284
0.965279
0.978758
0.993852
1.00973
1.0261
1.04215
1.05797
1.07242
1.08625
1.09896
1.10947
1.11958
1.12693
1.13388
1.13819
1.14171
1.14333
1.14428
1.14351
1.1427
1.14127
1.1399
1.1376
1.13561
1.12885
1.12544
1.11608
1.11721
1.10733
1.11554
1.10664
1.1251
1.11114
1.15573
0.893568
0.906948
0.91702
0.933609
0.948091
0.968202
0.986135
1.00736
1.02493
1.04495
1.0608
1.07927
1.09333
1.1092
1.12131
1.13336
1.14308
1.15096
1.15729
1.16121
1.16399
1.16525
1.16556
1.16469
1.16429
1.16211
1.16046
1.15616
1.15086
1.14085
1.13123
1.11451
1.09438
1.0695
1.04192
1.01544
0.971404
0.937611
0.845358
0.826953
0.889988
0.911511
0.928626
0.947919
0.964523
0.984209
1.00205
1.02473
1.04375
1.06782
1.08564
1.10804
1.12284
1.14142
1.1526
1.16638
1.17336
1.18182
1.18428
1.18773
1.18625
1.18547
1.18122
1.1775
1.17322
1.16857
1.16638
1.16051
1.15713
1.14981
1.14166
1.11614
1.0884
1.03238
0.983312
0.900675
0.835044
0.716377
0.614881
0.45626
0.899342
0.933224
0.966303
1.00116
1.03171
1.066
1.09342
1.12544
1.14849
1.17653
1.19467
1.21688
1.22907
1.24449
1.25022
1.25865
1.25672
1.25771
1.24697
1.24065
1.22496
1.21207
1.19078
1.17505
1.15255
1.13904
1.12023
1.11217
1.10007
1.09438
1.0712
1.04191
0.971235
0.880481
0.776484
0.684025
0.568986
0.482499
0.351453
0.305922
1.03313
1.06736
1.10047
1.13318
1.16488
1.19414
1.22051
1.24275
1.25976
1.27528
1.28164
1.289
1.28934
1.29176
1.28695
1.28009
1.26507
1.24549
1.21934
1.18776
1.15065
1.10797
1.05948
1.00669
0.947158
0.889034
0.822419
0.77058
0.69996
0.66847
0.5135
0.0716577
0.0386718
0.0515695
0.160323
0.211529
0.240479
0.253598
0.248189
0.249986
1.00827
1.00747
1.00509
1.00283
0.998367
0.991456
0.985517
0.981495
0.976444
0.974296
0.977393
0.983035
0.989353
0.993375
0.995937
0.99857
0.999772
1.00008
1.00057
1.00163
1.00298
1.00421
1.00518
1.00568
1.00613
1.0066
1.00687
1.007
1.0071
1.0071
1.00704
1.00699
1.00698
1.00685
1.0068
1.0066
1.00632
1.00623
1.00614
1.00941
1.00993
1.0088
1.00551
1.0024
0.997964
0.991261
0.983973
0.978874
0.973426
0.971266
0.974959
0.981722
0.989376
0.99381
0.996393
0.998619
0.999532
0.999855
1.00084
1.00209
1.00341
1.00441
1.00525
1.00564
1.00608
1.00661
1.00688
1.00705
1.00725
1.00733
1.00729
1.00727
1.00717
1.00709
1.00702
1.00688
1.00662
1.00618
1.00556
1.00432
1.01271
1.01014
1.00668
1.00335
0.998768
0.991173
0.982518
0.97632
0.970615
0.968224
0.972238
0.980241
0.989449
0.994294
0.99676
0.998729
0.999293
0.999541
1.00092
1.00226
1.00348
1.00444
1.0055
1.00616
1.00663
1.00717
1.00721
1.00728
1.00759
1.00762
1.00758
1.00758
1.00748
1.00739
1.0073
1.00715
1.00699
1.00684
1.00714
1.00943
1.01152
1.01052
1.00743
1.00317
0.998048
0.991015
0.981083
0.973092
0.966935
0.964356
0.96861
0.97811
0.989458
0.995035
0.997273
0.998728
0.999118
0.999441
1.00109
1.0026
1.00372
1.00456
1.00567
1.0063
1.00674
1.00732
1.00747
1.00756
1.00779
1.00783
1.00787
1.0078
1.00766
1.00757
1.00746
1.00736
1.00705
1.00673
1.00616
1.00453
1.01503
1.01249
1.00887
1.00419
0.99834
0.990954
0.980083
0.970169
0.963153
0.96017
0.964149
0.975267
0.98942
0.99597
0.997852
0.998951
0.999255
0.999516
1.00137
1.00266
1.00357
1.00447
1.00568
1.00653
1.00699
1.00768
1.00776
1.008
1.00816
1.00818
1.00826
1.00815
1.00801
1.00788
1.00777
1.00776
1.00759
1.00747
1.00763
1.00905
1.01399
1.01263
1.00932
1.00413
0.997726
0.990758
0.978955
0.966813
0.958511
0.954899
0.958298
0.971314
0.989249
0.997276
0.998835
0.999386
0.999682
0.999834
1.00158
1.00266
1.00361
1.00469
1.00586
1.00659
1.00705
1.00774
1.00775
1.00819
1.00831
1.00844
1.00861
1.0085
1.00838
1.00822
1.00799
1.00788
1.00771
1.00742
1.00691
1.00543
1.01789
1.01479
1.0107
1.00532
0.998152
0.990252
0.978269
0.96444
0.954025
0.948886
0.950998
0.965967
0.988844
0.998997
1.00025
1.00018
1.00046
1.00022
1.00176
1.0026
1.00353
1.00482
1.00585
1.00686
1.00739
1.00806
1.00813
1.00861
1.0087
1.00886
1.009
1.00894
1.00889
1.00872
1.0085
1.00831
1.0082
1.00809
1.00818
1.00902
1.01686
1.0149
1.01116
1.00562
0.998384
0.989932
0.977217
0.961559
0.949215
0.941932
0.941823
0.958569
0.987852
1.00107
1.00248
1.00155
1.0014
1.00053
1.00167
1.00249
1.00353
1.00517
1.00601
1.00711
1.00755
1.00825
1.00844
1.00899
1.00912
1.00936
1.0093
1.00918
1.00907
1.00888
1.00861
1.00838
1.00825
1.00804
1.00769
1.00651
1.02112
1.0174
1.01291
1.00702
0.999132
0.989479
0.976791
0.959925
0.944879
0.93446
0.930786
0.94905
0.986861
1.00309
1.00496
1.00315
1.00219
1.00088
1.00168
1.00261
1.0036
1.00524
1.00585
1.00742
1.00784
1.00867
1.00901
1.00946
1.00944
1.00963
1.00955
1.00944
1.00933
1.00923
1.00907
1.00882
1.00877
1.00866
1.00872
1.00916
1.01996
1.01754
1.01354
1.00743
1.00009
0.989675
0.975763
0.957536
0.940477
0.92668
0.917839
0.937017
0.985212
1.00512
1.00749
1.00507
1.00288
1.00127
1.00156
1.00274
1.00359
1.00537
1.00607
1.00783
1.00802
1.00887
1.00916
1.00967
1.00964
1.00973
1.00975
1.00963
1.00956
1.00936
1.00932
1.00903
1.00888
1.00867
1.00845
1.0076
1.02474
1.02071
1.01611
1.0094
1.00105
0.989794
0.97522
0.955974
0.937126
0.919502
0.90355
0.922289
0.982507
1.00677
1.00961
1.00684
1.00367
1.00191
1.00182
1.00308
1.00358
1.00538
1.00614
1.00786
1.00808
1.00914
1.00945
1.01002
1.01009
1.01025
1.01028
1.01015
1.01018
1.00996
1.00998
1.00965
1.00959
1.0093
1.00927
1.00934
1.02382
1.02059
1.01727
1.0105
1.00241
0.991191
0.974431
0.953672
0.934172
0.913238
0.888574
0.904474
0.977759
1.0077
1.01068
1.00826
1.00432
1.00253
1.00205
1.00312
1.00352
1.00555
1.00653
1.00806
1.0083
1.00958
1.00985
1.01046
1.01057
1.01064
1.01076
1.0105
1.01051
1.01014
1.01015
1.00978
1.00975
1.0093
1.00913
1.00859
1.02903
1.02433
1.02074
1.01324
1.00353
0.992373
0.974286
0.952149
0.932671
0.908847
0.874204
0.883732
0.970087
1.0076
1.01119
1.00924
1.00475
1.00297
1.00249
1.00341
1.00374
1.00565
1.00667
1.00813
1.00853
1.01
1.0102
1.01083
1.01109
1.01112
1.01132
1.01106
1.01115
1.01069
1.01077
1.01034
1.0105
1.00991
1.00997
1.00982
1.02856
1.02459
1.02209
1.01505
1.00551
0.994766
0.974407
0.950531
0.931835
0.906316
0.861326
0.859958
0.957773
1.00553
1.01067
1.00935
1.00481
1.003
1.00255
1.00331
1.00369
1.00563
1.00688
1.00829
1.0088
1.01023
1.01051
1.01117
1.01147
1.01142
1.01158
1.01134
1.01144
1.01108
1.01117
1.0106
1.01072
1.01002
1.00999
1.00967
1.0345
1.02991
1.02693
1.01876
1.00789
0.997048
0.975698
0.9502
0.931949
0.905936
0.851153
0.834784
0.940122
1.00161
1.00964
1.00874
1.00424
1.00271
1.00249
1.00342
1.0039
1.00563
1.00684
1.00828
1.00906
1.01056
1.01096
1.01145
1.01177
1.01189
1.01219
1.01219
1.01227
1.01198
1.01213
1.0115
1.01152
1.01085
1.01093
1.01069
1.03471
1.03146
1.02906
1.02112
1.01133
1.00093
0.977841
0.950394
0.932602
0.907304
0.844494
0.808872
0.914772
0.993922
1.00681
1.00667
1.00284
1.00191
1.00202
1.003
1.0039
1.00589
1.00717
1.00868
1.00953
1.01077
1.0114
1.01189
1.01213
1.01224
1.01239
1.01249
1.01256
1.0123
1.01236
1.01178
1.01177
1.0111
1.01102
1.01081
1.04144
1.03829
1.03513
1.02603
1.01585
1.00537
0.981549
0.952812
0.934737
0.909838
0.841868
0.783644
0.882073
0.982038
1.00218
1.00349
1.00047
1.00057
1.00136
1.00287
1.00401
1.00612
1.00709
1.00865
1.0098
1.01101
1.01181
1.01235
1.01265
1.01288
1.013
1.01303
1.013
1.01286
1.01283
1.01255
1.0125
1.01194
1.01191
1.01168
1.04251
1.04098
1.03835
1.02932
1.02097
1.01122
0.986415
0.956634
0.938745
0.913238
0.842015
0.758159
0.842694
0.96417
0.994188
0.99805
0.996908
0.99834
0.999802
1.00209
1.00351
1.00626
1.00733
1.00918
1.01035
1.01144
1.01231
1.0129
1.01323
1.01336
1.01348
1.01353
1.01338
1.01338
1.01304
1.01289
1.01255
1.01223
1.01214
1.01204
1.05051
1.05024
1.04729
1.0366
1.02884
1.0187
0.992937
0.962985
0.945363
0.917427
0.843015
0.733803
0.798062
0.940092
0.982859
0.990431
0.991747
0.995359
0.997352
1.00111
1.00284
1.00575
1.00705
1.00926
1.01064
1.01198
1.013
1.01361
1.01425
1.01445
1.01474
1.01487
1.01451
1.01472
1.01407
1.0141
1.01341
1.01322
1.0129
1.01286
1.05379
1.05609
1.05371
1.04287
1.038
1.02828
1.0018
0.972285
0.954819
0.922152
0.842238
0.709499
0.749026
0.907966
0.966566
0.979806
0.984735
0.99129
0.993571
0.999121
1.00141
1.00517
1.00702
1.00962
1.01092
1.01228
1.01337
1.01392
1.01478
1.015
1.01548
1.01577
1.0152
1.01541
1.0145
1.01472
1.01388
1.01391
1.01345
1.01355
1.06371
1.06776
1.0654
1.05447
1.05098
1.04021
1.01363
0.985357
0.966622
0.925931
0.835967
0.684952
0.696127
0.868412
0.945823
0.966507
0.97562
0.986035
0.989513
0.996687
0.999676
1.00424
1.00647
1.00962
1.01112
1.01246
1.01369
1.01413
1.01513
1.0154
1.01577
1.01627
1.01575
1.0164
1.01543
1.01586
1.01492
1.01499
1.01435
1.01449
1.07151
1.07679
1.07297
1.06419
1.06275
1.05157
1.02742
1.00185
0.979652
0.927243
0.821876
0.656822
0.639851
0.820985
0.919249
0.949103
0.964218
0.978617
0.98455
0.993529
0.997785
1.00327
1.00604
1.00988
1.01146
1.01299
1.01421
1.01478
1.01561
1.01604
1.01627
1.01709
1.01648
1.01743
1.01645
1.01701
1.01592
1.01609
1.01528
1.01554
1.08534
1.09289
1.08655
1.08219
1.08049
1.06727
1.04554
1.0226
0.992314
0.922161
0.797641
0.621007
0.581646
0.767611
0.887565
0.927468
0.950119
0.96924
0.97862
0.989296
0.994927
1.00153
1.00504
1.00996
1.01214
1.01449
1.01565
1.0166
1.01711
1.01809
1.01806
1.01918
1.01824
1.01903
1.01783
1.01816
1.01696
1.01699
1.01616
1.01652
1.10009
1.10805
1.0994
1.10235
1.10017
1.08691
1.0705
1.04767
1.00245
0.905525
0.760793
0.573174
0.522289
0.711923
0.851018
0.901551
0.93315
0.957301
0.970398
0.983724
0.990691
0.999087
1.00348
1.00912
1.01161
1.01496
1.01644
1.01824
1.01853
1.02008
1.01939
1.02055
1.01927
1.01995
1.01863
1.01898
1.01785
1.01785
1.01712
1.01761
1.11848
1.1256
1.11788
1.12821
1.12523
1.11488
1.1044
1.07382
1.00427
0.874204
0.705364
0.511477
0.459767
0.658559
0.811699
0.872444
0.914552
0.944109
0.960971
0.977102
0.98575
0.995028
1.00063
1.00662
1.00977
1.01412
1.01575
1.0183
1.01849
1.02061
1.01975
1.02119
1.02002
1.02107
1.01981
1.02033
1.01935
1.01915
1.01863
1.01904
1.13781
1.13941
1.13848
1.15395
1.14996
1.14831
1.14223
1.09143
0.98542
0.820082
0.625948
0.434719
0.396366
0.607676
0.770563
0.840822
0.894755
0.929386
0.951763
0.970452
0.981589
0.991445
0.998576
1.0047
1.00861
1.01357
1.01497
1.01839
1.0184
1.02106
1.0205
1.02248
1.02157
1.023
1.02195
1.02233
1.02156
1.02091
1.02073
1.02083
1.15915
1.16001
1.17216
1.1906
1.19041
1.2038
1.17876
1.09276
0.937999
0.735301
0.520162
0.345641
0.343538
0.565839
0.730521
0.808699
0.874447
0.913482
0.942887
0.963651
0.978656
0.989855
0.998947
1.00516
1.00945
1.01473
1.01599
1.02017
1.02015
1.0231
1.02235
1.02476
1.02373
1.02519
1.02418
1.02434
1.02384
1.02274
1.02314
1.02283
1.18641
1.19235
1.21736
1.23495
1.24815
1.25954
1.19347
1.06226
0.852821
0.612022
0.386001
0.261912
0.313001
0.539733
0.694977
0.778985
0.854815
0.896382
0.933729
0.955969
0.976237
0.98822
0.999763
1.00626
1.01137
1.0168
1.01824
1.02254
1.02242
1.02566
1.02457
1.02729
1.02574
1.02727
1.02612
1.02603
1.02573
1.02462
1.02507
1.0246
1.21983
1.23685
1.27099
1.28971
1.32
1.28642
1.18725
0.985318
0.71683
0.444814
0.239248
0.233072
0.320459
0.530509
0.667863
0.756903
0.837914
0.881234
0.925035
0.947779
0.972738
0.984785
0.999932
1.00578
1.01335
1.01782
1.02102
1.02479
1.02533
1.02862
1.02739
1.03032
1.0281
1.02992
1.02841
1.02833
1.02802
1.02689
1.02762
1.02719
1.25931
1.28773
1.32297
1.36112
1.36611
1.29572
1.13116
0.842515
0.511868
0.237902
0.206364
0.291224
0.367879
0.538213
0.652628
0.747124
0.826486
0.872942
0.9181
0.9432
0.969964
0.983041
1.00098
1.00528
1.0169
1.01892
1.02517
1.02703
1.02926
1.03164
1.03066
1.03368
1.03117
1.03358
1.03139
1.03196
1.0312
1.03012
1.03047
1.02987
1.30797
1.35008
1.39649
1.43207
1.39085
1.26849
0.989868
0.599467
0.241782
0.200454
0.355547
0.406875
0.43365
0.561733
0.655909
0.754255
0.823383
0.875483
0.91684
0.945397
0.97073
0.984992
1.00342
1.0077
1.02126
1.02135
1.03054
1.02987
1.03455
1.03538
1.03575
1.03833
1.03622
1.03912
1.03614
1.03778
1.03553
1.03533
1.03496
1.03489
1.37852
1.4418
1.49615
1.47668
1.38024
1.14245
0.709755
0.295794
0.276214
0.475459
0.547148
0.539206
0.518631
0.609453
0.682584
0.779142
0.833183
0.892636
0.925411
0.957497
0.976691
0.994065
1.00768
1.01505
1.02784
1.02798
1.039
1.03652
1.04376
1.04229
1.04479
1.04596
1.04457
1.04689
1.04293
1.0449
1.04108
1.04219
1.04037
1.04141
1.46756
1.54819
1.54334
1.47779
1.26184
0.832977
0.432525
0.504073
0.674043
0.720987
0.713479
0.613425
0.60132
0.680932
0.730809
0.818889
0.860475
0.922816
0.946952
0.982591
0.992859
1.0164
1.01906
1.03327
1.04032
1.0429
1.0522
1.04931
1.0565
1.05312
1.05699
1.05563
1.05544
1.05592
1.05244
1.05388
1.04958
1.05096
1.04804
1.04934
1.51225
1.51633
1.43673
1.16354
0.779307
0.635199
0.760474
0.851306
0.865561
0.846475
0.748375
0.654454
0.691309
0.719022
0.784199
0.851583
0.895119
0.955796
0.984649
1.01849
1.02806
1.05196
1.04582
1.06283
1.05978
1.0669
1.06772
1.06837
1.07062
1.06844
1.07124
1.06824
1.06948
1.06742
1.06544
1.06525
1.0621
1.06408
1.06105
1.06278
1.3679
1.25001
0.913565
0.700806
0.687605
0.769454
0.80145
0.824763
0.831744
0.786508
0.699658
0.679468
0.711669
0.725533
0.795276
0.857217
0.914857
0.963557
1.01198
1.03901
1.06805
1.08647
1.09023
1.09725
1.09207
1.09713
1.09286
1.09622
1.09489
1.09591
1.09624
1.09357
1.09507
1.09234
1.09245
1.08903
1.0871
1.08501
1.08189
1.08123
1.00414
0.6408
0.576286
0.580892
0.578265
0.591451
0.638562
0.662707
0.673571
0.623999
0.595412
0.633376
0.650189
0.685497
0.75445
0.837664
0.904266
0.958757
1.01262
1.04337
1.07784
1.10166
1.12127
1.13471
1.14298
1.14321
1.14237
1.14081
1.1401
1.1377
1.13916
1.13603
1.13735
1.13323
1.13469
1.13054
1.12763
1.12004
1.11394
1.10839
0.468384
0.261881
0.282477
0.275013
0.296414
0.380045
0.405696
0.424948
0.427275
0.370448
0.376164
0.439453
0.458172
0.536879
0.626371
0.729496
0.811021
0.900978
0.968926
1.02508
1.06956
1.10293
1.12983
1.15221
1.16629
1.18094
1.19011
1.19351
1.19696
1.19512
1.19497
1.19074
1.19439
1.18757
1.19038
1.18423
1.18534
1.1813
1.17744
1.17298
0.151644
0.114198
0.125023
0.181294
0.203043
0.240408
0.251341
0.249209
0.222166
0.165748
0.151646
0.153956
0.11837
0.189407
0.300314
0.420224
0.562566
0.670026
0.799828
0.896178
0.978679
1.04863
1.09683
1.14346
1.16678
1.18816
1.20435
1.2109
1.21926
1.21792
1.2203
1.21592
1.22055
1.21356
1.21741
1.21015
1.21209
1.21078
1.21434
1.21992
0.29929
0.330286
0.325013
0.341966
0.388772
0.408645
0.419923
0.4269
0.427708
0.428004
0.424824
0.420618
0.400765
0.407829
0.357388
0.352345
0.390826
0.304762
0.328873
0.384812
0.47072
0.550454
0.645576
0.734988
0.835833
0.906057
0.974137
1.02752
1.08212
1.1211
1.16234
1.1855
1.21231
1.23143
1.25528
1.27148
1.2916
1.30157
1.3111
1.31305
0.262318
0.251961
0.256981
0.287873
0.317087
0.343808
0.376994
0.417784
0.454213
0.500093
0.538984
0.579674
0.610867
0.643303
0.660764
0.672263
0.667264
0.65866
0.633402
0.603378
0.56267
0.518531
0.454084
0.393956
0.21637
0.310064
0.595648
0.633571
0.687846
0.719463
0.767221
0.803883
0.855258
0.896584
0.946292
0.987545
1.03575
1.08544
1.14443
1.20465
1.01544
1.01529
1.0169
1.01737
1.01825
1.01841
1.01892
1.01896
1.0194
1.01909
1.01942
1.01921
1.01895
1.01898
1.01804
1.01794
1.01625
1.01523
1.01239
1.00934
1.00433
0.998253
0.990358
0.981743
0.97475
0.972853
0.978133
0.989869
1.00209
1.00812
1.00749
1.00701
1.00678
1.00653
1.00633
1.00613
1.00589
1.00559
1.00528
1.00511
0.998625
0.99903
0.998
0.998516
0.997958
0.998807
0.998355
0.999012
0.998853
0.999099
0.999278
0.999122
0.999683
0.99938
1.00021
1.00023
1.00127
1.00229
1.00415
1.00671
1.01005
1.01407
1.01824
1.02245
1.02446
1.02521
1.02418
1.01863
1.01039
1.0076
1.00724
1.00749
1.00755
1.00749
1.00731
1.00703
1.00655
1.00607
1.0058
1.00559
1.01404
1.01457
1.01626
1.01678
1.01789
1.01794
1.01875
1.01833
1.01887
1.01858
1.01831
1.01831
1.01742
1.01731
1.01592
1.01551
1.01333
1.01217
1.00897
1.00652
1.0026
0.999457
0.996665
0.996898
0.998872
1.00222
1.00527
1.00648
1.00675
1.00668
1.00681
1.00708
1.00722
1.00726
1.00717
1.00703
1.00689
1.00652
1.00628
1.00615
1.00059
1.00123
1.00037
1.0007
1.00021
1.00085
1.00059
1.00117
1.00112
1.00155
1.00188
1.00212
1.00291
1.00344
1.00425
1.00565
1.00686
1.00929
1.01149
1.01475
1.01755
1.02068
1.02306
1.02427
1.02476
1.02408
1.02129
1.0178
1.01411
1.01097
1.00958
1.00933
1.00909
1.00833
1.00793
1.00748
1.00694
1.00674
1.00655
1.00635
1.01253
1.01364
1.0149
1.01552
1.01634
1.01641
1.01699
1.01683
1.01682
1.01687
1.01624
1.01613
1.01523
1.0149
1.01354
1.0128
1.01079
1.00947
1.00705
1.00533
1.00325
1.0025
1.00293
1.00428
1.0053
1.00688
1.00809
1.00864
1.00872
1.00861
1.0084
1.00843
1.0086
1.00849
1.00814
1.00799
1.00761
1.00715
1.00698
1.00681
1.00263
1.00299
1.00248
1.00294
1.00263
1.00314
1.00322
1.00359
1.004
1.00437
1.005
1.00556
1.00625
1.00723
1.00811
1.0096
1.01079
1.0127
1.01412
1.01606
1.01726
1.01882
1.01984
1.02047
1.02042
1.01939
1.01785
1.01643
1.01454
1.01245
1.01133
1.01066
1.00999
1.0092
1.00863
1.00819
1.00774
1.00758
1.00725
1.00692
1.01145
1.01273
1.01361
1.01432
1.01483
1.01508
1.0152
1.01545
1.01503
1.01518
1.01458
1.01447
1.01371
1.01324
1.01217
1.01138
1.00993
1.00893
1.00741
1.00653
1.00551
1.00559
1.00591
1.0066
1.00704
1.0081
1.00935
1.00997
1.01016
1.01011
1.00993
1.00994
1.00991
1.00958
1.00924
1.00883
1.00827
1.00792
1.00782
1.00755
1.00464
1.00477
1.00478
1.00497
1.00533
1.00558
1.00594
1.00642
1.0068
1.00735
1.00787
1.00849
1.00926
1.0101
1.01097
1.01204
1.0129
1.01399
1.01484
1.01567
1.0163
1.01722
1.01761
1.01767
1.0171
1.01635
1.01577
1.01479
1.01345
1.01238
1.01191
1.01126
1.01036
1.00989
1.00956
1.00909
1.00859
1.00822
1.00805
1.00776
1.01075
1.01196
1.01251
1.01324
1.01347
1.01392
1.01384
1.01421
1.01385
1.01409
1.01364
1.01349
1.01292
1.01253
1.01182
1.01131
1.0105
1.01003
1.0094
1.00913
1.00864
1.0087
1.00898
1.00914
1.00915
1.00992
1.01079
1.01114
1.01124
1.01126
1.01127
1.01109
1.01091
1.01052
1.01009
1.00956
1.0091
1.00881
1.0086
1.00839
1.00656
1.00666
1.0069
1.00719
1.00773
1.00805
1.00846
1.0089
1.00926
1.00977
1.01028
1.01087
1.01148
1.01209
1.01274
1.0134
1.01402
1.01458
1.01498
1.01548
1.01618
1.01662
1.01661
1.01599
1.01517
1.01486
1.01459
1.01379
1.01296
1.01253
1.01212
1.0114
1.01102
1.01081
1.01055