/*--------------------------------*- C++ -*----------------------------------*\
  =========                 |
  \\      /  F ield         | OpenFOAM: The Open Source CFD Toolbox
   \\    /   O peration     | Website:  https://openfoam.org
    \\  /    A nd           | Version:  11
     \\/     M anipulation  |
\*---------------------------------------------------------------------------*/
FoamFile
{
    format      ascii;
    class       surfaceScalarField;
    location    "4";
    object      phi;
}
// * * * * * * * * * * * * * * * * * * * * * * * * * * * * * * * * * * * * * //

dimensions      [0 3 -1 0 0 0 0];

internalField   nonuniform List<scalar> 
18960
(
0.0888464
0.000404262
-0.0892506
0.0884638
0.00038258
0.0881283
0.000335472
0.0877909
0.000337404
0.0875099
0.000281045
0.0872999
0.00020991
0.087128
0.00017191
0.0870164
0.000111593
0.0869299
8.64917e-05
0.0866231
0.000306855
0.0853917
0.00123141
0.0833652
0.00202652
0.0817269
0.00163825
0.0812742
0.000452717
0.0816875
-0.000413268
0.0829083
-0.0012208
0.0846633
-0.00175503
0.0862737
-0.00161038
0.0876417
-0.00136802
0.0887937
-0.001152
0.0896941
-0.000900425
0.0904817
-0.000787591
0.0910296
-0.000547857
0.0914504
-0.000420792
0.0917602
-0.00030988
0.0918714
-0.000111162
0.091813
5.84098e-05
0.0916855
0.00012751
0.0915108
0.000174643
0.0912807
0.000230177
0.091002
0.000278682
0.0907709
0.00023113
0.0905152
0.000255685
0.0903874
0.000127808
0.090306
8.13628e-05
0.0903218
-1.57727e-05
0.0903333
-1.15186e-05
0.0904995
-0.000166216
0.0906148
-0.0001153
-0.000372136
0.0909869
0.0889421
0.00071343
-0.0892513
0.0886741
0.000650571
0.0884083
0.000601339
0.0881839
0.000561766
0.0879799
0.000485006
0.0877715
0.000418378
0.0875796
0.000363769
0.0874124
0.000278798
0.0872949
0.000204024
0.0871286
0.000473138
0.0871021
0.00125791
0.0873
0.00182865
0.0874797
0.00145852
0.0874363
0.000496097
0.0874706
-0.000447517
0.0876831
-0.00143335
0.0881034
-0.00217531
0.0887343
-0.00224126
0.0893624
-0.0019962
0.0899887
-0.0017783
0.0906311
-0.00154274
0.091291
-0.00144753
0.0918378
-0.00109465
0.0923712
-0.000954251
0.0926876
-0.000626275
0.0929901
-0.00041361
0.0931158
-6.72897e-05
0.0931656
7.76783e-05
0.0930572
0.000283092
0.0929276
0.000359785
0.092679
0.000527276
0.0923777
0.000532374
0.0920505
0.000582909
0.0915743
0.000603964
0.0912442
0.000411497
0.0908029
0.000425505
0.0904842
0.000307194
0.0901938
0.000124189
0.0899116
0.000166868
-0.000401264
0.0899408
0.088953
0.00103693
-0.0892765
0.0886673
0.000936302
0.0883984
0.000870249
0.0881483
0.000811834
0.0879174
0.000715879
0.087704
0.00063179
0.0875448
0.000522938
0.0874777
0.000345979
0.0874847
0.000197008
0.0874005
0.000557299
0.0871667
0.00149177
0.0869705
0.00202482
0.0865913
0.00183768
0.0861594
0.000927994
0.0861664
-0.000454509
0.0866694
-0.0019363
0.087383
-0.00288892
0.0882459
-0.00310416
0.0891178
-0.00286816
0.0899334
-0.00259392
0.0905883
-0.00219764
0.0911778
-0.00203702
0.0916786
-0.00159543
0.0920416
-0.0013172
0.0923517
-0.000936397
0.0925606
-0.000622476
0.092684
-0.000190726
0.0927044
5.72327e-05
0.0926228
0.0003647
0.0924738
0.00050878
0.0923198
0.00068127
0.0921398
0.000712368
0.0920208
0.000701999
0.0919636
0.000661076
0.0918745
0.000500643
0.0919447
0.00035527
0.0920322
0.000219731
0.0921927
-3.632e-05
0.092332
2.7529e-05
-0.000305138
0.0922359
0.0889515
0.00136506
-0.0892796
0.0886776
0.00121015
0.088411
0.00113688
0.0881858
0.00103703
0.0879789
0.000922785
0.0878115
0.000799244
0.0877015
0.000632892
0.0876399
0.000407618
0.0875559
0.000281015
0.0875134
0.000599727
0.0875301
0.00147513
0.0875893
0.00196557
0.087873
0.00155402
0.0884683
0.000332686
0.0891712
-0.00115742
0.0897581
-0.00252315
0.0901492
-0.0032801
0.090501
-0.00345594
0.0908302
-0.00319732
0.0911362
-0.00289992
0.0914472
-0.0025086
0.0917872
-0.00237709
0.0921856
-0.00199381
0.0926125
-0.0017441
0.0929288
-0.00125271
0.0931944
-0.000888045
0.093347
-0.000343373
0.0934324
-2.81769e-05
0.0934537
0.000343409
0.0933915
0.000571004
0.0932583
0.000814485
0.093052
0.000918693
0.092746
0.00100799
0.0924234
0.000983661
0.0919911
0.000932882
0.0915878
0.000758638
0.0911572
0.00065026
0.0909013
0.000219624
0.0907629
0.000165966
-0.000444182
0.0909019
0.0889785
0.00166481
-0.0892783
0.0886992
0.00148944
0.0884469
0.00138921
0.0882076
0.00127636
0.0880051
0.00112524
0.087865
0.000939371
0.0877459
0.000751996
0.0876639
0.000489559
0.0875803
0.000364611
0.0875318
0.000648288
0.087768
0.00123894
0.088182
0.00155149
0.0885681
0.00116794
0.0887691
0.000131676
0.0887219
-0.00111022
0.0886624
-0.00246366
0.0887272
-0.00334485
0.0890475
-0.00377627
0.0895098
-0.0036596
0.0901209
-0.00351107
0.0906604
-0.00304804
0.0911788
-0.00289554
0.0916071
-0.00242211
0.0919516
-0.0020886
0.0922521
-0.00155316
0.0924769
-0.00111284
0.0926694
-0.00053587
0.0928062
-0.000165025
0.0928649
0.000284713
0.0927954
0.000640502
0.092752
0.000857912
0.0926366
0.00103409
0.092569
0.00107559
0.0925675
0.000985128
0.0925438
0.000956641
0.0925953
0.00070714
0.0927064
0.000539091
0.0927768
0.000149275
0.0928375
0.000105303
-0.000331585
0.0927249
0.0889812
0.00196365
-0.08928
0.0887068
0.00176382
0.0884683
0.00162774
0.0882524
0.00149222
0.0880744
0.00130323
0.0879183
0.00109546
0.0878029
0.000867423
0.0877408
0.000551636
0.0877506
0.000354836
0.0878207
0.000578231
0.0879767
0.00108294
0.0882607
0.00126741
0.0886925
0.000736192
0.0892644
-0.000440195
0.0898936
-0.00173948
0.0904816
-0.00305167
0.0909474
-0.00381062
0.0913112
-0.00414004
0.0915969
-0.00394531
0.0918848
-0.00379897
0.0921605
-0.00332377
0.0924091
-0.00314413
0.0926785
-0.00269148
0.0929801
-0.00239024
0.0932877
-0.00186071
0.0935639
-0.00138905
0.093741
-0.000713026
0.0937847
-0.000208739
0.0938649
0.000204549
0.0938859
0.000619489
0.0938276
0.000916184
0.0937406
0.00112117
0.093466
0.00135018
0.0932321
0.00121902
0.0928543
0.00133441
0.0924552
0.0011063
0.0920475
0.000946735
0.0917522
0.00044463
0.0915643
0.000293175
-0.000363661
0.0915964
0.0890037
0.00224954
-0.0892896
0.0887567
0.00201077
0.0885235
0.00186093
0.0883216
0.00169414
0.0881429
0.00148197
0.0879967
0.00124163
0.0878701
0.00099402
0.0878272
0.000594506
0.0878779
0.000304178
0.0879771
0.000479015
0.0881208
0.000939263
0.0884717
0.000916477
0.0890295
0.000178458
0.0896338
-0.00104458
0.0900031
-0.00210871
0.0901094
-0.00315799
0.090058
-0.00375921
0.0900656
-0.00414762
0.0901794
-0.00405918
0.0904983
-0.00411785
0.0908873
-0.00371272
0.0913099
-0.00356671
0.0916868
-0.00306845
0.0920187
-0.00272212
0.0923134
-0.00215537
0.0925401
-0.00161574
0.0927785
-0.000951496
0.092997
-0.000427236
0.0931434
5.82153e-05
0.093214
0.000548879
0.0931979
0.000932204
0.0931759
0.00114318
0.093172
0.00135413
0.0931705
0.00122052
0.0932312
0.00127364
0.0933132
0.0010243
0.0933973
0.000862677
0.0934496
0.000392309
0.0934723
0.00027053
-0.000231961
0.0933406
0.0890298
0.00252472
-0.089305
0.0887681
0.00227245
0.0885443
0.0020848
0.0883654
0.00187298
0.0882093
0.00163808
0.0880574
0.00139351
0.0879765
0.00107496
0.0879952
0.000575851
0.0880362
0.000263183
0.0880927
0.000422468
0.0883335
0.000698514
0.0887699
0.000480053
0.0892311
-0.000282783
0.0896581
-0.00147151
0.0901129
-0.00256359
0.0906228
-0.00366783
0.0911194
-0.00425587
0.091612
-0.00464018
0.0919899
-0.00443713
0.0922895
-0.00441741
0.0925813
-0.00400449
0.0928539
-0.00383937
0.0931174
-0.00333193
0.0933837
-0.00298844
0.0936591
-0.00243071
0.0939736
-0.00193027
0.0942203
-0.00119816
0.0943217
-0.000528632
0.0943183
6.16099e-05
0.0943829
0.000484261
0.094418
0.000897086
0.0943987
0.00116248
0.0942684
0.00148443
0.0940864
0.00140255
0.0937695
0.00159056
0.0934437
0.00135008
0.0930719
0.00123447
0.0927536
0.00071057
0.0925086
0.000515511
-0.000190583
0.0924673
0.089069
0.0027942
-0.0893385
0.0888231
0.00251831
0.0886389
0.00226902
0.0884928
0.00201911
0.0883627
0.00176815
0.0882159
0.00154034
0.0881532
0.00113762
0.0881461
0.000582907
0.0881922
0.000217163
0.0883253
0.000289315
0.0885607
0.000463092
0.0889296
0.000111244
0.0894074
-0.000760603
0.0899153
-0.00197948
0.0903669
-0.00301519
0.0907207
-0.00402161
0.0909493
-0.0044844
0.0910638
-0.00475471
0.0911623
-0.00453564
0.0912798
-0.0045349
0.0914477
-0.00417241
0.0916663
-0.00405796
0.0919817
-0.0036473
0.0922656
-0.00327232
0.09251
-0.00267512
0.0927333
-0.00215362
0.0929714
-0.00143623
0.0932473
-0.000804536
0.0935136
-0.000204719
0.0936856
0.000312247
0.093758
0.0008247
0.0937977
0.00112275
0.0938217
0.00146044
0.0938335
0.00139074
0.0939374
0.0014867
0.0940306
0.00125691
0.0941525
0.00111251
0.0942142
0.000648888
0.0942451
0.000484607
-7.75678e-05
0.0941321
0.0890823
0.00304695
-0.089335
0.0888676
0.00273294
0.0886755
0.00246115
0.0885232
0.00217145
0.0883901
0.00190126
0.088269
0.00166144
0.0882233
0.0011833
0.0882416
0.000564566
0.0882747
0.000184045
0.0884145
0.000149598
0.0886931
0.000184452
0.0891232
-0.000318814
0.0895836
-0.0012211
0.0899773
-0.00237313
0.0903281
-0.00336594
0.0907138
-0.00440738
0.0911234
-0.00489395
0.091613
-0.00524432
0.0920885
-0.00501115
0.0924658
-0.00491218
0.0927986
-0.00450524
0.0931002
-0.00435955
0.0934087
-0.00395583
0.0937239
-0.00358749
0.0940139
-0.00296513
0.0943453
-0.00248508
0.0946762
-0.00176713
0.0948992
-0.00102755
0.0949462
-0.000251702
0.0950052
0.000253253
0.0950367
0.000793215
0.0951018
0.00105764
0.0950948
0.00146741
0.0949803
0.00150527
0.0947456
0.00172138
0.0944973
0.00150524
0.0941684
0.00144138
0.093853
0.000964283
0.0935573
0.000780384
1.18959e-05
0.0934678
0.0891605
0.00329312
-0.0894066
0.0889431
0.00295033
0.0887941
0.0026101
0.0886593
0.00230628
0.088501
0.00205952
0.0884179
0.00174452
0.0883992
0.00120202
0.0883968
0.000566984
0.0884523
0.000128507
0.0886332
-3.13023e-05
0.0889608
-0.000143134
0.0893493
-0.000707233
0.0897233
-0.00159512
0.0901076
-0.00275749
0.0904801
-0.00373839
0.0908459
-0.0047732
0.091191
-0.00523902
0.0914992
-0.00555252
0.09177
-0.00528201
0.0919775
-0.0051196
0.0921621
-0.00468989
0.0923171
-0.00451451
0.0924898
-0.00412854
0.092714
-0.00381169
0.0929392
-0.0031904
0.0931141
-0.00265994
0.0933162
-0.00196923
0.0936076
-0.00131893
0.0939293
-0.000573423
0.0942207
-3.81608e-05
0.0944044
0.000609544
0.0944998
0.00096221
0.0945874
0.00137985
0.0946473
0.00144534
0.0947288
0.00163994
0.0948539
0.00138005
0.0949791
0.00131621
0.0950716
0.000871775
0.09511
0.000741955
8.0189e-05
0.0950418
0.0891745
0.0035308
-0.0894122
0.0889902
0.00313464
0.0888103
0.00278993
0.0886606
0.00245599
0.0885642
0.00215596
0.0885196
0.00178915
0.0884888
0.00123275
0.0885064
0.000549382
0.0885783
5.66201e-05
0.0887903
-0.000243291
0.089118
-0.000470856
0.089522
-0.00111116
0.0898911
-0.00196429
0.0902278
-0.00309418
0.090483
-0.00399354
0.0907749
-0.00506517
0.0910976
-0.00556164
0.0914983
-0.00595323
0.0919933
-0.00577702
0.0924648
-0.00559114
0.0929138
-0.00513886
0.0932714
-0.00487211
0.093625
-0.00448213
0.0939821
-0.00416881
0.0943296
-0.00353794
0.0946991
-0.0030294
0.0950673
-0.00233744
0.0954196
-0.00167126
0.0956244
-0.000778182
0.0957145
-0.000128248
0.0957954
0.000528622
0.0958836
0.000874015
0.0959488
0.00131465
0.0959621
0.00143199
0.0958338
0.00176829
0.0956312
0.0015826
0.0953153
0.00163213
0.0950543
0.00113279
0.0947307
0.00106554
0.000196545
0.0946144
0.0892834
0.00374164
-0.0894943
0.0890886
0.00332944
0.0889407
0.00293786
0.0888229
0.00257379
0.0887003
0.00227854
0.0886388
0.00185063
0.0886695
0.00120209
0.088719
0.000499853
0.088799
-2.33821e-05
0.0890143
-0.000458566
0.0893157
-0.000772273
0.0896774
-0.00147286
0.0900214
-0.00230826
0.0902993
-0.00337211
0.090541
-0.00423521
0.0907782
-0.00530238
0.0910847
-0.00586816
0.0914727
-0.0063412
0.091879
-0.00618337
0.0922977
-0.00600978
0.0926747
-0.00551593
0.0929911
-0.00518847
0.0931881
-0.00467918
0.0933899
-0.00437061
0.0935948
-0.00374283
0.0937769
-0.00321146
0.093933
-0.00249356
0.0941543
-0.00189259
0.0944794
-0.00110325
0.0948513
-0.000500122
0.0951257
0.000254193
0.095337
0.000662762
0.0954781
0.00117348
0.095572
0.00133817
0.095693
0.00164723
0.0958208
0.00145483
0.0959468
0.00150609
0.0960754
0.00100419
0.0961332
0.00100777
0.000246095
0.0960837
0.0893099
0.00393969
-0.089508
0.089141
0.00349839
0.0890059
0.00307294
0.0888787
0.00270098
0.0887874
0.00236984
0.0887723
0.0018657
0.0888178
0.00115665
0.0888744
0.000443244
0.0889694
-0.000118375
0.0891553
-0.000644545
0.0894646
-0.00108155
0.0898167
-0.00182494
0.0901041
-0.00259565
0.090379
-0.00364707
0.0905915
-0.00444766
0.0907754
-0.00548627
0.0910214
-0.00611419
0.0913292
-0.00664899
0.0917801
-0.00663427
0.0922959
-0.00652563
0.0928507
-0.00607065
0.0933561
-0.00569388
0.0938265
-0.00514961
0.0942483
-0.00479241
0.0946661
-0.00416065
0.0951002
-0.00364551
0.0954988
-0.00289215
0.0959329
-0.00232674
0.0962589
-0.00142928
0.0965014
-0.000742533
0.0966617
9.38834e-05
0.0967778
0.000546623
0.0968733
0.00107804
0.0969683
0.0012431
0.0969788
0.00163679
0.0968804
0.00155323
0.0966131
0.00177333
0.0963816
0.00123566
0.0960743
0.00131507
0.00039419
0.0959263
0.0894294
0.00416091
-0.0896506
0.0892652
0.00366259
0.0891426
0.00319558
0.0890504
0.00279319
0.0889876
0.00243265
0.0889899
0.00186336
0.0890149
0.00113168
0.0890915
0.000366581
0.0892003
-0.00022717
0.0894044
-0.00084866
0.0896614
-0.00133855
0.0899462
-0.00210965
0.0902439
-0.00289339
0.090508
-0.00391113
0.0906982
-0.00463792
0.090842
-0.00563005
0.0909822
-0.00625443
0.0912656
-0.0069323
0.0916738
-0.00704251
0.0922055
-0.00705738
0.0927538
-0.00661892
0.0933183
-0.00625838
0.0937501
-0.00558138
0.0941087
-0.00515099
0.0943847
-0.0044367
0.0946556
-0.00391638
0.0948422
-0.00307875
0.0950126
-0.00249717
0.095257
-0.00167367
0.0956118
-0.00109734
0.0959703
-0.000264645
0.0963083
0.000208604
0.0964993
0.000887072
0.0966966
0.00104583
0.0968136
0.00151978
0.0970004
0.00136644
0.097134
0.00163968
0.0972789
0.00109082
0.0973474
0.00124649
0.000416804
0.0973248
0.0894732
0.00431861
-0.0896309
0.0893406
0.00379522
0.0892097
0.00332646
0.0891126
0.00289033
0.089087
0.00245822
0.0891187
0.00183169
0.0891709
0.00107948
0.0892684
0.000269075
0.0893619
-0.000320681
0.0895343
-0.00102112
0.0897529
-0.0015571
0.0900575
-0.0024143
0.090327
-0.00316283
0.0905977
-0.00418181
0.0908116
-0.00485183
0.0909557
-0.00577419
0.0910902
-0.00638891
0.0912849
-0.00712705
0.0915998
-0.00735737
0.0920572
-0.00751479
0.0926397
-0.00720139
0.0932917
-0.00691043
0.0939209
-0.00621059
0.0945074
-0.00573748
0.0950251
-0.0049544
0.0955422
-0.0044334
0.0960234
-0.00356002
0.0965152
-0.00298899
0.0969205
-0.00207889
0.0973033
-0.00148015
0.0975757
-0.000537095
0.0977977
-1.33365e-05
0.097964
0.000720758
0.0981065
0.000903296
0.098186
0.00144024
0.0982488
0.00130371
0.0981228
0.00176567
0.0979602
0.00125343
0.0976959
0.00151077
0.000602378
0.0975103
0.0896628
0.00449303
-0.0898372
0.0895114
0.00394655
0.089384
0.00345384
0.0893282
0.00294614
0.0893592
0.00242726
0.089415
0.00177586
0.0894574
0.00103709
0.0895211
0.000205361
0.0896001
-0.000399708
0.0897317
-0.00115263
0.0899595
-0.0017849
0.0902267
-0.00268155
0.0904747
-0.0034108
0.0907259
-0.00443298
0.0909607
-0.00508667
0.0911494
-0.00596289
0.0912681
-0.00650758
0.0913797
-0.00723864
0.0915951
-0.00757279
0.0919881
-0.00790778
0.0924978
-0.00771112
0.0931653
-0.00757793
0.0938548
-0.00690011
0.0945017
-0.00638436
0.0950087
-0.00546138
0.095457
-0.00488175
0.0958034
-0.00390644
0.0961096
-0.00329512
0.0963559
-0.00232521
0.0966548
-0.00177909
0.0970078
-0.000890071
0.0974414
-0.00044693
0.0977554
0.00040678
0.09802
0.000638664
0.0981845
0.00127574
0.0983694
0.0011188
0.0985578
0.00157729
0.0987315
0.00107973
0.0988672
0.00137505
0.000628662
0.0988409
0.0896793
0.00462437
-0.0898106
0.0895452
0.00408057
0.089439
0.00356008
0.0894059
0.00297922
0.0894329
0.00240026
0.089508
0.0017008
0.0895467
0.000998394
0.0896017
0.000150362
0.0896901
-0.000488081
0.0898675
-0.00133012
0.0900722
-0.00198956
0.0903251
-0.00293448
0.090541
-0.00362666
0.0907814
-0.0046734
0.0910445
-0.00534982
0.0912816
-0.0062
0.0914509
-0.00667684
0.0915998
-0.00738753
0.0917502
-0.00772319
0.0919983
-0.00815589
0.0923789
-0.00809177
0.092928
-0.00812697
0.0935819
-0.00755399
0.0943671
-0.00716956
0.0951134
-0.00620773
0.0958376
-0.00560598
0.096471
-0.00453977
0.0971089
-0.00393302
0.0976565
-0.00287282
0.0981802
-0.00230278
0.0985366
-0.00124652
0.0989223
-0.00083256
0.0991809
0.000148153
0.0994617
0.000357892
0.0996085
0.00112887
0.0997688
0.00095856
0.0997919
0.00155421
0.0997534
0.00111821
0.0996063
0.00152209
0.000790282
0.0994447
0.0899153
0.0047625
-0.0900535
0.0898085
0.00418744
0.0897364
0.00363219
0.089713
0.0030026
0.0897189
0.00239439
0.0898023
0.00161737
0.0898498
0.000950873
0.0899029
9.72847e-05
0.0899673
-0.000552495
0.0901067
-0.00146953
0.0902835
-0.00216632
0.0905071
-0.00315812
0.0907356
-0.00385511
0.0909465
-0.00488438
0.0911641
-0.00556741
0.0914179
-0.00645374
0.0916546
-0.00691357
0.0918373
-0.00757023
0.0919601
-0.007846
0.0921541
-0.00834988
0.0924048
-0.00834248
0.0928462
-0.00856837
0.0934225
-0.00813023
0.0941851
-0.00793223
0.0949707
-0.00699324
0.0957941
-0.00642941
0.0964973
-0.00524296
0.0971029
-0.00453865
0.0975882
-0.0033581
0.0980321
-0.00274673
0.0984044
-0.00161877
0.0987869
-0.00121503
0.0991713
-0.000236261
0.0995858
-5.66883e-05
0.0998574
0.000857342
0.100091
0.0007252
0.100282
0.00136334
0.100448
0.000951902
0.100656
0.00131406
0.000774852
0.100671
0.0898931
0.00489221
-0.0900228
0.0898371
0.00424342
0.0897728
0.00369648
0.0897566
0.00301875
0.0897763
0.0023747
0.0898124
0.00158126
0.0898714
0.000891924
0.0899406
2.80905e-05
0.0900062
-0.000618139
0.0901359
-0.00159921
0.0903361
-0.00236656
0.090595
-0.00341701
0.0908313
-0.00409133
0.0910497
-0.00510279
0.0912595
-0.00577718
0.0914856
-0.00667984
0.0917328
-0.00716078
0.0919828
-0.00782022
0.0922052
-0.00806842
0.0924212
-0.00856592
0.0926295
-0.00855077
0.0929312
-0.00887005
0.0933452
-0.00854421
0.0939475
-0.00853456
0.0947011
-0.00774684
0.0955941
-0.00732245
0.0965168
-0.0061656
0.0974909
-0.00551283
0.0983234
-0.00419053
0.09913
-0.00355334
0.0997512
-0.00223996
0.100323
-0.00178685
0.100683
-0.000596155
0.101036
-0.000409699
0.101349
0.000544067
0.101572
0.000502256
0.101746
0.00118991
0.101811
0.000886136
0.101792
0.00133378
0.000849228
0.101717
0.0902191
0.00500282
-0.0903297
0.0901624
0.0043001
0.0901283
0.00373058
0.0901212
0.00302586
0.0901017
0.00239414
0.0901278
0.00155515
0.0901466
0.000873161
0.0902366
-6.18657e-05
0.0903409
-0.000722504
0.0904907
-0.00174898
0.0906452
-0.00252108
0.0908653
-0.00363711
0.0910656
-0.00429161
0.0912636
-0.00530082
0.0914361
-0.00594965
0.0916499
-0.00689364
0.0918576
-0.0073685
0.0921494
-0.00811202
0.0923891
-0.0083081
0.0926879
-0.00886476
0.0928962
-0.00875899
0.0931773
-0.00915119
0.0934846
-0.00885148
0.0939614
-0.00901137
0.0945925
-0.0083779
0.0954535
-0.00818345
0.0963869
-0.00709903
0.0974301
-0.00655609
0.0983565
-0.00511688
0.0992405
-0.00443736
0.0999681
-0.00296752
0.100592
-0.00241045
0.101131
-0.0011358
0.101585
-0.00086313
0.101982
0.000146651
0.102291
0.000193061
0.102572
0.000908954
0.102721
0.000737378
0.10294
0.00111446
0.000816245
0.102973
0.0901752
0.00510844
-0.0902808
0.0901216
0.00435376
0.0901002
0.00375191
0.0901107
0.00301544
0.0901117
0.0023931
0.0901335
0.00153339
0.0901389
0.000867708
0.0902414
-0.00016434
0.0903772
-0.000858342
0.0905492
-0.00192097
0.0906891
-0.00266094
0.0908517
-0.00379973
0.0910796
-0.00451948
0.0913095
-0.00553072
0.0915238
-0.00616395
0.0917663
-0.00713611
0.0919704
-0.00757264
0.0922264
-0.00836807
0.0924663
-0.00854793
0.0927895
-0.00918803
0.0931253
-0.00909477
0.0934623
-0.00948823
0.093786
-0.00917516
0.0941867
-0.0094121
0.0946583
-0.00884945
0.0953213
-0.00884641
0.0961397
-0.00791746
0.0971657
-0.00758209
0.098315
-0.00626618
0.0995412
-0.00566357
0.100649
-0.00407539
0.101672
-0.00343345
0.102483
-0.001947
0.103109
-0.00148925
0.103599
-0.000342771
0.103932
-0.000140352
0.104262
0.00057883
0.104454
0.000546035
0.104591
0.000976847
0.00085968
0.104548
0.0905802
0.00521844
-0.0906902
0.0905287
0.0044053
0.0904867
0.00379386
0.0904952
0.00300696
0.0904849
0.00240333
0.0905227
0.00149566
0.0905598
0.000830576
0.0906313
-0.000235852
0.0907673
-0.000994366
0.0909144
-0.00206806
0.0910785
-0.00282501
0.0912451
-0.00396636
0.0914199
-0.00469427
0.0916544
-0.0057652
0.0918307
-0.00634026
0.0920568
-0.00736223
0.0922278
-0.0077436
0.0924566
-0.00859684
0.0926319
-0.00872324
0.0929124
-0.0094686
0.0932348
-0.00941709
0.0936554
-0.00990886
0.0940405
-0.00956024
0.0944866
-0.00985823
0.0949346
-0.00929741
0.0955314
-0.00944323
0.0962414
-0.00862746
0.09715
-0.00849069
0.0982103
-0.00732643
0.0993808
-0.00683412
0.100647
-0.00534148
0.101836
-0.00462229
0.102929
-0.00304053
0.103829
-0.00238868
0.104603
-0.0011172
0.105155
-0.000691864
0.105587
0.000146319
0.105834
0.000298826
0.10608
0.000731702
0.000767146
0.106172
0.0904881
0.00528097
-0.0905506
0.0904563
0.0044371
0.0904256
0.00382447
0.0904266
0.00300599
0.0904477
0.00238221
0.0905003
0.00144306
0.0905884
0.00074252
0.0906602
-0.000307684
0.0907809
-0.00111505
0.0909316
-0.00221879
0.0911067
-0.00300006
0.0912889
-0.00414861
0.0914702
-0.00487551
0.0916861
-0.0059811
0.0918624
-0.00651663
0.0920691
-0.00756886
0.0922519
-0.00792647
0.0925024
-0.00884735
0.092748
-0.00896876
0.0929902
-0.00971086
0.0932755
-0.00970234
0.0936583
-0.0102917
0.0941036
-0.0100055
0.0946665
-0.0104211
0.0952332
-0.00986414
0.095861
-0.0100711
0.0965696
-0.00933608
0.0973438
-0.00926486
0.0982531
-0.00823578
0.0993175
-0.00789852
0.100565
-0.00658863
0.101924
-0.00598141
0.103362
-0.0044786
0.104635
-0.00366184
0.105822
-0.00230443
0.106722
-0.0015913
0.107452
-0.000583501
0.107888
-0.000137619
0.108219
0.000401051
0.000654234
0.108332
0.0909767
0.00537762
-0.0910734
0.0909526
0.00446127
0.0909362
0.0038408
0.0909224
0.00301985
0.0909619
0.00234271
0.0909861
0.00141886
0.0910737
0.000654955
0.0911854
-0.000419461
0.0913005
-0.00123011
0.0914447
-0.00236299
0.0915787
-0.00313405
0.0917343
-0.0043042
0.091884
-0.00502528
0.0920919
-0.00618894
0.0922609
-0.00668563
0.0924354
-0.00774335
0.0925943
-0.00808536
0.0927897
-0.00904274
0.0930035
-0.00918263
0.0932744
-0.00998171
0.0935003
-0.00992827
0.0938135
-0.0106049
0.0941761
-0.0103681
0.0946552
-0.0109003
0.0952657
-0.0104747
0.0959844
-0.0107897
0.0967947
-0.0101464
0.0976856
-0.0101558
0.0986793
-0.00922953
0.0997397
-0.00895894
0.100903
-0.00775148
0.102117
-0.00719572
0.103468
-0.00583016
0.104868
-0.00506107
0.106298
-0.00373447
0.107588
-0.00288165
0.108727
-0.00172283
0.109612
-0.00102242
0.110247
-0.000233409
0.000366976
0.110534
0.0908449
0.00542025
-0.0908875
0.0908296
0.00447663
0.090845
0.00382533
0.0908545
0.00301038
0.0909127
0.00228453
0.0909703
0.0013612
0.0910577
0.000567562
0.0911794
-0.000541162
0.0912993
-0.00135002
0.0914659
-0.00252957
0.0916041
-0.00327223
0.0917921
-0.00449218
0.0919292
-0.00516239
0.0921045
-0.00636428
0.0922775
-0.00685856
0.0924435
-0.00790932
0.0925915
-0.00823343
0.0927861
-0.00923729
0.0929763
-0.00937284
0.0932166
-0.010222
0.0934815
-0.0101932
0.0938057
-0.010929
0.0941875
-0.0107499
0.094605
-0.0113178
0.095173
-0.0110426
0.0958446
-0.0114613
0.0967535
-0.0110553
0.0977708
-0.0111731
0.0989498
-0.0104085
0.100145
-0.0101537
0.101464
-0.00907105
0.102742
-0.00847351
0.10413
-0.0072182
0.1055
-0.00643154
0.106948
-0.00518198
0.108347
-0.00428103
0.109797
-0.00317285
0.111014
-0.00223875
0.112173
-0.00139307
-0.000280953
0.112821
0.0915121
0.00544875
-0.0915406
0.0914721
0.0045166
0.0914859
0.0038115
0.0915114
0.00298491
0.0915521
0.00224382
0.091628
0.00128531
0.0917131
0.000482429
0.0918355
-0.000663581
0.0919284
-0.00144291
0.0920843
-0.0026854
0.0922115
-0.00339943
0.0923642
-0.0046449
0.0924807
-0.00527892
0.0926226
-0.00650614
0.0927357
-0.00697173
0.0928845
-0.00805807
0.0930001
-0.00834901
0.0931328
-0.00936998
0.093303
-0.00954313
0.0934801
-0.0103991
0.0937097
-0.0104228
0.0939438
-0.0111632
0.0943297
-0.0111358
0.094734
-0.0117221
0.0953121
-0.0116208
0.0959033
-0.0120524
0.0967145
-0.0118666
0.0976257
-0.0120843
0.0988491
-0.0116318
0.100174
-0.0114782
0.101761
-0.010658
0.103351
-0.0100638
0.10505
-0.00891748
0.106567
-0.00794863
0.108158
-0.00677311
0.109519
-0.00564172
0.110983
-0.00463655
0.112256
-0.00351175
0.113611
-0.0027487
-0.00131458
0.114645
0.0912593
0.00545528
-0.0912658
0.0912865
0.0044894
0.0913058
0.00379213
0.0913724
0.00291835
0.0914289
0.00218733
0.0915487
0.00116547
0.0916391
0.000392015
0.0917836
-0.000808031
0.0919199
-0.00157923
0.0920745
-0.00284005
0.0922083
-0.00353314
0.0923577
-0.0047944
0.0924961
-0.00541729
0.0926042
-0.00661421
0.0927345
-0.00710206
0.092842
-0.00816555
0.0930033
-0.00851037
0.0930708
-0.00943746
0.0932525
-0.00972477
0.0933509
-0.0104975
0.0936045
-0.0106765
0.0937559
-0.0113145
0.0941172
-0.0114971
0.0944438
-0.0120486
0.0950392
-0.0122162
0.0956156
-0.0126288
0.0965007
-0.0127516
0.0973535
-0.0129371
0.0985995
-0.0128778
0.0998264
-0.0127051
0.101507
-0.0123388
0.103137
-0.011694
0.105193
-0.0109727
0.107103
-0.00985931
0.109187
-0.00885658
0.111003
-0.00745781
0.112801
-0.0064344
0.114344
-0.00505467
0.115784
-0.00418906
-0.00254707
0.117017
0.0921034
0.00547781
-0.0921259
0.0921107
0.00448205
0.0921325
0.00377036
0.0922086
0.00284222
0.0922747
0.00212127
0.092396
0.00104419
0.0924893
0.000298666
0.0926125
-0.000931247
0.0927463
-0.00171294
0.0928534
-0.00294717
0.0929995
-0.00367931
0.0930781
-0.00487292
0.09321
-0.00554917
0.0932403
-0.00664453
0.0933801
-0.00724188
0.0933804
-0.00816589
0.093545
-0.00867497
0.0935252
-0.00941764
0.0936665
-0.009866
0.0936443
-0.0104753
0.0938642
-0.0108963
0.0939437
-0.011394
0.0942487
-0.0118021
0.0944331
-0.012233
0.0949368
-0.01272
0.09533
-0.0130221
0.0961418
-0.0135634
0.0968572
-0.0136525
0.0981343
-0.0141549
0.0992892
-0.01386
0.101018
-0.0140681
0.102693
-0.013369
0.104839
-0.0131184
0.106984
-0.0120043
0.10943
-0.0113022
0.11179
-0.00981828
0.114218
-0.00886244
0.116372
-0.0072079
0.118449
-0.00626659
-0.00413049
0.120032
0.0917734
0.00547406
-0.0917696
0.0918244
0.00443106
0.091885
0.00370971
0.0919979
0.00272933
0.0921237
0.0019955
0.0922393
0.00092856
0.0924093
0.000128697
0.0925028
-0.0010247
0.0927095
-0.00191972
0.0927843
-0.00302197
0.0930026
-0.0038976
0.0930514
-0.00492175
0.093268
-0.00576569
0.0932251
-0.00660165
0.0934139
-0.0074307
0.0933141
-0.00806605
0.0935138
-0.0088747
0.0933753
-0.00927915
0.0935524
-0.0100431
0.0934612
-0.0103841
0.0936526
-0.0110877
0.0936094
-0.0113508
0.0938725
-0.0120652
0.0939275
-0.012288
0.0943156
-0.013108
0.0946061
-0.0133126
0.0952717
-0.0142289
0.0958798
-0.0142606
0.0969133
-0.0151884
0.0980428
-0.0149896
0.0996817
-0.015707
0.101491
-0.0151781
0.103811
-0.0154383
0.10622
-0.014414
0.109018
-0.0140994
0.111777
-0.012578
0.114766
-0.011851
0.117534
-0.00997643
0.120318
-0.00905049
-0.00636236
0.12255
0.0930184
0.00544839
-0.0929927
0.0930991
0.00435032
0.0931672
0.00364162
0.0932449
0.00265167
0.0933388
0.00190159
0.0934031
0.000864211
0.093615
-8.3216e-05
0.0936764
-0.00108609
0.0938487
-0.00209196
0.0938842
-0.00305751
0.0940625
-0.00407589
0.0940708
-0.00493007
0.0942276
-0.00592249
0.0941735
-0.00654752
0.0943054
-0.00756265
0.0941648
-0.00792546
0.0942367
-0.00894654
0.0940837
-0.00912618
0.0940942
-0.0100536
0.0939266
-0.0102166
0.0939332
-0.0110944
0.0938423
-0.0112599
0.0938809
-0.0121039
0.0938934
-0.0123005
0.094013
-0.0132276
0.0942032
-0.0135028
0.0945116
-0.0145373
0.0950371
-0.0147861
0.0957522
-0.0159036
0.0967389
-0.0159762
0.0981017
-0.0170697
0.0997312
-0.0168076
0.101971
-0.0176782
0.104507
-0.0169494
0.107686
-0.0172791
0.111003
-0.0158945
0.114673
-0.0155214
0.11827
-0.0135731
0.121887
-0.0126678
-0.00937962
0.124904
0.0926014
0.00524313
-0.0923961
0.0927103
0.00424144
0.0929557
0.00339623
0.0930752
0.00253213
0.0933573
0.00161946
0.09345
0.000771569
0.0936852
-0.000318451
0.0937502
-0.00115103
0.0940139
-0.0023557
0.0940539
-0.00309756
0.094261
-0.00428299
0.0942307
-0.00489975
0.0943621
-0.00605384
0.0942992
-0.0064847
0.0942997
-0.00756316
0.0942251
-0.00785087
0.094125
-0.00884635
0.0940405
-0.00904169
0.0939125
-0.00992559
0.0937956
-0.0100997
0.0936086
-0.0109074
0.093471
-0.0111222
0.0932958
-0.0119286
0.0932116
-0.0122163
0.0930908
-0.0131068
0.0931428
-0.0135548
0.0931797
-0.0145742
0.0934706
-0.0150771
0.0938555
-0.0162885
0.0945578
-0.0166785
0.0955358
-0.0180478
0.0969252
-0.018197
0.0987873
-0.0195404
0.101125
-0.0192872
0.104203
-0.020357
0.107803
-0.0194941
0.112158
-0.0198763
0.116806
-0.018221
0.121938
-0.0178005
-0.0141894
0.126748
0.0943211
0.00513368
-0.0942117
0.0943356
0.00422695
0.0945203
0.00321154
0.0945788
0.00247362
0.0948439
0.00135438
0.0950081
0.000607379
0.0952774
-0.000587811
0.0953863
-0.00125984
0.0955303
-0.00249974
0.0956065
-0.00317375
0.0957501
-0.00442657
0.0957677
-0.00491735
0.0957619
-0.00604807
0.0957149
-0.00643765
0.0955817
-0.00743002
0.09547
-0.00773913
0.0952284
-0.00860474
0.0950436
-0.00885692
0.0947643
-0.00964631
0.0945371
-0.0098725
0.0942341
-0.0106044
0.0939882
-0.0108764
0.0936622
-0.0116026
0.0934329
-0.011987
0.0931209
-0.0127948
0.0928948
-0.0133288
0.0925838
-0.0142632
0.092463
-0.0149562
0.0922987
-0.0161242
0.0924756
-0.0168553
0.0927295
-0.0183017
0.0934965
-0.018964
0.0946032
-0.0206471
0.0963619
-0.0210459
0.098794
-0.022789
0.101976
-0.0226758
0.106203
-0.0241033
0.111221
-0.0232396
0.117504
-0.0240831
-0.0213659
0.12468
0.0942949
0.00472124
-0.0938825
0.094652
0.00386993
0.0950385
0.00282495
0.0953846
0.00212755
0.095615
0.00112401
0.0958221
0.00040031
0.0959304
-0.000696123
0.0961797
-0.0015092
0.0962723
-0.00259228
0.0964228
-0.00332426
0.0963189
-0.00432272
0.0963723
-0.00497074
0.09616
-0.00583571
0.0961444
-0.00642206
0.0958474
-0.00713303
0.0957461
-0.00763785
0.095377
-0.00823565
0.095186
-0.0086659
0.0947508
-0.00921115
0.0944723
-0.00959399
0.0940125
-0.0101446
0.0937015
-0.0105654
0.093263
-0.0111641
0.0929366
-0.0116606
0.0924841
-0.0123424
0.0920811
-0.0129257
0.0915084
-0.0136905
0.0910238
-0.0144716
0.0903408
-0.0154412
0.0898516
-0.0163661
0.0892165
-0.0176666
0.0889329