/*--------------------------------*- C++ -*----------------------------------*\
  =========                 |
  \\      /  F ield         | OpenFOAM: The Open Source CFD Toolbox
   \\    /   O peration     | Website:  https://openfoam.org
    \\  /    A nd           | Version:  11
     \\/     M anipulation  |
\*---------------------------------------------------------------------------*/
FoamFile
{
    format      ascii;
    class       volScalarField;
    location    "3.5";
    object      mag(U);
}
// * * * * * * * * * * * * * * * * * * * * * * * * * * * * * * * * * * * * * //

dimensions      [0 1 -1 0 0 0 0];

internalField   nonuniform List<scalar> 
9600
(
0.993946
0.993866
0.993918
0.993121
0.992624
0.992813
0.993653
0.995597
0.996098
0.983481
0.952778
0.934765
0.931714
0.937801
0.956647
0.978324
0.997116
1.0133
1.02723
1.0386
1.04792
1.05566
1.0615
1.06505
1.06715
1.06642
1.06462
1.06159
1.05775
1.05259
1.04659
1.04085
1.03495
1.02974
1.02459
1.01995
1.01557
1.01162
1.00808
1.00463
0.994783
0.995083
0.995192
0.995603
0.99623
0.99656
0.996768
0.997003
0.998033
1.00117
1.00359
1.00408
1.00353
1.00444
1.00874
1.0176
1.02453
1.03034
1.03588
1.04121
1.04626
1.05073
1.05442
1.05627
1.05645
1.05546
1.05392
1.04961
1.04676
1.04059
1.03609
1.02919
1.02414
1.01832
1.01258
1.00775
1.0037
0.999094
0.997403
0.992321
0.994868
0.99513
0.995383
0.995746
0.996108
0.996661
0.997945
1.00035
1.00297
1.00322
1.00167
0.994372
0.986554
0.987773
0.993726
1.00334
1.01534
1.02695
1.03819
1.04706
1.05554
1.06196
1.06841
1.07121
1.07467
1.07442
1.07425
1.07078
1.06819
1.06228
1.05778
1.05154
1.04619
1.04125
1.0359
1.03182
1.02853
1.02373
1.02116
1.0153
0.994903
0.995185
0.995456
0.995817
0.996397
0.997311
0.998613
1.00024
1.00394
1.00699
1.00839
1.01203
1.01927
1.02683
1.03283
1.03814
1.04283
1.04586
1.0478
1.04954
1.05167
1.05448
1.05768
1.0591
1.05909
1.05812
1.05661
1.05343
1.04963
1.0445
1.04049
1.03421
1.02886
1.02377
1.01715
1.01242
1.00774
1.00295
1.00068
0.997657
0.994921
0.995215
0.99549
0.995914
0.996785
0.997787
0.99885
1.0003
1.00502
1.01255
1.0178
1.01944
1.01761
1.01452
1.01278
1.01476
1.02111
1.02923
1.0388
1.04699
1.0548
1.06081
1.06674
1.06988
1.07281
1.07347
1.07368
1.07136
1.0685
1.06349
1.05925
1.05259
1.0484
1.04223
1.03814
1.03338
1.03059
1.02533
1.02258
1.01633
0.994828
0.995182
0.995563
0.996228
0.996965
0.997787
0.999282
1.00264
1.00812
1.01185
1.01555
1.02079
1.02707
1.0336
1.04043
1.04656
1.05178
1.05485
1.05701
1.05881
1.0596
1.0609
1.06293
1.06386
1.06429
1.06248
1.06021
1.0571
1.05387
1.04895
1.04485
1.03908
1.03389
1.02877
1.02209
1.01729
1.0121
1.00727
1.00475
1.00105
0.994957
0.995313
0.995684
0.996483
0.997349
0.99825
0.999959
1.0033
1.00942
1.01429
1.0184
1.02386
1.02852
1.03051
1.02981
1.02887
1.03033
1.0345
1.04091
1.04801
1.05493
1.06083
1.06609
1.06983
1.07224
1.07323
1.07379
1.07251
1.06968
1.06529
1.06094
1.05472
1.05042
1.04399
1.04035
1.03518
1.03248
1.02707
1.02425
1.01772
0.99485
0.995342
0.995994
0.996876
0.997668
0.998705
1.00102
1.00493
1.00992
1.01489
1.01916
1.02411
1.02851
1.03416
1.04122
1.04833
1.05526
1.05976
1.06249
1.06477
1.06669
1.06749
1.069
1.06943
1.07036
1.06881
1.0656
1.06146
1.05834
1.054
1.04974
1.04417
1.03937
1.03357
1.02753
1.02242
1.01662
1.01202
1.00915
1.00484
0.995063
0.995754
0.996404
0.997206
0.997965
0.99926
1.00148
1.00546
1.0107
1.0156
1.0201
1.02505
1.0302
1.03493
1.0391
1.04154
1.04322
1.04494
1.04801
1.05182
1.05693
1.06227
1.06695
1.07054
1.07245
1.07406
1.07484
1.07444
1.07168
1.06805
1.06323
1.05748
1.05277
1.04632
1.0427
1.0374
1.03441
1.02881
1.02597
1.01915
0.995068
0.995761
0.99642
0.997352
0.998086
0.999456
1.00227
1.00593
1.01126
1.01639
1.02044
1.02514
1.02976
1.03439
1.04053
1.04763
1.05496
1.06129
1.06562
1.06828
1.07112
1.07326
1.07506
1.07547
1.07635
1.07585
1.07284
1.06815
1.064
1.05966
1.05517
1.05006
1.04475
1.03857
1.03343
1.0274
1.02138
1.01675
1.01366
1.00876
0.995279
0.995971
0.996676
0.997563
0.998571
1.00005
1.00222
1.00671
1.01255
1.01726
1.02115
1.02515
1.03015
1.0351
1.0411
1.04638
1.05116
1.05408
1.05679
1.05943
1.06245
1.06597
1.06976
1.07314
1.07466
1.07585
1.07657
1.07693
1.07451
1.07164
1.06668
1.06132
1.05606
1.04955
1.0456
1.03997
1.03653
1.03075
1.02782
1.02111
0.994976
0.995861
0.996564
0.997631
0.998812
1.00029
1.00284
1.00743
1.01301
1.018
1.0221
1.02558
1.02948
1.03379
1.03938
1.04636
1.0539
1.06078
1.06729
1.0714
1.07493
1.07761
1.08035
1.08143
1.08264
1.08274
1.08088
1.07623
1.07141
1.06684
1.06174
1.05668
1.05127
1.04481
1.03956
1.03266
1.02696
1.02158
1.01827
1.01262
0.995201
0.996183
0.996921
0.998003
0.999271
1.00116
1.0039
1.00823
1.01361
1.01816
1.02162
1.02526
1.02911
1.03309
1.03896
1.04575
1.05302
1.05937
1.06409
1.06799
1.07072
1.07288
1.07568
1.07832
1.07955
1.08001
1.07995
1.08064
1.07865
1.07604
1.07139
1.06621
1.0606
1.05405
1.04943
1.04333
1.0396
1.03328
1.03006
1.02358
0.99467
0.995949
0.996938
0.997943
0.999396
1.00134
1.00433
1.00853
1.01346
1.01773
1.02167
1.02505
1.02825
1.03213
1.03729
1.04383
1.05221
1.05966
1.0676
1.07372
1.07869
1.08218
1.08563
1.08768
1.08923
1.08964
1.08878
1.0853
1.08042
1.0754
1.06995
1.06382
1.0591
1.05192
1.04664
1.03902
1.033
1.02709
1.02322
1.01704
0.994968
0.996501
0.997898
0.998901
1.00038
1.00212
1.00526
1.00933
1.01356
1.01778
1.02146
1.02489
1.0286
1.0317
1.03622
1.04258
1.05091
1.05994
1.06759
1.07391
1.07896
1.08195
1.08447
1.08661
1.08749
1.08739
1.08609
1.08582
1.08409
1.08186
1.07763
1.07214
1.06678
1.05979
1.0547
1.0478
1.04398
1.03685
1.03293
1.02652
0.994362
0.99584
0.997422
0.998568
1.0001
1.00178
1.00504
1.00898
1.01292
1.0169
1.02099
1.02495
1.02863
1.03198
1.03639
1.0417
1.04991
1.05834
1.06747
1.07593
1.08277
1.08785
1.09188
1.09475
1.09664
1.09737
1.09709
1.09463
1.09066
1.08511
1.08022
1.0728
1.06762
1.06071
1.05469
1.04736
1.0403
1.03371
1.0289
1.02224
0.994871
0.996262
0.998271
0.999861
1.00119
1.00262
1.00538
1.00939
1.01282
1.01673
1.0213
1.02493
1.02952
1.03334
1.03728
1.04209
1.04881
1.05768
1.06722
1.07605
1.08411
1.09004
1.09345
1.09635
1.09715
1.09766
1.09586
1.09438
1.09206
1.0895
1.08607
1.08008
1.07487
1.0674
1.06188
1.05444
1.04977
1.04263
1.03724
1.03042
0.993907
0.995087
0.997154
0.998791
1.00006
1.0018
1.00438
1.00823
1.01216
1.016
1.02023
1.02441
1.02957
1.03421
1.03915
1.04308
1.04925
1.05686
1.0654
1.07483
1.08367
1.09164
1.09751
1.1022
1.10426
1.10622
1.1059
1.1048
1.10138
1.09628
1.0915
1.08444
1.07824
1.07115
1.06437
1.05701
1.04961
1.04195
1.03608
1.02882
0.994726
0.995866
0.997505
0.999302
1.00071
1.00291
1.00494
1.00812
1.01234
1.016
1.02056
1.02463
1.03001
1.0354
1.04092
1.04583
1.05095
1.05706
1.06522
1.07417
1.08299
1.09249
1.09906
1.10557
1.10792
1.11012
1.10848
1.10723
1.10357
1.10036
1.09604
1.09087
1.08518
1.07799
1.07104
1.06347
1.05716
1.05013
1.04397
1.03643
0.993422
0.994523
0.995456
0.996997
0.998636
1.00099
1.00337
1.00614
1.01052
1.01509
1.01997
1.02417
1.02973
1.03526
1.04209
1.04794
1.05353
1.05978
1.06619
1.07433
1.08245
1.09192
1.09964
1.10808
1.11235
1.11666
1.11729
1.11738
1.11453
1.11057
1.10492
1.09875
1.09162
1.08427
1.07635
1.0688
1.0607
1.0523
1.04581
1.03741
0.993842
0.995359
0.995764
0.997033
0.998793
1.00154
1.00461
1.00692
1.01098
1.01531
1.0206
1.02477
1.03002
1.03617
1.04318
1.05015
1.05691
1.06351
1.06913
1.07664
1.08295
1.09256
1.10013
1.10996
1.11577
1.12167
1.12271
1.12353
1.12003
1.11731
1.11143
1.10674
1.09943
1.09248
1.08455
1.07636
1.06828
1.06058
1.0538
1.04461
0.991106
0.993002
0.993618
0.994519
0.996096
0.998624
1.00223
1.00485
1.00848
1.01278
1.01883
1.02409
1.02999
1.03639
1.04367
1.05165
1.05845
1.06697
1.07311
1.08059
1.08598
1.09455
1.10089
1.11063
1.11735
1.12481
1.12835
1.13141
1.13043
1.12835
1.1231
1.11747
1.10961
1.10163
1.09339
1.08425
1.07654
1.06592
1.05931
1.04872
0.991062
0.992912
0.994138
0.995151
0.996879
0.998938
1.0026
1.00596
1.00993
1.01424
1.01995
1.02598
1.03192
1.03854
1.04531
1.05352
1.06035
1.07013
1.077
1.08618
1.09112
1.09895
1.10424
1.11293
1.11917
1.12751
1.13226
1.13735
1.13738
1.13718
1.13242
1.12775
1.12053
1.11263
1.10386
1.09449
1.08583
1.07564
1.06888
1.05714
0.987783
0.989367
0.99076
0.992158
0.993921
0.995806
0.999072
1.00271
1.0073
1.01206
1.01793
1.02434
1.0303
1.03853
1.04508
1.05492
1.06167
1.07218
1.07966
1.09026
1.09643
1.10535
1.11059
1.11802
1.12327
1.1307
1.13496
1.14083
1.14341
1.14528
1.14358
1.13954
1.13399
1.12526
1.11751
1.10574
1.09818
1.08562
1.07897
1.06533
0.988031
0.989678
0.990882
0.992211
0.994723
0.99675
1.00013
1.00381
1.00838
1.01389
1.01949
1.02734
1.03249
1.04161
1.04819
1.05921
1.06537
1.07605
1.08313
1.09409
1.10128
1.11114
1.11761
1.12607
1.1307
1.13718
1.14073
1.14598
1.14901
1.1515
1.15205
1.14983
1.14609
1.13903
1.13204
1.12076
1.11245
1.09838
1.0921
1.0767
0.983712
0.985547
0.986865
0.987661
0.989999
0.992836
0.996235
1.00068
1.00461
1.01124
1.0159
1.02565
1.0309
1.04087
1.04732
1.05951
1.06683
1.07795
1.085
1.09737
1.10501
1.1159
1.12252
1.13314
1.13906
1.14739
1.15084
1.15531
1.15681
1.15898
1.1599
1.15908
1.15769
1.15162
1.14744
1.1362
1.12987
1.11475
1.1079
1.0907
0.983703
0.9856
0.98729
0.988454
0.990281
0.993639
0.996658
1.0027
1.0063
1.01377
1.01843
1.02805
1.03432
1.04483
1.05167
1.06368
1.07214
1.08423
1.09127
1.10261
1.1112
1.12283
1.13013
1.13909
1.14679
1.15499
1.16238
1.16693
1.17122
1.17106
1.17283
1.16954
1.16975
1.16331
1.16164
1.15084
1.14723
1.13262
1.12651
1.10786
0.977696
0.979796
0.98084
0.982918
0.984199
0.988469
0.990891
0.997569
1.00157
1.01022
1.01538
1.02536
1.03215
1.04392
1.05089
1.06337
1.0715
1.08564
1.0934
1.10553
1.11329
1.1264
1.13506
1.14565
1.15334
1.16158
1.16944
1.17677
1.1845
1.18662
1.1904
1.18656
1.18721
1.17931
1.17843
1.16706
1.1645
1.15016
1.14637
1.1273
0.977114
0.980409
0.980914
0.983636
0.985
0.989695
0.992886
0.999612
1.0043
1.0128
1.01916
1.02942
1.03704
1.04877
1.05753
1.06888
1.07868
1.09089
1.10199
1.11228
1.12287
1.13209
1.14412
1.15259
1.16401
1.1704
1.18067
1.18591
1.19636
1.19939
1.20816
1.20658
1.21066
1.20257
1.20267
1.18928
1.1877
1.17187
1.16827
1.14997
0.96758
0.971886
0.972435
0.975345
0.977187
0.981946
0.986081
0.993027
0.998973
1.00782
1.01521
1.02544
1.03493
1.04607
1.05689
1.06865
1.07936
1.09137
1.10301
1.11431
1.12525
1.13464
1.14599
1.155
1.168
1.17539
1.18811
1.19425
1.20678
1.21135
1.22191
1.22321
1.2317
1.22699
1.23087
1.21938
1.21747
1.2025
1.19804
1.17921
0.967653
0.971558
0.973578
0.975851
0.979429
0.98347
0.989748
0.995619
1.00511
1.0109
1.02367
1.03028
1.04415
1.05228
1.06669
1.0755
1.09035
1.09818
1.11379
1.12124
1.13677
1.14268
1.15721
1.16268
1.17824
1.18398
1.19911
1.20585
1.22013
1.22772
1.23975
1.24341
1.25436
1.25183
1.25897
1.25125
1.25298
1.23985
1.23712
1.21916
0.956446
0.959395
0.962876
0.964745
0.969527
0.973978
0.980967
0.988224
0.997399
1.00654
1.01791
1.02785
1.04072
1.05192
1.06539
1.07622
1.09069
1.09948
1.11474
1.12215
1.13788
1.14415
1.15904
1.16537
1.18073
1.18663
1.20418
1.20951
1.22865
1.23349
1.25395
1.25765
1.27623
1.27684
1.28959
1.28522
1.2904
1.28019
1.27981
1.26291
0.957865
0.959958
0.966188
0.966786
0.974409
0.977297
0.988157
0.993693
1.00681
1.0145
1.02883
1.03822
1.05297
1.0638
1.07857
1.08854
1.10407
1.11268
1.12744
1.13496
1.14927
1.1562
1.1699
1.1766
1.19063
1.19778
1.21387
1.22127
1.24131
1.24826
1.27161
1.27648
1.3015
1.30566
1.32725
1.32812
1.34302
1.33718
1.34365
1.32597
0.940418
0.945566
0.951475
0.955296
0.963344
0.968328
0.980307
0.986604
1.00217
1.0104
1.02717
1.03704
1.05437
1.06417
1.08142
1.09039
1.10676
1.11511
1.12971
1.13702
1.15051
1.15781
1.17066
1.1782
1.19114
1.19926
1.2139
1.22325
1.24141
1.25169
1.27524
1.28558
1.31502
1.32287
1.3549
1.36155
1.39046
1.39095
1.41412
1.40263
0.938187
0.94353
0.950921
0.956939
0.966255
0.975365
0.988582
1.00012
1.0158
1.02964
1.04481
1.06
1.07463
1.08905
1.10295
1.11624
1.12908
1.14027
1.1511
1.16092
1.16961
1.17757
1.18567
1.19276
1.20139
1.20912
1.22032
1.23012
1.24453
1.25612
1.27518
1.28896
1.31426
1.3299
1.3624
1.38158
1.41805
1.43623
1.47346
1.48515
0.918526
0.930668
0.938592
0.950098
0.958005
0.971507
0.982759
0.998907
1.01314
1.0321
1.04682
1.06617
1.08038
1.09797
1.11138
1.12544
1.13726
1.14827
1.15712
1.16583
1.17185
1.17852
1.18315
1.19027
1.19445
1.20338
1.20839
1.21883
1.22526
1.23884
1.24741
1.26486
1.27684
1.29906
1.31605
1.34532
1.36685
1.40558
1.42713
1.47678
0.911813
0.925152
0.937666
0.953541
0.971839
0.990452
1.01158
1.03104
1.05048
1.06928
1.0865
1.10462
1.11948
1.13645
1.14779
1.16243
1.17056
1.18117
1.18698
1.19308
1.1971
1.19995
1.20314
1.2046
1.20777
1.21005
1.21348
1.21635
1.21939
1.22333
1.23277
1.23472
1.24327
1.24387
1.25083
1.24835
1.24635
1.24507
1.21828
1.24137
0.911067
0.929283
0.949955
0.966399
0.985484
1.00412
1.02446
1.0467
1.06798
1.09127
1.11077
1.13232
1.14828
1.16662
1.17828
1.19205
1.19926
1.20764
1.21076
1.2139
1.21333
1.21247
1.20919
1.20688
1.20298
1.20155
1.19907
1.19683
1.19899
1.19824
1.19343
1.18195
1.15999
1.13154
1.09241
1.03061
0.971306
0.870737
0.730887
0.590092
0.927558
0.961134
0.997048
1.03133
1.0644
1.09652
1.12584
1.15502
1.18046
1.20553
1.22545
1.24482
1.25806
1.271
1.27728
1.28287
1.28135
1.27847
1.26849
1.25801
1.24284
1.22564
1.20424
1.18537
1.16107
1.14668
1.12368
1.11593
1.0938
1.07348
1.03804
0.968803
0.886244
0.747647
0.615876
0.491313
0.342288
0.223317
0.137782
0.0637617
1.06497
1.09841
1.13074
1.16313
1.19451
1.22349
1.24865
1.26935
1.28641
1.29445
1.306
1.30631
1.3137
1.30845
1.30792
1.29239
1.2799
1.25263
1.22734
1.18952
1.15114
1.1035
1.05268
0.996007
0.934065
0.872941
0.805757
0.751975
0.682934
0.639804
0.452148
0.0139809
0.0793555
0.150404
0.185036
0.21114
0.212723
0.219987
0.222406
0.231247
1.0029
1.00218
1.00128
0.99884
0.994212
0.99147
0.9892
0.985279
0.981562
0.980537
0.98188
0.984527
0.988098
0.991786
0.99464
0.997113
0.999788
1.00175
1.00285
1.00339
1.00383
1.00422
1.00492
1.00559
1.00613
1.00656
1.00694
1.00699
1.00695
1.0069
1.00682
1.00666
1.00661
1.00649
1.00637
1.00616
1.00585
1.00576
1.00552
1.00909
1.00381
1.00279
1.00121
0.998697
0.993927
0.99065
0.98757
0.983699
0.979741
0.978639
0.980399
0.983533
0.98762
0.991695
0.994711
0.997341
1.0002
1.00202
1.00286
1.00331
1.00382
1.00449
1.00539
1.00602
1.0065
1.00674
1.007
1.00714
1.00714
1.00709
1.00707
1.00695
1.00691
1.00676
1.00668
1.00646
1.0062
1.00581
1.00491
1.00392
1.00675
1.00398
1.00193
0.999484
0.994116
0.989712
0.986434
0.98258
0.977995
0.976577
0.978755
0.982431
0.987148
0.991532
0.994585
0.997329
1.00044
1.0021
1.00284
1.00316
1.00377
1.00463
1.00549
1.00617
1.00666
1.00693
1.00718
1.00738
1.00747
1.00748
1.00744
1.00732
1.00723
1.00705
1.00699
1.00674
1.00661
1.00644
1.00657
1.00887
1.00537
1.00427
1.00194
0.999465
0.994274
0.988779
0.984429
0.980548
0.975777
0.974105
0.976762
0.981157
0.986579
0.991277
0.994468
0.997453
1.00065
1.00189
1.00259
1.00292
1.00371
1.00477
1.00592
1.00663
1.00697
1.00726
1.00737
1.00743
1.00758
1.0077
1.00768
1.0076
1.00746
1.00729
1.00718
1.00692
1.00672
1.00638
1.00566
1.00418
1.00854
1.00568
1.00279
0.999981
0.994103
0.987663
0.982949
0.978905
0.973566
0.971418
0.974494
0.979745
0.986098
0.991149
0.994393
0.997526
1.00055
1.00155
1.00228
1.00287
1.00393
1.00507
1.00616
1.00683
1.00721
1.0076
1.00788
1.00784
1.00797
1.00804
1.008
1.00792
1.00776
1.0076
1.00747
1.00733
1.0072
1.00707
1.00714
1.00846
1.00729
1.00597
1.00285
0.999732
0.994323
0.986987
0.98054
0.975981
0.970748
0.968404
0.971753
0.977942
0.985488
0.991002
0.994413
0.997784
1.00042
1.0011
1.00186
1.00277
1.00404
1.0052
1.00634
1.00708
1.00747
1.00792
1.0082
1.0081
1.00829
1.00837
1.00838
1.00824
1.00804
1.00786
1.00762
1.00746
1.00732
1.00702
1.00646
1.00513
1.01036
1.0076
1.00365
0.999684
0.993767
0.986266
0.978821
0.973268
0.96769
0.965134
0.968582
0.975798
0.984934
0.991167
0.994627
0.997938
1.00014
1.00074
1.00161
1.00301
1.00449
1.00545
1.00639
1.00708
1.00757
1.00811
1.00835
1.00846
1.00867
1.00872
1.0088
1.00871
1.0085
1.00832
1.00806
1.00794
1.00779
1.00771
1.00771
1.00841
1.00932
1.00769
1.00358
0.999315
0.993997
0.98589
0.976321
0.969527
0.963762
0.961198
0.964657
0.973007
0.984189
0.991323
0.994779
0.997973
0.999872
1.00034
1.00152
1.00315
1.0047
1.00555
1.0065
1.00741
1.00807
1.00855
1.00857
1.00878
1.00909
1.00904
1.00911
1.00904
1.00886
1.00867
1.0083
1.00808
1.0079
1.00772
1.00729
1.00625
1.01218
1.00944
1.00476
0.999401
0.993212
0.98528
0.974729
0.966012
0.959593
0.956626
0.959826
0.969392
0.983385
0.992021
0.995415
0.998279
1.00001
1.00024
1.00175
1.0036
1.00507
1.00586
1.00675
1.00768
1.00837
1.00879
1.00891
1.00928
1.00953
1.00952
1.00956
1.00941
1.00923
1.00906
1.00878
1.00853
1.00834
1.00827
1.00828
1.00855
1.01134
1.00903
1.00504
0.999589
0.993354
0.984989
0.972874
0.962015
0.954641
0.950914
0.953535
0.964329
0.981862
0.992584
0.996072
0.998464
1.00028
1.00035
1.00207
1.00383
1.005
1.00592
1.00686
1.00812
1.00885
1.00926
1.00952
1.0099
1.00994
1.00988
1.00979
1.00962
1.00933
1.00916
1.00893
1.00867
1.00845
1.00827
1.00808
1.00737
1.01454
1.01103
1.00661
1.00005
0.99276
0.984156
0.971647
0.95857
0.949337
0.944125
0.945578
0.957726
0.980021
0.99388
0.997836
0.99949
1.00126
1.00097
1.00252
1.00415
1.00522
1.00637
1.00717
1.00856
1.00909
1.00944
1.00986
1.01024
1.01017
1.01008
1.01
1.00993
1.00977
1.00964
1.0095
1.0093
1.00903
1.00889
1.00879
1.00885
1.01358
1.01082
1.00665
1.00064
0.993211
0.983366
0.96991
0.955064
0.943693
0.936262
0.935365
0.948478
0.976828
0.994864
0.999701
1.00065
1.00251
1.00187
1.00282
1.00428
1.00512
1.00662
1.00728
1.00899
1.00945
1.00981
1.01021
1.01057
1.01055
1.01061
1.01054
1.01039
1.01015
1.00995
1.0098
1.00965
1.00927
1.00901
1.0087
1.00833
1.01725
1.01331
1.00869
1.00166
0.993229
0.98245
0.968855
0.952384
0.938015
0.927531
0.922945
0.936716
0.97306
0.996092
1.00245
1.00303
1.00422
1.00301
1.00313
1.00474
1.0055
1.00731
1.00753
1.00919
1.00951
1.01009
1.01068
1.01108
1.01112
1.01116
1.01112
1.01103
1.0109
1.01065
1.01039
1.01021
1.00994
1.00968
1.00933
1.00921
1.01677
1.01301
1.00882
1.0022
0.993842
0.982027
0.967426
0.949579
0.932742
0.918588
0.908292
0.921354
0.967704
0.997117
1.00431
1.00526
1.00567
1.00417
1.00357
1.00526
1.00577
1.00758
1.0077
1.00973
1.01011
1.01088
1.01137
1.01161
1.01175
1.01172
1.01165
1.01136
1.01125
1.01094
1.01072
1.01046
1.01018
1.00992
1.0095
1.00917
1.02078
1.01591
1.01129
1.00383
0.994605
0.981955
0.966077
0.947271
0.928401
0.909809
0.891858
0.902732
0.960918
0.998151
1.00623
1.00755
1.00729
1.00538
1.00433
1.00613
1.00638
1.00786
1.00806
1.01003
1.01022
1.01116
1.01172
1.01191
1.01225
1.0121
1.0122
1.0119
1.01194
1.0116
1.01146
1.01111
1.01086
1.01049
1.01031
1.01019
1.02097
1.01612
1.01203
1.00469
0.995552
0.982389
0.96444
0.945021
0.925455
0.902106
0.874287
0.88012
0.951043
0.998091
1.00719
1.00884
1.00831
1.00645
1.00525
1.00678
1.00661
1.00789
1.00847
1.01046
1.01068
1.01188
1.01234
1.01226
1.01267
1.01241
1.0126
1.01236
1.01253
1.01215
1.0122
1.01165
1.01148
1.01084
1.01058
1.01044
1.02513
1.02025
1.01599
1.00723
0.997444
0.983625
0.963062
0.943091
0.923663
0.896037
0.856818
0.854649
0.936783
0.996199
1.00783
1.0099
1.00901
1.00738
1.00632
1.00752
1.00735
1.00842
1.00907
1.01075
1.01104
1.0123
1.01286
1.01281
1.01329
1.01303
1.01331
1.01304
1.01341
1.01275
1.01294
1.01225
1.01226
1.01164
1.01137
1.01124
1.02658
1.02154
1.01718
1.00852
0.999141
0.985411
0.962474
0.941723
0.923126
0.892389
0.840837
0.826179
0.91636
0.990847
1.00669
1.00954
1.00924
1.00764
1.00702
1.00795
1.00801
1.00903
1.00967
1.01125
1.01181
1.0129
1.01337
1.01348
1.01387
1.01362
1.01388
1.01342
1.01388
1.01313
1.01338
1.01253
1.01258
1.012
1.01173
1.01173
1.03152
1.02654
1.02164
1.01248
1.00259
0.988353
0.963332
0.941407
0.923714
0.891085
0.827685
0.796078
0.888367
0.981297
1.00393
1.00864
1.00869
1.00749
1.00745
1.00861
1.00867
1.00969
1.01024
1.01155
1.01248
1.01342
1.01394
1.01437
1.01464
1.01441
1.01467
1.01409
1.01446
1.01367
1.01401
1.01324
1.01329
1.01263
1.01243
1.01239
1.03432
1.03012
1.02386
1.01515
1.00561
0.991446
0.965918
0.942578
0.925472
0.892102
0.818446
0.765352
0.852038
0.965764
0.998095
1.00574
1.00689
1.00652
1.00694
1.00851
1.00882
1.01017
1.01094
1.01222
1.01336
1.01423
1.01461
1.01512
1.01538
1.01538
1.01564
1.0153
1.0156
1.01478
1.01486
1.01405
1.01405
1.01323
1.01321
1.01304
1.04046
1.03713
1.02991
1.02183
1.01283
0.997084
0.97065
0.946693
0.929573
0.894575
0.812791
0.735056
0.80767
0.943023
0.988637
1.00054
1.00362
1.00479
1.00591
1.0082
1.00896
1.0105
1.01153
1.01277
1.01402
1.01486
1.01536
1.01595
1.01621
1.01637
1.01657
1.01656
1.01671
1.01612
1.01597
1.01515
1.01507
1.01418
1.01417
1.01389
1.04513
1.04337
1.03499
1.02787
1.02052
1.00353
0.977303
0.95429
0.936575
0.897714
0.808701
0.705502
0.756025
0.911096
0.974111
0.992076
0.997961
1.00207
1.0035
1.00739
1.00889
1.01093
1.01232
1.01368
1.01497
1.01547
1.01603
1.01644
1.0167
1.01715
1.01715
1.01744
1.01722
1.01696
1.01683
1.01608
1.01607
1.01518
1.01518
1.01488
1.05398
1.05202
1.04254
1.0371
1.03227
1.01312
0.986837
0.965734
0.947285
0.901319
0.803298
0.676664
0.698544
0.868458
0.953649
0.979861
0.989744
0.997912
1.00037
1.00621
1.00852
1.01114
1.0129
1.01453
1.01604
1.01628
1.01712
1.0173
1.01726
1.01786
1.01744
1.01831
1.01786
1.01801
1.01776
1.01727
1.01716
1.01626
1.01624
1.01594
1.06276
1.06191
1.05093
1.04672
1.04382
1.02335
0.998785
0.980611
0.959576
0.903717
0.793504
0.646699
0.636986
0.812712
0.925455
0.962566
0.977957
0.990929
0.995797
1.00374
1.00699
1.01074
1.01336
1.01531
1.01751
1.01808
1.0193
1.01944
1.01922
1.01993
1.01916
1.02018
1.01945
1.01974
1.01888
1.01862
1.01801
1.01737
1.01711
1.01698
1.07586
1.07553
1.0641
1.06421
1.06216
1.04074
1.01754
1.00135
0.973346
0.901976
0.77738
0.612885
0.574199
0.74601
0.889259
0.939717
0.961842
0.980304
0.989063
0.999338
1.00373
1.00911
1.01293
1.01565
1.01857
1.01973
1.02115
1.02193
1.02154
1.02271
1.02173
1.02252
1.02113
1.0212
1.01996
1.01988
1.01876
1.01864
1.01795
1.01822
1.09072
1.09036
1.08048
1.08545
1.08107
1.06235
1.04338
1.02671
0.986438
0.892067
0.749431
0.570096
0.504932
0.6734
0.844848
0.910487
0.941156
0.96705
0.979389
0.993087
0.999055
1.00622
1.01091
1.0146
1.01802
1.01999
1.02175
1.02346
1.0228
1.02426
1.02299
1.02367
1.02228
1.02256
1.02137
1.02166
1.02022
1.02044
1.01937
1.01991
1.11002
1.10621
1.09907
1.10944
1.10276
1.08977
1.07735
1.05337
0.9931
0.869382
0.704979
0.513614
0.430459
0.594366
0.792092
0.874427
0.916449
0.951218
0.967906
0.985787
0.993911
1.00244
1.00795
1.01268
1.01646
1.01959
1.02117
1.02354
1.02309
1.025
1.0242
1.02532
1.02443
1.02517
1.02405
1.02449
1.02277
1.02306
1.02172
1.02221
1.13027
1.12298
1.1249
1.13785
1.12785
1.12285
1.11386
1.07386
0.982189
0.828395
0.638398
0.437749
0.350016
0.513298
0.732856
0.83149
0.886498
0.931931
0.954828
0.977575
0.988832
0.999873
1.00697
1.013
1.01672
1.02085
1.02169
1.02526
1.02508
1.02752
1.02731
1.02828
1.02783
1.0283
1.02722
1.02738
1.02564
1.02585
1.02444
1.02497
1.15419
1.1484
1.16232
1.1741
1.16905
1.17889
1.15629
1.08292
0.948672
0.758509
0.544639
0.340112
0.263952
0.439291
0.670639
0.782968
0.852133
0.907938
0.939069
0.966662
0.982381
0.997419
1.00558
1.01367
1.01741
1.02288
1.0236
1.028
1.02784
1.03021
1.03027
1.03077
1.03084
1.03061
1.02987
1.02966
1.02829
1.02835
1.02705
1.02765
1.18395
1.18635
1.21191
1.22048
1.22993
1.23735
1.17745
1.06533
0.881331
0.651247
0.417531
0.221491
0.189099
0.380753
0.609875
0.731704
0.816664
0.879369
0.921024
0.953152
0.973723
0.993024
1.00167
1.01301
1.01642
1.02372
1.02451
1.0294
1.02972
1.03168
1.03282
1.03247
1.03346
1.03241
1.03259
1.03186
1.03102
1.03077
1.02951
1.03041
1.22291
1.23706
1.26755
1.27524
1.29864
1.26382
1.17605
1.00715
0.767073
0.497528
0.250652
0.116526
0.169877
0.345206
0.561602
0.682647
0.78298
0.851072
0.901365
0.937802
0.963345
0.986072
0.996512
1.01138
1.01493
1.02457
1.02572
1.03119
1.03253
1.03354
1.03609
1.03446
1.03703
1.03486
1.03647
1.03479
1.03486
1.03393
1.03307
1.03381
1.27246
1.29921
1.32193
1.34419
1.34069
1.27372
1.13379
0.893994
0.58833
0.286691
0.0682944
0.188065
0.249935
0.356569
0.524863
0.645842
0.754005
0.826855
0.885148
0.924385
0.955537
0.98051
0.993196
1.01097
1.0147
1.02714
1.02862
1.03467
1.03682
1.03751
1.04098
1.03878
1.04228
1.03934
1.04216
1.03916
1.04024
1.03803
1.0376
1.03833
1.34492
1.3741
1.39854
1.41138
1.3662
1.25424
1.01236
0.678155
0.315945
0.0345418
0.27372
0.378563
0.374256
0.382615
0.515655
0.625731
0.73551
0.808718
0.875851
0.914119
0.952079
0.976407
0.992221
1.01232
1.01611
1.03191
1.03328
1.04105
1.04415
1.04502
1.04922
1.04736
1.05087
1.04789
1.05078
1.04689
1.04817
1.04518
1.04584
1.04626
1.43987
1.46744
1.48073
1.446
1.34356
1.11364
0.746393
0.326991
0.0973039
0.374038
0.520206
0.555494
0.493011
0.476921
0.535331
0.631955
0.730135
0.802812
0.874595
0.910234
0.955111
0.97761
0.998449
1.01841
1.02402
1.04142
1.04206
1.05191
1.05468
1.05639
1.06046
1.05884
1.06236
1.05879
1.06186
1.05713
1.05904
1.05653
1.05781
1.05724
1.52549
1.52866
1.49859
1.39507
1.16458
0.798271
0.417186
0.321044
0.576287
0.709879
0.757565
0.729544
0.598529
0.544772
0.588622
0.65644
0.736192
0.807847
0.879337
0.916581
0.968206
0.989028
1.01477
1.03327
1.04102
1.05731
1.05623
1.06864
1.0675
1.07217
1.07425
1.07445
1.07684
1.07494
1.07743
1.07419
1.07565
1.07363
1.07208
1.07209
1.46348
1.3954
1.21711
0.910812
0.609731
0.550669
0.701786
0.838519
0.892678
0.902615
0.871454
0.743141
0.616108
0.60729
0.624966
0.668168
0.723476
0.806821
0.882403
0.926926
0.982572
1.00396
1.0327
1.05196
1.06385
1.07971
1.07823
1.0901
1.08822
1.09709
1.09731
1.10271
1.10306
1.10423
1.10539
1.10472
1.10381
1.10073
1.09508
1.09378
1.07641
0.802222
0.590705
0.533253
0.601804
0.687587
0.716738
0.776291
0.815463
0.824261
0.789673
0.671804
0.607547
0.598347
0.568701
0.618153
0.677383
0.76108
0.833214
0.895969
0.954858
0.995047
1.0325
1.0558
1.07319
1.0974
1.10695
1.12187
1.12684
1.1341
1.13517
1.14214
1.1428
1.14766
1.14824
1.15109
1.14956
1.14956
1.1482
1.14318
0.379895
0.412622
0.414643
0.409636
0.42341
0.514987
0.576073
0.616391
0.630153
0.629587
0.567068
0.497139
0.483016
0.458912
0.446832
0.464908
0.470231
0.563353
0.64678
0.732316
0.8414
0.910238
0.985525
1.03479
1.07307
1.10342
1.12635
1.14187
1.15157
1.16007
1.16271
1.16911
1.16843
1.17006
1.16938
1.16831
1.16907
1.16926
1.17778
1.18254
0.106926
0.160901
0.107163
0.201969
0.264218
0.339189
0.362723
0.380066
0.383651
0.38307
0.34552
0.247871
0.164917
0.124576
0.0918084
0.131355
0.234106
0.28283
0.34958
0.439463
0.518535
0.622442
0.719919
0.820916
0.903068
0.956393
1.00504
1.05092
1.08702
1.12481
1.14827
1.17167
1.19397
1.21556
1.23563
1.25309
1.26426
1.27486
1.27854
1.28569
0.247762
0.262385
0.276489
0.283187
0.27417
0.269763
0.268943
0.27766
0.294324
0.31605
0.349072
0.379351
0.406992
0.428055
0.444779
0.448802
0.447519
0.432412
0.407462
0.372732
0.330455
0.277489
0.203519
0.135443
0.0943175
0.301325
0.600242
0.626612
0.674336
0.708212
0.750686
0.801254
0.841579
0.900766
0.934784
0.993067
1.02388
1.09013
1.13522
1.21207
1.01498
1.01482
1.01655
1.01698
1.0179
1.01816
1.01873
1.01863
1.01911
1.01907
1.01904
1.01933
1.01881
1.01926
1.01846
1.01872
1.01774
1.01737
1.01599
1.01451
1.01191
1.00843
1.00347
0.996979
0.988674
0.979325
0.972285
0.97165
0.978826
0.990834
1.00203
1.00693
1.00592
1.0056
1.00544
1.00528
1.00515
1.00498
1.00477
1.00463
0.998421
0.998852
0.997715
0.998229
0.997552
0.998237
0.99811
0.998405
0.998582
0.998396
0.998876
0.998412
0.999021
0.998633
0.999063
0.999048
0.99934
0.999757
1.00038
1.0015
1.00317
1.0057
1.00915
1.01333
1.01748
1.02165
1.02389
1.0247
1.02344
1.01617
1.00845
1.00631
1.00628
1.00637
1.00634
1.00623
1.006
1.00558
1.00526
1.00512
1.01313
1.0138
1.01571
1.01631
1.01748
1.01745
1.01836
1.01829
1.01832
1.01871
1.01814
1.01855
1.01772
1.01804
1.01684
1.01697
1.0154
1.01486
1.01284
1.01111
1.00823
1.00518
1.00154
0.998118
0.995402
0.99508
0.997355
1.00167
1.00451
1.00528
1.00548
1.00563
1.00581
1.00587
1.00591
1.00585
1.00593
1.00592
1.00567
1.00557
1.00052
1.00107
1.00021
1.00045
0.999939
1.00038
1.00017
1.00048
1.00064
1.00061
1.00102
1.00102
1.0013
1.00191
1.00199
1.00297
1.0034
1.00482
1.00606
1.00825
1.01054
1.0135
1.01661
1.01959
1.02199
1.02325
1.02386
1.02315
1.0203
1.01644
1.01239
1.00999
1.00899
1.00821
1.00738
1.00698
1.00649
1.00604
1.00588
1.00583
1.01159
1.0128
1.01418
1.01496
1.01594
1.01613
1.01645
1.01686
1.01655
1.01695
1.01644
1.01662
1.01578
1.01586
1.01479
1.01451
1.01308
1.0121
1.01024
1.00849
1.00621
1.00409
1.0022
1.00132
1.0015
1.00236
1.00403
1.00626
1.00713
1.00753
1.00759
1.0075
1.00747
1.00752
1.00729
1.00709
1.00708
1.00669
1.0063
1.00621
1.00269
1.00296
1.00231
1.00258
1.00243
1.00255
1.00277
1.00285
1.00312
1.0033
1.00358
1.00408
1.00431
1.00505
1.0054
1.00649
1.00719
1.00871
1.00991
1.01167
1.01313
1.01483
1.01632
1.01768
1.01864
1.0193
1.01934
1.01855
1.01692
1.0146
1.01276
1.01171
1.01061
1.00934
1.00828
1.00779
1.00725
1.00688
1.00676
1.00654
1.0105
1.01191
1.01292
1.01375
1.01425
1.01487
1.01476
1.0153
1.01504
1.01527
1.01487
1.01489
1.01434
1.01419
1.01334
1.01287
1.01164
1.01073
1.0092
1.00799
1.0064
1.00529
1.00445
1.00419
1.00425
1.00476
1.00604
1.00752
1.00824
1.00864
1.00896
1.00903
1.00908
1.00902
1.00867
1.00826
1.00787
1.00739
1.00713
1.00702
1.00472
1.00454
1.00465
1.00468
1.00488
1.00514
1.00525
1.00554
1.00577
1.00607
1.00644
1.00681
1.00723
1.00788
1.00841
1.0093
1.01008
1.01107
1.01199
1.01304
1.0138
1.01467
1.01553
1.01613
1.01621
1.01608
1.01608
1.01561
1.01434
1.0128
1.012
1.01159
1.01082
1.00956
1.00898
1.00853
1.00813
1.00774
1.00747
1.00733
1.00986
1.01122
1.0118
1.01263
1.01288
1.01357
1.01348
1.01398
1.0138
1.01401
1.01382
1.01384
1.01341
1.01321
1.01257
1.01212
1.01123
1.01053
1.00959
1.00889
1.00811
1.00752
1.00727
1.00742
1.00741
1.00758
1.00846
1.00925
1.00958
1.00975
1.01017
1.01024
1.01022
1.00999
1.00958
1.00906
1.00856
1.00819
1.00794
1.00785
1.00654
1.00641
1.00666
1.00683
1.00716
1.00754
1.00777
1.00806
1.00827
1.00853
1.00885
1.00924
1.00969
1.01016
1.01067
1.01131
1.01191
1.01251
1.01298
1.01351
1.01401
1.01478
1.01525
1.01533
1.01491
1.0144
1.01423
1.01376
1.0128
1.01201
1.0117
1.01135
1.01059
1.01001
1.00973
1.00941
1.00903
1.00849
1.00821
1.00807
1.00953