/*--------------------------------*- C++ -*----------------------------------*\
  =========                 |
  \\      /  F ield         | OpenFOAM: The Open Source CFD Toolbox
   \\    /   O peration     | Website:  https://openfoam.org
    \\  /    A nd           | Version:  11
     \\/     M anipulation  |
\*---------------------------------------------------------------------------*/
FoamFile
{
    format      ascii;
    class       surfaceScalarField;
    location    "3.5";
    object      phi;
}
// * * * * * * * * * * * * * * * * * * * * * * * * * * * * * * * * * * * * * //

dimensions      [0 3 -1 0 0 0 0];

internalField   nonuniform List<scalar> 
18960
(
0.0890534
0.000370375
-0.0894238
0.0886962
0.00035714
0.0883431
0.000353101
0.0880208
0.000322328
0.087778
0.000242805
0.0875854
0.000192638
0.0874123
0.000173101
0.087109
0.000303262
0.0859521
0.00115692
0.0837583
0.00219377
0.0816584
0.00209992
0.0809029
0.000755484
0.0812477
-0.000344776
0.0824404
-0.0011927
0.0842924
-0.00185202
0.0860077
-0.00171525
0.0873911
-0.00138349
0.0884966
-0.00110542
0.0893734
-0.000876832
0.0900877
-0.000714334
0.0906394
-0.000551703
0.0910616
-0.000422207
0.0913132
-0.000251553
0.0915234
-0.000210225
0.0915767
-5.32541e-05
0.0914728
0.000103856
0.0913057
0.000167153
0.0910918
0.000213831
0.0908375
0.000254291
0.0905671
0.000270428
0.0903338
0.000233316
0.09016
0.000173783
0.090036
0.000124032
0.0900558
-1.97973e-05
0.0900395
1.6326e-05
0.0901587
-0.000119288
0.0902691
-0.000110318
0.0904868
-0.000217763
0.0906959
-0.000209111
-0.000321306
0.0910172
0.0891621
0.000667451
-0.0894591
0.0888869
0.000632322
0.0886476
0.000592397
0.0884151
0.000554779
0.0881616
0.000496319
0.0879036
0.000450705
0.0876715
0.000405181
0.0874207
0.000554071
0.0872299
0.00134771
0.0872954
0.0021283
0.0874541
0.00194116
0.087363
0.000846552
0.0872868
-0.00026854
0.087345
-0.00125088
0.08759
-0.00209706
0.0880097
-0.00213497
0.0884482
-0.00182191
0.088973
-0.00163024
0.0895409
-0.00144479
0.0901344
-0.00130782
0.090726
-0.00114323
0.0912549
-0.000951148
0.0916248
-0.000621432
0.091955
-0.000540408
0.0921113
-0.000209602
0.0922381
-2.29029e-05
0.0921758
0.000229425
0.092085
0.000304613
0.091864
0.000475311
0.0916229
0.000511553
0.0912569
0.000599317
0.0909292
0.000501497
0.0905004
0.000552816
0.0900667
0.000413919
0.0897987
0.000284262
0.0893684
0.00031103
0.0891974
6.06959e-05
0.0889726
7.0457e-06
0.0888323
-6.88115e-05
-0.000612236
0.0891232
0.0891786
0.000974741
-0.0894859
0.0889036
0.000907304
0.0886303
0.000865724
0.0883667
0.000818395
0.0881288
0.000734245
0.0879504
0.000629106
0.0878307
0.000524896
0.0876267
0.000758008
0.0872426
0.00173189
0.0868863
0.00248456
0.0864123
0.00241515
0.0858403
0.00141859
0.0857482
-0.000176494
0.0861992
-0.00170187
0.0869394
-0.00283725
0.0878471
-0.00304265
0.088752
-0.00272686
0.0895564
-0.00243462
0.0902189
-0.00210725
0.0907777
-0.00186663
0.0912224
-0.0015879
0.0915962
-0.00132505
0.0918706
-0.000895734
0.0920572
-0.000727022
0.0921746
-0.000327071
0.092232
-8.02557e-05
0.0921575
0.000303917
0.092065
0.000397096
0.0918885
0.000651854
0.0917315
0.000668562
0.0915856
0.0007452
0.0914401
0.000646934
0.0914168
0.000576196
0.0913751
0.000455552
0.0914203
0.000239072
0.0916189
0.000112411
0.0917368
-5.71197e-05
0.091934
-0.000190223
0.0920918
-0.000226573
-0.000442083
0.0919216
0.089191
0.0012918
-0.089508
0.0889218
0.00117651
0.0886473
0.00114019
0.0884094
0.00105632
0.0882149
0.000928737
0.0880692
0.000774784
0.0879025
0.000691663
0.087703
0.000957437
0.0875649
0.00187001
0.0875599
0.00248959
0.0878081
0.00216688
0.0883986
0.000828082
0.0891365
-0.000914395
0.0896764
-0.00224175
0.0899012
-0.00306203
0.090028
-0.0031695
0.0901412
-0.00284
0.0902858
-0.00257921
0.0904774
-0.00229883
0.0907436
-0.00213287
0.0910944
-0.00193874
0.09149
-0.00172063
0.0918613
-0.00126705
0.0921689
-0.00103456
0.092354
-0.000512169
0.0924658
-0.000192111
0.0925182
0.000251499
0.0924758
0.000439586
0.0923129
0.000814719
0.0921654
0.000816073
0.0918866
0.00102394
0.0915679
0.000965677
0.0911979
0.000946199
0.0907993
0.00085413
0.0903492
0.000689206
0.0900042
0.000457426
0.0896839
0.000263122
0.089542
-4.82938e-05
0.0895202
-0.000204777
-0.000767374
0.0898455
0.0892256
0.00158868
-0.0895225
0.0889499
0.00145222
0.0886916
0.00139852
0.0884599
0.00128794
0.0882723
0.00111639
0.0880999
0.000947112
0.0879042
0.000887392
0.0877584
0.00110328
0.0878275
0.00180092
0.0881146
0.00220249
0.088464
0.0018174
0.0885969
0.000695221
0.0884472
-0.000764687
0.0882578
-0.00205233
0.0882407
-0.00304497
0.088533
-0.00346178
0.0890369
-0.00334388
0.0896546
-0.00319699
0.0902256
-0.00286983
0.090753
-0.00266024
0.091136
-0.00232175
0.0915052
-0.0020898
0.0917478
-0.00150964
0.0919349
-0.00122164
0.0921013
-0.000678576
0.0922267
-0.000317551
0.0922672
0.000211022
0.0922433
0.000463493
0.0921783
0.000879735
0.0920599
0.00093445
0.092009
0.00107487
0.0919159
0.00105872
0.0919222
0.000939875
0.0919382
0.000838162
0.0920148
0.00061259
0.0921536
0.000318618
0.0922842
0.000132595
0.0924015
-0.000165665
0.0924501
-0.000253333
-0.000606925
0.0922896
0.0892415
0.00188717
-0.08954
0.0889727
0.00172102
0.0887372
0.00163402
0.088517
0.00150819
0.0883171
0.00131626
0.0881464
0.00111777
0.0880626
0.000971221
0.0880264
0.00113953
0.0880497
0.0017776
0.0882439
0.00200829
0.0886519
0.00140937
0.0892248
0.000122376
0.0898613
-0.00140119
0.0904227
-0.00261379
0.0907904
-0.0034126
0.0910028
-0.00367423
0.0911136
-0.00345464
0.0912114
-0.00329485
0.0913371
-0.00299555
0.0914951
-0.00281822
0.0916771
-0.00250378
0.0919247
-0.00233739
0.0922158
-0.0018007
0.0924923
-0.00149813
0.0926708
-0.000857095
0.0927582
-0.000404951
0.0928365
0.000132773
0.0928665
0.000433419
0.0928091
0.000937147
0.0927042
0.00103936
0.0925076
0.00127149
0.0922598
0.00130651
0.0919156
0.00128405
0.0915659
0.00118789
0.0910824
0.00109613
0.0907405
0.000660525
0.0904
0.000473028
0.0902281
6.30338e-06
0.0901875
-0.000212799
-0.000864217
0.0904448
0.0892772
0.00217061
-0.0895606
0.0890279
0.00197028
0.0888034
0.00185851
0.0886041
0.00170751
0.0883927
0.00152764
0.0882529
0.00125756
0.0881942
0.00102993
0.0881755
0.00115828
0.0882588
0.00169432
0.0885165
0.00175056
0.0890017
0.000924129
0.0895718
-0.000447652
0.089855
-0.00168438
0.089827
-0.00258583
0.0896245
-0.00321011
0.0895112
-0.00356089
0.0896111
-0.00355462
0.0899282
-0.00361193
0.0903397
-0.00340707
0.0908058
-0.00328429
0.0911704
-0.00286832
0.0915084
-0.0026754
0.0917614
-0.00205376
0.0919604
-0.00169707
0.0921459
-0.00104262
0.0922929
-0.000551993
0.092447
-2.13153e-05
0.0925041
0.000376401
0.0925012
0.000939984
0.0924674
0.00107321
0.0924302
0.00130865
0.0924136
0.00132314
0.0924309
0.00126668
0.0925075
0.00111132
0.0926278
0.000975855
0.0927307
0.000557633
0.0928738
0.000329915
0.0929235
-4.34256e-05
0.0929373
-0.000226592
-0.000661598
0.0927347
0.0893126
0.00244877
-0.0895907
0.0890618
0.0022211
0.088863
0.00205727
0.0886574
0.00191309
0.0884727
0.00171238
0.0883988
0.0013314
0.0883692
0.00105951
0.088322
0.00120553
0.0884399
0.00157644
0.0887877
0.00140279
0.0892786
0.000433208
0.0897173
-0.0008864
0.0901264
-0.00209349
0.090571
-0.00303035
0.0909897
-0.00362887
0.0913597
-0.00393089
0.0916145
-0.00380943
0.0917665
-0.00376389
0.0918942
-0.00353483
0.0920588
-0.00344883
0.0922188
-0.00302835
0.092398
-0.00285461
0.0926191
-0.00227487
0.0928843
-0.0019622
0.0930871
-0.00124545
0.0932207
-0.000685653
0.0932206
-2.11671e-05
0.093266
0.000331017
0.0932961
0.000909878
0.0932538
0.0011155
0.0931575
0.00140495
0.0929812
0.00149941
0.0927075
0.00154044
0.0923828
0.00143603
0.0919735
0.00138512
0.0916188
0.000912284
0.0912416
0.000707173
0.0910595
0.000138614
0.090977
-0.000144078
-0.000876639
0.0911921
0.0893778
0.00270893
-0.0896379
0.0891602
0.00243869
0.0889736
0.00224385
0.0887893
0.00209737
0.0886686
0.00183303
0.0885725
0.00142751
0.0885245
0.00110752
0.0885368
0.00119325
0.0887195
0.00139377
0.0890878
0.00103446
0.0895557
-3.46705e-05
0.0900119
-0.0013426
0.0903757
-0.0024573
0.0906198
-0.00327441
0.0906908
-0.00369989
0.0906433
-0.00388342
0.0906148
-0.00378096
0.090645
-0.00379408
0.0907898
-0.00367959
0.0910552
-0.00371424
0.091352
-0.00332516
0.0916338
-0.00313643
0.0919116
-0.00255265
0.0920755
-0.00212607
0.0922717
-0.00144171
0.0924767
-0.000890565
0.0926923
-0.000236766
0.0928281
0.000195195
0.0929072
0.000830721
0.0929476
0.00107515
0.0929245
0.00142801
0.0929475
0.00147646
0.0929873
0.00150059
0.0930696
0.00135372
0.0932407
0.00121403
0.093348
0.000804989
0.0935001
0.000555103
0.0935167
0.000122025
0.0934922
-0.000119625
-0.000640574
0.0932562
0.0894157
0.0029529
-0.0896597
0.0892103
0.00264415
0.0890082
0.00244592
0.0888208
0.00228472
0.0887082
0.00194564
0.0886782
0.0014575
0.0886439
0.00114187
0.088652
0.00118511
0.0888657
0.0011801
0.0892827
0.000617401
0.0897302
-0.000482118
0.0901145
-0.00172687
0.0904069
-0.00274976
0.0906956
-0.00356312
0.0910371
-0.00404136
0.0914106
-0.00425688
0.0917614
-0.0041318
0.0920542
-0.00408685
0.0922275
-0.00385291
0.0923917
-0.00387847
0.0926108
-0.00354424
0.0928246
-0.00335017
0.0930259
-0.00275402
0.0932641
-0.00236421
0.0935186
-0.00169627
0.0937417
-0.00111367
0.0937685
-0.000263546
0.0937704
0.000193293
0.0938226
0.000778502
0.093838
0.00105983
0.0938184
0.00144751
0.093733
0.00156188
0.0935095
0.00172407
0.0932664
0.0015969
0.0929351
0.0015453
0.0925867
0.00115342
0.0922141
0.000927725
0.0920049
0.000331177
0.0918955
-1.01996e-05
-0.000761908
0.0920168
0.0895054
0.00319382
-0.0897464
0.0892983
0.00285127
0.0891289
0.00261539
0.0889891
0.00242447
0.0888946
0.00204018
0.0888338
0.00151824
0.088804
0.00117175
0.0889207
0.0010684
0.0892278
0.00087292
0.0895847
0.000260569
0.0899369
-0.000834299
0.0902665
-0.00205654
0.0905628
-0.00304608
0.0908661
-0.00386635
0.0911112
-0.00428644
0.091275
-0.00442073
0.0913561
-0.00421291
0.0914167
-0.00414748
0.091486
-0.00392214
0.0916042
-0.00399669
0.0917735
-0.00371358
0.0919599
-0.00353651
0.0921969
-0.00299103
0.0923774
-0.00254472
0.0925337
-0.00185259
0.0927265
-0.00130645
0.0929997
-0.000536769
0.0932588
-6.58198e-05
0.0933931
0.000644191
0.0934895
0.0009635
0.0935521
0.00138484
0.0935712
0.00154281
0.0936338
0.00166149
0.0937199
0.00151083
0.0938758
0.00138931
0.0940324
0.000996889
0.0941652
0.000794917
0.0941962
0.000300119
0.0941402
4.58102e-05
-0.000584875
0.0939632
0.089554
0.00342226
-0.0897824
0.0893654
0.00303984
0.089169
0.00281176
0.0890296
0.00256391
0.0889735
0.00209622
0.0889666
0.00152518
0.0890085
0.00112983
0.0891535
0.000923384
0.089423
0.000603431
0.0897879
-0.000104371
0.0900992
-0.00114551
0.0903529
-0.00231028
0.0905767
-0.0032699
0.0908094
-0.004099
0.09107
-0.00454711
0.0914265
-0.00477719
0.0917849
-0.00457128
0.0921554
-0.004518
0.0924608
-0.00422755
0.0926714
-0.00420727
0.0929038
-0.00394599
0.0931243
-0.003757
0.0933719
-0.00323867
0.0936399
-0.0028127
0.09394
-0.00215268
0.0942216
-0.0015881
0.0943678
-0.000682921
0.0943618
-5.9795e-05
0.0944493
0.000556638
0.0944978
0.000915058
0.0945254
0.00135724
0.0945383
0.00152991
0.0944194
0.00178033
0.0942297
0.00170053
0.0939378
0.0016812
0.0936258
0.00130894
0.0932719
0.00114882
0.0930368
0.000535201
0.0928863
0.000196299
-0.000638765
0.0929402
0.0896783
0.00362083
-0.0898769
0.0894667
0.00325143
0.089311
0.00296747
0.0892188
0.00265617
0.089204
0.00211095
0.0892264
0.00150283
0.0892544
0.00110186
0.0893828
0.000794993
0.0896572
0.000328965
0.0899728
-0.00041992
0.0902179
-0.00139062
0.0904279
-0.00252034
0.0906199
-0.00346184
0.0908429
-0.00432205
0.0911248
-0.00482897
0.0914306
-0.00508302
0.091735
-0.00487567
0.0919957
-0.00477874
0.0921709
-0.00440274
0.0923191
-0.0043554
0.0924267
-0.00405359
0.0925572
-0.00388751
0.0927207
-0.00340215
0.0928934
-0.00298546
0.0930151
-0.0022744
0.0931657
-0.00173864
0.0934361
-0.000953353
0.0937724
-0.000396113
0.0939805
0.000348595
0.0941523
0.000743242
0.0942697
0.00123978
0.094344
0.00145562
0.0944182
0.00170617
0.0944958
0.00162294
0.0946353
0.00154171
0.09478
0.00116423
0.0949417
0.000987086
0.094998
0.000478908
0.0949394
0.000254894
-0.000500157
0.0948008
0.0897399
0.00381342
-0.0899325
0.0895599
0.00343138
0.0894283
0.00309911
0.0893566
0.00272787
0.0893711
0.00209646
0.0893911
0.00148282
0.0894389
0.00105405
0.0895843
0.000649602
0.0898379
7.53359e-05
0.090099
-0.000680953
0.0903299
-0.00162153
0.090493
-0.0026835
0.0906428
-0.0036116
0.0908388
-0.00451808
0.0910636
-0.00505375
0.0913872
-0.00540659
0.0917727
-0.00526125
0.0921787
-0.0051847
0.0926012
-0.00482527
0.0929218
-0.00467596
0.0932099
-0.00434168
0.0934707
-0.00414834
0.0937572
-0.00368864
0.0940369
-0.00326512
0.0943673
-0.00260481
0.0946976
-0.00206901
0.0949434
-0.00119907
0.0950848
-0.000537507
0.0951795
0.000253811
0.0952461
0.000676646
0.0953113
0.00117465
0.0953779
0.001389
0.0953784
0.00170564
0.0952749
0.00172647
0.095043
0.00177356
0.0947435
0.00146381
0.0944339
0.00129668
0.0942106
0.000702165
0.0940281
0.000437461
-0.00046872
0.0939966
0.0898834
0.00400753
-0.0900775
0.0897463
0.00356851
0.0896402
0.00320519
0.0896172
0.00275087
0.0896128
0.00210079
0.0896398
0.00145583
0.0896891
0.0010048
0.0898125
0.000526188
0.0900201
-0.000132277
0.0902797
-0.000940551
0.0904787
-0.00182052
0.0906256
-0.00283036
0.0907468
-0.00373283
0.0908563
-0.00462762
0.091031
-0.00522839
0.0913537
-0.00572936
0.091766
-0.00567356
0.0922215
-0.00564012
0.0925934
-0.0051972
0.0929213
-0.00500383
0.0931499
-0.00457036
0.093333
-0.0043314
0.0934708
-0.00382642
0.0936429
-0.00343719
0.0937489
-0.00271084
0.0938539
-0.00217406
0.0940541
-0.00139919
0.0943624
-0.000845849
0.0946985
-8.23392e-05
0.0949507
0.000424509
0.0951055
0.00101988
0.0952538
0.00124068
0.095327
0.00163239
0.0954838
0.00156972
0.095579
0.00167835
0.0957382
0.00130455
0.0958566
0.00117832
0.0959372
0.00062157
0.0958945
0.000480189
-0.000374944
0.0958007
0.0899675
0.00416209
-0.090122
0.089837
0.00369897
0.089777
0.00326525
0.089781
0.00274686
0.0897862
0.00209559
0.0898112
0.00143077
0.0898722
0.000943795
0.0899858
0.000412612
0.0901587
-0.000305142
0.0904092
-0.00119107
0.0906049
-0.00201622
0.0907611
-0.00298658
0.0908507
-0.00382239
0.0909634
-0.0047403
0.0911013
-0.00536628
0.0913574
-0.00598548
0.0917257
-0.00604188
0.0921871
-0.00610149
0.0927129
-0.00572302
0.093184
-0.00547495
0.0935815
-0.00496781
0.0939141
-0.00466404
0.0942193
-0.00413159
0.0945336
-0.00375154
0.0948646
-0.00304181
0.095225
-0.00253447
0.0955374
-0.00171153
0.0958138
-0.00112229
0.0959518
-0.000220314
0.0961214
0.00025487
0.0962218
0.000919452
0.0963082
0.00115437
0.0963922
0.00154831
0.0964202
0.00154174
0.0963
0.00179856
0.0960952
0.00150933
0.0958054
0.00146815
0.0955979
0.000829078
0.0953916
0.000686453
-0.000289032
0.0953057
0.0901697
0.00433491
-0.0903426
0.0901081
0.00376059
0.0901094
0.00326393
0.0901055
0.00275078
0.0900673
0.00213376
0.0900426
0.00145551
0.0901017
0.000884714
0.0902172
0.000297129
0.090384
-0.000471982
0.0905935
-0.00140055
0.0907921
-0.00221484
0.0909495
-0.00314403
0.0910686
-0.00394149
0.0911546
-0.00482629
0.09123
-0.00544162
0.0913936
-0.00614912
0.0917117
-0.00636001
0.0921735
-0.00656327
0.0926914
-0.00624095
0.093226
-0.00600951
0.09368
-0.00542185
0.0940295
-0.00501344
0.0942658
-0.00436795
0.0944688
-0.0039545
0.0946486
-0.00322165
0.0948053
-0.00269113
0.0949558
-0.00186211
0.0952023
-0.0013688
0.0955329
-0.000550887
0.0958948
-0.000107016
0.0961411
0.000673204
0.0963562
0.000939208
0.09647
0.00143455
0.0966158
0.0013959
0.0967622
0.00165218
0.0969177
0.00135386
0.0970392
0.00134661
0.0971014
0.000766948
0.0970668
0.000720989
-0.000196198
0.096974
0.0902632
0.00444277
-0.0903711
0.0902169
0.00380689
0.0902047
0.00327611
0.0901949
0.00276063
0.0901703
0.00215832
0.0901708
0.00145508
0.0902401
0.000815351
0.0903867
0.000150504
0.0905327
-0.000617967
0.0907186
-0.00158638
0.0909075
-0.00240379
0.0910871
-0.00332362
0.0912187
-0.0040731
0.0913549
-0.00496248
0.0914309
-0.00551758
0.0915341
-0.00625231
0.0917512
-0.00657713
0.0921206
-0.00693271
0.0926007
-0.00672103
0.093156
-0.0065648
0.0937254
-0.00599129
0.0942508
-0.00553876
0.0946807
-0.00479787
0.0950688
-0.00434263
0.0954289
-0.00358179
0.0958313
-0.00309348
0.0962009
-0.00223169
0.0965717
-0.00173959
0.0968262
-0.000805382
0.0970584
-0.000339294
0.0972712
0.000460442
0.0974504
0.000760047
0.0975517
0.00133319
0.0976792
0.00126846
0.0976714
0.00165994
0.0976442
0.0013811
0.0974312
0.0015596
0.0972779
0.000920265
0.0970368
0.000962038
-6.39792e-05
0.0969046
0.0906122
0.00454328
-0.0907128
0.0905483
0.00387083
0.0905267
0.00329774
0.0905304
0.00275688
0.0905012
0.00218751
0.0904746
0.00148173
0.0905123
0.00077758
0.0906333
2.95508e-05
0.0907704
-0.000755067
0.0909461
-0.00176212
0.0911165
-0.00257419
0.0912854
-0.0034925
0.0914409
-0.00422853
0.0915895
-0.00511116
0.0916994
-0.00562748
0.0917926
-0.00634551
0.0918976
-0.0066821
0.092146
-0.00718113
0.092547
-0.00712196
0.0930753
-0.00709313
0.0936654
-0.00658139
0.0942828
-0.00615617
0.0948232
-0.0053383
0.0952854
-0.00480483
0.0956221
-0.00391849
0.0959128
-0.00338419
0.0961265
-0.00244536
0.0963508
-0.00196386
0.0966272
-0.00108178
0.0969837
-0.000695805
0.0972924
0.000151767
0.0976322
0.000420198
0.0978576
0.00110778
0.0980312
0.00109488
0.098149
0.00154212
0.0983365
0.0011936
0.0984636
0.00143251
0.0985685
0.000815369
0.0986322
0.000898394
6.98576e-05
0.0984983
0.0906603
0.00462652
-0.0907435
0.0905978
0.00393327
0.0905521
0.00334345
0.0905472
0.00276178
0.090536
0.00219877
0.0905173
0.00150038
0.0905826
0.000712279
0.0907439
-0.00013169
0.0909295
-0.000940737
0.0910961
-0.00192866
0.0912675
-0.00274563
0.0914458
-0.00367079
0.0915785
-0.00436122
0.091761
-0.00529364
0.0919352
-0.00580174
0.0920638
-0.00647403
0.0921797
-0.00679807
0.0923303
-0.00733167
0.0926205
-0.00741222
0.0930385
-0.00751112
0.0935839
-0.00712679
0.0942134
-0.00678564
0.0948671
-0.00599206
0.0954995
-0.00543722
0.0960535
-0.0044725
0.0965921
-0.00392274
0.0970685
-0.00292176
0.0975459
-0.0024413
0.0979104
-0.00144621
0.0982254
-0.00101084
0.098486
-0.00010883
0.0987724
0.000133836
0.0989666
0.000913496
0.0991642
0.000897275
0.0992665
0.00143987
0.099351
0.00110911
0.0992598
0.00152366
0.099196
0.000879207
0.0990164
0.00107801
0.000153667
0.0989326
0.091059
0.00470039
-0.0911329
0.0909685
0.00402376
0.0908948
0.00341716
0.0908547
0.00280185
0.0908575
0.00219602
0.0909127
0.0014452
0.0909813
0.000643646
0.0911237
-0.000274104
0.0912411
-0.00105812
0.0913903
-0.00207785
0.0915088
-0.00286414
0.0916751
-0.00383712
0.0918139
-0.00449993
0.0919873
-0.00546712
0.0921764
-0.00599082
0.0923874
-0.00668499
0.092536
-0.00694669
0.0926777
-0.00747333
0.092842
-0.0075765
0.0931448
-0.00781399
0.0935516
-0.00753357
0.0941751
-0.00740918
0.0948489
-0.00666585
0.0956146
-0.00620289
0.0962991
-0.00515702
0.0969183
-0.00454188
0.0974029
-0.00340636
0.0978159
-0.00285439
0.0981567
-0.00178696
0.0985361
-0.00139021
0.0988707
-0.000443479
0.0992457
-0.000241137
0.0995458
0.000613383
0.0998246
0.000618427
0.0999922
0.00127232
0.100134
0.000967223
0.100304
0.00135327
0.100417
0.000766487
0.100541
0.000954471
0.000254824
0.10044
0.091031
0.00477161
-0.0911022
0.0909783
0.00407649
0.0909076
0.00348787
0.0908708
0.00283865
0.0908925
0.00217424
0.0909811
0.00135666
0.091066
0.000558703
0.0911851
-0.000393177
0.09129
-0.00116299
0.091452
-0.00223988
0.0916317
-0.00304382
0.0918395
-0.00404491
0.0920204
-0.00468083
0.0921851
-0.00563182
0.0923887
-0.00619446
0.0926124
-0.00690866
0.0928217
-0.00715606
0.0930147
-0.00766632
0.0931884
-0.00775017
0.0934136
-0.00803913
0.0937271
-0.00784712
0.0942054
-0.00788747
0.0947898
-0.00725024
0.0955307
-0.00694385
0.0963185
-0.00594477
0.0971325
-0.00535585
0.0979004
-0.0041743
0.0986118
-0.00356574
0.0992191
-0.00239433
0.0997598
-0.00193091
0.100142
-0.000825174
0.100497
-0.000596369
0.100785
0.000324898
0.101069
0.000334998
0.10129
0.00105126
0.101462
0.000795052
0.101526
0.0012888
0.101503
0.000790192
0.101424
0.00103362
0.000355967
0.101322
0.0914389
0.00487572
-0.091543
0.0913898
0.00412553
0.0913411
0.00353664
0.0913342
0.00284546
0.0913509
0.00215764
0.0914371
0.00127043
0.0915138
0.000481955
0.0916437
-0.000523016
0.0917673
-0.00128665
0.0918854
-0.00235798
0.0920515
-0.0032099
0.0922446
-0.00423803
0.0923936
-0.00482986
0.0925244
-0.00576254
0.09266
-0.00633013
0.0928772
-0.00712584
0.0931037
-0.00738254
0.0933701
-0.00793269
0.0935888
-0.00796891
0.0938648
-0.00831517
0.0940837
-0.00806601
0.0944409
-0.00824467
0.0948963
-0.0077056
0.0955357
-0.0075832
0.096295
-0.00670413
0.0972036
-0.00626439
0.0981082
-0.00507896
0.0989819
-0.00443941
0.0997056
-0.00311802
0.100337
-0.00256279
0.100899
-0.00138626
0.101364
-0.00106224
0.101758
-6.8461e-05
0.102102
-9.67016e-06
0.102374
0.000779756
0.102615
0.000553604
0.102813
0.00109145
0.102934
0.000668535
0.103041
0.000927093
0.000427572
0.102969
0.0913959
0.00494226
-0.0914624
0.0913598
0.00416155
0.0913553
0.00354121
0.0913805
0.00282024
0.0914144
0.00212371
0.0914898
0.00119503
0.0915675
0.000404253
0.0917012
-0.00065669
0.0918598
-0.00144527
0.0920212
-0.00251941
0.092147
-0.00333567
0.0923251
-0.00441616
0.0925291
-0.00503387
0.0926942
-0.00592761
0.0928636
-0.00649955
0.0930844
-0.00734664
0.0933247
-0.00762278
0.0936146
-0.00822261
0.0938896
-0.00824392
0.094221
-0.00864658
0.0945495
-0.00839453
0.0948848
-0.00857993
0.0952681
-0.00808896
0.0957781
-0.00809319
0.0963948
-0.00732081
0.0971758
-0.00704544
0.0980626
-0.00596571
0.0990845
-0.00546134
0.10011
-0.00414338
0.1011
-0.00355339
0.101928
-0.00221348
0.102627
-0.00176151
0.103184
-0.000625077
0.103592
-0.000418164
0.103939
0.000432646
0.104184
0.00030901
0.104412
0.000863652
0.104525
0.000555411
0.104603
0.000848319
0.000527285
0.104504
0.0919421
0.00503615
-0.092036
0.0918995
0.00420414
0.0918902
0.00355054
0.0919531
0.00275725
0.0920095
0.00206731
0.0920946
0.00110999
0.0921491
0.000349753
0.0922679
-0.000775491
0.0924208
-0.00159823
0.0925702
-0.00266875
0.092688
-0.00345353
0.0928134
-0.00454153
0.0929919
-0.00521235
0.0931945
-0.00613021
0.0933392
-0.00664423
0.0935344
-0.00754189
0.0937359
-0.00782429
0.093978
-0.0084647
0.0942088
-0.00847467
0.0945406
-0.00897842
0.0949078
-0.00876171
0.0953443
-0.0090164
0.0957877
-0.0085324
0.0962599
-0.00856541
0.0967627
-0.00782353
0.0974356
-0.00771833
0.098221
-0.00675114
0.0991888
-0.00642913
0.100259
-0.00521341
0.10139
-0.00468434
0.102468
-0.00329211
0.103463
-0.00275637
0.104284
-0.00144553
0.105017
-0.00115185
0.105548
-9.78221e-05
0.105918
-6.13899e-05
0.106205
0.000577116
0.106359
0.00040157
0.106507
0.00069975
0.000463467
0.106571
0.0918733
0.00508713
-0.0919243
0.091874
0.00420338
0.0918708
0.00355381
0.091941
0.00268702
0.0920224
0.00198587
0.0921456
0.000986867
0.0922546
0.000240695
0.0923693
-0.000890125
0.0925014
-0.0017304
0.0926468
-0.00281413
0.0927919
-0.00359859
0.09295
-0.00469962
0.0931151
-0.00537747
0.0933323
-0.00634746
0.0935108
-0.0068227
0.093721
-0.00775211
0.0939115
-0.00801476
0.0941869
-0.00874009
0.0944668
-0.00875455
0.0947821
-0.00929375
0.0951477
-0.00912733
0.0956126
-0.00948125
0.096123
-0.00904283
0.0967472
-0.00918966
0.097385
-0.00846131
0.0980589
-0.00839219
0.0987799
-0.00747222
0.0995902
-0.00723938
0.100507
-0.00612995
0.101599
-0.00577662
0.102813
-0.00450608
0.10408
-0.00402383
0.105299
-0.00266394
0.10636
-0.00221266
0.10726
-0.000998121
0.107895
-0.000696825
0.108388
8.42095e-05
0.108629
0.00016065
0.108783
0.000546349
0.000429026
0.108817
0.0925861
0.00514384
-0.0926428
0.0925931
0.00419635
0.092619
0.00352788
0.0926785
0.00262753
0.0927534
0.00191098
0.0928371
0.000903232
0.0929782
9.95292e-05
0.0931086
-0.00102049
0.0932097
-0.00183153
0.0933527
-0.00295708
0.0934698
-0.0037157
0.0935983
-0.00482819
0.0937109
-0.00549004
0.0939386
-0.00657511
0.0941069
-0.00699104
0.0943005
-0.00794568
0.0944756
-0.00818993
0.0947079
-0.00897236
0.0949506
-0.00899726
0.0952515
-0.00959463
0.0955901
-0.00946588
0.0960184
-0.00990962
0.0964938
-0.00951823
0.0971026
-0.00979845
0.0978255
-0.0091842
0.0986405
-0.00920716
0.0995057
-0.00833744
0.100427
-0.00816101
0.101386
-0.00708844
0.102396
-0.00678723
0.103495
-0.00560435
0.104661
-0.0051903
0.105939
-0.00394217
0.107179
-0.00345191
0.108437
-0.00225681
0.109516
-0.00177566
0.110405
-0.000804884
0.111024
-0.000458036
0.11146
0.000110644
0.000346301
0.111542
0.0924374
0.00516231
-0.0924558
0.0924807
0.00415295
0.0925401
0.00346854
0.0926157
0.00255189
0.0927271
0.00179964
0.0928433
0.000787043
0.092969
-2.62254e-05
0.0931181
-0.00116957
0.0932713
-0.00198475
0.0934535
-0.00313923
0.0935859
-0.00384808
0.0937598
-0.00500219
0.0938832
-0.00561336
0.0940638
-0.0067557
0.094235
-0.00716231
0.0944141
-0.00812476
0.0946085
-0.0083843
0.0948362
-0.0092001
0.0951148
-0.00927587
0.0954265
-0.00990626
0.0957895
-0.00982893
0.0962219
-0.010342
0.0967738
-0.0100702
0.0973559
-0.0103805
0.0980884
-0.00991671
0.0989059
-0.0100246
0.0999399
-0.00937149
0.10103
-0.00925095
0.102252
-0.00831027
0.103404
-0.00793934
0.104634
-0.0068345
0.105748
-0.00630404
0.106983
-0.00517736
0.108171
-0.00464018
0.109468
-0.00355413
0.110674
-0.00298136
0.111951
-0.00208194
0.112969
-0.00147534
0.11394
-0.000860429
-0.000133433
0.114419
0.0934188
0.00514952
-0.093406
0.0934353
0.00413638
0.0935086
0.00339528
0.0935819
0.00247858
0.0936676
0.00171397
0.0937929
0.000661694
0.0938888
-0.000122146
0.0940393
-0.00132005
0.0941422
-0.00208759
0.0943015
-0.00329856
0.094444
-0.00399062
0.0945804
-0.00513858
0.0947233
-0.00575625
0.0948378
-0.00687015
0.0949972
-0.0073217
0.095127
-0.00825463
0.0952977
-0.00855494
0.095471
-0.00937344
0.0957093
-0.00951414
0.0959578
-0.0101548
0.0962982
-0.0101693
0.0966704
-0.0107143
0.0971984
-0.0105982
0.0977568
-0.0109389
0.0985096
-0.0106695
0.0992674
-0.0107824
0.100258
-0.0103616
0.10129
-0.0102837
0.10263
-0.00964975
0.103976
-0.00928593
0.105564
-0.00842211
0.107001
-0.00774092
0.108585
-0.00676182
0.10985
-0.00590463
0.111324
-0.00502834
0.112452
-0.00410948
0.11382
-0.00344947
0.114914
-0.00256998
0.11616
-0.00210591
-0.00106129
0.117088
0.0931773
0.00509336
-0.0931211
0.093272
0.00404166
0.0933595
0.00330776
0.0934943
0.00234378
0.0936152
0.00159309
0.0937855
0.000491392
0.0939086
-0.000245281
0.0940627
-0.00147414
0.0942254
-0.00225029
0.0943632
-0.00343639
0.0945552
-0.00418261
0.0946845
-0.00526788
0.0949037
-0.00597545
0.0949637
-0.00693008
0.0951676
-0.00752564
0.0952447
-0.00833173
0.0954789
-0.00878916
0.09554
-0.00943455
0.0958197
-0.00979382
0.0959935
-0.0103286
0.0963705
-0.0105463
0.0966032
-0.010947
0.097158
-0.0111529
0.097576
-0.0113569
0.0983923
-0.0114859
0.0991334
-0.0115235
0.100263
-0.0114915
0.101298
-0.0113182
0.102717
-0.0110687
0.104056
-0.0106256
0.105817
-0.0101827
0.107434
-0.00935828
0.109473
-0.00880001
0.111197
-0.00762924
0.11315
-0.00698123
0.114766
-0.00572581
0.116429
-0.00511255
0.117781
-0.00392183
0.119102
-0.00342674
-0.00214536
0.120186
0.094517
0.00505789
-0.0944816
0.0946107
0.00394797
0.0946789
0.00323954
0.0948062
0.00221656
0.0948982
0.00150101
0.0950497
0.000339938
0.0951981
-0.00039374
0.0953562
-0.00163214
0.0954922
-0.00238635
0.0955936
-0.0035378
0.0957569
-0.00434589
0.095852
-0.00536297
0.0959927
-0.00611615
0.0960449
-0.00698226
0.0961723
-0.00765303
0.0962038
-0.00836324
0.0963305
-0.00891591
0.0963669
-0.00947095
0.0965282
-0.00995511
0.0965858
-0.0103861
0.0969185
-0.010879
0.097073
-0.0111014
0.097571
-0.011651
0.0978774
-0.0116633
0.0986356
-0.012244
0.0992348
-0.0121227
0.100318
-0.0125745
0.101307
-0.0123075
0.102818
-0.0125798
0.104236
-0.0120434
0.106124
-0.0120711
0.107943
-0.0111772
0.110097
-0.0109537
0.112218
-0.00975017
0.114542
-0.00930497
0.116743
-0.00792765
0.118979
-0.00734792
0.120969
-0.00591196
0.122887
-0.00534489
-0.00360981
0.124352
0.0942809
0.00489493
-0.0941179
0.094458
0.00377085
0.0946484
0.00304914
0.0948426
0.00202239
0.0950673
0.00127631
0.0951686
0.000238626
0.0954072
-0.000632321
0.0955031
-0.00172811
0.0957712
-0.00265443
0.0958501
-0.00361664
0.0960942
-0.00459005
0.0961043
-0.00537302
0.0963157
-0.00632755
0.0962562
-0.00692277
0.0964284
-0.00782523
0.096343
-0.00827781
0.0964947
-0.0090676
0.0964298
-0.00940611
0.096594
-0.0101193
0.096576
-0.0103682
0.0967868
-0.0110898
0.0968748
-0.0111894
0.097201
-0.0119772
0.097501
-0.0119632
0.0980442
-0.0127873
0.0986642
-0.0127426
0.0995952
-0.0135056
0.100602
-0.0133144
0.101996
-0.0139742
0.103499
-0.0135464
0.105431
-0.0140029
0.107534
-0.01328
0.109961
-0.013381
0.112512
-0.0123012
0.115249
-0.0120414
0.117969
-0.0106478
0.120754
-0.0101332
0.123418
-0.00857533
0.126038
-0.00796504
-0.00563518
0.128063
0.0962337
0.00487014
-0.0962089
0.0963073
0.00369727
0.0963936
0.0029628
0.0965049
0.00191109
0.0966921
0.00108909
0.0969268
3.90091e-06
0.0971694
-0.000874911
0.0972364
-0.00179513
0.0974227
-0.00284069
0.0974855
-0.00367943
0.0976874
-0.00479196
0.0976745
-0.00536016
0.0978172
-0.00647023
0.097727
-0.00683252
0.0977966
-0.00789489
0.0976465
-0.00812774
0.0976822
-0.00910328
0.0975173
-0.00924113
0.0975579
-0.0101599
0.09744
-0.0102503
0.097496
-0.0111459
0.0975474
-0.0112409
0.0976945
-0.0121243
0.0979681
-0.0122369
0.0983276
-0.0131468
0.0988363
-0.0132513
0.0995086
-0.0141779
0.100413
-0.0142188
0.101575
-0.0151363
0.103034
-0.0150047
0.104833
-0.0158026
0.106969
-0.0154161
0.109566
-0.0159775
0.112438
-0.0151735
0.115706
-0.0153087
0.119155
-0.0140976
0.122831
-0.0138092
0.126469
-0.0122133
0.130109
-0.0116046
-0.00871115
0.133185
0.0963921
0.0043819
-0.0959039
0.0967148
0.0033746
0.0971732
0.00250438
0.0974206
0.00166367
0.0977541
0.000755557
0.0977632
-5.2094e-06
0.0980488
-0.0011605
0.0982049
-0.00195124
0.0984184
-0.00305416
0.0984929
-0.00375394
0.0984916
-0.00479067
0.0985129
-0.00538144
0.0983986
-0.0063559
0.0983993
-0.00683319
0.0982079
-0.00770352
0.0981399
-0.00805973
0.0979081
-0.0088715
0.097809
-0.00914205
0.0975486
-0.0098995
0.0974442
-0.0101459
0.0972429
-0.0109445
0.0972257
-0.0112236
0.0971624
-0.012061
0.097296
-0.0123704
0.0974093
-0.0132601
0.0977435
-0.0135856
0.0981371
-0.0145715
0.0988101
-0.0148918
0.0996408
-0.015967