/*--------------------------------*- C++ -*----------------------------------*\
  =========                 |
  \\      /  F ield         | OpenFOAM: The Open Source CFD Toolbox
   \\    /   O peration     | Website:  https://openfoam.org
    \\  /    A nd           | Version:  11
     \\/     M anipulation  |
\*---------------------------------------------------------------------------*/
FoamFile
{
    format      ascii;
    class       volScalarField;
    location    "5";
    object      mag(U);
}
// * * * * * * * * * * * * * * * * * * * * * * * * * * * * * * * * * * * * * //

dimensions      [0 1 -1 0 0 0 0];

internalField   nonuniform List<scalar> 
9600
(
0.090487366
0.08404464
0.085576859
0.091273105
0.094882797
0.096955659
0.098186764
0.099076455
0.099871224
0.10066757
0.1015064
0.10240169
0.10335698
0.10432885
0.10528795
0.1061904
0.10694687
0.10756063
0.1080325
0.10830441
0.10833703
0.10811568
0.10768372
0.10707673
0.10636705
0.10558464
0.10469497
0.10377179
0.10288216
0.10204155
0.10129054
0.10059908
0.10003508
0.099450906
0.099070038
0.098401237
0.098144016
0.096976593
0.096179429
0.086425168
0.095250706
0.094950378
0.096847888
0.098300176
0.09870095
0.098949175
0.099335839
0.099966757
0.10062617
0.10135293
0.10215639
0.10302843
0.10395544
0.10489371
0.10581937
0.10666341
0.10734508
0.10790364
0.10834129
0.1085786
0.10859001
0.10837986
0.1079669
0.10737301
0.10668263
0.10593242
0.1050586
0.10413224
0.10323668
0.10238982
0.10161102
0.10091243
0.10031318
0.099716923
0.09939441
0.098684211
0.09861238
0.09761342
0.098185926
0.096419207
0.095156771
0.093556116
0.094246823
0.095329038
0.097129779
0.098875109
0.10020905
0.10122278
0.10208637
0.1029312
0.10379257
0.10468769
0.1056307
0.10658115
0.10751471
0.1083754
0.10908516
0.10967605
0.11013842
0.11042068
0.11047984
0.11026499
0.10984738
0.1092676
0.10859339
0.10785411
0.10699704
0.10608771
0.10521182
0.10437515
0.10363413
0.10289488
0.10237036
0.10166795
0.10133273
0.10055091
0.10021453
0.098906796
0.09795142
0.094715327
0.097844326
0.098835488
0.099973012
0.10059392
0.10046623
0.10032721
0.10034124
0.10052179
0.1011065
0.10178877
0.10255869
0.10341325
0.10433189
0.10526069
0.10617494
0.1070009
0.10765584
0.10818928
0.10861136
0.10883119
0.10882861
0.10865227
0.10827797
0.10771488
0.10705596
0.10634051
0.1054916
0.10456959
0.10367163
0.10281429
0.10202222
0.10129548
0.10070292
0.10007373
0.099850051
0.09926117
0.099311582
0.098968486
0.099594286
0.099147349
0.098339279
0.098057651
0.097109736
0.096502441
0.097266172
0.098818059
0.10012964
0.10126639
0.1022295
0.10311461
0.10400182
0.10490405
0.10582812
0.10674944
0.10764889
0.10846302
0.10911953
0.10967437
0.11011207
0.11038935
0.11046323
0.11024664
0.10983185
0.10928002
0.10863772
0.10793742
0.10711709
0.10624065
0.1053923
0.10456761
0.10384643
0.1030833
0.10258416
0.10183159
0.10142875
0.10067362
0.10006356
0.098474629
0.09783141
0.096181829
0.099840342
0.10023507
0.10071886
0.10122979
0.10141876
0.10125413
0.1012347
0.10130997
0.10159134
0.10222945
0.10296015
0.1037986
0.10470819
0.10563553
0.10655016
0.10737111
0.10801423
0.10854169
0.10894489
0.10916589
0.10912197
0.1089715
0.10866281
0.10811645
0.10747427
0.10676756
0.10592559
0.1050058
0.10409694
0.10321286
0.10241789
0.1016436
0.10110304
0.10043718
0.10025084
0.099892031
0.10000916
0.099926738
0.10034573
0.099891249
0.10006885
0.099749266
0.099011143
0.097843819
0.098062252
0.099057582
0.10015383
0.10126126
0.10229985
0.1032607
0.10418495
0.10510868
0.10603543
0.10694219
0.10781905
0.10859982
0.10921546
0.1097395
0.11015939
0.11042779
0.11050873
0.11029164
0.10987677
0.10934823
0.10873331
0.10805116
0.10725757
0.10640566
0.10557332
0.10475133
0.10404403
0.10325509
0.10275351
0.10195921
0.10148977
0.10054897
0.099837964
0.098423987
0.098060762
0.09707823
0.10044507
0.10077227
0.10093635
0.10106319
0.10160053
0.10170694
0.10179537
0.10197463
0.10219084
0.10268794
0.10338952
0.1042102
0.10511897
0.10604881
0.10696819
0.10779082
0.1084338
0.10896117
0.10936102
0.10958129
0.10953249
0.10935515
0.10908813
0.10857309
0.10794444
0.1072372
0.10639133
0.10546402
0.10454376
0.10362648
0.10283105
0.10200746
0.1014913
0.1008595
0.10064914
0.10038283
0.1005313
0.10047297
0.10064088
0.10004366
0.10060326
0.10048782
0.10024604
0.099279411
0.099068279
0.099470912
0.10029819
0.10131713
0.10236526
0.10338302
0.10435732
0.10531369
0.10625929
0.10717076
0.1080413
0.10880257
0.10939085
0.10989126
0.11028817
0.11054646
0.11063849
0.11043052
0.11001249
0.10949279
0.10889328
0.10821981
0.10743822
0.10659352
0.10576864
0.10493537
0.10423285
0.1034074
0.10287753
0.1020608
0.10150146
0.10042738
0.099772758
0.098672833
0.098533896
0.097915453
0.10069475
0.10094953
0.10104321
0.10106494
0.10126798
0.10175103
0.10206013
0.10233437
0.10270208
0.10320834
0.10386474
0.10466876
0.10557838
0.10651524
0.10744537
0.10827192
0.1089183
0.10944332
0.10985541
0.11005106
0.11000869
0.10986256
0.10957049
0.10906816
0.10845468
0.10774269
0.1068925
0.10595455
0.10501979
0.1040651
0.10326497
0.10239473
0.10188974
0.10126536
0.10104551
0.100743
0.10082306
0.10066448
0.10062619
0.099936052
0.10074591
0.10098507
0.10095478
0.10038326
0.10014228
0.10011918
0.10062614
0.1015045
0.10250442
0.10352453
0.10453621
0.10553588
0.10651669
0.1074503
0.10833274
0.10909066
0.10966446
0.11014789
0.11052845
0.11077169
0.11086303
0.11066696
0.11024554
0.10973394
0.1091452
0.10846444
0.10768231
0.10682796
0.1059986
0.10513454
0.10442089
0.10354861
0.10298404
0.10212126
0.10149381
0.10042371
0.099912724
0.099128466
0.0991143
0.098655132
0.10071556
0.10113465
0.1012104
0.1010355
0.1012259
0.10155593
0.10209602
0.1025894
0.10307887
0.10364999
0.10434669
0.10517089
0.10609835
0.10704969
0.10799296
0.10882387
0.10946929
0.10999547
0.11040365
0.11059832
0.11054927
0.11039503
0.11011059
0.10962975
0.10902253
0.10829379
0.10743614
0.10648747
0.10553346
0.10454544
0.10372371
0.10281694
0.1022903
0.1016554
0.10140453
0.10097168
0.10093772
0.10064733
0.10046738
0.099795199
0.10067613
0.10121307
0.1013534
0.10096771
0.10088284
0.10084434
0.10116129
0.10185183
0.1027442
0.10373486
0.10476919
0.10581164
0.1068359
0.10780662
0.1087158
0.10948347
0.11005397
0.11052797
0.1108939
0.11112104
0.11120057
0.11101913
0.11060375
0.11009031
0.10950641
0.10881043
0.10801202
0.10713461
0.10628212
0.10537417
0.10462147
0.10370353
0.10309706
0.10216762
0.10154374
0.10057817
0.10020613
0.099637065
0.099637515
0.099220528
0.10060845
0.101262
0.10145095
0.10113385
0.10120668
0.10151035
0.10206255
0.10270942
0.10335388
0.10404935
0.10483569
0.10571867
0.10668717
0.10766531
0.10862452
0.10945703
0.11009566
0.11061768
0.11101721
0.1112075
0.11116013
0.11099566
0.11070075
0.11023688
0.10963613
0.10889359
0.10803255
0.10706883
0.1060975
0.10507336
0.10421539
0.10328129
0.10268424
0.10202391
0.10171226
0.10112397
0.10092504
0.10054511
0.10029649
0.099717767
0.10052537
0.10128296
0.10156242
0.10127655
0.10130523
0.10137854
0.1017206
0.10231825
0.1031091
0.10405819
0.10509958
0.1061791
0.10725299
0.10826927
0.1092166
0.11000298
0.11057791
0.11104892
0.111402
0.11161063
0.11167067
0.11149619
0.11110941
0.11060633
0.11000108
0.10927755
0.10844536
0.10753535
0.1066458
0.10567405
0.10487424
0.10389242
0.10323803
0.10229016
0.10169857
0.10082278
0.10052885
0.1000775
0.10001133
0.09957612
0.10044989
0.10126983
0.1016393
0.10138005
0.1014045
0.10156817
0.10206996
0.10279578
0.10358051
0.10442374
0.10533697
0.10631499
0.10734651
0.10837136
0.10935071
0.11018205
0.1108095
0.11132053
0.11170456
0.1118845
0.11184466
0.11166904
0.11136264
0.11090468
0.11030524
0.10955227
0.10869385
0.10771274
0.1067234
0.10565513
0.10476019
0.10376097
0.10310408
0.10235316
0.10192801
0.10125558
0.10089914
0.10046451
0.10021783
0.099731254
0.10041259
0.10124146
0.1016973
0.10148274
0.10152724
0.10169608
0.10214996
0.10278309
0.10356107
0.10450651
0.10556304
0.10668123
0.10780728
0.10887226
0.10986227
0.11067442
0.11126109
0.11173309
0.11207216
0.11225518
0.11228371
0.11211275
0.11175697
0.11126647
0.11066518
0.10992423
0.10905781
0.10808892
0.107129
0.10607726
0.10519992
0.10416798
0.10343724
0.10250209
0.10194375
0.10111529
0.10080486
0.10036506
0.10021172
0.099752638
0.10036857
0.10119165
0.10174536
0.10158197
0.10163177
0.10181
0.10228369
0.10299808
0.1038694
0.10484029
0.10588569
0.10698214
0.10810728
0.10919981
0.11021844
0.11104604
0.11165169
0.11213619
0.11248657
0.11264472
0.11261277
0.11243559
0.11211511
0.1116506
0.11104602
0.11029891
0.1094397
0.10844546
0.10743004
0.10631122
0.10535405
0.10427894
0.10353435
0.1026505
0.102139
0.10136886
0.10096299
0.10046586
0.10025562
0.099788321
0.10029902
0.1011326
0.10178588
0.10167341
0.10172011
0.1019328
0.10245058
0.10318666
0.10405983
0.10506847
0.10618649
0.10737166
0.10857091
0.10969871
0.11072348
0.11155092
0.11213318
0.1125877
0.11290371
0.11305293
0.11304389
0.11287191
0.11253706
0.11206493
0.11146771
0.11071839
0.10984595
0.10883892
0.10781753
0.10667833
0.10570486
0.10455883
0.10379729
0.10277595
0.10222505
0.10141526
0.1010231
0.10050597
0.10029216
0.099818348
0.10020555
0.10105214
0.10181673
0.10175526
0.10183414
0.10207299
0.10258421
0.10337029
0.10431351
0.10539392
0.1065711
0.10779855
0.1090256
0.11018612
0.11123044
0.11205225
0.11263599
0.1130782
0.11337954
0.11350868
0.11348082
0.11330097
0.11298031
0.11252038
0.11191839
0.1111752
0.11030412
0.10928199
0.10824008
0.10705595
0.10604738
0.10483362
0.10402869
0.10296939
0.10238026
0.10152954
0.10110233
0.10054669
0.10032242
0.09983667
0.10008935
0.10095011
0.1018266
0.10184131
0.10195585
0.10220768
0.10277507
0.10361127
0.10459578
0.10572733
0.10697103
0.10826902
0.10956051
0.11075429
0.1118075
0.11263025
0.11319214
0.11361049
0.11388662
0.11399525
0.11395151
0.11377851
0.11346172
0.11300007
0.11241709
0.11167693
0.11080352
0.10977023
0.10870869
0.10747795
0.10643242
0.1051594
0.10430985
0.10317333
0.10253874
0.10163419
0.10117794
0.10058642
0.10035076
0.099849847
0.099948244
0.10081899
0.10181757
0.10193009
0.10208344
0.10239194
0.10297893
0.10384294
0.10490655
0.10613073
0.10745665
0.10882142
0.11015761
0.11138419
0.11244819
0.11325876
0.11380338
0.1141886
0.11443083
0.11451399
0.1144643
0.11428427
0.1139713
0.11353216
0.11295605
0.11222078
0.1113561
0.11031248
0.10923855
0.10796119
0.10687274
0.10552208
0.10460908
0.10341152
0.10273752
0.10176926
0.10126693
0.10062034
0.1003702
0.099851559
0.09977955
0.10065496
0.10177771
0.10201573
0.10223117
0.10258413
0.10320895
0.10413571
0.10529103
0.10659307
0.10799379
0.10943479
0.11083751
0.11209921
0.1131655
0.11395994
0.11447037
0.11481302
0.11501821
0.11507493
0.11500376
0.11482452
0.11452662
0.11409402
0.11353197
0.11281514
0.11196357
0.11091905
0.10982838
0.10851475
0.10737444
0.10596096
0.10497323
0.10367678
0.10295214
0.10191841
0.10136846
0.10065899
0.1003867
0.09984871
0.099595746
0.10047236
0.10170613
0.10210368
0.10238568
0.10281171
0.10348964
0.10447215
0.10572152
0.1071301
0.10863346
0.11016069
0.11161824
0.11290301
0.11396146
0.11472782
0.11519661
0.11548585
0.11564369
0.11566728
0.11558106
0.11540029
0.11510884
0.11469603
0.11416011
0.11346415
0.11263211
0.11159076
0.11049622
0.1091455
0.10795626
0.10645879
0.10540773
0.1040016
0.10320367
0.10209638
0.10149592
0.10070757
0.10040149
0.09985039
0.099402724
0.10026427
0.10161036
0.1021774
0.10256214
0.10307249
0.10380891
0.10489082
0.10625209
0.10776863
0.10937494
0.11098946
0.11250651
0.11381298
0.11485301
0.11557769
0.11598872
0.11621189
0.11630709
0.11629058
0.11619159
0.11601018
0.11573045
0.11533799
0.11483005
0.11416662
0.11336493
0.11234207
0.11124615
0.10986688
0.10864041
0.10704179
0.10593254
0.10440522
0.1035154
0.10230697
0.10164071
0.100768
0.1004149
0.09985802
0.099191375
0.10002246
0.10147051
0.10224632
0.10276186
0.10337897
0.10421218
0.10540176
0.10687722
0.10852249
0.11025556
0.11196789
0.11353807
0.1148495
0.11584765
0.11650832
0.11684295
0.11698592
0.11703278
0.11697142
0.11682031
0.11662706
0.11637178
0.11601655
0.1155483
0.11492627
0.11416619
0.11316994
0.11209653
0.11068508
0.1094389
0.10774033
0.10654909
0.10489376
0.10390222
0.10257877
0.1018318
0.10085681
0.10043343
0.099873911
0.098966027
0.099752725
0.10129069
0.10231573
0.10300159
0.10375988
0.10470764
0.10602563
0.10764393
0.10944088
0.11130829
0.11311459
0.11472445
0.11602186
0.11695628
0.11752965
0.11776268
0.11778555
0.11771496
0.11761541
0.1175064
0.11733873
0.11708842
0.11674995
0.11632052
0.11574668
0.11504582
0.11408694
0.11305724
0.11162341
0.11037046
0.10857252
0.10730096
0.10550236
0.10439116
0.10292672
0.1020781
0.10098409
0.10046262
0.099889306
0.098731417
0.099474505
0.10105628
0.10238131
0.10328951
0.10422851
0.1053332
0.10680756
0.10858995
0.11055668
0.1125704
0.11446868
0.11610071
0.11735314
0.11818338
0.1186391
0.11878342
0.11872417
0.11858853
0.11839192
0.11815307
0.11793331
0.11771578
0.11744501
0.11709747
0.11660326
0.11598868
0.1150868
0.11413017
0.11269454
0.11145502
0.10957279
0.10822152
0.10626624
0.10501412
0.10338049
0.10240712
0.10117308
0.10051734
0.099903641
0.098535203
0.099220772
0.10077978
0.10243178
0.10363665
0.10481956
0.10613259
0.10779609
0.10976713
0.11192407
0.11409432
0.11607955
0.11770773
0.11886601
0.11952792
0.11977427
0.11970796
0.1194819
0.1192299
0.11903018
0.11890976
0.11877821
0.11858682
0.11833261
0.1180201
0.11757251
0.11704208
0.11620366
0.11533848
0.11392311
0.11272058
0.110763
0.10935131
0.10722779
0.10581806
0.10398798
0.1028511
0.10145186
0.10060235
0.099945469
0.098339613
0.098981117
0.10050264
0.10246643
0.10404923
0.10556819
0.10717154
0.1090609
0.11125711
0.11362095
0.11594335
0.11798793
0.1195778
0.12061791
0.12111288
0.1211795
0.1209941
0.12063211
0.12021572
0.11984059
0.1195235
0.11928133
0.11910865
0.11893143
0.11873676
0.11842318
0.1180563
0.11735142
0.11663997
0.1153004
0.11417614
0.1121919
0.11072314
0.10844818
0.10686811
0.10480332
0.10347525
0.10188037
0.10079334
0.10000417
0.098330826
0.098906392
0.10030709
0.10250433
0.10452891
0.1065113
0.10853306
0.11072625
0.11318459
0.11576746
0.11820171
0.12023643
0.12164651
0.12236819
0.12250205
0.12225841
0.12176136
0.1212385
0.12081813
0.12049688
0.12032029
0.1202461
0.12017124
0.12004799
0.11990154
0.1196242
0.11934893
0.11872151
0.11814555
0.11689797
0.11586461
0.11391288
0.11240935
0.11000627
0.10824635
0.105903
0.10430451
0.10253098
0.10107865
0.10015599
0.098162852
0.098936962
0.10023406
0.10259346
0.10508573
0.10767935
0.11030119
0.11292008
0.11567301
0.11850735
0.12111634
0.12318077
0.12438687
0.12481835
0.12462447
0.12400695
0.12325411
0.12247357
0.12174339
0.12116144
0.12078376
0.12054895
0.1204405
0.12037561
0.12037972
0.12026912
0.12022526
0.11983582
0.11954644
0.11852494
0.11773321
0.11585513
0.11442401
0.11194686
0.11005257
0.10744795
0.10555447
0.10353877
0.10168028
0.10052001
0.098543972
0.099507057
0.10068013
0.10300352
0.10586524
0.10914499
0.11258682
0.11578332
0.11888032
0.12185796
0.12443724
0.12613811
0.12699326
0.12684351
0.12592239
0.12482543
0.12377912
0.12290752
0.12229775
0.12185924
0.12162753
0.12160578
0.12168841
0.12173769
0.12183433
0.12182159
0.12188626
0.12157151
0.12145436
0.12055808
0.11998943
0.11827279
0.11690422
0.11443719
0.11234806
0.10950099
0.10706339
0.10488245
0.10246363
0.1010104
0.098252073
0.09989686
0.10151599
0.10401507
0.10729955
0.11121409
0.11560394
0.11971023
0.12346909
0.12693186
0.12961641
0.13111694
0.131101
0.12999008
0.12846123
0.12675926
0.12515431
0.12385347
0.12284165
0.1221288
0.12173575
0.12155098
0.12153655
0.12158861
0.12179969
0.12196482
0.12230537
0.12229144
0.12257793
0.12211028
0.12194215
0.12067381
0.11967129
0.11729094
0.11547113
0.11255951
0.10986901
0.10720903
0.1043421
0.10199172
0.099683839
0.1015708
0.1036917
0.10653929
0.11043565
0.11485822
0.11984979
0.12496522
0.12932875
0.13280986
0.13503973
0.13531499
0.13388217
0.13158391
0.12909029
0.12685826
0.1251026
0.12389491
0.12316039
0.12273864
0.12260066
0.12269333
0.12298418
0.12327704
0.12364684
0.12388303
0.12438636
0.12450176
0.12503607
0.12475411
0.12493309
0.12397068
0.12320174
0.12123652
0.1189276
0.1161255
0.1126303
0.11003888
0.10648778
0.10353703
0.099655289
0.10281301
0.10677259
0.11108984
0.11660984
0.12282661
0.12887697
0.13394168
0.13843236
0.14200556
0.14316524
0.14127376
0.13773453
0.13378603
0.13021528
0.12731569
0.12519751
0.12376654
0.12278257
0.1221367
0.12185947
0.12182319
0.12199245
0.12218461
0.12261817
0.12297321
0.12374888
0.12426305
0.12504199
0.12545185
0.12617924
0.12620096
0.12620112
0.12524189
0.12366713
0.12164758
0.11829559
0.11477087
0.11177957
0.10709124
0.10412181
0.10812786
0.11551771
0.12242139
0.12845412
0.13589141
0.14107066
0.14267082
0.14409527
0.14663791
0.14711629
0.1441832
0.13884739
0.13322844
0.12877298
0.12581969
0.12405713
0.12318467
0.12281081
0.12281601
0.12307822
0.12347953
0.12404233
0.12447013
0.12498748
0.12553448
0.1262474
0.12696986
0.12785983
0.12860561
0.12956855
0.12999979
0.13061423
0.13027086
0.12941946
0.12765112
0.12492038
0.12056726
0.11742931
0.1120691
0.10911868
0.11616093
0.12653851
0.13417981
0.13864171
0.14114676
0.14305286
0.14285757
0.14209348
0.14370347
0.14500831
0.14294388
0.13796773
0.13219866
0.12740877
0.12427438
0.1223438
0.12122924
0.12061658
0.12048535
0.12057269
0.12073272
0.1210214
0.12126646
0.12183213
0.12241513
0.1232949
0.12435174
0.12546974
0.12708174
0.12824816
0.13009738
0.13124016
0.13271487
0.13360362
0.13335938
0.1330993
0.12930846
0.12666343
0.11987338
0.12299571
0.1333413
0.14313291
0.14419105
0.14269317
0.1406076
0.136214
0.13532352
0.13313651
0.12566525
0.12334802
0.12373432
0.12229167
0.12114799
0.1198228
0.1194402
0.11988116
0.12056683
0.12141402
0.12237246
0.12337858
0.12434444
0.125279
0.12590364
0.12656423
0.12739748
0.12819673
0.12908314
0.13011596
0.13118996
0.13273866
0.13420967
0.13645773
0.13825493
0.14145084
0.14184435
0.1448552
0.14196845
0.14034226
0.12750841
0.17811682
0.14997057
0.11505653
0.092690926
0.077608577
0.062418332
0.044053908
0.038782144
0.051590956
0.064502229
0.072220344
0.079147331
0.086369536
0.093649654
0.099886947
0.10438568
0.10762554
0.10995084
0.11161473
0.11274048
0.11377345
0.11436061
0.11521254
0.11554765
0.11626555
0.11715892
0.11782925
0.11900299
0.11964087
0.12100497
0.12201471
0.12411275
0.12560481
0.1291935
0.1311686
0.13751363
0.13975269
0.15084799
0.15288723
0.17541774
0.098742473
0.09909377
0.099561685
0.098777862
0.099108595
0.098429191
0.09863345
0.098236953
0.098368175
0.098327641
0.09850651
0.098684369
0.098926159
0.09919092
0.09945722
0.099715718
0.099951814
0.10016138
0.10033983
0.10048776
0.10060765
0.10070026
0.10077147
0.10082405
0.10086086
0.10088671
0.10090369
0.10091484
0.10093193
0.10094908
0.100953
0.10096453
0.10097034
0.10098208
0.10100223
0.10109091
0.10110493
0.10117936
0.10098854
0.10025596
0.10030931
0.099222091
0.099569127
0.098729816
0.098993186
0.098377338
0.098504884
0.098167506
0.098270111
0.098243849
0.098397245
0.098592125
0.098839643
0.099112881
0.099389133
0.099654253
0.099897383
0.10011355
0.1002988
0.10045298
0.10058011
0.10068032
0.10075791
0.10081609
0.10085753
0.1008868
0.10090761
0.1009197
0.100937
0.10096274
0.10096991
0.10099765
0.1010157
0.10102233
0.10104578
0.1010766
0.10110181
0.10122758
0.10153112
0.10214882
0.10034364
0.099080483
0.099559625
0.098678394
0.098931926
0.098330379
0.098423414
0.098088158
0.098182254
0.098181024
0.098338657
0.09854609
0.098807737
0.099099701
0.099399122
0.099680485
0.099935589
0.10016058
0.100353
0.10051254
0.10064334
0.10074606
0.1008255
0.10088463
0.10092564
0.10095053
0.10096596
0.10097748
0.10099282
0.10098826
0.10098332
0.10099853
0.10101273
0.10102539
0.10105629
0.10108032
0.10106299
0.10104774
0.1010198
0.10056008
0.10099633
0.099098247
0.099596997
0.098636952
0.098813308
0.098280159
0.098287361
0.098002391
0.098052313
0.098056547
0.098193982
0.098406929
0.098675358
0.098972908
0.099283257
0.099583418
0.09985704
0.10009772
0.10030425
0.10047573
0.10061731
0.10073061
0.10081832
0.10088444
0.10093167
0.10096129
0.10097861
0.1009939
0.10102131
0.1010291
0.10104009
0.1010654
0.10106869
0.10105891
0.10108695
0.10111852
0.10109441
0.1011207
0.10130246
0.10166442
0.10078692
0.099030309
0.099630797
0.098579276
0.098783056
0.098230461
0.098207392
0.097921281
0.097947684
0.097959298
0.098103065
0.098332091
0.098619242
0.098938744
0.099261504
0.099570393
0.099853738
0.10010363
0.1003185
0.10049724
0.10064379
0.1007602
0.1008497
0.10091552
0.1009654
0.10099975
0.10101837
0.10103407
0.10104968
0.10103901
0.10105666
0.10108413
0.1010898
0.10106031
0.10109873
0.10112861
0.10108453
0.10105347
0.10096879
0.10052373
0.10126785
0.099047681
0.09968448
0.098519207
0.098676621
0.098142513
0.098076223
0.097811925
0.097807147
0.097828403
0.097962837
0.098189052
0.098477252
0.098801994
0.099143823
0.099473093
0.099774486
0.1000392
0.10026648
0.10045585
0.10061214
0.10073613
0.10083268
0.10090574
0.10095994
0.10099745
0.10102161
0.10104456
0.10105987
0.10106137
0.10109692
0.10112265
0.10112608
0.10110319
0.10113536
0.10116139
0.10113608
0.10114903
0.10124345
0.10145455
0.10096368
0.098951787
0.099706794
0.09846043
0.098651266
0.098075033
0.097981597
0.097708005
0.09767837
0.097694425
0.097834425
0.098075736
0.098386024
0.098733171
0.099085019
0.099425739
0.09973989
0.10001849
0.10025856
0.10045973
0.10062409
0.10075723
0.10086157
0.10093937
0.10099416
0.10103011
0.10105361
0.10107709
0.10107375
0.10108202
0.10114934
0.10117385
0.1011678
0.10113866
0.10114398
0.10116241
0.10112275
0.10110836
0.10099326
0.10066148
0.10132151
0.09902079
0.099733443
0.098361443
0.098561418
0.09796425
0.097854811
0.09757855
0.097528223
0.097548302
0.097685409
0.097927883
0.098242694
0.09859987
0.098973161
0.099334002
0.099666285
0.099959722
0.10021173
0.10042175
0.10059451
0.10073293
0.10084246
0.10092731
0.10099107
0.10103342
0.10106227
0.10108925
0.10108502
0.10109573
0.10115841
0.10119383
0.10119106
0.10116244
0.10116194
0.10118837
0.10117918
0.10119597
0.10121236
0.10132665
0.10102591
0.09895054
0.099747066
0.098286608
0.098515616
0.097869787
0.097742418
0.097444783
0.09737417
0.097385826
0.097526727
0.097780545
0.098114463
0.098491998
0.098880143
0.09925768
0.099607121
0.099917869
0.10018566
0.10041089
0.10059604
0.10074585
0.10086391
0.10095481
0.10102244
0.10106619
0.10109703
0.10111288
0.10112156
0.10117469
0.1012114
0.10124413
0.10123306
0.10119058
0.10118353
0.10119105
0.10117332
0.10116421
0.10106702
0.10084041
0.10124746
0.099065445
0.09975781
0.098200358
0.098438548
0.097749451
0.097612587
0.097291768
0.097204881
0.097212085
0.097353535
0.097613339
0.09795836
0.09835182
0.098761907
0.09916016
0.099529331
0.099856968
0.10013895
0.10037546
0.10056907
0.10072541
0.10085152
0.1009504
0.10102521
0.10107617
0.10110674
0.10110201
0.10110731
0.10120532
0.10124533
0.10126384
0.10123927
0.1012232
0.10124225
0.10124901
0.10124584
0.10124819
0.10122492
0.10128038
0.10101245
0.098994848
0.099749276
0.098134113
0.098375993
0.097631065
0.097480625
0.09712653
0.097023118
0.097019682
0.09716375
0.097433513
0.097796178
0.098210071
0.098640586
0.099060027
0.099450361
0.099798051
0.1000982
0.10035077
0.10055871
0.10072737
0.10086133
0.10096865
0.10105169
0.10111477
0.10115044
0.10113863
0.10115954
0.10125045
0.1012803
0.10126237
0.10124178
0.10124455
0.10126584
0.10126055
0.10125198
0.10123486
0.10114033
0.10101674
0.10111695
0.099121639
0.099749064
0.098074548
0.098298543
0.097497832
0.097334121
0.09694355
0.096824644
0.096810695
0.096956347
0.097235113
0.097613759
0.098048152
0.098503012
0.098945867
0.099358927
0.099727337
0.1000452
0.10031322
0.10053267
0.10071097
0.10085449
0.10096732
0.10105639
0.1011245
0.10116035
0.10116994
0.10122651
0.10128251
0.10128787
0.10127206
0.1012724
0.10128692
0.10132884
0.10132438
0.10132581
0.10131319
0.10125568
0.1012794
0.10089999
0.099088631
0.099701197
0.098023565
0.098215825
0.097358123
0.097174731
0.096743435
0.09660772
0.096580518
0.096727995
0.097017442
0.097414963
0.097872591
0.098352919
0.098821353
0.099259321
0.099651476
0.099990308
0.100276
0.10051224
0.10070323
0.10085722
0.10097962
0.10107388
0.10114417
0.10118335
0.10122205
0.10128767
0.10130843
0.10130434
0.10131373
0.10130067
0.10132465
0.10134872
0.10133603
0.10133684
0.10132071
0.10121075
0.10116154
0.10094262
0.099198095
0.099661086
0.097977448
0.098114798
0.097206618
0.096997365
0.0965235
0.09636897
0.096327698
0.096476438
0.0967771
0.097194362
0.097677397
0.098185937
0.098682154
0.099147164
0.099564447
0.099925585
0.10023096
0.10048262
0.10068723
0.10085225
0.10098281
0.10108242
0.1011536
0.10120797
0.10125757
0.10130113
0.10132622
0.10134352
0.10134147
0.10135017
0.10138108
0.10140852
0.10140601
0.10141729
0.10139234
0.10130878
0.10130596
0.10074684
0.09919867
0.099577435
0.097921092
0.097990146
0.097047446
0.096797834
0.0962815
0.096105419
0.096048623
0.096198111
0.096511106
0.096950138
0.097461615
0.098000935
0.098527803
0.099022465
0.09946826
0.099853558
0.10018151
0.10045204
0.10067215
0.10084979
0.10099002
0.10109334
0.10117265
0.10123843
0.10129033
0.10132607
0.10135169
0.10136897
0.10136742
0.10138827
0.10141968
0.10143087
0.10141789
0.10142933
0.10139164
0.1012851
0.10126617
0.10070049
0.099258065
0.099495581
0.097865529
0.097842304
0.096877919
0.09657528
0.096013052
0.09581378
0.095740101
0.095889229
0.096215458
0.096678146
0.097221343
0.09779447
0.098355127
0.0988816
0.099358405
0.099771493
0.10012341
0.10041505
0.10065186
0.10084271
0.1009932
0.1011061
0.10119236
0.10126286
0.10131355
0.10134647
0.10138649
0.10139756
0.10142061
0.10142313
0.10147949
0.10148986
0.10148566
0.1014998
0.10146218
0.10137876
0.10136567
0.10055799
0.099261591
0.099388452
0.09780351
0.09767101
0.096697048
0.09632732
0.095715948
0.095488409
0.095397901
0.095544844
0.09588551
0.096374488
0.09695278
0.097562725
0.09816111
0.098723362
0.099233916
0.099678157
0.10005672
0.10037222
0.10062741
0.1008323
0.10099507
0.10112192
0.10122162
0.10129573
0.10134672
0.10138505
0.10141426
0.1014407
0.10144918
0.10148267
0.1015158
0.10152112
0.10151138
0.1015204
0.10146383
0.10138899
0.10138025
0.10044159
0.099267931
0.099269578
0.097732132
0.097479119
0.096504351
0.096049286
0.095387375
0.095123032
0.095016816
0.095158952
0.095515481
0.096033608
0.096651461
0.097303731
0.097943307
0.098543662
0.099092035
0.09957049
0.099978341
0.10031955
0.10059798
0.10082033
0.10099838
0.10113674
0.10124425
0.1013166
0.10138279
0.10141777
0.10145877
0.10147381
0.10150232
0.10152461
0.1015838
0.10157523
0.1015716
0.10157966
0.10151899
0.10145119
0.10144256
0.10031415
0.099258058
0.099141073
0.097659168
0.097257581
0.096294875
0.095732672
0.095021287
0.094713847
0.094590337
0.09472504
0.095098312
0.095648695
0.096314804
0.097018514
0.097704931
0.098342828
0.098930578
0.099446043
0.099886228
0.10025768
0.10056348
0.10081006
0.10100856
0.1011526
0.1012615
0.10135072
0.10142237
0.10145856
0.10150638
0.10152519
0.10155223
0.10158618
0.10162519
0.1016203
0.10161517
0.10162141
0.10155518
0.10149532
0.10149103
0.10018254
0.099227771
0.098994835
0.097576307
0.097012851
0.096059059
0.095373618
0.094611648
0.094256358
0.094109864
0.09423508
0.09462498
0.095213492
0.09593573
0.096695899
0.097438006
0.098119332
0.098746891
0.099304719
0.099781408
0.10018343
0.10051456
0.10078657
0.10101206
0.10116779
0.10128413
0.1013856
0.10146526
0.10150491
0.10155447
0.10158392
0.10161452
0.10165418
0.10168524
0.10167073
0.10167253
0.10167708
0.10160778
0.10154988
0.10155071
0.10004661
0.099175172
0.098840775
0.097476257
0.096753901
0.095786945
0.094969998
0.094156033
0.093741776
0.093565446
0.093678199
0.094086164
0.094719797
0.0954856
0.09629862
0.097110954
0.097863759
0.098537145
0.099143285
0.099657068
0.10008432
0.10044161
0.10073745
0.1010061
0.10120204
0.10133358
0.10142239
0.10152202
0.10155005
0.10162086
0.10164023
0.10169135
0.10172616
0.10174685
0.10172553
0.10173047
0.10173632
0.10166393
0.10160816
0.10161597
0.099903226
0.099096346
0.098676452
0.0973531
0.096477912
0.095475926
0.09451264
0.093648842
0.093159305
0.092946214
0.093042254
0.09347365
0.094144087
0.094936947
0.095813428
0.096701201
0.097552784
0.098289032
0.098942965
0.099498517
0.099968866
0.10037478
0.10071072
0.1010012
0.10122986
0.10135674
0.10145454
0.10156275
0.10161324
0.10167326
0.10172624
0.10175891
0.10181036
0.10180617
0.10178792
0.10179739
0.10180415
0.10172746
0.10167462
0.10168787
0.099751626
0.099004036
0.098496633
0.097206116
0.096181073
0.095111886
0.094003001
0.093080446
0.092500008
0.092236427
0.092315817
0.092770555
0.093452636
0.094319793
0.095281964
0.096236861
0.09716616
0.097988239
0.098703571
0.099329037
0.099875835
0.10033194
0.10071131
0.10099741
0.10123729
0.10134031
0.10148964
0.10158227
0.10168199
0.10173713
0.10180717
0.10185607
0.10188981
0.10187913
0.10185235
0.10187872
0.10188195
0.10180046
0.1017515
0.1017673
0.099594658
0.098904294
0.09830021
0.097026872
0.095856475
0.09469564
0.093434007
0.092438345
0.091749314
0.091418502
0.091483741
0.09193987
0.092644087
0.093632786
0.094685208
0.095731439
0.09674578
0.097660495
0.098468698
0.0991604
0.099762605
0.1002267
0.10065007
0.10100609
0.10121637
0.10134207
0.10152769
0.10161198
0.10174027
0.10180811
0.10189349
0.10194413
0.10197654
0.10195055
0.10192961
0.10196856
0.10197266
0.10188379
0.10184023
0.10185647
0.099447507
0.098780592
0.098084714
0.096810505
0.095507819
0.094224744
0.092803581
0.091700962
0.09088845
0.090474737
0.090511422
0.090939984
0.091741551
0.092819422
0.094000759
0.095177571
0.096325487
0.09730623
0.098205358
0.098931042
0.099583308
0.10012309
0.10059399
0.10098738
0.10117491
0.10136296
0.1015504
0.10166816
0.10180869
0.10189281
0.10199381
0.10204149
0.10205873
0.10202794
0.10201711
0.10207699
0.1020735
0.10197911
0.10194083
0.10195671
0.099321105
0.098631381
0.097842883
0.096562149
0.095140791
0.093694611
0.092100769
0.090855572
0.089896828
0.089376888
0.089352981
0.089764331
0.090695253
0.091879965
0.093203213
0.094538288
0.095796254
0.09687453
0.097852692
0.098685841
0.099388302
0.099972419
0.10049847
0.1009063
0.10112948
0.10139759
0.10156146
0.10174617
0.10186712
0.10200052
0.10208635
0.10214524
0.10214047
0.10211104
0.10211931
0.10220426
0.10218781
0.102089
0.10205701