/*--------------------------------*- C++ -*----------------------------------*\
  =========                 |
  \\      /  F ield         | OpenFOAM: The Open Source CFD Toolbox
   \\    /   O peration     | Website:  https://openfoam.org
    \\  /    A nd           | Version:  11
     \\/     M anipulation  |
\*---------------------------------------------------------------------------*/
FoamFile
{
    format      ascii;
    class       volScalarField;
    location    "5";
    object      p;
}
// * * * * * * * * * * * * * * * * * * * * * * * * * * * * * * * * * * * * * //

dimensions      [0 2 -2 0 0 0 0];

internalField   nonuniform List<scalar> 
9600
(
0.00042737225
0.00061803593
0.00057876365
0.0005150544
0.00047007649
0.00043317848
0.00038895416
0.00034151527
0.00028679509
0.00022266347
0.00014811256
6.3119725e-05
-3.1480764e-05
-0.00013307538
-0.00023759706
-0.00034118767
-0.00043768109
-0.00052389164
-0.00059749919
-0.0006517953
-0.00068144678
-0.00068622075
-0.00066853726
-0.00063354552
-0.00058598771
-0.00052882895
-0.0004612247
-0.00039023135
-0.00032148366
-0.00025879458
-0.00020385671
-0.0001581119
-0.0001213045
-9.3245661e-05
-7.5471767e-05
-6.0832616e-05
-5.9976538e-05
-5.9500027e-05
-8.9654198e-05
-0.00013335439
0.00049980107
0.00056732712
0.0005328246
0.00046595196
0.00042093595
0.00038248562
0.00033847567
0.0002897291
0.00023408913
0.00016881084
9.4394598e-05
1.0515644e-05
-8.1546894e-05
-0.000179374
-0.00027926773
-0.00037597833
-0.0004643979
-0.00054366591
-0.00061130374
-0.00065989691
-0.00068562309
-0.00068772095
-0.00066958629
-0.00063435102
-0.00058752211
-0.000531692
-0.00046357254
-0.0003905096
-0.00032009518
-0.0002550317
-0.00019679527
-0.00014739344
-0.00010570928
-7.4230905e-05
-5.1104839e-05
-3.429411e-05
-2.8286535e-05
-2.7704193e-05
-2.7915087e-05
-0.00010238806
0.00055844078
0.00061808186
0.00056066403
0.00051415538
0.00047567352
0.00043286481
0.00039089951
0.00033886168
0.00028246692
0.00021688024
0.00014045745
5.4201778e-05
-4.0738394e-05
-0.00014207216
-0.00024575739
-0.000346544
-0.00043974186
-0.00052422758
-0.0005972164
-0.00065202014
-0.00068334032
-0.00069179944
-0.00067776451
-0.00064786338
-0.00060716001
-0.00055785749
-0.00049658591
-0.00043043461
-0.00036608658
-0.00030679139
-0.00025328608
-0.00020803233
-0.00017042352
-0.00013943177
-0.00012052474
-0.0001011742
-9.4410201e-05
-9.1862385e-05
-0.00010153281
-0.00016772954
0.00060901973
0.00054554242
0.00047247179
0.00042183388
0.00037744592
0.00033527296
0.00029091216
0.00024375267
0.00018633965
0.00011935478
4.5267555e-05
-3.7667181e-05
-0.00012806774
-0.00022343026
-0.00031997739
-0.00041218051
-0.00049544319
-0.00056969768
-0.0006328101
-0.00067685553
-0.00069879512
-0.00069733784
-0.00067879281
-0.000642996
-0.00059594582
-0.00053998112
-0.00047099303
-0.00039592391
-0.00032296007
-0.00025499857
-0.0001931596
-0.00013989118
-9.393503e-05
-5.7927145e-05
-3.160184e-05
-1.19987e-05
-7.7871372e-06
-7.3418601e-06
-1.6511633e-06
-6.1623632e-05
0.00060377039
0.00056494701
0.00051784489
0.00049901695
0.00047145728
0.00042767342
0.00038349309
0.00033596163
0.00027506962
0.00020675026
0.00012854273
4.0625044e-05
-5.5242739e-05
-0.00015675166
-0.00025982442
-0.00035874932
-0.00044942951
-0.00053198628
-0.00060409014
-0.00065918045
-0.00069274341
-0.00070405711
-0.00069194968
-0.00066569723
-0.00062965917
-0.000585265
-0.00052858591
-0.00046626705
-0.00040507522
-0.00034844667
-0.00029639294
-0.00025172787
-0.00021363175
-0.00018082191
-0.00015703839
-0.00013508721
-0.00011694692
-0.00010259289
-9.3914415e-05
-0.00011488059
0.00059722458
0.00051511623
0.00044416649
0.00039165864
0.00034725931
0.00029973947
0.00025394636
0.00020570185
0.0001467002
7.7742814e-05
3.0638533e-06
-7.9629943e-05
-0.00016950326
-0.00026384039
-0.0003587116
-0.00044849439
-0.00052887278
-0.00060019264
-0.00066026088
-0.00070109974
-0.00071969267
-0.00071545307
-0.0006959176
-0.00065945373
-0.00061192943
-0.00055516384
-0.00048500108
-0.00040820172
-0.00033254531
-0.00026145042
-0.00019581831
-0.00013880353
-8.894821e-05
-4.9608561e-05
-2.1080564e-05
-2.2818447e-06
4.078488e-06
5.0794244e-06
5.7498417e-06
-2.8341366e-05
0.00056911185
0.00051416026
0.00047896209
0.00047131237
0.00045172496
0.00041490686
0.00037352093
0.00032284403
0.00026318826
0.00019084391
0.00011055825
2.0557011e-05
-7.6943236e-05
-0.00017925597
-0.0002822308
-0.00037993714
-0.00046862803
-0.00054932525
-0.00061994319
-0.00067530682
-0.00070968309
-0.00072235907
-0.00071189612
-0.00068770931
-0.0006542413
-0.00061206664
-0.00055778036
-0.00049777901
-0.00043827202
-0.00038308275
-0.0003317162
-0.00028714231
-0.00024786435
-0.00021316692
-0.00018385944
-0.00015584107
-0.00012895333
-0.00010325834
-8.7076745e-05
-8.7243875e-05
0.00052519023
0.00048590491
0.00043314236
0.00038001433
0.00032968362
0.00027819569
0.00022932435
0.00017665717
0.00011586479
4.5551461e-05
-3.1446207e-05
-0.00011525264
-0.00020599074
-0.00030083747
-0.0003957442
-0.00048495408
-0.00056435158
-0.00063472261
-0.00069356216
-0.00073190771
-0.00074732362
-0.00074133631
-0.00072106789
-0.00068445369
-0.00063648933
-0.00057864463
-0.000507295
-0.00042912238
-0.00035093556
-0.00027672855
-0.00020732023
-0.00014665849
-9.3531135e-05
-5.0974518e-05
-2.1393484e-05
-1.8433222e-06
5.7247318e-06
9.5471211e-06
7.3412195e-06
-1.2799454e-05
0.00049678662
0.00048384683
0.00045031933
0.00043085979
0.00041754883
0.00039305596
0.00035467011
0.00030361688
0.00024151628
0.00016866706
8.5094617e-05
-7.5620573e-06
-0.00010742437
-0.00021132414
-0.00031491826
-0.00041206414
-0.00049924726
-0.00057803518
-0.0006469333
-0.0007008889
-0.00073560054
-0.0007489299
-0.00073906244
-0.00071497749
-0.00068189842
-0.00063930217
-0.00058503184
-0.0005253674
-0.00046579149
-0.00041042745
-0.0003583667
-0.00031285286
-0.00027132225
-0.00023350647
-0.00019762544
-0.00016303846
-0.00013135642
-0.00010047783
-8.100617e-05
-6.7410712e-05
0.00047210167
0.00046786306
0.00042369612
0.0003789487
0.0003289871
0.00027234762
0.00021689518
0.00015910306
9.4416841e-05
2.1672004e-05
-5.8225964e-05
-0.00014525749
-0.00023858173
-0.000335534
-0.00043208392
-0.00052231297
-0.00060222096
-0.00067308179
-0.00073174164
-0.00076906114
-0.00078248688
-0.00077527591
-0.00075426058
-0.00071836944
-0.00067039619
-0.00061130374
-0.00053898939
-0.00045985495
-0.00037936314
-0.00030229656
-0.00022930582
-0.00016516677
-0.0001092933
-6.3818354e-05
-3.2707112e-05
-1.0901437e-05
-1.7203649e-06
3.5525074e-06
1.0888569e-06
-1.2087368e-05
0.00045808215
0.00046141972
0.00042861187
0.00040329651
0.00038007436
0.00035643882
0.00032450598
0.00027552743
0.00021260776
0.00013740445
5.1057097e-05
-4.4927556e-05
-0.00014789655
-0.00025427138
-0.00035936352
-0.00045674689
-0.00054293331
-0.00061998598
-0.00068654896
-0.00073828483
-0.00077202178
-0.00078463775
-0.00077439907
-0.00074892635
-0.00071421873
-0.0006686842
-0.00061215223
-0.00055065966
-0.00048905224
-0.00043147136
-0.00037701961
-0.00032886352
-0.00028409526
-0.00024173699
-0.00020001936
-0.00015995958
-0.00012589151
-9.3661489e-05
-7.1802991e-05
-5.1286965e-05
0.00045021965
0.00045403779
0.00041949304
0.00037774142
0.00033154095
0.00027782276
0.00021764939
0.00015294437
8.2675319e-05
5.1146154e-06
-7.966766e-05
-0.00017164735
-0.00026939369
-0.00037010804
-0.00046976681
-0.00056225408
-0.00064369491
-0.00071588859
-0.00077527635
-0.00081270926
-0.00082545115
-0.00081774183
-0.00079599992
-0.00076140605
-0.00071393217
-0.00065361001
-0.00058065517
-0.00050079836
-0.00041820868
-0.00033856555
-0.00026226941
-0.00019477003
-0.00013642991
-8.8442043e-05
-5.4113659e-05
-2.9051922e-05
-1.7652163e-05
-1.0813086e-05
-1.2178728e-05
-1.8692466e-05
0.00044559112
0.00044698068
0.00041703495
0.000379928
0.00034942183
0.00032089983
0.00028722912
0.00023886408
0.00017519196
9.7746672e-05
7.8618074e-06
-9.2164821e-05
-0.00019911932
-0.00030902065
-0.00041663245
-0.0005151369
-0.00060095959
-0.00067655464
-0.0007404896
-0.00078903757
-0.00082037655
-0.0008312351
-0.00081954993
-0.00079131076
-0.00075314554
-0.00070293125
-0.00064205583
-0.00057675765
-0.00051087479
-0.00044896147
-0.00038998335
-0.00033732133
-0.0002879462
-0.00024073943
-0.00019429534
-0.0001488837
-0.00011499818
-8.2085864e-05
-5.9731646e-05
-3.8975912e-05
0.00044293405
0.00044089414
0.00041401571
0.00037553582
0.00033333831
0.00028524587
0.00022535569
0.00015475833
7.7396605e-05
-7.0216258e-06
-9.8801898e-05
-0.00019773639
-0.00030184685
-0.0004080457
-0.00051210168
-0.00060766316
-0.00069113596
-0.00076498705
-0.00082545477
-0.00086374295
-0.00087684492
-0.0008690894
-0.00084728068
-0.0008140357
-0.00076691634
-0.00070568519
-0.00063237171
-0.00055151961
-0.00046706897
-0.0003848347
-0.00030547658
-0.00023458329
-0.00017356613
-0.00012273332
-8.4653498e-05
-5.5137872e-05
-3.8949886e-05
-2.8989669e-05
-2.7617672e-05
-2.5979024e-05
0.00044139816
0.00043594416
0.00041058834
0.00037266399
0.00033139825
0.00029386936
0.00025091438
0.00019716561
0.00013082876
5.0047502e-05
-4.4398122e-05
-0.00014955836
-0.00026164655
-0.00037614135
-0.000487377
-0.00058791676
-0.00067409023
-0.00074868344
-0.00080988278
-0.0008544153
-0.00088205093
-0.0008902986
-0.00087594607
-0.00084454818
-0.00080131481
-0.00074549792
-0.00067898807
-0.00060825149
-0.00053593755
-0.00046735558
-0.00040159439
-0.00034253429
-0.00028695461
-0.00023508539
-0.00018569897
-0.00013854321
-9.8947707e-05
-6.7226983e-05
-4.6724087e-05
-2.9066859e-05
0.00044115268
0.00043359655
0.00040834551
0.00037224999
0.00032922417
0.00028579266
0.00022862167
0.00015631341
7.2914806e-05
-1.9638981e-05
-0.00012046691
-0.00022825646
-0.00034083216
-0.0004543756
-0.00056382854
-0.00066297691
-0.00074851627
-0.00082365428
-0.0008848008
-0.00092401923
-0.00093808377
-0.00093103631
-0.00091020318
-0.00087674766
-0.00082929944
-0.00076756943
-0.00069326084
-0.00061106545
-0.00052451167
-0.00043970885
-0.00035699739
-0.00028240621
-0.00021750619
-0.00016259141
-0.00011998678
-8.5759323e-05
-6.2704929e-05
-4.6177253e-05
-3.7298274e-05
-2.6000034e-05
0.00044430036
0.00043392358
0.0004082006
0.00037242027
0.00032597015
0.00027969487
0.00022496056
0.00016043494
8.4894119e-05
-3.8620251e-06
-0.00010519703
-0.00021737485
-0.00033595253
-0.00045623377
-0.00057205651
-0.00067524647
-0.0007622537
-0.0008363341
-0.00089495354
-0.0009349843
-0.00095790846
-0.00096226215
-0.00094546625
-0.00091137574
-0.00086347566
-0.00080172687
-0.00072907314
-0.00065125133
-0.00057054044
-0.00049302271
-0.00041846596
-0.00035106927
-0.00028813848
-0.0002308761
-0.00017753383
-0.00012866426
-8.8080343e-05
-5.7606643e-05
-3.9590202e-05
-2.4395198e-05
0.00044920551
0.00043656888
0.00040913922
0.00037280953
0.00032368455
0.00027580829
0.00021845559
0.00014609005
5.9040289e-05
-4.0781676e-05
-0.00015122054
-0.00026954356
-0.00039242004
-0.00051520572
-0.00063196693
-0.00073527835
-0.00082241423
-0.00089761408
-0.00095770679
-0.00099683687
-0.0010118717
-0.0010059814
-0.00098545234
-0.00095024246
-0.00090063925
-0.00083735405
-0.00076210273
-0.00067904151
-0.00059051795
-0.00050194957
-0.00041392012
-0.00033458454
-0.00026400058
-0.00020388666
-0.00015523603
-0.00011368741
-8.181558e-05
-5.653889e-05
-3.8737009e-05
-2.2657141e-05
0.00045425359
0.00044007994
0.00041065506
0.00037350711
0.00032216642
0.00027110026
0.00020949344
0.00013273003
4.408228e-05
-5.6308311e-05
-0.00016848622
-0.00029074286
-0.00041891081
-0.00054708013
-0.00066854305
-0.00077523757
-0.00086384
-0.00093782333
-0.00099455799
-0.0010303579
-0.0010481041
-0.0010481461
-0.0010282479
-0.00099233517
-0.00094132379
-0.00087651439
-0.00079921517
-0.00071368896
-0.00062336134
-0.00053545695
-0.0004496381
-0.00037202432
-0.00030021282
-0.00023551019
-0.00017811843
-0.00012786929
-8.7912628e-05
-5.8024233e-05
-3.7954495e-05
-2.108932e-05
0.00045960497
0.00044437772
0.00041290121
0.00037434982
0.00032064718
0.00026589768
0.00020035999
0.00011920938
2.5260382e-05
-8.2462132e-05
-0.00020343619
-0.00033402936
-0.00046865923
-0.00060141627
-0.00072491032
-0.00083216347
-0.00092032999
-0.00099340085
-0.0010497538
-0.001086595
-0.0011015762
-0.001096815
-0.0010756391
-0.0010383526
-0.00098612885
-0.00091997371
-0.00084073497
-0.00075297636
-0.00065944313
-0.0005667626
-0.00047477005
-0.00038950726
-0.00031252182
-0.00024409606
-0.00018572309
-0.00013475371
-9.2499641e-05
-5.977026e-05
-3.7006635e-05
-1.9232767e-05
0.0004656658
0.00044962321
0.00041633682
0.0003748749
0.0003194139
0.000259928
0.00018970258
0.00010362407
3.2126657e-06
-0.00011197549
-0.00024044311
-0.00037784682
-0.00051855793
-0.00065608582
-0.00078310374
-0.00089202692
-0.00098037323
-0.0010523211
-0.0011065625
-0.0011396546
-0.0011530153
-0.0011486324
-0.0011266909
-0.0010885957
-0.0010354844
-0.00096792457
-0.00088689906
-0.00079673083
-0.00069964878
-0.00060220722
-0.00050541732
-0.0004150433
-0.00033314842
-0.00025996517
-0.00019708615
-0.0001425864
-9.7481009e-05
-6.1904658e-05
-3.6123794e-05
-1.7098877e-05
0.00047265992
0.00045563386
0.00042079016
0.00037582749
0.00031775633
0.00025296895
0.00017779999
8.5663206e-05
-2.2669549e-05
-0.00014641889
-0.00028327001
-0.00042855211
-0.00057613612
-0.00071891746
-0.00084913169
-0.00095930815
-0.0010471542
-0.001117057
-0.0011684882
-0.0011994818
-0.0012111254
-0.0012051186
-0.0011822591
-0.0011435581
-0.0010894532
-0.0010206986
-0.0009382827
-0.00084585326
-0.0007453104
-0.00064309566
-0.00054098049
-0.00044459224
-0.0003568462
-0.00027819488
-0.00021053
-0.00015200077
-0.00010337698
-6.4575857e-05
-3.5498656e-05
-1.4128814e-05
0.00048067433
0.00046243243
0.00042577749
0.00037744071
0.00031574481
0.00024502127
0.00016390393
6.4269935e-05
-5.3485175e-05
-0.00018685329
-0.00033298611
-0.00048708531
-0.00064216316
-0.00079031073
-0.00092349016
-0.0010343588
-0.0011209548
-0.0011879996
-0.0012361381
-0.0012641291
-0.0012735145
-0.001266175
-0.0012425862
-0.0012031556
-0.0011483521
-0.0010790867
-0.00099560299
-0.0009010686
-0.0007970964
-0.00069012258
-0.00058203632
-0.00047928572
-0.00038451665
-0.00029933606
-0.00022637201
-0.00016327982
-0.00011054589
-6.8166653e-05
-3.57248e-05
-1.192081e-05
0.00048978499
0.00047006598
0.00043132594
0.00037939213
0.00031312985
0.00023558722
0.00014685286
3.8305205e-05
-9.0112803e-05
-0.00023449887
-0.00039128712
-0.00055517879
-0.0007182376
-0.00087166204
-0.0010073252
-0.0011181928
-0.0012025546
-0.0012657032
-0.0013094529
-0.0013347406
-0.0013414662
-0.0013322567
-0.0013076607
-0.0012677729
-0.0012129654
-0.0011436047
-0.0010594116
-0.00096322406
-0.00085603562
-0.00074438823
-0.00062986305
-0.00052003407
-0.00041764227
-0.00032471747
-0.00024523363
-0.00017669874
-0.00011917272
-7.278221e-05
-3.7310191e-05
-1.1486921e-05
0.00050001109
0.00047879324
0.00043747095
0.00038145682
0.00030952591
0.0002239997
0.0001256755
6.2516648e-06
-0.00013421429
-0.00029118942
-0.00046021353
-0.00063493361
-0.0008062943
-0.00096471938
-0.0011020912
-0.0012118243
-0.0012927124
-0.0013509058
-0.0013890258
-0.0014076024
-0.0014120382
-0.0014023127
-0.0013774153
-0.0013377309
-0.0012833772
-0.0012145661
-0.001130383
-0.0010332692
-0.00092317923
-0.00080715948
-0.00068596645
-0.00056824325
-0.00045767263
-0.00035577996
-0.00026807198
-0.00019266919
-0.00012937936
-7.833555e-05
-3.9723735e-05
-1.1907807e-05
0.00051215158
0.00048844309
0.00044439183
0.00038321149
0.00030431231
0.00020890592
9.8842819e-05
-3.349071e-05
-0.00018808061
-0.00035979773
-0.00054275223
-0.00072909063
-0.00090875029
-0.001071489
-0.0012093393
-0.0013163732
-0.0013917723
-0.0014437478
-0.0014792427
-0.0014961334
-0.0014947451
-0.0014805743
-0.0014538056
-0.0014138404
-0.0013602281
-0.0012926508
-0.0012093216
-0.0011121014
-0.0009999749
-0.00087974047
-0.00075224761
-0.00062585982
-0.00050574032
-0.00039389792
-0.00029673366
-0.00021292552
-0.00014231199
-8.5242529e-05
-4.2879493e-05
-1.3268892e-05
0.00052714541
0.0004997212
0.00045209723
0.00038394727
0.00029637454
0.00018881249
6.4418478e-05
-8.3568364e-05
-0.00025501243
-0.00044379377
-0.00064224082
-0.00084077871
-0.0010282993
-0.0011940746
-0.001330681
-0.0014334809
-0.0015012325
-0.0015400467
-0.0015598429
-0.0015682371
-0.0015685284
-0.0015565939
-0.0015314434
-0.0014935932
-0.0014425209
-0.0013776562
-0.0012966368
-0.0012005121
-0.0010877338
-0.00096388764
-0.00083062109
-0.00069520061
-0.00056457206
-0.00044139823
-0.00033300212
-0.00023887209
-0.00015912035
-9.428786e-05
-4.6849249e-05
-1.4954773e-05
0.0005454643
0.00051278745
0.00046019025
0.00038265347
0.0002841021
0.00016158186
1.9344115e-05
-0.00014775076
-0.00033909739
-0.00054749751
-0.00076306673
-0.00097414845
-0.0011685604
-0.0013350112
-0.0014670223
-0.0015637359
-0.0016275701
-0.0016645729
-0.0016825285
-0.0016828083
-0.0016699614
-0.0016498552
-0.0016220227
-0.0015839335
-0.0015340731
-0.001471724
-0.0013938469
-0.0013001396
-0.0011881642
-0.0010619878
-0.00092355649
-0.00077927709
-0.00063731451
-0.00050091304
-0.00037907211
-0.00027249645
-0.00018154445
-0.00010676806
-5.2154547e-05
-1.6477891e-05
0.00056819514
0.00052705125
0.00046725504
0.000377876
0.00026498551
0.00012389588
-4.0601447e-05
-0.00023111511
-0.00044588159
-0.00067655495
-0.00091073899
-0.0011344189
-0.0013344922
-0.0014988192
-0.0016202785
-0.0016976903
-0.0017373774
-0.0017505155
-0.0017511886
-0.0017500553
-0.001743374
-0.0017289798
-0.0017041276
-0.0016698937
-0.0016255747
-0.0015697292
-0.0014983646
-0.001410084
-0.0013016232
-0.0011755504
-0.0010335734
-0.00088107038
-0.00072756047
-0.00057641706
-0.00043884473
-0.00031725872
-0.00021259106
-0.00012513158
-6.0595446e-05
-1.9198673e-05
0.00059339621
0.00054059079
0.00047036408
0.00036658577
0.00023510924
7.0769127e-05
-0.00012159074
-0.00034070887
-0.00058324418
-0.00083840489
-0.0010910446
-0.0013255724
-0.001529112
-0.0016925117
-0.0018089422
-0.0018805485
-0.0019154669
-0.0019232203
-0.0019119635
-0.0018886255
-0.0018635459
-0.0018374057
-0.00180907
-0.0017755734
-0.0017343367
-0.0016832015
-0.001617418
-0.0015350795
-0.0014320025
-0.0013083579
-0.001165241
-0.0010057292
-0.00084059892
-0.0006733929
-0.00051716672
-0.000376873
-0.00025513237
-0.00015162099
-7.339598e-05
-2.2028435e-05
0.00062022681
0.00055336729
0.00046764014
0.0003440776
0.00018859648
-5.0508889e-06
-0.00023290018
-0.00048782812
-0.00076372612
-0.0010467501
-0.0013156593
-0.0015530822
-0.0017464451
-0.0018854357
-0.0019688777
-0.0020027991
-0.0020022154
-0.0019859413
-0.0019659329
-0.0019490738
-0.0019312265
-0.0019136398
-0.0018917814
-0.0018647816
-0.0018313826
-0.0017897385
-0.0017361066
-0.001665845
-0.0015741677
-0.0014582957
-0.0013188812
-0.0011564491
-0.00098174017
-0.00079892363
-0.00062249649
-0.00045988613
-0.00031755809
-0.00019418459
-9.8208096e-05
-3.5794582e-05
0.00064040904
0.00055725199
0.00045197826
0.00030243041
0.0001153437
-0.00011548648
-0.00038784527
-0.00068618599
-0.00099986651
-0.0013124319
-0.0016043758
-0.0018551711
-0.002047017
-0.0021734818
-0.0022361498
-0.0022522312
-0.0022383902
-0.0022026992
-0.0021515247
-0.0021026113
-0.0020655541
-0.0020360872
-0.0020103372
-0.001985268
-0.0019562478
-0.0019210127
-0.0018773966
-0.0018193287
-0.0017400173
-0.001635098
-0.0015031181
-0.0013418022
-0.0011599552
-0.0009612566
-0.0007617176
-0.00057089
-0.00040163659
-0.00025206785
-0.00013152253
-4.6967791e-05
0.00065870647
0.00055378352
0.0004216858
0.00023620129
3.8140916e-06
-0.00027755954
-0.00060784269
-0.00095902571
-0.0013103306
-0.0016432733
-0.0019311155
-0.0021563519
-0.0023101755
-0.0023832508
-0.0023866909
-0.0023528517
-0.0023040514
-0.0022557076
-0.0022046827
-0.0021591135
-0.0021241574
-0.0021007044
-0.0020816817
-0.0020635945
-0.0020475674
-0.0020305392
-0.0020046846
-0.0019644632
-0.0019068878
-0.001823625
-0.0017097941
-0.0015605641
-0.0013808764
-0.0011744266
-0.00095565833
-0.00073453487
-0.00053294056
-0.00035133289
-0.00020004123
-9.1257471e-05
0.00065954651
0.00052504826
0.00035154592
0.00011124074
-0.00018726716
-0.00053686505
-0.00093723548
-0.0013517236
-0.0017490379
-0.0021091777
-0.0024100643
-0.0026281122
-0.0027365839
-0.0027542393
-0.0027169992
-0.0026419669
-0.0025430074
-0.0024443759
-0.0023658087
-0.0023035101
-0.0022600501
-0.0022302877
-0.0022095976
-0.0021960846
-0.0021852734
-0.0021757202
-0.0021616785
-0.0021407424
-0.0021016463
-0.0020454958
-0.0019553652
-0.0018274607
-0.0016589825
-0.0014497892
-0.0012167462
-0.00096366556
-0.00072071296
-0.00049224695
-0.0002925251
-0.00014330444
0.00065422423
0.00048374583
0.00025022289
-7.4862086e-05
-0.0004711625
-0.00091314456
-0.0013968547
-0.0018706748
-0.0023027134
-0.0026668141
-0.0029266591
-0.0030626807
-0.0030731376
-0.0030013522
-0.0028842485
-0.0027480372
-0.0026201742
-0.0025076729
-0.0024182206
-0.0023487672
-0.0023005027
-0.0022732526
-0.0022567229
-0.0022487202
-0.0022483443
-0.0022563813
-0.0022699051
-0.0022814952
-0.0022762923
-0.0022564542
-0.0022054444
-0.0021174743
-0.0019835369
-0.0017902347
-0.0015558043
-0.001281146
-0.0010013219
-0.00073259847
-0.00047643481
-0.00026582014
0.00058284309
0.00035285411
8.4326405e-06
-0.00045280381
-0.00099887425
-0.0015834392
-0.0021544252
-0.002648463
-0.0030482245
-0.0033765274
-0.0035954825
-0.0036354675
-0.0035303607
-0.0033465935
-0.00313002
-0.0029245935
-0.0027568
-0.0026292177
-0.0025328997
-0.0024643689
-0.0024223855
-0.00239714
-0.0023836017
-0.0023823443
-0.0023892135
-0.002404953
-0.0024261005
-0.002451497
-0.0024771436
-0.0024937965
-0.0024927997
-0.0024621449
-0.0023808712
-0.0022332739
-0.0020206673
-0.0017444264
-0.0014172423
-0.0010922403
-0.00077832212
-0.0004881394
0.00057638091
0.00017763289
-0.00044468298
-0.0011518737
-0.0018857697
-0.0026000538
-0.0032717519
-0.0038989632
-0.0044291262
-0.0047169152
-0.004684832
-0.0044129973
-0.004030469
-0.0036270497
-0.0032800043
-0.0030121771
-0.0028120164
-0.0026665026
-0.0025579935
-0.0024805222
-0.0024315918
-0.0024054074
-0.0023937554
-0.0023914033
-0.0024025155
-0.0024276607
-0.0024688745
-0.0025270932
-0.0025930476
-0.0026587042
-0.0027209311
-0.0027651897
-0.0027723707
-0.002719
-0.0025806966
-0.0023505878
-0.0020100217
-0.0016327997
-0.0012663141
-0.00097670743
-0.00067821249
-0.00099967699
-0.001586665
-0.0023743984
-0.0031595187
-0.0038523126
-0.0043950938
-0.0047970155
-0.005109524
-0.0052399751
-0.0050807788
-0.0046485608
-0.0041019092
-0.0036099583
-0.0032390548
-0.0029700824
-0.0027938897
-0.0026746007
-0.0025936709
-0.0025460293
-0.002521052
-0.0025044246
-0.0024998648
-0.0025056724
-0.0025229264
-0.0025508182
-0.0025947351
-0.0026506246
-0.0027258185
-0.0028228071
-0.0029335063
-0.0030543203
-0.0031687529
-0.0032634131
-0.0032750797
-0.0031959313
-0.0029393565
-0.0024929289
-0.0018794268
-0.00130408
0.0018577699
-0.00064461906
-0.0031203279
-0.004708427
-0.0058087742
-0.00653409
-0.0070850612
-0.0077086517
-0.0078413693
-0.0071796487
-0.0062459571
-0.0052308603
-0.0043072764
-0.0036251751
-0.0031866191
-0.0029262224
-0.0027657875
-0.0026562493
-0.0025764785
-0.0025231747
-0.0024926599
-0.0024793709
-0.0024771319
-0.0024735398
-0.0024833521
-0.0025131491
-0.002560064
-0.0026221112
-0.0027039407
-0.0028136196
-0.0029577654
-0.0031415999
-0.0033639788
-0.0036248919
-0.003897152
-0.0041698748
-0.0043104945
-0.0042344471
-0.0037038957
-0.0026339228
-0.016215581
-0.012646331
-0.0092199787
-0.0082244408
-0.00774071
-0.0074392986
-0.0073324927
-0.0073138287
-0.0069678018
-0.0062355423
-0.0051448353
-0.0041619583
-0.0034343812
-0.0030002106
-0.0027622356
-0.0026523873
-0.0025938566
-0.0025595172
-0.0025412156
-0.0025323477
-0.0025271793
-0.0025301668
-0.0025319413
-0.0025312466
-0.0025389159
-0.0025642184
-0.0025962636
-0.0026419846
-0.0026932255
-0.0027654994
-0.0028608739
-0.0029970735
-0.0031673768
-0.0034056071
-0.0037196324
-0.0041511733
-0.004736588
-0.00551546
-0.0066033152
-0.0078267313
-9.1303307e-05
3.7511662e-05
-3.7895573e-05
8.3086148e-05
-7.9286506e-07
0.00010211169
3.7398598e-05
0.00010483812
6.7125637e-05
8.7731079e-05
6.9638193e-05
5.9226545e-05
4.3519919e-05
2.7013553e-05
1.1266628e-05
-2.9343175e-06
-1.447884e-05
-2.3116036e-05
-2.8732053e-05
-3.1480581e-05
-3.1680813e-05
-2.9737733e-05
-2.5947606e-05
-2.0635548e-05
-1.4438768e-05
-8.1078404e-06
-2.1675405e-06
2.7495492e-06
5.5568506e-06
6.4370684e-06
6.6043888e-06
5.5985349e-06
4.2026745e-06
2.7652034e-06
2.264715e-06
8.021297e-07
5.5271474e-06
-3.0193545e-06
-9.3467598e-06
-6.9836698e-05
-0.00012024355
4.2940376e-05
-1.9380342e-05
7.7555304e-05
1.0786995e-05
0.00010183597
4.7084924e-05
0.00010859664
7.2728272e-05
8.9239067e-05
7.3498989e-05
6.0601656e-05
4.3933701e-05
2.6273766e-05
9.43606e-06
-5.6868582e-06
-1.8121939e-05
-2.7527082e-05
-3.3817976e-05
-3.7163101e-05
-3.7855575e-05
-3.6196238e-05
-3.2478962e-05
-2.7087511e-05
-2.0630512e-05
-1.3809226e-05
-7.159419e-06
-1.4009271e-06
2.1097222e-06
3.8458372e-06
5.4054394e-06
4.7769462e-06
3.2019816e-06
1.8044874e-06
5.8135644e-07
-9.1319963e-08
3.614671e-06
5.6401511e-06
4.0787753e-06
1.3117089e-05
-3.5833593e-05
4.9991669e-05
-6.2824871e-06
7.2903665e-05
2.1905365e-05
0.00010128211
5.6190586e-05
0.00011183996
7.9656628e-05
9.2396151e-05
7.8356863e-05
6.3658057e-05
4.5853933e-05
2.7112781e-05
8.9275757e-06
-7.4456663e-06
-2.1116129e-05
-3.1595107e-05
-3.8787091e-05
-4.2896468e-05
-4.4220197e-05
-4.3014679e-05
-3.9604968e-05
-3.4372619e-05
-2.777835e-05
-2.0430348e-05
-1.2986952e-05
-6.3757945e-06
-1.9214909e-06
1.4226205e-06
3.8151395e-06
3.6312906e-06
2.368254e-06
1.3090485e-06
6.5311031e-07
1.03609e-07
1.8722033e-06
3.5219126e-06
-2.0426651e-06
-1.6905633e-05
-5.4519775e-05
4.8666627e-05
4.5407256e-06
6.8592593e-05
3.2625419e-05
0.00010103274
6.5446184e-05
0.00011557657
8.7384867e-05
9.7141779e-05
8.407752e-05
6.8227031e-05
4.9284877e-05
2.9225389e-05
9.6665631e-06
-7.9999958e-06
-2.2890243e-05
-3.4471118e-05
-4.2639081e-05
-4.7566253e-05
-4.9573428e-05
-4.8965173e-05
-4.606037e-05
-4.1194893e-05
-3.4723985e-05
-2.712347e-05
-1.9117152e-05
-1.1988515e-05
-6.7534028e-06
-2.0850305e-06
6.6741685e-07
9.4184557e-07
4.8945765e-07
6.9922914e-07
8.8459758e-07
6.7635418e-07
2.1491137e-06
3.459115e-06
3.302511e-06
1.3513112e-05
-1.7988027e-06
5.1340912e-05
1.366346e-05
6.5552808e-05
4.2028583e-05
0.00010151275
7.4382187e-05
0.00011960127
9.5645654e-05
0.00010307215
9.0327032e-05
7.349267e-05
5.3357113e-05
3.1829402e-05
1.0998112e-05
-7.8422955e-06
-2.3902995e-05
-3.6567483e-05
-4.5714372e-05
-5.1471749e-05
-5.4176938e-05
-5.4147302e-05
-5.1720791e-05
-4.7225922e-05
-4.1065573e-05
-3.356657e-05
-2.5282784e-05
-1.7774136e-05
-1.1643277e-05
-5.7032065e-06
-2.9054789e-06
-2.5596644e-06
-1.5139634e-06
4.0692064e-07
8.2617661e-07
1.2210775e-06
2.3938087e-06
1.1249946e-06
-5.0628663e-06
-1.8790988e-05
-1.2982223e-05
4.8158771e-05
2.0446156e-05
6.4176904e-05
5.0892692e-05
0.00010330071
8.344949e-05
0.00012454296
0.00010434173
0.00010976829
9.6958018e-05
7.9359184e-05
5.8081754e-05
3.5318038e-05
1.308479e-05
-7.1490444e-06
-2.4475459e-05
-3.8292298e-05
-4.8456537e-05
-5.5091371e-05
-5.8540127e-05
-5.9132825e-05
-5.7236997e-05
-5.3181172e-05
-4.7361276e-05
-4.0020718e-05
-3.1647495e-05
-2.3762205e-05
-1.6392636e-05
-9.676784e-06
-7.4516948e-06
-6.6928848e-06
-4.262667e-06
-1.2798029e-06
1.749032e-07
1.6561884e-06
2.9048869e-06
2.0766035e-06
2.4914488e-06
1.2151726e-05
1.0252253e-05
5.1928215e-05
2.745984e-05
6.4934947e-05
5.9124326e-05
0.00010609205
9.2703611e-05
0.00013030689
0.0001136587
0.00011759493
0.00010457114
8.6245939e-05
6.3790139e-05
3.9621829e-05
1.5926729e-05
-5.7599987e-06
-2.4449594e-05
-3.9545405e-05
-5.0852053e-05
-5.8485793e-05
-6.2764905e-05
-6.4076074e-05
-6.2798082e-05
-5.9272027e-05
-5.3812198e-05
-4.6651863e-05
-3.8388881e-05
-3.0287332e-05
-2.1741607e-05
-1.5026524e-05
-1.3605922e-05
-1.1852399e-05
-8.3104283e-06
-3.8590065e-06
2.5161207e-07
2.9479549e-06
3.5986543e-06
3.2920467e-07
-5.0389864e-06
-1.4843675e-05
5.4699896e-06
5.1470326e-05
3.350276e-05
6.7974817e-05
6.7312927e-05
0.00010996809
0.00010202841
0.00013693878
0.00012348194
0.00012621394
0.00011278273
9.3627093e-05
6.992183e-05
4.4326198e-05
1.913614e-05
-4.0907261e-06
-2.4237305e-05
-4.0676826e-05
-5.3180866e-05
-6.1828992e-05
-6.6956042e-05
-6.8972122e-05
-6.8314583e-05
-6.5362297e-05
-6.0374912e-05
-5.351273e-05
-4.5544803e-05
-3.7153326e-05
-2.7771038e-05
-2.1747915e-05
-2.0386447e-05
-1.7463515e-05
-1.2932927e-05
-6.4341263e-06
-3.9598318e-08
3.5153474e-06
3.9277275e-06
2.1926729e-06
2.8616759e-06
8.8469177e-06
1.4281426e-05
5.2647867e-05
3.9469992e-05
7.1849283e-05
7.5587041e-05
0.00011500408
0.00011179771
0.0001446273
0.00013407229
0.00013587531
0.00012208094
0.00010213395
7.7197636e-05
5.0088784e-05
2.3247327e-05
-1.6453552e-06
-2.3389068e-05
-4.1313997e-05
-5.5133682e-05
-6.4924835e-05
-7.1019849e-05
-7.3843863e-05
-7.3890556e-05
-7.1563688e-05
-6.7105652e-05
-6.0658918e-05
-5.3080059e-05
-4.4242971e-05
-3.4740868e-05
-3.0326869e-05
-2.820616e-05
-2.4539868e-05
-1.831391e-05
-9.8287535e-06
-2.5162766e-06
2.1066756e-06
2.5845211e-06
2.6958158e-07
-2.678065e-06
-9.6505211e-06
1.3163118e-05
5.2657814e-05
4.4933139e-05
7.5915123e-05
8.3516153e-05
0.00012089316
0.00012183925
0.00015329662
0.00014542468
0.00014656202
0.00013234266
0.00011147791
8.517724e-05
5.6452924e-05
2.7906391e-05
1.2599347e-06
-2.219509e-05
-4.1719819e-05
-5.6969268e-05
-6.8001308e-05
-7.512188e-05
-7.8791419e-05
-7.9561662e-05
-7.7885555e-05
-7.3984379e-05
-6.8096446e-05
-6.0702844e-05
-5.1111373e-05
-4.2266321e-05
-3.9678182e-05
-3.6772249e-05
-3.146928e-05
-2.2951845e-05
-1.4207455e-05
-7.2718945e-06
-1.3533615e-06
2.1415331e-07
-4.2030276e-07
1.9341017e-06
5.5978812e-06
1.5473451e-05
5.3680193e-05
4.9111789e-05
7.994685e-05
9.1431176e-05
0.00012785756
0.00013248218
0.00016312635
0.0001577405
0.00015838116
0.0001438068
0.00012202586
9.4344482e-05
6.3924537e-05
3.3507272e-05
4.9750454e-06
-2.0333808e-05
-4.158645e-05
-5.8383965e-05
-7.0752753e-05
-7.8999128e-05
-8.3605071e-05
-8.5156055e-05
-8.4187055e-05
-8.1000528e-05
-7.5961389e-05
-6.8706481e-05
-5.8797841e-05
-5.1722853e-05
-4.9515799e-05
-4.4828764e-05
-3.6932636e-05
-2.7648332e-05
-1.9777844e-05
-1.3061708e-05
-6.5656722e-06
-4.1024586e-06
-3.6539275e-06