/*--------------------------------*- C++ -*----------------------------------*\
  =========                 |
  \\      /  F ield         | OpenFOAM: The Open Source CFD Toolbox
   \\    /   O peration     | Website:  https://openfoam.org
    \\  /    A nd           | Version:  11
     \\/     M anipulation  |
\*---------------------------------------------------------------------------*/
FoamFile
{
    format      ascii;
    class       volScalarField;
    location    "9";
    object      p;
}
// * * * * * * * * * * * * * * * * * * * * * * * * * * * * * * * * * * * * * //

dimensions      [0 2 -2 0 0 0 0];

internalField   nonuniform List<scalar> 
9600
(
0.0329271
0.0325098
0.0319166
0.0312479
0.0305085
0.0295686
0.0283089
0.026637
0.0245875
0.0222471
0.0196298
0.0167785
0.0135838
0.010066
0.00634463
0.00267938
-0.000856841
-0.00419301
-0.00709185
-0.00942793
-0.0111173
-0.012098
-0.0123165
-0.0117671
-0.0105218
-0.00882091
-0.00678755
-0.00459831
-0.00235916
-9.77327e-05
0.00248722
0.00487128
0.00602692
0.00742061
0.00831106
0.00853943
0.00850564
0.00775321
0.00564868
0.00181937
0.0328254
0.0322694
0.0316018
0.0309088
0.03011
0.0290768
0.0276692
0.0258364
0.0236566
0.021235
0.0186041
0.0157157
0.0125333
0.00912961
0.00557258
0.00201462
-0.00142347
-0.00462295
-0.00738865
-0.00961142
-0.0112272
-0.0121943
-0.0124589
-0.0120422
-0.0107751
-0.00924301
-0.00735818
-0.00515594
-0.00299588
-0.000847984
0.00146701
0.00379247
0.00532261
0.00650944
0.00808251
0.00866603
0.00897954
0.00872038
0.00748136
0.00530565
0.0326571
0.0320325
0.031365
0.0306527
0.0298061
0.0286868
0.0271987
0.0253546
0.0232181
0.0208737
0.018323
0.0154917
0.0123207
0.00887618
0.00532344
0.00180995
-0.00157341
-0.00473454
-0.00750286
-0.0097347
-0.0113486
-0.0123032
-0.0125453
-0.0121269
-0.0110796
-0.0095453
-0.00767105
-0.00553784
-0.0032208
-0.00118875
0.00106053
0.0033758
0.00550234
0.00691551
0.00772849
0.00854623
0.00920249
0.00911266
0.00784047
0.0064652
0.0324838
0.0318252
0.0311312
0.0304001
0.0295024
0.0283155
0.0267799
0.0249072
0.0227488
0.0203529
0.017714
0.0147841
0.0115785
0.00817799
0.00469498
0.00124695
-0.00209862
-0.00521541
-0.00794055
-0.0101172
-0.0116928
-0.0126361
-0.0129029
-0.0124829
-0.0115283
-0.00995306
-0.00814487
-0.00603055
-0.00377378
-0.00158819
0.000555047
0.00266193
0.00469242
0.00633277
0.00763239
0.00866119
0.00924905
0.00972223
0.00915619
0.00828353
0.0323031
0.0316255
0.0308963
0.0301545
0.0292223
0.0279666
0.0263626
0.0244226
0.0222094
0.019785
0.017166
0.0142839
0.0110942
0.00770245
0.00424936
0.000835559
-0.00247608
-0.00555515
-0.00826716
-0.0104522
-0.0120101
-0.0129386
-0.0132007
-0.0128037
-0.011882
-0.0103558
-0.00860757
-0.00647341
-0.00424688
-0.00209684
8.17011e-06
0.00212323
0.00417803
0.00617409
0.00754694
0.00883986
0.00931954
0.0101827
0.0101419
0.00993007
0.0321276
0.0314285
0.0306684
0.0299132
0.0289401
0.0276187
0.0259481
0.0239597
0.0217328
0.019334
0.0167188
0.0137789
0.0105485
0.00715353
0.00370551
0.000301657
-0.00300214
-0.00608228
-0.00879484
-0.0109817
-0.0125355
-0.0134453
-0.0137147
-0.0133375
-0.0124027
-0.0109237
-0.00915212
-0.00704639
-0.00476767
-0.00260553
-0.000399025
0.00163391
0.00367227
0.00558042
0.0071689
0.00878596
0.00948717
0.010461
0.010982
0.0114276
0.031968
0.0312295
0.0304452
0.0296693
0.028657
0.0272809
0.0255633
0.0235359
0.0212939
0.018869
0.0162059
0.0132401
0.00999521
0.00656911
0.00312797
-0.000260166
-0.00356712
-0.00666062
-0.00937077
-0.0115569
-0.0131043
-0.0139936
-0.0142627
-0.013864
-0.0129408
-0.0114917
-0.00970692
-0.00758142
-0.00527204
-0.00317176
-0.000969826
0.00106067
0.00303584
0.00508695
0.00696717
0.00861041
0.00967242
0.0107036
0.0115045
0.0126287
0.0318311
0.0310329
0.030216
0.0294214
0.0283863
0.02697
0.0252067
0.0231379
0.0208661
0.0184193
0.0157293
0.0127079
0.00942388
0.00600551
0.0025392
-0.000880304
-0.00421205
-0.00732626
-0.010054
-0.0122519
-0.013817
-0.0147123
-0.0149523
-0.0145753
-0.013641
-0.0121451
-0.0103116
-0.00824313
-0.00594781
-0.00377027
-0.00149854
0.000558389
0.00248595
0.00446031
0.00648559
0.0082617
0.00969164
0.0108625
0.0116955
0.0131605
0.0317071
0.0308481
0.0299987
0.0291756
0.0281257
0.0266804
0.0248783
0.0227673
0.0204623
0.0179865
0.0152474
0.0121794
0.00884704
0.00538485
0.00188034
-0.0015688
-0.00494354
-0.008082
-0.0108468
-0.0130647
-0.0146314
-0.0155383
-0.0157669
-0.0153678
-0.0143963
-0.0128732
-0.0109766
-0.0088925
-0.00664674
-0.00433142
-0.0021176
-4.8311e-05
0.0018836
0.00382021
0.00577796
0.00775093
0.0096229
0.0110787
0.0119052
0.0132689
0.0316058
0.0306753
0.0298006
0.0289441
0.0278763
0.0264142
0.0245768
0.0224267
0.0200696
0.0175652
0.0147831
0.011633
0.00822608
0.00471381
0.00118716
-0.00232053
-0.00575284
-0.00894488
-0.0117521
-0.0139872
-0.01558
-0.0165051
-0.0167145
-0.0162831
-0.0152749
-0.0137199
-0.0117483
-0.00958903
-0.00733892
-0.00501372
-0.00281314
-0.000645483
0.00129295
0.00320174
0.00513479
0.0071138
0.00919242
0.010885
0.012049
0.013267
0.031514
0.0305396
0.0296306
0.0287387
0.027649
0.0261768
0.0243054
0.0221
0.0196872
0.0171462
0.0143055
0.0110581
0.00757537
0.00400061
0.000417093
-0.00315926
-0.00665953
-0.00991313
-0.0127703
-0.0150689
-0.0166812
-0.0175983
-0.0177981
-0.0173518
-0.0162863
-0.0146856
-0.012604
-0.0103698
-0.00803111
-0.00575819
-0.00351952
-0.0012933
0.000653074
0.00254018
0.00453013
0.00645275
0.00843714
0.0104028
0.0122309
0.0134057
0.0314443
0.0304197
0.0294901
0.0285662
0.0274403
0.0259599
0.0240598
0.0218005
0.0193288
0.0167157
0.0138186
0.0104739
0.0068953
0.00322029
-0.000441644
-0.00407072
-0.00766392
-0.0110197
-0.0139308
-0.016281
-0.0179205
-0.0188687
-0.0190585
-0.0185646
-0.0174411
-0.0157302
-0.0135697
-0.011246
-0.00881965
-0.00649922
-0.00429993
-0.0020198
6.55528e-06
0.00187633
0.00388122
0.00581827
0.00773466
0.00974177
0.0118298
0.0132482
0.0313965
0.0303349
0.0293775
0.0284395
0.0272807
0.0257574
0.0238341
0.0215252
0.0189766
0.0162678
0.013297
0.00985842
0.00615544
0.00238345
-0.00137934
-0.00510535
-0.00878703
-0.0122608
-0.0152346
-0.0176524
-0.0193541
-0.0203318
-0.02049
-0.0199188
-0.0187323
-0.0169179
-0.0147146
-0.0122222
-0.00972814
-0.00723698
-0.00503119
-0.00283542
-0.000674426
0.00119813
0.00312935
0.00509304
0.00706968
0.0089512
0.0108889
0.0128401
0.0313803
0.0302838
0.0293082
0.028342
0.0271499
0.0255931
0.0236308
0.0212558
0.0186276
0.0158119
0.0127404
0.00921093
0.00537473
0.00148151
-0.00242352
-0.00626831
-0.0100234
-0.0136367
-0.0167341
-0.019224
-0.0209613
-0.021936
-0.022122
-0.0215033
-0.0202128
-0.0182785
-0.0159709
-0.0132729
-0.0107029
-0.00805434
-0.00578598
-0.00368086
-0.00145635
0.000513608
0.0023872
0.0042793
0.00630689
0.00814606
0.00988018
0.0120448
0.0314136
0.030294
0.0292769
0.0282671
0.0270503
0.025457
0.0234431
0.0209992
0.0182726
0.0153325
0.0121396
0.00851282
0.00453211
0.000471417
-0.00357365
-0.00755588
-0.0114429
-0.0151884
-0.0184048
-0.0209925
-0.0227985
-0.0237685
-0.0239819
-0.0232869
-0.0218876
-0.0198042
-0.0173586
-0.0145105
-0.0117463
-0.00898958
-0.00656859
-0.00444451
-0.00233031
-0.00027457
0.00165503
0.00346205
0.00537063
0.00720591
0.00889293
0.0107901
0.0314884
0.0303341
0.0292925
0.0282322
0.0269815
0.0253441
0.0232867
0.0207642
0.017903
0.0148341
0.0115031
0.00776301
0.00361398
-0.000625925
-0.00484876
-0.00900425
-0.0130422
-0.0169349
-0.0202756
-0.022974
-0.0249056
-0.0258616
-0.026063
-0.0252858
-0.0238106
-0.021546
-0.0189042
-0.0159185
-0.01285
-0.0100421
-0.00739869
-0.00517604
-0.00314881
-0.00112344
0.000834473
0.00262914
0.00438443
0.00613451
0.0079131
0.00944292
0.0316302
0.0304319
0.0293562
0.0282524
0.0269555
0.0252489
0.0231241
0.0205269
0.0175198
0.0143
0.0107884
0.0069252
0.00262844
-0.00185325
-0.00627751
-0.0106475
-0.0148307
-0.0188764
-0.0224246
-0.025211
-0.0272625
-0.028232
-0.0284108
-0.0275853
-0.0259689
-0.0235577
-0.0206614
-0.0174731
-0.014112
-0.0110986
-0.00838192
-0.00596738
-0.00387849
-0.00192528
-5.86083e-05
0.0017136
0.00342115
0.00500959
0.00670753
0.00793634
0.0318265
0.0305758
0.0294786
0.0283112
0.0269646
0.0252075
0.0229543
0.0202942
0.0171567
0.0137286
0.0100599
0.00599115
0.00152539
-0.00321263
-0.00787712
-0.0124609
-0.0168752
-0.0210742
-0.0248357
-0.0277429
-0.0298801
-0.0309379
-0.0311003
-0.0302131
-0.0284186
-0.0258805
-0.0226161
-0.0192048
-0.0155638
-0.0122569
-0.00948818
-0.00683016
-0.00454493
-0.00259555
-0.000847107
0.000782268
0.00238814
0.0038192
0.00534968
0.0065495
0.0321152
0.0307969
0.0296452
0.0284153
0.026984
0.0252039
0.0228461
0.0200087
0.0167547
0.0131093
0.00920013
0.00493353
0.000271301
-0.00472189
-0.00969894
-0.0145031
-0.0191866
-0.0235566
-0.0275444
-0.0306213
-0.0328411
-0.0339916
-0.0341542
-0.033214
-0.0312125
-0.0285323
-0.0248706
-0.0211452
-0.0172447
-0.0136118
-0.0105413
-0.00771318
-0.00524069
-0.00322751
-0.00149553
-5.67799e-05
0.00135287
0.00259577
0.0039681
0.00496557
0.0324903
0.0310911
0.0298719
0.0285936
0.0270613
0.0251868
0.022755
0.0197378
0.0163009
0.0124305
0.00827506
0.00375643
-0.00115227
-0.00639818
-0.0117254
-0.016819
-0.0218012
-0.0263745
-0.030568
-0.0338832
-0.0362717
-0.037438
-0.037539
-0.036699
-0.0344339
-0.0314612
-0.0275392
-0.0233966
-0.0191637
-0.0152093
-0.0116731
-0.00855851
-0.00590581
-0.00377096
-0.00201782
-0.000719061
0.000459344
0.00141951
0.00248541
0.00328051
0.032957
0.0314706
0.0301571
0.0288296
0.0272084
0.0251766
0.0226333
0.0194436
0.0157868
0.0116757
0.00721221
0.00240631
-0.00280271
-0.00830939
-0.014035
-0.0194435
-0.0247484
-0.0296166
-0.0340281
-0.0375396
-0.0401023
-0.0414699
-0.0413793
-0.0404974
-0.0381761
-0.0348917
-0.0307621
-0.0260554
-0.0213039
-0.0170106
-0.0130357
-0.00949736
-0.00645921
-0.00407958
-0.00232774
-0.00117239
-0.000248425
0.000356398
0.00103826
0.00145133
0.033528
0.0319469
0.0305218
0.0290996
0.0274002
0.0251989
0.0224936
0.0191356
0.0152065
0.010811
0.00601646
0.000892515
-0.00470264
-0.0104765
-0.0165972
-0.0224525
-0.0281031
-0.0332592
-0.0379633
-0.0417615
-0.044365
-0.0459467
-0.0459439
-0.0448355
-0.0424678
-0.0388741
-0.0344626
-0.0292725
-0.023962
-0.019076
-0.0145443
-0.0105238
-0.00702873
-0.00426833
-0.00237969
-0.00121593
-0.000546575
-0.000368105
-0.000210709
-0.000344161
0.0341975
0.0325121
0.030983
0.0294322
0.0276252
0.0252775
0.0223241
0.01873
0.0145297
0.00983177
0.00460684
-0.000829845
-0.00684719
-0.0130591
-0.0195598
-0.025845
-0.0319371
-0.0375245
-0.0423896
-0.0465719
-0.049346
-0.0510037
-0.0511696
-0.0499074
-0.0473707
-0.0435135
-0.038711
-0.033122
-0.0272712
-0.0216138
-0.0164002
-0.011733
-0.00762094
-0.00427668
-0.00207582
-0.000827292
-0.000324649
-0.000489072
-0.000932929
-0.00172869
0.0349958
0.0331756
0.0315483
0.0298438
0.0278531
0.0253632
0.0221703
0.0182745
0.0136849
0.00869743
0.00304346
-0.00286217
-0.00931451
-0.0159975
-0.0229278
-0.0298062
-0.0362721
-0.0423667
-0.0475161
-0.0520047
-0.0550732
-0.056822
-0.0570825
-0.0558152
-0.053083
-0.048922
-0.0437128
-0.037717
-0.0312687
-0.0248137
-0.0187698
-0.0132654
-0.00836939
-0.00428893
-0.00147194
0.000176299
0.000697345
0.000312857
-0.000618046
-0.00211359
0.0359612
0.0339873
0.0321983
0.0303649
0.0281672
0.0253838
0.0219345
0.0178001
0.0127025
0.00727467
0.00120935
-0.00530779
-0.0121726
-0.0194588
-0.0268624
-0.0343523
-0.0413069
-0.047911
-0.0534911
-0.0582025
-0.0616291
-0.0635719
-0.0639082
-0.0626232
-0.0597783
-0.0553901
-0.0497372
-0.0432082
-0.0360871
-0.0288865
-0.0218887
-0.0153462
-0.00947231
-0.00441483
-0.000659356
0.00174551
0.00263589
0.0023536
0.00116917
-0.000757197
0.0370637
0.0349207
0.0329991
0.0309448
0.0284621
0.0254941
0.0216017
0.0170231
0.0116563
0.00554496
-0.000954565
-0.00807486
-0.0155591
-0.0234732
-0.0314437
-0.0395856
-0.0471657
-0.0542348
-0.0603649
-0.0654325
-0.0691414
-0.0712974
-0.0718084
-0.0705539
-0.0676252
-0.0630221
-0.0569686
-0.0499149
-0.0420746
-0.0339958
-0.0259705
-0.0182893
-0.0112183
-0.00498767
4.4356e-05
0.00365422
0.00545916
0.00573305
0.00461773
0.00264526
0.0385271
0.036132
0.0338655
0.0316109
0.0288327
0.0254024
0.0212238
0.0161142
0.010206
0.00353292
-0.00365873
-0.0114038
-0.0195413
-0.0282319
-0.0368581
-0.0456459
-0.0539892
-0.0616414
-0.0683229
-0.0738015
-0.077861
-0.0802924
-0.0810279
-0.0798099
-0.0768391
-0.072124
-0.0657198
-0.0581131
-0.049567
-0.0405758
-0.0314489
-0.0224957
-0.0140085
-0.00632584
0.000258552
0.00547197
0.00881534
0.0104512
0.00994967
0.00834201
0.0402154
0.0375694
0.0349957
0.0322848
0.0291292
0.0252851
0.0206549
0.014993
0.00840702
0.00106493
-0.00682063
-0.0154241
-0.0243036
-0.0337779
-0.0433102
-0.0528058
-0.0618976
-0.0702393
-0.0775607
-0.0834915
-0.0880566
-0.0907364
-0.0917134
-0.0907472
-0.0877218
-0.0829063
-0.0762506
-0.0681166
-0.0588729
-0.0490335
-0.0388323
-0.0285458
-0.0185464
-0.00912848
-0.000663477
0.00659439
0.0119716
0.0157921
0.017125
0.0171454
0.0418912
0.0388923
0.036183
0.0331044
0.0294465
0.0250255
0.0197116
0.0134061
0.00617508
-0.00209311
-0.0107623
-0.020228
-0.0301313
-0.0404351
-0.0509423
-0.0612717
-0.0712948
-0.0803329
-0.0884318
-0.0949085
-0.0999463
-0.103098
-0.104285
-0.103617
-0.100686
-0.0957588
-0.0889488
-0.0804798
-0.0706139
-0.0599253
-0.0487385
-0.037175
-0.0256405
-0.0143342
-0.00382482
0.00585769
0.0138145
0.0205143
0.0247998
0.0282462
0.0438833
0.0403484
0.0372661
0.0338679
0.0296822
0.0245823
0.0185911
0.0113094
0.00325257
-0.00588592
-0.0158167
-0.0262647
-0.03728
-0.0485418
-0.060222
-0.0714578
-0.0824493
-0.0923579
-0.101165
-0.108434
-0.113918
-0.117638
-0.119205
-0.118785
-0.116091
-0.111234
-0.104333
-0.0956425
-0.0853767
-0.0739382
-0.0618593
-0.0491131
-0.0362251
-0.0231151
-0.0105063
0.00167504
0.0125394
0.0223706
0.0306408
0.0376217
0.046404
0.0422654
0.0386578
0.0345685
0.0297569
0.0238346
0.016853
0.00884411
-0.000321161
-0.0104654
-0.0216888
-0.0334568
-0.0459854
-0.0584378
-0.0712576
-0.0837675
-0.0957058
-0.1067
-0.116309
-0.124412
-0.130526
-0.1348
-0.136881
-0.136806
-0.13442
-0.129736
-0.122939
-0.114153
-0.103778
-0.0918474
-0.0790879
-0.0653393
-0.0511845
-0.0365889
-0.0220401
-0.00764291
0.00612944
0.0190265
0.0309358
0.0412183
0.0495465
0.0446443
0.0401195
0.0352039
0.0293443
0.0222442
0.0138227
0.00425932
-0.0064254
-0.0178797
-0.0303482
-0.0432215
-0.0570605
-0.0712014
-0.0852454
-0.099093
-0.11221
-0.124268
-0.134816
-0.143782
-0.150693
-0.15555
-0.158248
-0.158619
-0.156727
-0.152361
-0.145915
-0.137254
-0.126963
-0.114904
-0.101645
-0.0873154
-0.0721835
-0.0564037
-0.0401959
-0.0239961
-0.00783373
0.00793919
0.0224693
0.0356404
0.0530526
0.0473119
0.0417372
0.0359782
0.0293396
0.021417
0.012044
0.00119472
-0.0113731
-0.0249977
-0.0396798
-0.0551593
-0.0707914
-0.0865927
-0.102219
-0.117491
-0.131904
-0.145099
-0.156797
-0.166614
-0.174489
-0.180019
-0.183436
-0.184372
-0.183057
-0.179358
-0.173545
-0.165526
-0.155554
-0.14391
-0.130574
-0.116006
-0.100311
-0.0837355
-0.0664795
-0.0487235
-0.0308036
-0.0129931
0.00442971
0.0201721
0.0563826
0.0490621
0.0415299
0.0333661
0.0242235
0.0140586
0.00248942
-0.010391
-0.0244272
-0.0396916
-0.0557302
-0.07266
-0.0900883
-0.10784
-0.125293
-0.142026
-0.157891
-0.172204
-0.184968
-0.195593
-0.204227
-0.210487
-0.214428
-0.215935
-0.21519
-0.212209
-0.207258
-0.200378
-0.191582
-0.180923
-0.168517
-0.1544
-0.138836
-0.122216
-0.104465
-0.0860444
-0.0669868
-0.0478353
-0.0282522
-0.0104864
0.062552
0.0547242
0.0465681
0.0374683
0.0269246
0.014723
0.000649082
-0.0154831
-0.0332363
-0.0525623
-0.0728851
-0.0935307
-0.114116
-0.134252
-0.153696
-0.172168
-0.189452
-0.205036
-0.218687
-0.230194
-0.239328
-0.246025
-0.250319
-0.252168
-0.251918
-0.249552
-0.2453
-0.239555
-0.232188
-0.22325
-0.212548
-0.200113
-0.185948
-0.170167
-0.153105
-0.135041
-0.116029
-0.0966737
-0.077114
-0.0592339
0.0594849
0.0460931
0.0328592
0.0192228
0.00477187
-0.0109425
-0.0279122
-0.0460927
-0.0656063
-0.0865148
-0.108564
-0.131342
-0.154294
-0.177007
-0.198836
-0.219447
-0.238454
-0.25558
-0.270448
-0.283055
-0.29304
-0.30063
-0.305541
-0.308349
-0.30895
-0.307823
-0.305098
-0.300636
-0.295072
-0.288207
-0.280109
-0.270522
-0.259094
-0.246002
-0.230942
-0.21509
-0.198365
-0.181567
-0.165126
-0.150261
0.0808707
0.0691674
0.0546766
0.037793
0.0185871
-0.00312983
-0.0275327
-0.0536087
-0.0806041
-0.107805
-0.134861
-0.161378
-0.187279
-0.212139
-0.235803
-0.257692
-0.277594
-0.295154
-0.310193
-0.322559
-0.332171
-0.339312
-0.343988
-0.346807
-0.347911
-0.347938
-0.347117
-0.345751
-0.343759
-0.341215
-0.337686
-0.332772
-0.325756
-0.316618
-0.30487
-0.290555
-0.274455
-0.257155
-0.242563
-0.232438
0.0302672
0.00479478
-0.0202507
-0.0459392
-0.0719751
-0.0988535
-0.125822
-0.154263
-0.183988
-0.214791
-0.246125
-0.277268
-0.307567
-0.336401
-0.363182
-0.387497
-0.409033
-0.427351
-0.442746
-0.45413
-0.462822
-0.467715
-0.470543
-0.470769
-0.469836
-0.467978
-0.466396
-0.465635
-0.466285
-0.468648
-0.472544
-0.477761
-0.482949
-0.486322
-0.486657
-0.481079
-0.469334
-0.451235
-0.429001
-0.409483
0.104499
0.0732757
0.0387485
0.00164564
-0.0349738
-0.07228
-0.110263
-0.14803
-0.186137
-0.223009
-0.258668
-0.292601
-0.324334
-0.35379
-0.38053
-0.404059
-0.424553
-0.440847
-0.453317
-0.461195
-0.464894
-0.464098
-0.459527
-0.451159
-0.441473
-0.430681
-0.421127
-0.414495
-0.412636
-0.416939
-0.428458
-0.448393
-0.476871
-0.518532
-0.570366
-0.635315
-0.708471
-0.757969
-0.764037
-0.737667
-0.20781
-0.251029
-0.296667
-0.348696
-0.404712
-0.460824
-0.51649
-0.570205
-0.621432
-0.668759
-0.710887
-0.748101
-0.781679
-0.812752
-0.840969
-0.864463
-0.882001
-0.892759
-0.896851
-0.894572
-0.885471
-0.869321
-0.845706
-0.816816
-0.782883
-0.74663
-0.708308
-0.67022
-0.635041
-0.602997
-0.577626
-0.559193
-0.551032
-0.55519
-0.572177
-0.609717
-0.639588
-0.650685
-0.656674
-0.660529
-0.00239758
-0.00132598
-9.4353e-05
-0.00489482
-0.0254432
-0.111598
-0.189516
-0.164063
-0.125769
-0.106321
-0.104596
-0.0784445
-0.0376136
-0.00532204
0.00544921
0.00621901
0.00751701
0.00696185
0.00638569
0.00543707
0.00490209
0.00392723
0.00372552
0.00325597
0.00309872
0.00285087
0.00283224
0.00270911
0.0027414
0.00272527
0.00275604
0.00276006
0.00275555
0.00288923
0.00298326
0.00325824
0.0032761
0.00334467
0.00245024
0.00261661
0.000920138
0.00142698
0.00329407
0.000384109
-0.0145255
-0.0842502
-0.144156
-0.130578
-0.117068
-0.114412
-0.133254
-0.106576
-0.0552991
-0.0115178
0.00364232
0.00590869
0.00738413
0.0071469
0.00638475
0.00553157
0.00489751
0.00392263
0.00365249
0.00320681
0.00297751
0.00275008
0.00273354
0.00258233
0.0025844
0.00255719
0.00262029
0.00258921
0.0026705
0.00275278
0.00290935
0.0031407
0.00327625
0.00332364
0.00307467
0.00346183
0.00355441
0.00439526
0.00623102
0.0056901
-0.00374263
-0.0553261
-0.101009
-0.101302
-0.106543
-0.124223
-0.162754
-0.138886
-0.0794294
-0.0202529
0.000630503
0.00597051
0.00723591
0.00745174
0.00654661
0.00574544
0.0050792
0.00415659
0.0037708
0.00342394
0.00306832
0.00289452
0.00280774
0.00263284
0.00261998
0.00257781
0.00260115
0.00258719
0.00272163
0.00278498
0.00300089
0.00316915
0.00328311
0.00327245
0.00297266
0.00281242
0.00577719
0.00685614
0.00909491
0.0106848
0.0064163
-0.0296954
-0.0651499
-0.0779179
-0.0984344
-0.133678
-0.196276
-0.182391
-0.106554
-0.0331048
-0.00267409
0.00569194
0.00700605
0.00764793
0.00667805
0.00589958
0.00521743
0.00433746
0.00386835
0.0035795
0.00317053
0.00305677
0.00289677
0.00271906
0.00271001
0.00265277
0.00264822
0.00266906
0.0027765
0.00286308
0.00310415
0.00317927
0.00324256
0.00326543
0.00357325
0.00455781
0.00829857
0.00896488
0.0119576
0.0162412
0.0141528
-0.0118813
-0.0407162
-0.0581995
-0.092218
-0.143301
-0.230006
-0.233243
-0.135421
-0.0490131
-0.00532939
0.00458991
0.00682017
0.00777347
0.00667601
0.00584306
0.00514004
0.00431499
0.00372146
0.00340934
0.0030188
0.00296783
0.00277055
0.00263795
0.00260635
0.00255641
0.00257421
0.00259785
0.00265675
0.0028037
0.00297877
0.00303868
0.00315801
0.00315221
0.00294138
0.00255061
0.0109607
0.0107991
0.01459
0.0211557
0.0205358
-8.25338e-05
-0.0256591
-0.0432622
-0.0870838
-0.152265
-0.260554
-0.282624
-0.164141
-0.0609748
-0.00699077
0.0036817
0.00677975
0.00813092
0.00674428
0.00582741
0.00504255
0.0042033
0.00352564
0.00310679
0.00269421
0.00265742
0.00246541
0.00238017
0.0023166
0.00231218
0.00236197
0.00235683
0.00241758
0.0025684
0.00270031
0.00283556
0.00298809
0.00307692
0.0034769
0.00423925
0.0132887
0.0128404
0.0168263
0.0242709
0.0237761
0.00685083
-0.0191245
-0.0336484
-0.0831153
-0.158729
-0.281011
-0.320895
-0.185893
-0.0668166
-0.00980642
0.00575718
0.00700434
0.00862897
0.0071883
0.00624558
0.00521354
0.00428658
0.00360136
0.00304039
0.00255584
0.00247187
0.00227349
0.00219767
0.00214839
0.00218495
0.00223674
0.00221948
0.00231005
0.00242566
0.00255153
0.00270707
0.0028539
0.00290194
0.00288502
0.0026763
0.0145772
0.0152495
0.0187315
0.0251536
0.0251214
0.00886277
-0.0179871
-0.0255923
-0.0801929
-0.160607
-0.28609
-0.336244
-0.192197
-0.0675018
-0.0138959
0.0105361
0.00768261
0.00856404
0.00803581
0.00684133
0.00549554
0.00458213
0.00391572
0.00326229
0.00272732
0.00257412
0.00235561
0.00227715
0.00222649
0.0022669
0.00231267
0.00232592
0.00243227
0.00249999
0.00259337
0.002742
0.00285328
0.00295818
0.003274
0.00380054
0.0151718
0.0169949
0.0199664
0.0245712
0.0249601
0.0104741
-0.0117736
-0.0277866
-0.0791344
-0.15952
-0.274244
-0.315201
-0.186257
-0.0624822
-0.0142123
0.0115294
0.0099459
0.00833681
0.00900922
0.00720103
0.00559485
0.00473257
0.00408937
0.00340402
0.00286838
0.00265377
0.00238452
0.00231886
0.00225469
0.00229447
0.00234104
0.00240727
0.00251563
0.00259289
0.0026757
0.00283003
0.00287056
0.00293469
0.00289449
0.00277897
0.0159146
0.017895
0.020511
0.0247219
0.0242091
0.010138
-0.0108908
-0.0301314
-0.0781865
-0.152397
-0.24319
-0.272902
-0.171379
-0.0557402
-0.0118689
0.00862208
0.0134724
0.00950939
0.00932116
0.00748486
0.00543646
0.00460114
0.00388526
0.00320005
0.0026752
0.00233367
0.00203929
0.00198774
0.00194045
0.00196268
0.00200712
0.00211187
0.00224771
0.00239892
0.00253907
0.00267786
0.00271815
0.00287207
0.00308396
0.00346913
0.016562
0.0183958
0.0204894
0.0237481
0.0220829
0.0113416
-0.0105976
-0.0348052
-0.0774996
-0.139188
-0.207951
-0.226789
-0.148089
-0.0505994
-0.00841391
0.00844093
0.0154715
0.0117646
0.0089871
0.00801548
0.00554358
0.00464731
0.00364114
0.00286143
0.00239911
0.00194632
0.00171407
0.00158766
0.00151808
0.00150879
0.00155978
0.00168359
0.00185557
0.00200796
0.00218892
0.00228748
0.00246396
0.00263647
0.00273892
0.00283049
0.0164096
0.0185328
0.0198696
0.0215434
0.019276
0.0102613
-0.00914422
-0.0353652
-0.0735003
-0.123873
-0.174008
-0.183907
-0.122878
-0.0439564
-0.00468648
0.0105752
0.0150741
0.0142759
0.00977593
0.00877904
0.00642167
0.00512508
0.00381873
0.00286505
0.00249066
0.00200358
0.00176931
0.00150631
0.00140522
0.00140633
0.00145391
0.00154857
0.00166522
0.00175887
0.00190871
0.00202799
0.00228455
0.00246202
0.00273497
0.00311598
0.0158091
0.0180021
0.0186701
0.018993
0.01624
0.00723251
-0.0109536
-0.0364133
-0.068932
-0.107204
-0.140563
-0.144611
-0.0995709
-0.0369406
-0.000727587
0.0125276
0.0144794
0.0158146
0.0113937
0.00949339
0.00753381
0.00569852
0.00425022
0.00315636
0.00266025
0.00219378
0.0018419
0.00161987
0.0015271
0.00154096
0.00156095
0.00164775
0.0017095
0.00178535
0.00188291
0.00205338
0.00225547
0.00240266
0.00256343
0.00273446
0.0150498
0.0169247
0.0169405
0.0160233
0.0124798
0.00319886
-0.0147556
-0.0407604
-0.0691131
-0.0971912
-0.116654
-0.114919
-0.0790885
-0.0298452
0.00301532
0.0136768
0.015345
0.016373
0.0126833
0.00969037
0.00776715
0.00565036
0.00426398
0.00314389
0.00246298
0.0020176
0.00159991
0.0014708
0.00136386
0.00142501
0.00149992
0.00161413
0.00169067
0.00181524
0.0019362
0.00214167
0.00229196
0.00244876
0.00262753
0.00286939
0.0136872
0.015524
0.0146896
0.0126559
0.00813814
-0.00190335
-0.0202185
-0.0469199
-0.0731205
-0.0953534
-0.103912
-0.0952384
-0.0623127
-0.0229014
0.0061871
0.0151554
0.0178138
0.0163878
0.0135483
0.00958112
0.0074444
0.00516314
0.00377986
0.00268856
0.00198062
0.00158117
0.00121035
0.000984677
0.000859102
0.000916839
0.00102602
0.00115235
0.00133421
0.00152538
0.00172409
0.00195695
0.0021226
0.00233825
0.00251195
0.0026778
0.0119654
0.0139981
0.01211
0.00854949
0.00312765
-0.00778953
-0.0275744
-0.0550609
-0.0807661
-0.0970929
-0.0975965
-0.0801318
-0.0487566
-0.0166382
0.0086835
0.0178699
0.0205593
0.0165234
0.0143905
0.0102993
0.00787672
0.00542874
0.0036117
0.00239092
0.0016492
0.00118644
0.000845977
0.000560166
0.000406215
0.000343186
0.000384814
0.000497616
0.000700849
0.000889107
0.00113398
0.00137944
0.00165651
0.00194392
0.00221426
0.00234239
0.0100188
0.0121041
0.00934206
0.00435733
-0.00302129
-0.0149874
-0.0368652
-0.0658665
-0.0913832
-0.10105
-0.0958981
-0.0709385
-0.0385023
-0.0110918
0.0106701
0.0210893
0.0216045
0.0178441
0.0155979
0.0118664
0.00898298
0.00653601
0.00400773
0.0025585
0.00158688
0.000986464
0.000596107
0.000329142
0.00011682
-1.04501e-05
-3.81035e-05
1.01358e-05
0.000124251
0.000250069
0.000505207
0.000787896
0.00114002
0.00147147
0.00184345
0.00203216
0.00814543
0.00941348
0.00604315
-0.000274636
-0.00988834
-0.0240919
-0.0489236
-0.0805871
-0.109649
-0.111866
-0.0980966
-0.0663425
-0.0314759
-0.00607307
0.0122671
0.0233012
0.0218531
0.0195808
0.016013
0.012706
0.00917187
0.00708769
0.004504
0.00296701
0.00174115
0.00090838
0.000378539
5.91008e-05
-0.000116495
-0.000191093
-0.000228254
-0.000227109
-0.000166926
-5.6879e-05
0.000212072
0.000496649
0.000863069
0.00123665
0.0015414
0.00164699
0.00588844
0.00601755
0.00260111
-0.00575922
-0.0176741
-0.0356854
-0.065351
-0.101209
-0.134805
-0.130311
-0.103783
-0.0657148
-0.0273401
-0.00183351
0.0136071
0.0244268
0.0226261
0.0201786
0.0154268
0.012101
0.00840108
0.00670928
0.00452376
0.00291706
0.00150642
0.000514746
-6.78049e-06
-0.000332894
-0.000422846
-0.000455188
-0.000454891
-0.000412736
-0.000332502
-0.000155533
0.00011678
0.00040516
0.000757281
0.00108457
0.00129145
0.00133635
0.00361613
0.00224487
-0.00126573
-0.0120997
-0.0266304
-0.0500275
-0.0869501
-0.135751
-0.163886
-0.154438
-0.114728
-0.0689805
-0.0274682
0.000106843
0.0158469
0.0246504
0.0234669
0.0201149
0.0149166
0.0111109
0.00807417
0.00576547
0.00383809
0.00195443
0.000781501
-0.000105972
-0.000582216
-0.000916754
-0.000980687
-0.00100717
-0.000978108
-0.000852634
-0.000688012
-0.000440418
-0.000164674
0.000160857
0.000490738
0.000792344
0.000969264
0.000992234
0.00134434
-0.00123364
-0.00539911
-0.0183253
-0.0365843
-0.0687695
-0.116368
-0.177686
-0.208476
-0.185038
-0.129959
-0.0753071
-0.0315908
-0.000720011
0.0186713
0.0232732
0.0235051
0.0196174
0.0147887
0.0107337
0.00802178
0.0048138
0.0026566
0.000941794
-6.65374e-05
-0.000898503
-0.00144949
-0.00178965
-0.0018758
-0.00189807
-0.0017948
-0.00163902
-0.00145001
-0.00119565
-0.000837111
-0.000435016
-6.83873e-05
0.000259028
0.00047409
0.000535136
-0.0010471
-0.00377198
-0.0098088
-0.02413
-0.0475613
-0.0949374
-0.161906
-0.23217
-0.266888
-0.224038
-0.149182
-0.084268
-0.037281
-0.00293415
0.0185084
0.0208711
0.0215552
0.018168
0.0144179
0.0104142
0.00740699
0.00409918
0.00166572
0.000289488
-0.00114858
-0.00185383
-0.00247537
-0.00275976
-0.00287038
-0.00288113
-0.00275758
-0.0026284
-0.00242869
-0.00213273
-0.00168715
-0.0012159
-0.000744033
-0.000343445
-7.76918e-05
-3.20581e-05
-0.00374326
-0.00602036
-0.0147031
-0.0295877
-0.0613584
-0.132756
-0.218597
-0.316157
-0.338307
-0.26835
-0.171156
-0.0969295
-0.0429635
-0.00490848
0.0130561
0.0174886
0.0177494
0.0158496
0.0129122
0.00910622
0.00614499
0.00330408
0.00121481
-0.000337592
-0.00190725
-0.00250142
-0.00331833
-0.00353657
-0.00372691
-0.00372969
-0.00364448
-0.00350255
-0.00326964
-0.00292446
-0.00245425
-0.00196547
-0.00146145
-0.00103634
-0.000746113
-0.000699862
-0.00563591
-0.00833623
-0.0196996
-0.0364023
-0.0810002
-0.174548
-0.29465
-0.416383
-0.408894
-0.304821
-0.194543
-0.108526
-0.0482969
-0.011315
0.00398167
0.0114411
0.0128934
0.0121678
0.00963496
0.00633832
0.00423174
0.00196926
0.000383871
-0.00126956
-0.00258564
-0.00334495
-0.00414241
-0.00439755
-0.00469923
-0.00469193
-0.00468516
-0.00451236
-0.00426419
-0.00389837
-0.00345704
-0.00296795
-0.0024581
-0.0020212
-0.0016773
-0.00159561
-0.00494119
-0.00911257
-0.0197394
-0.0394419
-0.103343
-0.207619
-0.366289
-0.473734
-0.430767
-0.315306
-0.210707
-0.11715
-0.0564904
-0.0225844
-0.00691189
0.00239143
0.0054893
0.00572017
0.00429767
0.00256542
0.000989073
-0.000978163
-0.00217341
-0.0037339
-0.00459536
-0.005371
-0.00589079
-0.00629166
-0.00653242
-0.00651022
-0.00650806
-0.00622733
-0.00597342
-0.00554036
-0.00505579
-0.00450056
-0.00393908
-0.00339867
-0.00295264
-0.00279984
-0.00102717
-0.00652204
-0.0118506
-0.0306405
-0.101975
-0.201556
-0.32745
-0.415742
-0.385486
-0.289497
-0.196948
-0.117145
-0.0699644
-0.039364
-0.0214584
-0.00993329
-0.00577135
-0.00309582
-0.00295536
-0.00321328
-0.00449233
-0.00583202
-0.00666086
-0.00773204
-0.0083547
-0.0089398
-0.00921001
-0.00948731
-0.00935108
-0.00924368
-0.00899683
-0.00857541
-0.00821295
-0.00757164
-0.00691351
-0.00617255
-0.0054519
-0.00477658
-0.00427368
-0.00404579
0.00577528
0.00290982
0.00446024
-0.0159663
-0.0610049
-0.152876
-0.242141
-0.281127
-0.270632
-0.238059
-0.179471
-0.133899
-0.0924904
-0.0624574
-0.0406287
-0.0275208
-0.0198696
-0.0144028
-0.0125209
-0.0113693
-0.011322
-0.0116045
-0.0119949
-0.0123677
-0.0128257
-0.0128858
-0.0127811
-0.0125084
-0.0120365
-0.0116665
-0.0111243
-0.0105799
-0.00990539
-0.00909055
-0.0082766
-0.00745899
-0.00671002
-0.00608346
-0.00558515
-0.00538282
0.0161336
0.0202151
0.025979
0.0136826
-0.0209555
-0.0691346
-0.144935
-0.188139
-0.209151
-0.20665
-0.180906
-0.155582
-0.119247
-0.091088
-0.06492
-0.0505155
-0.0376812
-0.0302216
-0.0246908
-0.0213041
-0.0193351
-0.0183487
-0.0174063
-0.0170726
-0.0166701
-0.0159873
-0.0155386
-0.0148197
-0.0143707
-0.0137568
-0.0130477
-0.0123218
-0.0115307
-0.01076
-0.00998042
-0.00929467
-0.00861101
-0.00802698
-0.00744888
-0.00738164
0.0309203
0.0403921
0.0466854
0.0525521
0.0334991
-0.0219949
-0.0841809
-0.135209
-0.172228
-0.185582
-0.187433
-0.174526