/*--------------------------------*- C++ -*----------------------------------*\
  =========                 |
  \\      /  F ield         | OpenFOAM: The Open Source CFD Toolbox
   \\    /   O peration     | Website:  https://openfoam.org
    \\  /    A nd           | Version:  10
     \\/     M anipulation  |
\*---------------------------------------------------------------------------*/
FoamFile
{
    format      ascii;
    class       volScalarField;
    location    "0.651551";
    object      p;
}
// * * * * * * * * * * * * * * * * * * * * * * * * * * * * * * * * * * * * * //

dimensions      [1 -1 -2 0 0 0 0];

internalField   nonuniform List<scalar> 
16320
(
0.696256
0.651369
0.614188
0.58538
0.563586
0.547427
0.535923
0.527577
0.520799
0.515265
0.510411
0.506532
0.503308
0.500279
0.503581
0.507418
0.51291
0.519057
0.523858
0.527146
0.529056
0.531448
0.533832
0.536317
0.538984
0.541849
0.544939
0.548263
0.551814
0.555576
0.559534
0.563714
0.568207
0.572841
0.577691
0.58281
0.588252
0.59409
0.600386
0.607071
0.614113
0.621495
0.629036
0.636183
0.641971
0.648059
0.650879
0.650104
0.650884
0.656365
0.660276
0.663231
0.666249
0.668579
0.671251
0.669951
0.666265
0.659637
0.650378
0.638685
0.625462
0.612339
0.60206
0.593593
0.586233
0.579415
0.571831
0.564224
0.556722
0.549464
0.542824
0.537108
0.532697
0.529841
0.528509
0.528026
0.531176
0.533894
0.537267
0.543134
0.552645
0.572133
0.60384
0.645093
0.684836
0.712447
0.720989
0.715994
0.699303
0.671457
0.640984
0.610929
0.582295
0.556806
0.532444
0.508027
0.488502
0.482745
0.474525
0.468874
0.465878
0.46646
0.471184
0.477589
0.48632
0.496378
0.50535
0.519676
0.537379
0.556535
0.57419
0.589048
0.602759
0.677627
0.639727
0.606793
0.579878
0.55894
0.543202
0.531918
0.524085
0.517564
0.51223
0.507769
0.503998
0.50119
0.498464
0.500189
0.504885
0.509827
0.515988
0.521336
0.52543
0.527205
0.530077
0.532645
0.535288
0.538128
0.541215
0.544555
0.548156
0.552014
0.556109
0.56042
0.564937
0.569684
0.574582
0.57972
0.585047
0.590602
0.596428
0.602545
0.608911
0.615488
0.62223
0.628994
0.63555
0.641303
0.646427
0.649178
0.650087
0.653556
0.656796
0.659522
0.662517
0.665246
0.66882
0.669838
0.668705
0.665048
0.658541
0.649217
0.637243
0.624022
0.611857
0.602762
0.594794
0.587783
0.580702
0.573086
0.565733
0.558758
0.552153
0.545943
0.540418
0.53594
0.532664
0.531098
0.530013
0.533171
0.535712
0.538342
0.541933
0.551259
0.566297
0.593743
0.635632
0.683947
0.723772
0.743265
0.742069
0.730355
0.704944
0.672782
0.640622
0.610103
0.582013
0.556804
0.530774
0.507463
0.494355
0.48505
0.476107
0.472065
0.471405
0.475641
0.483968
0.492518
0.502984
0.511832
0.524406
0.541032
0.559679
0.577169
0.591438
0.604369
0.654462
0.624511
0.597406
0.574048
0.554821
0.539722
0.528811
0.521484
0.514567
0.509979
0.505979
0.502475
0.500077
0.498475
0.497583
0.503106
0.507462
0.514019
0.51956
0.523712
0.526484
0.529323
0.53195
0.534706
0.537677
0.540916
0.544454
0.548269
0.552369
0.556724
0.561307
0.566091
0.571052
0.576148
0.581363
0.586774
0.592302
0.597984
0.603825
0.6098
0.615877
0.62206
0.628326
0.634345
0.639872
0.644051
0.647343
0.649365
0.65243
0.654771
0.657284
0.659678
0.663329
0.6652
0.665797
0.664511
0.660844
0.654403
0.644864
0.63289
0.620074
0.609989
0.601776
0.594409
0.587561
0.580014
0.572673
0.565818
0.559288
0.553038
0.547327
0.542316
0.53812
0.534825
0.533164
0.532171
0.535185
0.537442
0.539613
0.54197
0.551795
0.563465
0.585959
0.624265
0.677366
0.730526
0.76289
0.768829
0.760727
0.740148
0.707167
0.673105
0.640374
0.610394
0.583211
0.556391
0.530749
0.511105
0.498613
0.488576
0.481694
0.479559
0.482965
0.491319
0.499424
0.509627
0.518811
0.528891
0.543966
0.561154
0.578315
0.592042
0.604038
0.630351
0.6077
0.586351
0.567002
0.550338
0.536705
0.52644
0.519673
0.51224
0.508865
0.505119
0.501945
0.49989
0.498582
0.497442
0.503109
0.507559
0.513787
0.518864
0.522956
0.526158
0.528965
0.531682
0.53454
0.537607
0.540954
0.544602
0.548566
0.552842
0.557391
0.562177
0.567149
0.572275
0.577497
0.582775
0.588104
0.593524
0.598993
0.604519
0.610082
0.615681
0.621281
0.626831
0.632125
0.636944
0.640894
0.644067
0.646925
0.649179
0.651198
0.653102
0.656213
0.657913
0.659057
0.659078
0.657456
0.653715
0.647092
0.63737
0.625566
0.614589
0.606432
0.599035
0.592354
0.58509
0.577541
0.570628
0.564375
0.558373
0.552765
0.547464
0.542861
0.539133
0.536177
0.534734
0.534471
0.537162
0.539347
0.541357
0.543361
0.552645
0.562728
0.582703
0.61747
0.670922
0.733575
0.778796
0.793017
0.786845
0.768935
0.740813
0.705428
0.671094
0.639391
0.61046
0.584202
0.557053
0.533319
0.516118
0.503352
0.493814
0.490148
0.49233
0.499515
0.507859
0.516489
0.525401
0.533074
0.546211
0.561514
0.577254
0.590048
0.600928
0.607977
0.590747
0.57429
0.559058
0.545379
0.53372
0.524478
0.518255
0.511414
0.508685
0.505183
0.502352
0.500715
0.499736
0.498833
0.504317
0.508607
0.513915
0.518941
0.522959
0.526353
0.528953
0.531862
0.534789
0.537882
0.54126
0.544969
0.549021
0.553402
0.558077
0.562996
0.568103
0.573338
0.578635
0.583919
0.589161
0.59438
0.599581
0.604779
0.609935
0.615027
0.620049
0.624953
0.62961
0.633811
0.637432
0.64051
0.643
0.644531
0.646161
0.648581
0.649664
0.650502
0.65083
0.650134
0.648083
0.643976
0.636979
0.627446
0.61594
0.608143
0.601122
0.594515
0.588222
0.580652
0.573415
0.567084
0.561551
0.556159
0.55104
0.54643
0.542575
0.539372
0.537023
0.536258
0.536589
0.538937
0.541483
0.543626
0.545846
0.554927
0.564229
0.582369
0.615232
0.668173
0.734763
0.789207
0.809147
0.804074
0.790237
0.765149
0.732154
0.698666
0.665939
0.637093
0.6105
0.583673
0.558594
0.537797
0.521991
0.50969
0.503739
0.50406
0.508843
0.516507
0.523241
0.531248
0.537348
0.547987
0.561072
0.574543
0.585946
0.595727
0.589
0.57545
0.562625
0.550965
0.540318
0.530882
0.522848
0.516939
0.512646
0.509253
0.506286
0.503938
0.502828
0.502334
0.5021
0.506793
0.510575
0.515354
0.520012
0.523607
0.526833
0.529678
0.532566
0.535385
0.538454
0.5418
0.545497
0.549568
0.553997
0.558745
0.563752
0.568949
0.574256
0.579583
0.584833
0.58995
0.594934
0.59984
0.604672
0.609408
0.614022
0.618507
0.622821
0.626885
0.630544
0.633722
0.636189
0.637971
0.639164
0.641196
0.641537
0.641729
0.641618
0.640949
0.639458
0.636778
0.631995
0.624676
0.615394
0.606788
0.600337
0.594158
0.588369
0.581869
0.574615
0.568045
0.562409
0.557119
0.552319
0.547993
0.544294
0.541529
0.538997
0.537551
0.537593
0.53858
0.541169
0.543951
0.546647
0.549555
0.558818
0.568308
0.585764
0.616735
0.668129
0.735381
0.793287
0.813502
0.809375
0.795852
0.773665
0.747337
0.71621
0.686365
0.658429
0.632537
0.608068
0.582814
0.560346
0.542216
0.529118
0.519826
0.5169
0.519119
0.524677
0.530111
0.536543
0.5416
0.549594
0.560357
0.571215
0.580861
0.589475
0.574439
0.563219
0.552957
0.543947
0.535783
0.528328
0.522125
0.517324
0.514195
0.510488
0.508523
0.506812
0.50621
0.506293
0.506933
0.510297
0.513439
0.517658
0.521612
0.524963
0.528082
0.531003
0.533542
0.536356
0.53928
0.542516
0.546135
0.550168
0.554598
0.559375
0.564425
0.569669
0.575039
0.580397
0.585568
0.590513
0.595221
0.599811
0.604233
0.608559
0.612709
0.616661
0.620385
0.623838
0.626924
0.629415
0.631391
0.632633
0.634114
0.634006
0.633597
0.63283
0.631625
0.629903
0.627534
0.623943
0.618462
0.611083
0.602174
0.596653
0.59108
0.585698
0.580551
0.573964
0.567367
0.561497
0.556352
0.551562
0.547399
0.544004
0.541371
0.539588
0.537945
0.536247
0.537414
0.540197
0.543504
0.546767
0.550382
0.554568
0.564182
0.574585
0.591822
0.621549
0.670992
0.735155
0.790857
0.809162
0.804762
0.791579
0.771423
0.748935
0.722828
0.697488
0.672441
0.648896
0.625751
0.602765
0.579892
0.560263
0.545398
0.534463
0.529608
0.529716
0.531913
0.536815
0.541483
0.545304
0.551107
0.559707
0.567997
0.575776
0.582896
0.564292
0.554486
0.545805
0.538441
0.532323
0.527053
0.522082
0.518775
0.516601
0.512756
0.512116
0.51124
0.510749
0.511516
0.512912
0.515086
0.517539
0.520948
0.52426
0.527236
0.530171
0.533235
0.534876
0.537564
0.540318
0.54336
0.546811
0.550726
0.55509
0.559844
0.564852
0.570046
0.575425
0.580807
0.585834
0.590613
0.595126
0.599391
0.603324
0.607368
0.611098
0.614524
0.61761
0.620464
0.62311
0.625283
0.626878
0.627703
0.627287
0.626423
0.625083
0.623241
0.620933
0.618146
0.614722
0.610113
0.604088
0.596703
0.589875
0.585268
0.580581
0.575961
0.57109
0.565012
0.559242
0.554052
0.549538
0.545416
0.541902
0.539445
0.537885
0.537459
0.537221
0.536308
0.538126
0.540981
0.545268
0.54954
0.554633
0.560396
0.570923
0.582944
0.599151
0.627751
0.674906
0.733213
0.781597
0.797456
0.792327
0.779678
0.761135
0.740546
0.720892
0.698311
0.678041
0.656545
0.635978
0.615664
0.594128
0.574281
0.55847
0.546486
0.540489
0.53888
0.538835
0.542055
0.545563
0.54812
0.552274
0.559189
0.565135
0.571019
0.576447
0.55811
0.549201
0.541499
0.535299
0.530139
0.526551
0.523401
0.520991
0.520015
0.516447
0.517001
0.517244
0.516625
0.518854
0.519612
0.521057
0.522877
0.525363
0.527939
0.530349
0.532852
0.535471
0.536988
0.539191
0.541563
0.544262
0.547406
0.551116
0.555319
0.560015
0.565002
0.570432
0.576387
0.58214
0.587063
0.591635
0.59566
0.599172
0.601324
0.60545
0.609112
0.612318
0.614747
0.617066
0.619201
0.620705
0.621288
0.621173
0.62019
0.618495
0.616159
0.613256
0.609851
0.605965
0.601382
0.595885
0.589443
0.582209
0.57745
0.573261
0.569192
0.565245
0.560586
0.55536
0.550509
0.546174
0.542689
0.539515
0.536849
0.535029
0.534236
0.534206
0.53526
0.536183
0.538451
0.542317
0.547682
0.552815
0.558799
0.566437
0.577815
0.590703
0.606364
0.631159
0.674083
0.72844
0.768
0.781199
0.775217
0.762952
0.745603
0.727653
0.711993
0.69323
0.675548
0.657071
0.639083
0.620248
0.601656
0.582844
0.56673
0.555136
0.548479
0.545616
0.54352
0.545952
0.548498
0.549721
0.552828
0.558471
0.562437
0.566575
0.57057
0.555132
0.546796
0.539617
0.53406
0.529287
0.526903
0.525037
0.523628
0.523317
0.522715
0.522577
0.523857
0.523661
0.526553
0.527152
0.527898
0.529264
0.530862
0.53259
0.534379
0.536306
0.53819
0.539558
0.541159
0.542966
0.545154
0.547798
0.551279
0.555499
0.561171
0.566901
0.573116
0.579137
0.584562
0.588568
0.592237
0.59568
0.599251
0.60534
0.607031
0.60826
0.609796
0.611221
0.613225
0.614906
0.615651
0.61557
0.614689
0.612902
0.610312
0.607006
0.603066
0.598582
0.593572
0.587925
0.581742
0.575039
0.568424
0.564342
0.560715
0.557199
0.553825
0.54958
0.545363
0.541594
0.538172
0.535267
0.532952
0.530811
0.531644
0.530688
0.531229
0.532901
0.535731
0.538537
0.542461
0.549751
0.55617
0.563283
0.571881
0.582761
0.593651
0.609872
0.633662
0.673984
0.721318
0.753036
0.762497
0.756611
0.744314
0.728049
0.711527
0.69688
0.682077
0.66771
0.652853
0.635933
0.619176
0.602612
0.585814
0.570612
0.560012
0.552907
0.548962
0.545845
0.547985
0.549862
0.551219
0.552642
0.557382
0.55979
0.562513
0.565569
0.554566
0.546555
0.539597
0.534331
0.530095
0.528589
0.527465
0.527048
0.52783
0.529483
0.52819
0.530911
0.531752
0.535142
0.535527
0.535907
0.536694
0.537441
0.538324
0.539495
0.54109
0.541223
0.542468
0.543475
0.544601
0.545994
0.548108
0.553108
0.558964
0.56574
0.573204
0.580121
0.586177
0.590683
0.593505
0.595476
0.596551
0.597262
0.597596
0.5994
0.603571
0.606468
0.6096
0.61049
0.61077
0.610785
0.609922
0.608164
0.605512
0.602016
0.597749
0.592806
0.587272
0.581193
0.574668
0.567922
0.56109
0.555056
0.551236
0.547963
0.544898
0.541963
0.53846
0.535356
0.532797
0.530782
0.52937
0.528286
0.527335
0.525598
0.52728
0.527779
0.529749
0.533462
0.538444
0.543924
0.550515
0.559599
0.568117
0.578073
0.589605
0.601236
0.615333
0.638497
0.676133
0.715316
0.739279
0.74365
0.738053
0.725059
0.709278
0.693318
0.678756
0.667292
0.654355
0.642846
0.628532
0.614581
0.599587
0.584691
0.571125
0.561273
0.554165
0.549802
0.546515
0.548607
0.550275
0.551991
0.551564
0.555726
0.557121
0.558834
0.561255
0.556146
0.548358
0.541469
0.536044
0.532466
0.530818
0.530712
0.531169
0.532431
0.535268
0.535752
0.538775
0.540804
0.544081
0.544646
0.544928
0.545148
0.545059
0.545092
0.545443
0.545907
0.545723
0.546056
0.546292
0.54701
0.546716
0.552361
0.559744
0.56802
0.575899
0.583628
0.589565
0.593844
0.594364
0.593966
0.59317
0.592044
0.591127
0.592299
0.594316
0.596709
0.600795
0.604389
0.606035
0.606426
0.605836
0.604335
0.601724
0.598154
0.593731
0.58851
0.582587
0.576066
0.569047
0.561796
0.554511
0.547649
0.541941
0.538296
0.535273
0.532582
0.530104
0.527484
0.525543
0.524114
0.523396
0.52306
0.522987
0.523167
0.523279
0.52349
0.524334
0.526868
0.530702
0.537349
0.544608
0.55148
0.562987
0.573208
0.584103
0.596178
0.607932
0.621722
0.643251
0.676954
0.709099
0.727042
0.726642
0.719705
0.706005
0.690067
0.674136
0.660143
0.649801
0.638184
0.628241
0.616755
0.605537
0.593046
0.580495
0.56906
0.55963
0.552669
0.547849
0.545445
0.547583
0.549329
0.551388
0.549969
0.553435
0.554259
0.555333
0.557472
0.560576
0.551968
0.545058
0.539402
0.535659
0.533772
0.533963
0.535296
0.537339
0.540502
0.544551
0.545636
0.550033
0.552417
0.554866
0.555278
0.554478
0.553638
0.552886
0.552777
0.550966
0.550886
0.55035
0.549454
0.549419
0.554411
0.562199
0.570411
0.579562
0.586505
0.591285
0.595254
0.596166
0.596862
0.596049
0.59403
0.591776
0.589984
0.589502
0.589341
0.593033
0.596012
0.599626
0.601674
0.602131
0.601131
0.598904
0.595426
0.590932
0.585546
0.57936
0.572495
0.565064
0.55725
0.549383
0.541692
0.53473
0.529185
0.525751
0.522949
0.520594
0.518593
0.516899
0.51596
0.5156
0.515838
0.516385
0.517127
0.517998
0.518832
0.519463
0.521364
0.523658
0.528022
0.535101
0.544324
0.554347
0.565284
0.57829
0.590154
0.602477
0.614047
0.62841
0.649013
0.678439
0.703644
0.715124
0.712124
0.7026
0.687956
0.670957
0.654808
0.641171
0.631299
0.620618
0.612085
0.603464
0.594438
0.584422
0.574045
0.564062
0.555537
0.548744
0.543495
0.543309
0.545225
0.547051
0.549375
0.547587
0.550519
0.551064
0.551913
0.553931
0.568995
0.559157
0.550256
0.544154
0.53967
0.537813
0.537691
0.539614
0.542486
0.54628
0.550594
0.554948
0.557432
0.561611
0.563956
0.565142
0.564218
0.562818
0.561131
0.559769
0.557813
0.556783
0.555309
0.552863
0.558033
0.56515
0.572662
0.582347
0.589733
0.592326
0.597308
0.599832
0.60022
0.5994
0.597976
0.594928
0.591314
0.589202
0.58825
0.587988
0.591171
0.593987
0.596513
0.598227
0.598333
0.596762
0.593659
0.589332
0.583875
0.577461
0.570321
0.56255
0.554304
0.545834
0.537479
0.529621
0.52256
0.517194
0.513928
0.511305
0.509246
0.507657
0.5068
0.506728
0.507189
0.508215
0.509516
0.510979
0.512522
0.514063
0.515625
0.517451
0.520301
0.525273
0.532464
0.543502
0.556057
0.568318
0.583292
0.596343
0.608465
0.619632
0.635145
0.655374
0.68165
0.699703
0.70411
0.698951
0.686656
0.670741
0.652518
0.635979
0.622837
0.61272
0.602936
0.595937
0.589615
0.582395
0.574767
0.566217
0.55714
0.549535
0.542915
0.537933
0.539598
0.541583
0.543505
0.545921
0.544379
0.546911
0.547483
0.54859
0.5509
0.57977
0.569837
0.560113
0.550601
0.545395
0.54271
0.542435
0.544343
0.547825
0.552459
0.557438
0.562111
0.566294
0.568868
0.571872
0.573057
0.573204
0.571541
0.569646
0.566896
0.565216
0.56306
0.559946
0.562423
0.56889
0.574439
0.584143
0.592197
0.596182
0.600054
0.60377
0.606717
0.6041
0.604001
0.60181
0.598222
0.594081
0.591469
0.59087
0.590858
0.592168
0.593714
0.595875
0.596408
0.595475
0.592883
0.588777
0.583374
0.576873
0.569486
0.561326
0.552711
0.543778
0.534802
0.526133
0.518249
0.51121
0.506349
0.503154
0.500642
0.498839
0.497754
0.497474
0.497888
0.499014
0.500586
0.502527
0.504635
0.506776
0.508951
0.511192
0.513412
0.517462
0.522449
0.53029
0.541985
0.557228
0.573687
0.587537
0.60266
0.61447
0.625596
0.642645
0.663766
0.685386
0.696206
0.695172
0.686932
0.672243
0.653889
0.634612
0.618397
0.606208
0.594888
0.586253
0.580639
0.576019
0.570515
0.564643
0.557454
0.549848
0.542205
0.535693
0.533105
0.534618
0.536699
0.538778
0.540866
0.540746
0.542769
0.543522
0.54515
0.547913
0.596367
0.584429
0.573292
0.562809
0.552817
0.549103
0.547976
0.549746
0.553554
0.558943
0.565041
0.56998
0.573583
0.576666
0.578631
0.580013
0.580527
0.579223
0.577337
0.575169
0.573065
0.569975
0.567535
0.572605
0.578943
0.585307
0.595302
0.598255
0.605019
0.607762
0.611082
0.612307
0.611048
0.609919
0.607439
0.604594
0.601622
0.598364
0.59679
0.596307
0.596513
0.597017
0.597158
0.596485
0.593935
0.589755
0.584199
0.577489
0.569819
0.561367
0.55235
0.542967
0.533516
0.524207
0.515484
0.5075
0.501138
0.496976
0.493717
0.49122
0.489587
0.488743
0.488751
0.489502
0.491041
0.492985
0.495338
0.497956
0.500755
0.503352
0.506412
0.50962
0.512826
0.520046
0.528147
0.540255
0.557774
0.577153
0.592491
0.609233
0.620938
0.633579
0.650025
0.672224
0.688572
0.692367
0.687669
0.675959
0.657966
0.637803
0.618149
0.602776
0.59065
0.57931
0.571499
0.566477
0.562613
0.55934
0.554358
0.547943
0.541565
0.534423
0.527913
0.528357
0.529365
0.531055
0.533013
0.534267
0.53664
0.538392
0.539254
0.541629
0.545106
0.618089
0.605575
0.591587
0.578327
0.566959
0.557257
0.555558
0.55617
0.560497
0.565998
0.572932
0.578821
0.582076
0.584215
0.585909
0.586761
0.587254
0.586831
0.585439
0.583951
0.581589
0.577649
0.57856
0.583975
0.588801
0.596407
0.60522
0.610421
0.614445
0.618244
0.620068
0.616497
0.617428
0.616108
0.61385
0.612221
0.611015
0.609281
0.607399
0.606013
0.605133
0.60391
0.6017
0.598528
0.593687
0.587375
0.579935
0.571624
0.562636
0.553136
0.543332
0.533445
0.523737
0.514053
0.505857
0.498361
0.493086
0.488962
0.485661
0.48317
0.481519
0.480723
0.480774
0.481572
0.483165
0.485287
0.487877
0.490832
0.494071
0.497277
0.501045
0.505073
0.50967
0.516936
0.525606
0.538941
0.558073
0.580028
0.597706
0.61549
0.627518
0.642657
0.660448
0.681256
0.691605
0.690112
0.681744
0.665318
0.644128
0.622876
0.60548
0.590271
0.577126
0.566399
0.559035
0.554196
0.551513
0.548882
0.544733
0.539386
0.532843
0.52643
0.523409
0.523054
0.523618
0.524808
0.526574
0.526822
0.531182
0.533411
0.534931
0.53801
0.542126
0.64423
0.631528
0.615527
0.598626
0.583744
0.572682
0.564654
0.565104
0.568154
0.574928
0.581837
0.588618
0.592119
0.593466
0.594205
0.59388
0.594747
0.594912
0.594556
0.593611
0.591527
0.586942
0.590428
0.595126
0.599738
0.609169
0.616425
0.623024
0.62641
0.628511
0.629546
0.620423
0.622471
0.621139
0.619733
0.619093
0.619267
0.61964
0.619767
0.619076
0.616087
0.612698
0.607838
0.601596
0.594076
0.585223
0.575655
0.565613
0.55528
0.544807
0.534413
0.524294
0.514747
0.504191
0.496573
0.491335
0.48641
0.482299
0.478963
0.476385
0.474566
0.473592
0.47342
0.47397
0.475376
0.477488
0.48017
0.483368
0.486874
0.490813
0.495188
0.500155
0.505723
0.512524
0.522478
0.537394
0.557709
0.582364
0.602127
0.620861
0.634843
0.651847
0.672736
0.689784
0.69365
0.689104
0.676691
0.65569
0.632557
0.612417
0.594981
0.579737
0.566461
0.556374
0.549284
0.544382
0.542308
0.539741
0.536198
0.530898
0.52476
0.520264
0.518602
0.517586
0.517619
0.517946
0.519764
0.518888
0.524555
0.527852
0.530373
0.534375
0.539078
0.670269
0.659642
0.642391
0.62253
0.604026
0.58991
0.581419
0.576385
0.579648
0.585762
0.592905
0.600169
0.603567
0.604394
0.603515
0.602832
0.603416
0.604329
0.604727
0.604324
0.602406
0.599087
0.602658
0.606469
0.612129
0.621567
0.630543
0.636223
0.638566
0.638408
0.636057
0.624707
0.626346
0.623642
0.624422
0.624884
0.62729
0.629025
0.629319
0.628011
0.625153
0.619452
0.612149
0.603637
0.593583
0.582313
0.570753
0.559076
0.54756
0.536387
0.525702
0.51563
0.506157
0.495876
0.491057
0.485733
0.480971
0.476855
0.473412
0.470616
0.468452
0.467133
0.466579
0.466809
0.467826
0.469755
0.472432
0.475699
0.479552
0.483924
0.488883
0.494608
0.500878
0.507514
0.519722
0.535426
0.557122
0.583963
0.605435
0.625219
0.642329
0.661892
0.684262
0.696855
0.696457
0.689747
0.672078
0.648159
0.625591
0.605126
0.587277
0.571676
0.558632
0.548893
0.541928
0.537472
0.534023
0.532166
0.528527
0.523859
0.518352
0.516538
0.514324
0.512371
0.511003
0.510531
0.511331
0.512641
0.517867
0.522127
0.525716
0.53047
0.535861
0.689333
0.684643
0.668521
0.646967
0.62626
0.60973
0.599508
0.595705
0.594945
0.60041
0.607799
0.613916
0.616967
0.617481
0.615797
0.614699
0.614526
0.615467
0.61612
0.616149
0.614411
0.613534
0.616059
0.618499
0.624367
0.634746
0.644485
0.648605
0.649173
0.645556
0.637969
0.630332
0.628815
0.62621
0.629296
0.631938
0.634707
0.636011
0.63646
0.635369
0.632222
0.625495
0.615568
0.602575
0.58969
0.576217
0.563492
0.551002
0.539152
0.527799
0.517164
0.507593
0.499168
0.492064
0.486526
0.481268
0.476568
0.472269
0.468658
0.465631
0.463253
0.461505
0.460564
0.460385
0.461048
0.462636
0.465119
0.46833
0.472252
0.47685
0.482234
0.4885
0.495316
0.502468
0.516144
0.532831
0.555943
0.584769
0.607685
0.62857
0.648353
0.671221
0.694306
0.70299
0.700724
0.690595
0.667339
0.644635
0.621334
0.600283
0.582022
0.56634
0.553611
0.543947
0.537049
0.531988
0.52863
0.525742
0.522605
0.51596
0.515388
0.512964
0.510078
0.506724
0.504405
0.503428
0.503202
0.505487
0.511062
0.516422
0.520993
0.52645
0.532546
0.706227
0.70219
0.690951
0.669872
0.648992
0.632143
0.621226
0.616763
0.617485
0.621129
0.626766
0.630353
0.632409
0.632385
0.630411
0.628624
0.627877
0.627391
0.628467
0.629242
0.628271
0.628654
0.630223
0.631587
0.637084
0.646624
0.653861
0.656057
0.655409
0.649992
0.640042
0.635783
0.633525
0.633142
0.637476
0.646739
0.65437
0.658773
0.659558
0.652367
0.639412
0.624408
0.610915
0.599892
0.585935
0.57022
0.55555
0.542515
0.530839
0.520318
0.511007
0.502945
0.49575
0.48884
0.483074
0.477685
0.472938
0.468769
0.464835
0.46147
0.458828
0.456883
0.455601
0.45495
0.455178
0.456185
0.458303
0.461218
0.465039
0.469713
0.475348
0.481973
0.489228
0.497105
0.511839
0.529464
0.553838
0.584205
0.608792
0.631137
0.653977
0.680517
0.702922
0.708258
0.70509
0.688805
0.667269
0.642974
0.618928
0.597564
0.579156
0.563627
0.551055
0.541384
0.53415
0.529184
0.524845
0.52146
0.51853
0.517111
0.513457
0.509926
0.505406
0.501051
0.498144
0.496451
0.49595
0.498461
0.504291
0.510887
0.516112
0.522337
0.529105
0.71956
0.716946
0.70753
0.691137
0.672596
0.657065
0.647256
0.643118
0.64369
0.647993
0.648251
0.648956
0.649206
0.64835
0.645663
0.64314
0.641769
0.640738
0.641736
0.643215
0.643331
0.6439
0.644851
0.645184
0.648077
0.65326
0.655462
0.655139
0.651917
0.643608
0.634789
0.63036
0.628913
0.630248
0.636849
0.648697
0.660978
0.667485
0.668759
0.658788
0.641412
0.622535
0.605087
0.58818
0.571942
0.55975
0.547877
0.536324
0.525558
0.515791
0.507265
0.499546
0.492639
0.486156
0.480689
0.475474
0.470525
0.465998
0.462061
0.45849
0.455455
0.453128
0.451345
0.449911
0.449481
0.450038
0.451651
0.454205
0.457823
0.462525
0.468314
0.475165
0.482876
0.491438
0.50698
0.525497
0.55098
0.581733
0.608771
0.632552
0.65847
0.687861
0.710799
0.7127
0.707089
0.690847
0.668038
0.642669
0.618293
0.596812
0.578476
0.563199
0.550676
0.540829
0.533629
0.527943
0.523933
0.518139
0.516583
0.514511
0.511182
0.506141
0.500727
0.495918
0.492434
0.490211
0.489615
0.491821
0.497791
0.505384
0.511199
0.518138
0.525523
0.731979
0.73089
0.723077
0.711287
0.696733
0.684881
0.677773
0.674877
0.675177
0.675074
0.671481
0.668634
0.666636
0.664722
0.661795
0.658399
0.656181
0.655265
0.655556
0.657384
0.658111
0.658102
0.65928
0.657315
0.655602
0.654071
0.651873
0.647076
0.639335
0.62839
0.619343
0.614997
0.613958
0.616327
0.623493
0.634428
0.646805
0.65366
0.652007
0.638929
0.619335
0.599968
0.585039
0.572967
0.561314
0.549765
0.538124
0.527681
0.518594
0.510638
0.503474
0.49674
0.490602
0.485162
0.479625
0.474309
0.46943
0.465042
0.460945
0.456879
0.453116
0.449943
0.447484
0.446003
0.445077
0.444807
0.445397
0.447248
0.450635
0.455199
0.461111
0.46819
0.476442
0.485646
0.501606
0.520982
0.54748
0.578393
0.606992
0.632249
0.661048
0.691563
0.71635
0.714953
0.70966
0.692555
0.669373
0.643474
0.618839
0.597379
0.579246
0.564191
0.551972
0.542236
0.534647
0.528918
0.524265
0.518199
0.516473
0.513317
0.508272
0.502512
0.496755
0.491537
0.487587
0.485214
0.484582
0.485938
0.491694
0.499495
0.506409
0.513903
0.521792
0.744622
0.74421
0.739513
0.732616
0.724023
0.71698
0.713315
0.711836
0.706858
0.700273
0.693575
0.688273
0.684418
0.681503
0.678288
0.674256
0.67142
0.669978
0.669162
0.671138
0.672782
0.670842
0.672238
0.66806
0.65996
0.651661
0.64203
0.630711
0.6185
0.606663
0.599359
0.596381
0.595707
0.598072
0.602654
0.611341
0.619596
0.624989
0.623091
0.610254
0.592879
0.576117
0.564328
0.555685
0.547035
0.538072
0.529358
0.52138
0.514224
0.507586
0.501637
0.496082
0.490791
0.485564
0.4803
0.475167
0.470305
0.465651
0.460885
0.45682
0.452889
0.448787
0.445208
0.442488
0.440621
0.439784
0.439917
0.441235
0.44385
0.447763
0.453509
0.461021
0.46983
0.480001
0.495872
0.515999
0.54318
0.574711
0.604477
0.630907
0.662031
0.696457
0.716347
0.715866
0.711179
0.694142
0.671172
0.645197
0.620594
0.599343
0.58159
0.566866
0.55482
0.545201
0.537478
0.530883
0.52558
0.521018
0.517135
0.512032
0.506182
0.500016
0.493933
0.488482
0.484185
0.481586
0.480871
0.481879
0.486256
0.493782
0.502142
0.50981
0.517985
0.759028
0.760128
0.758164
0.756831
0.754516
0.752246
0.750656
0.745127
0.732958
0.723069
0.714666
0.707654
0.702408
0.698373
0.694744
0.690289
0.686709
0.684308
0.682617
0.683701
0.685232
0.683392
0.684072
0.676495
0.662652
0.646339
0.629503
0.613332
0.599729
0.589696
0.584099
0.581629
0.581079
0.582497
0.587066
0.593031
0.596423
0.598126
0.595667
0.585272
0.572035
0.560154
0.548588
0.544975
0.538694
0.53198
0.524906
0.51822
0.512566
0.507563
0.502862
0.498176
0.493685
0.489145
0.483621
0.478372
0.472909
0.467902
0.463161
0.458023
0.453193
0.448542
0.444349
0.440768
0.438048
0.436307
0.435615
0.436132
0.437892
0.441472
0.447113
0.453428
0.463056
0.474758
0.489805
0.51069
0.538436
0.570601
0.601579
0.629044
0.661883
0.700884
0.714393
0.715466
0.711673
0.695347
0.673182
0.64792
0.623709
0.602755
0.585446
0.571243
0.559572
0.54992
0.541783
0.535198
0.529553
0.52399
0.518332
0.512185
0.505761
0.499226
0.492882
0.48722
0.482704
0.479803
0.478882
0.479775
0.482535
0.489231
0.497532
0.50604
0.514283
0.773227
0.776715
0.779467
0.782656
0.784091
0.783012
0.778052
0.769118
0.757386
0.744913
0.734495
0.726198
0.719764
0.714866
0.710881
0.706195
0.701607
0.697863
0.695555
0.695028
0.695836
0.694047
0.692679
0.683658
0.664873
0.641864
0.619862
0.600248
0.585737
0.576553
0.572259
0.570883
0.571134
0.57306
0.576029
0.578548
0.580017
0.579995
0.578722
0.570913
0.560551
0.552505
0.543472
0.541283
0.536536
0.531113
0.525726
0.52075
0.516179
0.512188
0.508321
0.504163
0.499858
0.494184
0.489131
0.483496
0.478654
0.472625
0.46652
0.460518
0.454751
0.449332
0.444472
0.440321
0.436903
0.434343
0.432878
0.432652
0.433604
0.43618
0.440681
0.447761
0.456356
0.468543
0.484401
0.505502
0.53372
0.566247
0.598289
0.627032
0.661477
0.700773
0.711952
0.714094
0.711396
0.695973
0.675121
0.651208
0.627712
0.607344
0.590652
0.577094
0.565896
0.556352
0.548433
0.541372
0.534572
0.52791
0.521143
0.514266
0.507314
0.50039
0.493729
0.487725
0.482878
0.479673
0.478386
0.479032
0.481481
0.486036
0.493628
0.502149
0.510736
0.786944
0.793051
0.798144
0.802021
0.804093
0.803286
0.798065
0.789344
0.777151
0.764918
0.753762
0.744394
0.737262
0.731629
0.726847
0.72172
0.716103
0.71111
0.707464
0.704678
0.703937
0.702969
0.69696
0.688792
0.667291
0.640141
0.613446
0.590815
0.574783
0.565794
0.562057
0.561158
0.562125
0.564705
0.567852
0.570705
0.572441
0.572076
0.571318
0.565857
0.556386
0.549254
0.543083
0.542015
0.53993
0.536811
0.533167
0.529092
0.525165
0.521391
0.517713
0.512623
0.50686
0.501977
0.496435
0.491365
0.485314
0.478716
0.471865
0.464799
0.4579
0.451486
0.445712
0.440733
0.436748
0.433783
0.431965
0.431167
0.431551
0.433339
0.436959
0.442875
0.451521
0.463067
0.478883
0.500678
0.52911
0.561774
0.594672
0.624622
0.659388
0.696731
0.71002
0.711608
0.71009
0.695592
0.676527
0.6544
0.632244
0.612739
0.59674
0.583917
0.573168
0.564523
0.556416
0.548497
0.540898
0.533287
0.525824
0.518385
0.511031
0.503783
0.496805
0.490417
0.485033
0.481364
0.479694
0.479786
0.481727
0.48549
0.49109
0.498543
0.507606
0.796712
0.803597
0.810001
0.815594
0.817919
0.817698
0.814296
0.806958
0.796907
0.785202
0.773241
0.7635
0.755497
0.748757
0.742781
0.736837
0.730131
0.723713
0.718219
0.713728
0.711425
0.708443
0.701423
0.690841
0.669712
0.640541
0.611366
0.586129
0.56856
0.55833
0.554246
0.553506
0.555284
0.558795
0.562933
0.566812
0.569786
0.571237
0.56961
0.5657
0.557197
0.551319
0.547883
0.546379
0.547148
0.546547
0.544809
0.541472
0.537543
0.532392
0.526113
0.521531
0.516156
0.511136
0.506301
0.500505
0.494
0.486511
0.478765
0.470363
0.46214
0.454659
0.448021
0.442346
0.437661
0.434091
0.431904
0.430945
0.431134
0.432543
0.435668
0.440704
0.448162
0.459033
0.474376
0.495831
0.524907
0.557565
0.591301
0.622662
0.656233
0.691948
0.706855
0.707801
0.706674
0.69387
0.676719
0.656783
0.636247
0.617665
0.602487
0.590703
0.581773
0.57309
0.564631
0.55631
0.548039
0.539957
0.532117
0.524282
0.516667
0.509173
0.502
0.495224
0.489256
0.48486
0.48256
0.482044
0.483375
0.486333
0.490689
0.497145
0.504511
0.804165
0.811297
0.817842
0.823354
0.82717
0.828525
0.82694
0.821841
0.814019
0.804162
0.792986
0.782759
0.773767
0.766066
0.758868
0.751679
0.743667
0.735583
0.72783
0.721534
0.71671
0.711894
0.704899
0.691731
0.67301
0.643338
0.612596
0.587093
0.566919
0.555312
0.550613
0.550132
0.552658
0.557011
0.562011
0.566545
0.570386
0.573255
0.57373
0.571247
0.563692
0.557293
0.55497
0.553137
0.554357
0.553594
0.552366
0.550075
0.546235
0.541822
0.537083
0.531764
0.527798
0.52245
0.516936
0.510904
0.503742
0.494727
0.484746
0.475496
0.466851
0.458739
0.451295
0.444832
0.439674
0.435861
0.433361
0.432225
0.432237
0.433379
0.435976
0.440448
0.446992
0.456768
0.470799
0.491315
0.520133
0.553785
0.588737
0.621556
0.653831
0.686106
0.701661
0.703293
0.700347
0.690523
0.675405
0.657203
0.638312
0.620817
0.607157
0.597879
0.589423
0.58113
0.572788
0.564162
0.55563
0.54737
0.539401
0.531306
0.523461
0.515756
0.508504
0.5017
0.495363
0.490242
0.487083
0.485788
0.486299
0.488361
0.491724
0.495805
0.502017
0.808121
0.815687
0.822164
0.827878
0.832707
0.835237
0.835334
0.832585
0.827311
0.819963
0.810338
0.800493
0.791113
0.782917
0.774655
0.766102
0.756645
0.746862
0.737064
0.728352
0.720644
0.713223