/*--------------------------------*- C++ -*----------------------------------*\
  =========                 |
  \\      /  F ield         | OpenFOAM: The Open Source CFD Toolbox
   \\    /   O peration     | Website:  https://openfoam.org
    \\  /    A nd           | Version:  10
     \\/     M anipulation  |
\*---------------------------------------------------------------------------*/
FoamFile
{
    format      ascii;
    class       surfaceScalarField;
    location    "0.651551";
    object      phi;
}
// * * * * * * * * * * * * * * * * * * * * * * * * * * * * * * * * * * * * * //

dimensions      [1 0 -1 0 0 0 0];

internalField   nonuniform List<scalar> 
32368
(
-0.000122331
-4.97225e-05
-0.000124643
-5.36863e-05
-0.000120732
-5.39617e-05
-0.000112972
-5.30364e-05
-0.000101121
-5.06786e-05
-8.70287e-05
-4.64695e-05
-7.38148e-05
-4.14813e-05
-6.32518e-05
-3.67976e-05
-5.69379e-05
-3.32348e-05
-5.14269e-05
-2.88561e-05
-4.6236e-05
-2.18644e-05
-4.30624e-05
-1.19603e-05
-4.51786e-05
8.16523e-07
-6.02942e-05
1.94038e-05
-7.37665e-05
5.07266e-05
-7.52423e-05
7.27885e-05
-7.15061e-05
7.9592e-05
-6.13333e-05
6.90966e-05
-4.86702e-05
4.7524e-05
-3.87487e-05
2.64468e-05
-3.50393e-05
1.38524e-05
-3.31087e-05
8.21488e-06
-3.12013e-05
6.08039e-06
-2.90411e-05
6.20406e-06
-2.66464e-05
7.50575e-06
-2.40931e-05
9.35624e-06
-2.13611e-05
1.15513e-05
-1.8341e-05
1.40282e-05
-1.49395e-05
1.6711e-05
-1.10213e-05
1.96192e-05
-6.58237e-06
2.28529e-05
-1.44894e-06
2.64648e-05
4.09402e-06
3.06857e-05
1.03822e-05
3.5295e-05
1.74966e-05
4.0646e-05
2.57869e-05
4.69423e-05
3.55668e-05
5.45201e-05
4.71901e-05
6.3802e-05
6.08592e-05
7.48317e-05
7.70627e-05
8.79817e-05
9.66724e-05
0.000104342
0.000120157
0.000124929
0.000145358
0.000148575
0.000166168
0.000169162
0.00017914
0.000178405
0.00018749
0.00017691
0.000184027
0.000160047
0.000155473
0.000122645
0.000114791
7.38405e-05
8.78639e-05
3.98125e-05
7.26547e-05
2.05029e-05
6.38965e-05
9.90616e-06
5.61824e-05
5.08484e-06
5.0803e-05
4.53496e-06
4.76694e-05
8.92317e-06
4.17645e-05
1.3121e-05
3.49036e-05
1.48943e-05
2.922e-05
1.31995e-05
2.46071e-05
1.03436e-05
2.01768e-05
6.32102e-06
1.87309e-05
-3.99919e-06
1.73013e-05
-1.69435e-05
1.67658e-05
-2.62627e-05
1.74652e-05
-3.50033e-05
2.05382e-05
-4.40302e-05
2.91069e-05
-5.93533e-05
4.08345e-05
-7.58894e-05
5.46484e-05
-9.01707e-05
6.87963e-05
-0.000103935
8.05454e-05
-0.000113288
8.88846e-05
-0.000116333
9.40181e-05
-0.000112139
9.35068e-05
-0.000103874
7.89948e-05
-8.86297e-05
4.94081e-05
-6.42067e-05
2.94e-05
-3.71207e-05
2.42031e-05
-2.8129e-05
2.31208e-05
-2.99792e-05
2.50975e-05
-3.5561e-05
4.0713e-05
-4.91515e-05
6.52143e-05
-8.6428e-05
8.78686e-05
-0.000129586
9.70411e-05
-0.000162765
9.09255e-05
-0.000174652
8.04506e-05
-0.000160888
7.87819e-05
-0.000132461
8.19583e-05
-9.0606e-05
9.39287e-05
-3.61565e-05
0.000112725
2.0274e-05
0.00011984
7.41468e-05
0.000115475
0.000109821
0.000103902
0.000128173
8.42131e-05
0.000124276
6.78447e-05
0.00011618
4.51712e-05
0.000104816
1.98368e-05
8.13813e-05
5.98351e-09
5.21091e-05
-1.64832e-05
2.35677e-05
-3.24245e-05
4.61066e-06
-4.6919e-05
-2.02631e-05
-5.40496e-05
-5.00238e-05
-5.39314e-05
-7.46867e-05
-4.82476e-05
-8.65048e-05
-4.60955e-05
-9.17472e-05
-4.3589e-05
-0.000100515
-4.6067e-05
-0.000104871
-5.1305e-05
-0.000128755
-5.10148e-05
-0.000151415
-4.45067e-05
-0.000157852
-3.21676e-05
-0.000151847
-1.75913e-05
-0.000138643
-3.10626e-06
-0.000125223
-0.000109043
7.58705e-06
-0.000133003
-6.89641e-05
-0.000138019
-7.43552e-05
-0.000136199
-7.56151e-05
-0.000128571
-7.47714e-05
-0.000114209
-7.09557e-05
-9.63548e-05
-6.3968e-05
-7.94687e-05
-5.60301e-05
-6.66246e-05
-4.82566e-05
-6.04017e-05
-4.2658e-05
-5.53879e-05
-3.79966e-05
-5.06331e-05
-3.05246e-05
-4.74375e-05
-1.98806e-05
-4.82066e-05
-6.63624e-06
-5.96614e-05
1.05766e-05
-7.85426e-05
3.84243e-05
-8.26346e-05
6.39583e-05
-7.98285e-05
7.51575e-05
-6.96223e-05
7.11057e-05
-5.53173e-05
5.19659e-05
-4.28977e-05
3.0505e-05
-3.68395e-05
1.47604e-05
-3.46665e-05
7.7549e-06
-3.31011e-05
4.84575e-06
-3.13866e-05
4.51926e-06
-2.9442e-05
5.5648e-06
-2.72845e-05
7.29158e-06
-2.49721e-05
9.35844e-06
-2.24162e-05
1.16304e-05
-1.95165e-05
1.40075e-05
-1.62345e-05
1.64937e-05
-1.24985e-05
1.9186e-05
-8.33814e-06
2.21784e-05
-3.54142e-06
2.55176e-05
1.66592e-06
2.92804e-05
7.42331e-06
3.35044e-05
1.38037e-05
3.83278e-05
2.10254e-05
4.38859e-05
2.9251e-05
5.0415e-05
3.86263e-05
5.79804e-05
4.94269e-05
6.67069e-05
6.22575e-05
7.71124e-05
7.73887e-05
8.96568e-05
9.31173e-05
0.000102829
0.000106157
0.00011243
0.000116236
0.000115164
0.000123008
0.000111502
0.000120751
9.7984e-05
0.000104384
7.33521e-05
8.63008e-05
4.8204e-05
7.39291e-05
3.03476e-05
6.63308e-05
1.9446e-05
5.94975e-05
1.34512e-05
5.39085e-05
1.1527e-05
5.06668e-05
1.52005e-05
4.56019e-05
1.9605e-05
3.87449e-05
2.26064e-05
3.20377e-05
2.20885e-05
2.70308e-05
1.96582e-05
2.20846e-05
1.71002e-05
1.89952e-05
1.00122e-05
1.82626e-05
-3.61339e-06
1.63601e-05
-1.6022e-05
1.62209e-05
-2.46842e-05
1.70768e-05
-3.36044e-05
2.13476e-05
-4.51215e-05
3.01915e-05
-6.14232e-05
4.10533e-05
-7.50659e-05
5.47045e-05
-8.86373e-05
6.97154e-05
-0.000102569
8.33456e-05
-0.00011206
9.32331e-05
-0.000115257
9.9823e-05
-0.000111136
0.000101674
-0.000102879
9.19916e-05
-8.94158e-05
6.54478e-05
-6.87869e-05
3.82565e-05
-4.42872e-05
2.94128e-05
-3.12442e-05
2.76356e-05
-3.11693e-05
2.8308e-05
-3.63465e-05
4.14885e-05
-4.60536e-05
7.10129e-05
-8.11274e-05
0.000102189
-0.000125534
0.000119698
-0.000164515
0.000116409
-0.000186556
0.000101434
-0.000181379
9.28824e-05
-0.000159454
9.4296e-05
-0.000122071
0.0001022
-6.78265e-05
0.000120547
-7.32284e-06
0.000135574
5.14363e-05
0.000134389
9.82565e-05
0.000124078
0.000125663
0.000106984
0.000131728
8.79589e-05
0.000126376
6.78754e-05
0.000117445
4.17421e-05
9.96904e-05
1.52725e-05
7.18863e-05
-3.74817e-06
4.19188e-05
-2.04053e-05
1.95252e-05
-3.77936e-05
-5.87997e-06
-5.00604e-05
-4.37854e-05
-5.43598e-05
-7.86011e-05
-4.8757e-05
-9.99073e-05
-4.10959e-05
-0.000101754
-3.91683e-05
-0.000101797
-3.77879e-05
-0.000104489
-4.25613e-05
-0.000116045
-4.43913e-05
-0.000143928
-4.05876e-05
-0.000154433
-2.98748e-05
-0.000150891
-1.63583e-05
-0.000136971
-2.97718e-06
-0.00012258
-0.000106263
7.56257e-06
-0.000133619
-8.22762e-05
-0.000140158
-8.89398e-05
-0.000141261
-9.152e-05
-0.000137124
-9.17579e-05
-0.000125261
-8.87701e-05
-0.000107636
-8.14574e-05
-8.90214e-05
-7.21222e-05
-7.2349e-05
-6.16174e-05
-6.47867e-05
-5.29131e-05
-5.97776e-05
-4.72241e-05
-5.55131e-05
-3.91145e-05
-5.24425e-05
-2.74374e-05
-5.32204e-05
-1.30682e-05
-6.22335e-05
4.25569e-06
-8.3416e-05
2.8828e-05
-8.94561e-05
5.53109e-05
-8.70021e-05
6.92167e-05
-7.71101e-05
7.03915e-05
-6.12296e-05
5.41724e-05
-4.67507e-05
3.28764e-05
-3.84124e-05
1.61135e-05
-3.61265e-05
7.81558e-06
-3.47919e-05
4.20856e-06
-3.33553e-05
3.42386e-06
-3.1681e-05
4.15862e-06
-2.98193e-05
5.6992e-06
-2.77766e-05
7.66332e-06
-2.55415e-05
9.7937e-06
-2.30417e-05
1.19543e-05
-2.0218e-05
1.41317e-05
-1.70162e-05
1.64054e-05
-1.33853e-05
1.88917e-05
-9.36863e-06
2.16642e-05
-4.87732e-06
2.47044e-05
8.71545e-10
2.81168e-05
5.2353e-06
3.19775e-05
1.0871e-05
3.62898e-05
1.70422e-05
4.11048e-05
2.38067e-05
4.65008e-05
3.12931e-05
5.24445e-05
3.98275e-05
5.91168e-05
4.94015e-05
6.65541e-05
5.91308e-05
7.33534e-05
6.78398e-05
7.73855e-05
7.58528e-05
7.77273e-05
8.11849e-05
7.37136e-05
8.07037e-05
6.40587e-05
7.48688e-05
4.99695e-05
6.90112e-05
3.70517e-05
6.44099e-05
2.75954e-05
5.95484e-05
2.14252e-05
5.48067e-05
1.88381e-05
5.23902e-05
2.17588e-05
4.81966e-05
2.5779e-05
4.20999e-05
2.93582e-05
3.51436e-05
2.99547e-05
2.94626e-05
2.81642e-05
2.44091e-05
2.62768e-05
1.96648e-05
2.21983e-05
1.86161e-05
1.06871e-05
1.67236e-05
-4.66764e-06
1.526e-05
-1.48693e-05
1.53502e-05
-2.35983e-05
1.69939e-05
-3.30943e-05
2.2312e-05
-4.80596e-05
3.01715e-05
-6.15665e-05
4.03184e-05
-7.25877e-05
5.39863e-05
-8.54119e-05
6.98448e-05
-9.97424e-05
8.43126e-05
-0.000109603
9.52094e-05
-0.000112541
0.000102925
-0.000108367
0.00010631
-0.000100122
9.92464e-05
-8.74e-05
7.61236e-05
-6.92078e-05
4.62059e-05
-4.81596e-05
3.42533e-05
-3.36807e-05
3.14485e-05
-3.23291e-05
3.19039e-05
-3.74943e-05
4.2794e-05
-4.63254e-05
7.55088e-05
-7.82998e-05
0.000112083
-0.000123735
0.000137767
-0.000166453
0.000139022
-0.000197165
0.000120861
-0.000203622
0.000105067
-0.000190826
0.000103398
-0.000160947
0.000109072
-0.000108049
0.000124121
-4.29856e-05
0.000146155
2.28982e-05
0.000152482
7.94849e-05
0.000144534
0.000116908
0.000128576
0.000134314
0.00010865
0.000133844
9.06371e-05
0.000127036
6.58397e-05
0.000114941
3.77487e-05
8.9851e-05
1.4285e-05
6.16739e-05
-2.97547e-06
3.60121e-05
-2.02511e-05
8.42474e-06
-3.64054e-05
-3.20965e-05
-4.50664e-05
-7.43617e-05
-4.48402e-05
-0.000104657
-3.6426e-05
-0.000115661
-3.26376e-05
-0.000104622
-3.08459e-05
-0.000104481
-3.41739e-05
-0.000107886
-3.72898e-05
-0.000136757
-3.55049e-05
-0.000151087
-2.71653e-05
-0.000148929
-1.52734e-05
-0.000134246
-3.21127e-06
-0.000119039
-0.000102297
6.30617e-06
-0.000130072
-8.97298e-05
-0.000136807
-9.75699e-05
-0.00013945
-0.000101837
-0.000137962
-0.000103598
-0.000129923
-0.000101894
-0.000115681
-9.57792e-05
-9.79659e-05
-8.673e-05
-7.92005e-05
-7.49648e-05
-6.96416e-05
-6.33617e-05
-6.47493e-05
-5.63096e-05
-6.12453e-05
-4.7639e-05
-5.86319e-05
-3.49199e-05
-5.96399e-05
-1.92825e-05
-6.81684e-05
-1.36038e-06
-8.88812e-05
2.17908e-05
-9.59523e-05
4.76641e-05
-9.31066e-05
6.34087e-05
-8.35895e-05
6.73117e-05
-6.60712e-05
5.43272e-05
-5.0054e-05
3.39775e-05
-4.05275e-05
1.77378e-05
-3.77882e-05
8.28371e-06
-3.63813e-05
4.01421e-06
-3.49917e-05
2.72307e-06
-3.34044e-05
3.10701e-06
-3.16508e-05
4.48015e-06
-2.98057e-05
6.35377e-06
-2.78106e-05
8.37472e-06
-2.55863e-05
1.03602e-05
-2.30445e-05
1.22853e-05
-2.01517e-05
1.42309e-05
-1.69002e-05
1.63383e-05
-1.32663e-05
1.86765e-05
-9.30458e-06
2.12652e-05
-5.00383e-06
2.41426e-05
-4.03536e-07
2.73775e-05
4.40979e-06
3.09936e-05
9.46675e-06
3.48915e-05
1.48145e-05
3.90668e-05
2.04983e-05
4.34697e-05
2.66862e-05
4.80496e-05
3.33888e-05
5.26375e-05
4.01914e-05
5.62843e-05
4.68878e-05
5.80211e-05
5.32103e-05
5.75287e-05
5.77732e-05
5.41942e-05
5.95078e-05
4.79026e-05
5.94478e-05
4.03054e-05
5.85476e-05
3.34235e-05
5.60892e-05
2.81561e-05
5.31228e-05
2.59091e-05
5.20428e-05
2.82193e-05
4.91228e-05
3.18692e-05
4.41997e-05
3.54376e-05
3.78693e-05
3.68483e-05
3.18746e-05
3.56448e-05
2.68337e-05
3.42171e-05
2.14251e-05
3.20741e-05
1.83487e-05
2.40346e-05
1.74e-05
8.48945e-06
1.47765e-05
-5.51546e-06
1.42696e-05
-1.4379e-05
1.43652e-05
-2.26272e-05
1.72448e-05
-3.40752e-05
2.28582e-05
-4.94365e-05
2.88469e-05
-5.99121e-05
3.79268e-05
-6.79947e-05
5.16373e-05
-8.14438e-05
6.83022e-05
-9.65601e-05
8.38291e-05
-0.000106326
9.54716e-05
-0.000108499
0.000104045
-0.000103932
0.000108564
-9.55013e-05
0.000102844
-8.35681e-05
8.17118e-05
-6.77977e-05
5.17322e-05
-4.95067e-05
3.79912e-05
-3.50746e-05
3.44313e-05
-3.32879e-05
3.47707e-05
-3.85597e-05
4.45389e-05
-4.73562e-05
7.81136e-05
-7.70071e-05
0.00011612
-0.000121134
0.000147385
-0.000166542
0.000155661
-0.000204718
0.000137698
-0.000223653
0.000115726
-0.000221552
0.000108608
-0.000200711
0.000111529
-0.000149881
0.000125043
-7.84181e-05
0.000146021
-5.88751e-06
0.000165684
5.59981e-05
0.000164736
0.00010628
0.000149745
0.000132726
0.000130045
0.000139104
0.000111043
0.000134507
8.93503e-05
0.000125215
6.39189e-05
0.000104843
3.81114e-05
8.01133e-05
1.97285e-05
5.27874e-05
3.51479e-06
2.2373e-05
-1.36675e-05
-1.90459e-05
-2.61353e-05
-6.51223e-05
-3.20032e-05
-0.000101273
-2.99201e-05
-0.000121364
-2.49234e-05
-0.000110094
-2.42204e-05
-0.000104077
-2.61031e-05
-0.00010283
-3.03279e-05
-0.000128772
-2.99891e-05
-0.000148028
-2.37029e-05
-0.000146935
-1.4013e-05
-0.000131417
-3.9066e-06
-0.000115237
-9.67318e-05
4.24879e-06
-0.000125214
-9.1951e-05
-0.000131914
-0.00010118
-0.000135284
-0.000107133
-0.000135224
-0.000110578
-0.000129891
-0.00011061
-0.000119326
-0.000106459
-0.000104261
-9.91176e-05
-8.59639e-05
-8.73433e-05
-7.42683e-05
-7.33812e-05
-7.01712e-05
-6.48785e-05
-6.76224e-05
-5.5856e-05
-6.59045e-05
-4.22714e-05
-6.7835e-05
-2.55032e-05
-7.68733e-05
-6.66311e-06
-9.63395e-05
1.59149e-05
-0.000102311
4.09238e-05
-9.83359e-05
5.73179e-05
-8.86567e-05
6.26518e-05
-7.00451e-05
5.2934e-05
-5.36905e-05
3.40795e-05
-4.38337e-05
1.8962e-05
-3.98321e-05
9.23809e-06
-3.77528e-05
4.23817e-06
-3.60341e-05
2.40381e-06
-3.4432e-05
2.33865e-06
-3.28449e-05
3.5728e-06
-3.11812e-05
5.36862e-06
-2.93439e-05
7.26958e-06
-2.72622e-05
9.07718e-06
-2.4897e-05
1.07785e-05
-2.21913e-05
1.2435e-05
-1.91103e-05
1.4218e-05
-1.56648e-05
1.62164e-05
-1.19385e-05
1.85114e-05
-7.93622e-06
2.10775e-05
-3.69585e-06
2.39588e-05
7.01706e-07
2.72176e-05
5.19388e-06
3.07033e-05
9.77316e-06
3.43214e-05
1.45001e-05
3.79613e-05
1.94813e-05
4.14775e-05
2.47276e-05
4.46515e-05
3.01334e-05
4.6923e-05
3.56643e-05
4.7821e-05
4.09255e-05
4.71155e-05
4.52403e-05
4.46919e-05
4.82914e-05
4.09541e-05
4.9897e-05
3.67991e-05
4.97381e-05
3.31696e-05
4.92251e-05
3.20775e-05
4.95259e-05
3.42578e-05
4.79294e-05
3.7587e-05
4.45317e-05
4.09137e-05
3.95825e-05
4.2861e-05
3.4026e-05
4.22677e-05
2.91594e-05
4.09431e-05
2.40647e-05
3.98009e-05
1.89278e-05
3.55691e-05
1.81412e-05
2.22505e-05
1.483e-05
5.19612e-06
1.34863e-05
-6.16926e-06
1.34409e-05
-1.43618e-05
1.41739e-05
-2.23532e-05
1.80469e-05
-3.61033e-05
2.22275e-05
-4.89502e-05
2.70294e-05
-5.68973e-05
3.51609e-05
-6.49788e-05
4.95266e-05
-7.96446e-05
6.67137e-05
-9.48672e-05
8.23177e-05
-0.000103385
9.39431e-05
-0.000103655
0.000102769
-9.82127e-05
0.000106922
-8.87041e-05
0.000102134
-7.67509e-05
8.40147e-05
-6.35363e-05
5.54756e-05
-4.89076e-05
4.07921e-05
-3.56507e-05
3.67694e-05
-3.38885e-05
3.69303e-05
-3.94377e-05
4.59786e-05
-4.83642e-05
7.78922e-05
-7.53032e-05
0.000114849
-0.000115882
0.000147802
-0.000160756
0.000162476
-0.000205615
0.000148397
-0.000238168
0.000123348
-0.00024627
0.000110581
-0.000234109
0.000109782
-0.000182667
0.000120498
-0.000107639
0.000139457
-3.47637e-05
0.000168761
3.30866e-05
0.00017865
9.25906e-05
0.000170374
0.000130918
0.000149985
0.000143927
0.000129245
0.000141638
0.000110886
0.0001329
8.79944e-05
0.0001171
6.48181e-05
9.42351e-05
4.58778e-05
6.70455e-05
3.07272e-05
3.38882e-05
1.46531e-05
-7.257e-06
-8.29556e-07
-5.38199e-05
-1.24361e-05
-9.20873e-05
-1.81465e-05
-0.000118866
-1.68197e-05
-0.00011402
-1.76673e-05
-0.000102678
-1.87632e-05
-9.9974e-05
-2.3633e-05
-0.000119819
-2.4667e-05
-0.000144878
-2.02156e-05
-0.000144881
-1.28106e-05
-0.000128445
-4.74351e-06
-0.000111265
-8.93611e-05
1.64404e-06
-0.000119972
-8.95424e-05
-0.0001267
-0.000100337
-0.000130341
-0.000107866
-0.000131028
-0.000112676
-0.000128153
-0.000114686
-0.00012155
-0.000113124
-0.00011007
-0.000108606
-9.32542e-05
-9.84863e-05
-7.92558e-05
-8.27243e-05
-7.61644e-05
-7.29062e-05
-7.47285e-05
-6.37064e-05
-7.43342e-05
-4.95136e-05
-7.78166e-05
-3.19136e-05
-8.73477e-05
-1.20621e-05
-0.000103802
1.03902e-05
-0.000107197
3.42518e-05
-0.000102328
5.05749e-05
-9.21808e-05
5.69984e-05
-7.32549e-05
5.02e-05
-5.65146e-05
3.36664e-05
-4.70642e-05
1.96109e-05
-4.2343e-05
1.03715e-05
-3.85259e-05
4.69967e-06
-3.63625e-05
2.0424e-06
-3.48436e-05
1.79357e-06
-3.34372e-05
2.95898e-06
-3.19606e-05
4.66004e-06
-3.02808e-05
6.39203e-06
-2.83308e-05
7.98737e-06
-2.60495e-05
9.44182e-06
-2.33921e-05
1.07948e-05
-2.03193e-05
1.22479e-05
-1.68913e-05
1.39424e-05
-1.31988e-05
1.60301e-05
-9.22165e-06
1.83612e-05
-5.12917e-06
2.11257e-05
-9.39124e-07
2.4269e-05
3.23578e-06
2.76755e-05
7.34549e-06
3.11761e-05
1.14595e-05
3.45401e-05
1.56539e-05
3.76159e-05
1.99989e-05
4.01672e-05
2.45235e-05
4.18685e-05
2.91843e-05
4.24693e-05
3.36997e-05
4.18521e-05
3.76182e-05
4.01973e-05
4.03079e-05
3.80282e-05
4.16117e-05
3.62513e-05
4.31187e-05
3.65601e-05
4.4815e-05
3.92448e-05
4.45986e-05
4.25221e-05
4.27191e-05
4.57664e-05
3.95077e-05
4.78466e-05
3.52622e-05
4.79838e-05
3.09999e-05
4.67198e-05
2.66553e-05
4.59201e-05
2.12873e-05
4.38926e-05
1.78193e-05
3.57886e-05
1.60703e-05
1.70883e-05
1.32238e-05
2.11004e-06
1.30208e-05
-7.28729e-06
1.27961e-05
-1.43837e-05
1.47159e-05
-2.31647e-05
1.84951e-05
-3.68686e-05
2.11794e-05
-4.71778e-05
2.49097e-05
-5.41978e-05
3.37119e-05
-6.32904e-05
4.81928e-05
-7.82261e-05
6.56207e-05
-9.30139e-05
8.09514e-05
-0.000100539
9.21167e-05
-9.89415e-05
0.000100354
-9.28226e-05
0.000101214
-8.11713e-05
9.53531e-05
-6.70593e-05
8.07896e-05
-5.59884e-05
5.69215e-05
-4.53239e-05
4.28556e-05
-3.50131e-05
3.85087e-05
-3.39626e-05
3.83172e-05
-3.97203e-05
4.61574e-05
-4.84352e-05
7.36455e-05
-7.13281e-05
0.000106357
-0.000106119
0.000139465
-0.000148036
0.000160334
-0.000196937
0.000152106
-0.000242165
0.000127027
-0.000261731
0.000111672
-0.000255375
0.000105055
-0.000203445
0.000111492
-0.000126649
0.000128698
-5.49645e-05
0.000155318
1.44115e-05
0.000182224
7.7908e-05
0.000183289
0.000127631
0.000166545
0.000148009
0.000145802
0.000149344
0.000127252
0.000140459
0.000108822
0.000126979
8.85556e-05
0.000105604
7.04076e-05
7.82251e-05
5.47632e-05
4.32515e-05
3.93465e-05
1.98583e-06
2.15694e-05
-4.27796e-05
8.08535e-06
-8.21532e-05
-1.60468e-06
-0.000113279
-8.21302e-06
-0.000111913
-1.09325e-05
-9.99221e-05
-1.22206e-05
-9.71221e-05
-1.75607e-05
-0.000111329
-1.9957e-05
-0.000141538
-1.73219e-05
-0.000142206
-1.19922e-05
-0.000125122
-5.80425e-06
-0.00010671
-8.03079e-05
-1.38225e-06
-0.000114792
-8.32359e-05
-0.000121676
-9.57303e-05
-0.000125475
-0.000104712
-0.000126607
-0.000110437
-0.000125347
-0.000114101
-0.000121932
-0.000115658
-0.000114531
-0.000114227
-0.000100136
-0.000106708
-8.51449e-05
-9.15146e-05
-8.27005e-05
-8.01331e-05
-8.24714e-05
-7.08537e-05
-8.40958e-05
-5.66827e-05
-8.96864e-05
-3.88797e-05
-9.89083e-05
-1.79781e-05
-0.000109837
4.79398e-06
-0.000109644
2.77767e-05
-0.000103966
4.37584e-05
-9.33533e-05
5.0849e-05
-7.58424e-05
4.63677e-05
-5.98166e-05
3.30931e-05
-5.05508e-05
2.01812e-05
-4.36449e-05
1.08771e-05
-3.80377e-05
4.84315e-06
-3.59537e-05
1.75987e-06
-3.46144e-05
1.43278e-06
-3.34289e-05
2.55827e-06
-3.21429e-05
4.13666e-06
-3.05824e-05
5.63658e-06
-2.86713e-05
6.95667e-06
-2.63944e-05
8.1422e-06
-2.37323e-05
9.19047e-06
-2.0632e-05
1.03024e-05
-1.71622e-05
1.16975e-05
-1.34142e-05
1.36103e-05
-9.39133e-06
1.57292e-05
-5.30146e-06
1.84608e-05
-1.21123e-06
2.16093e-05
2.82891e-06
2.50346e-05
6.55476e-06
2.88068e-05
1.01194e-05
3.22209e-05
1.36261e-05
3.52223e-05
1.71402e-05
3.76063e-05
2.07206e-05
3.9124e-05
2.4399e-05
3.95773e-05
2.79333e-05
3.90778e-05
3.08294e-05
3.82557e-05
3.29487e-05
3.80819e-05
3.53647e-05
3.95203e-05
3.80313e-05
4.27915e-05
3.91603e-05
4.62694e-05
3.88426e-05
4.96569e-05
3.73222e-05
5.19796e-05
3.4827e-05
5.26571e-05
3.17598e-05
5.16312e-05
2.85253e-05
5.07375e-05
2.42738e-05
4.97122e-05
1.92379e-05
4.58595e-05
1.77162e-05
3.2552e-05
1.36282e-05
1.14042e-05
1.2887e-05
-5.91303e-07
1.29716e-05
-8.65489e-06
1.29891e-05
-1.47314e-05
1.59374e-05
-2.47958e-05
1.83453e-05
-3.64893e-05
2.0342e-05
-4.47418e-05
2.42876e-05
-5.19999e-05
3.30095e-05
-6.15423e-05
4.70076e-05
-7.43718e-05
6.42533e-05
-8.77156e-05
7.97537e-05
-9.59165e-05
9.13396e-05
-9.50955e-05
9.95197e-05
-8.97947e-05
9.61601e-05
-7.97156e-05
8.73816e-05
-6.4059e-05
7.41851e-05
-5.21049e-05
5.51121e-05
-4.12212e-05
4.31744e-05
-3.35196e-05
3.92049e-05
-3.3432e-05
3.86738e-05
-3.92738e-05
4.42225e-05
-4.75287e-05
6.49185e-05
-6.52153e-05
9.12648e-05
-9.22078e-05
0.000122186
-0.000128244
0.000148062
-0.000177785
0.000149246
-0.000233941
0.000128851
-0.000265653
0.000115404
-0.000263124
0.000105019
-0.000214112
0.000106585
-0.000137599
0.00011812
-6.69881e-05
0.000137537
1.44951e-06
0.000171594
6.46714e-05
0.000184424
0.000122002
0.000177023
0.000152932
0.000157766
0.000158546
0.000138912
0.000149656
0.000123459
0.000134455
0.000107791
0.000114897
9.10271e-05
8.76836e-05
7.53999e-05
5.12496e-05
5.89851e-05
9.82115e-06
3.95151e-05
-3.29553e-05
2.42333e-05
-7.24442e-05
1.18775e-05
-0.000106332
1.50723e-06
-0.00010793
-4.25173e-06
-9.49957e-05
-6.83721e-06
-9.3813e-05
-1.23905e-05
-0.000104642
-1.6222e-05
-0.000138271
-1.53215e-05
-0.000138579
-1.18905e-05
-0.000120892
-7.45285e-06
-0.000100757
-7.02248e-05
-4.40931e-06
-0.000109799
-7.36536e-05
-0.000117106
-8.78514e-05
-0.000120349
-9.85999e-05
-0.000121274
-0.000105141
-0.000121868
-0.0001096
-0.000121433
-0.000114254
-0.000117794
-0.000115879
-0.00010701
-0.000111443
-9.15291e-05
-9.89957e-05
-8.90593e-05
-8.5826e-05
-9.03412e-05
-7.6327e-05
-9.47798e-05
-6.2906e-05
-0.000103694
-4.61465e-05
-0.000111494
-2.53388e-05
-0.000114807
-6.03731e-07
-0.000111571
2.16749e-05
-0.000105311
3.75945e-05
-9.46007e-05
4.52699e-05
-7.86462e-05
4.27508e-05
-6.34719e-05
3.21589e-05
-5.24149e-05
2.02569e-05
-4.2371e-05
1.0723e-05
-3.69392e-05
4.22369e-06
-3.48749e-05
1.29952e-06
-3.36326e-05
1.08897e-06
-3.2533e-05
2.21711e-06
-3.13379e-05
3.69212e-06
-2.9928e-05
4.98838e-06
-2.82159e-05
6.07239e-06
-2.6198e-05
7.13942e-06
-2.41221e-05
8.2743e-06
-2.17336e-05
9.35795e-06
-1.88194e-05
1.05317e-05
-1.55458e-05
1.25126e-05
-1.15081e-05
1.42082e-05
-7.04353e-06
1.67543e-05
-2.48493e-06
1.98354e-05
1.98034e-06
2.31794e-05
5.41932e-06
2.76972e-05
8.71074e-06
3.08577e-05
1.17191e-05
3.38188e-05
1.4572e-05
3.61976e-05
1.70801e-05
3.80606e-05
1.94901e-05
3.90904e-05
2.23886e-05
4.01045e-05
2.51809e-05
4.16633e-05
2.81206e-05
4.36897e-05
3.07489e-05
4.64183e-05
3.23738e-05
4.95435e-05
3.32023e-05
5.2701e-05
3.32188e-05
5.5195e-05
3.24668e-05
5.63259e-05
3.09621e-05
5.58665e-05
2.90539e-05
5.45489e-05
2.6425e-05
5.38518e-05
2.24391e-05
5.16441e-05
1.87392e-05
4.53713e-05
1.66043e-05
2.60711e-05
1.34862e-05
7.02476e-06
1.3368e-05
-3.12073e-06
1.33273e-05
-1.00521e-05
1.42143e-05
-1.58172e-05
1.73246e-05
-2.60314e-05
1.87211e-05
-3.55177e-05
2.04319e-05
-4.28606e-05
2.42586e-05
-4.9573e-05
3.19802e-05
-5.70639e-05
4.41331e-05
-6.48023e-05
6.06425e-05
-7.50379e-05
7.77924e-05
-8.60132e-05
9.13033e-05
-9.00931e-05
0.000100954
-8.68839e-05
9.88086e-05
-7.99399e-05
8.84958e-05
-6.64375e-05
7.32864e-05
-5.33962e-05
5.46259e-05
-4.05809e-05
4.3434e-05
-3.31722e-05
3.92473e-05
-3.31311e-05
3.83886e-05
-3.83953e-05
4.13087e-05
-4.60992e-05
5.3908e-05
-5.81267e-05
7.25074e-05
-7.66731e-05
9.83648e-05
-0.00010411
0.000127026
-0.000151758
0.000139541
-0.000214896
0.000128313
-0.00025897
0.000119608
-0.000259059
0.000107235
-0.000214212
0.000103997
-0.000139748
0.00011018
-7.14411e-05
0.000124094
-6.39414e-06
0.000150072
5.31208e-05
0.000176542
0.000113494
0.000177459
0.000156195
0.000163939
0.000167418
0.000145825
0.000158717
0.00013095
0.000141819
0.000120409
0.000121726
0.000106427
9.49071e-05
9.09574e-05
5.76798e-05
7.22112e-05
1.62034e-05
5.24165e-05
-2.53694e-05
3.75581e-05
-6.4116e-05
2.37878e-05
-9.96979e-05
8.78468e-06
-0.000101079
1.45323e-06
-8.95098e-05
-2.69502e-06
-8.98989e-05
-8.06472e-06
-9.93917e-05
-1.35288e-05
-0.00013442
-1.45012e-05
-0.000134044
-1.27334e-05
-0.000115311
-9.82437e-06
-9.251e-05
-6.00554e-05
-7.52633e-06
-0.000104958
-6.11649e-05
-0.000113087
-7.71721e-05
-0.000116614
-8.99039e-05
-0.000116724
-9.79567e-05
-0.000118579
-0.000103488
-0.000120275
-0.000109587
-0.000119364
-0.00011341
-0.000113081
-0.000112484
-9.88491e-05
-0.000103929
-9.37499e-05
-9.00029e-05
-9.60012e-05
-7.92394e-05
-0.000101575
-6.65285e-05
-0.000113934
-5.13941e-05
-0.000118956
-3.07961e-05
-0.000117992
-5.83432e-06
-0.000113306
1.62385e-05
-0.000106616
3.20326e-05
-9.57175e-05
4.01782e-05
-8.05122e-05
3.90681e-05
-6.49645e-05
3.0241e-05
-5.16978e-05
1.91129e-05
-4.00355e-05
9.40979e-06
-3.50076e-05
3.01301e-06
-3.29704e-05
5.11629e-07
-3.18181e-05
6.77944e-07
-3.09895e-05
2.06529e-06
-3.06254e-05
3.8571e-06
-3.09364e-05
5.6584e-06
-3.17166e-05
7.22509e-06
-3.32649e-05
9.27064e-06
-3.6102e-05
1.20976e-05
-3.95052e-05
1.58802e-05
-3.93097e-05
1.94537e-05
-3.51318e-05
2.22002e-05
-2.80366e-05
2.47551e-05
-1.93954e-05
2.84154e-05
-1.01319e-05
3.23401e-05
-1.60175e-06
3.58722e-05
3.77286e-06
3.74209e-05
6.67828e-06
3.62754e-05
9.00413e-06
3.65043e-05
1.16254e-05
3.71396e-05
1.36552e-05
3.93197e-05
1.55045e-05
4.11734e-05
1.81888e-05
4.32254e-05
2.10331e-05
4.64963e-05
2.34171e-05
4.98075e-05
2.53164e-05
5.30033e-05
2.67423e-05
5.57434e-05
2.77686e-05
5.80013e-05
2.83668e-05
5.92807e-05
2.84593e-05
5.9213e-05
2.79619e-05
5.7991e-05
2.6933e-05
5.67594e-05
2.47862e-05
5.53445e-05
2.14273e-05
5.18408e-05
1.93386e-05
4.25007e-05
1.5998e-05
1.93065e-05
1.451e-05
3.51139e-06
1.44489e-05
-5.55155e-06
1.43272e-05
-1.15397e-05
1.63455e-05
-1.75858e-05
1.88349e-05
-2.68671e-05
2.00194e-05
-3.4698e-05
2.17225e-05
-4.1242e-05
2.44576e-05
-4.5985e-05
2.91924e-05
-4.89811e-05
3.76877e-05
-5.11723e-05
5.21319e-05
-5.65634e-05
7.17648e-05
-6.94791e-05
8.87681e-05
-8.01525e-05
0.000100847
-8.19941e-05
0.000104697
-7.89561e-05
9.49783e-05
-7.17273e-05
7.65907e-05
-5.78936e-05
5.6401e-05
-4.20886e-05
4.4615e-05
-3.37834e-05
3.98392e-05
-3.35143e-05
3.81009e-05
-3.82934e-05
3.83168e-05
-4.47624e-05
4.33019e-05
-5.20437e-05
5.24578e-05
-6.11427e-05
7.41746e-05
-8.32946e-05
0.000104069
-0.000131777
0.000125544
-0.000199426
0.000125568
-0.000247786
0.000122893
-0.000248678
0.000110072
-0.000205659
0.000103075
-0.0001351
0.000105538
-7.12592e-05
0.00011384
-9.96829e-06
0.000128405
4.7703e-05
0.000158771
0.000105017
0.000168674
0.000156007
0.000162552
0.00017496
0.000146794
0.00016929
0.000133648
0.000149889
0.000124423
0.000126458
0.000114138
9.82708e-05
9.95237e-05
6.07538e-05
7.84243e-05
1.91739e-05
6.17671e-05
-1.93166e-05
4.84911e-05
-5.82365e-05
3.35561e-05
-9.34091e-05
1.46755e-05
-9.23944e-05
6.10667e-06
-8.37934e-05
6.48028e-07
-8.5353e-05
-4.49953e-06
-9.48209e-05
-1.19309e-05
-0.00012944
-1.4732e-05
-0.000128021
-1.45288e-05
-0.000108104
-1.30292e-05
-8.19471e-05
-5.1089e-05
-1.12428e-05
-9.96138e-05
-4.64662e-05
-0.000109123
-6.39997e-05
-0.00011377
-7.90617e-05
-0.000113727
-8.9335e-05
-0.000115686
-9.59966e-05
-0.000118243
-0.00010301
-0.000119661
-0.000108273
-0.000117392
-0.000110358
-0.000107318
-0.000106179
-9.66129e-05
-9.28642e-05
-9.91487e-05
-8.00272e-05
-0.000104411
-6.81827e-05
-0.000117999
-5.48054e-05
-0.000122202
-3.56522e-05
-0.000119643
-1.1165e-05
-0.000114343
1.07435e-05
-0.000106931
2.67238e-05
-9.56955e-05
3.52589e-05
-8.04343e-05
3.50395e-05
-6.39521e-05
2.7278e-05
-4.88499e-05
1.6445e-05
-3.67333e-05
7.20595e-06
-3.2442e-05
1.33289e-06
-3.08168e-05
-3.26682e-07
-3.06014e-05
9.57808e-07
-3.21471e-05
3.499e-06
-3.61316e-05
6.62744e-06
-4.50141e-05
1.11138e-05
-6.4724e-05
1.6797e-05
-9.00121e-05
2.37596e-05
-0.000107734
2.80158e-05
-0.000114569
3.06312e-05
-0.00011019
3.10049e-05
-9.67753e-05
3.07563e-05
-7.88521e-05
3.19814e-05
-5.72612e-05
3.68394e-05
-3.67284e-05
4.40702e-05
-2.07423e-05
5.27595e-05
-4.31091e-06
6.40621e-05
6.80738e-06
6.94772e-05
1.06002e-05
6.50265e-05
1.11258e-05
5.6466e-05
1.09801e-05
4.95489e-05
1.18422e-05
4.85807e-05
1.36713e-05
4.93077e-05
1.56059e-05
5.14651e-05
1.76331e-05
5.45451e-05
1.96192e-05
5.78217e-05
2.14245e-05
6.03017e-05
2.30341e-05
6.17067e-05
2.4372e-05
6.18695e-05
2.52303e-05
6.08848e-05
2.55977e-05
5.91747e-05
2.52375e-05
5.76227e-05
2.37519e-05
5.50502e-05
2.16e-05
5.03832e-05
2.0667e-05
3.71885e-05
1.72617e-05
1.37694e-05
1.614e-05
9.38633e-08
1.61111e-05
-8.11423e-06
1.63529e-05
-1.34333e-05
1.91808e-05
-1.96621e-05
2.12712e-05
-2.7677e-05
2.25274e-05
-3.42138e-05
2.36859e-05
-3.93262e-05
2.48969e-05
-4.1988e-05
2.72128e-05
-4.36141e-05
3.09141e-05
-4.49698e-05
3.98715e-05
-4.54964e-05
6.06814e-05
-5.08302e-05
8.21496e-05
-6.548e-05
9.73515e-05
-7.44133e-05
0.000106942
-7.49251e-05
0.000105457
-7.21396e-05
8.68506e-05
-6.41782e-05
6.14031e-05
-4.89146e-05
4.70729e-05
-3.66594e-05
4.10201e-05
-3.51576e-05
3.89247e-05
-3.91843e-05
3.81272e-05
-4.56885e-05
3.83524e-05
-5.2618e-05
4.19768e-05
-6.01322e-05
6.21266e-05
-8.03598e-05
9.21437e-05
-0.000131318
0.000116632
-0.000199299
0.000123718
-0.000241064
0.000125557
-0.000236605
0.000111604
-0.000191118
0.000102843
-0.000125473
0.000101912
-6.6671e-05
0.00010454
-8.23466e-06
0.000111637
4.73193e-05
0.000136153
0.000100672
0.000153117
0.000154043
0.00015382
0.000179872
0.000143051
0.000177685
0.000131386
0.000156423
0.000122683
0.000130325
0.000114187
9.95647e-05
0.000100663
6.19027e-05
8.21341e-05
2.14686e-05
6.88285e-05
-1.4968e-05
5.72044e-05
-5.43682e-05
3.97775e-05
-8.74473e-05
1.88251e-05
-8.33886e-05
9.97065e-06
-7.87143e-05
3.81723e-06
-8.07167e-05
-2.04791e-06
-8.99979e-05
-1.1306e-05
-0.000124106
-1.58855e-05
-0.000120458
-1.71609e-05
-9.9063e-05
-1.71976e-05
-6.97001e-05
-4.29021e-05
-1.6037e-05
-9.31922e-05
-2.88091e-05
-0.000104259
-4.81924e-05
-0.00011101
-6.5523e-05
-0.000111374
-7.89135e-05
-0.000112672
-8.73182e-05
-0.000115927
-9.48543e-05
-0.000118826
-0.000101919
-0.000119569
-0.000105815
-0.000114242
-0.000104743
-0.000100457
-9.53866e-05
-9.91932e-05
-8.0792e-05
-0.00010391
-6.79465e-05
-0.000117077
-5.55529e-05
-0.000122857
-3.91803e-05
-0.000119656
-1.66523e-05
-0.000113833
5.0975e-06
-0.000105902
2.13577e-05
-9.42189e-05
3.02309e-05
-7.85619e-05
3.04576e-05
-6.09497e-05
2.3127e-05
-4.35905e-05
1.23465e-05
-3.3316e-05
4.16025e-06
-3.05831e-05
-1.34522e-07
-3.09007e-05
1.6849e-07
-3.50801e-05
3.41403e-06
-4.82357e-05
1.01669e-05
-8.15518e-05
1.78021e-05
-0.000128365
2.87445e-05
-0.000163365
3.59603e-05
-0.000177588
3.74222e-05
-0.000173143
3.26595e-05
-0.000155236
2.49412e-05
-0.000119712
1.48052e-05
-8.24135e-05
1.08965e-05
-5.69002e-05
1.08974e-05
-4.15389e-05
1.48931e-05
-2.86326e-05
2.49702e-05
-1.763e-05
4.16819e-05
-8.14274e-06
6.11529e-05
-1.97476e-07
8.10585e-05
8.03026e-06
8.92405e-05
9.65594e-06
8.81425e-05
9.37335e-06
7.54012e-05
8.78402e-06
6.48984e-05
8.94249e-06
5.89768e-05
1.01577e-05
5.77627e-05
1.1837e-05
5.86758e-05
1.39671e-05
6.06558e-05
1.63903e-05
6.24242e-05
1.87777e-05
6.33064e-05
2.0836e-05
6.2815e-05
2.24399e-05
6.12265e-05
2.34986e-05
5.91272e-05
2.3743e-05
5.68525e-05
2.30656e-05
5.32733e-05
2.23789e-05
4.73609e-05
2.25507e-05