/*--------------------------------*- C++ -*----------------------------------*\
  =========                 |
  \\      /  F ield         | OpenFOAM: The Open Source CFD Toolbox
   \\    /   O peration     | Website:  https://openfoam.org
    \\  /    A nd           | Version:  10
     \\/     M anipulation  |
\*---------------------------------------------------------------------------*/
FoamFile
{
    format      ascii;
    class       volScalarField;
    location    "0.651551";
    object      rho;
}
// * * * * * * * * * * * * * * * * * * * * * * * * * * * * * * * * * * * * * //

dimensions      [1 -3 0 0 0 0 0];

internalField   nonuniform List<scalar> 
16320
(
0.474161
0.429922
0.379619
0.338409
0.299317
0.258606
0.222266
0.195839
0.183862
0.179919
0.178522
0.181612
0.199275
0.262798
0.373294
0.423113
0.418147
0.361602
0.277616
0.199089
0.16189
0.15214
0.149812
0.149759
0.150422
0.151484
0.153179
0.155464
0.158219
0.161717
0.165846
0.171502
0.178193
0.187896
0.199543
0.215287
0.235656
0.262443
0.29508
0.334808
0.385022
0.448763
0.524087
0.592931
0.628253
0.633454
0.608594
0.534672
0.398143
0.280004
0.21838
0.194602
0.191993
0.199951
0.230928
0.270273
0.298357
0.309283
0.32537
0.347274
0.344171
0.306904
0.251925
0.240113
0.251451
0.310611
0.400182
0.477605
0.547118
0.59128
0.613385
0.610043
0.594138
0.533708
0.390382
0.222278
0.161335
0.152884
0.16169
0.224381
0.391255
0.609513
0.823775
0.996364
1.08592
1.13173
1.09877
1.06243
1.12046
1.07047
0.976772
0.910883
0.830573
0.820787
0.869999
0.805109
0.597113
0.445725
0.433683
0.437687
0.412296
0.362409
0.296297
0.261114
0.258435
0.278008
0.430763
0.614589
0.758094
0.843797
0.88192
0.891852
0.840622
0.509417
0.4747
0.431204
0.390037
0.342954
0.289349
0.239784
0.201509
0.1855
0.180305
0.178412
0.179466
0.189696
0.227844
0.327037
0.39684
0.411812
0.37696
0.300014
0.221218
0.168736
0.153761
0.149845
0.149213
0.149688
0.150556
0.151824
0.153692
0.155645
0.157906
0.160796
0.164421
0.169336
0.17503
0.182921
0.192808
0.205557
0.221778
0.24152
0.265364
0.295128
0.333119
0.37569
0.409096
0.421529
0.420169
0.398212
0.343983
0.268668
0.217099
0.1935
0.189267
0.194869
0.219846
0.257765
0.290916
0.307462
0.318668
0.344246
0.353677
0.335813
0.273691
0.236631
0.236531
0.256885
0.335903
0.405932
0.476652
0.54841
0.600841
0.627
0.625665
0.612227
0.565889
0.450167
0.279103
0.181339
0.158991
0.160874
0.193517
0.341231
0.551547
0.770857
0.959896
1.07331
1.13899
1.15146
1.06194
1.06993
1.10775
1.03808
0.95221
0.869285
0.833101
0.857419
0.83712
0.7021
0.511709
0.485539
0.49954
0.499593
0.467693
0.380873
0.286028
0.260116
0.264128
0.352044
0.545159
0.702264
0.809968
0.859515
0.873473
0.828677
0.518566
0.490458
0.455742
0.422666
0.382095
0.327054
0.271657
0.222735
0.19432
0.185832
0.183183
0.182423
0.188999
0.216939
0.298551
0.375276
0.397371
0.381837
0.313584
0.234962
0.174221
0.155122
0.150241
0.149136
0.149245
0.149926
0.150907
0.152143
0.153541
0.15516
0.157165
0.159638
0.162462
0.166123
0.170536
0.176243
0.183451
0.192491
0.203523
0.216512
0.232483
0.252426
0.272315
0.284795
0.287969
0.284594
0.26884
0.236896
0.206319
0.189518
0.186094
0.190493
0.211702
0.246384
0.280567
0.303134
0.313399
0.336094
0.356438
0.352449
0.310421
0.24326
0.229641
0.235643
0.284087
0.346711
0.404019
0.468935
0.544171
0.601545
0.629979
0.630094
0.618061
0.577198
0.477269
0.31764
0.198829
0.163601
0.16187
0.184671
0.313552
0.512952
0.726168
0.919959
1.05045
1.13496
1.17116
1.09862
1.03738
1.0896
1.07735
1.0041
0.914229
0.85708
0.846464
0.863861
0.787475
0.624448
0.54713
0.557664
0.573861
0.5547
0.480695
0.357806
0.264642
0.255366
0.306389
0.489482
0.653038
0.767538
0.824389
0.84289
0.805754
0.515476
0.491186
0.462848
0.435994
0.403065
0.356168
0.303031
0.248669
0.207539
0.195359
0.191787
0.190422
0.195185
0.218595
0.286575
0.359875
0.383906
0.379515
0.319722
0.240806
0.180838
0.15773
0.151487
0.149658
0.149238
0.149518
0.150108
0.151066
0.152221
0.153502
0.154819
0.156341
0.158153
0.160251
0.162669
0.165753
0.16963
0.17441
0.180183
0.186789
0.194742
0.204157
0.212149
0.216169
0.217008
0.213984
0.204602
0.192016
0.184018
0.182991
0.187386
0.206134
0.238095
0.27041
0.29624
0.308369
0.32652
0.352508
0.35968
0.337721
0.265194
0.22763
0.22639
0.244028
0.307228
0.347647
0.384945
0.44746
0.528532
0.59366
0.625311
0.626534
0.615637
0.57787
0.484618
0.334619
0.208331
0.166575
0.162849
0.181611
0.296978
0.480485
0.682114
0.875863
1.02154
1.1203
1.17477
1.13371
1.01413
1.01408
1.08501
1.0469
0.969635
0.886652
0.854541
0.872177
0.829666
0.743702
0.653482
0.640271
0.642051
0.612815
0.546765
0.440166
0.287123
0.25346
0.278053
0.441657
0.614048
0.728881
0.784804
0.803211
0.768707
0.508347
0.486399
0.462328
0.43987
0.412202
0.373224
0.326599
0.273163
0.222904
0.206868
0.202694
0.201378
0.206611
0.229264
0.289661
0.353928
0.374899
0.372474
0.321306
0.244788
0.192156
0.164659
0.155224
0.151303
0.149298
0.149152
0.149678
0.150437
0.151295
0.152235
0.153311
0.154496
0.155751
0.1571
0.15869
0.16043
0.162534
0.165033
0.167998
0.171311
0.175109
0.179362
0.182486
0.18401
0.184452
0.183109
0.180285
0.178652
0.179864
0.185833
0.204374
0.233021
0.262287
0.289046
0.304518
0.318289
0.34397
0.360307
0.35371
0.301828
0.232319
0.220766
0.224521
0.268612
0.313154
0.337083
0.360464
0.43215
0.519528
0.583841
0.611802
0.61025
0.596633
0.5574
0.473735
0.337827
0.212282
0.168193
0.163584
0.180568
0.282515
0.444245
0.626825
0.819182
0.982232
1.09087
1.15615
1.11607
0.978173
0.962804
1.02265
1.06895
1.01761
0.930896
0.875936
0.860982
0.861206
0.816623
0.760399
0.738429
0.71515
0.65913
0.589496
0.493413
0.327226
0.253855
0.265121
0.397813
0.584591
0.698757
0.747554
0.760558
0.716074
0.500051
0.48003
0.457878
0.437267
0.414602
0.385021
0.348938
0.298725
0.241612
0.220309
0.215765
0.215141
0.223137
0.247204
0.300199
0.350141
0.365676
0.363389
0.320373
0.247462
0.198996
0.175459
0.161737
0.151453
0.149065
0.148813
0.149247
0.149977
0.150918
0.151975
0.152975
0.154146
0.155145
0.156398
0.157644
0.158863
0.160208
0.161677
0.163289
0.165037
0.166996
0.169026
0.170728
0.171984
0.172869
0.173588
0.174572
0.176973
0.184239
0.204067
0.230137
0.257033
0.281597
0.30076
0.312836
0.333849
0.355631
0.359725
0.331479
0.249444
0.219629
0.217222
0.230193
0.283882
0.31105
0.318409
0.348997
0.424554
0.513447
0.575842
0.593902
0.587828
0.559617
0.505904
0.429838
0.31997
0.211073
0.168728
0.16365
0.178576
0.263278
0.395443
0.554738
0.74355
0.927916
1.05086
1.12137
1.06576
0.934074
0.891923
0.90495
1.02872
1.03629
0.974948
0.895775
0.863933
0.872674
0.851386
0.823258
0.80069
0.770506
0.694234
0.615833
0.52869
0.360159
0.256742
0.257961
0.364093
0.563038
0.678074
0.718439
0.722464
0.65645
0.492464
0.474135
0.4526
0.432266
0.412599
0.38955
0.364644
0.322137
0.263651
0.235734
0.230798
0.232207
0.24576
0.27235
0.314628
0.345218
0.3542
0.350636
0.314511
0.253181
0.209175
0.188154
0.16085
0.150618
0.148524
0.148446
0.149092
0.150054
0.151172
0.152315
0.153375
0.154622
0.155729
0.15708
0.158195
0.159277
0.160407
0.161528
0.162627
0.163789
0.165021
0.166303
0.167673
0.169333
0.171136
0.172868
0.175809
0.183276
0.202761
0.227476
0.25298
0.276361
0.295792
0.309406
0.324983
0.347515
0.358874
0.350561
0.285494
0.224947
0.214117
0.215051
0.245562
0.286193
0.297849
0.308224
0.341848
0.412867
0.499094
0.560733
0.575342
0.566085
0.524269
0.449108
0.379726
0.286311
0.200549
0.165645
0.161346
0.172761
0.234069
0.333127
0.466502
0.649466
0.856105
1.00184
1.07622
1.02208
0.894396
0.828723
0.824778
0.921486
1.02064
0.990226
0.923432
0.873291
0.856026
0.867972
0.853158
0.828714
0.793889
0.711051
0.632492
0.548304
0.380571
0.260057
0.253335
0.34153
0.550585
0.663164
0.695629
0.688224
0.597856
0.486959
0.470484
0.448204
0.423273
0.403904
0.390708
0.374293
0.342964
0.288328
0.252103
0.246221
0.251209
0.275044
0.307093
0.33234
0.34511
0.349107
0.34385
0.313426
0.263539
0.221478
0.189564
0.15857
0.149982
0.148487
0.148704
0.149512
0.150653
0.152468
0.154461
0.156242
0.15892
0.161109
0.163333
0.164841
0.165647
0.165754
0.165515
0.165089
0.165174
0.165589
0.166477
0.16771
0.169944
0.17515
0.181585
0.191808
0.20836
0.228631
0.250448
0.27262
0.291829
0.307385
0.31896
0.3386
0.35425
0.355513
0.329016
0.246414
0.21597
0.210933
0.216649
0.257605
0.282475
0.28553
0.295527
0.326939
0.379058
0.453557
0.524536
0.555693
0.551829
0.515993
0.439616
0.36484
0.268844
0.194354
0.162644
0.157704
0.16564
0.2033
0.26668
0.369642
0.540821
0.766447
0.942537
1.02046
0.973489
0.852226
0.780505
0.768846
0.798642
0.956716
0.985382
0.945776
0.876582
0.848068
0.852912
0.863539
0.838472
0.792763
0.687432
0.627161
0.5594
0.390569
0.263413
0.25269
0.330375
0.545702
0.655047
0.677693
0.655614
0.546496
0.484728
0.469895
0.448276
0.418947
0.396524
0.387432
0.378739
0.358087
0.314401
0.26769
0.258164
0.263017
0.293968
0.331872
0.345615
0.350083
0.351343
0.34357
0.315863
0.271221
0.226143
0.186046
0.156654
0.149966
0.149214
0.149771
0.151181
0.154685
0.160715
0.169498
0.183385
0.210425
0.24425
0.259999
0.266766
0.26279
0.249509
0.228685
0.20092
0.183839
0.175271
0.172078
0.17204
0.175313
0.186375
0.206348
0.224236
0.240031
0.256319
0.273906
0.29054
0.305736
0.317857
0.331028
0.347923
0.355063
0.348022
0.296793
0.230365
0.211287
0.209833
0.221301
0.259771
0.27243
0.27623
0.280502
0.291163
0.309702
0.361928
0.446188
0.510634
0.52517
0.509748
0.456303
0.369888
0.26648
0.193605
0.16239
0.155782
0.159352
0.173668
0.203274
0.277567
0.439607
0.68037
0.881255
0.961768
0.922905
0.807388
0.746265
0.728405
0.733996
0.848292
0.958218
0.94097
0.884607
0.839824
0.824734
0.839202
0.811711
0.747933
0.655043
0.621092
0.563015
0.386594
0.262395
0.25267
0.325182
0.544371
0.651036
0.661807
0.619902
0.502665
0.48572
0.472829
0.452853
0.421824
0.3943
0.383574
0.378818
0.368277
0.339013
0.285967
0.267098
0.268813
0.300693
0.341934
0.354696
0.357167
0.356197
0.345778
0.318071
0.273612
0.225363
0.179362
0.155312
0.151215
0.151291
0.15383
0.162476
0.183069
0.236984
0.372973
0.502632
0.60505
0.665214
0.692464
0.697882
0.679592
0.628795
0.56953
0.497025
0.385484
0.280276
0.215648
0.192966
0.191827
0.203941
0.225422
0.248013
0.268059
0.282626
0.295732
0.308356
0.3189
0.328783
0.342026
0.351739
0.351822
0.337028
0.275021
0.224476
0.20988
0.209886
0.229264
0.25657
0.265026
0.262926
0.255432
0.245172
0.245473
0.260484
0.333238
0.429406
0.48266
0.489229
0.46854
0.399949
0.288265
0.202198
0.166367
0.156818
0.156993
0.161249
0.169773
0.237161
0.406494
0.651492
0.843167
0.912909
0.872623
0.76557
0.722846
0.696869
0.69252
0.758794
0.905682
0.926372
0.8909
0.827634
0.804506
0.793306
0.761975
0.690223
0.638842
0.618198
0.554462
0.363571
0.260142
0.253102
0.323727
0.545377
0.648694
0.648733
0.584498
0.481921
0.492617
0.478424
0.462665
0.432621
0.396391
0.384039
0.378537
0.374431
0.358675
0.31398
0.274827
0.27157
0.29721
0.345117
0.360823
0.363205
0.361123
0.348608
0.319299
0.273427
0.21958
0.170328
0.156237
0.154997
0.160159
0.183287
0.262298
0.460124
0.656645
0.781889
0.835696
0.851285
0.814062
0.701273
0.602744
0.565346
0.559972
0.559512
0.569093
0.572022
0.50768
0.388579
0.286304
0.245981
0.237041
0.247838
0.265204
0.285314
0.302647
0.314525
0.323043
0.331015
0.338616
0.34819
0.351896
0.347678
0.326148
0.266884
0.221869
0.210624
0.212061
0.231609
0.251017
0.252005
0.24753
0.234931
0.228312
0.227583
0.230051
0.249126
0.332888
0.420381
0.458316
0.458602
0.428163
0.340335
0.232809
0.181224
0.162218
0.158414
0.160446
0.171418
0.227516
0.406176
0.651725
0.824571
0.874024
0.819491
0.729889
0.702687
0.675921
0.666384
0.7011
0.840795
0.900276
0.879882
0.819791
0.781696
0.755765
0.71509
0.649984
0.630463
0.616232
0.537869
0.340732
0.258167
0.253647
0.32632
0.555663
0.64664
0.633213
0.548926
0.47226
0.507694
0.488888
0.475996
0.45142
0.410487
0.387206
0.381069
0.378861
0.373391
0.347888
0.288207
0.270223
0.277782
0.33194
0.361221
0.366425
0.364482
0.349834
0.316868
0.265779
0.202765
0.166232
0.161128
0.16767
0.207502
0.361634
0.598596
0.76493
0.826283
0.836638
0.764763
0.595864
0.394982
0.30032
0.276192
0.269914
0.281149
0.315165
0.383114
0.495356
0.5649
0.530899
0.410501
0.326044
0.284242
0.277994
0.28625
0.299283
0.313284
0.326286
0.334598
0.339781
0.345506
0.350161
0.349625
0.342556
0.318167
0.262353
0.221084
0.212743
0.215466
0.233602
0.242526
0.241525
0.234385
0.226515
0.222987
0.222418
0.223212
0.228709
0.261498
0.352585
0.421225
0.440935
0.434733
0.387671
0.287907
0.209719
0.17607
0.16316
0.164474
0.174083
0.235166
0.427125
0.668463
0.812138
0.836483
0.762361
0.705611
0.687164
0.663254
0.650268
0.670534
0.787961
0.868143
0.858091
0.80878
0.760578
0.722204
0.669157
0.632683
0.628334
0.61389
0.505024
0.308261
0.256208
0.256069
0.339769
0.568297
0.644079
0.612892
0.523704
0.468993
0.543521
0.506358
0.493053
0.479233
0.444375
0.400446
0.386917
0.383654
0.382786
0.372879
0.330513
0.270887
0.261783
0.288605
0.343009
0.358974
0.359466
0.344978
0.305774
0.244732
0.183023
0.169106
0.172479
0.214547
0.389131
0.630262
0.772142
0.809528
0.781421
0.618487
0.385511
0.315694
0.302838
0.294123
0.2822
0.273799
0.270337
0.270921
0.288932
0.366956
0.533869
0.573891
0.497148
0.398698
0.342105
0.317006
0.313336
0.318044
0.325193
0.332785
0.33968
0.344783
0.348433
0.349065
0.346396
0.33649
0.311434
0.257629
0.221498
0.2155
0.219264
0.231658
0.233387
0.2314
0.226103
0.222234
0.219976
0.219633
0.220554
0.222982
0.234863
0.294237
0.37767
0.421516
0.428337
0.412133
0.34584
0.251758
0.197113
0.175225
0.173362
0.184857
0.262884
0.479436
0.703104
0.798475
0.794209
0.717737
0.68836
0.6804
0.657851
0.639525
0.655879
0.767534
0.836849
0.832259
0.793725
0.737511
0.684671
0.638807
0.621762
0.633061
0.607461
0.451511
0.283394
0.254981
0.259932
0.357944
0.583764
0.639161
0.590515
0.512547
0.473618
0.645423
0.542028
0.519969
0.512228
0.495025
0.444433
0.402239
0.391236
0.389229
0.387309
0.371738
0.310092
0.255056
0.248982
0.285212
0.324095
0.331221
0.322605
0.278812
0.209487
0.178789
0.176722
0.205587
0.353305
0.602855
0.755587
0.792802
0.754509
0.570028
0.422593
0.39831
0.388531
0.343854
0.297072
0.288228
0.288345
0.295943
0.303875
0.311201
0.37608
0.521453
0.569544
0.524645
0.447329
0.392264
0.364617
0.348245
0.341356
0.34004
0.341311
0.343274
0.345878
0.34807
0.346547
0.341882
0.331121
0.304889
0.249728
0.221752
0.218228
0.221384
0.225885
0.22588
0.224409
0.221282
0.219148
0.218475
0.218848
0.219555
0.221045
0.226256
0.252897
0.331042
0.394415
0.416732
0.416829
0.383501
0.301809
0.225225
0.191487
0.189023
0.206264
0.322946
0.56939
0.738736
0.779962
0.736171
0.691131
0.683355
0.68867
0.660665
0.631222
0.651815
0.756941
0.810662
0.806345
0.773572
0.705878
0.650669
0.624621
0.618274
0.634506
0.578504
0.376974
0.270955
0.258734
0.267655
0.383245
0.599486
0.631479
0.568423
0.506966
0.475498
0.810856
0.639434
0.564706
0.548077
0.541567
0.516739
0.453337
0.410192
0.397063
0.394839
0.392509
0.370488
0.288553
0.236819
0.23126
0.255415
0.269471
0.268404
0.235457
0.191398
0.182501
0.194752
0.287369
0.528188
0.723556
0.782206
0.772102
0.637408
0.516587
0.490002
0.476726
0.404391
0.310367
0.293004
0.294235
0.316625
0.357543
0.388571
0.403884
0.439893
0.517783
0.544756
0.523861
0.468791
0.427304
0.404252
0.385995
0.370571
0.359672
0.353358
0.350385
0.348933
0.347355
0.343687
0.337315
0.324515
0.290706
0.236825
0.220768
0.218976
0.220298
0.221181
0.220983
0.219963
0.218254
0.218566
0.219983
0.221007
0.221631
0.222004
0.224144
0.23419
0.283946
0.35815
0.399999
0.410075
0.401096
0.345959
0.255722
0.210743
0.209167
0.241273
0.427527
0.659353
0.753341
0.749467
0.695471
0.682607
0.695414
0.7031
0.662129
0.629621
0.670366
0.760896
0.787201
0.779227
0.746864
0.669254
0.631438
0.617923
0.633559
0.62708
0.514015
0.313563
0.264509
0.263592
0.278369
0.414997
0.612613
0.619284
0.545331
0.504987
0.483543
0.935145
0.814737
0.679163
0.620615
0.597915
0.588834
0.560679
0.478766
0.416952
0.400938
0.400261
0.399402
0.367877
0.265154
0.218016
0.212814
0.218795
0.219346
0.2036
0.188734
0.189976
0.231109
0.416456
0.667341
0.788651
0.809196
0.752522
0.628255
0.59545
0.586316
0.516934
0.364254
0.299304
0.292791
0.30415
0.345708
0.406488
0.443582
0.461347
0.478563
0.503612
0.510613
0.509545
0.475686
0.448887
0.427955
0.410268
0.392916
0.377139
0.365473
0.35704
0.350904
0.345798
0.340809
0.331785
0.310959
0.259069
0.225733
0.218468
0.217397
0.217685
0.217795
0.217904
0.217956
0.219347
0.222151
0.224953
0.226494
0.22703
0.225039
0.225119
0.229147
0.250586
0.31942
0.377449
0.399866
0.403747
0.371803
0.284027
0.230652
0.233489
0.299371
0.547176
0.708883
0.740746
0.691585
0.677623
0.694638
0.741538
0.7176
0.659951
0.633894
0.704853
0.758745
0.765241
0.752891
0.702891
0.642498
0.62123
0.621292
0.650381
0.60415
0.398091
0.281421
0.267071
0.271745
0.293439
0.449845
0.620401
0.600919
0.525982
0.506224
0.493325
0.986076
0.947887
0.842669
0.741109
0.693432
0.667776
0.657035
0.614344
0.496922
0.414813
0.401509
0.407291
0.408271
0.357502
0.240876
0.20238
0.19674
0.19541
0.191742
0.190331
0.205774
0.297675
0.549696
0.768142
0.837947
0.842482
0.771024
0.721556
0.718722
0.676873
0.519823
0.341831
0.298694
0.295538
0.311042
0.352049
0.403042
0.444116
0.466607
0.479142
0.488183
0.490641
0.489084
0.476205
0.456148
0.438236
0.419188
0.401911
0.385288
0.37095
0.359587
0.35096
0.343605
0.335221
0.319464
0.276993
0.23129
0.218776
0.215976
0.215466
0.21603
0.2171
0.218915
0.222265
0.226558
0.231578
0.234272
0.235527
0.235231
0.228988
0.226413
0.22845
0.238118
0.284928
0.352812
0.388888
0.400436
0.384414
0.303531
0.252245
0.264191
0.396295
0.641336
0.729636
0.710425
0.668539
0.686378
0.771023
0.772053
0.715416
0.664465
0.66475
0.728227
0.747521
0.743704
0.721727
0.662657
0.628318
0.62119
0.647878
0.642341
0.516725
0.315323
0.272523
0.276032
0.285344
0.310513
0.482625
0.621244
0.577359
0.517003
0.50912
0.505209
1.00075
1.00673
0.968593
0.887631
0.811452
0.774629
0.75367
0.731591
0.648439
0.476187
0.403199
0.400619
0.420404
0.413564
0.328419
0.218274
0.194665
0.191311
0.191118
0.196975
0.232124
0.386142
0.667476
0.846331
0.890879
0.892243
0.8667
0.874017
0.862862
0.75001
0.529507
0.344454
0.309398
0.307239
0.319651
0.3463
0.373707
0.392072
0.412942
0.449658
0.467032
0.473014
0.47247
0.467482
0.454166
0.436937
0.418047
0.400153
0.385039
0.370259
0.357668
0.346951
0.336489
0.319598
0.280596
0.232986
0.21934
0.215265
0.21458
0.215766
0.218975
0.223169
0.229015
0.235686
0.241309
0.243629
0.243795
0.243796
0.237017
0.229978
0.226471
0.227904
0.233891
0.263265
0.33242
0.379793
0.396593
0.38951
0.313793
0.275266
0.307298
0.51819
0.702509
0.725112
0.659032
0.664168
0.760033
0.826409
0.783726
0.71895
0.688851
0.703437
0.734944
0.734114
0.723684
0.681129
0.643463
0.625466
0.644441
0.665851
0.589865
0.360486
0.283305
0.282734
0.2953
0.298229
0.323891
0.513008
0.617557
0.560764
0.512428
0.512333
0.514471
0.911587
1.03086
1.02771
0.994407
0.938487
0.882347
0.855938
0.83038
0.772415
0.60591
0.417634
0.387344
0.413139
0.436292
0.400966
0.28055
0.204452
0.194492
0.194675
0.206035
0.261787
0.471112
0.763648
0.931417
0.981417
1.00239
1.02047
1.03134
0.989992
0.827564
0.582484
0.407548
0.3793
0.385231
0.408883
0.416363
0.411181
0.392093
0.381349
0.377026
0.385424
0.406859
0.424649
0.434262
0.432071
0.423294
0.40984
0.39398
0.376704
0.362507
0.348107
0.332566
0.310352
0.2696
0.230741
0.219225
0.215664
0.215587
0.218543
0.224985
0.232786
0.241658
0.248379
0.252446
0.252068
0.250286
0.24922
0.242881
0.236487
0.22977
0.225911
0.226938
0.23211
0.254595
0.322676
0.375468
0.39525
0.390954
0.319293
0.301208
0.373481
0.62853
0.730499
0.702073
0.64586
0.702064
0.846427
0.839887
0.785354
0.737752
0.715311
0.72843
0.730775
0.722236
0.698213
0.661818
0.636964
0.648547
0.67288
0.638839
0.418996
0.296486
0.289111
0.304668
0.307762
0.305389
0.342203
0.530799
0.612374
0.551756
0.510434
0.514789
0.52151
0.675729
0.965112
1.05577
1.048
1.02
0.984134
0.948703
0.923498
0.866932
0.700612
0.442597
0.377303
0.389839
0.443025
0.443757
0.364102
0.236355
0.201994
0.200884
0.219713
0.303009
0.550617
0.85009
1.02123
1.09294
1.13686
1.16417
1.1697
1.11411
0.958857
0.749981
0.671935
0.679185
0.74245
0.833727
0.869022
0.864617
0.789485
0.650798
0.508139
0.404735
0.359028
0.342881
0.337704
0.340861
0.354359
0.360166
0.355002
0.345805
0.332834
0.307716
0.279803
0.248009
0.226177
0.21901
0.216868
0.219008
0.226123
0.237985
0.249312
0.257759
0.26111
0.261523
0.25963
0.255724
0.253916
0.249668
0.245859
0.239475
0.232354
0.227439
0.227691
0.232484
0.252549
0.319113
0.374108
0.395749
0.3909
0.325492
0.330063
0.468554
0.696197
0.741704
0.638
0.649495
0.82158
0.871916
0.841027
0.787563
0.753772
0.736534
0.736798
0.726476
0.710655
0.682035
0.65787
0.657125
0.678766
0.661805
0.492312
0.307706
0.290507
0.322556
0.327652
0.313747
0.309934
0.356504
0.531357
0.608244
0.548553
0.509012
0.516656
0.527224
0.496362
0.762741
1.01601
1.07441
1.0656
1.04554
1.02456
0.996693
0.930757
0.755605
0.462463
0.36952
0.37141
0.433106
0.464621
0.427256
0.301667
0.220178
0.212364
0.234949
0.335917
0.615383
0.934079
1.12375
1.2112
1.26003
1.28338
1.28633
1.2465
1.14774
1.08012
1.07696
1.12193
1.21662
1.35245
1.45295
1.4905
1.48208
1.40756
1.24648
1.00692
0.757037
0.532276
0.369932
0.301502
0.279142
0.270657
0.266389
0.262258
0.256247
0.243096
0.229439
0.223009
0.220025
0.221109
0.228622
0.24557
0.260172
0.266273
0.269334
0.270517
0.269381
0.268377
0.266196
0.265514
0.263671
0.262545
0.258646
0.251106
0.241861
0.234235
0.23263
0.23705
0.255633
0.320832
0.375984
0.397545
0.388716
0.335067
0.360013
0.558598
0.739197
0.730074
0.611037
0.706825
0.884069
0.878632
0.840588
0.795097
0.766166
0.750529
0.739006
0.723788
0.703328
0.681815
0.677708
0.6853
0.666755
0.546654
0.317282
0.294324
0.341026
0.364542
0.337507
0.319527
0.31934
0.360206
0.522274
0.604557
0.566119
0.510748
0.517121
0.531378
0.442908
0.580399
0.862605
1.04606
1.09259
1.08622
1.0704
1.0393
0.96191
0.740501
0.424686
0.365129
0.365103
0.410756
0.47546
0.46933
0.375485
0.255673
0.23306
0.249381
0.348057
0.63336
0.983268
1.20437
1.2956
1.332
1.34156
1.33226
1.29879
1.26538
1.24999
1.25956
1.30301
1.40002
1.53043
1.64818
1.72635
1.75219
1.73908
1.67263
1.52666
1.31065
1.07816
0.840592
0.593699
0.3792
0.280011
0.251852
0.240565
0.234344
0.230111
0.227574
0.228702
0.236196
0.254486
0.275684
0.281694
0.278652
0.277627
0.277482
0.278745
0.282523
0.287029
0.291152
0.292856
0.293544
0.292376
0.287411
0.276828
0.263158
0.25021
0.244593
0.248192
0.265625
0.328003
0.378993
0.398856
0.38356
0.348245
0.398547
0.639556
0.765458
0.692658
0.606366
0.816867
0.905043
0.882521
0.83989
0.802524
0.775922
0.75876
0.741479
0.725275
0.707777
0.70206
0.694781
0.672198
0.557772
0.317111
0.293057
0.365327
0.396804
0.382146
0.345109
0.330323
0.327475
0.357291
0.500628
0.599065
0.59675
0.516461
0.517275
0.536543
0.444637
0.541135
0.759742
0.974734
1.09093
1.11943
1.1086
1.06258
0.916143
0.577636
0.391255
0.36484
0.366165
0.397828
0.477398
0.495211
0.437746
0.306083
0.256609
0.263547
0.350676
0.63308
1.00047
1.24173
1.33879
1.36004
1.35732
1.32541
1.27365
1.22097
1.1934
1.18215
1.21577
1.32373
1.44559
1.5582
1.6877
1.73445
1.7305
1.67584
1.55991
1.37278
1.18443
1.03351
0.901642
0.744163
0.53745
0.37092
0.297225
0.274022
0.267092
0.270066
0.283223
0.303369
0.307749
0.300524
0.289764
0.283983
0.285089
0.292265
0.30704
0.322902
0.334019
0.338736
0.339078
0.338163
0.335094
0.32733
0.315507
0.298937
0.279627
0.26736
0.268308
0.28333
0.338183
0.382592
0.400703
0.379681
0.362358
0.442704
0.69191
0.78051
0.655906
0.625181
0.870879
0.91352
0.883216
0.841554
0.808166
0.782315
0.766175
0.750322
0.737902
0.726756
0.705958
0.675829
0.561888
0.343893
0.299846
0.379125
0.41456
0.414708
0.401028
0.365984
0.341698
0.33519
0.349424
0.451635
0.587684
0.616042
0.534907
0.519591
0.539861
0.469344
0.562358
0.766123
0.974355
1.09268
1.12633
1.10213
0.972156
0.669683
0.426199
0.376625
0.368363
0.373734
0.399396
0.471577
0.514251
0.485328
0.367554
0.283249
0.27933
0.346709
0.608746
0.992059
1.25757
1.35138
1.36111
1.33979
1.27477
1.16617
1.02411
0.922925
0.880114
0.864491
0.905612
1.01146
1.15163
1.40539
1.5754
1.62703
1.59623
1.49388
1.29293
1.0641
0.945369
0.897273
0.835121
0.732684
0.605926
0.485991
0.412471
0.382025
0.368532
0.358161
0.340486
0.319635
0.301123
0.291585
0.293748
0.31453
0.338152
0.353022
0.360202
0.363762
0.365386
0.364395
0.362953
0.36158
0.359343
0.355511
0.346113
0.32606
0.304972
0.298952
0.309206
0.350008
0.386405
0.402655
0.379326
0.375074
0.48151
0.719646
0.790171
0.638575
0.645642
0.896617
0.918221
0.88546
0.846251
0.815251
0.794277
0.784651
0.769324
0.753082
0.72683
0.680189
0.560263
0.36749
0.321416
0.374666
0.424571
0.425593
0.420162
0.409333
0.39124
0.360001
0.34543
0.345307
0.397514
0.55007
0.621977
0.594959
0.531694
0.541128
0.539854
0.645878
0.81001
0.971983
1.04606
1.05003
0.919824
0.638001
0.437464
0.389253
0.379946
0.378786
0.387095
0.411019
0.471167
0.530612
0.521801
0.431508
0.318322
0.29866
0.341379
0.553265
0.955083
1.24677
1.35227
1.34589
1.29868
1.16254
0.956631
0.75653
0.643009
0.5738
0.530404
0.516989
0.533738
0.628979
0.869657
1.21578
1.408
1.43037
1.35209
1.10925
0.798788
0.717768
0.721024
0.752238
0.748875
0.658234
0.56749
0.500152
0.44829
0.408232
0.376527
0.338183
0.305663
0.298021
0.307401
0.337772
0.358895
0.365505
0.368548
0.370609
0.372734
0.3747
0.375004
0.373782
0.373312
0.37499
0.380631
0.388274
0.385537
0.362798
0.34141
0.342993
0.364427
0.390433
0.404629
0.380723
0.38552
0.506843
0.738624
0.795716
0.632491
0.652029
0.907382
0.923324
0.89036
0.855083
0.830004
0.818757
0.800612
0.779003
0.750411
0.690441
0.560097
0.381189
0.336315
0.365083
0.42872
0.43265
0.427545
0.420774
0.411591
0.400647
0.383866
0.358341
0.351621
0.367469
0.465689
0.607417
0.64148
0.573515
0.546574
0.58175
0.695313
0.816798
0.882765
0.878488
0.751035
0.538364
0.431777
0.40197
0.399581
0.40382
0.406805
0.419343
0.433362
0.479808
0.545692
0.548673
0.48664
0.363871
0.320465
0.339567
0.48493
0.860948
1.20911
1.33387
1.32195
1.24767
1.08003
0.860552
0.661407
0.538841
0.490943
0.456442
0.433303
0.426338
0.432904
0.489799
0.797486
1.1402
1.25759
1.21599
0.950734
0.621512
0.563073
0.579242
0.63732
0.653179
0.650536
0.577295
0.510875
0.458097
0.406409
0.350614
0.306159
0.300674
0.32234
0.358853
0.370254
0.371646
0.371308
0.371742
0.37283
0.374893
0.377672
0.380244
0.380956
0.381295
0.383637
0.393013
0.408075
0.417534
0.417763
0.400341
0.383564
0.387623
0.399709
0.408988
0.38432
0.393836
0.517227
0.746369
0.801567
0.631871
0.633001
0.908486
0.930508
0.902301
0.873059
0.85372
0.830977
0.806598
0.773868
0.704458
0.561232
0.391175
0.346956
0.36127
0.427515
0.438708
0.433758
0.42662
0.418949
0.411622
0.403509
0.394174
0.37891
0.361264
0.359494
0.391892
0.53714
0.640625
0.639031
0.573865
0.571425
0.639989
0.671421
0.638469
0.547284
0.459391
0.427106
0.416521
0.426149
0.443707
0.462884
0.475018
0.475342
0.472373
0.49435
0.56122
0.571614
0.530731
0.419842
0.345591
0.343828
0.428151
0.722129
1.10838
1.29244
1.28831
1.22244
1.07089
0.863331
0.67489
0.55035
0.486367
0.450466
0.423078
0.406063
0.400573
0.411274
0.495972
0.853025
1.07943
1.08289
0.871995
0.530985
0.458843
0.49139
0.570569
0.596685
0.595405
0.553288
0.473591
0.408391
0.341164
0.308411
0.305969
0.339564
0.374445
0.379239
0.377332
0.373573
0.370952
0.371226
0.372688
0.375473
0.378499
0.382092
0.385949
0.389295
0.391768
0.400473
0.414583
0.429072
0.439372
0.443519
0.435999
0.422447
0.424601
0.421885
0.387969
0.398766
0.517569
0.746036
0.820546
0.654821
0.581826
0.884642
0.933922
0.914192
0.887246
0.861251
0.835534
0.796658
0.720478
0.566373
0.399797
0.355889
0.364828
0.425445
0.441854
0.437645
0.427443
0.415717
0.408143
0.404778
0.403124
0.397437
0.389332
0.377405
0.368656
0.370699
0.410637
0.569779
0.657716
0.645607
0.473465
0.481939
0.469473
0.446701
0.430866
0.424593
0.430112
0.443187
0.459564
0.480339
0.515888
0.537713
0.533408
0.520994
0.522376
0.579848
0.59231
0.565506
0.478555
0.379246
0.356106
0.394785
0.572601
0.941896
1.19869
1.24516
1.19619
1.08174
0.912587
0.741103
0.60784
0.530131
0.484181
0.442441
0.405594
0.390617
0.388029
0.421521
0.632145
0.938643
1.0015
0.868594
0.517837
0.398047
0.400094
0.461726
0.500101
0.5064
0.47592
0.38932
0.327633
0.307535
0.312948
0.361402
0.389545
0.389317
0.380997
0.370385
0.362085
0.359041
0.362266
0.366211
0.372049
0.377337
0.38277
0.387359
0.392552
0.398971
0.406056
0.417177
0.430662
0.444677
0.456168
0.464282
0.465364
0.463367
0.447194
0.395513
0.401614
0.504259
0.732084
0.822829
0.711248
0.53897
0.821049
0.927901
0.915718
0.890386
0.862679
0.821771
0.737332
0.577192
0.407333
0.362285
0.367517
0.420946
0.444355
0.441559
0.426557
0.40175
0.387678
0.379163
0.379876
0.390685
0.393109
0.392451
0.385568
0.378281
0.372047
0.375812
0.417438
0.610392
0.664908
0.41958
0.416306
0.416812
0.418317
0.423937
0.434721
0.448962
0.462538
0.477014
0.502726
0.554365
0.590384
0.588313
0.572343
0.566775
0.603718
0.611463
0.591751
0.527978
0.424271
0.37526
0.382033
0.469197
0.716317
1.03375
1.16354
1.1501
1.07684
0.940383
0.790377
0.65934
0.56468
0.498276
0.452753
0.418096
0.388792
0.378366
0.386425
0.494255
0.821172
0.96746
0.89853
0.573561
0.381842
0.357513
0.355276
0.366563
0.369444
0.356262
0.330299
0.322797
0.335529
0.383404
0.403608
0.400686
0.383601
0.359082
0.343566
0.341438
0.348478
0.356933
0.363095
0.37025
0.376068
0.382967
0.388847
0.394593
0.404313
0.411396
0.419708
0.430163
0.443252
0.457886
0.469622
0.481493
0.491204
0.48272
0.418505
0.404732
0.475902
0.690595
0.813086
0.760004
0.545326
0.656292
0.896726
0.908958
0.88598
0.847397
0.766251
0.60211
0.420776
0.371118
0.3645
0.410858
0.445436
0.445549
0.429198
0.390901
0.356031
0.338662
0.329481
0.330926
0.354947
0.371207
0.383308
0.387413
0.386068
0.381547
0.37561
0.377797
0.412613
0.627994
0.402924
0.405863
0.41122
0.420888
0.433207
0.450572
0.467674
0.482417
0.493621
0.516073
0.568461
0.626758
0.635983
0.624458
0.613922
0.628435
0.628541
0.613945
0.565713
0.477272
0.400953
0.383551
0.416737
0.539541
0.777722
1.00156
1.06043
1.03123
0.935335
0.800082
0.673092
0.57262
0.499099
0.452584
0.420609
0.393532
0.371759
0.367222
0.400682
0.668952
0.940373
0.946783
0.675524
0.396866
0.354894
0.343022