/*--------------------------------*- C++ -*----------------------------------*\
  =========                 |
  \\      /  F ield         | OpenFOAM: The Open Source CFD Toolbox
   \\    /   O peration     | Website:  https://openfoam.org
    \\  /    A nd           | Version:  10
     \\/     M anipulation  |
\*---------------------------------------------------------------------------*/
FoamFile
{
    format      ascii;
    class       volScalarField;
    location    "0.748834";
    object      rho;
}
// * * * * * * * * * * * * * * * * * * * * * * * * * * * * * * * * * * * * * //

dimensions      [1 -3 0 0 0 0 0];

internalField   nonuniform List<scalar> 
15708
(
0.990101
0.991116
0.992622
0.993473
0.994474
0.995461
0.99638
0.997317
0.998143
0.998988
0.999749
1.00044
1.00108
1.00161
1.00209
1.00251
1.00285
1.00312
1.00333
1.00346
1.00352
1.00352
1.00347
1.00335
1.00319
1.00298
1.00274
1.00246
1.00214
1.00184
1.00149
1.00119
1.00085
1.00055
1.00027
1
0.999778
0.99958
0.999439
0.999332
0.999301
0.999327
0.999402
0.999581
0.999813
1.00016
1.00058
1.00111
1.00172
1.00248
1.00331
0.989656
0.991248
0.991717
0.99308
0.994039
0.994916
0.995899
0.996788
0.997682
0.998501
0.999282
1
1.00065
1.00123
1.00176
1.00221
1.0026
1.00292
1.00318
1.00337
1.00349
1.00354
1.00354
1.00349
1.00338
1.00323
1.00305
1.00282
1.00258
1.00234
1.00204
1.0018
1.00151
1.00126
1.00101
1.00081
1.00062
1.00049
1.00038
1.00033
1.00032
1.00037
1.00048
1.00067
1.00091
1.00128
1.00168
1.00221
1.0028
1.00351
1.00433
0.989592
0.990082
0.99168
0.992075
0.99365
0.994202
0.995407
0.99625
0.997126
0.997992
0.998796
0.999545
1.00023
1.00085
1.00141
1.0019
1.00233
1.00269
1.003
1.00324
1.00341
1.00353
1.00359
1.0036
1.00356
1.00347
1.00336
1.00319
1.00302
1.00282
1.00263
1.00242
1.00223
1.00202
1.00185
1.0017
1.00157
1.00148
1.00142
1.00142
1.00144
1.00153
1.00167
1.00187
1.00213
1.00248
1.00289
1.00341
1.00398
1.00466
1.00542
0.988177
0.989951
0.990302
0.991939
0.992504
0.993746
0.994562
0.995503
0.996418
0.997309
0.998163
0.998955
0.99969
1.00036
1.00096
1.00151
1.00199
1.00241
1.00277
1.00307
1.00332
1.0035
1.00363
1.00371
1.00373
1.00372
1.00366
1.00358
1.00347
1.00335
1.00322
1.00307
1.00296
1.00282
1.00271
1.00262
1.00257
1.00253
1.00254
1.00256
1.00263
1.00275
1.00292
1.00315
1.00342
1.00378
1.00418
1.00468
1.00523
1.00589
1.0066
0.987791
0.988651
0.989809
0.990719
0.991828
0.992779
0.993763
0.994737
0.995684
0.996611
0.997503
0.998325
0.999102
0.999814
1.00045
1.00104
1.00159
1.00207
1.00249
1.00287
1.00318
1.00342
1.00362
1.00377
1.00387
1.00393
1.00395
1.00395
1.00392
1.00388
1.00383
1.00377
1.00371
1.00366
1.0036
1.00359
1.00359
1.00363
1.00367
1.00376
1.00388
1.00403
1.00423
1.00449
1.00478
1.00515
1.00554
1.00604
1.00655
1.00718
1.00786
0.986617
0.987732
0.988734
0.989842
0.990873
0.991894
0.992923
0.993938
0.994922
0.995898
0.996838
0.997705
0.998502
0.999235
0.999914
1.00055
1.00114
1.00169
1.00218
1.00262
1.00299
1.00331
1.00356
1.00378
1.00396
1.00409
1.00421
1.00429
1.00435
1.0044
1.00444
1.00447
1.00449
1.00452
1.00455
1.0046
1.00468
1.00477
1.00488
1.00502
1.00519
1.00539
1.00562
1.0059
1.0062
1.00657
1.00698
1.00745
1.00798
1.00854
1.00921
0.985396
0.986944
0.987478
0.989173
0.989728
0.991108
0.991964
0.992932
0.993946
0.994953
0.99593
0.996857
0.997728
0.99853
0.999266
0.999955
1.00063
1.00124
1.00177
1.00223
1.00267
1.00308
1.00347
1.00382
1.00412
1.00437
1.00457
1.00472
1.00485
1.00495
1.00505
1.00516
1.00526
1.00536
1.00549
1.00563
1.00578
1.00595
1.00613
1.00633
1.00655
1.0068
1.00707
1.00738
1.00771
1.00809
1.00849
1.00894
1.00945
1.00999
1.01061
0.984352
0.985383
0.986495
0.987495
0.988611
0.98969
0.990762
0.991856
0.992932
0.993963
0.99498
0.995959
0.99689
0.99778
0.998588
0.999331
1.00004
1.00069
1.00129
1.00184
1.00237
1.00289
1.0034
1.00384
1.00421
1.00453
1.00483
1.00508
1.00531
1.00552
1.00569
1.00588
1.00605
1.00624
1.00646
1.00668
1.00692
1.00717
1.00743
1.00769
1.00797
1.00827
1.00858
1.00892
1.00928
1.00966
1.01007
1.01052
1.01099
1.01153
1.01207
0.982581
0.984195
0.984639
0.986348
0.986982
0.988416
0.989505
0.990768
0.991929
0.993056
0.994066
0.994997
0.995894
0.996794
0.997688
0.998579
0.999428
1.00024
1.00097
1.00164
1.00224
1.00279
1.0033
1.00377
1.00422
1.00463
1.00501
1.00536
1.00569
1.00602
1.00631
1.0066
1.00689
1.00718
1.00748
1.0078
1.00812
1.00844
1.00877
1.0091
1.00944
1.00979
1.01015
1.01052
1.01091
1.01131
1.01172
1.01216
1.01261
1.01311
1.01362
0.981494
0.982005
0.983802
0.984253
0.986067
0.986761
0.988442
0.989267
0.990876
0.991725
0.992818
0.993883
0.994954
0.996022
0.997084
0.998056
0.998954
0.999736
1.00047
1.00118
1.00187
1.00251
1.00311
1.00366
1.00418
1.00467
1.00515
1.00561
1.00604
1.00647
1.00688
1.00729
1.0077
1.00811
1.00853
1.00892
1.00935
1.00975
1.01017
1.01055
1.01097
1.01137
1.01179
1.01219
1.01261
1.01302
1.01344
1.01388
1.01432
1.01478
1.01526
0.979059
0.981009
0.98153
0.983487
0.98404
0.985948
0.986614
0.988081
0.989131
0.990392
0.991644
0.992844
0.993982
0.995077
0.996119
0.997123
0.998069
0.998998
0.999906
1.00074
1.00149
1.00219
1.00288
1.00356
1.00421
1.00483
1.00541
1.00598
1.00652
1.00704
1.00756
1.00806
1.00856
1.00906
1.00957
1.01007
1.01057
1.01106
1.01157
1.01205
1.01254
1.01301
1.01347
1.01392
1.01437
1.0148
1.01524
1.01566
1.0161
1.01654
1.01698
0.977175
0.978813
0.979891
0.981603
0.982628
0.984183
0.985279
0.986686
0.987798
0.989107
0.990328
0.99156
0.992766
0.993955
0.995091
0.996199
0.997279
0.998303
0.999297
1.00023
1.00112
1.00193
1.00272
1.00347
1.0042
1.0049
1.00558
1.00625
1.0069
1.00753
1.00816
1.00878
1.0094
1.01001
1.01063
1.01124
1.01186
1.01244
1.01302
1.01358
1.01414
1.01467
1.01521
1.01572
1.01621
1.01667
1.01712
1.01754
1.01796
1.01837
1.01879
0.975853
0.976478
0.978387
0.979056
0.981191
0.981771
0.983917
0.98462
0.986677
0.987605
0.989077
0.990384
0.991683
0.992958
0.994258
0.995471
0.996631
0.997699
0.998735
0.999713
1.00066
1.00159
1.00248
1.00333
1.00415
1.00496
1.00574
1.00651
1.00726
1.008
1.00875
1.0095
1.01024
1.01097
1.0117
1.01243
1.01314
1.01384
1.01451
1.01518
1.01582
1.01644
1.01701
1.01757
1.01808
1.01857
1.01904
1.01948
1.0199
1.02029
1.02068
0.973536
0.97444
0.975772
0.977354
0.978537
0.980343
0.981788
0.983092
0.984736
0.986255
0.987752
0.989223
0.990616
0.991986
0.993305
0.994558
0.995769
0.996921
0.998055
0.999151
1.00021
1.00123
1.00222
1.00316
1.00408
1.00499
1.00588
1.00677
1.00763
1.0085
1.00936
1.01022
1.01108
1.01195
1.01281
1.01364
1.01445
1.01526
1.01606
1.01683
1.01754
1.01821
1.01885
1.01946
1.02003
1.02057
1.02105
1.02151
1.02192
1.0223
1.02266
0.971556
0.973738
0.973135
0.975916
0.976118
0.978697
0.979459
0.981921
0.982843
0.984529
0.986197
0.987772
0.989287
0.990723
0.992104
0.993456
0.994786
0.996072
0.997293
0.998483
0.999651
1.0008
1.00192
1.00301
1.00405
1.00506
1.00605
1.00702
1.008
1.00896
1.00995
1.01093
1.01191
1.01291
1.01389
1.01485
1.0158
1.01671
1.01761
1.01847
1.0193
1.02006
1.02077
1.02142
1.02203
1.0226
1.02312
1.0236
1.02402
1.02441
1.02474
0.97285
0.971934
0.972396
0.972801
0.975204
0.975603
0.978324
0.978952
0.98151
0.982818
0.984465
0.986099
0.987737
0.989331
0.990935
0.992481
0.993923
0.995325
0.996694
0.998011
0.999267
1.00047
1.00162
1.00277
1.0039
1.00502
1.00613
1.00723
1.00834
1.00944
1.01056
1.01166
1.01278
1.01389
1.015
1.01608
1.01715
1.01818
1.01919
1.02015
1.02108
1.02194
1.02273
1.02346
1.02413
1.02474
1.0253
1.02578
1.02622
1.02658
1.02691
0.978933
0.974334
0.972579
0.97192
0.972894
0.974098
0.9758
0.97752
0.979358
0.981145
0.982921
0.984666
0.986376
0.988073
0.989722
0.991353
0.992942
0.994483
0.99597
0.997408
0.998789
1.00011
1.00139
1.00262
1.00381
1.00503
1.00621
1.00745
1.00862
1.0099
1.01107
1.01238
1.01357
1.01487
1.01604
1.01732
1.01849
1.01965
1.02079
1.02187
1.02289
1.02385
1.02471
1.02554
1.02626
1.02694
1.02753
1.02805
1.0285
1.02887
1.02917
0.995434
0.98238
0.975769
0.972665
0.971857
0.972415
0.973627
0.975345
0.977165
0.979104
0.981036
0.982978
0.984918
0.98682
0.988614
0.990357
0.992044
0.993664
0.995207
0.996699
0.998158
0.999604
1.00102
1.00239
1.00374
1.00503
1.00635
1.0076
1.009
1.01019
1.01174
1.01285
1.01455
1.01558
1.01735
1.01837
1.01992
1.02115
1.02239
1.0236
1.02477
1.02584
1.02683
1.02772
1.02852
1.02925
1.02986
1.03041
1.03085
1.03124
1.03154
1.03391
1.00243
0.985124
0.976354
0.972687
0.971505
0.972038
0.973337
0.97517
0.977079
0.979107
0.981158
0.983233
0.985314
0.98732
0.989232
0.991049
0.992794
0.994482
0.996079
0.99762
0.99911
1.00058
1.00205
1.00348
1.00495
1.0063
1.00788
1.00901
1.01092
1.01184
1.01398
1.01481
1.01697
1.01786
1.01995
1.02094
1.02287
1.02404
1.02536
1.02658
1.02776
1.02886
1.02986
1.03076
1.03154
1.03228
1.03282
1.03336
1.03369
1.03401
1.09484
1.04324
1.00834
0.989164
0.977047
0.973588
0.970928
0.972078
0.973206
0.975394
0.977527
0.97968
0.981815
0.983953
0.986103
0.988177
0.990141
0.99196
0.993698
0.995363
0.996999
0.998601
1.00016
1.00173
1.00322
1.00482
1.00626
1.00797
1.00935
1.01109
1.01272
1.01413
1.01622
1.01733
1.01963
1.02064
1.02289
1.0238
1.02589
1.02711
1.02859
1.0298
1.03096
1.03205
1.03307
1.0339
1.03472
1.03532
1.03589
1.03624
1.03658
1.15767
1.08357
1.03853
1.00442
0.990514
0.975402
0.976871
0.969454
0.972783
0.972895
0.975497
0.977888
0.980225
0.982512
0.984742
0.986938
0.989062
0.991068
0.992956
0.994718
0.996439
0.998104
0.999776
1.00141
1.00305
1.00456
1.00644
1.00766
1.00988
1.01097
1.01351
1.01446
1.01703
1.01812
1.02066
1.02224
1.02368
1.02592
1.02712
1.02928
1.03031
1.03221
1.03334
1.03443
1.03551
1.03638
1.03724
1.03794
1.03849
1.03893
1.03919
1.21606
1.13068
1.06482
1.02755
0.996989
0.986662
0.973585
0.97706
0.970136
0.973628
0.973789
0.976214
0.978613
0.981036
0.983417
0.985753
0.987991
0.990127
0.992142
0.994033
0.995862
0.997599
0.99938
1.00105
1.00286
1.00442
1.00633
1.00782
1.00977
1.01167
1.01329
1.01569
1.01703
1.01971
1.02097
1.02368
1.02503
1.02748
1.02882
1.03078
1.03243
1.03393
1.03544
1.0368
1.03807
1.03907
1.03996
1.0407
1.04131
1.04169
1.04203
1.2392
1.15044
1.0877
1.04001
1.01555
0.987554
0.986071
0.97161
0.975047
0.970263
0.973576
0.975073
0.977369
0.979741
0.982138
0.984539
0.986854
0.989106
0.99124
0.993281
0.995222
0.997082
0.998893
1.00075
1.00243
1.00443
1.00589
1.00828
1.0095
1.01228
1.0134
1.01633
1.01758
1.02058
1.02194
1.02486
1.02623
1.02907
1.03084
1.03251
1.03453
1.03611
1.03766
1.03913
1.04043
1.04163
1.0426
1.04343
1.04412
1.04462
1.04492
1.21609
1.13655
1.07839
1.03662
1.00962
0.993155
0.979545
0.979216
0.970475
0.973988
0.971398
0.973811
0.976257
0.97868
0.981078
0.983467
0.985814
0.988114
0.990288
0.992428
0.994471
0.996436
0.998285
1.00029
1.00187
1.0043
1.00545
1.0083
1.00941
1.01243
1.01366
1.01681
1.01842
1.02058
1.02356
1.02507
1.02822
1.02981
1.03257
1.03469
1.03623
1.03846
1.04019
1.04169
1.04303
1.04417
1.0452
1.04601
1.04665
1.0471
1.04749
1.15028
1.09633
1.05256
1.02291
0.999471
0.986675
0.976626
0.972729
0.972808
0.970135
0.973439
0.972322
0.97482
0.977514
0.980081
0.982586
0.984966
0.987289
0.989481
0.991663
0.993689
0.995719
0.997531
0.999498
1.00109
1.00353
1.00498
1.00781
1.00918
1.01228
1.01374
1.01697
1.01863
1.02197
1.02367
1.02704
1.02872
1.03206
1.03378
1.03642
1.03878
1.04027
1.04252
1.04417
1.04566
1.04695
1.04806
1.04896
1.04961
1.05001
1.05022
1.01835
1.00635
0.994581
0.987884
0.980335
0.975792
0.973029
0.969854
0.970502
0.970267
0.972093
0.974352
0.975981
0.978325
0.98083
0.983284
0.985487
0.987622
0.989617
0.991576
0.993406
0.995295
0.997061
0.998946
1.00063
1.00257
1.00423
1.00685
1.00851
1.01173
1.01356
1.01712
1.01894
1.02231
1.02468
1.0276
1.03049
1.03313
1.03579
1.03874
1.04072
1.0434
1.04504
1.04749
1.04921
1.05058
1.0518
1.05283
1.05351
1.05376
1.05394
1.01833
1.01274
1.00443
0.998698
0.993275
0.989764
0.985404
0.985015
0.983074
0.985746
0.984945
0.988508
0.98885
0.991599
0.993425
0.994754
0.995529
0.995837
0.995916
0.996079
0.996388
0.997035
0.997968
0.99921
1.00057
1.00224
1.00393
1.00607
1.00817
1.01082
1.01325
1.01631
1.01911
1.02247
1.02502
1.0289
1.03185
1.03489
1.038
1.04115
1.04386
1.04662
1.04958
1.05191
1.05441
1.05638
1.05784
1.05883
1.05917
1.05876
1.05867
1.30112
1.2859
1.26355
1.24187
1.22006
1.20032
1.18066
1.15708
1.15089
1.12882
1.12842
1.10836
1.11219
1.10412
1.09083
1.085
1.06752
1.04999
1.03425
1.02181
1.01277
1.00685
1.00348
1.00209
1.00192
1.00263
1.0039
1.00575
1.00787
1.01053
1.01315
1.01617
1.01917
1.02305
1.02632
1.03004
1.03375
1.03726
1.04136
1.04585
1.05069
1.05676
1.06224
1.06658
1.07028
1.07357
1.07516
1.07372
1.07018
1.06705
1.06517
1.44722
1.45368
1.46064
1.4665
1.47622
1.4829
1.49123
1.49428
1.49991
1.4986
1.49955
1.48657
1.48447
1.46474
1.45018
1.4154
1.38428
1.31295
1.21433
1.13357
1.07869
1.04477
1.02495
1.01415
1.00845
1.00589
1.0054
1.0061
1.00791
1.01033
1.01305
1.01635
1.02015
1.02391
1.02769
1.03265
1.03743
1.04701
1.05989
1.07397
1.09155
1.1087
1.12189
1.13085
1.13693
1.13838
1.12905
1.1112
1.09959
1.09102
1.08015
1.15666
1.20105
1.25358
1.31373
1.37461
1.42762
1.47198
1.50664
1.54645
1.58054
1.61401
1.63656
1.66209
1.66823
1.66813
1.66041
1.63783
1.59746
1.50919
1.36251
1.22831
1.13228
1.07239
1.03807
1.01982
1.01093
1.00757
1.00707
1.00827
1.01074
1.01394
1.01718
1.02195
1.02776
1.04063
1.06214
1.09253
1.13535
1.1883
1.24686
1.30003
1.33689
1.35955
1.3698
1.36808
1.35204
1.31438
1.23881
1.1604
1.10867
1.08226
1.05852
1.06582
1.07673
1.09406
1.13129
1.19217
1.26711
1.34649
1.42899
1.50383
1.57149
1.6193
1.66101
1.69608
1.72092
1.72911
1.72398
1.68245
1.55994
1.36824
1.22123
1.12359
1.06531
1.03306
1.01632
1.00869
1.00624
1.00666
1.00873
1.01272
1.01986
1.03894
1.078
1.13292
1.21498
1.31039
1.399
1.47748
1.53619
1.57549
1.60884
1.62715
1.63369
1.62644
1.61579
1.5826
1.43596
1.24958
1.14762
1.09346
1.07798
1.20677
1.16808
1.11604
1.07685
1.06612
1.07203
1.09196
1.12585
1.18069
1.26365
1.38802
1.527
1.63923
1.70984
1.73464
1.73889
1.7189
1.64473
1.47354
1.28492
1.15212
1.07218
1.03029
1.01139
1.00462
1.00435
1.00791
1.02021
1.06324
1.14566
1.24896
1.36129
1.47182
1.56005
1.61453
1.64548
1.67002
1.69337
1.71405
1.73741
1.76548
1.77537
1.7861
1.79824
1.7636
1.61796
1.38436
1.17721
1.106
1.10365
1.18398
1.29505
1.24734
1.1552
1.07342
1.0538
1.0568
1.07045
1.10714
1.17076
1.27255
1.44086
1.59076
1.67397
1.71162
1.71784
1.68711
1.58938
1.40131
1.19384
1.07688
1.02437
1.00711
1.00599
1.01546
1.05247
1.15338
1.2926
1.42942
1.56149
1.65817
1.69391
1.70422
1.69711
1.68308
1.67696
1.68078
1.69365
1.71116
1.73675
1.76292
1.79689
1.85755
1.88829
1.85216
1.74722
1.49492
1.20662
1.14698
1.17038
1.42796
1.72272
1.32004
1.29319
1.22528
1.16894
1.15846
1.16579
1.21565
1.31372
1.40821
1.49903
1.58471
1.62008
1.63891
1.5985
1.49726
1.31825
1.15406
1.05677
1.02641
1.01912
1.04117
1.12263
1.32024
1.50643
1.64722
1.73963
1.76825
1.77453
1.75097
1.66793
1.61162
1.56815
1.53546
1.52731
1.53899
1.56224
1.59782
1.62691
1.67596
1.76848
1.86285
1.91506
1.89547
1.79519
1.50164
1.25628
1.21548
1.29462
1.62597
1.7864
1.80158
1.36283
1.39117
1.39168
1.39807
1.39966
1.40587
1.42247
1.44096
1.45291
1.45419
1.42863
1.34376
1.24349
1.15109
1.08841
1.06325
1.06131
1.09756
1.21529
1.45019
1.62539
1.75821
1.80265
1.77954
1.68831
1.55846
1.4233
1.30081
1.21851
1.17811
1.17288
1.18826
1.2246
1.26117
1.29343
1.34028
1.42096
1.5367
1.68823
1.82554
1.88744
1.90279
1.78143
1.46415
1.32637
1.31075
1.52496
1.73262
1.78624
1.74447
1.57286
1.13283
1.16786
1.19476
1.21305
1.21932
1.21226
1.18788
1.17214
1.14656
1.11281
1.09349
1.09393
1.09942
1.13233
1.19212
1.33877
1.52172
1.66421
1.74096
1.76332
1.7159
1.5635
1.37469
1.20397
1.10141
1.05667
1.04228
1.04346
1.09066
1.14527
1.16582
1.17793
1.19747
1.21924
1.25787
1.33106
1.4385
1.6025
1.77405
1.81735
1.84671
1.65511
1.46518
1.40639
1.42616
1.68553
1.79143
1.79797
1.68096
1.46634
1.27866
1.01868
1.01559
1.01714
1.02453
1.04175
1.06267
1.08706
1.11696
1.15557
1.20067
1.28427
1.39921
1.51166
1.61637
1.68765
1.71557
1.72326
1.66677
1.52521
1.33209
1.14691
1.05752
1.03618
1.03649
1.053
1.10415
1.19937
1.26945
1.28918
1.2916
1.266
1.2185
1.2169
1.23726
1.29448
1.41018
1.60519
1.73495
1.7699
1.7979
1.53112
1.49861
1.47883
1.58332
1.79858
1.8191
1.82518
1.68217
1.5087
1.37011
1.30281
1.28698
1.30652
1.33244
1.36376
1.40385
1.44947
1.50503
1.56739
1.6318
1.69484
1.70087
1.71789
1.71611
1.68833
1.62129
1.5023
1.35781
1.1915
1.06989
1.02657
1.02203
1.02762
1.05337
1.11414
1.20767
1.31223
1.37084
1.38919
1.39362
1.38073
1.34541
1.31819
1.3189
1.35364
1.47741
1.61092
1.6543
1.68834
1.62431
1.51488
1.5029
1.55133
1.78586
1.84102
1.90307
1.88523
1.79608
1.65457
1.55003
1.55538
1.57989
1.66853
1.68666
1.7102
1.73026
1.73795
1.74607
1.74684
1.7411
1.73236
1.7034
1.66878
1.60277
1.51299
1.40556
1.28099
1.16778
1.06203
1.02103
1.01123
1.01699
1.0267
1.05987
1.11639
1.19853
1.29988
1.36795
1.40106
1.41014
1.41917
1.42093
1.42355
1.43321
1.45676
1.50233
1.55653
1.58237
1.57611
1.55863
1.55528
1.57318
1.69941
1.90452
1.92094
1.96156
1.96751
1.91187
1.83785
1.82297
1.83691
1.88435
1.91605
1.78406
1.78343
1.77903
1.77229
1.76151
1.7461
1.72087
1.68609
1.63569
1.5723
1.49335
1.40514
1.30805
1.21111
1.11727
1.04588
1.00344
1.01207
1.01206
1.02399
1.04652
1.08609
1.14509
1.21363
1.29318
1.35264
1.39678
1.40442
1.4178
1.42726
1.44027
1.45535
1.47707
1.50221
1.51856
1.53221
1.54509
1.58418
1.67338
1.84254
1.95048
2.02146
2.03076
2.04907
2.03554
2.01552
2.01674
2.0354
2.05145
2.07501
2.10124
1.80778
1.79869
1.7859
1.76963
1.74742
1.71775
1.6791
1.6294
1.56817
1.49576
1.41321
1.32315
1.22929
1.13956
1.06207
1.01672
1.01118
1.01865
1.02174
1.03865
1.06389
1.10273
1.14707
1.19614
1.24242
1.29169
1.33168
1.36474
1.38561
1.4082
1.42796
1.45079
1.47447
1.49971
1.53173
1.56955
1.65586
1.80051
1.93023
2.0442
2.06106
2.10052
2.11193
2.12305
2.12483
2.12743
2.13423
2.14537
2.15434
2.16504
2.17634
1.81329
1.80193
1.78665
1.76629
1.74071
1.70829
1.66442
1.61358
1.54745
1.47346
1.38742
1.29753
1.20623
1.12346
1.06649
1.02335
1.03659
1.03495
1.0465
1.05989
1.08882
1.12642
1.16591
1.20791
1.24561
1.28649
1.31941
1.35145
1.38057
1.40868
1.43714
1.46849
1.50861
1.56298
1.65117
1.78895
1.90997
2.03333
2.0501
2.10874
2.12862
2.14851
2.16169
2.16999
2.17634
2.18219
2.18885
2.19417
2.19834
2.20204
2.20411
1.8174
1.80636
1.79299
1.77418
1.75332
1.72283
1.68744
1.63999
1.58421
1.51747
1.44316
1.36198
1.2819
1.20511
1.14117
1.10293
1.08591
1.08884
1.09848
1.10726
1.1327
1.16448
1.20471
1.23744
1.2723
1.30866
1.34562
1.38011
1.41863
1.46209
1.51924
1.59601
1.69571
1.79413
1.90878
1.98772
2.06435
2.08576
2.12299
2.14494
2.16287
2.1774
2.18773
2.19601
2.20305
2.20843
2.21307
2.21564
2.2175
2.21819
2.21767
1.82236
1.81589
1.804
1.79513
1.77545
1.75902
1.72946
1.69877
1.65419
1.60724
1.55037
1.48886
1.42861
1.36736
1.31812
1.27475
1.25557
1.23857
1.24916
1.2533
1.26981
1.29336
1.32597
1.3572
1.38514
1.43148
1.48606
1.53839
1.60488
1.68083
1.76105
1.83625
1.90509
1.97773
2.03137
2.06649
2.10489
2.12312
2.14732
2.16442
2.17853
2.19005
2.20044
2.20854
2.2162
2.22184
2.22596
2.2286
2.22994
2.22997
2.2285
1.82671
1.8204
1.81414
1.80485
1.79685
1.78315
1.76718
1.73936
1.73393
1.67584
1.66491
1.6074
1.58074
1.5325
1.506
1.48345
1.46686
1.47367
1.47598
1.48757
1.50767
1.53597
1.56857
1.5945
1.62977
1.67807
1.72422
1.76913
1.82247
1.87799
1.9249
1.97046
2.01238
2.04309
2.07624
2.09782
2.12236
2.14099
2.15864
2.16982
2.18788
2.1958
2.20943
2.21603
2.22526
2.22996
2.23533
2.23702
2.238
2.23702
2.23457
1.82977
1.82518
1.82087
1.81616
1.81029
1.80432
1.79606
1.78626
1.77038
1.75841
1.73492
1.71796
1.69263
1.67555
1.65584
1.64804
1.6493
1.6524
1.66397
1.67652
1.69967
1.7252
1.75165
1.77531
1.80833
1.84601
1.87579
1.90736
1.94215
1.97289
1.99847
2.02747
2.04837
2.07183
2.09318
2.11146
2.12973
2.14702
2.16121
2.17605
2.18958
2.20098
2.21247
2.22138
2.22904
2.23518
2.23985
2.24333
2.24419
2.24399
2.24128
1.83147
1.82819
1.82526
1.82237
1.81971
1.81682
1.81361
1.80974
1.80454
1.79855
1.7911
1.78262
1.77421
1.76638
1.76199
1.75986
1.76867
1.77556
1.78758
1.80185
1.82087
1.84325
1.86221
1.88405
1.90841
1.93243
1.95183
1.97204
1.99265
2.01047
2.02962
2.04756
2.06502
2.08308
2.09992
2.11611
2.13262
2.14726
2.16132
2.17542
2.18854
2.19926
2.21016
2.218
2.22638
2.23208
2.23772
2.24272
2.24353
2.24366
2.241
1.83253
1.83012
1.82799
1.82629
1.82512
1.82433
1.82397
1.82364
1.8233
1.82293
1.82232
1.82172
1.82112
1.82211
1.82409
1.83049
1.83658
1.84929
1.86005
1.87364
1.88869
1.90516
1.92233
1.93642
1.95487
1.96857
1.98447
1.99896
2.01317
2.02794
2.04256
2.05715
2.07202
2.08672
2.10096
2.11575
2.13042
2.1436
2.15713
2.17011
2.18178
2.19396
2.2041
2.21442
2.22309
2.23075
2.23751
2.24205
2.24475
2.24462
2.24195
1.83389
1.83153
1.83002
1.82896
1.82863
1.82908
1.83019
1.83204
1.83415
1.83691
1.84018
1.84393
1.84829
1.85296
1.85983
1.86673
1.87633
1.88633
1.8978
1.9099
1.92223
1.93572
1.94777
1.96229
1.97374
1.98846
1.99873
2.01262
2.02381
2.03715
2.04907
2.06192
2.07464
2.08761
2.10005
2.113
2.12479
2.13686
2.14911
2.161
2.17261
2.18414
2.19449
2.20457
2.21328
2.22117
2.22762
2.23284
2.23627
2.23714
2.23591
1.83512
1.83322
1.83216
1.83139
1.83144
1.83247
1.83417
1.837
1.84029
1.84425
1.84869
1.85419
1.86017
1.87013
1.87454
1.88695
1.89299
1.90635
1.91473
1.92848
1.93734
1.95134
1.96188
1.97523
1.98455
1.99849
2.00741
2.02021
2.03073
2.04257
2.05345
2.06442
2.07516
2.08572
2.09555
2.10612
2.1148
2.12495
2.13269
2.14209
2.15081
2.15952
2.16948
2.17827
2.18747
2.19547
2.20249
2.20821
2.21263
2.21369
2.21181
1.83661
1.83505
1.83417
1.83358
1.83403
1.83529
1.83748
1.84055
1.8444
1.84925
1.85476
1.86117
1.86809
1.87607
1.88498
1.89386
1.90477
1.91419
1.92565
1.93635
1.94808
1.95999
1.97033
1.98102
1.99544
2.00354
2.01578
2.02611
2.03658
2.04659
2.05607
2.06433
2.07268
2.07999
2.0876
2.09407
2.09937
2.10616
2.11375
2.12362
2.13372
2.14635
2.15885
2.17235
2.18516
2.19696
2.20623
2.2138
2.22019
2.22439
2.22487
1.00424
1.00532
1.00645
1.00771
1.00907
1.01058
1.01205
1.01371
1.0154
1.01717
1.01897
1.02085
1.02275
1.02472
1.0267
1.02871
1.03076
1.03279
1.03487
1.03693
1.039
1.04106
1.04313
1.04516
1.04718
1.04915
1.00523
1.00623
1.00734
1.00854
1.00984
1.01121
1.01272
1.01427
1.01594
1.01763
1.0194
1.02124
1.02308
1.02502
1.027
1.02895
1.031
1.03302
1.0351
1.03716
1.03923
1.04132
1.04339
1.04545
1.04748
1.04949
1.00629
1.00726
1.00829
1.00945
1.01073
1.01195
1.01347
1.01487
1.01651
1.01815
1.01985
1.02163
1.02346
1.02532
1.02726
1.02921
1.03121
1.03324
1.03528
1.03737
1.03945
1.04153
1.04361
1.04569
1.04775
1.04975
1.00742
1.00834
1.00928
1.01045
1.01157
1.01284
1.01415
1.01558
1.01708
1.01868
1.02032
1.02203
1.02381
1.02563
1.02751
1.02943
1.03141
1.03341
1.03545
1.03752
1.0396
1.0417
1.0438
1.04588
1.04795
1.04998
1.00863
1.00949
1.01039
1.01144
1.01251
1.0137
1.01492
1.01631
1.01772
1.01922
1.0208
1.02245
1.02414
1.02593
1.02774
1.02965
1.03157
1.03355
1.03559
1.03763
1.03972
1.04183
1.04392
1.04603
1.04812
1.05017
1.00992
1.01069
1.01156
1.01251
1.0135
1.01462
1.01579
1.01705
1.0184
1.01981
1.02128
1.02286
1.02449
1.0262
1.02797
1.02982
1.03171
1.03367
1.03566
1.03771
1.03978
1.0419
1.044
1.04613
1.04822
1.05028
1.01126
1.01198
1.01279
1.01364
1.01459
1.0156
1.01667
1.01784
1.01907
1.0204
1.02181
1.02328
1.02485
1.02649
1.02819
1.02997
1.03183
1.03373
1.03571
1.03773
1.0398
1.04189
1.04402
1.04614
1.04827
1.05036
1.0127
1.01335
1.01406
1.01487
1.0157
1.01663
1.0176
1.01868
1.01983
1.02105
1.02234
1.02374
1.02519
1.02676
1.02839
1.03011
1.03189
1.03377
1.0357
1.0377
1.03975
1.04185
1.04396
1.04611
1.04823
1.05036
1.01421
1.0148
1.01545
1.01616
1.01691
1.01775
1.01864
1.01959
1.02062
1.02175
1.02293
1.0242
1.02558
1.02704
1.02858
1.03022
1.03196
1.03377
1.03567
1.03762
1.03967
1.04173
1.04385
1.046
1.04813
1.05028
1.01578
1.01632
1.01692
1.01752
1.01818
1.01892
1.01971
1.02054
1.02147
1.02247
1.02355
1.02471
1.02598
1.02729
1.02879
1.03031
1.03199
1.03371
1.03557
1.0375
1.03948
1.04157
1.04367
1.04581
1.04798
1.05014
1.01744
1.01793
1.01843
1.01898
1.01955
1.02016
1.02087
1.02157
1.02238
1.02324
1.0242
1.02527
1.02637
1.02766
1.02896
1.03045
1.03198
1.03367
1.03543
1.03731
1.03928
1.0413
1.04341
1.04555
1.04774
1.0499
1.01919
1.01962
1.02004
1.02052
1.02097
1.02151
1.02207
1.02268
1.02335
1.02411
1.02494
1.02587
1.02686
1.02794
1.02922
1.03045
1.03204
1.0335
1.03529
1.03704
1.03899
1.04099
1.04308
1.04525
1.0474
1.04964
1.02105
1.0214
1.02179
1.02213
1.02255
1.02292
1.02338
1.0239
1.02441
1.02502
1.02569
1.0265
1.02732
1.02835
1.02934
1.03067
1.03189
1.03342
1.03504
1.03675
1.0386
1.04062
1.04268
1.04484
1.04704
1.04926
1.02298
1.02329
1.02359
1.02391
1.02418
1.02452
1.02483
1.02519
1.02562
1.02603
1.02658
1.02715
1.0279
1.02867
1.02963
1.03064
1.03189
1.03322
1.03475
1.0364
1.03819
1.04018
1.04215
1.04436
1.04657
1.0488
1.02503
1.02528
1.02552
1.02572
1.02594
1.02611
1.02635
1.02657
1.02684
1.02713
1.02751
1.02795
1.02848
1.02911
1.02979
1.03088
1.03164
1.03325
1.03429
1.036
1.03771
1.03959
1.04155
1.04383
1.04596
1.04828
1.02715
1.02736
1.02756
1.02768
1.02782
1.02788
1.02799
1.02806
1.02817
1.02829
1.02847
1.0287
1.02902
1.02947
1.03008
1.03077
1.03169
1.03273
1.03397
1.0354
1.03719
1.03863
1.04127
1.04285
1.04528
1.04764
1.02939
1.02955
1.02968
1.02973
1.02978
1.02974
1.02971
1.02963
1.0296
1.02954
1.02949
1.02956
1.02973
1.02995
1.03032
1.03076
1.03143
1.03236
1.03323
1.03505
1.0359
1.03853
1.03967
1.04263
1.04445
1.04696
1.03174
1.03186
1.03193
1.03189
1.03183
1.03166
1.03152
1.03128
1.03112
1.03084
1.03062
1.03053
1.03042
1.03038
1.03043
1.03059
1.03112
1.03165
1.03304
1.03381
1.03586
1.03715
1.03995
1.04166
1.04419
1.04666
1.03415
1.03424
1.03425
1.03422
1.034
1.03385
1.03348
1.03319
1.03269
1.03235
1.03182
1.03139
1.03094
1.03065
1.03052
1.03051
1.0308
1.03162
1.03275
1.03432
1.03632
1.03881
1.04152
1.04408
1.04748
1.04977
1.03675
1.03682
1.03677
1.03666
1.03633
1.03606
1.0355
1.03503
1.03429
1.03375
1.03289
1.03218
1.03167
1.03124
1.03117
1.0309
1.03166
1.03396
1.03661
1.0406
1.04769
1.05285
1.05944
1.06564
1.069
1.07271
1.0394
1.03945
1.03936
1.03914
1.03873
1.03835
1.0376
1.03698
1.03599
1.0352
1.03404
1.03313
1.03275
1.03245
1.03361
1.03492
1.0411
1.05214
1.06484
1.08638
1.1127
1.12983
1.15283
1.17464
1.17993
1.18308
1.04215
1.04218
1.04205
1.0417
1.04125
1.04068
1.03983
1.03902
1.03772
1.03646
1.03528
1.03435
1.03765
1.03657
1.054
1.05296
1.10093
1.15738
1.23303
1.31141
1.39021
1.45115
1.50351
1.54291
1.55348
1.55402
1.04504
1.045
1.04477
1.04436
1.04383
1.04299
1.04215
1.04079
1.0393
1.03778
1.03773
1.03876
1.05701
1.06949
1.13424
1.25646
1.39623
1.50014
1.56975
1.61729
1.65101
1.67934
1.71205
1.74662
1.76796
1.77584
1.04761
1.04757
1.04726
1.04679
1.04611
1.04519
1.04373
1.04221
1.04083
1.04287
1.04599
1.08342
1.13041
1.35336
1.49556
1.56864
1.6094
1.63029
1.64038
1.64508
1.65331
1.67311
1.69645
1.71805
1.73886
1.7638
1.05038
1.05033
1.04998
1.04935
1.04829
1.04676
1.04568
1.04445
1.05049
1.05945
1.13994
1.32477
1.52042
1.60627
1.62397
1.60664
1.54862
1.45406
1.39558
1.32979
1.30267
1.30889
1.32452
1.37223
1.47587
1.62244
1.05397
1.0537
1.0532
1.05201
1.05058
1.04955
1.04939
1.05841
1.09185
1.24295
1.50509
1.63514
1.63791
1.57849
1.45114
1.27315
1.21047
1.19301
1.18459
1.17445
1.16729
1.17027
1.18688
1.22469
1.28729
1.44574
1.05819
1.05756
1.05604
1.05457
1.05372
1.0553
1.07264
1.15281
1.43445
1.65187
1.69004
1.60542
1.40693
1.19061
1.15471
1.15897
1.1862
1.24161
1.26386
1.25342
1.23046
1.20015
1.20829
1.24644
1.34266
1.56416
1.06368
1.06141
1.05892
1.05814
1.06233
1.09962
1.27536
1.63472
1.76421
1.69965
1.47962
1.1703
1.11176
1.11525
1.17409
1.33911
1.44795
1.48343
1.46124
1.33814
1.26603
1.25821
1.31781
1.47361
1.62497
1.70765
1.07067
1.06416
1.06271
1.07417
1.16465
1.52862
1.82845
1.81726
1.57581
1.18912
1.09257
1.08396
1.11431
1.24658
1.4127
1.50671
1.52001
1.51446
1.49551
1.47634
1.47165
1.51183
1.57635
1.60703
1.61986
1.5853
1.06961
1.06843
1.10285
1.37049
1.80321
1.89664
1.708
1.27402
1.08524
1.068
1.08354
1.12875
1.20699
1.33904
1.44481
1.48515
1.49219
1.49462
1.49241
1.49104
1.49409
1.49816
1.48447
1.40165
1.29767
1.23625
1.09367
1.23575
1.70664
1.9094
1.81418
1.39406
1.10099
1.07341
1.07232
1.08652
1.10919
1.13802
1.17479
1.21987
1.26569
1.29657
1.31461
1.31593
1.31722
1.30499
1.27654
1.25617
1.2406
1.23874
1.25945
1.32351
1.54886
1.81393
1.84484
1.64603
1.2149
1.09176
1.07589
1.07379
1.08044
1.09104
1.10131
1.11425
1.13036
1.14548
1.16078
1.176
1.19069
1.20626
1.22276
1.23988
1.26232
1.2961
1.35976
1.48747
1.66573
1.86185
1.8189
1.76054
1.52192
1.17178
1.0967
1.08211
1.0794
1.0844
1.09748
1.11295
1.13125
1.1547
1.18125
1.20829
1.2387
1.27369
1.31518
1.37062
1.44362
1.53438
1.63518
1.75875
1.87846
1.98777
2.00908
2.06345
1.67712
1.3849
1.15136
1.10744
1.09401
1.09256
1.1062
1.13829
1.1859
1.25656
1.35387
1.45253
1.52364
1.60452
1.67563
1.7336
1.80899
1.85727
1.91802
1.95742
2.0073
2.0403
2.06021
2.07288
2.08221
2.08635
1.27279
1.15426
1.13168
1.12013
1.12951
1.18147
1.27962
1.45111
1.59236
1.71645
1.80875
1.88679
1.90172
1.96298
2.01405
2.00718
2.05013
2.04612
2.06988
2.06904
2.08028
2.08159
2.08559
2.08714
2.08901
2.09021
1.19279
1.18709
1.18125
1.24625
1.39406
1.58934
1.75158
1.85023
1.9532
2.00306
2.03985
2.07259
2.065
2.09188
2.08414
2.09377
2.08794
2.09179
2.08854
2.08966
2.08892
2.08932
2.08969
2.09019
2.09044
2.09058
1.3079
1.35532
1.52565
1.67637
1.84168
1.93678
2.02058
2.06342
2.09424
2.10661
2.11387
2.11444
2.11377
2.11137
2.10497
2.10269
2.10025
2.09564
2.09452
2.09257
2.09201
2.09148
2.09133
2.09121
2.09114
2.09076
1.68105
1.78654
1.91478
1.98959
2.06228
2.09913
2.12356
2.13294
2.13716
2.135
2.13263
2.1275
2.12319
2.11512
2.11098
2.10673
2.10115
2.09925
2.09579
2.09457
2.09305
2.0924
2.09182
2.09135
2.09079
2.09015
1.99291
2.04285
2.09672
2.12384
2.14434
2.15203
2.15488
2.15228
2.14907
2.14286
2.13777
2.13047
2.12481
2.11755
2.11333
2.10595
2.10343
2.09843
2.09685
2.09429
2.09342
2.09236
2.09176
2.0911
2.09047
2.08942
2.13058
2.15003
2.1647
2.16947
2.17165
2.16902
2.16566
2.15944
2.15402
2.14657
2.14019
2.13216
2.1255
2.11799
2.1123
2.10551
2.10142
2.09852
2.09445
2.09352
2.09173
2.09138
2.09067
2.09035
2.08964
2.08892
2.1832
2.18795
2.18816
2.18532
2.18189
2.17657
2.17148
2.16411