/*--------------------------------*- C++ -*----------------------------------*\
  =========                 |
  \\      /  F ield         | OpenFOAM: The Open Source CFD Toolbox
   \\    /   O peration     | Website:  https://openfoam.org
    \\  /    A nd           | Version:  10
     \\/     M anipulation  |
\*---------------------------------------------------------------------------*/
FoamFile
{
    format      ascii;
    class       volScalarField;
    location    "0.748834";
    object      T;
}
// * * * * * * * * * * * * * * * * * * * * * * * * * * * * * * * * * * * * * //

dimensions      [0 0 0 1 0 0 0];

internalField   nonuniform List<scalar> 
15708
(
0.00869081
0.00869579
0.00869611
0.00870175
0.00870546
0.00870869
0.00871184
0.00871415
0.00871673
0.00871842
0.00872009
0.00872161
0.00872278
0.00872405
0.00872507
0.00872575
0.00872629
0.00872666
0.00872669
0.00872673
0.00872663
0.00872638
0.00872591
0.00872542
0.00872477
0.00872404
0.00872317
0.00872226
0.00872141
0.00872025
0.00871927
0.00871794
0.00871688
0.00871572
0.00871455
0.00871355
0.0087126
0.0087119
0.00871128
0.00871101
0.00871083
0.00871092
0.00871141
0.00871194
0.00871303
0.00871421
0.0087159
0.00871777
0.00872024
0.00872268
0.00872589
0.00869007
0.00868958
0.00869873
0.00869956
0.00870353
0.00870765
0.00871027
0.00871308
0.0087152
0.00871731
0.00871906
0.00872061
0.00872208
0.00872336
0.00872439
0.00872528
0.00872591
0.00872632
0.00872658
0.00872674
0.00872672
0.00872661
0.00872642
0.00872607
0.00872569
0.00872514
0.00872449
0.00872383
0.00872304
0.00872206
0.00872142
0.00872021
0.00871943
0.00871842
0.00871764
0.00871667
0.00871599
0.00871523
0.00871482
0.00871453
0.0087145
0.00871462
0.00871512
0.00871567
0.00871678
0.00871776
0.00871957
0.00872132
0.0087237
0.00872623
0.00872902
0.00868429
0.00869304
0.00869204
0.00870122
0.00869966
0.00870672
0.00870745
0.00871081
0.00871329
0.00871526
0.00871711
0.00871878
0.00872029
0.0087217
0.00872296
0.00872403
0.00872488
0.00872556
0.00872602
0.00872641
0.00872661
0.00872672
0.0087267
0.00872659
0.00872638
0.00872614
0.00872567
0.00872528
0.00872465
0.00872405
0.00872327
0.00872255
0.00872173
0.00872111
0.00872039
0.00871971
0.00871912
0.00871861
0.00871831
0.00871808
0.0087182
0.00871835
0.00871885
0.00871951
0.00872058
0.00872168
0.00872327
0.00872497
0.00872726
0.00872965
0.00873246
0.00868848
0.00868579
0.00869547
0.00869371
0.008701
0.00870202
0.00870635
0.00870906
0.00871148
0.00871354
0.00871533
0.00871704
0.00871861
0.00872006
0.00872144
0.00872265
0.00872367
0.00872454
0.00872521
0.00872579
0.00872616
0.00872653
0.00872674
0.00872684
0.00872686
0.00872682
0.0087267
0.00872649
0.00872621
0.00872581
0.00872533
0.00872495
0.00872429
0.0087239
0.00872344
0.00872293
0.00872246
0.0087222
0.0087219
0.00872197
0.00872215
0.0087224
0.00872298
0.00872362
0.00872474
0.00872584
0.00872739
0.00872904
0.00873118
0.00873344
0.00873616
0.00868176
0.00868695
0.00868947
0.00869408
0.0086967
0.00870041
0.00870347
0.00870619
0.00870866
0.00871079
0.00871267
0.0087146
0.00871632
0.00871798
0.00871962
0.00872104
0.00872223
0.00872326
0.00872423
0.00872498
0.00872567
0.00872627
0.00872675
0.00872709
0.00872735
0.00872757
0.00872767
0.00872769
0.00872769
0.00872754
0.00872736
0.00872717
0.00872699
0.00872669
0.00872665
0.00872632
0.00872619
0.00872599
0.00872604
0.00872616
0.00872639
0.00872687
0.00872752
0.00872813
0.00872923
0.00873032
0.00873189
0.00873341
0.00873557
0.00873766
0.00874022
0.00868002
0.00868289
0.00868684
0.0086898
0.00869328
0.00869662
0.00869958
0.00870229
0.00870485
0.008707
0.00870896
0.00871103
0.00871316
0.00871526
0.00871725
0.00871903
0.00872056
0.00872184
0.00872305
0.00872406
0.00872502
0.00872589
0.00872673
0.00872744
0.008728
0.00872851
0.00872885
0.00872913
0.00872935
0.00872949
0.00872953
0.00872957
0.00872965
0.00872972
0.00872982
0.00872985
0.0087299
0.00873002
0.00873019
0.00873055
0.00873099
0.00873152
0.00873229
0.00873308
0.0087342
0.00873529
0.00873676
0.00873831
0.00874008
0.00874232
0.00874446
0.00867666
0.00867575
0.00868404
0.00868201
0.00868994
0.00869044
0.00869534
0.00869889
0.00870167
0.00870409
0.00870632
0.00870851
0.00871068
0.00871291
0.00871516
0.00871724
0.00871887
0.00872043
0.0087221
0.0087237
0.00872499
0.00872597
0.00872664
0.00872721
0.0087277
0.00872826
0.0087289
0.00872966
0.00873041
0.0087312
0.00873174
0.00873225
0.00873269
0.00873314
0.00873339
0.00873373
0.00873404
0.00873433
0.00873477
0.00873524
0.00873583
0.00873652
0.00873737
0.00873819
0.0087393
0.0087405
0.00874192
0.00874355
0.00874516
0.00874725
0.00874931
0.00866969
0.00867355
0.00867684
0.00868129
0.0086847
0.00868834
0.00869186
0.00869491
0.00869777
0.00870064
0.00870323
0.00870568
0.00870806
0.00871027
0.00871263
0.00871501
0.00871711
0.00871912
0.00872105
0.00872289
0.00872433
0.00872535
0.00872598
0.00872678
0.00872773
0.00872882
0.00872972
0.00873071
0.0087317
0.00873272
0.00873385
0.00873482
0.00873575
0.00873661
0.0087372
0.00873777
0.00873833
0.00873883
0.00873945
0.00874019
0.00874096
0.00874178
0.00874271
0.00874375
0.00874486
0.00874614
0.00874747
0.00874896
0.00875075
0.00875243
0.00875463
0.00866698
0.00866609
0.00867552
0.00867431
0.00868268
0.00868381
0.00868786
0.00869011
0.00869292
0.00869566
0.008699
0.00870258
0.00870598
0.00870885
0.00871125
0.00871315
0.00871489
0.0087164
0.00871811
0.0087199
0.00872165
0.00872352
0.00872514
0.00872678
0.00872822
0.00872967
0.00873104
0.00873238
0.00873368
0.00873491
0.00873619
0.00873744
0.00873862
0.00873974
0.00874084
0.00874167
0.00874255
0.00874349
0.00874438
0.00874537
0.00874635
0.00874735
0.00874843
0.00874953
0.00875072
0.00875199
0.0087534
0.00875487
0.00875651
0.0087582
0.00876017
0.00865648
0.00866561
0.00866412
0.00867451
0.00867312
0.00868151
0.00868098
0.00868783
0.00868738
0.00869331
0.00869667
0.00869985
0.00870251
0.00870473
0.00870652
0.0087086
0.00871082
0.00871356
0.0087162
0.00871861
0.00872073
0.00872275
0.00872478
0.00872687
0.00872883
0.00873074
0.0087325
0.00873418
0.00873588
0.00873744
0.00873903
0.00874054
0.00874197
0.00874332
0.00874451
0.0087459
0.00874696
0.00874821
0.00874934
0.00875075
0.00875182
0.00875313
0.00875427
0.00875557
0.0087568
0.00875817
0.00875956
0.00876102
0.00876257
0.00876425
0.00876601
0.00865604
0.00865335
0.00866358
0.00866152
0.00867181
0.00867027
0.00867941
0.00868137
0.00868669
0.00868981
0.00869263
0.00869549
0.00869845
0.00870134
0.00870423
0.00870697
0.00870975
0.0087122
0.00871437
0.00871673
0.00871938
0.00872204
0.00872441
0.00872658
0.00872861
0.00873066
0.00873275
0.0087348
0.00873691
0.00873902
0.00874099
0.00874305
0.00874496
0.00874683
0.00874853
0.00875023
0.00875185
0.00875345
0.00875478
0.00875626
0.00875766
0.00875903
0.00876043
0.00876187
0.00876321
0.00876469
0.00876602
0.00876755
0.008769
0.00877052
0.0087722
0.00864856
0.0086493
0.00865552
0.00865633
0.00866343
0.00866577
0.0086721
0.00867548
0.00868118
0.00868484
0.00868888
0.00869241
0.00869575
0.00869879
0.00870184
0.00870468
0.0087073
0.00870996
0.00871243
0.00871497
0.00871758
0.00872041
0.00872316
0.00872583
0.0087285
0.0087311
0.00873364
0.00873616
0.00873865
0.00874114
0.00874358
0.00874596
0.00874828
0.00875051
0.00875259
0.00875461
0.00875643
0.00875841
0.00876022
0.0087621
0.0087637
0.00876543
0.00876682
0.00876829
0.00876972
0.0087712
0.00877265
0.00877417
0.00877566
0.00877718
0.00877867
0.00863357
0.00864436
0.00864409
0.00865521
0.00865352
0.00866544
0.00866358
0.00867422
0.00867265
0.00868077
0.00868365
0.00868758
0.00869113
0.00869446
0.00869714
0.00870012
0.0087031
0.00870646
0.00870967
0.00871298
0.00871614
0.00871919
0.00872223
0.0087253
0.00872837
0.00873143
0.00873442
0.00873745
0.00874045
0.00874343
0.0087463
0.00874899
0.00875164
0.00875425
0.00875679
0.00875913
0.00876144
0.00876363
0.0087658
0.00876779
0.00876968
0.00877146
0.00877331
0.00877498
0.00877667
0.00877825
0.00877972
0.00878124
0.00878264
0.00878404
0.00878543
0.00862529
0.0086345
0.0086405
0.00864467
0.0086526
0.00865496
0.00866044
0.00866699
0.00867028
0.00867434
0.00867817
0.0086818
0.00868567
0.0086893
0.00869292
0.00869666
0.00870032
0.00870406
0.00870755
0.00871097
0.00871435
0.00871775
0.00872115
0.00872474
0.0087283
0.00873172
0.0087352
0.00873852
0.00874202
0.00874538
0.00874872
0.00875193
0.00875502
0.00875792
0.00876074
0.0087636
0.00876644
0.00876895
0.00877127
0.00877349
0.00877583
0.00877805
0.00878012
0.00878199
0.00878378
0.00878536
0.00878694
0.00878836
0.00878985
0.00879121
0.00879249
0.00861174
0.0086107
0.00863527
0.00863001
0.00864805
0.00864489
0.00865776
0.00865544
0.00866645
0.00867033
0.00867392
0.00867787
0.00868188
0.00868613
0.00869038
0.00869442
0.0086982
0.00870192
0.0087058
0.00870958
0.00871321
0.0087167
0.00872023
0.00872372
0.00872755
0.00873147
0.00873547
0.00873958
0.00874349
0.0087475
0.00875124
0.00875494
0.00875852
0.00876182
0.00876513
0.00876834
0.00877134
0.00877436
0.00877704
0.00877962
0.008782
0.00878452
0.00878685
0.00878907
0.0087911
0.00879284
0.00879453
0.00879587
0.00879731
0.00879849
0.00879972
0.00856768
0.00859517
0.00861137
0.00862863
0.00862836
0.00864622
0.00864317
0.00865867
0.00865662
0.0086653
0.00867045
0.00867524
0.00867948
0.0086836
0.00868714
0.00869069
0.00869468
0.00869857
0.00870234
0.0087062
0.00871026
0.00871454
0.00871896
0.00872328
0.00872759
0.0087319
0.00873631
0.00874068
0.00874498
0.00874935
0.00875344
0.00875769
0.00876162
0.00876556
0.0087692
0.00877294
0.00877639
0.00877972
0.00878282
0.00878581
0.00878855
0.0087912
0.00879376
0.00879611
0.00879833
0.00880028
0.00880195
0.0088036
0.00880491
0.00880625
0.00880722
0.0084806
0.00854116
0.00857809
0.00860607
0.00862004
0.00863215
0.00863986
0.00864721
0.00865314
0.00865909
0.00866463
0.0086699
0.00867491
0.00867948
0.00868392
0.00868799
0.00869192
0.0086958
0.00869973
0.00870372
0.00870788
0.00871226
0.00871692
0.00872178
0.00872685
0.00873166
0.00873685
0.00874149
0.00874675
0.00875103
0.00875628
0.00876029
0.00876532
0.00876918
0.0087739
0.00877746
0.00878162
0.00878537
0.00878869
0.00879199
0.00879518
0.00879809
0.008801
0.00880341
0.00880589
0.00880791
0.00880974
0.00881139
0.00881274
0.00881396
0.008815
0.00830609
0.00843799
0.00851767
0.00856824
0.00859941
0.00861886
0.00863254
0.00864156
0.0086493
0.00865554
0.00866128
0.00866635
0.00867082
0.00867499
0.00867951
0.00868389
0.00868822
0.00869263
0.00869727
0.00870197
0.00870663
0.00871117
0.00871576
0.00872069
0.00872569
0.00873128
0.00873664
0.0087426
0.0087474
0.00875402
0.00875761
0.00876492
0.00876714
0.008775
0.00877628
0.00878369
0.00878615
0.00879081
0.00879484
0.00879838
0.00880156
0.00880469
0.00880767
0.00881053
0.00881314
0.00881532
0.00881752
0.00881927
0.00882096
0.00882205
0.00882292
0.00796358
0.00823617
0.00840427
0.00850422
0.00856175
0.00859805
0.0086194
0.0086339
0.00864323
0.00865142
0.00865796
0.00866364
0.00866844
0.0086725
0.00867655
0.00868077
0.00868524
0.00868978
0.00869435
0.0086993
0.00870442
0.00870974
0.00871509
0.00872037
0.00872597
0.00873129
0.00873772
0.00874229
0.00875085
0.00875285
0.00876342
0.00876359
0.00877501
0.00877479
0.0087854
0.00878524
0.00879421
0.00879445
0.00880071
0.00880482
0.00880893
0.00881242
0.00881558
0.00881849
0.00882115
0.00882367
0.00882539
0.00882765
0.00882876
0.00883052
0.00883121
0.00748861
0.0078816
0.00817853
0.00836268
0.00849306
0.00855055
0.00860155
0.0086192
0.00863664
0.00864408
0.00865136
0.00865777
0.00866359
0.00866863
0.00867283
0.00867699
0.00868145
0.00868658
0.00869189
0.0086974
0.00870282
0.00870829
0.00871404
0.00871955
0.00872586
0.00873132
0.00873832
0.00874319
0.00875117
0.00875615
0.00876227
0.00877033
0.00877261
0.00878324
0.00878349
0.00879435
0.00879429
0.00880495
0.00880489
0.00881149
0.00881482
0.00881947
0.0088234
0.00882668
0.00882931
0.00883223
0.00883392
0.00883618
0.00883738
0.00883918
0.00883976
0.00705211
0.00755701
0.00790907
0.0082042
0.00834711
0.00850533
0.0085214
0.00861668
0.00861596
0.00864386
0.00864871
0.00865467
0.00866025
0.00866548
0.00867042
0.00867487
0.00867922
0.00868392
0.00868909
0.00869486
0.00870062
0.00870662
0.00871243
0.00871858
0.0087247
0.00873219
0.00873671
0.00874718
0.00874936
0.0087615
0.00876142
0.00877514
0.008775
0.00878766
0.0087876
0.00879547
0.00880416
0.00880522
0.00881461
0.00881476
0.00882354
0.00882374
0.00882931
0.00883379
0.00883703
0.0088405
0.0088427
0.00884466
0.00884654
0.00884778
0.00884915
0.00668481
0.00721194
0.00768294
0.00798871
0.00826279
0.00837917
0.00852213
0.00852244
0.00861531
0.00861472
0.00864334
0.00865059
0.00865723
0.00866278
0.00866783
0.00867243
0.00867707
0.00868184
0.00868701
0.00869273
0.00869857
0.00870494
0.0087108
0.00871763
0.00872347
0.00873166
0.00873713
0.00874666
0.0087525
0.00875923
0.0087687
0.00877169
0.00878398
0.00878475
0.00879758
0.00879779
0.00880899
0.00881027
0.00882026
0.00882393
0.00882919
0.00883441
0.00883809
0.00884165
0.00884445
0.00884787
0.0088506
0.008853
0.00885479
0.00885696
0.00885778
0.0065326
0.00705893
0.00749122
0.00786273
0.00808201
0.0083427
0.00838683
0.00854411
0.00854694
0.00862224
0.00862441
0.00864188
0.00865111
0.00865871
0.00866511
0.00867052
0.00867576
0.00868071
0.00868594
0.00869135
0.00869714
0.00870334
0.00870983
0.00871601
0.00872387
0.00872935
0.00873995
0.00874288
0.00875651
0.00875715
0.00877258
0.00877267
0.00878768
0.00878757
0.00880149
0.00880185
0.00881495
0.00881491
0.00882321
0.00883136
0.0088352
0.00884146
0.0088465
0.00885059
0.00885433
0.00885716
0.00886015
0.00886254
0.0088643
0.00886587
0.00886735
0.00662956
0.00711639
0.00752633
0.0078587
0.00809982
0.00826689
0.00841534
0.00845233
0.00856304
0.00856624
0.00862317
0.00863431
0.00864407
0.00865287
0.00866079
0.00866772
0.00867399
0.00867971
0.00868565
0.00869113
0.00869685
0.0087029
0.00870982
0.0087155
0.00872509
0.00872785
0.00874213
0.00874236
0.00875825
0.00875835
0.00877427
0.00877442
0.00878804
0.00879722
0.00879932
0.00881381
0.00881386
0.0088267
0.0088287
0.00883502
0.00884503
0.00884755
0.00885276
0.00885815
0.008863
0.00886763
0.00887108
0.00887446
0.00887726
0.00887968
0.00888079
0.0069831
0.00734973
0.00768187
0.00793427
0.00815254
0.00829249
0.00841316
0.00848283
0.00851862
0.00857806
0.00858439
0.00862904
0.00864015
0.00864828
0.00865623
0.00866357
0.00867091
0.00867765
0.00868448
0.00869045
0.00869702
0.00870311
0.00871096
0.00871758
0.00872782
0.00873127
0.00874403
0.00874553
0.00876049
0.00876118
0.00877688
0.00877789
0.00879314
0.00879409
0.00880946
0.00881022
0.00882523
0.00882541
0.0088386
0.00884273
0.00884785
0.00885875
0.00886142
0.00886727
0.00887233
0.00887698
0.00888081
0.00888426
0.00888764
0.00889098
0.00889389
0.00786104
0.00797788
0.00809953
0.00818504
0.00828185
0.00835605
0.00841704
0.00848255
0.00851525
0.00855549
0.00857674
0.00859326
0.00861405
0.00862699
0.008637
0.00864626
0.0086566
0.00866626
0.00867582
0.00868444
0.00869321
0.00870089
0.00870949
0.00871727
0.00872734
0.00873575
0.0087475
0.0087518
0.00876548
0.00876653
0.00878066
0.00878055
0.00879627
0.00879918
0.00881108
0.0088181
0.00882521
0.00883393
0.00884156
0.00884552
0.00885618
0.00885925
0.00886906
0.00886997
0.0088748
0.00888007
0.00888418
0.00888733
0.00889096
0.00889595
0.00889933
0.00783559
0.00789919
0.0079899
0.00806534
0.00814297
0.00820818
0.00828281
0.00832573
0.00838164
0.00839884
0.00844443
0.00845215
0.00848559
0.00849689
0.00851425
0.00853502
0.00855946
0.00858654
0.00861392
0.00863887
0.00866121
0.00867985
0.00869584
0.00870944
0.00872267
0.00873404
0.00874622
0.00875559
0.00876654
0.00877387
0.00878423
0.00879022
0.00879955
0.00880477
0.00881745
0.0088189
0.00882818
0.00883617
0.00884274
0.00884763
0.00885464
0.00885944
0.00886029
0.0088642
0.00886419
0.00886596
0.00886919
0.00887353
0.00888048
0.00889108
0.00889674
0.00611984
0.00620576
0.00633349
0.00646655
0.00660886
0.00674753
0.00689239
0.00706689
0.00714009
0.00731539
0.00735365
0.00752173
0.00752998
0.00761756
0.00774099
0.00781419
0.00797303
0.00813568
0.00828766
0.00841486
0.0085149
0.00858897
0.00864177
0.00867816
0.00870486
0.00872496
0.00874143
0.00875406
0.00876587
0.00877426
0.00878449
0.00879266
0.0088022
0.00880525
0.00881445
0.00882008
0.00882576
0.00883288
0.00883398
0.00883049
0.00882228
0.00880194
0.00878435
0.00877384
0.00876598
0.00875856
0.00876207
0.00878698
0.00882615
0.00885914
0.00887931
0.00546706
0.00545184
0.00543969
0.0054368
0.00542498
0.00542694
0.00542511
0.00544332
0.00545284
0.00548799
0.00551403
0.00559129
0.0056278
0.00573241
0.00581914
0.00598778
0.00614644
0.0065042
0.0070556
0.007581
0.00798919
0.00827108
0.00845408
0.00856807
0.00864156
0.00868994
0.00872197
0.00874529
0.00876058
0.00877221
0.00878301
0.00879043
0.00879523
0.00880189
0.00880965
0.00880767
0.00880717
0.00876664
0.00869842
0.00862058
0.00851563
0.00841532
0.00834502
0.00830484
0.00828353
0.00829312
0.00837833
0.00852643
0.00862637
0.00870088
0.00879247
0.00679685
0.00655411
0.00629462
0.00602823
0.00579006
0.00560494
0.00546659
0.00536992
0.00526252
0.00517975
0.00510205
0.00506059
0.00501062
0.00501909
0.00504535
0.00509281
0.00518538
0.00533763
0.00567049
0.00630114
0.00700985
0.00762522
0.00807279
0.00836273
0.00853705
0.00863843
0.00869526
0.00872939
0.00875064
0.00876289
0.00877092
0.00878065
0.0087793
0.00877064
0.00870477
0.00857063
0.00837321
0.00809686
0.00777441
0.00744395
0.00717121
0.00700247
0.00691208
0.00688383
0.00691388
0.00701379
0.00722981
0.00768269
0.00821067
0.00859921
0.00881191
0.00739493
0.00734954
0.0072919
0.00720077
0.0069927
0.00667046
0.00631305
0.00597928
0.00567226
0.00542398
0.00522254
0.00509901
0.00499957
0.00492333
0.00487823
0.0048796
0.00491697
0.00506004
0.00547856
0.00626754
0.00704301
0.00767585
0.00811741
0.00839376
0.0085565
0.00864755
0.00869694
0.0087234
0.00873754
0.00873724
0.00871249
0.00859027
0.00831884
0.00795449
0.00745838
0.00695364
0.00654973
0.00623676
0.00602993
0.00591046
0.00581691
0.00577813
0.00577947
0.00582671
0.00588449
0.00602448
0.00665264
0.0076547
0.00834053
0.00875628
0.0088827
0.00645867
0.00667987
0.00700742
0.00728673
0.0073941
0.00739466
0.00730332
0.00712665
0.00683501
0.00642608
0.00588852
0.00538715
0.00504997
0.00487066
0.00482804
0.00484181
0.00492272
0.00516815
0.00579126
0.00666396
0.00745443
0.00803238
0.00838148
0.00856136
0.00864343
0.00867204
0.00866935
0.00859435
0.0082771
0.00771269
0.00710774
0.00655307
0.00609271
0.00578049
0.00561589
0.00554375
0.00549684
0.0054557
0.00542332
0.00538207
0.00532586
0.00532301
0.00531509
0.00530028
0.0054228
0.00592658
0.00693814
0.00816442
0.0086917
0.00870976
0.00811735
0.00599989
0.00623339
0.00674748
0.00728508
0.00745812
0.00748107
0.00743088
0.00722838
0.0068766
0.00636504
0.00565831
0.00515828
0.00493274
0.00485371
0.00486439
0.00498033
0.00531391
0.00605434
0.00713507
0.0079358
0.00836942
0.00853712
0.00856892
0.00851133
0.00823498
0.00753893
0.00675095
0.00612731
0.00563046
0.00532326
0.00523273
0.00522747
0.00527885
0.00535594
0.00541065
0.00543556
0.00543243
0.00541512
0.00537246
0.00532728
0.00525826
0.00511443
0.00505574
0.0051761
0.00550595
0.00645041
0.00799809
0.00841478
0.00824508
0.00675539
0.00559926
0.00587767
0.0060029
0.00634993
0.0066783
0.00677176
0.00676923
0.0065325
0.00608348
0.00571088
0.00539686
0.00513473
0.00505326
0.00502703
0.005186
0.00556882
0.00635844
0.00730054
0.00801071
0.00828224
0.00837009
0.00821896
0.00764561
0.00652007
0.00573021
0.00525349
0.00498832
0.00492284
0.004923
0.00500882
0.00528071
0.00549123
0.00567403
0.00583068
0.00590202
0.0059005
0.00585756
0.00577159
0.00571267
0.00558805
0.00533334
0.00509597
0.00498672
0.00506478
0.00537094
0.00644012
0.00770891
0.00797044
0.00748286
0.00595714
0.00542291
0.00537802
0.00568854
0.00557724
0.00558385
0.00557662
0.00559535
0.00560118
0.00556831
0.00553076
0.00552069
0.00555029
0.00568226
0.00607612
0.0066065
0.00718147
0.00764252
0.00786652
0.00792056
0.0076969
0.00698486
0.00587603
0.00525866
0.00487276
0.00476242
0.00483379
0.00510415
0.00554535
0.00609152
0.00668841
0.00716724
0.00744661
0.00752069
0.00746954
0.00729905
0.00714187
0.00702048
0.00683244
0.00650074
0.00606341
0.00556565
0.00518792
0.00505409
0.00504566
0.00541755
0.00661655
0.0073202
0.00741665
0.00637742
0.00561358
0.00544662
0.00557805
0.00618576
0.00685047
0.00664287
0.00650175
0.00642168
0.00641384
0.00648387
0.00665347
0.00678179
0.00697458
0.00723077
0.00740661
0.00744912
0.00745702
0.00728429
0.00696552
0.00624142
0.00552064
0.00506884
0.00486157
0.00481456
0.00495948
0.0054553
0.00622064
0.00712265
0.00780699
0.00815934
0.00829639
0.00831761
0.00799114
0.00764718
0.00755508
0.00752665
0.00746011
0.00738728
0.00722265
0.00688726
0.00643197
0.00582901
0.0053156
0.00523517
0.00519121
0.00582819
0.00661462
0.00691219
0.00683315
0.00579105
0.00545278
0.00543454
0.00581298
0.00666451
0.00763337
0.0076304
0.00765079
0.00764826
0.00761098
0.00750957
0.00739384
0.00726471
0.00710807
0.00690999
0.00669415
0.00629996
0.00582083
0.0054227
0.00510065
0.00490978
0.00485292
0.00485315
0.00503827
0.00552247
0.00634534
0.00739796
0.00804604
0.00823205
0.00825072
0.0081431
0.00778829
0.00719227
0.00682109
0.00674736
0.00677327
0.00695628
0.00727554
0.00734397
0.00728546
0.00702714
0.00651425
0.00578202
0.0054043
0.0053532
0.00531776
0.00628498
0.00646175
0.00657557
0.00616247
0.00544062
0.00538752
0.00537491
0.00583275
0.0065036
0.00715456
0.00751063
0.00604017
0.00594852
0.00583903
0.00571713
0.00557428
0.00542354
0.00524981
0.00506645
0.00489103
0.00473829
0.0047442
0.00472445
0.00475668
0.00486195
0.00508842
0.00551592
0.00612912
0.00702043
0.00784744
0.00821106
0.00827615
0.00825568
0.00807546
0.0076548
0.00708076
0.00653719
0.00628214
0.00622548
0.00623766
0.00633514
0.00654845
0.0067337
0.0067887
0.00667573
0.00617629
0.00572326
0.00563414
0.00557872
0.00585497
0.0063337
0.00642703
0.00626695
0.00546869
0.00532024
0.00516261
0.00522035
0.00548463
0.00595501
0.00634914
0.0063263
0.00622049
0.00465614
0.00460454
0.00454455
0.00449887
0.00449206
0.00448728
0.00450478
0.00454258
0.00458989
0.00469462
0.00481834
0.00504468
0.00537368
0.00581638
0.0064167
0.00707404
0.00781555
0.00816697
0.00827904
0.00826308
0.00821333
0.00798125
0.00759955
0.00709886
0.00656381
0.0062625
0.00614117
0.00613177
0.00612727
0.00616135
0.00619655
0.00620647
0.00616217
0.0060335
0.0058855
0.00585207
0.00593869
0.00606766
0.00613808
0.00611865
0.00570955
0.00512143
0.0051033
0.00501839
0.0050157
0.00516893
0.00538384
0.00542968
0.00538377
0.00524342
0.00515139
0.00434861
0.00434836
0.00436137
0.00438452
0.00442264
0.00447687
0.00456117
0.00467725
0.0048463
0.00506909
0.00536681
0.00573597
0.00619654
0.00673097
0.00734086
0.00787747
0.00823958
0.00821209
0.00824719
0.00818299
0.00803589
0.00776955
0.00739355
0.00699885
0.00658965
0.00632903
0.0061614
0.0061606
0.00614066
0.00614456
0.00613901
0.00613012
0.00609866
0.00605789
0.00605627
0.00606743
0.00608035
0.00599011
0.00573122
0.00524718
0.00499298
0.0048486
0.0048501
0.00482666
0.00487256
0.00492977
0.00493057
0.00488589
0.00484585
0.00478699
0.00472195
0.00428629
0.00430587
0.00433789
0.00438338
0.00444917
0.00454023
0.00466288
0.00482697
0.0050408
0.00531331
0.00565516
0.00607438
0.00657543
0.0071348
0.00769725
0.00807751
0.00815926
0.00813616
0.00814758
0.00804741
0.00788692
0.00763783
0.00737004
0.00709453
0.00685802
0.00662804
0.00646457
0.0063465
0.00629429
0.0062419
0.00620886
0.00616838
0.00612925
0.00608807
0.00602393
0.00594307
0.00570018
0.00529212
0.00498464
0.00475127
0.00474562
0.00468823
0.00468719
0.00468169
0.00469096
0.00469466
0.00468428
0.00466123
0.00464065
0.00461423
0.00458467
0.00426817
0.00429247
0.00432947
0.00438406
0.00445761
0.00455556
0.00469307
0.00486231
0.00509517
0.00537962
0.00574522
0.00617845
0.00668546
0.00722546
0.00764885
0.00799377
0.00793866
0.00798948
0.00793663
0.00787053
0.00769332
0.0074676
0.00724518
0.00702392
0.0068434
0.00666099
0.00653304
0.00642014
0.00633048
0.00625411
0.0061847
0.00611008
0.00600752
0.00586138
0.00561128
0.00523564
0.0049604
0.0047094
0.00471154
0.00462576
0.00461735
0.00460515
0.00460138
0.00460296
0.00460371
0.00460149
0.00459299
0.00458378
0.00457445
0.00456332
0.00455302
0.00425409
0.00427692
0.00430838
0.0043578
0.00441778
0.00450836
0.00461932
0.00477329
0.00496513
0.00521087
0.0055097
0.00587165
0.00627506
0.00671465
0.00713118
0.00740358
0.00756388
0.00758088
0.00754642
0.00752277
0.00738742
0.00721797
0.00700945
0.00685751
0.00670455
0.00655508
0.00641493
0.00629756
0.00617297
0.00603952
0.00586643
0.00564069
0.00536563
0.00512664
0.00486982
0.00472637
0.00460965
0.00460726
0.00457111
0.00456529
0.00456281
0.00456291
0.0045665
0.00456946
0.0045702
0.00457036
0.0045677
0.00456517
0.00456141
0.0045568
0.00455166
0.00423898
0.00425017
0.00427726
0.00430113
0.00435594
0.00440802
0.00449857
0.00459867
0.00474463
0.00490853
0.00511628
0.00535792
0.00561631
0.00590158
0.00615609
0.00639871
0.00653293
0.00664893
0.00662771
0.00663915
0.00658496
0.00649678
0.00636923
0.00625623
0.00616483
0.00600171
0.00581999
0.00566338
0.00547227
0.0052703
0.00507642
0.00491678
0.00478966
0.00466596
0.00459174
0.00456415
0.00453486
0.00454104
0.00453419
0.00453858
0.00454496
0.00455222
0.00455704
0.00456192
0.00456317
0.00456447
0.00456485
0.00456373
0.00456192
0.00455927
0.00455609
0.00422641
0.0042365
0.00424971
0.00427356
0.0042987
0.00434217
0.00439539
0.00448336
0.00451687
0.00469833
0.00475353
0.00495092
0.0050635
0.00525317
0.00537803
0.00548318
0.00558046
0.00558273
0.00560183
0.00558851
0.00554374
0.0054709
0.00538699
0.00533018
0.0052465
0.00512851
0.00502638
0.00493607
0.00483117
0.00473012
0.00465871
0.00459658
0.00454788
0.00453003
0.00450607
0.00450931
0.00450633
0.00451322
0.00452
0.00453732
0.0045362
0.00455187
0.0045517
0.0045614
0.00456168
0.00456707
0.00456728
0.00457027
0.0045704
0.00457087
0.00457017
0.00421814
0.00422362
0.00423189
0.00424419
0.00426339
0.0042868
0.00431939
0.00435924
0.0044173
0.00446887
0.00455279
0.00462299
0.00471879
0.00479437
0.00487959
0.00493054
0.00495559
0.004972
0.00496507
0.00495655
0.00491745
0.00487316
0.00482858
0.00479404
0.00473717
0.00467258
0.00463233
0.00459128
0.0045469
0.00451587
0.00450031
0.00447944
0.00447972
0.00447657
0.00447847
0.00448768
0.00449639
0.00450563
0.00451933
0.00452899
0.00453813
0.00454803
0.00455403
0.00456134
0.00456723
0.0045724
0.00457689
0.0045792
0.00458157
0.00458203
0.00458265
0.00421434
0.00421633
0.00422113
0.00422865
0.00423964
0.00425486
0.00427424
0.00429848
0.00432865
0.00436336
0.00440378
0.00444865
0.00449488
0.00454095
0.00457912
0.00461228
0.00461631
0.0046242
0.00462085
0.00461247
0.00459251
0.00456528
0.00454792
0.00452506
0.0044983
0.00447449
0.00446383
0.00445317
0.00444439
0.0044438
0.00444269
0.00444612
0.00445259
0.00445923
0.00446922
0.00448101
0.0044917
0.0045053
0.00451862
0.0045298
0.00454035
0.00455298
0.00456212
0.00457426
0.00458171
0.00459102
0.00459674
0.00459968
0.00460527
0.00460694
0.00460882
0.00421326
0.00421304
0.00421578
0.00422009
0.00422707
0.00423675
0.0042488
0.00426382
0.00428165
0.00430198
0.00432489
0.00434943
0.00437538
0.00439861
0.00442039
0.00443221
0.00444318
0.00444045
0.00444292
0.00443922
0.00443265
0.00442359
0.00441372
0.00441202
0.00440283
0.00440445
0.00440317
0.00440629
0.00441176
0.00441759
0.00442535
0.00443461
0.00444466
0.00445617
0.0044693
0.00448147
0.00449384
0.0045087
0.00452187
0.00453488
0.00454897
0.00455994
0.00457276
0.0045826
0.00459291
0.0046019
0.00460917
0.00461711
0.00462316
0.0046279
0.00463153
0.00421286
0.00421245
0.00421366
0.00421619
0.00422077
0.00422708
0.00423521
0.00424459
0.00425619
0.00426871
0.0042821
0.00429614
0.00431027
0.0043249
0.00433532
0.00434636
0.00435141
0.00435673
0.00435926
0.00436092
0.00436277
0.00436261
0.00436666
0.00436595
0.00437328
0.004374
0.00438574
0.00439043
0.00440211
0.00441014
0.00442223
0.00443322
0.00444528
0.00445745
0.00447114
0.00448404
0.0044993
0.00451387
0.00452784
0.00454225
0.00455682
0.00457073
0.00458574
0.00459937
0.00461338
0.00462611
0.00463837
0.00464945
0.00465911
0.00466541
0.00466799
0.00421398
0.00421269
0.00421278
0.0042145
0.00421788
0.00422252
0.00422888
0.00423561
0.00424414
0.00425361
0.00426417
0.00427415
0.00428477
0.00428754
0.00430433
0.00430362
0.00431793
0.00431706
0.00432798
0.00432744
0.00433879
0.00433904
0.00434792
0.00435125
0.00436428
0.00436759
0.00438249
0.00438955
0.004402
0.00441201
0.00442448
0.004437
0.00445024
0.00446394
0.00447926
0.00449304
0.00451086
0.00452585
0.00454657
0.0045647
0.00458518
0.00460631
0.00462473
0.00464488
0.00466247
0.00467977
0.00469573
0.0047104
0.00472276
0.00473346
0.00474008
0.00421577
0.00421382
0.00421358
0.00421485
0.00421716
0.00422105
0.00422603
0.00423198
0.00423901
0.00424633
0.00425442
0.0042625
0.00427119
0.004279
0.00428604
0.00429425
0.00429889
0.00430797
0.00431325
0.00432095
0.00432713
0.00433366
0.00434429
0.00435483
0.00435738
0.00437408
0.00438209
0.00439419
0.00440596
0.00441853
0.00443191
0.00444745
0.00446229
0.00447883
0.00449428
0.00451179
0.00453198
0.00454957
0.00456689
0.00458167
0.0045988
0.00461312
0.00462936
0.00464378
0.00465871
0.00467249
0.00468732
0.00470228
0.00471541
0.00472825
0.00473748
0.00872938
0.00873299
0.00873733
0.00874184
0.00874667
0.00875138
0.00875747
0.0087629
0.00876897
0.00877511
0.00878175
0.00878832
0.00879515
0.00880193
0.00880897
0.00881598
0.00882286
0.00883009
0.00883709
0.00884428
0.00885131
0.00885849
0.00886543
0.00887243
0.00887921
0.00888587
0.00873232
0.00873594
0.00873994
0.00874425
0.00874887
0.00875404
0.00875902
0.00876467
0.00877015
0.00877634
0.00878255
0.00878887
0.00879572
0.00880226
0.00880893
0.00881619
0.00882282
0.00883005
0.00883691
0.00884407
0.00885126
0.00885824
0.00886535
0.00887225
0.00887918
0.00888581
0.00873553
0.00873886
0.00874277
0.00874675
0.00875077
0.00875637
0.0087605
0.00876662
0.00877153
0.00877741
0.00878347
0.00878967
0.00879601
0.00880275
0.00880928
0.00881611
0.00882303
0.00882995
0.00883705
0.00884401
0.00885117
0.00885836
0.00886549
0.00887247
0.00887932
0.00888622
0.00873906
0.00874217
0.00874612
0.00874924
0.00875381
0.00875812
0.00876312
0.00876807
0.00877339
0.00877877
0.00878457
0.0087906