/*--------------------------------*- C++ -*----------------------------------*\
  =========                 |
  \\      /  F ield         | OpenFOAM: The Open Source CFD Toolbox
   \\    /   O peration     | Website:  https://openfoam.org
    \\  /    A nd           | Version:  10
     \\/     M anipulation  |
\*---------------------------------------------------------------------------*/
FoamFile
{
    format      ascii;
    class       surfaceScalarField;
    location    "0.550995";
    object      phi;
}
// * * * * * * * * * * * * * * * * * * * * * * * * * * * * * * * * * * * * * //

dimensions      [1 0 -1 0 0 0 0];

internalField   nonuniform List<scalar> 
31672
(
0.000421364
-9.67847e-06
0.000416953
-1.18313e-05
0.000412442
-1.40335e-05
0.000407965
-1.61811e-05
0.00040355
-1.84293e-05
0.000399224
-2.05861e-05
0.00039504
-2.27545e-05
0.000391018
-2.49096e-05
0.000387171
-2.7033e-05
0.000383483
-2.91207e-05
0.00037994
-3.11505e-05
0.000376546
-3.31159e-05
0.000373265
-3.5001e-05
0.0003701
-3.67973e-05
0.000367013
-3.84968e-05
0.000363991
-4.00906e-05
0.000361026
-4.15778e-05
0.000358074
-4.29641e-05
0.000355171
-4.42402e-05
0.000352274
-4.54159e-05
0.00034942
-4.65e-05
0.000346588
-4.75033e-05
0.000343786
-4.84306e-05
0.000341026
-4.92969e-05
0.000338309
-5.01131e-05
0.000335665
-5.089e-05
0.0003331
-5.16435e-05
0.000330638
-5.23815e-05
0.000328306
-5.31202e-05
0.000326118
-5.38637e-05
0.000324106
-5.46252e-05
0.000322297
-5.54078e-05
0.00032072
-5.62141e-05
0.000319399
-5.7042e-05
0.000318358
-5.78852e-05
0.000317629
-5.87339e-05
0.000317227
-5.95773e-05
0.000317187
-6.04049e-05
0.000317505
-6.11579e-05
0.000318225
-6.18443e-05
0.000319356
-6.24289e-05
0.000320915
-6.28783e-05
0.000322904
-6.316e-05
0.000325334
-6.32235e-05
0.000328207
-6.30408e-05
0.000331527
-6.25532e-05
0.000335266
-6.17294e-05
0.000339426
-6.04973e-05
0.000343972
-5.88463e-05
0.000348869
-5.66654e-05
0.000354075
-5.39831e-05
0.00035953
-5.06634e-05
0.000365166
-4.67495e-05
-4.21334e-05
0.000370901
0.000419575
-1.05042e-05
0.00041539
-1.21263e-05
0.000410653
-1.38224e-05
0.000406213
-1.55575e-05
0.000401722
-1.71949e-05
0.000397407
-1.89533e-05
0.000393263
-2.06985e-05
0.000389287
-2.24626e-05
0.000385475
-2.42226e-05
0.00038185
-2.59794e-05
0.000378372
-2.771e-05
0.000375046
-2.94098e-05
0.000371853
-3.10608e-05
0.000368771
-3.26547e-05
0.000365766
-3.41793e-05
0.000362823
-3.56273e-05
0.000359931
-3.69934e-05
0.000357073
-3.82801e-05
0.000354229
-3.94815e-05
0.000351406
-4.06055e-05
0.000348605
-4.1656e-05
0.000345819
-4.26479e-05
0.000343045
-4.35841e-05
0.000340303
-4.44805e-05
0.0003376
-4.53483e-05
0.000334946
-4.62003e-05
0.000332365
-4.70512e-05
0.000329879
-4.79137e-05
0.00032751
-4.87996e-05
0.000325288
-4.97207e-05
0.000323246
-5.0683e-05
0.000321401
-5.16971e-05
0.000319789
-5.27618e-05
0.000318443
-5.38757e-05
0.000317389
-5.5032e-05
0.000316659
-5.62228e-05
0.000316277
-5.74351e-05
0.00031627
-5.8645e-05
0.00031666
-5.98161e-05
0.00031748
-6.09427e-05
0.000318735
-6.19892e-05
0.000320461
-6.29204e-05
0.000322654
-6.36928e-05
0.000325337
-6.42673e-05
0.000328513
-6.45962e-05
0.000332181
-6.46296e-05
0.000336312
-6.43091e-05
0.000340951
-6.35952e-05
0.000345978
-6.24051e-05
0.000351424
-6.06886e-05
0.000357234
-5.83873e-05
0.000363339
-5.54343e-05
0.000369662
-5.18024e-05
-4.73844e-05
0.000376053
0.000418227
-1.12039e-05
0.00041375
-1.25186e-05
0.000409213
-1.3738e-05
0.000404699
-1.50181e-05
0.000400278
-1.62622e-05
0.000395979
-1.75734e-05
0.000391823
-1.89119e-05
0.000387838
-2.02865e-05
0.000384043
-2.16899e-05
0.000380435
-2.31176e-05
0.000376988
-2.4548e-05
0.000373717
-2.59777e-05
0.000370568
-2.73852e-05
0.000367539
-2.87612e-05
0.000364604
-3.00938e-05
0.000361726
-3.13733e-05
0.000358901
-3.25938e-05
0.000356096
-3.37524e-05
0.000353318
-3.48524e-05
0.000350543
-3.58824e-05
0.000347771
-3.68731e-05
0.000345011
-3.78154e-05
0.000342253
-3.87281e-05
0.000339513
-3.96199e-05
0.00033679
-4.05084e-05
0.00033411
-4.14055e-05
0.000331494
-4.23292e-05
0.000328958
-4.32927e-05
0.000326536
-4.43101e-05
0.000324254
-4.53938e-05
0.000322144
-4.65518e-05
0.000320244
-4.77917e-05
0.000318573
-4.91184e-05
0.000317174
-5.05272e-05
0.000316084
-5.20131e-05
0.000315325
-5.35647e-05
0.000314938
-5.51694e-05
0.000314945
-5.67907e-05
0.000315381
-5.8421e-05
0.00031627
-6.00289e-05
0.000317645
-6.15835e-05
0.000319516
-6.3046e-05
0.000321906
-6.43668e-05
0.000324834
-6.55166e-05
0.000328313
-6.64216e-05
0.000332324
-6.70479e-05
0.000336881
-6.73111e-05
0.000341971
-6.71684e-05
0.000347572
-6.65258e-05
0.000353589
-6.53394e-05
0.000360078
-6.34901e-05
0.000366882
-6.09716e-05
0.000373903
-5.76402e-05
-5.35141e-05
0.000381196
0.000417307
-1.21834e-05
0.000412809
-1.30289e-05
0.000408258
-1.3826e-05
0.000403672
-1.46523e-05
0.000399208
-1.54956e-05
0.000394833
-1.6396e-05
0.000390656
-1.7347e-05
0.000386647
-1.83547e-05
0.000382847
-1.9415e-05
0.000379235
-2.05187e-05
0.000375807
-2.16553e-05
0.000372555
-2.28081e-05
0.00036944
-2.3965e-05
0.000366456
-2.51118e-05
0.000363565
-2.62338e-05
0.000360748
-2.73247e-05
0.000357959
-2.83726e-05
0.000355206
-2.93754e-05
0.000352479
-3.03326e-05
0.000349723
-3.12583e-05
0.000346985
-3.21403e-05
0.000344228
-3.3002e-05
0.000341461
-3.38525e-05
0.000338694
-3.47055e-05
0.00033594
-3.55809e-05
0.000333208
-3.64945e-05
0.000330525
-3.74633e-05
0.000327917
-3.85049e-05
0.00032541
-3.96358e-05
0.000323038
-4.0868e-05
0.000320835
-4.22144e-05
0.000318835
-4.36787e-05
0.00031708
-4.52687e-05
0.000315601
-4.69822e-05
0.000314435
-4.88108e-05
0.000313619
-5.07433e-05
0.000313198
-5.27637e-05
0.000313188
-5.48378e-05
0.00031364
-5.69617e-05
0.000314576
-5.90948e-05
0.000316042
-6.12083e-05
0.000318041
-6.32573e-05
0.000320606
-6.51919e-05
0.000323768
-6.69743e-05
0.000327531
-6.85329e-05
0.000331902
-6.98212e-05
0.000336883
-7.07545e-05
0.000342467
-7.12693e-05
0.000348612
-7.12666e-05
0.000355319
-7.06837e-05
0.000362488
-6.9407e-05
0.000370072
-6.73533e-05
0.000377968
-6.44329e-05
-6.05707e-05
0.000386057
0.000416624
-1.31783e-05
0.000412093
-1.35997e-05
0.000407498
-1.39981e-05
0.000402903
-1.44188e-05
0.000398377
-1.48749e-05
0.000393979
-1.53969e-05
0.000389742
-1.59832e-05
0.00038572
-1.66481e-05
0.000381884
-1.73785e-05
0.000378263
-1.81739e-05
0.000374834
-1.90159e-05
0.00037158
-1.98953e-05
0.000368498
-2.07954e-05
0.000365534
-2.17e-05
0.000362683
-2.25982e-05
0.0003599
-2.34759e-05
0.000357152
-2.43283e-05
0.000354433
-2.51495e-05
0.000351721
-2.59395e-05
0.000348993
-2.67061e-05
0.000346249
-2.74527e-05
0.000343489
-2.81942e-05
0.0003407
-2.89468e-05
0.000337884
-2.9725e-05
0.00033507
-3.05527e-05
0.000332267
-3.14491e-05
0.000329489
-3.2436e-05
0.000326775
-3.35307e-05
0.00032415
-3.47553e-05
0.00032165
-3.61228e-05
0.000319318
-3.76462e-05
0.000317189
-3.93335e-05
0.000315302
-4.11903e-05
0.000313699
-4.32164e-05
0.00031242
-4.54039e-05
0.000311509
-4.77395e-05
0.000311012
-5.01998e-05
0.000310951
-5.27678e-05
0.000311388
-5.54223e-05
0.00031234
-5.81283e-05
0.00031386
-6.08511e-05
0.000315954
-6.35425e-05
0.000318678
-6.61619e-05
0.000322059
-6.86474e-05
0.000326094
-7.09395e-05
0.000330818
-7.29768e-05
0.000336235
-7.46626e-05
0.000342315
-7.59362e-05
0.000349072
-7.6665e-05
0.000356455
-7.67948e-05
0.000364385
-7.61574e-05
0.00037283
-7.46856e-05
0.00038166
-7.22457e-05
-6.87295e-05
0.000390737
0.000416304
-1.41456e-05
0.000411727
-1.41905e-05
0.000407092
-1.42181e-05
0.000402439
-1.42663e-05
0.000397859
-1.43697e-05
0.000393401
-1.45404e-05
0.000389107
-1.47972e-05
0.000385032
-1.51376e-05
0.000381158
-1.55613e-05
0.00037751
-1.60602e-05
0.000374063
-1.66214e-05
0.000370824
-1.72311e-05
0.00036774
-1.78704e-05
0.000364806
-1.85272e-05
0.000361972
-1.91841e-05
0.000359212
-1.98328e-05
0.00035651
-2.04626e-05
0.00035381
-2.10715e-05
0.000351111
-2.16592e-05
0.000348393
-2.22334e-05
0.000345631
-2.28052e-05
0.000342834
-2.33865e-05
0.000339998
-2.40025e-05
0.000337118
-2.46641e-05
0.000334213
-2.54093e-05
0.000331299
-2.62544e-05
0.0003284
-2.72257e-05
0.000325541
-2.83494e-05
0.000322765
-2.96449e-05
0.000320099
-3.11313e-05
0.00031759
-3.28222e-05
0.000315287
-3.47286e-05
0.000313223
-3.68536e-05
0.00031145
-3.92041e-05
0.000310012
-4.17655e-05
0.000308965
-4.45244e-05
0.000308347
-4.74584e-05
0.000308199
-5.05552e-05
0.000308571
-5.37816e-05
0.000309503
-5.71088e-05
0.000311033
-6.04965e-05
0.000313203
-6.38961e-05
0.00031606
-6.72641e-05
0.000319614
-7.05308e-05
0.000323923
-7.36418e-05
0.000328979
-7.6514e-05
0.000334817
-7.90611e-05
0.000341429
-8.11867e-05
0.000348797
-8.27751e-05
0.000356904
-8.37131e-05
0.000365676
-8.38488e-05
0.000375074
-8.30784e-05
0.00038493
-8.12128e-05
-7.81458e-05
0.000395161
0.000416265
-1.50483e-05
0.000411668
-1.47511e-05
0.000406958
-1.44344e-05
0.000402244
-1.41483e-05
0.000397595
-1.39367e-05
0.000393061
-1.37957e-05
0.000388719
-1.37556e-05
0.000384567
-1.38057e-05
0.000380659
-1.39459e-05
0.000376969
-1.41701e-05
0.000373515
-1.44614e-05
0.000370254
-1.48071e-05
0.000367181
-1.51888e-05
0.000364261
-1.55906e-05
0.000361453
-1.59957e-05
0.000358724
-1.63949e-05
0.000356032
-1.6777e-05
0.000353359
-1.71437e-05
0.000350661
-1.7494e-05
0.000347937
-1.78391e-05
0.000345157
-1.81925e-05
0.000342311
-1.85722e-05
0.000339417
-1.90026e-05
0.000336442
-1.95164e-05
0.000333426
-2.01326e-05
0.000330364
-2.08869e-05
0.000327298
-2.18102e-05
0.000324261
-2.29305e-05
0.000321277
-2.42726e-05
0.000318395
-2.58588e-05
0.000315661
-2.7707e-05
0.000313126
-2.9828e-05
0.000310839
-3.2228e-05
0.000308843
-3.49078e-05
0.000307196
-3.78606e-05
0.000305958
-4.10621e-05
0.000305166
-4.45086e-05
0.00030488
-4.81653e-05
0.00030514
-5.2013e-05
0.000306001
-5.6011e-05
0.000307506
-6.01171e-05
0.00030971
-6.42954e-05
0.000312647
-6.84798e-05
0.000316364
-7.26145e-05
0.000320899
-7.66329e-05
0.000326284
-8.044e-05
0.000332536
-8.39551e-05
0.000339671
-8.70537e-05
0.000347689
-8.96272e-05
0.000356556
-9.15156e-05
0.000366247
-9.25772e-05
0.000376658
-9.26222e-05
0.000387696
-9.14809e-05
-8.89764e-05
0.000399205
0.000416478
-1.57762e-05
0.000411791
-1.51964e-05
0.000407029
-1.45853e-05
0.000402229
-1.40156e-05
0.000397522
-1.35429e-05
0.000392923
-1.31276e-05
0.000388511
-1.28392e-05
0.000384324
-1.26339e-05
0.000380355
-1.25189e-05
0.000376641
-1.24948e-05
0.000373159
-1.25318e-05
0.000369895
-1.2626e-05
0.000366834
-1.27539e-05
0.000363927
-1.28959e-05
0.000361148
-1.30378e-05
0.000358443
-1.31687e-05
0.000355777
-1.32818e-05
0.000353123
-1.33732e-05
0.000350433
-1.34507e-05
0.000347697
-1.3525e-05
0.00034488
-1.36152e-05
0.000341976
-1.37454e-05
0.000338981
-1.39467e-05
0.000335891
-1.42523e-05
0.000332719
-1.46976e-05
0.000329479
-1.53201e-05
0.000326205
-1.61557e-05
0.000322926
-1.7239e-05
0.000319687
-1.86019e-05
0.000316535
-2.0269e-05
0.000313521
-2.22609e-05
0.000310702
-2.45916e-05
0.000308126
-2.72668e-05
0.000305848
-3.02878e-05
0.000303941
-3.36468e-05
0.000302447
-3.7325e-05
0.000301429
-4.13066e-05
0.000300937
-4.55655e-05
0.00030104
-5.00766e-05
0.000301776
-5.47962e-05
0.000303204
-5.96877e-05
0.000305392
-6.47014e-05
0.000308369
-6.97834e-05
0.000312205
-7.4872e-05
0.000316936
-7.98849e-05
0.000322606
-8.47451e-05
0.000329252
-8.93315e-05
0.000336907
-9.3558e-05
0.000345572
-9.7235e-05
0.000355251
-0.000100261
0.000365904
-0.000102383
0.000377444
-0.00010344
0.000389785
-0.00010318
-0.000101377
0.000402697
0.000416979
-1.63246e-05
0.000412283
-1.55457e-05
0.000407375
-1.45737e-05
0.000402542
-1.38571e-05
0.000397719
-1.31236e-05
0.000393038
-1.25132e-05
0.000388554
-1.20156e-05
0.000384293
-1.15997e-05
0.000380276
-1.12655e-05
0.000376533
-1.10268e-05
0.000373024
-1.08296e-05
0.000369764
-1.0693e-05
0.000366711
-1.05713e-05
0.000363834
-1.04538e-05
0.000361082
-1.03207e-05
0.000358417
-1.0169e-05
0.000355789
-9.98386e-06
0.000353146
-9.76859e-06
0.000350469
-9.5323e-06
0.00034771
-9.29149e-06
0.000344842
-9.069e-06
0.00034186
-8.89706e-06
0.000338748
-8.81337e-06
0.0003355
-8.8601e-06
0.000332135
-9.08104e-06
0.000328672
-9.52183e-06
0.000325135
-1.02271e-05
0.000321566
-1.12375e-05
0.000318018
-1.25902e-05
0.000314533
-1.43153e-05
0.000311174
-1.64362e-05
0.000308001
-1.89702e-05
0.000305071
-2.19236e-05
0.000302449
-2.5295e-05
0.000300207
-2.90769e-05
0.000298398
-3.32611e-05
0.000297091
-3.7808e-05
0.000296337
-4.27125e-05
0.000296213
-4.79243e-05
0.000296766
-5.34259e-05
0.000298066
-5.91578e-05
0.000300165
-6.50804e-05
0.000303136
-7.11355e-05
0.000307025
-7.72653e-05
0.00031191
-8.33755e-05
0.000317831
-8.94002e-05
0.000324835
-9.51941e-05
0.00033301
-0.000100683
0.000342308
-0.000105643
0.000352831
-0.000109969
0.000364478
-0.000113344
0.000377234
-0.000115596
0.000390911
-0.000116387
-0.000115468
0.000405373
0.000417575
-1.66137e-05
0.000412901
-1.55204e-05
0.000407823
-1.45462e-05
0.000402975
-1.35626e-05
0.000397955
-1.26893e-05
0.000393295
-1.19249e-05
0.00038869
-1.12368e-05
0.000384311
-1.06586e-05
0.000380288
-1.01961e-05
0.000376528
-9.74487e-06
0.000373057
-9.37079e-06
0.000369824
-9.01967e-06
0.00036681
-8.6576e-06
0.000363971
-8.28014e-06
0.000361268
-7.86368e-06
0.000358656
-7.41476e-06
0.000356074
-6.90387e-06
0.000353469
-6.34435e-06
0.000350793
-5.75053e-06
0.00034801
-5.14308e-06
0.000345087
-4.55295e-06
0.000342004
-4.01914e-06
0.000338747
-3.58977e-06
0.000335316
-3.31643e-06
0.000331718
-3.25403e-06
0.000327978
-3.45776e-06
0.000324129
-3.98204e-06
0.000320212
-4.87707e-06
0.000316285
-6.18711e-06
0.000312401
-7.9441e-06
0.000308622
-1.01778e-05
0.000305024
-1.29075e-05
0.000301671
-1.61373e-05
0.000298621
-1.98725e-05
0.000295969
-2.41012e-05
0.000293782
-2.88066e-05
0.000292104
-3.39636e-05
0.000291026
-3.95451e-05
0.000290602
-4.5515e-05
0.000290912
-5.18439e-05
0.000292005
-5.84796e-05
0.000293957
-6.53797e-05
0.000296849
-7.2486e-05
0.000300737
-7.97416e-05
0.000305708
-8.70548e-05
0.000311826
-9.4356e-05
0.000319145
-0.000101501
0.000327783
-0.000108397
0.000337725
-0.000114825
0.000349032
-0.000120627
0.000361719
-0.000125465
0.000375641
-0.000129106
0.000390648
-0.000131108
-0.000131221
0.000406606
0.000418497
-1.65562e-05
0.000413601
-1.52785e-05
0.00040844
-1.41511e-05
0.000403419
-1.30446e-05
0.000398433
-1.21084e-05
0.000393563
-1.12582e-05
0.000388973
-1.04925e-05
0.000384608
-9.80566e-06
0.000380775
-9.2895e-06
0.000376805
-8.67041e-06
0.000373294
-8.16917e-06
0.000370027
-7.57428e-06
0.000367102
-7.04342e-06
0.000364321
-6.37419e-06
0.000361711
-5.69843e-06
0.000359185
-4.93291e-06
0.000356677
-4.06246e-06
0.00035412
-3.12417e-06
0.000351463
-2.12378e-06
0.000348659
-1.09174e-06
0.000345668
-6.89339e-08
0.000342469
8.93732e-07
0.000339047
1.73781e-06
0.000335397
2.40001e-06
0.000331527
2.81292e-06
0.000327459
2.90895e-06
0.000323235
2.6229e-06
0.000318895
1.89652e-06
0.000314506
6.73099e-07
0.000310131
-1.08184e-06
0.000305847
-3.41439e-06
0.000301743
-6.33917e-06
0.000297882
-9.8516e-06
0.000294336
-1.39574e-05
0.000291197
-1.8651e-05
0.000288548
-2.39102e-05
0.000286436
-2.9703e-05
0.000284952
-3.60122e-05
0.000284156
-4.2784e-05
0.000284141
-4.99926e-05
0.000284958
-5.75915e-05
0.000286692
-6.55348e-05
0.000289424
-7.37731e-05
0.000293236
-8.22353e-05
0.000298217
-9.08593e-05
0.000304443
-9.95449e-05
0.000312018
-0.000108181
0.000321055
-0.000116644
0.000331569
-0.000124696
0.000343629
-0.000132174
0.0003572
-0.000138658
0.000372106
-0.000143713
0.000388224
-0.000147019
-0.000148145
0.000405177
0.000419466
-1.59929e-05
0.000414351
-1.46741e-05
0.00040912
-1.34292e-05
0.000403946
-1.23505e-05
0.000398841
-1.1367e-05
0.000394017
-1.05308e-05
0.000389288
-9.76677e-06
0.000384994
-9.11445e-06
0.000380738
-8.38243e-06
0.000376932
-7.81307e-06
0.00037362
-7.14592e-06
0.000370465
-6.49228e-06
0.000367722
-5.6978e-06
0.000364974
-4.87998e-06
0.000362566
-3.86136e-06
0.000360171
-2.73518e-06
0.000357649
-1.49899e-06
0.000355113
-1.24313e-07
0.000352484
1.33258e-06
0.000349676
2.8475e-06
0.000346629
4.37305e-06
0.00034331
5.84248e-06
0.000339698
7.18326e-06
0.000335791
8.31575e-06
0.000331597
9.15888e-06
0.000327142
9.62846e-06
0.000322471
9.65058e-06
0.000317629
9.14286e-06
0.000312699
8.0548e-06
0.00030776
6.32386e-06
0.000302891
3.92167e-06
0.000298172
8.26466e-07
0.000293701
-2.97447e-06
0.00028957
-7.47534e-06
0.000285859
-1.26583e-05
0.000282659
-1.85011e-05
0.000280026
-2.49741e-05
0.000278059
-3.20369e-05
0.000276812
-3.96645e-05
0.000276394
-4.7803e-05
0.000276851
-5.64277e-05
0.00027829
-6.54733e-05
0.000280779
-7.49161e-05
0.000284416
-8.46648e-05
0.000289317
-9.46973e-05
0.000295559
-0.000104879
0.000303308
-0.00011515
0.000312591
-0.00012532
0.00032356
-0.000135193
0.00033608
-0.000144361
0.00035024
-0.000152583
0.00036547
-0.000158845
0.000381916
-0.000163466
-0.000165439
0.000399024
0.000420535
-1.49285e-05
0.000415213
-1.358e-05
0.000409848
-1.2344e-05
0.000404476
-1.13264e-05
0.000399356
-1.04463e-05
0.000394243
-9.66107e-06
0.000389506
-8.99088e-06
0.000385192
-8.37823e-06
0.000381113
-7.78555e-06
0.000377496
-7.14096e-06
0.000374124
-6.47835e-06
0.000371118
-5.65798e-06
0.000368334
-4.7417e-06
0.000365886
-3.6388e-06
0.000363493
-2.39067e-06
0.000361372
-9.02588e-07
0.000359061
7.51186e-07
0.000356608
2.59652e-06
0.000354005
4.58344e-06
0.000351172
6.66018e-06
0.000348053
8.76913e-06
0.000344599
1.08331e-05
0.000340783
1.27623e-05
0.000336583
1.44599e-05
0.000332013
1.58239e-05
0.000327109
1.67559e-05
0.000321908
1.71548e-05
0.000316495
1.69417e-05
0.000310928
1.60316e-05
0.000305308
1.43773e-05
0.000299728
1.19271e-05
0.0002943
8.66033e-06
0.00028913
4.56552e-06
0.000284301
-3.32946e-07
0.000279913
-6.03607e-06
0.00027607
-1.25004e-05
0.000272839
-1.96914e-05
0.0002703
-2.75595e-05
0.000268526
-3.60851e-05
0.000267614
-4.52076e-05
0.000267635
-5.4908e-05
0.000268671
-6.51199e-05
0.000270831
-7.58206e-05
0.000274181
-8.69436e-05
0.000278894
-9.84547e-05
0.000285038
-0.000110251
0.000292801
-0.000122264
0.000302211
-0.000134257
0.000313382
-0.000146006
0.000325948
-0.000156772
0.000339983
-0.00016662
0.000354438
-0.000173548
0.000370109
-0.000179429
-0.000181616
0.000385984
0.000421601
-1.3223e-05
0.000416101
-1.19147e-05
0.000410366
-1.0813e-05
0.000405018
-9.9013e-06
0.000399715
-9.20202e-06
0.000394525
-8.66853e-06
0.000389802
-8.18311e-06
0.000385374
-7.74436e-06
0.000381449
-7.23637e-06
0.000377803
-6.73638e-06
0.000374674
-6.02848e-06
0.000371775
-5.2345e-06
0.000369406
-4.1488e-06
0.000367074
-2.87948e-06
0.000364846
-1.28988e-06
0.000362762
5.33619e-07
0.000360665
2.65905e-06
0.000358445
5.01256e-06
0.000355991
7.58002e-06
0.000353221
1.03023e-05
0.000350059
1.30954e-05
0.000346464
1.58609e-05
0.000342399
1.84905e-05
0.000337857
2.08634e-05
0.000332844
2.28588e-05
0.0003274
2.43505e-05
0.000321586
2.5225e-05
0.000315478
2.53748e-05
0.000309165
2.47136e-05
0.000302751
2.31678e-05
0.000296363
2.06936e-05
0.000290113
1.72627e-05
0.000284121
1.28733e-05
0.0002785
7.54687e-06
0.000273335
1.2999e-06
0.000268765
-5.82316e-06
0.000264835
-1.3776e-05
0.000261641
-2.2501e-05
0.000259251
-3.19694e-05
0.000257746
-4.2127e-05
0.000257237
-5.2941e-05
0.000257786
-6.43716e-05
0.000259493
-7.63922e-05
0.000262448
-8.89447e-05
0.000266834
-0.000102011
0.00027274
-0.000115501
0.000280327
-0.000129342
0.000289587
-0.000143169
0.000300468
-0.000156673
0.00031225
-0.000168546
0.000324991
-0.000179553
0.000337295
-0.000186281
0.000350627
-0.000194094
-0.000196206
0.000365051
0.000422669
-1.07798e-05
0.000416665
-9.61649e-06
0.000410972
-8.683e-06
0.000405239
-8.0801e-06
0.000399736
-7.67066e-06
0.000394615
-7.44724e-06
0.000389831
-7.28976e-06
0.000385548
-7.0975e-06
0.000381582
-6.92001e-06
0.000378216
-6.51591e-06
0.000375173
-5.98616e-06
0.000372636
-5.13453e-06
0.000370337
-4.04066e-06
0.000368395
-2.5334e-06
0.000366498
-7.10214e-07
0.000364912
1.49882e-06
0.000363021
4.10253e-06
0.000360918
7.05082e-06
0.000358555
1.02936e-05
0.000355822
1.3755e-05
0.000352623
1.73361e-05
0.000348894
2.09222e-05
0.000344581
2.43785e-05
0.000339673
2.75592e-05
0.000334176
3.03122e-05
0.000328123
3.24866e-05
0.000321581
3.39408e-05
0.000314656
3.45468e-05
0.000307467
3.42e-05
0.000300136
3.28171e-05
0.0002928
3.03461e-05
0.000285595
2.67581e-05
0.000278665
2.2056e-05
0.000272126
1.62736e-05
0.000266089
9.44151e-06
0.000260667
1.6126e-06
0.000255958
-7.15125e-06
0.000252006
-1.67807e-05
0.000248926
-2.7237e-05
0.000246748
-3.84721e-05
0.000245614
-5.04473e-05
0.000245567
-6.31387e-05
0.000246707
-7.65131e-05
0.000249149
-9.05419e-05
0.000253062
-0.000105215
0.000258521
-0.000120451
0.000265685
-0.000136104
0.000274286
-0.000151587
0.000284073
-0.000166406
0.000293829
-0.000178503
0.000304118
-0.000190257
0.00031415
-0.000197298
0.000326217
-0.000209862
-0.000229846
0.000359001
0.000423493
-7.47737e-06
0.000417279
-6.5459e-06
0.000411038
-5.96605e-06
0.000405249
-5.73196e-06
0.000399555
-5.78783e-06
0.000394358
-5.98374e-06
0.000389617
-6.2818e-06
0.00038532
-6.54914e-06
0.00038165
-6.68535e-06
0.000378385
-6.64733e-06
0.000375729
-6.24776e-06
0.000373414
-5.561e-06
0.000371582
-4.38887e-06
0.000369919
-2.8052e-06
0.000368592
-6.91727e-07
0.000367205
1.91157e-06
0.000365629
5.07e-06
0.000363893
8.63948e-06
0.000361794
1.26347e-05
0.000359184
1.69481e-05
0.000355971
2.14526e-05
0.000352098
2.6005e-05
0.000347505
3.04415e-05
0.000342162
3.45861e-05
0.000336083
3.82489e-05
0.000329323
4.12472e-05
0.000321962
4.34072e-05
0.000314107
4.45764e-05
0.000305899
4.46262e-05
0.000297501
4.34608e-05
0.000289069
4.10214e-05
0.000280766
3.72794e-05
0.000272755
3.22467e-05
0.000265174
2.59611e-05
0.00025813
1.84994e-05
0.000251757
9.90311e-06
0.000246165
2.65137e-07
0.000241378
-1.03214e-05
0.000237511
-2.18155e-05
0.00023458
-3.41665e-05
0.000232725
-4.73396e-05
0.000231985
-6.13202e-05
0.00023244
-7.6067e-05
0.000234224
-9.159e-05
0.000237464
-0.000107887
0.000242271
-0.000124844
0.00024854
-0.000142097
0.000255741
-0.000158702
0.000263254
-0.000174068
0.000269823
-0.000185431
0.000277006
-0.000198579
0.000292501
-0.000216312
0.000329657
-0.000254236
-0.000304263
0.000381752
0.000424105
-3.21284e-06
0.000417376
-2.63091e-06
0.000410922
-2.51352e-06
0.000404626
-2.83516e-06
0.000398991
-3.45982e-06
0.000393652
-4.2887e-06
0.000388907
-5.17553e-06
0.000384824
-6.03214e-06
0.000381283
-6.68358e-06
0.000378442
-7.02941e-06
0.000376041
-6.98963e-06
0.000374263
-6.46792e-06
0.000372821
-5.39072e-06
0.000371724
-3.68546e-06
0.000370754
-1.32969e-06
0.000370058
1.68099e-06
0.000368935
5.35226e-06
0.00036755
9.67085e-06
0.00036574
1.45276e-05
0.000363327
1.98208e-05
0.000360166
2.53993e-05
0.000356166
3.10886e-05
0.000351282
3.66877e-05
0.000345491
4.19816e-05
0.000338782
4.67376e-05
0.000331199
5.07333e-05
0.000322849
5.3749e-05
0.000313891
5.56049e-05
0.000304487
5.61464e-05
0.000294835
5.52601e-05
0.000285121
5.28788e-05
0.000275543
4.89761e-05
0.000266293
4.35783e-05
0.000257522
3.67424e-05
0.000249376
2.85695e-05
0.000241953
1.91449e-05
0.000235367
8.57127e-06
0.000229681
-3.06384e-06
0.000224955
-1.56406e-05
0.000221208
-2.91452e-05
0.000218538
-4.35434e-05
0.000217004
-5.88111e-05
0.000216655
-7.49375e-05
0.000217631
-9.19422e-05
0.000220043
-0.00010983
0.000223816
-0.000128317
0.000228544
-0.00014667
0.000233243
-0.000163455
0.000237421
-0.000178644
0.000242513
-0.000191495
0.000258426
-0.000218541
0.000300429
-0.00027541
0.00034924
-0.000326837
-0.000354391
0.000390889
0.000424276
2.12233e-06
0.000417021
2.22214e-06
0.000410097
1.73387e-06
0.000403613
7.10247e-07
0.000397644
-6.87691e-07
0.000392382
-2.30833e-06
0.000387622
-3.9753e-06
0.000383822
-5.56783e-06
0.000380614
-6.89614e-06
0.000378004
-7.82299e-06
0.000376227
-8.23802e-06
0.000374886
-8.01406e-06
0.00037419
-7.08572e-06
0.00037367
-5.35327e-06
0.000373444
-2.79881e-06
0.000373215
6.07249e-07
0.000372881
4.9217e-06
0.000371991
1.00188e-05
0.000370587
1.58658e-05
0.000368448
2.22825e-05
0.000365389
2.91142e-05
0.000361289
3.61447e-05
0.000356068
4.31282e-05
0.000349701
4.97945e-05
0.000342224
5.5859e-05
0.000333694
6.10514e-05
0.000324221
6.51044e-05
0.000313994
6.77926e-05
0.000303219
6.89364e-05
0.000292127
6.84004e-05
0.000280952
6.6107e-05
0.000269919
6.20314e-05
0.00025925
5.62161e-05
0.000249139
4.87545e-05
0.000239743
3.97733e-05
0.000231163
2.9423e-05
0.000223525
1.78106e-05
0.00021685
5.07593e-06
0.000211219
-8.66855e-06
0.000206596
-2.33574e-05
0.000203047
-3.89814e-05
0.000200626
-5.55358e-05
0.00019937
-7.3017e-05
0.000199397
-9.14703e-05
0.000200731
-0.000110791
0.00020302
-0.000130439
0.000205275
-0.000148914
0.00020693
-0.000165299
0.000207843
-0.000180985
0.000225984
-0.000213902
0.000266724
-0.000272027
0.000302149
-0.000324968
0.000313796
-0.000354548
-0.000371019
0.000321352
0.00042364
8.57517e-06
0.000415825
8.06524e-06
0.000408425
6.81331e-06
0.000401639
4.91505e-06
0.000395495
2.56494e-06
0.000390229
-4.35838e-08
0.000385593
-2.71382e-06
0.000382042
-5.17508e-06
0.000379244
-7.41972e-06
0.000377183
-9.06247e-06
0.000375997
-1.00975e-05
0.00037538
-1.03044e-05
0.000375447
-9.62184e-06
0.00037577
-7.96214e-06
0.000376422
-5.22428e-06
0.000376868
-1.33769e-06
0.000377134
3.52372e-06
0.000377148
9.57602e-06
0.000376266
1.64922e-05
0.000374412
2.42353e-05
0.000371504
3.25368e-05
0.000367341
4.11397e-05
0.000361811
4.97595e-05
0.000354858
5.80703e-05
0.000346523
6.57134e-05
0.000336926
7.23452e-05
0.000326187
7.765e-05
0.0003145
8.1352e-05
0.000302116
8.32289e-05
0.000289329
8.31152e-05
0.00027644
8.09199e-05
0.000263737
7.66345e-05
0.000251483
7.03253e-05
0.000239901
6.21267e-05
0.000229155
5.22167e-05
0.000219369
4.07966e-05
0.000210626
2.80456e-05
0.000202932
1.41195e-05
0.000196324
-8.56017e-07
0.000190762
-1.67508e-05
0.000186265
-3.36012e-05
0.000182869
-5.14097e-05
0.000180608
-7.0198e-05
0.000179537
-8.99997e-05
0.000179476
-0.000110472
0.000179604
-0.000130466
0.000178607
-0.000148065
0.000177005
-0.000164916
0.000190733
-0.000198708
0.000218931
-0.000259489
0.000238253
-0.000306697
0.000242788
-0.000334067
0.000242555
-0.000355719
-0.000374561
0.00024415
0.000421325
1.60423e-05
0.000412993
1.48123e-05
0.000405261
1.26603e-05
0.00039822
9.72232e-06
0.000392056
6.23262e-06
0.00038674
2.43862e-06
0.000382591
-1.40864e-06
0.000379168
-5.08846e-06
0.00037694
-8.25606e-06
0.000375674
-1.08483e-05
0.00037514
-1.2685e-05
0.000375572
-1.34898e-05
0.000376354
-1.3177e-05
0.000377838
-1.16374e-05
0.000379342
-8.76638e-06
0.000380961
-4.50203e-06
0.000382054
1.20296e-06
0.000382615
8.16326e-06
0.00038247
1.63714e-05
0.000381121
2.56411e-05
0.000378407
3.56092e-05
0.000374152
4.60608e-05
0.000368275
5.66063e-05
0.000360704
6.68598e-05
0.000351414
7.63875e-05
0.000340538
8.47372e-05
0.0003283
9.15254e-05
0.000314953
9.64346e-05
0.000300776
9.9196e-05
0.000286096
9.9601e-05
0.000271281
9.75279e-05
0.0002567
9.29753e-05
0.000242688
8.60562e-05
0.000229502
7.69706e-05
0.000217315
6.59638e-05
0.000206254
5.33159e-05
0.000196373
3.92782e-05
0.000187642
2.40568e-05
0.000180047
7.81133e-06
0.000173595
-9.37643e-06
0.000168159
-2.74085e-05
0.000163759
-4.63991e-05
0.000160429
-6.64102e-05
0.000158083
-8.73278e-05
0.000156138
-0.000108386
0.000153229
-0.000127641
0.00014895
-0.000144549
0.00015631
-0.000176043
0.000175756
-0.000235837
0.000183707
-0.000279148
0.000178158
-0.000305087
0.000170391
-0.000328799
0.000165483
-0.0003528
-0.000375249
0.000164069
0.000415635
2.40937e-05
0.000407178
2.2116e-05
0.000399397
1.89814e-05
0.000392399
1.48781e-05
0.000386363
1.00966e-05
0.000381424
4.93847e-06
0.000377615
-2.84629e-07
0.000374907
-5.28663e-06
0.000373498
-9.73788e-06
0.000372923
-1.34636e-05
0.000373461
-1.61131e-05
0.000374966
-1.77141e-05
0.000376901
-1.79201e-05
0.00037945
-1.65069e-05
0.000381983
-1.34927e-05
0.000384592
-8.73891e-06
0.000386642
-2.22719e-06
0.000388144
5.94563e-06
0.000388498
1.55907e-05
0.000387337
2.6448e-05
0.000384798
3.83977e-05
0.000380462
5.09413e-05
0.000374163
6.37012e-05
0.000365859
7.62019e-05
0.000355523
8.79525e-05
0.000343328
9.8304e-05
0.00032951
0.000106824
0.000314372
0.000113142
0.000298259
0.000116938
0.000281561
0.000117947
0.000264718
0.00011602
0.000248175
0.00011114
0.000232335
0.000103469
0.000217513
9.33038e-05
0.000203901
8.09907e-05
0.000191619
6.69049e-05
0.000180702
5.14123e-05
0.000171051
3.47781e-05
0.000162605
1.71925e-05
0.000155256
-1.23694e-06
0.000148874
-2.0402e-05
0.000143435
-4.0483e-05
0.000138913
-6.15207e-05
0.000134948
-8.31669e-05
0.000130414
-0.00010383
0.000124138
-0.000121807
0.00012421
-0.000147599
0.000135335
-0.000203626
0.000132602
-0.000244058
0.000118215
-0.000268182
0.00010532
-0.000293636
9.68406e-05
-0.000321427
9.12173e-05
-0.000348546
-0.000373386
8.74621e-05
0.000403895
3.18458e-05
0.000395935
2.9189e-05
0.00038868
2.50899e-05
0.000382334
1.9791e-05
0.000377017
1.36468e-05
0.000372867
7.01214e-06
0.000369937
2.67961e-07
0.000368255
-6.20843e-06
0.000367782
-1.20675e-05
0.000368599
-1.70235e-05
0.000370254
-2.08184e-05
0.000372958
-2.31171e-05
0.000376332
-2.38211e-05
0.000379771
-2.25972e-05
0.000383441
-1.9258e-05
0.000386727
-1.39023e-05
0.000389458
-6.27302e-06
0.000391127
3.16675e-06
0.000391759
1.43926e-05
0.00039083
2.72584e-05
0.000388126
4.11041e-05
0.000383584
5.59676e-05
0.000376877
7.11483e-05
0.000367923
8.60763e-05
0.000356532
0.000100424
0.000343091
0.000112962
0.000327801
0.000123448
0.000310977
0.000131365
0.00029299
0.000136385
0.00027434
0.000138101
0.000255549
0.000136312
0.000237132
0.000131019
0.000219585
0.000122433
0.000203275
0.000110968
0.000188413
9.71099e-05
0.0001751
8.13733e-05
0.000163326
6.42547e-05
0.000152931
4.60969e-05
0.000143765
2.71419e-05
0.000135597
7.57087e-06
0.0001284
-1.27143e-05
0.000121979
-3.36903e-05
0.000116137
-5.54399e-05
0.000110006
-7.69609e-05
0.000102129
-9.61871e-05
9.58882e-05
-0.000117386
9.96007e-05
-0.000165011
8.7323e-05
-0.000203121
6.538e-05
-0.00022546
4.86685e-05
-0.000252485
3.72299e-05
-0.000283011
2.86421e-05
-0.000313774
2.15782e-05
-0.000342638
-0.000368589
1.53561e-05
0.000383966
3.82384e-05
0.00037721
3.5018e-05
0.000371261
3.00421e-05
0.000366297
2.35979e-05
0.000362414
1.61e-05
0.00035971
7.97524e-06
0.000358293
-3.38901e-07
0.000358123