/*--------------------------------*- C++ -*----------------------------------*\
  =========                 |
  \\      /  F ield         | OpenFOAM: The Open Source CFD Toolbox
   \\    /   O peration     | Website:  https://openfoam.org
    \\  /    A nd           | Version:  10
     \\/     M anipulation  |
\*---------------------------------------------------------------------------*/
FoamFile
{
    format      ascii;
    class       volScalarField;
    location    "0.550995";
    object      rho;
}
// * * * * * * * * * * * * * * * * * * * * * * * * * * * * * * * * * * * * * //

dimensions      [1 -3 0 0 0 0 0];

internalField   nonuniform List<scalar> 
15984
(
1.01001
1.01463
1.01906
1.02329
1.02724
1.03077
1.03397
1.03679
1.0393
1.04149
1.04335
1.04494
1.04637
1.04751
1.04867
1.04952
1.05046
1.05112
1.0519
1.05252
1.05314
1.05386
1.05445
1.05515
1.05578
1.05641
1.05708
1.05766
1.05829
1.05885
1.05936
1.05984
1.06027
1.06065
1.06094
1.06116
1.06131
1.06133
1.06127
1.0611
1.06084
1.06038
1.0599
1.05916
1.05842
1.05742
1.05647
1.05515
1.05403
1.05246
1.0511
1.0493
1.04773
1.04575
1.00977
1.0171
1.0193
1.02486
1.02798
1.03171
1.03483
1.03795
1.04032
1.04267
1.04448
1.04616
1.04751
1.04879
1.04981
1.05074
1.05151
1.05227
1.05291
1.05351
1.05412
1.05473
1.05532
1.05587
1.05649
1.05703
1.05761
1.05813
1.05867
1.05912
1.0596
1.06002
1.06038
1.06069
1.06093
1.06111
1.06121
1.0612
1.06112
1.06096
1.06063
1.06021
1.05969
1.05897
1.05823
1.05727
1.0563
1.05497
1.05405
1.05207
1.05118
1.04883
1.04791
1.04529
1.01173
1.01624
1.0206
1.02496
1.02878
1.03254
1.03573
1.03874
1.04121
1.04355
1.0454
1.0471
1.04853
1.04972
1.05081
1.05171
1.05249
1.05322
1.05378
1.05444
1.05491
1.05551
1.05599
1.05655
1.05704
1.05754
1.05802
1.0585
1.05891
1.05936
1.05972
1.0601
1.06041
1.06066
1.06086
1.061
1.06105
1.06103
1.06094
1.06073
1.0604
1.06002
1.05943
1.05881
1.05798
1.05716
1.05599
1.05503
1.0535
1.05251
1.05035
1.04954
1.04692
1.04575
1.01274
1.01688
1.02148
1.02535
1.02945
1.03294
1.03628
1.03926
1.04182
1.04421
1.04608
1.04788
1.04927
1.05056
1.05161
1.05255
1.05336
1.05397
1.05466
1.05513
1.05571
1.05616
1.05667
1.05707
1.05756
1.05796
1.05839
1.05877
1.05917
1.0595
1.05985
1.06012
1.0604
1.06062
1.06078
1.06088
1.0609
1.06087
1.06077
1.06052
1.06022
1.05983
1.05923
1.05864
1.05778
1.05698
1.05585
1.05484
1.05344
1.05212
1.05061
1.04895
1.04721
1.04533
1.01282
1.01726
1.02141
1.02567
1.02948
1.03323
1.03647
1.03955
1.04224
1.04455
1.04666
1.04835
1.0499
1.0512
1.05226
1.05328
1.05401
1.05471
1.05528
1.05582
1.05627
1.05673
1.05718
1.05757
1.05793
1.05834
1.05868
1.05901
1.05934
1.05962
1.05989
1.06015
1.06037
1.06054
1.06067
1.06073
1.06075
1.0607
1.06059
1.06034
1.06005
1.05963
1.05902
1.05847
1.05763
1.05678
1.05575
1.05466
1.0533
1.05202
1.05043
1.04871
1.04701
1.04499
1.013
1.01728
1.02139
1.02565
1.02939
1.03325
1.03643
1.03966
1.0423
1.04481
1.04686
1.04874
1.05032
1.05163
1.05284
1.05372
1.0546
1.05528
1.05583
1.05636
1.0568
1.05716
1.05758
1.0579
1.05826
1.05855
1.05889
1.05914
1.05943
1.05969
1.05989
1.06012
1.06029
1.06043
1.06052
1.06058
1.06059
1.06052
1.06041
1.06015
1.05988
1.0594
1.05894
1.05826
1.0575
1.05668
1.05557
1.05457
1.05314
1.0519
1.05012
1.04858
1.04665
1.04464
1.01296
1.01703
1.0213
1.02519
1.02928
1.03278
1.03636
1.03937
1.04226
1.04475
1.04694
1.0489
1.05046
1.05196
1.05309
1.05417
1.05495
1.05568
1.05625
1.0567
1.05719
1.05749
1.05789
1.05819
1.0585
1.05879
1.059
1.05927
1.05949
1.05969
1.05988
1.06004
1.0602
1.06031
1.06038
1.06042
1.06042
1.06035
1.06021
1.06
1.0597
1.05926
1.0588
1.05811
1.05742
1.0565
1.05556
1.05435
1.05313
1.05163
1.05002
1.0483
1.04624
1.04427
1.01255
1.01654
1.02065
1.0247
1.02853
1.03236
1.03573
1.03904
1.0419
1.0445
1.04681
1.04879
1.05052
1.05203
1.05326
1.05437
1.05518
1.05595
1.0565
1.057
1.05743
1.05776
1.0581
1.05837
1.05867
1.05888
1.05911
1.0593
1.05947
1.05964
1.0598
1.05994
1.06008
1.06016
1.06023
1.06026
1.06027
1.06017
1.06003
1.05987
1.05951
1.05918
1.05864
1.05806
1.05733
1.05645
1.05546
1.05425
1.05298
1.05142
1.04981
1.04786
1.04589
1.04365
1.01213
1.01621
1.02004
1.02411
1.02799
1.0317
1.03519
1.0385
1.04142
1.04413
1.04651
1.04856
1.05041
1.05193
1.05331
1.05437
1.05535
1.05605
1.05668
1.05719
1.05759
1.05791
1.05824
1.05848
1.05871
1.05891
1.05911
1.05924
1.05942
1.05956
1.05968
1.05982
1.05992
1.06001
1.06007
1.0601
1.06011
1.06003
1.05991
1.05971
1.05945
1.05908
1.05858
1.05802
1.05723
1.05647
1.05532
1.05429
1.05277
1.05139
1.04941
1.04763
1.04529
1.04294
1.01088
1.01594
1.01855
1.02403
1.02639
1.03106
1.03437
1.03749
1.04053
1.04337
1.04596
1.04817
1.05008
1.05174
1.05311
1.05432
1.05527
1.0561
1.05671
1.05724
1.05763
1.05796
1.05823
1.05847
1.05868
1.05885
1.05902
1.05917
1.0593
1.05945
1.05956
1.05966
1.05979
1.05985
1.05991
1.05996
1.05996
1.05992
1.05978
1.05966
1.05939
1.05903
1.05854
1.05803
1.05722
1.05647
1.05532
1.05426
1.05265
1.05132
1.04895
1.0473
1.0446
1.04216
1.0119
1.01353
1.01928
1.02116
1.02692
1.02878
1.03411
1.03584
1.04076
1.04278
1.04538
1.04735
1.04951
1.05124
1.05279
1.05405
1.05513
1.05599
1.05665
1.05717
1.05758
1.05789
1.05816
1.05838
1.05859
1.05874
1.05889
1.05902
1.05913
1.05927
1.05937
1.05948
1.0596
1.05967
1.05974
1.05982
1.05984
1.05985
1.05972
1.0596
1.05937
1.05905
1.05858
1.05805
1.05731
1.0565
1.05532
1.05425
1.0526
1.05107
1.04885
1.04663
1.04399
1.04173
1.00906
1.01441
1.01622
1.02186
1.02378
1.02932
1.0314
1.03627
1.03877
1.04101
1.04451
1.04646
1.04924
1.05058
1.05252
1.05407
1.05499
1.05565
1.05634
1.05688
1.05735
1.05767
1.05797
1.05817
1.05839
1.05853
1.0587
1.05881
1.05893
1.05905
1.05915
1.05929
1.0594
1.05952
1.05962
1.05971
1.05975
1.05978
1.0597
1.05959
1.0594
1.05908
1.05874
1.0581
1.05748
1.05654
1.05542
1.05429
1.05231
1.05103
1.04808
1.04612
1.04245
1.04114
1.00911
1.01243
1.01605
1.01986
1.0232
1.02768
1.02999
1.03482
1.03694
1.0412
1.04286
1.04637
1.04766
1.05026
1.05148
1.05338
1.05475
1.05547
1.05607
1.05658
1.057
1.05736
1.05766
1.05794
1.05811
1.05832
1.05844
1.05862
1.05873
1.05888
1.05898
1.0591
1.05922
1.05936
1.05948
1.0596
1.05968
1.05975
1.05974
1.05962
1.05952
1.0592
1.05892
1.05829
1.05765
1.05666
1.05563
1.05413
1.05263
1.05036
1.04865
1.04473
1.04352
1.04276
1.0082
1.01114
1.01536
1.01763
1.0233
1.02484
1.03022
1.032
1.03684
1.03868
1.0427
1.04429
1.04748
1.04947
1.05103
1.05231
1.05359
1.0547
1.05552
1.05617
1.05666
1.05702
1.05736
1.05758
1.05783
1.05796
1.05816
1.0583
1.05849
1.0586
1.05875
1.05889
1.05902
1.05921
1.05934
1.05952
1.0597
1.05978
1.05986
1.05976
1.05967
1.05941
1.05916
1.05853
1.05787
1.05684
1.05578
1.05418
1.05255
1.05018
1.04891
1.04514
1.04912
1.04929
1.00676
1.01061
1.0129
1.01816
1.01977
1.02515
1.02713
1.03222
1.03408
1.03856
1.04037
1.04407
1.04559
1.04857
1.04969
1.05189
1.05341
1.05418
1.05484
1.05546
1.05595
1.05639
1.05676
1.05706
1.05737
1.0576
1.0578
1.05793
1.05812
1.05828
1.05848
1.05865
1.05885
1.05908
1.05927
1.05947
1.0597
1.05984
1.05999
1.05994
1.05986
1.0597
1.05943
1.0588
1.05816
1.05711
1.05595
1.05423
1.05255
1.04977
1.05258
1.04852
1.0835
1.07792
1.00608
1.00883
1.0127
1.01517
1.02025
1.022
1.02731
1.02914
1.03405
1.03587
1.04012
1.04177
1.04521
1.04658
1.04916
1.05091
1.05204
1.05316
1.05405
1.0548
1.05526
1.05571
1.05609
1.05646
1.05673
1.05701
1.05728
1.05752
1.05773
1.05796
1.05823
1.05847
1.05875
1.05905
1.05928
1.05951
1.05977
1.05997
1.06018
1.06018
1.06011
1.06007
1.05977
1.05917
1.05845
1.05724
1.0562
1.05402
1.05341
1.05024
1.06788
1.07115
1.1802
1.38844
1.00472
1.00797
1.0109
1.01479
1.01729
1.02242
1.02405
1.02926
1.03104
1.03571
1.03746
1.04138
1.04293
1.04611
1.04725
1.04973
1.05115
1.05212
1.05296
1.05379
1.05436
1.05487
1.05523
1.05571
1.05613
1.05652
1.05677
1.05704
1.05731
1.05757
1.05791
1.0582
1.05856
1.05891
1.05926
1.05958
1.0599
1.06014
1.06041
1.06049
1.06046
1.06047
1.06011
1.05952
1.0587
1.05765
1.05599
1.05402
1.05765
1.05862
1.12121
1.25469
1.55928
1.85132
1.00383
1.00664
1.00993
1.01312
1.01667
1.01987
1.0239
1.02637
1.03126
1.03273
1.03711
1.03881
1.04235
1.04388
1.04673
1.04784
1.05005
1.05102
1.0519
1.05277
1.05341
1.05396
1.05439
1.05479
1.05515
1.05562
1.05596
1.05631
1.05669
1.0571
1.05756
1.05802
1.05843
1.05885
1.05924
1.05958
1.05992
1.06023
1.06061
1.06081
1.06084
1.06084
1.06051
1.05984
1.0591
1.05759
1.05651
1.05568
1.07605
1.11531
1.33172
1.764
1.93907
1.98463
1.00267
1.00568
1.00877
1.01192
1.01543
1.01851
1.02261
1.02487
1.02976
1.03122
1.03562
1.03718
1.04086
1.04231
1.0454
1.04675
1.04772
1.04942
1.05082
1.05132
1.05196
1.05258
1.0531
1.05361
1.054
1.05453
1.05516
1.05571
1.05623
1.0567
1.05722
1.05776
1.05831
1.05885
1.05938
1.05983
1.0603
1.06069
1.06106
1.0613
1.06132
1.06125
1.06083
1.06022
1.05913
1.05808
1.05761
1.0732
1.12963
1.4158
1.78598
1.97237
2.04574
2.04644
1.00176
1.0046
1.00769
1.01095
1.01411
1.01771
1.02052
1.02494
1.02661
1.03108
1.0328
1.03668
1.0382
1.04136
1.04284
1.04544
1.04658
1.04733
1.04878
1.04982
1.05053
1.05109
1.05161
1.05226
1.05288
1.05342
1.054
1.05472
1.05549
1.05625
1.05693
1.05756
1.05819
1.05885
1.05947
1.06003
1.06058
1.06101
1.06135
1.06164
1.06169
1.06151
1.0611
1.06051
1.0593
1.05884
1.06869
1.13061
1.42374
1.84671
2.03732
2.06946
2.06005
2.04234
1.00066
1.00358
1.0067
1.01
1.01308
1.01645
1.01968
1.02296
1.02578
1.02958
1.03114
1.03501
1.03645
1.03963
1.04075
1.04324
1.04412
1.046
1.04722
1.04778
1.04848
1.04924
1.04974
1.05031
1.05096
1.05169
1.05246
1.05332
1.05432
1.05536
1.05637
1.05727
1.05806
1.05886
1.05958
1.06021
1.06081
1.06135
1.06167
1.06204
1.06204
1.06178
1.0614
1.0603
1.0596
1.06541
1.11589
1.39064
1.87278
2.05354
2.07868
2.07243
2.05841
2.04009
1.00022
1.00273
1.00567
1.00873
1.0121
1.01523
1.01861
1.02155
1.02467
1.02717
1.0307
1.03201
1.03563
1.03657
1.03938
1.0405
1.04256
1.04339
1.04498
1.04588
1.04665
1.04741
1.04822
1.04873
1.04918
1.04984
1.05068
1.05174
1.05288
1.0541
1.05553
1.05679
1.05783
1.05882
1.05967
1.06039
1.06107
1.0617
1.06205
1.06235
1.06221
1.06193
1.06127
1.06034
1.06268
1.09716
1.31607
1.86341
2.0637
2.08958
2.08226
2.07016
2.05442
2.03821
1.0029
1.00367
1.00573
1.0082
1.01144
1.01435
1.01757
1.02052
1.02336
1.02617
1.0284
1.03112
1.03252
1.03536
1.03688
1.03921
1.0412
1.04334
1.0452
1.04784
1.0488
1.05026
1.05035
1.05107
1.04984
1.04977
1.05021
1.05042
1.05141
1.05276
1.05429
1.05597
1.05742
1.05867
1.05972
1.06057
1.06139
1.06201
1.06239
1.06248
1.06225
1.06183
1.06078
1.06101
1.08062
1.23212
1.81162
2.06641
2.09826
2.0904
2.07905
2.0664
2.05266
2.03461
1.01225
1.00835
1.00768
1.00887
1.01101
1.0136
1.01646
1.01917
1.0218
1.02437
1.0266
1.02854
1.03129
1.03359
1.03734
1.04182
1.04657
1.05446
1.05543
1.07043
1.08226
1.084
1.0848
1.07858
1.06769
1.05708
1.05097
1.05058
1.05097
1.05178
1.05329
1.05511
1.0569
1.05843
1.05968
1.06077
1.06166
1.06228
1.06249
1.06242
1.06208
1.06138
1.06049
1.06817
1.16598
1.69953
2.06347
2.10319
2.0975
2.08697
2.07621
2.06394
2.04879
2.02948
1.03357
1.01863
1.01264
1.01141
1.01205
1.0143
1.01644
1.01878
1.02096
1.023
1.02506
1.02776
1.03348
1.0382
1.05198
1.06138
1.07816
1.13133
1.17615
1.24342
1.31515
1.3189
1.32064
1.26411
1.18993
1.12706
1.08767
1.06216
1.05236
1.05085
1.05213
1.05414
1.05626
1.05807
1.05958
1.06084
1.06176
1.06226
1.06243
1.06222
1.06172
1.06031
1.06202
1.11181
1.52809
2.02676
2.10425
2.10303
2.09392
2.0837
2.07356
2.06069
2.0446
2.02401
1.07088
1.03678
1.02125
1.01538
1.01389
1.01496
1.0164
1.01804
1.02019
1.02311
1.02559
1.03298
1.05753
1.06306
1.12401
1.23313
1.40525
1.55104
1.66218
1.75348
1.79068
1.78063
1.7694
1.67879
1.62049
1.4104
1.18154
1.09429
1.06369
1.05352
1.05168
1.05323
1.05556
1.05763
1.05947
1.06086
1.06175
1.06214
1.06207
1.06176
1.06087
1.05951
1.07826
1.35723
1.94666
2.09883
2.10678
2.09954
2.09016
2.08184
2.0707
2.05757
2.04002
2.01781
1.09398
1.04748
1.0261
1.0174
1.01477
1.01511
1.01615
1.01793
1.02107
1.02865
1.03863
1.07921
1.15833
1.37468
1.58856
1.75409
1.85967
1.92724
1.96193
1.97847
1.98108
1.9761
1.96712
1.91021
1.8892
1.70432
1.44659
1.1791
1.08383
1.05718
1.05161
1.05246
1.05489
1.05715
1.05915
1.06055
1.06145
1.06162
1.06155
1.06102
1.05906
1.06791
1.22981
1.81429
2.08123
2.10824
2.1035
2.09538
2.08754
2.07893
2.06751
2.05349
2.03501
2.01086
1.08085
1.04063
1.023
1.01612
1.01436
1.01497
1.01792
1.0211
1.04759
1.06786
1.19438
1.46243
1.70168
1.85517
1.93828
1.97759
1.99146
1.99637
1.99702
1.99567
1.98339
1.97521
1.9678
1.96071
1.94032
1.86783
1.66501
1.32706
1.13676
1.06955
1.05328
1.05212
1.05446
1.05675
1.059
1.06031
1.0608
1.06103
1.06068
1.0596
1.0679
1.17956
1.70701
2.05315
2.10698
2.10549
2.09889
2.09161
2.08478
2.07449
2.06396
2.04897
2.03011
2.00496
1.05041
1.0259
1.01631
1.01281
1.01415
1.02158
1.034
1.09057
1.21148
1.54719
1.77583
1.9106
1.97092
1.99149
1.99221
1.9861
1.96915
1.94061
1.93094
1.90298
1.88623
1.89226
1.91471
1.93553
1.93164
1.8956
1.72494
1.36279
1.13855
1.0679
1.05183
1.05122
1.05389
1.05673
1.05855
1.05967
1.06001
1.05998
1.06031
1.0748
1.20061
1.72465
2.03822
2.10346
2.10617
2.10057
2.09394
2.08824
2.08
2.07115
2.06019
2.04505
2.02586
2.00012
1.01852
1.01161
1.01014
1.01583
1.03661
1.11423
1.3004
1.61488
1.84958
1.95947
1.9958
2.00108
1.9924
1.97879
1.93782
1.87756
1.78334
1.74872
1.69735
1.62683
1.63244
1.6651
1.73366
1.84449
1.90702
1.87878
1.71536
1.34336
1.13467
1.06235
1.04935
1.05045
1.05364
1.0563
1.0579
1.05853
1.05916
1.06077
1.08207
1.21274
1.72428
2.02208
2.09826
2.10537
2.10093
2.09488
2.0893
2.08331
2.07506
2.06725
2.05629
2.04154
2.02282
1.99734
1.00597
1.01639
1.0446
1.14837
1.37793
1.762
1.94969
2.00369
2.01474
2.01131
1.99763
1.97005
1.91306
1.81423
1.70449
1.54958
1.41444
1.31715
1.25434
1.2494
1.26699
1.31448
1.45912
1.70975
1.83685
1.82342
1.61977
1.27545
1.09303
1.05158
1.04717
1.04992
1.05316
1.05545
1.05683
1.05741
1.06037
1.08883
1.21083
1.71333
2.00283
2.09061
2.10246
2.09966
2.09453
2.08957
2.08404
2.07788
2.07041
2.06192
2.05206
2.03825
2.02106
1.99819
1.15607
1.324
1.62057
1.89818
1.99652
2.01546
2.01894
2.01422
1.99866
1.96615
1.90868
1.80983
1.66781
1.46277
1.23633
1.14893
1.116
1.09676
1.09791
1.11005
1.1502
1.24795
1.46511
1.71603
1.83198
1.80003
1.48002
1.15735
1.06023
1.04504
1.04619
1.05006
1.05309
1.05477
1.05625
1.06454
1.09965
1.18828
1.71524
1.97131
2.08416
2.09808
2.09763
2.09317
2.08875
2.0834
2.07833
2.07136
2.06495
2.05594
2.04692
2.03512
2.01937
2.00006
1.86536
1.95363
2.00012
2.01498
2.018
2.01332
1.99787
1.9682
1.91666
1.82966
1.69172
1.47833
1.22542
1.10624
1.07613
1.07647
1.08101
1.09467
1.11662
1.12727
1.17575
1.30978
1.56551
1.72348
1.74096
1.60011
1.23582
1.07668
1.04565
1.04332
1.04611
1.04966
1.05188
1.05386
1.06236
1.08258
1.17028
1.74778
1.93368
2.07579
2.09205
2.09516
2.09112
2.08719
2.08244
2.07803
2.07181
2.06616
2.05836
2.05082
2.04062
2.0299
2.01587
1.99828
2.00595
2.01225
2.01479
2.01084
1.99607
1.97037
1.92576
1.85274
1.7363
1.5621
1.31803
1.11036
1.05183
1.05178
1.07041
1.14512
1.25722
1.2847
1.27509
1.27369
1.36287
1.53435
1.64668
1.69919
1.63201
1.30172
1.09232
1.0481
1.04038
1.04302
1.04717
1.05075
1.05611
1.06823
1.0909
1.2295
1.7726
1.91126
2.06186
2.08635
2.09273
2.08918
2.08507
2.08094
2.07703
2.07162
2.06642
2.05927
2.0527
2.04371
2.03465
2.02325
2.01056
1.99436
2.01207
2.0079
1.99508
1.97127
1.93362
1.87163
1.77614
1.6372
1.44851
1.21179
1.06973
1.03181
1.03617
1.07742
1.1735
1.28991
1.37165
1.4018
1.41645
1.44699
1.50114
1.5574
1.57906
1.58279
1.24028
1.09534
1.05313
1.03721
1.04068
1.04357
1.04688
1.04952
1.05395
1.08729
1.27261
1.7104
1.92801
2.05291
2.07926
2.08998
2.08669
2.08285
2.07851
2.07497
2.07011
2.06541
2.05918
2.05318
2.04522
2.03742
2.02756
2.0171
2.00489
1.99121
1.99259
1.97136
1.93821
1.88574
1.80705
1.69603
1.54893
1.36648
1.157
1.05367
1.02554
1.02575
1.05164
1.11586
1.21608
1.32112
1.38108
1.41363
1.43654
1.46505
1.49059
1.50304
1.42712
1.18419
1.09653
1.04014
1.03997
1.03777
1.04208
1.04805
1.0584
1.07795
1.13912
1.28455
1.66611
1.97216
2.03291
2.08176
2.08415
2.08477
2.08044
2.07661
2.07239
2.0686
2.06349
2.05873
2.05236
2.04628
2.03813
2.03014
2.02052
2.01011
1.99822
1.98526
1.94486
1.89898
1.83217
1.73952
1.62081
1.47641
1.31219
1.13557
1.05299
1.02117
1.01917
1.02766
1.05186
1.0911
1.15256
1.23682
1.31285
1.34211
1.36202
1.36452
1.3198
1.24003
1.12985
1.05271
1.05195
1.03276
1.03731
1.03965
1.04399
1.048
1.05807
1.11112
1.34614
1.77444
1.91777
2.05512
2.06567
2.08398
2.08101
2.07898
2.07436
2.07084
2.06627
2.06239
2.05703
2.05218
2.04547
2.03927
2.03103
2.0228
2.01314
2.00271
1.99081
1.97774
1.86147
1.78228
1.6801
1.55652
1.41965
1.27648
1.13308
1.05696
1.0182
1.01794
1.01681
1.02119
1.03322
1.05029
1.07453
1.10897
1.14845
1.15703
1.16703
1.14736
1.11087
1.07149
1.04974
1.03304
1.03865
1.03563
1.04012
1.04985
1.06024
1.10101
1.18854
1.41988
1.76897
1.94946
2.0494
2.06893
2.08162
2.07978
2.07773
2.07302
2.06948
2.06471
2.06091
2.05571
2.05066
2.04482
2.0384
2.0315
2.02354
2.01484
2.00509
1.99448
1.9827
1.96979
1.74865
1.63869
1.51244
1.37853
1.25029
1.13389
1.06017
1.01886
1.01982
1.01534
1.01549
1.01731
1.02287
1.0294
1.0376
1.04803
1.05909
1.06063
1.06364
1.05191
1.04421
1.02903
1.03353
1.03269
1.03685
1.03833
1.05359
1.05589
1.09109
1.13383
1.49954
1.87231
1.94295
2.05238
2.07098
2.08069
2.07913
2.07739
2.07215
2.06884
2.06348
2.05973
2.05458
2.04924
2.04373
2.03746
2.03084
2.02351
2.01539
2.00635
1.99626
1.9853
1.97345
1.96058
1.62796
1.49667
1.36115
1.23378
1.12804
1.06223
1.02263
1.02481
1.01707
1.01695
1.0167
1.01756
1.02006
1.02248
1.02457
1.02758
1.02933
1.03131
1.03207
1.02945
1.02933
1.03116
1.03506
1.03903
1.04547
1.05316
1.06003
1.12135
1.23129
1.7866
1.76923
2.02162
2.03435
2.07354
2.08264
2.07862
2.07805
2.07212
2.06935
2.06337
2.05937
2.05421
2.0491
2.04314
2.03744
2.0307
2.02378
2.01611
2.00772
1.99836
1.98802
1.97671
1.96454
1.95158
1.52162
1.3768
1.24088
1.12797
1.06284
1.03014
1.02491
1.02061
1.02052
1.0187
1.01959
1.02034
1.0216
1.02248
1.02364
1.02481
1.026
1.0274
1.0284
1.03006
1.0328
1.03527
1.04091
1.04295
1.05034
1.07578
1.16812
1.33105
1.66592
1.93933
1.93844
2.06732
2.06579
2.08403
2.08023
2.07965
2.07363
2.07072
2.06469
2.05974
2.05468
2.04921
2.04307
2.03716
2.03035
2.02355
2.016
2.00824
1.99955
1.99018
1.97961
1.96795
1.95515
1.94182
1.46691
1.30682
1.1655
1.06935
1.0345
1.03197
1.02782
1.02203
1.02217
1.02205
1.02331
1.02454
1.0259
1.02676
1.02745
1.02823
1.02941
1.03091
1.03264
1.03631
1.03871
1.04424
1.05329
1.0728
1.11307
1.1987
1.39995
1.71223
1.95568
2.00724
2.05571
2.07653
2.08521
2.08426
2.08034
2.07834
2.07101
2.06817
2.06027
2.05682
2.04971
2.04436
2.03741
2.03116
2.02376
2.01659
2.00856
2.0003
1.99121
1.98144
1.97079
1.95921
1.94667
1.93333
1.45168
1.28356
1.13571
1.05671
1.03854
1.03647
1.02613
1.02645
1.02436
1.02604
1.02714
1.02861
1.02986
1.03081
1.03192
1.03349
1.03499
1.03666
1.0408
1.0432
1.05054
1.06125
1.08264
1.12823
1.2379
1.43801
1.84641
1.90521
2.04475
2.04427
2.08418
2.08309
2.08795
2.08246
2.08156
2.07443
2.07115
2.06319
2.05966
2.05129
2.04644
2.03867
2.03224
2.02452
2.01705
2.00886
2.00057
1.99165
1.98223
1.9721
1.96119
1.94939
1.93675
1.92333
1.45652
1.28632
1.14058
1.03896
1.04967
1.03064
1.03254
1.02715
1.02878
1.02899
1.03079
1.03239
1.03397
1.03539
1.03691
1.03891
1.04063
1.04417
1.04802
1.05508
1.06918
1.10029
1.16152
1.26898
1.46229
1.83769
1.91977
2.03811
2.04781
2.08453
2.08543
2.09008
2.08657
2.08407
2.07885
2.07413
2.06758
2.06148
2.05573
2.048
2.04156
2.03351
2.02618
2.01791
2.00972
2.00101
1.99209
1.98264
1.97266
1.96205
1.95085
1.93896
1.92654
1.9134
1.52939
1.3426
1.16623
1.08147
1.04113
1.03838
1.03605
1.03141
1.03299
1.03361
1.03544
1.03721
1.03919
1.04081
1.04271
1.04505
1.04859
1.055
1.06385
1.08119
1.11401
1.16839
1.27702
1.50265
1.82514
1.93414
2.04643
2.05871
2.09108
2.08709
2.09413
2.08957
2.08749
2.083
2.07717
2.07214
2.06481
2.05967
2.05154
2.04431
2.03647
2.02825
2.01996
2.01105
2.00209
1.99277
1.9833
1.97342
1.96336
1.95274
1.94169
1.92981
1.91733
1.90394
1.65034
1.46918
1.28011
1.10754
1.076
1.03833
1.04512
1.03824
1.03797
1.03896
1.04082
1.04274
1.04537
1.04711
1.05006
1.05433
1.06051
1.07137
1.08838
1.1253
1.18844
1.32315
1.57479
1.80448
1.99418
1.9959
2.07333
2.07273
2.09402
2.08994
2.09493
2.08889
2.08809
2.08054
2.07746
2.06885
2.06408
2.0555
2.04809
2.04005
2.03133
2.02239
2.01305
2.00327
1.99356
1.98346
1.97339
1.96291
1.95228
1.94131
1.92997
1.91828
1.90566
1.89222
1.80488
1.65243
1.46189
1.2728
1.11161
1.07934
1.05867
1.05778
1.04718
1.04961
1.0503
1.05286
1.0567
1.0604
1.06625
1.0757
1.09056
1.11592
1.16093
1.24523
1.41242
1.62928
1.81953
2.01208
2.00889
2.07514
2.07338
2.09511
2.09262
2.09784
2.09312
2.08957
2.08675
2.07919
2.07471
2.06673
2.06101
2.05184
2.04436
2.03496
2.02563
2.01575
2.00534
1.99488
1.98414
1.97324
1.96229
1.95118
1.94035
1.92892
1.91743
1.90505
1.89216
1.87873
1.9395
1.85975
1.73287
1.55415
1.35997
1.18691
1.13171
1.09562
1.09781
1.08282
1.08436
1.08615
1.09618
1.1082
1.12449
1.15277
1.1987
1.28105
1.39502
1.55724
1.71522
1.8789
1.98334
2.05882
2.05843
2.08627
2.08909
2.09836
2.09666
2.0977
2.09224
2.09017
2.08362
2.07807
2.07188
2.06481
2.05719
2.04802
2.03969
2.02952
2.01947
2.00858
1.99725
1.98556
1.97347
1.96187
1.94997
1.93873
1.92572
1.91368
1.901
1.88834
1.87519
1.86143
2.00921
1.97672
1.92145
1.83556
1.71887
1.58235
1.43416
1.34501
1.26537
1.2712
1.25655
1.25846
1.29476
1.33668
1.38181
1.44388
1.52726
1.61202
1.72091
1.82937
1.93642
2.01444
2.05382
2.0805
2.07989
2.09695
2.09559
2.10131
2.09733
2.09704
2.09108
2.08852
2.08095
2.0771
2.06826
2.06252
2.05253
2.04486
2.03403
2.02382
2.01228
2.00021
1.9874
1.97429
1.96235
1.94907
1.93647
1.92315
1.91076
1.89811
1.88563
1.87284
1.85962
1.8447
2.04586
2.03889
2.02329
1.99303
1.94667
1.8824
1.80918
1.73935
1.69425
1.65041
1.65035
1.64556
1.66988
1.7056
1.72815
1.76961
1.82432
1.88141
1.94225
1.99848
2.04132
2.07866
2.07672
2.09467
2.09305
2.10177
2.09904
2.10133
2.09665
2.09548
2.08918
2.08677
2.07866
2.07481
2.06477
2.05925
2.04799
2.04032
2.02852
2.01755
2.00445
1.99091
1.97648
1.96361
1.94764
1.93318
1.91897
1.90441
1.89129
1.87822
1.86602
1.85439
1.84163
1.82671
2.06526
2.06824
2.0698
2.06525
2.05644
2.03888
2.01487
1.98785
1.96227
1.93675
1.93708
1.93095
1.93692
1.95208
1.95813
1.97688
2.0036
2.02933
2.05239
2.07364
2.08556
2.09573
2.0931
2.10221
2.09937
2.10386
2.10024
2.10082
2.09581
2.09425
2.08776
2.0848
2.07699
2.0718
2.06259
2.05518
2.04455
2.03508
2.02228
2.00998
1.99523
1.98018
1.96571
1.94864
1.9325
1.91689
1.902
1.88766
1.87616
1.86429
1.85458
1.84416
1.83129
1.81342
2.07797
2.08518
2.09266
2.09755
2.10174
2.10191
2.09953
2.09434
2.08732
2.07955
2.07709
2.07353
2.07262
2.07466
2.07382
2.07925
2.08663
2.09312
2.09763
2.10191
2.10361
2.10351
2.10289
2.10641
2.10313
2.10441
2.10029
2.09956
2.09452
2.09255
2.08606
2.08266
2.0744
2.06925
2.05912
2.05194
2.04028
2.02988
2.01606
2.00196
1.9857
1.96992
1.95137
1.93318
1.91518
1.89662
1.88047
1.86741
1.85518
1.84585
1.83867
1.831
1.823
1.80862
2.08743
2.09791
2.10687
2.11651
2.12413
2.13099
2.13609
2.13888
2.13974
2.13952
2.13779
2.13551
2.13292
2.12926
2.12563
2.12345
2.12062
2.11863
2.11562
2.11363
2.1112
2.10918
2.10764
2.10683
2.10424
2.10271
2.09999
2.0973
2.09328
2.09095
2.08386
2.08078
2.07228
2.06673
2.05652
2.04847
2.03641
2.02448
2.00957
1.99352
1.97637
1.95634
1.93601
1.91532
1.8946
1.87684
1.86235
1.85094
1.84237
1.83885
1.83798
1.83911
1.84008
1.83112
2.09539
2.10642
2.11879
2.12894
2.13987
2.14855
2.15617
2.16178
2.16565
2.16697
2.1669
2.1649
2.15975
2.15647
2.14886
2.14187
2.13644
2.12925
2.12361
2.11913
2.11431
2.11145
2.10838
2.10617
2.10341
2.10137
2.09873
2.09578
2.0924
2.08862
2.08334
2.07849
2.07133
2.0646
2.0545
2.04545
2.03276
2.01943
2.00312
1.9865
1.96524
1.94333
1.92052
1.8983
1.87758
1.86072
1.84886
1.8426
1.84159
1.84562
1.8516
1.85627
1.85843
1.85605
1.04396
1.04189
1.03988
1.03777
1.03573
1.03366
1.03161
1.02961
1.02763
1.02578
1.02393
1.0222
1.0205
1.01887
1.01725
1.01562
1.01401
1.01228
1.01058
1.0087
1.04409
1.04128
1.03973
1.03769
1.03561
1.03362
1.03151
1.02945
1.02749
1.02557
1.02373
1.02195
1.02025
1.01859
1.01699
1.01534
1.01372
1.01201
1.01023
1.00838
1.04369
1.04161
1.03961
1.03741
1.03534
1.03319
1.03107
1.02902
1.02701
1.02505
1.02322
1.02141
1.01972
1.018
1.0164
1.01473
1.0131
1.0114
1.00961
1.00773
1.04332
1.04128
1.03917
1.03704
1.03481
1.03267
1.03049
1.02835
1.02628
1.02425
1.02237
1.02052
1.0188
1.01711
1.01546
1.01382
1.01219
1.01037
1.00871
1.00674
1.043
1.0409
1.03867
1.03642
1.03418
1.03185
1.02962
1.02735
1.02521
1.02308
1.02115
1.01925
1.01751
1.01574
1.01413
1.01255
1.01066
1.00936
1.00714
1.00565
1.04259
1.04031
1.03799
1.03563
1.0332
1.03076
1.02839
1.026
1.02373
1.02152
1.01945
1.01755
1.01568
1.01403
1.01237
1.01066
1.00914
1.00728
1.00581
1.0038
1.04195
1.03955
1.03714
1.03449
1.03194
1.02932
1.0267
1.02422
1.02176
1.01943
1.01721
1.01524
1.01332
1.01162
1.01004
1.00822
1.00692
1.00518
1.00366
1.00202
1.04116
1.03868
1.0359
1.03313
1.03024
1.02736
1.02455
1.02179
1.01917
1.01663
1.01439
1.01218
1.01037
1.00869
1.00688
1.00555
1.00394
1.00259
1.00113
0.999493
1.04026
1.03742
1.03435
1.03125
1.02803
1.02484
1.02171
1.01866
1.01582
1.01303
1.01072
1.00834
1.00665
1.00477
1.00336
1.00171
1.00061
0.999214
0.997927
0.996769
1.0392
1.03582
1.03246
1.02886
1.02526
1.02175
1.01825
1.01484
1.01161
1.00859
1.00599
1.00347
1.00182
0.999987
0.998724
0.997525
0.996355
0.995213
0.994354
0.993197
1.03743
1.03418
1.03096
1.02708
1.024
1.02084
1.01748
1.0139
1.00972
1.00543
1.00171
0.998946
0.995228
0.99498
0.991929
0.992031
0.991209
0.991009
0.990461
0.989746
1.03587
1.03593
1.03188
1.03188
1.03388
1.03443
1.03524
1.03272
1.02762
1.0168
1.01086
0.998016
0.999089
0.986962
0.989134
0.983968
0.984208
0.983809
0.984563
0.984932
1.03713
1.05088
1.04684
1.07402
1.10102
1.11587
1.13624
1.1377
1.12159
1.11579
1.07415
1.04629
1.01447
1.00401
0.986673
0.985041
0.979658
0.979738
0.978158
0.978576
1.06306
1.10797
1.17515
1.2565
1.35962
1.42041
1.48329
1.48544
1.47741
1.42107
1.36637
1.26019
1.16815
1.05199
1.03089
0.998252
0.977953
0.972013
0.973195
0.974267
1.22773
1.3832
1.56423
1.69871
1.75872
1.79251
1.78572
1.75556
1.74424
1.68927
1.62692
1.64838
1.45426
1.47463
1.13927
1.04823
1.01762
0.989518
0.970668
0.966676
1.62659
1.80164
1.89242
1.91396
1.89869
1.86065
1.83589
1.77472
1.75629
1.69391
1.68469
1.64636
1.64347
1.50442
1.56894
1.37997
1.07839
1.01211
0.991633
0.980206
1.96365
1.98313
1.97161
1.94273
1.89584
1.86938
1.74066
1.73509
1.59365
1.54342
1.54223
1.55354
1.57662
1.56388
1.55474
1.48552
1.50311
1.15235
0.992676
0.966338
2.01126
2.00019
1.97273
1.92282
1.875
1.73008
1.66939
1.46912
1.37213
1.2991
1.28524
1.27222
1.353
1.47439
1.50054
1.49343
1.52138
1.35482
1.18074
1.02329
2.02561
1.99869
1.9573
1.9093
1.82289
1.72603
1.5671
1.43347
1.31215
1.23036
1.19004
1.18129
1.1741
1.23656
1.39255
1.45593
1.48087
1.42504
1.33598
1.10983
2.02053
1.99095
1.95161
1.89788
1.82099
1.71045
1.55999
1.41146
1.2914
1.20995
1.17001
1.15259
1.14484
1.16566
1.23559
1.35827
1.43801
1.42303
1.41544
1.194
2.01857
1.993
1.96133
1.91914
1.86141
1.7806
1.65315
1.49528
1.34231
1.23417
1.18007
1.16623
1.17809
1.18858
1.24593
1.34243
1.40884
1.41242
1.41955
1.28485
2.01761
1.99182
1.9598
1.92042
1.87215
1.81295
1.73562
1.63137
1.49247
1.32976
1.22575
1.18495
1.20169
1.2789
1.31349
1.35791
1.39802
1.40544
1.401
1.30953
2.01243
1.98567
1.95261
1.91383
1.86567
1.81212
1.7467
1.67507
1.59327
1.47573
1.30992
1.19472
1.15156
1.24856
1.32988
1.36487
1.38918
1.39163
1.38966
1.2883
2.00604
1.97713
1.94225
1.89966
1.85111
1.79524
1.73866
1.67539
1.61431
1.5497
1.46755
1.31612
1.16266
1.11505
1.26748
1.3365
1.3637
1.37679
1.34353
1.27446
1.9982
1.96579
1.925
1.87581
1.81652
1.75477
1.69075
1.63615
1.5933
1.55365
1.5094
1.45554
1.35232
1.1389
1.07449
1.17189
1.27058
1.29869
1.29766
1.18995
1.9888
1.95099
1.90158
1.83678
1.75978
1.67407
1.59159
1.52053
1.47968
1.46849
1.46976
1.46814
1.45721
1.39409
1.19423
1.06161
1.07847
1.13463
1.14067
1.10396
1.97874
1.93525
1.87569
1.79624
1.69699
1.58657
1.47027
1.36958
1.2765
1.26823
1.27164
1.30847
1.4109
1.44124
1.43143
1.25174
1.06875
1.03867
1.03509
1.02691
1.97066
1.92318
1.85631
1.76639
1.65293
1.51753
1.38331
1.25754
1.1516
1.05204
1.05623
1.06182
1.11926
1.26923
1.39088
1.40883
1.26813
1.07714
1.01684
0.990267
1.9651
1.91523
1.8445
1.74806
1.62568
1.48545
1.33578
1.19732
1.08763
1.02487
0.985643
0.9853
0.999186
1.04135
1.15697
1.29504
1.31958
1.23909
1.088
0.994045
1.96159
1.9105
1.83776
1.73781
1.60909
1.45701
1.29854
1.1526
1.06192
0.977406
0.978221
0.970668
0.983498
1.00668
1.05917
1.15495
1.25289
1.26991
1.21362
1.09603
1.96579
1.91746
1.84451
1.74045
1.6055
1.4492
1.28669
1.13853
1.02092
0.98391
0.966476
0.972927
0.984959
1.01846
1.06609
1.12402
1.20615
1.2526
1.25856
1.20428
1.97415
1.93625
1.87678
1.78418
1.65044
1.48084
1.29834
1.13325
1.0345
0.965149
0.962649
0.965331
0.993356
1.03151
1.11052
1.17467
1.22652
1.26656
1.26975
1.25876
1.97688
1.94878
1.90768
1.84156
1.73708
1.58588
1.39869
1.20773
1.04342
0.999614
0.943351
0.961895
0.956718
1.01522
1.08545
1.18315
1.22242
1.26779
1.26994
1.2591
1.97485
1.9512
1.92039
1.87635
1.808
1.70054
1.54385
1.35098
1.15683
1.03094
0.949916
0.954708
0.944871
0.947574
0.991232
1.06141
1.15231
1.19306
1.21976
1.21322
1.97415
1.95375
1.92891
1.89714
1.85262
1.78504
1.68148
1.52822
1.33657
1.14615
1.0159
0.955529
0.960028
0.9413
0.943338
0.951429
0.991383
1.0399
1.0501
1.06927
1.97107
1.95452
1.9359
1.91263
1.88451
1.84755
1.7906
1.70733
1.58446
1.40952
1.20649
1.0677
0.953553
0.955878
0.944337
0.942162
0.936449
0.946394
0.957922
0.968336
1.96357
1.94872
1.93312
1.91554
1.89609
1.87471
1.85103
1.81502
1.75905
1.67312
1.5532
1.37678
1.18255
1.04544
0.947454
0.993079
0.949224
0.947022
0.944272
0.953613
1.95581
1.94099
1.92542
1.90957
1.89271
1.87756
1.85809
1.84136
1.82053
1.7966
1.75529
1.69565
1.60638
1.47706
1.31871
1.09302
1.04048
0.956981
0.992792
0.972294
1.9469
1.93257
1.91783
1.90315
1.88852
1.87399
1.86405
1.84891
1.84075
1.83433
1.82773
1.81871
1.80313
1.77763
1.73631
1.68103
1.57689
1.46449
1.30547
1.21672
1.93796
1.92362
1.90895
1.89414
1.87992
1.86653
1.8544
1.84636
1.838
1.83659
1.83652