/*--------------------------------*- C++ -*----------------------------------*\
  =========                 |
  \\      /  F ield         | OpenFOAM: The Open Source CFD Toolbox
   \\    /   O peration     | Website:  https://openfoam.org
    \\  /    A nd           | Version:  10
     \\/     M anipulation  |
\*---------------------------------------------------------------------------*/
FoamFile
{
    format      ascii;
    class       volScalarField;
    location    "0.550995";
    object      T;
}
// * * * * * * * * * * * * * * * * * * * * * * * * * * * * * * * * * * * * * //

dimensions      [0 0 0 1 0 0 0];

internalField   nonuniform List<scalar> 
15984
(
0.00875427
0.00877053
0.00878624
0.00880079
0.00881403
0.0088267
0.0088379
0.00884803
0.00885653
0.00886383
0.00887038
0.00887612
0.00888041
0.00888498
0.00888737
0.00889105
0.00889273
0.00889596
0.00889763
0.0089002
0.00890257
0.00890401
0.00890641
0.00890793
0.00891005
0.00891202
0.00891368
0.00891584
0.00891742
0.00891923
0.00892094
0.00892245
0.00892374
0.00892468
0.00892548
0.00892593
0.00892591
0.00892584
0.00892533
0.00892441
0.00892286
0.00892156
0.00891897
0.00891714
0.0089138
0.00891115
0.00890656
0.00890364
0.00889763
0.00889394
0.00888717
0.0088828
0.00887536
0.0088704
0.00876921
0.00876225
0.00879629
0.00879944
0.00882001
0.00883109
0.00884322
0.00885105
0.00886111
0.00886735
0.00887466
0.00887972
0.00888493
0.00888825
0.00889187
0.00889456
0.00889749
0.0088995
0.00890182
0.00890406
0.00890588
0.00890752
0.00890919
0.0089111
0.00891239
0.00891425
0.00891577
0.00891756
0.00891899
0.00892082
0.00892195
0.00892319
0.00892428
0.00892512
0.0089257
0.00892594
0.00892589
0.00892569
0.00892496
0.00892363
0.00892251
0.00892078
0.00891844
0.00891642
0.00891308
0.00891015
0.00890588
0.00890312
0.0088955
0.00889532
0.00888474
0.00888501
0.00887221
0.0088726
0.00876292
0.008779
0.00879459
0.00880762
0.00882197
0.00883309
0.00884488
0.00885412
0.00886378
0.00887056
0.0088779
0.00888329
0.00888798
0.00889236
0.00889537
0.0088984
0.00890104
0.00890307
0.00890572
0.00890698
0.00890943
0.00891051
0.00891236
0.00891347
0.00891505
0.00891651
0.00891799
0.00891923
0.0089209
0.00892192
0.00892339
0.00892415
0.00892501
0.00892575
0.00892608
0.00892618
0.00892606
0.00892565
0.0089247
0.00892359
0.00892223
0.00892008
0.00891832
0.00891547
0.00891291
0.00890889
0.00890628
0.00890055
0.00889803
0.00888962
0.00888968
0.00887701
0.00887828
0.00886629
0.00876139
0.00877984
0.00879287
0.00880988
0.00882183
0.00883546
0.00884641
0.00885635
0.00886581
0.00887287
0.00888058
0.00888564
0.00889117
0.00889495
0.00889859
0.00890134
0.00890373
0.00890667
0.00890797
0.00891039
0.00891152
0.00891325
0.00891428
0.00891606
0.00891693
0.00891845
0.00891958
0.00892095
0.00892196
0.00892325
0.00892407
0.00892512
0.00892565
0.00892601
0.00892625
0.00892619
0.00892597
0.00892533
0.00892422
0.00892328
0.00892161
0.0089194
0.00891774
0.00891462
0.0089124
0.00890822
0.00890539
0.00890005
0.00889651
0.00889072
0.00888516
0.00887948
0.00887312
0.00886663
0.00876501
0.00877993
0.00879621
0.00880956
0.00882403
0.00883563
0.00884788
0.00885755
0.00886662
0.008875
0.00888149
0.00888811
0.00889291
0.00889711
0.00890101
0.00890332
0.00890648
0.00890857
0.00891077
0.00891238
0.00891416
0.00891543
0.00891645
0.00891773
0.00891905
0.00891982
0.00892101
0.00892211
0.00892304
0.0089241
0.00892493
0.00892553
0.00892596
0.00892629
0.00892635
0.00892622
0.00892577
0.00892507
0.00892386
0.0089228
0.00892095
0.00891899
0.00891738
0.008914
0.00891163
0.00890791
0.00890421
0.00889949
0.00889554
0.00888933
0.00888424
0.00887861
0.00887138
0.0088655
0.00876511
0.0087804
0.00879634
0.00880932
0.00882427
0.00883515
0.00884834
0.00885739
0.00886767
0.00887516
0.00888302
0.00888883
0.00889408
0.0088988
0.00890195
0.00890576
0.0089079
0.00891028
0.00891255
0.00891416
0.00891573
0.00891744
0.0089183
0.00891959
0.00892043
0.00892156
0.00892221
0.00892332
0.00892399
0.00892471
0.00892557
0.00892591
0.00892631
0.00892648
0.00892651
0.00892619
0.00892555
0.00892484
0.00892347
0.00892239
0.00892036
0.00891897
0.00891615
0.00891389
0.0089109
0.00890696
0.00890394
0.00889838
0.00889485
0.00888802
0.00888405
0.00887638
0.00887043
0.00886347
0.00876474
0.00878067
0.00879435
0.00880999
0.00882179
0.00883598
0.00884628
0.00885788
0.00886687
0.00887551
0.00888305
0.00888907
0.00889528
0.00889916
0.00890364
0.00890626
0.00890956
0.00891173
0.0089139
0.00891606
0.00891706
0.00891899
0.00891965
0.00892074
0.00892142
0.00892218
0.00892335
0.00892379
0.0089245
0.00892524
0.00892576
0.00892629
0.00892643
0.00892654
0.00892643
0.00892604
0.0089254
0.0089245
0.00892334
0.00892188
0.00892018
0.0089184
0.0089157
0.00891359
0.00891003
0.00890693
0.00890238
0.00889853
0.00889294
0.00888789
0.00888199
0.00887502
0.00886908
0.0088606
0.00876539
0.00878064
0.00879472
0.00880834
0.00882224
0.00883372
0.00884628
0.00885612
0.00886616
0.00887485
0.00888239
0.00888925
0.00889498
0.00889966
0.00890399
0.00890696
0.00891046
0.00891255
0.00891498
0.00891674
0.00891817
0.0089197
0.00892052
0.00892156
0.00892207
0.00892302
0.0089236
0.00892433
0.00892504
0.00892562
0.00892612
0.00892643
0.00892651
0.00892663
0.00892637
0.00892591
0.00892513
0.00892448
0.00892332
0.00892149
0.00892026
0.00891773
0.00891573
0.00891281
0.00890963
0.00890622
0.00890203
0.00889789
0.00889234
0.00888734
0.00888053
0.00887453
0.00886647
0.00885858
0.00876393
0.008777
0.00879229
0.00880528
0.00881844
0.00883111
0.00884309
0.00885366
0.00886412
0.00887285
0.00888083
0.00888822
0.00889397
0.00889949
0.00890334
0.00890743
0.00890998
0.00891302
0.00891511
0.00891692
0.00891856
0.00892007
0.00892082
0.00892191
0.00892266
0.00892338
0.0089239
0.00892483
0.00892526
0.00892575
0.00892628
0.00892643
0.00892666
0.00892662
0.00892638
0.00892589
0.00892505
0.00892433
0.00892306
0.00892167
0.00891974
0.00891769
0.00891546
0.00891238
0.0089098
0.00890533
0.00890231
0.00889643
0.00889247
0.00888522
0.00888059
0.00887183
0.00886516
0.0088561
0.00876803
0.00877096
0.00879559
0.00879578
0.00882156
0.00882617
0.00884007
0.0088529
0.00886322
0.00887189
0.00887926
0.00888638
0.00889277
0.00889801
0.00890293
0.00890645
0.00890996
0.00891234
0.0089149
0.00891675
0.00891854
0.0089199
0.0089211
0.008922
0.0089228
0.00892354
0.00892413
0.00892471
0.00892532
0.00892567
0.00892618
0.00892653
0.00892644
0.0089266
0.0089264
0.0089258
0.00892517
0.00892419
0.00892323
0.0089214
0.00891974
0.00891768
0.00891558
0.00891222
0.00890979
0.00890509
0.00890195
0.00889593
0.0088921
0.00888361
0.00888099
0.00886933
0.00886365
0.00885275
0.00875069
0.00878176
0.00877818
0.00880854
0.00880472
0.00883328
0.0088302
0.00885555
0.00885076
0.00886719
0.00887575
0.0088861
0.00889146
0.00889725
0.00890159
0.00890553
0.00890854
0.00891127
0.00891382
0.00891597
0.0089178
0.00891949
0.00892065
0.0089217
0.00892241
0.00892323
0.00892391
0.00892451
0.00892525
0.00892559
0.00892619
0.00892655
0.00892659
0.00892678
0.00892658
0.008926
0.00892532
0.0089241
0.00892329
0.00892159
0.00891989
0.00891774
0.00891557
0.00891247
0.00890952
0.00890529
0.00890208
0.0088957
0.0088915
0.00888354
0.00887825
0.0088694
0.00886068
0.00884512
0.0087655
0.00876292
0.00879215
0.00878902
0.00881773
0.00881457
0.00883941
0.00883848
0.00885507
0.00887085
0.00887276
0.00888431
0.0088857
0.00889584
0.00889788
0.00890041
0.00890538
0.00891048
0.00891324
0.00891558
0.00891717
0.00891899
0.00892006
0.00892135
0.00892197
0.00892298
0.00892346
0.00892434
0.00892504
0.00892563
0.00892626
0.00892647
0.0089268
0.00892683
0.00892665
0.00892615
0.00892555
0.00892444
0.00892356
0.00892208
0.00892019
0.00891832
0.00891525
0.00891321
0.00890925
0.00890593
0.00890197
0.00889547
0.00889319
0.00888183
0.00888112
0.00886764
0.00886486
0.00883774
0.00875431
0.00876773
0.00878006
0.00879172
0.00880765
0.00881298
0.00883613
0.00883593
0.00885628
0.00885588
0.00887445
0.00887391
0.00888912
0.00888969
0.0088989
0.00889926
0.00890139
0.00890657
0.00891062
0.00891376
0.00891612
0.00891785
0.00891915
0.00891997
0.00892117
0.0089218
0.0089229
0.00892348
0.00892445
0.00892501
0.00892592
0.00892651
0.00892695
0.008927
0.008927
0.00892666
0.00892609
0.00892499
0.00892388
0.00892272
0.00892042
0.0089188
0.00891552
0.00891344
0.00890964
0.00890667
0.00890151
0.00889743
0.00889019
0.00888566
0.00887277
0.00887339
0.00884721
0.00881234
0.00875079
0.00876586
0.00877169
0.00879571
0.00879098
0.00882056
0.00881757
0.00884374
0.00884155
0.00886239
0.00886189
0.00887877
0.00887883
0.00888576
0.00889301
0.00889952
0.0089033
0.00890584
0.00890868
0.00891114
0.00891329
0.00891539
0.00891674
0.00891841
0.00891931
0.00892091
0.00892174
0.00892299
0.0089237
0.00892502
0.00892596
0.00892683
0.00892753
0.00892757
0.00892773
0.00892731
0.00892633
0.00892558
0.00892408
0.00892319
0.00892114
0.00891929
0.00891588
0.00891401
0.00891031
0.00890744
0.00890215
0.00889821
0.00889099
0.00888578
0.00886753
0.0088646
0.00879317
0.00874703
0.00875128
0.00875696
0.00877837
0.00877547
0.00880425
0.00880111
0.00882692
0.00882479
0.00884831
0.00884725
0.00886623
0.00886608
0.00888126
0.00888085
0.00889271
0.00889243
0.00889504
0.00890122
0.00890604
0.00890922
0.00891195
0.00891384
0.00891537
0.00891676
0.00891767
0.00891894
0.00892029
0.00892223
0.00892356
0.0089251
0.0089262
0.00892739
0.00892814
0.00892834
0.00892844
0.00892814
0.00892723
0.00892642
0.00892484
0.00892387
0.00892212
0.00891974
0.00891673
0.00891488
0.00891107
0.00890815
0.00890319
0.00889942
0.00889154
0.00888809
0.00883434
0.00883057
0.00850877
0.00850617
0.00874492
0.00875889
0.00876528
0.00878533
0.00878369
0.008811
0.00880767
0.00883331
0.00883104
0.00885286
0.00885159
0.00886958
0.00886928
0.0088833
0.00888376
0.00888817
0.00889475
0.00889874
0.00890231
0.00890508
0.00890859
0.00891092
0.00891294
0.0089144
0.00891619
0.00891772
0.00891932
0.00892099
0.00892302
0.00892477
0.00892613
0.00892748
0.00892828
0.0089286
0.00892899
0.00892887
0.00892806
0.00892723
0.00892558
0.0089247
0.00892318
0.0089201
0.00891749
0.0089156
0.00891235
0.00891052
0.00890404
0.00890335
0.00888545
0.00888346
0.00870541
0.00864069
0.00780054
0.00659034
0.00874446
0.00875307
0.00876647
0.00877304
0.0087929
0.0087906
0.0088178
0.00881421
0.00883852
0.00883606
0.00885631
0.00885554
0.00887197
0.00887119
0.00888481
0.00888367
0.00888845
0.00889435
0.00889904
0.00890176
0.00890505
0.00890749
0.00891033
0.00891154
0.00891295
0.00891443
0.00891711
0.00891962
0.00892216
0.00892468
0.00892647
0.00892847
0.00892945
0.00893007
0.00893024
0.00892997
0.00892908
0.00892827
0.00892654
0.0089254
0.00892395
0.00892072
0.00891881
0.00891683
0.00891441
0.00891097
0.0089092
0.00890593
0.00885185
0.00881325
0.00828597
0.00737098
0.00589297
0.0049338
0.00874019
0.0087518
0.00876112
0.0087728
0.0087825
0.00879584
0.00880188
0.0088211
0.00881845
0.0088425
0.00884051
0.00885889
0.00885858
0.00887239
0.00887192
0.00888304
0.00888186
0.00888825
0.00889328
0.00889631
0.00889954
0.00890237
0.0089054
0.00890821
0.00891105
0.00891306
0.00891615
0.00891931
0.00892221
0.00892492
0.00892692
0.00892868
0.00893029
0.00893132
0.00893191
0.00893211
0.00893155
0.00893046
0.00892812
0.0089264
0.00892474
0.00892178
0.00891982
0.00891855
0.00891531
0.00891545
0.00890841
0.00889505
0.00870233
0.00836715
0.00697333
0.00523955
0.00473487
0.00459089
0.00873887
0.00874821
0.00875854
0.00876968
0.00877869
0.008792
0.00879642
0.00881645
0.00881305
0.00883656
0.0088339
0.00885316
0.00885167
0.00886625
0.00886408
0.00887347
0.00888323
0.00888393
0.00888519
0.00889181
0.00889577
0.00889877
0.00890189
0.00890479
0.00890857
0.00891136
0.00891363
0.00891669
0.00892018
0.00892395
0.008927
0.00892949
0.00893124
0.0089323
0.00893256
0.00893251
0.00893146
0.00893
0.00892785
0.00892607
0.00892477
0.00892263
0.00892151
0.00891974
0.00891933
0.00891539
0.00890268
0.00875286
0.00829097
0.00659026
0.00519984
0.00467984
0.00447911
0.00444073
0.00873653
0.0087472
0.008757
0.00876629
0.00877717
0.00878474
0.00879916
0.00879904
0.00882196
0.00881912
0.00883824
0.008837
0.00885332
0.00885324
0.00886456
0.00886362
0.00887209
0.00888121
0.00888227
0.00888483
0.00888883
0.00889315
0.00889722
0.00889999
0.00890334
0.00890773
0.00891215
0.00891582
0.00891923
0.00892259
0.00892628
0.00892967
0.00893224
0.00893345
0.00893387
0.00893368
0.00893243
0.00893091
0.0089291
0.00892692
0.00892556
0.00892451
0.00892338
0.00892142
0.00892183
0.0089125
0.0088133
0.00831029
0.00657895
0.00505111
0.00455379
0.00445359
0.00443963
0.00443912
0.00873719
0.00874741
0.00875658
0.0087648
0.00877527
0.00878342
0.00879262
0.00880079
0.00881202
0.00881335
0.00883258
0.0088301
0.00884612
0.00884513
0.008859
0.00885872
0.00886934
0.00886896
0.00887223
0.00887906
0.00888377
0.00888707
0.0088923
0.00889706
0.00890165
0.00890643
0.00891164
0.00891653
0.00892052
0.00892389
0.00892712
0.00893023
0.00893313
0.00893453
0.0089351
0.00893497
0.00893371
0.00893155
0.00892988
0.0089269
0.00892598
0.00892572
0.00892436
0.00892658
0.00892253
0.00886017
0.00844242
0.00675826
0.00500057
0.00453804
0.00445673
0.00443948
0.00443418
0.00443337
0.00873413
0.00874843
0.0087591
0.00876865
0.00877547
0.00878409
0.00879017
0.00879922
0.00880565
0.00881606
0.00881623
0.00883404
0.00883006
0.00884649
0.00884529
0.00885592
0.0088559
0.00886403
0.00886403
0.00886852
0.008873
0.00887703
0.00888049
0.00888705
0.00889501
0.0089028
0.00891015
0.00891633
0.00892216
0.00892695
0.00892932
0.00893177
0.00893451
0.00893572
0.00893631
0.008936
0.00893437
0.00893163
0.00892969
0.00892696
0.00892696
0.00892683
0.00892784
0.00892874
0.00889896
0.00860568
0.00716091
0.00504308
0.00453394
0.00445444
0.00444256
0.00443645
0.00443337
0.00442639
0.00870638
0.00873665
0.00875502
0.00876911
0.00877576
0.00878452
0.0087898
0.00879633
0.00880246
0.00880747
0.00881618
0.00881929
0.00883224
0.00883099
0.00883914
0.00883801
0.00883733
0.00883373
0.00883145
0.00882173
0.00882454
0.00882326
0.00883378
0.00883983
0.0088637
0.00888059
0.00889453
0.00891132
0.00892172
0.00892879
0.00893346
0.00893518
0.00893661
0.00893721
0.0089371
0.00893639
0.00893381
0.00893106
0.00892878
0.00892746
0.00892785
0.00892868
0.00893303
0.00892429
0.00875282
0.0076659
0.0052019
0.00454345
0.00445399
0.00444629
0.00444182
0.00443569
0.00442712
0.00442289
0.00862467
0.00869564
0.00873767
0.0087622
0.00877708
0.00878668
0.00879262
0.00879817
0.00880281
0.00880652
0.00881196
0.00881875
0.00881749
0.00881868
0.00880632
0.00878502
0.00875862
0.00870736
0.00871114
0.00860348
0.00851909
0.00851569
0.0085212
0.0085828
0.00868406
0.00879188
0.00886468
0.00889049
0.00890986
0.0089254
0.00893387
0.00893747
0.00893839
0.0089384
0.00893761
0.00893536
0.00893235
0.00892951
0.00892841
0.00892811
0.00892879
0.00893161
0.00893465
0.00886414
0.00811312
0.00555733
0.0045625
0.00445809
0.0044488
0.00444586
0.0044393
0.00443146
0.00442505
0.0044227
0.00844892
0.00861074
0.00869763
0.00874208
0.00876843
0.00877877
0.00878814
0.00879337
0.0087982
0.00880265
0.0088055
0.00880211
0.00877306
0.00875126
0.00865458
0.00859304
0.00846799
0.00808456
0.00778659
0.00737602
0.00698307
0.00697301
0.00697596
0.00729368
0.00776117
0.00821713
0.00854077
0.00877224
0.00888052
0.00891977
0.008934
0.00893925
0.00893981
0.00893908
0.00893705
0.00893386
0.00893061
0.00892863
0.00892755
0.0089281
0.00892955
0.00893767
0.00891868
0.00851388
0.00618862
0.00465338
0.00446669
0.00445084
0.00444823
0.00444416
0.00443574
0.00442864
0.0044238
0.00442376
0.00816027
0.00846622
0.00863004
0.00871249
0.00875531
0.00877346
0.00878526
0.00879274
0.00879391
0.00878665
0.00878144
0.0087336
0.00854785
0.00851611
0.00807337
0.00736609
0.00646968
0.00587023
0.00548383
0.00520304
0.00510031
0.00513573
0.00517658
0.00546462
0.00567809
0.00654888
0.00784007
0.008494
0.0087675
0.00888225
0.00892667
0.00893892
0.00894001
0.00893857
0.00893472
0.00893073
0.00892781
0.00892658
0.00892714
0.00892816
0.00893247
0.00893948
0.00877853
0.00697002
0.00485076
0.00448553
0.00445285
0.00444937
0.00444703
0.00443866
0.00443213
0.00442548
0.00442352
0.00442697
0.00799724
0.00838874
0.00859732
0.00870155
0.00875171
0.00877291
0.00878444
0.00878689
0.00877599
0.00872524
0.00865276
0.00833836
0.00777572
0.00656119
0.00568424
0.00515205
0.00486195
0.00469422
0.00461448
0.00457947
0.00457804
0.00459601
0.00462639
0.00477503
0.00484583
0.00539323
0.0063756
0.00785875
0.00858409
0.00883542
0.00891515
0.00893632
0.00893849
0.00893671
0.00893197
0.00892813
0.00892511
0.00892554
0.00892595
0.00892855
0.00894198
0.00886425
0.0076911
0.00520716
0.0045274
0.00445571
0.00444979
0.00444802
0.00444233
0.00443461
0.00442878
0.00442418
0.00442448
0.00443248
0.00810553
0.0084546
0.00863253
0.00871954
0.0087592
0.00877399
0.00876553
0.00875231
0.00854359
0.0083917
0.00750562
0.00613346
0.00527378
0.00484062
0.00463436
0.0045424
0.00451047
0.0044999
0.00450088
0.004508
0.00454117
0.00456807
0.00459579
0.00462548
0.00469262
0.00489882
0.00552299
0.00695957
0.00816623
0.00871869
0.00888918
0.00892936
0.00893363
0.0089322
0.00892577
0.00892276
0.00892308
0.00892296
0.00892549
0.0089325
0.00885957
0.00801539
0.00553197
0.00458968
0.00446014
0.00444968
0.00444781
0.00444444
0.00443683
0.00443294
0.00442572
0.0044236
0.0044253
0.00443614
0.00835404
0.0085877
0.00869854
0.00875383
0.00876258
0.00871531
0.00862437
0.0081868
0.00737402
0.00577772
0.00503695
0.00468214
0.00453744
0.00448815
0.00448309
0.00449357
0.00452955
0.00459534
0.00461967
0.00469211
0.00474126
0.00473704
0.00469502
0.00466086
0.00469121
0.00480784
0.00531393
0.00675816
0.00813666
0.00871842
0.00888968
0.00892652
0.00892869
0.00892282
0.00891997
0.00891839
0.00891982
0.00892164
0.00891842
0.00879551
0.00786876
0.00547204
0.00462059
0.00446663
0.00444881
0.00444683
0.00444503
0.00443864
0.00443446
0.00442802
0.00442236
0.00442125
0.00442451
0.00443751
0.00862877
0.00871942
0.00875825
0.00872995
0.00857184
0.00798714
0.00685081
0.00552191
0.00482544
0.00455614
0.00447207
0.00445674
0.00447055
0.00449442
0.00458151
0.00472063
0.00496314
0.00505771
0.00521146
0.00544319
0.00543677
0.00534676
0.00515362
0.00486491
0.00473078
0.00483216
0.0053278
0.00684158
0.00815184
0.00875165
0.00889966
0.00892234
0.00891978
0.00891504
0.0089136
0.00891583
0.00891452
0.00890201
0.00872496
0.00778064
0.00546699
0.00465287
0.00447382
0.00444789
0.00444524
0.00444421
0.00444029
0.00443488
0.00443121
0.00442317
0.00441826
0.00441721
0.00442047
0.00443401
0.00874788
0.00868551
0.00847156
0.00772161
0.00644546
0.00504791
0.00456839
0.00444858
0.00442495
0.00443086
0.00445713
0.0045128
0.0046377
0.00487815
0.00517767
0.00568138
0.00621197
0.00666566
0.00700236
0.00704117
0.00696252
0.00673448
0.00609338
0.00522651
0.00489214
0.00496347
0.00562724
0.00719685
0.00845022
0.0088311
0.00890809
0.00891569
0.00891158
0.00890916
0.00890891
0.00891089
0.00888902
0.00865581
0.00778012
0.00549388
0.0046911
0.00448426
0.00444885
0.00444408
0.00444293
0.00443962
0.00443569
0.00443093
0.00442607
0.0044201
0.00441359
0.00441151
0.00441252
0.00442151
0.00761648
0.00666763
0.00546064
0.00467295
0.00445036
0.00441387
0.00440978
0.00442135
0.0044549
0.00452521
0.0046549
0.00489902
0.00530101
0.00602491
0.0071005
0.00761358
0.00782188
0.00795529
0.00795113
0.00788005
0.00763007
0.00706045
0.0060406
0.00518872
0.00489389
0.00502356
0.00615413
0.00792616
0.00870747
0.0088796
0.00890686
0.0089033
0.00889957
0.00890106
0.00889908
0.0088355
0.00855354
0.00791075
0.00547787
0.00475802
0.00449109
0.00445131
0.00444225
0.004441
0.00443835
0.00443588
0.00443088
0.00442797
0.00442128
0.00441699
0.00440927
0.00440384
0.00440274
0.00440508
0.00472831
0.00452736
0.00443173
0.00440591
0.00440389
0.00441735
0.00445366
0.00452113
0.00464074
0.00485645
0.00524353
0.00598672
0.00719416
0.00793242
0.00812069
0.00808902
0.00803499
0.00792264
0.0077748
0.00772069
0.00743127
0.00670155
0.00564238
0.00515895
0.0051461
0.00565867
0.00738011
0.00852504
0.00882783
0.00888944
0.00889965
0.00889603
0.00889696
0.00889437
0.00883204
0.0086691
0.00801553
0.00536526
0.00484167
0.00450137
0.00445643
0.00444007
0.00443857
0.00443605
0.00443401
0.0044295
0.00442683
0.00442102
0.0044175
0.00441046
0.00440578
0.0043986
0.00439484
0.00439442
0.00440545
0.00440065
0.00440233
0.00441638
0.00445284
0.00451331
0.00461911
0.00480059
0.00511973
0.00568399
0.00672318
0.00795372
0.00836507
0.0083293
0.00814632
0.00758284
0.00689066
0.00673357
0.00679163
0.00682257
0.00640879
0.00572686
0.00536526
0.00523828
0.00549397
0.00694143
0.00834904
0.00875978
0.0088722
0.00888829
0.00888396
0.00887729
0.00884953
0.00876061
0.00858261
0.00761479
0.00528066
0.00488793
0.00452308
0.00446068
0.00443735
0.00443499
0.00443343
0.00443108
0.00442708
0.00442456
0.00441955
0.00441662
0.00441037
0.00440663
0.00439982
0.00439449
0.00438837
0.00438591
0.00439791
0.00441437
0.00444845
0.00450657
0.00459759
0.00475213
0.00500864
0.00543285
0.00613681
0.00732739
0.00827765
0.00855911
0.00849216
0.00813236
0.00743344
0.00673644
0.00632202
0.00618425
0.00612969
0.00602121
0.00583373
0.00565556
0.0056175
0.0056471
0.00725876
0.00828449
0.00867352
0.00885876
0.00887196
0.00888124
0.00887958
0.00887694
0.00885151
0.00858885
0.00734331
0.0054567
0.00483639
0.00453286
0.0044678
0.00443545
0.00443252
0.00443053
0.00442907
0.00442511
0.00442278
0.00441848
0.00441545
0.00440968
0.00440603
0.00439962
0.00439457
0.00438742
0.00438037
0.00437279
0.00444647
0.00450019
0.00458188
0.00471331
0.0049219
0.00524668
0.0057464
0.00651288
0.00768892
0.00843224
0.00864578
0.00862175
0.00838324
0.00787303
0.00719937
0.00660921
0.00631326
0.00616828
0.00608212
0.00598528
0.00591414
0.00590071
0.00624166
0.00756804
0.00824401
0.0087497
0.0088028
0.0088651
0.00886571
0.00884439
0.00877934
0.00863448
0.00817855
0.00725677
0.00559421
0.00471897
0.00456897
0.00445459
0.00444051
0.00442948
0.00442842
0.00442594
0.00442373
0.00441978
0.0044175
0.00441294
0.00440987
0.00440387
0.00439992
0.0043934
0.00438768
0.00438029
0.00437255
0.00436349
0.00456098
0.00467615
0.00485102
0.00511349
0.00549204
0.00603277
0.00679077
0.00784864
0.00846054
0.0087143
0.00871876
0.00862969
0.00841169
0.00808941
0.00764026
0.00710752
0.00669044
0.00654889
0.00646879
0.0064771
0.00671775
0.00718576
0.00794168
0.00857844
0.00863552
0.00884197
0.00884658
0.00886237
0.00885607
0.0088435
0.00877439
0.00836712
0.00691785
0.00524401
0.00484516
0.00451577
0.00448303
0.00443539
0.00443164
0.00442553
0.00442449
0.00442069
0.00441853
0.0044141
0.00441171
0.00440675
0.00440392
0.00439773
0.00439342
0.00438655
0.00438025
0.00437254
0.00436455
0.0043556
0.0047711
0.00498788
0.00529587
0.00572118
0.00627817
0.00698812
0.00787866
0.00844683
0.00876434
0.00876312
0.00876573
0.00871766
0.008604
0.00845159
0.00824968
0.00798621
0.00770772
0.00765746
0.00760831
0.0077621
0.00805256
0.00838485
0.00860349
0.00879181
0.00878574
0.00884909
0.0088462
0.00879414
0.00873109
0.0084233
0.00781256
0.00654731
0.00525373
0.00476456
0.00452431
0.00447372
0.00443687
0.00443084
0.00442427
0.00442296
0.00441875
0.00441672
0.00441208
0.00440963
0.00440576
0.00440215
0.00439801
0.00439272
0.0043872
0.00438053
0.00437347
0.00436549
0.00435677
0.00434717
0.00508564
0.00543223
0.00589124
0.00646966
0.00714093
0.00788429
0.00843416
0.00877655
0.00877274
0.00881267
0.00881002
0.00879033
0.00873706
0.00867565
0.00860161
0.00851343
0.00842722
0.00842485
0.00841906
0.00853758
0.00863132
0.00879488
0.00879293
0.00883863
0.00883902
0.0088583
0.00875755
0.00875662
0.008482
0.00816272
0.00620435
0.00495787
0.004776
0.0045177
0.00446949
0.00443899
0.00443165
0.00442399
0.00442312
0.00441766
0.00441625
0.00441098
0.00440818
0.00440501
0.00440116
0.00439756
0.00439298
0.00438784
0.00438196
0.00437526
0.00436794
0.00435974
0.0043506
0.00434052
0.00547084
0.00595747
0.00655788
0.00724305
0.00793277
0.00842952
0.00876092
0.00875056
0.00882445
0.00883129
0.00883713
0.00883126
0.0088099
0.00878881
0.00877112
0.00874763
0.00873942
0.00873457
0.00874568
0.00879077
0.00881947
0.00883356
0.00883125
0.00882836
0.00880319
0.00876225
0.00872574
0.00826041
0.00753566
0.00521167
0.00524433
0.00459615
0.00455869
0.00446763
0.00443807
0.00443563
0.00442489
0.00442458
0.00441715
0.0044162
0.0044106
0.0044071
0.00440298
0.00439998
0.00439537
0.0043917
0.00438676
0.00438141
0.00437527
0.00436852
0.00436091
0.00435242
0.0043431
0.0043328
0.00586369
0.00648943
0.00721055
0.0079425
0.00843005
0.00871428
0.00876797
0.008816
0.00882754
0.00885244
0.00885254
0.00885228
0.00884643
0.0088432
0.00883802
0.00883444
0.00883342
0.00883434
0.00884244
0.00884821
0.00884792
0.00885117
0.00882755
0.00883339
0.00879278
0.00860555
0.00793521
0.00697282
0.00557414
0.00479328
0.00478768
0.0044938
0.00448816
0.00444146
0.00443815
0.00442692
0.00442628
0.00441827
0.00441631
0.00441169
0.00440695
0.00440272
0.00439944
0.00439498
0.00439147
0.00438671
0.00438197
0.00437575
0.00436931
0.00436176
0.00435395
0.0043455
0.00433665
0.00432658
0.00609277
0.00685012
0.00769262
0.00838911
0.0086877
0.00872578
0.00877341
0.00883679
0.00884906
0.00886239
0.00886267
0.00886177
0.00885877
0.0088594
0.00886152
0.00886393
0.00886441
0.00886448
0.00886484
0.00885067
0.0088488
0.00882129
0.00876451
0.00862374
0.00832724
0.00774381
0.00663582
0.00543554
0.00475587
0.00463104
0.00451899
0.0044724
0.00444528
0.00443764
0.00443348
0.00442419
0.00442469
0.00441513
0.00441562
0.00440637
0.00440449
0.00439847
0.00439542
0.00439019
0.00438653
0.00438119
0.00437624
0.00436994
0.00436336
0.00435585
0.00434757
0.00433846
0.00432857
0.00431785
0.00616854
0.00699108
0.00791886
0.00851857
0.00868497
0.00871733
0.00882083
0.00883446
0.00886818
0.00886872
0.00887294
0.00887279
0.00887321
0.00887529
0.00887573
0.00887249
0.00887056
0.00886838
0.00884641
0.00884024
0.00879357
0.00872016
0.00856308
0.00823501
0.007516
0.00647496
0.00503999
0.00488707
0.00455758
0.00455415
0.00446345
0.00445885
0.00443888
0.00443877
0.00442721
0.00442708
0.00441775
0.00441757
0.0044073
0.00440701
0.00439862
0.00439621
0.00439039
0.0043867
0.00438165
0.00437705
0.00437131
0.00436529
0.00435844
0.00435091
0.00434265
0.00433371
0.00432392
0.00431327
0.00616243
0.00699639
0.00791138
0.0086868
0.00862185
0.00879903
0.00880232
0.00886652
0.00887041
0.0088853
0.00888541
0.00888575
0.00888479
0.00888398
0.00888149
0.00887459
0.0088701
0.0088507
0.00882934
0.00878188
0.00867853
0.00844524
0.00801227
0.00734236
0.00637694
0.0050713
0.00486034
0.00457919
0.00455714
0.00447205
0.00446365
0.00444475
0.0044409
0.00443307
0.00442903
0.00442265
0.00441888
0.00441325
0.00440618
0.00440278
0.00439621
0.00439263
0.004387
0.00438277
0.00437761
0.00437259
0.00436685
0.00436085
0.0043543
0.00434723
0.00433927
0.00433042
0.00432028
0.00430929
0.0058839
0.00672172
0.00776123
0.00837508
0.00872628
0.00876907
0.0088112
0.00887062
0.00887628
0.00888884
0.00888957
0.00888928
0.00888523
0.00888284
0.00887671
0.00886608
0.00884492
0.00879989
0.0087355
0.00860437
0.00835963
0.00797983
0.00730836
0.00621732
0.00511648
0.00483326
0.0045698
0.00454124
0.00446773
0.00446988
0.00444657
0.00444566
0.00443743
0.0044323
0.0044283
0.00442122
0.00441783
0.00440869
0.00440519
0.0043991
0.00439375
0.0043887
0.00438328
0.00437861
0.00437335
0.00436809
0.00436219
0.00435604
0.00434897
0.00434154
0.0043332
0.00432459
0.00431499
0.00430511
0.00546724
0.00615978
0.00708569
0.00821733
0.00848427
0.00880493
0.00877614
0.00885529
0.00887713
0.00888708
0.00888795
0.00888645
0.00887657
0.00887235
0.0088561
0.00882785
0.00878303
0.00869981
0.00856963
0.00829498
0.00786112
0.00706685
0.00593941
0.00518437
0.00470197
0.00469268
0.00451986
0.00451535
0.0044647
0.00446501
0.00444496
0.0044457
0.00443347
0.00443372
0.00442266
0.00442195
0.00441172
0.00440856
0.00440194
0.00439586
0.00439057
0.00438515
0.00438002
0.00437529
0.00436984
0.00436467
0.00435878
0.00435306
0.00434679
0.00434021
0.00433301
0.00432475
0.00431633
0.0043074
0.00501411
0.0054945
0.00623021
0.00717509
0.00824493
0.00851319
0.00871081
0.00873799
0.00884442
0.00884224
0.00885261
0.00884524
0.0088243
0.00880195
0.00875973
0.00868731
0.00857249
0.0083804
0.00805896
0.00751962
0.00663395
0.00575266
0.00515245
0.00466313
0.00467121
0.00452034
0.00452212
0.00446977
0.00446799
0.00444779
0.00444686
0.00444121
0.00443244
0.00443149
0.0044224
0.00441918
0.00440973
0.00440635
0.0043983
0.00439336
0.00438744
0.00438198
0.00437708
0.00437176
0.0043667
0.00436167
0.00435654
0.00435158
0.00434577
0.00434084
0.00433517
0.00432996
0.00432372
0.00431602
0.00468313
0.00490142
0.00527764
0.00590322
0.00676707
0.00778284
0.00819417
0.00847872
0.00848223
0.00861506
0.00861743
0.00861568
0.00854566
0.00845858
0.00833938
0.00813676
0.00782728
0.00732671
0.0067299
0.00602973
0.00547683
0.00499881
0.00473334
0.00456512
0.00456215
0.0045
0.00448884
0.00446301
0.00445807
0.00444601
0.00444543
0.00443593
0.00443389
0.00442784
0.00442131
0.00441498
0.00440831
0.00440348
0.00439554
0.00439036
0.0043839
0.0043784
0.00437326
0.00436847
0.00436441
0.00435937
0.00435538
0.00435045
0.00435013
0.004348
0.0043473
0.00434537
0.00434221
0.00433708
0.00453878
0.00463322
0.00478562
0.00502798
0.00538721
0.00587041
0.00650126
0.00694425
0.00740073
0.00738171
0.00747526
0.00747516
0.0072721
0.00704773
0.0068194
0.00652622
0.00616827
0.0058426
0.00547198
0.00514647
0.00486124
0.00467054
0.0045798
0.00451897
0.00451733
0.00447719
0.00447418
0.0044548
0.00445389
0.00444375
0.0044434
0.00443412
0.00443346
0.00442287
0.00442105
0.00441077
0.00440785
0.00439822
0.00439383
0.00438666
0.00438114
0.0043758
0.00437141
0.00436743
0.004361
0.00435824
0.00435511
0.00435526
0.00435498
0.00435688
0.0043593
0.00436175
0.00436256
0.00436266
0.00447692
0.00451511
0.00457206
0.00466255
0.00479318
0.00497489
0.00519276
0.00541549
0.00556776
0.00572811
0.00573487
0.00575621
0.00567504
0.00555645
0.0054824
0.00535087
0.00518631
0.00502477
0.00486315
0.0047215
0.00461834
0.0045331
0.00453244
0.00449019
0.00448901
0.00446533
0.00446434
0.00445133
0.00445135
0.00444218
0.00444208
0.00443173
0.00443147
0.00442028
0.00441992
0.00440809
0.00440646
0.00439524
0.00439091
0.0043831
0.00437843
0.00437359
0.00437004
0.00436294
0.00436341
0.00436199
0.00436224