/*--------------------------------*- C++ -*----------------------------------*\
  =========                 |
  \\      /  F ield         | OpenFOAM: The Open Source CFD Toolbox
   \\    /   O peration     | Website:  https://openfoam.org
    \\  /    A nd           | Version:  10
     \\/     M anipulation  |
\*---------------------------------------------------------------------------*/
FoamFile
{
    format      ascii;
    class       volVectorField;
    location    "0.550995";
    object      U;
}
// * * * * * * * * * * * * * * * * * * * * * * * * * * * * * * * * * * * * * //

dimensions      [0 1 -1 0 0 0 0];

internalField   nonuniform List<vector> 
15984
(
(0.536901 -0.0119623 0)
(0.528941 -0.0147987 0)
(0.52099 -0.0179373 0)
(0.513169 -0.0207663 0)
(0.505637 -0.0237972 0)
(0.498445 -0.0266639 0)
(0.491612 -0.0295311 0)
(0.485182 -0.0323564 0)
(0.479152 -0.0351224 0)
(0.473504 -0.0378153 0)
(0.468213 -0.0404203 0)
(0.463239 -0.0429232 0)
(0.458541 -0.0453099 0)
(0.454076 -0.0475697 0)
(0.449801 -0.049693 0)
(0.445677 -0.0516744 0)
(0.441679 -0.0535091 0)
(0.437766 -0.0552073 0)
(0.433916 -0.0567573 0)
(0.430123 -0.0581742 0)
(0.426371 -0.0594651 0)
(0.422656 -0.0606409 0)
(0.418979 -0.0617143 0)
(0.415347 -0.0626982 0)
(0.411774 -0.0636076 0)
(0.408275 -0.0644575 0)
(0.404873 -0.065263 0)
(0.401592 -0.0660393 0)
(0.39846 -0.0667992 0)
(0.395508 -0.0675552 0)
(0.39277 -0.0683169 0)
(0.39028 -0.069093 0)
(0.388073 -0.0698852 0)
(0.386182 -0.0706904 0)
(0.384641 -0.0715037 0)
(0.383484 -0.0723154 0)
(0.38274 -0.0731094 0)
(0.382426 -0.0738751 0)
(0.382606 -0.0745616 0)
(0.383316 -0.0751439 0)
(0.384542 -0.0756033 0)
(0.386308 -0.0759057 0)
(0.388641 -0.0759996 0)
(0.391556 -0.0758409 0)
(0.395058 -0.0753805 0)
(0.39915 -0.0745675 0)
(0.403826 -0.0733465 0)
(0.409071 -0.071661 0)
(0.414863 -0.0694532 0)
(0.421168 -0.0666651 0)
(0.427939 -0.063227 0)
(0.435122 -0.0591184 0)
(0.442634 -0.054233 0)
(0.450388 -0.0486059 0)
(0.53415 -0.0127603 0)
(0.526208 -0.015035 0)
(0.518279 -0.0174116 0)
(0.510468 -0.0197582 0)
(0.502893 -0.0221077 0)
(0.495781 -0.0244539 0)
(0.488926 -0.0267966 0)
(0.482525 -0.0291317 0)
(0.476539 -0.0314497 0)
(0.470951 -0.0337372 0)
(0.46573 -0.0359811 0)
(0.460841 -0.038166 0)
(0.45624 -0.0402774 0)
(0.451881 -0.0423021 0)
(0.447719 -0.0442284 0)
(0.443715 -0.0460483 0)
(0.439832 -0.0477559 0)
(0.436038 -0.0493559 0)
(0.432307 -0.0508398 0)
(0.428621 -0.0522158 0)
(0.424967 -0.0534933 0)
(0.421339 -0.0546817 0)
(0.417737 -0.0557923 0)
(0.414166 -0.0568397 0)
(0.410639 -0.0578376 0)
(0.407173 -0.0588027 0)
(0.40379 -0.0597503 0)
(0.400516 -0.0606961 0)
(0.397382 -0.0616546 0)
(0.394419 -0.0626378 0)
(0.391662 -0.0636556 0)
(0.389152 -0.064717 0)
(0.386927 -0.0658254 0)
(0.385023 -0.0669764 0)
(0.383477 -0.0681652 0)
(0.382327 -0.0693798 0)
(0.3816 -0.0706073 0)
(0.381339 -0.0718298 0)
(0.381606 -0.0729871 0)
(0.382414 -0.0740796 0)
(0.383772 -0.0750743 0)
(0.385717 -0.0759234 0)
(0.388276 -0.076581 0)
(0.391465 -0.0769995 0)
(0.395297 -0.077124 0)
(0.399779 -0.0768969 0)
(0.404906 -0.0762562 0)
(0.410667 -0.0751435 0)
(0.417038 -0.0734756 0)
(0.424001 -0.0711972 0)
(0.43147 -0.0682294 0)
(0.439432 -0.0644983 0)
(0.447758 -0.0599683 0)
(0.456356 -0.0545407 0)
(0.531946 -0.0136755 0)
(0.524127 -0.0155079 0)
(0.516116 -0.0172273 0)
(0.50831 -0.0190727 0)
(0.500768 -0.0207685 0)
(0.493583 -0.0226037 0)
(0.486762 -0.0244296 0)
(0.480359 -0.0262804 0)
(0.474375 -0.0281532 0)
(0.468802 -0.0300371 0)
(0.463609 -0.0319161 0)
(0.458763 -0.0337748 0)
(0.454218 -0.0355971 0)
(0.449928 -0.0373679 0)
(0.445846 -0.0390734 0)
(0.441928 -0.0407042 0)
(0.438135 -0.0422529 0)
(0.434432 -0.043718 0)
(0.430791 -0.0450984 0)
(0.427189 -0.0463895 0)
(0.423609 -0.0476143 0)
(0.420043 -0.0487717 0)
(0.416491 -0.0498786 0)
(0.412956 -0.0509476 0)
(0.40945 -0.0519958 0)
(0.405989 -0.05304 0)
(0.402597 -0.0540976 0)
(0.399301 -0.0551855 0)
(0.396132 -0.0563196 0)
(0.393127 -0.0575136 0)
(0.390321 -0.0587776 0)
(0.387757 -0.0601199 0)
(0.385479 -0.0615455 0)
(0.383528 -0.0630528 0)
(0.381944 -0.0646322 0)
(0.380766 -0.0662732 0)
(0.380027 -0.0679635 0)
(0.379793 -0.069665 0)
(0.380108 -0.0713495 0)
(0.380982 -0.0730017 0)
(0.382451 -0.0745807 0)
(0.384554 -0.0760379 0)
(0.387319 -0.0773263 0)
(0.390771 -0.0783963 0)
(0.394929 -0.0791819 0)
(0.399801 -0.0796231 0)
(0.405384 -0.0796484 0)
(0.411681 -0.0791845 0)
(0.418671 -0.0781472 0)
(0.426307 -0.0764526 0)
(0.434568 -0.0740303 0)
(0.443347 -0.0707575 0)
(0.452593 -0.066625 0)
(0.462141 -0.0614731 0)
(0.530377 -0.0147938 0)
(0.522518 -0.0160907 0)
(0.514596 -0.0172893 0)
(0.506784 -0.0185006 0)
(0.499214 -0.0197205 0)
(0.491968 -0.0210042 0)
(0.485101 -0.0223422 0)
(0.478653 -0.023738 0)
(0.472636 -0.025188 0)
(0.467041 -0.0266788 0)
(0.461843 -0.0281969 0)
(0.457007 -0.0297258 0)
(0.452487 -0.031249 0)
(0.448237 -0.0327495 0)
(0.444207 -0.0342134 0)
(0.44035 -0.0356281 0)
(0.436623 -0.0369859 0)
(0.432986 -0.0382822 0)
(0.429417 -0.0395157 0)
(0.425875 -0.0406914 0)
(0.422342 -0.0418165 0)
(0.418818 -0.0429011 0)
(0.41529 -0.04396 0)
(0.411765 -0.0450091 0)
(0.408251 -0.0460673 0)
(0.404765 -0.047154 0)
(0.401331 -0.0482888 0)
(0.397977 -0.049491 0)
(0.394738 -0.0507781 0)
(0.391652 -0.0521659 0)
(0.388758 -0.0536661 0)
(0.386101 -0.0552857 0)
(0.383728 -0.0570321 0)
(0.381687 -0.0589047 0)
(0.380022 -0.0608925 0)
(0.378773 -0.0629844 0)
(0.377993 -0.0651628 0)
(0.377742 -0.0673856 0)
(0.378057 -0.069646 0)
(0.378968 -0.0719075 0)
(0.380518 -0.0741281 0)
(0.38275 -0.0762597 0)
(0.385696 -0.0782511 0)
(0.389392 -0.0800466 0)
(0.393862 -0.0815787 0)
(0.399118 -0.0827769 0)
(0.405171 -0.0835631 0)
(0.412019 -0.0838414 0)
(0.419651 -0.0835324 0)
(0.42803 -0.0825244 0)
(0.437108 -0.0807177 0)
(0.446814 -0.0780212 0)
(0.457052 -0.0743059 0)
(0.467691 -0.0695269 0)
(0.529389 -0.0160481 0)
(0.521534 -0.0167528 0)
(0.5136 -0.0174261 0)
(0.505759 -0.0181233 0)
(0.498138 -0.0188579 0)
(0.490832 -0.0196621 0)
(0.483899 -0.0205424 0)
(0.477386 -0.0215038 0)
(0.471311 -0.0225422 0)
(0.465669 -0.0236482 0)
(0.460439 -0.0248076 0)
(0.455586 -0.0260038 0)
(0.451066 -0.0272189 0)
(0.446831 -0.0284347 0)
(0.44283 -0.0296359 0)
(0.439013 -0.0308089 0)
(0.435333 -0.0319451 0)
(0.431746 -0.0330385 0)
(0.428219 -0.0340879 0)
(0.424717 -0.0351062 0)
(0.421218 -0.036088 0)
(0.417709 -0.0370551 0)
(0.414182 -0.0380211 0)
(0.410637 -0.0390063 0)
(0.407084 -0.0400332 0)
(0.403538 -0.0411237 0)
(0.400026 -0.0423016 0)
(0.396576 -0.0435885 0)
(0.393224 -0.0450053 0)
(0.390012 -0.0465692 0)
(0.386984 -0.048294 0)
(0.384186 -0.0501878 0)
(0.381667 -0.0522586 0)
(0.379485 -0.0545056 0)
(0.37769 -0.0569203 0)
(0.376326 -0.0594866 0)
(0.375457 -0.0621819 0)
(0.375137 -0.0649766 0)
(0.375406 -0.0678555 0)
(0.376312 -0.0707797 0)
(0.377903 -0.0737037 0)
(0.380229 -0.076579 0)
(0.383327 -0.0793526 0)
(0.38724 -0.0819557 0)
(0.392002 -0.0843255 0)
(0.397632 -0.0863788 0)
(0.404151 -0.0880252 0)
(0.411565 -0.0891657 0)
(0.419865 -0.0896906 0)
(0.429026 -0.0894878 0)
(0.439002 -0.0884232 0)
(0.44972 -0.0863739 0)
(0.461075 -0.0832112 0)
(0.472931 -0.078817 0)
(0.528929 -0.0173039 0)
(0.521072 -0.0175181 0)
(0.513122 -0.0177051 0)
(0.505238 -0.0179165 0)
(0.497553 -0.0181863 0)
(0.490167 -0.0185387 0)
(0.483145 -0.0189884 0)
(0.476546 -0.0195391 0)
(0.470389 -0.0201863 0)
(0.464678 -0.0209227 0)
(0.459393 -0.021732 0)
(0.454504 -0.0225973 0)
(0.449966 -0.0234989 0)
(0.44573 -0.0244182 0)
(0.441742 -0.0253383 0)
(0.437949 -0.0262452 0)
(0.4343 -0.0271296 0)
(0.430748 -0.0279862 0)
(0.427251 -0.028815 0)
(0.423771 -0.0296234 0)
(0.420283 -0.0304198 0)
(0.416766 -0.0312218 0)
(0.413212 -0.03205 0)
(0.409618 -0.0329237 0)
(0.40599 -0.0338766 0)
(0.402348 -0.034931 0)
(0.398714 -0.0361151 0)
(0.395122 -0.0374553 0)
(0.391609 -0.0389756 0)
(0.38822 -0.0406963 0)
(0.385003 -0.0426333 0)
(0.382006 -0.0447976 0)
(0.379285 -0.0471942 0)
(0.376904 -0.0498285 0)
(0.374921 -0.0526871 0)
(0.373388 -0.0557536 0)
(0.372372 -0.059001 0)
(0.371926 -0.0624133 0)
(0.372099 -0.0659584 0)
(0.37295 -0.0696018 0)
(0.374536 -0.0732943 0)
(0.376908 -0.076987 0)
(0.380119 -0.0806209 0)
(0.384217 -0.0841261 0)
(0.38924 -0.0874302 0)
(0.395227 -0.0904449 0)
(0.402204 -0.0930684 0)
(0.410189 -0.0951903 0)
(0.419182 -0.0966829 0)
(0.42917 -0.0974113 0)
(0.440117 -0.0972194 0)
(0.451942 -0.0959572 0)
(0.464546 -0.0934566 0)
(0.477782 -0.0895627 0)
(0.528951 -0.0184851 0)
(0.521084 -0.0182399 0)
(0.51311 -0.0179783 0)
(0.50517 -0.0177556 0)
(0.49741 -0.0176101 0)
(0.489925 -0.0175575 0)
(0.482804 -0.0176217 0)
(0.476101 -0.0177986 0)
(0.469849 -0.0180869 0)
(0.464054 -0.0184766 0)
(0.458702 -0.0189513 0)
(0.453763 -0.0194931 0)
(0.449195 -0.0200811 0)
(0.444947 -0.0206961 0)
(0.440963 -0.0213192 0)
(0.437185 -0.0219374 0)
(0.433558 -0.0225399 0)
(0.430029 -0.0231226 0)
(0.42655 -0.0236876 0)
(0.423078 -0.0242438 0)
(0.419582 -0.0248046 0)
(0.416036 -0.0253911 0)
(0.41243 -0.0260279 0)
(0.408755 -0.0267449 0)
(0.405015 -0.0275736 0)
(0.401235 -0.028547 0)
(0.397434 -0.0296974 0)
(0.393647 -0.0310563 0)
(0.389916 -0.0326518 0)
(0.386289 -0.0345083 0)
(0.382819 -0.036645 0)
(0.379562 -0.0390742 0)
(0.376572 -0.0418017 0)
(0.373924 -0.0448325 0)
(0.371689 -0.0481541 0)
(0.369925 -0.0517443 0)
(0.368694 -0.0555867 0)
(0.368057 -0.0596574 0)
(0.368075 -0.063923 0)
(0.368813 -0.0683441 0)
(0.370335 -0.0728736 0)
(0.372704 -0.0774617 0)
(0.375977 -0.0820403 0)
(0.380214 -0.0865438 0)
(0.385463 -0.0908894 0)
(0.391776 -0.0949798 0)
(0.399194 -0.0987093 0)
(0.407748 -0.101949 0)
(0.417452 -0.104559 0)
(0.42831 -0.106374 0)
(0.44029 -0.107221 0)
(0.453329 -0.106901 0)
(0.467327 -0.105214 0)
(0.482123 -0.101954 0)
(0.529493 -0.0195633 0)
(0.521542 -0.0189272 0)
(0.513513 -0.0182471 0)
(0.5055 -0.0176385 0)
(0.497646 -0.0171229 0)
(0.49006 -0.0167133 0)
(0.482824 -0.0164361 0)
(0.476016 -0.0162777 0)
(0.469661 -0.0162374 0)
(0.463776 -0.0163063 0)
(0.458352 -0.0164624 0)
(0.453359 -0.0166902 0)
(0.448758 -0.0169663 0)
(0.444496 -0.0172691 0)
(0.440514 -0.0175806 0)
(0.43675 -0.0178867 0)
(0.433143 -0.0181773 0)
(0.429632 -0.0184495 0)
(0.426164 -0.0187078 0)
(0.422689 -0.0189646 0)
(0.419169 -0.0192384 0)
(0.415574 -0.0195549 0)
(0.411885 -0.0199451 0)
(0.408094 -0.02045 0)
(0.404206 -0.0211008 0)
(0.400237 -0.0219426 0)
(0.396214 -0.0230148 0)
(0.392173 -0.0243542 0)
(0.388159 -0.0259942 0)
(0.384226 -0.0279634 0)
(0.380433 -0.0302843 0)
(0.376841 -0.0329716 0)
(0.37351 -0.0360336 0)
(0.370523 -0.0394701 0)
(0.367965 -0.0432747 0)
(0.365891 -0.04742 0)
(0.36437 -0.0518956 0)
(0.363473 -0.0566683 0)
(0.363267 -0.0617093 0)
(0.363827 -0.06697 0)
(0.36522 -0.0724074 0)
(0.367522 -0.0779673 0)
(0.3708 -0.0835846 0)
(0.375119 -0.0891861 0)
(0.380547 -0.0946851 0)
(0.387147 -0.0999793 0)
(0.394974 -0.104949 0)
(0.404082 -0.109468 0)
(0.414503 -0.113354 0)
(0.426259 -0.116452 0)
(0.439345 -0.118521 0)
(0.453702 -0.119344 0)
(0.46923 -0.11866 0)
(0.485772 -0.116209 0)
(0.530302 -0.0204033 0)
(0.522385 -0.0194514 0)
(0.514311 -0.0184141 0)
(0.506201 -0.0174699 0)
(0.498247 -0.0166735 0)
(0.49054 -0.0159102 0)
(0.483185 -0.0153786 0)
(0.476266 -0.0149156 0)
(0.469805 -0.0145917 0)
(0.463831 -0.0143755 0)
(0.458336 -0.0142449 0)
(0.453292 -0.0141831 0)
(0.448664 -0.0141575 0)
(0.444394 -0.0141469 0)
(0.440419 -0.0141343 0)
(0.436673 -0.0141074 0)
(0.43309 -0.0140558 0)
(0.4296 -0.0139776 0)
(0.42614 -0.0138823 0)
(0.422655 -0.0137864 0)
(0.419097 -0.0137154 0)
(0.415431 -0.0137019 0)
(0.411632 -0.0137857 0)
(0.407689 -0.0140124 0)
(0.403605 -0.0144282 0)
(0.399395 -0.0150835 0)
(0.395089 -0.0160269 0)
(0.390727 -0.017304 0)
(0.386359 -0.0189546 0)
(0.382044 -0.0210111 0)
(0.377848 -0.0234994 0)
(0.373838 -0.0264376 0)
(0.370084 -0.0298335 0)
(0.366675 -0.0336895 0)
(0.363707 -0.0379941 0)
(0.361243 -0.0427332 0)
(0.359353 -0.0478737 0)
(0.358116 -0.0533987 0)
(0.35761 -0.0592633 0)
(0.357917 -0.0654312 0)
(0.359109 -0.0718491 0)
(0.361271 -0.0784625 0)
(0.364481 -0.0852105 0)
(0.368818 -0.0920149 0)
(0.374363 -0.0987857 0)
(0.381196 -0.105419 0)
(0.389385 -0.111784 0)
(0.399018 -0.117748 0)
(0.410142 -0.123108 0)
(0.422813 -0.127687 0)
(0.437053 -0.131215 0)
(0.452801 -0.133393 0)
(0.469973 -0.133957 0)
(0.488395 -0.132531 0)
(0.531585 -0.0209441 0)
(0.523532 -0.0197018 0)
(0.515401 -0.0183584 0)
(0.507161 -0.0172446 0)
(0.499128 -0.0161261 0)
(0.491302 -0.0152361 0)
(0.483795 -0.0143863 0)
(0.476798 -0.0137494 0)
(0.470217 -0.0131619 0)
(0.464162 -0.012721 0)
(0.458605 -0.0123005 0)
(0.453528 -0.0119603 0)
(0.448895 -0.0116443 0)
(0.444637 -0.0113204 0)
(0.440687 -0.0109776 0)
(0.436975 -0.0106043 0)
(0.433431 -0.010181 0)
(0.429972 -0.0097163 0)
(0.426526 -0.00922037 0)
(0.423027 -0.00871498 0)
(0.419421 -0.00823432 0)
(0.415665 -0.00782291 0)
(0.411727 -0.00753104 0)
(0.407593 -0.00741388 0)
(0.403265 -0.00752904 0)
(0.398757 -0.00793522 0)
(0.394101 -0.00868969 0)
(0.389342 -0.00984774 0)
(0.384538 -0.0114608 0)
(0.379756 -0.0135711 0)
(0.375068 -0.0162113 0)
(0.370551 -0.0193987 0)
(0.366281 -0.0231358 0)
(0.362359 -0.027426 0)
(0.358886 -0.0322556 0)
(0.35594 -0.0376137 0)
(0.353593 -0.0434634 0)
(0.35193 -0.0497856 0)
(0.351039 -0.0565313 0)
(0.351006 -0.0636692 0)
(0.351917 -0.0711388 0)
(0.353857 -0.0788918 0)
(0.356918 -0.0868629 0)
(0.361193 -0.0949768 0)
(0.366777 -0.103143 0)
(0.373769 -0.111254 0)
(0.382257 -0.119181 0)
(0.392362 -0.126769 0)
(0.40416 -0.133825 0)
(0.417722 -0.14011 0)
(0.433134 -0.145353 0)
(0.450279 -0.14916 0)
(0.469057 -0.151183 0)
(0.48935 -0.151021 0)
(0.533097 -0.0211761 0)
(0.524971 -0.019564 0)
(0.516703 -0.0181471 0)
(0.508359 -0.0167569 0)
(0.50021 -0.0155515 0)
(0.492249 -0.0144743 0)
(0.48468 -0.0135074 0)
(0.477518 -0.0126451 0)
(0.470908 -0.0119852 0)
(0.464793 -0.0112698 0)
(0.459218 -0.0106825 0)
(0.454084 -0.0100996 0)
(0.449458 -0.00950386 0)
(0.445232 -0.00886343 0)
(0.441323 -0.00816037 0)
(0.437672 -0.00741992 0)
(0.434191 -0.00657228 0)
(0.430781 -0.00566852 0)
(0.427364 -0.00471839 0)
(0.423861 -0.00374724 0)
(0.420203 -0.00279673 0)
(0.41634 -0.00191584 0)
(0.412236 -0.00116935 0)
(0.407873 -0.00062785 0)
(0.40325 -0.000366004 0)
(0.398384 -0.000459198 0)
(0.393308 -0.000979532 0)
(0.388071 -0.00198919 0)
(0.382737 -0.00353822 0)
(0.377379 -0.0056588 0)
(0.372087 -0.00839403 0)
(0.366958 -0.0117868 0)
(0.362073 -0.0158538 0)
(0.357539 -0.0205908 0)
(0.353465 -0.0259795 0)
(0.349938 -0.0319892 0)
(0.347036 -0.0385913 0)
(0.344855 -0.04576 0)
(0.343486 -0.053447 0)
(0.343025 -0.0616149 0)
(0.343562 -0.0702105 0)
(0.345188 -0.0791833 0)
(0.348008 -0.0884716 0)
(0.352127 -0.0980003 0)
(0.357656 -0.107685 0)
(0.364715 -0.117418 0)
(0.373418 -0.127075 0)
(0.383912 -0.13648 0)
(0.39631 -0.145453 0)
(0.410697 -0.153684 0)
(0.427154 -0.160917 0)
(0.445551 -0.166542 0)
(0.465651 -0.170276 0)
(0.487382 -0.171417 0)
(0.534868 -0.0208015 0)
(0.5266 -0.0190482 0)
(0.518154 -0.0175106 0)
(0.509712 -0.0160107 0)
(0.501385 -0.0147719 0)
(0.493361 -0.0135914 0)
(0.485661 -0.0126302 0)
(0.478407 -0.0116909 0)
(0.471715 -0.0109205 0)
(0.465589 -0.0100832 0)
(0.459929 -0.0093746 0)
(0.45488 -0.00854236 0)
(0.450339 -0.0077225 0)
(0.446204 -0.00676684 0)
(0.442377 -0.0057363 0)
(0.43883 -0.00457066 0)
(0.435457 -0.00329695 0)
(0.4321 -0.00189586 0)
(0.428719 -0.000416009 0)
(0.42522 0.00111037 0)
(0.421515 0.00263587 0)
(0.417535 0.00408637 0)
(0.41324 0.00538412 0)
(0.408605 0.00644482 0)
(0.403629 0.00718042 0)
(0.39833 0.00750129 0)
(0.392746 0.0073234 0)
(0.386932 0.00656087 0)
(0.380963 0.00514105 0)
(0.374936 0.00298341 0)
(0.368948 6.76292e-05 0)
(0.363093 -0.00359441 0)
(0.357457 -0.00798229 0)
(0.352178 -0.0131418 0)
(0.347391 -0.019092 0)
(0.343184 -0.0257893 0)
(0.339627 -0.0331854 0)
(0.336827 -0.0412464 0)
(0.334887 -0.0499311 0)
(0.333899 -0.0591915 0)
(0.333965 -0.0689862 0)
(0.335177 -0.0792555 0)
(0.337653 -0.0899506 0)
(0.341508 -0.100994 0)
(0.34687 -0.112321 0)
(0.353879 -0.123814 0)
(0.362687 -0.13537 0)
(0.373449 -0.146792 0)
(0.386318 -0.157906 0)
(0.4013 -0.168271 0)
(0.418535 -0.177668 0)
(0.437618 -0.185133 0)
(0.458235 -0.190643 0)
(0.480379 -0.193044 0)
(0.536814 -0.019798 0)
(0.528335 -0.0180607 0)
(0.5197 -0.016384 0)
(0.511078 -0.0150219 0)
(0.50262 -0.0137288 0)
(0.494436 -0.0127122 0)
(0.486635 -0.0116774 0)
(0.479342 -0.0108932 0)
(0.472627 -0.00995204 0)
(0.466502 -0.00921064 0)
(0.460949 -0.00829414 0)
(0.45597 -0.00735384 0)
(0.451482 -0.00626053 0)
(0.447491 -0.00507434 0)
(0.443811 -0.0036857 0)
(0.440417 -0.00209394 0)
(0.437179 -0.000353972 0)
(0.433974 0.00157776 0)
(0.430669 0.00364715 0)
(0.427189 0.00580246 0)
(0.423435 0.00797631 0)
(0.419327 0.0100847 0)
(0.414813 0.0120303 0)
(0.409866 0.0137082 0)
(0.404478 0.0150092 0)
(0.398673 0.0158245 0)
(0.392491 0.0160508 0)
(0.386003 0.0155923 0)
(0.379294 0.0143728 0)
(0.372459 0.0123307 0)
(0.365617 0.00940617 0)
(0.358893 0.00554565 0)
(0.352417 0.000723352 0)
(0.346293 -0.00497094 0)
(0.340648 -0.0115041 0)
(0.335631 -0.0189149 0)
(0.331317 -0.027157 0)
(0.327795 -0.0361608 0)
(0.325177 -0.0459016 0)
(0.323561 -0.0563166 0)
(0.323049 -0.0673768 0)
(0.323741 -0.0790164 0)
(0.325759 -0.0911955 0)
(0.329227 -0.103853 0)
(0.334294 -0.116929 0)
(0.341117 -0.130321 0)
(0.349875 -0.143931 0)
(0.360722 -0.157554 0)
(0.373838 -0.170952 0)
(0.389009 -0.183505 0)
(0.406324 -0.194998 0)
(0.424881 -0.203957 0)
(0.444222 -0.2109 0)
(0.464695 -0.21363 0)
(0.538868 -0.0181116 0)
(0.530103 -0.016345 0)
(0.521195 -0.0148043 0)
(0.512364 -0.0135001 0)
(0.503747 -0.0124631 0)
(0.495468 -0.0115171 0)
(0.487598 -0.0107603 0)
(0.480263 -0.00999287 0)
(0.473577 -0.0092647 0)
(0.467462 -0.00848058 0)
(0.462032 -0.00760628 0)
(0.457179 -0.00657728 0)
(0.452903 -0.00533209 0)
(0.449092 -0.00386205 0)
(0.445675 -0.00212515 0)
(0.44248 -0.000101405 0)
(0.439441 0.00218954 0)
(0.436406 0.00472472 0)
(0.433241 0.00746454 0)
(0.429832 0.010343 0)
(0.42606 0.0132769 0)
(0.421829 0.0161621 0)
(0.417077 0.01888 0)
(0.411772 0.021302 0)
(0.405905 0.0232933 0)
(0.399502 0.0247208 0)
(0.392613 0.0254547 0)
(0.38532 0.0253842 0)
(0.377725 0.0244058 0)
(0.36995 0.0224491 0)
(0.362129 0.0194606 0)
(0.354404 0.0154182 0)
(0.34691 0.010305 0)
(0.339792 0.00411246 0)
(0.333221 -0.00313251 0)
(0.327258 -0.0112932 0)
(0.322055 -0.0204094 0)
(0.317703 -0.0304152 0)
(0.3143 -0.0412653 0)
(0.311948 -0.0528977 0)
(0.31075 -0.0652778 0)
(0.310814 -0.0783543 0)
(0.312249 -0.0920896 0)
(0.315194 -0.106444 0)
(0.319816 -0.121361 0)
(0.326288 -0.136773 0)
(0.334803 -0.152576 0)
(0.345477 -0.1685 0)
(0.358441 -0.184201 0)
(0.372953 -0.198631 0)
(0.38909 -0.211803 0)
(0.404897 -0.221132 0)
(0.420436 -0.228199 0)
(0.435622 -0.230838 0)
(0.540925 -0.0155248 0)
(0.531761 -0.0138841 0)
(0.522551 -0.0125276 0)
(0.513458 -0.0114958 0)
(0.504662 -0.0107229 0)
(0.496243 -0.0101713 0)
(0.488304 -0.00969443 0)
(0.481022 -0.00924256 0)
(0.474352 -0.00874498 0)
(0.4684 -0.00813242 0)
(0.463118 -0.00731216 0)
(0.458532 -0.00626412 0)
(0.45451 -0.00488862 0)
(0.45102 -0.00317252 0)
(0.447897 -0.00106739 0)
(0.445061 0.00138137 0)
(0.442333 0.00425498 0)
(0.439566 0.00746106 0)
(0.436584 0.010958 0)
(0.433274 0.0146706 0)
(0.429499 0.0184926 0)
(0.425146 0.0222943 0)
(0.420138 0.02593 0)
(0.414432 0.0292412 0)
(0.408018 0.0320634 0)
(0.400924 0.0342337 0)
(0.393212 0.0355974 0)
(0.384979 0.036017 0)
(0.37635 0.0353746 0)
(0.367468 0.0335804 0)
(0.358496 0.0305741 0)
(0.349601 0.0263241 0)
(0.340943 0.0208341 0)
(0.332674 0.0141327 0)
(0.324966 0.00623825 0)
(0.318011 -0.00281993 0)
(0.311796 -0.0128615 0)
(0.306488 -0.0239159 0)
(0.302195 -0.0359293 0)
(0.299008 -0.0488346 0)
(0.297019 -0.0625869 0)
(0.296332 -0.0771544 0)
(0.297056 -0.092506 0)
(0.299339 -0.108619 0)
(0.303351 -0.125455 0)
(0.309262 -0.142974 0)
(0.317287 -0.161028 0)
(0.327352 -0.179208 0)
(0.339488 -0.196926 0)
(0.351835 -0.212418 0)
(0.364711 -0.225886 0)
(0.374859 -0.23473 0)
(0.381791 -0.237069 0)
(0.391226 -0.240507 0)
(0.542869 -0.0119221 0)
(0.53323 -0.0105288 0)
(0.52361 -0.00950406 0)
(0.514215 -0.00890907 0)
(0.505151 -0.00859783 0)
(0.49662 -0.00853815 0)
(0.488691 -0.00854207 0)
(0.481412 -0.00851811 0)
(0.474916 -0.00842069 0)
(0.469152 -0.00807236 0)
(0.464179 -0.00744639 0)
(0.459901 -0.00643768 0)
(0.456306 -0.00501442 0)
(0.453225 -0.00308378 0)
(0.450555 -0.000670959 0)
(0.44814 0.00227626 0)
(0.445842 0.00575823 0)
(0.443407 0.00970655 0)
(0.44072 0.0140625 0)
(0.437605 0.0187319 0)
(0.433887 0.0235848 0)
(0.429434 0.0284625 0)
(0.424156 0.0331866 0)
(0.418003 0.0375615 0)
(0.410962 0.0413848 0)
(0.403067 0.0444565 0)
(0.394396 0.0465899 0)
(0.385065 0.0476171 0)
(0.375225 0.0473978 0)
(0.365051 0.0458256 0)
(0.354737 0.0428334 0)
(0.344483 0.0383911 0)
(0.334485 0.0325056 0)
(0.324909 0.025224 0)
(0.315932 0.0166086 0)
(0.307733 0.00670168 0)
(0.300494 -0.00442712 0)
(0.294113 -0.0165756 0)
(0.288814 -0.0297998 0)
(0.284689 -0.044026 0)
(0.281806 -0.0592012 0)
(0.280253 -0.0753014 0)
(0.280138 -0.0923028 0)
(0.281606 -0.110212 0)
(0.284823 -0.129017 0)
(0.289954 -0.148669 0)
(0.297129 -0.16889 0)
(0.305853 -0.188941 0)
(0.315934 -0.207758 0)
(0.323972 -0.222884 0)
(0.329638 -0.233188 0)
(0.332943 -0.241149 0)
(0.327849 -0.239352 0)
(0.322643 -0.240374 0)
(0.544541 -0.00714368 0)
(0.534292 -0.00613163 0)
(0.524186 -0.00563433 0)
(0.514406 -0.00562717 0)
(0.505113 -0.00599895 0)
(0.496421 -0.00654852 0)
(0.488487 -0.00724171 0)
(0.481341 -0.00783996 0)
(0.475031 -0.00828099 0)
(0.469632 -0.00838572 0)
(0.465029 -0.00805418 0)
(0.461252 -0.00724196 0)
(0.45816 -0.00581696 0)
(0.45566 -0.00375909 0)
(0.453558 -0.00101363 0)
(0.451776 0.00241793 0)
(0.450024 0.00655879 0)
(0.448107 0.0113318 0)
(0.445819 0.0166934 0)
(0.442974 0.0224787 0)
(0.439371 0.0285358 0)
(0.434851 0.0346792 0)
(0.429303 0.0406922 0)
(0.42266 0.0463336 0)
(0.414908 0.0513554 0)
(0.40609 0.055513 0)
(0.3963 0.0585786 0)
(0.385681 0.0603493 0)
(0.374419 0.0606571 0)
(0.36273 0.0593761 0)
(0.350849 0.0564296 0)
(0.339017 0.0517913 0)
(0.327468 0.045481 0)
(0.316411 0.0375593 0)
(0.306012 0.0281347 0)
(0.296457 0.0172783 0)
(0.287937 0.00508391 0)
(0.280512 -0.00831467 0)
(0.274107 -0.0227958 0)
(0.268947 -0.0383847 0)
(0.265074 -0.0550204 0)
(0.262556 -0.0726723 0)
(0.26148 -0.0913382 0)
(0.261975 -0.111049 0)
(0.264205 -0.13182 0)
(0.268271 -0.153504 0)
(0.274075 -0.175497 0)
(0.280304 -0.196531 0)
(0.286128 -0.214198 0)
(0.287885 -0.227573 0)
(0.281573 -0.231576 0)
(0.273667 -0.236078 0)
(0.265506 -0.239926 0)
(0.258677 -0.239207 0)
(0.545721 -0.00111916 0)
(0.534733 -0.000642012 0)
(0.524033 -0.000823344 0)
(0.513822 -0.00160985 0)
(0.504253 -0.00281381 0)
(0.495456 -0.00428357 0)
(0.487521 -0.00578187 0)
(0.480544 -0.00726548 0)
(0.474572 -0.00837017 0)
(0.469604 -0.00913582 0)
(0.465562 -0.00923102 0)
(0.462388 -0.00875675 0)
(0.460041 -0.0074122 0)
(0.458277 -0.00530534 0)
(0.456971 -0.00222928 0)
(0.455929 0.00167123 0)
(0.454946 0.00655744 0)
(0.453693 0.0122482 0)
(0.451977 0.0187 0)
(0.449513 0.0257707 0)
(0.446108 0.0332438 0)
(0.441565 0.0408835 0)
(0.43574 0.0484314 0)
(0.428552 0.055594 0)
(0.419986 0.0620653 0)
(0.410096 0.0675417 0)
(0.399002 0.0717401 0)
(0.386881 0.0744143 0)
(0.373961 0.0753658 0)
(0.360506 0.0744494 0)
(0.346805 0.0715777 0)
(0.333152 0.066728 0)
(0.319828 0.0599408 0)
(0.307085 0.0513067 0)
(0.295118 0.0409631 0)
(0.284092 0.0290516 0)
(0.274174 0.0156897 0)
(0.265555 0.000976132 0)
(0.258046 -0.0148536 0)
(0.251756 -0.0318396 0)
(0.246814 -0.0499535 0)
(0.243241 -0.0691604 0)
(0.24109 -0.0894797 0)
(0.240466 -0.110969 0)
(0.241508 -0.133606 0)
(0.244172 -0.157015 0)
(0.24766 -0.179886 0)
(0.249932 -0.199993 0)
(0.24745 -0.214231 0)
(0.239697 -0.221725 0)
(0.2244 -0.225588 0)
(0.210022 -0.226744 0)
(0.204754 -0.232398 0)
(0.204381 -0.236615 0)
(0.545871 0.00648327 0)
(0.534077 0.00623089 0)
(0.522738 0.0051345 0)
(0.512071 0.00330772 0)
(0.502226 0.000983518 0)
(0.493342 -0.00161731 0)
(0.48549 -0.00426865 0)
(0.478794 -0.00670988 0)
(0.473264 -0.00886311 0)
(0.468887 -0.0103333 0)
(0.465571 -0.0111801 0)
(0.463223 -0.0110482 0)
(0.461786 -0.0100162 0)
(0.460985 -0.00784412 0)
(0.460666 -0.00458848 0)
(0.460642 -8.78729e-05 0)
(0.460603 0.0054915 0)
(0.460175 0.0122758 0)
(0.459175 0.0199878 0)
(0.457255 0.0285307 0)
(0.454133 0.0376576 0)
(0.449611 0.0470708 0)
(0.443519 0.0564453 0)
(0.435745 0.0654205 0)
(0.426263 0.0736215 0)
(0.415141 0.0806747 0)
(0.402531 0.0862364 0)
(0.388659 0.0900086 0)
(0.373808 0.0917506 0)
(0.358301 0.0912866 0)
(0.342491 0.0885158 0)
(0.326741 0.083425 0)
(0.311397 0.0760824 0)
(0.296763 0.0666242 0)
(0.283066 0.0552338 0)
(0.270471 0.0421221 0)
(0.259133 0.0274487 0)
(0.249132 0.01139 0)
(0.240603 -0.00594402 0)
(0.233128 -0.0243362 0)
(0.227035 -0.0439178 0)
(0.22233 -0.0646621 0)
(0.219005 -0.0865967 0)
(0.217138 -0.10979 0)
(0.21677 -0.134072 0)
(0.217459 -0.158499 0)
(0.217256 -0.180609 0)
(0.212205 -0.197075 0)
(0.198916 -0.205241 0)
(0.179697 -0.207911 0)
(0.164989 -0.212259 0)
(0.156646 -0.216282 0)
(0.15195 -0.223726 0)
(0.151774 -0.234426 0)
(0.5438 0.0153749 0)
(0.53131 0.0142542 0)
(0.519425 0.0120964 0)
(0.508394 0.00904932 0)
(0.498384 0.00538968 0)
(0.489531 0.00140708 0)
(0.481954 -0.00261789 0)
(0.475643 -0.00637386 0)
(0.470733 -0.00966222 0)
(0.467175 -0.0121859 0)
(0.464766 -0.0138928 0)
(0.463518 -0.0143998 0)
(0.463182 -0.0137414 0)
(0.463617 -0.0116695 0)
(0.464533 -0.00821922 0)
(0.465669 -0.00318141 0)
(0.46676 0.00324533 0)
(0.467399 0.0111792 0)
(0.467185 0.020353 0)
(0.465887 0.0306505 0)
(0.463138 0.0416907 0)
(0.458679 0.0531872 0)
(0.452303 0.064747 0)
(0.443874 0.0759159 0)
(0.43336 0.086219 0)
(0.420839 0.0951738 0)
(0.406503 0.102366 0)
(0.390631 0.107445 0)
(0.37357 0.110126 0)
(0.355716 0.110194 0)
(0.337509 0.10753 0)
(0.319399 0.102133 0)
(0.30181 0.0941134 0)
(0.285106 0.0836673 0)
(0.269553 0.0710517 0)
(0.255316 0.0565543 0)
(0.242502 0.0404272 0)
(0.231166 0.0228807 0)
(0.221408 0.0040587 0)
(0.212962 -0.0158543 0)
(0.205719 -0.0368884 0)
(0.199853 -0.0591125 0)
(0.195295 -0.0825825 0)
(0.192071 -0.107313 0)
(0.189988 -0.13276 0)
(0.187663 -0.156905 0)
(0.181132 -0.175724 0)
(0.164977 -0.185542 0)
(0.142391 -0.187727 0)
(0.124883 -0.190149 0)
(0.113858 -0.195438 0)
(0.107269 -0.206254 0)
(0.103878 -0.220117 0)
(0.10292 -0.234893 0)
(0.537205 0.0255646 0)
(0.524494 0.0234363 0)
(0.512471 0.0200099 0)
(0.501428 0.015508 0)
(0.491575 0.0102702 0)
(0.483071 0.00464393 0)
(0.476015 -0.00100845 0)
(0.470463 -0.00637343 0)
(0.466459 -0.0110347 0)
(0.463892 -0.0148832 0)
(0.462717 -0.0175526 0)
(0.462824 -0.0189736 0)
(0.46391 -0.0187997 0)
(0.465767 -0.016966 0)
(0.468072 -0.0132847 0)
(0.470549 -0.00778465 0)
(0.472789 -0.000294745 0)
(0.4744 0.00890935 0)
(0.475044 0.0197584 0)
(0.474294 0.0319684 0)
(0.471778 0.0452581 0)
(0.467334 0.0591607 0)
(0.460648 0.0732329 0)
(0.45152 0.0869507 0)
(0.439879 0.0997752 0)
(0.425824 0.111033 0)
(0.409617 0.120215 0)
(0.391592 0.126884 0)
(0.372149 0.130696 0)
(0.351759 0.131395 0)
(0.330963 0.128844 0)
(0.310326 0.123053 0)
(0.29037 0.114191 0)
(0.271526 0.102545 0)
(0.254106 0.088473 0)
(0.238273 0.0723648 0)
(0.224107 0.0545817 0)
(0.211608 0.03539 0)
(0.200679 0.0150116 0)
(0.191408 -0.00648015 0)
(0.183028 -0.028881 0)
(0.175953 -0.0524779 0)
(0.170104 -0.0773284 0)
(0.165381 -0.103272 0)
(0.160887 -0.128945 0)
(0.153479 -0.150711 0)
(0.136727 -0.162856 0)
(0.111035 -0.164859 0)
(0.0907742 -0.166074 0)
(0.0772703 -0.17161 0)
(0.0680118 -0.183675 0)
(0.0620023 -0.20022 0)
(0.0582589 -0.218086 0)
(0.0559344 -0.235223 0)
(0.522105 0.0359866 0)
(0.510254 0.0329148 0)
(0.499022 0.0282084 0)
(0.488787 0.0221607 0)
(0.479796 0.0151939 0)
(0.472277 0.0077324 0)
(0.466326 0.000223182 0)
(0.462003 -0.00692948 0)
(0.459367 -0.0133157 0)
(0.458325 -0.0186396 0)
(0.458709 -0.0225602 0)
(0.460409 -0.0249085 0)
(0.463189 -0.0254184 0)
(0.466574 -0.0237955 0)
(0.47021 -0.0199167 0)
(0.473752 -0.0137249 0)
(0.476859 -0.00511838 0)
(0.479038 0.00563362 0)
(0.479969 0.0183826 0)
(0.479354 0.0328094 0)
(0.47683 0.0486073 0)
(0.472104 0.0653207 0)
(0.464972 0.0823268 0)
(0.455206 0.0989567 0)
(0.44258 0.114637 0)
(0.427132 0.128404 0)
(0.409205 0.1398 0)
(0.389161 0.148309 0)
(0.36745 0.153503 0)
(0.34461 0.15497 0)
(0.321288 0.152529 0)
(0.298191 0.146225 0)
(0.275969 0.13631 0)
(0.255136 0.123196 0)
(0.236039 0.107381 0)
(0.218838 0.0893961 0)
(0.203562 0.0697371 0)
(0.1901 0.0487653 0)
(0.178273 0.026752 0)
(0.1681 0.00378894 0)
(0.158937 -0.0199619 0)
(0.150732 -0.0447704 0)
(0.143586 -0.0707427 0)
(0.137045 -0.0972224 0)
(0.128525 -0.121391 0)
(0.11264 -0.137385 0)
(0.0857865 -0.139697 0)
(0.0618798 -0.13975 0)
(0.0455533 -0.14495 0)
(0.0339233 -0.158251 0)
(0.0260004 -0.176687 0)
(0.0202183 -0.196399 0)
(0.0155845 -0.215516 0)
(0.0115649 -0.233398 0)
(0.494555 0.0453327 0)
(0.485074 0.0415146 0)
(0.475988 0.0356276 0)
(0.467762 0.028065 0)
(0.46072 0.0193333 0)
(0.45515 0.00995965 0)
(0.451153 0.000462467 0)
(0.448806 -0.00861827 0)
(0.448192 -0.0168388 0)
(0.449194 -0.0238126 0)
(0.451634 -0.0291599 0)
(0.455205 -0.0324829 0)
(0.459588 -0.0336227 0)
(0.464262 -0.0320042 0)
(0.46863 -0.0277433 0)
(0.472474 -0.0206319 0)
(0.475344 -0.0104528 0)
(0.47703 0.00193538 0)
(0.477322 0.0167496 0)
(0.475919 0.0335399 0)
(0.472636 0.0516413 0)
(0.467306 0.0711655 0)
(0.459571 0.0913393 0)
(0.449278 0.111211 0)
(0.435953 0.130777 0)
(0.419628 0.14735 0)
(0.400807 0.161224 0)
(0.379634 0.171709 0)
(0.356407 0.178349 0)
(0.331683 0.180661 0)
(0.306327 0.178324 0)
(0.281239 0.171375 0)
(0.257218 0.160172 0)
(0.234874 0.14529 0)
(0.21459 0.127421 0)
(0.196513 0.107287 0)
(0.180591 0.0855488 0)
(0.166604 0.0626893 0)
(0.154283 0.0390314 0)
(0.14338 0.0147255 0)
(0.133771 -0.01029 0)
(0.124522 -0.036046 0)
(0.11597 -0.0626485 0)
(0.106755 -0.0882072 0)
(0.0911335 -0.107616 0)
(0.0659151 -0.112979 0)
(0.038018 -0.11176 0)
(0.0180808 -0.115968 0)
(0.00451188 -0.130353 0)
(-0.00517426 -0.150368 0)
(-0.0124283 -0.171318 0)
(-0.018687 -0.19197 0)
(-0.0243459 -0.211668 0)
(-0.0295631 -0.229988 0)
(0.452698 0.0517703 0)
(0.446805 0.0475881 0)