/*--------------------------------*- C++ -*----------------------------------*\
  =========                 |
  \\      /  F ield         | OpenFOAM: The Open Source CFD Toolbox
   \\    /   O peration     | Website:  https://openfoam.org
    \\  /    A nd           | Version:  11
     \\/     M anipulation  |
\*---------------------------------------------------------------------------*/
FoamFile
{
    format      ascii;
    class       volScalarField;
    location    "2.5";
    object      p;
}
// * * * * * * * * * * * * * * * * * * * * * * * * * * * * * * * * * * * * * //

dimensions      [0 2 -2 0 0 0 0];

internalField   nonuniform List<scalar> 
9600
(
0.0792633
0.0810435
0.0839374
0.0876017
0.0911783
0.0956556
0.0987673
0.0990603
0.101269
0.105057
0.107808
0.108425
0.10737
0.103441
0.096825
0.0871679
0.0741537
0.0578536
0.0390261
0.018436
-0.00190557
-0.0191973
-0.0328734
-0.0408023
-0.0418524
-0.0378859
-0.0314368
-0.0240718
-0.0169719
-0.0108195
-0.00604712
-0.00233629
0.000400481
0.0023
0.0035701
0.00437015
0.00496793
0.00498166
0.00436057
0.0043955
0.0802697
0.082859
0.0862791
0.0898765
0.0940792
0.0979697
0.0993714
0.0994137
0.101709
0.105607
0.107808
0.107302
0.105396
0.100799
0.0936852
0.0837145
0.0706735
0.0546492
0.0364117
0.0167701
-0.00300846
-0.0193904
-0.0331924
-0.0413471
-0.0429261
-0.0398532
-0.0340717
-0.0270089
-0.019763
-0.0131836
-0.00782659
-0.0036575
-0.000586375
0.00173113
0.00339136
0.00453336
0.00527991
0.00547941
0.00533323
0.00460089
0.0813591
0.0840351
0.0872108
0.0909445
0.0946446
0.0977393
0.09926
0.0998529
0.103138
0.106992
0.10861
0.108973
0.107252
0.102568
0.0954304
0.0854932
0.0724403
0.0564396
0.0381867
0.0183912
-0.000906258
-0.0177875
-0.0304408
-0.0400925
-0.042418
-0.039274
-0.0335365
-0.0265306
-0.0196179
-0.0133952
-0.00837001
-0.00443098
-0.00141958
0.000649722
0.00209565
0.00310702
0.00409393
0.00454237
0.00460761
0.00482353
0.082523
0.0852958
0.0887088
0.0924892
0.0959816
0.0993299
0.10024
0.100516
0.103488
0.106988
0.107973
0.107238
0.104358
0.0991156
0.0916658
0.0814802
0.0683991
0.0525869
0.0346921
0.0156147
-0.00373302
-0.0201319
-0.033899
-0.041686
-0.0440911
-0.0415823
-0.0362671
-0.0294722
-0.0222857
-0.0155059
-0.0097442
-0.00528171
-0.00167905
0.00101731
0.00294384
0.00416732
0.00499258
0.0056287
0.00538126
0.0044479
0.0837587
0.0866472
0.0902166
0.0939232
0.0970824
0.0998244
0.100227
0.101323
0.104798
0.108012
0.109033
0.108813
0.106525
0.101231
0.0935865
0.0833427
0.0701524
0.0543238
0.03648
0.0172652
-0.00127214
-0.0171863
-0.0297984
-0.0405356
-0.0439882
-0.0417231
-0.0365736
-0.029823
-0.0228683
-0.0164565
-0.0108662
-0.00655354
-0.00350976
-0.00114171
0.000585186
0.00198926
0.00326091
0.00405588
0.00457144
0.00499908
0.0850426
0.0880781
0.0917182
0.0951668
0.0980645
0.100289
0.100863
0.10303
0.105846
0.108298
0.108713
0.107554
0.103774
0.0979896
0.0902994
0.0799336
0.0668023
0.0511452
0.0333939
0.0146999
-0.00419146
-0.021023
-0.0342022
-0.0422584
-0.0456775
-0.0438023
-0.0388215
-0.0322491
-0.0250662
-0.0181832
-0.0121794
-0.00714809
-0.00295598
0.000280629
0.00223567
0.00357788
0.00447478
0.00524027
0.00523995
0.00457883
0.0863948
0.0895349
0.0931941
0.0963388
0.0989898
0.100949
0.101868
0.104112
0.106759
0.108906
0.109239
0.108297
0.105458
0.0997635
0.0917352
0.0811991
0.0678278
0.0520095
0.0343723
0.0155369
-0.00267206
-0.0179367
-0.0309857
-0.0414688
-0.0460723
-0.0447354
-0.0400731
-0.0335628
-0.0264573
-0.0196655
-0.0135886
-0.0088079
-0.00551294
-0.00295943
-0.000756483
0.000925331
0.00246643
0.00353711
0.00434833
0.00498785
0.0878233
0.0910085
0.0946267
0.0974813
0.0999493
0.101752
0.103084
0.105276
0.107783
0.109574
0.109527
0.107653
0.103746
0.0973946
0.0892984
0.0787131
0.0654059
0.0497733
0.0320846
0.0135915
-0.00484878
-0.0218203
-0.0350909
-0.0439393
-0.0477988
-0.0467778
-0.042182
-0.0357688
-0.0285501
-0.0215491
-0.0151341
-0.00957431
-0.00480307
-0.00092629
0.00153388
0.00296979
0.00384962
0.00464595
0.00493332
0.00459776
0.0892923
0.0925005
0.096016
0.0986091
0.100984
0.102577
0.104393
0.106391
0.108698
0.110136
0.109773
0.107766
0.104322
0.0984289
0.0900516
0.0792575
0.0656795
0.0497658
0.0321876
0.0135498
-0.00467753
-0.0198501
-0.0326832
-0.0429297
-0.0487885
-0.0483523
-0.0441161
-0.0378172
-0.0305123
-0.0233171
-0.0167406
-0.0113164
-0.00744541
-0.00468385
-0.00237315
-0.000401655
0.00164591
0.00305104
0.00403131
0.00478042
0.0908109
0.0940295
0.0973303
0.099735
0.102073
0.103492
0.105756
0.107553
0.109717
0.110843
0.110111
0.107749
0.103589
0.0972745
0.0885335
0.0775978
0.0639685
0.0481882
0.030506
0.012019
-0.00613383
-0.0228817
-0.036677
-0.0469337
-0.0508126
-0.0506324
-0.046515
-0.0402594
-0.032867
-0.0255221
-0.0186702
-0.0125945
-0.00733084
-0.00273699
0.000513454
0.00200589
0.00299241
0.00393095
0.00446321
0.00441745
0.092408
0.0955831
0.0985585
0.100923
0.103207
0.104701
0.107053
0.10875
0.110754
0.111512
0.11032
0.107803
0.103726
0.0973754
0.0886527
0.0775422
0.0636841
0.0476055
0.0299237
0.0114144
-0.0069611
-0.0226262
-0.0353027
-0.0446517
-0.0522472
-0.0527713
-0.0490176
-0.0428788
-0.0355187
-0.0278365
-0.020585
-0.0143357
-0.00962098
-0.00646806
-0.00392638
-0.00118973
0.000805005
0.00253014
0.00369959
0.00451121
0.0940794
0.0971096
0.0997762
0.102216
0.104381
0.106223
0.108239
0.109974
0.111734
0.112164
0.110768
0.108067
0.103727
0.0969895
0.0878687
0.0764846
0.0624179
0.046316
0.0285441
0.0099753
-0.00821302
-0.0246672
-0.0389123
-0.051333
-0.0547678
-0.0554399
-0.0519688
-0.0458809
-0.0383901
-0.0304552
-0.0229494
-0.0162634
-0.0104905
-0.00533499
-0.00129568
0.00097216
0.00245077
0.00329841
0.00401223
0.00420487
0.0958084
0.0985687
0.101065
0.103633
0.105613
0.107858
0.10951
0.111235
0.112741
0.112922
0.111199
0.108225
0.10376
0.0969005
0.0876215
0.075984
0.0617261
0.0453941
0.0274851
0.00897684
-0.00951709
-0.0258982
-0.0386749
-0.0483793
-0.0567973
-0.058186
-0.0550784
-0.0491302
-0.0416675
-0.0335124
-0.0254742
-0.0182611
-0.0124598
-0.00844004
-0.00566154
-0.00311505
-0.000432937
0.00190199
0.00334749
0.00434497
0.0975038
0.0999694
0.102502
0.105139
0.107116
0.109394
0.110883
0.112566
0.113783
0.113642
0.1117
0.108654
0.104002
0.0967988
0.0872263
0.0754084
0.0608766
0.0442328
0.0262319
0.00753354
-0.0109981
-0.0275311
-0.0418979
-0.0532308
-0.0595607
-0.0613582
-0.058672
-0.0529088
-0.0452579
-0.0367395
-0.028372
-0.0208326
-0.0143942
-0.00866893
-0.00372044
-0.000531408
0.000865138
0.00219965
0.00330572
0.00391704
0.0991416
0.101442
0.104115
0.106657
0.108947
0.110832
0.11235
0.113964
0.114831
0.114435
0.112378
0.109105
0.104138
0.0966747
0.0868983
0.074819
0.0600128
0.043106
0.0248775
0.00614325
-0.0125845
-0.0295416
-0.0433466
-0.0540724
-0.0621847
-0.064683
-0.0626327
-0.0570669
-0.0492424
-0.0405554
-0.0317614
-0.0235168
-0.0164752
-0.0111423
-0.00751769
-0.00463027
-0.00166582
0.000786839
0.00256152
0.00384801
0.100801
0.103064
0.105865
0.108326
0.110769
0.112359
0.113935
0.115402
0.115971
0.115295
0.113094
0.109609
0.10446
0.0967728
0.0866179
0.0740747
0.0589255
0.041854
0.0234999
0.00463072
-0.0143134
-0.0314829
-0.0459948
-0.0580292
-0.0657067
-0.0685479
-0.0669596
-0.0616226
-0.0538945
-0.0448437
-0.0354797
-0.0267742
-0.0193277
-0.0129944
-0.00727128
-0.00299157
-0.000463164
0.00141527
0.00267659
0.00359486
0.102597
0.104874
0.107678
0.110291
0.112483
0.114064
0.115645
0.116945
0.117206
0.116204
0.113925
0.110331
0.104817
0.096699
0.0861558
0.0733197
0.0579039
0.0405881
0.0219202
0.00289907
-0.016112
-0.0338657
-0.0487762
-0.0605623
-0.0690299
-0.0726534
-0.0717004
-0.0668114
-0.0589981
-0.0496507
-0.0399598
-0.0306245
-0.0222425
-0.0153194
-0.0101895
-0.00662175
-0.00359777
-0.000764529
0.00163142
0.0032396
0.104585
0.106884
0.109638
0.11228
0.114271
0.11594
0.117497
0.11855
0.118474
0.11729
0.114933
0.111028
0.10505
0.0966655
0.0858229
0.072654
0.0568263
0.0390648
0.0201591
0.000853847
-0.0182727
-0.0362808
-0.0516203
-0.0641893
-0.0733179
-0.0772554
-0.0769692
-0.0724843
-0.064783
-0.05534
-0.0450815
-0.0349307
-0.0259563
-0.0185081
-0.0120947
-0.00652029
-0.00265498
-0.000362538
0.00160179
0.00293962
0.106793
0.109001
0.111738
0.114245
0.116245
0.118023
0.119496
0.120213
0.119889
0.118555
0.115962
0.111703
0.105412
0.0967241
0.0853714
0.0716853
0.0554704
0.0374382
0.0182846
-0.00134897
-0.0205307
-0.0388319
-0.0549685
-0.0679025
-0.0772074
-0.0822532
-0.0826108
-0.0787658
-0.0714328
-0.0616812
-0.0509311
-0.0402516
-0.0304098
-0.0217977
-0.0148012
-0.00969329
-0.00587112
-0.00259288
0.000154741
0.00225221
0.109162
0.111273
0.113926
0.116372
0.118487
0.120357
0.121624
0.122008
0.121445
0.119903
0.117044
0.112511
0.105742
0.0965342
0.0847076
0.0706706
0.0541653
0.0356926
0.0161545
-0.00379961
-0.0232231
-0.041797
-0.0584001
-0.0720415
-0.0821514
-0.0877429
-0.0888773
-0.085837
-0.078892
-0.0690419
-0.0579323
-0.0464283
-0.035538
-0.026183
-0.0184567
-0.011903
-0.00643096
-0.00269897
-0.000220865
0.00157183
0.111551
0.113601
0.116254
0.118783
0.121034
0.122895
0.123922
0.123957
0.123115
0.121375
0.118249
0.113272
0.105916
0.0962373
0.08402
0.0695346
0.0525861
0.0335563
0.01369
-0.00661907
-0.026284
-0.0449019
-0.0620274
-0.0763773
-0.0871645
-0.093723
-0.0958024
-0.0935177
-0.0871875
-0.0775731
-0.0660123
-0.0536805
-0.0419965
-0.0315408
-0.0224179
-0.0151116
-0.00966771
-0.00536421
-0.00193359
0.000468151
0.114181
0.11619
0.118897
0.121551
0.123849
0.125607
0.126386
0.126065
0.124926
0.122977
0.119479
0.113965
0.106051
0.0958242
0.0830962
0.0680099
0.0505983
0.0311456
0.0109617
-0.00956572
-0.0295936
-0.0484472
-0.0659529
-0.0810532
-0.0928318
-0.100368
-0.103439
-0.102085
-0.0965831
-0.0872746
-0.0754432
-0.0625509
-0.0497221
-0.037855
-0.0277815
-0.0195659
-0.0126443
-0.00716701
-0.00316481
-0.000299156
0.11702
0.119068
0.121916
0.124655
0.126896
0.128509
0.129047
0.128381
0.126922
0.124677
0.120722
0.114635
0.106069
0.0951728
0.0818595
0.0661589
0.0482861
0.028366
0.00779259
-0.0129074
-0.033274
-0.0523837
-0.0702191
-0.0859963
-0.0987769
-0.107502
-0.111799
-0.111569
-0.107047
-0.0983327
-0.0865383
-0.0729801
-0.0590138
-0.0460551
-0.0346011
-0.0246346
-0.0165904
-0.0105266
-0.00583949
-0.0023689
0.120268
0.122366
0.125333
0.128101
0.130205
0.131618
0.131931
0.130949
0.129083
0.126424
0.121962
0.115209
0.105914
0.0942403
0.0803024
0.0639397
0.0454847
0.0251169
0.00407489
-0.0167018
-0.0371885
-0.0566064
-0.0747538
-0.0911516
-0.105086
-0.115253
-0.121047
-0.122171
-0.118772
-0.110943
-0.0994495
-0.0854622
-0.0705223
-0.0560573
-0.0429229
-0.0316426
-0.02232
-0.0146728
-0.00867466
-0.00445915
0.123953
0.126116
0.129165
0.131909
0.13384
0.135003
0.135088
0.133799
0.131434
0.128212
0.123132
0.115638
0.105571
0.0930103
0.0783239
0.0612396
0.042085
0.0213938
-4.49268e-05
-0.0210161
-0.041423
-0.0610188
-0.0795761
-0.0965309
-0.111551
-0.123375
-0.131084
-0.133955
-0.132018
-0.125328
-0.114389
-0.100333
-0.0845485
-0.0685359
-0.0537267
-0.0406944
-0.0294948
-0.0203333
-0.0131214
-0.00795772
0.128155
0.130356
0.133438
0.136086
0.137808
0.138677
0.138515
0.136882
0.133947
0.129977
0.124176
0.115827
0.104909
0.0914063
0.0757802
0.0579639
0.038024
0.0169456
-0.00457865
-0.0257195
-0.0461219
-0.0655824
-0.0844304
-0.102002
-0.117991
-0.131502
-0.141655
-0.146997
-0.147041
-0.141758
-0.131807
-0.118007
-0.101646
-0.0842136
-0.06748
-0.0524053
-0.039232
-0.028282
-0.0193996
-0.0128507
0.132902
0.135111
0.138197
0.1407
0.142224
0.142748
0.142242
0.140223
0.13659
0.131681
0.125026
0.115701
0.103759
0.089301
0.0726204
0.0539532
0.0332684
0.0116303
-0.00992592
-0.0308256
-0.0511292
-0.0704004
-0.0892286
-0.107276
-0.124267
-0.139459
-0.151993
-0.160501
-0.163752
-0.160863
-0.152263
-0.138926
-0.122384
-0.103987
-0.0852147
-0.0677058
-0.0521763
-0.0390004
-0.0281895
-0.0201609
0.138307
0.140435
0.143526
0.145872
0.147076
0.14722
0.146229
0.143764
0.139392
0.133196
0.125488
0.115201
0.101961
0.0863078
0.0685339
0.0489503
0.0276814
0.00561307
-0.0162058
-0.0368219
-0.0566459
-0.0755259
-0.0940515
-0.112296
-0.130081
-0.146842
-0.161962
-0.173728
-0.180859
-0.181888
-0.176432
-0.16461
-0.147908
-0.128389
-0.107925
-0.0881364
-0.0697921
-0.0537812
-0.0404864
-0.0306147
0.14455
0.146534
0.149485
0.151641
0.152516
0.152115
0.150401
0.147182
0.142143
0.134678
0.125294
0.113922
0.0995789
0.0824224
0.0631792
0.0425392
0.0207264
-0.00143313
-0.02322
-0.0436468
-0.0628079
-0.0810887
-0.0990309
-0.117058
-0.135522
-0.153684
-0.171243
-0.186435
-0.197701
-0.2034
-0.202414
-0.194488
-0.179896
-0.160282
-0.137796
-0.114944
-0.0933913
-0.0741864
-0.0578953
-0.0455914
0.151658
0.15341
0.156186
0.158049
0.158404
0.157273
0.15476
0.150562
0.144354
0.135707
0.124508
0.111437
0.095865
0.0774701
0.0565877
0.0344644
0.0120005
-0.0101177
-0.031377
-0.0513787
-0.069704
-0.0870305
-0.104021
-0.121569
-0.140052
-0.159698
-0.179578
-0.198643
-0.214348
-0.225388
-0.229775
-0.226817
-0.216314
-0.199186
-0.177282
-0.152692
-0.127314
-0.103422
-0.0824114
-0.0664487
0.159853
0.161212
0.163662
0.165076
0.164846
0.162885
0.159144
0.153669
0.145913
0.135771
0.122763
0.107585
0.0902822
0.0704379
0.0483048
0.0247303
0.0015129
-0.0207789
-0.0411658
-0.0602889
-0.0773514
-0.0937329
-0.108916
-0.125613
-0.143384
-0.164073
-0.185994
-0.208999
-0.230225
-0.247885
-0.259101
-0.262675
-0.257754
-0.244778
-0.224739
-0.200713
-0.174208
-0.147403
-0.121845
-0.100566
0.169331
0.17011
0.171965
0.172625
0.171263
0.168162
0.162956
0.155772
0.14616
0.133961
0.119155
0.101652
0.0822832
0.060514
0.037336
0.012715
-0.0109843
-0.0335096
-0.0528629
-0.0709404
-0.0860523
-0.10093
-0.114055
-0.129234
-0.14555
-0.166268
-0.189658
-0.216195
-0.242854
-0.268502
-0.28868
-0.301721
-0.304694
-0.299405
-0.284201
-0.262013
-0.234814
-0.20597
-0.177797
-0.153958
0.18027
0.180323
0.181377
0.181215
0.178674
0.173635
0.166296
0.156561
0.144583
0.129882
0.112929
0.0927862
0.0709352
0.0472093
0.022776
-0.00242934
-0.0261928
-0.0483515
-0.0668663
-0.0830326
-0.0962954
-0.108573
-0.119597
-0.131978
-0.146299
-0.165537
-0.189347
-0.218453
-0.250642
-0.284659
-0.315641
-0.34113
-0.358054
-0.363238
-0.357574
-0.342071
-0.318148
-0.288618
-0.257368
-0.229579
0.192131
0.190853
0.190381
0.188277
0.183811
0.176604
0.16689
0.154235
0.139174
0.121625
0.101793
0.0792447
0.0548758
0.0293087
0.00331405
-0.0218456
-0.0454804
-0.065976
-0.0832246
-0.0966569
-0.107894
-0.116326
-0.124957
-0.133492
-0.144958
-0.160589
-0.182924
-0.211752
-0.247964
-0.29035
-0.334
-0.375264
-0.410081
-0.434135
-0.445596
-0.444497
-0.43123
-0.407552
-0.376323
-0.345957
0.207566
0.204417
0.201903
0.197158
0.189187
0.178028
0.164239
0.14799
0.128998
0.107873
0.0847552
0.0597317
0.0328454
0.00583445
-0.0213191
-0.0461643
-0.0690946
-0.0875089
-0.102369
-0.112952
-0.120603
-0.12547
-0.13043
-0.134599
-0.141401
-0.151416
-0.168361
-0.192536
-0.227353
-0.271965
-0.3266
-0.384892
-0.443516
-0.494801
-0.538265
-0.566982
-0.579549
-0.575117
-0.558345
-0.533398
0.217477
0.210679
0.204606
0.197192
0.186214
0.171811
0.154069
0.133448
0.110212
0.0849199
0.0582036
0.0303257
0.0016986
-0.0264214
-0.0536683
-0.0780747
-0.0989823
-0.115382
-0.126329
-0.133132
-0.136617
-0.137782
-0.138876
-0.139845
-0.140991
-0.143461
-0.149671
-0.162991
-0.187531
-0.226178
-0.279214
-0.344135
-0.417201
-0.492012
-0.567395
-0.638141
-0.701895
-0.752734
-0.789404
-0.806194
0.243567
0.231486
0.215253
0.195948
0.174391
0.151497
0.126811
0.0999117
0.0712253
0.0409039
0.00994719
-0.0211846
-0.0518439
-0.0807465
-0.107024
-0.129277
-0.145727
-0.156625
-0.1608
-0.160556
-0.157657
-0.15418
-0.151918
-0.151424
-0.151505
-0.149879
-0.144392
-0.138261
-0.139549
-0.158624
-0.196776
-0.252189
-0.316094
-0.386889
-0.464222
-0.546856
-0.631517
-0.715215
-0.795111
-0.864547
0.205502
0.186853
0.168635
0.148559
0.124879
0.0978192
0.0679059
0.0356808
0.00232861
-0.0317683
-0.0655244
-0.0984193
-0.12987
-0.158474
-0.182504
-0.200297
-0.209926
-0.211338
-0.204603
-0.191925
-0.17608
-0.162535
-0.158251
-0.160649
-0.170698
-0.176814
-0.170636
-0.14537
-0.112748
-0.0962073
-0.10306
-0.126188
-0.166123
-0.221614
-0.282179
-0.349252
-0.42172
-0.497295
-0.57387
-0.64815
0.267119
0.231554
0.193089
0.156341
0.120408
0.0837415
0.045888
0.0070623
-0.0311559
-0.0678077
-0.101528
-0.13158
-0.157693
-0.178816
-0.194276
-0.202133
-0.201894
-0.193291
-0.177201
-0.155558
-0.130568
-0.108096
-0.0923892
-0.0921662
-0.11294
-0.156627
-0.198996
-0.184873
-0.131296
-0.0797283
-0.0577957
-0.0599798
-0.0621465
-0.0791642
-0.109119
-0.147846
-0.193016
-0.244864
-0.306392
-0.368009
-0.0681116
-0.0998434
-0.138418
-0.187574
-0.238902
-0.288588
-0.335721
-0.378819
-0.413374
-0.437488
-0.455777
-0.47205
-0.484689
-0.490093
-0.486143
-0.472559
-0.448925
-0.415941
-0.374386
-0.326844
-0.275057
-0.222725
-0.176195
-0.147133
-0.14715
-0.180521
-0.195059
-0.194913
-0.193722
-0.187306
-0.178042
-0.16934
-0.163872
-0.163358
-0.169747
-0.183395
-0.201507
-0.223182
-0.24935
-0.280049
0.0060755
0.00537558
0.0032746
0.00556583
0.00372736
0.00500163
0.00315588
0.0035532
0.00207643
0.00100491
-3.8779e-05
-0.00116556
-0.00218115
-0.00304464
-0.00356292
-0.00384354
-0.00407191
-0.00410892
-0.00388309
-0.00357408
-0.00332185
-0.00306698
-0.0026324
-0.002216
-0.00180841
-0.00142641
-0.00107287
-0.000700596
-0.000355416
-9.62968e-06
0.000305598
0.000593157
0.00085517
0.00106743
0.00123475
0.00138915
0.00179253
0.00209498
0.00376879
0.00146236
0.00304735
0.00528604
0.00382169
0.00531477
0.00420181
0.00509552
0.00355662
0.0033874
0.00234403
0.00113497
1.90706e-06
-0.00119216
-0.00236471
-0.00326503
-0.00376417
-0.00410948
-0.00430661
-0.00425287
-0.00402377
-0.00381638
-0.00366614
-0.00324536
-0.00281767
-0.00245132
-0.00205653
-0.00166956
-0.00124242
-0.000807105
-0.000423069
-6.52898e-05
0.000244133
0.000524334
0.00077902
0.000969093
0.00113456
0.00133775
0.00163532
0.00196675
0.00201863
-0.000263321
0.00683923
0.00538634
0.00427095
0.00512868
0.00466877
0.00525756
0.00402314
0.00339443
0.00255706
0.00125429
-3.05619e-05
-0.00134059
-0.0025968
-0.0035173
-0.00410771
-0.00451912
-0.00466283
-0.00452886
-0.00427749
-0.00420109
-0.0039913
-0.00346405
-0.00307801
-0.00274162
-0.00234208
-0.00191171
-0.00143938
-0.000991573
-0.00057685
-0.000207428
9.35836e-05
0.000380171
0.000624832
0.000812156
0.00100723
0.00122934
0.0015214
0.00208817
0.0029336
0.00332895
0.00299634
0.00524337
0.0046586
0.0050499
0.00523713
0.00547664
0.00451543
0.00358517
0.00274936
0.0013647
-8.18716e-05
-0.00151924
-0.00282079
-0.00377967
-0.00448511
-0.00497197
-0.00514127
-0.00503251
-0.00484247
-0.00460754
-0.0041811
-0.00371359
-0.00341926
-0.0030845
-0.00264613
-0.00217018
-0.00169777
-0.00126763
-0.000829219
-0.000456971
-0.000162448
0.000136235
0.000397613
0.00062938
0.000865411
0.00111152
0.00136245
0.00156797
0.00166662
0.0010118
0.00670848
0.00542386
0.0049571
0.00517187
0.00577559
0.00578835
0.00501791
0.0039366
0.00296404
0.00147732
-0.00011907
-0.00169133
-0.00303615
-0.00404647
-0.00486713
-0.00543776
-0.00563898
-0.00563846
-0.00542678
-0.0049204
-0.00439955
-0.00406155
-0.00381871
-0.0034098
-0.00295705
-0.00247497
-0.0020476
-0.00161106
-0.00115907
-0.000818192
-0.000514084
-0.000159455
0.000153203
0.000445541
0.000720701
0.000989291
0.00127057
0.00162307
0.00220694
0.00307171
0.00329147
0.00531559
0.00524327
0.00550715
0.00624491
0.00616705
0.00552286
0.00439575
0.0032481
0.00164391
-0.000103636
-0.00180792
-0.00320381
-0.00433685
-0.00526863
-0.00586208
-0.00613055
-0.00616197
-0.00584389
-0.0052602
-0.00485971
-0.00458483
-0.00421073
-0.00374538
-0.00327838
-0.00282525
-0.00240422
-0.00193493
-0.00150948
-0.00121134
-0.000865184
-0.000443951
-8.33317e-05
0.000259346
0.000564239
0.000850957
0.00110618
0.00126634
0.00137733
0.00127134
0.006665
0.00552642
0.00558983
0.00598238
0.00670069
0.00663202
0.00608079
0.00492836
0.00361019
0.00186781
-2.81927e-05
-0.00183741
-0.00332317
-0.00462177
-0.00562978
-0.00627505
-0.00662672
-0.00651123
-0.00615864
-0.00579158
-0.00550793
-0.00512812
-0.00458048
-0.00409186
-0.00361668
-0.00319419
-0.00275172
-0.00225814
-0.00187632
-0.0015889
-0.00117688
-0.000709076
-0.000302619
7.352e-05
0.000394236
0.000691241
0.000976777
0.00128136
0.00172973
0.00237272
0.00372019
0.00547589
0.00593907
0.00651485
0.00716202
0.00719592
0.00670613
0.00552597
0.00406341
0.00215964
0.000108107
-0.00178452
-0.00342294
-0.0048711
-0.00594849
-0.00669355
-0.00696784
-0.00677504
-0.00652113
-0.00635492
-0.00603314
-0.00551925
-0.00493905
-0.00444504
-0.00402183
-0.00362579
-0.00314757
-0.00264016
-0.00229598
-0.00197856
-0.00150211
-0.00100962
-0.000561173
-0.000159443
0.000183188
0.000486112
0.000767116
0.000991545
0.00116597
0.00127616
0.00651079
0.00567057
0.00629338
0.00705691
0.00772313
0.00782791
0.00739403
0.00616236
0.00459933
0.00253604
0.0003297
-0.00166122
-0.0034961
-0.00507831
-0.00625285
-0.00699882
-0.00713044
-0.00708324
-0.00699233
-0.00680744
-0.00641274
-0.00583933
-0.00531564
-0.00483304
-0.00443639
-0.0040511
-0.00355989
-0.00309794
-0.00279563
-0.00242194
-0.00188531
-0.00136103
-0.000883041
-0.000460835
-9.58328e-05
0.000219944
0.000539373
0.000881095
0.00128502
0.00174117
0.00399669
0.00574634
0.00667176
0.00759032
0.00834281
0.00852983
0.00818672
0.00689403
0.0052156
0.00300289
0.000657382
-0.00148891
-0.00354761
-0.00525283
-0.00648896
-0.0071733
-0.00737341
-0.00747913
-0.0074576
-0.00720089
-0.0067699
-0.00626041
-0.00575384
-0.0052636
-0.00485537
-0.00446399
-0.00399397
-0.00360179
-0.00330623
-0.00285424
-0.00227706
-0.00174684
-0.00126845
-0.000827105
-0.000434998
-8.81667e-05
0.000262247
0.000587901
0.000867618
0.00112139
0.00621149
0.00601937
0.00705317
0.00813812
0.0090518
0.00933391
0.00907298
0.00775713
0.00591041
0.00357637
0.00108654
-0.00130776
-0.00357867
-0.0053775
-0.0065937
-0.00730245
-0.00775799
-0.00793537
-0.00785155
-0.00758644
-0.00723686
-0.00683121
-0.00634921
-0.00584184
-0.00539663
-0.00494987
-0.00444895
-0.00408104
-0.0037521
-0.00324134
-0.00266498
-0.00214506
-0.0016689
-0.00121326
-0.000804936
-0.00043354
-5.7796e-05
0.000332286
0.000769455
0.00119126
0.00411785
0.00627521
0.00749932
0.00874626
0.00984276
0.0102289
0.0100282
0.00873458
0.00669677
0.00427965
0.00159547
-0.00110902
-0.00354946
-0.00542242
-0.00656136
-0.00752099
-0.00811085
-0.00832452
-0.00823147
-0.00806978
-0.00783882
-0.00750625
-0.00706873
-0.00658445
-0.00613022
-0.00558645
-0.0050215
-0.00461766
-0.00420512
-0.00361743
-0.0030319
-0.00253402
-0.00207428
-0.00161106
-0.00119879
-0.00080091
-0.000393639
2.05188e-05
0.000435537
0.000829763
0.00608252
0.00656672
0.0079289
0.00940294
0.0107348
0.0112545
0.011101
0.00982497
0.00763572
0.00510948
0.00214233
-0.000886151
-0.00346444
-0.00533446
-0.00659278
-0.00775409
-0.00837927
-0.00873579
-0.00877292
-0.00869222
-0.00851253
-0.00820028
-0.00779357
-0.00742919
-0.00700546
-0.00639973
-0.00577674
-0.00527999
-0.0047336
-0.00404508
-0.00345525
-0.00297584
-0.00250933
-0.00203973
-0.00162449
-0.00119467
-0.000761545
-0.000306197
0.000196212
0.000652202
0.00467609
0.00665956
0.00842037
0.0101437
0.0117395
0.012429
0.0123286
0.0110532
0.00878034
0.00608874
0.00272685
-0.000582131
-0.00325944
-0.00511588
-0.00674636
-0.00787688
-0.00872117
-0.00928784
-0.00945973
-0.00939657
-0.00923247
-0.00893001
-0.008586
-0.00830979
-0.00788116
-0.00727466
-0.0066317
-0.00605314
-0.0053639
-0.00460316
-0.00400481
-0.00352213
-0.00302451
-0.0025444
-0.00211034
-0.00164607
-0.00116955
-0.000673812
-0.000161981
0.000275957
0.00545379
0.00695177
0.00895973
0.010959
0.0128385
0.013805
0.0137192
0.0124896
0.0101572
0.00714567
0.00336575
-0.00010342
-0.00288275
-0.004932
-0.00677501
-0.00804833
-0.00917006
-0.00985998
-0.010104
-0.0101221
-0.0100525
-0.00983375
-0.00954913
-0.00922896
-0.00877199
-0.00817144
-0.00752282
-0.00687616
-0.00610332
-0.0053209
-0.00471299
-0.00418159
-0.00362191
-0.00313399
-0.00266499
-0.00214048
-0.00159659
-0.00104143
-0.000511381
-0.000200626
0.00498866
0.00718694
0.00954187
0.0118517
0.0141072
0.015361
0.0152991
0.0141939
0.0117399
0.0082418
0.00412646
0.000587888
-0.00234366
-0.00479797
-0.00674671
-0.00839537
-0.009646
-0.0103872
-0.0107257
-0.0109233
-0.0110271
-0.0109221
-0.0107039
-0.010339
-0.00981705
-0.00913505
-0.00843405
-0.00775047
-0.00693843
-0.00613839
-0.00551131
-0.00491946
-0.00432465
-0.00381043
-0.00326958
-0.00268147
-0.00208178
-0.00149225
-0.000957582
-0.000655769
0.00527846
0.00746235
0.010154
0.0128645
0.0154989
0.0170894
0.0171968
0.016168
0.013397
0.0094361
0.00512064
0.00147174
-0.00177805
-0.00458979
-0.00684795
-0.00875156
-0.0100565
-0.0109241
-0.0114516
-0.0118347
-0.0121348
-0.0121785
-0.0120217
-0.0116278
-0.010989
-0.0101927
-0.00943885
-0.00869654
-0.00782245
-0.00704274
-0.00640385
-0.00576516
-0.00514205
-0.0046003
-0.00400081
-0.00335059
-0.00268983
-0.00205153
-0.00149847
-0.00119632
0.00488985
0.00768139
0.0107752
0.0139565
0.0170008
0.0190589
0.0194655
0.0183552
0.0151073
0.0109317
0.00640062
0.0024625
-0.00123271
-0.0043269
-0.00693992
-0.00893708
-0.0104407
-0.011574
-0.0123284
-0.0129654
-0.0133905
-0.0135015
-0.013327
-0.0128906
-0.0121829
-0.0113629
-0.0105751
-0.00975038
-0.00884901
-0.00809578
-0.00743368
-0.00677804
-0.00616094
-0.00558905
-0.00491721
-0.00419272
-0.00345734
-0.00275942
-0.0021728
-0.00184486
0.00480644
0.00783804
0.0113726
0.0151205
0.0186172
0.0212843
0.0220796
0.0207199
0.0170832
0.0128545
0.00779965
0.00351148
-0.000522259
-0.00398317
-0.00680433
-0.00903215
-0.0109175
-0.0124044
-0.0134519
-0.0143165
-0.0147086
-0.0147669
-0.0145514
-0.0140645
-0.0133769
-0.0125682
-0.0117871
-0.0109205
-0.0100332
-0.00928833
-0.00860861
-0.00794189
-0.00732259
-0.00668332
-0.00592198
-0.005123
-0.0043138
-0.00356313
-0.00292965
-0.0025808
0.00434043
0.00802984
0.011929
0.0162911
0.0203725
0.0237979
0.0250426
0.0233693
0.0194529
0.0148281
0.00904446
0.00466742
0.000380466
-0.00346858
-0.006526
-0.00919895
-0.0114827
-0.0133849
-0.0147474
-0.0157536
-0.0161491
-0.0161636
-0.015888
-0.0152879
-0.0145764
-0.0137925
-0.0130503
-0.0121163
-0.0112491
-0.0104889
-0.00978062
-0.00909003
-0.00843495
-0.00771113
-0.00689102
-0.00605127
-0.00520772
-0.00444044
-0.00375939
-0.00339861
0.00395492
0.00828521
0.0124595
0.0174845
0.022297
0.0265867
0.0283442
0.0264935
0.0221196
0.0166797
0.010058
0.00599711
0.0012677
-0.00296821
-0.00641671
-0.00947758
-0.0121706
-0.0144705
-0.0161569
-0.017331
-0.0177656
-0.0178019
-0.0174138
-0.0167046
-0.0159427
-0.0151912
-0.0144151
-0.0134017
-0.0125094
-0.0116805
-0.0109257
-0.0102275
-0.00955838
-0.00881397
-0.00800644
-0.0071575
-0.00630741
-0.00551137
-0.00476372
-0.00437423
0.00306529
0.00823202
0.0128367
0.0184961
0.0242679
0.0295935
0.032089
0.0301721
0.0249974
0.0189173
0.0117545
0.00705616
0.00187237
-0.00258049
-0.00650638
-0.00993942
-0.0131429
-0.0157183
-0.0176666
-0.0189308
-0.0194112
-0.0195251
-0.0190907
-0.0184181
-0.0176536
-0.0168968
-0.0160251
-0.0149572
-0.0140202
-0.013125
-0.0123855
-0.0117265
-0.0110762
-0.0103337
-0.00951315
-0.00860384
-0.00770319
-0.00682583
-0.00598333
-0.00552505
0.00171012
0.00787526
0.0130864
0.0192267
0.0260817
0.0326904
0.0363525
0.0344626
0.0283201
0.0213466
0.0141998
0.00847513
0.00287991
-0.00229179
-0.0066614
-0.0107133
-0.0143706
-0.0171189
-0.0192545
-0.0205112
-0.021044
-0.0212379
-0.0208598
-0.0202956
-0.0195598
-0.0187936
-0.0178577
-0.0168697
-0.0159738
-0.0150526
-0.0143175
-0.0136356
-0.012933
-0.0120978
-0.0111591
-0.0101246
-0.00914035
-0.00819931
-0.00732176
-0.00681786
4.36314e-05
0.00675348
0.0127262
0.019393
0.0274428
0.0356335
0.0411935
0.0395705
0.0325086
0.0240935
0.0169522
0.0106337
0.00433757
-0.00156834
-0.0067235
-0.0114768
-0.0155954
-0.0186427
-0.0209537
-0.0222039
-0.022839
-0.023091
-0.0227688
-0.0222903
-0.0216059
-0.0208599
-0.0199166
-0.0189856
-0.0180176
-0.0170686
-0.0162531
-0.0154409
-0.0145935
-0.0136207
-0.0125511
-0.0114672
-0.0104929
-0.00958439
-0.0087513
-0.00824751
-0.00254764
0.00491715
0.0117744
0.0190066
0.0282495
0.0382604
0.0464023
0.045692
0.0379218
0.0276078
0.0201925
0.0135632
0.00631824
-0.000519801
-0.00644532
-0.0118563
-0.0166858
-0.0202045
-0.0227485
-0.0241285
-0.0249244
-0.0251596
-0.024896
-0.0245161
-0.0238878
-0.0231085
-0.0221202
-0.0210749
-0.0199237
-0.0188881
-0.0179666
-0.017076
-0.0161669
-0.0151613
-0.0141005
-0.0130804
-0.0121139
-0.0111965
-0.0103502
-0.00984662
-0.00619247
0.00193677
0.00965308
0.0176992
0.0281554
0.0403155
0.0515284
0.0528522
0.0449373
0.0327545
0.0247285
0.0173289
0.00899387
0.00116345
-0.00574873
-0.0121536
-0.0174708
-0.0214852
-0.0243539
-0.0259986
-0.0269997
-0.0273521
-0.027311
-0.0270805
-0.0265183
-0.0257385
-0.024685
-0.0234964
-0.0222989
-0.0212906
-0.0203717
-0.0194922
-0.0185751
-0.0175412
-0.0164562
-0.0153614
-0.0142629
-0.0132176
-0.0122674
-0.0117233
-0.0122795
-0.00310535
0.00539779
0.0147566
0.0266551
0.0415285
0.0558766
0.0608567
0.0538338
0.0405335
0.0310469
0.0219335
0.0124952
0.00329335
-0.00490232
-0.0119657
-0.0177199
-0.0221701
-0.0253422
-0.0273884
-0.0287825
-0.029577
-0.0299618
-0.029992
-0.0296193
-0.0290129
-0.0281007
-0.0270464
-0.0259857
-0.0250483
-0.0240841
-0.0230953
-0.0219936
-0.0207698
-0.0194929
-0.0182253
-0.0169754
-0.0157976
-0.0147262
-0.0141081
-0.0214406
-0.0112857
-0.00250907
0.00836843
0.0223962
0.0406723
0.0586801
0.0686989
0.064595
0.0515334
0.0395017
0.0278479
0.0166741
0.00570343
-0.00368264
-0.0113799
-0.0176178
-0.0224074
-0.0259961
-0.0286054
-0.0305489
-0.0318827
-0.0327094
-0.0330944
-0.0330727
-0.0327082
-0.0320053
-0.031216
-0.0303855
-0.0294742
-0.0283656
-0.0271509
-0.0257768
-0.0243769
-0.0229854
-0.0216439
-0.0203229
-0.0190581
-0.0178506
-0.0171337
-0.0348418
-0.0238698
-0.0153294
-0.00322527
0.0134329
0.0356794
0.0585243
0.0746767
0.0755197
0.0649113
0.0504856
0.0359895
0.0220462
0.00879887
-0.00216447
-0.0108319
-0.0177993
-0.0232255
-0.0274669
-0.0305498
-0.0328218
-0.0344321
-0.0355143
-0.03613
-0.0363367
-0.0361702
-0.0357362
-0.0351512
-0.0343792
-0.0334187
-0.0322749
-0.0310753
-0.0297855
-0.0284362
-0.0270152
-0.0256135
-0.0242052
-0.0228273
-0.0215148
-0.0207034
-0.053062
-0.0417856
-0.0344345
-0.0219426
-0.00307861
0.0232399
0.0518421
0.0748656