/*--------------------------------*- C++ -*----------------------------------*\
  =========                 |
  \\      /  F ield         | OpenFOAM: The Open Source CFD Toolbox
   \\    /   O peration     | Website:  https://openfoam.org
    \\  /    A nd           | Version:  11
     \\/     M anipulation  |
\*---------------------------------------------------------------------------*/
FoamFile
{
    format      ascii;
    class       volVectorField;
    location    "2.5";
    object      U;
}
// * * * * * * * * * * * * * * * * * * * * * * * * * * * * * * * * * * * * * //

dimensions      [0 1 -1 0 0 0 0];

internalField   nonuniform List<vector> 
9600
(
(0.982333 0.0024016 6.89394e-21)
(0.97626 0.00260176 0)
(0.971832 0.00257441 0)
(0.972632 0.0037949 1.23297e-22)
(0.967142 0.0113595 0)
(0.927866 0.0165482 -1.37135e-22)
(0.863585 0.0120825 -4.52521e-21)
(0.833216 0.003893 4.54842e-21)
(0.8286 -0.001455 -4.72615e-21)
(0.834874 -0.00652299 4.7207e-21)
(0.859048 -0.0176067 0)
(0.89254 -0.0327178 -5.04417e-21)
(0.920468 -0.0427683 5.1392e-21)
(0.945988 -0.0482213 -7.50677e-23)
(0.9724 -0.0497136 2.20473e-21)
(0.997342 -0.0491202 -2.17412e-21)
(1.02631 -0.0472154 0)
(1.05141 -0.0441781 -5.74006e-22)
(1.07931 -0.0417855 5.74519e-22)
(1.10134 -0.0375881 -8.15813e-25)
(1.12239 -0.0350572 -1.13995e-25)
(1.13646 -0.0317898 -3.07049e-22)
(1.13657 -0.0281936 3.05105e-22)
(1.13211 -0.0272604 0)
(1.12198 -0.0266414 0)
(1.10305 -0.0264735 -8.01802e-22)
(1.07966 -0.0237581 1.62504e-22)
(1.05408 -0.0231784 6.69877e-22)
(1.03218 -0.0190482 -1.34255e-23)
(1.01339 -0.0161204 8.7407e-24)
(0.999526 -0.0101983 0)
(0.989251 -0.00572814 -4.69324e-23)
(0.982888 0.000152499 4.45563e-23)
(0.977364 0.00394198 -1.34234e-22)
(0.973434 0.00776335 1.3321e-22)
(0.970353 0.0113898 6.22706e-24)
(0.968892 0.0125228 0)
(0.968806 0.0167013 4.15669e-22)
(0.969997 0.0194837 -4.17689e-22)
(0.966924 0.0305992 6.10852e-24)
(0.983298 0.00116307 3.34208e-22)
(0.981686 0.000106727 0)
(0.977556 -0.000737749 0)
(0.973916 0.00114053 -3.86999e-22)
(0.967632 0.00354891 -8.85185e-21)
(0.950132 0.00435749 1.39056e-20)
(0.928659 0.00318765 -4.61511e-21)
(0.91754 0.000138284 -1.46394e-22)
(0.91555 -0.00206977 -1.49839e-22)
(0.920486 -0.00348522 0)
(0.941506 0.000601183 -1.60172e-22)
(0.96697 0.0154572 -5.24696e-21)
(0.983737 0.0296722 7.49777e-21)
(0.997912 0.0373641 -2.48086e-21)
(1.01282 0.0397521 -3.59109e-23)
(1.03192 0.038907 0)
(1.05371 0.0367752 -7.04722e-22)
(1.07657 0.0340172 7.60008e-22)
(1.09935 0.0322061 -1.61395e-22)
(1.1189 0.0301487 1.62307e-22)
(1.13865 0.0289528 -6.78971e-23)
(1.14889 0.0301016 6.19082e-23)
(1.14871 0.029564 0)
(1.14474 0.0309417 1.00659e-21)
(1.1339 0.0326168 -1.0163e-21)
(1.11369 0.0338677 -1.46591e-23)
(1.09093 0.0317661 7.09702e-22)
(1.06491 0.0303787 -7.11994e-22)
(1.04474 0.0246872 4.31687e-23)
(1.02216 0.0198985 4.7201e-22)
(1.00707 0.0124008 -5.10718e-22)
(0.992512 0.00575054 1.02546e-22)
(0.983942 -0.000883012 -9.98241e-23)
(0.975096 -0.00471284 -1.73669e-24)
(0.972161 -0.00893526 3.76457e-22)
(0.968123 -0.01203 -3.72761e-22)
(0.967612 -0.0147589 0)
(0.964896 -0.0205829 4.92946e-22)
(0.964929 -0.0237608 -4.96614e-22)
(0.967904 -0.0303964 -1.9375e-23)
(0.982325 0.00111837 7.08997e-21)
(0.980711 0.00166032 -2.41758e-22)
(0.975464 0.00266911 0)
(0.973228 0.0051031 2.64679e-22)
(0.971715 0.0121514 0)
(0.962897 0.0188027 -4.96206e-21)
(0.941521 0.0167227 -5.04174e-23)
(0.920794 0.00621886 4.93811e-21)
(0.916807 -0.00259976 1.54095e-22)
(0.925027 -0.00999478 0)
(0.93842 -0.0201516 4.94719e-22)
(0.953041 -0.0316601 -5.29127e-21)
(0.969874 -0.0418248 5.47419e-21)
(0.987388 -0.0494277 2.33623e-22)
(1.00648 -0.0531113 -1.44439e-22)
(1.02836 -0.0539533 6.45877e-23)
(1.05148 -0.0527974 -7.99934e-22)
(1.07671 -0.0497527 2.12648e-22)
(1.10012 -0.0471489 6.0217e-22)
(1.12295 -0.0423227 -1.65151e-24)
(1.14074 -0.0378451 -2.26007e-25)
(1.15465 -0.0334502 -2.96321e-22)
(1.16009 -0.0265468 2.99248e-22)
(1.15728 -0.0229933 1.01969e-21)
(1.14805 -0.0191285 -1.01913e-21)
(1.12905 -0.0154157 0)
(1.10733 -0.0107035 2.60257e-23)
(1.08263 -0.00987065 -8.40857e-23)
(1.0626 -0.00618469 -3.01205e-23)
(1.04167 -0.00425185 6.43093e-23)
(1.02754 0.000253359 3.97882e-23)
(1.01644 0.0025229 -1.56165e-22)
(1.0077 0.00700956 1.22219e-22)
(1.00211 0.00804937 2.02397e-23)
(0.999164 0.0113409 -8.14732e-24)
(0.993838 0.0134327 0)
(0.992155 0.0162552 -1.33368e-23)
(0.989018 0.0203038 4.26712e-22)
(0.987766 0.0218238 -4.22971e-22)
(0.986158 0.0266405 1.33691e-23)
(0.981798 0.00156085 4.80142e-22)
(0.98039 0.00237903 -2.55387e-22)
(0.976974 0.00361763 0)
(0.977237 0.00663407 0)
(0.97439 0.0139828 -8.83643e-21)
(0.968039 0.0166668 9.18456e-21)
(0.960506 0.0114503 4.59861e-21)
(0.953364 -0.00046143 -4.63139e-21)
(0.954734 -0.00978178 5.19978e-21)
(0.966205 -0.0153652 -4.88704e-21)
(0.982714 -0.0134962 -3.3777e-22)
(0.996942 -0.000241083 -1.69091e-22)
(1.00796 0.0150342 -1.66379e-22)
(1.01602 0.0236364 -1.59075e-22)
(1.02353 0.0257148 2.48403e-21)
(1.03864 0.0241507 -2.30465e-22)
(1.05588 0.0214199 -2.72863e-21)
(1.07866 0.0185253 7.69564e-22)
(1.10118 0.0174237 -1.44992e-23)
(1.11962 0.0176559 3.32958e-24)
(1.13888 0.0185902 7.62874e-23)
(1.15174 0.0243441 -4.20454e-22)
(1.15307 0.028062 3.67873e-22)
(1.14931 0.0317281 6.49932e-23)
(1.13943 0.0350816 0)
(1.12109 0.0370897 0)
(1.10196 0.0357231 8.29338e-22)
(1.07694 0.0337745 -8.75929e-22)
(1.05711 0.0279805 9.47195e-22)
(1.03657 0.0224655 -9.88641e-22)
(1.01981 0.0146562 -2.81505e-23)
(1.00474 0.0079299 1.50242e-23)
(0.992619 0.000798882 -7.99442e-24)
(0.982609 -0.00379991 -9.69255e-23)
(0.975155 -0.00761396 4.42347e-22)
(0.970966 -0.0112394 -7.86709e-22)
(0.970459 -0.0164836 4.28732e-22)
(0.969811 -0.0201984 -2.88431e-23)
(0.968665 -0.0240066 4.41246e-23)
(0.971838 -0.0266433 -2.74175e-23)
(0.981576 0.00233026 7.39074e-21)
(0.980334 0.00322886 -8.33586e-24)
(0.978474 0.0044584 0)
(0.977392 0.00878931 0)
(0.97723 0.0154078 -5.97347e-22)
(0.978826 0.0165288 9.23567e-22)
(0.979855 0.0130804 -4.66255e-21)
(0.974944 0.00127159 9.90637e-21)
(0.966986 -0.00861191 -5.22743e-21)
(0.96407 -0.0140954 -3.4217e-22)
(0.964937 -0.0187535 0)
(0.970013 -0.0254423 -1.10633e-20)
(0.982606 -0.0355335 1.11072e-20)
(0.998006 -0.0452846 -2.84268e-21)
(1.01538 -0.0516145 2.37701e-21)
(1.03556 -0.0542888 -2.66578e-22)
(1.05596 -0.0545468 -9.21949e-22)
(1.07952 -0.0520538 2.19546e-22)
(1.10208 -0.0489816 5.92693e-22)
(1.12302 -0.0438902 -1.67858e-24)
(1.14087 -0.0381385 6.03146e-23)
(1.15195 -0.0331211 -3.67384e-22)
(1.15969 -0.0248054 2.80981e-22)
(1.15936 -0.0178392 -6.69275e-23)
(1.15137 -0.0107551 -7.28105e-23)
(1.13257 -0.00397831 -1.01567e-21)
(1.11276 0.00353162 8.90565e-22)
(1.08841 0.00524229 -4.48742e-24)
(1.06756 0.00847133 7.69454e-23)
(1.04647 0.00870798 0)
(1.03128 0.0110895 3.66838e-23)
(1.019 0.0106102 0)
(1.00972 0.0138285 2.85582e-23)
(1.00444 0.0134904 0)
(0.998969 0.0149824 0)
(0.995991 0.0161241 -2.59731e-22)
(0.993391 0.017485 2.83207e-22)
(0.988766 0.0204332 4.78667e-22)
(0.986959 0.0228907 -4.47741e-22)
(0.983925 0.0242058 2.80492e-23)
(0.981451 0.00287933 0)
(0.980387 0.00377241 -8.85063e-24)
(0.978641 0.0056629 0)
(0.978893 0.0110531 0)
(0.982055 0.0163458 -1.0057e-20)
(0.984255 0.0162839 4.30607e-21)
(0.983894 0.01116 1.02527e-20)
(0.978736 -0.00361936 -5.24997e-21)
(0.97767 -0.0146027 0)
(0.983277 -0.0209404 0)
(0.996269 -0.0215041 0)
(1.01319 -0.013042 -4.85513e-21)
(1.02448 -0.000670573 5.24403e-21)
(1.0317 0.00758592 2.82884e-21)
(1.0378 0.00938615 -2.80821e-21)
(1.04825 0.00737756 -1.8207e-21)
(1.0629 0.00430315 1.28673e-21)
(1.08176 0.00101396 7.89048e-22)
(1.10352 0.000783928 -1.61041e-22)
(1.12239 0.00315189 1.61161e-22)
(1.13905 0.00565481 -7.18384e-25)
(1.15371 0.015058 -1.63261e-23)
(1.159 0.0250878 5.46393e-23)
(1.15531 0.0308076 0)
(1.14622 0.035977 7.4806e-23)
(1.12826 0.03893 1.09946e-21)
(1.10984 0.0389514 -8.39825e-22)
(1.08677 0.0372589 -1.41232e-21)
(1.06607 0.0322606 2.56884e-21)
(1.04686 0.0274151 -1.07209e-21)
(1.02983 0.0206934 -6.26298e-22)
(1.01431 0.0140386 4.50319e-22)
(1.00162 0.00558702 -2.08699e-23)
(0.98964 -0.00142164 6.45595e-23)
(0.980774 -0.00514904 2.32474e-22)
(0.974928 -0.00919232 -2.80338e-22)
(0.973828 -0.0150158 0)
(0.972165 -0.0182375 5.21591e-22)
(0.972086 -0.0220866 -3.03233e-24)
(0.975071 -0.0230502 -5.0501e-22)
(0.981468 0.00354335 9.5737e-21)
(0.980496 0.00455863 -9.18628e-24)
(0.979266 0.00714341 0)
(0.981473 0.0127128 0)
(0.986404 0.0160709 9.74204e-21)
(0.988981 0.0149767 -9.72524e-21)
(0.989211 0.00781687 5.38439e-21)
(0.987641 -0.00665338 8.23501e-22)
(0.987586 -0.0147172 -5.62295e-21)
(0.988346 -0.0181704 5.84818e-21)
(0.988259 -0.0201231 -5.13475e-21)
(0.98951 -0.0222345 -6.11748e-21)
(0.993525 -0.0286289 6.47657e-21)
(1.00602 -0.0397314 0)
(1.02248 -0.0480274 2.67271e-21)
(1.04182 -0.0524278 -4.68083e-21)
(1.06187 -0.0544666 1.22192e-21)
(1.08409 -0.0530515 2.29703e-22)
(1.1049 -0.0498211 3.93716e-22)
(1.12454 -0.0446889 1.71702e-22)
(1.14332 -0.0371849 -7.01971e-23)
(1.15276 -0.0315082 -2.66273e-22)
(1.15981 -0.0235789 2.80749e-22)
(1.1624 -0.0131547 1.20315e-21)
(1.15558 -0.00216735 -1.19964e-21)
(1.13837 0.0068346 -1.15845e-21)
(1.11884 0.0167085 1.15989e-21)
(1.09592 0.0198685 1.17505e-22)
(1.07373 0.0224936 0)
(1.05319 0.0203428 9.6945e-22)
(1.03671 0.0203889 -8.04122e-22)
(1.02304 0.01847 -3.28554e-22)
(1.01316 0.0206332 3.79397e-22)
(1.00661 0.0198663 1.10671e-22)
(1.0007 0.0199036 -9.98573e-23)
(0.99701 0.019241 -1.91122e-24)
(0.993524 0.0187583 0)
(0.989501 0.0199513 3.48864e-22)
(0.986852 0.0225752 1.37768e-23)
(0.982942 0.0218977 -3.74721e-22)
(0.981618 0.0041312 7.74603e-21)
(0.98088 0.00532412 -5.98058e-22)
(0.980496 0.00835978 1.00169e-20)
(0.984465 0.013399 -1.01172e-20)
(0.989655 0.0151409 6.62412e-22)
(0.991479 0.0133426 -6.75304e-22)
(0.991771 0.00420384 0)
(0.991514 -0.0103661 4.364e-21)
(0.992893 -0.01899 -5.82844e-21)
(0.996641 -0.0240032 0)
(1.00262 -0.0251648 4.4774e-21)
(1.0144 -0.0204287 -5.26935e-21)
(1.02859 -0.0135061 -1.96104e-24)
(1.03766 -0.00914405 0)
(1.04578 -0.00805062 2.35704e-21)
(1.05692 -0.0103274 -2.08139e-21)
(1.07128 -0.0132281 -8.1134e-22)
(1.08834 -0.0161934 2.35054e-22)
(1.10749 -0.0155246 4.46156e-22)
(1.12612 -0.0116565 1.67442e-22)
(1.14171 -0.00787387 0)
(1.15636 0.00351773 -3.66655e-22)
(1.16436 0.0192378 3.42776e-22)
(1.16064 0.0281082 0)
(1.15349 0.0358877 1.70004e-22)
(1.13764 0.0405565 0)
(1.11918 0.0429003 7.95009e-22)
(1.09756 0.0423635 -2.99677e-21)
(1.07574 0.0390575 1.98827e-21)
(1.05584 0.0353669 -2.97075e-22)
(1.0381 0.0292837 -5.70147e-22)
(1.02224 0.0226441 1.14092e-21)
(1.00921 0.0138146 -4.32456e-22)
(0.996799 0.00450636 -1.04152e-23)
(0.986742 -0.00185389 2.63288e-22)
(0.979547 -0.00525121 -2.52728e-22)
(0.977217 -0.0105804 0)
(0.974628 -0.015009 5.28701e-22)
(0.975214 -0.0186587 2.75414e-23)
(0.977552 -0.0187107 -5.43516e-22)
(0.981959 0.00476595 0)
(0.981507 0.00600856 1.20463e-21)
(0.981986 0.00919154 0)
(0.987239 0.0134417 1.33985e-21)
(0.992009 0.0139597 9.7299e-21)
(0.993256 0.0112325 -5.47225e-21)
(0.993347 -0.000634388 -5.70451e-21)
(0.994358 -0.0152366 7.3908e-22)
(0.998108 -0.0217662 0)
(1.00265 -0.0224719 0)
(1.00601 -0.0219665 6.95859e-21)
(1.0086 -0.022372 -6.96039e-21)
(1.01117 -0.026018 -1.11129e-21)
(1.01768 -0.0359755 -3.50668e-22)
(1.03032 -0.0455857 2.44135e-21)
(1.04807 -0.0513815 -2.1637e-21)
(1.06707 -0.054802 -8.35838e-22)
(1.0884 -0.0545053 2.42866e-22)
(1.10907 -0.0509215 4.29031e-22)
(1.12762 -0.0464022 1.65863e-22)
(1.14639 -0.0371082 -2.45909e-24)
(1.15618 -0.0294883 -4.01152e-22)
(1.1624 -0.0215826 4.43878e-22)
(1.16612 -0.00910505 8.16079e-23)
(1.16091 0.00515785 -3.5505e-22)
(1.14606 0.0162553 0)
(1.12639 0.0279455 1.33203e-21)
(1.10534 0.032969 -8.92906e-22)
(1.0821 0.035728 -2.10322e-22)
(1.06168 0.0326338 3.32156e-22)
(1.04246 0.0300717 -1.12625e-22)
(1.02844 0.0266683 -6.00706e-22)
(1.01693 0.027004 6.17736e-22)
(1.009 0.0263078 -4.51763e-23)
(1.00258 0.0263072 -2.9457e-24)
(0.998646 0.0231697 -7.88432e-23)
(0.99414 0.0210741 6.72536e-23)
(0.989788 0.0199045 3.80411e-22)
(0.986705 0.0214039 -3.76581e-22)
(0.982628 0.0196049 0)
(0.982368 0.00527547 0)
(0.982233 0.00641226 0)
(0.983773 0.00966516 1.21334e-20)
(0.989884 0.0130392 -2.35425e-20)
(0.993692 0.0125206 1.12387e-20)
(0.994335 0.00825445 0)
(0.995586 -0.0063633 6.04812e-21)
(0.99662 -0.0185689 1.13691e-22)
(0.997831 -0.0234187 -5.48174e-21)
(1.00172 -0.0256034 0)
(1.009 -0.0268865 -8.049e-22)
(1.01943 -0.0250499 7.91638e-22)
(1.03186 -0.0227626 3.72678e-21)
(1.0405 -0.0232581 -2.60948e-21)
(1.04939 -0.0245452 0)
(1.06174 -0.0275084 2.1021e-21)
(1.07685 -0.0301069 -3.18263e-21)
(1.09375 -0.0322361 1.5135e-21)
(1.1125 -0.0308723 -5.8806e-22)
(1.13118 -0.0253223 -4.98138e-25)
(1.146 -0.020352 1.14183e-22)
(1.15944 -0.00907298 -1.08638e-22)
(1.17009 0.011052 6.73826e-23)
(1.16792 0.0235623 -8.40185e-23)
(1.16162 0.0349554 1.85535e-22)
(1.14735 0.0420992 0)
(1.12882 0.0473875 0)
(1.109 0.049112 -2.8717e-22)
(1.0861 0.0475365 1.71333e-21)
(1.06476 0.0451413 -1.88306e-21)
(1.04592 0.0397893 0)
(1.02933 0.032929 6.73215e-22)
(1.01576 0.0247009 -6.24002e-22)
(1.00351 0.0139958 8.98132e-23)
(0.9927 0.00497486 -6.29946e-23)
(0.985165 0.000676515 -2.69037e-22)
(0.980432 -0.00402941 2.77968e-22)
(0.977481 -0.00964288 0)
(0.978197 -0.0136733 0)
(0.979299 -0.0138629 5.96807e-23)
(0.982819 0.00546257 -1.91667e-22)
(0.983069 0.00653455 1.16774e-20)
(0.986 0.00998716 -1.37746e-21)
(0.992108 0.0121427 -1.45146e-21)
(0.994824 0.0108035 -1.19236e-20)
(0.995481 0.00400221 1.80907e-20)
(0.996171 -0.0120174 -6.19459e-21)
(0.996528 -0.0221775 6.4792e-21)
(0.99869 -0.0262043 -8.15489e-21)
(1.00485 -0.0271169 -7.45478e-21)
(1.0145 -0.0262317 1.40588e-20)
(1.02182 -0.025516 -1.38173e-20)
(1.02818 -0.0272742 6.42475e-21)
(1.03413 -0.035635 0)
(1.0421 -0.0455568 0)
(1.05653 -0.0525519 -2.75436e-21)
(1.07335 -0.0567601 1.79997e-21)
(1.09279 -0.0579306 8.5342e-22)
(1.11375 -0.0537531 1.87191e-22)
(1.13206 -0.0495292 -1.64882e-22)
(1.15092 -0.0394083 -3.15626e-24)
(1.16171 -0.0287416 -4.46796e-22)
(1.16766 -0.0197196 3.7748e-22)
(1.17166 -0.00562992 1.49332e-21)
(1.16809 0.0110995 -1.48723e-21)
(1.15533 0.0243457 0)
(1.13576 0.0373242 0)
(1.11577 0.0446058 -3.36017e-22)
(1.09234 0.0482962 1.91587e-21)
(1.07191 0.0461018 -1.9053e-21)
(1.05182 0.0416859 -1.20698e-21)
(1.0344 0.0361442 2.25826e-22)
(1.0215 0.0340619 7.06611e-22)
(1.01255 0.0324472 3.04274e-22)
(1.00474 0.0329841 -5.99576e-22)
(1.00038 0.029206 2.93718e-22)
(0.994605 0.0254839 -2.33073e-23)
(0.990192 0.0210527 3.52432e-22)
(0.987264 0.0208745 -2.94449e-22)
(0.98229 0.0179869 -1.46532e-24)
(0.983263 0.00534412 -1.06453e-20)
(0.984056 0.00650994 2.05853e-20)
(0.988604 0.00990799 2.95227e-22)
(0.993707 0.0107523 -2.40299e-20)
(0.995476 0.00841919 1.52414e-20)
(0.996095 -0.00162785 0)
(0.996376 -0.0170907 0)
(0.996423 -0.0249849 1.68002e-21)
(0.998716 -0.0280978 8.48788e-22)
(1.00492 -0.0286805 -5.12585e-21)
(1.01408 -0.0292361 6.91046e-21)
(1.02331 -0.0299577 -6.59803e-21)
(1.03591 -0.0306078 9.78054e-21)
(1.04659 -0.0343312 -2.3934e-21)
(1.05554 -0.0384218 2.58847e-21)
(1.0676 -0.0426069 -4.48203e-21)
(1.08277 -0.0452906 1.08761e-21)
(1.099 -0.0468304 1.75303e-22)
(1.11782 -0.0449936 4.67609e-22)
(1.13692 -0.0383408 1.52945e-22)
(1.15259 -0.0308576 0)
(1.16441 -0.0211544 -4.55407e-22)
(1.17662 0.00109731 5.05598e-22)
(1.17723 0.0175737 0)
(1.17098 0.0330071 0)
(1.15822 0.0434366 1.69224e-21)
(1.14116 0.0516524 -3.21801e-21)
(1.12049 0.056742 2.24517e-21)
(1.09693 0.0577651 -3.11803e-22)
(1.07468 0.0558274 0)
(1.05524 0.0520142 1.37497e-21)
(1.03713 0.0451921 -1.20003e-21)
(1.02261 0.037467 1.74336e-22)
(1.01004 0.0264995 0)
(0.998489 0.0149009 0)
(0.990077 0.00846117 -2.0116e-22)
(0.984605 0.00453806 2.24885e-22)
(0.981538 -0.00174476 3.87311e-22)
(0.980282 -0.00711667 -5.2927e-22)
(0.979952 -0.00819472 -6.1311e-23)
(0.983878 0.00497264 -1.11128e-20)
(0.985455 0.00636474 1.27718e-20)
(0.99085 0.00932609 0)
(0.994455 0.00891818 3.11987e-21)
(0.995613 0.00511481 -3.19325e-21)
(0.996219 -0.00797293 8.31668e-21)
(0.99581 -0.0212724 -8.45789e-21)
(0.995616 -0.0275434 2.02831e-23)
(0.997652 -0.029985 -7.1025e-21)
(1.00321 -0.0312048 1.24418e-20)
(1.0164 -0.0320668 -5.3709e-21)
(1.0281 -0.0316856 7.68119e-21)
(1.03894 -0.0328536 -3.60921e-21)
(1.04802 -0.0393153 -4.04529e-21)
(1.05538 -0.048549 0)
(1.06751 -0.0564399 0)
(1.08309 -0.0607026 0)
(1.09978 -0.0633285 -5.95608e-22)
(1.12005 -0.0590439 4.84221e-22)
(1.13816 -0.0544683 0)
(1.15689 -0.0443143 -1.45226e-22)
(1.16964 -0.0308979 -3.82369e-22)
(1.17527 -0.0190363 -2.67187e-22)
(1.17995 -0.00439681 7.1404e-22)
(1.17746 0.0153961 0)
(1.16647 0.0308409 -2.084e-21)
(1.14754 0.045782 1.46368e-22)
(1.12818 0.0549023 1.70747e-21)
(1.10497 0.0597381 -2.76061e-23)
(1.08235 0.0592144 0)
(1.06189 0.0554721 1.3892e-21)
(1.04267 0.0483741 -1.37909e-21)
(1.02669 0.0433428 -3.89695e-22)
(1.01679 0.0399409 3.04801e-22)
(1.00756 0.0398012 -9.01505e-22)
(1.00179 0.0362961 5.35446e-22)
(0.995873 0.0319703 0)
(0.991016 0.0244545 3.52631e-22)
(0.987638 0.0228403 -3.04769e-22)
(0.981547 0.0177901 -5.95428e-23)
(0.984477 0.00429035 0)
(0.98739 0.00618566 1.223e-20)
(0.992297 0.00804512 3.18512e-22)
(0.99461 0.00671296 -1.60893e-20)
(0.995638 0.000499243 1.34654e-20)
(0.995923 -0.0141031 -1.36842e-20)
(0.994906 -0.0249476 1.76308e-21)
(0.994542 -0.0293568 5.49807e-21)
(0.996595 -0.0321349 -9.20046e-21)
(1.00269 -0.0341415 9.21359e-21)
(1.01629 -0.0345502 -1.46724e-20)
(1.02701 -0.0361065 6.41384e-21)
(1.03926 -0.0386204 3.35089e-21)
(1.05307 -0.0443974 -3.36754e-21)
(1.06395 -0.0500008 -3.47236e-21)
(1.07547 -0.0550654 5.0481e-21)
(1.0905 -0.0580495 -3.19172e-21)
(1.1066 -0.0597123 7.96081e-22)
(1.12407 -0.0573643 5.68617e-23)
(1.14366 -0.0509888 -3.61997e-24)
(1.16068 -0.0402564 -1.63225e-22)
(1.17185 -0.0313635 1.07055e-22)
(1.184 -0.00970414 -4.94078e-24)
(1.18705 0.0122188 2.13885e-21)
(1.18202 0.0302371 -1.90329e-21)
(1.17189 0.0442105 7.80079e-22)
(1.15411 0.0555145 5.07126e-22)
(1.1334 0.0648446 -4.24905e-22)
(1.11057 0.0700572 3.08206e-21)
(1.08685 0.0682452 -5.56932e-22)
(1.06641 0.0649301 -2.13345e-21)
(1.04702 0.0589628 -1.14555e-21)
(1.03066 0.0517145 1.35355e-21)
(1.0171 0.0414845 3.74628e-22)
(1.00478 0.0286143 -5.55826e-22)
(0.99487 0.0195616 0)
(0.988543 0.014287 0)
(0.985161 0.00843557 3.61706e-22)
(0.982317 0.00186751 -2.84437e-22)
(0.980253 -0.00124137 1.1904e-22)
(0.9851 0.00377888 -1.659e-22)
(0.988691 0.00567657 1.09102e-20)
(0.992445 0.00619847 1.66536e-21)
(0.994019 0.00370444 1.68683e-21)
(0.995073 -0.00587574 1.76518e-20)
(0.99479 -0.0194253 -8.87728e-21)
(0.993217 -0.0274685 -9.23474e-21)
(0.992853 -0.0314309 0)
(0.994876 -0.0344216 1.9189e-21)
(1.0003 -0.0366756 5.72861e-21)
(1.01285 -0.0389225 -9.62218e-21)
(1.02762 -0.0406293 -7.31357e-21)
(1.04323 -0.042416 8.25657e-21)
(1.05838 -0.0473291 0)
(1.06839 -0.0547736 3.57469e-21)
(1.07955 -0.0628207 -2.82695e-21)
(1.09343 -0.0670066 -9.041e-22)
(1.1091 -0.0704422 4.96992e-22)
(1.12718 -0.0669694 7.33588e-22)
(1.14547 -0.0617631 -1.32575e-22)
(1.164 -0.0513642 7.36936e-24)
(1.17877 -0.036658 0)
(1.18499 -0.0204959 9.35397e-23)
(1.18983 -0.00518143 -2.35105e-22)
(1.18841 0.0171195 2.7909e-22)
(1.17907 0.0359502 -2.75768e-21)
(1.16267 0.0523843 3.75113e-21)
(1.14241 0.063846 -2.06424e-21)
(1.11904 0.070737 0)
(1.09487 0.0724311 0)
(1.0727 0.0705854 1.8706e-21)
(1.05278 0.0642655 -1.85621e-21)
(1.03469 0.0566314 0)
(1.02217 0.0500527 3.62441e-22)
(1.01139 0.0480393 7.6458e-22)
(1.00355 0.044024 -3.78616e-22)
(0.997222 0.0405356 -4.03911e-22)
(0.992165 0.0309102 1.88442e-22)
(0.987817 0.0281183 -2.09446e-22)
(0.981012 0.0203168 -2.47043e-24)
(0.985438 0.00327572 -1.28042e-20)
(0.9891 0.00453073 1.31026e-20)
(0.992133 0.00374057 -1.70931e-21)
(0.993527 -0.000790012 0)
(0.99437 -0.0126647 -1.66957e-20)
(0.993605 -0.0231428 2.27029e-20)
(0.992041 -0.0299731 -5.78554e-21)
(0.992291 -0.0332268 0)
(0.994214 -0.0363178 1.8073e-20)
(0.999035 -0.0406657 -9.19713e-21)
(1.01104 -0.0430417 -8.03585e-21)
(1.02653 -0.045665 -7.59512e-21)
(1.04245 -0.0483802 1.0302e-20)
(1.05917 -0.0546954 -2.74291e-21)
(1.07331 -0.0612808 3.67572e-21)
(1.08659 -0.0667561 -3.24172e-21)
(1.10273 -0.0692932 -9.14831e-22)
(1.11831 -0.0706626 3.19502e-22)
(1.13397 -0.0675355 5.19217e-22)
(1.15208 -0.0627605 1.26158e-22)
(1.16949 -0.049535 -1.62811e-23)
(1.18214 -0.0399228 -7.06196e-22)
(1.19124 -0.0197456 8.1285e-22)
(1.197 0.00458277 2.24465e-21)
(1.19513 0.0259892 -2.52554e-21)
(1.18601 0.0438282 2.436e-21)
(1.17023 0.0602782 -1.80732e-21)
(1.14958 0.0714881 0)
(1.12683 0.0809539 4.00275e-21)
(1.10207 0.0821611 -1.06515e-21)
(1.07893 0.0793003 2.78828e-23)
(1.05794 0.0732964 -2.16061e-21)
(1.04036 0.0673922 0)
(1.02562 0.0582795 4.85385e-22)
(1.01194 0.0462598 -5.58337e-22)
(1.00079 0.0344127 -8.03503e-23)
(0.992293 0.0269539 3.36774e-23)
(0.987964 0.0208364 0)
(0.984254 0.0147678 0)
(0.981337 0.00731607 -1.12494e-22)
(0.986262 0.00257988 -1.34296e-20)
(0.990102 0.00246378 1.37929e-20)
(0.992477 0.000310411 0)
(0.993512 -0.00689751 0)
(0.993504 -0.0179742 0)
(0.992329 -0.026723 0)
(0.991348 -0.031984 0)
(0.99233 -0.0350574 0)
(0.994269 -0.0395533 -1.25869e-20)
(0.998882 -0.0440938 1.47701e-20)
(1.00997 -0.047606 8.1799e-21)
(1.024 -0.0519087 -1.35143e-21)
(1.04086 -0.0557317 -4.23039e-21)
(1.06136 -0.0605576 -4.64705e-21)
(1.07824 -0.0647134 -3.78799e-21)
(1.09169 -0.0714212 8.76044e-22)
(1.10857 -0.0749387 1.54358e-21)
(1.12415 -0.078433 2.42349e-22)
(1.14045 -0.0761203 3.70196e-22)
(1.1568 -0.0704893 1.18519e-22)
(1.17329 -0.0597264 -1.16958e-24)
(1.189 -0.0453888 -8.64133e-22)
(1.19596 -0.0251313 1.93701e-21)
(1.20145 -0.00772446 -7.35208e-22)
(1.20216 0.0162122 0)
(1.19345 0.0381052 -6.99516e-22)
(1.17902 0.0567808 -6.44425e-22)
(1.15922 0.0716808 0)
(1.13586 0.0827771 3.47379e-21)
(1.11149 0.0864315 -3.53306e-21)
(1.08661 0.0865317 -6.82968e-22)
(1.06463 0.0818781 0)
(1.04512 0.0742962 0)
(1.03009 0.0645714 8.98999e-22)
(1.0165 0.059257 -8.88896e-22)
(1.00747 0.0540098 -3.02156e-23)
(0.999283 0.0507644 1.84963e-23)
(0.993049 0.040021 6.75741e-23)
(0.987763 0.0364371 -5.73868e-23)
(0.981587 0.0269853 5.57515e-23)
(0.986821 0.000645469 0)
(0.990295 -0.000690605 0)
(0.991764 -0.00469803 0)
(0.992064 -0.0132469 0)
(0.990294 -0.0228938 0)
(0.989809 -0.0292949 1.05352e-20)
(0.988538 -0.0340984 -8.51362e-21)
(0.990425 -0.0381096 -8.7311e-21)
(0.994088 -0.0419779 1.97728e-20)
(0.997548 -0.0480551 -4.51292e-21)
(1.00702 -0.0532141 -9.87547e-21)
(1.02143 -0.0586479 2.11541e-21)
(1.03889 -0.061933 1.00933e-21)
(1.05986 -0.0672331 -9.3291e-22)
(1.07978 -0.07268 3.07358e-21)
(1.09589 -0.078672 -3.43877e-21)
(1.11334 -0.0820754 -9.3726e-22)
(1.13277 -0.0827688 9.39767e-22)
(1.14932 -0.0779547 -4.34247e-24)
(1.165 -0.0741134 1.04388e-22)
(1.18175 -0.0591619 -1.35742e-24)
(1.1961 -0.0468687 8.61256e-23)
(1.20507 -0.0279013 -2.46057e-22)
(1.21117 -0.00468063 2.70556e-21)
(1.21155 0.0202493 -2.67823e-21)
(1.20339 0.0421404 1.50027e-21)
(1.18971 0.0630674 -2.88316e-21)
(1.16938 0.0775246 2.86693e-21)
(1.1461 0.0898292 -6.49014e-22)
(1.1217 0.0956669 0)
(1.09597 0.0964239 3.00227e-21)
(1.07225 0.0906338 -5.24058e-21)
(1.05103 0.0842524 2.24332e-21)
(1.03485 0.0765099 0)
(1.01956 0.0666114 0)
(1.00734 0.0531808 7.71027e-22)
(0.996213 0.0443207 -7.77407e-22)
(0.990094 0.0346005 -6.99452e-23)
(0.985387 0.029918 8.49713e-23)
(0.981794 0.0195832 4.34999e-23)
(0.988512 -0.00234654 0)
(0.991682 -0.00512669 0)
(0.992042 -0.0106376 1.62957e-20)
(0.990926 -0.0184939 -1.86025e-20)
(0.987217 -0.0261878 1.731e-20)
(0.986356 -0.0316335 -2.19252e-20)
(0.985598 -0.0365959 -1.1337e-20)
(0.987168 -0.0407962 -2.32748e-21)
(0.992467 -0.0454764 1.15868e-20)
(0.995842 -0.0529125 0)
(1.00364 -0.0591181 2.27695e-21)
(1.01854 -0.064601 -1.08024e-20)
(1.03505 -0.0697257 7.60432e-21)
(1.0548 -0.0767751 9.69519e-22)
(1.07864 -0.0803034 8.57311e-22)
(1.10006 -0.0850253 5.02309e-24)
(1.11999 -0.0861215 -6.65692e-22)
(1.13872 -0.0879444 3.78981e-22)
(1.15784 -0.0843199 4.3343e-22)
(1.17342 -0.0788704 8.65284e-23)
(1.18807 -0.0678327 1.23996e-23)
(1.20324 -0.0545735 -9.57777e-22)
(1.21386 -0.0333901 9.55963e-22)
(1.21829 -0.0128019 -3.35713e-22)
(1.2196 0.0128359 0)
(1.21362 0.0371654 -8.04161e-22)
(1.20072 0.060523 3.23612e-21)
(1.1814 0.0774416 -9.20195e-21)
(1.15752 0.093079 1.34982e-21)
(1.13264 0.101168 9.0072e-21)
(1.10644 0.10398 -7.93422e-21)
(1.08186 0.100654 6.24282e-21)
(1.05801 0.0953703 -3.3287e-21)
(1.04054 0.0847709 0)
(1.02329 0.0759722 0)
(1.01198 0.0668745 0)
(1.00101 0.0641999 -3.42864e-23)
(0.994561 0.0529605 -2.02943e-22)
(0.986764 0.04836 1.741e-22)
(0.982373 0.0357833 -7.83315e-23)
(0.98786 -0.00542667 -1.59294e-20)
(0.990086 -0.00951849 1.62377e-20)
(0.989774 -0.0155932 0)
(0.987972 -0.0224537 2.18041e-21)
(0.983961 -0.0286291 0)
(0.982267 -0.0342945 4.6676e-21)
(0.982389 -0.038818 -1.91493e-20)
(0.984061 -0.0445728 1.45068e-20)
(0.990089 -0.0501972 -4.78233e-21)
(0.994997 -0.0578206 7.32334e-21)
(1.00082 -0.064728 1.16766e-23)
(1.01362 -0.0723027 1.12971e-20)
(1.03116 -0.0783894 -9.05028e-21)
(1.05022 -0.0849314 -1.0058e-21)
(1.07459 -0.08863 -8.92368e-22)
(1.09926 -0.092944 5.67324e-24)
(1.12184 -0.0945489 -2.90144e-22)
(1.14338 -0.0966605 -5.50419e-22)
(1.16531 -0.0899788 6.17151e-22)
(1.18364 -0.0849006 -6.57556e-23)
(1.1992 -0.0705982 3.6266e-22)
(1.21238 -0.0564621 -1.41163e-21)
(1.22369 -0.035982 -3.21108e-22)
(1.22893 -0.014072 1.38074e-21)
(1.22971 0.0127538 -4.46435e-22)
(1.22429 0.037459 -4.65897e-21)
(1.21247 0.0626668 3.68597e-21)
(1.19404 0.0818961 9.2992e-22)
(1.16996 0.0982144 8.54616e-22)
(1.14439 0.107622 6.67167e-22)
(1.11774 0.113865 1.254e-21)
(1.0927 0.111686 0)
(1.06661 0.105823 6.53943e-22)
(1.04701 0.0964975 0)
(1.02858 0.0900554 -3.96254e-22)
(1.01537 0.0756586 0)
(1.0009 0.0661571 2.68358e-22)
(0.993416 0.0530727 -2.18244e-22)
(0.985361 0.0486395 3.33952e-22)
(0.982157 0.0352753 -8.0547e-23)
(0.988885 -0.0104812 1.46074e-20)
(0.990029 -0.0153982 0)
(0.989005 -0.0208915 2.27496e-21)
(0.986484 -0.0261723 -2.11693e-20)
(0.982479 -0.0315661 1.90619e-20)
(0.979676 -0.0369908 -4.94852e-21)
(0.980103 -0.0417915 2.2698e-20)
(0.982211 -0.0491732 -2.55444e-20)
(0.98733 -0.0553918 2.5477e-21)
(0.994028 -0.0631729 2.53952e-21)
(0.999505 -0.0711033 -1.25005e-21)
(1.00914 -0.080454 -1.20991e-21)
(1.027 -0.0860728 4.36649e-21)
(1.04575 -0.0941772 -3.34939e-21)
(1.06818 -0.0985068 0)
(1.09405 -0.103862 7.32584e-24)
(1.12155 -0.102766 -2.84876e-22)
(1.14595 -0.103559 0)
(1.1705 -0.0965413 -3.92217e-23)
(1.19263 -0.0895652 3.92618e-23)
(1.21039 -0.0755552 -1.72018e-23)
(1.22368 -0.0620683 0)
(1.23521 -0.0414294 0)
(1.24121 -0.0197872 0)
(1.24164 0.00668701 9.60796e-22)
(1.23621 0.0323999 9.93158e-22)
(1.22512 0.0605734 -4.11895e-21)
(1.20817 0.0825601 3.12071e-21)
(1.18426 0.101477 -1.87516e-21)
(1.15822 0.113216 8.76033e-22)
(1.13002 0.121585 3.73473e-21)
(1.10486 0.121587 -1.01865e-20)
(1.07707 0.118991 3.94418e-21)
(1.05563 0.109352 -2.19894e-21)
(1.03365 0.100776 5.60605e-21)
(1.01992 0.0869009 -2.98403e-21)
(1.00523 0.0817557 -1.57817e-22)
(0.997466 0.0694658 -6.86279e-22)
(0.987141 0.0651012 4.23504e-22)
(0.98257 0.0498212 1.26893e-22)
(0.985572 -0.0136301 2.19199e-21)
(0.985831 -0.0190086 -2.328e-21)
(0.983924 -0.0241261 5.68794e-23)
(0.981877 -0.0288268 2.44808e-21)
(0.979167 -0.0338541 0)
(0.976591 -0.0397044 -5.28862e-21)
(0.977107 -0.0454434 1.0685e-20)
(0.980216 -0.0541102 1.34554e-20)
(0.984553 -0.0612551 -1.08966e-20)
(0.991042 -0.0698937 2.71721e-21)
(0.999451 -0.077508 0)
(1.00701 -0.0879116 -8.56428e-21)
(1.02206 -0.0953798 1.56716e-20)
(1.04144 -0.104193 -3.50154e-21)
(1.06311 -0.108545 -9.42945e-22)
(1.08737 -0.114363 3.1217e-21)
(1.11687 -0.112071 -2.44061e-21)
(1.145 -0.112784 0)
(1.172 -0.104913 0)
(1.19715 -0.0979702 0)
(1.21967 -0.0829416 2.28413e-23)
(1.2363 -0.0675335 0)
(1.2483 -0.0461183 -1.70273e-21)
(1.25551 -0.0240678 5.71188e-21)
(1.25708 0.00409148 -4.51444e-21)
(1.2515 0.0301506 -1.18857e-21)
(1.23962 0.059038 0)
(1.22379 0.0833154 0)
(1.20057 0.10569 -1.11107e-22)
(1.17458 0.119472 -8.12671e-21)
(1.14405 0.129477 -6.93138e-22)
(1.11807 0.131776 5.78195e-21)
(1.08911 0.132827 1.16725e-21)
(1.06585 0.122814 3.67385e-21)
(1.04189 0.115699 -2.7484e-21)
(1.02605 0.102559 -4.56676e-22)
(1.00936 0.0937782 0)
(0.999449 0.0769634 1.25901e-22)
(0.988823 0.0720655 -2.74706e-22)
(0.983412 0.05628 2.95469e-22)
(0.985 -0.0195632 -2.13262e-20)
(0.984654 -0.0247154 2.41803e-21)
(0.981872 -0.0291104 -2.51339e-21)
(0.97999 -0.0333992 2.67802e-21)
(0.97878 -0.0379326 -2.76397e-21)
(0.976744 -0.0439515 1.96905e-20)
(0.97685 -0.0502337 -2.27667e-20)
(0.979681 -0.0599394 0)
(0.983657 -0.067522 2.90053e-21)
(0.988478 -0.0773606 8.40958e-21)
(0.99782 -0.0848287 -1.13652e-20)
(1.00773 -0.0962368 -1.16573e-20)
(1.02007 -0.104465 1.39075e-20)
(1.03666 -0.114467 -4.79308e-21)
(1.05931 -0.118261 1.67355e-23)
(1.08141 -0.125333 0)
(1.10983 -0.123617 -1.21e-21)
(1.14035 -0.123887 6.53411e-22)
(1.16974 -0.115242 4.39607e-22)
(1.19772 -0.106569 0)
(1.22403 -0.0901584 -2.39334e-23)
(1.24503 -0.0739065 -1.4909e-21)
(1.26088 -0.0513271 1.92713e-21)
(1.27068 -0.0291944 -5.35613e-22)
(1.27346 -0.00101233 0)
(1.26988 0.0260056 2.57728e-21)
(1.25775 0.0565672 0)
(1.24154 0.0824079 0)
(1.21786 0.107851 2.51119e-21)
(1.19341 0.124672 0)
(1.16114 0.1382 1.85681e-21)
(1.13305 0.141784 -4.44617e-21)
(1.10205 0.143858 3.24194e-21)
(1.07854 0.13734 -9.27585e-22)
(1.05301 0.133083 5.16745e-21)
(1.03407 0.116853 -4.62009e-21)
(1.01454 0.108108 0)
(1.00392 0.0925346 -2.63193e-22)
(0.991241 0.0878654 8.24301e-22)
(0.985186 0.0710502 -6.84732e-22)
(0.979911 -0.0221016 -1.77411e-20)
(0.979023 -0.0275549 0)
(0.976455 -0.0318181 -2.76602e-21)
(0.973515 -0.036248 1.71491e-20)
(0.974327 -0.0410939 -2.02808e-20)
(0.974102 -0.0480192 0)
(0.974317 -0.0548865 3.08104e-21)
(0.977465 -0.0657871 -3.09624e-21)
(0.981637 -0.074314 -3.03278e-21)
(0.986786 -0.0854228 -3.05313e-21)
(0.995184 -0.0934819 0)
(1.00647 -0.105493 9.41955e-21)