/*--------------------------------*- C++ -*----------------------------------*\
  =========                 |
  \\      /  F ield         | OpenFOAM: The Open Source CFD Toolbox
   \\    /   O peration     | Website:  https://openfoam.org
    \\  /    A nd           | Version:  10
     \\/     M anipulation  |
\*---------------------------------------------------------------------------*/
FoamFile
{
    format      ascii;
    class       surfaceScalarField;
    location    "0.599261";
    object      phi;
}
// * * * * * * * * * * * * * * * * * * * * * * * * * * * * * * * * * * * * * //

dimensions      [1 0 -1 0 0 0 0];

internalField   nonuniform List<scalar> 
32368
(
-9.92117e-05
-1.18862e-05
-0.000103367
-1.7824e-05
-0.00010502
-2.37186e-05
-0.000102493
-2.91374e-05
-9.73599e-05
-3.35329e-05
-9.10571e-05
-3.70588e-05
-8.32496e-05
-3.91879e-05
-7.46272e-05
-3.91738e-05
-6.468e-05
-3.74928e-05
-5.36834e-05
-3.39437e-05
-4.3518e-05
-2.91191e-05
-3.70983e-05
-2.42955e-05
-3.16208e-05
-1.77688e-05
-2.72668e-05
-9.12699e-06
-2.59064e-05
1.97486e-06
-3.20966e-05
2.01609e-05
-3.36095e-05
5.87554e-05
-3.31919e-05
8.2983e-05
-3.07492e-05
8.67251e-05
-2.62007e-05
7.3803e-05
-2.1487e-05
4.7799e-05
-1.75445e-05
2.69554e-05
-1.5416e-05
1.60442e-05
-1.33978e-05
1.29613e-05
-1.11545e-05
1.30581e-05
-8.78313e-06
1.44784e-05
-6.30939e-06
1.65723e-05
-3.7658e-06
1.9153e-05
-1.0666e-06
2.19371e-05
1.8379e-06
2.48449e-05
4.91404e-06
2.78574e-05
8.27889e-06
3.10875e-05
1.18847e-05
3.44776e-05
1.58323e-05
3.80046e-05
2.00429e-05
4.17586e-05
2.45435e-05
4.55899e-05
2.92038e-05
4.95083e-05
3.39683e-05
5.33739e-05
3.87443e-05
5.71334e-05
4.34357e-05
6.06217e-05
4.75626e-05
6.34257e-05
5.05812e-05
6.42739e-05
5.26013e-05
6.29434e-05
5.28779e-05
5.89535e-05
5.10806e-05
5.19905e-05
4.87423e-05
4.40468e-05
4.63401e-05
3.66843e-05
4.39663e-05
3.05938e-05
4.12745e-05
2.58431e-05
3.84445e-05
2.26281e-05
3.614e-05
2.13493e-05
3.47516e-05
2.19237e-05
3.28975e-05
2.22573e-05
3.09362e-05
2.15912e-05
2.91613e-05
1.93616e-05
2.76525e-05
1.50456e-05
2.6381e-05
9.24633e-06
2.52582e-05
3.43084e-06
2.39287e-05
-1.53505e-06
2.1861e-05
-7.29543e-06
2.11805e-05
-1.65682e-05
2.02757e-05
-2.84405e-05
1.99751e-05
-3.61086e-05
2.01869e-05
-4.28352e-05
2.10782e-05
-4.82573e-05
2.63304e-05
-6.06331e-05
2.96727e-05
-7.55287e-05
3.18029e-05
-8.64358e-05
3.33733e-05
-9.27275e-05
3.47275e-05
-9.17582e-05
3.63243e-05
-8.52445e-05
3.58904e-05
-7.31976e-05
2.79665e-05
-5.31303e-05
1.726e-05
-2.4009e-05
1.36596e-05
-6.73446e-06
1.33914e-05
-6.44489e-06
1.49361e-05
-1.1693e-05
2.40456e-05
-2.651e-05
4.35172e-05
-6.35198e-05
7.08099e-05
-0.000115051
9.66815e-05
-0.00016103
0.000113905
-0.000181376
0.000123427
-0.000175715
0.000128034
-0.00015449
0.000128693
-0.000122173
0.000118941
-8.02785e-05
0.000104664
-2.9803e-05
9.25385e-05
1.86461e-05
7.75925e-05
7.21945e-05
5.60646e-05
0.000131334
3.43219e-05
0.000175886
1.80372e-05
0.000204725
3.70827e-06
0.000215875
-1.42078e-05
0.000203016
-3.3016e-05
0.000191641
-4.45035e-05
0.000173594
-4.29098e-05
0.00014291
-3.87114e-05
9.93887e-05
-4.43325e-05
6.48552e-05
-4.83801e-05
3.18017e-05
-4.51465e-05
-4.32086e-06
-3.65412e-05
-3.45943e-05
-2.86725e-05
-5.23881e-05
-2.18278e-05
-6.3128e-05
-1.58668e-05
-7.53544e-05
-7.47443e-06
-9.51029e-05
9.93897e-06
-0.00012961
3.08721e-05
-0.000153577
5.00075e-05
-0.000159892
6.53404e-05
-0.00015332
7.74953e-05
-0.000142604
8.20006e-05
-0.000133736
-0.000117026
6.93212e-05
-0.000108213
-8.77692e-06
-0.000112652
-1.52691e-05
-0.000114466
-2.22517e-05
-0.000112217
-2.9074e-05
-0.000107717
-3.51427e-05
-0.000101919
-4.03286e-05
-9.31912e-05
-4.37249e-05
-8.16478e-05
-4.42677e-05
-6.88966e-05
-4.23464e-05
-5.65627e-05
-3.84839e-05
-4.65837e-05
-3.35268e-05
-4.00788e-05
-2.90871e-05
-3.48363e-05
-2.2604e-05
-3.03242e-05
-1.36774e-05
-2.82671e-05
-2.40744e-06
-3.41079e-05
1.38015e-05
-4.17007e-05
4.73854e-05
-4.10371e-05
8.04399e-05
-3.81987e-05
9.00356e-05
-3.21123e-05
8.16269e-05
-2.53379e-05
5.6148e-05
-1.99577e-05
3.16906e-05
-1.73325e-05
1.79139e-05
-1.56551e-05
1.32798e-05
-1.37512e-05
1.26435e-05
-1.15869e-05
1.35813e-05
-9.28225e-06
1.53159e-05
-6.85842e-06
1.75495e-05
-4.29152e-06
1.99544e-05
-1.53123e-06
2.23762e-05
1.45238e-06
2.48968e-05
4.59481e-06
2.75654e-05
7.96241e-06
3.03302e-05
1.14678e-05
3.31821e-05
1.52092e-05
3.61099e-05
1.90189e-05
3.91083e-05
2.29149e-05
4.20814e-05
2.67719e-05
4.49619e-05
3.0528e-05
4.76155e-05
3.41253e-05
4.98655e-05
3.73628e-05
5.14135e-05
3.99822e-05
5.16957e-05
4.19853e-05
5.04113e-05
4.29182e-05
4.7424e-05
4.28051e-05
4.28293e-05
4.20509e-05
3.76921e-05
4.07257e-05
3.27408e-05
3.86066e-05
2.86248e-05
3.60897e-05
2.57857e-05
3.38858e-05
2.49144e-05
3.20747e-05
2.56575e-05
2.97046e-05
2.64825e-05
2.71632e-05
2.63109e-05
2.49598e-05
2.46333e-05
2.32715e-05
2.10474e-05
2.21183e-05
1.5597e-05
2.1434e-05
9.67365e-06
2.08821e-05
4.36642e-06
1.99723e-05
-1.05983e-06
1.97784e-05
-8.76215e-06
2.16719e-05
-2.16701e-05
2.17917e-05
-3.24301e-05
2.28357e-05
-3.96407e-05
2.34741e-05
-4.60891e-05
2.65842e-05
-5.31113e-05
3.34792e-05
-6.76586e-05
3.78325e-05
-8.13677e-05
4.0972e-05
-9.19178e-05
4.34769e-05
-9.91665e-05
4.50733e-05
-9.88185e-05
4.65414e-05
-9.14549e-05
4.67003e-05
-7.86118e-05
3.95583e-05
-5.85462e-05
2.58984e-05
-3.10782e-05
1.72919e-05
-8.84109e-06
1.62545e-05
-6.86492e-06
1.71509e-05
-1.1778e-05
2.38197e-05
-2.35509e-05
4.52073e-05
-5.46346e-05
7.61267e-05
-0.000106379
0.000106776
-0.000156579
0.000128026
-0.00018254
0.000140196
-0.00018176
0.000146532
-0.000162996
0.000148802
-0.000132038
0.000143206
-9.13805e-05
0.000124928
-4.26909e-05
0.000111218
6.57949e-06
9.7025e-05
5.79837e-05
7.47676e-05
0.00011431
5.00254e-05
0.000166468
3.01957e-05
0.000199767
1.64171e-05
0.000216997
1.28062e-06
0.000211717
-1.47164e-05
0.00019913
-2.81729e-05
0.000184894
-3.26865e-05
0.000160344
-3.04639e-05
0.00012633
-3.5168e-05
8.5525e-05
-4.12415e-05
4.88134e-05
-4.21578e-05
5.6563e-06
-3.55701e-05
-3.65456e-05
-2.54387e-05
-6.14873e-05
-1.82363e-05
-6.7993e-05
-1.2178e-05
-7.99423e-05
-4.42986e-06
-9.35043e-05
9.94219e-06
-0.000120796
2.90691e-05
-0.000150141
4.73646e-05
-0.00016176
6.20044e-05
-0.000157783
7.33392e-05
-0.000146503
7.75628e-05
-0.00013759
-0.000122335
6.55823e-05
-0.00011675
-4.08837e-06
-0.000121387
-1.13199e-05
-0.000123377
-1.94607e-05
-0.000121657
-2.77466e-05
-0.000118303
-3.55056e-05
-0.000113386
-4.2302e-05
-0.000104326
-4.70181e-05
-9.10499e-05
-4.85906e-05
-7.55693e-05
-4.73928e-05
-6.02847e-05
-4.34396e-05
-4.97443e-05
-3.81053e-05
-4.33748e-05
-3.35817e-05
-3.83403e-05
-2.70294e-05
-3.40222e-05
-1.77364e-05
-3.19148e-05
-5.8934e-06
-3.57329e-05
1.03802e-05
-4.87569e-05
3.92231e-05
-4.95125e-05
7.62399e-05
-4.6321e-05
9.18539e-05
-3.84149e-05
8.5792e-05
-2.9382e-05
6.20929e-05
-2.25417e-05
3.62648e-05
-1.94118e-05
2.03083e-05
-1.79454e-05
1.42264e-05
-1.62233e-05
1.25639e-05
-1.41201e-05
1.28059e-05
-1.17792e-05
1.40581e-05
-9.31334e-06
1.59157e-05
-6.72524e-06
1.79598e-05
-4.00138e-06
2.00164e-05
-1.07365e-06
2.20509e-05
2.10068e-06
2.41847e-05
5.34518e-06
2.65103e-05
8.7368e-06
2.89068e-05
1.21359e-05
3.13702e-05
1.56406e-05
3.38978e-05
1.90372e-05
3.64487e-05
2.23395e-05
3.88531e-05
2.54741e-05
4.10068e-05
2.84053e-05
4.27339e-05
3.10292e-05
4.38187e-05
3.32837e-05
4.39235e-05
3.50927e-05
4.28473e-05
3.62394e-05
4.05632e-05
3.66654e-05
3.73083e-05
3.63001e-05
3.36897e-05
3.50948e-05
3.03118e-05
3.29865e-05
2.79722e-05
3.11109e-05
2.77181e-05
2.9084e-05
2.85991e-05
2.64396e-05
2.97697e-05
2.35104e-05
3.02491e-05
2.0778e-05
2.91779e-05
1.86706e-05
2.62875e-05
1.73319e-05
2.14512e-05
1.66521e-05
1.56709e-05
1.64026e-05
1.02854e-05
1.60933e-05
5.03563e-06
1.62209e-05
-1.75572e-06
1.91676e-05
-1.30969e-05
2.19247e-05
-2.75229e-05
2.3134e-05
-3.5741e-05
2.50808e-05
-4.33253e-05
2.64607e-05
-4.9685e-05
3.30427e-05
-6.04394e-05
4.02852e-05
-7.58756e-05
4.59536e-05
-8.72226e-05
5.04074e-05
-9.73884e-05
5.37226e-05
-0.000105155
5.54847e-05
-0.000104451
5.64356e-05
-9.59436e-05
5.6357e-05
-8.18501e-05
4.92673e-05
-6.10667e-05
3.42711e-05
-3.47767e-05
2.13128e-05
-1.13506e-05
1.85901e-05
-7.50911e-06
1.91701e-05
-1.19475e-05
2.33734e-05
-2.23178e-05
4.56345e-05
-4.87221e-05
8.07011e-05
-0.000101339
0.000116024
-0.000154394
0.000140946
-0.00018413
0.000155629
-0.000187127
0.000163358
-0.000170424
0.000166679
-0.000141021
0.000163226
-0.000101948
0.000142998
-5.49249e-05
0.000125417
-3.75139e-06
0.00011061
4.38764e-05
9.30027e-05
9.777e-05
6.64538e-05
0.000154369
4.27877e-05
0.000196649
2.67869e-05
0.000215884
1.45002e-05
0.000215191
5.81924e-07
0.000204968
-1.10292e-05
0.000190525
-1.81591e-05
0.000171219
-1.88256e-05
0.00014551
-2.10551e-05
0.000107337
-2.60457e-05
6.54071e-05
-3.0149e-05
1.63265e-05
-2.89846e-05
-3.49397e-05
-2.25212e-05
-7.10823e-05
-1.39643e-05
-7.98292e-05
-9.32384e-06
-8.47482e-05
-1.42723e-06
-9.59373e-05
1.09906e-05
-0.000113515
2.81658e-05
-0.000145746
4.50316e-05
-0.000161218
5.83362e-05
-0.000159791
6.77364e-05
-0.000148089
7.11297e-05
-0.000138402
-0.000124512
5.9657e-05
-0.000123969
5.46531e-07
-0.000129061
-6.20467e-06
-0.000131075
-1.54244e-05
-0.00012975
-2.50041e-05
-0.000127411
-3.41659e-05
-0.000123483
-4.2405e-05
-0.000114977
-4.841e-05
-0.000101684
-5.14006e-05
-8.4839e-05
-5.16746e-05
-6.68292e-05
-4.86433e-05
-5.34655e-05
-4.26839e-05
-4.7107e-05
-3.77891e-05
-4.2251e-05
-3.12155e-05
-3.83299e-05
-2.13932e-05
-3.67365e-05
-8.7019e-06
-4.0519e-05
8.16459e-06
-5.4796e-05
3.57061e-05
-5.85648e-05
7.16897e-05
-5.42696e-05
9.13632e-05
-4.46596e-05
8.83301e-05
-3.3803e-05
6.58861e-05
-2.62522e-05
4.07695e-05
-2.23491e-05
2.42297e-05
-2.06036e-05
1.60808e-05
-1.8692e-05
1.27961e-05
-1.63883e-05
1.20225e-05
-1.39129e-05
1.27344e-05
-1.13436e-05
1.42415e-05
-8.6654e-06
1.59202e-05
-5.80061e-06
1.75556e-05
-2.75696e-06
1.91646e-05
4.2623e-07
2.08917e-05
3.77789e-06
2.27956e-05
7.11759e-06
2.48947e-05
1.04551e-05
2.71441e-05
1.36993e-05
2.94453e-05
1.68306e-05
3.17951e-05
1.97522e-05
3.4028e-05
2.2415e-05
3.60249e-05
2.47869e-05
3.76099e-05
2.68556e-05
3.85639e-05
2.86078e-05
3.8646e-05
2.99939e-05
3.7737e-05
3.08936e-05
3.58925e-05
3.11234e-05
3.34015e-05
3.05079e-05
3.08638e-05
2.92036e-05
2.91594e-05
2.78709e-05
2.949e-05
2.58436e-05
3.08147e-05
2.30247e-05
3.19869e-05
1.98785e-05
3.29854e-05
1.68147e-05
3.26208e-05
1.43098e-05
3.04682e-05
1.26032e-05
2.65219e-05
1.1676e-05
2.11229e-05
1.12762e-05
1.58142e-05
1.10988e-05
1.08843e-05
1.12689e-05
4.79662e-06
1.33933e-05
-4.35551e-06
1.90549e-05
-1.9927e-05
2.15826e-05
-3.17324e-05
2.42474e-05
-3.92979e-05
2.64031e-05
-4.6797e-05
2.98501e-05
-5.47609e-05
3.78925e-05
-6.91633e-05
4.58284e-05
-8.1983e-05
5.27206e-05
-9.26115e-05
5.84596e-05
-0.000102887
6.2122e-05
-0.000110488
6.35815e-05
-0.000108827
6.36891e-05
-9.92904e-05
6.27537e-05
-8.38401e-05
5.49314e-05
-6.2091e-05
3.89731e-05
-3.61271e-05
2.39912e-05
-1.35097e-05
2.03291e-05
-8.59826e-06
2.08034e-05
-1.24972e-05
2.42263e-05
-2.22221e-05
4.69962e-05
-4.71135e-05
8.52789e-05
-9.94679e-05
0.000123999
-0.000153405
0.000152348
-0.000185448
0.000169537
-0.000191606
0.000178542
-0.000176702
0.000182198
-0.000148787
0.000177563
-0.000110475
0.000158894
-6.44017e-05
0.000136958
-1.47044e-05
0.00012141
3.1267e-05
0.00010771
8.17172e-05
8.18638e-05
0.000138935
5.46526e-05
0.00018844
3.53952e-05
0.000216024
2.3552e-05
0.000216468
1.38976e-05
0.000207246
3.81725e-06
0.000194234
-2.61771e-06
0.000177064
-4.42278e-06
0.000153776
-4.43657e-06
0.000121138
-5.6716e-06
7.75092e-05
-9.07079e-06
2.47215e-05
-1.27027e-05
-3.00881e-05
-1.30722e-05
-7.33102e-05
-8.5063e-06
-9.46954e-05
-5.35428e-06
-9.13432e-05
1.12932e-06
-9.89748e-05
1.2415e-05
-0.000108273
2.85514e-05
-0.000142289
4.38262e-05
-0.000160236
5.50901e-05
-0.000159881
6.21337e-05
-0.000147379
6.44225e-05
-0.000136368
-0.00012279
5.33648e-05
-0.000129678
5.46158e-06
-0.000135507
-1.44327e-06
-0.000137861
-1.0854e-05
-0.00013691
-2.14189e-05
-0.000135285
-3.17668e-05
-0.000131741
-4.10565e-05
-0.000123573
-4.80825e-05
-0.000111218
-5.23943e-05
-9.44664e-05
-5.43193e-05
-7.46722e-05
-5.27561e-05
-5.8128e-05
-4.69257e-05
-5.15836e-05
-4.15879e-05
-4.69733e-05
-3.51035e-05
-4.34333e-05
-2.46495e-05
-4.25847e-05
-1.08219e-05
-4.7577e-05
7.22943e-06
-6.22151e-05
3.46899e-05
-6.67747e-05
6.81458e-05
-6.18411e-05
8.80103e-05
-5.10402e-05
8.93016e-05
-3.89459e-05
6.83682e-05
-3.09319e-05
4.52582e-05
-2.66106e-05
2.88888e-05
-2.36439e-05
1.86067e-05
-2.07897e-05
1.31398e-05
-1.82699e-05
1.11693e-05
-1.57456e-05
1.14352e-05
-1.31089e-05
1.25624e-05
-1.02656e-05
1.37983e-05
-7.21781e-06
1.50013e-05
-3.97841e-06
1.6167e-05
-5.70771e-07
1.75093e-05
2.91992e-06
1.90654e-05
6.3822e-06
2.09565e-05
9.72658e-06
2.30825e-05
1.29083e-05
2.52726e-05
1.5841e-05
2.75881e-05
1.84505e-05
2.98349e-05
2.06668e-05
3.19017e-05
2.24603e-05
3.35773e-05
2.38565e-05
3.45949e-05
2.49382e-05
3.46883e-05
2.56849e-05
3.38554e-05
2.59304e-05
3.23113e-05
2.55884e-05
3.04589e-05
2.4656e-05
2.91595e-05
2.36944e-05
2.94455e-05
2.19399e-05
3.12246e-05
1.93033e-05
3.3097e-05
1.61369e-05
3.4248e-05
1.29542e-05
3.46147e-05
1.01951e-05
3.32772e-05
8.20549e-06
3.02013e-05
7.04052e-06
2.56794e-05
6.38237e-06
2.0655e-05
5.93989e-06
1.60762e-05
5.85232e-06
1.08826e-05
7.10486e-06
3.32349e-06
1.27435e-05
-1.02269e-05
1.83163e-05
-2.64198e-05
2.14248e-05
-3.47308e-05
2.4736e-05
-4.28895e-05
2.70234e-05
-4.99404e-05
3.30482e-05
-6.17718e-05
4.12327e-05
-7.64652e-05
4.92114e-05
-8.62901e-05
5.77436e-05
-9.48198e-05
6.53839e-05
-0.000106612
6.93523e-05
-0.000115082
6.97219e-05
-0.000112903
6.90744e-05
-0.000102248
6.68724e-05
-8.47568e-05
5.80069e-05
-6.17191e-05
4.15289e-05
-3.65543e-05
2.60782e-05
-1.55756e-05
2.18949e-05
-1.00458e-05
2.22638e-05
-1.34088e-05
2.55408e-05
-2.2731e-05
4.95383e-05
-4.78817e-05
8.9797e-05
-9.87292e-05
0.000130749
-0.000151348
0.000162021
-0.000184944
0.000181611
-0.000194164
0.000191667
-0.000181428
0.000195113
-0.000155066
0.000187145
-0.000116541
0.000167446
-7.179e-05
0.00014425
-2.43664e-05
0.000128014
2.00673e-05
0.000113493
6.52218e-05
9.43021e-05
0.000119864
6.55083e-05
0.000175542
4.28568e-05
0.000212146
2.98405e-05
0.000217823
2.20042e-05
0.00020798
1.58654e-05
0.000193656
1.04268e-05
0.000177129
9.51533e-06
0.0001556
1.13804e-05
0.000124067
1.2795e-05
8.11429e-05
1.0773e-05
2.86742e-05
6.10512e-06
-2.57466e-05
2.21439e-06
-7.22205e-05
-4.30458e-08
-0.000101192
6.47011e-09
-9.8117e-05
4.36412e-06
-0.000101775
1.42606e-05
-0.000105481
2.99492e-05
-0.000139747
4.38535e-05
-0.000159873
5.26676e-05
-0.000159268
5.71434e-05
-0.000145443
5.78547e-05
-0.000132641
-0.000116962
4.69027e-05
-0.000133243
1.01762e-05
-0.000140472
3.31518e-06
-0.000143592
-6.32315e-06
-0.000143505
-1.75935e-05
-0.000142507
-2.8817e-05
-0.000138967
-3.8948e-05
-0.000131065
-4.67702e-05
-0.000120123
-5.21365e-05
-0.000104825
-5.53884e-05
-8.39443e-05
-5.54923e-05
-6.39453e-05
-5.03798e-05
-5.68716e-05
-4.47933e-05
-5.26707e-05
-3.85091e-05
-4.96598e-05
-2.74557e-05
-5.00504e-05
-1.22652e-05
-5.66025e-05
7.53752e-06
-7.10126e-05
3.54711e-05
-7.39475e-05
6.64083e-05
-6.85998e-05
8.47152e-05
-5.76345e-05
8.80682e-05
-4.47957e-05
7.06554e-05
-3.64931e-05
5.0233e-05
-3.12372e-05
3.388e-05
-2.58655e-05
2.07081e-05
-2.23659e-05
1.29006e-05
-1.98174e-05
1.04094e-05
-1.73361e-05
1.02788e-05
-1.46214e-05
1.09092e-05
-1.16369e-05
1.1606e-05
-8.34436e-06
1.23091e-05
-4.78161e-06
1.29566e-05
-9.98198e-07
1.38411e-05
2.80244e-06
1.51129e-05
6.43967e-06
1.69751e-05
9.88858e-06
1.90022e-05
1.30157e-05
2.12573e-05
1.57948e-05
2.36376e-05
1.81091e-05
2.60369e-05
1.98587e-05
2.83592e-05
2.09434e-05
3.03845e-05
2.1426e-05
3.17069e-05
2.14611e-05
3.20246e-05
2.13364e-05
3.13706e-05
2.08841e-05
3.02839e-05
2.00087e-05
2.92675e-05
1.87362e-05
2.9201e-05
1.71421e-05
3.07225e-05
1.48638e-05
3.26174e-05
1.20307e-05
3.41849e-05
9.01784e-06
3.48783e-05
6.26883e-06
3.44604e-05
4.13667e-06
3.23368e-05
2.75873e-06
2.87801e-05
1.99431e-06
2.43007e-05
1.34812e-06
2.01925e-05
9.18533e-07
1.59563e-05
1.21083e-06
1.02203e-05
4.35402e-06
8.57464e-08
1.26928e-05
-1.81108e-05
1.73221e-05
-3.02525e-05
2.13145e-05
-3.82486e-05
2.44742e-05
-4.61586e-05
2.82987e-05
-5.41182e-05
3.54802e-05
-6.87491e-05
4.24295e-05
-8.10163e-05
5.01127e-05
-8.8059e-05
6.05286e-05
-9.8241e-05
7.04776e-05
-0.000113556
7.50551e-05
-0.000121421
7.44009e-05
-0.000116477
7.29071e-05
-0.000103901
6.78773e-05
-8.30872e-05
5.78498e-05
-5.87293e-05
4.27748e-05
-3.55512e-05
2.79514e-05
-1.76658e-05
2.34549e-05
-1.16704e-05
2.38366e-05
-1.46816e-05
2.7628e-05
-2.40969e-05
5.36562e-05
-4.91333e-05
9.37218e-05
-9.67577e-05
0.000135222
-0.000146325
0.000169188
-0.00018144
0.000191588
-0.000194404
0.000202535
-0.000184436
0.000205304
-0.000159687
0.000190345
-0.000121328
0.000169461
-7.70683e-05
0.000147473
-3.28094e-05
0.000131587
9.49887e-06
0.000114821
5.04945e-05
0.00010119
9.93465e-05
7.32475e-05
0.00015745
4.90044e-05
0.000202849
3.44454e-05
0.000218962
2.67647e-05
0.000207493
2.27667e-05
0.000190429
1.96437e-05
0.000172915
1.95795e-05
0.000153837
2.22755e-05
0.000122047
2.51592e-05
7.92158e-05
2.41202e-05
2.92452e-05
2.01152e-05
-2.32334e-05
1.53513e-05
-7.01137e-05
9.89492e-06
-0.000103571
6.32087e-06
-0.000102797
8.49029e-06
-0.000103461
1.63239e-05
-0.000105121
3.23377e-05
-0.000136562
4.50216e-05
-0.000159745
5.13107e-05
-0.000158571
5.32327e-05
-0.000143209
5.17172e-05
-0.000128452
-0.000108373
3.9802e-05
-0.000134449
1.42888e-05
-0.000143575
7.96111e-06
-0.00014825
-1.86839e-06
-0.000149309
-1.36184e-05
-0.000148938
-2.55448e-05
-0.00014549
-3.64642e-05
-0.000138078
-4.49215e-05
-0.000128516
-5.09582e-05
-0.000115357
-5.52028e-05
-9.4733e-05
-5.64394e-05
-7.15104e-05
-5.29085e-05
-6.30332e-05
-4.73811e-05
-5.93912e-05
-4.12542e-05
-5.72294e-05
-2.98003e-05
-5.9589e-05
-1.31417e-05
-6.80778e-05
9.15866e-06
-8.08841e-05
3.72942e-05
-8.12534e-05
6.58887e-05
-7.52255e-05
8.29231e-05
-6.43036e-05
8.7297e-05
-5.21057e-05
7.41245e-05
-4.31391e-05
5.55859e-05
-3.47772e-05
3.74488e-05
-2.70051e-05
2.13002e-05
-2.3479e-05
1.2676e-05
-2.1035e-05
9.84923e-06
-1.85679e-05
9.24672e-06
-1.57398e-05
9.2289e-06
-1.24711e-05
9.24477e-06
-8.78183e-06
9.37476e-06
-4.81454e-06
9.51707e-06
-5.96722e-07
9.96036e-06
3.42134e-06
1.12713e-05
7.07479e-06
1.34387e-05
1.02475e-05
1.57812e-05
1.32685e-05
1.80968e-05
1.59586e-05
2.06194e-05
1.81601e-05
2.31988e-05
1.9565e-05
2.59873e-05
1.98695e-05
2.87461e-05
1.92674e-05
3.067e-05
1.79937e-05
3.1559e-05
1.68787e-05
3.14702e-05
1.57066e-05
3.09969e-05
1.43462e-05
3.08354e-05
1.25276e-05
3.149e-05
9.97938e-06
3.26423e-05
7.22551e-06
3.36708e-05
4.48522e-06
3.42041e-05
1.95081e-06
3.40445e-05
-5.73132e-08
3.28207e-05
-1.38997e-06
3.02282e-05
-2.09299e-06
2.66028e-05
-2.60893e-06
2.27252e-05
-3.15943e-06
1.94519e-05
-3.20317e-06
1.52707e-05
-1.83931e-06
8.6525e-06
4.33219e-06
-5.70219e-06
1.22091e-05
-2.45327e-05
1.67648e-05
-3.35714e-05
2.09596e-05
-4.19772e-05
2.37277e-05
-4.87512e-05
2.93621e-05
-5.90112e-05
3.6604e-05
-7.38899e-05
4.31657e-05
-8.42114e-05
5.01141e-05
-9.20945e-05
6.33321e-05
-0.000106186
7.56813e-05
-0.000123429
8.03322e-05
-0.000129269
7.81181e-05
-0.000120326
7.44392e-05
-0.000104787
6.46723e-05
-7.70896e-05
5.41817e-05
-5.37827e-05
4.18019e-05
-3.39117e-05
2.89267e-05
-1.90721e-05
2.48515e-05
-1.33572e-05
2.54376e-05
-1.62136e-05
3.05727e-05
-2.52406e-05
5.7432e-05
-4.91863e-05
9.57125e-05
-9.1492e-05
0.000137176
-0.000137128
0.000174277
-0.000174378
0.000199813
-0.000192363
0.0002113
-0.00018589
0.000213034
-0.00016298
0.00019161
-0.000125445
0.000169493
-8.16896e-05
0.000148168
-4.07567e-05
0.000131826
-6.81091e-07
0.00011438
3.81977e-05
9.88778e-05
7.89326e-05
7.81801e-05
0.000135435
5.21187e-05
0.000189015
3.68791e-05
0.000214573
2.8366e-05
0.000206919
2.56273e-05
0.000186761
2.453e-05
0.00016727
2.46032e-05
0.000146366
2.74996e-05
0.000116642
3.06473e-05
7.44504e-05
3.13294e-05
2.62027e-05
2.89063e-05
-2.24821e-05
2.49395e-05
-6.85752e-05
1.89415e-05
-0.000104776
1.25453e-05
-0.00010518
1.27784e-05
-0.000103923
1.85607e-05
-0.000105019
3.48003e-05
-0.000132997
4.68017e-05
-0.000159053
5.06805e-05
-0.000157412
5.01869e-05
-0.000140867
4.60058e-05
-0.000124249
-9.92215e-05
3.22658e-05
-0.000132572
1.86975e-05
-0.000143933
1.28312e-05
-0.0001511
3.12017e-06
-0.000154344
-9.18615e-06
-0.00015473
-2.18532e-05
-0.000151118
-3.34036e-05
-0.00014412
-4.2285e-05
-0.000136362
-4.91433e-05
-0.000125467
-5.38346e-05
-0.000106923
-5.57562e-05
-8.16409e-05
-5.43466e-05
-7.01086e-05
-4.93338e-05
-6.72729e-05
-4.3009e-05
-6.64485e-05
-3.14919e-05
-7.17353e-05
-1.3669e-05
-8.33662e-05
1.12987e-05
-9.13546e-05
4.04672e-05
-8.9257e-05
6.61418e-05
-8.2764e-05
8.24913e-05
-7.23518e-05
8.75499e-05
-5.97965e-05
7.7297e-05
-4.78639e-05
5.88588e-05
-3.6386e-05
3.86161e-05
-2.75886e-05
2.12422e-05
-2.42041e-05
1.24212e-05
-2.18253e-05
9.37541e-06
-1.91833e-05
8.15675e-06
-1.60291e-05
7.38102e-06
-1.25156e-05
6.81542e-06
-8.77925e-06
6.60525e-06
-5.59164e-06
7.22511e-06
-2.71844e-06
8.08618e-06
-7.18308e-07
1.0802e-05
5.84362e-07
1.4686e-05
2.66078e-06
1.76849e-05
6.21318e-06
1.95384e-05
1.04866e-05
2.16466e-05
1.4186e-05
2.41973e-05
1.67998e-05
2.73118e-05
1.7382e-05
3.06166e-05
1.63862e-05
3.2626e-05
1.44862e-05
3.36145e-05
1.22644e-05
3.37099e-05
1.0017e-05
3.2543e-05
7.60592e-06
3.1946e-05
4.98135e-06
3.25603e-05
2.27426e-06
3.32942e-05
-3.13306e-07
3.36869e-05
-2.63464e-06
3.32943e-05
-4.49738e-06
3.2263e-05
-5.6578e-06
3.02944e-05
-6.21072e-06
2.75032e-05
-6.34978e-06
2.41256e-05
-6.58366e-06
2.11376e-05
-6.70389e-06
1.83844e-05
-6.03608e-06
1.43049e-05
-3.32127e-06
6.50272e-06
5.46819e-06
-1.29719e-05
1.18568e-05
-2.86215e-05
1.66237e-05
-3.74024e-05
2.04469e-05
-4.53049e-05
2.36711e-05
-5.1585e-05
3.00561e-05
-6.39303e-05
3.6444e-05
-7.67284e-05
4.18817e-05
-8.66965e-05
5.08406e-05
-9.77661e-05
6.64845e-05
-0.000114848
8.13989e-05
-0.000131612
8.67216e-05
-0.000136912
8.44828e-05
-0.000125726
7.62956e-05
-0.000108173
5.94087e-05
-7.58126e-05
5.10118e-05
-4.85867e-05
4.12695e-05
-3.30879e-05
3.02037e-05
-2.08369e-05
2.67944e-05
-1.53252e-05
2.77884e-05
-1.80829e-05
3.38186e-05
-2.65229e-05
6.00372e-05
-4.78232e-05
9.52015e-05
-8.27402e-05
0.00013623
-0.000123077
0.000176931
-0.00016245
0.000206332
-0.000186962
0.000218182
-0.000185503
0.00021911
-0.000164916
0.000191883
-0.000129861
0.000168123
-8.58592e-05
0.000147978
-4.82299e-05
0.000131621
-1.09456e-05
0.000114119
2.61026e-05
9.31244e-05
6.26353e-05
7.69708e-05
0.000110918
5.18393e-05
0.000169644
3.6229e-05
0.000204878
2.83434e-05
0.000206062
2.52124e-05
0.000184194
2.36758e-05
0.000160732
2.50391e-05
0.000137171
2.7491e-05
0.000106087
3.0609e-05
6.53057e-05
3.21215e-05
1.99405e-05
3.23253e-05
-2.29956e-05
3.12166e-05
-6.83327e-05
2.58436e-05
-0.000105785
1.78258e-05
-0.00010571
1.6733e-05
-0.000103631
2.05985e-05
-0.000104436
3.71352e-05
-0.000128688
4.84049e-05
-0.00015785
5.02495e-05
-0.000155222
4.77159e-05
-0.000137997
4.09055e-05
-0.000119608
-9.07209e-05
2.60903e-05
-0.000126316
2.54652e-05
-0.000141133
1.92496e-05
-0.000151571
9.47724e-06
-0.000157838
-3.28937e-06
-0.00015916
-1.69694e-05
-0.000154747
-2.94499e-05
-0.000148996
-3.86588e-05
-0.000143569
-4.64889e-05
-0.000134887
-5.15059e-05
-0.00011921
-5.43608e-05
-9.51593e-05
-5.43434e-05
-7.81247e-05
-4.96469e-05
-7.62047e-05
-4.3233e-05
-7.6943e-05
-3.21646e-05
-8.59355e-05
-1.37608e-05
-9.88744e-05
1.28404e-05
-0.000101645
4.28304e-05
-9.71648e-05
6.68745e-05
-9.01523e-05
8.26467e-05
-7.93435e-05
8.80688e-05
-6.53454e-05
7.90201e-05
-5.07488e-05
6.00454e-05
-3.65343e-05
3.78023e-05
-2.76443e-05
2.03065e-05
-2.45582e-05
1.21525e-05
-2.21106e-05
8.88137e-06
-1.93531e-05
7.07854e-06
-1.67617e-05
6.16488e-06
-1.53974e-05
6.5745e-06
-1.577e-05
8.0745e-06
-2.00748e-05
1.29989e-05
-2.94847e-05
2.12809e-05
-4.00639e-05
3.024e-05
-4.48876e-05
3.4334e-05
-4.12515e-05
3.41992e-05
-3.12788e-05
3.42083e-05
-1.86219e-05
3.53883e-05
-4.20356e-06
3.82537e-05
8.31095e-06
4.36855e-05
1.51375e-05
4.83472e-05
1.54721e-05
5.1331e-05
1.2386e-05
4.89055e-05
7.74684e-06
4.33649e-05
3.91343e-06
3.75202e-05
2.37212e-07
3.41311e-05
-3.1744e-06
3.25921e-05
-5.8148e-06
3.2003e-05
-7.80668e-06
3.18472e-05
-9.28899e-06
3.11054e-05
-1.01901e-05
2.96548e-05
-1.0477e-05
2.74067e-05
-1.02131e-05
2.45823e-05
-9.80783e-06
2.17432e-05
-9.51116e-06
1.95544e-05
-8.63931e-06
1.70958e-05
-6.90744e-06
1.30792e-05
-1.85802e-06
2.79191e-06
6.82516e-06
-1.96286e-05
1.21762e-05
-3.25491e-05
1.66947e-05
-4.10861e-05
1.98459e-05
-4.76431e-05
2.39202e-05
-5.47658e-05
3.01408e-05
-6.70586e-05
3.49808e-05
-7.78563e-05
4.0488e-05
-8.85108e-05
5.09599e-05
-0.000101414
6.81091e-05
-0.000118577
8.59e-05
-0.000134966
9.48035e-05
-0.000141753
9.47731e-05
-0.000131616
8.62713e-05
-0.000113784
6.32451e-05
-8.26409e-05
5.08491e-05
-5.08155e-05
4.16386e-05
-3.33393e-05
3.224e-05
-2.1659e-05
2.91946e-05
-1.70124e-05
3.03525e-05
-1.98971e-05
3.6956e-05
-2.78249e-05
6.04892e-05
-4.4977e-05
9.06438e-05
-7.05211e-05
0.0001297
-0.000103991
0.000174474
-0.000144924
0.000209441
-0.000177218
0.000222397
-0.000182713
0.000223419
-0.000165054
0.000192628
-0.000133797
0.000165289
-9.00901e-05
0.000146675
-5.55066e-05
0.000130283
-2.14072e-05
0.000111537
1.34191e-05
8.74013e-05
4.73674e-05
6.78771e-05
8.72198e-05
4.81644e-05
0.000145466
3.31254e-05
0.00019009
2.63134e-05
0.000201908
2.14795e-05
0.000183185
1.95435e-05
0.000154456
2.04171e-05
0.000127859
2.32249e-05
9.5112e-05
2.64995e-05
5.59968e-05
2.94771e-05
1.45122e-05
3.25639e-05
-2.49788e-05
3.48174e-05
-7.01979e-05
3.06432e-05
-0.000107005
2.17009e-05
-0.000103895
2.00038e-05
-0.000102689
2.25427e-05
-0.000103417
3.8932e-05
-0.000125364
4.93886e-05
-0.000156388
4.94092e-05
-0.000151867
4.50593e-05
-0.000134174
3.53543e-05
-0.000113573
-8.31903e-05
2.11173e-05
-0.000115631
3.82915e-05
-0.000134014
2.93267e-05
-0.000148989
1.86847e-05
-0.000158824
5.35649e-06
-0.00016214
-9.45396e-06
-0.000156481
-2.36644e-05
-0.00015294
-3.47696e-05
-0.000149067
-4.29244e-05
-0.00014314
-4.83001e-05
-0.000131125
-5.10165e-05
-0.00011026
-5.14517e-05
-8.77712e-05
-4.82408e-05
-8.50858e-05
-4.22724e-05
-8.67266e-05
-3.17268e-05
-9.80945e-05
-1.37175e-05
-0.00011013
1.4154e-05
-0.000110114
4.40219e-05
-0.000104266
6.74157e-05
-9.66617e-05
8.30639e-05
-8.50023e-05
8.83526e-05
-6.90707e-05
7.92332e-05
-5.15262e-05
5.87826e-05
-3.46929e-05
3.45819e-05
-2.76867e-05
1.86395e-05
-2.49235e-05
1.19144e-05
-2.28447e-05
8.82689e-06
-2.21502e-05
7.85512e-06
-2.46171e-05
9.17698e-06
-3.50774e-05
1.5799e-05
-6.28766e-05
2.88345e-05
-9.95242e-05
4.44197e-05
-0.000128198
5.14544e-05
-0.000138126
4.98374e-05
-0.000130631
4.22827e-05
-0.000111411
3.29409e-05
-8.31374e-05
2.40581e-05
-5.3764e-05
2.33851e-05
-2.91888e-05
2.79409e-05
-8.73596e-06
3.7484e-05
6.88474e-06
4.94952e-05
1.33324e-05
6.43327e-05
1.01018e-05
7.21038e-05
4.10602e-06
6.39916e-05
-2.19136e-06
5.07888e-05
-7.17876e-06
3.99326e-05
-1.10627e-05
3.3831e-05
-1.38574e-05
3.03862e-05
-1.53416e-05
2.86079e-05
-1.57436e-05
2.74913e-05
-1.54467e-05
2.61728e-05
-1.46324e-05
2.41772e-05
-1.35071e-05
2.17801e-05
-1.23109e-05
1.9577e-05
-1.09773e-05
1.79088e-05
-8.8461e-06
1.56913e-05
-5.78558e-06
1.1562e-05
9.00486e-07
-1.9659e-06
8.44158e-06
-2.49665e-05
1.31941e-05
-3.63568e-05
1.72903e-05
-4.40778e-05
2.00932e-05
-4.94184e-05
2.51255e-05
-5.73593e-05
3.06458e-05
-6.81938e-05
3.46547e-05
-7.80166e-05
3.93289e-05
-8.78885e-05
4.91001e-05
-9.86874e-05
6.55271e-05
-0.00010932
8.6701e-05
-0.000122028
0.00010252
-0.000135524
0.000107278
-0.000133894
0.000102014
-0.000118736
7.59732e-05
-9.32674e-05
5.69389e-05
-5.80114e-05
4.26591e-05
-3.48937e-05
3.32945e-05
-2.20309e-05
3.1244e-05
-1.887e-05
3.2641e-05
-2.19095e-05
4.01687e-05
-2.93779e-05
5.80872e-05
-4.12605e-05
8.07828e-05
-5.66192e-05
0.000116953
-8.37748e-05
0.000166103
-0.000125298
0.000208632
-0.00016475
0.00022404
-0.000177591
0.000224815
-0.000163446
0.000192863
-0.000135909
0.000162092
-9.47657e-05
0.000144508
-6.27724e-05
0.00012743
-3.22357e-05
0.000105823
-3.89487e-07
7.9494e-05
3.10357e-05
5.54011e-05
6.63085e-05
3.99471e-05
0.000121691
2.76165e-05
0.000174404
2.06747e-05
0.000196995
1.53127e-05
0.000181196
1.31907e-05
0.000148819
1.40987e-05
0.000118269
1.71513e-05
8.48005e-05
2.09827e-05
4.75229e-05
2.5766e-05
9.93375e-06
3.14012e-05
-2.86439e-05
3.66441e-05
-7.39264e-05
3.28221e-05
-0.000107031
2.40929e-05
-9.96411e-05
2.25234e-05
-0.000101203
2.42359e-05
-0.000102102
4.02749e-05
-0.000122998
4.99691e-05
-0.000153509
4.81186e-05
-0.000147689
4.22078e-05
-0.00012949
2.99011e-05
-0.000105971
-7.64544e-05
1.67716e-05
-0.000101351
5.85165e-05
-0.000122357
4.47895e-05
-0.000141937
3.24306e-05
-0.000157254
1.79345e-05
-0.000164338
1.86463e-06
-0.000158727
-1.45324e-05
-0.000154976
-2.89471e-05
-0.000153448
-3.83595e-05
-0.000149534
-4.44875e-05
-0.000141656
-4.74771e-05
-0.000125581
-4.69569e-05
-9.97963e-05
-4.44198e-05
-9.23596e-05
-4.03545e-05
-9.4218e-05
-2.90488e-05
-0.000105683
-1.30782e-05
-0.000118157
1.46734e-05
-0.000116825
4.42852e-05
-0.000110098
6.74433e-05
-0.000101691
8.29436e-05
-8.85075e-05
8.75578e-05
-7.00794e-05
7.6964e-05
-4.86211e-05
5.33505e-05
-3.2569e-05
3.05031e-05
-2.82773e-05
1.80899e-05
-2.67287e-05
1.27604e-05
-2.80866e-05
1.15027e-05
-3.77927e-05
1.59101e-05
-7.09797e-05
2.84954e-05
-0.000130533
5.18414e-05
-0.000182588
6.9484e-05
-0.000203826
7.20112e-05
-0.00019654
6.04631e-05
-0.00016584
3.84091e-05
-0.000111402
1.41555e-05
-5.88617e-05
1.69026e-06
-3.08957e-05
-3.3937e-06
-1.43484e-05
-2.48146e-06
-4.37967e-06
2.99901e-06
1.91692e-06
1.26874e-05
8.46826e-06
3.25892e-05
9.49034e-06
6.00585e-05
4.23951e-06
8.09992e-05
-3.57789e-06
8.37088e-05
-1.00655e-05
6.73104e-05
-1.49551e-05
4.98523e-05
-1.89371e-05
3.74767e-05
-2.13184e-05
3.02616e-05
-2.23974e-05
2.59235e-05
-2.20358e-05
2.34526e-05
-2.04754e-05
2.20184e-05
-1.84037e-05
2.06425e-05
-1.61638e-05
1.89983e-05
-1.39108e-05
1.75449e-05
-1.11937e-05
1.62445e-05
-7.74871e-06
1.41484e-05
-2.98425e-06
9.35212e-06
5.24291e-06
-7.80032e-06
1.07902e-05
-2.93082e-05
1.49724e-05
-3.95478e-05
1.84391e-05