/*--------------------------------*- C++ -*----------------------------------*\
  =========                 |
  \\      /  F ield         | OpenFOAM: The Open Source CFD Toolbox
   \\    /   O peration     | Website:  https://openfoam.org
    \\  /    A nd           | Version:  10
     \\/     M anipulation  |
\*---------------------------------------------------------------------------*/
FoamFile
{
    format      ascii;
    class       volScalarField;
    location    "0.599261";
    object      rho;
}
// * * * * * * * * * * * * * * * * * * * * * * * * * * * * * * * * * * * * * //

dimensions      [1 -3 0 0 0 0 0];

internalField   nonuniform List<scalar> 
16320
(
0.288987
0.296479
0.300379
0.294054
0.279168
0.263723
0.247538
0.229174
0.213706
0.193739
0.174603
0.166543
0.166555
0.170342
0.188849
0.258221
0.391428
0.434585
0.420238
0.353598
0.257554
0.193599
0.165519
0.159351
0.158726
0.159201
0.160072
0.161609
0.163017
0.164815
0.165865
0.168371
0.170074
0.173244
0.176327
0.180667
0.185479
0.191116
0.197377
0.204019
0.210303
0.212526
0.210157
0.204008
0.191589
0.17705
0.165755
0.158775
0.155798
0.155676
0.160102
0.17507
0.196002
0.217094
0.237612
0.253792
0.261984
0.269548
0.288793
0.308149
0.311092
0.288629
0.249934
0.24395
0.261319
0.341837
0.461647
0.559253
0.619769
0.636438
0.632211
0.599016
0.487906
0.294026
0.169774
0.141996
0.145685
0.190534
0.335675
0.538404
0.728756
0.841249
0.879822
0.883884
0.869159
0.842532
0.78678
0.812562
0.917407
0.931128
0.85898
0.847022
0.822257
0.799292
0.849747
0.862123
0.761545
0.559522
0.485867
0.484801
0.4571
0.377186
0.317499
0.286091
0.275813
0.357699
0.573127
0.753852
0.874284
0.929304
0.943995
0.927687
0.814799
0.313281
0.321543
0.326044
0.320805
0.308059
0.295551
0.279106
0.253165
0.224259
0.196195
0.173934
0.166047
0.165341
0.167421
0.176536
0.216986
0.337952
0.420299
0.422474
0.376663
0.283693
0.209756
0.171343
0.160797
0.159221
0.159208
0.15968
0.160635
0.161588
0.162193
0.163175
0.163819
0.165285
0.165918
0.167599
0.169002
0.171027
0.173223
0.175619
0.177935
0.179877
0.179788
0.177903
0.174208
0.168177
0.162358
0.158382
0.156515
0.156925
0.161607
0.175809
0.19563
0.215523
0.234834
0.251854
0.261748
0.268019
0.28224
0.305089
0.313436
0.305358
0.261119
0.233424
0.23408
0.258552
0.353355
0.463466
0.557645
0.627416
0.656562
0.656452
0.633001
0.55269
0.377076
0.199513
0.150701
0.149325
0.171237
0.291032
0.490429
0.693192
0.823418
0.874152
0.880977
0.865735
0.845631
0.785321
0.756284
0.831367
0.904472
0.896787
0.843701
0.822716
0.791689
0.812824
0.840859
0.794437
0.64925
0.549756
0.546045
0.52741
0.467983
0.369058
0.2898
0.269426
0.303565
0.482446
0.681557
0.828726
0.903563
0.92255
0.907328
0.804281
0.337011
0.344845
0.349427
0.345366
0.336569
0.329263
0.314727
0.285227
0.248108
0.208023
0.177364
0.168343
0.167208
0.168818
0.17462
0.201281
0.298198
0.397469
0.421522
0.383285
0.300389
0.222012
0.17616
0.163071
0.160247
0.159698
0.159735
0.160085
0.160519
0.161008
0.161374
0.161882
0.161884
0.162497
0.162397
0.162889
0.163348
0.164055
0.164755
0.165343
0.165694
0.165284
0.164098
0.162323
0.160079
0.158429
0.157663
0.158498
0.163581
0.177209
0.195435
0.215167
0.233515
0.249624
0.26132
0.26753
0.2782
0.300743
0.314579
0.314842
0.285642
0.234836
0.222323
0.22995
0.272906
0.377694
0.472889
0.564275
0.644239
0.68187
0.684343
0.662014
0.589771
0.433026
0.240127
0.161844
0.152514
0.163525
0.253702
0.459862
0.675404
0.816084
0.873949
0.879446
0.862664
0.841768
0.794971
0.719131
0.738545
0.850622
0.892058
0.868152
0.82567
0.789261
0.787443
0.81459
0.80411
0.738187
0.637988
0.604139
0.594672
0.561536
0.466013
0.322809
0.267429
0.283129
0.409758
0.606967
0.770581
0.867517
0.89637
0.887897
0.794544
0.358783
0.364843
0.36848
0.364468
0.358632
0.356209
0.345573
0.318958
0.280287
0.232928
0.188497
0.174235
0.172047
0.173243
0.178285
0.201767
0.276429
0.378569
0.416611
0.384817
0.310195
0.234453
0.187017
0.16827
0.162634
0.16069
0.159968
0.159897
0.160067
0.160372
0.160516
0.160409
0.160533
0.160339
0.160409
0.160359
0.160473
0.160581
0.160673
0.160708
0.160641
0.160336
0.159837
0.159246
0.158738
0.159
0.160609
0.166874
0.180873
0.196821
0.215483
0.233371
0.248988
0.261393
0.26821
0.276272
0.296267
0.314572
0.319188
0.30563
0.251358
0.219243
0.21746
0.231695
0.302253
0.388234
0.47126
0.561672
0.646744
0.688197
0.692601
0.671617
0.602635
0.455941
0.265896
0.170091
0.153938
0.160572
0.239208
0.448265
0.667785
0.812652
0.87673
0.880653
0.861275
0.834333
0.790988
0.703816
0.690212
0.763645
0.864496
0.886645
0.844075
0.792436
0.772808
0.789073
0.801985
0.780048
0.730818
0.690826
0.657918
0.613981
0.536049
0.398045
0.273997
0.269887
0.353861
0.544767
0.714152
0.823331
0.861422
0.861077
0.782297
0.379709
0.383583
0.385375
0.380199
0.375688
0.375913
0.367173
0.344436
0.310095
0.260395
0.205749
0.182981
0.179631
0.180663
0.185569
0.208196
0.277687
0.365632
0.403015
0.385609
0.314632
0.248119
0.203818
0.180445
0.167106
0.161408
0.160215
0.159964
0.159977
0.160013
0.16002
0.160171
0.160101
0.160045
0.160153
0.160046
0.160044
0.160016
0.159952
0.159892
0.159818
0.159747
0.159713
0.159755
0.160034
0.161722
0.168216
0.183303
0.200318
0.216691
0.234198
0.249458
0.261901
0.271059
0.277643
0.293193
0.313303
0.322068
0.318968
0.277819
0.223491
0.210945
0.215819
0.248296
0.325858
0.388329
0.456192
0.546907
0.639518
0.685808
0.691331
0.670826
0.603436
0.462466
0.278021
0.175174
0.154836
0.160193
0.236998
0.4448
0.662673
0.809301
0.877154
0.880952
0.858637
0.821277
0.76788
0.681803
0.649128
0.679238
0.80735
0.873286
0.874829
0.804642
0.768478
0.767449
0.791376
0.78833
0.774521
0.752455
0.708017
0.641954
0.571336
0.454422
0.292531
0.26251
0.312251
0.493774
0.66625
0.778013
0.819457
0.823391
0.754818
0.402094
0.402525
0.401039
0.39489
0.391514
0.391755
0.38324
0.364332
0.337547
0.290419
0.227606
0.193951
0.189067
0.19023
0.19697
0.221734
0.287225
0.359452
0.38733
0.382206
0.318836
0.260136
0.222933
0.191732
0.167735
0.161786
0.160327
0.159977
0.159981
0.160352
0.160435
0.160697
0.160545
0.160773
0.160823
0.160801
0.160855
0.160819
0.160761
0.160732
0.160764
0.160905
0.161646
0.162727
0.164712
0.169228
0.1812
0.199055
0.217575
0.234582
0.250419
0.263238
0.273295
0.281188
0.29236
0.311378
0.324072
0.325671
0.303086
0.23873
0.209777
0.207864
0.219376
0.279946
0.333237
0.367128
0.423222
0.529273
0.628036
0.676054
0.678315
0.650079
0.575724
0.446985
0.280304
0.177496
0.155459
0.161071
0.246042
0.445225
0.649417
0.795441
0.870588
0.87838
0.853176
0.797677
0.723671
0.649956
0.612004
0.625347
0.716742
0.846358
0.877795
0.839096
0.77485
0.751356
0.764365
0.787139
0.783732
0.768941
0.731581
0.65453
0.586416
0.480808
0.31066
0.257789
0.288257
0.453489
0.629663
0.739262
0.778909
0.781735
0.708331
0.426381
0.423466
0.418591
0.410187
0.406454
0.405419
0.396644
0.380779
0.3616
0.32052
0.253743
0.207623
0.200228
0.201688
0.213025
0.244093
0.305748
0.360346
0.379695
0.376034
0.327445
0.281302
0.240272
0.191684
0.167308
0.161528
0.160224
0.160106
0.160486
0.161298
0.161538
0.16224
0.162537
0.163742
0.164111
0.164692
0.165081
0.164831
0.164447
0.164102
0.164048
0.164693
0.167985
0.174581
0.182458
0.191969
0.20492
0.218999
0.234939
0.250766
0.264867
0.276086
0.285203
0.293751
0.309634
0.325099
0.330087
0.322416
0.267211
0.214848
0.204705
0.207541
0.234606
0.297189
0.328228
0.347222
0.412745
0.52654
0.6235
0.658392
0.650989
0.595357
0.509552
0.399035
0.26273
0.173728
0.155313
0.164271
0.251731
0.431841
0.619347
0.769759
0.858162
0.872442
0.84487
0.775469
0.686174
0.620135
0.58301
0.58636
0.632296
0.790475
0.872783
0.863182
0.790049
0.746782
0.746507
0.775012
0.784328
0.76978
0.729927
0.652295
0.590834
0.493894
0.319088
0.252529
0.272164
0.420475
0.602174
0.708831
0.743347
0.741288
0.650461
0.452804
0.445568
0.437927
0.427644
0.422465
0.418314
0.406619
0.394401
0.382323
0.349391
0.28506
0.225257
0.213872
0.215669
0.234033
0.278154
0.334611
0.368132
0.38212
0.379538
0.343396
0.295629
0.241811
0.189197
0.165974
0.161549
0.160894
0.160945
0.161974
0.164231
0.166191
0.170232
0.17526
0.182067
0.189048
0.193577
0.194449
0.191356
0.186869
0.181394
0.176838
0.17572
0.179018
0.188224
0.203508
0.220141
0.232465
0.244315
0.255948
0.268051
0.279487
0.289512
0.298369
0.308769
0.325261
0.333672
0.332975
0.303228
0.232669
0.206453
0.204054
0.210621
0.2591
0.302087
0.312998
0.341247
0.422824
0.536428
0.623198
0.646472
0.625486
0.517372
0.428759
0.35029
0.242839
0.168581
0.154944
0.165099
0.249259
0.402337
0.571175
0.728671
0.836401
0.863043
0.835086
0.756643
0.654577
0.595859
0.564634
0.56265
0.592734
0.708473
0.856177
0.878449
0.82362
0.752989
0.731598
0.746935
0.765529
0.747785
0.69489
0.623186
0.585052
0.498834
0.32176
0.248295
0.260882
0.394862
0.582025
0.685413
0.715322
0.706277
0.598226
0.48064
0.468357
0.459748
0.44852
0.438914
0.427894
0.410917
0.404943
0.399994
0.375871
0.322005
0.249959
0.229931
0.231387
0.256885
0.31734
0.36025
0.38044
0.388958
0.384613
0.350581
0.298628
0.239636
0.182514
0.164992
0.162365
0.162154
0.163473
0.168303
0.178201
0.195578
0.241851
0.322931
0.382266
0.4338
0.457841
0.461311
0.446304
0.403415
0.333503
0.271056
0.227793
0.208368
0.208675
0.21857
0.237011
0.253912
0.267644
0.277954
0.287324
0.295586
0.303824
0.312126
0.324598
0.336063
0.339267
0.330809
0.27615
0.217745
0.20457
0.204983
0.220324
0.273786
0.293805
0.307228
0.341748
0.424598
0.531736
0.615026
0.637788
0.615914
0.498986
0.379021
0.311264
0.22362
0.16353
0.153181
0.163468
0.235692
0.354679
0.496338
0.65993
0.794762
0.843633
0.819437
0.744229
0.627459
0.573981
0.55207
0.550841
0.57699
0.650359
0.822198
0.887233
0.847945
0.76853
0.724387
0.725279
0.725314
0.699405
0.641082
0.603066
0.579924
0.499244
0.317326
0.244251
0.252506
0.376298
0.571395
0.666984
0.691084
0.671349
0.550802
0.513159
0.493897
0.482771
0.472161
0.458358
0.436343
0.413807
0.410691
0.40963
0.39857
0.359288
0.284226
0.247229
0.246541
0.273794
0.340767
0.377106
0.391137
0.396703
0.389394
0.353894
0.296708
0.227509
0.175336
0.165332
0.164248
0.16613
0.17561
0.203052
0.292925
0.48088
0.655946
0.781833
0.854831
0.882825
0.885521
0.844524
0.779964
0.731367
0.661352
0.54624
0.422257
0.32348
0.269711
0.251241
0.253265
0.265879
0.282585
0.295247
0.30421
0.311606
0.317963
0.325976
0.337088
0.343281
0.342558
0.322328
0.25522
0.213545
0.205208
0.207709
0.239022
0.279409
0.290001
0.301139
0.335483
0.396475
0.483283
0.575913
0.617613
0.607377
0.512621
0.374678
0.282826
0.195004
0.154865
0.149261
0.160507
0.215443
0.289609
0.400695
0.567565
0.733907
0.812757
0.796396
0.729291
0.606685
0.558373
0.546943
0.550956
0.575152
0.631238
0.779929
0.878128
0.867015
0.788067
0.72619
0.708168
0.691473
0.654767
0.608925
0.596182
0.579314
0.484776
0.297156
0.240026
0.247529
0.369168
0.566416
0.654479
0.672179
0.637278
0.521491
0.558043
0.523628
0.508989
0.498956
0.485602
0.455736
0.419951
0.414987
0.415669
0.414769
0.393839
0.328728
0.26673
0.259548
0.28229
0.351406
0.388017
0.399826
0.403223
0.391769
0.351665
0.285361
0.206399
0.172017
0.167903
0.169886
0.187387
0.259357
0.494873
0.755252
0.921635
0.980737
0.986494
0.895234
0.707969
0.515709
0.47642
0.475368
0.526885
0.628715
0.649247
0.592316
0.473462
0.371934
0.309473
0.286975
0.284271
0.291945
0.304921
0.316267
0.323519
0.330187
0.337292
0.345228
0.348293
0.344715
0.315065
0.246733
0.213455
0.207383
0.213502
0.251733
0.277137
0.282397
0.288163
0.302405
0.319501
0.371691
0.484423
0.571447
0.584329
0.535985
0.409487
0.274121
0.186305
0.152315
0.14806
0.159282
0.187411
0.221244
0.309289
0.478227
0.67055
0.777844
0.771545
0.710769
0.593159
0.548424
0.547839
0.562323
0.586724
0.63453
0.749875
0.863593
0.870452
0.804955
0.733479
0.694494
0.663914
0.623743
0.598007
0.598372
0.578332
0.456188
0.277135
0.236458
0.245532
0.367206
0.566803
0.648004
0.657288
0.601835
0.505337
0.65777
0.562563
0.540113
0.528997
0.516769
0.485212
0.433254
0.417933
0.418898
0.424204
0.42016
0.37923
0.294922
0.269087
0.277964
0.343534
0.38959
0.401592
0.403316
0.386676
0.336625
0.253536
0.18524
0.173687
0.174274
0.197745
0.318685
0.60995
0.856626
0.950324
0.956182
0.84989
0.591176
0.330872
0.266207
0.253401
0.249707
0.248969
0.26306
0.329578
0.532743
0.607998
0.555541
0.458261
0.382241
0.334599
0.31512
0.310783
0.313752
0.322781
0.331866
0.338432
0.345327
0.350515
0.351604
0.344594
0.309673
0.244072
0.214713
0.211888
0.222873
0.259029
0.27256
0.272164
0.267179
0.255977
0.254649
0.272383
0.362064
0.494356
0.548833
0.536838
0.45178
0.299969
0.191233
0.153702
0.148134
0.15285
0.159596
0.177369
0.260067
0.442484
0.643282
0.753026
0.74916
0.690167
0.576641
0.540611
0.552764
0.581998
0.608801
0.647635
0.739583
0.852674
0.860997
0.819954
0.74259
0.686262
0.642529
0.61028
0.598663
0.606523
0.573045
0.416559
0.258998
0.235209
0.245063
0.370447
0.572564
0.644315
0.642286
0.567341
0.499602
0.844338
0.645694
0.578784
0.563243
0.553384
0.528478
0.46781
0.425984
0.422561
0.430842
0.437309
0.422163
0.351471
0.277035
0.268947
0.302262
0.364022
0.383247
0.384701
0.363297
0.300078
0.207953
0.181373
0.178948
0.198885
0.32227
0.621511
0.860163
0.925853
0.904353
0.712781
0.398786
0.303413
0.297694
0.297905
0.283885
0.275575
0.272022
0.275031
0.305675
0.432052
0.5621
0.557662
0.493182
0.432848
0.387331
0.354917
0.337255
0.331534
0.331691
0.336554
0.343711
0.350134
0.353697
0.353894
0.34316
0.30584
0.24272
0.21787
0.218058
0.236954
0.262082
0.264127
0.259891
0.24661
0.240851
0.24182
0.243039
0.283217
0.41204
0.509112
0.521754
0.480197
0.350957
0.213228
0.161519
0.150225
0.149485
0.15176
0.16643
0.247492
0.433171
0.635405
0.736431
0.729948
0.667963
0.562307
0.538402
0.56785
0.611249
0.637707
0.663817
0.748018
0.850446
0.856822
0.824958
0.75018
0.674572
0.630332
0.607005
0.606636
0.621737
0.558586
0.359262
0.247515
0.235227
0.246523
0.381032
0.582508
0.640738
0.622666
0.54556
0.505158
1.00196
0.844689
0.664347
0.611655
0.601269
0.591002
0.543174
0.455427
0.433281
0.435115
0.449962
0.452028
0.416571
0.317137
0.26336
0.262768
0.29863
0.324729
0.328289
0.306835
0.240982
0.193457
0.185416
0.195705
0.286668
0.569048
0.831314
0.908613
0.887342
0.691717
0.445057
0.408258
0.411284
0.396181
0.323145
0.289176
0.283996
0.290696
0.311393
0.341555
0.41832
0.50344
0.523712
0.495535
0.451305
0.421198
0.393279
0.369444
0.352891
0.34591
0.345345
0.348318
0.353521
0.356131
0.354745
0.342953
0.301878
0.240451
0.223408
0.225662
0.245791
0.257608
0.256732
0.247746
0.239116
0.23685
0.236699
0.240292
0.251754
0.34473
0.464258
0.504357
0.488922
0.399926
0.254612
0.178328
0.155149
0.150106
0.150967
0.163958
0.246542
0.437098
0.63673
0.72191
0.709629
0.635826
0.54791
0.546747
0.595398
0.650959
0.670892
0.684134
0.769637
0.857091
0.855413
0.823317
0.746504
0.662707
0.629242
0.613949
0.622234
0.63304
0.519851
0.300743
0.241608
0.236452
0.251098
0.399239
0.594949
0.637299
0.601344
0.534419
0.508281
1.07208
1.02349
0.873155
0.724084
0.673738
0.658598
0.630621
0.542963
0.458229
0.446302
0.452188
0.469081
0.462827
0.398594
0.284073
0.247818
0.248188
0.260545
0.262549
0.248559
0.207638
0.193157
0.194621
0.242878
0.46919
0.767908
0.904012
0.904401
0.790297
0.577129
0.530743
0.534956
0.518626
0.416475
0.304921
0.284209
0.283722
0.305637
0.350656
0.392347
0.428583
0.466604
0.479944
0.478982
0.456701
0.432641
0.41373
0.394422
0.376956
0.363237
0.357212
0.356496
0.357764
0.35843
0.355287
0.340779
0.290341
0.239039
0.230293
0.235384
0.249743
0.252213
0.248535
0.240095
0.236946
0.235912
0.236229
0.237132
0.244719
0.294941
0.414346
0.482725
0.483179
0.43412
0.308682
0.20349
0.165717
0.15492
0.154607
0.167483
0.264609
0.472003
0.657027
0.709493
0.686597
0.594046
0.54046
0.562538
0.636342
0.697228
0.703723
0.708279
0.798857
0.86357
0.852631
0.813877
0.72832
0.660651
0.636612
0.628236
0.6475
0.631714
0.441096
0.263712
0.240385
0.240808
0.260393
0.425005
0.608256
0.631439
0.578872
0.528403
0.514906
1.05693
1.09996
1.05398
0.932049
0.824658
0.761968
0.729823
0.676387
0.564746
0.473974
0.45916
0.470138
0.486447
0.464498
0.368382
0.256602
0.229525
0.225764
0.224146
0.214595
0.199885
0.197262
0.217209
0.34582
0.652307
0.893481
0.942026
0.905928
0.754998
0.661372
0.663963
0.664106
0.582465
0.405809
0.290525
0.274739
0.277911
0.312029
0.367107
0.410362
0.431968
0.44407
0.45138
0.453423
0.45058
0.43594
0.418981
0.403868
0.388846
0.37654
0.367578
0.362815
0.360976
0.360365
0.354364
0.32981
0.268453
0.238412
0.236936
0.242179
0.247374
0.246017
0.241369
0.238241
0.236844
0.236591
0.236673
0.237469
0.240151
0.261348
0.358989
0.451336
0.470444
0.448677
0.359389
0.238406
0.180368
0.162569
0.161903
0.180008
0.31109
0.53347
0.679092
0.694879
0.649431
0.553973
0.544146
0.595163
0.692962
0.744025
0.733438
0.73806
0.82897
0.865004
0.847388
0.800071
0.712474
0.667822
0.64901
0.662267
0.66899
0.584988
0.324296
0.252078
0.243924
0.248694
0.275641
0.456301
0.619214
0.623059
0.554248
0.524159
0.522625
0.928323
1.07929
1.12786
1.09641
1.01311
0.926147
0.865894
0.820627
0.739973
0.585578
0.477175
0.463497
0.49131
0.498576
0.449328
0.324291
0.235017
0.21551
0.209078
0.204465
0.201695
0.207238
0.261974
0.481514
0.803107
0.972579
0.976203
0.916878
0.816053
0.807046
0.818228
0.786906
0.628158
0.404092
0.284273
0.269504
0.271718
0.298552
0.343364
0.388035
0.409733
0.423887
0.429321
0.434695
0.437196
0.43257
0.419426
0.405175
0.392919
0.381525
0.372441
0.366684
0.363368
0.359928
0.345359
0.300691
0.251349
0.240754
0.241041
0.244075
0.24395
0.242201
0.239965
0.238678
0.239248
0.240133
0.240289
0.239912
0.240605
0.247449
0.303572
0.407413
0.453256
0.447454
0.393208
0.279326
0.197827
0.172362
0.171964
0.203306
0.379171
0.594646
0.68505
0.672735
0.585238
0.536762
0.561455
0.665243
0.751296
0.780731
0.762098
0.783709
0.851302
0.860726
0.837382
0.777722
0.710996
0.679497
0.6775
0.690412
0.668469
0.466144
0.274537
0.250493
0.253457
0.26233
0.295107
0.487784
0.625314
0.608993
0.534404
0.521235
0.530984
0.631033
0.946627
1.10122
1.16035
1.15086
1.09735
1.0344
0.982232
0.919
0.76162
0.538629
0.466047
0.471635
0.51135
0.500468
0.413513
0.276139
0.219463
0.208637
0.2055
0.205822
0.22668
0.323658
0.604235
0.916747
1.04183
1.02994
0.989623
0.961091
0.970565
0.969471
0.890346
0.680588
0.430618
0.290553
0.272078
0.270822
0.285113
0.306573
0.323446
0.345533
0.376967
0.397849
0.408461
0.416424
0.420221
0.416133
0.403381
0.392396
0.382464
0.373841
0.367308
0.361476
0.34846
0.312246
0.262554
0.244908
0.241399
0.242039
0.242601
0.242597
0.24172
0.241965
0.24383
0.24704
0.248755
0.248659
0.245272
0.24337
0.245309
0.269752
0.365471
0.434932
0.440556
0.410849
0.317382
0.216451
0.183678
0.184864
0.245593
0.457435
0.639355
0.675439
0.63217
0.53412
0.536398
0.617949
0.75344
0.808659
0.808233
0.802434
0.824956
0.858431
0.853236
0.824002
0.761022
0.719025
0.704226
0.716902
0.705244
0.582219
0.311637
0.262156
0.260313
0.269218
0.276835
0.314608
0.514293
0.627513
0.591465
0.523826
0.520732
0.536719
0.418141
0.659092
0.975705
1.13059
1.202
1.21213
1.18412
1.13512
1.07165
0.920133
0.654627
0.470022
0.451535
0.502024
0.521683
0.483019
0.35919
0.239434
0.213152
0.209188
0.213981
0.253753
0.38634
0.703661
1.00334
1.115
1.11223
1.08745
1.08129
1.08416
1.06736
0.963427
0.751534
0.496142
0.331965
0.307407
0.303848
0.309446
0.310524
0.308159
0.30596
0.309632
0.319755
0.342569
0.363834
0.383493
0.391575
0.394619
0.38562
0.3767
0.367811
0.357107
0.340715
0.30606
0.266744
0.247162
0.242062
0.241595
0.242271
0.243403
0.244754
0.247812
0.252648
0.259285
0.263053
0.262593
0.258374
0.250236
0.245965
0.245859
0.255603
0.326831
0.412522
0.432922
0.417607
0.345304
0.23501
0.196237
0.201836
0.308503
0.540309
0.662506
0.657358
0.565594
0.51543
0.555046
0.711263
0.806146
0.840851
0.832081
0.829986
0.844215
0.85511
0.843195
0.807052
0.76346
0.738164
0.743037
0.730831
0.657045
0.392806
0.274621
0.265309
0.282592
0.291402
0.29154
0.333409
0.529662
0.626776
0.583305
0.51958
0.52157
0.541008
0.358837
0.435467
0.712205
1.01664
1.17267
1.2543
1.27981
1.25433
1.18597
1.01703
0.701983
0.466754
0.436138
0.468038
0.529227
0.521733
0.440783
0.298734
0.230189
0.221264
0.230385
0.279843
0.438948
0.777773
1.07586
1.19122
1.19745
1.17431
1.16267
1.15713
1.12485
1.03156
0.86439
0.646482
0.509982
0.493357
0.506583
0.518809
0.504576
0.454908
0.386619
0.329852
0.299711
0.29154
0.289819
0.295588
0.321315
0.335399
0.343946
0.346208
0.33199
0.310805
0.283551
0.258088
0.245465
0.241296
0.241031
0.242532
0.245845
0.251371
0.259362
0.269365
0.276752
0.276952
0.274647
0.270229
0.261432
0.252352
0.247097
0.246401
0.251586
0.301582
0.392381
0.427493
0.420161
0.363555
0.251239
0.211789
0.228072
0.397886
0.613582
0.668115
0.627419
0.512407
0.512318
0.622211
0.773951
0.833927
0.853191
0.843089
0.842653
0.850629
0.849829
0.832632
0.800205
0.774052
0.771644
0.756613
0.696042
0.471167
0.288682
0.274255
0.295799
0.313021
0.304014
0.303293
0.349436
0.536047
0.627479
0.581075
0.517733
0.522893
0.544436
0.345937
0.385318
0.525137
0.795714
1.06482
1.23226
1.31122
1.3133
1.22995
1.02508
0.657958
0.448166
0.421846
0.438981
0.518486
0.539299
0.501326
0.378237
0.265131
0.242104
0.245553
0.293667
0.452754
0.79078
1.10787
1.2496
1.26488
1.23333
1.21083
1.19793
1.16615
1.12565
1.03512
0.926858
0.891708
0.90183
0.955969
1.00197
0.99574
0.973765
0.884305
0.737389
0.563457
0.406798
0.305704
0.270939
0.26155
0.26146
0.264707
0.267444
0.265984
0.254263
0.24608
0.241719
0.240258
0.241289
0.24558
0.253133
0.26717
0.281688
0.290511
0.291029
0.288811
0.283574
0.278975
0.272168
0.262904
0.253791
0.248235
0.247137
0.251779
0.292206
0.382842
0.426102
0.422861
0.375877
0.263667
0.229192
0.268026
0.492635
0.654077
0.662749
0.569688
0.488012
0.527233
0.705598
0.809516
0.850439
0.860813
0.850625
0.849746
0.851136
0.843536
0.825187
0.80492
0.798053
0.778204
0.711188
0.514648
0.305418
0.285031
0.313473
0.343871
0.328718
0.31547
0.315209
0.356721
0.525581
0.628778
0.59959
0.522667
0.524062
0.547036
0.344559
0.378393
0.491316
0.695291
0.933117
1.17842
1.29259
1.30397
1.18696
0.877906
0.515696
0.426121
0.411734
0.422981
0.490057
0.54733
0.536331
0.451696
0.317053
0.267133
0.263905
0.302289
0.446516
0.780234
1.10559
1.26945
1.2911
1.25501
1.22776
1.20853
1.17698
1.15914
1.14775
1.15276
1.17993
1.23688
1.29937
1.34125
1.34402
1.33735
1.31755
1.2404
1.09669
0.91032
0.684163
0.459143
0.299953
0.259331
0.247535
0.244342
0.243216
0.24088
0.240582
0.242015
0.247076
0.256999
0.275798
0.295325
0.305112
0.305807
0.303128
0.298466
0.292875
0.286477
0.281765
0.275629
0.266773
0.257891
0.251756
0.250273
0.254332
0.291152
0.380149
0.426322
0.425211
0.383591
0.27327
0.249137
0.327121
0.563877
0.672129
0.651474
0.514739
0.477462
0.580209
0.760061
0.830368
0.858844
0.863197
0.855087
0.853422
0.850036
0.841385
0.829981
0.819609
0.794706
0.720413
0.524062
0.318912
0.298479
0.339346
0.378987
0.374498
0.344176
0.329644
0.327384
0.358596
0.504709
0.626012
0.634369
0.536746
0.525568
0.550965
0.356377
0.395487
0.499891
0.681535
0.889521
1.11287
1.2188
1.17974
0.922621
0.565814
0.438709
0.412169
0.406742
0.419433
0.46758
0.547481
0.555391
0.506326
0.382335
0.294593
0.281261
0.305983
0.429678
0.743559
1.09517
1.27533
1.31462
1.27978
1.24935
1.21214
1.15991
1.14486
1.14618
1.18673
1.29581
1.37179
1.43381
1.45671
1.44683
1.43589
1.42562
1.3853
1.29251
1.16989
1.02347
0.852578
0.632512
0.424898
0.302734
0.270456
0.259264
0.257921
0.260972
0.272754
0.2931
0.317814
0.326368
0.321638
0.315553
0.311907
0.306825
0.302884
0.299975
0.297406
0.295011
0.290345
0.281509
0.270979
0.26193
0.258824
0.262174
0.296072
0.38115
0.427048
0.427004
0.388312
0.282087
0.270901
0.394953
0.62227
0.681836
0.630682
0.476526
0.472301
0.639615
0.793004
0.844147
0.863861
0.865197
0.859917
0.857742
0.855787
0.850394
0.838239
0.803344
0.727346
0.532515
0.341914
0.316222
0.360685
0.417591
0.423012
0.407786
0.364002
0.345055
0.339672
0.354728
0.4581
0.613368
0.653231
0.570251
0.53279
0.552685
0.373733
0.442268
0.554194
0.69874
0.861225
1.0055
1.01631
0.817854
0.52939
0.435073
0.411814
0.40554
0.408888
0.423759
0.460382
0.543284
0.568232
0.543438
0.448044
0.331992
0.30173
0.311784
0.400452
0.674568
1.03987
1.27553
1.32935
1.30446
1.25354
1.16007
1.04867
1.00888
0.994082
1.0282
1.17994
1.32468
1.44825
1.50205
1.49282
1.47314
1.45853
1.41442
1.31756
1.18891
1.05946
0.956012
0.830931
0.689604
0.535865
0.424937
0.364651
0.349768
0.351542
0.36269
0.363273
0.353238
0.336798
0.322382
0.316383
0.3165
0.320345
0.3272
0.332905
0.334665
0.333942
0.32944
0.318039
0.302004
0.286058
0.278027
0.279554
0.307485
0.385405
0.42883
0.429297
0.392706
0.29342
0.29282
0.454284
0.656859
0.685652
0.619951
0.454753
0.468701
0.678718
0.811953
0.853856
0.868826
0.871232
0.869641
0.871198
0.86814
0.85452
0.813595
0.730635
0.538555
0.359865
0.33303
0.369672
0.439851
0.450276
0.446835
0.434573
0.40273
0.367264
0.354268
0.354149
0.407206
0.572115
0.658339
0.639834
0.555346
0.555034
0.384984
0.461832
0.563019
0.678797
0.773911
0.782072
0.640316
0.462461
0.414652
0.40692
0.407661
0.41165
0.425687
0.44688
0.464503
0.540062
0.578058
0.566385
0.501397
0.38382
0.324082
0.320238
0.375181
0.576003
0.949902
1.2284
1.31973
1.30015
1.22536
1.0516
0.864641
0.790911
0.759217
0.749093
0.804625
0.950953
1.15812
1.37243
1.4637
1.46774
1.45165
1.40771
1.27687
1.07043
0.90809
0.857139
0.839286
0.756348
0.648714
0.563817
0.497608
0.454511
0.430471
0.404421
0.376676
0.346067
0.323908
0.318663
0.330452
0.354386
0.378705
0.394293
0.398845
0.397326
0.393886
0.387142
0.372322
0.35459
0.33215
0.314075
0.310554
0.326202
0.390895
0.431457
0.431969
0.397066
0.304956
0.3136
0.498104
0.674889
0.68878
0.616228
0.437385
0.461286
0.696006
0.822484
0.861661
0.876151
0.883473
0.888055
0.885119
0.868165
0.825109
0.729649
0.538012
0.369913
0.342243
0.369598
0.446151
0.461584
0.459298
0.454369
0.446493
0.432206
0.406349
0.373228
0.364392
0.379865
0.482423
0.641883
0.678034
0.613576
0.564976
0.380613
0.443944
0.510556
0.552124
0.553098
0.484872
0.404745
0.391362
0.397699
0.413498
0.436579
0.454005
0.476097
0.483321
0.4867
0.541027
0.586448
0.58169
0.540249
0.441509
0.352258
0.333039
0.359354
0.485566
0.806716
1.14695
1.28445
1.29356
1.21827
1.04158
0.817673
0.659388
0.588683
0.550372
0.532928
0.546896
0.660858
0.959594
1.27558
1.40746
1.4141
1.3721
1.19346
0.882407
0.731395
0.715989
0.724512
0.724581
0.664395
0.592687
0.534053
0.482929
0.442674
0.392056
0.333303
0.318713
0.32541
0.359908
0.399326
0.416555
0.424945
0.429655
0.43136
0.43002
0.426143
0.422781
0.418109
0.414423
0.404123
0.37756
0.358519
0.359959
0.396837
0.433493
0.434029
0.402534
0.317838
0.332203
0.521387
0.681234
0.690986
0.618429
0.433123
0.441614
0.690231
0.824668
0.869299
0.890541
0.900867
0.899174
0.879143
0.835101
0.728293
0.532265
0.374713
0.346771
0.367515
0.443128
0.464479
0.463283
0.459017
0.454371
0.44886
0.441056
0.430168
0.406002
0.378217
0.373338
0.407305
0.566239
0.679067
0.677307
0.606056
0.354972
0.378168
0.392787
0.392285
0.382216
0.362113
0.367377
0.383517
0.409534
0.437826
0.467725
0.506461
0.529814
0.527649
0.522634
0.555376
0.596947
0.594332
0.568499
0.495327
0.395039
0.352138
0.356113
0.424707
0.634382
0.982337
1.21263
1.26103
1.21998
1.06691
0.84885
0.672365
0.566394
0.502483
0.47012
0.4557
0.464783
0.550548
0.911127
1.237
1.31585
1.27944
1.02539
0.657221
0.59198
0.615704
0.658561
0.670726
0.647669
0.576149
0.514067
0.453592
0.388713
0.322979
0.311593
0.337411
0.394502
0.418531
0.426249
0.430199
0.434073
0.438447
0.44242
0.444704
0.442217
0.441494
0.443178
0.448843
0.466091
0.465101
0.439246
0.417169
0.420354
0.439729
0.438723
0.410522
0.330702
0.345605
0.529238
0.681531
0.697872
0.640132
0.451292
0.405183
0.633539
0.813131
0.868222
0.894161
0.90079
0.889471
0.843025
0.727444
0.524717
0.376566
0.348192
0.365589
0.43711
0.462663
0.461735
0.456722
0.449946
0.44555
0.443229
0.441707
0.436735
0.427682
0.40731
0.388106
0.386407
0.433983
0.617949
0.692468
0.677422
0.326045
0.332769
0.333739
0.333037
0.334411
0.345552
0.364593
0.389731
0.412375
0.436985
0.470972
0.530527
0.573852
0.573934
0.563417
0.581211
0.608798
0.604999
0.588445
0.535867
0.448557
0.376387
0.362712
0.393781
0.505614
0.756201
1.05128
1.18139
1.18112
1.07315
0.887311
0.716128
0.602114
0.528385
0.469002
0.440719
0.430813
0.453819
0.611719
1.0073
1.18453
1.16791
0.898039
0.533477
0.491867
0.524627
0.578628
0.594216
0.585319
0.517443
0.436717
0.341679
0.311548
0.312058
0.361147
0.414628
0.424516
0.425139
0.425744
0.42792
0.432093
0.437657
0.444285
0.45098
0.454533
0.454308
0.457461
0.467566
0.494298
0.513508
0.513673
0.496191
0.472599
0.462337
0.453556
0.421518
0.340481
0.351483
0.525845
0.673974
0.701618
0.675275
0.515405
0.375768
0.525422
0.771206
0.855761
0.886842
0.888635
0.85381
0.739796
0.52498
0.376137
0.346796
0.358439
0.426578
0.458045
0.457951
0.450476
0.432143
0.422454
0.41731
0.417206
0.42906
0.432698
0.432234
0.423799
0.407856
0.393136
0.394879
0.448279
0.660056
0.696345
0.312665
0.313976
0.31396
0.31809
0.328253
0.345403
0.365332
0.386725
0.407505
0.428183
0.458979
0.528708
0.600944
0.612118
0.604911
0.60926
0.622872
0.61772
0.603535
0.565306
0.498964
0.41386
0.380149
0.385608
0.437837
0.571662
0.80201
1.011
1.06907
1.02158
0.888596
0.740072
0.631224
0.557314
0.497532
0.448077
0.424798
0.42359
0.497412
0.827375
1.0914
1.10677
0.890585
0.493527
0.415477
0.41814
0.438734
0.446539
0.432185
0.384844
0.337674
0.326334
0.330288
0.388413
0.425986
0.428748
0.42314
0.414754
0.4115
0.413251
0.421589
0.431518
0.441202
0.450485
0.45962
0.465951
0.468766
0.478238
0.50272
0.528582
0.545023
0.546122
0.534868
0.509606
0.48594
0.438889
0.347595
0.351486
0.499334
0.644483
0.694041
0.688686
0.609717
0.394524
0.397479
0.646172
0.811101
0.862616
0.856994
0.775456
0.565574
0.376109
0.339789
0.340638
0.399899
0.450206
0.453709
0.444928
0.415055
0.38343
0.369663
0.363859
0.36389
0.386394
0.411154
0.423071
0.426736
0.421886
0.40993
0.393808
0.396656
0.466657
0.66666
0.306579
0.307008
0.309097
0.31657
0.328702
0.344228
0.362314
0.384535
0.406045
0.425138
0.447555
0.498238
0.599997
0.64161
0.641822
0.639724
0.640328
0.632176
0.61537
0.589147
0.54203
0.461918
0.401367
0.390672
0.410145
0.473176
0.597108
0.762507
0.864739
0.870996
0.808546
0.706847
0.614362
0.554595
0.50935
0.467554
0.426577
0.413882
0.439967