/*--------------------------------*- C++ -*----------------------------------*\
  =========                 |
  \\      /  F ield         | OpenFOAM: The Open Source CFD Toolbox
   \\    /   O peration     | Website:  https://openfoam.org
    \\  /    A nd           | Version:  10
     \\/     M anipulation  |
\*---------------------------------------------------------------------------*/
FoamFile
{
    format      ascii;
    class       volScalarField;
    location    "0.599261";
    object      T;
}
// * * * * * * * * * * * * * * * * * * * * * * * * * * * * * * * * * * * * * //

dimensions      [0 0 0 1 0 0 0];

internalField   nonuniform List<scalar> 
16320
(
0.00431091
0.0042836
0.00432287
0.00452366
0.0048898
0.00531949
0.00582712
0.0064673
0.00711469
0.00802857
0.00908573
0.00967637
0.00981571
0.00972823
0.00889334
0.00660062
0.00448668
0.00418745
0.00447281
0.00545347
0.00761336
0.0102479
0.0120916
0.0126562
0.0127906
0.0128262
0.0128196
0.0127503
0.0126829
0.0125771
0.0125205
0.0123476
0.0122286
0.0120014
0.0117808
0.01148
0.011158
0.0107985
0.0104189
0.0100351
0.00968096
0.00951097
0.00953247
0.00971089
0.0102062
0.0108999
0.011486
0.0118349
0.0119157
0.0117939
0.0113569
0.0103147
0.00915798
0.00823905
0.00752099
0.00705424
0.00686508
0.00671978
0.00633339
0.00601244
0.00604985
0.00663476
0.00779472
0.00812038
0.00770715
0.00599871
0.00452318
0.00378575
0.00342713
0.0033112
0.00327792
0.00338609
0.00406896
0.0066451
0.0114328
0.0135916
0.0131767
0.0100304
0.00566107
0.00349323
0.00254105
0.00215576
0.00201317
0.00196127
0.00196456
0.00201762
0.00217174
0.00213485
0.00195178
0.0019967
0.00223456
0.00231551
0.00240076
0.00244614
0.00225951
0.00218123
0.00242466
0.00325851
0.0037236
0.00372595
0.00396321
0.00483713
0.00580818
0.00651899
0.00684728
0.00533841
0.00339588
0.00263846
0.00232678
0.00223068
0.00222774
0.00229642
0.00265806
0.00402385
0.00398995
0.00401833
0.00417689
0.00445696
0.00476931
0.00519137
0.005882
0.0068132
0.00796855
0.00916551
0.00975731
0.00993821
0.0099497
0.00956416
0.00788992
0.00519047
0.00432416
0.00444643
0.00512811
0.00693721
0.00950022
0.0117285
0.0125897
0.0127941
0.0128639
0.0128842
0.0128555
0.0128179
0.0127987
0.0127412
0.0127019
0.012592
0.012539
0.0124009
0.0122785
0.0121069
0.0119205
0.0117177
0.0115166
0.0113331
0.0112662
0.0112983
0.0114307
0.0117136
0.0119923
0.012144
0.0121348
0.0119622
0.011484
0.0104599
0.00932002
0.00840548
0.00768393
0.00715551
0.00689483
0.00676104
0.00646212
0.00603387
0.00594375
0.00618738
0.00733896
0.00832751
0.00842328
0.00774539
0.00577334
0.00449045
0.00379422
0.00339567
0.00322928
0.00318381
0.00323372
0.0036236
0.00521748
0.00976511
0.0128599
0.0129044
0.01119
0.00656052
0.00384713
0.00267505
0.00220101
0.002022
0.00196127
0.00196189
0.00198889
0.00214595
0.00225638
0.00210513
0.00201064
0.00211193
0.00230202
0.00238302
0.00245806
0.00234798
0.00222215
0.00230859
0.00278911
0.00326316
0.00327717
0.00340363
0.00386664
0.0049645
0.00640025
0.00696541
0.00624947
0.00400474
0.00289657
0.00243883
0.00228184
0.00226675
0.002331
0.00266649
0.00382878
0.00379583
0.0038175
0.00394328
0.0041385
0.00433584
0.00465727
0.0052779
0.00622283
0.00759564
0.00906526
0.0097118
0.0099134
0.00994927
0.00974732
0.00857724
0.00589531
0.00458192
0.00446344
0.00505197
0.00657719
0.00901692
0.0114586
0.0124664
0.0127618
0.0128701
0.0129208
0.0129364
0.0129358
0.0129217
0.0129088
0.0128766
0.0128769
0.012822
0.0128163
0.0127572
0.0126942
0.0126058
0.0125114
0.0124181
0.0123337
0.0122947
0.0122997
0.0123335
0.0123892
0.0123842
0.0123062
0.0120978
0.0115847
0.0105799
0.0094941
0.00854769
0.0078231
0.00728717
0.00695065
0.00679754
0.00656188
0.0061091
0.00589353
0.00595512
0.00664412
0.00817264
0.00873018
0.00854238
0.00730525
0.00537745
0.0043874
0.00374663
0.00331512
0.00312537
0.00307753
0.00311862
0.00342347
0.0045748
0.00815082
0.0120302
0.0126932
0.0117686
0.00755194
0.00411683
0.00275299
0.00222409
0.00202363
0.0019641
0.00196534
0.0019879
0.0021025
0.00234429
0.00232555
0.00209501
0.00208778
0.00222042
0.0023646
0.0024587
0.00242253
0.00228729
0.00226849
0.00243501
0.00278684
0.00292809
0.00298011
0.00318361
0.00388999
0.00570099
0.00696319
0.00665743
0.00467806
0.00322447
0.00260306
0.00236295
0.00232258
0.00237097
0.0026811
0.00372964
0.00370163
0.00372291
0.00383311
0.00397623
0.00409476
0.00432451
0.00480221
0.00559522
0.00687977
0.00865371
0.00950822
0.00975338
0.00980598
0.00965012
0.00864373
0.00641376
0.00483675
0.00453414
0.00505125
0.00639637
0.00857678
0.0108487
0.0121393
0.0126313
0.0128439
0.0129508
0.012996
0.0130127
0.01301
0.013012
0.0130266
0.0130152
0.0130238
0.0130039
0.0129872
0.0129511
0.0129095
0.012863
0.0128139
0.0127648
0.0127243
0.0126867
0.0126414
0.0125735
0.0124308
0.0121754
0.0115915
0.0105744
0.00960599
0.0086827
0.00794537
0.0073957
0.00701427
0.00682557
0.00663425
0.00621071
0.00588842
0.00585555
0.00617944
0.00758444
0.00877355
0.00892162
0.00845782
0.00657214
0.00520729
0.00437836
0.00374687
0.00329751
0.00310238
0.00305446
0.0030943
0.00337414
0.0043749
0.00740106
0.0115067
0.0126407
0.0120437
0.00804658
0.00424262
0.00279581
0.00224187
0.00202504
0.00196854
0.00197266
0.00200374
0.00210366
0.00237372
0.00246031
0.00229465
0.00211928
0.00215582
0.0023111
0.00245354
0.00247255
0.00236473
0.00227214
0.00229426
0.00241793
0.00253806
0.00266528
0.0028763
0.00333925
0.00457496
0.00673557
0.00693226
0.00536679
0.00355678
0.0027834
0.00247219
0.00240488
0.00243622
0.00271341
0.00369343
0.0036726
0.00369468
0.00380119
0.00391649
0.00399451
0.00417934
0.00455339
0.00516686
0.00627532
0.00808139
0.00920841
0.00949012
0.00954219
0.00939965
0.00848723
0.00646405
0.00505493
0.0047199
0.00506894
0.00633912
0.00814768
0.0100094
0.0113839
0.0123581
0.0128481
0.0129868
0.0130415
0.0130667
0.0130823
0.0130927
0.0130838
0.0130868
0.0130832
0.0130601
0.0130486
0.0130232
0.0129945
0.0129631
0.012925
0.0128809
0.0128277
0.0127601
0.0126721
0.0125495
0.0123061
0.0117158
0.0106347
0.00962176
0.00879517
0.00805342
0.00749317
0.00708858
0.00682047
0.0066493
0.00630516
0.00592545
0.00580384
0.00591225
0.00684717
0.00857327
0.00914131
0.00899449
0.00788827
0.00608442
0.00518705
0.00450039
0.003827
0.00332413
0.00311366
0.00306826
0.00311497
0.00339204
0.00434288
0.00712298
0.0112385
0.0126378
0.0121372
0.00816747
0.00430049
0.00283458
0.00226622
0.0020391
0.00198159
0.0019893
0.00203977
0.00216214
0.00243987
0.00259778
0.00254718
0.00224332
0.00217445
0.00223569
0.00242906
0.00249828
0.00244019
0.00230778
0.00227153
0.00227913
0.00232499
0.00246726
0.00273361
0.00310465
0.00396734
0.00624928
0.00706696
0.00602436
0.00388117
0.00295123
0.00259254
0.00251146
0.00253751
0.00280481
0.00369847
0.00368456
0.00371565
0.00381357
0.00390357
0.00397062
0.00413708
0.00443424
0.00487636
0.00576917
0.00747889
0.00886669
0.00919174
0.0092286
0.00900745
0.00809933
0.0063483
0.00521002
0.00496156
0.0051542
0.00629778
0.00782147
0.0092108
0.0107833
0.0123846
0.0128867
0.01304
0.0130968
0.0131177
0.0131019
0.0131029
0.0130824
0.0130904
0.0130626
0.0130447
0.0130278
0.0129998
0.0129741
0.0129447
0.012907
0.0128584
0.0127938
0.0126721
0.0125108
0.0122689
0.0118379
0.0109506
0.00986336
0.00892465
0.00818741
0.00759223
0.0071604
0.0068524
0.00663447
0.00637336
0.00599414
0.00578507
0.00579574
0.00627982
0.00802085
0.00917738
0.00930561
0.00886461
0.00700388
0.00594831
0.00547168
0.00481716
0.00392223
0.00336328
0.0031509
0.00312989
0.0032274
0.00357601
0.00452456
0.00711209
0.0111605
0.012661
0.0121396
0.0079183
0.00432564
0.00291571
0.00232795
0.00207643
0.00200693
0.00201716
0.002107
0.00229424
0.0025579
0.00274907
0.00275723
0.00251393
0.00224434
0.00224425
0.00235522
0.00250242
0.00251141
0.00240305
0.00228517
0.00226044
0.00228255
0.00239326
0.00268145
0.00301591
0.00372348
0.00583423
0.00713344
0.0064642
0.00418017
0.00308445
0.00269852
0.0026199
0.00265875
0.00298025
0.00373451
0.00372433
0.00375771
0.00385296
0.00392968
0.00399639
0.00415068
0.00439364
0.00469886
0.00538532
0.00689705
0.00848035
0.00887998
0.00889864
0.00850224
0.00750274
0.00608215
0.00528413
0.00512847
0.00529351
0.00618594
0.00729106
0.0086125
0.0108639
0.0124982
0.0129824
0.0131156
0.0131462
0.0131302
0.0130737
0.0130581
0.0129999
0.0129699
0.0128642
0.0128233
0.0127623
0.0127119
0.0127057
0.0127037
0.0126934
0.0126564
0.0125597
0.0122591
0.0117305
0.0111458
0.0105036
0.00974311
0.00902201
0.0083204
0.00771437
0.00723455
0.00688576
0.00662735
0.00641316
0.00607945
0.00580139
0.00573803
0.00591396
0.0071789
0.0089662
0.00944856
0.00935426
0.00831612
0.00661018
0.00604196
0.0057748
0.00492059
0.00391955
0.00336748
0.0032222
0.00325992
0.0035322
0.004061
0.00510113
0.00763967
0.0114735
0.0127475
0.0119747
0.00779132
0.00449543
0.00308825
0.00243509
0.00213411
0.00204418
0.00205531
0.00217662
0.00242637
0.00268577
0.00289026
0.00294882
0.00285402
0.00242156
0.00228668
0.00232994
0.00249302
0.00256221
0.00249069
0.00234573
0.00228103
0.00230096
0.00241659
0.0027033
0.00299604
0.00361488
0.00564799
0.00722791
0.00678593
0.0044596
0.00318362
0.00278001
0.00271813
0.00278547
0.00323257
0.00379412
0.00378857
0.00382029
0.00390439
0.0039735
0.00405354
0.00422157
0.00440829
0.00460407
0.00510632
0.00633097
0.00803225
0.00854127
0.00854429
0.00793178
0.00673592
0.0056896
0.00527208
0.00517823
0.00531303
0.00596392
0.00700736
0.00863625
0.0110964
0.0126889
0.0130612
0.0131311
0.0131385
0.0130622
0.0128857
0.0127326
0.0124266
0.012062
0.0115972
0.0111554
0.0108785
0.0108103
0.0109614
0.011196
0.0115071
0.0117767
0.0118171
0.0115506
0.0109285
0.0100407
0.00920493
0.00863255
0.00812955
0.0076803
0.00726232
0.00690574
0.00662109
0.00639393
0.00616263
0.00584854
0.00571257
0.00574588
0.00634693
0.00829742
0.00938377
0.00952298
0.00925346
0.00755657
0.00652025
0.00634061
0.00586889
0.00479496
0.0038331
0.00334931
0.00326422
0.0033822
0.00405193
0.00484463
0.00584216
0.00831494
0.0118909
0.0128469
0.0119781
0.00791823
0.00486401
0.00338362
0.00260541
0.00221919
0.00209048
0.00209855
0.00224255
0.00255269
0.00280725
0.00300091
0.0030994
0.00308177
0.00274691
0.00238417
0.00234782
0.00244827
0.00258682
0.00258164
0.00247258
0.00237246
0.00240071
0.00256581
0.0028509
0.00303732
0.00357831
0.00558321
0.0073105
0.00702505
0.00470597
0.00325283
0.00284001
0.00279548
0.00290195
0.00349609
0.00386182
0.00387432
0.00388657
0.00395428
0.00403705
0.00416261
0.00436783
0.00447582
0.00457302
0.00490897
0.00578955
0.00748435
0.00819715
0.00820983
0.00743591
0.00607501
0.00542307
0.00521872
0.00518516
0.0053262
0.00592034
0.00701947
0.00880945
0.0115997
0.0128603
0.0130793
0.0130998
0.0129934
0.012618
0.0119146
0.010852
0.00877336
0.00656754
0.00554477
0.00488905
0.00463375
0.00459771
0.00474596
0.00523294
0.00630488
0.00772216
0.00914667
0.00994515
0.00988617
0.00937722
0.00857413
0.00792704
0.00744534
0.00709952
0.00680779
0.00656913
0.00635578
0.00616452
0.00591754
0.00571664
0.00567249
0.00583358
0.00701697
0.008916
0.00951818
0.00952358
0.00888566
0.00717838
0.00672368
0.00647038
0.00585896
0.00476082
0.00384907
0.0033725
0.00328829
0.003425
0.00420159
0.00547794
0.0065962
0.00907825
0.012317
0.013055
0.0121542
0.00841745
0.00555336
0.00392626
0.00290782
0.00236244
0.00215962
0.00215528
0.00229668
0.00267121
0.00293341
0.00310067
0.00321883
0.00325134
0.00308161
0.00257297
0.00240254
0.00244325
0.00258492
0.00265583
0.00259265
0.00254697
0.00260524
0.00281491
0.00297153
0.00307984
0.00358128
0.00565258
0.00740367
0.00721351
0.00489755
0.00327917
0.00288716
0.00286563
0.00303001
0.0037744
0.00388239
0.00394509
0.00396035
0.00399624
0.00409179
0.00429854
0.00453802
0.00461018
0.00465188
0.00481077
0.00537542
0.0068389
0.00787917
0.00796244
0.00720016
0.00584793
0.00533234
0.00520523
0.00519505
0.00535693
0.00595486
0.00715663
0.00938216
0.0121888
0.0129345
0.0130148
0.012855
0.0121472
0.0104954
0.00727039
0.00443339
0.0032487
0.00272514
0.00249433
0.00241892
0.00241334
0.00253068
0.00273408
0.00290322
0.0031957
0.00385073
0.0049567
0.00643478
0.00766414
0.00816218
0.00802138
0.00756785
0.00705349
0.00669228
0.00644691
0.00625748
0.00610788
0.00594412
0.00574378
0.0056434
0.00566328
0.00603269
0.00762841
0.00913715
0.00953251
0.00943849
0.00822634
0.00706068
0.00683261
0.00661596
0.00598161
0.00510373
0.00422851
0.00358271
0.00337175
0.00345325
0.00407961
0.00553911
0.00726144
0.0104336
0.0130424
0.0134411
0.0124208
0.0092386
0.00682732
0.00489188
0.00340963
0.00258341
0.00225983
0.0022288
0.00236146
0.0027769
0.003045
0.00318
0.00330513
0.00339264
0.00332117
0.00282808
0.00251419
0.00245755
0.00257868
0.00270518
0.00270612
0.00271866
0.0028246
0.00299959
0.00303226
0.00310047
0.00369608
0.00603538
0.00751706
0.00732901
0.00496588
0.00328293
0.00291519
0.00292172
0.00316826
0.00396199
0.00378068
0.00396557
0.00400809
0.00402232
0.00409109
0.00433573
0.00468569
0.00476813
0.0047807
0.00481092
0.00509416
0.00614018
0.00755453
0.00783503
0.00723111
0.00586315
0.00534297
0.00523168
0.0052321
0.00543103
0.00609296
0.0075464
0.0104599
0.0125469
0.012842
0.0126694
0.0114559
0.00825709
0.00433038
0.00283763
0.00232589
0.00219037
0.00218057
0.00240467
0.00304177
0.00416751
0.00450037
0.0044933
0.00404104
0.00337747
0.00324644
0.00353367
0.00439191
0.00554811
0.00660355
0.00705124
0.00705151
0.00680673
0.00646926
0.00620149
0.00603844
0.00590277
0.00577333
0.00564206
0.00559806
0.00566324
0.00620894
0.00792771
0.00918289
0.00947123
0.00921837
0.00783988
0.0071413
0.00703425
0.00692587
0.00664457
0.00633156
0.00550184
0.00424131
0.0036192
0.00356291
0.00389375
0.00505268
0.00748476
0.0109346
0.0132814
0.0135765
0.0125491
0.0106282
0.00895169
0.00636284
0.00407335
0.00284713
0.00237375
0.00230798
0.00243797
0.00286633
0.00314362
0.00325004
0.00336286
0.00349624
0.00347738
0.0030624
0.00263604
0.00250623
0.00258354
0.00273997
0.00281643
0.00288145
0.00300931
0.00308953
0.00304693
0.00312261
0.00393527
0.00648024
0.00762258
0.00737014
0.004976
0.00326255
0.00292361
0.00296655
0.00333093
0.00406234
0.00335098
0.00388883
0.00400134
0.00402296
0.00406165
0.00428486
0.00476245
0.00494365
0.00494589
0.0048999
0.00496015
0.00551213
0.00710111
0.00783125
0.00762215
0.00618953
0.00549143
0.00535658
0.0053584
0.00561576
0.00647432
0.00861683
0.011779
0.0125471
0.0124779
0.010959
0.00676661
0.00353552
0.00251421
0.00226518
0.0022506
0.00253364
0.00363416
0.00649713
0.00808193
0.00848136
0.00857975
0.00855176
0.00803473
0.00636362
0.00393284
0.00341768
0.00371659
0.00446713
0.00530238
0.00599712
0.00631249
0.00635522
0.00626016
0.00606276
0.005885
0.0057677
0.00565582
0.00557947
0.00557097
0.00569271
0.00634194
0.00804771
0.00916475
0.00930324
0.0088627
0.00764287
0.00728102
0.00731292
0.00747393
0.00782548
0.00789827
0.00740695
0.00565263
0.00415515
0.00375585
0.00385705
0.00456167
0.00680013
0.0106334
0.0131549
0.0135659
0.0130681
0.0124487
0.0111389
0.00758119
0.00441679
0.00297774
0.00245759
0.002384
0.00252513
0.00298627
0.00325043
0.00332471
0.00340419
0.00355822
0.00356939
0.00320484
0.00272943
0.00258617
0.00260002
0.00277094
0.00291018
0.00303014
0.00311745
0.00311922
0.00302962
0.00316748
0.00431802
0.0069524
0.00766594
0.0073767
0.00492215
0.00321757
0.00292475
0.00301763
0.00350963
0.00408348
0.00268111
0.00351667
0.00391211
0.00398028
0.00399499
0.00413159
0.00462716
0.0050525
0.00510794
0.00502212
0.004953
0.00513982
0.00619838
0.00783942
0.00813833
0.00725867
0.00606382
0.00576959
0.00574994
0.006094
0.00738251
0.0106328
0.0121631
0.0122979
0.011022
0.00675472
0.00349827
0.00251945
0.00232674
0.00237555
0.00299983
0.00536618
0.00708272
0.00721817
0.00719724
0.00753091
0.00771631
0.00774918
0.00758964
0.00676986
0.0047619
0.00364155
0.00364082
0.00408509
0.00461569
0.00511665
0.00554617
0.00580565
0.00588803
0.00587718
0.00579281
0.00567927
0.00558643
0.00554327
0.00555232
0.00573693
0.00644284
0.00812197
0.0090621
0.00906788
0.00836222
0.00757376
0.00752986
0.00766788
0.00809973
0.00832091
0.00832004
0.00830429
0.00714768
0.00495655
0.00401683
0.00392399
0.00426613
0.00579507
0.00947117
0.0124826
0.013348
0.0133356
0.0130685
0.0118487
0.00796719
0.00451019
0.0030129
0.00250991
0.00245512
0.00262421
0.00311577
0.00334568
0.00335967
0.00341232
0.00356986
0.00360775
0.00323392
0.00277885
0.00265394
0.00264513
0.00280235
0.00301651
0.00313718
0.00317448
0.00310779
0.00297574
0.00326467
0.00502278
0.00729754
0.00767729
0.00733342
0.00478163
0.00315537
0.00292942
0.00309638
0.0036271
0.00401427
0.00229215
0.00275811
0.00352295
0.00382399
0.00385571
0.00387045
0.00417037
0.00491497
0.00517508
0.00516959
0.00501415
0.00498225
0.00539889
0.00709188
0.00853728
0.00859721
0.00756531
0.00695996
0.00686671
0.00733071
0.00931637
0.0115542
0.0120216
0.0113447
0.00768534
0.00385897
0.0026286
0.00237634
0.00241602
0.00308931
0.0047609
0.00521984
0.00518944
0.00538752
0.00658739
0.00735017
0.00744614
0.00720581
0.00664354
0.00598797
0.00481845
0.00397263
0.00379021
0.00398209
0.00434757
0.00463437
0.00494358
0.00525023
0.00549335
0.00560983
0.00563175
0.00560027
0.00553641
0.00551417
0.00555136
0.00575684
0.00654537
0.0082248
0.00886238
0.00878553
0.00808165
0.00772184
0.00776068
0.00805318
0.00835839
0.00845735
0.00848567
0.00839038
0.00802433
0.00589504
0.00437383
0.00401615
0.00415966
0.005061
0.00786367
0.0112511
0.0128774
0.0132423
0.013094
0.0119879
0.00798186
0.0044596
0.0029963
0.00255287
0.00253955
0.00277395
0.00326071
0.00339067
0.003342
0.00336414
0.00352557
0.00358074
0.00318594
0.00279698
0.00270469
0.00270167
0.00286702
0.00311957
0.00318474
0.00317233
0.00305258
0.00293957
0.00352224
0.00603574
0.00749786
0.00765344
0.00720789
0.00456487
0.00308547
0.00293608
0.00319031
0.0036805
0.00396526
0.00214632
0.00230681
0.00274981
0.00333764
0.00358199
0.00363045
0.00375072
0.00432465
0.00507165
0.00523203
0.00517826
0.00499262
0.00502862
0.00581374
0.00815103
0.00932252
0.00929467
0.00883515
0.00872574
0.00917732
0.0109227
0.0116937
0.0115623
0.00919521
0.004734
0.00287717
0.00241031
0.0023662
0.00268874
0.00363856
0.0039704
0.00394642
0.00408259
0.00509316
0.00691376
0.00741973
0.00740258
0.00680079
0.00583623
0.00511788
0.00460605
0.00418405
0.00404168
0.00403241
0.00421671
0.00444284
0.00464256
0.00487289
0.00510929
0.0053198
0.00543159
0.00546702
0.00547234
0.00548502
0.00555293
0.00580642
0.00682035
0.00829589
0.00861781
0.00844187
0.00796965
0.00790179
0.00802763
0.00831691
0.00843815
0.00848898
0.00849235
0.00847656
0.00823195
0.00684254
0.00486584
0.00416462
0.00416459
0.00461943
0.00642868
0.00978648
0.0119949
0.0127729
0.0127198
0.0116642
0.00741039
0.00411146
0.00288372
0.0025881
0.00263616
0.00300687
0.00336985
0.00339226
0.00325893
0.0032644
0.00343974
0.00349665
0.00309036
0.00280268
0.00274802
0.00277101
0.00297795
0.003167
0.00317983
0.00312616
0.00294972
0.00296072
0.00416563
0.00693062
0.00756437
0.00753444
0.00696218
0.00429228
0.00301665
0.0029565
0.00329833
0.00369932
0.00388828
0.00216246
0.00214544
0.00230958
0.00266153
0.00303025
0.00327062
0.00338218
0.00361269
0.00430524
0.00510048
0.00528889
0.00516549
0.0049555
0.00514148
0.00644187
0.00914796
0.0102023
0.0103276
0.0103407
0.0107397
0.011454
0.0115602
0.0104494
0.00648992
0.00343028
0.00247401
0.00228768
0.00232869
0.00276169
0.00313882
0.00313062
0.00313383
0.00359475
0.00517527
0.00718893
0.00761008
0.00749067
0.00659409
0.00549461
0.00479877
0.00446267
0.00429145
0.00420006
0.00417245
0.00420236
0.00434984
0.00453696
0.00472295
0.00492707
0.00511439
0.00526843
0.00536802
0.00542462
0.00546006
0.00557601
0.00600887
0.00739044
0.00833303
0.00839223
0.00822117
0.00805886
0.00811223
0.00827398
0.00838956
0.00844625
0.00846186
0.00846625
0.00844535
0.00835722
0.0076649
0.00560649
0.00443571
0.00422546
0.00443542
0.00550677
0.00824792
0.010942
0.0121066
0.0120724
0.0107665
0.00627382
0.00361193
0.002762
0.00263799
0.00279412
0.00327387
0.00341423
0.00330298
0.00309953
0.00313241
0.00334202
0.00335634
0.00297978
0.0028069
0.002782
0.00284061
0.00306864
0.00315639
0.00313871
0.00297896
0.00286524
0.00321048
0.00570215
0.00728715
0.00748636
0.00731735
0.00658882
0.0040012
0.00296301
0.00299057
0.00342877
0.00370511
0.00380358
0.00240805
0.00216005
0.00215197
0.00229284
0.00253732
0.0027946
0.0029781
0.00310956
0.0034175
0.00430676
0.00526992
0.00542035
0.00507437
0.00492843
0.00539385
0.00739031
0.010087
0.0109315
0.0111893
0.0113632
0.0114474
0.0110926
0.00871693
0.00469267
0.00279787
0.00226186
0.00217675
0.00226202
0.00250023
0.00252227
0.00248706
0.00260257
0.00329123
0.00514105
0.00726521
0.00767797
0.00757388
0.00679055
0.0057609
0.00495416
0.00459828
0.00439692
0.00432638
0.00427844
0.00427118
0.00433695
0.00449658
0.00468151
0.00485754
0.00503547
0.00519279
0.0053087
0.00538922
0.00546892
0.00572863
0.00659536
0.00790474
0.00826295
0.00826186
0.0081697
0.00818289
0.00824892
0.00833241
0.00838148
0.00836474
0.00833515
0.00833119
0.0083437
0.00831875
0.0080792
0.0065887
0.00488685
0.00435814
0.00441314
0.00499741
0.00696351
0.00989522
0.0113494
0.0112982
0.0094806
0.0050972
0.00320025
0.00271425
0.00273022
0.00310094
0.00342117
0.00337704
0.00304493
0.00293529
0.00302966
0.00320118
0.00313733
0.00288465
0.00280993
0.00281118
0.00292466
0.00308294
0.00311062
0.00301314
0.00286103
0.00287319
0.00404482
0.00679312
0.00737379
0.00723625
0.0069555
0.00616378
0.00374429
0.00293338
0.00305323
0.00353894
0.00370015
0.00371369
0.0034385
0.00238768
0.00216416
0.00215685
0.00226484
0.00243673
0.0026039
0.00272554
0.00287427
0.00343338
0.00483506
0.00556442
0.00543794
0.00494805
0.00494938
0.0058837
0.00869477
0.0108327
0.011302
0.0113865
0.0112967
0.0102054
0.0070825
0.00377166
0.0024557
0.00209365
0.00203483
0.00205243
0.00207623
0.00204916
0.00205023
0.00225855
0.00299769
0.00477299
0.00701203
0.00751286
0.00749148
0.00697572
0.00630389
0.00580399
0.00533215
0.00485448
0.00459023
0.00449207
0.00443594
0.00442884
0.00450889
0.00468589
0.00485262
0.00501574
0.00516924
0.00529807
0.0054176
0.00565283
0.00633522
0.00755505
0.00811726
0.0082475
0.00823709
0.00823016
0.00824077
0.00827613
0.0082704
0.00820869
0.00810174
0.00804369
0.00804335
0.00814652
0.00820596
0.00812896
0.00735587
0.00543365
0.00453186
0.0044449
0.00475285
0.00609435
0.00896087
0.0105731
0.0104302
0.00784736
0.00417439
0.00293813
0.00273539
0.00289957
0.00342161
0.00346254
0.00313476
0.00276361
0.0027815
0.00293081
0.00301276
0.00294607
0.00282971
0.00280872
0.00283821
0.00297574
0.00304106
0.00299633
0.0028435
0.00280519
0.00329617
0.00606525
0.007147
0.00712979
0.00683691
0.00660536
0.00579086
0.00355123
0.00292259
0.0031365
0.00359227
0.00367665
0.00364033
0.00510729
0.00330903
0.00235378
0.00216863
0.00216484
0.00225117
0.00236719
0.00247511
0.00258299
0.00295286
0.0041137
0.00566086
0.00582827
0.00515589
0.00484358
0.00511717
0.00676321
0.00998017
0.0111262
0.0112487
0.0109253
0.00916201
0.00595378
0.00325693
0.00224458
0.00194384
0.00186254
0.00183277
0.00180794
0.00179343
0.00182489
0.00205058
0.00267877
0.00409872
0.00605999
0.00657495
0.00656892
0.00629479
0.00608533
0.00596588
0.00591066
0.00580589
0.00563467
0.0053049
0.00504512
0.00483511
0.00477647
0.00477932
0.00493141
0.00508851
0.00525134
0.00544791
0.0057488
0.00644083
0.00740355
0.00802128
0.00821161
0.00824467
0.0082365
0.00821035
0.00817371
0.00807692
0.00792096
0.00771827
0.00760578
0.00761701
0.00773619
0.00797622
0.0081015
0.00808317
0.0077353
0.00606863
0.00477658
0.0045001
0.00465859
0.00560126
0.00817461
0.00982121
0.00946371
0.00622577
0.0035146
0.0028089
0.00280662
0.00323161
0.00357299
0.0033949
0.00278931
0.00264208
0.00269981
0.00283027
0.00287902
0.00284007
0.00279911
0.00280241
0.00286466
0.00294124
0.00294313
0.00282433
0.0027785
0.00300787
0.00490461
0.00693435
0.00709887
0.0065939
0.00633375
0.00628319
0.00547214
0.00344768
0.00292423
0.00317235
0.0036044
0.00364425
0.0035759
0.00584899
0.00490733
0.00309593
0.00231935
0.00217953
0.0021888
0.00225725
0.00233527
0.00243374
0.00276622
0.00394134
0.00582226
0.00614847
0.0056198
0.00486841
0.00480341
0.00555697
0.00806805
0.0103464
0.010678
0.0101833
0.00833524
0.00525271
0.00295362
0.00209197
0.00181409
0.00172142
0.00167931
0.00165925
0.00165549
0.00170612
0.00188742
0.00229756
0.0031032
0.00390601
0.0040526
0.00384553
0.00364355
0.00362033
0.00393662
0.00459941
0.0053927
0.00597231
0.00618858
0.00629432
0.00625538
0.00581973
0.00562851
0.00553655
0.00554273
0.00582293
0.00626163
0.00690393
0.007623
0.0080371
0.00820899
0.00824387
0.00821297
0.00811779
0.00795135
0.00771054
0.00743
0.00723629
0.00722865
0.0072823
0.00739515
0.00763713
0.00789886
0.00804796
0.00804449
0.00784821
0.00655392
0.00501036
0.00455013
0.00462341
0.00531995
0.00761645
0.00905648
0.00831687
0.00481406
0.00307299
0.00276781
0.00293092
0.00357578
0.00362114
0.00308426
0.00262316
0.00259865
0.00267528
0.00277423
0.00280095
0.00277859
0.00276932
0.00279076
0.00284545
0.00286383
0.00278451
0.00274936
0.00290085
0.00418689
0.0067029
0.00697949
0.00639312
0.00597068
0.00608469
0.00605133
0.00522958
0.0034086
0.00292019
0.00317836
0.00360244
0.0036113
0.00352103
0.0059511
0.00542732
0.00409119
0.00283631
0.0023084
0.00220329
0.00223097
0.00228837
0.00241047
0.00280973
0.00427918
0.00615387
0.00643327
0.00605983
0.00502855
0.00469668
0.00492825
0.00641126
0.00899872
0.00977599
0.00957116
0.00795514
0.00509944
0.00290396
0.00202914
0.00173103
0.00163318
0.00160071
0.00159143
0.00159601
0.00163997
0.00172103
0.00190312
0.00213407
0.00221645
0.00217531
0.00198233
0.00182379
0.00177858
0.00179098
0.00196223
0.00236221
0.00312906
0.00441194
0.00597638
0.00683088
0.00714186
0.00721285
0.00718781
0.00716963
0.00725859
0.00764124
0.00793996
0.00812265
0.00820227
0.00819984
0.00808352
0.00786255
0.00746147
0.00709138
0.0068882
0.00687627
0.00692645
0.0070519
0.0071646
0.00733777
0.00758689
0.00784371
0.0079973
0.00800833
0.0078412
0.00675064
0.00512586
0.00456559
0.00459379
0.00515195
0.00725251
0.00835812
0.00707407
0.00386134
0.00285203
0.00277856
0.00321073
0.00377193
0.0035558
0.00277087
0.00255544
0.0025851
0.00266128
0.0027329
0.00274515
0.00273732
0.00274203
0.0027647
0.0027785
0.0027323
0.00272145
0.00289321
0.0039054
0.0064667
0.00682995
0.00612581
0.00550823
0.00569368
0.00587467
0.00583449
0.00513303
0.00348091
0.00291537
0.00307531
0.00355647
0.00358256
0.00347332
0.00585714
0.00540398
0.00426468
0.00315592
0.00254601
0.00224276
0.00224514
0.0023093
0.0025069
0.00329657
0.00548621
0.00651762
0.00663026
0.00633204
0.00534491
0.0046681
0.00463228
0.00538146
0.00755099
0.0088631
0.00891003
0.00772897
0.00517134
0.00294021
0.00203648
0.00171181
0.00161403
0.00158886
0.0015854
0.0015986
0.00164183
0.00168389
0.00171573
0.0017157
0.00166628
0.00155999
0.00142919
0.00133068
0.00129087
0.00128165
0.00129702
0.00138858
0.00159841
0.00196511
0.00266271
0.00402969
0.00623863
0.00729082
0.00769221
0.00784513
0.00793135
0.00805608
0.00811014
0.00809986
0.00796449
0.00768396
0.00718358
0.00672851
0.00653231
0.00652589
0.00659113
0.00669833
0.00682702
0.00697757
0.00708988
0.00724122
0.00747081
0.00771072
0.00787561
0.00790089
0.00775833
0.00677064
0.00515967
0.00456768
0.00457208
0.00505698
0.00700149
0.00768265
0.00584618
0.00335298
0.00275709
0.00282648
0.00354666
0.00386531
0.00326779
0.00260618
0.00253786
0.00258948
0.00266046
0.00270618
0.00270779
0.00270372
0.00270332
0.00269793
0.00267681
0.00269401
0.00289449
0.00389011
0.00630052
0.00663749
0.00574724
0.00507071
0.00506244
0.00544545
0.00563243
0.00563162
0.00512055
0.00363256
0.00293184
0.00290467
0.00345397
0.003555
0.00342113
0.00556144
0.00507062
0.00409522
0.00313389
0.00259315
0.00230289
0.00231935
0.00249778
0.00316476
0.00506523
0.00643079
0.0067379
0.00671462
0.00639355
0.00561217
0.00468513
0.00448885
0.00481203
0.00627211
0.00803486
0.00835757
0.00763373
0.0053767
0.00308119
0.00206293
0.00172321
0.00161644
0.00159695
0.00160099
0.0016396
0.00171391
0.00174842
0.00175632
0.00169934
0.00154022
0.00141918
0.00130497
0.00123162
0.00120008
0.00119091
0.00119481
0.00123935
0.00135448
0.00153173
0.00178627
0.00217688
0.00296686
0.00445178
0.00629454
0.00709609
0.00744313
0.00752185
0.00747105
0.00717815
0.00670389
0.00620967
0.00606793
0.00616948
0.0063028
0.00639018
0.0065064
0.00659455
0.00665852
0.00671424
0.00676523
0.00686872
0.00707426
0.00733246
0.00756464
0.00763752
0.00752397
0.00665501
0.00514667
0.00456805
0.0045578
0.00500681
0.00679059
0.00704154
0.00486509
0.00304349
0.00271319
0.00291687
0.00383197
0.00391944
0.00299497
0.00252792
0.0025324
0.00259973
0.00265908
0.0026854
0.00267459
0.00265337
0.00263276
0.00262317
0.00268039
0.00289356
0.00387753
0.00595462
0.00635538
0.00548862
0.00466874
0.0045426
0.00465236
0.00515737
0.00539334
0.00544344
0.00519268
0.00401401
0.00299885
0.00282158
0.00324592
0.00349361
0.00338742
0.00522076
0.00445861
0.003636
0.00300658
0.00262404
0.00247965
0.00267471
0.00344109
0.00533584
0.00647823
0.00678838
0.00680982
0.00665493
0.00631325
0.00569531
0.00472381
0.00439473
0.00448998
0.00535828
0.00712726
0.00778991
0.00749425
0.00579125
0.00338688
0.00218185
0.00174773
0.00163889
0.00162497
0.00166391
0.00178749
0.00197736
0.00206367
0.00209735
0.00202533
0.00174854
0.00152433
0.00134511
0.00124197
0.00119936
0.00118684
0.00118899
0.00122944
0.00134138
0.00151906
0.00173659
0.00195043
0.00226715
0.00275505
0.00356731
0.00452033
0.00529165
0.00554398
0.00554153
0.00539622
0.00540475
0.00557366
0.00586637
0.00614381
0.00627533
0.00628553
0.00622044
0.00608609
0.00598199
0.00595092
0.00596328
0.00604373
0.00625385
0.00657399
0.00692568
0.00711183
0.0070569
0.00640616
0.00509309
0.00455881
0.00454135
0.00496138
0.00653862
0.00648306
0.00424163
0.00288345
0.00269146
0.00296246
0.00401622
0.00395872
0.00283865
0.00249603
0.0025287
0.00260509
0.00264685
0.00265318
0.00261819
0.00258773
0.00258181
0.00265694
0.00289914
0.00386832
0.00570962
0.00609712
0.00541958
0.00448682
0.00432
0.00429789
0.00436932
0.00466861
0.00508017
0.00523508
0.00521882
0.00453126
0.00322391
0.00280453
0.00289153
0.00334223
0.0033551
0.00501223
0.00422109
0.00353914
0.00306834
0.00288601
0.00311587
0.00407449
0.00584628
0.00663969
0.00680488