/*--------------------------------*- C++ -*----------------------------------*\
  =========                 |
  \\      /  F ield         | OpenFOAM: The Open Source CFD Toolbox
   \\    /   O peration     | Website:  https://openfoam.org
    \\  /    A nd           | Version:  10
     \\/     M anipulation  |
\*---------------------------------------------------------------------------*/
FoamFile
{
    format      ascii;
    class       volVectorField;
    location    "0.599261";
    object      U;
}
// * * * * * * * * * * * * * * * * * * * * * * * * * * * * * * * * * * * * * //

dimensions      [0 1 -1 0 0 0 0];

internalField   nonuniform List<vector> 
16320
(
(-0.428286 -0.0568923 0)
(-0.43962 -0.0792383 0)
(-0.448075 -0.100906 0)
(-0.45453 -0.123921 0)
(-0.45817 -0.14767 0)
(-0.457883 -0.169937 0)
(-0.452683 -0.189102 0)
(-0.441553 -0.203835 0)
(-0.421546 -0.211013 0)
(-0.393633 -0.209382 0)
(-0.355369 -0.196342 0)
(-0.310806 -0.167498 0)
(-0.264722 -0.116851 0)
(-0.216469 -0.0494982 0)
(-0.166378 0.0323717 0)
(-0.130101 0.12937 0)
(-0.0998029 0.210452 0)
(-0.0978019 0.243175 0)
(-0.096143 0.256992 0)
(-0.0994488 0.251945 0)
(-0.113116 0.220565 0)
(-0.124373 0.167216 0)
(-0.126524 0.121219 0)
(-0.115453 0.104835 0)
(-0.0994459 0.108075 0)
(-0.080112 0.120781 0)
(-0.0600588 0.138102 0)
(-0.0397688 0.158453 0)
(-0.0190165 0.180344 0)
(0.0026965 0.203347 0)
(0.0259056 0.227126 0)
(0.0498218 0.251606 0)
(0.0755052 0.276847 0)
(0.102285 0.302373 0)
(0.130042 0.327689 0)
(0.158057 0.3519 0)
(0.185645 0.374281 0)
(0.211835 0.394156 0)
(0.236099 0.411406 0)
(0.258235 0.425747 0)
(0.278295 0.435957 0)
(0.296755 0.43989 0)
(0.315043 0.435769 0)
(0.333286 0.420014 0)
(0.348695 0.389381 0)
(0.360376 0.348817 0)
(0.366842 0.30229 0)
(0.364295 0.255944 0)
(0.351187 0.214505 0)
(0.327247 0.180812 0)
(0.293094 0.156835 0)
(0.254889 0.143036 0)
(0.218641 0.132349 0)
(0.186316 0.117579 0)
(0.161208 0.0982812 0)
(0.143708 0.0735413 0)
(0.131545 0.0440562 0)
(0.120093 0.0145129 0)
(0.107988 -0.00867946 0)
(0.0957711 -0.0292503 0)
(0.0882809 -0.0591452 0)
(0.0887107 -0.111846 0)
(0.0978095 -0.172048 0)
(0.104628 -0.214012 0)
(0.0923878 -0.227836 0)
(0.0834039 -0.216294 0)
(0.0772044 -0.202716 0)
(0.0702778 -0.192994 0)
(0.0671276 -0.186466 0)
(0.0667794 -0.178894 0)
(0.0705823 -0.167399 0)
(0.0774558 -0.150562 0)
(0.0857039 -0.129901 0)
(0.090309 -0.0897864 0)
(0.0993296 -0.0452832 0)
(0.117382 -0.0563031 0)
(0.120277 -0.103271 0)
(0.12014 -0.196162 0)
(0.12576 -0.261882 0)
(0.138167 -0.285665 0)
(0.151252 -0.287686 0)
(0.163241 -0.275554 0)
(0.173806 -0.251941 0)
(0.182473 -0.218125 0)
(0.188589 -0.172806 0)
(0.190692 -0.112689 0)
(0.18204 -0.0391402 0)
(0.153431 0.0381717 0)
(0.121225 0.112747 0)
(0.0960349 0.192291 0)
(0.0680725 0.264945 0)
(0.0402768 0.313885 0)
(0.0206152 0.332741 0)
(-0.0088852 0.314831 0)
(-0.0413356 0.278139 0)
(-0.0640043 0.244518 0)
(-0.0778969 0.222182 0)
(-0.0824855 0.200576 0)
(-0.105505 0.150759 0)
(-0.12511 0.0671345 0)
(-0.134252 -0.021366 0)
(-0.137767 -0.106937 0)
(-0.132165 -0.197142 0)
(-0.115659 -0.277876 0)
(-0.0814927 -0.337043 0)
(-0.0408838 -0.339795 0)
(0.005564 -0.294808 0)
(0.0421929 -0.260237 0)
(0.0636504 -0.2303 0)
(0.0821676 -0.206368 0)
(0.0985616 -0.189167 0)
(0.113855 -0.179657 0)
(0.122457 -0.174593 0)
(-0.429933 -0.0422304 0)
(-0.442089 -0.0655432 0)
(-0.449674 -0.0896946 0)
(-0.454686 -0.115498 0)
(-0.456645 -0.141998 0)
(-0.455348 -0.166823 0)
(-0.451085 -0.189356 0)
(-0.443975 -0.210004 0)
(-0.43125 -0.22654 0)
(-0.410204 -0.236224 0)
(-0.377534 -0.231715 0)
(-0.33511 -0.206813 0)
(-0.291016 -0.157153 0)
(-0.247081 -0.0879641 0)
(-0.201698 -0.00247231 0)
(-0.16636 0.0977944 0)
(-0.137251 0.200281 0)
(-0.124796 0.24986 0)
(-0.120113 0.26965 0)
(-0.117226 0.269574 0)
(-0.124967 0.240537 0)
(-0.132297 0.18371 0)
(-0.135409 0.129714 0)
(-0.130111 0.104913 0)
(-0.118663 0.102886 0)
(-0.102024 0.112496 0)
(-0.0835784 0.127906 0)
(-0.064268 0.146586 0)
(-0.044304 0.166434 0)
(-0.0232028 0.186543 0)
(-0.000736622 0.207249 0)
(0.0233454 0.228984 0)
(0.0482184 0.251202 0)
(0.0746874 0.273908 0)
(0.101792 0.296931 0)
(0.129571 0.319473 0)
(0.157117 0.341 0)
(0.183688 0.360685 0)
(0.208971 0.378079 0)
(0.232761 0.39245 0)
(0.255015 0.402283 0)
(0.275839 0.405209 0)
(0.295619 0.399074 0)
(0.313497 0.381423 0)
(0.327227 0.351886 0)
(0.335172 0.315265 0)
(0.335591 0.275464 0)
(0.325838 0.238169 0)
(0.304685 0.206386 0)
(0.27327 0.183926 0)
(0.2367 0.170458 0)
(0.200149 0.160076 0)
(0.167115 0.146095 0)
(0.14093 0.127732 0)
(0.12269 0.104242 0)
(0.111053 0.0754653 0)
(0.102638 0.0445577 0)
(0.0943467 0.0175768 0)
(0.0863979 -0.00446405 0)
(0.0806566 -0.0308065 0)
(0.0846246 -0.0754613 0)
(0.0989737 -0.143955 0)
(0.119197 -0.2048 0)
(0.125425 -0.24208 0)
(0.11322 -0.248387 0)
(0.10591 -0.231324 0)
(0.098181 -0.215756 0)
(0.0906169 -0.203749 0)
(0.0867727 -0.194918 0)
(0.0851706 -0.185174 0)
(0.0878801 -0.171602 0)
(0.0944913 -0.153251 0)
(0.103368 -0.130637 0)
(0.109081 -0.0980184 0)
(0.117299 -0.0496881 0)
(0.132687 -0.0553541 0)
(0.140563 -0.0997967 0)
(0.138474 -0.18519 0)
(0.14505 -0.25848 0)
(0.160106 -0.286277 0)
(0.173576 -0.291288 0)
(0.18625 -0.282138 0)
(0.198089 -0.261763 0)
(0.208962 -0.231067 0)
(0.217989 -0.18848 0)
(0.222648 -0.130898 0)
(0.220421 -0.0591484 0)
(0.197701 0.0219369 0)
(0.160335 0.100272 0)
(0.125264 0.17382 0)
(0.0933373 0.246042 0)
(0.0609873 0.305296 0)
(0.0380656 0.338082 0)
(0.0160836 0.336527 0)
(-0.0132399 0.306413 0)
(-0.0374425 0.271646 0)
(-0.0544083 0.245435 0)
(-0.0577682 0.22518 0)
(-0.0734948 0.17906 0)
(-0.091086 0.0989289 0)
(-0.104018 0.00262848 0)
(-0.107289 -0.0929307 0)
(-0.105268 -0.188627 0)
(-0.0978586 -0.283235 0)
(-0.0726867 -0.367293 0)
(-0.0374586 -0.379824 0)
(0.0100017 -0.323518 0)
(0.0444091 -0.282824 0)
(0.0640545 -0.248168 0)
(0.080727 -0.220378 0)
(0.0954793 -0.20049 0)
(0.110092 -0.191312 0)
(0.120745 -0.190527 0)
(-0.430959 -0.0243433 0)
(-0.44442 -0.0487735 0)
(-0.451832 -0.0761097 0)
(-0.455773 -0.105134 0)
(-0.455874 -0.134145 0)
(-0.452553 -0.160428 0)
(-0.447196 -0.184265 0)
(-0.440834 -0.207577 0)
(-0.431964 -0.23023 0)
(-0.416933 -0.250355 0)
(-0.391423 -0.258656 0)
(-0.354839 -0.239359 0)
(-0.313918 -0.191309 0)
(-0.273691 -0.120854 0)
(-0.233697 -0.0324346 0)
(-0.197376 0.0736725 0)
(-0.176535 0.183984 0)
(-0.156452 0.252017 0)
(-0.14687 0.278469 0)
(-0.140446 0.281791 0)
(-0.141452 0.255391 0)
(-0.14348 0.198638 0)
(-0.145871 0.14027 0)
(-0.14463 0.109057 0)
(-0.136848 0.101166 0)
(-0.121874 0.105876 0)
(-0.103843 0.117821 0)
(-0.0843867 0.133991 0)
(-0.0641002 0.151532 0)
(-0.0429442 0.16913 0)
(-0.0205475 0.186738 0)
(0.0035295 0.205327 0)
(0.0291005 0.224839 0)
(0.0551882 0.244807 0)
(0.0821768 0.265357 0)
(0.109089 0.285981 0)
(0.135803 0.306105 0)
(0.16144 0.324856 0)
(0.18587 0.341462 0)
(0.208733 0.354873 0)
(0.229868 0.363448 0)
(0.249445 0.365096 0)
(0.267301 0.358081 0)
(0.282261 0.341226 0)
(0.292594 0.315504 0)
(0.296216 0.284388 0)
(0.291548 0.252099 0)
(0.275477 0.223578 0)
(0.248056 0.203925 0)
(0.215044 0.19185 0)
(0.179938 0.182309 0)
(0.147137 0.170208 0)
(0.120291 0.153557 0)
(0.100735 0.131724 0)
(0.0883682 0.104646 0)
(0.0807745 0.0740628 0)
(0.0747416 0.0449887 0)
(0.0696757 0.0207079 0)
(0.0657144 -0.00458464 0)
(0.0697064 -0.0406164 0)
(0.0859212 -0.105603 0)
(0.113532 -0.180509 0)
(0.13837 -0.237405 0)
(0.139422 -0.26739 0)
(0.129827 -0.264623 0)
(0.124398 -0.246502 0)
(0.116468 -0.229701 0)
(0.109544 -0.215756 0)
(0.105177 -0.204446 0)
(0.102265 -0.192318 0)
(0.103332 -0.176441 0)
(0.109433 -0.155929 0)
(0.117733 -0.130983 0)
(0.124858 -0.10093 0)
(0.131184 -0.0562164 0)
(0.142239 -0.0564531 0)
(0.15503 -0.0982619 0)
(0.151954 -0.17781 0)
(0.160822 -0.254645 0)
(0.177784 -0.285799 0)
(0.1919 -0.293433 0)
(0.205852 -0.287279 0)
(0.219452 -0.270136 0)
(0.232824 -0.242731 0)
(0.244741 -0.202758 0)
(0.251322 -0.147674 0)
(0.251377 -0.0792675 0)
(0.237289 0.00295308 0)
(0.200435 0.0871135 0)
(0.15742 0.16074 0)
(0.118734 0.230443 0)
(0.0824961 0.292248 0)
(0.0544113 0.335088 0)
(0.0334281 0.347446 0)
(0.0113227 0.328826 0)
(-0.0104737 0.294356 0)
(-0.0280352 0.264378 0)
(-0.0322758 0.240552 0)
(-0.0395293 0.197598 0)
(-0.0504091 0.125651 0)
(-0.0613786 0.023857 0)
(-0.0681171 -0.0814823 0)
(-0.0696623 -0.183385 0)
(-0.0711334 -0.284592 0)
(-0.0586865 -0.393184 0)
(-0.0285576 -0.422183 0)
(0.0180198 -0.356857 0)
(0.0492653 -0.307542 0)
(0.0661607 -0.266748 0)
(0.0801166 -0.234272 0)
(0.0917036 -0.210666 0)
(0.104017 -0.199603 0)
(0.113361 -0.199758 0)
(-0.429835 -0.00544834 0)
(-0.446265 -0.0303064 0)
(-0.455115 -0.0599289 0)
(-0.458991 -0.0921192 0)
(-0.458212 -0.123896 0)
(-0.453249 -0.151912 0)
(-0.445913 -0.176714 0)
(-0.43798 -0.200832 0)
(-0.42921 -0.226098 0)
(-0.417608 -0.252838 0)
(-0.398241 -0.274116 0)
(-0.368682 -0.26357 0)
(-0.333652 -0.218011 0)
(-0.29732 -0.146143 0)
(-0.262265 -0.0543531 0)
(-0.229795 0.056551 0)
(-0.214363 0.16924 0)
(-0.191695 0.24893 0)
(-0.175648 0.283331 0)
(-0.164832 0.290263 0)
(-0.15999 0.266328 0)
(-0.157774 0.212292 0)
(-0.159029 0.154719 0)
(-0.160317 0.116899 0)
(-0.154704 0.101239 0)
(-0.139813 0.0996929 0)
(-0.121309 0.107471 0)
(-0.101325 0.120948 0)
(-0.0802364 0.135801 0)
(-0.0580672 0.15044 0)
(-0.0346122 0.165011 0)
(-0.00987709 0.180274 0)
(0.0165168 0.197093 0)
(0.0433179 0.21473 0)
(0.0699189 0.233147 0)
(0.0964341 0.252153 0)
(0.121897 0.271196 0)
(0.145824 0.289079 0)
(0.168074 0.304956 0)
(0.188161 0.317527 0)
(0.205991 0.32518 0)
(0.221794 0.326143 0)
(0.235291 0.319136 0)
(0.245562 0.303893 0)
(0.251205 0.282003 0)
(0.249733 0.256662 0)
(0.238469 0.232514 0)
(0.217164 0.215462 0)
(0.189023 0.205735 0)
(0.157363 0.197269 0)
(0.126151 0.187396 0)
(0.0996622 0.173518 0)
(0.0794323 0.154241 0)
(0.0659233 0.129722 0)
(0.0578479 0.100772 0)
(0.0524986 0.0714038 0)
(0.0486875 0.0458399 0)
(0.0460288 0.0208203 0)
(0.0476272 -0.00987524 0)
(0.0634248 -0.0637243 0)
(0.0932808 -0.144767 0)
(0.129041 -0.216624 0)
(0.149646 -0.265939 0)
(0.146242 -0.286749 0)
(0.140833 -0.277352 0)
(0.138409 -0.262207 0)
(0.133709 -0.245937 0)
(0.127464 -0.229466 0)
(0.122128 -0.214468 0)
(0.117621 -0.199252 0)
(0.116624 -0.181064 0)
(0.121137 -0.158184 0)
(0.128187 -0.131083 0)
(0.135698 -0.100501 0)
(0.139029 -0.0607213 0)
(0.147254 -0.0596686 0)
(0.166492 -0.0997605 0)
(0.164053 -0.174898 0)
(0.173752 -0.252427 0)
(0.191463 -0.284948 0)
(0.206529 -0.294391 0)
(0.222196 -0.290938 0)
(0.237891 -0.276752 0)
(0.253692 -0.252533 0)
(0.268373 -0.2156 0)
(0.276551 -0.163221 0)
(0.277077 -0.0972191 0)
(0.268095 -0.0167752 0)
(0.23724 0.0700153 0)
(0.190664 0.150562 0)
(0.144945 0.21819 0)
(0.102202 0.279776 0)
(0.0688304 0.326774 0)
(0.0464985 0.349551 0)
(0.0286532 0.342633 0)
(0.0127329 0.313214 0)
(-0.00183058 0.279026 0)
(-0.00740378 0.24895 0)
(-0.00849456 0.206155 0)
(-0.00985078 0.139946 0)
(-0.0114174 0.0459592 0)
(-0.023492 -0.0673961 0)
(-0.0289467 -0.176088 0)
(-0.034715 -0.285399 0)
(-0.0361973 -0.410364 0)
(-0.0144386 -0.459771 0)
(0.027382 -0.39299 0)
(0.056678 -0.334447 0)
(0.0704209 -0.286104 0)
(0.0810307 -0.248081 0)
(0.0888623 -0.21979 0)
(0.0979553 -0.205015 0)
(0.105349 -0.203903 0)
(-0.423701 0.0118794 0)
(-0.444919 -0.0120264 0)
(-0.457183 -0.0427282 0)
(-0.463018 -0.0775523 0)
(-0.462891 -0.111932 0)
(-0.457314 -0.14182 0)
(-0.448564 -0.168079 0)
(-0.439193 -0.192909 0)
(-0.429511 -0.21861 0)
(-0.418511 -0.248649 0)
(-0.401585 -0.278247 0)
(-0.379426 -0.279042 0)
(-0.352395 -0.237744 0)
(-0.31992 -0.164618 0)
(-0.289583 -0.069208 0)
(-0.262022 0.0452267 0)
(-0.248955 0.160488 0)
(-0.228095 0.24379 0)
(-0.206235 0.285256 0)
(-0.189684 0.296157 0)
(-0.180872 0.273961 0)
(-0.17478 0.224251 0)
(-0.174709 0.169838 0)
(-0.175852 0.12666 0)
(-0.169313 0.101966 0)
(-0.154222 0.0925169 0)
(-0.136122 0.0968488 0)
(-0.115904 0.107629 0)
(-0.0939331 0.119406 0)
(-0.070374 0.130655 0)
(-0.0451214 0.141709 0)
(-0.0188868 0.153804 0)
(0.00905719 0.167724 0)
(0.0371777 0.183584 0)
(0.0643738 0.20083 0)
(0.0907364 0.218679 0)
(0.115332 0.237028 0)
(0.13732 0.254599 0)
(0.156803 0.270449 0)
(0.173005 0.283054 0)
(0.185919 0.290537 0)
(0.196096 0.291008 0)
(0.20356 0.283712 0)
(0.207657 0.269655 0)
(0.206919 0.251237 0)
(0.199116 0.23275 0)
(0.182454 0.218525 0)
(0.158365 0.210931 0)
(0.130972 0.204586 0)
(0.103469 0.196229 0)
(0.0786384 0.185523 0)
(0.0587602 0.16966 0)
(0.0446818 0.148406 0)
(0.036156 0.122711 0)
(0.0308473 0.0947956 0)
(0.0272193 0.0691102 0)
(0.0248613 0.0450744 0)
(0.0249435 0.0169953 0)
(0.0358213 -0.0246135 0)
(0.0630066 -0.10162 0)
(0.103731 -0.184736 0)
(0.140021 -0.248735 0)
(0.151066 -0.287915 0)
(0.147406 -0.297059 0)
(0.148021 -0.289586 0)
(0.149896 -0.279923 0)
(0.149494 -0.26466 0)
(0.145026 -0.245333 0)
(0.138455 -0.226177 0)
(0.131632 -0.207707 0)
(0.128269 -0.187395 0)
(0.130535 -0.161729 0)
(0.135891 -0.132415 0)
(0.142865 -0.101353 0)
(0.14442 -0.0672099 0)
(0.152988 -0.067108 0)
(0.177032 -0.105314 0)
(0.174165 -0.177542 0)
(0.184557 -0.252899 0)
(0.203203 -0.284032 0)
(0.218868 -0.294624 0)
(0.236153 -0.293434 0)
(0.254134 -0.281884 0)
(0.272023 -0.260453 0)
(0.289227 -0.226757 0)
(0.299564 -0.17717 0)
(0.299323 -0.11379 0)
(0.291245 -0.0365254 0)
(0.268176 0.0512304 0)
(0.221648 0.137384 0)
(0.169351 0.207589 0)
(0.120224 0.267394 0)
(0.0811659 0.316122 0)
(0.0558539 0.344951 0)
(0.0401615 0.34739 0)
(0.0290315 0.325493 0)
(0.0187115 0.290367 0)
(0.0142536 0.253973 0)
(0.0159534 0.207018 0)
(0.019478 0.140108 0)
(0.0240491 0.0519592 0)
(0.0167641 -0.0511147 0)
(0.0113971 -0.162556 0)
(0.00425338 -0.281481 0)
(-0.0051279 -0.418733 0)
(0.00588876 -0.490929 0)
(0.038156 -0.4301 0)
(0.0661382 -0.363014 0)
(0.076949 -0.305976 0)
(0.0835341 -0.261933 0)
(0.0874287 -0.228644 0)
(0.093223 -0.209434 0)
(0.0982086 -0.204918 0)
(-0.410485 0.026536 0)
(-0.438024 0.00417588 0)
(-0.455997 -0.0266013 0)
(-0.465476 -0.0626985 0)
(-0.467344 -0.0986663 0)
(-0.462528 -0.130229 0)
(-0.453423 -0.158048 0)
(-0.443114 -0.183451 0)
(-0.43276 -0.207992 0)
(-0.421521 -0.238001 0)
(-0.40515 -0.272578 0)
(-0.389435 -0.285815 0)
(-0.371514 -0.250552 0)
(-0.343246 -0.176624 0)
(-0.316446 -0.0761963 0)
(-0.294503 0.041296 0)
(-0.282521 0.155074 0)
(-0.261931 0.238748 0)
(-0.236368 0.284269 0)
(-0.215426 0.298029 0)
(-0.203509 0.278779 0)
(-0.194767 0.234485 0)
(-0.191945 0.183805 0)
(-0.189329 0.136262 0)
(-0.180258 0.100172 0)
(-0.166084 0.0856688 0)
(-0.148884 0.0869287 0)
(-0.128566 0.0943291 0)
(-0.105556 0.102215 0)
(-0.0803575 0.109719 0)
(-0.0526909 0.117125 0)
(-0.0237894 0.125883 0)
(0.0070836 0.137087 0)
(0.0370856 0.151401 0)
(0.0652976 0.167529 0)
(0.0916607 0.184654 0)
(0.115109 0.202835 0)
(0.135345 0.221128 0)
(0.151759 0.238261 0)
(0.163222 0.252388 0)
(0.169414 0.260807 0)
(0.171367 0.261236 0)
(0.170119 0.252732 0)
(0.166692 0.23851 0)
(0.159277 0.222883 0)
(0.145706 0.211452 0)
(0.12506 0.206429 0)
(0.101228 0.20273 0)
(0.0777013 0.19721 0)
(0.0560893 0.188632 0)
(0.0379282 0.176652 0)
(0.0244138 0.159295 0)
(0.0157533 0.137358 0)
(0.0109456 0.112466 0)
(0.00763152 0.0883076 0)
(0.00527694 0.0660596 0)
(0.00396613 0.0419656 0)
(0.00780808 0.00919696 0)
(0.0298799 -0.0542215 0)
(0.0699538 -0.144803 0)
(0.113838 -0.220355 0)
(0.142081 -0.275018 0)
(0.146282 -0.3018 0)
(0.146649 -0.302012 0)
(0.153331 -0.30353 0)
(0.161068 -0.300922 0)
(0.163851 -0.286743 0)
(0.160212 -0.264348 0)
(0.152577 -0.240352 0)
(0.14432 -0.217857 0)
(0.140109 -0.195405 0)
(0.140031 -0.166835 0)
(0.142731 -0.13543 0)
(0.148772 -0.103948 0)
(0.150273 -0.0760758 0)
(0.161526 -0.0775406 0)
(0.187956 -0.114291 0)
(0.184816 -0.185146 0)
(0.195511 -0.252768 0)
(0.214797 -0.282373 0)
(0.230716 -0.294222 0)
(0.249252 -0.294969 0)
(0.26912 -0.285621 0)
(0.288426 -0.266641 0)
(0.307953 -0.236211 0)
(0.32062 -0.190397 0)
(0.319368 -0.130522 0)
(0.310929 -0.0555573 0)
(0.292 0.0317398 0)
(0.249091 0.118852 0)
(0.19027 0.196219 0)
(0.135989 0.25467 0)
(0.0903303 0.303928 0)
(0.0619875 0.335692 0)
(0.0467947 0.344531 0)
(0.0390291 0.328881 0)
(0.0328596 0.295572 0)
(0.0299805 0.256066 0)
(0.0325692 0.204979 0)
(0.0382153 0.13727 0)
(0.045869 0.0547683 0)
(0.0419056 -0.0450435 0)
(0.0413699 -0.153277 0)
(0.037398 -0.274289 0)
(0.0279914 -0.419327 0)
(0.0312974 -0.512867 0)
(0.0505137 -0.464874 0)
(0.0763839 -0.389785 0)
(0.0856617 -0.324825 0)
(0.0875161 -0.275096 0)
(0.0873621 -0.237268 0)
(0.0901954 -0.213909 0)
(0.0918962 -0.204771 0)
(-0.388618 0.0380429 0)
(-0.424054 0.0180225 0)
(-0.449048 -0.0118081 0)
(-0.464273 -0.0481598 0)
(-0.469958 -0.0853278 0)
(-0.467291 -0.11848 0)
(-0.459157 -0.147607 0)
(-0.448711 -0.173064 0)
(-0.438077 -0.195649 0)
(-0.42682 -0.223008 0)
(-0.410937 -0.259087 0)
(-0.399894 -0.28391 0)
(-0.390636 -0.25599 0)
(-0.367243 -0.18268 0)
(-0.342254 -0.0770306 0)
(-0.324772 0.0430472 0)
(-0.313176 0.151364 0)
(-0.291646 0.234121 0)
(-0.26432 0.281021 0)
(-0.241151 0.296855 0)
(-0.225822 0.28212 0)
(-0.214631 0.244321 0)
(-0.208644 0.195969 0)
(-0.201522 0.141853 0)
(-0.188853 0.0982543 0)
(-0.175628 0.0803718 0)
(-0.159194 0.0782933 0)
(-0.138143 0.0812947 0)
(-0.113109 0.0843917 0)
(-0.0850193 0.0872688 0)
(-0.0538983 0.0897649 0)
(-0.0214792 0.0925878 0)
(0.0121692 0.0989287 0)
(0.0417749 0.110784 0)
(0.068246 0.12628 0)
(0.0918277 0.143242 0)
(0.113662 0.162515 0)
(0.133123 0.183899 0)
(0.147749 0.205958 0)
(0.155014 0.226199 0)
(0.153808 0.239498 0)
(0.145233 0.242189 0)
(0.132145 0.233946 0)
(0.118874 0.219686 0)
(0.104967 0.205727 0)
(0.0888788 0.197384 0)
(0.0695752 0.194446 0)
(0.0492208 0.190543 0)
(0.030952 0.184113 0)
(0.0155751 0.174671 0)
(0.00387847 0.16166 0)
(-0.00370068 0.143975 0)
(-0.00774891 0.123029 0)
(-0.00996116 0.101024 0)
(-0.0114277 0.0815245 0)
(-0.0124178 0.0616983 0)
(-0.0118194 0.0369167 0)
(-0.00096045 -0.00696856 0)
(0.0308981 -0.0969256 0)
(0.0782002 -0.185152 0)
(0.118881 -0.250877 0)
(0.136455 -0.294012 0)
(0.139553 -0.306057 0)
(0.146744 -0.309753 0)
(0.158634 -0.322983 0)
(0.168146 -0.328081 0)
(0.172322 -0.313566 0)
(0.171501 -0.286756 0)
(0.165621 -0.25691 0)
(0.157452 -0.229481 0)
(0.15389 -0.204189 0)
(0.151498 -0.172427 0)
(0.150959 -0.140378 0)
(0.156343 -0.108648 0)
(0.159469 -0.0866076 0)
(0.175022 -0.0903144 0)
(0.200421 -0.126421 0)
(0.199525 -0.193543 0)
(0.210424 -0.25146 0)
(0.228647 -0.280542 0)
(0.244034 -0.293685 0)
(0.262886 -0.295981 0)
(0.283702 -0.288391 0)
(0.303472 -0.271444 0)
(0.324547 -0.244334 0)
(0.338447 -0.202918 0)
(0.335706 -0.146945 0)
(0.326407 -0.0750204 0)
(0.308283 0.0107314 0)
(0.270503 0.0978427 0)
(0.206277 0.179355 0)
(0.145998 0.241466 0)
(0.0965332 0.289796 0)
(0.0640152 0.323242 0)
(0.0483971 0.335207 0)
(0.0424938 0.324268 0)
(0.0403806 0.293898 0)
(0.0393369 0.252048 0)
(0.0412251 0.198913 0)
(0.047209 0.131226 0)
(0.0557003 0.0513337 0)
(0.0560174 -0.0429321 0)
(0.0599954 -0.147677 0)
(0.0597476 -0.269236 0)
(0.0561848 -0.419414 0)
(0.0585643 -0.527332 0)
(0.0649151 -0.493732 0)
(0.086292 -0.410616 0)
(0.0949505 -0.339697 0)
(0.0922764 -0.285853 0)
(0.0881858 -0.244759 0)
(0.0883377 -0.218237 0)
(0.08571 -0.204414 0)
(-0.356016 0.0477338 0)
(-0.40132 0.0305946 0)
(-0.434834 0.00220109 0)
(-0.457753 -0.0339108 0)
(-0.469394 -0.0716657 0)
(-0.470485 -0.106667 0)
(-0.464549 -0.13709 0)
(-0.454852 -0.16229 0)
(-0.444265 -0.182312 0)
(-0.433582 -0.205344 0)
(-0.419406 -0.239372 0)
(-0.410744 -0.272937 0)
(-0.408224 -0.252668 0)
(-0.391272 -0.182177 0)
(-0.367032 -0.0729473 0)
(-0.352311 0.048335 0)
(-0.338531 0.15056 0)
(-0.315689 0.229313 0)
(-0.288536 0.276525 0)
(-0.264638 0.294823 0)
(-0.246998 0.284947 0)
(-0.233703 0.251801 0)
(-0.223858 0.203247 0)
(-0.21093 0.145594 0)
(-0.194898 0.0970344 0)
(-0.182254 0.0766024 0)
(-0.164765 0.070182 0)
(-0.140994 0.066912 0)
(-0.112589 0.0629156 0)
(-0.0822643 0.0576009 0)
(-0.0525768 0.0521955 0)
(-0.0278978 0.0495559 0)
(-0.0104478 0.0563357 0)
(-0.000706904 0.0668395 0)
(0.00889944 0.0701121 0)
(0.0281907 0.0753742 0)
(0.0541226 0.0852745 0)
(0.0826066 0.100105 0)
(0.106463 0.123544 0)
(0.12228 0.158156 0)
(0.125445 0.191603 0)
(0.114316 0.215876 0)
(0.0946542 0.223308 0)
(0.0742764 0.211425 0)
(0.0539819 0.196967 0)
(0.0351785 0.187088 0)
(0.0194 0.181175 0)
(0.00453769 0.175021 0)
(-0.00786472 0.166772 0)
(-0.0173363 0.156324 0)
(-0.0234451 0.142829 0)
(-0.0260382 0.126139 0)
(-0.0262964 0.107468 0)
(-0.0262224 0.0898076 0)
(-0.0256004 0.0744703 0)
(-0.0248099 0.0567123 0)
(-0.0212415 0.0300647 0)
(-0.00176442 -0.0356129 0)
(0.0399824 -0.13998 0)
(0.0850821 -0.219225 0)
(0.118443 -0.275296 0)
(0.128971 -0.305119 0)
(0.133707 -0.306534 0)
(0.145853 -0.32192 0)
(0.159106 -0.346871 0)
(0.16882 -0.356367 0)
(0.17584 -0.338532 0)
(0.180201 -0.307569 0)
(0.178898 -0.274186 0)
(0.173639 -0.242774 0)
(0.173498 -0.21548 0)
(0.168583 -0.181383 0)
(0.162909 -0.146309 0)
(0.169235 -0.117627 0)
(0.17487 -0.101777 0)
(0.194486 -0.10717 0)
(0.219529 -0.141554 0)
(0.220731 -0.201622 0)
(0.22998 -0.250875 0)
(0.246311 -0.279172 0)
(0.260264 -0.293658 0)
(0.278261 -0.297292 0)
(0.298858 -0.291057 0)
(0.317826 -0.275626 0)
(0.339193 -0.25157 0)
(0.353591 -0.215137 0)
(0.348686 -0.16274 0)
(0.33764 -0.0949328 0)
(0.318851 -0.0124113 0)
(0.283094 0.0741123 0)
(0.217627 0.154225 0)
(0.147816 0.223316 0)
(0.0969233 0.271693 0)
(0.0610409 0.307256 0)
(0.0451878 0.322767 0)
(0.0412888 0.315525 0)
(0.0407152 0.287512 0)
(0.0410704 0.243513 0)
(0.0431252 0.188742 0)
(0.0485901 0.121549 0)
(0.0576088 0.0431782 0)
(0.0616595 -0.045837 0)
(0.0706726 -0.147302 0)
(0.0744619 -0.26814 0)
(0.07761 -0.420906 0)
(0.083579 -0.536087 0)
(0.0799375 -0.514434 0)
(0.0952793 -0.424005 0)
(0.103259 -0.348933 0)
(0.0964635 -0.292807 0)
(0.0891833 -0.250143 0)
(0.0867352 -0.221656 0)
(0.0788638 -0.20397 0)
(-0.312518 0.0593706 0)
(-0.368227 0.0441955 0)
(-0.411789 0.017639 0)
(-0.444457 -0.0179184 0)
(-0.464644 -0.0566856 0)
(-0.471721 -0.0941453 0)
(-0.46984 -0.12594 0)
(-0.462012 -0.150977 0)
(-0.451008 -0.168468 0)
(-0.440932 -0.187164 0)
(-0.429445 -0.215001 0)
(-0.420408 -0.250025 0)
(-0.422646 -0.240216 0)
(-0.4152 -0.175773 0)
(-0.392547 -0.0673275 0)
(-0.376562 0.051676 0)
(-0.359621 0.150425 0)
(-0.335107 0.22448 0)
(-0.308723 0.271746 0)
(-0.285409 0.292557 0)
(-0.266429 0.286813 0)
(-0.250705 0.256893 0)
(-0.235583 0.20744 0)
(-0.216741 0.146806 0)
(-0.198493 0.0955687 0)
(-0.18481 0.0725041 0)
(-0.164702 0.0599385 0)
(-0.139822 0.0490668 0)
(-0.117302 0.0393841 0)
(-0.105693 0.0341098 0)
(-0.112979 0.0387813 0)
(-0.134066 0.0598109 0)
(-0.145702 0.0681845 0)
(-0.142066 0.0662438 0)
(-0.126803 0.0615918 0)
(-0.101067 0.0601514 0)
(-0.0702292 0.0639277 0)
(-0.0359776 0.0730551 0)
(0.00421378 0.0894357 0)
(0.0460368 0.115536 0)
(0.0728318 0.151613 0)
(0.0822093 0.186291 0)
(0.0655998 0.208293 0)
(0.035463 0.2032 0)
(0.010176 0.188392 0)
(-0.0107579 0.174607 0)
(-0.0238725 0.164974 0)
(-0.0330157 0.156734 0)
(-0.039421 0.147413 0)
(-0.0433542 0.13656 0)
(-0.0445607 0.123216 0)
(-0.0430657 0.108187 0)
(-0.0401992 0.0927067 0)
(-0.037284 0.079752 0)
(-0.0339969 0.0675174 0)
(-0.0300673 0.0516005 0)
(-0.0214709 0.0200024 0)
(0.00495291 -0.0727511 0)
(0.0498441 -0.17708 0)
(0.0906447 -0.246655 0)
(0.11495 -0.291898 0)
(0.122515 -0.306827 0)
(0.130982 -0.308805 0)
(0.143877 -0.335588 0)
(0.155514 -0.366454 0)
(0.166515 -0.376747 0)
(0.178897 -0.359594 0)
(0.189565 -0.328616 0)
(0.194949 -0.293844 0)
(0.194668 -0.258896 0)
(0.199512 -0.230149 0)
(0.197569 -0.198604 0)
(0.18553 -0.159121 0)
(0.186907 -0.131158 0)
(0.197019 -0.119846 0)
(0.220653 -0.126035 0)
(0.243002 -0.158544 0)
(0.247021 -0.212875 0)
(0.256055 -0.2524 0)
(0.269244 -0.278698 0)
(0.280481 -0.294775 0)
(0.296477 -0.29982 0)
(0.315681 -0.294461 0)
(0.332619 -0.27998 0)
(0.35249 -0.258212 0)
(0.366488 -0.226811 0)
(0.359499 -0.17855 0)
(0.345091 -0.115091 0)
(0.323776 -0.0371339 0)
(0.285409 0.0462654 0)
(0.220306 0.122705 0)
(0.140535 0.19396 0)
(0.0881968 0.248038 0)
(0.0541797 0.287942 0)
(0.0386316 0.309282 0)
(0.0360361 0.30606 0)
(0.0352492 0.278213 0)
(0.0351933 0.233875 0)
(0.0381439 0.177178 0)
(0.0441111 0.110645 0)
(0.0546486 0.0340798 0)
(0.0613309 -0.049674 0)
(0.0755812 -0.150548 0)
(0.0837869 -0.272477 0)
(0.0939576 -0.426948 0)
(0.104919 -0.541503 0)
(0.0943974 -0.5272 0)
(0.10248 -0.43065 0)
(0.109254 -0.352831 0)
(0.0991298 -0.295472 0)
(0.0895668 -0.252705 0)
(0.0839953 -0.223188 0)
(0.0706483 -0.201936 0)
(-0.257455 0.0795296 0)
(-0.324212 0.0631765 0)
(-0.378454 0.0372265 0)
(-0.42245 0.00244792 0)
(-0.453489 -0.0377186 0)
(-0.468122 -0.0783792 0)
(-0.473217 -0.114353 0)
(-0.470221 -0.139203 0)
(-0.459551 -0.155491 0)
(-0.448495 -0.168703 0)
(-0.43744 -0.187408 0)
(-0.427491 -0.216912 0)
(-0.433543 -0.220936 0)
(-0.436543 -0.165885 0)
(-0.418159 -0.0637264 0)
(-0.398468 0.0527336 0)
(-0.37666 0.148912 0)
(-0.350785 0.22035 0)
(-0.325125 0.267736 0)
(-0.302545 0.290762 0)
(-0.282713 0.288028 0)
(-0.264463 0.259293 0)
(-0.242825 0.207429 0)
(-0.217507 0.141957 0)
(-0.20092 0.0927543 0)
(-0.186188 0.0669731 0)
(-0.168789 0.0506517 0)
(-0.160832 0.0418117 0)
(-0.176564 0.0455769 0)
(-0.209002 0.0665393 0)
(-0.226413 0.0817196 0)
(-0.22824 0.0813818 0)
(-0.220336 0.0746465 0)
(-0.20267 0.0670165 0)
(-0.176672 0.0626551 0)
(-0.145039 0.0606477 0)
(-0.109818 0.0629761 0)
(-0.0722424 0.0736481 0)
(-0.0366665 0.090047 0)
(-0.0017236 0.109211 0)
(0.027033 0.141984 0)
(0.0403137 0.177331 0)
(0.0326459 0.201296 0)
(0.00602052 0.200563 0)
(-0.0223928 0.182823 0)
(-0.0480571 0.162771 0)
(-0.0617415 0.146926 0)
(-0.0668021 0.136005 0)
(-0.0671706 0.126617 0)
(-0.0651299 0.116577 0)
(-0.0612412 0.104862 0)
(-0.0557834 0.0920346 0)
(-0.0497145 0.0802322 0)
(-0.0434782 0.0708985 0)
(-0.0366236 0.0610052 0)
(-0.0288413 0.0459533 0)
(-0.0136891 0.00364934 0)
(0.0187316 -0.109801 0)
(0.0600351 -0.206988 0)
(0.0967895 -0.267285 0)
(0.113322 -0.300293 0)
(0.120237 -0.301316 0)
(0.132149 -0.311574 0)
(0.144975 -0.345282 0)
(0.154823 -0.377586 0)
(0.166888 -0.388465 0)
(0.184642 -0.376148 0)
(0.203228 -0.349694 0)
(0.217387 -0.315328 0)
(0.223114 -0.27813 0)
(0.230926 -0.246639 0)
(0.233856 -0.219924 0)
(0.222558 -0.179567 0)
(0.217657 -0.147776 0)
(0.227497 -0.13636 0)
(0.251241 -0.14538 0)
(0.268637 -0.177442 0)
(0.277504 -0.226513 0)
(0.288879 -0.256316 0)
(0.29766 -0.279548 0)
(0.304336 -0.297479 0)
(0.317275 -0.303537 0)
(0.334317 -0.297964 0)
(0.34849 -0.28395 0)
(0.365384 -0.264159 0)
(0.377529 -0.237009 0)
(0.3677 -0.194412 0)
(0.348074 -0.135252 0)
(0.321698 -0.0627826 0)
(0.276973 0.0150295 0)
(0.209056 0.0867934 0)
(0.12419 0.154973 0)
(0.0708819 0.219601 0)
(0.042827 0.267294 0)
(0.0289039 0.296681 0)
(0.0274407 0.296574 0)
(0.0244798 0.267138 0)
(0.0238945 0.222479 0)
(0.0283606 0.166064 0)
(0.0357736 0.100141 0)
(0.0488905 0.0248566 0)
(0.0563044 -0.0560622 0)
(0.0773002 -0.157649 0)
(0.0898183 -0.282236 0)
(0.10676 -0.437254 0)
(0.122843 -0.54436 0)
(0.106172 -0.532067 0)
(0.107156 -0.431097 0)
(0.112803 -0.35095 0)
(0.100324 -0.293715 0)
(0.0890766 -0.25198 0)
(0.0795914 -0.222259 0)
(0.0613735 -0.196463 0)
(-0.194033 0.109415 0)
(-0.269984 0.0907309 0)
(-0.333771 0.0645019 0)
(-0.388944 0.0298153 0)
(-0.431741 -0.0105683 0)
(-0.456573 -0.0544273 0)
(-0.470046 -0.0984713 0)
(-0.474667 -0.125672 0)
(-0.467316 -0.14248 0)
(-0.454877 -0.151218 0)
(-0.443377 -0.159215 0)
(-0.433214 -0.177802 0)
(-0.439253 -0.195269 0)
(-0.450031 -0.150649 0)
(-0.43785 -0.0597911 0)
(-0.416116 0.0551216 0)
(-0.390896 0.147712 0)
(-0.363088 0.217423 0)
(-0.337828 0.264983 0)
(-0.315679 0.289329 0)
(-0.294946 0.287876 0)
(-0.273106 0.257901 0)
(-0.244182 0.203705 0)
(-0.216516 0.134884 0)
(-0.206218 0.0910006 0)
(-0.198468 0.0697203 0)
(-0.206981 0.0680641 0)
(-0.241996 0.0772356 0)
(-0.270309 0.0954937 0)
(-0.279737 0.10193 0)
(-0.277219 0.0974368 0)
(-0.265109 0.0857228 0)
(-0.24363 0.0741955 0)
(-0.212938 0.0608175 0)
(-0.169969 0.0495766 0)
(-0.112375 0.0418153 0)
(-0.0629502 0.0428277 0)
(-0.022638 0.0561272 0)
(0.001133 0.0790194 0)
(0.010051 0.104549 0)
(0.0197391 0.134759 0)
(0.017926 0.173817 0)
(0.0046231 0.203669 0)
(-0.0188282 0.203891 0)
(-0.0465921 0.182932 0)
(-0.0747935 0.155375 0)
(-0.0922822 0.131942 0)
(-0.0968446 0.115458 0)
(-0.0931196 0.104887 0)
(-0.0852453 0.0965792 0)
(-0.0758795 0.0876695 0)
(-0.0659015 0.078193 0)
(-0.0560523 0.0698195 0)
(-0.0458979 0.0630756 0)
(-0.0347154 0.0547232 0)
(-0.0228275 0.0392118 0)
(-0.000207552 -0.0186731 0)
(0.0358426 -0.139973 0)
(0.0739254 -0.229166 0)
(0.104578 -0.280565 0)
(0.116392 -0.301115 0)
(0.125131 -0.296628 0)
(0.139978 -0.315312 0)
(0.154269 -0.351158 0)
(0.166128 -0.382837 0)
(0.181829 -0.395606 0)
(0.200476 -0.389688 0)
(0.221472 -0.363742 0)
(0.24367 -0.334696 0)
(0.256256 -0.29779 0)
(0.265348 -0.262998 0)
(0.274256 -0.238594 0)
(0.270198 -0.203227 0)
(0.258586 -0.166255 0)
(0.261753 -0.155513 0)
(0.282452 -0.16813 0)
(0.2963 -0.199262 0)
(0.310313 -0.239072 0)
(0.326392 -0.261674 0)
(0.329662 -0.279876 0)
(0.329477 -0.301519 0)
(0.338961 -0.306647 0)
(0.353254 -0.299398 0)
(0.363869 -0.286114 0)
(0.377032 -0.268962 0)
(0.38591 -0.245578 0)
(0.371822 -0.209219 0)
(0.345917 -0.154921 0)
(0.311136 -0.0888101 0)
(0.256546 -0.0186221 0)
(0.183385 0.0486298 0)
(0.0992926 0.115661 0)
(0.048151 0.190998 0)
(0.028414 0.249854 0)
(0.0152751 0.284973 0)
(0.0136173 0.285578 0)
(0.00930063 0.255044 0)
(0.00917013 0.209543 0)
(0.0161695 0.154257 0)
(0.0258832 0.0897658 0)
(0.0423131 0.0166984 0)
(0.0505197 -0.0663139 0)
(0.0786832 -0.168446 0)
(0.0953536 -0.297718 0)
(0.117947 -0.448962 0)
(0.137547 -0.543329 0)
(0.114451 -0.528938 0)
(0.109019 -0.424 0)
(0.113563 -0.342779 0)
(0.0995656 -0.287391 0)
(0.0871386 -0.24776 0)
(0.0730873 -0.218283 0)
(0.0507192 -0.186797 0)
(-0.136252 0.157361 0)
(-0.203252 0.126514 0)
(-0.27796 0.100244 0)
(-0.343392 0.0656158 0)
(-0.397781 0.0251231 0)
(-0.435834 -0.0215133 0)
(-0.458211 -0.0729067 0)
(-0.47242 -0.10898 0)
(-0.472805 -0.129481 0)
(-0.458803 -0.135996 0)
(-0.444261 -0.135234 0)
(-0.436263 -0.139852 0)
(-0.436927 -0.156552 0)
(-0.44969 -0.129621 0)
(-0.449565 -0.0535101 0)
(-0.429543 0.05469 0)