/*--------------------------------*- C++ -*----------------------------------*\
  =========                 |
  \\      /  F ield         | OpenFOAM: The Open Source CFD Toolbox
   \\    /   O peration     | Website:  https://openfoam.org
    \\  /    A nd           | Version:  11
     \\/     M anipulation  |
\*---------------------------------------------------------------------------*/
FoamFile
{
    format      ascii;
    class       surfaceScalarField;
    location    "5";
    object      phi;
}
// * * * * * * * * * * * * * * * * * * * * * * * * * * * * * * * * * * * * * //

dimensions      [0 3 -1 0 0 0 0];

internalField   nonuniform List<scalar> 
18960
(
0.0060220843
0.00026111755
-0.0062832019
0.0061988875
-0.00017680312
0.0066000571
-0.00040116962
0.006943299
-0.00034324191
0.0070905921
-0.00014729315
0.0071423163
-5.1724203e-05
0.0071619669
-1.9650609e-05
0.0071782043
-1.6237371e-05
0.0071987676
-2.0563323e-05
0.007225542
-2.6774421e-05
0.0072589091
-3.3367056e-05
0.0072987933
-3.98842e-05
0.0073441548
-4.5361483e-05
0.0073940547
-4.9899925e-05
0.0074425309
-4.847621e-05
0.0074816835
-3.9152542e-05
0.0075135989
-3.1915429e-05
0.0075391493
-2.5550459e-05
0.007554491
-1.5341673e-05
0.0075578604
-3.3693779e-06
0.0075483904
9.4699573e-06
0.0075276154
2.0775013e-05
0.0074983339
2.9281544e-05
0.0074625371
3.579674e-05
0.007424313
3.822413e-05
0.0073786036
4.57094e-05
0.0073276971
5.0906503e-05
0.0072802622
4.7434875e-05
0.007239607
4.0655184e-05
0.0072064611
3.3145947e-05
0.0071794916
2.6969492e-05
0.0071621795
1.7312043e-05
0.0071480228
1.4156717e-05
0.0071463282
1.6946387e-06
0.0071402493
6.0788638e-06
0.0071622755
-2.2026182e-05
0.0071511033
1.1172173e-05
0.0071998484
-4.8745106e-05
0.0069654685
0.00023437991
0.00012250694
0.0068429616
0.0066057572
0.00018731962
-0.0065319593
0.0066772124
-0.00024825831
0.0066441154
-0.00036807265
0.006545375
-0.00024450151
0.0065283732
-0.00013029133
0.0065740309
-9.7381956e-05
0.0066525645
-9.8184151e-05
0.0067416621
-0.00010533499
0.0068286682
-0.00010756939
0.0069154651
-0.00011357137
0.0070037667
-0.00012166867
0.0070932957
-0.00012941314
0.00718256
-0.00013462575
0.0072688744
-0.00013621438
0.0073498726
-0.00012947439
0.0074234539
-0.00011273386
0.0074849337
-9.3395208e-05
0.0075319587
-7.2575487e-05
0.0075627896
-4.6172529e-05
0.0075758871
-1.6466938e-05
0.0075722851
1.3071976e-05
0.0075509947
4.2065411e-05
0.0075125775
6.7698779e-05
0.0074603497
8.8024538e-05
0.0073948745
0.00010369929
0.0073197284
0.00012085549
0.0072406309
0.00013000399
0.0071588953
0.00012917053
0.0070765768
0.00012297363
0.0069955748
0.00011414795
0.0069184883
0.00010405597
0.006842851
9.2949329e-05
0.0067723073
8.4700444e-05
0.0067046089
6.9393094e-05
0.0066281032
8.2584509e-05
0.006557674
4.8403074e-05
0.0064726127
9.6233414e-05
0.0064031418
2.0725804e-05
0.0063679256
0.00026959614
-1.9415467e-05
0.006509848
0.0066357236
3.0722925e-05
-0.0064791269
0.0068114297
-0.00042396441
0.0069660708
-0.00052271384
0.0071127514
-0.00039118202
0.0072298683
-0.00024740826
0.0073009122
-0.0001684259
0.0073406231
-0.000137895
0.0073616496
-0.00012636156
0.0073836353
-0.00012955501
0.0074102663
-0.00014020239
0.0074419164
-0.00015331883
0.0074783115
-0.00016580824
0.007518173
-0.00017448725
0.0075587188
-0.00017676018
0.0075985655
-0.0001693211
0.0076362
-0.00015036834
0.0076670264
-0.00012422155
0.0076891122
-9.4661341e-05
0.0077023801
-5.9440404e-05
0.0077064613
-2.0548157e-05
0.0076989787
2.0554565e-05
0.0076810849
5.9959216e-05
0.0076556684
9.3115298e-05
0.0076241706
0.00011952232
0.007585862
0.00014200787
0.0075439982
0.00016271936
0.0075026915
0.00017131066
0.0074627785
0.00016908355
0.0074259796
0.00015977245
0.0073945198
0.00014560776
0.0073680949
0.0001304809
0.0073507636
0.00011028068
0.0073345111
0.00010095296
0.0073357406
6.8163503e-05
0.0073271961
9.1129085e-05
0.0073451148
3.0484322e-05
0.0073463342
9.5014013e-05
0.0073324239
3.4636161e-05
0.0072705676
0.00033145242
0.00014517171
0.0071059804
0.0070275512
-0.00023570285
-0.0067611255
0.0070691938
-0.000465607
0.0069624756
-0.0004159956
0.0068152966
-0.00024400303
0.0067263481
-0.00015845973
0.0067145768
-0.00015665459
0.0067455831
-0.00016890139
0.0068082822
-0.00018906059
0.0068887931
-0.00021006597
0.0069724858
-0.00022389501
0.0070584247
-0.00023925776
0.0071454566
-0.00025284017
0.0072313211
-0.00026035179
0.0073132631
-0.00025870213
0.0073890131
-0.00024507111
0.0074560238
-0.00021737907
0.0075119426
-0.00018014032
0.0075544179
-0.00013713661
0.0075817619
-8.6784426e-05
0.0075926735
-3.1459757e-05
0.0075904108
2.2817294e-05
0.007573569
7.6800964e-05
0.0075397816
0.0001269027
0.0074931127
0.00016619119
0.0074340349
0.00020108573
0.0073652534
0.00023150081
0.0072903848
0.00024617928
0.0072115501
0.00024791821
0.007130564
0.00024075858
0.0070493169
0.00022685486
0.0069699543
0.00020984353
0.0068929179
0.00018731708
0.0068174222
0.00017644864
0.0067521883
0.00013339737
0.0066774552
0.00016586217
0.0066182939
8.9645622e-05
0.0065667679
0.00014653998
0.0065601363
4.126783e-05
0.0066374806
0.00025410809
1.3936458e-05
0.0067687159
0.0070454919
-0.000374605
-0.0069065897
0.0070043961
-0.00042451125
0.0069853495
-0.000396949
0.0070651911
-0.0003238446
0.0071824761
-0.00027574473
0.0072797019
-0.0002538804
0.0073448099
-0.00023400936
0.0073877268
-0.00023197754
0.0074152645
-0.00023760361
0.0074439803
-0.00025261082
0.0074753965
-0.00027067395
0.0075094219
-0.00028686562
0.0075451365
-0.00029606642
0.007580743
-0.00029430863
0.0076147754
-0.00027910347
0.0076456766
-0.00024828031
0.0076713474
-0.0002058111
0.0076895386
-0.00015532781
0.007700408
-9.7653822e-05
0.0077050004
-3.6052092e-05
0.0076983745
2.9443188e-05
0.0076814118
9.376361e-05
0.0076595809
0.00014873363
0.0076325431
0.00019322896
0.0075998472
0.00023378168
0.007563939
0.00026740895
0.0075274716
0.00028264666
0.0074918887
0.00028350116
0.0074585115
0.00027413581
0.0074291434
0.00025622291
0.0074036009
0.00023538609
0.0073868306
0.00020408734
0.0073692611
0.00019401817
0.0073660136
0.00013664478
0.0073620825
0.00016979336
0.0073553011
9.6426933e-05
0.0073325632
0.00016927794
0.0072648161
0.00010901493
0.0072028024
0.00031612179
0.00013427868
0.0070824602
0.0072012747
-0.00043599128
-0.0071398884
0.0071532468
-0.00037648334
0.0070774925
-0.00032119472
0.0069780631
-0.00022441526
0.0068961451
-0.00019382667
0.0068598987
-0.00021763406
0.0068663744
-0.00024048497
0.0069013079
-0.00026691109
0.0069620834
-0.00029837908
0.0070392247
-0.0003297521
0.0071209581
-0.00035240741
0.007203877
-0.0003697845
0.0072851681
-0.00037735749
0.0073621925
-0.00037133304
0.007432545
-0.00034945598
0.0074936876
-0.00030942292
0.0075442183
-0.00025634178
0.0075819769
-0.00019308644
0.0076053563
-0.00012103317
0.0076134312
-4.4127023e-05
0.0076105823
3.2292023e-05
0.0075997385
0.00010460745
0.0075717574
0.0001767147
0.0075304338
0.00023455256
0.0074769243
0.00028729126
0.0074141556
0.00033017759
0.0073443882
0.00035241408
0.0072693148
0.00035857452
0.0071903847
0.00035306591
0.0071102864
0.00033632117
0.0070297407
0.0003159318
0.0069533668
0.00028046131
0.006876182
0.00027120289
0.0068095303
0.00020329654
0.006749955
0.00022936866
0.0067025234
0.00014385855
0.0066850219
0.00018677941
0.0067136211
8.0415749e-05
0.0067958786
0.00023386429
4.234799e-05
0.0068878092
0.0071680135
-0.00040233938
-0.0072016654
0.0070653324
-0.0002738022
0.0070048312
-0.00026069357
0.0070546107
-0.00027419472
0.0071530733
-0.00029228927
0.007254922
-0.00031948284
0.0073320841
-0.00031764707
0.0073908793
-0.00032570625
0.0074343495
-0.00034184925
0.0074690981
-0.00036450071
0.0075027993
-0.00038610867
0.007536344
-0.00040332917
0.007569736
-0.00041074947
0.0076018364
-0.00040343341
0.0076315567
-0.00037917628
0.0076576605
-0.00033552673
0.0076789615
-0.0002776428
0.0076939503
-0.00020807529
0.0077038087
-0.0001308915
0.0077076179
-4.7936212e-05
0.0077023147
3.7595207e-05
0.0076856813
0.00012124079
0.0076668895
0.00019550656
0.0076433168
0.00025812527
0.0076145649
0.00031604309
0.0075829865
0.00036175597
0.0075503577
0.00038504291
0.0075178403
0.00039109195
0.0074867425
0.00038416374
0.007458733
0.00036433066
0.0074332994
0.00034136538
0.0074152474
0.00029851326
0.0073963233
0.00029012704
0.007384072
0.00021554784
0.0073728383
0.00024060239
0.0073402231
0.00017647374
0.0072918879
0.00023511457
0.0072031029
0.00016920076
0.0071401584
0.00029680883
0.00013206163
0.0070504447
0.0071919914
-0.00036491313
-0.0072294177
0.0071443776
-0.00022618835
0.0071161578
-0.00023247381
0.0070697776
-0.00022781455
0.007025682
-0.00024819359
0.0069899801
-0.00028378094
0.0069867207
-0.00031438766
0.0070094866
-0.00034847223
0.0070535159
-0.00038587851
0.0071180085
-0.00042899326
0.0071928445
-0.00046094475
0.0072700651
-0.0004805497
0.0073457327
-0.00048641709
0.0074169742
-0.0004746749
0.0074813963
-0.00044359839
0.0075368541
-0.00039098454
0.0075819509
-0.00032273957
0.0076153938
-0.00024151819
0.0076360263
-0.00015152405
0.0076421017
-5.4011584e-05
0.0076383054
4.1391512e-05
0.0076301676
0.0001293786
0.0076072549
0.00021841919
0.0075718647
0.00029351554
0.0075242248
0.00036368297
0.0074677624
0.00041821839
0.0074036709
0.0004491344
0.0073332842
0.0004614786
0.0072576602
0.00045978777
0.0071802133
0.00044177749
0.0071000954
0.00042148328
0.0070249785
0.00037363021
0.0069498905
0.00036521503
0.0068854562
0.00027998209
0.0068344113
0.00029164734
0.0068066913
0.00020419376
0.006811159
0.00023064683
0.0068485264
0.00013183334
0.0069085491
0.00023678611
7.6217201e-05
0.0069643936
0.0071551838
-0.00030555522
-0.0072145417
0.0070996255
-0.00017063005
0.0070621662
-0.00019501457
0.0070696836
-0.00023533189
0.0071442655
-0.00032277554
0.0072345692
-0.00037408465
0.0073172716
-0.00039708999
0.0073852967
-0.00041649741
0.0074421726
-0.0004427544
0.0074872132
-0.00047403385
0.007525624
-0.0004993555
0.0075606068
-0.00051553256
0.0075934387
-0.00051924901
0.0076236983
-0.00050493443
0.0076506185
-0.00047051865
0.0076734681
-0.00041383413
0.007691437
-0.00034070849
0.0077039665
-0.00025404767
0.0077116157
-0.0001591732
0.0077170052
-5.9401118e-05
0.0077125713
4.5825387e-05
0.0076962188
0.00014573114
0.0076792305
0.00023540752
0.0076578984
0.00031484762
0.007631899
0.00038968235
0.0076035006
0.0004466168
0.0075732704
0.00047936456
0.0075426134
0.00049213566
0.0075125546
0.00048984649
0.0074848486
0.00046948355
0.0074586765
0.00044765538
0.0074366766
0.00039563008
0.0074153084
0.00038658323
0.0073921087
0.00030318184
0.007367213
0.00031654296
0.0073135483
0.00025785849
0.0072506686
0.00029352658
0.0071623538
0.00022014814
0.0071064419
0.00029269797
0.00014307759
0.0070395815
0.0071515789
-0.00027037934
-0.0071867548
0.0071329174
-0.00015196853
0.0071279468
-0.00019004397
0.0071248165
-0.00023220157
0.0071164104
-0.00031436944
0.0071015233
-0.00035919757
0.0070977051
-0.00039327182
0.0071162996
-0.00043509193
0.007155685
-0.00048213979
0.0072103833
-0.00052873213
0.0072750301
-0.00056400228
0.0073444186
-0.00058492102
0.0074132753
-0.00058810579
0.0074780151
-0.00056967416
0.0075359697
-0.0005284733
0.0075853174
-0.00046318177
0.0076247771
-0.00038016819
0.0076540396
-0.00028331024
0.0076716481
-0.00017678165
0.0076752619
-6.3014959e-05
0.0076731456
4.7941739e-05
0.0076671719
0.00015170483
0.0076463773
0.00025620209
0.0076156229
0.00034560206
0.0075747143
0.00043059087
0.0075253274
0.0004960037
0.0074678163
0.00053687572
0.0074029468
0.00055700516
0.007331924
0.00056086928
0.0072582334
0.00054317417
0.0071806869
0.00052520184
0.0071080529
0.00046826405
0.0070368768
0.00045775936
0.0069778953
0.0003621633
0.0069349665
0.00035947182
0.0069208963
0.00027192861
0.0069311808
0.00028324211
0.0069583803
0.00019294867
0.0069915639
0.00025951429
0.00012154423
0.0070130973
0.007143795
-0.00024691148
-0.0071672628
0.0071296192
-0.00013779277
0.0071152484
-0.00017567313
0.0071271136
-0.00024406678
0.0071660279
-0.00035328375
0.0072336161
-0.00042678576
0.0073108745
-0.00047053026
0.0073846998
-0.00050891726
0.0074489779
-0.00054641785
0.0075015307
-0.00058128493
0.0075458593
-0.00060833087
0.0075843081
-0.00062336985
0.007618346
-0.0006221437
0.0076483237
-0.0005996518
0.0076738734
-0.00055402303
0.0076946213
-0.00048392968
0.0077103564
-0.00039590328
0.0077209582
-0.00029391208
0.0077274358
-0.00018325926
0.0077327256
-6.8304767e-05
0.0077294752
5.1192219e-05
0.0077138034
0.00016737664
0.0076981069
0.0002718986
0.0076777944
0.00036591448
0.0076540855
0.00045429976
0.0076278709
0.00052221835
0.0075988921
0.00056585453
0.0075691133
0.00058678393
0.0075384928
0.00059148974
0.0075100301
0.00057163691
0.0074812748
0.00055395713
0.0074544996
0.00049503924
0.0074267808
0.00048547816
0.0073924476
0.00039649654
0.0073511533
0.00040076606
0.00728804
0.00033504194
0.007223434
0.00034784815
0.0071470231
0.00026935952
0.0071010815
0.00030545588
0.00017173817
0.0070508876
0.0071406154
-0.00023703109
-0.0071504958
0.007140914
-0.00013809134
0.0071495426
-0.00018430174
0.0071682185
-0.00026274264
0.0071838091
-0.00036887434
0.0071917174
-0.00043469408
0.0072025935
-0.00048140635
0.0072247636
-0.00053108737
0.0072602168
-0.00058187109
0.0073076794
-0.00062874752
0.0073648003
-0.00066545178
0.007426342
-0.00068491152
0.0074878268
-0.00068362849
0.0075454074
-0.00065723245
0.0075962752
-0.00060489078
0.0076389174
-0.00052657195
0.0076725797
-0.00042956555
0.0076971063
-0.00031843865
0.0077115169
-0.00019766988
0.0077130059
-6.9793718e-05
0.0077100761
5.4121967e-05
0.0077058476
0.0001716051
0.007689412
0.00028833427
0.0076630856
0.00039224084
0.0076287726
0.00048861277
0.0075866009
0.00056439005
0.00753619
0.0006162654
0.0074776806
0.00064529334
0.0074126884
0.00065648198
0.0073435495
0.00064077574
0.0072706082
0.00062689844
0.0072017789
0.00056386858
0.0071356464
0.00055161068
0.0070823347
0.0004498082
0.0070472575
0.00043584328
0.0070352839
0.00034701553
0.007038475
0.00034465706
0.0070473374
0.00026049711
0.0070560973
0.00029669597
0.0001748971
0.0070529384
0.0071449761
-0.00023934039
-0.0071426668
0.0071554751
-0.00014859033
0.007164047
-0.00019287367
0.0071760447
-0.00027474036
0.007210441
-0.00040327061
0.007259054
-0.00048330706
0.0073251778
-0.00054753017
0.0073957199
-0.00060162943
0.0074613331
-0.00064748432
0.0075193476
-0.00068676206
0.0075687324
-0.00071483656
0.0076114402
-0.00072761932
0.0076476307
-0.00071981891
0.0076783857
-0.00068798748
0.0077035527
-0.00063005777
0.0077231369
-0.00054615614
0.0077373771
-0.00044380582
0.0077464804
-0.0003275419
0.0077517169
-0.0002029064
0.0077566866
-7.4763441e-05
0.0077542258
5.6582793e-05
0.0077399685
0.00018586239
0.0077251344
0.00030316838
0.0077057084
0.00041166688
0.0076838112
0.00051050999
0.0076586662
0.00058953504
0.0076304129
0.00064451867
0.0076001579
0.00067554829
0.0075683417
0.00068829826
0.0075372517
0.00067186569
0.0075048714
0.00065927878
0.007472374
0.00059636593
0.0074363901
0.00058759462
0.0073914568
0.00049474146
0.007338326
0.00048897414
0.0072768973
0.00040844426
0.0072152402
0.00040631408
0.0071536015
0.00032213581
0.0071163568
0.00033394073
0.00021492893
0.0070763249
0.0071506518
-0.00025077272
-0.0071392195
0.0071657025
-0.00016364099
0.0071809624
-0.00020813356
0.007205681
-0.000299459
0.0072391531
-0.00043674277
0.0072697457
-0.0005138996
0.0072966371
-0.00057442164
0.0073263281
-0.00063132038
0.0073634643
-0.00068462056
0.0074083006
-0.00073159829
0.0074601184
-0.00076665443
0.0075147122
-0.00078221307
0.0075690434
-0.00077415007
0.0076190674
-0.00073801154
0.0076623231
-0.00067331343
0.0076978644
-0.00058169744
0.0077252975
-0.00047123896
0.0077447366
-0.00034698099
0.0077558194
-0.00021398919
0.0077555451
-7.4489133e-05
0.0077518807
6.0247176e-05
0.0077481321
0.00018961103
0.007735101
0.00031619939
0.0077136571
0.00043311087
0.0076856689
0.00053849813
0.007651116
0.00062408794
0.0076077584
0.00068787626
0.0075570754
0.00072623125
0.0074983205
0.0007470532
0.0074353966
0.00073478955
0.0073681125
0.00072656291
0.0073042324
0.00066024602
0.0072431718
0.00064865523
0.0071954884
0.00054242483
0.0071611829
0.00052327971
0.0071426465
0.0004269806
0.0071326295
0.00041633108
0.0071213732
0.00033339215
0.0071103706
0.0003449433
0.00023412317
0.0070911764
0.0071604309
-0.00026880778
-0.0071423958
0.0071819956
-0.00018520571
0.0072071375
-0.00023327544
0.0072323623
-0.00032468386
0.0072641393
-0.00046851969
0.0073069358
-0.00055669614
0.0073618016
-0.00062928746
0.0074245203
-0.00069403909
0.0074881378
-0.000748238
0.0075478229
-0.00079128345
0.0076006791
-0.00081951066
0.0076465983
-0.00082813221
0.0076850573
-0.00081260912
0.0077170662
-0.00077002041
0.0077422182
-0.00069846543
0.0077611175
-0.00060059676
0.0077742239
-0.00048434536
0.0077819874
-0.00035474452
0.0077858315
-0.00021783324
0.0077898285
-7.8486101e-05
0.0077876936
6.2382058e-05
0.0077760729
0.00020123173
0.0077624248
0.00032984747
0.0077443858
0.00045114987
0.0077233639
0.00055952003
0.0076981183
0.00064933355
0.0076704095
0.00071558506
0.0076392366
0.00075740414
0.0076056849
0.00078060494
0.0075711508
0.00076932365
0.0075343235
0.00076339018
0.007494938
0.00069963147
0.00745266
0.00069093325
0.0073996976
0.00059538726
0.0073407636
0.00058221372
0.0072829301
0.00048481412
0.0072292075
0.00047005365
0.0071805945
0.00038200517
0.0071475199
0.0003780179
0.00026877285
0.0071128702
0.0071721573
-0.00028984547
-0.0071511197
0.007199685
-0.00021273336
0.0072295742
-0.00026316464
0.0072565659
-0.00035167559
0.007295448
-0.00050740177
0.0073370995
-0.00059834765
0.0073779765
-0.00067016448
0.0074194437
-0.00073550625
0.0074626994
-0.00079149369
0.0075090876
-0.00083767169
0.0075580154
-0.00086843841
0.0076079962
-0.00087811305
0.0076553379
-0.00085995085
0.0076983526
-0.00081303508
0.0077341686
-0.00073428145
0.0077623593
-0.00062878744
0.0077832847
-0.00050527076
0.0077973169
-0.00036877671
0.007804806
-0.00022532236
0.0078033427
-7.702282e-05
0.0077989458
6.6778961e-05
0.0077944579
0.00020571964
0.0077838469
0.00034045848
0.007767358
0.00046763875
0.0077454245
0.00058145359
0.0077173293
0.00067742872
0.0076820479
0.00075086642
0.0076391606
0.00080029149
0.0075881995
0.00083156607
0.0075319694
0.00082555376
0.0074709655
0.00082439405
0.0074117535
0.00075884344
0.0073558351
0.0007468517
0.0073099842
0.00064123815
0.0072715212
0.00062067673
0.0072401168
0.00051621845
0.0072142012
0.00049596923
0.0071870191
0.00040918732
0.0071626537
0.00040238325
0.00029747098
0.0071339556
0.0071867156
-0.00031504531
-0.0071615157
0.007220055
-0.00024607275
0.0072545536
-0.00029766325
0.007286968
-0.00038408998
0.0073281718
-0.00054860565
0.0073706817
-0.00064085748
0.0074189205
-0.00071840328
0.0074752292
-0.00079181498
0.0075353064
-0.00085157086
0.0075938831
-0.00089624841
0.0076482155
-0.00092277082
0.0076952542
-0.00092515175
0.0077354811
-0.00090017772
0.0077674182
-0.00084497223
0.0077925996
-0.00075946281
0.0078113959
-0.00064758382
0.0078230742
-0.00051694903
0.0078292186
-0.00037492111
0.007831227
-0.00022733081
0.0078330663
-7.8862044e-05
0.0078304207
6.9424539e-05
0.0078218994
0.00021424097
0.0078102503
0.00035210758
0.0077957966
0.00048209238
0.0077766592
0.00060059103
0.007753556
0.00070053193
0.0077246707
0.00077975166
0.0076919791
0.00083298315
0.0076554772
0.00086806798
0.0076168458
0.00086418518
0.0075757516
0.00086548823
0.0075300231
0.00080457197
0.0074820798
0.00079479491
0.007426353
0.00069696503
0.0073700458
0.0006769839
0.0073139935
0.0005722707
0.0072658358
0.00054412696
0.0072242815
0.00045074162
0.0071914707
0.00043519403
0.00033099128
0.0071579504
0.0072053628
-0.0003460395
-0.0071743686
0.0072438096
-0.0002845196
0.0072827092
-0.00033656281
0.0073201953
-0.00042157608
0.0073619061
-0.00059031648
0.0074060028
-0.00068495414
0.007455394
-0.0007677945
0.0075075119
-0.00084393283
0.0075585534
-0.00090261242
0.0076084877
-0.00094618268
0.0076572468
-0.00097152997
0.007704376
-0.0009722809
0.0077474423
-0.00094324405
0.0077844652
-0.00088199513
0.007813334
-0.00078833159
0.0078348874
-0.00066913727
0.0078485098
-0.00053057137
0.0078561525
-0.00038256384
0.0078594075
-0.00023058578
0.0078569352
-7.6389728e-05
0.0078525483
7.3811436e-05
0.0078471621
0.00021962714
0.0078380739
0.00036119578
0.0078253115
0.00049485476
0.0078087052
0.00061719733
0.007787406
0.00072183116
0.0077594712
0.00080768649
0.0077241504
0.00086830392
0.0076804078
0.00091181054
0.0076300976
0.00091449539
0.0075761672
0.00091941862
0.0075205389
0.00086020033
0.0074678353
0.00084749849
0.0074181168
0.00074668352
0.0073733309
0.00072176982
0.0073303027
0.00061529891
0.0072892535
0.0005851761
0.0072509993
0.00048899585
0.0072175171
0.00046867627
0.00036550864
0.0071829997
0.0072282805
-0.00038303659
-0.0071912834
0.0072713099
-0.00032754894
0.0073135908
-0.00037884372
0.0073559188
-0.00046390406
0.0073971477
-0.00063154541
0.0074456512
-0.00073345767
0.0074986752
-0.00082081842
0.0075523018
-0.00089755947
0.0076079521
-0.00095826275
0.0076642631
-0.0010024937
0.0077179953
-0.0010252621
0.0077662038
-0.0010204894
0.0078062243
-0.00098326455
0.0078379419
-0.00091371273
0.0078609089
-0.00081129853
0.0078759922
-0.0006842206
0.0078850057
-0.00053958483
0.0078884086
-0.00038596674
0.0078878431
-0.00023002029
0.007886616
-7.5162668e-05
0.0078831477
7.7279734e-05
0.0078765816
0.00022619328
0.0078684126
0.00036936471
0.0078574817
0.00050578564
0.0078435321
0.00063114697
0.0078241765
0.00074118673
0.007798399
0.00083346402
0.0077664226
0.00090028031
0.0077286387
0.00094959441
0.0076856607
0.00095747338
0.007638946
0.00096613335
0.0075880809
0.00091106549
0.0075356411
0.00089993827
0.0074798111
0.00080251351
0.0074252857
0.00077629523
0.0073739725
0.00066661208
0.0073266589
0.00063248973
0.0072842108
0.00053144395
0.0072476425
0.0005052445
0.00040175889
0.0072113923
0.0072541569
-0.00042525841
-0.0072119351
0.0073020929
-0.00037548494
0.0073476405
-0.00042439138
0.0073945324
-0.00051079596
0.0074369353
-0.00067394825
0.0074882957
-0.0007848181
0.0075414718
-0.00087399449
0.0075975813
-0.000953669
0.0076553147
-0.0010159961
0.0077110795
-0.0010582585
0.0077627382
-0.0010769209
0.007808558
-0.0010663093
0.0078477839
-0.0010224904
0.007878495
-0.00094442378
0.0079004154
-0.00083321899
0.0079141079
-0.00069791307
0.0079204848
-0.00054596173
0.0079221265
-0.00038760845
0.0079207618
-0.00022865559
0.0079174106
-7.181144e-05
0.0079130356
8.1654741e-05
0.0079078773
0.00023135156
0.0079010441
0.00037619789
0.0078924536
0.00051437613
0.0078805553
0.00064304529
0.0078640263
0.00075771572
0.0078413912
0.00085609914
0.0078119682
0.00092970327
0.0077753611
0.00098620152
0.0077322523
0.0010005822
0.0076823402
0.0010160455
0.0076293762
0.00096402949
0.0075739311
0.00095538338
0.0075197693
0.00085667525
0.0074659035
0.000830161
0.0074143582
0.00071815745
0.0073653757
0.0006814722
0.0073203588
0.00057646086
0.0072805804
0.00054502287
0.00044003234
0.007242307
0.0072833527
-0.00047207629
-0.0072365349
0.0073360182
-0.00042815034
0.0073854204
-0.00047379366
0.0074355117
-0.00056088727
0.0074810035
-0.00071944003
0.0075350485
-0.00083886313
0.0075910382
-0.00092998416
0.007648912
-0.0010115428
0.0077072816
-0.0010743657
0.0077639621
-0.001114939
0.0078168112
-0.0011297699
0.0078634167
-0.0011129148
0.0079013026
-0.0010603763
0.0079290901
-0.00097221126
0.0079475508
-0.00085167971
0.0079572165
-0.00070757874
0.0079601219
-0.00054886718
0.0079587034
-0.00038618988
0.007955189
-0.00022514121
0.0079507407
-6.7363184e-05
0.0079461854
8.6210051e-05
0.0079413942
0.00023614277
0.0079361148
0.00038147729
0.0079298162
0.00052067475
0.0079206439
0.00065221758
0.0079071069
0.00077125275
0.0078872302
0.0008759758
0.0078604913
0.00095644215
0.0078256209
0.0010210719
0.0077842861
0.001041917
0.0077351134
0.0010652181
0.007683524
0.0010156189
0.0076266689
0.0010122385
0.0075698729
0.00091347119
0.0075129462
0.00088708773
0.0074581302
0.00077297349
0.0074064542
0.00073314814
0.0073592594
0.00062365568
0.0073167622
0.00058752009
0.00047996932
0.0072768252
0.0073155449
-0.00052347708
-0.0072641441
0.0073729901
-0.00048559561
0.0074272577
-0.00052806121
0.0074813877
-0.00061501729
0.0075310339
-0.00076908624
0.0075860353
-0.00089386448
0.0076443894
-0.00098833824
0.0077051806
-0.0010723341
0.0077663311
-0.0011355162
0.0078247619
-0.0011733698
0.0078778143
-0.0011828223
0.0079229228
-0.0011580233
0.0079583465
-0.0010958001
0.0079831115
-0.00099697621
0.0079976461
-0.00086621429
0.008003552
-0.00071348464
0.0080027011
-0.00054801628
0.0079980822
-0.00038157106
0.0079920852
-0.00021914412
0.0079863516
-6.1629626e-05
0.0079814625
9.1099164e-05
0.0079775081
0.00024009712
0.0079742154
0.00038476998
0.0079700411
0.00052484914
0.0079636846
0.00065857407
0.0079533259
0.00078161139
0.0079368631
0.00089243862
0.0079135303
0.00097977495
0.0078811283
0.0010534739
0.0078419225
0.0010811228
0.0077929873
0.0011141533
0.0077408456
0.0010677607
0.0076830255
0.0010700586
0.0076244859
0.00097201074
0.0075659485
0.0009456251
0.0075083715
0.00083055052
0.0074530564
0.00078846323
0.007402335
0.00067437706
0.0073562813
0.00063357384
0.00052122484
0.0073150258
0.0073518815
-0.00057977274
-0.0072955858
0.0074136026
-0.00054731668
0.007474558
-0.00058901665
0.0075322571
-0.00067271641
0.007585484
-0.00082231307
0.0076425578
-0.00095093833
0.0077051022
-0.0010508826
0.0077689046
-0.0011361365
0.0078313085
-0.0011979201
0.0078905113
-0.0012325726
0.0079438421
-0.0012361531
0.0079883568
-0.0012025379
0.0080216471
-0.0011290904
0.0080426686
-0.0010179977
0.0080527125
-0.00087625817
0.0080537392
-0.00071451137
0.0080485405
-0.00054281756
0.0080403886
-0.00037341919
0.008031844
-0.00021059956
0.0080245644
-5.4349963e-05
0.0080192685
9.6395044e-05
0.0080162662
0.00024309942
0.0080143866
0.00038664952
0.0080126839
0.00052655193
0.0080095814
0.00066167653
0.0080031089
0.00078808388
0.00799066
0.00090488749
0.0079710779
0.0009993571
0.0079418221
0.0010827297
0.0079048585
0.0011180865
0.0078576706
0.0011613412
0.0078051324
0.0011202989
0.0077465161
0.001128675
0.0076854374
0.0010330894
0.0076235467
0.0010075158
0.0075629654
0.00089113182
0.0075042496
0.00084717909
0.0074500501
0.00072857651
0.00739962
0.00068400401
0.00056402911
0.0073568157
0.0073932428
-0.00064034276
-0.0073326728
0.0074597407
-0.00061381457
0.0075265939
-0.00065586978
0.0075883011
-0.00073442365
0.0076462522
-0.00088026417
0.0077068204
-0.0010115065
0.007772575
-0.0011166373
0.0078385307
-0.0012020922
0.0079037644
-0.0012631538
0.0079655398
-0.001294348
0.0080193234
-0.0012899367
0.0080619292
-0.0012451437
0.0080914547
-0.0011586159
0.0081076746
-0.0010342177
0.0081120565
-0.00088064
0.008107703
-0.00071015789
0.0080976302
-0.00053274479
0.0080853104
-0.00036109935
0.0080740605
-0.00019934972
0.00806508
-4.5369399e-05
0.0080594909
0.00010198407
0.0080570591
0.00024553123
0.0080570563
0.00038665233
0.0080583712
0.00052523702
0.0080589237
0.00066112403
0.0080566295
0.00079037812
0.0080486906
0.00091282639
0.0080336253
0.0010144224
0.0080086229
0.0011077321
0.0079742783
0.0011524311
0.0079294071
0.0012062124
0.0078763223
0.0011733838
0.0078168582
0.001188139
0.0077545632
0.0010953844
0.0076898611
0.0010722178
0.0076260048
0.00095498813
0.007563282
0.00090990194
0.0075045703
0.00078728817
0.0074488144
0.00073975994
0.00060965313
0.0074031904
0.0074400568
-0.00070414894
-0.0073762506
0.0075114578
-0.00068521556
0.0075835167
-0.00072792873
0.0076518349
-0.00080274188
0.007713974
-0.00094240318
0.007779326
-0.0010768586
0.0078490147
-0.001186326
0.0079191093
-0.0012721868
0.0079872426
-0.0013312871
0.0080500825
-0.0013571879
0.0081032669
-0.0013431212
0.0081435477
-0.0012854245
0.0081688545
-0.0011839226
0.0081792511
-0.0010446143
0.0081768821
-0.00087827098
0.0081659737
-0.00069924954
0.0081503194
-0.00051709044
0.0081334612
-0.00034424118
0.0081178531
-0.00018374163
0.0081081618
-3.5678127e-05
0.0081023408
0.00010780514
0.0081005832
0.00024728882
0.0081025402
0.00038469526
0.0081068188
0.00052095845
0.0081114375
0.00065650534
0.0081139406
0.00078787497
0.0081115362
0.00091523079
0.0081015655
0.0010243931
0.0080819153
0.0011273823
0.0080511339
0.0011832125
0.0080092938
0.0012480524
0.0079573714
0.0012253062
0.007896754
0.0012487563
0.0078324273
0.0011597112
0.0077641526
0.0011404925
0.0076962948
0.0010228459
0.007629422
0.00097677475
0.0075664662
0.00085024399
0.0075053443
0.00080088179
0.00065917173
0.0074558257
0.0074921977
-0.00076998116
-0.0074263655
0.0075687474
-0.00076176532
0.0076472961
-0.0008064774
0.0077230256
-0.00087847136
0.0077913391
-0.0010107167
0.0078627959
-0.0011483154
0.0079369057
-0.0012604357
0.0080111241
-0.0013464053
0.0080823843
-0.0014025473
0.0081467496
-0.0014215531
0.0081991724
-0.001395544
0.0082359289
-0.001322181
0.0082551121
-0.0012031058
0.0082577389
-0.0010472411
0.0082468728
-0.00086740495
0.0082278246
-0.00068020133
0.0082055904
-0.00049485622
0.0081850266
-0.00032367741
0.0081680019
-0.00016671687
0.0081524587
-2.0134994e-05
0.0081452468
0.00011501704
0.0081447301
0.00024780551
0.0081494729
0.00037995244
0.0081576079
0.00051282352
0.0081669495
0.00064716373
0.0081749316
0.0007798929
0.0081788137
0.00091134869
0.0081753654
0.0010278413
0.0081619298
0.0011408179
0.0081366825
0.0012084598
0.0080980986
0.0012866363
0.0080485477
0.0012748571
0.0079868727
0.0013104313
0.0079203668
0.0012262171
0.0078488606
0.0012119987
0.0077771084
0.001094598
0.0077054671
0.0010484161
0.0076375808
0.00091813031
0.0075706901
0.00086777247
0.00071407903
0.0075157828
0.0075505099
-0.00083646057
-0.0074840304
0.0076335301
-0.0008447856
0.0077197131
-0.00089266041
0.0078049202
-0.0009636784
0.007881297
-0.0010870935
0.0079589445
-0.0012259629
0.0080387075
-0.0013401987
0.0081179759
-0.0014256736
0.0081925991
-0.0014771705
0.0082576018
-0.0014865558
0.0083078248
-0.001445767
0.0083393544
-0.0013537105
0.0083504886
-0.00121424
0.0083434198
-0.0010401723
0.0083227768
-0.00084676195
0.0082942686
-0.00065169319
0.0082633541
-0.00046394166
0.008233434
-0.00029375737
0.0082106286
-0.00014391148
0.0082010708
-1.0577125e-05
0.0081953108
0.00012077701
0.0081957915
0.00024732482
0.0082019912
0.00037375276
0.0082127253
0.0005020894