/*--------------------------------*- C++ -*----------------------------------*\
  =========                 |
  \\      /  F ield         | OpenFOAM: The Open Source CFD Toolbox
   \\    /   O peration     | Website:  https://openfoam.org
    \\  /    A nd           | Version:  11
     \\/     M anipulation  |
\*---------------------------------------------------------------------------*/
FoamFile
{
    format      ascii;
    class       volVectorField;
    location    "5";
    object      U;
}
// * * * * * * * * * * * * * * * * * * * * * * * * * * * * * * * * * * * * * //

dimensions      [0 1 -1 0 0 0 0];

internalField   nonuniform List<vector> 
9600
(
(0.090470605 0.0017415795 -3.2802027e-23)
(0.084031217 -0.0015020219 3.2796816e-23)
(0.085477468 -0.0041232581 -3.4306447e-23)
(0.091069554 -0.0060922866 3.4337538e-23)
(0.094700625 -0.005876805 -2.8362739e-23)
(0.096810169 -0.0053095106 2.8363138e-23)
(0.09807033 -0.0047802652 0)
(0.098979486 -0.0043823725 0)
(0.099787908 -0.0040785793 0)
(0.10059444 -0.003836364 0)
(0.10144174 -0.0036226004 0)
(0.1023447 -0.0034158511 4.9674942e-25)
(0.10330724 -0.0032060604 -4.967491e-25)
(0.1042861 -0.0029861888 -5.8197583e-24)
(0.10525244 -0.0027344107 5.81976e-24)
(0.10616239 -0.002439004 0)
(0.10692559 -0.0021334169 -7.548628e-24)
(0.10754541 -0.0018093703 7.5486354e-24)
(0.10802269 -0.0014558246 2.4518382e-24)
(0.10829914 -0.0010686045 -2.4518425e-24)
(0.10833487 -0.00068375314 -2.6841605e-24)
(0.10811533 -0.00027569093 8.0018095e-24)
(0.10768362 0.00014755235 4.9041309e-24)
(0.10707532 0.00054925158 -6.4804119e-25)
(0.10636313 0.00091282765 -1.8325415e-23)
(0.10557694 0.0012749296 -6.7928159e-24)
(0.10468255 0.0016124352 1.5544492e-23)
(0.10375449 0.0018946176 0)
(0.10285985 0.0021425811 0)
(0.10201405 0.0023689217 0)
(0.10125691 0.0026099281 0)
(0.10056101 0.0027675008 0)
(0.099987848 0.0030736774 -6.7371498e-24)
(0.099402071 0.0031162345 6.737148e-24)
(0.09900654 0.0035464858 4.2801287e-24)
(0.09833635 0.0035729252 -4.2791503e-24)
(0.098052176 0.0042448332 3.7492533e-24)
(0.09687885 0.0043529319 -3.7484112e-24)
(0.095976321 0.006247271 0)
(0.086204461 0.0061725687 0)
(0.095249532 0.00047285231 3.086387e-23)
(0.094950372 -3.4826218e-05 0)
(0.096845253 0.00071436173 3.1974663e-23)
(0.098250086 0.0031377171 -3.2007087e-23)
(0.09859565 0.0045580028 2.574787e-23)
(0.098832426 0.0048052819 -2.6409361e-24)
(0.099231188 0.0045585248 -2.3090172e-23)
(0.099878751 0.004193764 -1.6787605e-23)
(0.10055236 0.0038533486 2.3243763e-23)
(0.10129047 0.0035577468 -2.2384969e-24)
(0.10210346 0.0032880315 -4.2176554e-24)
(0.10298396 0.0030266975 1.1382164e-24)
(0.10391847 0.0027721979 -5.319248e-24)
(0.10486352 0.0025165811 -3.1683042e-24)
(0.10579478 0.0022809103 7.3493438e-24)
(0.10664332 0.0020703578 0)
(0.10732944 0.0018323631 -8.0767468e-24)
(0.10789224 0.0015682653 8.0767796e-24)
(0.1083334 0.0013074426 0)
(0.10857372 0.0010290406 0)
(0.10858742 0.00075062239 2.7509016e-24)
(0.10837895 0.00044497605 -2.7508904e-24)
(0.10796685 9.8801779e-05 0)
(0.10737273 -0.00024313614 -9.7898708e-24)
(0.10668104 -0.0005820318 1.8757174e-23)
(0.10592878 -0.00087785904 -8.967303e-24)
(0.10505212 -0.001166749 0)
(0.10412183 -0.0014724299 0)
(0.10322145 -0.0017731919 0)
(0.10236911 -0.0020592309 7.2402078e-24)
(0.10158386 -0.0023492516 -1.7248293e-24)
(0.10087925 -0.0025875547 -5.5153957e-24)
(0.10027074 -0.0029177975 -5.7668499e-24)
(0.099669524 -0.0030741891 1.750005e-24)
(0.099334219 -0.0034585601 4.0168463e-24)
(0.098614819 -0.0037001382 0)
(0.098526918 -0.0041046215 0)
(0.097501277 -0.0046776941 0)
(0.098096802 -0.0041825179 0)
(0.09628595 -0.0050674663 0)
(0.095150292 0.0011103768 3.2938269e-23)
(0.093536885 -0.0018968524 0)
(0.094177181 -0.0036224736 -3.5167372e-23)
(0.095196994 -0.0050157592 2.7809407e-24)
(0.096973424 -0.0055089964 6.2118155e-23)
(0.098722242 -0.005496014 -2.7740129e-24)
(0.10007111 -0.0052561206 -2.6955711e-23)
(0.10110158 -0.0049518978 0)
(0.10198126 -0.0046313447 8.1699713e-24)
(0.10283776 -0.0043848476 -2.3234549e-24)
(0.10370827 -0.004182279 -5.8464798e-24)
(0.10461178 -0.0039859931 0)
(0.10556314 -0.0037773694 0)
(0.10652235 -0.0035398525 0)
(0.10746538 -0.003256466 -4.8453713e-24)
(0.10833608 -0.0029192239 4.8453979e-24)
(0.1090557 -0.0025348732 0)
(0.1096557 -0.0021127976 0)
(0.11012607 -0.0016493122 0)
(0.11041476 -0.0011433277 0)
(0.11047806 -0.00062727745 0)
(0.11026495 -9.7291267e-05 5.6020856e-24)
(0.10984647 0.00044661389 -1.6446717e-23)
(0.10926353 0.00094350959 1.0844561e-23)
(0.10858437 0.0013999592 0)
(0.10783865 0.0018258532 0)
(0.10697484 0.0021792521 0)
(0.10605899 0.0024685399 -1.3032015e-23)
(0.10517688 0.002711371 1.3032044e-23)
(0.10433431 0.002919358 9.1635709e-24)
(0.10358708 0.0031224295 -9.1636037e-24)
(0.102843 0.0032671545 0)
(0.10230961 0.0035263356 -1.013935e-23)
(0.1016056 0.0035601561 1.6328421e-24)
(0.10125209 0.0040417971 8.5052541e-24)
(0.10047065 0.0040166875 0)
(0.10009994 0.0047909434 0)
(0.098791284 0.0047787638 0)
(0.097752682 0.006236494 -8.8012182e-24)
(0.094592015 0.0048315507 1.700341e-23)
(0.097840845 -0.00082536082 0)
(0.098817623 -0.0018791179 3.3996546e-23)
(0.099967656 -0.0010348669 -4.1305537e-24)
(0.10058316 0.0014715523 -2.988672e-23)
(0.1004149 0.0032111579 2.3822941e-23)
(0.10025147 0.0038975509 -2.8924657e-24)
(0.10026425 0.0039298507 -3.0559763e-24)
(0.10045245 0.0037329841 -3.2206284e-23)
(0.10104978 0.0033862281 1.4372556e-23)
(0.10174317 0.0030463225 2.7513078e-24)
(0.10252233 0.0027305597 -2.7512963e-24)
(0.10338475 0.0024276667 2.76988e-24)
(0.10430979 0.002147375 -8.6443446e-24)
(0.10524361 0.0018961895 5.8744713e-24)
(0.10616155 0.0016859469 0)
(0.10699004 0.0015244936 0)
(0.10764699 0.0013806096 0)
(0.10818229 0.0012298238 0)
(0.10860591 0.001088168 0)
(0.10882714 0.00093927885 0)
(0.1088258 0.00078141171 0)
(0.10865058 0.00060641922 0)
(0.10827734 0.00036982571 0)
(0.10771482 0.00011791096 -1.0353257e-23)
(0.10705588 -0.00012830767 1.9845489e-23)
(0.1063399 -0.00035997521 -9.4922493e-24)
(0.10548975 -0.00062490962 1.448854e-23)
(0.10456553 -0.00092099757 -1.4488539e-23)
(0.10366427 -0.0012350911 0)
(0.10280247 -0.0015588863 0)
(0.10200474 -0.0018884149 0)
(0.10127143 -0.0022070947 0)
(0.10067079 -0.0025435938 5.076164e-24)
(0.10003252 -0.0028716528 -8.0688632e-24)
(0.099800701 -0.0031389207 2.9922087e-24)
(0.099193247 -0.0036714615 0)
(0.099236881 -0.0038511948 0)
(0.09887096 -0.004392539 -3.0011868e-25)
(0.099543174 -0.0031903434 2.9997682e-25)
(0.099087407 -0.0034471146 3.9595248e-24)
(0.098330942 -0.0012805091 -3.993966e-23)
(0.098036944 -0.002015078 3.9920251e-23)
(0.097080131 -0.0023976905 -3.473371e-23)
(0.0964421 -0.0034120981 3.4724522e-23)
(0.097165735 -0.0044190638 -3.0704809e-23)
(0.098687114 -0.0050855078 3.0714254e-23)
(0.09999359 -0.0052178452 0)
(0.10113333 -0.0051895015 0)
(0.10210617 -0.0050200392 0)
(0.10300296 -0.0047971988 0)
(0.10389941 -0.0046142335 0)
(0.10481044 -0.0044306698 -2.4966508e-25)
(0.10574394 -0.0042200855 2.4966446e-25)
(0.10667585 -0.0039632086 -7.1149598e-24)
(0.10758707 -0.0036477769 7.114993e-24)
(0.1084139 -0.0032639767 0)
(0.10908312 -0.0028188158 0)
(0.10964984 -0.0023195306 0)
(0.11009786 -0.0017689918 0)
(0.11038311 -0.0011736216 0)
(0.11046182 -0.00055853371 0)
(0.11024662 6.6729772e-05 5.9611769e-24)
(0.1098296 0.00070233539 5.6334775e-24)
(0.10927266 0.001268138 -5.3196548e-25)
(0.10862295 0.0017914675 -1.1062304e-23)
(0.1079137 0.0022627951 -1.9024311e-23)
(0.10708469 0.0026342141 2.0324473e-24)
(0.10620029 0.0029280853 1.6991763e-23)
(0.1053447 0.0031673347 0)
(0.10451356 0.0033615926 0)
(0.10378614 0.0035382278 0)
(0.10301828 0.003660696 1.5896719e-23)
(0.10251005 0.0038987604 -2.4221603e-24)
(0.10175807 0.0038689488 -1.3474816e-23)
(0.1013334 0.004396928 0)
(0.10058142 0.0043077102 0)
(0.099940846 0.0049542048 0)
(0.098364841 0.0046487118 0)
(0.09769333 0.0051959667 -7.1245461e-24)
(0.096117853 0.0035074949 7.1170931e-24)
(0.099820316 -0.0019996224 7.5029077e-23)
(0.10021733 -0.0018857437 -3.8799763e-23)
(0.10071041 -0.0013048795 2.9182912e-23)
(0.10122927 0.00032374416 -3.3839751e-24)
(0.10140372 0.0017467731 -3.2104824e-24)
(0.10122058 0.0026064766 -3.2591632e-24)
(0.10119256 0.0029205903 -3.2808449e-24)
(0.10126811 0.0029119209 -1.6025097e-23)
(0.10155565 0.0026926445 0)
(0.10220282 0.0023330539 1.4111033e-24)
(0.10294095 0.0019883867 -1.411144e-24)
(0.10378529 0.0016622432 4.3506432e-24)
(0.10469917 0.0013746343 -1.1918145e-23)
(0.10562935 0.0011428327 -3.3041643e-24)
(0.10654568 0.00097700779 3.8235516e-24)
(0.10736745 0.00088698514 7.048284e-24)
(0.10801093 0.00084376633 0)
(0.10853858 0.00082153609 0)
(0.10894183 0.0008161442 0)
(0.1091629 0.00080760793 0)
(0.10911911 0.00078962566 3.1277144e-24)
(0.10896892 0.00074916175 -3.1313368e-24)
(0.10866085 0.0006525775 0)
(0.10811522 0.00051548512 -1.1101575e-23)
(0.10747359 0.00038362576 2.129218e-23)
(0.10676729 0.00023992074 -1.0190647e-23)
(0.10592559 2.8440594e-05 1.5598167e-23)
(0.10500553 -0.00023785298 -1.5598147e-23)
(0.10409551 -0.00054577766 0)
(0.10320903 -0.0008896451 7.9854204e-24)
(0.10241031 -0.0012461056 -7.9854714e-24)
(0.10163023 -0.0016488179 7.9547276e-24)
(0.10108382 -0.0019715255 -7.9547505e-24)
(0.10040666 -0.0024760064 -2.4690285e-24)
(0.10021482 -0.002687196 3.2842343e-24)
(0.099837722 -0.0032934951 -8.7761694e-25)
(0.099956072 -0.0032580387 6.2617874e-26)
(0.099864396 -0.003529221 0)
(0.10032243 -0.0021624674 0)
(0.099867378 -0.0021836808 1.6308547e-24)
(0.10004976 -0.0019547395 -7.4461312e-23)
(0.099738845 -0.0014418317 3.8694194e-23)
(0.099000175 -0.0014736791 -3.3941533e-23)
(0.09781925 -0.0021925599 6.692076e-23)
(0.098006043 -0.0033197654 -6.3937475e-23)
(0.098961104 -0.0043708673 3.0964453e-23)
(0.10003501 -0.0048770646 0)
(0.10113285 -0.0050979559 0)
(0.10216998 -0.0051530894 0)
(0.10313614 -0.0050704336 0)
(0.10406824 -0.0049300529 0)
(0.10500063 -0.004764595 -1.0072924e-24)
(0.10593765 -0.0045527383 1.0072901e-24)
(0.10685658 -0.0042782574 -8.2440728e-24)
(0.10774737 -0.0039310117 2.3295543e-24)
(0.1085434 -0.0035001617 5.9146645e-24)
(0.10917419 -0.0030022855 -9.0928031e-24)
(0.10971242 -0.0024377178 9.0930027e-24)
(0.11014443 -0.001815425 0)
(0.11042175 -0.0011550809 0)
(0.11050777 -0.00046167109 0)
(0.11029141 0.00022555792 6.4060226e-24)
(0.10987294 0.00091790302 -6.4058679e-24)
(0.10933738 0.0015405999 1.198697e-23)
(0.10871275 0.0021144014 -1.1986751e-23)
(0.10801955 0.0026134995 -2.089862e-23)
(0.10721568 0.0029972648 2.0416649e-24)
(0.10635465 0.0032944186 1.8856755e-23)
(0.1055142 0.0035326801 0)
(0.1046856 0.0037103808 -1.2769431e-23)
(0.10397195 0.003872245 1.276952e-23)
(0.10317941 0.0039526268 0)
(0.1026683 0.0041837534 -1.647243e-23)
(0.10187689 0.0040962683 1.6472812e-23)
(0.10138867 0.0045289869 0)
(0.1004524 0.0044056451 -1.0174791e-23)
(0.099724988 0.0047482423 1.846584e-23)
(0.098337515 0.0041248521 -8.2941071e-24)
(0.097975214 0.0040951839 0)
(0.097046307 0.0024893967 0)
(0.10042809 -0.0018467979 3.4440327e-23)
(0.1007654 -0.0011764912 0)
(0.10093073 -0.0010654648 2.9721063e-23)
(0.10106178 -0.00053424849 -2.9720716e-23)
(0.10159982 0.00037954695 2.2230084e-23)
(0.10170049 0.0011454679 -3.6701295e-24)
(0.10178185 0.0016588759 -3.7132379e-24)
(0.10195875 0.0017998144 -1.4843796e-23)
(0.10217671 0.0016991639 0)
(0.10267838 0.0014014213 2.5785039e-25)
(0.1033841 0.001059008 -2.5790369e-25)
(0.10420759 0.00073703642 5.8736521e-24)
(0.10511795 0.00046391718 -1.5140528e-23)
(0.10604847 0.00027043302 9.2669192e-24)
(0.10696806 0.00016707346 -8.0514825e-24)
(0.10779069 0.00016612005 8.0516141e-24)
(0.10843354 0.00023549934 0)
(0.1089606 0.00035216841 0)
(0.10935993 0.00048767439 -3.2582655e-24)
(0.10957936 0.00064997253 3.2583648e-24)
(0.10952977 0.00077161027 0)
(0.10935169 0.0008700677 0)
(0.10908413 0.00093475787 0)
(0.10856903 0.00093909976 -1.2076824e-23)
(0.1079403 0.00094507667 2.3185777e-23)
(0.10723335 0.00090836075 -1.1109026e-23)
(0.10638852 0.00077373166 0)
(0.10546253 0.00056035002 0)
(0.10454339 0.00027929576 0)
(0.10362646 -6.7531599e-05 0)
(0.10283014 -0.00043260451 0)
(0.10200337 -0.00091296367 8.7836184e-24)
(0.10148404 -0.0012137624 -8.783641e-24)
(0.10084256 -0.0018482912 0)
(0.10062858 -0.0020343479 8.4969214e-25)
(0.10035054 -0.0025459323 -8.4873938e-25)
(0.10050432 -0.0023289095 5.5722305e-25)
(0.10044506 -0.0023682443 -1.1734506e-24)
(0.10063461 -0.0011232471 6.1618172e-25)
(0.10003716 -0.0011406234 5.0220013e-25)
(0.10059073 -0.0015877032 0)
(0.10048358 -0.00092261995 0)
(0.10024047 -0.0010565458 -3.2942345e-23)
(0.099268179 -0.0014933185 3.2982525e-23)
(0.099035455 -0.0025500124 3.0358084e-23)
(0.099405329 -0.0036114982 -2.3548464e-24)
(0.10020209 -0.0043894334 -2.8002544e-23)
(0.10120159 -0.0048373366 0)
(0.10223918 -0.0050789303 0)
(0.10325318 -0.0051796945 4.7515687e-24)
(0.10423075 -0.0051381383 -4.7515228e-24)
(0.10519459 -0.0050071 0)
(0.10615085 -0.0047994291 0)
(0.10707585 -0.0045093119 9.8535203e-24)
(0.10796231 -0.0041306358 -9.8536332e-24)
(0.10874117 -0.0036548319 0)
(0.10934676 -0.0031054214 1.0086234e-23)
(0.10986315 -0.0024853798 -1.0086527e-23)
(0.11027336 -0.0018076151 0)
(0.110541 -0.0010988453 0)
(0.11063799 -0.00033403568 0)
(0.1104298 0.00039886775 6.9662544e-24)
(0.11000688 0.0011113782 -6.9660391e-24)
(0.10947844 0.0017729434 0)
(0.10886707 0.0023891942 1.2369764e-23)
(0.10818084 0.0029038103 -1.2369525e-23)
(0.10738765 0.0032959527 2.0791631e-23)
(0.10653289 0.003594774 -3.9350374e-23)
(0.10569916 0.0038330281 1.8558845e-23)
(0.10485954 0.003988525 0)
(0.10415039 0.0041452759 0)
(0.10332331 0.0041693172 -2.1877311e-23)
(0.10278425 0.0043799995 4.0783217e-23)
(0.10197301 0.0042322712 -1.8906391e-23)
(0.10140052 0.004525601 0)
(0.10033721 0.0042548678 0)
(0.0996803 0.0042943134 0)
(0.098612104 0.0034613428 0)
(0.098482151 0.0031928923 -5.5542403e-24)
(0.097899333 0.0017766689 2.4928982e-24)
(0.10068507 -0.001396211 0)
(0.10094652 -0.00077896534 -3.4173725e-23)
(0.10103904 -0.00091828803 3.4079643e-24)
(0.10106069 -0.0009267022 3.0768186e-23)
(0.10126486 -0.00079510157 -2.3041259e-23)
(0.10175061 -0.00029212676 2.3066684e-23)
(0.10205987 0.00023026715 0)
(0.10233328 0.0004733759 0)
(0.1027011 0.00044773527 0)
(0.10320807 0.00023522425 0)
(0.10386473 -5.3948261e-05 0)
(0.10466822 -0.00033719409 -7.3643884e-24)
(0.10557684 -0.00057046934 7.3643809e-24)
(0.10651291 -0.00070490923 -1.4727688e-23)
(0.10744291 -0.00072673531 1.4727888e-23)
(0.10827013 -0.00062323032 -1.0788159e-23)
(0.10891746 -0.00042812457 -1.4464332e-24)
(0.10944319 -0.00016597636 5.4963325e-24)
(0.10985534 0.00012608017 1.0339012e-23)
(0.11005014 0.00044881541 -3.5999505e-24)
(0.11000624 0.00073354027 0)
(0.1098582 0.0009788316 0)
(0.10956376 0.0012144077 0)
(0.10905944 0.0013795022 1.3323565e-23)
(0.10844373 0.0015411418 -1.3323186e-23)
(0.10773044 0.0016247312 -2.2070299e-23)
(0.10688066 0.0015906847 2.9057602e-24)
(0.10594462 0.0014502877 1.9164133e-23)
(0.10501272 0.0012184337 0)
(0.10406133 0.00088568692 0)
(0.1032636 0.00053269322 0)
(0.10239473 2.1429147e-06 0)
(0.10188934 -0.00028658621 0)
(0.10126061 -0.00098041722 0)
(0.10103907 -0.0011409668 0)
(0.10073211 -0.0014809238 4.8378232e-25)
(0.10081617 -0.001178263 -5.5356376e-25)
(0.10065828 -0.0011170213 7.0181433e-26)
(0.10062609 -0.00014221876 -4.2110766e-25)
(0.09993568 -0.00027281417 4.2105539e-25)
(0.10073768 -0.0012874598 3.4103344e-23)
(0.10098253 -0.00071661242 0)
(0.10095053 -0.00092656144 3.2668484e-23)
(0.10037496 -0.0012907528 -6.3509674e-23)
(0.10011858 -0.0021785134 5.9802211e-23)
(0.1000721 -0.0030700647 -2.1863785e-24)
(0.10055091 -0.0038903804 -3.1834741e-24)
(0.10140366 -0.0045234689 -4.2813595e-23)
(0.10238493 -0.0049479638 1.9205212e-23)
(0.10339445 -0.0051880205 3.7073659e-24)
(0.10440439 -0.0052480934 -3.707325e-24)
(0.10540873 -0.0051788601 0)
(0.10639979 -0.0049890526 -7.9112031e-24)
(0.10734798 -0.004687988 7.9112633e-24)
(0.10824828 -0.0042769991 -8.027203e-24)
(0.109026 -0.0037553096 1.7860426e-23)
(0.10961914 -0.0031524991 -9.8333311e-24)
(0.11011988 -0.00248375 0)
(0.11051449 -0.0017568382 0)
(0.11076713 -0.0010051257 0)
(0.11086284 -0.00020466357 0)
(0.11066541 0.00058552942 0)
(0.11023762 0.0013212616 0)
(0.10971578 0.0019963884 -1.4392361e-23)
(0.10911341 0.0026342974 2.7994529e-23)
(0.10841841 0.0031596345 -1.3602292e-23)
(0.10762342 0.0035608326 0)
(0.10675802 0.0038649643 0)
(0.1059192 0.0041020575 0)
(0.10504932 0.0042321717 0)
(0.10432882 0.0043840149 -1.3886025e-23)
(0.10345753 0.0043420513 3.8002875e-23)
(0.10288503 0.0045148469 -4.4805322e-23)
(0.10203141 0.0042829472 2.0689366e-23)
(0.10139735 0.004423867 0)
(0.10034638 0.0039403445 -1.1245788e-23)
(0.099841608 0.0037690385 1.9880157e-23)
(0.099086954 0.0028685101 -2.1276455e-24)
(0.099081143 0.0025635148 -6.5060493e-24)
(0.098645238 0.0013971741 2.3120367e-24)
(0.10070807 -0.0012285355 0)
(0.10113221 -0.00070187712 0)
(0.10120629 -0.00091178679 -3.2133745e-23)
(0.10102717 -0.0012975223 3.5495948e-24)
(0.10121333 -0.0015954799 5.321065e-23)
(0.10154446 -0.0015261139 -4.5956909e-24)
(0.10208887 -0.0012081103 -2.0000353e-23)
(0.10258451 -0.0010014077 0)
(0.1030742 -0.00098144822 0)
(0.10364405 -0.0011098745 -1.5046427e-24)
(0.10433823 -0.0013286829 1.5046252e-24)
(0.10515953 -0.0015458716 0)
(0.10608456 -0.0017104182 -1.2906316e-23)
(0.10703518 -0.0017624394 1.2906436e-23)
(0.10797985 -0.001682565 0)
(0.1088141 -0.0014582527 0)
(0.10946349 -0.0011271326 1.3720678e-23)
(0.10999315 -0.00071369099 -2.1245809e-23)
(0.11040334 -0.00026093539 7.5249109e-24)
(0.11059809 0.00022779458 0)
(0.11054719 0.00067782374 0)
(0.11038977 0.0010781451 8.1435375e-24)
(0.11010056 0.0014859609 -8.1432016e-24)
(0.10961449 0.0018289689 0)
(0.10900138 0.0021472376 1.3800692e-23)
(0.108268 0.0023634328 -1.3800321e-23)
(0.10740816 0.0024516239 2.1826219e-23)
(0.10646041 0.0024005722 -4.0373511e-23)
(0.10550954 0.0022470182 1.854744e-23)
(0.10452743 0.0019404658 0)
(0.10371089 0.0016307772 0)
(0.10281134 0.001073244 -1.3369044e-23)
(0.10228706 0.00081382905 2.244619e-23)
(0.10165534 0.00010664663 -9.0774159e-24)
(0.10140453 2.9849568e-06 0)
(0.10097142 -0.00023131012 0)
(0.10093771 4.9773415e-05 0)
(0.10064729 8.6965645e-05 9.267112e-25)
(0.10046466 0.00073981799 -2.1696418e-24)
(0.099794162 0.00045486429 1.8599091e-24)
(0.1006683 -0.0012554241 7.2744962e-23)
(0.10121027 -0.00075315813 -3.6946539e-23)
(0.10134842 -0.00100516 3.2957644e-23)
(0.1009579 -0.0014071909 -6.3205487e-23)
(0.10085961 -0.0021649958 5.8012269e-23)
(0.10080374 -0.0028611618 -2.5774393e-24)
(0.10109682 -0.0036109241 -2.5202035e-23)
(0.10176111 -0.0042979907 -1.7158946e-23)
(0.10263086 -0.004824608 1.7158635e-23)
(0.10360579 -0.0051732415 2.1881919e-24)
(0.10463323 -0.0053358586 -2.1881654e-24)
(0.10567739 -0.0053284307 6.0352552e-24)
(0.10671106 -0.0051632032 -1.6563683e-23)
(0.10769735 -0.004852731 -4.5068183e-24)
(0.1086265 -0.0044056354 5.3824521e-24)
(0.10941635 -0.0038331693 2.1216749e-23)
(0.11000819 -0.0031740213 -1.156367e-23)
(0.11050075 -0.0024530555 0)
(0.11088119 -0.001679104 0)
(0.11111751 -0.00088582026 0)
(0.11120056 -5.5521602e-05 0)
(0.11101638 0.00078160994 0)
(0.11059309 0.0015357246 0)
(0.11006764 0.0022338694 -1.6003304e-23)
(0.10946851 0.0028808541 3.1087218e-23)
(0.10875676 0.0034171353 -4.2954153e-23)
(0.10794401 0.003832416 2.7868249e-23)
(0.10705428 0.0041478691 0)
(0.10619182 0.0043803127 0)
(0.10527846 0.0044902125 0)
(0.10451913 0.0046264292 0)
(0.10360527 0.0045133103 2.5911661e-23)
(0.10299293 0.0046325267 -4.7821052e-23)
(0.10207722 0.0042968854 3.9939074e-23)
(0.10145396 0.0042690492 -1.8027175e-23)
(0.10051294 0.0036217833 0)
(0.10015034 0.0033433684 0)
(0.099606186 0.0024804073 0)
(0.099612472 0.0022338121 0)
(0.099211894 0.0013089289 1.7703438e-24)
(0.10059977 -0.0013216101 -7.4539068e-23)
(0.10125849 -0.00084340468 3.7596643e-23)
(0.10144522 -0.0010785166 -3.3554627e-23)
(0.10112128 -0.0015947363 3.3591755e-23)
(0.10118091 -0.0022839357 -2.634272e-23)
(0.10147908 -0.0025193536 2.6339751e-23)
(0.10203118 -0.0025302876 0)
(0.10267951 -0.0024784346 0)
(0.10332414 -0.0024794418 0)
(0.10401754 -0.0025728637 0)
(0.10480045 -0.0027181922 0)
(0.10568002 -0.0028584198 -1.0634396e-23)
(0.10664704 -0.0029259468 1.0634432e-23)
(0.10762698 -0.0028727442 -1.9587081e-23)
(0.1085917 -0.0026700502 7.6691088e-24)
(0.10943267 -0.0023091535 -1.9056541e-24)
(0.1100804 -0.0018331537 -1.6746374e-24)
(0.11061045 -0.0012650478 7.0353188e-24)
(0.1110153 -0.00065072768 8.4655746e-24)
(0.1112075 8.472646e-07 0)
(0.11115843 0.00061436423 0)
(0.11098947 0.0011722629 9.1359374e-24)
(0.11068702 0.0017436761 -9.1363401e-24)
(0.11021352 0.0022691529 1.6830985e-23)
(0.10960198 0.0027363405 -1.6828031e-23)
(0.10884953 0.0030974184 0)
(0.1079816 0.0033174026 -2.5201834e-23)
(0.1070155 0.0033790019 2.5201485e-23)
(0.10604541 0.003324338 0)
(0.10502851 0.0030696607 0)
(0.10417705 0.0028265253 0)
(0.10325636 0.0022692495 0)
(0.10266343 0.0020671165 0)
(0.10201464 0.0013750274 0)
(0.10170362 0.0013259334 5.9514007e-24)
(0.10111847 0.0010542147 -9.9573822e-24)
(0.10091694 0.0012787057 6.8957211e-24)
(0.10053829 0.0011709739 -2.8902033e-24)
(0.10028516 0.0015074882 0)
(0.099711959 0.0010762622 0)
(0.10051486 -0.0014534414 3.8280292e-23)
(0.10127829 -0.00097286457 0)
(0.10155486 -0.0012395702 0)
(0.10126153 -0.0017441524 -3.0796857e-23)
(0.10127405 -0.0025133907 5.8204954e-23)
(0.10133196 -0.0030729099 -3.5239312e-24)
(0.10165442 -0.003668637 -4.2333253e-24)
(0.102228 -0.0042964505 -3.3971544e-23)
(0.10299508 -0.0048476116 1.8315894e-23)
(0.10392554 -0.005252585 -3.835003e-24)
(0.10495619 -0.0054882174 -1.2364039e-25)
(0.10603529 -0.0055242712 8.999448e-24)
(0.10711798 -0.0053797048 -2.2957906e-23)
(0.10815138 -0.0050511629 1.3958638e-23)
(0.1091214 -0.0045591594 -1.1767275e-23)
(0.10993282 -0.0039281549 2.5578794e-23)
(0.11053148 -0.00320394 -1.3811701e-23)
(0.11102253 -0.0024209253 0)
(0.11139057 -0.0015954386 0)
(0.11160807 -0.00075572096 0)
(0.11167062 0.00010668403 0)
(0.11149183 0.0009861353 0)
(0.11109521 0.0017764447 0)
(0.11057801 0.002502951 -1.801562e-23)
(0.10995552 0.0031655136 3.4944349e-23)
(0.10921438 0.0037150076 -4.8111735e-23)
(0.10836538 0.0041641188 5.9358742e-23)
(0.10744175 0.0044856737 -2.817268e-23)
(0.10654089 0.0047292814 0)
(0.10556445 0.0048117293 1.9017855e-23)
(0.10475824 0.0049313097 -3.5303958e-23)
(0.10378426 0.0047394172 4.3841271e-23)
(0.1031263 0.0048016811 -5.0406388e-23)
(0.10219811 0.0043386498 4.1272332e-23)
(0.10161202 0.0041947869 -1.8418591e-23)
(0.10076379 0.0034484524 0)
(0.1004797 0.0031433316 0)
(0.100049 0.002388227 0)
(0.099986672 0.0022205725 0)
(0.099565105 0.0014810332 1.3996648e-24)
(0.10043682 -0.0016205838 -3.9386923e-23)
(0.10126339 -0.0011424091 3.9403333e-23)
(0.10162929 -0.001426248 -3.5131773e-23)
(0.10136136 -0.0019465529 3.5131787e-23)
(0.1013647 -0.0028408213 -2.7709111e-23)
(0.10151267 -0.0033572994 2.770912e-23)
(0.10200443 -0.0036569566 0)
(0.10272438 -0.0038305736 0)
(0.10350536 -0.0039448732 0)
(0.10434481 -0.0040593404 0)
(0.1052549 -0.0041572439 0)
(0.10623131 -0.0042174562 -1.2815432e-23)
(0.10726536 -0.004173164 3.0723115e-23)
(0.10829765 -0.0039963048 -1.7907927e-23)
(0.10928987 -0.00364731 0)
(0.11013741 -0.0031359564 -1.589447e-23)
(0.11078112 -0.00250789 1.5895405e-23)
(0.11130621 -0.0017852231 0)
(0.11169995 -0.0010143244 0)
(0.1118843 -0.00021034791 0)
(0.11184327 0.00055687529 0)
(0.11166188 0.0012643311 1.036914e-23)
(0.11134521 0.001970207 9.7580261e-24)
(0.11087249 0.002672045 -9.1126925e-25)
(0.11025633 0.0032843099 -1.9216274e-23)
(0.10948648 0.0037960468 0)
(0.10861493 0.0041411263 -2.9380266e-23)
(0.10762527 0.0043399569 2.9373325e-23)
(0.1066325 0.0044039608 0)
(0.10557045 0.0042292606 0)
(0.10468089 0.0040753635 0)
(0.10370009 0.0035539982 0)
(0.10304788 0.0034037325 0)
(0.10231607 0.0027551335 0)
(0.10189148 0.0027285567 0)
(0.10122919 0.0023116802 -6.6870976e-24)
(0.10087047 0.0024051832 6.6865451e-24)
(0.10044263 0.0020966697 0)
(0.10019425 0.0021739883 2.8483154e-24)
(0.099718226 0.001611942 -2.8445696e-24)
(0.10039659 -0.0017926678 4.0768686e-23)
(0.1012324 -0.0013541461 -1.6749713e-24)
(0.10168374 -0.0016607263 -2.8508966e-24)
(0.10145922 -0.0021848643 -6.8557449e-23)
(0.10147838 -0.0031493561 6.0507095e-23)
(0.10163008 -0.0036631602 -4.686763e-24)
(0.10206595 -0.0041420992 -5.533566e-24)
(0.10267673 -0.004674604 -1.7881399e-23)
(0.10343199 -0.0051689654 0)
(0.10435817 -0.0055662229 -2.5291956e-24)
(0.10540278 -0.0058145932 2.5291655e-24)
(0.10651975 -0.0058674629 1.2832069e-23)
(0.1076561 -0.0057072767 -3.120375e-23)
(0.10874076 -0.0053494561 1.8371965e-23)
(0.10975759 -0.0047946787 0)
(0.11059892 -0.0040874034 1.6672556e-23)
(0.11121264 -0.0032832168 -1.6673154e-23)
(0.11170687 -0.0024203286 0)
(0.11206172 -0.0015294183 0)
(0.11225339 -0.00063449325 0)
(0.11228338 0.00027426616 0)
(0.11210636 0.0011974332 0)
(0.11173822 0.002047048 0)
(0.1112305 0.0028289673 -2.058804e-23)
(0.11060907 0.0035235979 3.9904171e-23)
(0.10984714 0.0041159699 -5.4830286e-23)
(0.10896068 0.0046016807 6.7531124e-23)
(0.10797587 0.0049422733 -3.2017647e-23)
(0.10700254 0.0052037498 0)
(0.10594633 0.0052688582 0)
(0.10506262 0.005372922 0)
(0.10404283 0.0051047532 2.9648885e-23)
(0.10331128 0.0051032044 -2.9649011e-23)
(0.10240202 0.0045283008 1.8944501e-23)
(0.10185147 0.0043365485 -1.8943491e-23)
(0.1010521 0.0035742142 0)
(0.10075121 0.0032885281 -6.7590461e-24)
(0.10033056 0.0026312051 6.7591667e-24)
(0.1001801 0.0025170209 -2.9661407e-24)
(0.099735005 0.0018755265 4.1419782e-24)
(0.10034837 -0.0020137435 4.3478839e-23)
(0.10117874 -0.0016161853 0)
(0.10172688 -0.0019391814 -3.7366926e-23)
(0.10155205 -0.0024654243 3.7366943e-23)
(0.10157182 -0.0034901386 2.8671788e-23)
(0.10172857 -0.0040710794 -5.0327597e-24)
(0.10218116 -0.0045786674 -2.3639047e-23)
(0.10287633 -0.0050064679 0)
(0.10373465 -0.0052890882 0)
(0.10469757 -0.0054685554 -4.5905251e-24)
(0.10573951 -0.0055619598 4.5905e-24)
(0.10683849 -0.0055421377 0)
(0.10797264 -0.0053936954 -2.1700014e-23)
(0.10908212 -0.0050684208 2.1700437e-23)
(0.11012375 -0.0045676628 0)
(0.11097755 -0.0038993995 0)
(0.11160857 -0.0031027929 0)
(0.11211401 -0.0022301112 0)
(0.11247889 -0.0013144184 0)
(0.1126441 -0.00037468823 0)
(0.11261154 0.00052645542 0)
(0.11242731 0.0013644339 1.190555e-23)
(0.11209342 0.0022053662 -1.1905552e-23)
(0.11161031 0.002999057 0)
(0.11098268 0.0037500573 2.0780783e-23)
(0.11021228 0.0043705971 -2.0780784e-23)
(0.10933033 0.0048914371 0)
(0.10831902 0.0052353046 -3.0359651e-23)
(0.10729231 0.0054382206 3.0359645e-23)
(0.1061757 0.0053662978 0)
(0.1052198 0.0053168532 0)
(0.10416524 0.0048682182 -2.8617964e-23)
(0.10342476 0.0047624513 2.8618093e-23)
(0.10256714 0.0041361033 0)
(0.10205828 0.0040598079 0)
(0.10130819 0.0035066698 -9.3474684e-24)
(0.10090561 0.0034034532 9.3493037e-24)
(0.10042469 0.0028759735 0)
(0.10021728 0.0027722192 0)
(0.099765529 0.0021326755 1.0877631e-24)
(0.1002727 -0.0022974357 0)
(0.10111423 -0.0019272641 0)
(0.10176081 -0.0022590349 3.8670982e-23)
(0.10163504 -0.0027931917 -3.867021e-23)
(0.10164625 -0.0038755912 2.9274194e-23)
(0.10183437 -0.0044784722 -5.55986e-24)
(0.10232653 -0.0050400925 -2.3714954e-23)
(0.10303892 -0.0055198161 0)
(0.10389185 -0.0059102703 0)
(0.10488321 -0.0062366561 -5.5462626e-24)
(0.10599132 -0.0064350717 5.5462645e-24)
(0.10717743 -0.0064553507 1.7508884e-23)
(0.10839119 -0.0062443616 -4.1342239e-23)
(0.10954441 -0.0058162642 2.3833533e-23)
(0.11060292 -0.0051656023 -1.7810939e-23)
(0.11146555 -0.0043634588 3.8031142e-23)
(0.11208029 -0.0034437548 -4.2446121e-23)
(0.11256046 -0.0024763961 2.2225927e-23)
(0.11289371 -0.0015022868 0)
(0.11305165 -0.00053837778 0)
(0.11304307 0.00042983785 0)
(0.11286321 0.0014016329 0)
(0.11251339 0.0023082559 0)
(0.11201988 0.0031771767 -2.3854318e-23)
(0.11139744 0.0039573926 4.6279834e-23)
(0.11062082 0.0046470818 -6.3770337e-23)
(0.10972201 0.0052166497 7.8672293e-23)
(0.10869402 0.00561429 -3.7327468e-23)
(0.1076556 0.0059069491 0)
(0.10651164 0.0059611923 0)
(0.10553266 0.0060311841 -2.0268369e-23)
(0.10440258 0.0057140889 5.3433898e-23)
(0.10364334 0.0056511953 -5.959566e-23)
(0.10265273 0.005031201 2.6430904e-23)
(0.10211116 0.0048241579 0)
(0.10133279 0.0040889997 0)
(0.10094921 0.0038631831 0)
(0.10045403 0.003230662 0)
(0.10024474 0.0030838576 0)
(0.099788835 0.0024271382 0)
(0.10017093 -0.0026339387 0)
(0.10102626 -0.0022870335 0)
(0.10178297 -0.0026217306 -4.0106924e-23)
(0.10170559 -0.003179095 4.0106945e-23)
(0.1017448 -0.0042648117 -2.9891993e-23)
(0.10195235 -0.004961261 2.9892004e-23)
(0.10243455 -0.00553915 0)
(0.10319288 -0.0060536494 0)
(0.10411306 -0.0064636381 0)
(0.10517775 -0.0067467752 0)
(0.10634932 -0.0068717795 0)
(0.10758354 -0.0068051107 -2.0453701e-23)
(0.10882947 -0.006536631 2.0453711e-23)
(0.11001933 -0.0060604347 0)
(0.11110064 -0.0053721045 0)
(0.11196105 -0.004519921 -2.2328118e-23)
(0.11257976 -0.0035586948 -2.0542897e-24)
(0.1130497 -0.0025387426 2.4382433e-23)
(0.11336958 -0.0015027644 0)
(0.11350774 -0.00046133665 0)
(0.11347953 0.00054100091 0)
(0.11329103 0.0015008195 1.3839409e-23)
(0.11295388 0.0024434373 1.3094554e-23)
(0.11247066 0.0033447158 -1.1404337e-24)
(0.11184054 0.0041737679 -2.5793542e-23)
(0.11106632 0.0049190532 0)
(0.11016452 0.0055476764 0)
(0.10911658 0.0060104381 0)
(0.10805311 0.006359261 0)
(0.10686257 0.0064316965 0)
(0.10584746 0.0065086507 0)
(0.10465355 0.0061417841 -3.5777629e-23)
(0.10385159 0.006067604 3.5777609e-23)
(0.10282662 0.0054204793 -2.1904917e-23)
(0.10224513 0.0052583315 2.1904903e-23)
(0.10142792 0.0045414562 0)
(0.1010105 0.0043081309 0)
(0.1004812 0.0036285344 -4.9320337e-24)
(0.10026352 0.0034372103 4.9292895e-24)
(0.099798787 0.002750037 8.7176436e-25)
(0.10004359 -0.0030263704 -4.825324e-23)
(0.10091382 -0.0027065926 4.822682e-23)
(0.10178155 -0.0030285246 -4.1689184e-23)
(0.10177706 -0.0036169659 4.1689207e-23)
(0.10184744 -0.0047003844 -3.0525727e-23)
(0.10206015 -0.0054896326 3.0525739e-23)
(0.10259407 -0.006096893 0)
(0.10339832 -0.0066394515 0)