/*--------------------------------*- C++ -*----------------------------------*\
  =========                 |
  \\      /  F ield         | OpenFOAM: The Open Source CFD Toolbox
   \\    /   O peration     | Website:  https://openfoam.org
    \\  /    A nd           | Version:  10
     \\/     M anipulation  |
\*---------------------------------------------------------------------------*/
FoamFile
{
    format      ascii;
    class       surfaceScalarField;
    location    "0.0508103";
    object      phi;
}
// * * * * * * * * * * * * * * * * * * * * * * * * * * * * * * * * * * * * * //

dimensions      [1 0 -1 0 0 0 0];

internalField   nonuniform List<scalar> 
32368
(
0.000350005
0.000267242
0.0003672
0.000301691
0.000369752
0.000319182
0.000363838
0.000326554
0.000355944
0.000342737
0.000379765
0.000384534
0.000464303
0.000444418
0.000590778
0.00050065
0.000723535
0.000490485
0.000875261
0.00041955
0.00102829
0.000335466
0.00115395
0.000268941
0.00121098
0.000228499
0.00119198
0.00018865
0.00109169
0.000135225
0.000908019
8.60132e-05
0.000687391
5.30488e-05
0.000496171
3.82884e-05
0.00035667
3.52777e-05
0.000266349
4.08497e-05
0.000209721
4.8278e-05
0.000169953
4.65268e-05
0.000138542
2.4858e-05
9.3832e-05
-1.76915e-05
1.18406e-05
-0.000104048
-5.97565e-05
-0.000276058
-5.25382e-05
-0.000457914
2.13439e-05
-0.000593195
0.00012637
-0.000714895
0.000238169
-0.000795101
0.000262117
-0.000636516
0.000263854
-0.000460829
-0.00028188
0.000246667
0.00033483
0.000273753
0.000339722
0.000328259
0.000332487
0.000351373
0.000318747
0.000345112
0.000314078
0.000326684
0.000341934
0.000307609
0.000448407
0.00030622
0.000603823
0.000302249
0.000772413
0.000273626
0.000925178
0.000217567
0.00105557
0.000140099
0.0011455
7.78453e-05
0.00116347
4.43091e-05
0.0010628
2.31912e-05
0.000906629
2.09041e-06
0.00071476
-4.54133e-06
0.000528938
8.23918e-06
0.000379153
2.04417e-05
0.000277982
3.11162e-05
0.00021795
3.93584e-05
0.000181089
4.36274e-05
0.00015997
3.98265e-05
0.000143341
2.13579e-05
9.92746e-05
-1.56994e-05
2.73266e-07
-9.91638e-05
-9.03875e-05
-0.000269934
-8.54539e-05
-0.00045251
-5.49289e-06
-0.000591426
0.000112414
-0.00072935
0.000224904
-0.000786448
0.000231272
-0.00059552
0.000233069
-0.000428724
-0.000200052
0.000165125
0.000311297
0.000316959
0.00030455
0.000362775
0.000297033
0.000382605
0.000290573
0.00036207
0.000299792
0.000315588
0.000344626
0.000252063
0.000450602
0.000198104
0.000581136
0.000139763
0.000717913
7.39684e-05
0.000834293
-3.28861e-06
0.000932588
-8.65437e-05
0.000977762
-0.00014431
0.000892324
-0.00016105
0.000765204
-0.000150068
0.000622452
-0.000119136
0.000494913
-7.87915e-05
0.000381218
-2.99998e-05
0.000283947
5.49218e-06
0.000218427
2.64222e-05
0.000176837
3.59808e-05
0.000149977
3.62367e-05
0.000134873
3.00583e-05
0.00012188
1.57646e-05
8.07813e-05
-1.66683e-05
-2.73664e-05
-9.40556e-05
-0.00011872
-0.000258673
-0.000111997
-0.000441595
-1.96669e-05
-0.000583327
0.000103869
-0.000733267
0.000209907
-0.000744189
0.000193563
-0.000520293
0.000176849
-0.000321089
-4.89697e-05
0.00011685
0.000279454
0.000346657
0.000261799
0.000394825
0.000255325
0.000400098
0.000265065
0.000362875
0.000292598
0.0002946
0.000353064
0.000213258
0.000455884
0.000135563
0.000565577
5.00394e-05
0.000664637
-3.97061e-05
0.000740263
-0.000126125
0.00079328
-0.000208931
0.000768609
-0.000256945
0.000656953
-0.000263019
0.000544444
-0.000222963
0.000448372
-0.000161165
0.000369155
-9.38195e-05
0.00029125
-2.92479e-05
0.000221798
1.40933e-05
0.000174646
3.77895e-05
0.000144639
4.4032e-05
0.000125837
3.95279e-05
0.000118771
3.06355e-05
0.000116124
1.73345e-05
7.51964e-05
-1.02378e-05
-4.09085e-05
-8.2521e-05
-0.000133459
-0.000239967
-0.000127568
-0.000420266
-3.02172e-05
-0.000573178
0.000102927
-0.000732746
0.000188102
-0.000680405
0.000169148
-0.000421099
0.000175714
-0.000198192
5.3655e-05
0.000166262
0.000205208
0.00036391
0.000196752
0.000407388
0.000200644
0.000398068
0.000227507
0.000350818
0.00028271
0.000272347
0.000371392
0.000184263
0.000463498
8.75457e-05
0.000542888
-1.0254e-05
0.000604884
-0.000104169
0.000651332
-0.000190888
0.000671627
-0.000270915
0.000590101
-0.000305886
0.000508695
-0.000299492
0.000424747
-0.000241062
0.000359752
-0.000165062
0.00028804
-7.89412e-05
0.000221669
-8.36331e-06
0.000171537
3.6311e-05
0.000138062
5.61305e-05
0.000118465
5.74627e-05
0.000106639
4.99777e-05
0.000107066
4.04259e-05
0.000111054
2.8613e-05
6.98784e-05
6.65267e-06
-5.25605e-05
-6.15213e-05
-0.000144226
-0.000211771
-0.000138576
-0.000390498
-3.73532e-05
-0.000557855
0.000104747
-0.000732136
0.000171149
-0.000610886
0.000158839
-0.000327319
0.000206097
-8.93876e-05
0.00013435
0.000222308
0.000119004
0.000363415
0.000126868
0.000401804
0.000156613
0.000381028
0.000209509
0.000314499
0.000281761
0.000221703
0.000364498
0.000122858
0.000440383
2.28727e-05
0.000499229
-6.91078e-05
0.00053705
-0.000156541
0.000561785
-0.000237138
0.000556793
-0.000308006
0.000472317
-0.000328534
0.000416195
-0.000309323
0.000355604
-0.000235942
0.000302336
-0.000144256
0.000228775
-5.25523e-05
0.000173098
1.78115e-05
0.000135445
5.99203e-05
0.000111643
7.43483e-05
9.94523e-05
7.23348e-05
9.37428e-05
6.48569e-05
0.000101076
5.76728e-05
0.000108966
5.00007e-05
6.84444e-05
3.08543e-05
-5.92854e-05
-3.07781e-05
-0.000150589
-0.000174047
-0.000145385
-0.000353599
-4.6137e-05
-0.00053973
0.000103718
-0.000724078
0.000152712
-0.00055157
0.000150599
-0.000257154
0.000240532
-5.17334e-06
0.000199073
0.000274032
5.57607e-05
0.000345249
7.51944e-05
0.00037282
0.000120783
0.000325842
0.000183462
0.000240652
0.000263676
0.000140847
0.000351583
3.36101e-05
0.000419028
-5.83086e-05
0.000461822
-0.000136669
0.000475992
-0.000206713
0.000474119
-0.000274713
0.000441979
-0.000330214
0.000383563
-0.000337995
0.000354981
-0.000312957
0.000311736
-0.000222707
0.000264128
-0.000108792
0.000195601
-1.42475e-05
0.00014916
4.82352e-05
0.000117224
8.63802e-05
9.68789e-05
9.70655e-05
8.76272e-05
9.32768e-05
8.59405e-05
8.65727e-05
9.82146e-05
8.11947e-05
0.000108705
7.60022e-05
6.55579e-05
6.03402e-05
-6.53714e-05
6.66834e-06
-0.000154912
-0.000127974
-0.000150746
-0.000309107
-5.10778e-05
-0.000508293
9.31924e-05
-0.000703777
0.000137482
-0.000512126
0.000147584
-0.000203984
0.000268972
5.74654e-05
0.00025422
0.000314544
1.26988e-05
0.000314437
3.08523e-05
0.000325226
8.13347e-05
0.000238248
0.000160035
0.000132423
0.000258937
1.23033e-05
0.000339656
-8.47451e-05
0.000394474
-0.000151025
0.000420155
-0.000204789
0.000411804
-0.000254814
0.000384568
-0.000306078
0.0003393
-0.000344386
0.00032169
-0.000344777
0.000315726
-0.000313671
0.000284902
-0.000194352
0.000246074
-5.98373e-05
0.000184934
2.69831e-05
0.000144395
7.98941e-05
0.000113026
0.00011071
9.10539e-05
0.000117886
8.14989e-05
0.000113673
8.1126e-05
0.00010864
9.56691e-05
0.000105176
0.000107661
0.000103563
6.23211e-05
9.16294e-05
-6.93981e-05
4.7096e-05
-0.000155605
-7.86402e-05
-0.000146139
-0.000262164
-5.33564e-05
-0.000468302
8.14456e-05
-0.000669683
0.00012347
-0.00048124
0.00014835
-0.000165799
0.000292053
0.000101954
0.000295907
0.000351994
-2.37998e-05
0.000279587
-1.13038e-05
0.000251206
5.19613e-05
0.000122262
0.000152814
-3.26084e-05
0.000257121
-0.000150703
0.000339132
-0.00021137
0.000381964
-0.000240822
0.000381935
-0.000267858
0.000348063
-0.000299642
0.000304968
-0.000333957
0.000275667
-0.000354364
0.000283105
-0.000347531
0.000294161
-0.000305571
0.000274434
-0.000158603
0.000249701
-7.03864e-06
0.000196337
7.94394e-05
0.000155426
0.00011369
0.000119345
0.000134319
9.14864e-05
0.000137635
7.87917e-05
0.000132996
7.75831e-05
0.000129261
9.27289e-05
0.00012736
0.0001055
0.000129156
5.98234e-05
0.000121856
-6.82636e-05
8.58465e-05
-0.000149759
-3.10206e-05
-0.000138228
-0.000212961
-4.85409e-05
-0.000423341
7.96875e-05
-0.000629326
0.000120222
-0.000453269
0.000154697
-0.00013717
0.000312687
0.000131263
0.000326541
0.000385743
-7.03747e-05
0.000242144
-7.38271e-05
0.000170772
3.01906e-05
-5.71042e-05
0.000166111
-0.000227052
0.000278697
-0.00028775
0.000347455
-0.000305931
0.000373494
-0.000313876
0.000342721
-0.000320735
0.000287997
-0.000334123
0.000246171
-0.00035339
0.000238937
-0.000354821
0.000263624
-0.000342483
0.00028469
-0.000294781
0.000277487
-0.00012113
0.000263543
4.13628e-05
0.000221187
0.000130745
0.000178142
0.00015084
0.000135199
0.000160495
9.71612e-05
0.00015704
7.8324e-05
0.000150036
7.4953e-05
0.000146235
8.87737e-05
0.000145138
0.000102845
0.000150213
5.86292e-05
0.000147779
-6.39811e-05
0.000120516
-0.000141559
1.31056e-05
-0.000126987
-0.000165733
-3.50337e-05
-0.000380495
8.62929e-05
-0.000590077
0.00012498
-0.00043223
0.000165469
-0.000116786
0.000329357
0.000149698
0.000348767
0.000417257
-0.000127157
0.000199231
-0.000103602
4.73969e-05
5.59788e-05
-0.00025339
0.000197874
-0.000355472
0.000294978
-0.000374317
0.000352316
-0.000368906
0.000341506
-0.000353619
0.000293861
-0.000349199
0.000241697
-0.000347266
0.000219477
-0.000356345
0.000225581
-0.000343485
0.000254884
-0.0003283
0.000280036
-0.000279926
0.000285366
-8.81363e-05
0.000279977
8.27069e-05
0.000249231
0.000175917
0.000202307
0.000188493
0.000154569
0.000188544
0.000105055
0.000177105
7.91156e-05
0.00016517
7.28247e-05
0.000159913
8.49984e-05
0.000158809
9.98977e-05
0.000166562
5.79271e-05
0.000168941
-5.66104e-05
0.000150592
-0.000131842
5.18134e-05
-0.000110656
-0.000126386
-1.67324e-05
-0.000341577
9.75686e-05
-0.000549206
0.000133801
-0.000414809
0.000175859
-0.00010242
0.000344144
0.000155445
0.00035955
0.000448737
-0.000181455
0.000146449
-5.75591e-05
-0.000132592
0.00011224
-0.000380294
0.000223212
-0.000417874
0.000296753
-0.000407274
0.000308235
-0.000376529
0.000282169
-0.000356585
0.000246269
-0.000343111
0.000213188
-0.000339015
0.0002058
-0.000343679
0.000226296
-0.000323119
0.00025404
-0.000307269
0.000275706
-0.000256348
0.000291759
-5.79446e-05
0.000294134
0.000115914
0.00027447
0.00021481
0.000223303
0.000224201
0.000171955
0.000215619
0.000112207
0.000196428
7.96519e-05
0.000178034
7.08203e-05
0.000169926
8.20116e-05
0.000168353
9.80274e-05
0.000178221
6.02908e-05
0.000184573
-4.32751e-05
0.000172911
-0.000113718
8.32748e-05
-8.74696e-05
-9.16717e-05
5.96707e-06
-0.000306945
0.00011333
-0.000505219
0.000148579
-0.000397123
0.000188331
-9.44523e-05
0.000353557
0.000153581
0.000356196
0.000474472
-0.000188171
9.01644e-05
1.53395e-05
-0.000297822
0.00014438
-0.000432945
0.000227453
-0.000429951
0.000249289
-0.000384611
0.000235755
-0.000352399
0.000222244
-0.000334594
0.000203435
-0.000318406
0.000197833
-0.000323657
0.000200654
-0.000316883
0.000228578
-0.000291751
0.000256139
-0.000279203
0.000273522
-0.00022481
0.000294917
-2.87327e-05
0.000303346
0.000146021
0.000291783
0.000246342
0.000236642
0.000253564
0.00018223
0.000238233
0.000114727
0.000212584
7.72499e-05
0.0001871
6.67084e-05
0.000175534
7.79637e-05
0.000173423
9.45361e-05
0.000185613
6.16814e-05
0.000195416
-2.89146e-05
0.000187013
-8.93402e-05
0.000105024
-6.03502e-05
-5.99669e-05
3.17787e-05
-0.00027139
0.000132544
-0.000457483
0.000169448
-0.000376848
0.000202789
-9.05329e-05
0.000360976
0.000146582
0.000346637
0.000490191
-0.000131568
-7.50248e-06
6.44419e-05
-0.000411216
0.000153683
-0.000432037
0.000182954
-0.000393495
0.000167444
-0.000343629
0.000162388
-0.000318395
0.00016752
-0.000305553
0.00018242
-0.000298789
0.000187597
-0.000297795
0.00019696
-0.00028377
0.00022542
-0.000253185
0.000252638
-0.000245038
0.000268252
-0.000183912
0.000288547
8.56215e-06
0.000300925
0.00017649
0.000292505
0.000274805
0.00023632
0.000277952
0.000180083
0.000258343
0.000109633
0.000225986
7.06777e-05
0.000193015
6.05797e-05
0.000177778
7.24561e-05
0.000176117
8.96089e-05
0.000189961
6.26192e-05
0.000201763
-1.94925e-05
0.000196275
-7.34483e-05
0.000121685
-4.1418e-05
-3.2205e-05
5.42176e-05
-0.000236595
0.000154198
-0.000408383
0.000195711
-0.000352571
0.000219987
-8.71526e-05
0.000364998
0.000140213
0.000330806
0.00050044
-2.65404e-05
-0.000207677
9.53507e-05
-0.00044486
0.000125361
-0.000380128
0.000106307
-0.000340224
9.00243e-05
-0.000293533
0.000100278
-0.000287911
0.000127363
-0.00028567
0.000161103
-0.00027563
0.000175074
-0.00026726
0.00018834
-0.000248134
0.000214916
-0.000213031
0.000239651
-0.000206789
0.000254619
-0.000134963
0.000272569
5.84113e-05
0.000282294
0.000214453
0.000272415
0.000301923
0.000219964
0.000292876
0.00016678
0.000269545
9.69847e-05
0.000232681
6.01291e-05
0.000191542
5.26819e-05
0.000175414
6.70953e-05
0.000174466
8.39699e-05
0.000190159
6.02061e-05
0.00020455
-1.3406e-05
0.000201278
-5.79657e-05
0.000133621
-2.22443e-05
-8.44973e-06
7.81098e-05
-0.00020135
0.000178925
-0.000357649
0.000229597
-0.00032271
0.000245821
-8.19372e-05
0.000362165
0.000133484
0.00031247
0.000510638
4.24872e-05
-0.000317561
6.8842e-05
-0.000375166
5.80442e-05
-0.000319007
3.6744e-05
-0.000295465
3.22039e-05
-0.000284886
4.93881e-05
-0.000285484
8.08576e-05
-0.00027707
0.000120028
-0.000256072
0.000148636
-0.000237412
0.000169428
-0.000213159
0.000195524
-0.000178313
0.00021978
-0.000168017
0.000231207
-8.22703e-05
0.000244881
0.000122833
0.000251534
0.000266543
0.000237844
0.000334964
0.000189154
0.000301589
0.00014271
0.000271091
7.7556e-05
0.000229987
4.60472e-05
0.000185685
4.34195e-05
0.000170934
6.1204e-05
0.000172478
7.70012e-05
0.000189521
5.5948e-05
0.000205565
-6.97321e-06
0.000203532
-4.16338e-05
0.000142936
3.68833e-06
1.05526e-05
0.000106197
-0.000164489
0.000207499
-0.000305613
0.000268933
-0.00028569
0.000276749
-7.30527e-05
0.000355508
0.000127825
0.0002946
0.000517125
-4.8586e-06
-0.000359451
1.29909e-05
-0.000340623
-4.79708e-06
-0.000294646
-1.41241e-05
-0.000290335
-6.92828e-06
-0.000294874
7.6508e-06
-0.000294472
3.66576e-05
-0.00028735
7.24015e-05
-0.000255582
0.000105095
-0.00020921
0.000135896
-0.000180361
0.00016479
-0.000147917
0.000203229
-0.00015182
0.000181064
-1.30095e-05
0.000191043
0.000194271
0.000207201
0.000320497
0.000199535
0.000371716
0.000156147
0.000310437
0.00011215
0.000269861
5.45776e-05
0.000221883
3.06578e-05
0.000177583
3.39811e-05
0.000165708
5.494e-05
0.000170169
6.97539e-05
0.000187807
5.27342e-05
0.000205966
2.47664e-06
0.000204278
-1.55091e-05
0.000149197
3.61614e-05
2.75527e-05
0.000138563
-0.000128067
0.000239091
-0.000254637
0.000308075
-0.000241196
0.000306684
-5.97252e-05
0.000350542
0.000121046
0.000277119
0.000500164
-2.30317e-05
-0.00035028
-3.68906e-05
-0.000312023
-4.54665e-05
-0.000289633
-4.78294e-05
-0.000291188
-4.32348e-05
-0.000299157
-2.71888e-05
-0.000300691
-2.58391e-06
-0.000295117
2.40348e-05
-0.000258537
5.05572e-05
-0.00019145
7.89741e-05
-0.000146186
0.000108984
-0.000114669
0.000129408
-0.000121413
0.000109857
5.74857e-05
0.000129519
0.000256109
0.000163801
0.000363491
0.000163553
0.00040446
0.000124944
0.000312084
8.22747e-05
0.00026402
3.22502e-05
0.000207728
1.59917e-05
0.000168284
2.55933e-05
0.000159733
4.85247e-05
0.000167699
6.35374e-05
0.000185619
5.12148e-05
0.000206021
1.39755e-05
0.000205282
1.06572e-05
0.000155193
6.82255e-05
4.42354e-05
0.000172602
-9.76025e-05
0.000271768
-0.0002095
0.000337912
-0.000196647
0.000325851
-4.45288e-05
0.000348372
0.000114739
0.000259964
0.000472475
-7.96316e-05
-0.000334162
-7.68679e-05
-0.000308217
-7.13388e-05
-0.000293692
-6.85197e-05
-0.000293084
-6.35488e-05
-0.000300592
-5.40595e-05
-0.000303639
-4.20176e-05
-0.000294626
-3.09063e-05
-0.000252341
-3.6319e-06
-0.00019361
8.67422e-06
-0.000110032
4.9145e-05
-9.0314e-05
6.92716e-05
-9.44012e-05
7.72384e-05
0.000129477
0.000100369
0.000330056
0.000149057
0.000413443
0.000134951
0.000429281
9.84408e-05
0.000304835
5.27178e-05
0.000251481
1.22443e-05
0.000190173
3.26007e-06
0.000156867
1.80268e-05
0.000153719
4.15998e-05
0.000164827
5.80063e-05
0.000183063
5.12611e-05
0.000205024
2.80003e-05
0.000206973
3.97084e-05
0.000161608
0.000103245
5.95688e-05
0.000207118
-7.22821e-05
0.000303137
-0.000171114
0.000354792
-0.000152314
0.000337143
-3.19464e-05
0.000344967
0.000110236
0.000243294
0.000443924
-0.000124694
-0.000330129
-0.000103713
-0.000312423
-8.61669e-05
-0.000301666
-7.39677e-05
-0.00029736
-7.04542e-05
-0.000298924
-7.15068e-05
-0.000300207
-6.86704e-05
-0.000288056
-6.68027e-05
-0.000244877
-5.9206e-05
-0.000187866
-2.49216e-05
-0.000107887
5.42074e-06
-7.49104e-05
2.64119e-05
-6.02535e-05
4.7838e-05
0.000210131
9.23381e-05
0.00039909
0.000140201
0.000465756
0.00011469
0.000434428
7.54617e-05
0.000291053
2.78724e-05
0.000232154
-6.74077e-06
0.000171772
-9.54143e-06
0.000145355
9.9848e-06
0.000147614
3.40756e-05
0.000161224
5.15006e-05
0.000179989
5.01957e-05
0.000203532
4.088e-05
0.000209562
6.55575e-05
0.000168964
0.000133254
7.61374e-05
0.000234422
-4.81629e-05
0.000323061
-0.000136433
0.000351391
-0.000117423
0.000332741
-2.35817e-05
0.000338872
0.000104421
0.000229842
0.000408786
-0.000156415
-0.000337912
-0.000120617
-0.000326043
-9.08329e-05
-0.000308547
-7.20516e-05
-0.000300587
-7.15751e-05
-0.000294374
-7.70122e-05
-0.000294195
-8.2321e-05
-0.000282212
-8.59245e-05
-0.000241822
-8.40458e-05
-0.000182271
-4.64652e-05
-0.00010952
-1.79947e-05
-5.81487e-05
-8.42799e-06
-8.02509e-06
2.9026e-05
0.000290498
9.60805e-05
0.00045139
0.000141025
0.000516854
0.000103127
0.000421911
5.63662e-05
0.000273196
7.676e-06
0.000208483
-2.11331e-05
0.000154901
-2.0934e-05
0.000135827
1.505e-06
0.000141556
2.56983e-05
0.000157552
4.39329e-05
0.000176305
4.85197e-05
0.000201332
5.21181e-05
0.00021143
8.60939e-05
0.00017674
0.000154232
9.58847e-05
0.000248226
-1.69566e-05
0.000318329
-9.46663e-05
0.000315343
-8.7914e-05
0.000312615
-1.21474e-05
0.000327068
9.9508e-05
0.0002169
0.000378371
-0.000176051
-0.00034975
-0.00013165
-0.000333534
-8.83691e-05
-0.000317127
-6.903e-05
-0.000301572
-6.68505e-05
-0.000294972
-7.7126e-05
-0.000292544
-8.98255e-05
-0.000278161
-9.56191e-05
-0.000237292
-9.70385e-05
-0.000173459
-6.56268e-05
-0.000103399
-3.94267e-05
-3.42638e-05
-4.24092e-05
5.51295e-05
1.81799e-05
0.000356434
0.000106994
0.000505373
0.000148827
0.000549625
9.78009e-05
0.000410627
4.03437e-05
0.000254146
-6.61511e-06
0.000185799
-3.27898e-05
0.000141005
-3.02714e-05
0.000128113
-5.46535e-06
0.000136167
1.68974e-05
0.000153636
3.6039e-05
0.000171206
4.78523e-05
0.000197766
6.30157e-05
0.000210953
0.000104473
0.000183445
0.000170871
0.000118649
0.000253889
1.92316e-05
0.000309992
-4.83459e-05
0.000293584
-5.53761e-05
0.000297807
5.71661e-06
0.00032745
0.000104111
0.000219849
0.000380913
-0.000186287
-0.000357297
-0.000135074
-0.000340749
-8.99603e-05
-0.000323181
-6.50293e-05
-0.000304642
-6.32885e-05
-0.00029561
-7.78995e-05
-0.00029017
-9.42108e-05
-0.000273313
-0.000101671
-0.000230111
-0.000104978
-0.000162553
-8.15229e-05
-8.92571e-05
-5.95558e-05
-3.67858e-06
-6.35816e-05
0.000113338
1.37292e-05
0.000408335
0.000120932
0.000542337
0.000156756
0.000567634
9.49339e-05
0.000396385
2.72453e-05
0.000234748
-1.90565e-05
0.000167247
-4.23108e-05
0.000130405
-3.87847e-05
0.000122688
-1.51043e-05
0.000132002
7.78789e-06
0.000149202
2.81373e-05
0.000165514
4.77447e-05
0.000190907
7.68019e-05
0.00020624
0.00012526
0.000188146
0.000193017
0.000139502
0.000264715
5.96892e-05
0.000317055
-4.30911e-06
0.000313698
-2.00807e-05
0.000304313
2.4265e-05
0.00033179
0.000109262
0.000218606
0.000406755
-0.000192692
-0.000361988
-0.000139688
-0.00034616
-9.36264e-05
-0.000328606
-6.18663e-05
-0.000309092
-5.87524e-05
-0.000294623
-7.37933e-05
-0.000284511
-9.18638e-05
-0.000264891
-9.97023e-05
-0.000218617
-0.000105467
-0.000145568
-9.17696e-05
-6.4504e-05
-7.54898e-05
3.325e-05
-7.65332e-05
0.000166679
1.33524e-05
0.000447683
0.000129216
0.00056535
0.000161035
0.000571289
8.55589e-05
0.000378031
1.21077e-05
0.000216068
-3.05442e-05
0.000153744
-5.12532e-05
0.000123668
-4.71937e-05
0.00011899
-2.57e-05
0.00012767
-3.12905e-06
0.000145571
1.96537e-05
0.000159176
4.95591e-05
0.000181601
9.33416e-05
0.000197472
0.000152613
0.000187981
0.000224276
0.000151482
0.000292775
8.95693e-05
0.000342326
3.9492e-05
0.000357796
2.4234e-05
0.00033241
5.03237e-05
0.00034586
0.000115163
0.000208149
0.00042307
-0.000199614
-0.000366102
-0.000146381
-0.000351095
-9.89648e-05
-0.000334349
-6.37378e-05
-0.000314142
-5.33689e-05
-0.000294821
-6.5071e-05
-0.000278346
-8.27299e-05
-0.000256485
-9.04575e-05
-0.000207178
-9.76493e-05
-0.000124954
-9.54791e-05
-3.09612e-05
-8.7051e-05
7.57078e-05
-8.46637e-05
0.000216682
1.26718e-05
0.000476008
0.000128814
0.00057827
0.000151207
0.000564085
6.62268e-05
0.000350466
-3.82532e-06
0.000198359
-4.23543e-05
0.000144085
-5.96506e-05
0.000120061
-5.64312e-05
0.00011687
-3.94739e-05
0.000126009
-1.52215e-05
0.000142059
1.19276e-05
0.000151439
5.60446e-05
0.000172169
0.00011379
0.000186331
0.000182363
0.000181513
0.000256598
0.000153806
0.000323207
0.000108378
0.000374688
7.18354e-05
0.00040847
6.15699e-05
0.000377832
7.65765e-05
0.00037903
0.000123273
0.000182691
0.000420505
-0.00020806
-0.000370267
-0.000154726
-0.000355702
-0.000106519
-0.000340261
-7.00177e-05
-0.000319482
-5.12557e-05
-0.000298467
-5.5395e-05
-0.000275915
-7.06326e-05
-0.000248125
-7.97472e-05
-0.000197308
-8.82914e-05
-0.000106504
-9.57523e-05
3.55104e-06
-9.8288e-05
0.000125013
-9.05521e-05
0.000264776
9.78539e-06
0.000498901
0.0001174
0.000585385
0.000125645
0.000546394
3.93346e-05
0.00032301
-2.09228e-05
0.000182058
-5.44166e-05
0.000137565
-6.90562e-05
0.000118224
-6.85789e-05
0.000117495
-5.77579e-05
0.000127035
-3.29186e-05
0.000139764
7.58173e-06
0.00014628
6.65305e-05
0.000164369
0.000133272
0.000176354
0.000208274
0.000170494
0.000284
0.000149276
0.000346955
0.000117575
0.000393892
9.27106e-05
0.000429941
8.65461e-05
0.000411337
9.86471e-05
0.000399453
0.00012804
0.000163648
0.000412192
-0.000217413
-0.000374377
-0.000162797
-0.000361767
-0.000114856
-0.000345807
-7.77697e-05
-0.0003247
-5.65361e-05
-0.000302568
-5.09727e-05
-0.000279044
-5.96103e-05
-0.0002442
-7.30653e-05
-0.000186473
-8.52657e-05
-8.87323e-05
-0.000102489
3.82824e-05
-0.000112429
0.000177931
-9.92143e-05
0.000315785
1.36825e-07
0.00051589
9.50193e-05
0.000577747
8.82522e-05
0.000528704
1.19836e-05
0.000303748
-3.74162e-05
0.000169162
-6.69456e-05
0.000133475
-8.12898e-05
0.000118278
-8.45152e-05
0.00011899
-7.70326e-05
0.000128198
-4.93507e-05
0.000139139
3.59091e-06
0.000144532
7.27374e-05
0.000155609
0.000146041
0.000166837
0.000222989
0.000160441
0.000295835
0.000139569
0.000352989
0.000116366
0.00039728
9.78233e-05
0.000428454
9.43067e-05
0.000428403
0.000106372
0.000415875
0.000130953
0.000153354
0.000418773
-0.00022498
-0.000378997
-0.000171469
-0.000366737
-0.000124283
-0.000349812
-8.69638e-05
-0.000328562
-6.32553e-05
-0.00030437
-5.69561e-05
-0.000279249
-6.09012e-05
-0.000243979
-7.21591e-05
-0.000180877
-8.51083e-05
-7.4933e-05
-0.000113888
6.62751e-05
-0.000125633
0.000224919
-0.000110263
0.000365721
-1.5749e-05
0.000526771
6.40094e-05
0.000569791
4.82296e-05
0.000514287
-1.34724e-05
0.000284399
-5.1467e-05
0.000158562
-8.04694e-05
0.000131035
-9.5372e-05
0.000119923
-0.000102281
0.000120438
-9.53873e-05
0.000129394
-6.42019e-05
0.000138319
-2.51544e-07
0.000144812
7.28668e-05
0.000148252
0.0001498
0.000158176
0.00022675
0.000150826
0.000290017
0.000129651
0.000340047
0.000109268
0.000369023
9.04479e-05
0.000395458
8.67566e-05
0.000403441
9.51324e-05
0.000409327
0.000109872
0.000119484
0.000412238
-0.000230999
-0.0003834
-0.000178319
-0.000369989
-0.000132411
-0.000352493
-9.68593e-05
-0.000330532
-7.44943e-05
-0.000305454
-6.64694e-05
-0.000277315
-7.26765e-05
-0.000237765
-8.92564e-05
-0.000173078
-0.000105268
-6.03156e-05
-0.000135202
0.000100002
-0.000142675
0.000258229
-0.000125422
0.000403402
-4.03996e-05
0.000537869
3.18307e-05
0.000563685
1.23256e-05
0.000492053
-3.11787e-05
0.000262557
-6.33449e-05
0.000151583
-9.42599e-05
0.000128941
-0.000111125
0.000120819
-0.000120697
0.000121604
-0.00011168
0.000130285
-7.55936e-05
0.000137976
-3.98277e-06
0.000143682
7.17702e-05
0.000143508
0.000150218
0.000150729
0.000224971
0.000141302
0.000285914
0.000117873
0.000333194
9.61659e-05
0.000361851
8.2449e-05
0.00039056
7.32476e-05
0.000375691
8.33235e-05
0.000365164
8.38858e-05
6.77183e-05
0.000351483
-0.000234575
-0.000385038
-0.000183739
-0.00037113
-0.000139558
-0.000354115
-0.000106575
-0.000331634
-8.73568e-05
-0.000305338
-8.13134e-05
-0.000273907
-8.84823e-05
-0.000229082
-0.000108245
-0.000158466
-0.000135108
-3.83839e-05
-0.000160725
0.000138164
-0.000157404
0.000299944
-0.000133552
0.000436317
-6.07632e-05
0.00054793
4.48764e-06
0.000553362
-1.62609e-05
0.000460953
-4.58946e-05
0.00024409
-7.64117e-05
0.000147174
-0.000107723
0.000126831
-0.000128256
0.000121777
-0.000138877
0.000122484
-0.00012647
0.000131484
-8.44966e-05
0.000138024
-1.10743e-05
0.000142129
6.81295e-05
0.000139887
0.000147722
0.000145466
0.000220439
0.000131611
0.000281665
0.000104972
0.000327519
7.90407e-05
0.000364239
6.32872e-05
0.000381347
5.46499e-05
0.000383534
6.05581e-05
0.000363553
5.35976e-05
3.09015e-05
0.000298239
-0.000235211
-0.000384141
-0.000185501
-0.000370916
-0.000144061
-0.000353484
-0.000115309
-0.000331421
-0.000100814
-0.00030442
-9.75438e-05
-0.000270206
-0.000104507
-0.00022098
-0.000125158
-0.000143279
-0.000157356
-1.14462e-05
-0.000181273
0.000182143
-0.000169576
0.000359473
-0.000138745
0.000480207
-7.57203e-05
0.000558886
-2.7794e-05
0.000539323
-4.03293e-05
0.000424996
-5.99601e-05
0.000224429
-9.05504e-05
0.000142614
-0.000122935
0.000124336
-0.000146785
0.000122557
-0.000156736
0.000123563
-0.000140585
0.00013354
-9.33316e-05
0.000139819
-1.86711e-05
0.000141523
6.21086e-05
0.000138001
0.000143344
0.000142764
0.000215328
0.000124747
0.000277975
9.3604e-05
0.000322867
6.53162e-05
0.000355211
4.51356e-05
0.000361983
3.65725e-05
0.000378452
1.95026e-05
0.000347367
1.34995e-05
-1.68531e-05
0.000270137
-0.000231575
-0.000381576
-0.000183727
-0.000368867
-0.000145261
-0.000352561
-0.000122096
-0.000330547
-0.000113707
-0.000303709
-0.000113541
-0.000267327
-0.000120514
-0.000214812
-0.000140055
-0.000130368
-0.000175853
1.53519e-05
-0.000204544
0.000229379
-0.000177197
0.000421518
-0.000141234
0.000524098
-8.40444e-05
0.000560986
-5.08836e-05
0.000517577
-6.20925e-05
0.000384901
-7.4395e-05
0.000204618
-0.000106125
0.0001383
-0.000140119
0.000122501
-0.000165554
0.000123917
-0.00017437
0.000125712
-0.000154838
0.000136594
-0.000102629
0.000142697
-2.67231e-05
0.000142284
5.52199e-05
0.000138462
0.000138553
0.000143272
0.000210715
0.000121718
0.000274091
8.81731e-05
0.000321887
5.67703e-05
0.000341684
3.11533e-05
0.000359706
9.86302e-06
0.000344969
1.67403e-06
0.000317632
-4.51202e-05
-6.79625e-05
0.000235396
-0.000224091
-0.000377958
-0.000178066
-0.000365717
-0.000142921
-0.000351472
-0.000126816
-0.000330257
-0.00012527
-0.000304174
-0.000128277
-0.000266744
-0.000134841
-0.000211541
-0.000152247
-0.00012207
-0.000189251
3.37756e-05
-0.000222689
0.000271356
-0.000187985
0.000477268
-0.000140652
0.000564506
-9.09911e-05
0.00056268
-7.49646e-05
0.000488835
-8.2749e-05
0.000345661
-8.9154e-05
0.000187635
-0.000123493
0.000133028
-0.000158655
0.000121261
-0.000185805
0.000125405
-0.00019322
0.000130149
-0.000170693
0.000141261
-0.000112685
0.000147609
-3.41237e-05
0.000148114
4.86476e-05
0.000141806
0.000134233
0.000146676
0.000208444
0.000122223
0.000274086
8.75224e-05
0.000318243
5.38552e-05
0.000344496
2.52723e-05
0.000338438
-2.88822e-06
0.000347063
-3.43521e-05
0.000296613
-8.28925e-05
-0.000115347
0.000219319
-0.00021326
-0.000373026
-0.000168223
-0.000362993
-0.000136357
-0.000350954
-0.000128075
-0.000330701
-0.000134114
-0.000306432
-0.00014015
-0.000269414
-0.000145518
-0.000212373
-0.000159236
-0.000118558
-0.000196976
4.5035e-05
-0.000230676
0.000303747
-0.000191565
0.000520007
-0.000143338
0.000594143
-0.000101893
0.000560233
-0.000100401
0.000455926
-0.000103525
0.000317184
-0.00010701
0.000181957
-0.000139188
0.000128785
-0.000176946
0.000121704
-0.00020731
0.000128263
-0.000212273
0.000136742
-0.000186732
0.00014791
-0.000123288
0.000155404
-4.11967e-05
0.000155946
4.27145e-05
0.000149953
0.000130985
0.000153777
0.000207174
0.000127307
0.000274154
9.19439e-05
0.000317687
5.61648e-05
0.000344022
2.31677e-05
0.000335364
-1.15817e-05
0.000328476
-5.80383e-05
0.000289073
-0.000130053
-0.000155799
0.000214544
-0.000199946
-0.00036427
-0.000153407
-0.00035808
-0.000125016
-0.000348381
-0.000124138
-0.000332048
-0.000135847
-0.000312175
-0.000143618
-0.000277058
-0.000147965
-0.000216414
-0.000159563
-0.000116467
-0.000197491
5.00116e-05
-0.000232134
0.00032813
-0.000193919
0.000550306
-0.000142967
0.000611742
-0.00011314
0.000548205
-0.000122069
0.000422524
-0.000130601
0.00030362
-0.000126649
0.000184066
-0.000155714
0.000128662
-0.00019683
0.000124081
-0.000227913
0.000133663
-0.000227337
0.000145244
-0.000197633
0.000157263
-0.00013085
0.00016462
-4.80267e-05
0.00016517
3.67184e-05
0.000158954
0.000127962
0.000160369
0.000206701
0.000134014
0.000274637
9.89067e-05
0.000316595
6.14203e-05
0.000345901
2.30073e-05
0.000343311
-2.12317e-05
0.00033565
-8.92975e-05
0.000291512
-0.00017214
-0.000180867
0.000215962
-0.000186769
-0.000354807
-0.000138309
-0.000352452
-0.000110452
-0.000347203
-0.000114259
-0.000335078
-0.000131894
-0.000322848
-0.000140895
-0.000293017
-0.00013916
-0.000230361
-0.000143023
-0.000122198
-0.000180052
4.69428e-05
-0.000226446
0.000343709
-0.000189587
0.000572569
-0.000141921
0.00061493
-0.000119297
0.000526655
-0.000133341
0.000397867
-0.000150634
0.000299308
-0.000146621
0.000193609
-0.00017024
0.000132256
-0.0002139
0.000128143
-0.000242147
0.00014069
-0.000235744
0.000154188
-0.000203288
0.000167159
-0.000137153
0.000175226
-5.54388e-05
0.000174353
3.08891e-05
0.00016579
0.000126691
0.000162035
0.000208387
0.000137735
0.000277751
0.000103436
0.000321253
6.37492e-05
0.000353358
1.52111e-05
0.000361458
-4.01402e-05
0.000357188
-0.000138214
0.000295894
-0.000204978
-0.000183099
0.000212717
-0.000178308
-0.000344486
-0.000126291
-0.000347964
-9.64676e-05
-0.000348614
-0.000103285
-0.000343773
-0.000125422
-0.000335285
-0.00013629
-0.000316466
-0.000128932