/*--------------------------------*- C++ -*----------------------------------*\
  =========                 |
  \\      /  F ield         | OpenFOAM: The Open Source CFD Toolbox
   \\    /   O peration     | Website:  https://openfoam.org
    \\  /    A nd           | Version:  10
     \\/     M anipulation  |
\*---------------------------------------------------------------------------*/
FoamFile
{
    format      ascii;
    class       volScalarField;
    location    "0.0508103";
    object      rho;
}
// * * * * * * * * * * * * * * * * * * * * * * * * * * * * * * * * * * * * * //

dimensions      [1 -3 0 0 0 0 0];

internalField   nonuniform List<scalar> 
16320
(
0.714078
0.749624
0.790165
0.854501
0.946374
1.05081
1.175
1.25859
1.3178
1.39098
1.47937
1.55702
1.58389
1.49083
1.32121
1.10446
0.868015
0.663283
0.535132
0.469017
0.445871
0.442276
0.454354
0.508553
0.630265
0.811414
0.914276
0.95396
1.01163
1.07931
0.879549
0.721332
0.642654
0.734225
0.753098
0.782131
0.818247
0.871271
0.958669
1.12175
1.3166
1.47298
1.5805
1.63933
1.66104
1.61126
1.45315
1.22754
0.987929
0.760739
0.579349
0.469114
0.420327
0.407571
0.411821
0.437467
0.509115
0.644157
0.839607
0.94003
0.989777
1.07517
1.12944
0.873129
0.807553
0.765999
0.772486
0.753369
0.770065
0.784359
0.815471
0.8708
1.01077
1.18235
1.32642
1.42605
1.46398
1.45634
1.35453
1.14796
0.942051
0.760723
0.608674
0.481447
0.404153
0.373795
0.366566
0.375576
0.409622
0.494932
0.646336
0.851296
0.973874
1.04191
1.15026
1.17321
0.912995
0.9148
1.0042
0.791968
0.750301
0.745879
0.752847
0.77973
0.825501
0.954937
1.10618
1.23483
1.30336
1.32133
1.26561
1.10126
0.903407
0.737495
0.608001
0.5089
0.41992
0.366046
0.346471
0.341544
0.352888
0.392063
0.485127
0.650872
0.872473
1.01057
1.09789
1.2295
1.16897
0.88867
0.982556
1.13956
0.747266
0.71286
0.711755
0.729802
0.772046
0.872764
1.00981
1.13076
1.22339
1.25854
1.25168
1.14964
0.947619
0.781512
0.645676
0.536547
0.439923
0.377906
0.344857
0.331301
0.329416
0.342458
0.385922
0.485362
0.663691
0.893635
1.04424
1.16166
1.3108
1.16325
0.854503
1.01927
1.20098
0.678441
0.67297
0.693573
0.739293
0.804695
0.905434
1.01491
1.119
1.20263
1.22521
1.20476
1.06502
0.867839
0.729877
0.618498
0.51248
0.413584
0.364061
0.338313
0.328118
0.328626
0.345128
0.394185
0.498046
0.684864
0.919697
1.08023
1.23022
1.39654
1.12301
0.825668
1.04095
1.23404
0.614788
0.642585
0.684976
0.733886
0.808701
0.929677
1.04303
1.14121
1.21001
1.21389
1.16851
1.00376
0.825568
0.711461
0.618277
0.520919
0.415455
0.371645
0.344993
0.334296
0.336101
0.355984
0.411166
0.516619
0.712578
0.944352
1.11484
1.29153
1.45384
1.11559
0.831743
1.07096
1.25514
0.568075
0.615336
0.675607
0.766643
0.905206
1.01762
1.09482
1.1671
1.21135
1.19947
1.13205
0.967752
0.811807
0.717742
0.636109
0.553084
0.437664
0.392921
0.361579
0.347652
0.349135
0.369585
0.430184
0.537366
0.741145
0.9649
1.14233
1.3182
1.47359
1.11945
0.841299
1.09395
1.27088
0.550451
0.608763
0.730908
0.888569
1.00868
1.08023
1.13168
1.17887
1.1947
1.1702
1.09055
0.954326
0.820575
0.738194
0.669393
0.601876
0.474049
0.420929
0.380829
0.361566
0.362211
0.383456
0.447591
0.557644
0.761822
0.982176
1.15396
1.32054
1.47483
1.12478
0.84691
1.09599
1.27521
0.558177
0.645444
0.85331
1.0014
1.0767
1.1177
1.14679
1.15997
1.15296
1.12482
1.05955
0.957512
0.840133
0.76019
0.704249
0.648061
0.512611
0.451106
0.401062
0.374907
0.373518
0.393842
0.461369
0.57435
0.775466
0.991943
1.1541
1.31017
1.46637
1.14116
0.847854
1.07457
1.26349
0.59869
0.749271
0.936142
1.02623
1.08034
1.09831
1.10086
1.08007
1.07708
1.07118
1.03747
0.962311
0.857809
0.781518
0.736595
0.686104
0.548867
0.47733
0.419311
0.386408
0.3823
0.401812
0.470313
0.582622
0.777256
0.989425
1.14239
1.29009
1.44198
1.16017
0.843283
1.04059
1.24008
0.699702
0.852903
0.95544
1.00771
1.01739
1.00949
0.973161
0.968935
0.989914
1.02666
1.0168
0.962945
0.864909
0.790847
0.760236
0.716827
0.579381
0.498088
0.435383
0.396753
0.389918
0.408666
0.476849
0.586383
0.77514
0.983473
1.12413
1.26034
1.40756
1.17238
0.835212
0.995818
1.20621
0.789015
0.900106
0.937072
0.941123
0.908505
0.85307
0.828256
0.851446
0.908046
0.987222
0.995115
0.954091
0.865154
0.786098
0.7698
0.734095
0.602297
0.509851
0.444578
0.40192
0.393275
0.411703
0.479172
0.586451
0.771388
0.976925
1.10707
1.23015
1.36899
1.17654
0.826704
0.940518
1.15417
0.836752
0.889846
0.897191
0.843448
0.746768
0.694527
0.704075
0.757749
0.847222
0.944743
0.965557
0.932726
0.851741
0.773677
0.766138
0.734723
0.603081
0.509741
0.44477
0.401179
0.392663
0.41094
0.479022
0.586253
0.769211
0.966863
1.08284
1.19373
1.32444
1.17379
0.81949
0.882254
1.0975
0.974771
0.889861
0.821893
0.705312
0.590695
0.578901
0.604409
0.669103
0.794223
0.897194
0.924302
0.896809
0.821201
0.753283
0.751489
0.725608
0.589695
0.501154
0.438833
0.395488
0.388822
0.407873
0.476723
0.585987
0.76303
0.946603
1.05209
1.15267
1.27456
1.16599
0.817628
0.82309
1.02403
1.0004
0.836341
0.686922
0.561581
0.497641
0.498948
0.521485
0.587992
0.735439
0.851086
0.874792
0.84478
0.768428
0.723432
0.729266
0.703935
0.556857
0.482338
0.424558
0.383271
0.379851
0.401876
0.472471
0.581956
0.751141
0.91907
1.01453
1.10755
1.21896
1.14847
0.820695
0.776993
0.941403
0.837434
0.71952
0.565632
0.496893
0.476909
0.479348
0.498116
0.541091
0.684214
0.811993
0.825344
0.774801
0.676558
0.648183
0.693535
0.681871
0.525805
0.458838
0.403042
0.366452
0.36826
0.395592
0.466554
0.576711
0.736078
0.886878
0.974941
1.05686
1.15708
1.11197
0.823957
0.741712
0.850627
0.769256
0.633201
0.515647
0.479986
0.476282
0.491072
0.512622
0.541075
0.660358
0.791108
0.771883
0.701294
0.59519
0.619491
0.657064
0.664427
0.497436
0.436189
0.379215
0.346801
0.355497
0.389089
0.459689
0.571789
0.718145
0.848824
0.928784
1.00109
1.0945
1.05401
0.80989
0.703739
0.769863
0.694251
0.569894
0.497557
0.479754
0.487376
0.506196
0.5256
0.545264
0.652061
0.775571
0.715458
0.627984
0.587686
0.638274
0.668425
0.653622
0.464894
0.410577
0.351543
0.324197
0.342408
0.383154
0.453258
0.566804
0.701745
0.814863
0.885749
0.949607
1.03442
0.987092
0.776768
0.662329
0.685144
0.625116
0.541247
0.496864
0.483533
0.494473
0.515906
0.531359
0.546546
0.644517
0.746991
0.660128
0.565902
0.60086
0.676722
0.702738
0.641553
0.435511
0.38415
0.32573
0.303259
0.330417
0.376905
0.44831
0.559648
0.688485
0.788557
0.852501
0.915434
0.979758
0.906947
0.713569
0.616741
0.608953
0.585149
0.530444
0.498561
0.489189
0.495834
0.521832
0.532873
0.535336
0.607567
0.689643
0.602684
0.538619
0.640795
0.705962
0.740786
0.61675
0.410362
0.35504
0.301036
0.285956
0.31901
0.371806
0.444347
0.553658
0.68251
0.764938
0.823851
0.893986
0.928829
0.828413
0.680937
0.602675
0.5786
0.572774
0.533672
0.504224
0.489746
0.49063
0.502376
0.506263
0.509688
0.547759
0.629331
0.573168
0.542615
0.677913
0.736079
0.78055
0.593872
0.393011
0.331339
0.282774
0.274273
0.310585
0.371091
0.442986
0.553089
0.672298
0.734631
0.799486
0.860278
0.8868
0.795036
0.652642
0.62732
0.618872
0.572842
0.539936
0.507678
0.485584
0.482408
0.485829
0.486419
0.485375
0.514039
0.591862
0.564377
0.566971
0.703339
0.775771
0.808515
0.58139
0.379746
0.312034
0.268552
0.266606
0.305509
0.371756
0.443759
0.552949
0.659808
0.706663
0.767908
0.811073
0.84541
0.797676
0.6411
0.611094
0.655571
0.576294
0.542391
0.509305
0.478012
0.462663
0.459235
0.463241
0.4677
0.493329
0.57351
0.564712
0.58461
0.720888
0.805687
0.829334
0.570756
0.36449
0.295323
0.259094
0.263624
0.30504
0.374674
0.448624
0.55465
0.644251
0.684487
0.734036
0.761959
0.808572
0.80202
0.665922
0.616435
0.651102
0.5769
0.542257
0.509241
0.473515
0.447282
0.43749
0.440702
0.447189
0.470143
0.5555
0.570773
0.600178
0.732913
0.82593
0.832429
0.546059
0.343135
0.281324
0.254317
0.264244
0.308172
0.382161
0.461384
0.556249
0.625864
0.662075
0.699921
0.722136
0.761704
0.772947
0.704046
0.618438
0.622419
0.576561
0.542221
0.509067
0.471335
0.438854
0.421558
0.418477
0.42693
0.444662
0.52157
0.57166
0.608457
0.736337
0.839534
0.822823
0.507816
0.317906
0.270148
0.253546
0.268492
0.317313
0.395138
0.469748
0.555327
0.604306
0.637989
0.668335
0.690033
0.709743
0.719892
0.69952
0.616699
0.608337
0.574313
0.541896
0.509332
0.471292
0.437046
0.414732
0.406063
0.408789
0.423764
0.491417
0.576824
0.620866
0.74008
0.846172
0.800763
0.474373
0.297068
0.263588
0.25605
0.278258
0.332499
0.407504
0.471661
0.542513
0.583788
0.611829
0.641226
0.651849
0.659103
0.661107
0.658001
0.610037
0.608514
0.571776
0.543657
0.514055
0.477653
0.44102
0.41407
0.402701
0.403481
0.415442
0.458723
0.580736
0.634152
0.731199
0.831022
0.769829
0.446688
0.281791
0.260585
0.260954
0.289328
0.347408
0.414579
0.470707
0.517591
0.559405
0.594137
0.604141
0.615902
0.591911
0.586208
0.57694
0.566898
0.599349
0.571727
0.548504
0.519474
0.488199
0.453539
0.424063
0.404982
0.41192
0.432794
0.472084
0.57535
0.650439
0.735644
0.816406
0.728891
0.413058
0.270234
0.259605
0.268246
0.299985
0.358776
0.41698
0.468943
0.497553
0.536565
0.568071
0.57464
0.584609
0.55788
0.561615
0.540622
0.505079
0.545323
0.574422
0.55499
0.53455
0.504103
0.471187
0.440256
0.41958
0.424828
0.459352
0.531991
0.595303
0.662897
0.736869
0.787294
0.671689
0.386893
0.265777
0.259141
0.276661
0.310276
0.367999
0.4211
0.462638
0.482818
0.518596
0.543427
0.548711
0.538449
0.54202
0.530309
0.524637
0.543817
0.549332
0.578612
0.566039
0.548489
0.524499
0.492758
0.461524
0.439717
0.449745
0.49875
0.604717
0.655417
0.695809
0.743694
0.756496
0.623711
0.367084
0.264296
0.260349
0.284805
0.320145
0.376543
0.425229
0.457961
0.472992
0.505809
0.523053
0.524836
0.508946
0.509753
0.49069
0.514271
0.552183
0.575427
0.582834
0.57677
0.565709
0.544915
0.517098
0.484967
0.465319
0.481816
0.544424
0.689491
0.747698
0.746205
0.757558
0.729397
0.577982
0.344464
0.263317
0.262042
0.292801
0.32814
0.386277
0.43137
0.457592
0.468119
0.498152
0.512398
0.504062
0.499147
0.471322
0.481788
0.503833
0.572497
0.554389
0.587221
0.587739
0.582873
0.567784
0.542529
0.510383
0.492051
0.514208
0.595085
0.771151
0.845643
0.808546
0.767083
0.701973
0.538452
0.32441
0.260948
0.26412
0.301298
0.341399
0.397137
0.440773
0.460945
0.467086
0.494096
0.504226
0.498865
0.479801
0.473638
0.456328
0.484975
0.551268
0.539117
0.59254
0.59644
0.597977
0.588276
0.567192
0.536862
0.520045
0.543413
0.639318
0.843576
0.925714
0.87633
0.796691
0.681469
0.506954
0.314684
0.25779
0.267537
0.310528
0.359535
0.410014
0.449947
0.467041
0.467992
0.492077
0.500207
0.495648
0.476787
0.470798
0.464813
0.4871
0.566055
0.501229
0.594461
0.599725
0.604436
0.59998
0.58589
0.561897
0.544341
0.560875
0.670938
0.911072
0.993705
0.933865
0.822807
0.660418
0.497368
0.326743
0.260098
0.275409
0.324019
0.374184
0.419428
0.454235
0.468636
0.467496
0.490715
0.500526
0.497524
0.481773
0.480591
0.482364
0.510155
0.58865
0.478722
0.593637
0.598387
0.605789
0.603983
0.597276
0.582028
0.561775
0.558617
0.645093
0.959235
1.05669
0.97498
0.832357
0.645525
0.501291
0.345134
0.264232
0.283964
0.334642
0.381939
0.421182
0.453184
0.467144
0.465383
0.48945
0.502757
0.503482
0.493377
0.501318
0.515104
0.556929
0.618306
0.454721
0.590979
0.594835
0.601951
0.600404
0.60137
0.595474
0.575985
0.557515
0.602446
0.919366
1.10042
1.00658
0.832256
0.644895
0.518903
0.37204
0.276232
0.291173
0.341497
0.383214
0.417843
0.44775
0.461191
0.459235
0.490325
0.516153
0.520483
0.53216
0.528493
0.583184
0.608826
0.621139
0.406959
0.586213
0.587217
0.58678
0.58521
0.594777
0.598788
0.58132
0.550101
0.557649
0.83151
1.11036
1.03052
0.838512
0.652258
0.536403
0.402647
0.291736
0.297382
0.342782
0.379081
0.408317
0.434285
0.447468
0.445696
0.47708
0.50824
0.525462
0.533923
0.579325
0.59152
0.632359
0.517102
0.345669
0.577988
0.575761
0.568543
0.562754
0.577002
0.597822
0.587869
0.555077
0.532936
0.730109
1.06543
1.02469
0.850412
0.672625
0.570449
0.432889
0.305622
0.300545
0.339719
0.368802
0.393339
0.416515
0.429842
0.437294
0.439623
0.465149
0.499167
0.526411
0.591438
0.616174
0.606487
0.429469
0.316365
0.566915
0.562747
0.5466
0.537493
0.554719
0.593851
0.597664
0.568945
0.537719
0.682818
1.01358
1.01348
0.860043
0.716158
0.613185
0.462018
0.314947
0.297915
0.331889
0.356451
0.376611
0.399318
0.414352
0.432303
0.42256
0.451409
0.507017
0.559138
0.629742
0.623858
0.54408
0.339826
0.300291
0.554511
0.54692
0.52678
0.513207
0.531574
0.584994
0.612439
0.588336
0.554079
0.657021
0.952897
0.992364
0.863232
0.760088
0.656997
0.495112
0.325673
0.297021
0.320514
0.34464
0.367845
0.384547
0.402654
0.428524
0.42312
0.462296
0.541829
0.603454
0.655133
0.578034
0.451806
0.298802
0.309439
0.550583
0.545344
0.51896
0.499101
0.510362
0.571173
0.622544
0.61345
0.578763
0.666059
0.93074
0.960749
0.870444
0.805222
0.702566
0.542909
0.35358
0.303616
0.314074
0.338508
0.360951
0.375033
0.395302
0.429069
0.429007
0.481899
0.577903
0.637527
0.559349
0.518565
0.416454
0.294909
0.334233
0.573067
0.571892
0.538853
0.501845
0.499563
0.556339
0.627922
0.634755
0.600638
0.69178
0.945542
0.952762
0.889869
0.846286
0.756202
0.595978
0.386392
0.309384
0.312896
0.335451
0.355692
0.369268
0.391475
0.432373
0.436409
0.503907
0.594307
0.615828
0.4425
0.510969
0.488277
0.364566
0.572968
0.639981
0.641164
0.593343
0.529374
0.506202
0.547265
0.630274
0.652576
0.614365
0.69987
0.965162
0.968664
0.916758
0.886924
0.813689
0.64419
0.41667
0.319042
0.313827
0.331824
0.348231
0.363014
0.391774
0.438732
0.445648
0.5233
0.591348
0.51808
0.449693
0.769661
0.659431
0.441239
0.981993
0.697714
0.707022
0.669762
0.589157
0.541069
0.550492
0.628654
0.669656
0.620383
0.666176
1.01495
1.0193
0.965951
0.938114
0.872545
0.703424
0.461294
0.33367
0.317461
0.329215
0.343934
0.362294
0.393294
0.447989
0.45596
0.532327
0.532393
0.414075
0.719445
0.932041
0.740734
0.693663
1.26901
0.730372
0.748657
0.721886
0.657221
0.595538
0.581181
0.629467
0.692203
0.62258
0.595379
1.01362
1.06826
1.00784
0.980917
0.943592
0.773614
0.521039
0.351892
0.319843
0.328458
0.341013
0.360709
0.395929
0.456213
0.457261
0.505593
0.428152
0.447564
0.958869
0.962312
0.849554
1.04412
1.4413
0.759746
0.79292
0.771299
0.712
0.648426
0.631061
0.647166
0.708125
0.643129
0.528985
0.869994
1.04084
1.02695
1.01275
0.991855
0.844625
0.571908
0.369415
0.324586
0.325341
0.336339
0.359167
0.399648
0.456504
0.440981
0.435163
0.404176
0.600625
1.03446
1.0421
1.1069
1.35757
1.53562
0.752225
0.81147
0.820933
0.773115
0.70262
0.673521
0.687918
0.738459
0.682793
0.5205
0.683417
0.952037
1.03372
1.04579
1.04086
0.903234
0.634834
0.398962
0.331556
0.32551
0.334005
0.359543
0.403339
0.438112
0.403911
0.388731
0.441189
0.811833
1.07788
1.06049
1.2196
1.61533
1.6462
0.78091
0.854433
0.86085
0.834636
0.759636
0.70782
0.722593
0.767266
0.709494
0.534993
0.601667
0.899891
1.05628
1.07501
1.09549
0.969597
0.692882
0.43988
0.341868
0.326041
0.333591
0.360857
0.40754
0.418702
0.4168
0.480369
0.706447
1.02579
1.10579
1.05617
1.2357
1.67488
1.75428
0.806294
0.911534
0.926903
0.888439
0.824081
0.742058
0.75196
0.802427
0.773131
0.565382
0.569257
0.885453
1.09304
1.11614
1.12927
1.04746
0.750219
0.487872
0.353448
0.33168
0.33508
0.362434
0.395054
0.406403
0.485788
0.70567
0.995217
1.12909
1.08766
1.03532
1.20402
1.64054
1.78357
0.829326
0.94711
0.969005
0.945856
0.885238
0.785634
0.781
0.837932
0.843774
0.600773
0.565751
0.896953
1.14561
1.16349
1.17983
1.11355
0.823361
0.556847
0.377083
0.336996
0.333096
0.350436
0.37297
0.439529
0.638468
0.951625
1.14294
1.10495
1.05785
1.00303
1.14129
1.52736
1.77223
0.825736
0.958763
1.00152
0.989174
0.938798
0.832639
0.816878
0.889279
0.930062
0.638511
0.567626
0.876911
1.14932
1.19544
1.20906
1.17477
0.897516
0.626536
0.422096
0.339714
0.324362
0.335358
0.389891
0.534107
0.831015
1.10119
1.13375
1.07483
1.00584
0.970486
1.09318
1.40013
1.72561
0.816631
0.954017
1.01388
1.01285
0.979423
0.876259
0.865119
0.930858
1.00161
0.681296
0.56834
0.782371
1.05205
1.16781
1.22078
1.21492
0.961533
0.687208
0.479721
0.349166
0.31223
0.332742
0.395876
0.588674
0.891669
1.06818
1.0636
0.982288
0.944265
0.942034
1.06223
1.31406
1.61117
0.802876
0.929603
1.0128
1.02075
0.996854
0.920635
0.902148
0.957189
1.04035
0.736985
0.576368
0.693147
0.900064
1.12554
1.22396
1.26176
1.02089
0.735419
0.525689
0.374168
0.325369
0.320497
0.380632
0.566288
0.812772
0.949382
0.957734
0.915593
0.905556
0.921201
1.03779
1.26464
1.48447
0.791248
0.901482
0.988688
1.0109
0.998009
0.938346
0.919116
0.968709
1.08205
0.834937
0.591501
0.645029
0.818957
1.12261
1.24798
1.31411
1.09888
0.778405
0.601536
0.442174
0.365111
0.370285
0.444349
0.576844
0.725935
0.82461
0.876122
0.867562
0.882454
0.904944
1.01893
1.23808
1.40196
0.785084
0.879666
0.955969
0.984646
0.98166
0.944516
0.922299
0.973142
1.12481
0.993212
0.610708
0.627483
0.796667
1.15669
1.30016
1.36781
1.21115
0.833126
0.664846
0.539316
0.469313
0.467918
0.514898
0.601173
0.661097
0.736803
0.824337
0.842058
0.867173
0.88973
0.998766
1.21523
1.33921
0.785983
0.86521
0.92658
0.952079
0.954291
0.935704
0.916501
0.967728
1.13069
1.13251
0.637032
0.623658
0.796207
1.21016
1.36317
1.39931
1.36943
0.900896
0.699491
0.599285
0.530467
0.500598
0.524774
0.546591
0.587872
0.677072
0.788833
0.81784
0.852671
0.874272
0.977475
1.18163
1.27901
0.792445
0.858287
0.905377
0.923818
0.925756
0.913032
0.898878
0.951859
1.12021
1.17027
0.688526
0.618908
0.745684
1.13592
1.33912
1.45753
1.48382
0.989139
0.711669
0.598217
0.520681
0.478423
0.466629
0.486518
0.545544
0.64109
0.761892
0.793868
0.838668
0.855939
0.946228
1.13721
1.21333
0.797483
0.852872
0.887796
0.899341
0.899116
0.883973
0.884375
0.942666
1.11401
1.18367
0.777445
0.6199
0.687841
0.951491
1.30659
1.48599
1.6049
1.11813
0.735212
0.580555
0.494701
0.437758
0.434313
0.464852
0.527388
0.618144
0.735379
0.768529
0.823572
0.835588
0.910734
1.0779
1.1384
0.800594
0.845907
0.871663
0.880033
0.877128
0.859169
0.86878
0.93528
1.1075
1.15413
0.770125
0.625745
0.65273
0.78832
1.21225
1.4768
1.62605
1.35086
0.802644
0.593029
0.501214
0.427993
0.423919
0.462538
0.524939
0.604086
0.705554
0.740708
0.8043
0.810348
0.867086
1.01003
1.05015
0.794455
0.833037
0.854787
0.862303
0.858305
0.842448
0.855816
0.926561
1.10043
1.13994
0.752067
0.633827
0.629352
0.685642
0.971125
1.38631
1.55233
1.5377
0.950056
0.636515
0.526501
0.435947
0.430898
0.470491
0.530092
0.590452
0.674786
0.714439
0.776842
0.780038
0.821915
0.929977
0.964833
0.775941
0.813971
0.837866
0.845915
0.844247
0.831513
0.845274
0.917054
1.08955
1.14748
0.758123
0.645144
0.623278
0.63421
0.731573
1.16907
1.49541
1.58282
1.22942
0.735989
0.584487
0.463503
0.437089
0.460712
0.533263
0.581472
0.652963
0.686196
0.73748
0.73943
0.781677
0.854647
0.886248
0.754227
0.797334
0.825576
0.834799
0.833996
0.824829
0.837056
0.905759
1.07499
1.19514
0.838443
0.654993
0.621727
0.621318
0.659089
0.96096
1.43611
1.54822
1.44947
0.929563
0.676535
0.486984
0.432264
0.427344
0.514857
0.561981
0.618794
0.653524
0.684795
0.692448
0.750095
0.797714
0.794846
0.740915
0.790978
0.821033
0.8296
0.82854
0.819861
0.830877
0.895714
1.05632
1.17899
0.957144
0.673181
0.622377
0.617535
0.655156
0.791229
1.26382
1.50196
1.60036
1.20478
0.786079
0.509339
0.423256
0.396088
0.472648
0.529369
0.587302
0.60107
0.627261
0.635653
0.719979
0.75075
0.688514
0.743443
0.793459
0.820826
0.827249
0.825292
0.81545
0.827268
0.889139
1.04209
1.14415
0.964559
0.709975
0.622434
0.608875
0.656652
0.718034
1.06879
1.51511
1.75156
1.47631
0.88769
0.544498
0.427469
0.401645
0.429952
0.503065
0.548565
0.572518
0.580998
0.601934
0.688374
0.689677
0.580574
0.745709
0.794929
0.819728
0.825119
0.822934
0.812682
0.823257
0.882857
1.02837
1.1129
0.968122
0.718418
0.625858
0.605521
0.657742
0.695256
0.895397
1.57894
1.92623
1.6569
0.96539
0.582474
0.456866
0.434623
0.439759
0.514485
0.540772
0.549973
0.549077
0.583407
0.641224
0.563774
0.512026
0.745559
0.794721
0.818589
0.823734
0.82041
0.810535
0.82021
0.8775
1.01255
1.0831
1.01684
0.764464
0.631725
0.604797
0.649405
0.687293
0.813524
1.56679
2.09295
1.69158
0.994046
0.599105
0.486167
0.496677
0.512244
0.600919
0.61072
0.568888
0.545521
0.526128
0.523414
0.48665
0.477788
0.744599
0.793814
0.816378
0.82138
0.817188
0.809126
0.818699
0.873741
0.995785
1.04214
1.00614
0.89976
0.658679
0.609904
0.631014
0.688128
0.781769
1.36257
2.09653
1.65527
0.980794
0.588182
0.50951
0.566178
0.623348
0.741851
0.710649
0.610332
0.48496
0.456007
0.464243
0.459445
0.457003
0.742329
0.791366
0.812687
0.818748
0.813405
0.805863
0.816695
0.869532
0.974878
0.993333
0.96747
0.874046
0.676458
0.618711
0.638981
0.692433
0.770211
1.05879
1.9658
1.63732
0.959552
0.558318
0.513471
0.628848
0.723957
0.88621
0.825581
0.580384
0.479908
0.455568
0.451782
0.449062
0.44093
0.740673
0.78831
0.808364
0.814133
0.808114
0.800919
0.815083
0.866628
0.950645
0.951264
0.935828
0.882512
0.6682
0.643331
0.658315
0.712124
0.775779
0.901026
1.65707
1.59556
0.956678
0.529657
0.497252
0.654428
0.759033
0.972366
0.941656
0.628478
0.509317
0.467863
0.454115
0.443547
0.43373
0.738845
0.785029
0.803618
0.809028
0.803633
0.799142
0.815122
0.86753
0.936124
0.92773
0.902575
0.916656
0.68542
0.661423
0.682062
0.737145
0.795121
0.846014
1.22733
1.43367
0.934589
0.544665
0.509283
0.683573
0.795223
1.02497
1.02725
0.67627
0.538642
0.479622
0.455983
0.436194
0.422595
0.736782
0.780899
0.798564
0.804169
0.80105
0.799319
0.818673
0.874604
0.931534
0.906359
0.869793
0.890209
0.825
0.705281
0.706376
0.760915
0.814052
0.831559
0.907104
1.14228
0.859706
0.59208
0.557708
0.731438
0.845385
1.07939
1.09458
0.716021
0.559287
0.48729
0.454867
0.431173
0.41274
0.735664
0.778017
0.795219
0.800796
0.801085
0.803764
0.827166
0.887296
0.928206
0.889217
0.838339
0.848543
0.826683
0.746296
0.745109
0.780991
0.82357
0.822915
0.814045
0.863008
0.738388
0.598035
0.63645
0.791238
0.8885
1.11256
1.12421
0.733874
0.56601
0.486974
0.447669
0.416128
0.398659
0.734731
0.77553
0.793117
0.799314
0.803564
0.811484
0.842275
0.90725
0.921337
0.866422
0.80852
0.816085
0.824613
0.756536
0.766317
0.792685
0.822359
0.81404
0.779103
0.759863
0.693846
0.638683
0.790604
0.861079
0.918562
1.12689
1.11752
0.727972
0.563741
0.483671
0.445293
0.414752
0.40522
0.733508
0.773601
0.792035
0.799178
0.809532
0.824841
0.863568
0.931558
0.905522
0.841734
0.781833
0.782693
0.814918
0.813876
0.785778
0.795194
0.80968
0.803145
0.752868
0.706225
0.660978
0.73604
0.950155
0.89107
0.98222
1.14923
1.08345
0.710829
0.551788
0.472354
0.433251
0.413912
0.429861
0.732129
0.771903
0.791539
0.800165
0.817874
0.841558
0.893421
0.954345
0.882315
0.812523
0.755144
0.746076
0.775461
0.825747
0.819209
0.795522
0.797606
0.776266
0.71239
0.676786
0.747702
0.999847
0.976614
0.901321
1.04345
1.15728
1.02154
0.691697
0.544832
0.477137
0.448095
0.44306
0.486112
0.730577
0.770457
0.791097
0.802748
0.827613
0.865384
0.932508
0.963726
0.852466
0.786589
0.725976
0.710136
0.731147
0.788156
0.821017
0.799659
0.784735
0.746311
0.679077
0.666951
0.791117
0.959838
0.957806
0.930406
1.10335
1.15411
0.981285
0.682421
0.538752
0.476373
0.46375
0.492606
0.522165
0.72926
0.769243
0.790907
0.807599
0.841356
0.89799
0.98307
0.960551
0.83942
0.759819
0.695713
0.670164
0.691524
0.756959
0.804764
0.796077
0.76862
0.718494
0.65555
0.661819
0.791316
0.945882
0.963713
0.983891
1.14429
1.1482
0.941424
0.697292
0.562128
0.512359
0.521483
0.535751
0.543915
0.728656
0.768643
0.791104
0.815738
0.86149
0.939733
1.04272
0.963885
0.827634
0.733599
0.663648
0.63072
0.653533
0.727118
0.785676
0.781593
0.749816
0.693746
0.63989
0.657786
0.777585
0.943973
0.979608
1.03738
1.17059
1.15737
0.941265
0.734401
0.603225
0.574544
0.571841
0.561986
0.55882
0.728631
0.768581
0.791935
0.825686
0.886329
0.994822
1.10128
0.956611
0.810434
0.7047
0.629152
0.592522
0.620112
0.703289
0.791193
0.776922
0.736579
0.674173
0.627224
0.657626
0.772896
0.9375
0.988479
1.0653
1.18346
1.17075
0.986651
0.830933
0.709766
0.669859
0.617288
0.586989
0.579318
0.728734
0.768704
0.794064
0.837518
0.918189
1.05711
1.14643
0.939986
0.789368
0.681967
0.608995
0.576495
0.600955
0.685551
0.793885
0.780084
0.725202
0.658566
0.614515
0.653978
0.766022
0.912879
0.966229
1.05407
1.15225
1.15714
1.07514
0.967334
0.855272
0.779204
0.684441
0.634025
0.616541
0.728457
0.768605
0.797476
0.851401
0.953314
1.1241
1.17054
0.927802
0.781775
0.672323
0.597065
0.595449
0.6139
0.681314
0.796262
0.774716
0.71107
0.64282
0.601269
0.640403
0.75096
0.865947
0.901585
0.953671
1.01674
1.02618
1.03152
1.07512
1.05375
0.907532
0.784714
0.702639
0.670727
0.727761
0.76823
0.800482
0.866024
0.992406
1.18829
1.17471
0.923082
0.788317
0.667764
0.595727
0.616771
0.652862
0.731837
0.808881
0.768491
0.695395
0.622913
0.582667
0.612603
0.712961
0.803292
0.824398
0.840993
0.843206
0.756424
0.739824
0.861615
1.12784
1.06975
0.890322
0.767474
0.70192
0.726663
0.767014
0.804053
0.881044
1.03261
1.24011
1.16353
0.934209
0.806584
0.671597
0.604373
0.637191
0.701149
0.826639
0.86661
0.763802
0.68026
0.599968
0.55637
0.574936
0.648509
0.732223
0.770064
0.78246
0.787698
0.679231
0.606673
0.587206
0.795574
1.05568
0.992545
0.830687
0.732445
0.7254
0.765301
0.80821
0.897895
1.07533
1.2808
1.15871
0.943033
0.82427
0.689874
0.615699
0.643965
0.737267
0.884882
0.925894
0.75686
0.655924
0.574222
0.525696
0.527252
0.570571
0.646199
0.710257
0.74373
0.787961
0.708135
0.589318
0.543127
0.575932
0.713047
0.944783
0.888126
0.769826
0.72389
0.763919
0.813729
0.918595
1.12329
1.31736
1.15039
0.94507
0.825746
0.695641
0.630699
0.661729
0.771165
0.928015
0.991614
0.751664
0.631293
0.547889
0.496458
0.482057
0.491974
0.547687
0.62899
0.70666
0.819337
0.83782
0.703082
0.548732
0.562155
0.684061
0.940419
0.915064
0.78379
0.722576
0.763041
0.822817
0.944576
1.17829
1.33612
1.12366
0.943247
0.820812
0.698976
0.640337
0.676397
0.796546
0.963643
1.01905
0.722527
0.601205
0.521685
0.469465
0.447176
0.438739
0.452827
0.495055
0.593713
0.821622
0.947192
0.866973
0.598028
0.556188
0.623851
0.910909
0.925735
0.788498
0.721536
0.762661
0.8338
0.976349
1.23531
1.33091
1.08956
0.935005
0.805838
0.701422
0.640831
0.686101
0.810961
0.992811
0.997961
0.680837
0.573075
0.502369
0.452179
0.423779
0.407671
0.40477
0.432475
0.528507
0.784622
0.99289
0.945367
0.649528
0.559313
0.593403
0.851188
0.913688
0.781963
0.71982
0.763029
0.845122
1.01071
1.28619
1.31005
1.06887
0.930834
0.802686
0.721989
0.639951
0.684086
0.82154
1.02227
0.99804
0.670592
0.561973
0.501243
0.458441
0.420304
0.400627
0.397908
0.434733
0.554135
0.828444
1.03152
0.991316
0.671653
0.563533
0.586081
0.81797
0.898754
0.776618
0.716867
0.763232
0.855877
1.04415
1.32826
1.29226
1.06167
0.931729
0.811676
0.778049
0.751952
0.723383
0.843547
1.04273
1.03341
0.71198
0.615502
0.615391
0.560601
0.477164
0.42638
0.448157
0.535625
0.676389
0.903991
1.0891
1.02817
0.67909
0.56852
0.593982
0.826639
0.900954
0.782173
0.712648
0.762485
0.864839
1.07545
1.36955
1.29935
1.07485
0.947425
0.835542
0.803119
0.858078
0.795211
0.880345
1.05555
1.12118
0.820177
0.725252
0.737032
0.659198
0.598869
0.563662
0.580953
0.642745
0.754897
0.952441
1.12629
1.04331
0.675684
0.576153
0.624673
0.862848
0.917408
0.800358
0.707484
0.761139
0.872624
1.10448
1.40868
1.30618
1.08942
0.965753
0.846999
0.799881
0.886925
0.84531
0.895308
1.03277
1.17608
0.928115
0.766056
0.765043
0.688557
0.647355
0.630101
0.620586
0.68238
0.791961
0.983934
1.15061
1.06013
0.684409
0.582348
0.696879
0.960762
0.971363
0.852173
0.70136
0.758784
0.880141
1.13123
1.43131
1.30241
1.09525
0.973371
0.852449
0.801817
0.898637
0.861259
0.88472
0.961318
1.11239
1.03378
0.771197
0.739988
0.681876
0.642638
0.622199
0.635074
0.71256
0.834044
1.02872
1.19153
1.09714
0.728052
0.576054
0.538954
0.552413
0.570964
0.657039
0.693959
0.757412
0.889995
1.15739
1.43276
1.2812
1.09466
0.973376
0.850358
0.798407
0.895595
0.857232
0.857713
0.885343
0.970031
1.03023
0.773998
0.664235
0.609266
0.576161
0.571816
0.615708
0.700585
0.818881
0.990824
1.16543
1.10189
0.742833
0.589743
0.543202
0.511414
0.479713
0.492319
0.685492
0.757554
0.904135
1.18546
1.40664
1.23346
1.07753
0.959157
0.832383
0.786684
0.886128
0.847014
0.831945
0.8275
0.850819
0.909492
0.753667
0.573471
0.513623
0.486965
0.493026
0.539584
0.622656
0.727403
0.891157
1.08849
1.09712
0.763617
0.598515
0.546715
0.511976
0.477207
0.448423
0.676324
0.759389
0.923735
1.21658
1.36187
1.17751
1.04024
0.923755
0.806142
0.776071
0.867692
0.833763
0.813464
0.786547
0.776216
0.803728
0.696837
0.509969
0.449795
0.431333
0.442419
0.49018
0.57078
0.667171
0.812699
1.00872
1.0784
0.784868
0.604666
0.547728
0.512134
0.478193
0.440492
0.668863
0.761592
0.946572
1.24927
1.32501
1.13477
1.01263
0.904923
0.812511
0.729208
0.828945
0.819542
0.808073
0.769344
0.732192
0.734155
0.630561
0.464422
0.416435
0.406166
0.418384
0.467487
0.546082
0.637179
0.768854
0.943259
1.04287
0.797376
0.605532
0.546695
0.515846
0.488091
0.439554
0.583158
0.413949
0.312925
0.290864
0.324064
0.366046
0.390863
0.397395
0.755001
0.602851
0.523883
0.489692
0.487563
0.471639
0.44452
0.411499
0.918857
0.759612
0.661908
0.586877
0.535753
0.480107
0.432883
0.388889
1.01313
0.849242
0.718975
0.593218
0.495979
0.424031
0.382083
0.34825
1.06287
0.886896
0.724795
0.557993
0.438068
0.371099
0.345327
0.316152
1.08241
0.901299
0.715263
0.529407
0.400418
0.333409
0.313962
0.297262
1.09515
0.906589
0.710169
0.517017
0.384835
0.314797
0.292169
0.275212
1.10516
0.91098
0.708303
0.515454
0.382917
0.311176
0.282279
0.268063
1.10988
0.91236
0.70944
0.519426
0.387109
0.314205
0.27956
0.268981
1.10828
0.912252
0.713691
0.530433
0.400251
0.321652
0.279333
0.289992
1.09926
0.907948
0.714071
0.538669
0.415044
0.336868
0.302264
0.32882
1.08463
0.902694
0.713499
0.547353
0.429557
0.337877
0.325656
0.414152
1.05488
0.886654
0.70613
0.555774
0.446071
0.366784
0.376442
0.527858
1.0227
0.874486
0.701539
0.568994
0.444859
0.401416
0.46977
0.637853
0.983976
0.852497
0.696129
0.576159
0.453376
0.436991
0.576262
0.740649
0.947378
0.832993
0.697347
0.571178
0.474049
0.502744
0.683344
0.838498
0.897834
0.806736
0.694802
0.55824
0.507858
0.593488
0.784449
0.900287
0.838081
0.778726
0.687326
0.560725
0.547509
0.695316
0.892295
0.936148
0.771518
0.75146
0.672086
0.59614
0.614794
0.812875
0.993467
0.946326
0.689761
0.723991