/*--------------------------------*- C++ -*----------------------------------*\
  =========                 |
  \\      /  F ield         | OpenFOAM: The Open Source CFD Toolbox
   \\    /   O peration     | Website:  https://openfoam.org
    \\  /    A nd           | Version:  10
     \\/     M anipulation  |
\*---------------------------------------------------------------------------*/
FoamFile
{
    format      ascii;
    class       volScalarField;
    location    "0.0508103";
    object      T;
}
// * * * * * * * * * * * * * * * * * * * * * * * * * * * * * * * * * * * * * //

dimensions      [0 0 0 1 0 0 0];

internalField   nonuniform List<scalar> 
16320
(
0.00353976
0.00358521
0.00367261
0.00375949
0.00388162
0.00408644
0.00419087
0.0042296
0.00421982
0.00411153
0.00386773
0.00362286
0.0034031
0.00323784
0.00297933
0.00273014
0.00257405
0.00259243
0.00268746
0.00287011
0.0029448
0.00296852
0.00304168
0.00323972
0.00360349
0.00386117
0.00407404
0.00407096
0.00374174
0.0034173
0.00399935
0.00453406
0.00451793
0.00352668
0.00357758
0.0036628
0.003761
0.00384949
0.00387007
0.00376073
0.00358998
0.00349195
0.00340703
0.00330958
0.00322474
0.00316391
0.00305364
0.00281601
0.00256753
0.00245892
0.00249754
0.00260891
0.00276717
0.00283466
0.00285648
0.00292758
0.00312246
0.00355265
0.00388357
0.004168
0.00416782
0.00376541
0.00353728
0.00443163
0.00445815
0.00414927
0.00339005
0.00354003
0.00362686
0.00375417
0.00380943
0.00377215
0.00353631
0.00327884
0.00316512
0.00310362
0.00303309
0.00297702
0.00291155
0.00273714
0.0024935
0.00233035
0.00231315
0.00238174
0.0025372
0.00266145
0.00272923
0.00276854
0.00285311
0.00307261
0.00356472
0.00395647
0.0042286
0.00420696
0.0037771
0.00368384
0.00463422
0.00438656
0.00356057
0.00321895
0.0034469
0.00360647
0.00374521
0.00376603
0.00368903
0.00338868
0.00312098
0.00299103
0.00291241
0.00283767
0.00277812
0.0026518
0.00242482
0.00226772
0.0022203
0.00224144
0.00235622
0.00251453
0.00259954
0.00265845
0.0026985
0.00279676
0.0030528
0.00357726
0.0039934
0.00428704
0.00423414
0.00378235
0.00396521
0.00513709
0.0044599
0.00349787
0.00319528
0.00342426
0.00361206
0.00370472
0.00364298
0.00337061
0.00305671
0.00289615
0.00283715
0.00279011
0.00273129
0.0026608
0.00247892
0.00226486
0.00218478
0.00221732
0.00234683
0.00248729
0.00255896
0.00259318
0.00262613
0.00266908
0.00278452
0.00306393
0.00360317
0.00405976
0.00436012
0.00423291
0.00377665
0.00423613
0.00566775
0.0045728
0.003532
0.00323476
0.00340918
0.0035554
0.00352177
0.00337133
0.00311635
0.00292972
0.00282674
0.00278737
0.00274299
0.00267684
0.00257143
0.00239173
0.00219332
0.00215155
0.00223458
0.00248654
0.00261643
0.00262469
0.00261179
0.00262652
0.00267046
0.00280424
0.00311021
0.00364886
0.00412699
0.00441115
0.00419677
0.00375198
0.00460825
0.00612724
0.00467681
0.00357985
0.00329126
0.00336705
0.00342201
0.00339133
0.00323231
0.00296069
0.00279756
0.00272951
0.00271816
0.00269623
0.00263383
0.00250611
0.00236084
0.00216993
0.00212078
0.00225657
0.00262632
0.00272654
0.00269152
0.00263986
0.00264758
0.0026978
0.00284406
0.00317433
0.00370138
0.00419872
0.00444651
0.00415726
0.00375148
0.00481154
0.00629536
0.00469919
0.00361827
0.0033179
0.00332185
0.00335672
0.00321398
0.00290243
0.0027208
0.00267823
0.00267815
0.00269017
0.00267336
0.00260019
0.00247024
0.00234507
0.00216145
0.00210359
0.00227625
0.00272813
0.00282012
0.00275249
0.00267464
0.00268052
0.0027427
0.00288915
0.00324011
0.00375015
0.00425986
0.00446351
0.00416205
0.00377472
0.00488615
0.00637099
0.004707
0.00364856
0.00332461
0.00329651
0.00318821
0.00287921
0.00269207
0.00265589
0.00265647
0.00267381
0.00268056
0.00265466
0.00256348
0.00246063
0.0023431
0.00217429
0.00211779
0.00227299
0.00276153
0.00289173
0.00281448
0.00271406
0.00271434
0.00277929
0.00293095
0.0032909
0.00379908
0.00429272
0.00448024
0.00418705
0.00379528
0.00489707
0.00640021
0.00475354
0.00368149
0.00334388
0.00323841
0.00290782
0.00270518
0.00265319
0.00264198
0.00264425
0.00264549
0.0026404
0.00260411
0.00253055
0.00246072
0.00236114
0.0022107
0.00212591
0.00226111
0.00275895
0.00295896
0.00288141
0.00275139
0.00274444
0.00281611
0.00296431
0.00332287
0.00382882
0.00430908
0.00449585
0.00421848
0.00380352
0.00482397
0.00640579
0.00485037
0.00372257
0.00328999
0.00301662
0.00277351
0.00267085
0.00265687
0.00264195
0.00261302
0.00258621
0.00257735
0.00255608
0.0025116
0.0024609
0.00237576
0.00224518
0.0021289
0.00225145
0.00274216
0.00301339
0.0029521
0.00279527
0.00277535
0.00284469
0.00299183
0.00335844
0.0038567
0.00432784
0.00451047
0.00423335
0.00380162
0.00468528
0.00638096
0.00496245
0.00376936
0.00308038
0.00283437
0.00268055
0.00267951
0.00266963
0.00263745
0.00258198
0.00254201
0.00252666
0.00251975
0.00249256
0.00245871
0.00238096
0.00227479
0.00212614
0.00223064
0.00270448
0.00303344
0.00299535
0.00283002
0.00279211
0.00285656
0.00300079
0.00337148
0.00385222
0.00432475
0.00451743
0.00424045
0.00378959
0.00453324
0.00630228
0.00507017
0.0038048
0.00288085
0.00272346
0.00266842
0.0026892
0.00270865
0.00266251
0.00258195
0.00253005
0.00250656
0.00250373
0.00247665
0.00244632
0.00237644
0.0022954
0.00211182
0.00219927
0.0026408
0.00303087
0.00301711
0.00285225
0.00280333
0.00286675
0.00300878
0.00337011
0.00382883
0.00428003
0.00449306
0.00421803
0.00376688
0.0043754
0.00616375
0.00518352
0.00384448
0.00274675
0.00269875
0.00272809
0.00280314
0.00286514
0.00280763
0.00271863
0.00260441
0.00252219
0.00250082
0.00245841
0.00242361
0.00235407
0.0022801
0.00209246
0.00218213
0.0026322
0.00303608
0.00302828
0.00285795
0.00280181
0.00287064
0.00300886
0.00335431
0.00377533
0.00422434
0.00446175
0.00418305
0.0037382
0.00421382
0.00596677
0.00528203
0.00387767
0.00259015
0.00274439
0.00291504
0.00305496
0.003182
0.00309878
0.00300107
0.00284338
0.00260141
0.00251818
0.00243891
0.00238797
0.00232259
0.00223979
0.00205486
0.00216233
0.00265458
0.00306118
0.00303667
0.00284916
0.00278764
0.00286726
0.00300353
0.00331629
0.00372684
0.00417747
0.00441105
0.00414322
0.0037096
0.00405059
0.00568791
0.00531778
0.00397942
0.00284796
0.00299082
0.00331228
0.00343368
0.0035051
0.00347012
0.00342586
0.00321264
0.00275485
0.00253357
0.00241848
0.00232612
0.00228626
0.00216964
0.00199059
0.00213221
0.00272373
0.00309133
0.00302287
0.00280974
0.00275497
0.002853
0.00298939
0.00328957
0.00369225
0.00413227
0.00434439
0.00410475
0.00368868
0.00390293
0.00534258
0.00526044
0.00410539
0.00341678
0.00340751
0.00363017
0.00360496
0.00355632
0.00360482
0.00365975
0.00353972
0.00291904
0.00252938
0.0023807
0.00223802
0.00223267
0.00213575
0.00193069
0.00208791
0.00277482
0.00309256
0.00297068
0.00275379
0.00272043
0.00283347
0.00298282
0.00326746
0.0036586
0.00407603
0.00427168
0.00407422
0.00367835
0.00379713
0.00496892
0.00515006
0.0042622
0.00365467
0.00361102
0.00370065
0.00360884
0.00354722
0.00364089
0.00373386
0.00365071
0.00298684
0.00247643
0.00231283
0.00215377
0.00216143
0.00197645
0.0018845
0.00205083
0.00281759
0.00306943
0.00288163
0.00269462
0.0026845
0.00281442
0.00298134
0.00324155
0.00363772
0.0040435
0.00421039
0.00404336
0.00366076
0.00374657
0.00468297
0.00508298
0.00439078
0.00379177
0.00367511
0.00364802
0.00357091
0.00355298
0.0036904
0.00376431
0.00367439
0.00298759
0.00239997
0.002227
0.00208505
0.00203088
0.00180424
0.00180692
0.00204987
0.00290667
0.00302376
0.00278986
0.00263004
0.00265199
0.0027921
0.002977
0.0032177
0.00360987
0.00399772
0.00414259
0.00398835
0.00362723
0.00372069
0.00450146
0.00506278
0.0045982
0.00383712
0.00365649
0.0035843
0.00356155
0.00357861
0.00369682
0.00376964
0.00367702
0.00295528
0.00232581
0.00215833
0.0020279
0.00186755
0.00167502
0.00173589
0.00206821
0.00299117
0.00295287
0.0026908
0.00256526
0.0026158
0.00277217
0.00296982
0.00321141
0.00356832
0.00392418
0.00404236
0.00385988
0.00356927
0.00375022
0.00450523
0.00504654
0.00476965
0.00383807
0.00364724
0.00357043
0.00355513
0.00359649
0.0036736
0.00371478
0.00362095
0.00296169
0.00229612
0.00210057
0.00198163
0.00169937
0.00160938
0.00170768
0.00215571
0.00306593
0.00287821
0.00261435
0.00251937
0.00259117
0.00275674
0.00297166
0.00320632
0.00349676
0.00385222
0.00393654
0.00368689
0.00350526
0.0038179
0.00445319
0.00485524
0.00469133
0.00379947
0.00364393
0.00358345
0.00356153
0.00360073
0.00367257
0.00369639
0.00356345
0.00305713
0.00230886
0.00205273
0.00191494
0.00159602
0.00156767
0.0017008
0.00226715
0.00308159
0.00277921
0.00254504
0.00247254
0.00257016
0.00274153
0.00298218
0.00318906
0.00345258
0.00382021
0.00381883
0.00358618
0.00344
0.0037776
0.00450728
0.00447565
0.00430303
0.00377368
0.00366453
0.00360263
0.00355878
0.00353421
0.00356616
0.0035915
0.00351533
0.00308878
0.00232403
0.00201634
0.00183763
0.00153287
0.00153139
0.00169293
0.00234228
0.003057
0.00269945
0.0024991
0.00244837
0.00256786
0.00274364
0.00299689
0.00318181
0.00342031
0.00377747
0.00374684
0.00355931
0.00341026
0.00363394
0.00445014
0.00448101
0.00407492
0.00376601
0.00368364
0.00360594
0.00354986
0.00350598
0.0035179
0.00353474
0.00347574
0.00309826
0.00232552
0.00198763
0.00178865
0.00148168
0.0014925
0.00167475
0.00238129
0.00301946
0.00263862
0.00247609
0.00244637
0.00257589
0.00275585
0.00302093
0.00317725
0.00340049
0.00369692
0.00368498
0.00358881
0.00340835
0.00348901
0.00415827
0.0044085
0.00408402
0.00376705
0.00369775
0.00360549
0.00353041
0.00346063
0.00345006
0.00348121
0.00346251
0.00314696
0.00235124
0.00194952
0.00173924
0.00142876
0.00146339
0.00167375
0.00244255
0.00300137
0.00260633
0.00245714
0.0024523
0.00259061
0.00277702
0.00304787
0.00317385
0.00336917
0.00359524
0.00362079
0.0035782
0.00343784
0.00344498
0.00379042
0.00433101
0.0042289
0.00376524
0.00370004
0.00360384
0.00352454
0.00343744
0.00340502
0.00342311
0.00341959
0.0031825
0.00245026
0.0019238
0.00169718
0.0013787
0.00144034
0.00168219
0.00249254
0.00297557
0.00257775
0.0024377
0.00246856
0.00261745
0.00281818
0.00308092
0.00314138
0.00332403
0.00348217
0.00353466
0.00352515
0.00348876
0.00349016
0.0036724
0.00421823
0.00435871
0.00375614
0.00370003
0.00360378
0.00352032
0.00342671
0.00337103
0.00335238
0.00332635
0.00315473
0.00251371
0.00187146
0.00161938
0.00131731
0.00141376
0.0017019
0.00249104
0.00290826
0.00254666
0.00242493
0.00250366
0.00266241
0.00285553
0.00308022
0.00312873
0.0032471
0.00337712
0.0034171
0.0034826
0.00352618
0.00358245
0.003735
0.00417265
0.00441947
0.00375215
0.00369654
0.00360241
0.00352222
0.00344123
0.00336193
0.00330905
0.00320868
0.00302505
0.00253572
0.00181097
0.0015305
0.00128405
0.00140108
0.00172259
0.00244287
0.00280322
0.00252654
0.00242923
0.00255626
0.00270335
0.00288626
0.0030477
0.00314499
0.0031953
0.00324203
0.00336227
0.00342929
0.00367782
0.00383039
0.00407963
0.00443356
0.00462313
0.0037466
0.00369777
0.00364265
0.00355795
0.00347377
0.00337603
0.00329051
0.00309232
0.00282533
0.00240982
0.00177016
0.00146353
0.00126203
0.00136905
0.00172243
0.0023659
0.00273839
0.00252957
0.00245406
0.00261248
0.00275213
0.00291274
0.00298176
0.00313835
0.00314972
0.00317599
0.00327528
0.00335062
0.00365016
0.00378822
0.00423614
0.00505081
0.00541846
0.00374446
0.00372255
0.00365676
0.00360358
0.00352216
0.00342402
0.00329789
0.00304265
0.0026616
0.00215683
0.00172198
0.00144454
0.00126641
0.00136124
0.00172165
0.00230341
0.00268524
0.00254186
0.0024866
0.00265998
0.00279175
0.00290728
0.00294782
0.00311106
0.00310903
0.003133
0.00319611
0.0033561
0.00347181
0.00379031
0.00421187
0.00483666
0.00593767
0.00374976
0.00373606
0.00370492
0.00365038
0.00358148
0.00348231
0.00334617
0.00303214
0.00256911
0.00197196
0.00162132
0.00140131
0.00127391
0.00137337
0.00169643
0.00226071
0.00264502
0.00255257
0.00251578
0.00270261
0.00282021
0.00290889
0.0029479
0.003087
0.00308029
0.00311609
0.00315768
0.0033113
0.00341129
0.00382891
0.00408781
0.00485754
0.00611987
0.0037579
0.0037596
0.00374076
0.00371402
0.00364361
0.0035558
0.00340453
0.00305655
0.00253213
0.00186318
0.00153381
0.00136816
0.00128442
0.00139003
0.00166916
0.0022715
0.00262502
0.00257007
0.00256073
0.00275911
0.00284842
0.00291869
0.00295527
0.00307684
0.00306325
0.0030923
0.00316495
0.00320637
0.0034755
0.00361728
0.00412539
0.00475125
0.00656926
0.00377116
0.00377585
0.0037726
0.00376095
0.00370381
0.00363251
0.00349154
0.00313624
0.00253288
0.0018132
0.00150229
0.00137485
0.0013186
0.00140111
0.00164602
0.00229975
0.00263502
0.00260177
0.00261603
0.00280017
0.00289085
0.00293917
0.00296982
0.00307733
0.0030528
0.0030947
0.00313134
0.00323805
0.00333583
0.00375514
0.00402459
0.00501662
0.00682945
0.00378449
0.00379465
0.00380048
0.00380588
0.0037607
0.00370567
0.00358322
0.00324793
0.0025769
0.00181079
0.00149116
0.00137392
0.00133448
0.00139733
0.00162351
0.00229239
0.00265722
0.00266217
0.00268443
0.00283182
0.00292291
0.00296035
0.00298921
0.0030821
0.00304825
0.00310035
0.00312831
0.00323331
0.00333503
0.00370992
0.00411521
0.00505527
0.00732504
0.00379715
0.00380991
0.00382275
0.00384667
0.00382235
0.00377998
0.003697
0.00341759
0.00267443
0.00182685
0.00149488
0.00137345
0.00134222
0.00138117
0.00157896
0.00219938
0.00265145
0.00271117
0.00273717
0.00287683
0.0029493
0.00297036
0.00299999
0.00308519
0.00304484
0.00310095
0.00312751
0.00324121
0.00335137
0.00373719
0.0042043
0.00515093
0.00774099
0.00380704
0.00382585
0.00383433
0.00386705
0.00386063
0.0038531
0.00382238
0.00365752
0.00296172
0.00187773
0.00150708
0.00137976
0.00135139
0.00136445
0.00153615
0.00210248
0.00267011
0.0027702
0.00279825
0.00290539
0.00295363
0.00296677
0.0029978
0.00308004
0.0030388
0.00309913
0.00312852
0.00326634
0.00338964
0.00377952
0.00428507
0.00528575
0.00832457
0.00381493
0.00383207
0.00382661
0.0038697
0.00387337
0.0038984
0.00391065
0.00383323
0.00329027
0.00200883
0.00152615
0.0013906
0.00136383
0.0013548
0.00149586
0.00203185
0.0026868
0.00282058
0.00283579
0.00290337
0.00294638
0.00295079
0.00298713
0.00306258
0.00301327
0.00304514
0.00311318
0.00320261
0.00358078
0.00375317
0.00447922
0.00557397
0.00950104
0.00381698
0.0038322
0.00382073
0.00384299
0.00386489
0.00392794
0.00401568
0.00403881
0.00366383
0.00222355
0.00154398
0.00138948
0.00135908
0.0013467
0.00148889
0.00199764
0.00270033
0.00284293
0.00284381
0.0028884
0.0029196
0.00292016
0.00296348
0.00304332
0.00306027
0.00313238
0.00323248
0.00351071
0.00373124
0.00435464
0.00486096
0.00694002
0.0113119
0.00381819
0.00383158
0.00379978
0.00380528
0.00382818
0.00393122
0.00407624
0.00416808
0.00398038
0.00255188
0.00160672
0.00139329
0.00134615
0.00134042
0.00148818
0.00199536
0.00271965
0.00285253
0.00283652
0.00284978
0.00286759
0.0028702
0.00292604
0.00299611
0.00325883
0.00344671
0.00359103
0.00396605
0.00415934
0.00469835
0.00550459
0.00850555
0.012446
0.00380747
0.00380325
0.00377471
0.00377177
0.00379643
0.00391147
0.00410814
0.00428916
0.00422596
0.00280712
0.00167507
0.00139859
0.00134313
0.00134081
0.00149596
0.00200678
0.00275586
0.00289697
0.00281812
0.00280555
0.00282595
0.00282726
0.00287939
0.00293836
0.00337306
0.00362084
0.00378962
0.00415971
0.0043846
0.00507467
0.00639898
0.0108493
0.0129742
0.00376807
0.00375618
0.0037216
0.00373675
0.00377288
0.00388984
0.00411397
0.00436883
0.00449412
0.00311384
0.00176447
0.00140733
0.00134313
0.00134522
0.00150047
0.00198768
0.00274344
0.00293434
0.00282675
0.00277139
0.00276314
0.00280284
0.00283472
0.00289647
0.00337238
0.00365129
0.00384648
0.0042865
0.00465505
0.00578012
0.00777938
0.0122172
0.0124828
0.00363304
0.00360329
0.00360685
0.00365602
0.00374243
0.00386904
0.00411732
0.00437555
0.00466232
0.00340948
0.00184889
0.00142499
0.0013456
0.00135131
0.00149725
0.00191804
0.00264725
0.00293075
0.00283102
0.00274303
0.00272355
0.00277495
0.00279992
0.00287213
0.00338016
0.00368946
0.00394278
0.00439933
0.00575534
0.00647303
0.00822418
0.0120071
0.0111946
0.00336042
0.00333513
0.00339074
0.00351391
0.00364623
0.00385108
0.00411712
0.00437253
0.0047295
0.00369163
0.00192485
0.00145354
0.00135782
0.00137182
0.00148959
0.00183084
0.00255349
0.00293655
0.00285031
0.00272621
0.00269575
0.00274526
0.00277824
0.00287621
0.00344711
0.0037826
0.00412932
0.00477217
0.00726963
0.00635909
0.0066503
0.00904435
0.00630535
0.00297059
0.00294996
0.00305598
0.00326696
0.00349771
0.00377648
0.0041117
0.00437281
0.00475698
0.00408134
0.00205722
0.0014943
0.0013957
0.00140946
0.00149727
0.00180842
0.00250305
0.00293093
0.00287561
0.00273498
0.00269795
0.00272697
0.00275661
0.00290696
0.0036062
0.00395549
0.00438228
0.00583739
0.00717113
0.00405027
0.00463714
0.00680256
0.00366048
0.00276855
0.00274115
0.0027705
0.00293278
0.00322835
0.00360123
0.00406432
0.00437228
0.00479206
0.00463915
0.00221511
0.00155786
0.00141348
0.00141428
0.00150847
0.00178553
0.00241173
0.00291004
0.00290948
0.00275235
0.00268411
0.00268038
0.00276633
0.00299417
0.00382137
0.004199
0.00507639
0.00721709
0.00438195
0.00327623
0.00398248
0.00440765
0.00284551
0.00273488
0.00270065
0.00268506
0.00274959
0.00293569
0.00333411
0.00390834
0.00433327
0.00486069
0.00533549
0.00260869
0.00167141
0.00144101
0.00141064
0.00150767
0.00174318
0.00227856
0.00286511
0.00293664
0.00276399
0.00266768
0.00266565
0.00281777
0.00314328
0.00406909
0.00459786
0.00619888
0.0066364
0.00328048
0.00321696
0.00354472
0.00323569
0.0025626
0.00278114
0.00271714
0.00267702
0.00270495
0.00278916
0.00304341
0.00363047
0.00429352
0.00485277
0.00597807
0.00335768
0.00194845
0.00150646
0.0014198
0.00152017
0.00171674
0.00219291
0.00282473
0.00294207
0.00279246
0.00268564
0.00268587
0.00290165
0.00332811
0.00434864
0.00529941
0.00634948
0.00471165
0.00306754
0.00318805
0.00326156
0.00287386
0.00256979
0.00298074
0.0028493
0.00273569
0.00270302
0.0027291
0.00288758
0.00333207
0.0041086
0.00478275
0.00603984
0.00443792
0.00240446
0.00161847
0.00145327
0.00153765
0.00171321
0.00207871
0.00271049
0.00292565
0.00281053
0.00272051
0.0027293
0.00299748
0.00358625
0.00477111
0.00564289
0.00562602
0.0034735
0.00302123
0.00321765
0.0030551
0.00267757
0.00262206
0.00304816
0.00294244
0.00285294
0.00274786
0.00272281
0.00281916
0.00314402
0.00388153
0.00482974
0.00594483
0.00500693
0.00275267
0.00171732
0.00151744
0.0015634
0.00171739
0.00198399
0.00255458
0.00287504
0.00284644
0.00277095
0.00279537
0.00308997
0.00384341
0.00453267
0.00457696
0.00354861
0.00294874
0.00302759
0.00324945
0.00298424
0.00261884
0.00266265
0.00309267
0.0029817
0.00289356
0.00284906
0.00274418
0.00281117
0.00304296
0.00364265
0.00463348
0.0057883
0.00532255
0.00300434
0.00180854
0.00158148
0.00162706
0.00173209
0.00191495
0.00236708
0.00284329
0.00287345
0.00283643
0.00288265
0.00330556
0.00386604
0.00395551
0.00323414
0.0028445
0.00286967
0.00310659
0.00327972
0.00298151
0.00260816
0.00269635
0.00307268
0.00301989
0.0029729
0.00291806
0.00280148
0.00282301
0.00299667
0.00345015
0.00436513
0.00564828
0.00547115
0.00318359
0.00187366
0.00162558
0.00165982
0.00177192
0.0018278
0.00212408
0.00271509
0.00291169
0.00293919
0.00308057
0.00346097
0.00360572
0.00316375
0.00278505
0.00274653
0.00301282
0.00312715
0.00327173
0.00297731
0.00261895
0.00267328
0.00308044
0.00304429
0.00301776
0.00297362
0.00287087
0.00284353
0.00294958
0.00322973
0.00401396
0.00558627
0.00564449
0.00349832
0.00202996
0.00168361
0.00168411
0.00178169
0.00176185
0.00193176
0.00248326
0.00295778
0.00309129
0.00324938
0.00329311
0.00298611
0.00268039
0.00266627
0.00284735
0.00304124
0.00311172
0.00322352
0.00294823
0.0026253
0.00265062
0.00307708
0.00306216
0.00304323
0.00300561
0.00292181
0.00287161
0.00289539
0.00308314
0.00373381
0.0055451
0.00589711
0.00415333
0.00237402
0.00181558
0.00171197
0.00178998
0.00172165
0.00181905
0.00225091
0.00286856
0.00319213
0.00323175
0.00313111
0.00268543
0.00255944
0.00267453
0.00280567
0.00298091
0.00305911
0.00316734
0.00290715
0.00261865
0.00266619
0.00307003
0.00306163
0.0030501
0.00301688
0.00295159
0.00288701
0.00287576
0.00302296
0.00358319
0.00541694
0.00613726
0.004908
0.00309765
0.00201728
0.00176995
0.00179426
0.00170322
0.00174886
0.00206173
0.00272497
0.00304415
0.00319555
0.00298689
0.00254441
0.00240663
0.00254184
0.00267555
0.0028613
0.00300904
0.00312768
0.00287841
0.00260378
0.00270268
0.00305008
0.00303233
0.00302625
0.00300722
0.00296348
0.00291604
0.0028717
0.00299506
0.00341585
0.00504287
0.00633136
0.00547305
0.00380373
0.00220461
0.00183172
0.00181408
0.00169726
0.00169583
0.00181921
0.00227127
0.00271731
0.00275523
0.00249731
0.0023198
0.00225589
0.00240551
0.00254619
0.00280675
0.00298131
0.00310038
0.00285241
0.00257565
0.00271386
0.00303516
0.00299637
0.00299148
0.00298086
0.00294784
0.00291589
0.00287804
0.00298232
0.00327189
0.00444252
0.0064658
0.00582842
0.00431482
0.00237118
0.00189616
0.00187166
0.00170189
0.00165213
0.00164197
0.00184842
0.00207411
0.00214643
0.00215475
0.00219745
0.0021851
0.00230532
0.00246299
0.00275091
0.00294578
0.00307161
0.00283222
0.00254449
0.00271147
0.00301918
0.00296725
0.00295669
0.00294608
0.00291928
0.00289489
0.00287867
0.00297009
0.00322607
0.00404622
0.00643766
0.00600847
0.00463711
0.00251909
0.00196796
0.00195168
0.001728
0.00162308
0.00155663
0.00161912
0.00179034
0.00195552
0.00206939
0.00209328
0.00208813
0.00222602
0.00239637
0.00270482
0.00290765
0.00303584
0.00280548
0.00252333
0.00271203
0.00299881
0.00294092
0.00292058
0.00290145
0.00287987
0.0028598
0.00287167
0.00296274
0.00322019
0.00397484
0.00608075
0.00611532
0.00513874
0.00290143
0.0021478
0.00195209
0.00181163
0.00163343
0.00154457
0.00153157
0.00170079
0.00192228
0.00206335
0.0019872
0.00197805
0.00215623
0.0023336
0.00266032
0.0028602
0.0029948
0.0027896
0.00252111
0.00272349
0.00298857
0.00292341
0.00289238
0.00286492
0.00284545
0.0028324
0.00284369
0.00293562
0.00320905
0.00392065
0.00544045
0.00618548
0.00559711
0.00369841
0.00235826
0.00196312
0.00186394
0.00168292
0.00155844
0.00153454
0.00168372
0.00193229
0.00203148
0.00193789
0.00192729
0.00210274
0.00228628
0.00261879
0.00279959
0.00294109
0.00276518
0.0025316
0.00275868
0.00297331
0.0029052
0.00286587
0.00283505
0.00281331
0.00280521
0.00282038
0.00291568
0.00320578
0.004008
0.005486
0.00621207
0.00586772
0.00463389
0.00271484
0.00200994
0.00191493
0.0017617
0.0015967
0.00155307
0.00169149
0.00197386
0.00203612
0.00192829
0.00190925
0.00205238
0.00226149
0.00258231
0.00273371
0.00288812
0.00275442
0.00255964
0.00282607
0.00295348
0.00288246
0.00284131
0.00280939
0.00278848
0.00278034
0.00280361
0.00290928
0.00321926
0.00407338
0.00563926
0.00623598
0.00607561
0.00538121
0.00355776
0.00220552
0.00197256
0.00186214
0.00167613
0.00160532
0.00172789
0.00206238
0.00214347
0.0019969
0.00190863
0.00202792
0.00224231
0.00253439
0.00266961
0.00283899
0.00275287
0.00262908
0.00291031
0.00292567
0.00285628
0.00281866
0.00278837
0.00276721
0.00276369
0.00279333
0.00290222
0.0032269
0.00406521
0.00567064
0.00624225
0.00616634
0.00582859
0.00489194
0.00274712
0.00203746
0.00185947
0.00177143
0.00171177
0.00183697
0.00222293
0.00234038
0.0022298
0.00198352
0.0020134
0.00218666
0.0024761
0.00261933
0.00280972
0.00275136
0.00271779
0.00301541
0.00287779
0.00282265
0.00279534
0.00276876
0.00275384
0.00275006
0.00278645
0.00289221
0.00320909
0.00387344
0.00521087
0.00624768
0.00623455
0.00597503
0.00550464
0.00356711
0.00216077
0.00189944
0.00185122
0.00186388
0.00202058
0.00246455
0.0026448
0.00262912
0.00216728
0.00206254
0.00217034
0.0024145
0.0026025
0.0027961
0.00273854
0.00280048
0.0032284
0.00282723
0.00279209
0.00277341
0.00275362
0.0027429
0.00274046
0.00277737
0.00287921
0.00318252
0.00380604
0.00459424
0.00610267
0.00624562
0.00604173
0.0055696
0.00441984
0.00254258
0.00200245
0.00191995
0.00204361
0.0022207
0.00274902
0.00304211
0.00309933
0.00252156
0.00222613
0.00220662
0.00240136
0.00260031
0.00279165
0.00274381
0.00290785
0.00359804
0.00276799
0.00275646
0.00275345
0.00274405
0.00273793
0.00273666
0.0027689
0.00286683
0.00315998
0.00378563
0.0044801
0.00576244
0.0062355
0.00616093
0.00556561
0.00493298
0.00316367
0.0021301
0.00201273
0.00219228
0.00238092
0.00299203
0.00340867
0.00332844
0.00291821
0.00244498
0.00232757
0.00241261
0.00264877
0.0028302
0.00279308
0.00315099
0.00410097
0.00273215
0.00273922
0.0027459
0.00274089
0.00273546
0.00273156
0.00276448
0.00286053
0.00314617
0.00377588
0.00437051
0.00566877
0.00617962
0.00622534
0.00560316
0.00521908
0.00400726
0.00228822
0.0021046
0.00226051
0.00247714
0.00320095
0.00365617
0.00346478
0.00309537
0.00256007
0.00245463
0.002498
0.00272861
0.00294002
0.00299661
0.00377466
0.00440823
0.00272117
0.00273542
0.00274398
0.00273912
0.00273663
0.00272533
0.00275888
0.00285434
0.00313468
0.00374286
0.00408352
0.00532262
0.00611686
0.00628999
0.00578547
0.00547922
0.00472307
0.0025725
0.00213899
0.00226453
0.00251032
0.00346595
0.00391217
0.00349072
0.00310495
0.00258673
0.00253748
0.00273636
0.00296299
0.00335258
0.00369273
0.00428787
0.00449644
0.00271931
0.0027366
0.00274418
0.00273852
0.00273763
0.0027163
0.00275192
0.00285191
0.0031287
0.00372085
0.00397879
0.00440248
0.00587172
0.00631838
0.00611789
0.00571866
0.00524433
0.00318028
0.00217229
0.00224872
0.0025827
0.0037944
0.00418224
0.00357383
0.00307722
0.00259788
0.00273793
0.00313824
0.00385152
0.00416641
0.00426806
0.00444259
0.00449728
0.00272235
0.0027386
0.00274329
0.00273287
0.00273586
0.00271038
0.00274867
0.00285977
0.00315217
0.00373219
0.0039565
0.00438804
0.00569273
0.00628229
0.00620674
0.005945
0.00561844
0.00426743
0.00229618
0.00220605
0.00264545
0.00416792
0.0046074
0.00378287
0.00320091
0.00270549
0.0029412
0.00396013
0.00446494
0.00451675
0.00447505
0.00446545
0.00447449
0.00272186
0.00273656
0.00273851
0.00272729
0.00273211
0.00271016
0.00274915
0.0028743
0.0032068
0.00375146
0.00390354
0.00421438
0.00570587
0.00609209
0.0061688
0.00601294
0.00582261
0.00514207
0.00270075
0.00227243
0.00273741
0.00459653
0.00527736
0.00420728
0.0035932
0.00290939
0.0030381
0.0042255
0.00472003
0.0046893
0.00451928
0.0044311
0.00437048
0.00271862
0.00273016
0.00273104
0.00272055
0.00272565
0.00271087
0.00275175
0.00288521
0.00324033
0.00372882
0.00384802
0.00391051
0.00550081
0.00594917
0.00608595
0.00601327
0.00589239
0.00557054
0.00364864
0.00258809
0.00304785
0.00492501
0.00570424
0.00461052
0.00393838
0.0031234
0.00311691
0.00438454
0.00489253
0.00479725
0.00451902
0.00437682
0.00425394
0.00271723
0.0027269
0.00272606
0.00271559
0.00272075
0.00271383
0.00275588
0.00289045
0.00324896
0.00367208
0.00379604
0.00380762
0.00448357
0.00559117
0.00598941
0.00602049
0.00593965
0.00577637
0.00499516
0.0033969
0.0037359
0.00515556
0.00586769
0.0048248
0.00411999
0.00324094
0.00315862
0.0044635
0.00500235
0.00485169
0.0045022
0.00425966
0.00409901
0.0027168
0.00272353
0.00272104
0.00271317
0.0027187
0.00272129
0.00276622
0.00290377
0.00327019
0.00361521
0.00374157
0.00376319
0.00421882
0.00519216
0.00575926
0.00602707
0.00598713
0.00586833
0.0055688
0.00466394
0.00487029
0.00594214
0.00588669
0.00488378
0.00417428
0.00330065
0.00319144
0.00452131
0.00507021
0.00486723
0.00445388
0.00417062
0.00398887
0.00271785
0.00272274
0.00271756
0.00271369
0.00271782
0.00273635
0.00278995
0.00293235
0.00331633
0.0035914
0.00371014
0.00369945
0.00396887
0.00496397
0.00561327
0.00601433
0.00601776
0.0058896
0.00576991
0.00542639
0.00571425
0.00638395
0.00541885
0.00465694
0.00411135
0.00331234
0.00324245
0.00458863
0.0050742
0.00481606
0.00427605
0.00394297
0.00372359
0.00272122
0.00272317
0.00271595
0.00271652
0.00272136
0.00275553
0.00282664
0.00298974
0.00339963
0.00358597
0.00367335
0.00364827
0.00375238
0.00441056
0.00542288
0.00598166
0.00606789
0.00586274
0.00586076
0.00600426
0.00657007
0.00621027
0.00478025
0.00451076
0.0038398
0.00323204
0.00331466
0.00464635
0.0050538
0.0047029
0.00411334
0.00372825
0.00336315
0.00272594
0.00272514
0.00271568
0.00272354
0.00273228
0.00278146
0.00288023
0.00308514
0.00350224
0.00360724
0.00362635
0.00361635
0.00369094
0.00407969
0.00505724
0.00590066
0.00606198
0.00589833
0.00604517
0.00641652
0.00616512
0.00495404
0.00461041
0.00442106
0.00361906
0.00319343
0.0034948
0.00469023
0.00492711
0.00440991
0.00375183
0.00333591
0.00290337
0.00273138
0.00272744
0.0027173
0.00272874
0.00275154
0.00282001
0.00295411
0.00323033
0.00360607
0.0036121
0.00358371
0.00357672
0.00365896
0.00399047
0.00482581
0.00572108
0.00602424
0.00593494
0.00620552
0.00652524
0.00593122
0.00512385
0.00458308
0.00426374
0.00347546
0.00321738
0.0036398
0.00469685
0.00481831
0.00420892
0.00347955
0.00292766
0.0026739
0.00273609
0.00272938
0.0027208
0.0027377
0.00277556
0.00286901
0.00303783
0.00338975
0.00365054
0.00360947
0.00354721
0.00356055
0.00362199
0.00388348
0.00469103
0.00561489
0.00596443
0.00595277
0.00631733
0.00656052
0.00603689
0.00512812
0.00447275
0.00404099
0.00341432
0.00328134
0.00383885
0.00461358
0.00456968
0.0038209
0.00305485
0.00268998
0.00258119
0.00273919
0.00272939
0.00272536
0.00274756
0.0028082
0.00293027
0.00312692
0.0034943
0.00366882
0.00359419
0.00352847
0.00355798
0.0036069
0.00382622
0.00462004
0.00561307
0.00591054
0.00595516
0.00638088
0.00661561
0.00620095
0.00503505
0.00433724
0.00386259
0.0034008
0.0033415
0.00393487
0.00448544
0.00433632
0.00344326
0.00281491
0.00260511
0.00256131
0.00274312
0.0027293
0.00273165
0.00275988
0.0028475
0.003
0.00323881
0.00360755
0.00367914
0.0035908
0.0035239
0.00355362
0.0035808
0.00377783
0.00448651
0.00558229
0.00584259
0.0059462
0.00643528
0.00665971
0.0061434
0.00488545
0.00422628
0.00379404
0.00345708
0.00345369
0.00393099
0.00415736
0.00391361
0.0031232
0.00274004
0.00261379
0.00258512
0.00274614
0.00272957
0.00273875
0.00277854
0.00289118
0.0030865
0.00337386
0.00374904
0.00371922
0.00359411
0.00350916
0.00350878
0.00355948
0.00379172
0.00448049
0.00552067
0.00578319
0.00594293
0.0064653
0.00664183
0.00594928
0.00474166
0.00419212
0.00381236
0.0036127
0.00365086
0.00386212
0.00390323
0.00365334
0.00305614
0.00276567
0.00266682
0.00265405
0.00274913
0.0027302
0.00274544
0.0027975
0.00294252
0.00318708
0.00354062
0.00386407
0.00373775
0.00358795
0.0035223
0.00334812
0.00344684
0.00382005
0.00458003
0.00550436
0.00575513
0.00595753
0.00646408
0.00655285