/*--------------------------------*- C++ -*----------------------------------*\
  =========                 |
  \\      /  F ield         | OpenFOAM: The Open Source CFD Toolbox
   \\    /   O peration     | Website:  https://openfoam.org
    \\  /    A nd           | Version:  10
     \\/     M anipulation  |
\*---------------------------------------------------------------------------*/
FoamFile
{
    format      ascii;
    class       volVectorField;
    location    "0.0508103";
    object      U;
}
// * * * * * * * * * * * * * * * * * * * * * * * * * * * * * * * * * * * * * //

dimensions      [0 1 -1 0 0 0 0];

internalField   nonuniform List<vector> 
16320
(
(0.599787 0.478798 0)
(0.620028 0.496758 0)
(0.597494 0.492383 0)
(0.544968 0.47737 0)
(0.479356 0.482768 0)
(0.433391 0.521272 0)
(0.453708 0.543034 0)
(0.536377 0.514724 0)
(0.635865 0.445194 0)
(0.735185 0.3554 0)
(0.814625 0.273994 0)
(0.867611 0.21997 0)
(0.924349 0.190762 0)
(1.00485 0.168486 0)
(1.08746 0.140812 0)
(1.14839 0.111691 0)
(1.17649 0.0874044 0)
(1.14569 0.0791897 0)
(1.02639 0.0928361 0)
(0.848529 0.119716 0)
(0.673719 0.150985 0)
(0.54398 0.148074 0)
(0.442863 0.0828189 0)
(0.297679 -0.0430306 0)
(0.0942805 -0.210841 0)
(-0.0650243 -0.4293 0)
(-0.110532 -0.638538 0)
(-0.0405405 -0.792494 0)
(0.0769256 -0.889722 0)
(0.229518 -0.936295 0)
(0.360946 -0.948837 0)
(0.462345 -0.826542 0)
(0.523219 -0.586757 0)
(0.57208 0.463999 0)
(0.585739 0.522353 0)
(0.553926 0.536247 0)
(0.503934 0.514644 0)
(0.455596 0.48068 0)
(0.423425 0.454261 0)
(0.442981 0.425067 0)
(0.511748 0.385967 0)
(0.598583 0.328439 0)
(0.686847 0.263512 0)
(0.758213 0.19962 0)
(0.813316 0.152185 0)
(0.877744 0.133535 0)
(0.954073 0.120876 0)
(1.01338 0.0954101 0)
(1.04129 0.0685098 0)
(1.04464 0.0553327 0)
(1.00351 0.0593295 0)
(0.892366 0.0757797 0)
(0.753475 0.101354 0)
(0.634554 0.12348 0)
(0.540352 0.116073 0)
(0.448921 0.0550312 0)
(0.303237 -0.0540685 0)
(0.0834443 -0.208423 0)
(-0.0994559 -0.420827 0)
(-0.151266 -0.619501 0)
(-0.075042 -0.760355 0)
(0.0518052 -0.854571 0)
(0.20785 -0.893589 0)
(0.329302 -0.889019 0)
(0.38107 -0.69284 0)
(0.349897 -0.385486 0)
(0.542707 0.464222 0)
(0.544499 0.569673 0)
(0.506987 0.605885 0)
(0.470518 0.577733 0)
(0.453755 0.505344 0)
(0.459691 0.408334 0)
(0.49975 0.311033 0)
(0.559957 0.225431 0)
(0.626269 0.14853 0)
(0.690826 0.0789081 0)
(0.74104 0.00735287 0)
(0.788895 -0.0443774 0)
(0.851636 -0.0679943 0)
(0.905893 -0.0864132 0)
(0.928972 -0.102069 0)
(0.932802 -0.0890134 0)
(0.928866 -0.0403245 0)
(0.889111 0.0258628 0)
(0.791361 0.0895988 0)
(0.681212 0.132592 0)
(0.589184 0.144509 0)
(0.50381 0.124588 0)
(0.404769 0.0625936 0)
(0.25635 -0.0413555 0)
(0.0374583 -0.192285 0)
(-0.139932 -0.397922 0)
(-0.180154 -0.586691 0)
(-0.096934 -0.717479 0)
(0.0351983 -0.808794 0)
(0.188912 -0.836249 0)
(0.28771 -0.78904 0)
(0.270037 -0.499806 0)
(0.155918 -0.115461 0)
(0.480447 0.518106 0)
(0.478591 0.64571 0)
(0.446285 0.678945 0)
(0.431922 0.626112 0)
(0.449719 0.509679 0)
(0.488834 0.359945 0)
(0.541985 0.22132 0)
(0.59382 0.105667 0)
(0.640186 0.00964472 0)
(0.67378 -0.0719342 0)
(0.701409 -0.151579 0)
(0.740979 -0.210823 0)
(0.794612 -0.260207 0)
(0.831761 -0.292561 0)
(0.84906 -0.28497 0)
(0.860919 -0.214496 0)
(0.852146 -0.10402 0)
(0.790162 0.00959995 0)
(0.687264 0.0998838 0)
(0.594744 0.139522 0)
(0.526955 0.133008 0)
(0.464522 0.0982933 0)
(0.386027 0.0405788 0)
(0.245029 -0.0435724 0)
(0.0189264 -0.175376 0)
(-0.159184 -0.36556 0)
(-0.193633 -0.544136 0)
(-0.109512 -0.670037 0)
(0.0282116 -0.759608 0)
(0.17537 -0.773747 0)
(0.258022 -0.672626 0)
(0.217965 -0.326138 0)
(0.172077 0.00935114 0)
(0.383834 0.6035 0)
(0.373056 0.72422 0)
(0.353471 0.722592 0)
(0.368418 0.626366 0)
(0.416312 0.464613 0)
(0.478597 0.288221 0)
(0.533603 0.139475 0)
(0.572894 0.0187575 0)
(0.603686 -0.0789232 0)
(0.617912 -0.164298 0)
(0.633345 -0.250186 0)
(0.663418 -0.321406 0)
(0.712268 -0.392429 0)
(0.746771 -0.408759 0)
(0.77464 -0.356117 0)
(0.794315 -0.234845 0)
(0.75882 -0.0723476 0)
(0.665273 0.0835401 0)
(0.567958 0.179372 0)
(0.500312 0.202338 0)
(0.459218 0.179662 0)
(0.421012 0.137241 0)
(0.361245 0.0799053 0)
(0.228991 -0.00525965 0)
(0.00377928 -0.136773 0)
(-0.171386 -0.320894 0)
(-0.201458 -0.493765 0)
(-0.117001 -0.62001 0)
(0.0272417 -0.711942 0)
(0.163063 -0.713036 0)
(0.240838 -0.558035 0)
(0.215478 -0.166795 0)
(0.215708 0.103988 0)
(0.248168 0.691628 0)
(0.240752 0.775269 0)
(0.255056 0.724259 0)
(0.314704 0.585226 0)
(0.39243 0.401991 0)
(0.462365 0.223976 0)
(0.511157 0.0754008 0)
(0.540224 -0.0432649 0)
(0.557639 -0.136892 0)
(0.553046 -0.22278 0)
(0.556868 -0.309632 0)
(0.571861 -0.388482 0)
(0.624517 -0.462005 0)
(0.664102 -0.436808 0)
(0.692241 -0.328564 0)
(0.69748 -0.166292 0)
(0.627276 0.0262779 0)
(0.534824 0.182893 0)
(0.461096 0.260053 0)
(0.41867 0.264704 0)
(0.398959 0.233517 0)
(0.380392 0.189418 0)
(0.337686 0.132129 0)
(0.216696 0.0501358 0)
(-0.0031491 -0.0843741 0)
(-0.175977 -0.265305 0)
(-0.204393 -0.437648 0)
(-0.122631 -0.567862 0)
(0.0254915 -0.664853 0)
(0.14866 -0.656543 0)
(0.226551 -0.449649 0)
(0.224835 -0.0509647 0)
(0.258302 0.174832 0)
(0.12173 0.744258 0)
(0.128905 0.78242 0)
(0.181526 0.677632 0)
(0.270161 0.495495 0)
(0.359961 0.290977 0)
(0.431571 0.115556 0)
(0.475778 -0.0182959 0)
(0.49912 -0.113346 0)
(0.50395 -0.189789 0)
(0.482164 -0.268562 0)
(0.47678 -0.351191 0)
(0.478424 -0.432147 0)
(0.546146 -0.491106 0)
(0.591757 -0.416934 0)
(0.61301 -0.264087 0)
(0.60734 -0.0863617 0)
(0.527652 0.108925 0)
(0.447759 0.258779 0)
(0.391015 0.325263 0)
(0.360336 0.324171 0)
(0.352453 0.294926 0)
(0.348169 0.255141 0)
(0.318879 0.199979 0)
(0.203499 0.116345 0)
(-0.00882088 -0.0187105 0)
(-0.178517 -0.201221 0)
(-0.204237 -0.377168 0)
(-0.122956 -0.514034 0)
(0.021877 -0.621558 0)
(0.128037 -0.602728 0)
(0.211179 -0.348777 0)
(0.232002 0.0379004 0)
(0.294033 0.232846 0)
(0.0349616 0.745376 0)
(0.0373193 0.732338 0)
(0.107807 0.540698 0)
(0.212151 0.308951 0)
(0.309497 0.111543 0)
(0.380501 -0.0336737 0)
(0.430021 -0.120036 0)
(0.453605 -0.18204 0)
(0.447765 -0.240592 0)
(0.409893 -0.310482 0)
(0.399218 -0.384801 0)
(0.394077 -0.457622 0)
(0.483137 -0.494714 0)
(0.530587 -0.367104 0)
(0.54734 -0.166253 0)
(0.548305 0.0202392 0)
(0.474216 0.191443 0)
(0.40733 0.321911 0)
(0.354621 0.381626 0)
(0.322404 0.382969 0)
(0.318772 0.360545 0)
(0.322376 0.325663 0)
(0.301323 0.270823 0)
(0.189696 0.18406 0)
(-0.0122792 0.0502192 0)
(-0.177928 -0.133995 0)
(-0.196048 -0.314621 0)
(-0.120596 -0.466445 0)
(0.0189888 -0.588328 0)
(0.108967 -0.558546 0)
(0.199101 -0.270647 0)
(0.240121 0.098407 0)
(0.323138 0.277986 0)
(-0.0455241 0.691182 0)
(-0.0600542 0.619237 0)
(0.0290472 0.324473 0)
(0.164826 0.0905295 0)
(0.268325 -0.0819382 0)
(0.355126 -0.164315 0)
(0.409634 -0.214166 0)
(0.424473 -0.2531 0)
(0.4005 -0.298513 0)
(0.346051 -0.355134 0)
(0.334858 -0.412422 0)
(0.32952 -0.465641 0)
(0.438276 -0.479881 0)
(0.485416 -0.299813 0)
(0.506103 -0.0562889 0)
(0.528213 0.124155 0)
(0.466533 0.264033 0)
(0.406115 0.371384 0)
(0.345839 0.427865 0)
(0.301872 0.436288 0)
(0.295102 0.421516 0)
(0.301166 0.390628 0)
(0.284194 0.335675 0)
(0.177925 0.247408 0)
(-0.0143248 0.113313 0)
(-0.169647 -0.0699684 0)
(-0.186094 -0.257945 0)
(-0.116277 -0.429107 0)
(0.0229657 -0.561713 0)
(0.101876 -0.5259 0)
(0.198908 -0.223233 0)
(0.254038 0.138587 0)
(0.350552 0.313417 0)
(-0.146137 0.605912 0)
(-0.159082 0.436445 0)
(-0.0407061 0.0790729 0)
(0.14409 -0.183227 0)
(0.270281 -0.262583 0)
(0.358367 -0.298095 0)
(0.404428 -0.316405 0)
(0.404136 -0.333826 0)
(0.361749 -0.360349 0)
(0.29819 -0.396722 0)
(0.291066 -0.428567 0)
(0.290315 -0.457934 0)
(0.410791 -0.453074 0)
(0.459931 -0.22968 0)
(0.488857 0.0401103 0)
(0.526368 0.215584 0)
(0.482532 0.332229 0)
(0.428954 0.417194 0)
(0.357848 0.467529 0)
(0.295455 0.481202 0)
(0.279336 0.471857 0)
(0.283544 0.444154 0)
(0.269149 0.390326 0)
(0.169008 0.303817 0)
(-0.0136013 0.173891 0)
(-0.159502 -0.00684766 0)
(-0.175169 -0.208467 0)
(-0.105483 -0.393861 0)
(0.0343703 -0.534902 0)
(0.103704 -0.495821 0)
(0.206585 -0.189981 0)
(0.275118 0.165949 0)
(0.379524 0.341263 0)
(-0.252558 0.489758 0)
(-0.221884 0.204744 0)
(-0.0258973 -0.25162 0)
(0.178292 -0.375491 0)
(0.293055 -0.405957 0)
(0.370953 -0.408587 0)
(0.403182 -0.40251 0)
(0.38582 -0.405624 0)
(0.331826 -0.411233 0)
(0.270342 -0.425908 0)
(0.270668 -0.430696 0)
(0.27394 -0.441813 0)
(0.395004 -0.422701 0)
(0.444894 -0.165578 0)
(0.484191 0.114371 0)
(0.535485 0.291674 0)
(0.509924 0.398172 0)
(0.460973 0.468114 0)
(0.3781 0.50796 0)
(0.296006 0.520245 0)
(0.268154 0.512189 0)
(0.269571 0.485393 0)
(0.257088 0.432989 0)
(0.163917 0.349123 0)
(-0.0087782 0.221124 0)
(-0.148388 0.0374115 0)
(-0.160792 -0.167096 0)
(-0.0900802 -0.360528 0)
(0.0498398 -0.508458 0)
(0.112272 -0.467895 0)
(0.216088 -0.165562 0)
(0.298936 0.186336 0)
(0.409999 0.362663 0)
(-0.333978 0.345269 0)
(-0.204912 -0.0544348 0)
(0.0662223 -0.447377 0)
(0.216328 -0.506804 0)
(0.318736 -0.50618 0)
(0.378743 -0.486155 0)
(0.389724 -0.472241 0)
(0.363473 -0.460199 0)
(0.312074 -0.445644 0)
(0.260783 -0.437538 0)
(0.266111 -0.42079 0)
(0.272677 -0.422293 0)
(0.388474 -0.393932 0)
(0.436823 -0.115 0)
(0.484692 0.171713 0)
(0.548439 0.353244 0)
(0.538742 0.458668 0)
(0.491319 0.521302 0)
(0.396374 0.550075 0)
(0.296263 0.555015 0)
(0.25707 0.543592 0)
(0.257261 0.515169 0)
(0.248566 0.465456 0)
(0.163771 0.387861 0)
(0.00194594 0.267814 0)
(-0.127639 0.0909208 0)
(-0.136957 -0.123533 0)
(-0.0681553 -0.330283 0)
(0.0682691 -0.481093 0)
(0.12918 -0.444224 0)
(0.233297 -0.150084 0)
(0.325606 0.200275 0)
(0.43999 0.379901 0)
(-0.363546 0.19019 0)
(-0.100688 -0.346731 0)
(0.132182 -0.560274 0)
(0.244812 -0.587234 0)
(0.326101 -0.570403 0)
(0.36011 -0.552644 0)
(0.358255 -0.537921 0)
(0.340432 -0.503409 0)
(0.29771 -0.465419 0)
(0.261771 -0.430514 0)
(0.268058 -0.397886 0)
(0.277611 -0.395255 0)
(0.386495 -0.359441 0)
(0.435936 -0.0747865 0)
(0.488937 0.213284 0)
(0.559777 0.398786 0)
(0.559412 0.508776 0)
(0.509562 0.570805 0)
(0.403281 0.589873 0)
(0.289299 0.582973 0)
(0.241113 0.563844 0)
(0.241624 0.533406 0)
(0.237946 0.486698 0)
(0.161653 0.413779 0)
(0.0140154 0.298252 0)
(-0.103397 0.12345 0)
(-0.112444 -0.0888682 0)
(-0.0434468 -0.30188 0)
(0.0881724 -0.451087 0)
(0.153019 -0.421715 0)
(0.258079 -0.142946 0)
(0.357692 0.205457 0)
(0.471685 0.390122 0)
(-0.340057 0.0511801 0)
(0.0215557 -0.540785 0)
(0.150094 -0.626314 0)
(0.245778 -0.63869 0)
(0.292877 -0.629928 0)
(0.299134 -0.627507 0)
(0.310347 -0.59982 0)
(0.316749 -0.542159 0)
(0.292453 -0.472623 0)
(0.26982 -0.409741 0)
(0.268962 -0.363932 0)
(0.284177 -0.360328 0)
(0.385521 -0.31041 0)
(0.429262 -0.0239973 0)
(0.486787 0.25854 0)
(0.561309 0.443043 0)
(0.562582 0.557548 0)
(0.506797 0.618437 0)
(0.390662 0.626617 0)
(0.269021 0.603765 0)
(0.218613 0.574372 0)
(0.222166 0.542878 0)
(0.224207 0.499999 0)
(0.158253 0.431697 0)
(0.0238692 0.320166 0)
(-0.086264 0.151468 0)
(-0.0949181 -0.0542783 0)
(-0.0197795 -0.27279 0)
(0.109869 -0.419356 0)
(0.18252 -0.397623 0)
(0.290859 -0.138137 0)
(0.394214 0.209709 0)
(0.503741 0.396503 0)
(-0.230653 -0.0815802 0)
(0.129436 -0.624864 0)
(0.152182 -0.652689 0)
(0.198358 -0.679682 0)
(0.203171 -0.698142 0)
(0.211173 -0.691131 0)
(0.249157 -0.644823 0)
(0.284518 -0.564072 0)
(0.284091 -0.465554 0)
(0.27322 -0.382414 0)
(0.261142 -0.325673 0)
(0.290249 -0.321996 0)
(0.383989 -0.246859 0)
(0.412268 0.0515972 0)
(0.474137 0.324088 0)
(0.545758 0.501 0)
(0.539576 0.615562 0)
(0.474399 0.668767 0)
(0.355332 0.663211 0)
(0.234114 0.620644 0)
(0.189593 0.58075 0)
(0.200523 0.548449 0)
(0.20912 0.50915 0)
(0.151369 0.444298 0)
(0.0280536 0.334855 0)
(-0.0723925 0.173402 0)
(-0.0767181 -0.0249176 0)
(0.0068856 -0.243789 0)
(0.135957 -0.385497 0)
(0.218481 -0.370232 0)
(0.333829 -0.132136 0)
(0.436593 0.212151 0)
(0.53705 0.401834 0)
(-0.0838055 -0.34335 0)
(0.15849 -0.627676 0)
(0.112656 -0.664647 0)
(0.0933031 -0.726482 0)
(0.0819798 -0.754364 0)
(0.108201 -0.730414 0)
(0.162633 -0.678011 0)
(0.223872 -0.573994 0)
(0.250286 -0.446273 0)
(0.259717 -0.351318 0)
(0.234323 -0.288542 0)
(0.294355 -0.287 0)
(0.380508 -0.174561 0)
(0.381591 0.15551 0)
(0.447397 0.415463 0)
(0.5094 0.57403 0)
(0.492407 0.680016 0)
(0.417853 0.717086 0)
(0.301087 0.697283 0)
(0.18453 0.63192 0)
(0.154873 0.584233 0)
(0.177148 0.552131 0)
(0.19241 0.514762 0)
(0.14133 0.451488 0)
(0.0308973 0.345192 0)
(-0.0555474 0.191873 0)
(-0.0528923 0.000537514 0)
(0.0398501 -0.212663 0)
(0.169733 -0.349414 0)
(0.262041 -0.338943 0)
(0.384019 -0.120889 0)
(0.481687 0.214474 0)
(0.567902 0.412797 0)
(-0.0734591 -0.526473 0)
(0.0404845 -0.647499 0)
(0.00466932 -0.698619 0)
(-0.0400404 -0.764423 0)
(-0.0348061 -0.784831 0)
(0.00199335 -0.759342 0)
(0.0563648 -0.708161 0)
(0.13104 -0.585758 0)
(0.178957 -0.415675 0)
(0.218445 -0.313804 0)
(0.174261 -0.253076 0)
(0.294203 -0.266345 0)
(0.373147 -0.152865 0)
(0.32159 0.259076 0)
(0.396779 0.525423 0)
(0.450272 0.658237 0)
(0.43106 0.74494 0)
(0.35109 0.755994 0)
(0.235857 0.720313 0)
(0.123513 0.635994 0)
(0.118124 0.585261 0)
(0.153501 0.554221 0)
(0.17492 0.517923 0)
(0.132348 0.456732 0)
(0.037169 0.355432 0)
(-0.0325605 0.212764 0)
(-0.0172131 0.0267367 0)
(0.0820743 -0.178892 0)
(0.213408 -0.311704 0)
(0.313062 -0.304745 0)
(0.438569 -0.10517 0)
(0.532014 0.212453 0)
(0.601569 0.42735 0)
(-0.049066 -0.60366 0)
(-0.0738277 -0.67412 0)
(-0.113055 -0.736162 0)
(-0.138512 -0.778051 0)
(-0.120936 -0.789378 0)
(-0.085553 -0.765553 0)
(-0.0397259 -0.716396 0)
(0.0239837 -0.591863 0)
(0.0676642 -0.380205 0)
(0.149069 -0.263336 0)
(0.0684679 -0.217447 0)
(0.257889 -0.24958 0)
(0.244117 0.0801528 0)
(0.217961 0.462315 0)
(0.332973 0.655557 0)
(0.378016 0.746411 0)
(0.367962 0.805089 0)
(0.282645 0.785367 0)
(0.165179 0.728352 0)
(0.0590289 0.638352 0)
(0.0814811 0.585708 0)
(0.130127 0.555626 0)
(0.158662 0.519968 0)
(0.126528 0.460886 0)
(0.0475167 0.363603 0)
(-0.00328713 0.225806 0)
(0.0265623 0.0437926 0)
(0.133014 -0.148479 0)
(0.265556 -0.274735 0)
(0.369221 -0.269335 0)
(0.493067 -0.084993 0)
(0.583159 0.21066 0)
(0.638497 0.444005 0)
(-0.138361 -0.645977 0)
(-0.188119 -0.708935 0)
(-0.206706 -0.755894 0)
(-0.196034 -0.776298 0)
(-0.165055 -0.777453 0)
(-0.1358 -0.750904 0)
(-0.112609 -0.705474 0)
(-0.08366 -0.588907 0)
(-0.0635351 -0.367978 0)
(0.0616444 -0.204038 0)
(-0.0393205 -0.186994 0)
(0.185944 -0.220515 0)
(0.145169 0.211555 0)
(0.151311 0.604627 0)
(0.287352 0.753593 0)
(0.32045 0.81998 0)
(0.31807 0.851636 0)
(0.217578 0.80415 0)
(0.0919247 0.723371 0)
(-0.00436918 0.639701 0)
(0.0440403 0.58501 0)
(0.107408 0.555903 0)
(0.143386 0.520815 0)
(0.122531 0.465359 0)
(0.0621967 0.376903 0)
(0.0343124 0.250433 0)
(0.0810773 0.0775149 0)
(0.189984 -0.113407 0)
(0.319671 -0.238019 0)
(0.424648 -0.234581 0)
(0.543952 -0.0619717 0)
(0.633275 0.219121 0)
(0.683848 0.469019 0)
(-0.269284 -0.693738 0)
(-0.280937 -0.743826 0)
(-0.257633 -0.766904 0)
(-0.215471 -0.771998 0)
(-0.175044 -0.763903 0)
(-0.158901 -0.738943 0)
(-0.163172 -0.695608 0)
(-0.16417 -0.580667 0)
(-0.13874 -0.376816 0)
(-0.0340474 -0.186826 0)
(-0.0869241 -0.168405 0)
(0.0920979 -0.189219 0)
(0.0575771 0.378848 0)
(0.119483 0.718217 0)
(0.262308 0.821069 0)
(0.286569 0.872433 0)
(0.280095 0.878029 0)
(0.153243 0.807293 0)
(0.016268 0.708844 0)
(-0.0625597 0.63501 0)
(0.00682367 0.582954 0)
(0.0835292 0.553477 0)
(0.125832 0.518648 0)
(0.115552 0.467882 0)
(0.0764424 0.387172 0)
(0.0713236 0.267513 0)
(0.132009 0.0995946 0)
(0.238682 -0.0832029 0)
(0.363846 -0.203221 0)
(0.472946 -0.200222 0)
(0.589592 -0.0637053 0)
(0.679587 0.204977 0)
(0.727818 0.481788 0)
(-0.368532 -0.74006 0)
(-0.338495 -0.769156 0)
(-0.279028 -0.776316 0)
(-0.214002 -0.771787 0)
(-0.170821 -0.760665 0)
(-0.166651 -0.736756 0)
(-0.190622 -0.695509 0)
(-0.206407 -0.588114 0)
(-0.182631 -0.398812 0)
(-0.103165 -0.208406 0)
(-0.126172 -0.153881 0)
(-0.00234716 -0.106652 0)
(-0.00750546 0.521005 0)
(0.114871 0.795787 0)
(0.249409 0.861131 0)
(0.27874 0.898725 0)
(0.255949 0.88062 0)
(0.0895809 0.791823 0)
(-0.0583657 0.688942 0)
(-0.114179 0.625439 0)
(-0.0301669 0.578387 0)
(0.0572367 0.546999 0)
(0.104737 0.512733 0)
(0.106318 0.467022 0)
(0.0900161 0.395294 0)
(0.103314 0.289372 0)
(0.171224 0.13482 0)
(0.27112 -0.0463174 0)
(0.390206 -0.162137 0)
(0.493326 -0.163536 0)
(0.565057 -0.0297613 0)
(0.662115 0.215761 0)
(0.73205 0.481058 0)
(-0.434015 -0.770637 0)
(-0.369706 -0.785713 0)
(-0.283507 -0.78649 0)
(-0.207042 -0.781591 0)
(-0.164283 -0.770149 0)
(-0.173134 -0.748847 0)
(-0.213066 -0.708775 0)
(-0.235288 -0.605719 0)
(-0.218322 -0.417415 0)
(-0.171127 -0.224258 0)
(-0.16463 -0.113993 0)
(-0.0781272 0.0651062 0)
(-0.0545157 0.620853 0)
(0.128472 0.841724 0)
(0.24562 0.881875 0)
(0.28843 0.902269 0)
(0.238152 0.860184 0)
(0.0238738 0.758444 0)
(-0.124581 0.666183 0)
(-0.159374 0.61312 0)
(-0.0668872 0.570603 0)
(0.0284433 0.53704 0)
(0.0811626 0.504599 0)
(0.0989137 0.463543 0)
(0.104721 0.402348 0)
(0.134823 0.310441 0)
(0.208332 0.165774 0)
(0.300785 -0.00392025 0)
(0.410754 -0.110717 0)
(0.493697 -0.1172 0)
(0.550576 -0.00737682 0)
(0.61916 0.219483 0)
(0.700934 0.457676 0)
(-0.468346 -0.785446 0)
(-0.383784 -0.795252 0)
(-0.286494 -0.799875 0)
(-0.203993 -0.80077 0)
(-0.162122 -0.791912 0)
(-0.179767 -0.773952 0)
(-0.227009 -0.727187 0)
(-0.253974 -0.614655 0)
(-0.251787 -0.417161 0)
(-0.233965 -0.210782 0)
(-0.198506 -0.0470688 0)
(-0.125313 0.203104 0)
(-0.0868254 0.699568 0)
(0.149996 0.866371 0)
(0.246992 0.88765 0)
(0.302615 0.889504 0)
(0.213551 0.826616 0)
(-0.042413 0.721854 0)
(-0.181228 0.643973 0)
(-0.200044 0.599729 0)
(-0.104309 0.560584 0)
(-0.00244603 0.52601 0)
(0.0574969 0.492941 0)
(0.0926221 0.45652 0)
(0.12363 0.409386 0)
(0.174093 0.338374 0)
(0.25831 0.215308 0)
(0.350084 0.061472 0)
(0.444582 -0.0443136 0)
(0.516113 -0.059427 0)
(0.582597 0.0276264 0)
(0.621794 0.219723 0)
(0.695956 0.435951 0)
(-0.486774 -0.79416 0)
(-0.395093 -0.806385 0)
(-0.295498 -0.817332 0)
(-0.208 -0.824689 0)
(-0.163417 -0.821897 0)
(-0.179943 -0.800872 0)
(-0.225755 -0.74117 0)
(-0.252735 -0.611742 0)
(-0.260465 -0.397995 0)
(-0.263915 -0.171362 0)
(-0.222071 0.0348928 0)
(-0.153278 0.313688 0)
(-0.107383 0.761836 0)
(0.170003 0.876871 0)
(0.247041 0.882036 0)
(0.308311 0.870141 0)
(0.169632 0.795334 0)
(-0.110745 0.69421 0)
(-0.233565 0.626326 0)
(-0.238246 0.588096 0)
(-0.142086 0.550181 0)
(-0.037911 0.511584 0)
(0.0304185 0.47051 0)
(0.0881101 0.437913 0)
(0.146804 0.407577 0)
(0.224819 0.356526 0)
(0.327032 0.257827 0)
(0.427638 0.129376 0)
(0.510433 0.0304444 0)
(0.570399 0.0078018 0)
(0.631268 0.0747217 0)
(0.656106 0.235281 0)
(0.719669 0.426395 0)
(-0.504911 -0.805031 0)
(-0.410783 -0.821198 0)
(-0.311074 -0.835681 0)
(-0.220578 -0.84829 0)
(-0.167228 -0.852003 0)
(-0.1714 -0.829293 0)
(-0.208541 -0.756984 0)
(-0.233941 -0.606505 0)
(-0.248022 -0.367429 0)
(-0.268782 -0.115097 0)
(-0.234933 0.119365 0)
(-0.170384 0.407707 0)
(-0.12189 0.81005 0)
(0.181863 0.878832 0)
(0.238406 0.87144 0)
(0.293351 0.854519 0)
(0.0981393 0.775156 0)
(-0.17923 0.676229 0)
(-0.28296 0.613627 0)
(-0.276121 0.577082 0)
(-0.18504 0.535311 0)
(-0.0846354 0.486387 0)
(-0.00295727 0.43631 0)
(0.0886041 0.40975 0)
(0.179558 0.395363 0)
(0.284987 0.359071 0)
(0.402237 0.279602 0)
(0.510945 0.175475 0)
(0.593866 0.0929566 0)
(0.654759 0.0689259 0)
(0.709544 0.109838 0)
(0.732186 0.238138 0)
(0.776276 0.395879 0)
(-0.526222 -0.817866 0)
(-0.430119 -0.836193 0)
(-0.330874 -0.851239 0)
(-0.239725 -0.865388 0)
(-0.177785 -0.873533 0)
(-0.163304 -0.854574 0)
(-0.185668 -0.779931 0)
(-0.210447 -0.610723 0)
(-0.232425 -0.33671 0)
(-0.266965 -0.0412116 0)
(-0.247916 0.217217 0)
(-0.18549 0.499376 0)
(-0.135514 0.84721 0)
(0.182244 0.877707 0)
(0.212746 0.861286 0)
(0.24571 0.843653 0)
(0.00263423 0.761765 0)
(-0.247297 0.663253 0)
(-0.331367 0.602622 0)
(-0.318668 0.561375 0)
(-0.237969 0.512328 0)
(-0.140005 0.457639 0)
(-0.0370412 0.406439 0)
(0.0976795 0.386522 0)
(0.21669 0.382944 0)
(0.343633 0.35519 0)
(0.470115 0.293134 0)
(0.584313 0.213697 0)
(0.675627 0.150187 0)
(0.741368 0.131932 0)
(0.78618 0.162555 0)
(0.796942 0.259885 0)
(0.815888 0.365137 0)
(-0.549201 -0.832695 0)
(-0.450509 -0.849579 0)
(-0.350937 -0.863142 0)
(-0.261929 -0.875562 0)
(-0.195717 -0.883351 0)
(-0.167446 -0.86688 0)
(-0.173269 -0.797194 0)
(-0.196441 -0.619817 0)
(-0.2284 -0.309503 0)
(-0.271386 0.0548033 0)
(-0.266938 0.33137 0)
(-0.205627 0.595295 0)
(-0.152952 0.878614 0)
(0.169172 0.875752 0)
(0.165583 0.856829 0)
(0.167262 0.837647 0)
(-0.0959845 0.749312 0)
(-0.312847 0.651928 0)
(-0.38173 0.591821 0)
(-0.36859 0.543767 0)
(-0.293644 0.490234 0)
(-0.19259 0.438574 0)
(-0.0676997 0.391076 0)
(0.103247 0.373538 0)
(0.247061 0.371939 0)
(0.38317 0.343324 0)
(0.512932 0.290011 0)
(0.631514 0.231686 0)
(0.734603 0.18858 0)
(0.810075 0.17884 0)
(0.853585 0.20596 0)
(0.856749 0.278283 0)
(0.850735 0.340809 0)
(-0.56877 -0.846991 0)
(-0.467922 -0.858948 0)
(-0.369591 -0.868478 0)
(-0.283415 -0.876132 0)
(-0.216499 -0.879345 0)
(-0.183207 -0.862215 0)
(-0.18355 -0.789847 0)
(-0.205124 -0.60948 0)
(-0.236846 -0.283027 0)
(-0.287589 0.131019 0)
(-0.298788 0.438858 0)
(-0.232322 0.685062 0)
(-0.172388 0.905238 0)
(0.136976 0.877177 0)
(0.106815 0.864489 0)
(0.0794941 0.839113 0)
(-0.183222 0.737751 0)
(-0.373951 0.643235 0)
(-0.434036 0.581737 0)
(-0.422752 0.528951 0)
(-0.347799 0.474413 0)
(-0.241462 0.427784 0)
(-0.0925478 0.387154 0)
(0.101189 0.368567 0)
(0.265949 0.365037 0)
(0.404371 0.330952 0)
(0.532376 0.282243 0)
(0.655556 0.235087 0)
(0.762845 0.207845 0)
(0.847876 0.203502 0)
(0.893657 0.229641 0)
(0.895869 0.284804 0)
(0.865983 0.308968 0)
(-0.581131 -0.855639 0)
(-0.479572 -0.860971 0)
(-0.382078 -0.862941 0)
(-0.300222 -0.863006 0)
(-0.239276 -0.859346 0)
(-0.208014 -0.838412 0)
(-0.210901 -0.757886 0)
(-0.244051 -0.55806 0)
(-0.28925 -0.207567 0)
(-0.338872 0.233639 0)
(-0.334624 0.547462 0)
(-0.263094 0.762788 0)
(-0.187098 0.926805 0)
(0.0888179 0.887665 0)
(0.0485526 0.883653 0)
(-0.00277522 0.839924 0)
(-0.259345 0.728098 0)
(-0.430246 0.637933 0)
(-0.489188 0.572025 0)
(-0.479463 0.515734 0)
(-0.400323 0.462868 0)
(-0.282365 0.421234 0)
(-0.115299 0.389692 0)
(0.0948852 0.370095 0)
(0.275763 0.364766 0)
(0.417234 0.327282 0)
(0.550636 0.27585 0)
(0.678634 0.228301 0)
(0.7905 0.202507 0)
(0.883871 0.192102 0)
(0.925235 0.220889 0)
(0.907398 0.252918 0)
(0.850207 0.232193 0)
(-0.582822 -0.857103 0)
(-0.482437 -0.853916 0)
(-0.38639 -0.846908 0)
(-0.310653 -0.838614 0)
(-0.260436 -0.827035 0)
(-0.239857 -0.797696 0)
(-0.248949 -0.707558 0)
(-0.286595 -0.489939 0)
(-0.339798 -0.119974 0)
(-0.378551 0.312249 0)
(-0.359602 0.627527 0)
(-0.286659 0.822654 0)
(-0.198775 0.944845 0)
(0.0347297 0.906137 0)
(-0.00495697 0.902878 0)
(-0.0816902 0.834617 0)
(-0.323625 0.718785 0)
(-0.486233 0.631261 0)
(-0.548672 0.561692 0)
(-0.536135 0.502897 0)
(-0.448649 0.454376 0)
(-0.315321 0.417413 0)
(-0.138331 0.392862 0)
(0.0835279 0.373944 0)
(0.276799 0.365354 0)
(0.423346 0.321521 0)
(0.56743 0.260162 0)
(0.705239 0.207563 0)
(0.825234 0.172547 0)
(0.913302 0.156003 0)
(0.938218 0.178804 0)
(0.880904 0.17463 0)
(0.806759 0.12064 0)
(-0.574483 -0.851638 0)
(-0.475872 -0.839399 0)
(-0.381471 -0.824018 0)
(-0.313893 -0.807633 0)
(-0.277395 -0.788649 0)
(-0.270773 -0.750454 0)
(-0.286605 -0.648293 0)
(-0.318862 -0.419593 0)
(-0.353842 -0.0544324 0)
(-0.375436 0.351757 0)
(-0.361171 0.666855 0)
(-0.297837 0.861038 0)
(-0.208461 0.956312 0)
(-0.0186358 0.92449 0)
(-0.0574553 0.909588 0)
(-0.158406 0.821387 0)
(-0.386034 0.703507 0)
(-0.547265 0.619634 0)
(-0.612003 0.550108 0)
(-0.592476 0.491901 0)
(-0.4935 0.449053 0)
(-0.345243 0.416724 0)
(-0.162225 0.3972 0)
(0.0664521 0.37702 0)
(0.271024 0.366245 0)
(0.424053 0.313478 0)
(0.57996 0.241289 0)
(0.732073 0.178916 0)
(0.863255 0.133862 0)
(0.953978 0.119545 0)
(0.948449 0.093943 0)
(0.833737 0.0866199 0)
(0.737321 0.028546 0)
(-0.556926 -0.841259 0)
(-0.460067 -0.820472 0)
(-0.367874 -0.7976 0)
(-0.309551 -0.77414 0)
(-0.289395 -0.749445 0)
(-0.297105 -0.704803 0)
(-0.315797 -0.592757 0)
(-0.335459 -0.353403 0)
(-0.353627 0.0138892 0)
(-0.363422 0.390024 0)
(-0.344469 0.677957 0)
(-0.28946 0.871875 0)
(-0.211123 0.955029 0)
(-0.0680327 0.931748 0)
(-0.115105 0.897802 0)
(-0.238302 0.798953 0)
(-0.454871 0.685714 0)
(-0.615786 0.606512 0)
(-0.677143 0.53896 0)
(-0.647137 0.483618 0)
(-0.535234 0.446635 0)
(-0.373834 0.418197 0)
(-0.186241 0.40174 0)
(0.0435296 0.381037 0)
(0.262166 0.37057 0)
(0.420591 0.309402 0)
(0.586589 0.229026 0)
(0.755829 0.154238 0)
(0.895298 0.0988397 0)
(0.971408 0.0548402 0)
(0.951474 0.0246965 0)
(0.819949 -0.0364613 0)
(0.653944 -0.103906 0)
(-0.532013 -0.827785 0)
(-0.435756 -0.799806 0)
(-0.346208 -0.770602 0)
(-0.298243 -0.7413 0)
(-0.296008 -0.713149 0)
(-0.317292 -0.664951 0)
(-0.336618 -0.548074 0)
(-0.342385 -0.30646 0)
(-0.345195 0.0606871 0)
(-0.349456 0.42193 0)
(-0.323911 0.686133 0)
(-0.268693 0.86446 0)
(-0.203163 0.937036 0)
(-0.115061 0.919872 0)
(-0.182347 0.86769 0)
(-0.322892 0.769825 0)
(-0.533434 0.669104 0)
(-0.690641 0.592186 0)
(-0.741641 0.528494 0)
(-0.697343 0.477136 0)
(-0.574402 0.446348 0)
(-0.401854 0.421399 0)
(-0.207108 0.406194 0)
(0.0194677 0.387895 0)
(0.25412 0.378649 0)
(0.416048 0.311072 0)
(0.589567 0.225515 0)
(0.762558 0.14528 0)
(0.908024 0.0724662 0)
(1.00446 0.00316887 0)
(0.948647 -0.0348481 0)
(0.767807 -0.149024 0)
(0.623775 -0.223469 0)
(-0.503319 -0.811001 0)
(-0.404678 -0.779924 0)
(-0.317443 -0.74634 0)
(-0.280263 -0.713018 0)
(-0.296004 -0.683588 0)
(-0.328496 -0.633208 0)
(-0.347293 -0.514526 0)
(-0.341029 -0.277793 0)
(-0.332645 0.0806577 0)
(-0.332104 0.440113 0)
(-0.302599 0.692615 0)
(-0.247948 0.849592 0)
(-0.193758 0.905857 0)
(-0.161735 0.890158 0)
(-0.257823 0.828548 0)
(-0.408526 0.739309 0)
(-0.611372 0.653636 0)
(-0.762791 0.577998 0)
(-0.800907 0.518361 0)
(-0.74085 0.474441 0)
(-0.607957 0.45102 0)
(-0.427323 0.431899 0)
(-0.225133 0.418446 0)
(-0.00393421 0.402098 0)
(0.247973 0.392664 0)
(0.412022 0.320052 0)
(0.591208 0.231244 0)
(0.767194 0.145762 0)
(0.90982 0.0621259 0)
(0.998525 -0.0240449 0)
(0.926304 -0.122874 0)
(0.754352 -0.247708 0)
(0.622049 -0.349345 0)
(-0.474992 -0.791456 0)
(-0.371048 -0.763826 0)
(-0.284195 -0.731994 0)
(-0.257081 -0.697111 0)
(-0.288223 -0.666863 0)
(-0.327025 -0.614045 0)
(-0.344015 -0.493276 0)
(-0.329775 -0.253649 0)
(-0.311816 0.104836 0)
(-0.311688 0.45067 0)
(-0.283083 0.691636 0)
(-0.231065 0.830413 0)
(-0.188091 0.869404 0)
(-0.206264 0.851847 0)
(-0.331292 0.793517 0)
(-0.480734 0.7192 0)
(-0.674961 0.641828 0)
(-0.825459 0.568229 0)
(-0.851085 0.514885 0)
(-0.776243 0.482679 0)
(-0.633678 0.466869 0)
(-0.447409 0.45149 0)
(-0.240956 0.437965 0)
(-0.0270496 0.420836 0)
(0.24205 0.410301 0)
(0.407809 0.3364 0)
(0.590398 0.24881 0)
(0.763012 0.161846 0)
(0.898359 0.0709772 0)
(0.975957 -0.0345141 0)
(0.892081 -0.174336 0)
(0.743121 -0.326873 0)
(0.638395 -0.455052 0)
(-0.453207 -0.771207 0)
(-0.342328 -0.754335 0)
(-0.25236 -0.730873 0)
(-0.229407 -0.701007 0)
(-0.271494 -0.670597 0)
(-0.311758 -0.615878 0)
(-0.323138 -0.499619 0)
(-0.302072 -0.264399 0)
(-0.280302 0.0964172 0)
(-0.290673 0.457227 0)
(-0.264687 0.682897 0)
(-0.21507 0.807512 0)
(-0.187118 0.832531 0)
(-0.243773 0.814579 0)
(-0.384608 0.770626 0)
(-0.53004 0.709052 0)
(-0.721141 0.633193 0)
(-0.874132 0.566578 0)
(-0.888815 0.52342 0)
(-0.80215 0.502463 0)
(-0.655303 0.489694 0)
(-0.467505 0.474054 0)
(-0.258582 0.458123 0)
(-0.0510495 0.439239 0)
(0.238302 0.420011 0)
(0.407321 0.34328 0)
(0.591818 0.251451 0)
(0.758949 0.154251 0)
(0.882604 0.0381361 0)
(0.935429 -0.0822283 0)
(0.848311 -0.268645 0)
(0.739888 -0.392773 0)
(0.651025 -0.526167 0)
(-0.442713 -0.752685 0)
(-0.322981 -0.751681 0)
(-0.227757 -0.741283 0)
(-0.20545 -0.725009 0)
(-0.250095 -0.698153 0)
(-0.290952 -0.646156 0)
(-0.29971 -0.535818 0)
(-0.273888 -0.294795 0)
(-0.248366 0.093651 0)
(-0.276855 0.475704 0)
(-0.256813 0.681088 0)
(-0.200104 0.782225 0)
(-0.186378 0.795448 0)
(-0.266828 0.784235 0)
(-0.413944 0.75695 0)
(-0.556971 0.703325 0)
(-0.743691 0.63033 0)
(-0.90311 0.574784 0)
(-0.914568 0.542429 0)
(-0.822329 0.527722 0)
(-0.674787 0.516259 0)
(-0.48684 0.502574 0)
(-0.277802 0.484874 0)
(-0.0874339 0.459678 0)
(0.231776 0.426661 0)
(0.401514 0.35605 0)
(0.581067 0.272979 0)
(0.736565 0.170835 0)
(0.848293 0.0436385 0)
(0.865696 -0.122799 0)
(0.802267 -0.307665 0)
(0.742886 -0.419134 0)
(0.631519 -0.546468 0)
(-0.442362 -0.737733 0)
(-0.31414 -0.754022 0)
(-0.213355 -0.762522 0)
(-0.188953 -0.763793 0)
(-0.230923 -0.745178 0)
(-0.27371 -0.704112 0)
(-0.281921 -0.604954 0)
(-0.252391 -0.360413 0)
(-0.226422 0.0771539 0)
(-0.269287 0.497793 0)
(-0.259603 0.693533 0)
(-0.195397 0.763357 0)
(-0.185334 0.761187 0)
(-0.270718 0.757988 0)
(-0.421387 0.7448 0)
(-0.564171 0.699779 0)
(-0.747315 0.63453 0)
(-0.916729 0.590714 0)
(-0.932574 0.569239 0)
(-0.836857 0.561231 0)
(-0.688708 0.554681 0)
(-0.503637 0.54443 0)
(-0.301395 0.523294 0)
(-0.13495 0.484322 0)
(0.157527 0.398229 0)
(0.33184 0.331057 0)
(0.501224 0.244079 0)
(0.629299 0.120764 0)
(0.703714 -0.0333722 0)
(0.712351 -0.221487 0)
(0.720692 -0.37032 0)
(0.696287 -0.466421 0)
(0.55479 -0.566726 0)
(-0.448049 -0.725563 0)
(-0.313724 -0.760632 0)
(-0.208906 -0.790558 0)
(-0.177816 -0.808759 0)
(-0.215956 -0.79942 0)
(-0.26226 -0.767468 0)
(-0.272028 -0.682549 0)
(-0.241109 -0.443711 0)
(-0.218868 0.0446092 0)
(-0.266472 0.520523 0)
(-0.264575 0.712738 0)
(-0.201437 0.752303 0)
(-0.190554 0.736208 0)
(-0.26115 0.733894 0)
(-0.408944 0.732827 0)
(-0.556146 0.696456 0)
(-0.743038 0.642391 0)
(-0.923707 0.612012 0)
(-0.942438 0.603145 0)
(-0.843344 0.602493 0)
(-0.697388 0.600179 0)
(-0.519537 0.592867 0)
(-0.326823 0.570393 0)
(-0.160418 0.518431 0)
(0.060736 0.382336 0)
(0.241479 0.302583 0)
(0.393926 0.195429 0)
(0.498342 0.051984 0)
(0.566601 -0.119496 0)
(0.60496 -0.283913 0)
(0.667506 -0.399683 0)