/*--------------------------------*- C++ -*----------------------------------*\
  =========                 |
  \\      /  F ield         | OpenFOAM: The Open Source CFD Toolbox
   \\    /   O peration     | Website:  https://openfoam.org
    \\  /    A nd           | Version:  10
     \\/     M anipulation  |
\*---------------------------------------------------------------------------*/
FoamFile
{
    format      ascii;
    class       surfaceScalarField;
    location    "0.399873";
    object      phi;
}
// * * * * * * * * * * * * * * * * * * * * * * * * * * * * * * * * * * * * * //

dimensions      [1 0 -1 0 0 0 0];

internalField   nonuniform List<scalar> 
31108
(
0.00048325
-3.97281e-05
0.000477941
-3.6765e-05
0.000472309
-3.35654e-05
0.000466386
-3.01721e-05
0.000460194
-2.66467e-05
0.000453753
-2.3059e-05
0.000447087
-1.94777e-05
0.000440194
-1.59699e-05
0.000433105
-1.25912e-05
0.000425818
-9.39445e-06
0.00041835
-6.41795e-06
0.000410732
-3.69123e-06
0.000402969
-1.23205e-06
0.000395099
9.50805e-07
0.000387149
2.8681e-06
0.000379156
4.54308e-06
0.000371166
6.00611e-06
0.00036325
7.2832e-06
0.000355473
8.4353e-06
0.000347863
9.50849e-06
0.000340518
1.05481e-05
0.000333442
1.16103e-05
0.000326763
1.27066e-05
0.000320511
1.39237e-05
0.000314656
1.52697e-05
0.000309295
1.67724e-05
0.000304442
1.84368e-05
0.000300089
2.02601e-05
0.000296275
2.22447e-05
0.000292953
2.43579e-05
0.000290151
2.65927e-05
0.000287845
2.89102e-05
0.00028599
3.12675e-05
0.000284601
3.36366e-05
0.000283626
3.59666e-05
0.000283054
3.82137e-05
0.00028286
4.03334e-05
0.000283002
4.22815e-05
0.000283457
4.40154e-05
0.000284207
4.55007e-05
0.000285216
4.66998e-05
0.000286465
4.75803e-05
0.000287931
4.81248e-05
0.000289592
4.83125e-05
0.000291424
4.81348e-05
0.000293406
4.75889e-05
0.000295517
4.66791e-05
0.00029773
4.54162e-05
0.000300023
4.38217e-05
0.000302373
4.19202e-05
3.97479e-05
0.00030475
0.000485624
-3.21248e-05
0.000480498
-2.93547e-05
0.000475016
-2.63457e-05
0.000469193
-2.3141e-05
0.00046307
-1.98021e-05
0.000456649
-1.63994e-05
0.00044996
-1.30041e-05
0.000443008
-9.68554e-06
0.000435809
-6.50537e-06
0.000428396
-3.51519e-06
0.00042078
-7.61134e-07
0.000412997
1.7178e-06
0.000405068
3.91767e-06
0.000397024
5.82189e-06
0.000388897
7.44097e-06
0.000380759
8.79183e-06
0.000372664
9.90319e-06
0.00036467
1.08405e-05
0.000356821
1.16324e-05
0.000349199
1.23443e-05
0.000341846
1.30334e-05
0.000334867
1.37039e-05
0.000328261
1.44711e-05
0.000322084
1.53491e-05
0.00031636
1.63678e-05
0.000311126
1.75496e-05
0.000306403
1.89045e-05
0.000302172
2.0438e-05
0.000298454
2.21365e-05
0.000295235
2.39885e-05
0.00029249
2.5964e-05
0.000290216
2.80356e-05
0.000288376
3.01657e-05
0.00028695
3.23204e-05
0.000285903
3.44345e-05
0.000285217
3.64875e-05
0.000284868
3.84113e-05
0.000284825
4.01782e-05
0.000285056
4.17376e-05
0.000285546
4.30472e-05
0.00028627
4.4083e-05
0.000287208
4.48057e-05
0.000288349
4.52021e-05
0.000289667
4.52529e-05
0.000291152
4.4951e-05
0.000292791
4.4295e-05
0.000294561
4.32944e-05
0.000296453
4.1961e-05
0.000298447
4.03202e-05
0.000300527
3.83979e-05
3.6233e-05
0.000302673
0.000487764
-2.46255e-05
0.000482826
-2.20559e-05
0.000477496
-1.92438e-05
0.000471793
-1.62327e-05
0.000465737
-1.30832e-05
0.000459343
-9.86563e-06
0.000452632
-6.65568e-06
0.000445615
-3.52262e-06
0.000438317
-5.34553e-07
0.000430773
2.25008e-06
0.000422996
4.79885e-06
0.000415023
7.05154e-06
0.000406903
8.99726e-06
0.00039869
1.06268e-05
0.000390395
1.19492e-05
0.000382104
1.29881e-05
0.000373873
1.37709e-05
0.00036578
1.43581e-05
0.000357864
1.4809e-05
0.000350224
1.51539e-05
0.000342929
1.54529e-05
0.000335983
1.57968e-05
0.00032946
1.62098e-05
0.000323391
1.67418e-05
0.000317801
1.74164e-05
0.000312697
1.82692e-05
0.000308111
1.93111e-05
0.000304016
2.05374e-05
0.000300417
2.19488e-05
0.000297293
2.35233e-05
0.000294627
2.52383e-05
0.000292391
2.7062e-05
0.000290568
2.89644e-05
0.00028911
3.08945e-05
0.000288013
3.28226e-05
0.000287214
3.46733e-05
0.000286725
3.64297e-05
0.000286496
3.80246e-05
0.000286513
3.94295e-05
0.000286749
4.0596e-05
0.000287194
4.14924e-05
0.000287825
4.20908e-05
0.000288647
4.23671e-05
0.000289641
4.23097e-05
0.000290791
4.19101e-05
0.000292096
4.11701e-05
0.000293546
4.00979e-05
0.000295135
3.87103e-05
0.000296849
3.70308e-05
0.000298678
3.50907e-05
3.29263e-05
0.000300613
0.000489685
-1.7252e-05
0.000484944
-1.48925e-05
0.000479777
-1.22859e-05
0.000474198
-9.4739e-06
0.000468219
-6.51754e-06
0.000461858
-3.48567e-06
0.00045513
-4.60019e-07
0.000448055
2.48198e-06
0.000440647
5.30314e-06
0.000432956
7.89315e-06
0.000425017
1.02248e-05
0.000416863
1.22704e-05
0.000408534
1.39843e-05
0.000400098
1.53515e-05
0.000391615
1.63826e-05
0.000383164
1.71111e-05
0.000374792
1.75752e-05
0.000366573
1.78411e-05
0.000358622
1.79075e-05
0.000350982
1.78991e-05
0.000343686
1.78558e-05
0.000336798
1.78373e-05
0.000330364
1.78912e-05
0.00032441
1.80616e-05
0.000318951
1.83994e-05
0.000313996
1.89064e-05
0.000309554
1.96179e-05
0.000305609
2.05298e-05
0.000302145
2.16373e-05
0.000299134
2.29258e-05
0.000296556
2.43742e-05
0.000294382
2.59539e-05
0.000292564
2.76224e-05
0.000291109
2.93464e-05
0.000289947
3.10743e-05
0.000289064
3.27587e-05
0.000288429
3.43516e-05
0.000288027
3.58072e-05
0.00028783
3.70799e-05
0.000287824
3.81297e-05
0.000287998
3.89207e-05
0.000288341
3.94203e-05
0.000288845
3.96122e-05
0.000289512
3.94746e-05
0.000290339
3.90055e-05
0.000291325
3.82046e-05
0.000292468
3.70803e-05
0.000293762
3.56509e-05
0.000295209
3.39403e-05
0.000296803
3.19806e-05
2.98098e-05
0.000298541
0.000491391
-1.00276e-05
0.000486851
-7.89048e-06
0.000481857
-5.49882e-06
0.000476415
-2.89207e-06
0.000470529
-1.33048e-07
0.000464207
2.70411e-06
0.00045747
5.54153e-06
0.000450323
8.3332e-06
0.000442807
1.09573e-05
0.000434997
1.33708e-05
0.000426855
1.5531e-05
0.000418489
1.73694e-05
0.000409956
1.8837e-05
0.000401293
1.99611e-05
0.000392602
2.07198e-05
0.000383936
2.11483e-05
0.000375429
2.13054e-05
0.000367133
2.12068e-05
0.00035909
2.0956e-05
0.000351412
2.05901e-05
0.000344138
2.01845e-05
0.000337304
1.97997e-05
0.00033097
1.94892e-05
0.000325129
1.92965e-05
0.000319814
1.9265e-05
0.000315019
1.94241e-05
0.000310736
1.97947e-05
0.000306943
2.03778e-05
0.000303624
2.11746e-05
0.000300741
2.21707e-05
0.000298266
2.33476e-05
0.000296166
2.46734e-05
0.000294394
2.6112e-05
0.000292934
2.76348e-05
0.00029173
2.91867e-05
0.000290765
3.07106e-05
0.000290011
3.21677e-05
0.000289439
3.35056e-05
0.000289037
3.46779e-05
0.000288798
3.56415e-05
0.000288699
3.63587e-05
0.000288755
3.67968e-05
0.000288959
3.69317e-05
0.000289305
3.67476e-05
0.000289813
3.6236e-05
0.000290482
3.53951e-05
0.000291318
3.42369e-05
0.00029233
3.27768e-05
0.000293517
3.104e-05
0.00029489
2.90565e-05
2.68681e-05
0.00029644
0.000492875
-2.97828e-06
0.000488547
-1.07819e-06
0.000483744
1.08518e-06
0.00047846
3.4733e-06
0.000472676
6.03001e-06
0.000466393
8.67798e-06
0.000459648
1.13404e-05
0.000452432
1.39758e-05
0.000444842
1.64051e-05
0.000436837
1.87004e-05
0.000428537
2.06614e-05
0.000419942
2.23008e-05
0.000411146
2.35644e-05
0.000402247
2.44352e-05
0.000393329
2.49439e-05
0.000384477
2.50775e-05
0.000375799
2.49239e-05
0.000367377
2.44992e-05
0.000359267
2.39054e-05
0.000351551
2.31864e-05
0.000344296
2.24167e-05
0.000337511
2.16606e-05
0.00033128
2.09662e-05
0.00032556
2.04036e-05
0.00032039
1.99953e-05
0.000315758
1.97924e-05
0.000311648
1.98054e-05
0.000308026
2.00477e-05
0.000304862
2.05245e-05
0.000302124
2.1221e-05
0.00029977
2.21224e-05
0.000297756
2.31987e-05
0.00029605
2.44147e-05
0.000294611
2.57409e-05
0.000293384
2.71318e-05
0.000292351
2.85218e-05
0.000291482
2.9867e-05
0.000290756
3.11158e-05
0.000290163
3.22196e-05
0.00028969
3.31313e-05
0.000289342
3.38111e-05
0.000289107
3.42218e-05
0.000288998
3.43351e-05
0.000289039
3.41345e-05
0.000289223
3.36053e-05
0.000289572
3.27491e-05
0.000290108
3.15719e-05
0.000290838
3.00885e-05
0.000291771
2.83253e-05
0.00029292
2.63121e-05
2.40881e-05
0.000294282
0.00049414
3.85668e-06
0.000490057
5.50011e-06
0.000485456
7.42309e-06
0.000480326
9.59138e-06
0.000474654
1.1943e-05
0.000468425
1.44002e-05
0.000461684
1.69097e-05
0.00045443
1.93662e-05
0.000446736
2.16778e-05
0.000438583
2.38021e-05
0.000430046
2.56127e-05
0.00042122
2.70615e-05
0.000412144
2.81238e-05
0.000403024
2.87755e-05
0.000393824
2.90044e-05
0.000384776
2.89086e-05
0.000375918
2.83961e-05
0.000367345
2.76928e-05
0.000359148
2.67467e-05
0.000351401
2.56605e-05
0.000344146
2.45314e-05
0.000337424
2.33835e-05
0.000331285
2.23089e-05
0.000325691
2.13465e-05
0.000320676
2.05576e-05
0.000316222
1.99694e-05
0.000312288
1.9616e-05
0.000308849
1.95083e-05
0.000305871
1.96509e-05
0.000303297
2.00438e-05
0.000301085
2.0669e-05
0.000299182
2.15028e-05
0.000297548
2.25102e-05
0.000296143
2.36407e-05
0.00029492
2.48998e-05
0.000293843
2.61769e-05
0.000292882
2.74428e-05
0.000292021
2.86379e-05
0.000291241
2.97101e-05
0.000290545
3.06091e-05
0.000289939
3.12885e-05
0.000289418
3.17083e-05
0.000289012
3.18368e-05
0.000288728
3.16499e-05
0.000288587
3.11311e-05
0.000288624
3.02782e-05
0.00028885
2.90942e-05
0.00028929
2.75945e-05
0.000289963
2.57997e-05
0.000290878
2.37443e-05
2.14658e-05
0.000292057
0.000495209
1.0441e-05
0.000491345
1.18111e-05
0.000486964
1.34853e-05
0.000482015
1.54253e-05
0.000476472
1.7574e-05
0.000470325
1.98496e-05
0.000463586
2.22125e-05
0.000456297
2.4501e-05
0.00044849
2.67193e-05
0.000440185
2.86601e-05
0.00043143
3.03461e-05
0.000422313
3.16291e-05
0.000413037
3.24981e-05
0.000403543
3.29378e-05
0.000394184
3.29434e-05
0.000384812
3.25472e-05
0.00037577
3.18033e-05
0.000367085
3.07505e-05
0.000358716
2.94438e-05
0.000350996
2.8018e-05
0.0003437
2.64762e-05
0.000337043
2.49514e-05
0.000330966
2.34679e-05
0.000325512
2.21069e-05
0.000320655
2.09156e-05
0.000316387
1.99304e-05
0.000312659
1.91894e-05
0.000309424
1.87214e-05
0.000306642
1.8525e-05
0.000304256
1.861e-05
0.000302213
1.89597e-05
0.000300454
1.95568e-05
0.000298928
2.03689e-05
0.000297578
2.13487e-05
0.000296391
2.24559e-05
0.000295287
2.36762e-05
0.00029425
2.48973e-05
0.000293266
2.60782e-05
0.000292318
2.71605e-05
0.000291408
2.80893e-05
0.000290537
2.8812e-05
0.000289739
2.92808e-05
0.000289026
2.94614e-05
0.000288412
2.93194e-05
0.000287944
2.88371e-05
0.000287642
2.80057e-05
0.000287548
2.68252e-05
0.000287685
2.53079e-05
0.000288081
2.34766e-05
0.000288768
2.13597e-05
1.8999e-05
0.000289747
0.000496041
1.67334e-05
0.00049245
1.78094e-05
0.000488309
1.9221e-05
0.000483562
2.09287e-05
0.000478171
2.28771e-05
0.000472097
2.49833e-05
0.0004654
2.72142e-05
0.000458111
2.93331e-05
0.000450172
3.14619e-05
0.000441669
3.33014e-05
0.000432697
3.48335e-05
0.000423325
3.59875e-05
0.000413701
3.66928e-05
0.000403963
3.69401e-05
0.000394243
3.67191e-05
0.000384692
3.60747e-05
0.000375405
3.50236e-05
0.000366503
3.36543e-05
0.000358076
3.20123e-05
0.000350208
3.01981e-05
0.000342941
2.82795e-05
0.000336313
2.63339e-05
0.000330351
2.44386e-05
0.000325022
2.26515e-05
0.000320348
2.10356e-05
0.000316267
1.96372e-05
0.00031275
1.85043e-05
0.000309746
1.76519e-05
0.000307189
1.7116e-05
0.000305027
1.68871e-05
0.000303181
1.697e-05
0.000301596
1.73418e-05
0.000300214
1.79731e-05
0.000298965
1.88284e-05
0.000297814
1.98374e-05
0.000296723
2.10133e-05
0.000295644
2.22323e-05
0.000294545
2.34486e-05
0.000293441
2.45891e-05
0.000292322
2.55984e-05
0.000291204
2.64106e-05
0.000290117
2.69748e-05
0.000289078
2.72446e-05
0.00028813
2.71808e-05
0.000287312
2.67602e-05
0.000286666
2.59652e-05
0.000286218
2.47962e-05
0.000286039
2.32571e-05
0.000286141
2.13754e-05
0.000286555
1.91734e-05
1.66991e-05
0.000287333
0.000496654
2.2672e-05
0.000493338
2.34355e-05
0.000489469
2.45715e-05
0.000484966
2.60466e-05
0.000479732
2.77953e-05
0.000473818
2.97393e-05
0.000467131
3.1839e-05
0.00045983
3.39041e-05
0.000451786
3.58849e-05
0.000443105
3.76709e-05
0.00043387
3.90919e-05
0.000424199
4.01219e-05
0.00041428
4.0687e-05
0.000404209
4.07744e-05
0.000394164
4.03224e-05
0.000384306
3.94799e-05
0.000374782
3.80869e-05
0.000365666
3.64314e-05
0.000357105
3.44107e-05
0.000349153
3.22237e-05
0.000341869
2.9896e-05
0.000335276
2.75226e-05
0.000329395
2.51904e-05
0.000324208
2.29596e-05
0.000319703
2.08937e-05
0.000315846
1.90645e-05
0.000312566
1.75169e-05
0.000309808
1.62813e-05
0.000307522
1.53905e-05
0.000305604
1.48542e-05
0.000304009
1.46752e-05
0.000302642
1.48357e-05
0.000301431
1.53147e-05
0.000300334
1.60704e-05
0.000299264
1.70384e-05
0.000298204
1.81878e-05
0.000297092
1.94702e-05
0.000295919
2.07718e-05
0.000294666
2.20281e-05
0.000293348
2.3169e-05
0.000291982
2.41267e-05
0.000290591
2.48345e-05
0.000289217
2.52349e-05
0.000287913
2.52843e-05
0.000286721
2.49489e-05
0.000285694
2.42043e-05
0.000284882
2.3048e-05
0.000284332
2.14809e-05
0.000284121
1.95234e-05
0.000284251
1.72088e-05
1.45807e-05
0.000284776
0.00049701
2.81846e-05
0.000494046
2.86139e-05
0.000490483
2.94671e-05
0.000486234
3.0709e-05
0.000481214
3.22741e-05
0.000475436
3.40881e-05
0.000468851
3.60723e-05
0.000461511
3.80953e-05
0.000453368
4.00035e-05
0.00044451
4.1722e-05
0.000435
4.31053e-05
0.000424976
4.40416e-05
0.000414751
4.44874e-05
0.000404236
4.44156e-05
0.000393984
4.37969e-05
0.000383725
4.26477e-05
0.00037391
4.1066e-05
0.0003646
3.90391e-05
0.000355823
3.67008e-05
0.000347772
3.40917e-05
0.000340455
3.13351e-05
0.000333887
2.85125e-05
0.000328094
2.57082e-05
0.000323041
2.30016e-05
0.000318728
2.04755e-05
0.000315098
1.81857e-05
0.000312085
1.62079e-05
0.000309634
1.45742e-05
0.000307629
1.33252e-05
0.000306019
1.24866e-05
0.000304707
1.20524e-05
0.000303604
1.20239e-05
0.000302636
1.2375e-05
0.000301717
1.30706e-05
0.000300777
1.40521e-05
0.000299787
1.52353e-05
0.000298692
1.66192e-05
0.000297454
1.80747e-05
0.000296068
1.95097e-05
0.000294555
2.08506e-05
0.000292938
2.20113e-05
0.000291232
2.29161e-05
0.000289501
2.34943e-05
0.000287812
2.36927e-05
0.0002862
2.34658e-05
0.000284752
2.2785e-05
0.000283539
2.1638e-05
0.000282592
2.00287e-05
0.000282005
1.79719e-05
0.000281828
1.55056e-05
1.26659e-05
0.000282076
0.000497109
3.31836e-05
0.000494545
3.32593e-05
0.000491336
3.38249e-05
0.000487408
3.48372e-05
0.000482632
3.62361e-05
0.000477018
3.79828e-05
0.000470568
3.98524e-05
0.000463205
4.18713e-05
0.000454951
4.37814e-05
0.000445872
4.54811e-05
0.000436093
4.68504e-05
0.000425761
4.77535e-05
0.000415081
4.81187e-05
0.000404285
4.79227e-05
0.000393491
4.71309e-05
0.000382934
4.57738e-05
0.000372815
4.38947e-05
0.000363187
4.15473e-05
0.000354248
3.88257e-05
0.000346061
3.58073e-05
0.000338682
3.2593e-05
0.000332134
2.92857e-05
0.000326419
2.59943e-05
0.000321512
2.27859e-05
0.000317393
1.97519e-05
0.000314019
1.69891e-05
0.000311309
1.45524e-05
0.00030917
1.25078e-05
0.00030753
1.08966e-05
0.000306276
9.75152e-06
0.000305306
9.08304e-06
0.000304529
8.88972e-06
0.000303849
9.14518e-06
0.000303179
9.82705e-06
0.000302433
1.08616e-05
0.000301538
1.21769e-05
0.000300496
1.37062e-05
0.00029922
1.53883e-05
0.000297718
1.70836e-05
0.00029601
1.86935e-05
0.000294118
2.01277e-05
0.000292082
2.12892e-05
0.000289967
2.20976e-05
0.000287837
2.24832e-05
0.000285775
2.23907e-05
0.000283855
2.17833e-05
0.000282164
2.06422e-05
0.000280782
1.89677e-05
0.000279773
1.67778e-05
0.00027921
1.41058e-05
1.10026e-05
0.000279147
0.000496974
3.75562e-05
0.000494873
3.72674e-05
0.000492076
3.75389e-05
0.000488507
3.83462e-05
0.000484083
3.96217e-05
0.000478632
4.12727e-05
0.000472335
4.31609e-05
0.000464987
4.5221e-05
0.000456602
4.71918e-05
0.000447306
4.89396e-05
0.00043722
5.03405e-05
0.000426504
5.12764e-05
0.000415432
5.15999e-05
0.000404139
5.13218e-05
0.000392942
5.03812e-05
0.00038196
4.88273e-05
0.000371434
4.66606e-05
0.000361536
4.39856e-05
0.000352348
4.08617e-05
0.000343979
3.73991e-05
0.000336487
3.3696e-05
0.000329954
2.98851e-05
0.00032433
2.60402e-05
0.000319555
2.22898e-05
0.000315674
1.873e-05
0.000312585
1.54478e-05
0.000310205
1.25362e-05
0.000308452
1.00583e-05
0.000307213
8.07844e-06
0.000306364
6.63021e-06
0.000305827
5.74219e-06
0.000305439
5.40664e-06
0.00030512
5.62171e-06
0.000304765
6.32288e-06
0.000304261
7.48215e-06
0.000303541
9.00108e-06
0.000302569
1.07686e-05
0.000301296
1.27499e-05
0.000299692
1.47905e-05
0.000297785
1.67589e-05
0.000295607
1.85462e-05
0.000293203
2.00376e-05
0.000290651
2.11348e-05
0.000288039
2.17513e-05
0.000285454
2.18202e-05
0.000283001
2.12941e-05
0.000280773
2.0151e-05
0.000278871
1.83851e-05
0.000277381
1.60169e-05
0.000276381
1.30834e-05
9.64288e-06
0.00027595
0.000496607
4.11802e-05
0.000495017
4.04996e-05
0.000492729
4.04896e-05
0.000489606
4.11204e-05
0.000485504
4.23006e-05
0.000480362
4.39906e-05
0.00047423
4.59089e-05
0.000466895
4.80675e-05
0.000458414
5.02298e-05
0.000448821
5.21142e-05
0.000438414
5.36217e-05
0.000427296
5.46261e-05
0.000415711
5.49976e-05
0.00040394
5.46706e-05
0.000392227
5.36264e-05
0.000380782
5.18665e-05
0.000369808
4.94351e-05
0.00035954
4.64049e-05
0.000350042
4.28623e-05
0.000341477
3.89193e-05
0.000333908
3.46945e-05
0.000327306
3.02943e-05
0.000321767
2.58855e-05
0.000317161
2.15292e-05
0.000313511
1.73881e-05
0.000310739
1.35632e-05
0.000308748
1.01339e-05
0.000307435
7.20743e-06
0.000306664
4.8397e-06
0.00030633
3.09659e-06
0.000306266
1.99538e-06
0.000306374
1.5563e-06
0.000306504
1.7546e-06
0.000306515
2.55841e-06
0.000306341
3.90753e-06
0.000305874
5.7053e-06
0.000304993
7.84413e-06
0.00030375
1.01903e-05
0.000302062
1.26867e-05
0.000299951
1.51128e-05
0.000297465
1.73501e-05
0.00029466
1.92538e-05
0.000291612
2.07102e-05
0.000288445
2.1608e-05
0.000285263
2.18683e-05
0.000282184
2.14334e-05
0.000279336
2.02754e-05
0.000276823
1.83869e-05
0.000274766
1.57864e-05
0.000273258
1.25204e-05
8.64931e-06
0.00027238
0.000495968
4.39069e-05
0.000494998
4.28053e-05
0.000493343
4.25394e-05
0.000490727
4.30328e-05
0.000487099
4.41917e-05
0.000482262
4.59602e-05
0.000476304
4.80732e-05
0.000469008
5.04482e-05
0.000460417
5.28634e-05
0.000450589
5.50041e-05
0.000439741
5.67458e-05
0.000428145
5.79029e-05
0.000416023
5.83794e-05
0.000403687
5.80676e-05
0.000391385
5.69513e-05
0.000379369
5.50099e-05
0.000367921
5.23096e-05
0.000357164
4.89041e-05
0.000347339
4.49049e-05
0.000338515
4.04358e-05
0.000330765
3.56128e-05
0.000324174
3.0603e-05
0.000318678
2.55159e-05
0.000314238
2.05291e-05
0.000310871
1.57514e-05
0.000308458
1.13107e-05
0.00030691
7.33223e-06
0.000306092
3.91704e-06
0.000305887
1.15585e-06
0.000306133
-8.99858e-07
0.000306669
-2.18841e-06
0.000307365
-2.70957e-06
0.00030801
-2.46546e-06
0.000308518
-1.49017e-06
0.000308754
1.19266e-07
0.000308553
2.29747e-06
0.000307885
4.90683e-06
0.00030667
7.7815e-06
0.000304904
1.08166e-05
0.000302575
1.38275e-05
0.000299736
1.6634e-05
0.000296472
1.90439e-05
0.000292872
2.09442e-05
0.000289066
2.21814e-05
0.000285195
2.2668e-05
0.000281398
2.23385e-05
0.000277818
2.11515e-05
0.000274591
1.90988e-05
0.000271862
1.62039e-05
0.000269752
1.2521e-05
8.12559e-06
0.000268368
0.000495081
4.55451e-05
0.000494868
4.40323e-05
0.000493913
4.35129e-05
0.000491944
4.39441e-05
0.000488861
4.51813e-05
0.000484473
4.71329e-05
0.0004787
4.95717e-05
0.000471496
5.22941e-05
0.000462728
5.50837e-05
0.000452627
5.76856e-05
0.000441337
5.97199e-05
0.000429181
6.12355e-05
0.000416447
6.1844e-05
0.000403404
6.16522e-05
0.000390419
6.04955e-05
0.000377756
5.84033e-05
0.000365673
5.54125e-05
0.000354407
5.16077e-05
0.00034415
4.71064e-05
0.000335002
4.20323e-05
0.000327079
3.65545e-05
0.000320394
3.08267e-05
0.000314987
2.50181e-05
0.000310738
1.92899e-05
0.00030767
1.37929e-05
0.000305667
8.68782e-06
0.000304621
4.10161e-06
0.000304419
1.60704e-07
0.00030485
-3.02849e-06
0.000305779
-5.39148e-06
0.000307032
-6.85972e-06
0.000308404
-7.43161e-06
0.000309725
-7.09567e-06
0.000310803
-5.85629e-06
0.000311536
-3.91069e-06
0.000311738
-1.22979e-06
0.000311317
1.96898e-06
0.000310172
5.52955e-06
0.000308327
9.23621e-06
0.000305786
1.29849e-05
0.00030254
1.64786e-05
0.000298729
1.95442e-05
0.000294493
2.19728e-05
0.000289931
2.36249e-05
0.000285236
2.43836e-05
0.000280584
2.4172e-05
0.000276146
2.29359e-05
0.00027209
2.0673e-05
0.000268581
1.74092e-05
0.000265761
1.32106e-05
8.16909e-06
0.000263761
0.000493927
4.58746e-05
0.000494656
4.39525e-05
0.000494577
4.32398e-05
0.000493367
4.3665e-05
0.00049096
4.51137e-05
0.000487054
4.74062e-05
0.000481593
5.03287e-05
0.000474386
5.36045e-05
0.000465569
5.69681e-05
0.000455004
6.01079e-05
0.000443303
6.27588e-05
0.000430449
6.46245e-05
0.00041694
6.56448e-05
0.000403162
6.55938e-05
0.000389334
6.4453e-05
0.000375868
6.22245e-05
0.000363063
5.89242e-05
0.000351191
5.46756e-05
0.000340389
4.95923e-05
0.000330864
4.38389e-05
0.000322709
3.75953e-05
0.000315925
3.10524e-05
0.000310595
2.44036e-05
0.000306537
1.78333e-05
0.000303814
1.154e-05
0.000302298
5.67106e-06
0.000301841
4.07112e-07
0.000302314
-4.1048e-06
0.000303517
-7.7621e-06
0.00030526
-1.04471e-05
0.000307352
-1.21028e-05
0.000309554
-1.26839e-05
0.000311651
-1.2196e-05
0.000313498
-1.06798e-05
0.000314832
-8.22402e-06
0.00031548
-4.89837e-06
0.000315367
-9.80166e-07
0.000314385
3.4255e-06
0.000312447
8.03105e-06
0.000309629
1.26499e-05
0.000305951
1.7015e-05
0.000301531
2.0864e-05
0.000296517
2.39526e-05
0.000291072
2.6112e-05
0.000285416
2.71995e-05
0.000279747
2.71223e-05
0.000274283
2.58205e-05
0.000269246
2.329e-05
0.000264799
1.95691e-05
0.000261133
1.47373e-05
8.91135e-06
0.000258414
0.000492512
4.46375e-05
0.000494383
4.23181e-05
0.000495378
4.14725e-05
0.00049512
4.20218e-05
0.000493478
4.38204e-05
0.000490173
4.66461e-05
0.000485074
5.02812e-05
0.000478026
5.43549e-05
0.000468889
5.85312e-05
0.000458053
6.24928e-05
0.000445638
6.58795e-05
0.000432072
6.84102e-05
0.000417712
6.98826e-05
0.000402883
7.0113e-05
0.000388117
6.90583e-05
0.000373727
6.66943e-05
0.000360031
6.30708e-05
0.000347373
5.82995e-05
0.000335982
5.25384e-05
0.000325994
4.59867e-05
0.000317535
3.88442e-05
0.000310648
3.13532e-05
0.000305361
2.37214e-05
0.000301548
1.61884e-05
0.000299219
8.96259e-06
0.000298224
2.23981e-06
0.000298484
-3.78915e-06
0.000299752
-8.95718e-06
0.000301837
-1.31185e-05
0.000304562
-1.61666e-05
0.000307622
-1.80059e-05
0.000310815
-1.85838e-05
0.000313907
-1.79032e-05
0.000316595
-1.59881e-05
0.000318678
-1.29205e-05
0.000319961
-8.8389e-06
0.000320215
-3.94744e-06
0.000319402
1.48143e-06
0.000317423
7.20761e-06
0.00031431
1.29015e-05
0.000310098
1.83625e-05
0.000304949
2.31592e-05
0.000299011
2.70665e-05
0.000292522
2.9845e-05
0.000285704
3.13328e-05
0.000278848
3.14115e-05
0.000272172
3.00247e-05
0.000265936
2.71617e-05
0.000260391
2.28823e-05
0.000255727
1.72785e-05
1.0503e-05
0.000252155
0.000490867
4.15586e-05
0.000494094
3.88586e-05
0.000496404
3.79635e-05
0.000497341
3.87804e-05
0.000496625
4.11186e-05
0.000494043
4.47399e-05
0.000489396
4.93508e-05
0.000482437
5.45192e-05
0.000473165
5.98496e-05
0.000461762
6.49262e-05
0.000448672
6.93678e-05
0.000434156
7.2725e-05
0.000418689
7.48899e-05
0.000402758
7.55085e-05
0.000386761
7.46101e-05
0.000371217
7.21099e-05
0.000356491
6.81092e-05
0.000342893
6.2722e-05
0.000330742
5.61464e-05
0.000320209
4.86288e-05
0.000311395
4.04195e-05
0.000304361
3.17914e-05
0.000299162
2.30213e-05
0.0002956
1.43627e-05
0.000293736
6.05679e-06
0.00029339
-1.65507e-06
0.000294434
-8.56092e-06
0.000296646
-1.44731e-05
0.000299789
-1.92183e-05
0.000303606
-2.2676e-05
0.000307859
-2.47259e-05
0.000312248
-2.52899e-05
0.00031646
-2.43559e-05
0.000320238
-2.19554e-05
0.000323255
-1.81447e-05
0.000325258
-1.30984e-05
0.000326034
-7.04903e-06
0.000325435
-3.16531e-07
0.000323404
6.77547e-06
0.000319985
1.38459e-05
0.000315159
2.05948e-05
0.000309117
2.66201e-05
0.000302096
3.15203e-05
0.000294334
3.50586e-05
0.000286128
3.70339e-05
0.000277801
3.73063e-05
0.000269681
3.58074e-05
0.000262059
3.25434e-05
0.000255208
2.75784e-05
0.000249382
2.10419e-05
1.31127e-05
0.000244799
0.000489113
3.6223e-05
0.000494016
3.31971e-05
0.000497892
3.23965e-05
0.000500192
3.36747e-05
0.000500679
3.68218e-05
0.000498887
4.14995e-05
0.000494802
4.75008e-05
0.000487994
5.4101e-05
0.0004784
6.10099e-05
0.000466556
6.75825e-05
0.000452426
7.3372e-05
0.000436811
7.79627e-05
0.000420051
8.09475e-05
0.000402653
8.21505e-05
0.000385277
8.14538e-05
0.000368298
7.88272e-05
0.000352283
7.43609e-05
0.000337574
6.82249e-05
0.000324505
6.06493e-05
0.000313311
5.19526e-05
0.000304094
4.24442e-05
0.000296902
3.24616e-05
0.000291808
2.23294e-05
0.000288558
1.23427e-05
0.000287224
2.77518e-06
0.000287642
-6.07337e-06
0.000289593
-1.40075e-05
0.000292899
-2.07723e-05
0.00029725
-2.62051e-05
0.000302385
-3.0138e-05
0.000308036
-3.2441e-05
0.000313836
-3.30076e-05
0.000319457
-3.17897e-05
0.000324521
-2.87892e-05
0.000328673
-2.40802e-05
0.000331594
-1.78394e-05
0.000333004
-1.03586e-05
0.000332688
-2.00571e-06
0.000330601
6.74514e-06
0.000326728
1.55241e-05
0.00032117
2.39121e-05
0.000314109
3.13971e-05
0.000305748
3.75534e-05
0.000296463
4.2035e-05
0.000286637
4.46059e-05
0.000276613
4.51129e-05
0.000266763
4.34797e-05
0.000257462
3.97263e-05
0.000249055
3.39312e-05
0.000241846
2.62636e-05
1.69458e-05
0.000236084
0.000486907
2.82591e-05
0.000493914
2.49924e-05
0.000499756
2.44156e-05
0.000503774
2.64183e-05
0.000505623
3.07165e-05
0.000504966
3.68646e-05
0.00050143
4.45197e-05
0.000494827
5.32446e-05
0.000485025
6.20375e-05
0.000472288
7.0694e-05
0.000457251
7.82596e-05
0.000440152
8.43952e-05
0.000421702
8.85204e-05
0.000402615
9.04631e-05
0.000383433
9.00244e-05
0.000364805
8.72438e-05
0.000347258
8.21913e-05
0.000331237
7.51073e-05
0.000317103
6.62857e-05
0.00030511
5.61335e-05
0.00029541
4.50379e-05
0.000288045
3.34253e-05
0.000283053
2.16492e-05
0.000280187
1.00956e-05
0.0002795
-9.2522e-07
0.000280794
-1.11329e-05
0.000283832
-2.02469e-05
0.000288361
-2.80234e-05
0.000294146
-3.42545e-05
0.000300825
-3.87655e-05
0.000308065
-4.13784e-05
0.000315553
-4.19766e-05
0.000322822
-4.04416e-05
0.000329462
-3.67692e-05
0.000335015
-3.09854e-05
0.000339076
-2.32823e-05
0.000341263
-1.40297e-05
0.000341296
-3.66023e-06
0.000339172
7.13502e-06
0.000334821
1.80263e-05
0.000328355
2.84568e-05
0.000320055
3.77449e-05
0.000310178
4.54482e-05
0.000299056
5.11034e-05
0.0002872
5.43975e-05
0.000275092
5.51897e-05
0.00026318
5.33955e-05
0.0002519
4.90488e-05
0.000241672
4.22436e-05
0.000232861
3.32054e-05
2.22122e-05
0.000225744
0.000484563
1.71448e-05
0.000494018
1.37801e-05
0.000502149
1.36695e-05
0.000508232
1.67102e-05
0.000511707
2.25503e-05
0.000512058
3.06804e-05
0.000509433
4.06101e-05
0.000502845
5.17126e-05
0.000492696
6.33046e-05
0.000479094
7.44301e-05
0.000462593
8.44327e-05
0.000443921
9.2433e-05
0.000423607
9.79857e-05
0.000402434
0.000100838
0.000381098
0.000100793
0.000360389
9.77996e-05
0.000340958
9.20138e-05
0.000323344
8.37092e-05
0.000307978
7.33175e-05
0.000295125
6.13414e-05
0.00028494
4.83008e-05
0.000277426
3.46979e-05
0.000272623
2.09794e-05
0.000270271
7.55894e-06
0.000270358
-5.16881e-06
0.00027267
-1.69578e-05
0.00027694
-2.74466e-05
0.000282955
-3.64041e-05
0.000290345
-4.35972e-05
0.000298787
-4.87865e-05
0.000307944
-5.18081e-05
0.000317343
-5.24495e-05
0.000326491
-5.05449e-05
0.000334908
-4.60936e-05
0.000341999
-3.89891e-05
0.000347329
-2.96068e-05
0.000350412
-1.81986e-05
0.000350893
-5.37585e-06
0.000348672
7.95613e-06
0.000343789
2.14488e-05
0.000336269
3.43257e-05
0.000326371
4.59499e-05
0.000314576
5.55191e-05
0.000301328
6.256e-05
0.00028717
6.67374e-05
0.000272674
6.78655e-05
0.000258353
6.58931e-05
0.000244755
6.08429e-05
0.000232399
5.28265e-05
0.000221741
4.21227e-05
2.9107e-05
0.000213123
0.000481528
2.39208e-06
0.00049396
-7.84563e-07
0.000504733
-1.68073e-07
0.000512951
4.3989e-06
0.00051823
1.23614e-05
0.000519646
2.29547e-05
0.000517487
3.5697e-05
0.000511176
5.00734e-05
0.000500362
6.48639e-05
0.000485644
7.9362e-05
0.000467457
9.22289e-05
0.000446612
0.000102506
0.000424238
0.000109723
0.000400873
0.000113682
0.000377285
0.000114116
0.00035436
0.000110874
0.000332896
0.000104145
0.000313552
9.42935e-05
0.000296834
8.19182e-05
0.000283066
6.76778e-05
0.000272392
5.22529e-05
0.000264783
3.62532e-05
0.000260249
2.02265e-05
0.000258503
4.63042e-06
0.000259545
-1.01265e-05
0.000263031
-2.37142e-05
0.000268762
-3.58057e-05
0.000276401
-4.61406e-05
0.000285631
-5.44425e-05
0.000296082
-6.04301e-05
0.000307189
-6.38581e-05
0.000318574
-6.44505e-05
0.000329529
-6.20737e-05
0.000339564
-5.66271e-05
0.000347939
-4.78757e-05
0.000354356
-3.66048e-05
0.000358199
-2.27704e-05
0.000359159
-7.20563e-06
0.000356843
9.21598e-06
0.000351183
2.58317e-05
0.000342414
4.17804e-05
0.000330907
5.60345e-05
0.000316847
6.80446e-05
0.000301136
7.66278e-05
0.000284456
8.17937e-05
0.000267496
8.32646e-05
0.000250776
8.11074e-05
0.000234838
7.52527e-05
0.000220304
6.58147e-05
0.000207738
5.31237e-05
3.76795e-05
0.000197562
0.000476345
-1.57467e-05
0.000491334
-1.85222e-05
0.000504552
-1.67346e-05
0.00051503
-1.02609e-05
0.000521798
3.55769e-07
0.000524599
1.41989e-05
0.000523569
2.99164e-05
0.000516694
4.83623e-05
0.000505268
6.69889e-05
0.00048932
8.55039e-05
0.000469006
0.000102246
0.000446302
0.000114695
0.000421616
0.000123863
0.000395963
0.000129054
0.000370163
0.000129956
0.000345039
0.00012644
0.000321488
0.000118586
0.000300426
0.000106867
0.00028245
9.20616e-05
0.000267907
7.50628e-05
0.000256934
5.67677e-05
0.000249461
3.79234e-05
0.000245431
1.91905e-05
0.000244562
1.10159e-06
0.000246746
-1.59794e-05
0.000251643
-3.16397e-05
0.000259012
-4.55482e-05
0.000268532
-5.74398e-05
0.00027964
-6.69395e-05
0.000292061
-7.35827e-05
0.000304702
-7.72513e-05
0.000317511
-7.7405e-05
0.000329424
-7.43338e-05
0.00034018
-6.74384e-05
0.000348933
-5.68768e-05
0.000355612
-4.37348e-05
0.000359839
-2.74273e-05
0.00036108
-8.99934e-06
0.000358523
1.09741e-05
0.000352104
3.13805e-05
0.000342021
5.09019e-05
0.000328897
6.79162e-05
0.000312627
8.30503e-05
0.000294909
9.2996e-05
0.000275967
9.92914e-05
0.000256584
0.000101212
0.000237507
9.88155e-05
0.000219396
9.20123e-05
0.000202944
8.09264e-05
0.000188769
6.59254e-05
4.76637e-05
0.000177392
0.000464716