/*--------------------------------*- C++ -*----------------------------------*\
  =========                 |
  \\      /  F ield         | OpenFOAM: The Open Source CFD Toolbox
   \\    /   O peration     | Website:  https://openfoam.org
    \\  /    A nd           | Version:  10
     \\/     M anipulation  |
\*---------------------------------------------------------------------------*/
FoamFile
{
    format      ascii;
    class       volVectorField;
    location    "0.399873";
    object      U;
}
// * * * * * * * * * * * * * * * * * * * * * * * * * * * * * * * * * * * * * //

dimensions      [0 1 -1 0 0 0 0];

internalField   nonuniform List<vector> 
15708
(
(0.627839 -0.0562967 0)
(0.621969 -0.0524004 0)
(0.615436 -0.0481867 0)
(0.608469 -0.0437121 0)
(0.601067 -0.039054 0)
(0.593266 -0.0343039 0)
(0.585106 -0.0295529 0)
(0.576621 -0.0248851 0)
(0.567839 -0.0203753 0)
(0.558776 -0.0160864 0)
(0.549447 -0.0120696 0)
(0.539864 -0.00836544 0)
(0.53004 -0.00499884 0)
(0.520005 -0.00196452 0)
(0.509799 0.000754245 0)
(0.499462 0.00316467 0)
(0.489051 0.00529113 0)
(0.478655 0.00718442 0)
(0.468351 0.0089189 0)
(0.458228 0.0105459 0)
(0.448384 0.0121384 0)
(0.438892 0.0137427 0)
(0.42982 0.0154119 0)
(0.421245 0.0172045 0)
(0.413245 0.019158 0)
(0.405868 0.0213093 0)
(0.399154 0.0236632 0)
(0.393117 0.0262222 0)
(0.387765 0.0289726 0)
(0.383097 0.0318921 0)
(0.379094 0.0349546 0)
(0.375752 0.0381171 0)
(0.37303 0.0413329 0)
(0.370897 0.0445494 0)
(0.369325 0.0477127 0)
(0.36827 0.0507595 0)
(0.367697 0.0536334 0)
(0.367564 0.0562776 0)
(0.367833 0.0586366 0)
(0.368467 0.0606603 0)
(0.369431 0.0623032 0)
(0.37069 0.0635241 0)
(0.372212 0.0642942 0)
(0.373966 0.0645903 0)
(0.375925 0.0643981 0)
(0.378061 0.0637141 0)
(0.380347 0.0625441 0)
(0.382754 0.0609026 0)
(0.385257 0.058815 0)
(0.387826 0.0563159 0)
(0.390436 0.0534499 0)
(0.631417 -0.0464576 0)
(0.625902 -0.0428081 0)
(0.619658 -0.0388293 0)
(0.612907 -0.0345836 0)
(0.605637 -0.0301525 0)
(0.597879 -0.025629 0)
(0.589678 -0.0211072 0)
(0.581073 -0.0166759 0)
(0.572101 -0.012415 0)
(0.562788 -0.00839569 0)
(0.553159 -0.00467627 0)
(0.543251 -0.0012854 0)
(0.533097 0.00176533 0)
(0.522725 0.00444019 0)
(0.51219 0.00674368 0)
(0.501563 0.00870627 0)
(0.490909 0.0103784 0)
(0.480322 0.0118164 0)
(0.469895 0.013081 0)
(0.459708 0.0142374 0)
(0.449859 0.0153606 0)
(0.440416 0.0164901 0)
(0.431443 0.0177011 0)
(0.42302 0.0190508 0)
(0.415207 0.0205866 0)
(0.408034 0.0223307 0)
(0.401526 0.0242949 0)
(0.395689 0.0264796 0)
(0.390517 0.0288757 0)
(0.386006 0.0314541 0)
(0.38213 0.0341905 0)
(0.378865 0.0370416 0)
(0.376175 0.0399557 0)
(0.374023 0.0428913 0)
(0.372372 0.0457732 0)
(0.371181 0.048558 0)
(0.370416 0.0511695 0)
(0.370036 0.0535616 0)
(0.370004 0.055672 0)
(0.370289 0.0574533 0)
(0.370862 0.0588595 0)
(0.371694 0.0598549 0)
(0.372763 0.0604103 0)
(0.374048 0.0605072 0)
(0.37553 0.0601355 0)
(0.377191 0.0592955 0)
(0.379014 0.0579964 0)
(0.380982 0.0562582 0)
(0.383077 0.0541103 0)
(0.38528 0.0515908 0)
(0.387575 0.048747 0)
(0.634755 -0.0367295 0)
(0.629598 -0.033319 0)
(0.623644 -0.0295789 0)
(0.61711 -0.0255687 0)
(0.609975 -0.0213691 0)
(0.602263 -0.0170737 0)
(0.594017 -0.0127808 0)
(0.585284 -0.00858674 0)
(0.576102 -0.00457918 0)
(0.566522 -0.000814397 0)
(0.55658 0.0026578 0)
(0.546319 0.00575229 0)
(0.535786 0.00844978 0)
(0.525038 0.0107437 0)
(0.514151 0.0126517 0)
(0.503203 0.0142059 0)
(0.492288 0.0154341 0)
(0.481503 0.0164198 0)
(0.470935 0.0172211 0)
(0.460684 0.0179083 0)
(0.450822 0.0185491 0)
(0.441426 0.0192063 0)
(0.432576 0.0199614 0)
(0.424325 0.0208753 0)
(0.416712 0.0219766 0)
(0.409753 0.0233018 0)
(0.403468 0.0248621 0)
(0.397849 0.026659 0)
(0.392878 0.0286842 0)
(0.388538 0.030916 0)
(0.384798 0.0333184 0)
(0.381629 0.035853 0)
(0.378991 0.0384723 0)
(0.37683 0.0411215 0)
(0.375116 0.0437384 0)
(0.373803 0.0462613 0)
(0.372852 0.0486337 0)
(0.372235 0.0507922 0)
(0.371911 0.052682 0)
(0.371857 0.0542523 0)
(0.37205 0.0554585 0)
(0.37247 0.0562649 0)
(0.373102 0.0566449 0)
(0.373935 0.0565812 0)
(0.37496 0.0560665 0)
(0.376169 0.0551029 0)
(0.377556 0.0537033 0)
(0.379112 0.05189 0)
(0.380831 0.049695 0)
(0.382703 0.0471592 0)
(0.384718 0.0443312 0)
(0.637842 -0.0271249 0)
(0.633042 -0.0239656 0)
(0.627382 -0.0204728 0)
(0.621072 -0.0167041 0)
(0.614076 -0.01274 0)
(0.606411 -0.00867846 0)
(0.598115 -0.00462453 0)
(0.589245 -0.000660603 0)
(0.579855 0.00314255 0)
(0.569994 0.00665709 0)
(0.559699 0.00983557 0)
(0.549042 0.0126233 0)
(0.538106 0.0150039 0)
(0.526957 0.0169505 0)
(0.515696 0.0184731 0)
(0.504403 0.0196168 0)
(0.493195 0.0204196 0)
(0.482194 0.0209649 0)
(0.471479 0.0212945 0)
(0.461141 0.0215133 0)
(0.451268 0.0216706 0)
(0.441943 0.0218698 0)
(0.433226 0.0221705 0)
(0.425146 0.0226288 0)
(0.417736 0.0232879 0)
(0.41101 0.0241745 0)
(0.404961 0.0253155 0)
(0.399575 0.0267088 0)
(0.394825 0.0283498 0)
(0.390679 0.0302164 0)
(0.387097 0.0322775 0)
(0.384044 0.0344948 0)
(0.381468 0.0368163 0)
(0.379318 0.0391887 0)
(0.377551 0.0415536 0)
(0.376129 0.0438328 0)
(0.375016 0.0459851 0)
(0.374173 0.0479369 0)
(0.373572 0.0496384 0)
(0.373194 0.0510339 0)
(0.37302 0.0520798 0)
(0.373041 0.0527388 0)
(0.373251 0.0529845 0)
(0.373648 0.0527991 0)
(0.374233 0.0521777 0)
(0.375009 0.0511229 0)
(0.37598 0.0496488 0)
(0.377147 0.0477798 0)
(0.378514 0.0455488 0)
(0.380079 0.0429979 0)
(0.381839 0.0401764 0)
(0.640668 -0.0176778 0)
(0.636229 -0.0147814 0)
(0.630869 -0.0115465 0)
(0.624789 -0.00803043 0)
(0.617935 -0.00431594 0)
(0.610322 -0.000484304 0)
(0.601986 0.00335732 0)
(0.592989 0.00711107 0)
(0.583362 0.0106625 0)
(0.573178 0.0139193 0)
(0.562521 0.0168351 0)
(0.551467 0.0193622 0)
(0.540099 0.0214223 0)
(0.528501 0.0230304 0)
(0.51682 0.0241809 0)
(0.505161 0.0249112 0)
(0.493656 0.0252965 0)
(0.482404 0.0253928 0)
(0.471516 0.025265 0)
(0.461096 0.0250067 0)
(0.451218 0.0247033 0)
(0.441964 0.0244401 0)
(0.43337 0.0242763 0)
(0.425469 0.024265 0)
(0.418274 0.0244675 0)
(0.411785 0.0249055 0)
(0.405991 0.0256142 0)
(0.400857 0.0265924 0)
(0.396343 0.0278368 0)
(0.39241 0.0293261 0)
(0.38901 0.0310361 0)
(0.386094 0.0329256 0)
(0.383609 0.0349449 0)
(0.381494 0.0370516 0)
(0.379694 0.0391739 0)
(0.378182 0.0412421 0)
(0.37692 0.0431981 0)
(0.375872 0.0449789 0)
(0.375012 0.0465268 0)
(0.374324 0.0477877 0)
(0.373799 0.0487146 0)
(0.373435 0.0492686 0)
(0.373235 0.0494219 0)
(0.373209 0.049156 0)
(0.373369 0.0484636 0)
(0.373725 0.0473485 0)
(0.374294 0.0458246 0)
(0.375088 0.0439164 0)
(0.376117 0.0416566 0)
(0.37739 0.0390879 0)
(0.378912 0.03626 0)
(0.643224 -0.00842115 0)
(0.639149 -0.00581094 0)
(0.634095 -0.00285093 0)
(0.628255 0.000412448 0)
(0.621562 0.00389992 0)
(0.614001 0.00749493 0)
(0.605631 0.0110906 0)
(0.596492 0.0146335 0)
(0.586617 0.0179273 0)
(0.576126 0.0209838 0)
(0.565103 0.02366 0)
(0.553593 0.0259108 0)
(0.54174 0.0276633 0)
(0.529685 0.028932 0)
(0.517549 0.0297299 0)
(0.505494 0.0300654 0)
(0.493652 0.0300512 0)
(0.482139 0.0296859 0)
(0.47107 0.0291255 0)
(0.460553 0.0284025 0)
(0.450673 0.0276346 0)
(0.441482 0.0268919 0)
(0.43301 0.0262413 0)
(0.425285 0.0257545 0)
(0.418312 0.0254771 0)
(0.412078 0.0254553 0)
(0.406553 0.0257157 0)
(0.401684 0.0262611 0)
(0.397427 0.0270966 0)
(0.393729 0.0282032 0)
(0.390533 0.0295582 0)
(0.387778 0.0311208 0)
(0.385413 0.0328441 0)
(0.383364 0.0346877 0)
(0.381563 0.0365895 0)
(0.379985 0.0384651 0)
(0.378598 0.0402593 0)
(0.377364 0.0419062 0)
(0.376263 0.0433422 0)
(0.375283 0.0445115 0)
(0.374422 0.0453641 0)
(0.373686 0.045858 0)
(0.373089 0.0459621 0)
(0.372651 0.0456564 0)
(0.372392 0.0449292 0)
(0.372337 0.0437832 0)
(0.372512 0.0422307 0)
(0.372938 0.0402949 0)
(0.373637 0.0380094 0)
(0.374625 0.0354159 0)
(0.375916 0.0325642 0)
(0.645485 0.000607349 0)
(0.641784 0.00293562 0)
(0.637053 0.00562317 0)
(0.631467 0.00861313 0)
(0.624935 0.0118279 0)
(0.617442 0.0151685 0)
(0.609062 0.0185479 0)
(0.599771 0.0218686 0)
(0.589664 0.0249523 0)
(0.578865 0.0278187 0)
(0.567404 0.0302607 0)
(0.555423 0.0322337 0)
(0.543067 0.033713 0)
(0.530508 0.03466 0)
(0.517887 0.0350887 0)
(0.505412 0.0350743 0)
(0.493204 0.0346007 0)
(0.481407 0.0338412 0)
(0.47016 0.0328101 0)
(0.45953 0.0316365 0)
(0.449629 0.0303934 0)
(0.440486 0.0291659 0)
(0.432137 0.028025 0)
(0.424596 0.0270452 0)
(0.417849 0.0262799 0)
(0.411879 0.0257809 0)
(0.406631 0.0255738 0)
(0.402049 0.0256719 0)
(0.398074 0.0260863 0)
(0.394639 0.0268031 0)
(0.391675 0.0277998 0)
(0.389111 0.0290432 0)
(0.386895 0.0304844 0)
(0.384952 0.0320717 0)
(0.383185 0.033778 0)
(0.381569 0.0354922 0)
(0.380089 0.0371605 0)
(0.378696 0.0387125 0)
(0.377375 0.0400828 0)
(0.376121 0.0412093 0)
(0.374938 0.0420367 0)
(0.373843 0.0425188 0)
(0.372857 0.0426194 0)
(0.37201 0.0423128 0)
(0.371336 0.0415858 0)
(0.370871 0.0404362 0)
(0.370649 0.0388743 0)
(0.370706 0.0369205 0)
(0.371073 0.0346073 0)
(0.371774 0.0319762 0)
(0.37283 0.0290767 0)
(0.647443 0.00937897 0)
(0.644122 0.0113678 0)
(0.639723 0.0137371 0)
(0.634406 0.0164398 0)
(0.628058 0.0193982 0)
(0.620663 0.0225056 0)
(0.612277 0.0256982 0)
(0.602847 0.0287953 0)
(0.592517 0.0317346 0)
(0.581379 0.0343632 0)
(0.569456 0.036593 0)
(0.556976 0.0383211 0)
(0.544092 0.039513 0)
(0.530981 0.0401534 0)
(0.517882 0.0402469 0)
(0.50492 0.0398641 0)
(0.492331 0.0390046 0)
(0.480253 0.03782 0)
(0.468767 0.0363364 0)
(0.458028 0.0346904 0)
(0.448086 0.0329574 0)
(0.438985 0.0312321 0)
(0.430748 0.0295861 0)
(0.423383 0.0280978 0)
(0.416871 0.0268317 0)
(0.411174 0.0258322 0)
(0.406221 0.0251401 0)
(0.401948 0.0247861 0)
(0.398282 0.0247649 0)
(0.395141 0.0250851 0)
(0.392447 0.0257262 0)
(0.390116 0.0266573 0)
(0.388077 0.0278365 0)
(0.386283 0.0291984 0)
(0.384603 0.0307174 0)
(0.382986 0.0323174 0)
(0.381443 0.0339039 0)
(0.379921 0.035408 0)
(0.378408 0.0367631 0)
(0.3769 0.0379005 0)
(0.37541 0.0387565 0)
(0.373962 0.0392784 0)
(0.372591 0.039422 0)
(0.371336 0.0391565 0)
(0.370242 0.0384624 0)
(0.369358 0.0373335 0)
(0.36873 0.0357763 0)
(0.368405 0.0338085 0)
(0.368426 0.0314589 0)
(0.368827 0.0287707 0)
(0.369638 0.0257918 0)
(0.649052 0.0178147 0)
(0.646134 0.0194551 0)
(0.642098 0.0215064 0)
(0.637083 0.0239231 0)
(0.630944 0.0266238 0)
(0.62368 0.0295025 0)
(0.615289 0.0325048 0)
(0.605748 0.035369 0)
(0.595177 0.0381688 0)
(0.583672 0.0405842 0)
(0.571307 0.0426181 0)
(0.558283 0.0441242 0)
(0.544831 0.0450628 0)
(0.531167 0.0454142 0)
(0.517513 0.0451983 0)
(0.504078 0.0444332 0)
(0.491059 0.0432261 0)
(0.478629 0.0415858 0)
(0.466911 0.0396636 0)
(0.456019 0.0375328 0)
(0.446029 0.0352997 0)
(0.436957 0.0330585 0)
(0.428829 0.0308908 0)
(0.421649 0.0288783 0)
(0.415371 0.0270889 0)
(0.40995 0.0255716 0)
(0.405321 0.0243834 0)
(0.401382 0.0235523 0)
(0.398051 0.0230956 0)
(0.395248 0.0230162 0)
(0.392867 0.0233059 0)
(0.390817 0.0239384 0)
(0.389011 0.0248724 0)
(0.387392 0.0260552 0)
(0.385853 0.0274116 0)
(0.384302 0.0289396 0)
(0.382728 0.0304921 0)
(0.38111 0.0320099 0)
(0.379433 0.0334065 0)
(0.377693 0.0346124 0)
(0.375909 0.0355542 0)
(0.374114 0.0361688 0)
(0.372354 0.0364056 0)
(0.370682 0.0362236 0)
(0.369154 0.0355951 0)
(0.367832 0.0345091 0)
(0.366777 0.0329661 0)
(0.366046 0.0309808 0)
(0.365696 0.0285825 0)
(0.365771 0.0258091 0)
(0.366316 0.0227149 0)
(0.650292 0.025804 0)
(0.647807 0.0270712 0)
(0.644172 0.0287914 0)
(0.63949 0.0309154 0)
(0.633598 0.0333636 0)
(0.626505 0.0360271 0)
(0.618108 0.0388527 0)
(0.608478 0.0415647 0)
(0.597699 0.0442014 0)
(0.585791 0.0465001 0)
(0.572951 0.0483308 0)
(0.559366 0.0496385 0)
(0.545317 0.0503504 0)
(0.531041 0.0504396 0)
(0.516815 0.0498986 0)
(0.502851 0.0488254 0)
(0.489376 0.0471562 0)
(0.476574 0.0451533 0)
(0.464582 0.0427407 0)
(0.453522 0.0401517 0)
(0.443453 0.0374059 0)
(0.434402 0.0346312 0)
(0.426376 0.0319251 0)
(0.419371 0.0293621 0)
(0.413331 0.027016 0)
(0.408211 0.0249649 0)
(0.403916 0.0232639 0)
(0.400343 0.0219406 0)
(0.397397 0.0210401 0)
(0.394971 0.0205632 0)
(0.392959 0.0205119 0)
(0.391245 0.0208603 0)
(0.389735 0.0215784 0)
(0.388345 0.0226135 0)
(0.386998 0.0238788 0)
(0.385573 0.02536 0)
(0.38402 0.0269487 0)
(0.382347 0.0285413 0)
(0.38053 0.0300479 0)
(0.378579 0.0313886 0)
(0.376511 0.0324793 0)
(0.374371 0.0332454 0)
(0.372216 0.0336258 0)
(0.370107 0.0335675 0)
(0.36812 0.033036 0)
(0.36633 0.0320108 0)
(0.364812 0.0304882 0)
(0.363639 0.0284783 0)
(0.36288 0.026009 0)
(0.362595 0.0231172 0)
(0.362834 0.0198626 0)
(0.65112 0.0333481 0)
(0.649108 0.0342096 0)
(0.645918 0.0355787 0)
(0.64162 0.0374044 0)
(0.636016 0.0396056 0)
(0.629127 0.0420728 0)
(0.620788 0.0447305 0)
(0.611059 0.0473591 0)
(0.600076 0.0498316 0)
(0.587761 0.05202 0)
(0.574399 0.053713 0)
(0.560249 0.0548497 0)
(0.545567 0.0553566 0)
(0.53064 0.0552011 0)
(0.515813 0.0543873 0)
(0.501237 0.0529445 0)
(0.487281 0.0509508 0)
(0.474093 0.0484806 0)
(0.461779 0.0456379 0)
(0.450539 0.0425257 0)
(0.440348 0.0392528 0)
(0.431299 0.0359252 0)
(0.423366 0.0326486 0)
(0.416525 0.0295077 0)
(0.410736 0.0265898 0)
(0.405936 0.0239768 0)
(0.402006 0.0217417 0)
(0.398837 0.0199241 0)
(0.39632 0.018569 0)
(0.394335 0.0177007 0)
(0.392749 0.0173185 0)
(0.391441 0.0174081 0)
(0.3903 0.0179445 0)
(0.389212 0.0188729 0)
(0.388108 0.0201195 0)
(0.386875 0.0216042 0)
(0.385413 0.0232943 0)
(0.383718 0.0250375 0)
(0.381798 0.0267303 0)
(0.379653 0.0282833 0)
(0.377307 0.0295942 0)
(0.374816 0.0305784 0)
(0.372243 0.0311558 0)
(0.36967 0.0312653 0)
(0.367185 0.0308606 0)
(0.364883 0.0299122 0)
(0.362853 0.0284099 0)
(0.361186 0.0263608 0)
(0.359965 0.0237888 0)
(0.35927 0.020736 0)
(0.359161 0.0172578 0)
(0.651501 0.0402745 0)
(0.65002 0.040704 0)
(0.647336 0.041709 0)
(0.643479 0.0432406 0)
(0.638224 0.0452093 0)
(0.631587 0.0475447 0)
(0.623354 0.050043 0)
(0.613542 0.0526211 0)
(0.602324 0.0550225 0)
(0.589634 0.0571183 0)
(0.575737 0.05875 0)
(0.56096 0.0597604 0)
(0.545608 0.0601009 0)
(0.530004 0.0597274 0)
(0.514477 0.0586555 0)
(0.499327 0.0568669 0)
(0.484813 0.0545472 0)
(0.471148 0.0516154 0)
(0.458505 0.0483239 0)
(0.446997 0.0446726 0)
(0.436698 0.0408464 0)
(0.427628 0.0369349 0)
(0.41977 0.033061 0)
(0.413104 0.0293081 0)
(0.40757 0.0257886 0)
(0.403108 0.0225898 0)
(0.399582 0.019796 0)
(0.396859 0.0174668 0)
(0.394834 0.0156559 0)
(0.393351 0.014401 0)
(0.392269 0.0137041 0)
(0.39145 0.0135682 0)
(0.390759 0.0139571 0)
(0.390066 0.0148379 0)
(0.389268 0.0161188 0)
(0.388284 0.0177071 0)
(0.386993 0.0195526 0)
(0.385331 0.0215351 0)
(0.383335 0.0235083 0)
(0.381013 0.0253569 0)
(0.378389 0.0269712 0)
(0.375529 0.0282437 0)
(0.37251 0.0290811 0)
(0.369429 0.0294053 0)
(0.366394 0.0291579 0)
(0.363515 0.0282994 0)
(0.360906 0.0268115 0)
(0.358675 0.0246992 0)
(0.356925 0.021985 0)
(0.35575 0.0187133 0)
(0.355228 0.0149406 0)
(0.65139 0.0464686 0)
(0.650517 0.0464403 0)
(0.648416 0.0470744 0)
(0.645076 0.0483261 0)
(0.640274 0.0501022 0)
(0.633918 0.0523237 0)
(0.625824 0.0547435 0)
(0.616005 0.0573325 0)
(0.604539 0.0597402 0)
(0.591454 0.0618217 0)
(0.577003 0.0634216 0)
(0.561556 0.0643892 0)
(0.545485 0.0646041 0)
(0.529137 0.0640635 0)
(0.512888 0.0627409 0)
(0.497057 0.0606805 0)
(0.481942 0.057939 0)
(0.467775 0.0546144 0)
(0.454724 0.0508041 0)
(0.442934 0.0466276 0)
(0.432469 0.0422078 0)
(0.423355 0.0376811 0)
(0.415565 0.0331608 0)
(0.40906 0.0287612 0)
(0.403805 0.0245986 0)
(0.399707 0.0207835 0)
(0.396622 0.0174059 0)
(0.39441 0.0145489 0)
(0.392939 0.0122777 0)
(0.392044 0.0106353 0)
(0.391554 0.00965014 0)
(0.391313 0.00931603 0)
(0.391176 0.00961671 0)
(0.39097 0.0104939 0)
(0.390573 0.0118871 0)
(0.389908 0.0136845 0)
(0.388847 0.0157727 0)
(0.387292 0.0180837 0)
(0.385253 0.0204402 0)
(0.382763 0.0226865 0)
(0.379854 0.0246969 0)
(0.376599 0.0263405 0)
(0.373089 0.0275055 0)
(0.36944 0.028096 0)
(0.36578 0.0280368 0)
(0.362244 0.0272779 0)
(0.358967 0.0257962 0)
(0.356083 0.0235899 0)
(0.353715 0.020684 0)
(0.351977 0.0171239 0)
(0.350967 0.0129776 0)
(0.650749 0.0517628 0)
(0.650587 0.0512505 0)
(0.649175 0.0515165 0)
(0.646457 0.0525162 0)
(0.642176 0.0541498 0)
(0.636186 0.0563208 0)
(0.628327 0.0587644 0)
(0.618509 0.0614175 0)
(0.606787 0.0639575 0)
(0.593288 0.0661206 0)
(0.578276 0.0677661 0)
(0.56211 0.0687479 0)
(0.545246 0.068924 0)
(0.5281 0.0682567 0)
(0.511044 0.0667362 0)
(0.494469 0.0643855 0)
(0.478679 0.0612847 0)
(0.463931 0.0575055 0)
(0.450425 0.0531805 0)
(0.438296 0.0484241 0)
(0.42763 0.043379 0)
(0.418442 0.0381776 0)
(0.410695 0.0329703 0)
(0.404369 0.0278635 0)
(0.399401 0.0230189 0)
(0.395704 0.0185467 0)
(0.393115 0.0145552 0)
(0.391475 0.0111479 0)
(0.390642 0.00840342 0)
(0.390426 0.00638616 0)
(0.390633 0.00512702 0)
(0.391089 0.00463383 0)
(0.391603 0.00489466 0)
(0.392001 0.00584369 0)
(0.39213 0.00743169 0)
(0.391852 0.0095301 0)
(0.391088 0.0120009 0)
(0.389711 0.0147307 0)
(0.387669 0.0175852 0)
(0.385019 0.0203494 0)
(0.381807 0.022867 0)
(0.378115 0.0249784 0)
(0.374053 0.0265501 0)
(0.369753 0.0274635 0)
(0.365373 0.0276275 0)
(0.361074 0.0269795 0)
(0.357019 0.0254882 0)
(0.353368 0.0231501 0)
(0.350272 0.0199903 0)
(0.347868 0.0160616 0)
(0.346266 0.0114374 0)
(0.649533 0.0559792 0)
(0.650221 0.0549489 0)
(0.649626 0.0548623 0)
(0.647656 0.0556558 0)
(0.644032 0.0572118 0)
(0.638493 0.0594477 0)
(0.630889 0.0620107 0)
(0.621172 0.0648535 0)
(0.609222 0.0676535 0)
(0.595245 0.0700228 0)
(0.579613 0.0718471 0)
(0.562695 0.0729144 0)
(0.544973 0.0731403 0)
(0.526922 0.0724076 0)
(0.508984 0.0707283 0)
(0.491566 0.0681175 0)
(0.475013 0.0646437 0)
(0.459609 0.0604058 0)
(0.445569 0.0555254 0)
(0.433044 0.0501452 0)
(0.422119 0.0444092 0)
(0.41283 0.0384767 0)
(0.405118 0.032509 0)
(0.398959 0.0266491 0)
(0.394322 0.0210581 0)
(0.39106 0.0158763 0)
(0.389021 0.0112258 0)
(0.388037 0.00723931 0)
(0.38794 0.00400863 0)
(0.388513 0.00161203 0)
(0.389538 9.45435e-05 0)
(0.390814 -0.000519954 0)
(0.392122 -0.000249027 0)
(0.393256 0.000873503 0)
(0.394017 0.00274398 0)
(0.394253 0.00525138 0)
(0.393846 0.00824784 0)
(0.392696 0.0115419 0)
(0.390712 0.0150216 0)
(0.387905 0.0184366 0)
(0.38436 0.021595 0)
(0.380171 0.0242817 0)
(0.375471 0.0263593 0)
(0.370416 0.0276614 0)
(0.365193 0.0280873 0)
(0.359998 0.0275616 0)
(0.355027 0.0260434 0)
(0.350471 0.0235267 0)
(0.346512 0.0200402 0)
(0.343314 0.0156449 0)
(0.341012 0.0104264 0)
(0.647691 0.0588938 0)
(0.649406 0.0573272 0)
(0.649815 0.0569081 0)
(0.648747 0.0575672 0)
(0.645918 0.059151 0)
(0.640946 0.0615453 0)
(0.633701 0.0644237 0)
(0.624129 0.0676227 0)
(0.611939 0.0707829 0)
(0.597471 0.0735749 0)
(0.581162 0.0756826 0)
(0.563399 0.0770394 0)
(0.544735 0.0773448 0)
(0.52568 0.0766707 0)
(0.506742 0.074873 0)
(0.488365 0.0720208 0)
(0.47094 0.0681754 0)
(0.454775 0.0634436 0)
(0.44011 0.0579638 0)
(0.427111 0.0518876 0)
(0.415878 0.045388 0)
(0.40644 0.0386449 0)
(0.398753 0.0318305 0)
(0.392788 0.0251356 0)
(0.388483 0.0187221 0)
(0.385713 0.0127576 0)
(0.384307 0.00739962 0)
(0.384072 0.00279153 0)
(0.384812 -0.000951409 0)
(0.386306 -0.00374263 0)
(0.388295 -0.0054938 0)
(0.39054 -0.00619116 0)
(0.392801 -0.00583959 0)
(0.394809 -0.00449244 0)
(0.39635 -0.00222125 0)
(0.397228 0.000845771 0)
(0.397273 0.00450785 0)
(0.396406 0.00856173 0)
(0.394512 0.012804 0)
(0.391562 0.0170456 0)
(0.387638 0.0209926 0)
(0.382875 0.0244076 0)
(0.377431 0.0270896 0)
(0.371478 0.0288619 0)
(0.365261 0.0295966 0)
(0.359006 0.0292061 0)
(0.352947 0.02764 0)
(0.347316 0.0248902 0)
(0.342331 0.020991 0)
(0.338189 0.016016 0)
(0.335051 0.0100689 0)
(0.645193 0.0602337 0)
(0.648145 0.0581315 0)
(0.649781 0.0574207 0)
(0.649826 0.0580292 0)
(0.647952 0.059791 0)
(0.64372 0.0625189 0)
(0.636933 0.0659124 0)
(0.627507 0.069656 0)
(0.615159 0.0734001 0)
(0.600139 0.0767877 0)
(0.583079 0.0794498 0)
(0.564366 0.0811764 0)
(0.544617 0.0818041 0)
(0.524465 0.081214 0)
(0.504345 0.0793728 0)
(0.484873 0.0762989 0)
(0.46643 0.0720653 0)
(0.449377 0.0667975 0)
(0.433977 0.0606441 0)
(0.420416 0.0537856 0)
(0.408806 0.0464209 0)
(0.399185 0.0387538 0)
(0.391507 0.0309964 0)
(0.385735 0.0233464 0)
(0.381816 0.0160143 0)
(0.379601 0.00918553 0)
(0.378908 0.00304854 0)
(0.379524 -0.00224226 0)
(0.381244 -0.00653488 0)
(0.383798 -0.00971587 0)
(0.386918 -0.0117083 0)
(0.390313 -0.0124521 0)
(0.393683 -0.0119561 0)
(0.396763 -0.0102764 0)
(0.399271 -0.00747533 0)
(0.400925 -0.00372882 0)
(0.40154 0.00078246 0)
(0.401004 0.00579626 0)
(0.399237 0.0110209 0)
(0.396158 0.0162708 0)
(0.391803 0.0211876 0)
(0.386358 0.0255059 0)
(0.380013 0.0289252 0)
(0.373003 0.0312674 0)
(0.365601 0.032373 0)
(0.358083 0.0321371 0)
(0.350727 0.0304964 0)
(0.343812 0.0274474 0)
(0.337604 0.0230327 0)
(0.332339 0.0173432 0)
(0.328206 0.0105068 0)
(0.641987 0.0596815 0)
(0.646466 0.0570555 0)
(0.649597 0.0561303 0)
(0.651023 0.0568083 0)
(0.650336 0.0589278 0)
(0.647015 0.0622145 0)
(0.640801 0.0663673 0)
(0.631593 0.0709535 0)
(0.619057 0.0755711 0)
(0.603519 0.0797839 0)
(0.585557 0.0832593 0)
(0.565771 0.0855802 0)
(0.544799 0.0866958 0)
(0.523275 0.0863109 0)
(0.501853 0.0844906 0)
(0.481079 0.0812103 0)
(0.461446 0.0765616 0)
(0.443344 0.0706837 0)
(0.427074 0.063759 0)
(0.412844 0.0559984 0)
(0.400783 0.0476312 0)
(0.390936 0.0389054 0)
(0.383251 0.0300522 0)
(0.377699 0.021319 0)
(0.374205 0.012948 0)
(0.372622 0.0051387 0)
(0.372746 -0.00188238 0)
(0.374345 -0.00791341 0)
(0.377192 -0.0128147 0)
(0.380993 -0.0164176 0)
(0.385421 -0.0186352 0)
(0.390168 -0.0194045 0)
(0.394881 -0.0187025 0)
(0.399226 -0.0165691 0)
(0.402865 -0.0131202 0)
(0.405496 -0.00851273 0)
(0.406846 -0.0029619 0)
(0.406724 0.00323571 0)
(0.4051 0.00972627 0)
(0.401867 0.0161957 0)
(0.397026 0.0223409 0)
(0.39077 0.0277301 0)
(0.383346 0.032077 0)
(0.375065 0.0351133 0)
(0.366244 0.0366659 0)
(0.357209 0.036606 0)
(0.348299 0.0348656 0)
(0.339852 0.0314395 0)
(0.332187 0.0263905 0)
(0.325588 0.0198283 0)
(0.320278 0.0119156 0)
(0.638067 0.0568764 0)
(0.64441 0.0537371 0)
(0.649375 0.052695 0)
(0.652497 0.0536271 0)
(0.653264 0.0563259 0)
(0.65109 0.0604656 0)
(0.645621 0.0657083 0)
(0.636676 0.0715 0)
(0.623969 0.0773459 0)
(0.607817 0.0827797 0)
(0.588879 0.0873004 0)
(0.567819 0.0905472 0)
(0.545373 0.0922799 0)
(0.522295 0.0922834 0)
(0.499276 0.0905525 0)
(0.476968 0.0870727 0)
(0.45592 0.0819594 0)
(0.436571 0.0753735 0)
(0.419265 0.0675356 0)
(0.404243 0.0587056 0)
(0.391649 0.0491583 0)
(0.381525 0.0391843 0)
(0.373827 0.0290633 0)
(0.368525 0.0190813 0)
(0.365521 0.00950311 0)
(0.364657 0.000586189 0)
(0.365724 -0.00742896 0)
(0.368457 -0.0143194 0)
(0.372603 -0.0198854 0)
(0.377842 -0.0239793 0)
(0.383812 -0.0264536 0)
(0.390143 -0.0272311 0)
(0.396442 -0.0262703 0)
(0.402306 -0.0235856 0)
(0.407332 -0.0192969 0)
(0.411135 -0.013586 0)
(0.413383 -0.00673991 0)
(0.413816 0.000910583 0)
(0.412355 0.00895377 0)
(0.408956 0.0169516 0)
(0.403535 0.0245824 0)
(0.396293 0.0313236 0)
(0.387585 0.0367855 0)
(0.377757 0.0406743 0)
(0.367223 0.0427683 0)
(0.356362 0.0429139 0)
(0.345587 0.0410394 0)
(0.335308 0.0371521 0)
(0.325908 0.0313281 0)
(0.317728 0.0237088 0)
(0.31103 0.0144945 0)
(0.633307 0.0514466 0)
(0.642026 0.0478499 0)
(0.649263 0.0468177 0)
(0.654471 0.0482107 0)
(0.657028 0.0517719 0)
(0.656275 0.0571045 0)
(0.651731 0.06387 0)
(0.64314 0.0712749 0)
(0.630261 0.078858 0)
(0.613416 0.0859071 0)
(0.593285 0.0919026 0)
(0.570728 0.0963728 0)
(0.546532 0.0989837 0)
(0.521556 0.099541 0)
(0.496661 0.0979662 0)
(0.472499 0.094282 0)
(0.44975 0.0886185 0)
(0.428909 0.0811787 0)
(0.410369 0.0722365 0)
(0.394407 0.0621128 0)
(0.381186 0.0511494 0)
(0.370747 0.0396901 0)
(0.363044 0.0280791 0)
(0.358027 0.0166342 0)
(0.355595 0.00565501 0)
(0.355564 -0.0045415 0)
(0.357708 -0.0137053 0)
(0.361746 -0.0215735 0)
(0.367386 -0.0279217 0)
(0.374282 -0.0325724 0)
(0.382033 -0.0353541 0)
(0.390229 -0.0361472 0)
(0.398433 -0.0348826 0)
(0.406143 -0.0315563 0)
(0.412859 -0.0262698 0)
(0.418101 -0.0192272 0)
(0.421441 -0.0107568 0)
(0.422552 -0.00129137 0)
(0.421306 0.00866757 0)
(0.417679 0.0186058 0)
(0.411588 0.0280704 0)
(0.403159 0.036488 0)
(0.39286 0.0433255 0)
(0.381175 0.0482553 0)
(0.368561 0.05101 0)
(0.355499 0.051407 0)
(0.342487 0.0493705 0)
(0.330018 0.0449178 0)
(0.318553 0.0381513 0)
(0.308499 0.0292512 0)
(0.300172 0.0184668 0)
(0.627889 0.0428807 0)
(0.639392 0.0389066 0)
(0.649389 0.0380646 0)
(0.657141 0.0402087 0)
(0.661866 0.0450254 0)
(0.662896 0.0519847 0)
(0.659488 0.0607015 0)
(0.651355 0.0703982 0)
(0.638294 0.080171 0)
(0.620564 0.0894623 0)
(0.59908 0.0973816 0)
(0.57467 0.103517 0)
(0.548351 0.107287 0)
(0.521131 0.108578 0)
(0.493901 0.107218 0)
(0.467535 0.103302 0)
(0.442742 0.0969631 0)
(0.42012 0.0884682 0)
(0.400122 0.0781625 0)
(0.383062 0.0664556 0)
(0.369119 0.053769 0)
(0.358333 0.0405301 0)
(0.350643 0.027129 0)
(0.345969 0.0139573 0)
(0.344218 0.00135822 0)
(0.345147 -0.0103452 0)
(0.348538 -0.0208425 0)
(0.354071 -0.0298456 0)
(0.361425 -0.0371175 0)
(0.370223 -0.0424183 0)
(0.380047 -0.0455569 0)
(0.390436 -0.0463612 0)
(0.400869 -0.0447234 0)
(0.410781 -0.040624 0)
(0.419558 -0.0341124 0)
(0.426582 -0.0254499 0)
(0.431291 -0.0150117 0)
(0.433235 -0.00333633 0)
(0.432253 0.00895411 0)
(0.42835 0.0212719 0)
(0.421388 0.0330438 0)
(0.411494 0.0434835 0)
(0.399267 0.0520701 0)
(0.385309 0.0582851 0)
(0.370182 0.061826 0)
(0.354466 0.062513 0)
(0.338775 0.060274 0)
(0.323698 0.0551366 0)
(0.309785 0.0472289 0)
(0.297528 0.036785 0)
(0.287312 0.0241183 0)
(0.621502 0.0305678 0)
(0.636477 0.0263076 0)
(0.649843 0.0258722 0)
(0.660664 0.0291299 0)
(0.667943 0.0356844 0)
(0.670962 0.0448972 0)
(0.669023 0.05621 0)
(0.661388 0.0688197 0)
(0.648043 0.0816105 0)
(0.629342 0.0937532 0)
(0.606106 0.104319 0)
(0.57952 0.112455 0)
(0.550628 0.117768 0)
(0.520687 0.119939 0)
(0.490745 0.118902 0)
(0.461737 0.114682 0)
(0.434518 0.107478 0)
(0.409791 0.0976337 0)
(0.388095 0.0856089 0)
(0.369788 0.0719304 0)
(0.355056 0.0571349 0)
(0.343915 0.0417419 0)
(0.33629 0.0262126 0)
(0.332087 0.0110001 0)
(0.331127 -0.00350185 0)
(0.333188 -0.0169466 0)
(0.338018 -0.0289955 0)
(0.345266 -0.0393339 0)
(0.354575 -0.0476946 0)
(0.365565 -0.0538322 0)
(0.377772 -0.0574893 0)
(0.390677 -0.0584492 0)
(0.403674 -0.0564943 0)
(0.416091 -0.0515559 0)
(0.427175 -0.0436021 0)
(0.436188 -0.0329392 0)
(0.442471 -0.0199964 0)
(0.445413 -0.00553701 0)
(0.444747 0.00971297 0)
(0.440493 0.0249971 0)
(0.432422 0.0395708 0)
(0.420744 0.0526074 0)
(0.406195 0.0633256 0)
(0.389471 0.0711376 0)
(0.371346 0.0756621 0)
(0.352527 0.0767038 0)
(0.333724 0.0742118 0)
(0.315625 0.0682351 0)
(0.298892 0.058932 0)
(0.284121 0.0466043 0)
(0.271778 0.0316627 0)
(0.61385 0.0140901 0)
(0.632914 0.00990156 0)
(0.650147 0.0102101 0)
(0.664439 0.014983 0)
(0.67456 0.0237302 0)
(0.67975 0.0357201 0)
(0.679192 0.0503074 0)
(0.672134 0.0665288 0)
(0.658389 0.0831815 0)
(0.63842 0.0991351 0)
(0.613139 0.11297 0)
(0.583844 0.123789 0)
(0.552079 0.130914 0)
(0.519116 0.134206 0)
(0.486121 0.13353 0)
(0.45416 0.128911 0)
(0.424226 0.12061 0)
(0.397165 0.109063 0)
(0.373617 0.0948784 0)
(0.35399 0.0787499 0)
(0.338474 0.0613663 0)
(0.327049 0.0433645 0)
(0.319604 0.025306 0)
(0.316021 0.00768339 0)
(0.316023 -0.00905584 0)
(0.319418 -0.0245301 0)
(0.325899 -0.038393 0)
(0.335086 -0.0503253 0)
(0.346616 -0.0600206 0)
(0.360065 -0.0671382 0)
(0.374879 -0.0713621 0)
(0.390445 -0.0724427 0)
(0.406003 -0.0700289 0)
(0.420778 -0.0641215 0)
(0.43391 -0.054422 0)
(0.444613 -0.0415316 0)
(0.452238 -0.0256611 0)
(0.456191 -0.00780139 0)
(0.455894 0.0110637 0)
(0.451145 0.0300244 0)
(0.441851 0.0481148 0)
(0.428174 0.0642087 0)
(0.410951 0.0775117 0)
(0.391166 0.0871553 0)
(0.369735 0.092847 0)
(0.347538 0.0943227 0)
(0.325402 0.0915583 0)
(0.304089 0.0846086 0)
(0.284365 0.0736597 0)
(0.266957 0.0590816 0)
(0.252435 0.0414049 0)
(0.603542 -0.00731861 0)
(0.626622 -0.0115396 0)
(0.647385 -0.0101553 0)
(0.664935 -0.00278774 0)
(0.677653 0.00932247 0)
(0.684701 0.0251792 0)
(0.685434 0.0435864 0)
(0.678811 0.0647066 0)
(0.664753 0.0861864 0)
(0.643456 0.10624 0)
(0.615936 0.124109 0)
(0.583964 0.137658 0)
(0.549219 0.147085 0)
(0.513367 0.151852 0)
(0.477447 0.151669 0)
(0.442632 0.146551 0)
(0.410061 0.136803 0)
(0.380728 0.123053 0)
(0.355431 0.106131 0)
(0.334637 0.0869527 0)
(0.318535 0.066407 0)
(0.30706 0.0452723 0)
(0.300039 0.0242245 0)
(0.297362 0.00382176 0)
(0.298555 -0.0155075 0)
(0.303519 -0.033331 0)
(0.311888 -0.049304 0)
(0.323272 -0.0630744 0)
(0.337234 -0.0742444 0)
(0.353218 -0.082445 0)
(0.370396 -0.0872462 0)
(0.388042 -0.0883456 0)
(0.40516 -0.0853898 0)
(0.421135 -0.0782608 0)
(0.434996 -0.0665145 0)
(0.446046 -0.0512845 0)
(0.454042 -0.0322176 0)
(0.458391 -0.0106168 0)
(0.45825 0.0124329 0)
(0.453042 0.0359533 0)
(0.442409 0.0585058 0)
(0.42679 0.0786631 0)
(0.407169 0.0953547 0)
(0.384603 0.106537 0)
(0.360329 0.113511 0)
(0.335202 0.11544 0)
(0.310134 0.112368 0)
(0.285938 0.104243 0)
(0.263515 0.0913007 0)
(0.243757 0.0740258 0)
(0.227388 0.0531182 0)
(0.586133 -0.0331952 0)
(0.610806 -0.0361879 0)
(0.632469 -0.0338979 0)
(0.650694 -0.0243682 0)
(0.664481 -0.00899144 0)
(0.672775 0.0109079 0)
(0.674861 0.0341886 0)
(0.66948 0.0595747 0)
(0.654806 0.0876488 0)
(0.632993 0.114466 0)
(0.604265 0.138054 0)
(0.570622 0.154394 0)
(0.534936 0.165925 0)
(0.497521 0.171999 0)
(0.459735 0.172357 0)
(0.422964 0.166814 0)
(0.388578 0.155502 0)
(0.357787 0.139209 0)
(0.331479 0.119056 0)
(0.310185 0.0962681 0)
(0.294084 0.071998 0)
(0.283081 0.0472056 0)
(0.276966 0.0227006 0)
(0.27554 -0.000886068 0)
(0.278269 -0.0231668 0)
(0.28512 -0.043668 0)
(0.295656 -0.0619958 0)
(0.309394 -0.0777776 0)
(0.325646 -0.0905071 0)
(0.343479 -0.0996082 0)
(0.361674 -0.1046 0)
(0.379199 -0.105073 0)
(0.395139 -0.100592 0)
(0.409441 -0.0917081 0)
(0.420827 -0.0773 0)
(0.42937 -0.059677 0)
(0.435618 -0.0376434 0)
(0.439065 -0.0126751 0)
(0.439086 0.0139262 0)
(0.433958 0.0418813 0)
(0.423104 0.0686817 0)
(0.406796 0.0911061 0)
(0.384976 0.114389 0)
(0.360788 0.128659 0)
(0.335819 0.136621 0)
(0.309446 0.138902 0)
(0.282941 0.135611 0)
(0.257068 0.126389 0)
(0.233018 0.111287 0)
(0.211923 0.0909394 0)