/*--------------------------------*- C++ -*----------------------------------*\
  =========                 |
  \\      /  F ield         | OpenFOAM: The Open Source CFD Toolbox
   \\    /   O peration     | Website:  https://openfoam.org
    \\  /    A nd           | Version:  10
     \\/     M anipulation  |
\*---------------------------------------------------------------------------*/
FoamFile
{
    format      ascii;
    class       volScalarField;
    location    "0.551757";
    object      rho;
}
// * * * * * * * * * * * * * * * * * * * * * * * * * * * * * * * * * * * * * //

dimensions      [1 -3 0 0 0 0 0];

internalField   nonuniform List<scalar> 
15708
(
1.01632
1.01914
1.02158
1.02382
1.02588
1.02777
1.02954
1.03119
1.03275
1.03422
1.0356
1.03696
1.03821
1.03955
1.04071
1.04208
1.04319
1.04451
1.04568
1.04688
1.04811
1.0493
1.05046
1.05163
1.0528
1.05392
1.05501
1.05607
1.05711
1.05812
1.05908
1.05999
1.06084
1.06165
1.06241
1.06311
1.06377
1.06437
1.06491
1.06541
1.06584
1.06621
1.06654
1.06683
1.06706
1.06723
1.06735
1.0674
1.06739
1.06734
1.0672
1.01688
1.01961
1.02203
1.02423
1.02625
1.02811
1.02983
1.03143
1.03294
1.03434
1.0357
1.03696
1.03823
1.03942
1.04063
1.0418
1.04298
1.04413
1.04529
1.04644
1.04759
1.04871
1.04984
1.05096
1.05205
1.05313
1.05418
1.0552
1.05621
1.0572
1.05815
1.05905
1.0599
1.0607
1.06147
1.06218
1.06285
1.06347
1.06403
1.06454
1.065
1.0654
1.06575
1.06605
1.0663
1.0665
1.06662
1.06671
1.0667
1.06665
1.06652
1.01725
1.01991
1.02227
1.02443
1.02639
1.0282
1.02986
1.0314
1.03287
1.03422
1.03554
1.03674
1.03798
1.0391
1.04028
1.0414
1.04251
1.04363
1.04472
1.04582
1.04691
1.048
1.04908
1.05016
1.05122
1.05225
1.05327
1.05426
1.05526
1.05623
1.05716
1.05805
1.05889
1.0597
1.06047
1.0612
1.06188
1.06251
1.06309
1.06362
1.0641
1.06453
1.06488
1.06521
1.06549
1.06571
1.06585
1.06592
1.06593
1.06588
1.06574
1.01738
1.01997
1.02228
1.02438
1.02627
1.02805
1.02963
1.03118
1.03255
1.03392
1.03516
1.03637
1.03754
1.03866
1.03978
1.04087
1.04195
1.04302
1.04408
1.04513
1.04617
1.04722
1.04827
1.0493
1.05031
1.05132
1.05231
1.05329
1.05427
1.05522
1.05615
1.05702
1.05787
1.05868
1.05946
1.06021
1.06091
1.06156
1.06216
1.0627
1.0632
1.06365
1.06404
1.06437
1.06465
1.06487
1.06503
1.06511
1.06512
1.06506
1.06491
1.0172
1.01975
1.02202
1.02408
1.02591
1.02767
1.02917
1.03075
1.03199
1.03345
1.03456
1.03582
1.03694
1.03801
1.03915
1.0402
1.04124
1.04228
1.04333
1.04434
1.04535
1.04637
1.04739
1.04838
1.04937
1.05035
1.05132
1.05228
1.05323
1.05418
1.05509
1.05597
1.05682
1.05764
1.05844
1.0592
1.05991
1.06058
1.06121
1.06178
1.06229
1.06276
1.06318
1.06352
1.0638
1.06403
1.06418
1.06425
1.06426
1.06419
1.06402
1.01705
1.01944
1.02159
1.02346
1.0254
1.02692
1.02866
1.02993
1.03144
1.0326
1.03394
1.03496
1.03619
1.03722
1.0383
1.03938
1.04039
1.04143
1.04245
1.04346
1.04445
1.04543
1.04641
1.04738
1.04836
1.04932
1.05027
1.05123
1.05217
1.05311
1.05402
1.0549
1.05576
1.05658
1.05739
1.05816
1.0589
1.05958
1.06023
1.06083
1.06137
1.06186
1.06229
1.06265
1.06293
1.06316
1.06331
1.06338
1.06338
1.06329
1.06311
1.0167
1.01873
1.02079
1.02267
1.02459
1.026
1.02774
1.02901
1.0305
1.03165
1.03295
1.03392
1.03517
1.03624
1.03754
1.03855
1.03965
1.0406
1.04159
1.04254
1.04347
1.04441
1.04535
1.04629
1.04726
1.04821
1.04916
1.05012
1.05107
1.052
1.05291
1.05379
1.05466
1.0555
1.05632
1.05711
1.05787
1.05858
1.05924
1.05986
1.06042
1.06092
1.06137
1.06175
1.06205
1.06228
1.06243
1.06249
1.06247
1.06236
1.06214
1.01521
1.01808
1.02024
1.02217
1.02332
1.02513
1.02641
1.02799
1.02922
1.0306
1.03168
1.03297
1.03409
1.0354
1.0363
1.03758
1.03852
1.03944
1.04043
1.04143
1.04243
1.04339
1.04429
1.0452
1.04613
1.04708
1.04804
1.04899
1.04995
1.05087
1.05177
1.05265
1.05353
1.05437
1.05522
1.05603
1.0568
1.05753
1.05821
1.05887
1.05946
1.05998
1.06044
1.06084
1.06116
1.06138
1.06153
1.06158
1.06155
1.06142
1.06118
1.01485
1.01645
1.01862
1.02029
1.02224
1.02387
1.02555
1.02683
1.02827
1.02941
1.03073
1.03177
1.03304
1.03401
1.03516
1.03615
1.03722
1.03824
1.03926
1.04023
1.0412
1.04216
1.04313
1.04408
1.04501
1.04596
1.04688
1.04783
1.04876
1.04968
1.05059
1.05147
1.05236
1.05323
1.05409
1.05493
1.05571
1.05647
1.05718
1.05785
1.05846
1.05901
1.0595
1.05992
1.06024
1.06048
1.06064
1.06067
1.06063
1.06049
1.0602
1.01362
1.01545
1.01772
1.01936
1.0214
1.02296
1.02419
1.02545
1.02666
1.02791
1.02916
1.03045
1.03158
1.0327
1.03383
1.03483
1.03592
1.03695
1.038
1.03898
1.03998
1.04095
1.04189
1.04282
1.04378
1.04472
1.04568
1.0466
1.04753
1.04846
1.04936
1.05027
1.05118
1.05206
1.05292
1.05378
1.0546
1.05537
1.05611
1.05681
1.05745
1.05802
1.05853
1.05896
1.05931
1.05955
1.05972
1.05975
1.05969
1.05952
1.05923
1.01272
1.01481
1.01615
1.018
1.01934
1.02102
1.02235
1.02389
1.02515
1.02658
1.02773
1.02907
1.03008
1.03129
1.03216
1.03361
1.0347
1.03583
1.03678
1.03776
1.03874
1.03971
1.04064
1.0416
1.04252
1.04346
1.04438
1.04531
1.04625
1.04717
1.0481
1.04901
1.04993
1.05084
1.05172
1.05259
1.05343
1.05425
1.05502
1.05573
1.05641
1.05702
1.05755
1.05801
1.05837
1.05864
1.0588
1.05886
1.0588
1.05862
1.05828
1.01115
1.01303
1.01476
1.01638
1.01808
1.01947
1.02098
1.02215
1.02363
1.02482
1.0261
1.02737
1.02859
1.02977
1.03096
1.03206
1.03312
1.03423
1.03527
1.03633
1.03733
1.03834
1.03929
1.04023
1.04122
1.04217
1.04311
1.04403
1.04497
1.04589
1.04681
1.04773
1.04864
1.04956
1.05048
1.05137
1.05223
1.05307
1.05388
1.05464
1.05533
1.05599
1.05656
1.05704
1.05744
1.05774
1.05791
1.05797
1.05791
1.05772
1.05737
1.0106
1.0115
1.01333
1.01506
1.01661
1.01806
1.01914
1.02056
1.02164
1.02312
1.02427
1.02565
1.02691
1.02815
1.02937
1.03052
1.03169
1.03278
1.03386
1.03494
1.03597
1.03694
1.03792
1.0389
1.03989
1.04083
1.04177
1.04268
1.0436
1.04453
1.04547
1.04642
1.04737
1.0483
1.04916
1.05003
1.05093
1.05183
1.05269
1.0535
1.05426
1.05495
1.05556
1.05609
1.05653
1.05685
1.05705
1.05714
1.05706
1.05686
1.05646
1.0088
1.01078
1.01195
1.01334
1.01447
1.01589
1.01722
1.01859
1.01991
1.02124
1.0226
1.02384
1.02522
1.0265
1.02769
1.02899
1.0301
1.03127
1.03239
1.03348
1.03452
1.03556
1.03654
1.03753
1.0385
1.03946
1.0404
1.04133
1.04225
1.04315
1.04408
1.04503
1.04599
1.0469
1.04777
1.0487
1.04966
1.05058
1.05148
1.05233
1.05313
1.05387
1.05454
1.05511
1.0556
1.05597
1.05622
1.05632
1.05628
1.05607
1.05568
1.0074
1.00864
1.01003
1.01138
1.01284
1.0141
1.01549
1.01676
1.01803
1.01941
1.02063
1.02212
1.02339
1.02478
1.02604
1.02736
1.02849
1.02977
1.03086
1.03197
1.03307
1.0341
1.03516
1.03615
1.0371
1.03805
1.03898
1.0399
1.04081
1.04173
1.04266
1.04359
1.04451
1.04547
1.04642
1.04736
1.04828
1.04921
1.05018
1.05111
1.05198
1.05279
1.05351
1.05415
1.05468
1.05509
1.05537
1.0555
1.05548
1.05528
1.05488
1.00584
1.00725
1.00857
1.00983
1.01117
1.01239
1.01389
1.01479
1.01603
1.0174
1.01906
1.02036
1.02168
1.02293
1.02421
1.02551
1.02681
1.02812
1.02935
1.03054
1.03164
1.03272
1.03374
1.03475
1.0357
1.03664
1.03756
1.03847
1.03935
1.04025
1.04117
1.04208
1.04302
1.04397
1.04491
1.04591
1.04688
1.04792
1.04886
1.04983
1.05078
1.05164
1.05244
1.05317
1.05377
1.05425
1.05459
1.05477
1.05477
1.05457
1.05411
1.00452
1.00598
1.00719
1.00822
1.00912
1.01029
1.01156
1.01287
1.01404
1.01561
1.0169
1.01827
1.01967
1.02118
1.0227
1.02421
1.02541
1.02666
1.02782
1.02898
1.03011
1.03125
1.03229
1.03331
1.03427
1.03519
1.03611
1.03698
1.03786
1.03875
1.03964
1.04054
1.04143
1.04238
1.04338
1.04437
1.04539
1.04644
1.04749
1.04852
1.04954
1.0505
1.05138
1.05218
1.05286
1.0534
1.05377
1.054
1.05406
1.05389
1.05347
1.00343
1.00464
1.00538
1.00642
1.00742
1.00881
1.00981
1.01097
1.01206
1.01338
1.01479
1.0162
1.01773
1.01922
1.02078
1.02222
1.02371
1.02504
1.02635
1.02755
1.02878
1.02988
1.03092
1.03192
1.03287
1.0338
1.03468
1.03552
1.03638
1.03721
1.03806
1.03892
1.03979
1.04073
1.04172
1.04276
1.04382
1.04489
1.04601
1.04715
1.04825
1.04928
1.05028
1.05117
1.05195
1.05258
1.05302
1.0533
1.05339
1.05327
1.05289
1.00215
1.00304
1.00385
1.00466
1.00557
1.00657
1.00779
1.00892
1.01018
1.01138
1.01274
1.01426
1.01581
1.01735
1.01894
1.02038
1.022
1.02345
1.02488
1.02619
1.0274
1.02855
1.02962
1.0306
1.0315
1.03238
1.03322
1.03402
1.03485
1.03563
1.03642
1.03722
1.03808
1.03901
1.03995
1.04109
1.0421
1.0433
1.04441
1.04569
1.04688
1.04809
1.04914
1.05014
1.05102
1.05178
1.05238
1.05276
1.05288
1.05282
1.05244
1.00086
1.00161
1.00242
1.00316
1.00377
1.00458
1.00568
1.00667
1.00792
1.00935
1.01074
1.01214
1.0138
1.0156
1.01748
1.01904
1.02064
1.02206
1.02343
1.02484
1.02609
1.02732
1.02836
1.02931
1.03017
1.031
1.03173
1.03249
1.03325
1.03398
1.03471
1.03551
1.03629
1.03717
1.03818
1.03906
1.04067
1.04128
1.04319
1.04393
1.04554
1.04675
1.04802
1.04914
1.05017
1.05105
1.05173
1.05214
1.05226
1.05221
1.05193
0.999768
1.00015
1.00059
1.00114
1.0018
1.0025
1.00336
1.00438
1.00586
1.00714
1.00873
1.01044
1.01199
1.01375
1.01552
1.0173
1.01907
1.02072
1.02222
1.02357
1.02485
1.02602
1.02712
1.02811
1.029
1.02981
1.03046
1.03112
1.03176
1.03237
1.03303
1.03366
1.03439
1.03526
1.03622
1.03718
1.03852
1.03982
1.04083
1.04285
1.04377
1.04565
1.04673
1.04807
1.0492
1.05017
1.051
1.05154
1.05182
1.05177
1.05154
0.999576
0.999416
0.999493
0.999732
1.00009
1.00048
1.0011
1.00221
1.00321
1.00487
1.00634
1.00819
1.01013
1.01202
1.01398
1.01579
1.0177
1.01945
1.02113
1.02262
1.02396
1.02514
1.02615
1.02704
1.02777
1.02843
1.02897
1.02954
1.03005
1.03058
1.03113
1.03172
1.03241
1.03322
1.03399
1.03534
1.03624
1.03787
1.03929
1.04065
1.04221
1.04394
1.04544
1.04696
1.04828
1.04936
1.05031
1.05094
1.05135
1.05145
1.05122
0.999672
0.998886
0.998349
0.99812
0.998101
0.998476
0.998928
0.999696
1.00116
1.0022
1.00399
1.00597
1.00804
1.01009
1.01218
1.01413
1.01606
1.01798
1.01979
1.02137
1.02283
1.02405
1.0251
1.02599
1.02672
1.02732
1.02781
1.02824
1.02866
1.029
1.02939
1.0298
1.03032
1.03114
1.03172
1.03319
1.03391
1.03589
1.03675
1.03916
1.04043
1.04194
1.04379
1.04555
1.04706
1.04836
1.04953
1.0502
1.05073
1.0509
1.05078
1.00039
0.998785
0.997824
0.997145
0.996851
0.997028
0.997205
0.998096
0.998707
1.00031
1.00165
1.00337
1.00568
1.00802
1.01035
1.01257
1.01471
1.01664
1.01855
1.02028
1.02181
1.02312
1.02421
1.02511
1.02575
1.0262
1.02649
1.02674
1.02704
1.0272
1.02752
1.02788
1.02828
1.02889
1.02955
1.03039
1.03221
1.03301
1.03576
1.03686
1.03879
1.04169
1.04256
1.04435
1.046
1.04744
1.04884
1.04967
1.04999
1.04995
1.04981
1.00117
0.999855
0.998062
0.997594
0.997818
0.998157
1.00008
1.00114
1.00254
1.00333
1.00445
1.00471
1.00614
1.0079
1.00982
1.01189
1.01392
1.01578
1.01749
1.01913
1.02074
1.02224
1.0234
1.02428
1.0248
1.02519
1.02539
1.02546
1.0256
1.02553
1.02572
1.02609
1.02626
1.02681
1.02774
1.02949
1.032
1.03423
1.03686
1.04022
1.04156
1.04294
1.04685
1.04676
1.04712
1.04782
1.04877
1.04954
1.04987
1.04932
1.04874
1.00478
1.01203
1.00797
1.02245
1.03753
1.03859
1.04784
1.05857
1.05912
1.05967
1.0525
1.03955
1.03183
1.02442
1.01911
1.01634
1.01597
1.01683
1.01784
1.01907
1.02025
1.02152
1.02267
1.02346
1.0239
1.02418
1.0244
1.02438
1.02406
1.02419
1.02493
1.0251
1.02618
1.02844
1.03298
1.04115
1.04216
1.05321
1.06276
1.06637
1.07053
1.06914
1.06559
1.06177
1.05703
1.05379
1.05212
1.05135
1.05059
1.0494
1.04864
1.05476
1.1146
1.18014
1.23369
1.3118
1.36235
1.40717
1.44412
1.43918
1.44078
1.37154
1.38023
1.21812
1.12837
1.07329
1.0451
1.02971
1.02185
1.01938
1.01953
1.02037
1.02132
1.02225
1.02287
1.0231
1.02338
1.02363
1.02329
1.02338
1.02315
1.02878
1.02865
1.0388
1.05411
1.07399
1.112
1.14913
1.18724
1.2375
1.25244
1.24747
1.23732
1.19173
1.14394
1.10422
1.07811
1.06364
1.05649
1.05255
1.04984
1.04859
1.50443
1.59436
1.66741
1.71399
1.75001
1.77367
1.79534
1.81294
1.81445
1.79713
1.79735
1.69845
1.71613
1.50477
1.30535
1.1386
1.06735
1.03952
1.02758
1.02275
1.02154
1.02185
1.02258
1.02281
1.02313
1.02323
1.02323
1.02376
1.02372
1.03257
1.03317
1.08545
1.16749
1.29645
1.41668
1.53127
1.60808
1.66541
1.6923
1.69224
1.68822
1.63759
1.58459
1.45845
1.2788
1.15095
1.10136
1.07665
1.0596
1.05103
1.04839
1.80206
1.80004
1.79871
1.78925
1.78444
1.78684
1.8006
1.81225
1.82778
1.83397
1.84126
1.82678
1.83309
1.73953
1.59864
1.34894
1.17935
1.08985
1.0484
1.03089
1.02473
1.02329
1.02335
1.02348
1.02342
1.02416
1.02411
1.0332
1.03754
1.11894
1.30781
1.51995
1.68291
1.78074
1.83239
1.85873
1.87043
1.87754
1.88221
1.88392
1.88345
1.86268
1.8254
1.73038
1.58319
1.33812
1.15993
1.08316
1.05747
1.0488
1.04769
1.72425
1.63824
1.57093
1.49662
1.46312
1.4669
1.48703
1.53822
1.60631
1.6892
1.77575
1.8112
1.81719
1.80071
1.70819
1.4747
1.23437
1.1082
1.05304
1.03225
1.02567
1.02431
1.02439
1.02426
1.0256
1.02629
1.0467
1.11883
1.4034
1.66643
1.82823
1.88429
1.89144
1.88064
1.84848
1.81736
1.81904
1.8291
1.84887
1.873
1.89975
1.90973
1.90419
1.84585
1.65504
1.33445
1.14363
1.07047
1.04897
1.04674
1.04855
1.27042
1.1794
1.13511
1.11848
1.11506
1.11864
1.13439
1.16523
1.23293
1.34134
1.5236
1.68811
1.77833
1.78399
1.69797
1.44938
1.212
1.09595
1.04756
1.03016
1.02563
1.02548
1.02585
1.02705
1.03527
1.10227
1.41473
1.75272
1.90546
1.92846
1.90883
1.84806
1.72788
1.62451
1.55256
1.51632
1.52967
1.57667
1.6466
1.72608
1.81258
1.89832
1.90515
1.82063
1.6052
1.25226
1.08725
1.05022
1.04804
1.06414
1.16915
1.04797
1.04953
1.05701
1.06703
1.06997
1.07005
1.07129
1.08183
1.11678
1.22629
1.48297
1.68544
1.76375
1.75218
1.62431
1.33946
1.1409
1.05928
1.03192
1.02596
1.02632
1.02726
1.03055
1.06907
1.38791
1.81232
1.95449
1.96103
1.91348
1.79044
1.59143
1.38123
1.2475
1.18075
1.16337
1.16917
1.19844
1.25729
1.37742
1.56018
1.78116
1.88539
1.85484
1.74739
1.38912
1.10206
1.05522
1.0543
1.10128
1.34731
1.80738
1.03202
1.06638
1.11989
1.17166
1.185
1.16225
1.11743
1.1176
1.17747
1.36206
1.59412
1.70451
1.73673
1.64277
1.38639
1.14125
1.05554
1.03012
1.02582
1.02724
1.03229
1.07498
1.42343
1.76907
1.95446
1.97987
1.92876
1.79229
1.55935
1.2842
1.13397
1.08069
1.06907
1.07266
1.10716
1.13999
1.17239
1.24029
1.37506
1.59304
1.77657
1.81991
1.78916
1.41239
1.12471
1.06528
1.06581
1.15666
1.52815
1.88549
1.99069
1.067
1.14596
1.25088
1.34077
1.37831
1.38182
1.36016
1.35575
1.47836
1.5848
1.64086
1.66629
1.53627
1.32134
1.10823
1.04634
1.02947
1.02882
1.03687
1.08141
1.32646
1.67624
1.93818
1.99177
1.95607
1.83836
1.62597
1.3424
1.12509
1.05519
1.04392
1.07052
1.1361
1.20195
1.20895
1.20601
1.22368
1.30978
1.54277
1.68095
1.72717
1.77128
1.31661
1.14916
1.08172
1.08756
1.23673
1.61313
1.95424
1.97835
1.99047
1.08131
1.1697
1.2842
1.38763
1.43081
1.45901
1.47238
1.49908
1.52901
1.5487
1.50182
1.39141
1.17377
1.05835
1.04175
1.03325
1.03992
1.07639
1.20831
1.59585
1.8808
1.96984
1.98056
1.90455
1.72986
1.48028
1.20374
1.06589
1.04021
1.05284
1.12915
1.25381
1.3521
1.38993
1.39572
1.41708
1.43797
1.54831
1.62795
1.68132
1.75398
1.21272
1.15167
1.10558
1.1229
1.35714
1.69706
1.97788
1.99132
1.99988
1.96612
1.02931
1.07593
1.15873
1.25717
1.31286
1.36886
1.37259
1.38151
1.33821
1.26249
1.15732
1.05422
1.05277
1.03898
1.04504
1.07656
1.18538
1.51782
1.81007
1.94858
1.98559
1.95435
1.84376
1.63248
1.3876
1.14361
1.05453
1.03814
1.05443
1.12005
1.22332
1.33783
1.42299
1.43742
1.46864
1.46835
1.52106
1.52919
1.55238
1.51393
1.1625
1.13065
1.1391
1.20778
1.45202
1.74063
1.99991
1.99835
2.00755
1.99932
1.96766
1.00945
1.01641
1.02839
1.05098
1.08799
1.08824
1.10058
1.09093
1.06642
1.05543
1.04761
1.0454
1.06164
1.08812
1.17476
1.45393
1.7314
1.94341
1.97407
1.98976
1.93217
1.7944
1.58587
1.3594
1.13561
1.05408
1.03572
1.03872
1.06938
1.13489
1.23129
1.33464
1.38232
1.4309
1.42691
1.43345
1.42725
1.38316
1.26454
1.12354
1.14458
1.16702
1.2743
1.54084
1.91076
1.92616
2.01159
2.01048
2.01221
2.00429
1.99674
1.01225
1.01369
1.01377
1.01645
1.01933
1.02532
1.02799
1.03581
1.04176
1.05401
1.07115
1.11444
1.21288
1.45458
1.83598
1.84725
1.98769
2.00178
1.99228
1.92481
1.77928
1.59857
1.38521
1.16692
1.06482
1.03608
1.03103
1.03306
1.0568
1.09869
1.15923
1.20386
1.26163
1.25023
1.25825
1.24471
1.21372
1.14603
1.16738
1.17357
1.23235
1.38586
1.64773
1.94755
1.9468
1.99467
2.00884
2.00897
2.00744
2.00371
1.99926
1.04371
1.04113
1.03859
1.03907
1.04263
1.05045
1.06417
1.08594
1.12568
1.19545
1.32926
1.54327
1.76621
1.89264
1.99275
2.00249
2.02596
1.99842
1.93331
1.80522
1.65364
1.46501
1.26227
1.10372
1.04483
1.03854
1.02978
1.0303
1.03828
1.05545
1.07566
1.09343
1.10937
1.11631
1.1282
1.13667
1.14572
1.16417
1.20182
1.29651
1.54265
1.86723
1.85519
1.97671
1.97693
1.9988
2.00125
1.99981
1.99746
1.99477
1.99112
1.1782
1.16687
1.16736
1.17958
1.20651
1.25242
1.32214
1.41527
1.54075
1.67451
1.81749
1.92364
1.99531
2.01836
2.04261
2.04337
2.02473
1.96316
1.87146
1.74497
1.58638
1.39989
1.21365
1.10248
1.0448
1.0433
1.03465
1.03331
1.03959
1.05049
1.06472
1.07622
1.09225
1.10932
1.13139
1.15773
1.20606
1.30696
1.50826
1.79591
1.80718
1.93532
1.93054
1.98246
1.98407
1.99083
1.98978
1.98787
1.98555
1.98259
1.9799
1.54269
1.54664
1.56703
1.60093
1.62769
1.69701
1.75949
1.82091
1.90435
1.97079
2.00914
2.03194
2.05618
2.06721
2.07005
2.05098
2.01283
1.94538
1.85418
1.72707
1.5693
1.39535
1.23325
1.08321
1.07845
1.0489
1.05041
1.04402
1.0527
1.06592
1.07763
1.10237
1.12774
1.17173
1.24048
1.37167
1.52313
1.72086
1.7888
1.92105
1.89608
1.95973
1.96111
1.97803
1.9795
1.97992
1.97828
1.97635
1.97459
1.97164
1.96879
1.85199
1.85191
1.86797
1.88775
1.90508
1.93898
1.98645
1.99714
2.03417
2.05603
2.06763
2.0819
2.08971
2.09219
2.08341
2.06001
2.01946
1.95744
1.86926
1.74979
1.6045
1.44535
1.29119
1.19515
1.08903
1.10559
1.08632
1.09086
1.10227
1.13199
1.18157
1.25477
1.34274
1.46076
1.59241
1.6989
1.80614
1.87439
1.92138
1.93587
1.9562
1.96165
1.96912
1.97114
1.97028
1.969
1.96872
1.96694
1.96492
1.96214
1.95923
1.97923
1.98738
1.99183
2.00708
2.0165
2.03569
2.04782
2.0624
2.07607
2.08749
2.09816
2.10667
2.11073
2.11063
2.0995
2.07976
2.04472
1.99321
1.92092
1.82391
1.70817
1.58017
1.45228
1.33851
1.29532
1.2584
1.2566
1.2639
1.31919
1.3978
1.48716
1.56814
1.65556
1.74524
1.82013
1.86975
1.93873
1.92303
1.95382
1.95143
1.96148
1.96194
1.96357
1.9627
1.96135
1.9605
1.95932
1.95807
1.95597
1.95369
1.95068
2.02669
2.03133
2.03816
2.04602
2.05566
2.0657
2.07645
2.08686
2.09819
2.10912
2.11927
2.12594
2.12915
2.12825
2.12178
2.10625
2.08174
2.04277
1.98855
1.91811
1.83295
1.73971
1.64597
1.58243
1.53981
1.52647
1.52326
1.54554
1.61139
1.67859
1.74463
1.79673
1.84884
1.89636
1.92466
1.94872
1.95029
1.9567
1.95587
1.95889
1.95717
1.95718
1.95597
1.95445
1.95384
1.95254
1.95209
1.95072
1.949
1.94666
1.9438
2.04378
2.04958
2.0578
2.06363
2.07516
2.08207
2.09565
2.10333
2.11571
2.1263
2.13512
2.14246
2.14643
2.14789
2.14265
2.133
2.11572
2.08835
2.05029
2.00243
1.94588
1.88408
1.82626
1.78844
1.7648
1.75201
1.75179
1.78005
1.82563
1.8655
1.89773
1.92095
1.94329
1.95988
1.96346
1.96346
1.96509
1.95801
1.95574
1.95471
1.95189
1.95027
1.9487
1.94804
1.94702
1.94617
1.94526
1.9437
1.94164
1.93899
1.93581
2.05402
2.06075
2.06848
2.0773
2.08625
2.09677
2.10691
2.11853
2.12894
2.13989
2.1492
2.15736
2.16296
2.16524
2.16166
2.15679
2.14345
2.12582
2.09979
2.06755
2.03097
1.9933
1.95703
1.93666
1.91731
1.90623
1.90879
1.92678
1.94615
1.96165
1.9703
1.97613
1.97973
1.98055
1.97395
1.9688
1.96507
1.95532
1.95376
1.94867
1.94591
1.94377
1.94234
1.94136
1.94003
1.93943
1.9379
1.93637
1.93426
1.93178
1.92838
2.0603
2.06788
2.07671
2.08624
2.09646
2.10749
2.11826
2.1305
2.14246
2.15315
2.16356
2.17168
2.17788
2.1812
2.18098
2.17611
2.16813
2.15346
2.1363
2.11354
2.08844
2.06366
2.04119
2.02163
2.00546
1.99784
1.99598
2.00074
2.00405
2.00506
2.0019
1.99854
1.9934
1.98706
1.97701
1.96998
1.96166
1.95389
1.94885
1.94261
1.93926
1.93651
1.93504
1.9337
1.93241
1.93137
1.92941
1.92816
1.92584
1.92273
1.91939
2.06542
2.07501
2.08424
2.09517
2.10605
2.11761
2.12987
2.1421
2.15379
2.16583
2.17604
2.1854
2.19165
2.19657
2.1965
2.1946
2.18705
2.17605
2.16223
2.14379
2.1252
2.10397
2.08685
2.06875
2.0559
2.04611
2.04002
2.03552
2.03003
2.02303
2.01452
2.00638
1.99706
1.98724
1.97634
1.96714
1.95734
1.94993
1.94093
1.93523
1.93114
1.92816
1.92647
1.92471
1.92386
1.92351
1.92268
1.92162
1.91945
1.91676
1.91299
2.07029
2.08054
2.09092
2.1027
2.11444
2.12693
2.13973
2.15237
2.16536
2.17696
2.18833
2.19757
2.20509
2.20952
2.21053
2.20909
2.20275
2.19447
2.18089
2.16571
2.14877
2.12996
2.11357
2.09644
2.08281
2.07046
2.06023
2.05049
2.04053
2.03021
2.01951
2.00907
1.99796
1.98665
1.97456
1.96389
1.95236
1.94223
1.93434
1.92614
1.92182
1.91838
1.91602
1.91448
1.91416
1.91361
1.91232
1.91088
1.90824
1.90441
1.89965
2.07465
2.08555
2.09738
2.1098
2.12226
2.13519
2.1481
2.16322
2.17442
2.18859
2.19891
2.20958
2.21707
2.22212
2.22339
2.22184
2.21836
2.20832
2.19707
2.18142
2.1651
2.14687
2.12956
2.1123
2.09704
2.08287
2.07017
2.05802
2.04622
2.03437
2.02257
2.01075
1.99831
1.98533
1.97175
1.9589
1.94656
1.93471
1.92427
1.91506
1.90946
1.90511
1.90371
1.90337
1.90395
1.9048
1.90492
1.90432
1.90246
1.90016
1.89583
2.07766
2.09014
2.10239
2.11616
2.12924
2.14308
2.15709
2.17168
2.1847
2.19863
2.2095
2.22032
2.22837
2.23365
2.23527
2.23406
2.23071
2.22042
2.21034
2.1952
2.17675
2.15939
2.14037
2.12313
2.10623
2.09118
2.07715
2.06398
2.05111
2.03825
2.02512
2.01169
1.99741
1.98268
1.96781
1.95352
1.93772
1.9265
1.91152
1.90257
1.89753
1.89529
1.89622
1.89949
1.90337
1.90799
1.91244
1.91278
1.9144
1.91463
1.91491
1.067
1.0667
1.06634
1.06586
1.0653
1.06462
1.06384
1.06291
1.06185
1.06067
1.05933
1.05783
1.05616
1.05438
1.05245
1.05033
1.04807
1.04562
1.04303
1.04026
1.03733
1.0343
1.03106
1.02772
1.02424
1.02057
1.06631
1.06601
1.06564
1.06517
1.0646
1.06392
1.06311
1.06221
1.06113
1.05997
1.05865
1.05718
1.05556
1.0538
1.05189
1.04984
1.04763
1.04524
1.04272
1.04002
1.03722
1.03423
1.0311
1.02786
1.02448
1.02092
1.06552
1.06523
1.06482
1.06434
1.06375
1.06307
1.06225
1.06133
1.06028
1.05909
1.05779
1.05635
1.05476
1.05303
1.05117
1.04917
1.04704
1.04474
1.0423
1.03972
1.037
1.03414
1.03111
1.02801
1.02473
1.02133
1.06468
1.06436
1.06395
1.06344
1.06283
1.0621
1.06128
1.06033
1.05929
1.0581
1.05681
1.05539
1.05384
1.05216
1.05033
1.04841
1.04633
1.04413
1.04181
1.03931
1.03672
1.03396
1.03112
1.02811
1.02499
1.02178
1.06378
1.06343
1.063
1.06245
1.06181
1.06107
1.06022
1.05925
1.05818
1.05701
1.05571
1.05431
1.05279
1.05116
1.0494
1.04751
1.04552
1.04342
1.04119
1.03883
1.03637
1.03377
1.03106
1.02822
1.02525
1.02222
1.06282
1.06245
1.06198
1.0614
1.06072
1.05995
1.05907
1.05809
1.057
1.05581
1.05451
1.05312
1.05162
1.05004
1.04833
1.04652
1.04461
1.04261
1.0405
1.03827
1.03595
1.0335
1.03095
1.02827
1.02551
1.02265
1.06184
1.06143
1.06091
1.06032
1.05959
1.05877
1.05786
1.05684
1.05572
1.05452
1.05323
1.05184
1.05037
1.04881
1.04717
1.04545
1.04361
1.04171
1.03969
1.03759
1.0354
1.03313
1.03079
1.02836
1.02579
1.02317
1.06083
1.06038
1.05982
1.05917
1.05841
1.05755
1.05658
1.05555
1.05439
1.05317
1.05187
1.05048
1.04902
1.0475
1.0459
1.04425
1.0425
1.04071
1.03883
1.0369
1.03488
1.03278
1.0306
1.02836
1.026
1.02362
1.05983
1.05933
1.05873
1.05803
1.05721
1.05631
1.05531
1.05419
1.05304
1.05177
1.05045
1.04906
1.0476
1.04609
1.04454
1.04294
1.04129
1.0396
1.03785
1.03606
1.03422
1.03233
1.03037
1.02835
1.02625
1.02407
1.05883
1.05829
1.05765
1.05686
1.05602
1.05504
1.05399
1.05286
1.0516
1.05033
1.04897
1.04759
1.04613
1.04462
1.0431
1.04157
1.04
1.03842
1.03679
1.03516
1.03349
1.03179
1.03004
1.02825
1.0264
1.02451
1.05785
1.05728
1.05657
1.05576
1.05487
1.05382
1.05271
1.05149
1.05021
1.04884
1.04749
1.04601
1.04458
1.04311
1.0416
1.0401
1.03863
1.03712
1.03562
1.03413
1.03264
1.03115
1.02966
1.02814
1.02657
1.02497
1.05691
1.0563
1.05553
1.05467
1.05367
1.05261
1.05139
1.05011
1.04879
1.04735
1.04597
1.04443
1.04302
1.04151
1.04002
1.03859
1.03713
1.03572
1.03437
1.03304
1.0317
1.03041
1.02913
1.02791
1.02666
1.02539
1.05597
1.05536
1.05454
1.05357
1.05256
1.05142
1.05012
1.04877
1.04734
1.04588
1.0444
1.04285
1.04138
1.03984
1.03838
1.03695
1.03553
1.0342
1.03296
1.03179
1.0306
1.02957
1.02854
1.02761
1.02667
1.0257
1.05511
1.05448
1.05355
1.0526
1.05148
1.05024
1.0489
1.04745
1.04596
1.04441
1.04283
1.04124
1.03968
1.03809
1.03663
1.03518
1.03384
1.03256
1.0314
1.03035
1.02946
1.02858
1.02784
1.02711
1.02654
1.02594
1.05432
1.05367
1.0527
1.05164
1.05047
1.04917
1.04776
1.04622
1.04462
1.04297
1.04127
1.03963
1.0379
1.03636
1.03475
1.0333
1.03199
1.03073
1.02969
1.02872
1.02806
1.02741
1.02694
1.02659
1.02628
1.02613
1.05351
1.05285
1.05186
1.05074
1.04956
1.04814
1.04667
1.04499
1.04333
1.04149
1.03975
1.03796
1.03613
1.03446
1.03282
1.03127
1.03
1.02875
1.0278
1.02693
1.02643
1.02604
1.02584
1.02571
1.02598
1.0261
1.05287
1.05211
1.05119
1.04994
1.04878
1.04699
1.04568
1.04371
1.04209
1.04005
1.03824
1.03631
1.0343
1.03257
1.03072
1.02918
1.02778
1.02655
1.02565
1.02491
1.02452
1.02428
1.02449
1.02456
1.02506
1.02588
1.05227
1.05145
1.05057
1.04909
1.04812
1.04588
1.04498
1.0423
1.04119
1.03833
1.03723
1.03407
1.03273
1.03074
1.02882
1.02716
1.02568
1.02452
1.02377
1.02324
1.02296
1.02306
1.02282
1.02432
1.0244
1.02602
1.05174
1.05087
1.04994
1.04835
1.04737
1.04512
1.04394
1.04115
1.04014
1.03677
1.03592
1.03258
1.0319
1.02831
1.0277
1.02586
1.02529
1.02488
1.02527
1.02593
1.02577
1.02562
1.02687
1.02619
1.02694
1.02757
1.05121
1.05036
1.04936
1.04773
1.04666
1.04425
1.04312
1.04018
1.03897
1.03564
1.03486
1.03105
1.03271
1.02778
1.03094
1.03398
1.03568
1.04126
1.0476
1.05392
1.05593
1.05483
1.05675
1.05083
1.04662
1.04298
1.05086
1.04995
1.04883
1.04725
1.04602
1.04357
1.04243
1.03919
1.03835
1.03453
1.03534
1.0314
1.04334
1.03726
1.05999
1.08899
1.09317
1.14107
1.17644
1.20441
1.22075
1.22028
1.20531
1.19082
1.14563
1.11625
1.05064
1.04954
1.04825
1.04668
1.04515
1.04293
1.04147
1.03861
1.03863
1.03475
1.04367
1.04105
1.10084
1.09657
1.21729
1.31377
1.42851
1.51295
1.57299
1.60745
1.6342
1.6298
1.63109
1.56418
1.57022
1.44935
1.0502
1.04935
1.0479
1.04646
1.0446
1.04287
1.04081
1.03918
1.0432
1.0424
1.08906
1.16916
1.28027
1.51397
1.63311
1.70122
1.73914
1.74748
1.75629
1.76086
1.77463
1.78392
1.78824
1.78039
1.76371
1.74162
1.04926
1.04831
1.04681
1.04533
1.04382
1.0425
1.04158
1.05124
1.06351
1.14886
1.33167
1.58436
1.73054
1.78334
1.79647
1.78095
1.75655
1.71415
1.68626
1.67449
1.68305
1.69547
1.73333
1.76402
1.77388
1.78572
1.04814
1.04713
1.04609
1.04465
1.04423
1.04413
1.0635
1.09317
1.27617
1.58016
1.77269
1.83334
1.83226
1.79635
1.72551
1.58173
1.44631
1.35113
1.29175
1.28695
1.30364
1.33376
1.42026
1.55749
1.69043
1.75832
1.04804
1.04702
1.04587
1.04569
1.04813
1.07192
1.15323
1.50429
1.76974
1.87251
1.87686
1.83111
1.71371
1.49212
1.27356
1.15719
1.123
1.1271
1.13583
1.15164
1.16118
1.18208
1.22372
1.32224
1.53463
1.70213
1.04792
1.04696
1.0466
1.05137
1.08726
1.2452
1.66836
1.88305
1.92452
1.88517
1.75651
1.50406
1.22354
1.09709
1.06559
1.07071
1.09604
1.15288
1.20221
1.22703
1.20997
1.21482
1.26443
1.41778
1.61516
1.71999
1.04769
1.04733
1.05271
1.11236
1.41746
1.81992
1.94855
1.9371
1.84104
1.61698
1.29124
1.10016
1.0427
1.03561
1.05359
1.11331
1.23541
1.34953
1.41082
1.45067
1.457
1.4453
1.51463
1.6017
1.64799
1.67376
1.04786
1.0528
1.14727
1.62732
1.95344
1.99168
1.92529
1.73603
1.45187
1.16914
1.05414
1.02506
1.02252
1.03862
1.08589
1.17062
1.30153
1.40191
1.44472
1.46653
1.47635
1.49188
1.51133
1.52499
1.48448
1.38384
1.06539
1.30649
1.87479
2.00583
1.98181
1.85426
1.62821
1.35358
1.11943
1.0371
1.01977
1.01542
1.02097
1.03498
1.04634
1.05689
1.09184
1.15316
1.20333
1.2496
1.25676
1.26746
1.23726
1.19297
1.12998
1.0682
1.64672
1.97603
2.01096
1.94798
1.78448
1.55778
1.30279
1.10525
1.03284
1.01986
1.01298
1.00939
1.00738
1.00837
1.00995
1.0122
1.02301
1.02043
1.03439
1.03546
1.04284
1.04652
1.04167
1.04007
1.04119
1.04611
1.99034
1.99959
1.91359
1.74279
1.53523
1.31173
1.12063
1.0384
1.0238
1.01311
1.00962
1.0061
1.00448
1.0039
1.00299
1.00225
1.00324
1.00593
1.00952
1.01881
1.02123
1.03598
1.04238
1.0637
1.09168
1.15367
1.99066
1.90679
1.75098
1.57693
1.37566
1.18018
1.05703
1.03893
1.02394
1.02038
1.01758
1.0188
1.02303
1.02888
1.03492
1.04463
1.05868
1.07609
1.09832
1.12849
1.17204
1.23738
1.33067
1.44865
1.57809
1.73804
1.91247
1.78606
1.63955
1.47133
1.29684
1.16022
1.09358
1.08192
1.07697
1.08383
1.10287
1.14621
1.20393
1.27378
1.34395
1.42245
1.49781
1.56825
1.63046
1.6977
1.75891
1.81749
1.86732
1.91704
1.979
1.99668
1.89176
1.80828
1.71271
1.59695
1.47644
1.40786
1.38643
1.39428
1.4174
1.49249
1.59019
1.69475
1.77118
1.82085
1.86943
1.89038
1.92105
1.91901
1.9432
1.9546
1.97127
1.98656
2.00371
2.01797
2.03143
2.04691
1.94154
1.92368
1.89296
1.86286
1.84581
1.83611
1.83576
1.84494
1.87291
1.90435
1.9306
1.95266
1.95075
1.9623
1.95977
1.9674
1.96786
1.97309
1.97875
1.98588
1.99374
2.00309
2.01333
2.02469
2.03506
2.04784
1.99004
1.98337
1.97635
1.96999
1.96645
1.96324
1.96195
1.96194
1.96468
1.96625
1.96703
1.96563
1.96457
1.96366
1.96407
1.96413
1.96617
1.96994
1.97475
1.98142
1.99001
1.99954
2.00998
2.02082
2.03217
2.04274
1.99565
1.99122
1.98698
1.98256
1.97891
1.9747
1.97174
1.96861
1.96611
1.96353
1.96081
1.95808
1.9556
1.95417
1.95372
1.95477
1.95698
1.96101
1.96685
1.97417
1.98309
1.99317
2.00423
2.01575
2.02713
2.03847
1.9877
1.98318
1.97952
1.97498
1.97059
1.96648
1.96257
1.95882
1.95521
1.95213
1.94908
1.94672
1.94447
1.94346
1.9435
1.94475
1.94756
1.95185
1.95798
1.96567
1.975
1.98547
1.9966
2.00831
2.02041
2.0313
1.97586
1.97205
1.96789
1.96355
1.95937
1.95502
1.95125
1.94723
1.94373
1.94054
1.93738
1.93508
1.93265
1.93205
1.93172
1.93329
1.93603
1.94065
1.94686
1.95499
1.96501
1.97613
1.98782
2.00024
2.01251
2.02393
1.96553
1.96142
1.95779
1.95347
1.94921
1.94487
1.94079
1.93667
1.93283
1.92934
1.92582
1.92292
1.92005
1.91884
1.91821
1.91951
1.92151
1.92651
1.93297
1.94141
1.95161
1.96334
1.976
1.98907
2.00247
2.01496
1.95605
1.95245
1.94811
1.94425
1.93945
1.93523
1.93072
1.92652
1.92221
1.91833
1.91423
1.91073
1.90727
1.90479
1.90377
1.90397
1.90627
1.90954
1.91668
1.92492
1.93584
1.94818
1.96194
1.97615
1.99026
2.00427
1.94741
1.94406
1.94005
1.93563
1.93139
1.92652
1.92194
1.91714
1.9122
1.90741
1.90255
1.89809
1.89393
1.89053
1.888
1.88709
1.88786
1.89068