/*--------------------------------*- C++ -*----------------------------------*\
  =========                 |
  \\      /  F ield         | OpenFOAM: The Open Source CFD Toolbox
   \\    /   O peration     | Website:  https://openfoam.org
    \\  /    A nd           | Version:  10
     \\/     M anipulation  |
\*---------------------------------------------------------------------------*/
FoamFile
{
    format      ascii;
    class       volScalarField;
    location    "0.551757";
    object      T;
}
// * * * * * * * * * * * * * * * * * * * * * * * * * * * * * * * * * * * * * //

dimensions      [0 0 0 1 0 0 0];

internalField   nonuniform List<scalar> 
15708
(
0.00877709
0.00878583
0.00879443
0.00880208
0.00880881
0.00881484
0.00882014
0.00882508
0.00882956
0.00883393
0.00883834
0.00884244
0.00884707
0.00885067
0.00885566
0.00885873
0.00886395
0.00886729
0.00887177
0.00887605
0.00887986
0.00888394
0.00888804
0.00889185
0.00889546
0.00889915
0.00890274
0.00890626
0.00890954
0.00891269
0.00891576
0.0089187
0.0089216
0.00892438
0.00892691
0.00892938
0.00893159
0.00893366
0.00893568
0.0089374
0.00893905
0.00894056
0.00894182
0.00894273
0.00894357
0.00894423
0.00894469
0.00894503
0.00894512
0.00894497
0.00894462
0.00878028
0.00878889
0.00879693
0.00880408
0.00881042
0.00881601
0.00882105
0.00882572
0.00882993
0.00883424
0.00883818
0.00884241
0.00884622
0.00885042
0.00885418
0.00885823
0.00886207
0.0088661
0.00886999
0.00887389
0.00887768
0.00888159
0.00888531
0.00888897
0.00889258
0.00889614
0.00889963
0.00890301
0.00890616
0.00890915
0.00891209
0.00891499
0.00891781
0.00892059
0.00892307
0.00892553
0.0089278
0.0089299
0.00893189
0.00893374
0.00893542
0.00893697
0.00893827
0.00893942
0.00894031
0.008941
0.00894158
0.00894178
0.00894202
0.00894189
0.00894154
0.00878175
0.00879015
0.0087979
0.00880469
0.00881082
0.00881629
0.00882122
0.00882581
0.00882992
0.00883409
0.00883782
0.00884202
0.0088455
0.00884969
0.00885317
0.00885705
0.00886083
0.00886454
0.00886839
0.00887208
0.00887575
0.00887938
0.00888291
0.00888637
0.00888982
0.00889322
0.00889657
0.00889988
0.00890292
0.00890583
0.00890871
0.00891158
0.0089144
0.00891708
0.00891961
0.00892204
0.00892437
0.00892651
0.00892855
0.00893049
0.00893218
0.00893379
0.00893532
0.00893645
0.00893733
0.00893798
0.0089386
0.00893902
0.00893918
0.00893901
0.0089387
0.00878212
0.00879021
0.00879762
0.00880424
0.00881039
0.00881554
0.00882071
0.0088248
0.00882926
0.00883286
0.00883688
0.00884054
0.00884419
0.00884799
0.00885156
0.00885519
0.00885888
0.00886245
0.00886609
0.00886972
0.00887332
0.00887679
0.00888017
0.00888357
0.00888696
0.00889021
0.00889346
0.00889665
0.00889959
0.00890242
0.00890523
0.00890814
0.00891093
0.00891365
0.00891615
0.0089185
0.00892085
0.00892302
0.00892513
0.00892716
0.00892897
0.00893059
0.00893208
0.00893336
0.00893443
0.00893518
0.00893575
0.00893616
0.00893628
0.00893614
0.00893581
0.00878216
0.00878968
0.00879667
0.00880301
0.00880907
0.00881387
0.00881932
0.00882272
0.00882801
0.00883056
0.00883537
0.0088384
0.00884223
0.00884615
0.00884926
0.00885292
0.0088566
0.00886007
0.0088634
0.00886702
0.00887049
0.00887382
0.0088771
0.00888049
0.00888378
0.00888697
0.00889022
0.00889331
0.00889626
0.00889902
0.00890187
0.00890471
0.00890746
0.00891018
0.00891265
0.0089151
0.00891744
0.00891967
0.00892182
0.00892382
0.00892576
0.00892744
0.00892894
0.00893031
0.00893147
0.00893231
0.00893297
0.00893341
0.00893344
0.00893331
0.00893295
0.00877917
0.00878716
0.00879442
0.00880166
0.00880619
0.00881266
0.00881572
0.00882145
0.00882423
0.00882904
0.00883184
0.00883672
0.00883944
0.00884361
0.00884702
0.00885029
0.00885396
0.00885726
0.00886058
0.00886394
0.00886736
0.00887075
0.00887407
0.0088774
0.00888059
0.00888371
0.00888687
0.00888988
0.00889275
0.0088955
0.00889832
0.00890118
0.00890394
0.00890665
0.0089092
0.00891168
0.00891404
0.00891645
0.00891863
0.00892061
0.00892256
0.00892432
0.00892586
0.00892732
0.00892859
0.00892951
0.00893022
0.00893062
0.00893062
0.00893046
0.00893
0.00877545
0.00878556
0.00879264
0.00879916
0.00880337
0.00881031
0.00881301
0.00881854
0.0088213
0.00882621
0.00882927
0.00883458
0.00883707
0.00884084
0.00884233
0.00884616
0.00884899
0.00885299
0.00885648
0.00886017
0.00886394
0.00886756
0.00887104
0.00887442
0.00887753
0.00888061
0.00888362
0.00888651
0.00888923
0.00889201
0.00889482
0.00889768
0.00890043
0.00890315
0.00890571
0.00890823
0.00891061
0.00891304
0.00891535
0.00891751
0.00891956
0.00892145
0.00892302
0.00892449
0.00892579
0.00892672
0.00892745
0.00892793
0.00892792
0.00892776
0.00892726
0.00877915
0.00878104
0.00878651
0.00879181
0.00880201
0.00880513
0.00881148
0.00881425
0.00881916
0.00882203
0.00882698
0.00882959
0.00883342
0.0088352
0.00884013
0.00884176
0.00884597
0.00885023
0.00885373
0.00885701
0.00886018
0.00886353
0.00886727
0.00887088
0.00887414
0.00887712
0.00888004
0.00888281
0.00888551
0.00888836
0.00889121
0.00889415
0.0088969
0.00889972
0.00890223
0.00890482
0.00890734
0.00890979
0.00891224
0.00891436
0.00891637
0.00891841
0.00892019
0.00892164
0.00892292
0.00892404
0.00892474
0.00892521
0.00892529
0.00892504
0.00892447
0.00877148
0.00878312
0.0087874
0.00879417
0.00879695
0.00880114
0.00880385
0.00880894
0.00881207
0.00881705
0.00882003
0.00882503
0.00882765
0.00883257
0.0088356
0.00883981
0.00884317
0.00884673
0.00885006
0.00885365
0.00885713
0.00886055
0.0088637
0.00886689
0.00887007
0.00887308
0.00887616
0.008879
0.00888183
0.00888476
0.00888762
0.00889054
0.00889333
0.00889605
0.00889867
0.00890126
0.00890392
0.00890641
0.00890888
0.00891124
0.00891343
0.00891544
0.00891721
0.00891877
0.00892015
0.00892129
0.00892197
0.00892256
0.00892261
0.00892231
0.00892171
0.00876969
0.00877794
0.00878028
0.00878658
0.00878792
0.00879232
0.00879852
0.00880375
0.00880882
0.00881296
0.00881677
0.00881977
0.00882388
0.00882781
0.00883136
0.00883574
0.0088392
0.00884293
0.00884619
0.00884991
0.00885326
0.0088566
0.00886003
0.00886346
0.0088664
0.00886948
0.00887228
0.0088753
0.00887816
0.00888098
0.00888392
0.00888676
0.00888946
0.0088923
0.00889508
0.00889767
0.00890032
0.00890304
0.00890557
0.00890794
0.00891024
0.00891241
0.00891432
0.0089161
0.00891747
0.0089187
0.00891944
0.00892003
0.00892014
0.00891985
0.00891909
0.00876378
0.00876838
0.00877772
0.00878123
0.00878789
0.00879076
0.00879583
0.00879849
0.00880309
0.00880576
0.00881057
0.00881355
0.00881898
0.00882253
0.0088287
0.00882969
0.00883354
0.0088367
0.0088412
0.00884515
0.00884879
0.0088523
0.00885594
0.00885916
0.00886249
0.0088656
0.00886867
0.00887158
0.0088744
0.00887726
0.00888005
0.00888294
0.00888572
0.00888841
0.00889122
0.00889401
0.00889673
0.00889939
0.00890202
0.0089047
0.00890707
0.00890928
0.00891139
0.00891321
0.00891475
0.00891605
0.00891689
0.00891735
0.00891738
0.00891709
0.00891644
0.00876274
0.00876769
0.00877246
0.00877686
0.0087797
0.00878446
0.0087876
0.00879327
0.00879592
0.00880083
0.0088048
0.00880866
0.0088128
0.00881703
0.008821
0.00882546
0.00882996
0.00883375
0.00883781
0.00884145
0.00884519
0.00884859
0.00885216
0.00885561
0.00885845
0.00886148
0.00886435
0.0088674
0.00887017
0.00887308
0.00887591
0.00887878
0.00888171
0.00888449
0.00888717
0.00889004
0.00889293
0.00889571
0.00889844
0.00890112
0.0089038
0.00890609
0.00890827
0.00891028
0.00891194
0.00891324
0.00891422
0.00891481
0.00891483
0.00891454
0.0089138
0.00875228
0.00876405
0.00876663
0.00876898
0.00877227
0.00877588
0.00878215
0.00878551
0.00879159
0.00879421
0.00879951
0.00880282
0.00880717
0.00881139
0.00881572
0.00882026
0.0088244
0.00882883
0.00883301
0.00883681
0.00884057
0.0088446
0.00884814
0.00885136
0.0088542
0.00885735
0.00886026
0.00886329
0.00886619
0.00886899
0.00887169
0.00887433
0.00887695
0.00887984
0.00888319
0.00888646
0.00888938
0.00889205
0.00889474
0.00889746
0.00890009
0.00890267
0.00890505
0.00890713
0.0089089
0.00891031
0.0089114
0.00891189
0.00891219
0.00891195
0.00891145
0.00875229
0.00875315
0.00875988
0.00876395
0.00876984
0.00877287
0.00877661
0.00878003
0.00878404
0.00878801
0.00879188
0.00879687
0.00880063
0.00880521
0.00881033
0.00881429
0.00881952
0.0088238
0.00882813
0.00883228
0.0088364
0.00884007
0.0088438
0.00884705
0.0088502
0.00885312
0.00885602
0.0088588
0.00886166
0.00886457
0.00886732
0.00886988
0.00887256
0.00887563
0.00887911
0.00888211
0.00888486
0.00888776
0.00889066
0.00889359
0.00889649
0.00889914
0.00890166
0.00890399
0.00890588
0.00890743
0.00890846
0.00890917
0.0089093
0.0089092
0.00890852
0.00874879
0.00875435
0.00875756
0.00876058
0.0087624
0.008766
0.00876862
0.00877252
0.00877693
0.00878067
0.00878606
0.00878935
0.00879461
0.00879882
0.00880409
0.00880857
0.00881434
0.00881834
0.00882349
0.00882796
0.00883198
0.00883603
0.00883929
0.00884269
0.00884598
0.00884897
0.00885185
0.00885459
0.00885729
0.00885996
0.00886258
0.00886524
0.00886814
0.0088709
0.00887388
0.00887708
0.00888046
0.00888378
0.00888657
0.00888947
0.00889246
0.00889533
0.00889812
0.00890058
0.00890278
0.00890462
0.00890592
0.00890679
0.00890703
0.00890692
0.00890627
0.0087469
0.00874911
0.00875113
0.00875342
0.00875495
0.00875791
0.00875892
0.00876565
0.00877012
0.00877412
0.00877601
0.00878145
0.00878691
0.00879307
0.00879888
0.00880439
0.00880943
0.00881391
0.00881857
0.00882292
0.00882727
0.00883129
0.00883502
0.00883835
0.00884162
0.00884461
0.00884741
0.00885003
0.00885275
0.00885529
0.00885775
0.00886052
0.00886313
0.008866
0.00886914
0.00887209
0.00887545
0.00887829
0.00888196
0.00888522
0.00888836
0.00889156
0.00889462
0.00889721
0.0088996
0.00890154
0.00890305
0.00890398
0.00890435
0.0089045
0.00890448
0.00874348
0.00874311
0.00874423
0.00874668
0.00875068
0.00875293
0.00875508
0.00875789
0.00876272
0.00876504
0.0087705
0.00877578
0.00878131
0.00878608
0.00879076
0.00879525
0.00880206
0.00880791
0.00881382
0.00881904
0.00882364
0.00882739
0.00883123
0.00883445
0.00883761
0.00884049
0.00884302
0.0088456
0.00884799
0.00885025
0.00885269
0.00885523
0.0088581
0.00886085
0.0088636
0.0088669
0.00887018
0.00887349
0.00887695
0.00888048
0.00888393
0.00888735
0.00889069
0.00889363
0.0088964
0.00889875
0.0089007
0.00890187
0.00890236
0.00890247
0.00890233
0.00873879
0.00873832
0.00874135
0.00874189
0.00874338
0.00874247
0.00874593
0.00874935
0.00875471
0.0087593
0.00876405
0.00876966
0.00877482
0.00878062
0.00878597
0.0087921
0.00879743
0.00880346
0.00880887
0.00881437
0.00881867
0.00882307
0.00882698
0.00883042
0.00883343
0.00883594
0.00883838
0.00884079
0.00884285
0.00884509
0.00884732
0.00884978
0.00885256
0.0088553
0.0088581
0.00886113
0.00886449
0.00886828
0.00887184
0.00887544
0.00887921
0.00888318
0.0088867
0.00889015
0.00889314
0.0088958
0.00889824
0.00889974
0.00890061
0.00890077
0.0089005
0.00873674
0.00873656
0.0087366
0.00873697
0.00873741
0.00873832
0.00873877
0.0087418
0.00874535
0.008751
0.00875669
0.00876198
0.00876787
0.00877439
0.00878059
0.00878794
0.00879319
0.00879927
0.00880456
0.00880979
0.00881469
0.00881897
0.00882275
0.00882626
0.00882937
0.00883193
0.00883409
0.00883618
0.00883768
0.00883973
0.00884177
0.00884418
0.00884661
0.00884913
0.00885241
0.00885465
0.00885886
0.00886215
0.00886677
0.00887022
0.00887441
0.00887815
0.00888267
0.0088866
0.00889016
0.00889294
0.00889516
0.00889688
0.00889818
0.00889838
0.00889857
0.00873611
0.00873419
0.0087316
0.0087301
0.00873097
0.00873177
0.00873208
0.00873544
0.00873879
0.0087426
0.00874846
0.00875561
0.00876169
0.00876717
0.0087722
0.00877978
0.00878662
0.00879406
0.00880087
0.00880602
0.00881109
0.00881502
0.00881907
0.00882253
0.00882556
0.00882791
0.00883022
0.00883174
0.00883298
0.00883443
0.00883613
0.00883776
0.00884026
0.00884276
0.00884526
0.00884991
0.00884931
0.00885841
0.00885712
0.00886644
0.00886839
0.00887381
0.00887803
0.00888255
0.00888641
0.00888975
0.00889264
0.00889527
0.00889757
0.00889827
0.00889812
0.00873508
0.0087333
0.00873073
0.00872803
0.00872596
0.00872572
0.00872666
0.00872895
0.0087299
0.00873517
0.00873985
0.00874539
0.00875356
0.00876093
0.00876847
0.0087758
0.00878266
0.00878947
0.00879625
0.00880273
0.00880814
0.00881276
0.00881631
0.0088191
0.00882122
0.00882282
0.00882486
0.00882602
0.00882705
0.00882834
0.00882948
0.00883146
0.00883354
0.00883566
0.00883825
0.00884225
0.00884437
0.00884832
0.00885581
0.00885556
0.00886501
0.00886647
0.00887431
0.00887894
0.00888384
0.00888812
0.00889132
0.00889419
0.00889626
0.00889779
0.0088977
0.0087279
0.00872703
0.00872407
0.00872085
0.00871861
0.00871867
0.00871995
0.00872053
0.00872538
0.00872748
0.00873404
0.00873943
0.0087459
0.00875387
0.00876171
0.00877072
0.00877808
0.00878559
0.00879205
0.00879832
0.00880382
0.00880857
0.00881262
0.0088158
0.0088185
0.00882034
0.00882192
0.00882237
0.00882295
0.00882324
0.00882389
0.00882491
0.00882618
0.0088279
0.00883166
0.00883229
0.00883859
0.00884056
0.00884578
0.0088528
0.00885872
0.00886354
0.00887001
0.0088753
0.00888076
0.0088862
0.00889017
0.00889387
0.00889614
0.00889736
0.00889778
0.00871966
0.00871985
0.00871819
0.00871529
0.00871313
0.00871089
0.00871156
0.00871399
0.00871445
0.00872237
0.00872698
0.00873266
0.00873988
0.00874875
0.00875776
0.00876787
0.00877722
0.00878511
0.00879192
0.00879845
0.00880356
0.00880814
0.00881154
0.00881398
0.00881567
0.00881647
0.00881687
0.00881662
0.00881598
0.00881595
0.00881602
0.00881686
0.00881822
0.0088187
0.00882343
0.0088228
0.00883093
0.0088308
0.00884232
0.00884212
0.00885283
0.00886198
0.0088679
0.0088738
0.00888021
0.00888616
0.00889045
0.00889557
0.00889827
0.00889996
0.00890004
0.00870652
0.00870903
0.00870647
0.00870321
0.00869993
0.00869682
0.00869799
0.00869806
0.00870575
0.00870927
0.00871889
0.00872849
0.00873614
0.00874507
0.00875484
0.00876535
0.00877548
0.00878545
0.00879312
0.00879952
0.00880472
0.00880857
0.00881134
0.00881276
0.00881378
0.00881415
0.00881403
0.00881305
0.00881104
0.00881005
0.00880838
0.00880754
0.00880789
0.00880875
0.00881173
0.00881619
0.00881527
0.00882618
0.00882313
0.00883641
0.008844
0.00884414
0.00886132
0.00886995
0.00887812
0.00888564
0.00889031
0.00889611
0.00890222
0.00890681
0.00890773
0.0086922
0.00868705
0.00868663
0.00867696
0.00866511
0.00865775
0.00864208
0.00863933
0.00863988
0.00865139
0.00866428
0.00868816
0.00870758
0.00872524
0.00874184
0.00875701
0.00877105
0.00878401
0.00879526
0.00880388
0.008809
0.00881141
0.00881298
0.00881335
0.00881361
0.00881241
0.00881046
0.0088082
0.00880449
0.00880254
0.00879903
0.00879545
0.00879548
0.00879472
0.00879398
0.00879024
0.00878377
0.00878404
0.00878386
0.00878034
0.00879593
0.00881199
0.00880717
0.00883491
0.00885738
0.00887415
0.00888518
0.00889365
0.00890125
0.00891144
0.00891656
0.00865165
0.0085688
0.00858119
0.00844228
0.00830653
0.00829202
0.00821787
0.00813966
0.00814688
0.0081604
0.00823793
0.00836411
0.00846422
0.00856393
0.00864594
0.0087067
0.00874469
0.00876878
0.00878823
0.00880181
0.00881138
0.00881572
0.00881665
0.00881628
0.00881524
0.00881223
0.0088071
0.00880207
0.00879866
0.00879137
0.00877979
0.00877478
0.00876421
0.0087463
0.00871255
0.0086552
0.00866107
0.00859165
0.00853762
0.00853514
0.00853133
0.00857267
0.0086325
0.0086939
0.00876211
0.00881494
0.00885069
0.00887432
0.00889285
0.0089094
0.00891645
0.00822871
0.00776371
0.00730901
0.00697186
0.00654383
0.00629511
0.00609496
0.00594304
0.00597357
0.00598428
0.00629751
0.00627894
0.00715395
0.00775829
0.00819525
0.00845833
0.00862249
0.00872278
0.00877411
0.00879849
0.00881165
0.00881858
0.0088203
0.00881966
0.00881792
0.00881192
0.0088028
0.00879639
0.0087851
0.00877651
0.00871992
0.00871379
0.00862355
0.00849692
0.00834186
0.0080649
0.00781837
0.00758776
0.00730278
0.00724092
0.00729714
0.00738556
0.00770064
0.00805235
0.00837424
0.00860598
0.00874731
0.00882568
0.0088724
0.00890268
0.00891387
0.0057582
0.00541395
0.005156
0.00499725
0.00488026
0.00480675
0.00474614
0.0047044
0.00471002
0.00476869
0.00478527
0.00508418
0.00506045
0.00580767
0.00672886
0.00776088
0.00831772
0.00857554
0.0087069
0.00877473
0.00880591
0.00881776
0.0088198
0.00882032
0.00881509
0.00880695
0.00879582
0.00877725
0.00876234
0.00867187
0.0086549
0.0082252
0.00764276
0.00687755
0.0062941
0.00582809
0.00555937
0.00537987
0.00531031
0.00533107
0.00536696
0.00555885
0.00577402
0.00630651
0.00722163
0.00805092
0.0084393
0.00865384
0.00880777
0.00888714
0.00890956
0.00479597
0.00477648
0.00475555
0.0047589
0.00475587
0.00474134
0.00470484
0.00468026
0.0046522
0.00465226
0.00465326
0.00471234
0.00472621
0.00501391
0.00549024
0.0065498
0.00753214
0.00818694
0.0085423
0.00871376
0.00878619
0.00881177
0.00881741
0.00881597
0.00881066
0.00879294
0.00877834
0.00868162
0.00862654
0.00798098
0.00681997
0.00584973
0.00527049
0.00497206
0.00482828
0.0047618
0.0047398
0.00473522
0.00474136
0.00475853
0.0047845
0.0048651
0.00499389
0.00529864
0.00582059
0.00691543
0.00800385
0.00859333
0.00881747
0.00889743
0.00890566
0.00499713
0.00523077
0.005423
0.00566218
0.00576953
0.00574511
0.00566755
0.00548687
0.00527074
0.00503308
0.00481187
0.00474495
0.00476151
0.00484094
0.00514224
0.00599416
0.00720534
0.00806301
0.00851686
0.00871392
0.00878839
0.00881097
0.00881371
0.00881114
0.00878998
0.00876791
0.00857998
0.00800117
0.00636836
0.00534062
0.0048479
0.00468564
0.00465354
0.00467086
0.00474629
0.00483056
0.00483521
0.00482489
0.00479472
0.00475788
0.00471754
0.00472224
0.00476739
0.00495065
0.00555505
0.00692278
0.00810655
0.00868357
0.0088769
0.00890215
0.00888383
0.00676424
0.00723173
0.00746505
0.00753669
0.00753446
0.00750146
0.00740319
0.00722343
0.0068508
0.00632516
0.0055988
0.00508604
0.00486465
0.00489057
0.00518068
0.00611123
0.00735281
0.00816889
0.00857692
0.00874558
0.00880048
0.00880969
0.00880625
0.00878819
0.00870446
0.00815291
0.00634382
0.00509664
0.00466583
0.00458731
0.00461395
0.00474506
0.00505423
0.00536076
0.00560028
0.00573561
0.00569778
0.00554984
0.005342
0.00512804
0.00491621
0.0047275
0.00474492
0.00500146
0.00571143
0.00735757
0.00850804
0.00883414
0.00886768
0.00873919
0.00795178
0.00817449
0.00810615
0.00799331
0.00787273
0.00782251
0.00781428
0.00781505
0.00776161
0.00755185
0.00691374
0.00575231
0.00509899
0.0049141
0.00499199
0.00543193
0.00663363
0.00783154
0.00847145
0.00872494
0.00879688
0.0088067
0.00880267
0.00877014
0.00844113
0.00649463
0.00495538
0.00457437
0.00453708
0.00462489
0.00491083
0.00549339
0.00629928
0.00694935
0.00732252
0.00742456
0.0073923
0.00723027
0.00692024
0.00635214
0.00564495
0.00497725
0.00473631
0.00485128
0.00519084
0.00657475
0.00833308
0.00874229
0.00877616
0.00841564
0.00688559
0.00512447
0.00829185
0.00796619
0.00753102
0.00715445
0.00704711
0.00717998
0.00748279
0.00750964
0.00716384
0.00623114
0.00536318
0.00505884
0.0050121
0.00534891
0.00638888
0.00781275
0.00849131
0.00873459
0.00879633
0.00880081
0.00876645
0.0084184
0.00635634
0.00510181
0.00460161
0.00452469
0.00462324
0.00494702
0.00565322
0.006827
0.00768715
0.00802118
0.00806815
0.00801185
0.00775093
0.0075318
0.00734401
0.00697053
0.00632198
0.00549473
0.00496397
0.00488257
0.00500907
0.00639357
0.00809053
0.00859041
0.00862333
0.00797261
0.00604433
0.00489313
0.00462103
0.00802404
0.00741872
0.00674898
0.00626186
0.0060708
0.00605052
0.00615942
0.00620818
0.00572759
0.00537978
0.00523886
0.00520704
0.00570128
0.00668474
0.00803123
0.00855471
0.00873358
0.00876859
0.00872163
0.00837362
0.00683287
0.00540341
0.00466373
0.00452614
0.00459209
0.0048633
0.00547018
0.00659158
0.00781869
0.00828493
0.00832133
0.00806747
0.0075597
0.00711076
0.00705255
0.00707241
0.00699001
0.00656369
0.00561059
0.00517649
0.00507564
0.0050009
0.00676979
0.00782634
0.0083706
0.00837367
0.00740092
0.00568778
0.00469585
0.00462898
0.00458678
0.00793695
0.00729289
0.00660425
0.00608457
0.00588703
0.00577265
0.00573371
0.00565774
0.00558226
0.0055533
0.00577281
0.00628056
0.00750723
0.00839367
0.00858001
0.00869241
0.00867076
0.0084006
0.00750246
0.0056865
0.00482277
0.00459869
0.00456354
0.00473047
0.00518636
0.00603097
0.00738032
0.0082902
0.00844527
0.00829147
0.00767841
0.00686389
0.00632584
0.00612738
0.00608959
0.0060039
0.00593605
0.00553113
0.00528581
0.00515908
0.00498812
0.00725407
0.00770875
0.00808603
0.0080219
0.00668072
0.0053588
0.00460157
0.00456898
0.00454151
0.00460667
0.00837064
0.00797298
0.00737324
0.0067735
0.00647817
0.00621395
0.00621424
0.00620136
0.00643853
0.00687157
0.00755184
0.00835495
0.00842542
0.00858969
0.00858499
0.00836978
0.00763452
0.00597975
0.00502072
0.00466511
0.00457479
0.0046393
0.00490329
0.00551725
0.00646309
0.00780469
0.00842258
0.00850937
0.00832618
0.00778585
0.00707854
0.00642678
0.00600634
0.00592155
0.005784
0.00578805
0.00559954
0.00558687
0.00553126
0.00568609
0.00747538
0.00776063
0.00775823
0.00736662
0.00617124
0.00517242
0.00450816
0.00451242
0.00448991
0.00450161
0.00456274
0.00857468
0.00848629
0.0083618
0.0081678
0.00788501
0.00789142
0.00782612
0.00792742
0.00815595
0.00829258
0.00840839
0.00847989
0.00839829
0.00823707
0.00767346
0.00623014
0.0052493
0.00468689
0.00461881
0.00458092
0.00471002
0.00505822
0.00570413
0.00662961
0.00789916
0.00847143
0.00857776
0.00850481
0.00821124
0.00768809
0.00703883
0.00645004
0.00619211
0.00595677
0.0059613
0.0059349
0.00596605
0.00616138
0.00676645
0.00768469
0.00758952
0.00749363
0.00690902
0.00574813
0.00466323
0.00462701
0.00444035
0.00444172
0.00443531
0.00444603
0.0044521
0.00859343
0.00855924
0.00854062
0.00850964
0.00848626
0.00845014
0.00845358
0.00842252
0.008416
0.00836381
0.00827793
0.00800608
0.00739952
0.00620332
0.00494237
0.00493019
0.00459929
0.00457287
0.00459526
0.00474988
0.00512579
0.00568674
0.00653835
0.007729
0.0084327
0.00862567
0.00862333
0.0085584
0.0083169
0.00795003
0.00748396
0.00716453
0.00679063
0.00681955
0.00676248
0.00683013
0.0070106
0.0074554
0.00734096
0.00733041
0.00703118
0.00629119
0.00531555
0.00452601
0.00452843
0.00442908
0.00440155
0.00440105
0.00440112
0.00440232
0.00440181
0.00837398
0.00837986
0.00839068
0.00838456
0.00836152
0.00831413
0.00823103
0.00809615
0.00784644
0.00743018
0.00672391
0.0058307
0.00511959
0.00480626
0.00458887
0.00458333
0.00454093
0.00460555
0.00475601
0.00508201
0.0055297
0.00621833
0.00719114
0.00818078
0.00860399
0.00861549
0.00864408
0.00859236
0.00847756
0.00829032
0.0080854
0.00790817
0.00775232
0.00767081
0.00756931
0.00750223
0.00744204
0.00733248
0.0071285
0.00664107
0.00561358
0.00464646
0.00468358
0.00441969
0.00442116
0.00437988
0.00437644
0.00437874
0.00438009
0.00437888
0.00437697
0.00745238
0.00751353
0.00750628
0.00743042
0.0072734
0.00702148
0.0066719
0.00626049
0.00578226
0.00535339
0.00496455
0.00472694
0.00458199
0.0045544
0.00451809
0.00452871
0.00457516
0.00471638
0.00493754
0.00527827
0.00578226
0.00652446
0.00749725
0.00820504
0.00861857
0.00859046
0.00861596
0.00858061
0.00848086
0.00834499
0.00818629
0.00805388
0.00789394
0.00773726
0.00755989
0.00737215
0.00707754
0.00654756
0.00569976
0.00477185
0.00475415
0.00445727
0.00447448
0.0043703
0.00437109
0.00436019
0.00436325
0.00436571
0.00436646
0.00436589
0.00436222
0.00571424
0.00569726
0.00562637
0.00551485
0.00543614
0.0052301
0.00506613
0.00492004
0.00473356
0.00460608
0.00454671
0.00452473
0.00449644
0.00449313
0.00450107
0.00454993
0.00463682
0.00479054
0.00501128
0.00535766
0.00586693
0.00656453
0.00738837
0.00837518
0.00837586
0.00856136
0.00850159
0.00850694
0.00838979
0.00823801
0.00810197
0.00787678
0.00765854
0.00733843
0.0069158
0.00624918
0.00562406
0.00496186
0.00477258
0.00445345
0.00451296
0.00437752
0.0043784
0.00434907
0.00434926
0.00435032
0.00435378
0.00435563
0.00435478
0.00435425
0.00435121
0.00479023
0.00479388
0.00475949
0.00472057
0.00469163
0.00462652
0.00454125
0.00454006
0.00448681
0.00446805
0.00447061
0.00446583
0.00447191
0.00448453
0.00451439
0.00456957
0.00465853
0.00479526
0.00500244
0.00531731
0.00576557
0.00636319
0.00708614
0.00760088
0.00830723
0.00814598
0.00823556
0.00815633
0.00802494
0.0077689
0.00740373
0.00693968
0.00645636
0.00590964
0.00539642
0.00503991
0.00472711
0.00455008
0.00443239
0.00440138
0.00435745
0.00435088
0.00433693
0.00433655
0.00434035
0.00434421
0.00434414
0.00434516
0.00434472
0.00434383
0.00434122
0.0045083
0.00449737
0.00449807
0.0044779
0.00447448
0.00445246
0.00445047
0.0044457
0.00444484
0.00444916
0.00445382
0.00446093
0.00447381
0.00448997
0.00452244
0.00456739
0.00464039
0.00474676
0.00490374
0.00513551
0.00544841
0.00585065
0.00632509
0.00682305
0.00700465
0.00716941
0.00713808
0.00705823
0.00672501
0.00631127
0.0058969
0.00555916
0.00523923
0.00494629
0.00471877
0.00457484
0.00439871
0.00442419
0.00435002
0.00435161
0.00432944
0.00432931
0.00432713
0.00433076
0.00433466
0.00433677
0.00433806
0.0043379
0.00433765
0.0043358
0.00433367
0.004426
0.00442761
0.00442728
0.00442769
0.0044274
0.00442912
0.0044321
0.004438
0.00444317
0.00444911
0.00445534
0.0044663
0.00448039
0.00449706
0.00451814
0.00455244
0.00459923
0.00467168
0.00477571
0.00492059
0.00511313
0.00534776
0.00561298
0.00579247
0.00591533
0.00592947
0.00590466
0.00578471
0.00551559
0.00526371
0.00503399
0.0048589
0.00469554
0.00455339
0.00446314
0.00438664
0.00436766
0.00433979
0.00433367
0.00432081
0.00432166
0.00432084
0.00432338
0.00432725
0.00432895
0.00433173
0.00433146
0.00433166
0.00433085
0.00432948
0.00432736
0.00441051
0.00441357
0.00441388
0.0044223
0.00442117
0.00443193
0.00443122
0.00444466
0.0044488
0.00445642
0.0044662
0.00447606
0.0044884
0.0044996
0.00451744
0.00453841
0.00456768
0.00461117
0.00467224
0.00475231
0.00485341
0.00497253
0.00508929
0.00515597
0.00518528
0.00518643
0.005152
0.0050371
0.00487985
0.00474531
0.00463523
0.00455053
0.00447068
0.00440654
0.00437366
0.00435208
0.00432886
0.00432887
0.00432212
0.00431614
0.00431691
0.0043181
0.00432065
0.00432206
0.00432463
0.00432662
0.00432784
0.00432899
0.00432955
0.00432957
0.0043287
0.00440807
0.00441279
0.00441774
0.00442285
0.00443009
0.00443604
0.00444476
0.00445159
0.00446135
0.00446938
0.00447894
0.00448767
0.00449683
0.00450625
0.00452047
0.00453102
0.00455084
0.00457139
0.00460249
0.00464151
0.00468705
0.00473443
0.0047808
0.0047889
0.00479706
0.00478735
0.00474545
0.0046677
0.00458922
0.00452196
0.00447166
0.00442852
0.00439127
0.00436103
0.00434907
0.00433622
0.00432283
0.00432574
0.00431463
0.00431485
0.00431398
0.00431523
0.00431719
0.00431932
0.00432318
0.00432542
0.00432904
0.0043313
0.00433314
0.00433371
0.00433415
0.00441234
0.00441876
0.0044247
0.00443138
0.00443872
0.00444623
0.00445579
0.00446317
0.00447123
0.00448105
0.00448932
0.00449882
0.00450719
0.00451467
0.00452195
0.00453236
0.00454025
0.00455321
0.00456322
0.0045783
0.00459391
0.00460635
0.00461296
0.00461403
0.00460943
0.00458756
0.00455477
0.00450897
0.00446798
0.00443312
0.00440798
0.00438364
0.0043637
0.00434709
0.00434031
0.00432892
0.00432279
0.00431883
0.00431246
0.00431309
0.00431227
0.00431442
0.00431657
0.0043202
0.00432514
0.00432999
0.0043363
0.00433968
0.00434367
0.00434714
0.00434855
0.00441729
0.00442283
0.00443116
0.00443791
0.00444663
0.00445554
0.00446416
0.00447347
0.00448371
0.00449201
0.00450174
0.00450949
0.00451827
0.0045227
0.00452989
0.00453398
0.00454047
0.00454478
0.00454616
0.00454961
0.00454827
0.00454918
0.00454022
0.00453402
0.00451823
0.00449817
0.00447244
0.00444531
0.00442186
0.0044026
0.00438713
0.00437111
0.00435799
0.00434663
0.00433892
0.00432934
0.00432364
0.00431567
0.00431554
0.00431275
0.0043125
0.00431517
0.00431831
0.00432443
0.00433046
0.0043361
0.00434256
0.00434808
0.00435401
0.00435868
0.00436245
0.00442106
0.00442847
0.00443748
0.00444541
0.00445506
0.00446447
0.00447416
0.00448449
0.00449362
0.00450415
0.00451253
0.00452136
0.00452809
0.0045338
0.004539
0.00454184
0.00454524
0.0045433
0.0045428
0.00453762
0.00453018
0.00452298
0.00450931
0.00449776
0.00448062
0.00446332
0.00444408
0.00442603
0.00441008
0.00439592
0.00438307
0.00436984
0.0043582
0.00434736
0.00433916
0.00432951
0.00432426
0.00431949
0.00431374
0.00431416
0.00431373
0.00431788
0.00432373
0.00433192
0.0043399
0.00434931
0.00436005
0.00436979
0.00437977
0.00438958
0.00439749
0.00442413
0.00443332
0.00444233
0.00445175
0.00446258
0.0044735
0.00448508
0.00449212
0.00450656
0.00451303
0.00452466
0.0045313
0.00453865
0.00454362
0.00454803
0.00455092
0.00454832
0.00454902
0.00454257
0.00453673
0.00452586
0.00451491
0.00450052
0.00448649
0.00447021
0.00445434
0.00443812
0.0044231
0.0044091
0.00439621
0.00438359
0.00437101
0.00435959
0.00434935
0.00434098
0.00433237
0.00432498
0.00432068
0.0043169
0.00431679
0.00431825
0.00432463
0.00433007
0.00433858
0.00434843
0.00435894
0.00437042
0.00438174
0.00439373
0.004404
0.00441448
0.00442823
0.00443709
0.00444814
0.0044575
0.00446959
0.00448098
0.00449238
0.00450232
0.00451448
0.00452277
0.00453427
0.00454141
0.00454815
0.004553
0.00455673
0.00455883
0.00455554
0.00455603
0.00454621
0.00453786
0.00452952
0.00451467
0.00450169
0.00448533
0.00447033
0.0044542
0.00443881
0.0044241
0.00441053
0.00439788
0.004386
0.00437447
0.00436426
0.00435456
0.00434514
0.0043351
0.00433067
0.00432073
0.00432251
0.00431818
0.00431692
0.00431866
0.00432173
0.00432728
0.00433607
0.00434441
0.00435133
0.00436427
0.00437112
0.0043817
0.00438687
0.00894401
0.00894321
0.00894194
0.00894059
0.00893867
0.00893659
0.00893385
0.00893093
0.00892756
0.00892352
0.00891912
0.00891427
0.00890906
0.00890294
0.00889622
0.0088891
0.00888127
0.0088731
0.00886418
0.00885487
0.008845
0.00883416
0.00882326
0.00881147
0.00879927
0.00878705
0.00894098
0.00894016
0.00893896
0.00893744
0.00893558
0.00893332
0.00893081
0.00892756
0.00892438
0.00892023
0.00891584
0.00891105
0.00890573
0.00889983
0.00889339
0.00888632
0.0088788
0.0088709
0.00886221
0.0088532
0.0088433
0.00883318
0.00882245
0.00881104
0.00879914
0.00878731
0.00893814
0.0089371
0.00893602
0.0089344
0.00893251
0.00893013
0.00892755
0.0089244
0.00892096
0.00891715
0.0089127
0.00890783
0.00890258
0.00889691
0.0088906
0.00888381
0.00887636
0.00886862
0.0088603
0.00885143
0.008842
0.008832
0.00882185
0.0088107
0.00879946
0.00878777
0.00893512
0.00893414
0.00893278
0.00893117
0.00892914
0.00892688
0.00892412
0.00892108
0.00891737
0.00891358
0.00890913
0.00890433
0.00889908
0.00889349