/*--------------------------------*- C++ -*----------------------------------*\
  =========                 |
  \\      /  F ield         | OpenFOAM: The Open Source CFD Toolbox
   \\    /   O peration     | Website:  https://openfoam.org
    \\  /    A nd           | Version:  10
     \\/     M anipulation  |
\*---------------------------------------------------------------------------*/
FoamFile
{
    format      ascii;
    class       volScalarField;
    location    "0.751362";
    object      p;
}
// * * * * * * * * * * * * * * * * * * * * * * * * * * * * * * * * * * * * * //

dimensions      [1 -1 -2 0 0 0 0];

internalField   nonuniform List<scalar> 
16320
(
0.94533
0.92457
0.903094
0.881285
0.859746
0.839129
0.819564
0.801539
0.785063
0.770012
0.755774
0.743156
0.730839
0.718971
0.707961
0.696997
0.686369
0.676122
0.666806
0.658888
0.652399
0.647947
0.645231
0.644078
0.644375
0.645772
0.648639
0.651702
0.654431
0.657115
0.658551
0.660131
0.660239
0.934508
0.914774
0.894036
0.872905
0.851826
0.831541
0.812353
0.794497
0.778341
0.763679
0.750385
0.737693
0.726548
0.715361
0.704964
0.694493
0.684264
0.674163
0.664991
0.65731
0.650895
0.646566
0.643946
0.64292
0.643328
0.644964
0.647884
0.65106
0.654147
0.656697
0.658945
0.66041
0.660565
0.918406
0.900151
0.88084
0.860737
0.840763
0.821318
0.802873
0.785811
0.770181
0.756008
0.743484
0.732064
0.721206
0.711249
0.701761
0.691497
0.682647
0.672734
0.663784
0.656539
0.650117
0.646147
0.643773
0.642974
0.643532
0.645394
0.64838
0.651676
0.654998
0.657483
0.660035
0.661546
0.661909
0.896138
0.879655
0.862293
0.844185
0.825701
0.807633
0.790403
0.774596
0.760007
0.747021
0.735022
0.724838
0.715385
0.706371
0.697584
0.688314
0.6812
0.671662
0.66302
0.65621
0.650196
0.646556
0.644523
0.644058
0.644824
0.646963
0.650107
0.653574
0.656782
0.65975
0.662273
0.663803
0.664291
0.868497
0.853729
0.838485
0.822452
0.806316
0.790287
0.774876
0.760556
0.747514
0.736046
0.725249
0.716187
0.708154
0.700565
0.69278
0.684863
0.679175
0.670569
0.662643
0.656716
0.651016
0.647872
0.646272
0.646233
0.647326
0.64985
0.653117
0.656508
0.659917
0.663085
0.6655
0.667
0.667181
0.83829
0.824564
0.81079
0.796996
0.783124
0.769365
0.75617
0.743906
0.732817
0.723129
0.71482
0.706512
0.7002
0.694275
0.688055
0.681536
0.676903
0.66954
0.662537
0.657281
0.65247
0.649969
0.6489
0.649226
0.650769
0.653537
0.656835
0.660514
0.664035
0.667069
0.669384
0.670726
0.670728
0.807841
0.794358
0.781379
0.769053
0.757196
0.745756
0.734974
0.725124
0.716324
0.708716
0.702494
0.697368
0.691497
0.687917
0.683723
0.678699
0.674781
0.668727
0.662824
0.6584
0.654526
0.652653
0.652156
0.652875
0.654915
0.658035
0.661501
0.665183
0.668664
0.671661
0.673823
0.674959
0.675903
0.779457
0.764853
0.751952
0.740326
0.729907
0.720534
0.712151
0.704798
0.698436
0.693255
0.689145
0.686269
0.682752
0.68097
0.678775
0.675476
0.67245
0.668016
0.663328
0.659727
0.656991
0.655681
0.655802
0.657065
0.659665
0.662876
0.666533
0.670275
0.67369
0.676649
0.679058
0.680624
0.683008
0.754351
0.737731
0.7237
0.712227
0.702837
0.695168
0.68896
0.683877
0.679926
0.677074
0.67517
0.674484
0.674164
0.673107
0.673026
0.671615
0.669314
0.667516
0.663906
0.661205
0.659648
0.658804
0.659557
0.661494
0.664416
0.667973
0.671752
0.675532
0.679116
0.682467
0.685018
0.688152
0.689367
0.731711
0.7137
0.698326
0.686391
0.677497
0.670954
0.66655
0.663501
0.661681
0.661084
0.661468
0.663004
0.665185
0.665458
0.667123
0.667513
0.666563
0.666596
0.664533
0.662735
0.662051
0.662053
0.663367
0.665898
0.669146
0.672955
0.676941
0.681112
0.685095
0.688866
0.692136
0.694794
0.69688
0.712618
0.693595
0.677178
0.66433
0.655301
0.649377
0.646119
0.644742
0.644826
0.646059
0.648721
0.652328
0.656338
0.65843
0.661925
0.663931
0.664425
0.665555
0.664804
0.664185
0.664383
0.665217
0.667104
0.670069
0.673653
0.677826
0.682601
0.687106
0.691275
0.695547
0.699203
0.702461
0.705105
0.697259
0.67557
0.658406
0.645182
0.636017
0.630657
0.62835
0.628382
0.629865
0.633081
0.637547
0.642775
0.648463
0.652616
0.657579
0.660997
0.662869
0.664822
0.665176
0.665654
0.66667
0.668393
0.670871
0.674413
0.678614
0.683154
0.687834
0.692794
0.697644
0.702402
0.706645
0.710291
0.713506
0.684352
0.662211
0.643831
0.629558
0.61985
0.614776
0.613354
0.614767
0.617611
0.622258
0.628248
0.634988
0.642242
0.648264
0.654459
0.659043
0.66207
0.664679
0.666043
0.66745
0.669236
0.671621
0.674651
0.678562
0.68307
0.688012
0.693301
0.698778
0.704138
0.709265
0.71398
0.717982
0.721525
0.67407
0.651334
0.631825
0.616497
0.60624
0.601437
0.60099
0.603363
0.607731
0.613813
0.621166
0.629355
0.63805
0.645649
0.652825
0.65832
0.662257
0.665303
0.667828
0.669944
0.672383
0.6753
0.678818
0.683102
0.687981
0.693338
0.699033
0.7049
0.710654
0.716192
0.721282
0.725161
0.728604
0.665614
0.642439
0.622189
0.606247
0.595603
0.591032
0.591396
0.594991
0.600538
0.607875
0.616601
0.626213
0.636096
0.644918
0.652834
0.658941
0.66359
0.667359
0.67068
0.673521
0.676586
0.679927
0.683868
0.688502
0.693733
0.699404
0.705359
0.711488
0.71739
0.723134
0.727818
0.732154
0.735566
0.658979
0.635758
0.615556
0.599323
0.588659
0.584454
0.585228
0.589758
0.596319
0.604897
0.614924
0.625742
0.636524
0.646049
0.654393
0.661212
0.666723
0.671233
0.674977
0.678447
0.681867
0.685758
0.690161
0.695157
0.700558
0.706373
0.712395
0.71866
0.724216
0.729553
0.734491
0.738791
0.741243
0.655711
0.632886
0.613039
0.596356
0.585828
0.581772
0.58278
0.587843
0.5954
0.605078
0.615991
0.627563
0.639115
0.649495
0.658313
0.66573
0.671759
0.676715
0.680947
0.684943
0.688941
0.693228
0.697879
0.70289
0.708461
0.714486
0.720171
0.725938
0.731738
0.736763
0.740978
0.744999
0.747812
0.654849
0.632767
0.613734
0.597197
0.586614
0.582645
0.583919
0.589287
0.597494
0.607969
0.619903
0.632492
0.644788
0.655434
0.664297
0.671931
0.678321
0.683729
0.688497
0.693011
0.697481
0.702108
0.707013
0.712306
0.71775
0.723375
0.729054
0.734435
0.739661
0.743852
0.74824
0.751841
0.754195
0.656705
0.636266
0.618432
0.602259
0.5921
0.588424
0.589377
0.59482
0.603504
0.614614
0.627191
0.640072
0.65235
0.662786
0.671725
0.679488
0.686169
0.692109
0.697451
0.702436
0.707329
0.71229
0.717496
0.722687
0.728095
0.733414
0.738632
0.743519
0.748201
0.752425
0.756098
0.759319
0.761159
0.661018
0.64232
0.625845
0.61066
0.601398
0.598056
0.59882
0.604198
0.612895
0.623952
0.636351
0.649054
0.660865
0.671022
0.680106
0.6881
0.695002
0.701442
0.707334
0.712809
0.718259
0.72348
0.728743
0.733975
0.739161
0.74422
0.749027
0.753904
0.758496
0.762137
0.765408
0.768004
0.767421
0.666571
0.650417
0.635015
0.621613
0.61315
0.610138
0.610827
0.615882
0.624099
0.634631
0.646398
0.658354
0.669461
0.67963
0.688893
0.697178
0.7045
0.711209
0.717617
0.723611
0.729308
0.734921
0.740372
0.745769
0.751031
0.756153
0.761182
0.765845
0.770126
0.773392
0.775221
0.775721
0.774905
0.673009
0.658769
0.645877
0.634014
0.626047
0.623447
0.624167
0.628743
0.636065
0.645457
0.656355
0.667616
0.678256
0.688321
0.697649
0.706171
0.713893
0.720895
0.727501
0.733987
0.740215
0.74627
0.752151
0.757863
0.76369
0.769365
0.774625
0.779455
0.783499
0.784773
0.785425
0.784654
0.782382
0.680198
0.666728
0.655236
0.645495
0.639632
0.636849
0.637453
0.641488
0.647802
0.656454
0.666265
0.676537
0.686792
0.6967
0.705961
0.71445
0.722367
0.729846
0.73692
0.743765
0.750544
0.757203
0.76401
0.770748
0.777114
0.78338
0.789037
0.793097
0.795753
0.796845
0.796315
0.794191
0.790542
0.687747
0.674574
0.664083
0.65555
0.650749
0.649091
0.649639
0.652978
0.65857
0.666252
0.675142
0.68467
0.694344
0.703839
0.713024
0.72172
0.729939
0.737712
0.745301
0.752717
0.760341
0.768051
0.775676
0.783283
0.790664
0.797126
0.802449
0.806493
0.808803
0.809321
0.808129
0.805191
0.800752
0.694134
0.68264
0.671989
0.665104
0.66087
0.65952
0.659921
0.662885
0.667991
0.674889
0.683015
0.691859
0.70099
0.710121
0.719058
0.727728
0.736085
0.744262
0.752603
0.760933
0.769315
0.77792
0.786699
0.794423
0.802346
0.809415
0.815212
0.81957
0.822243
0.822968
0.822351
0.81952
0.814245
0.699917
0.689541
0.68033
0.673106
0.669801
0.668649
0.668852
0.671445
0.676064
0.68232
0.689735
0.697876
0.706396
0.715112
0.723844
0.732634
0.741314
0.749966
0.758677
0.76764
0.776869
0.785997
0.795097
0.803976
0.812448
0.820275
0.827064
0.832681
0.837132
0.839806
0.840203
0.837935
0.832339
0.704828
0.695344
0.687249
0.680897
0.677555
0.676356
0.676539
0.678905
0.683115
0.688794
0.695613
0.703216
0.71127
0.719563
0.727982
0.736446
0.745153
0.754136
0.763247
0.772482
0.78198
0.791796
0.801533
0.811201
0.820577
0.829775
0.838547
0.846714
0.853804
0.85921
0.861851
0.860938
0.855576
0.708618
0.699987
0.692605
0.686938
0.683983
0.682932
0.683102
0.685184
0.688988
0.694138
0.70036
0.707341
0.714816
0.722653
0.730797
0.739151
0.74768
0.756363
0.765555
0.775249
0.785101
0.795251
0.805508
0.816186
0.827059
0.838073
0.849299
0.860414
0.87087
0.879833
0.885856
0.887733
0.884297
0.710953
0.702937
0.696242
0.69141
0.688842
0.68795
0.688314
0.690316
0.693824
0.698549
0.704245
0.710615
0.717462
0.724634
0.732194
0.740114
0.748449
0.757237
0.766397
0.776015
0.786014
0.796657
0.807623
0.819105
0.831327
0.844245
0.85781
0.871838
0.885929
0.899236
0.91035
0.917375
0.919187
0.711767
0.704375
0.698282
0.694103
0.691956
0.691292
0.691821
0.693832
0.697102
0.701439
0.70661
0.71243
0.718774
0.725587
0.732707
0.740213
0.748223
0.756697
0.765768
0.775482
0.785518
0.796161
0.807478
0.81963
0.832792
0.847112
0.862675
0.8794
0.89718
0.915267
0.932724
0.948231
0.959774
0.710922
0.704451
0.698748
0.695188
0.693545
0.693196
0.693995
0.69599
0.699104
0.703161
0.707961
0.713321
0.719154
0.725428
0.732142
0.739297
0.747018
0.755288
0.764068
0.773445
0.783401
0.79402
0.805409
0.817765
0.831331
0.846418
0.863285
0.882267
0.903271
0.926062
0.950681
0.975821
0.998325
0.708956
0.702656
0.698093
0.695031
0.693991
0.693966
0.694907
0.696869
0.699877
0.703687
0.708193
0.713201
0.718667
0.724525
0.730832
0.73762
0.744834
0.752603
0.760932
0.769831
0.77937
0.789657
0.800831
0.813181
0.826954
0.842376
0.860213
0.880648
0.904142
0.931221
0.961764
0.994341
1.02633
0.706225
0.70014
0.69616
0.694311
0.692989
0.693572
0.69468
0.696692
0.699741
0.703345
0.707728
0.71249
0.7176
0.723086
0.729016
0.735266
0.742042
0.74926
0.756965
0.765156
0.773966
0.783497
0.79384
0.805558
0.819186
0.835071
0.853669
0.875613
0.901153
0.930896
0.965073
1.00224
1.03919
0.702772
0.696787
0.693554
0.691962
0.691499
0.692089
0.693655
0.695766
0.698865
0.702334
0.70663
0.71118
0.715976
0.7212
0.726796
0.73265
0.738892
0.745497
0.752374
0.759657
0.767538
0.77595
0.78561
0.796687
0.809805
0.825292
0.843934
0.86656
0.893886
0.925842
0.962145
1.00172
1.04165
0.699166
0.693634
0.690282
0.689235
0.688867
0.689797
0.691694
0.694199
0.697344
0.700867
0.70513
0.709448
0.713932
0.719164
0.724291
0.729741
0.735455
0.741278
0.747344
0.753536
0.760471
0.768139
0.776787
0.786914
0.799097
0.814204
0.832272
0.854857
0.882819
0.915849
0.953913
0.99562
1.0377
0.695547
0.690236
0.686909
0.686405
0.686101
0.686991
0.689218
0.692216
0.695275
0.699021
0.703205
0.707325
0.711673
0.716574
0.721369
0.726455
0.731501
0.736631
0.741869
0.74753
0.753276
0.759845
0.767393
0.776634
0.787859
0.803574
0.821828
0.843673
0.870512
0.90261
0.940738
0.98321
1.02724
0.692335
0.687415
0.68432
0.682941
0.683243
0.684176
0.686514
0.689895
0.692709
0.696717
0.700769
0.704554
0.709201
0.713459
0.717998
0.722591
0.727121
0.731698
0.736174
0.740897
0.745841
0.75136
0.758185
0.767249
0.779363
0.79143
0.808706
0.830495
0.85693
0.887892
0.923413
0.963658
1.00577
0.689779
0.685058
0.68192
0.680368
0.680674
0.681601
0.68381
0.687109
0.690051
0.694027
0.697919
0.701474
0.70607
0.709956
0.714178
0.718351
0.722586
0.726231
0.730031
0.73404
0.738609
0.743951
0.751268
0.758613
0.76924
0.782824
0.800483
0.822404
0.848293
0.877747
0.910246
0.946171
0.983649
0.688259
0.683642
0.680391
0.678737
0.678846
0.679567
0.68149
0.68463
0.687062
0.691017
0.69475
0.698089
0.702383
0.705959
0.70982
0.713699
0.717311
0.720345
0.723737
0.727346
0.731506
0.736567
0.74285
0.751385
0.76285
0.777872
0.796518
0.818793
0.844542
0.873362
0.904445
0.93741
0.970597
0.688003
0.68348
0.680064
0.678216
0.678033
0.67838
0.679729
0.682465
0.684367
0.688027
0.69149
0.694571
0.698379
0.701648
0.705214
0.708824
0.711467
0.71429
0.717483
0.721184
0.724988
0.728539
0.736962
0.746652
0.759526
0.775975
0.796164
0.819406
0.845453
0.873655
0.903502
0.933875
0.963156
0.689099
0.684654
0.681101
0.678795
0.678112
0.678055
0.678674
0.680797
0.682281
0.685342
0.688336
0.69114
0.694169
0.697119
0.70026
0.703397
0.705566
0.708503
0.711435
0.714586
0.718385
0.723038
0.732378
0.743588
0.757979
0.776029
0.797251
0.821436
0.847779
0.87573
0.904477
0.932794
0.958398
0.691549
0.687262
0.683724
0.680999
0.679569
0.67897
0.679061
0.680172
0.681189
0.683381
0.685495
0.688031
0.69026
0.69273
0.695498
0.697653
0.699964
0.702523
0.705245
0.708526
0.712629
0.719367
0.729228
0.7418
0.757662
0.777671
0.799625
0.824386
0.851098
0.87892
0.90689
0.932613
0.954086
0.695344
0.69126
0.687696
0.684727
0.682422
0.680996
0.680452
0.680542
0.681029
0.682237
0.68348
0.685289
0.686781
0.688631
0.690755
0.692205
0.694357
0.696749
0.69952
0.703026
0.707761
0.715873
0.726282
0.740274
0.758663
0.778989
0.80214
0.827823
0.855075
0.883014
0.909265
0.932093
0.949781
0.700599
0.696629
0.693106
0.689673
0.686852
0.684596
0.682931
0.681951
0.681618
0.682001
0.682464
0.683141
0.683923
0.685077
0.686506
0.687399
0.689253
0.691519
0.694345
0.698193
0.703998
0.712946
0.724832
0.740438
0.759108
0.780651
0.805034
0.831627
0.859428
0.886292
0.91052
0.930576
0.94481
0.707236
0.703378
0.699884
0.69598
0.692547
0.689493
0.687009
0.685103
0.683622
0.682744
0.682389
0.682041
0.681978
0.68233
0.683233
0.683577
0.685035
0.687087
0.690035
0.69419
0.701172
0.710763
0.723599
0.73992
0.759364
0.782293
0.807841
0.835005
0.862031
0.887323
0.909703
0.927431
0.938399
0.715317
0.711516
0.708489
0.704226
0.700036
0.695966
0.692404
0.689443
0.686774
0.684691
0.683299
0.682211
0.681218
0.680668
0.680718
0.68073
0.681782
0.68362
0.686768
0.691308
0.698969
0.709033
0.722196
0.738951
0.759754
0.783423
0.809237
0.835827
0.861841
0.885885
0.906502
0.92209
0.930111
0.724833
0.721885
0.717925
0.714012
0.709145
0.704094
0.699776
0.695425
0.691669
0.688324
0.685737
0.683508
0.681858
0.680693
0.679945
0.679519
0.679758
0.681241
0.684311
0.689162
0.696738
0.706922
0.719954
0.73843
0.759353
0.783032
0.808356
0.833873
0.858638
0.881352
0.900587
0.913846
0.919479
0.735482
0.733286
0.729951
0.725442
0.720371
0.71485
0.708947
0.703528
0.698465
0.693973
0.68982
0.686368
0.683893
0.682004
0.680768
0.679813
0.679901
0.680638
0.682979
0.686989
0.693875
0.70529
0.719732
0.736912
0.757442
0.780234
0.804216
0.828271
0.851789
0.873362
0.891311
0.902055
0.905722
0.746929
0.745689
0.743046
0.739094
0.733809
0.727303
0.720981
0.71414
0.707664
0.701696
0.696404
0.691836
0.687511
0.683728
0.681765
0.679978
0.679781
0.680376
0.68278
0.687824
0.6946
0.70417
0.717712
0.733828
0.753188
0.774189
0.79642
0.819204
0.841521
0.861864
0.878251
0.886672
0.888509
0.758874
0.758816
0.757137
0.753603
0.748742
0.742313
0.734895
0.727225
0.719567
0.712122
0.705394
0.699536
0.694422
0.690582
0.686604
0.684988
0.68313
0.683153
0.684499
0.687703
0.693584
0.70223
0.714483
0.729146
0.74606
0.765393
0.786088
0.807282
0.827973
0.846796
0.861239
0.867831
0.868081
0.770759
0.772012
0.771507
0.769018
0.764385
0.758569
0.750815
0.742515
0.734117
0.725376
0.716981
0.709646
0.703354
0.697806
0.692908
0.689247
0.686558
0.685516
0.685802
0.688135
0.692857
0.700757
0.710783
0.72333
0.738021
0.75516
0.773833
0.792958
0.811597
0.827988
0.840537
0.846049
0.845448
0.784543
0.785375
0.785782
0.78418
0.780525
0.774557
0.768002
0.759193
0.749577
0.740791
0.731404
0.722344
0.714632
0.707392
0.701006
0.695887
0.691884
0.689533
0.688961
0.690218
0.693358
0.698792
0.707218
0.717824
0.730569
0.744405
0.760075
0.776783
0.793397
0.80784
0.818808
0.82345
0.823098
0.797231
0.799293
0.799863
0.7988
0.795825
0.79081
0.783334
0.775003
0.766588
0.756656
0.74693
0.736382
0.727538
0.719613
0.71231
0.705881
0.700443
0.696198
0.693516
0.692768
0.694181
0.696975
0.702047
0.710766
0.721848
0.734981
0.749037
0.763668
0.778173
0.790955
0.800623
0.80482
0.804465
0.810084
0.812348
0.812842
0.81244
0.809828
0.805344
0.799006
0.790967
0.780858
0.770195
0.760412
0.751082
0.741217
0.731741
0.722929
0.715002
0.708168
0.702333
0.697429
0.693291
0.692573
0.694618
0.699378
0.705929
0.714805
0.725678
0.737966
0.750989
0.76399
0.77582
0.785077
0.789752
0.790197
0.822672
0.825628
0.82688
0.824547
0.822264
0.817996
0.811957
0.80422
0.794925
0.784584
0.77315
0.76104
0.749451
0.73854
0.728435
0.719078
0.710742
0.703639
0.69816
0.695261
0.693388
0.693671
0.69607
0.70069
0.707634
0.716661
0.727292
0.738955
0.750929
0.762092
0.771296
0.777188
0.779183
0.834381
0.838344
0.839542
0.838514
0.833682
0.829261
0.82317
0.815069
0.805571
0.795174
0.783948
0.772105
0.760154
0.748447
0.737215
0.726622
0.716949
0.708526
0.701714
0.696577
0.693066
0.69153
0.692205
0.695231
0.700489
0.707884
0.717025
0.727216
0.738303
0.749297
0.759148
0.766581
0.770635
0.84475
0.849972
0.851568
0.849989
0.846664
0.839919
0.832661
0.823907
0.813973
0.802823
0.79095
0.778735
0.76645
0.754265
0.74237
0.730981
0.720404
0.710921
0.702788
0.696327
0.691619
0.688786
0.688122
0.689655
0.693187
0.698829
0.70661
0.716169
0.726676
0.737682
0.748386
0.75722
0.763892
0.852868
0.859696
0.861945
0.860976
0.857563
0.851536
0.841625
0.831813
0.820446
0.808396
0.796048
0.78302
0.769847
0.75681
0.744212
0.732252
0.721043
0.710951
0.702255
0.695001
0.689345
0.685607
0.683734
0.683727
0.685854
0.690366
0.696199
0.703934
0.713679
0.724743
0.736459
0.747384
0.757085
0.858436
0.866887
0.870302
0.870202
0.867101
0.860214
0.851059
0.839354
0.82683
0.812537
0.799222
0.785119
0.771159
0.757379
0.744491
0.732147
0.720494
0.709945
0.700634
0.692698
0.686356
0.681701
0.679004
0.678026
0.679219
0.681537
0.685487
0.691569
0.700239
0.710805
0.722761
0.735196
0.746882
0.861009
0.870886
0.876174
0.876856
0.874149
0.867142
0.856767
0.844057
0.830483
0.817143
0.80189
0.786297
0.771678
0.757348
0.743945
0.730515
0.718153
0.707123
0.697524
0.689447
0.682893
0.677927
0.674464
0.67326
0.672542
0.673373
0.674995
0.680576
0.68631
0.694068
0.704764
0.717495
0.731316
0.86077
0.871425
0.877964
0.880578
0.877954
0.871051
0.860634
0.847623
0.832475
0.817222
0.801771
0.786787
0.770566
0.756032
0.741978
0.728964
0.716886
0.705955
0.696309
0.688094
0.681306
0.675775
0.671504
0.668172
0.666501
0.665324
0.666804
0.667248
0.669368
0.674325
0.683587
0.696137
0.711536
0.857774
0.868852
0.87652
0.880226
0.878247
0.871567
0.861134
0.84819
0.833103
0.816673
0.800461
0.784681
0.769324
0.753783
0.738223
0.725215
0.713382
0.702668
0.693141
0.684915
0.677936
0.672202
0.667426
0.663528
0.6608
0.657723
0.654801
0.652316
0.65186
0.653861
0.660593
0.671938
0.688682
0.852241
0.863575
0.871466
0.87539
0.874481
0.868792
0.858583
0.84575
0.831027
0.814605
0.797272
0.780441
0.764497
0.748975
0.73472
0.721186
0.709293
0.698843
0.689684
0.681742
0.675007
0.669108
0.66385
0.659408
0.654304
0.648575
0.64303
0.63848
0.635302
0.634465
0.635835
0.644644
0.662588
0.845256
0.855783
0.862927
0.866491
0.865944
0.861268
0.851751
0.839156
0.82478
0.80896
0.792113
0.774911
0.75876
0.743594
0.729596
0.716747
0.705299
0.695346
0.686712
0.679096
0.672512
0.666385
0.660547
0.654101
0.646848
0.63922
0.632138
0.625534
0.617682
0.611434
0.611934
0.619957
0.637493
0.837004
0.84586
0.851718
0.85423
0.853805
0.849493
0.840808
0.829055
0.815043
0.800015
0.784039
0.767813
0.751803
0.737249
0.723867
0.711855
0.701271
0.69204
0.683954
0.676558
0.669861
0.663096
0.656248
0.647923
0.639078
0.630289
0.621201
0.610178
0.599076
0.592556
0.593197
0.600707
0.617377
0.828097
0.834696
0.838608
0.839821
0.838652
0.834188
0.826198
0.815363
0.802375
0.787922
0.773077
0.758314
0.743734
0.729872
0.717542
0.706598
0.696961
0.688531
0.680902
0.673676
0.666565
0.659266
0.650606
0.640973
0.630885
0.619709
0.609053
0.594241
0.583081
0.577446
0.578725
0.586079
0.601589
0.819282
0.823
0.824606
0.824016
0.821338
0.816521
0.808785
0.798737
0.78689
0.773728
0.760002
0.746714
0.73393
0.721769
0.710591
0.700884
0.692298
0.684715
0.67744
0.670173
0.662454
0.654143
0.644231
0.633565
0.621564
0.610844
0.595206
0.580708
0.570374
0.565774
0.567944
0.574894
0.589297
0.811006
0.811683
0.81054
0.807452
0.802912
0.797213
0.789431
0.779988
0.76932
0.757586
0.745463
0.733739
0.722711
0.712494
0.703018
0.694618
0.687177
0.680205
0.673115
0.665697
0.657485
0.647952
0.6373
0.625448
0.612965
0.599956
0.583706
0.570409
0.55937
0.557534
0.559594
0.565967
0.578819
0.802873
0.800922
0.7966
0.790855
0.784488
0.777257
0.769181
0.76019
0.750318
0.740024
0.729657
0.719551
0.710464
0.702065
0.694547
0.687556
0.681162
0.674736
0.667851
0.660129
0.65122
0.640971
0.629429
0.616709
0.604567
0.588621
0.572443
0.561567
0.552213
0.550829
0.55276
0.558816
0.568992
0.794854
0.789879
0.782853
0.774719
0.766405
0.757625
0.748855
0.739969
0.730918
0.721847
0.713072
0.704832
0.697244
0.69095
0.685056
0.679591
0.674082
0.668052
0.661234
0.653257
0.643881
0.633133
0.620969
0.607589
0.595657
0.580082
0.56534
0.555282
0.546828
0.545609
0.547304
0.552545
0.561042
0.785249
0.77812
0.76895
0.758909
0.748894
0.738872
0.729331
0.720312
0.711793
0.703758
0.696412
0.689785
0.683991
0.67893
0.674625
0.670576
0.665864
0.660322
0.653572
0.645366
0.635792
0.624955
0.612877
0.599311
0.588297
0.572868
0.560166
0.550864
0.543617
0.542296
0.543515
0.547446
0.554077
0.772926
0.764785
0.754392
0.743159
0.732069
0.721354
0.711221
0.701998
0.69375
0.686469
0.680254
0.674988
0.670612
0.666814
0.663744
0.660409
0.656465
0.651427
0.644963
0.637239
0.628098
0.617714
0.60601
0.592822
0.582386
0.568677
0.557547
0.548779
0.54234
0.540848
0.541484
0.543884
0.548569
0.757471
0.74937
0.73889
0.727457
0.716046
0.705075
0.69485
0.685441
0.677308
0.670541
0.665138
0.661009
0.65773
0.655073
0.652585
0.650039
0.646667
0.64225
0.636365
0.629046
0.620561
0.611035
0.600453
0.588637
0.578318
0.566867
0.557223
0.549119
0.543214
0.540946
0.540764
0.541713
0.544698
0.739578
0.732407
0.722955
0.712132
0.701101
0.690427
0.680381
0.670948
0.662805
0.656353
0.651601
0.648241
0.645954
0.644083
0.642321
0.640318
0.637614
0.63375
0.628779
0.622446
0.614973
0.606571
0.597288
0.587085
0.577637
0.567504
0.558745
0.551305
0.545489
0.542246
0.540532
0.540666
0.542776
0.720959
0.715229
0.706469
0.69697
0.686963
0.677032
0.667813
0.658553
0.650488
0.644276
0.640022
0.63732
0.635574
0.634426
0.633293
0.631825
0.629807
0.626747
0.622635
0.617417
0.611195
0.604098
0.596218
0.587439
0.578841
0.570098
0.562096
0.55478
0.548852
0.544461
0.541701
0.540559
0.540435
0.70386
0.698596
0.691661
0.683447
0.674462
0.665388
0.656959
0.648219
0.640453
0.634593
0.630792
0.628556
0.627286
0.62655
0.625936
0.625037
0.623578
0.621356
0.618245
0.614247
0.609282
0.603563
0.596903
0.58952
0.582003
0.574295
0.566597
0.55922
0.552815
0.547717
0.54334
0.540149
0.538785
0.688739
0.684756
0.678861
0.671614
0.663601
0.655547
0.647929
0.640086
0.632985
0.627647
0.624299
0.622388
0.621398
0.620959
0.620658
0.620222
0.619369
0.617941
0.615729
0.612848
0.609234
0.604587
0.599249
0.593157
0.586491
0.57937
0.571814
0.564161
0.557339
0.550869
0.54474
0.54036
0.538102
0.67831
0.674
0.66846
0.662005
0.654987
0.647964
0.641229
0.634566
0.628419
0.623817
0.620883
0.619076
0.618131
0.617736
0.617594
0.617459
0.617109
0.616359
0.615063
0.613144
0.610428
0.607052
0.602749
0.597568
0.591549
0.584864
0.577301
0.569047
0.562001
0.553801
0.546711
0.541562
0.538377
0.672471
0.66761
0.662007
0.656012
0.64988
0.643669
0.637736
0.632018
0.626946
0.623135
0.620519
0.618708
0.617688
0.617066
0.616773
0.616686
0.616602
0.616301
0.615564
0.614348
0.61272
0.610307
0.60679
0.602165
0.596533
0.590074
0.582324
0.574176
0.565489
0.556839
0.549179
0.543695
0.538743
0.670512
0.665272
0.659711
0.653876
0.64821
0.642605
0.637335
0.632539
0.628407
0.625099
0.62258
0.620661
0.619274
0.618283
0.617667
0.617405
0.617228
0.617066
0.616738
0.616058
0.615092
0.613165
0.609889
0.605522
0.6005
0.594879
0.587155
0.577789
0.569346
0.560638
0.551684
0.546156
0.542046
0.670779
0.665837
0.660597
0.655052
0.649818
0.644813
0.640228
0.636247
0.632836
0.629965
0.627419
0.625089
0.622966
0.621199
0.619913
0.619079
0.618427
0.618022
0.617619
0.616796
0.616105
0.61487
0.612966
0.609093
0.603295
0.597203
0.589389
0.580469
0.57237
0.563989
0.555824
0.549716
0.545755
0.674029
0.669153
0.664194
0.659258
0.654428
0.649987
0.646175
0.643147
0.640272
0.637595
0.634746
0.631648
0.628486
0.625453
0.622832
0.620909
0.619463
0.618569
0.618767
0.618257
0.61814
0.61609
0.612454
0.608278
0.600398
0.595832
0.59038
0.582093
0.573752
0.565776
0.558343
0.552397
0.548705
0.679831
0.675684
0.670853
0.665342
0.660414
0.656587
0.653707
0.651664
0.649516
0.647064
0.643969
0.640157
0.636255
0.632292
0.6288
0.62581
0.62319
0.620659
0.61798
0.615439
0.613532
0.60943
0.604841
0.602991
0.600889
0.595895
0.589732
0.582721
0.575131
0.567572
0.560562
0.55508
0.551982
0.687056
0.683452
0.679218
0.674791
0.670855
0.667523
0.664907
0.663635
0.661352
0.659158
0.656276
0.651181
0.64447
0.637615
0.631298
0.626086
0.621733
0.616844
0.611633
0.607202
0.605841
0.605119
0.60389
0.600828
0.597379
0.593197
0.588093
0.582
0.575186
0.568268
0.56212
0.557458
0.555251
0.694429
0.690796
0.686716
0.682983
0.679457
0.67682
0.675614
0.674724
0.673526
0.671154
0.666089
0.658339
0.649295
0.639589
0.630153
0.621776
0.615078
0.610523
0.60737
0.603821
0.599706
0.597859
0.596173
0.594031
0.591521
0.588443
0.584539
0.579759
0.574262
0.568608
0.563676
0.560408
0.559698
0.702373
0.698541
0.694721
0.690963
0.687357
0.684252
0.681562
0.679435
0.677098
0.673956
0.66918
0.662645
0.653586
0.643213
0.63252
0.622668
0.613775
0.606294
0.59964
0.594392
0.59054
0.588107
0.586235
0.584556
0.582938
0.581128
0.578776
0.575733
0.572043
0.568214
0.565097
0.563739
0.564903
0.710056
0.706306
0.701917
0.697247
0.693131
0.689462
0.686341
0.683488
0.680265
0.676165
0.670098
0.662071
0.651784
0.639903
0.627504
0.615943
0.605318
0.596378
0.588774
0.582702
0.578152
0.574925
0.572765
0.571584
0.571006
0.570729
0.57037
0.569624
0.568474
0.567197
0.566629
0.567641
0.571095
0.71898
0.714802
0.709704
0.704651
0.699605
0.695083
0.690828
0.686935
0.682536
0.677672
0.67121
0.662659
0.651318
0.637272
0.622499
0.608117
0.595142
0.584177
0.575339
0.568202
0.562864
0.558973
0.556448
0.555365
0.555564
0.556738
0.558621
0.560671
0.562795
0.564877
0.567541
0.571748
0.578246
0.729785
0.724876
0.719237
0.713271
0.707221
0.701251
0.695564
0.690283
0.685153
0.679006
0.671155
0.66055
0.647356
0.631681
0.614983
0.598781
0.584131
0.571395
0.561014
0.552486
0.545761
0.540689
0.537303
0.53575
0.536135
0.538453
0.542752
0.548229
0.554309
0.560683
0.567513
0.575554
0.585222
0.742686
0.73701
0.730547
0.723632
0.716499
0.709216
0.701801
0.694545
0.687141
0.678968
0.669224
0.657322
0.642692
0.625725
0.607558
0.589686
0.573404
0.558834
0.546498
0.536067
0.527519
0.520884
0.516328
0.514086
0.514278
0.517256
0.523232
0.532274
0.543176
0.555111
0.567105
0.578685
0.591171
0.757048
0.750706
0.743369
0.735436
0.727026
0.718021
0.708761
0.699122
0.689481
0.679398
0.668138
0.65472
0.638906
0.620973
0.601642
0.582411
0.564061
0.547355
0.532766
0.520436
0.510133
0.502314
0.496401
0.493174
0.492967
0.496293
0.503442
0.514832
0.529715
0.546521
0.563317
0.57906
0.593979
0.771753
0.76508
0.756999
0.748085
0.738513
0.728122
0.716903
0.704948
0.692991
0.680874
0.667976
0.65357
0.637218
0.618932
0.599272
0.579153
0.559526
0.541252
0.524317
0.509296
0.497053
0.487194
0.480204
0.475891
0.474928
0.477817
0.485283
0.498113
0.515725
0.536777
0.557866
0.576972
0.593901
0.785159
0.778914
0.770395
0.760632
0.749944
0.738349
0.725508
0.711558
0.697588
0.683659
0.669417
0.654241
0.637601
0.619274
0.599407
0.578956
0.558646
0.53923
0.521195
0.504994
0.491086
0.480009
0.471757
0.465995
0.463189
0.463959
0.470515
0.483523
0.502873
0.527061
0.55174
0.572931
0.591751
0.796604
0.790609
0.782569
0.772263
0.760537
0.747813
0.733988
0.718926
0.703364
0.687969
0.672743
0.657057
0.640581
0.622563
0.603113
0.582543
0.561654
0.541298
0.522209
0.504844
0.49028
0.478434
0.469312
0.462722
0.458435
0.457287
0.460435
0.471582
0.491362
0.518103
0.546351
0.570233
0.589567
0.805211
0.799985
0.792025
0.782153
0.769982
0.75641
0.741714
0.726292
0.710033
0.693856
0.677899
0.661961
0.645525
0.628158
0.6097
0.589994
0.569335
0.548652
0.528846
0.510526
0.494363
0.481168
0.470713
0.462787
0.45742
0.455047
0.456403
0.463955
0.48116
0.509781
0.542619
0.570863
0.590482
0.811368
0.806451
0.799136
0.789285
0.777745
0.764031
0.74901
0.733162
0.71695
0.700656
0.684432
0.668303
0.65198
0.635241
0.617984
0.59976
0.580094
0.559637
0.539636
0.520805
0.503557
0.488827
0.476815
0.467375
0.460205
0.455696
0.454788
0.458688
0.472363
0.500096
0.53895
0.578441
0.600245
0.814945
0.809833
0.803163
0.794205
0.783033
0.769918
0.755638
0.73989
0.723783
0.707562
0.691452
0.675431
0.659368
0.643209
0.626785
0.610272
0.592373
0.572917
0.553144
0.534204
0.516504
0.500579
0.487187
0.476246
0.46746
0.460635
0.456535
0.456785
0.463777
0.484516
0.524714
0.580468
0.612004
0.659504
0.657065
0.655498
0.65236
0.647247
0.642404
0.638137
0.634967
0.659931
0.65762
0.656387
0.653362
0.648283
0.643555
0.639319
0.636076
0.661174
0.659271
0.658244
0.655051
0.650341
0.645894
0.641872
0.638896
0.663747
0.662128
0.660927
0.657582
0.653533
0.64953
0.645865
0.64325
0.666766
0.666515
0.664647
0.661434
0.658071
0.654602
0.651444
0.649124
0.670731
0.671364
0.669283
0.666752
0.664005
0.661109
0.658478
0.656566
0.677431
0.676422
0.675253
0.67344
0.671253
0.669062
0.666801
0.6651
0.683103
0.683016
0.682557
0.681286
0.679892
0.67776
0.676156
0.67479
0.690256
0.690867
0.690847
0.690367
0.688853
0.687624
0.68576
0.684847
0.698495
0.699458
0.700042
0.699493
0.698616
0.697431
0.695666
0.695052
0.707265
0.708574
0.708922
0.708877
0.708167
0.706753
0.705039
0.70472
0.715963
0.716951
0.717842
0.717775
0.716476
0.715847
0.714222
0.71211
0.723671
0.725295
0.726232
0.725378