/*--------------------------------*- C++ -*----------------------------------*\
  =========                 |
  \\      /  F ield         | OpenFOAM: The Open Source CFD Toolbox
   \\    /   O peration     | Website:  https://openfoam.org
    \\  /    A nd           | Version:  10
     \\/     M anipulation  |
\*---------------------------------------------------------------------------*/
FoamFile
{
    format      ascii;
    class       volScalarField;
    location    "0.751362";
    object      rho;
}
// * * * * * * * * * * * * * * * * * * * * * * * * * * * * * * * * * * * * * //

dimensions      [1 -3 0 0 0 0 0];

internalField   nonuniform List<scalar> 
16320
(
0.982435
0.94859
0.912958
0.879252
0.847225
0.817416
0.784349
0.750233
0.721867
0.702086
0.688789
0.680725
0.676902
0.669304
0.662568
0.659772
0.664477
0.665255
0.659509
0.651443
0.643562
0.637049
0.633843
0.633389
0.635488
0.638598
0.641874
0.64465
0.643669
0.633456
0.605128
0.577442
0.561078
0.945626
0.918987
0.89013
0.863789
0.837812
0.8125
0.789086
0.761987
0.732447
0.707278
0.68975
0.678372
0.672121
0.665447
0.659658
0.660405
0.673186
0.676389
0.669407
0.660495
0.6495
0.639731
0.634237
0.632611
0.632134
0.63351
0.635257
0.636686
0.63415
0.621184
0.59338
0.570789
0.558882
0.913055
0.892473
0.871132
0.849302
0.827777
0.805926
0.786451
0.767296
0.745418
0.717939
0.694888
0.679899
0.669842
0.66214
0.657231
0.660123
0.681456
0.690158
0.684183
0.674363
0.658776
0.645315
0.637521
0.633667
0.632941
0.632115
0.63399
0.633196
0.628722
0.608018
0.583365
0.565187
0.558442
0.886377
0.86783
0.851186
0.835031
0.819338
0.803234
0.787684
0.771818
0.755771
0.734983
0.706081
0.684318
0.670862
0.661994
0.655888
0.658048
0.685533
0.702842
0.699698
0.690185
0.673779
0.657091
0.645058
0.638085
0.63506
0.634724
0.633657
0.631536
0.617701
0.595154
0.573864
0.562549
0.559429
0.854512
0.839157
0.825962
0.81306
0.803804
0.793638
0.784417
0.774954
0.762392
0.748267
0.724365
0.693109
0.673014
0.661761
0.655161
0.656221
0.685434
0.709891
0.710085
0.701732
0.685819
0.669457
0.656945
0.647463
0.641831
0.639809
0.635763
0.623336
0.604047
0.583
0.569001
0.562585
0.563241
0.810179
0.800107
0.793137
0.786012
0.780054
0.774351
0.768049
0.76484
0.760157
0.750558
0.737872
0.709284
0.67839
0.661825
0.654703
0.654579
0.682703
0.714604
0.719067
0.711929
0.697096
0.68106
0.668488
0.659282
0.652743
0.645357
0.632755
0.613196
0.59286
0.57749
0.568459
0.567418
0.567812
0.770872
0.766587
0.762556
0.757478
0.753972
0.751501
0.747135
0.746606
0.749267
0.746454
0.739029
0.723571
0.687533
0.662913
0.653787
0.653077
0.678713
0.717002
0.726346
0.720918
0.707397
0.690624
0.679503
0.67085
0.661086
0.647525
0.626944
0.606279
0.589319
0.578308
0.574221
0.574699
0.586478
0.747121
0.742787
0.737212
0.730812
0.726888
0.726074
0.723932
0.725231
0.73273
0.737755
0.734967
0.727244
0.699176
0.665296
0.652376
0.651323
0.672751
0.717188
0.732153
0.729081
0.717716
0.699683
0.689319
0.679961
0.666349
0.646647
0.624955
0.606499
0.592916
0.585784
0.58643
0.595888
0.625128
0.729957
0.719863
0.71002
0.701976
0.696294
0.696432
0.699076
0.702575
0.713951
0.725967
0.72898
0.72618
0.709414
0.67019
0.651278
0.649641
0.665167
0.714017
0.736482
0.736615
0.729058
0.709755
0.697522
0.686412
0.669851
0.648903
0.628719
0.612717
0.604389
0.605445
0.615622
0.644118
0.681959
0.708189
0.690996
0.671864
0.65952
0.653554
0.654306
0.665165
0.676532
0.693686
0.712515
0.72181
0.722964
0.713558
0.675418
0.650537
0.647553
0.658937
0.707297
0.738282
0.743336
0.739716
0.725893
0.707886
0.693346
0.674986
0.655029
0.638702
0.631627
0.63515
0.647294
0.672432
0.701664
0.725853
0.672242
0.642074
0.608366
0.593485
0.589789
0.59581
0.618103
0.644387
0.672043
0.698561
0.71448
0.719121
0.714316
0.678664
0.649557
0.645297
0.654596
0.699557
0.73714
0.747293
0.747165
0.741601
0.725842
0.704522
0.685869
0.672619
0.670228
0.675303
0.684506
0.702301
0.722617
0.738807
0.747772
0.614812
0.577806
0.554066
0.541517
0.535786
0.539098
0.562599
0.606943
0.649603
0.68585
0.707924
0.715712
0.714164
0.681906
0.649552
0.643864
0.651098
0.690745
0.734277
0.748672
0.751143
0.750409
0.742645
0.727116
0.715136
0.711629
0.714627
0.72055
0.728455
0.740103
0.749305
0.754756
0.757203
0.575266
0.550962
0.533841
0.521788
0.514451
0.514016
0.527341
0.574003
0.63031
0.675838
0.702779
0.712865
0.712798
0.681548
0.648249
0.642481
0.64881
0.68006
0.729286
0.748982
0.753629
0.754827
0.751863
0.744635
0.740312
0.739845
0.742931
0.746478
0.751968
0.756519
0.760345
0.760738
0.754414
0.560669
0.540395
0.525254
0.512431
0.503907
0.502463
0.513609
0.557652
0.622113
0.671163
0.700675
0.712595
0.713512
0.680014
0.646963
0.64153
0.64747
0.669224
0.719078
0.746333
0.754672
0.757406
0.756608
0.753159
0.752067
0.752731
0.754746
0.757508
0.760408
0.76306
0.760847
0.746821
0.723836
0.554379
0.540673
0.532351
0.519121
0.505902
0.501535
0.512016
0.559346
0.623263
0.674153
0.702186
0.71341
0.712738
0.676354
0.64566
0.641347
0.647377
0.665566
0.704674
0.735295
0.750044
0.756428
0.758708
0.757704
0.757076
0.758142
0.75966
0.761852
0.761718
0.753869
0.731759
0.710753
0.704782
0.560291
0.563611
0.566788
0.552502
0.529806
0.517559
0.525865
0.577689
0.63706
0.681801
0.705492
0.71794
0.712191
0.669963
0.643767
0.6421
0.649039
0.665163
0.691477
0.715535
0.734425
0.745538
0.751483
0.754566
0.755354
0.757012
0.757166
0.753084
0.73672
0.712213
0.697762
0.69783
0.705642
0.575052
0.593974
0.611606
0.600476
0.573728
0.555143
0.562959
0.613737
0.662063
0.696942
0.715063
0.722141
0.709307
0.663247
0.643112
0.644024
0.651479
0.666178
0.687776
0.708142
0.72203
0.728624
0.733322
0.738603
0.743254
0.743362
0.732751
0.711281
0.692999
0.687344
0.691852
0.705776
0.727585
0.582165
0.60794
0.636709
0.635451
0.624844
0.612676
0.617464
0.661279
0.687775
0.707507
0.721271
0.725296
0.701558
0.653185
0.641321
0.646466
0.655427
0.671246
0.689827
0.701639
0.709958
0.716816
0.723375
0.727005
0.720877
0.704482
0.68791
0.678893
0.68049
0.688937
0.708462
0.726404
0.732944
0.586416
0.615802
0.649222
0.656482
0.656458
0.658696
0.666865
0.687571
0.70215
0.716279
0.728127
0.725562
0.681633
0.647759
0.644605
0.651272
0.661266
0.676162
0.687903
0.697699
0.705925
0.710988
0.709386
0.697426
0.682925
0.672615
0.670989
0.67682
0.69074
0.711297
0.724496
0.728375
0.718875
0.587398
0.61754
0.656393
0.668666
0.673038
0.682629
0.69167
0.701313
0.712678
0.725032
0.730144
0.712305
0.659915
0.644693
0.647009
0.653949
0.665443
0.678861
0.689127
0.696308
0.698475
0.690855
0.67824
0.668054
0.664333
0.668098
0.677754
0.695981
0.713712
0.722374
0.722865
0.703083
0.645967
0.580928
0.590849
0.635167
0.664674
0.678066
0.688189
0.699304
0.708446
0.718296
0.724193
0.713603
0.669791
0.641049
0.639706
0.64596
0.656137
0.669688
0.680272
0.685485
0.682646
0.672937
0.663736
0.659453
0.661901
0.669422
0.683308
0.701777
0.714795
0.720397
0.714025
0.677312
0.614332
0.576039
0.583581
0.579445
0.593121
0.638284
0.664225
0.677065
0.690144
0.698159
0.705981
0.696063
0.663179
0.639302
0.635434
0.640573
0.648496
0.658337
0.668249
0.670401
0.664065
0.656981
0.654094
0.65665
0.663602
0.674689
0.690986
0.706291
0.71517
0.716673
0.697779
0.642191
0.588442
0.563025
0.5568
0.593616
0.580351
0.576762
0.58586
0.618284
0.641481
0.650689
0.659664
0.661669
0.643267
0.63162
0.629333
0.632972
0.639006
0.6448
0.649641
0.650355
0.646665
0.646204
0.649974
0.657513
0.667886
0.682864
0.698022
0.707975
0.713597
0.70602
0.667725
0.612134
0.57681
0.563504
0.561751
0.566063
0.615196
0.589354
0.579696
0.572952
0.576232
0.587208
0.599886
0.605132
0.611178
0.606739
0.608892
0.614096
0.619268
0.62473
0.628861
0.633097
0.63714
0.642294
0.64982
0.6599
0.674614
0.690438
0.700892
0.707703
0.705657
0.680938
0.635669
0.598766
0.580302
0.575335
0.577196
0.590086
0.617663
0.638315
0.618722
0.593941
0.580401
0.576311
0.574778
0.577548
0.582881
0.587981
0.592344
0.598199
0.605231
0.612105
0.61931
0.626561
0.634032
0.642105
0.651658
0.666003
0.681157
0.692342
0.700045
0.700747
0.684669
0.651564
0.620199
0.603064
0.595185
0.595264
0.605634
0.633377
0.662173
0.686069
0.647915
0.638667
0.627062
0.612943
0.596092
0.589243
0.586453
0.588358
0.591668
0.59693
0.602981
0.609999
0.617456
0.625691
0.635125
0.646089
0.658552
0.670886
0.680518
0.688678
0.692251
0.682616
0.659064
0.637629
0.625379
0.617481
0.616506
0.626121
0.65091
0.678201
0.701103
0.718869
0.729151
0.649989
0.645414
0.63879
0.632891
0.627542
0.623007
0.614958
0.611325
0.61273
0.615238
0.620542
0.627221
0.635667
0.644621
0.653454
0.6613
0.668405
0.674535
0.678133
0.674357
0.66035
0.647134
0.640959
0.637761
0.638066
0.646694
0.668605
0.691515
0.711198
0.727739
0.740959
0.749287
0.758091
0.649024
0.641128
0.639674
0.637523
0.635599
0.634763
0.632684
0.631291
0.63137
0.634648
0.637731
0.641798
0.647004
0.651725
0.656673
0.660864
0.662726
0.658533
0.652878
0.650068
0.648323
0.648686
0.651908
0.662745
0.679795
0.695975
0.711607
0.725806
0.739642
0.75238
0.764418
0.779796
0.806456
0.651345
0.640185
0.633776
0.629417
0.627678
0.627739
0.629327
0.631459
0.633294
0.635094
0.63771
0.640528
0.642887
0.643979
0.644545
0.643835
0.64299
0.643785
0.647068
0.651247
0.656684
0.668249
0.68217
0.694399
0.70553
0.71672
0.728885
0.741325
0.75453
0.767682
0.794243
0.83802
0.94247
0.671369
0.645264
0.634771
0.62945
0.625869
0.622375
0.620406
0.621338
0.621885
0.623159
0.624491
0.626598
0.628109
0.630213
0.633221
0.63627
0.640224
0.645456
0.653497
0.666389
0.678456
0.688687
0.697658
0.705547
0.714164
0.723717
0.734621
0.746844
0.762285
0.792717
0.855798
0.966723
1.06389
0.699522
0.669891
0.64258
0.633308
0.629608
0.627294
0.623354
0.621411
0.620055
0.6198
0.620125
0.622375
0.625445
0.628587
0.63258
0.637758
0.645258
0.658928
0.671091
0.681075
0.687513
0.694641
0.700549
0.706241
0.713063
0.72046
0.728986
0.743404
0.769191
0.827605
0.915207
1.02333
1.11065
0.704651
0.696274
0.670007
0.642589
0.634679
0.632024
0.63042
0.625706
0.622234
0.620724
0.620667
0.623172
0.626458
0.630921
0.637354
0.64921
0.661633
0.671388
0.67943
0.682425
0.687032
0.691611
0.695736
0.699007
0.7007
0.701681
0.712409
0.733118
0.778538
0.843474
0.926106
1.02147
1.10609
0.694725
0.699758
0.696047
0.677063
0.64655
0.636978
0.634297
0.633129
0.627562
0.622431
0.623426
0.626868
0.631354
0.63949
0.652995
0.662598
0.669783
0.676089
0.676834
0.678128
0.681181
0.682516
0.679829
0.669442
0.670166
0.679879
0.69897
0.730907
0.776223
0.830515
0.887091
0.945425
1.01163
0.646456
0.679498
0.698655
0.699071
0.684002
0.652876
0.638966
0.635058
0.63252
0.626099
0.626344
0.630178
0.637797
0.651979
0.662562
0.668796
0.673218
0.672853
0.671066
0.669976
0.666695
0.655302
0.645127
0.647564
0.657141
0.672113
0.695294
0.732495
0.779528
0.831689
0.878113
0.920857
0.968857
0.621133
0.635297
0.674059
0.697262
0.699394
0.68613
0.656334
0.637963
0.631971
0.627846
0.629326
0.634
0.645066
0.659986
0.667119
0.671532
0.670971
0.666321
0.660096
0.651107
0.633928
0.627829
0.631674
0.639305
0.652512
0.676289
0.714481
0.770491
0.834592
0.891177
0.940141
0.986372
1.01539
0.607651
0.615654
0.642562
0.686833
0.702075
0.702642
0.685522
0.652774
0.632782
0.628501
0.630568
0.636471
0.65143
0.663922
0.669223
0.670293
0.664485
0.653421
0.636524
0.6215
0.616702
0.620276
0.626017
0.642387
0.675503
0.744629
0.846933
0.93955
1.01615
1.07663
1.13162
1.17772
1.20124
0.600292
0.607353
0.628555
0.671498
0.701176
0.707499
0.702376
0.675794
0.640778
0.631262
0.633103
0.640601
0.657115
0.665363
0.668691
0.664615
0.652024
0.630537
0.613672
0.609872
0.611689
0.617093
0.63692
0.68445
0.809897
0.910464
0.977144
1.03053
1.07067
1.10826
1.14743
1.19702
1.25103
0.597476
0.605051
0.627549
0.669524
0.699181
0.706362
0.704866
0.683633
0.64647
0.634177
0.635658
0.643685
0.658343
0.664323
0.665031
0.655211
0.633204
0.611815
0.605428
0.605783
0.611597
0.635005
0.703736
0.834601
0.912475
0.962483
0.991959
1.01893
1.03649
1.0333
1.02302
1.04455
1.09054
0.596421
0.604417
0.627139
0.668261
0.695983
0.702721
0.701481
0.6811
0.646559
0.637105
0.639109
0.647677
0.65899
0.663013
0.65968
0.643602
0.617808
0.604609
0.602965
0.607531
0.628623
0.698902
0.81845
0.893374
0.931798
0.956569
0.975425
0.966499
0.918318
0.898912
0.913978
0.949243
1.00428
0.596523
0.602913
0.623106
0.660622
0.686958
0.693728
0.693397
0.675487
0.64424
0.637252
0.639541
0.647448
0.656922
0.65994
0.653522
0.632458
0.608856
0.602418
0.604353
0.622663
0.675631
0.768214
0.855685
0.898292
0.923325
0.93743
0.916062
0.847427
0.83133
0.845437
0.879784
0.932726
0.989648
0.599545
0.603006
0.616364
0.641218
0.66252
0.669693
0.671182
0.66107
0.640682
0.637794
0.640518
0.649675
0.656642
0.65776
0.64762
0.622779
0.606427
0.605943
0.616665
0.64802
0.708886
0.793591
0.85313
0.884572
0.899435
0.876645
0.806941
0.791972
0.80591
0.83983
0.902099
0.96464
0.999757
0.605285
0.60681
0.615925
0.630938
0.642788
0.647404
0.648672
0.64605
0.638752
0.638773
0.643706
0.653955
0.657878
0.65616
0.642903
0.618434
0.611144
0.613728
0.628621
0.661147
0.719004
0.790088
0.835431
0.853698
0.839192
0.782908
0.765757
0.779041
0.812535
0.883375
0.946625
0.975238
0.980676
0.613902
0.615098
0.621418
0.631047
0.637599
0.640331
0.641629
0.641702
0.639942
0.640948
0.647721
0.65597
0.657917
0.654254
0.638327
0.61921
0.615841
0.61925
0.632869
0.66674
0.717616
0.771962
0.794657
0.792104
0.762108
0.745568
0.758516
0.791716
0.871471
0.929169
0.943679
0.932803
0.917593
0.623047
0.626621
0.633197
0.637937
0.640638
0.642122
0.64344
0.644589
0.645636
0.650512
0.657557
0.660366
0.660682
0.654857
0.637552
0.622622
0.621465
0.624624
0.639233
0.664287
0.707036
0.734127
0.741795
0.734127
0.728694
0.742613
0.778033
0.856335
0.903802
0.914825
0.9016
0.893974
0.891358
0.635772
0.647173
0.65444
0.652994
0.650753
0.649964
0.650802
0.654867
0.664498
0.670555
0.672174
0.671761
0.668328
0.658753
0.640843
0.628712
0.627529
0.630698
0.637403
0.659649
0.686307
0.698677
0.705553
0.712502
0.729095
0.766989
0.838174
0.8765
0.887128
0.873989
0.879494
0.884145
0.882726
0.643556
0.658495
0.682195
0.687279
0.681914
0.675513
0.67246
0.676409
0.68118
0.683169
0.683474
0.682566
0.677321
0.665193
0.646762
0.633403
0.631813
0.630854
0.63958
0.652767
0.670357
0.682955
0.696257
0.71458
0.757117
0.818299
0.851538
0.859333
0.856724
0.868026
0.878318
0.885595
0.882965
0.65084
0.665003
0.694623
0.722731
0.730922
0.727194
0.720162
0.713188
0.705667
0.697827
0.69284
0.688948
0.68258
0.669236
0.649795
0.639377
0.63176
0.635063
0.63848
0.649268
0.665374
0.681479
0.701481
0.746988
0.796118
0.823622
0.837638
0.838251
0.853715
0.870495
0.884922
0.892291
0.8892
0.657367
0.668294
0.700589
0.736483
0.762101
0.77034
0.766516
0.757972
0.74496
0.728925
0.712746
0.700193
0.688968
0.673821
0.659256
0.640636
0.639205
0.636686
0.641142
0.649648
0.66773
0.695502
0.739346
0.776376
0.799591
0.812213
0.815868
0.83125
0.850588
0.867656
0.881135
0.887867
0.887272
0.663648
0.667783
0.697482
0.742308
0.775386
0.793901
0.799551
0.79482
0.785028
0.769244
0.750114
0.72738
0.705675
0.685282
0.660808
0.653917
0.645178
0.647737
0.655136
0.672392
0.700258
0.734981
0.75977
0.776694
0.788957
0.790244
0.801693
0.818507
0.83777
0.852618
0.864634
0.870825
0.872028
0.671984
0.668531
0.685509
0.731558
0.779216
0.806142
0.817007
0.817491
0.810794
0.800777
0.784928
0.766221
0.74146
0.715301
0.6976
0.686013
0.685616
0.687075
0.698307
0.714016
0.730634
0.745209
0.757186
0.76527
0.76423
0.767863
0.778465
0.793309
0.807088
0.821531
0.835366
0.843882
0.848663
0.691164
0.673604
0.675371
0.704564
0.758175
0.803695
0.826376
0.830806
0.827661
0.817831
0.806703
0.79057
0.773006
0.752636
0.737571
0.728174
0.72425
0.722723
0.725654
0.729811
0.734876
0.742182
0.745702
0.740921
0.732605
0.731781
0.735584
0.737925
0.742714
0.752739
0.769196
0.79232
0.808264
0.743978
0.686882
0.675534
0.682029
0.715613
0.766089
0.809385
0.831026
0.833732
0.831415
0.819355
0.805844
0.788902
0.771877
0.757814
0.748379
0.740831
0.734601
0.73177
0.730786
0.729508
0.72593
0.715112
0.695507
0.678934
0.663388
0.644038
0.625928
0.623312
0.630146
0.654657
0.692014
0.736082
0.805926
0.731473
0.686389
0.676774
0.684284
0.712043
0.750522
0.787737
0.813411
0.821068
0.822269
0.810004
0.796858
0.78139
0.767591
0.756825
0.74675
0.736475
0.727685
0.717574
0.703097
0.680765
0.648428
0.616753
0.591716
0.56819
0.549786
0.540932
0.542973
0.55008
0.565447
0.587901
0.623296
0.84413
0.807835
0.722214
0.686563
0.676719
0.680124
0.695489
0.719269
0.742347
0.763595
0.779689
0.784957
0.779039
0.768887
0.757138
0.745039
0.730525
0.713127
0.693168
0.667241
0.633627
0.598998
0.568796
0.542935
0.522978
0.508498
0.501657
0.503243
0.50998
0.520672
0.534854
0.550172
0.567794
0.85839
0.855679
0.808799
0.717501
0.686533
0.675341
0.671084
0.672522
0.681554
0.689586
0.696183
0.703456
0.706445
0.703859
0.69714
0.685122
0.665828
0.641695
0.614328
0.585513
0.557948
0.532599
0.511348
0.494559
0.483644
0.47862
0.479832
0.485894
0.495872
0.508428
0.522529
0.536367
0.550662
0.856583
0.871651
0.866761
0.808946
0.715456
0.686032
0.67431
0.659127
0.649999
0.645805
0.640517
0.634095
0.629182
0.622722
0.6147
0.604036
0.588071
0.568571
0.548019
0.527397
0.508027
0.491323
0.478192
0.469493
0.46567
0.466547
0.471178
0.479271
0.492465
0.509192
0.52745
0.543528
0.554151
0.852768
0.864649
0.882887
0.875487
0.80834
0.716139
0.687836
0.667056
0.647714
0.631441
0.616731
0.602336
0.58823
0.574612
0.561824
0.549507
0.536406
0.521598
0.506916
0.492841
0.480358
0.470266
0.463259
0.45984
0.459693
0.462635
0.471307
0.487642
0.508792
0.533958
0.562335
0.586801
0.600777
0.863389
0.855635
0.868643
0.891445
0.879588
0.811547
0.723241
0.687794
0.658091
0.635503
0.614627
0.595326
0.576543
0.558157
0.541074
0.525797
0.512285
0.499163
0.487328
0.476621
0.467929
0.461662
0.457704
0.456221
0.457883
0.466155
0.479699
0.494393
0.51973
0.560153
0.609771
0.650469
0.675373
0.882869
0.869839
0.854293
0.873948
0.894462
0.879863
0.819199
0.73384
0.694797
0.650978
0.621355
0.597937
0.577092
0.557548
0.539073
0.521952
0.507133
0.49388
0.482392
0.472458
0.464854
0.45933
0.456332
0.456807
0.464182
0.474054
0.484287
0.505124
0.555728
0.633573
0.694502
0.7315
0.75174
0.877306
0.885971
0.871428
0.853433
0.872821
0.891685
0.877047
0.82592
0.742074
0.704736
0.650398
0.610799
0.58332
0.561994
0.544828
0.526055
0.50947
0.495398
0.483363
0.473462
0.466715
0.462823
0.462821
0.470213
0.477378
0.485392
0.506703
0.571234
0.654148
0.709262
0.745413
0.76826
0.785043
0.854635
0.871675
0.881137
0.865659
0.852676
0.867132
0.884251
0.87064
0.824913
0.749441
0.712897
0.659575
0.606738
0.575729
0.555337
0.541801
0.52702
0.513601
0.501321
0.491513
0.48641
0.484254
0.486873
0.490009
0.496153
0.52225
0.595359
0.667492
0.705005
0.729236
0.762605
0.792259
0.81062
0.815978
0.839152
0.861349
0.867441
0.855572
0.845537
0.856236
0.872613
0.860329
0.820014
0.755493
0.718755
0.671814
0.616313
0.575489
0.554681
0.542858
0.533983
0.526062
0.519175
0.514194
0.511244
0.510656
0.515645
0.543507
0.60665
0.662884
0.687304
0.703103
0.75065
0.844094
0.90021
0.911977
0.784322
0.800152
0.82106
0.843604
0.849025
0.840016
0.832567
0.843997
0.85863
0.84608
0.810995
0.758336
0.723004
0.680041
0.628716
0.586341
0.563167
0.551397
0.544491
0.538947
0.535492
0.534384
0.538854
0.562336
0.612327
0.656172
0.674647
0.69403
0.769542
0.922048
1.00357
1.02864
1.03335
0.768379
0.771008
0.780727
0.799816
0.818933
0.826946
0.820294
0.814726
0.833414
0.840958
0.827315
0.797238
0.756787
0.725352
0.687265
0.641997
0.603964
0.580548
0.569323
0.563434
0.560863
0.564431
0.582556
0.620346
0.654581
0.668412
0.689466
0.787841
0.950915
1.0179
1.02841
1.03421
1.03993
0.760317
0.753097
0.755651
0.762127
0.773733
0.793425
0.802206
0.796523
0.794953
0.818193
0.819124
0.806259
0.781909
0.752175
0.725947
0.693564
0.658876
0.625768
0.608913
0.602212
0.599683
0.606489
0.632006
0.658814
0.669098
0.68161
0.766051
0.933237
1.00533
1.00836
1.00198
0.999599
1.00937
0.755828
0.74221
0.739476
0.7412
0.747043
0.752444
0.766936
0.77545
0.770763
0.773094
0.796979
0.795953
0.785907
0.767259
0.746133
0.725523
0.702895
0.673821
0.654571
0.646694
0.643361
0.650898
0.66909
0.676067
0.67829
0.720329
0.875164
0.965812
0.969908
0.941425
0.912669
0.915483
0.939658
0.753389
0.733366
0.726729
0.725948
0.727607
0.733997
0.734909
0.743117
0.749197
0.745767
0.753275
0.775095
0.77501
0.767602
0.754001
0.740183
0.727162
0.710835
0.695132
0.686649
0.681167
0.682663
0.685406
0.681849
0.692524
0.792574
0.912215
0.931485
0.883947
0.799091
0.774625
0.790629
0.842251
0.748267
0.724159
0.715661
0.712523
0.711903
0.716896
0.716734
0.715375
0.721571
0.72381
0.722453
0.737365
0.755919
0.757204
0.751752
0.74272
0.735192
0.727672
0.719297
0.711926
0.70584
0.700396
0.692763
0.688903
0.722893
0.843041
0.895318
0.861767
0.760606
0.698024
0.686356
0.699096
0.748238
0.740405
0.714711
0.706206
0.70167
0.700418
0.703487
0.702677
0.699177
0.697139
0.701426
0.700109
0.702113
0.72423
0.739673
0.742178
0.738197
0.733701
0.730193
0.72607
0.72097
0.713847
0.70514
0.696695
0.698995
0.758814
0.848559
0.852166
0.802825
0.712078
0.669405
0.656528
0.662367
0.686946
0.725422
0.703874
0.695484
0.689647
0.687595
0.688917
0.690677
0.687048
0.681506
0.68025
0.681727
0.680758
0.685679
0.716128
0.727751
0.729395
0.727414
0.725649
0.72382
0.720262
0.713784
0.704139
0.695997
0.700704
0.766536
0.830445
0.819913
0.783446
0.710073
0.663377
0.643829
0.64448
0.661275
0.709187
0.691594
0.682657
0.675361
0.671874
0.670924
0.673889
0.675537
0.669421
0.664746
0.664971
0.664405
0.666076
0.673719
0.707806
0.718444
0.718948
0.717883
0.716598
0.713973
0.70721
0.69878
0.690987
0.695571
0.757144
0.800461
0.789477
0.76358
0.710313
0.660378
0.635709
0.633735
0.64808
0.691095
0.677034
0.665531
0.656017
0.649565
0.648546
0.653359
0.658844
0.659195
0.653298
0.65022
0.650329
0.650639
0.654216
0.670619
0.698713
0.707227
0.707635
0.706525
0.704214
0.698129
0.689804
0.683721
0.687147
0.738907
0.759861
0.746832
0.726523
0.687853
0.64595
0.626984
0.627121
0.64083
0.671985
0.659711
0.640492
0.626057
0.619133
0.618912
0.629887
0.639929
0.646545
0.64419
0.639326
0.637613
0.637837
0.63946
0.646453
0.670286
0.690713
0.695583
0.695535
0.692234
0.686662
0.679199
0.672732
0.675378
0.703329
0.709229
0.69656
0.679857
0.65235
0.628573
0.621145
0.623836
0.644467
0.651698
0.634147
0.603433
0.582137
0.576888
0.581104
0.602319
0.6207
0.632206
0.634322
0.631022
0.627812
0.62701
0.627749
0.631102
0.641744
0.668215
0.681145
0.684457
0.682751
0.677607
0.670753
0.6637
0.660579
0.670757
0.670485
0.659707
0.647254
0.630675
0.620918
0.619126
0.627662
0.669895
0.626076
0.592887
0.559728
0.546557
0.541887
0.548682
0.577657
0.603435
0.61889
0.624646
0.623876
0.62116
0.618925
0.618731
0.620426
0.62554
0.639765
0.663671
0.672992
0.673969
0.671282
0.665663
0.658935
0.653607
0.654257
0.650487
0.641781
0.632457
0.624339
0.619787
0.622761
0.650374
0.702315
0.587044
0.555896
0.539311
0.530472
0.52563
0.530709
0.562361
0.592817
0.608866
0.616148
0.617264
0.615488
0.613444
0.612346
0.612772
0.615303
0.621972
0.638748
0.658527
0.665148
0.665353
0.661697
0.656513
0.651424
0.647898
0.643068
0.637298
0.630316
0.625047
0.626009
0.645209
0.696581
0.720994
0.554384
0.540015
0.528583
0.521077
0.516588
0.520121
0.550007
0.586982
0.603195
0.610283
0.611577
0.61024
0.608335
0.606841
0.60702
0.608431
0.612225
0.621183
0.63685
0.651831
0.658687
0.658723
0.655874
0.651346
0.647369
0.644125
0.638711
0.633749
0.633943
0.653126
0.701941
0.725456
0.726532
0.542021
0.533404
0.527076
0.518534
0.51273
0.514388
0.538361
0.585036
0.602004
0.606667
0.607721
0.606408
0.604561
0.603093
0.602932
0.603648
0.605744
0.61074
0.621543
0.636311
0.646446
0.650722
0.650442
0.650195
0.650184
0.647642
0.644484
0.646825
0.676333
0.720557
0.737966
0.733793
0.720879
0.540551
0.543637
0.537969
0.523664
0.513758
0.514851
0.53479
0.582006
0.60045
0.604627
0.605227
0.603988
0.60244
0.600991
0.600559
0.60119
0.603205
0.60574
0.610999
0.62078
0.631392
0.640907
0.648166
0.653037
0.653958
0.656407
0.672555
0.719699
0.753092
0.755111
0.742006
0.717171
0.660793
0.559882
0.574665
0.560756
0.534116
0.522586
0.521449
0.537897
0.572728
0.597173
0.602354
0.602969
0.602172
0.600972
0.599421
0.598362
0.597924
0.599417
0.60215
0.606455
0.61601
0.630458
0.643258
0.652321
0.663095
0.689226
0.734426
0.77135
0.77688
0.762311
0.732223
0.670655
0.606537
0.568646
0.60855
0.622595
0.597392
0.558301
0.540973
0.534546
0.542689
0.559302
0.580459
0.590898
0.594385
0.595316
0.594586
0.593351
0.59388
0.595667
0.599178
0.603254
0.608862
0.621088
0.642934
0.675737
0.720613
0.76149
0.787081
0.786045
0.764733
0.708403
0.621913
0.556365
0.515341
0.491338
0.480702
0.677834
0.688806
0.66176
0.608049
0.57907
0.566148
0.560263
0.566481
0.576034
0.584791
0.589491
0.59309
0.595768
0.596854
0.599889
0.604677
0.614321
0.631906
0.662294
0.703494
0.749282
0.775921
0.773514
0.750181
0.686035
0.595829
0.521338
0.47584
0.450302
0.434938
0.423481
0.413582
0.406019
0.732889
0.750608
0.74581
0.716026
0.674229
0.652871
0.633721
0.622975
0.618396
0.626435
0.634663
0.64554
0.66053
0.677455
0.700967
0.722347
0.742486
0.760019
0.763989
0.735205
0.660488
0.609705
0.54068
0.483223
0.450872
0.437951
0.431035
0.425549
0.41926
0.413047
0.406289
0.399902
0.393181
0.75799
0.780182
0.787657
0.791155
0.791473
0.792415
0.803219
0.811411
0.810302
0.804167
0.801954
0.797689
0.790128
0.78049
0.759676
0.735244
0.709619
0.663818
0.596111
0.513257
0.441134
0.431031
0.427709
0.426794
0.428099
0.428663
0.427806
0.425744
0.423165
0.419487
0.414623
0.408457
0.398605
0.768661
0.78898
0.797252
0.805392
0.805775
0.802457
0.794785
0.782351
0.769673
0.754189
0.728712
0.695809
0.657775
0.615821
0.570569
0.525697
0.482699
0.451709
0.435283
0.427644
0.426116
0.429325
0.436372
0.443351
0.448248
0.450802
0.451663
0.449876
0.445693
0.441076
0.436732
0.433031
0.426237
0.747034
0.74673
0.736802
0.714301
0.684829
0.655529
0.630079
0.606568
0.58243
0.560541
0.539691
0.518652
0.499193
0.47975
0.466143
0.457345
0.452632
0.453297
0.456134
0.460181
0.464442
0.468132
0.470632
0.470951
0.47016
0.468176
0.464253
0.458688
0.452596
0.446646
0.443508
0.441963
0.442178
0.675948
0.666452
0.64467
0.623194
0.607415
0.594679
0.584709
0.575074
0.561425
0.545807
0.532089
0.524246
0.52027
0.52115
0.525544
0.528407
0.522543
0.513088
0.502281
0.494243
0.488037
0.482643
0.480136
0.479427
0.480005
0.479125
0.476326
0.470047
0.461112
0.452716
0.446951
0.44648
0.45034
0.629631
0.621266
0.608256
0.601396
0.598062
0.595112
0.590919
0.588399
0.589676
0.596435
0.606184
0.61513
0.616094
0.606241
0.589689
0.568216
0.544029
0.523854
0.509695
0.500151
0.495301
0.4966
0.501779
0.507935
0.513238
0.513386
0.509814
0.500478
0.485063
0.470695
0.456975
0.450317
0.453889
0.61544
0.607866
0.60142
0.598593
0.603885
0.614219
0.625676
0.642438
0.65828
0.665636
0.66406
0.654997
0.640253
0.619933
0.592421
0.56399
0.53885
0.521324
0.51266
0.512249
0.519735
0.530758
0.539045
0.545219
0.549937
0.547951
0.541727
0.532635
0.514641
0.499867
0.478679
0.458069
0.453165
0.608372
0.603912
0.598838
0.601102
0.617567
0.642148
0.667828
0.681436
0.683327
0.678512
0.66875
0.654823
0.636676
0.612917
0.581862
0.555193
0.536037
0.526655
0.528891
0.537982
0.548774
0.556583
0.561084
0.563193
0.562648
0.557449
0.547817
0.540248
0.525825
0.514068
0.492798
0.46793
0.452624
0.604311
0.603001
0.598794
0.602728
0.623475
0.653349
0.682773
0.690597
0.685614
0.674889
0.659957
0.641971
0.621553
0.596602
0.57305
0.553724
0.542517
0.543679
0.557848
0.567158
0.568814
0.568241
0.565998
0.563015
0.557079
0.548852
0.540007
0.531232
0.52099
0.5105
0.490103
0.467145
0.452903
0.595066
0.602308
0.599569
0.59992
0.617501
0.650159
0.682169
0.685793
0.674066
0.655418
0.635051
0.615215
0.597173
0.582989
0.573578
0.563802
0.559564
0.563953
0.575595
0.580793
0.573441
0.567352
0.560596
0.555343
0.546946
0.540353
0.528955
0.522561
0.512595
0.502662
0.483634
0.459216
0.447216
0.586471
0.594486
0.599191
0.595881
0.602571
0.626804
0.658584
0.663035
0.648069
0.626521
0.605599
0.588524
0.577758
0.57653
0.574831
0.569679
0.568762
0.570535
0.57866
0.581722
0.577192
0.567223
0.5603
0.553142
0.545892
0.535901
0.528749
0.51894
0.511993
0.501351
0.48253
0.454596
0.441175
0.590504
0.583812
0.590656
0.593992
0.590396
0.597207
0.616681
0.629124
0.618559
0.599625
0.581228
0.567401
0.563291
0.566683
0.571959
0.572762
0.573071
0.573477
0.57886
0.584004
0.579227
0.572621
0.565342
0.559052
0.55229
0.544345
0.534105
0.527034
0.52124
0.512775
0.496755
0.460165
0.438169
0.606003
0.586477
0.580055
0.583151
0.584573
0.579965
0.580768
0.589589
0.588635
0.577921
0.564964
0.555098
0.550118
0.550965
0.557727
0.568944
0.575899
0.577089
0.579387
0.587142
0.585028
0.57783
0.570068
0.562547
0.556339
0.55051
0.544285
0.539092
0.535471
0.532071
0.52166
0.481191
0.439661
0.652452
0.60313
0.582057
0.574197
0.573527
0.573894
0.567903
0.563793
0.56328
0.561344
0.555807
0.549258
0.54147
0.534953
0.536549
0.552522
0.571071
0.578407
0.580576
0.588469
0.59207
0.586113
0.577419
0.568496
0.560439
0.553126
0.548261
0.545292
0.543721
0.547184
0.544566
0.509117
0.442493
0.692011
0.649658
0.599317
0.576361
0.566128
0.56106
0.561731
0.556547
0.549375
0.546704
0.544585
0.541914
0.535749
0.526244
0.520483
0.528138
0.554192
0.574673
0.582495
0.587387
0.596479
0.594351
0.586287
0.577195
0.568293
0.559438
0.551305
0.545525
0.545279
0.549291
0.555788
0.541646
0.448723
0.556507
0.557484
0.577649
0.620756
0.653836
0.672253
0.679585
0.679947
0.556952
0.560005
0.586218
0.630755
0.660761
0.678388
0.68288
0.683737
0.558049
0.565375
0.59913
0.64227
0.671267
0.684937
0.688847
0.686804
0.561684
0.575228
0.617292
0.657938
0.683462
0.693605
0.694531
0.691775
0.567053
0.59526
0.641274
0.677291
0.696839
0.702476
0.700457
0.697335
0.585107
0.626171
0.669735
0.698072
0.709589
0.709772
0.706476
0.703275
0.619323
0.665425
0.699648
0.716252
0.718915
0.71611
0.711707
0.709739
0.669044
0.704153
0.723188
0.727633
0.725612
0.72011
0.7165
0.717253
0.713216
0.731096
0.735968
0.734765
0.728566
0.723531
0.721844
0.727366
0.739734
0.743699
0.743241
0.736527
0.729614
0.726395
0.726777
0.740146
0.750893
0.750122
0.742608
0.73338
0.728332
0.727926
0.737315
0.76972
0.754585
0.74221
0.728642
0.723559
0.725091
0.745098
0.774402
0.781677
0.735037
0.720467
0.718366
0.724415