/*--------------------------------*- C++ -*----------------------------------*\
  =========                 |
  \\      /  F ield         | OpenFOAM: The Open Source CFD Toolbox
   \\    /   O peration     | Website:  https://openfoam.org
    \\  /    A nd           | Version:  10
     \\/     M anipulation  |
\*---------------------------------------------------------------------------*/
FoamFile
{
    format      ascii;
    class       volVectorField;
    location    "0.751362";
    object      U;
}
// * * * * * * * * * * * * * * * * * * * * * * * * * * * * * * * * * * * * * //

dimensions      [0 1 -1 0 0 0 0];

internalField   nonuniform List<vector> 
16320
(
(0.325619 -0.20712 0)
(0.352006 -0.201662 0)
(0.37741 -0.19588 0)
(0.401093 -0.19034 0)
(0.422254 -0.185329 0)
(0.44047 -0.180995 0)
(0.455397 -0.177255 0)
(0.466624 -0.17479 0)
(0.473901 -0.174178 0)
(0.477232 -0.175656 0)
(0.476825 -0.178833 0)
(0.474522 -0.182723 0)
(0.472058 -0.186655 0)
(0.469482 -0.1879 0)
(0.466922 -0.185117 0)
(0.46546 -0.177513 0)
(0.465763 -0.163826 0)
(0.466804 -0.144096 0)
(0.467879 -0.118994 0)
(0.468676 -0.0890049 0)
(0.468538 -0.0547878 0)
(0.466816 -0.0174128 0)
(0.463818 0.0219224 0)
(0.461657 0.0604533 0)
(0.459877 0.0968919 0)
(0.457203 0.130103 0)
(0.454615 0.15957 0)
(0.454195 0.184067 0)
(0.456094 0.202279 0)
(0.458509 0.213841 0)
(0.461186 0.217982 0)
(0.466318 0.21486 0)
(0.473959 0.203334 0)
(0.34265 -0.212618 0)
(0.368969 -0.202913 0)
(0.394137 -0.192661 0)
(0.417425 -0.182447 0)
(0.438066 -0.172639 0)
(0.455382 -0.163532 0)
(0.468943 -0.15552 0)
(0.478598 -0.148904 0)
(0.484105 -0.144164 0)
(0.485105 -0.142147 0)
(0.481752 -0.143212 0)
(0.474935 -0.146276 0)
(0.466731 -0.150528 0)
(0.458391 -0.15358 0)
(0.449586 -0.153237 0)
(0.441981 -0.147941 0)
(0.437039 -0.137028 0)
(0.433645 -0.119422 0)
(0.430917 -0.0959648 0)
(0.428611 -0.067085 0)
(0.42563 -0.0332988 0)
(0.421308 0.00411416 0)
(0.418233 0.042558 0)
(0.416434 0.0802996 0)
(0.41542 0.116062 0)
(0.414357 0.148469 0)
(0.414228 0.176897 0)
(0.416666 0.200047 0)
(0.421918 0.21669 0)
(0.427944 0.226025 0)
(0.435013 0.228179 0)
(0.445039 0.223013 0)
(0.457018 0.209626 0)
(0.354856 -0.221529 0)
(0.380496 -0.207104 0)
(0.404946 -0.191836 0)
(0.427532 -0.176285 0)
(0.447554 -0.160923 0)
(0.464328 -0.146344 0)
(0.477048 -0.133157 0)
(0.485621 -0.121933 0)
(0.489936 -0.112952 0)
(0.48941 -0.10678 0)
(0.483945 -0.10437 0)
(0.474169 -0.105954 0)
(0.46153 -0.109855 0)
(0.447687 -0.114154 0)
(0.4334 -0.116115 0)
(0.419899 -0.113519 0)
(0.409789 -0.106154 0)
(0.402428 -0.0913247 0)
(0.396087 -0.0701001 0)
(0.390871 -0.043062 0)
(0.384929 -0.0102834 0)
(0.379355 0.0258061 0)
(0.376115 0.0626525 0)
(0.37471 0.0989671 0)
(0.374561 0.133486 0)
(0.37502 0.164502 0)
(0.377304 0.191104 0)
(0.382793 0.212258 0)
(0.391071 0.22679 0)
(0.400582 0.233674 0)
(0.412059 0.233776 0)
(0.426326 0.226333 0)
(0.442122 0.211076 0)
(0.361332 -0.235063 0)
(0.386029 -0.215371 0)
(0.409433 -0.194488 0)
(0.431118 -0.172994 0)
(0.450332 -0.151558 0)
(0.46628 -0.131003 0)
(0.478281 -0.111986 0)
(0.486002 -0.0952041 0)
(0.489587 -0.0816137 0)
(0.488585 -0.071328 0)
(0.482084 -0.0645868 0)
(0.470329 -0.063137 0)
(0.454735 -0.0661281 0)
(0.436721 -0.071056 0)
(0.417678 -0.0748041 0)
(0.398721 -0.0751766 0)
(0.384044 -0.0716561 0)
(0.373595 -0.0603854 0)
(0.363927 -0.0420174 0)
(0.355415 -0.0171156 0)
(0.347114 0.0139359 0)
(0.341292 0.0474165 0)
(0.338083 0.0819609 0)
(0.337202 0.116353 0)
(0.337987 0.148801 0)
(0.339858 0.17765 0)
(0.344633 0.201907 0)
(0.352998 0.220539 0)
(0.364024 0.232292 0)
(0.377017 0.236744 0)
(0.392571 0.234498 0)
(0.410545 0.224828 0)
(0.429461 0.208149 0)
(0.362345 -0.251255 0)
(0.386002 -0.226721 0)
(0.408315 -0.200097 0)
(0.428875 -0.172433 0)
(0.446893 -0.144839 0)
(0.461902 -0.118047 0)
(0.473278 -0.0930038 0)
(0.480245 -0.07049 0)
(0.48282 -0.0515008 0)
(0.481654 -0.0368709 0)
(0.475377 -0.0264287 0)
(0.462778 -0.0205295 0)
(0.445277 -0.0213388 0)
(0.424543 -0.0263759 0)
(0.401915 -0.0316485 0)
(0.378261 -0.0348415 0)
(0.35981 -0.0349363 0)
(0.347058 -0.0278493 0)
(0.334049 -0.0122443 0)
(0.322723 0.0104352 0)
(0.314302 0.0377049 0)
(0.307931 0.0681194 0)
(0.304643 0.100073 0)
(0.304188 0.132128 0)
(0.305778 0.161833 0)
(0.30955 0.187763 0)
(0.316819 0.209311 0)
(0.327669 0.224788 0)
(0.341298 0.233669 0)
(0.357614 0.235797 0)
(0.376696 0.231167 0)
(0.397693 0.219632 0)
(0.418832 0.201546 0)
(0.358479 -0.268591 0)
(0.381333 -0.240074 0)
(0.402609 -0.208412 0)
(0.421772 -0.174896 0)
(0.438556 -0.140859 0)
(0.452436 -0.107457 0)
(0.462823 -0.0760058 0)
(0.469104 -0.047738 0)
(0.470969 -0.0233897 0)
(0.468669 -0.0036261 0)
(0.462586 0.0108826 0)
(0.450373 0.0212051 0)
(0.431405 0.0250678 0)
(0.409049 0.0211985 0)
(0.384238 0.0140101 0)
(0.35715 0.00759163 0)
(0.335194 0.00405816 0)
(0.319551 0.0082751 0)
(0.304724 0.0202877 0)
(0.293557 0.0379098 0)
(0.285114 0.0609038 0)
(0.278656 0.0880537 0)
(0.275764 0.117189 0)
(0.27589 0.146477 0)
(0.278421 0.17294 0)
(0.284199 0.195675 0)
(0.293736 0.21358 0)
(0.306693 0.225833 0)
(0.323049 0.23182 0)
(0.342327 0.231499 0)
(0.364049 0.224505 0)
(0.387102 0.211316 0)
(0.409817 0.191921 0)
(0.348865 -0.287682 0)
(0.3712 -0.255714 0)
(0.391748 -0.219525 0)
(0.409894 -0.18029 0)
(0.425361 -0.139878 0)
(0.437891 -0.0999894 0)
(0.447163 -0.0620165 0)
(0.452666 -0.0275472 0)
(0.453895 0.0026117 0)
(0.450421 0.0281914 0)
(0.443398 0.0476026 0)
(0.432259 0.060478 0)
(0.414069 0.0686263 0)
(0.390377 0.0676831 0)
(0.364278 0.0606082 0)
(0.334738 0.0525586 0)
(0.309908 0.0463705 0)
(0.293635 0.0450651 0)
(0.279172 0.051054 0)
(0.268026 0.0639921 0)
(0.259644 0.0831185 0)
(0.25331 0.107141 0)
(0.251005 0.133364 0)
(0.251921 0.159152 0)
(0.255721 0.181918 0)
(0.263316 0.201045 0)
(0.274876 0.215238 0)
(0.290167 0.224217 0)
(0.308823 0.22732 0)
(0.330224 0.224117 0)
(0.353852 0.214846 0)
(0.378058 0.199703 0)
(0.401198 0.178732 0)
(0.333245 -0.308021 0)
(0.356101 -0.272828 0)
(0.376554 -0.231881 0)
(0.394009 -0.187002 0)
(0.408089 -0.140431 0)
(0.418832 -0.094258 0)
(0.426474 -0.0500879 0)
(0.431026 -0.00961661 0)
(0.431127 0.0265452 0)
(0.427156 0.0571418 0)
(0.419604 0.081569 0)
(0.409363 0.0985015 0)
(0.39295 0.109041 0)
(0.369659 0.111626 0)
(0.343975 0.105378 0)
(0.314733 0.095375 0)
(0.289129 0.0859326 0)
(0.272091 0.0793967 0)
(0.257335 0.0806522 0)
(0.245675 0.0896051 0)
(0.237193 0.104788 0)
(0.231304 0.125534 0)
(0.229642 0.148389 0)
(0.231471 0.170084 0)
(0.236873 0.189031 0)
(0.246453 0.204225 0)
(0.259986 0.214887 0)
(0.277235 0.220302 0)
(0.297506 0.219936 0)
(0.320333 0.213858 0)
(0.344901 0.20224 0)
(0.36929 0.185315 0)
(0.395224 0.165794 0)
(0.312169 -0.325291 0)
(0.336707 -0.287727 0)
(0.357804 -0.242932 0)
(0.374601 -0.19306 0)
(0.387112 -0.140852 0)
(0.395723 -0.0888554 0)
(0.401175 -0.0391642 0)
(0.403829 0.0070197 0)
(0.402999 0.0483056 0)
(0.398674 0.0838314 0)
(0.390904 0.112835 0)
(0.380767 0.133807 0)
(0.366382 0.146665 0)
(0.345496 0.152962 0)
(0.321402 0.148525 0)
(0.29466 0.137427 0)
(0.269578 0.125259 0)
(0.251922 0.113797 0)
(0.237352 0.110301 0)
(0.225224 0.115113 0)
(0.216903 0.126339 0)
(0.211924 0.143215 0)
(0.210867 0.162018 0)
(0.213978 0.179521 0)
(0.221239 0.194552 0)
(0.232701 0.205746 0)
(0.247945 0.212429 0)
(0.266465 0.21389 0)
(0.288048 0.210347 0)
(0.311933 0.201803 0)
(0.337147 0.188787 0)
(0.363867 0.172094 0)
(0.390889 0.153042 0)
(0.286607 -0.339906 0)
(0.312586 -0.300504 0)
(0.335244 -0.252502 0)
(0.352187 -0.197711 0)
(0.363384 -0.139799 0)
(0.369545 -0.0821136 0)
(0.372161 -0.0275413 0)
(0.371866 0.0233617 0)
(0.369344 0.0693443 0)
(0.364217 0.109299 0)
(0.355935 0.141862 0)
(0.345797 0.166035 0)
(0.333707 0.181597 0)
(0.3158 0.190304 0)
(0.293967 0.187636 0)
(0.270932 0.176423 0)
(0.247766 0.162213 0)
(0.230605 0.147324 0)
(0.2175 0.139539 0)
(0.20591 0.140074 0)
(0.198214 0.147477 0)
(0.194332 0.159952 0)
(0.194265 0.174262 0)
(0.198918 0.187546 0)
(0.208021 0.198281 0)
(0.221082 0.205189 0)
(0.237681 0.207847 0)
(0.257827 0.206415 0)
(0.280826 0.200547 0)
(0.305942 0.190186 0)
(0.332559 0.176189 0)
(0.359648 0.158766 0)
(0.386873 0.13741 0)
(0.255472 -0.353509 0)
(0.283306 -0.310811 0)
(0.308147 -0.258025 0)
(0.326289 -0.197749 0)
(0.336899 -0.133804 0)
(0.340751 -0.0710258 0)
(0.339873 -0.0130191 0)
(0.335674 0.0412206 0)
(0.331087 0.0907475 0)
(0.3246 0.133687 0)
(0.315727 0.169004 0)
(0.306265 0.195945 0)
(0.296521 0.213857 0)
(0.281403 0.223829 0)
(0.262418 0.222561 0)
(0.24367 0.211454 0)
(0.223611 0.195584 0)
(0.208225 0.178678 0)
(0.197197 0.167529 0)
(0.187165 0.164005 0)
(0.180747 0.167375 0)
(0.178321 0.175407 0)
(0.179816 0.18541 0)
(0.185997 0.19435 0)
(0.196668 0.200805 0)
(0.211494 0.204171 0)
(0.230444 0.203798 0)
(0.252301 0.199527 0)
(0.276157 0.190944 0)
(0.302068 0.178626 0)
(0.329266 0.162542 0)
(0.357065 0.142856 0)
(0.38513 0.120069 0)
(0.217672 -0.364813 0)
(0.247244 -0.319284 0)
(0.271798 -0.262204 0)
(0.29006 -0.196226 0)
(0.301103 -0.125128 0)
(0.304376 -0.0557644 0)
(0.301219 0.0070786 0)
(0.294925 0.0626545 0)
(0.2882 0.1131 0)
(0.28048 0.157189 0)
(0.271861 0.194455 0)
(0.263505 0.223413 0)
(0.25588 0.24287 0)
(0.243557 0.253364 0)
(0.227957 0.253059 0)
(0.213582 0.242019 0)
(0.19761 0.224918 0)
(0.185328 0.206725 0)
(0.176912 0.193054 0)
(0.168975 0.186147 0)
(0.164379 0.185579 0)
(0.164038 0.189423 0)
(0.167573 0.195274 0)
(0.175524 0.200373 0)
(0.188456 0.203206 0)
(0.20546 0.203188 0)
(0.225622 0.199552 0)
(0.24836 0.191816 0)
(0.273343 0.180408 0)
(0.300139 0.165629 0)
(0.327993 0.147358 0)
(0.356542 0.126149 0)
(0.385174 0.10275 0)
(0.167463 -0.375793 0)
(0.194418 -0.329109 0)
(0.218214 -0.268988 0)
(0.237456 -0.197595 0)
(0.250439 -0.11924 0)
(0.256522 -0.041971 0)
(0.252186 0.0284313 0)
(0.245427 0.086408 0)
(0.239078 0.136054 0)
(0.231884 0.180132 0)
(0.224463 0.218205 0)
(0.217821 0.248083 0)
(0.212463 0.268243 0)
(0.203106 0.278783 0)
(0.191451 0.27884 0)
(0.181699 0.267772 0)
(0.170476 0.249928 0)
(0.162217 0.231007 0)
(0.156912 0.215257 0)
(0.151723 0.205624 0)
(0.149589 0.201656 0)
(0.151691 0.201637 0)
(0.157692 0.203316 0)
(0.167911 0.20465 0)
(0.182668 0.20395 0)
(0.201138 0.200174 0)
(0.22262 0.193034 0)
(0.246614 0.182447 0)
(0.272679 0.168582 0)
(0.300156 0.15165 0)
(0.328569 0.131935 0)
(0.357228 0.11053 0)
(0.38462 0.0870529 0)
(0.102341 -0.386734 0)
(0.126539 -0.337366 0)
(0.149033 -0.273507 0)
(0.169048 -0.197291 0)
(0.18431 -0.112568 0)
(0.194354 -0.0282933 0)
(0.191974 0.0471769 0)
(0.187379 0.10786 0)
(0.183219 0.157258 0)
(0.17843 0.201249 0)
(0.173409 0.239518 0)
(0.169299 0.26947 0)
(0.166646 0.289667 0)
(0.160686 0.299914 0)
(0.15368 0.299843 0)
(0.148868 0.28864 0)
(0.142969 0.27046 0)
(0.139035 0.250872 0)
(0.137197 0.233457 0)
(0.135585 0.221689 0)
(0.136507 0.214869 0)
(0.141318 0.211351 0)
(0.149921 0.209111 0)
(0.162449 0.206552 0)
(0.179018 0.202166 0)
(0.198986 0.195121 0)
(0.221761 0.185124 0)
(0.246779 0.172095 0)
(0.273509 0.156285 0)
(0.301218 0.138157 0)
(0.329235 0.118119 0)
(0.35555 0.0962598 0)
(0.378576 0.0735703 0)
(0.0266246 -0.393933 0)
(0.0465726 -0.342307 0)
(0.065212 -0.276652 0)
(0.0843326 -0.197552 0)
(0.101683 -0.107801 0)
(0.117958 -0.0160944 0)
(0.120867 0.0634482 0)
(0.12086 0.124839 0)
(0.121199 0.174578 0)
(0.120279 0.218995 0)
(0.118651 0.257295 0)
(0.118175 0.28678 0)
(0.119039 0.306591 0)
(0.117056 0.316516 0)
(0.115473 0.316127 0)
(0.11605 0.304502 0)
(0.115396 0.285801 0)
(0.115828 0.265304 0)
(0.117953 0.246839 0)
(0.120403 0.233195 0)
(0.124851 0.224047 0)
(0.132671 0.217626 0)
(0.143999 0.212127 0)
(0.158859 0.206193 0)
(0.17721 0.198604 0)
(0.198573 0.188659 0)
(0.22226 0.176188 0)
(0.247749 0.161309 0)
(0.274297 0.144581 0)
(0.300645 0.125727 0)
(0.325139 0.105469 0)
(0.34672 0.0848768 0)
(0.364565 0.0662463 0)
(-0.0565006 -0.39763 0)
(-0.0428415 -0.345901 0)
(-0.0296099 -0.28074 0)
(-0.013238 -0.201501 0)
(0.00373934 -0.109447 0)
(0.0249654 -0.00936285 0)
(0.0421053 0.0771766 0)
(0.048226 0.137725 0)
(0.0538052 0.187903 0)
(0.0577612 0.232971 0)
(0.060721 0.271426 0)
(0.0652696 0.30024 0)
(0.0706338 0.319261 0)
(0.0734365 0.328225 0)
(0.0776311 0.326851 0)
(0.0832035 0.314236 0)
(0.0876507 0.294786 0)
(0.0930281 0.273885 0)
(0.0993674 0.254843 0)
(0.106074 0.239611 0)
(0.114465 0.22821 0)
(0.125421 0.219125 0)
(0.139419 0.210829 0)
(0.156437 0.202133 0)
(0.176209 0.191954 0)
(0.198346 0.179877 0)
(0.222203 0.166088 0)
(0.247072 0.150265 0)
(0.271249 0.132654 0)
(0.293557 0.114174 0)
(0.313578 0.0963906 0)
(0.329564 0.0800742 0)
(0.34082 0.0663456 0)
(-0.142477 -0.395472 0)
(-0.13348 -0.342461 0)
(-0.12383 -0.276501 0)
(-0.110779 -0.197957 0)
(-0.0959436 -0.109624 0)
(-0.0738029 -0.017847 0)
(-0.0456801 0.0712417 0)
(-0.0305315 0.140958 0)
(-0.0187644 0.195532 0)
(-0.00783571 0.242286 0)
(0.00155631 0.281075 0)
(0.0121659 0.308754 0)
(0.0217497 0.326223 0)
(0.0297971 0.333656 0)
(0.0403112 0.330719 0)
(0.0509613 0.31718 0)
(0.0608625 0.297593 0)
(0.0712878 0.27688 0)
(0.0817833 0.257494 0)
(0.092469 0.241112 0)
(0.104556 0.227612 0)
(0.11867 0.216035 0)
(0.135199 0.20519 0)
(0.153946 0.194072 0)
(0.174565 0.182203 0)
(0.196754 0.168949 0)
(0.21913 0.154273 0)
(0.240587 0.138549 0)
(0.260973 0.122338 0)
(0.279232 0.107269 0)
(0.293307 0.0935851 0)
(0.304278 0.0815056 0)
(0.314301 0.0705515 0)
(-0.224671 -0.387812 0)
(-0.219409 -0.334803 0)
(-0.212816 -0.269666 0)
(-0.202577 -0.193718 0)
(-0.189225 -0.108851 0)
(-0.166523 -0.0189303 0)
(-0.135477 0.0682216 0)
(-0.111959 0.139532 0)
(-0.092743 0.196881 0)
(-0.0751686 0.244094 0)
(-0.0590284 0.281489 0)
(-0.0421758 0.308204 0)
(-0.0274347 0.324726 0)
(-0.0127164 0.332167 0)
(0.0049213 0.328153 0)
(0.0205533 0.314197 0)
(0.0356026 0.295004 0)
(0.050655 0.274446 0)
(0.0651449 0.25481 0)
(0.0796199 0.237538 0)
(0.0950465 0.222636 0)
(0.11182 0.209318 0)
(0.130054 0.196797 0)
(0.149708 0.184179 0)
(0.169909 0.171053 0)
(0.189984 0.157324 0)
(0.209611 0.143137 0)
(0.227751 0.129757 0)
(0.243419 0.117143 0)
(0.256221 0.105599 0)
(0.267408 0.0949413 0)
(0.278399 0.0847877 0)
(0.290278 0.0738619 0)
(-0.301226 -0.376879 0)
(-0.298945 -0.325594 0)
(-0.294476 -0.262989 0)
(-0.286671 -0.19083 0)
(-0.274165 -0.110645 0)
(-0.250591 -0.0254573 0)
(-0.218676 0.0583005 0)
(-0.191281 0.130053 0)
(-0.166019 0.188984 0)
(-0.141883 0.236868 0)
(-0.118475 0.274177 0)
(-0.0954677 0.300698 0)
(-0.0744849 0.317024 0)
(-0.0522676 0.324518 0)
(-0.0292222 0.320148 0)
(-0.00856185 0.306611 0)
(0.0119629 0.287411 0)
(0.0309063 0.26704 0)
(0.0491287 0.247252 0)
(0.0670495 0.229572 0)
(0.0851015 0.213904 0)
(0.103603 0.199738 0)
(0.122395 0.186197 0)
(0.14118 0.172971 0)
(0.159643 0.159876 0)
(0.177176 0.147614 0)
(0.193161 0.136151 0)
(0.20669 0.125346 0)
(0.218638 0.115421 0)
(0.230662 0.10591 0)
(0.243109 0.0962053 0)
(0.257284 0.0855947 0)
(0.274133 0.0737214 0)
(-0.368195 -0.3634 0)
(-0.368468 -0.314797 0)
(-0.366285 -0.255653 0)
(-0.360722 -0.188396 0)
(-0.348789 -0.11288 0)
(-0.325545 -0.0329169 0)
(-0.294369 0.0456115 0)
(-0.26397 0.116148 0)
(-0.233645 0.175945 0)
(-0.203637 0.224757 0)
(-0.174337 0.262476 0)
(-0.145566 0.28898 0)
(-0.118121 0.305155 0)
(-0.0893499 0.311699 0)
(-0.0615706 0.307041 0)
(-0.0360605 0.294098 0)
(-0.0114412 0.27592 0)
(0.0118039 0.255316 0)
(0.0330144 0.236052 0)
(0.0534802 0.218574 0)
(0.0731664 0.202698 0)
(0.0919796 0.188108 0)
(0.109919 0.174537 0)
(0.127005 0.162228 0)
(0.142836 0.151079 0)
(0.156891 0.140755 0)
(0.169246 0.131321 0)
(0.181215 0.122558 0)
(0.194072 0.11378 0)
(0.208645 0.10435 0)
(0.22568 0.0943293 0)
(0.244657 0.0816307 0)
(0.262509 0.0668218 0)
(-0.424028 -0.34774 0)
(-0.426548 -0.302072 0)
(-0.425883 -0.247384 0)
(-0.422104 -0.184832 0)
(-0.411092 -0.11472 0)
(-0.389321 -0.0404897 0)
(-0.359276 0.0333226 0)
(-0.326919 0.101618 0)
(-0.29315 0.160955 0)
(-0.259067 0.209505 0)
(-0.225259 0.246531 0)
(-0.191606 0.272548 0)
(-0.15835 0.288472 0)
(-0.124545 0.294177 0)
(-0.0924082 0.289653 0)
(-0.0624703 0.277516 0)
(-0.0343782 0.260506 0)
(-0.00815063 0.241286 0)
(0.0159392 0.222658 0)
(0.0374482 0.205707 0)
(0.0570593 0.190281 0)
(0.0749539 0.17653 0)
(0.0911984 0.164518 0)
(0.105764 0.153836 0)
(0.118628 0.144121 0)
(0.130824 0.135353 0)
(0.143789 0.126861 0)
(0.15802 0.118179 0)
(0.174645 0.108944 0)
(0.194668 0.0985555 0)
(0.214718 0.0849982 0)
(0.233411 0.0702281 0)
(0.251292 0.0576351 0)
(-0.466951 -0.329888 0)
(-0.473606 -0.286816 0)
(-0.474273 -0.236292 0)
(-0.470674 -0.17867 0)
(-0.460871 -0.115852 0)
(-0.440883 -0.0470859 0)
(-0.412436 0.0213493 0)
(-0.379471 0.0861945 0)
(-0.344095 0.143242 0)
(-0.30797 0.189976 0)
(-0.271019 0.226173 0)
(-0.232781 0.25208 0)
(-0.194538 0.267643 0)
(-0.157059 0.273207 0)
(-0.121465 0.269516 0)
(-0.0881827 0.258761 0)
(-0.0573696 0.243197 0)
(-0.0296362 0.225321 0)
(-0.00480733 0.208037 0)
(0.0166544 0.192583 0)
(0.035182 0.179248 0)
(0.0513465 0.16739 0)
(0.0654339 0.156595 0)
(0.0783247 0.146957 0)
(0.091434 0.138036 0)
(0.105612 0.129221 0)
(0.121735 0.120172 0)
(0.140702 0.110576 0)
(0.161849 0.0984168 0)
(0.182551 0.0837816 0)
(0.202116 0.0691442 0)
(0.220106 0.0596118 0)
(0.233387 0.055179 0)
(-0.495616 -0.309942 0)
(-0.506364 -0.270503 0)
(-0.511178 -0.224126 0)
(-0.509825 -0.17146 0)
(-0.499431 -0.113549 0)
(-0.479663 -0.0519232 0)
(-0.453695 0.0106418 0)
(-0.42182 0.0703642 0)
(-0.38655 0.123665 0)
(-0.348914 0.1684 0)
(-0.308913 0.204004 0)
(-0.267719 0.229629 0)
(-0.22673 0.244831 0)
(-0.186793 0.250668 0)
(-0.148905 0.2479 0)
(-0.113966 0.238466 0)
(-0.0826485 0.224508 0)
(-0.0550288 0.208764 0)
(-0.0307937 0.194374 0)
(-0.0104382 0.181994 0)
(0.00719954 0.170543 0)
(0.0218427 0.160186 0)
(0.0359446 0.150257 0)
(0.0506914 0.140458 0)
(0.0666205 0.130804 0)
(0.0847541 0.120986 0)
(0.105442 0.109237 0)
(0.12617 0.0947214 0)
(0.146266 0.0793989 0)
(0.166014 0.0665899 0)
(0.182138 0.0596033 0)
(0.192475 0.0569723 0)
(0.196946 0.0590067 0)
(-0.511968 -0.286965 0)
(-0.524803 -0.252542 0)
(-0.533443 -0.211049 0)
(-0.535145 -0.164591 0)
(-0.528004 -0.111522 0)
(-0.510547 -0.0563418 0)
(-0.485785 -7.11764e-05 0)
(-0.45481 0.0549695 0)
(-0.419788 0.104501 0)
(-0.381398 0.147137 0)
(-0.340217 0.181162 0)
(-0.297865 0.205734 0)
(-0.255809 0.220811 0)
(-0.215151 0.227177 0)
(-0.176898 0.225685 0)
(-0.141894 0.218148 0)
(-0.110892 0.206997 0)
(-0.0841115 0.194684 0)
(-0.0613606 0.183233 0)
(-0.042313 0.173348 0)
(-0.0251264 0.164288 0)
(-0.00788833 0.154284 0)
(0.00873269 0.143828 0)
(0.0265652 0.133376 0)
(0.0464349 0.120968 0)
(0.0664475 0.106273 0)
(0.0858543 0.0902892 0)
(0.105279 0.0750622 0)
(0.122945 0.0646411 0)
(0.135983 0.0588479 0)
(0.143219 0.0577008 0)
(0.146732 0.0616877 0)
(0.148176 0.0689936 0)
(-0.516408 -0.260326 0)
(-0.53066 -0.231033 0)
(-0.541768 -0.194876 0)
(-0.546361 -0.153195 0)
(-0.541391 -0.107431 0)
(-0.52781 -0.0578644 0)
(-0.506323 -0.00757319 0)
(-0.477865 0.0418205 0)
(-0.443999 0.0871734 0)
(-0.406264 0.126623 0)
(-0.365713 0.15853 0)
(-0.323914 0.182039 0)
(-0.282394 0.197115 0)
(-0.242368 0.20433 0)
(-0.204952 0.204786 0)
(-0.171056 0.200093 0)
(-0.141414 0.192481 0)
(-0.115883 0.18383 0)
(-0.0933506 0.17534 0)
(-0.0731282 0.167081 0)
(-0.0544054 0.158708 0)
(-0.0346097 0.14865 0)
(-0.0142588 0.135943 0)
(0.00502232 0.12108 0)
(0.02294 0.105025 0)
(0.0412559 0.0887064 0)
(0.0584375 0.0753484 0)
(0.0725835 0.0654388 0)
(0.0823697 0.0596387 0)
(0.0884493 0.0587595 0)
(0.0924663 0.0623083 0)
(0.0953165 0.0687298 0)
(0.0971558 0.0765595 0)
(-0.50956 -0.231555 0)
(-0.525714 -0.205428 0)
(-0.537553 -0.174594 0)
(-0.544517 -0.138068 0)
(-0.543225 -0.0986532 0)
(-0.532577 -0.0561282 0)
(-0.514955 -0.012418 0)
(-0.490275 0.030769 0)
(-0.459217 0.0713953 0)
(-0.42375 0.107287 0)
(-0.385293 0.136945 0)
(-0.345477 0.159567 0)
(-0.305823 0.175109 0)
(-0.267578 0.184028 0)
(-0.231775 0.187223 0)
(-0.199077 0.186059 0)
(-0.169925 0.181938 0)
(-0.144197 0.176259 0)
(-0.121083 0.16975 0)
(-0.0994806 0.162115 0)
(-0.0786073 0.15226 0)
(-0.0581536 0.139211 0)
(-0.039963 0.123998 0)
(-0.022743 0.108108 0)
(-0.00678049 0.0937678 0)
(0.00659219 0.0811083 0)
(0.0164887 0.0714666 0)
(0.0239054 0.065291 0)
(0.0297727 0.0624329 0)
(0.0348361 0.0624675 0)
(0.0398286 0.0647502 0)
(0.0457542 0.0692652 0)
(0.0526033 0.0760426 0)
(-0.492153 -0.201615 0)
(-0.510251 -0.177955 0)
(-0.523751 -0.150605 0)
(-0.531935 -0.119449 0)
(-0.532747 -0.0847378 0)
(-0.525643 -0.0483985 0)
(-0.512156 -0.0112367 0)
(-0.491768 0.0258011 0)
(-0.464569 0.0611178 0)
(-0.432506 0.0931399 0)
(-0.397184 0.120435 0)
(-0.360074 0.142199 0)
(-0.322746 0.158234 0)
(-0.286534 0.168769 0)
(-0.252396 0.174414 0)
(-0.221049 0.176093 0)
(-0.192715 0.174595 0)
(-0.166846 0.170541 0)
(-0.143039 0.16409 0)
(-0.121673 0.155214 0)
(-0.102662 0.143792 0)
(-0.0847028 0.130235 0)
(-0.0692837 0.116925 0)
(-0.0568922 0.104764 0)
(-0.0478257 0.0940435 0)
(-0.0412252 0.0850173 0)
(-0.0358989 0.0775475 0)
(-0.0313692 0.0710911 0)
(-0.0262931 0.0658438 0)
(-0.0189602 0.0621254 0)
(-0.00915247 0.0606714 0)
(0.00297 0.062136 0)
(0.0148234 0.0685201 0)
(-0.465244 -0.171043 0)
(-0.485045 -0.149301 0)
(-0.500555 -0.125264 0)
(-0.510819 -0.0985401 0)
(-0.514077 -0.069056 0)
(-0.509824 -0.0380736 0)
(-0.499378 -0.00639768 0)
(-0.482568 0.0255784 0)
(-0.45952 0.0564531 0)
(-0.431426 0.0849097 0)
(-0.399776 0.109888 0)
(-0.366028 0.130619 0)
(-0.331672 0.146678 0)
(-0.29795 0.158022 0)
(-0.265702 0.164941 0)
(-0.235685 0.167849 0)
(-0.208511 0.167418 0)
(-0.184365 0.164105 0)
(-0.162915 0.158099 0)
(-0.143833 0.149821 0)
(-0.127778 0.140204 0)
(-0.115106 0.130341 0)
(-0.106416 0.121241 0)
(-0.100571 0.112778 0)
(-0.0968535 0.104201 0)
(-0.0948866 0.0955213 0)
(-0.0927267 0.0864513 0)
(-0.088615 0.0769119 0)
(-0.0811073 0.067632 0)
(-0.0693219 0.0590584 0)
(-0.0540803 0.0524241 0)
(-0.0378481 0.0505816 0)
(-0.0259135 0.0575874 0)
(-0.429685 -0.140568 0)
(-0.450502 -0.119449 0)
(-0.468158 -0.0981877 0)
(-0.480654 -0.0756029 0)
(-0.48644 -0.0510124 0)
(-0.485314 -0.0252582 0)
(-0.477907 0.00111781 0)
(-0.464347 0.0278829 0)
(-0.445089 0.0543263 0)
(-0.420852 0.0793418 0)
(-0.392907 0.101888 0)
(-0.362666 0.12116 0)
(-0.331606 0.136676 0)
(-0.300977 0.148316 0)
(-0.271762 0.156194 0)
(-0.244728 0.160418 0)
(-0.220393 0.161457 0)
(-0.199202 0.160027 0)
(-0.181591 0.1567 0)
(-0.167875 0.152163 0)
(-0.158325 0.146836 0)
(-0.152402 0.141156 0)
(-0.149954 0.135072 0)
(-0.150063 0.128187 0)
(-0.151097 0.119779 0)
(-0.151495 0.109805 0)
(-0.14952 0.0984414 0)
(-0.14377 0.0854819 0)
(-0.1333 0.0710377 0)
(-0.118317 0.0558926 0)
(-0.100842 0.0443458 0)
(-0.0849737 0.0411999 0)
(-0.0747499 0.0529486 0)
(-0.389904 -0.111893 0)
(-0.408189 -0.0898018 0)
(-0.426821 -0.0691165 0)
(-0.441242 -0.0494512 0)
(-0.449629 -0.0293933 0)
(-0.45152 -0.00888514 0)
(-0.446979 0.0123036 0)
(-0.437099 0.0339062 0)
(-0.42155 0.0557372 0)
(-0.401259 0.0769656 0)
(-0.377361 0.096749 0)
(-0.351192 0.114306 0)
(-0.324085 0.129164 0)
(-0.297289 0.141165 0)
(-0.272072 0.150298 0)
(-0.249528 0.156795 0)
(-0.230321 0.16093 0)
(-0.215147 0.163249 0)
(-0.204191 0.164142 0)
(-0.19723 0.163843 0)
(-0.194528 0.162376 0)
(-0.195406 0.159676 0)
(-0.198523 0.155227 0)
(-0.202318 0.148759 0)
(-0.205145 0.13998 0)
(-0.205525 0.128623 0)
(-0.202194 0.114549 0)
(-0.19465 0.0973206 0)
(-0.182838 0.0778896 0)
(-0.167144 0.0590767 0)
(-0.149283 0.0453605 0)
(-0.132052 0.0414317 0)
(-0.114672 0.0442007 0)
(-0.351063 -0.0871038 0)
(-0.363293 -0.0624951 0)
(-0.378345 -0.0406812 0)
(-0.393193 -0.022166 0)
(-0.402965 -0.00573001 0)
(-0.406908 0.0106146 0)
(-0.406583 0.0270443 0)
(-0.400936 0.0441291 0)
(-0.389798 0.0616065 0)
(-0.37403 0.0791708 0)
(-0.35482 0.096268 0)
(-0.33355 0.112349 0)
(-0.311699 0.127008 0)
(-0.290719 0.14004 0)
(-0.271847 0.151256 0)
(-0.256087 0.160824 0)
(-0.243983 0.168933 0)
(-0.235869 0.175438 0)
(-0.232087 0.180487 0)
(-0.232214 0.183694 0)
(-0.235581 0.184767 0)
(-0.240892 0.183647 0)
(-0.246726 0.179978 0)
(-0.251589 0.173346 0)
(-0.254059 0.163527 0)
(-0.253178 0.15019 0)
(-0.248563 0.132917 0)
(-0.23966 0.112384 0)
(-0.226357 0.0903532 0)
(-0.208977 0.0695141 0)
(-0.188671 0.0521159 0)
(-0.166474 0.039992 0)
(-0.141794 0.0330991 0)
(-0.318329 -0.0692946 0)
(-0.323226 -0.0402455 0)
(-0.330933 -0.0157564 0)
(-0.340672 0.00457442 0)
(-0.350229 0.0207274 0)
(-0.35781 0.0334899 0)
(-0.361692 0.0459998 0)
(-0.360683 0.0589067 0)
(-0.354555 0.072353 0)
(-0.344125 0.086705 0)
(-0.330743 0.101603 0)
(-0.315834 0.116752 0)
(-0.30083 0.131883 0)
(-0.287118 0.146642 0)
(-0.275751 0.160682 0)
(-0.26736 0.173777 0)
(-0.26265 0.185671 0)
(-0.261784 0.195851 0)
(-0.2644 0.203937 0)
(-0.269795 0.20959 0)
(-0.276791 0.212391 0)
(-0.284115 0.212111 0)
(-0.290598 0.208428 0)
(-0.295045 0.200719 0)
(-0.296508 0.188774 0)
(-0.294598 0.172574 0)
(-0.288089 0.152603 0)
(-0.276197 0.130115 0)
(-0.258863 0.106949 0)
(-0.237282 0.0845903 0)
(-0.211582 0.0640194 0)
(-0.182844 0.0452 0)
(-0.153027 0.0285084 0)
(-0.297252 -0.0588269 0)
(-0.296148 -0.0258902 0)
(-0.29669 0.00331322 0)
(-0.299623 0.0274874 0)
(-0.306294 0.0460883 0)
(-0.314266 0.0593071 0)
(-0.320143 0.0695419 0)
(-0.322922 0.0787907 0)
(-0.321674 0.0887349 0)
(-0.317041 0.100379 0)
(-0.310291 0.113846 0)
(-0.302498 0.12882 0)
(-0.295029 0.145119 0)
(-0.289001 0.161848 0)
(-0.285008 0.178326 0)
(-0.283698 0.194388 0)
(-0.285427 0.209108 0)
(-0.290008 0.221908 0)
(-0.296954 0.232298 0)
(-0.30534 0.239626 0)
(-0.314021 0.243323 0)
(-0.322047 0.243172 0)
(-0.32889 0.238438 0)
(-0.333561 0.229148 0)
(-0.334171 0.214869 0)
(-0.329706 0.195984 0)
(-0.319559 0.17346 0)
(-0.303299 0.148605 0)
(-0.28113 0.122977 0)
(-0.253732 0.098124 0)
(-0.221442 0.0740052 0)
(-0.185229 0.0500448 0)
(-0.14834 0.0267988 0)
(-0.286485 -0.0529164 0)
(-0.283361 -0.0162556 0)
(-0.280147 0.0172645 0)
(-0.278151 0.0451974 0)
(-0.279707 0.0673992 0)
(-0.283802 0.0835724 0)
(-0.289185 0.094343 0)
(-0.293691 0.102499 0)
(-0.295893 0.110542 0)
(-0.296413 0.120519 0)
(-0.296242 0.1332 0)
(-0.295632 0.148436 0)
(-0.295379 0.165758 0)
(-0.296247 0.183649 0)
(-0.298255 0.202149 0)
(-0.302181 0.22033 0)
(-0.308439 0.23711 0)
(-0.316509 0.251816 0)
(-0.325966 0.263606 0)
(-0.336079 0.27172 0)
(-0.345876 0.275337 0)
(-0.355044 0.274365 0)
(-0.362277 0.268195 0)
(-0.365943 0.256644 0)
(-0.365233 0.239588 0)
(-0.359624 0.217412 0)
(-0.348275 0.191373 0)
(-0.329923 0.162454 0)
(-0.30406 0.1324 0)
(-0.271082 0.103426 0)
(-0.231988 0.0760246 0)
(-0.188413 0.0508912 0)
(-0.144041 0.0279055 0)
(-0.284773 -0.0500701 0)
(-0.279311 -0.0107746 0)
(-0.275295 0.0279646 0)
(-0.271142 0.0596018 0)
(-0.268008 0.0846513 0)
(-0.268357 0.104233 0)
(-0.271 0.117669 0)
(-0.275303 0.127179 0)
(-0.279773 0.136068 0)
(-0.284255 0.145955 0)
(-0.289377 0.158382 0)
(-0.294577 0.173951 0)
(-0.300309 0.191826 0)
(-0.306008 0.210555 0)
(-0.311936 0.230548 0)
(-0.319526 0.249998 0)
(-0.328572 0.268093 0)
(-0.338841 0.283785 0)
(-0.350011 0.295964 0)
(-0.361688 0.30401 0)
(-0.373004 0.30733 0)
(-0.382727 0.305115 0)
(-0.390166 0.296977 0)
(-0.394671 0.282555 0)
(-0.395574 0.262477 0)
(-0.391206 0.236452 0)
(-0.380524 0.208211 0)
(-0.362921 0.177934 0)
(-0.33763 0.146016 0)
(-0.305339 0.113014 0)
(-0.265411 0.0803557 0)
(-0.21791 0.0503421 0)
(-0.165995 0.0247175 0)
(-0.289395 -0.0474572 0)
(-0.283361 -0.00713001 0)
(-0.277649 0.0340089 0)
(-0.272888 0.0710667 0)
(-0.267711 0.0989425 0)
(-0.264685 0.121932 0)
(-0.265218 0.139209 0)
(-0.267675 0.151738 0)
(-0.272646 0.16305 0)
(-0.280147 0.174779 0)
(-0.288718 0.187876 0)
(-0.297654 0.20384 0)
(-0.307026 0.221717 0)
(-0.315527 0.241314 0)
(-0.323909 0.261883 0)
(-0.333626 0.28197 0)
(-0.344403 0.300651 0)
(-0.356283 0.316669 0)
(-0.368759 0.3291 0)
(-0.381185 0.336795 0)
(-0.392861 0.33935 0)
(-0.403117 0.33545 0)
(-0.411185 0.324698 0)
(-0.415413 0.306961 0)
(-0.415085 0.283873 0)
(-0.406918 0.258365 0)
(-0.392188 0.228395 0)
(-0.374899 0.196409 0)
(-0.35423 0.162673 0)
(-0.328103 0.127118 0)
(-0.294536 0.0903964 0)
(-0.253332 0.0533074 0)
(-0.204784 0.0177252 0)
(-0.298269 -0.0447079 0)
(-0.292517 -0.00322759 0)
(-0.286074 0.0396195 0)
(-0.281179 0.079447 0)
(-0.275359 0.111236 0)
(-0.269891 0.137547 0)
(-0.268632 0.158973 0)
(-0.269737 0.175763 0)
(-0.273627 0.190203 0)
(-0.28191 0.20484 0)
(-0.292248 0.219449 0)
(-0.302979 0.235952 0)
(-0.31366 0.253755 0)
(-0.32317 0.273821 0)
(-0.332809 0.294476 0)
(-0.343549 0.314819 0)
(-0.355139 0.333685 0)
(-0.367465 0.350266 0)
(-0.380143 0.362645 0)
(-0.392225 0.369271 0)
(-0.403249 0.369434 0)
(-0.412538 0.362762 0)
(-0.418373 0.348549 0)
(-0.41784 0.329219 0)
(-0.409181 0.304552 0)
(-0.399015 0.278023 0)
(-0.387475 0.247472 0)
(-0.371105 0.213862 0)
(-0.349101 0.177748 0)
(-0.319915 0.138993 0)
(-0.283098 0.0970621 0)
(-0.240354 0.0530189 0)
(-0.196142 0.0104677 0)
(-0.310084 -0.0416957 0)
(-0.305045 0.000855013 0)
(-0.299018 0.0449886 0)
(-0.294204 0.0863296 0)
(-0.287978 0.121761 0)
(-0.281293 0.151736 0)
(-0.278592 0.177144 0)
(-0.278502 0.198314 0)
(-0.280824 0.217045 0)
(-0.288088 0.234457 0)
(-0.298204 0.250977 0)
(-0.30887 0.26824 0)
(-0.319081 0.286372 0)
(-0.328269 0.306558 0)
(-0.338028 0.327188 0)
(-0.348619 0.347599 0)
(-0.359528 0.366873 0)
(-0.371059 0.383516 0)
(-0.38291 0.394527 0)
(-0.393718 0.399055 0)
(-0.402144 0.396296 0)
(-0.407319 0.386441 0)
(-0.405887 0.369716 0)
(-0.399829 0.347536 0)
(-0.391972 0.321855 0)
(-0.380845 0.292376 0)
(-0.36551 0.261122 0)
(-0.343065 0.226837 0)
(-0.312584 0.189598 0)
(-0.274337 0.148922 0)
(-0.229246 0.105674 0)
(-0.182471 0.061101 0)
(-0.142308 0.0173116 0)
(-0.323646 -0.0373659 0)
(-0.319775 0.00572834 0)
(-0.314607 0.0506466 0)
(-0.309879 0.0933583 0)
(-0.303347 0.131509 0)
(-0.296087 0.164821 0)
(-0.292348 0.193994 0)
(-0.290688 0.219326 0)
(-0.291311 0.24232 0)
(-0.296806 0.262447 0)
(-0.304952 0.280967 0)
(-0.31397 0.299267 0)
(-0.322483 0.318037 0)
(-0.330327 0.33827 0)
(-0.339107 0.358884 0)
(-0.348197 0.379412 0)
(-0.357324 0.39919 0)
(-0.367224 0.414469 0)
(-0.376882 0.423277 0)
(-0.384272 0.425256 0)
(-0.387873 0.420081 0)
(-0.386716 0.407062 0)
(-0.382573 0.386252 0)
(-0.37579 0.360693 0)
(-0.365303 0.333101 0)
(-0.350083 0.302285 0)