/*--------------------------------*- C++ -*----------------------------------*\
  =========                 |
  \\      /  F ield         | OpenFOAM: The Open Source CFD Toolbox
   \\    /   O peration     | Website:  https://openfoam.org
    \\  /    A nd           | Version:  10
     \\/     M anipulation  |
\*---------------------------------------------------------------------------*/
FoamFile
{
    format      ascii;
    class       volScalarField;
    location    "0.949029";
    object      T;
}
// * * * * * * * * * * * * * * * * * * * * * * * * * * * * * * * * * * * * * //

dimensions      [0 0 0 1 0 0 0];

internalField   nonuniform List<scalar> 
16320
(
0.00292236
0.00292006
0.00292173
0.00292818
0.00293395
0.00294208
0.00295029
0.00295534
0.00296165
0.002967
0.00297181
0.00297998
0.00298631
0.0029935
0.00300291
0.003014
0.00302596
0.00304263
0.00306765
0.00310695
0.00316806
0.00325756
0.00336759
0.00348086
0.00357225
0.00360014
0.00358758
0.00355661
0.00353594
0.00354957
0.00360191
0.00361599
0.00360453
0.0029812
0.00299437
0.00301173
0.00302687
0.00303923
0.00304665
0.00305161
0.00305409
0.0030538
0.0030525
0.00305059
0.00304666
0.00304135
0.0030385
0.00303859
0.00303987
0.00304569
0.00305746
0.00307586
0.00310439
0.00315457
0.00323988
0.0033504
0.00346413
0.00354658
0.0035549
0.00353702
0.00349808
0.00348733
0.00352019
0.00359035
0.0036154
0.00360585
0.00310239
0.00313028
0.00315754
0.0031754
0.00318724
0.00319006
0.00318858
0.00318282
0.00317016
0.00315744
0.00314031
0.0031219
0.00310482
0.0030904
0.00308062
0.00307594
0.00307601
0.00307902
0.00308603
0.00310645
0.00313937
0.00321806
0.00333034
0.00344556
0.00351262
0.0035085
0.00348206
0.00344675
0.00345011
0.00351326
0.00358857
0.00361659
0.00360965
0.00330706
0.00334235
0.00335999
0.00335638
0.00335638
0.0033372
0.00332268
0.00330276
0.00328254
0.0032621
0.00323973
0.00321637
0.00319406
0.00317265
0.00314922
0.0031266
0.00310902
0.00310294
0.00310459
0.00311495
0.00313278
0.00319847
0.00331533
0.00342695
0.0034748
0.00346321
0.00342672
0.00340314
0.00342811
0.00352048
0.00359304
0.00362118
0.00361679
0.00345784
0.00345822
0.00343717
0.0034244
0.00340353
0.0033842
0.00336277
0.00334268
0.00331889
0.00329591
0.00327414
0.00325086
0.00322678
0.0032069
0.00318724
0.00316378
0.00313858
0.00311756
0.00311409
0.00311856
0.00313762
0.00319376
0.00331397
0.00341425
0.00343747
0.0034156
0.00337831
0.00337101
0.00342457
0.00353401
0.00359688
0.00362096
0.00361881
0.00349403
0.00347249
0.00345484
0.00343852
0.00341847
0.00339866
0.00337497
0.00335834
0.0033334
0.00330883
0.00328795
0.00326516
0.00324032
0.00321954
0.00320204
0.00318088
0.00315428
0.00312734
0.00311757
0.00312149
0.00313936
0.00320205
0.00332162
0.00339546
0.00339341
0.0033592
0.00333137
0.00334333
0.00343497
0.00353741
0.00359358
0.00361865
0.00362527
0.00349387
0.00347513
0.00345954
0.00344438
0.00343218
0.00341349
0.00339658
0.00338157
0.00335697
0.00333024
0.00330745
0.00328233
0.00325338
0.00322957
0.00321149
0.00319021
0.0031614
0.00313028
0.00311773
0.00312159
0.00314216
0.00321808
0.00332683
0.00337035
0.00335062
0.00330984
0.00329705
0.00333186
0.00343961
0.00352918
0.00359048
0.00362732
0.00365276
0.00349173
0.00348415
0.00348158
0.00348208
0.00348321
0.00347949
0.00347302
0.0034601
0.00343358
0.00340102
0.00336947
0.00333102
0.00328735
0.0032528
0.00322816
0.00320163
0.00316624
0.00312944
0.00311595
0.00312052
0.00314865
0.00324086
0.00332849
0.00334278
0.00330173
0.00326769
0.00326803
0.00333123
0.00343844
0.00353041
0.00360568
0.00367064
0.00374405
0.00351829
0.00354107
0.003569
0.00359359
0.00360646
0.00360882
0.00361145
0.0036081
0.00359928
0.00356219
0.00351424
0.00344459
0.00336847
0.00330705
0.00326272
0.00321865
0.0031681
0.00312461
0.00311166
0.00311812
0.00315992
0.00326273
0.00331959
0.00330849
0.00324985
0.00323078
0.00324931
0.00333769
0.00344513
0.00355065
0.00366209
0.00377423
0.00387048
0.00361209
0.00364452
0.00365673
0.00365357
0.00365123
0.00365238
0.00365935
0.00367043
0.00368168
0.00368553
0.00367411
0.00363804
0.00351624
0.00339594
0.00330899
0.00323446
0.0031652
0.00311532
0.0031053
0.00311662
0.00318085
0.00327645
0.00330214
0.00326077
0.00320264
0.0031983
0.00323894
0.0033468
0.00346909
0.00360408
0.00373191
0.00383874
0.00392148
0.00367497
0.00367329
0.00367132
0.00365072
0.00363653
0.00364046
0.00364515
0.00366875
0.00370534
0.00373291
0.0037378
0.00372682
0.00367391
0.00353226
0.00338514
0.0032559
0.00315786
0.0031041
0.00309899
0.00312058
0.0032103
0.00327941
0.0032766
0.0031988
0.00315917
0.00316718
0.00323733
0.00336722
0.00350107
0.00363048
0.00374816
0.00384596
0.00391906
0.0036847
0.00367675
0.00363198
0.00354096
0.00349897
0.00350407
0.00352866
0.00358883
0.00368189
0.00375089
0.00377382
0.00377087
0.00374048
0.00362977
0.00341684
0.00324942
0.00313737
0.00309038
0.00309299
0.00313908
0.00324123
0.00327406
0.00323584
0.00313382
0.00311721
0.00313894
0.00323706
0.00337315
0.00350489
0.00362674
0.00373008
0.0038059
0.00384572
0.00367776
0.00360359
0.00343007
0.00325534
0.00321179
0.00322274
0.00327736
0.00342137
0.00360775
0.00374095
0.00379804
0.00380263
0.00377129
0.00362613
0.00339321
0.0032135
0.00310336
0.00307632
0.00309382
0.00318294
0.00325914
0.00325795
0.00316672
0.00308398
0.00308118
0.00311527
0.00323092
0.00336567
0.00348003
0.00356617
0.00360954
0.00361155
0.00358247
0.00360513
0.00335958
0.00310777
0.00303561
0.00303789
0.00307489
0.00317131
0.00337346
0.00360231
0.00375345
0.00380945
0.00380781
0.00375883
0.00357299
0.003321
0.00314312
0.00306718
0.00306716
0.00311826
0.0032321
0.00326262
0.00321918
0.00309139
0.00304741
0.00305388
0.003093
0.00320244
0.00330559
0.00335797
0.00337378
0.00337113
0.00335929
0.00333795
0.0034194
0.00309438
0.00297693
0.00296699
0.00299506
0.00307367
0.00325988
0.00350194
0.00369072
0.00379598
0.00381714
0.00379973
0.00369703
0.00342975
0.003194
0.00306786
0.00304323
0.00307313
0.00318786
0.00326268
0.00325307
0.00313742
0.00303518
0.00302094
0.0030338
0.00307767
0.00315118
0.00320256
0.00322931
0.00323959
0.00324214
0.00323758
0.0032318
0.00322015
0.00298976
0.00292731
0.00294067
0.00302147
0.00326348
0.00352352
0.00370199
0.00379466
0.00381821
0.00380842
0.00373489
0.00349793
0.00322692
0.00306691
0.00302027
0.00304218
0.00313227
0.0032551
0.00327277
0.00320252
0.00305528
0.0030031
0.00300648
0.00302548
0.00306813
0.00311583
0.00314919
0.00317067
0.00318334
0.00319109
0.0032039
0.00323422
0.00312268
0.00294232
0.00290103
0.00293172
0.00308464
0.00341975
0.0036693
0.00377496
0.00380332
0.00379322
0.00371506
0.00348724
0.00321666
0.0030513
0.00299772
0.00301665
0.00308596
0.00324171
0.00329434
0.00326237
0.00311158
0.00301614
0.00299553
0.00300473
0.003026
0.00306742
0.00310621
0.00313496
0.00315642
0.00317899
0.00322148
0.00332313
0.00344095
0.00308301
0.00292328
0.00288831
0.00291644
0.00310321
0.00343792
0.00364134
0.00371258
0.00370049
0.00359697
0.00336861
0.0031475
0.00301881
0.00297667
0.00299521
0.00305498
0.00321953
0.00330403
0.00330124
0.00320655
0.00306843
0.00301312
0.00300589
0.00302304
0.00305015
0.00308534
0.00312096
0.00315737
0.00321754
0.00334385
0.00348585
0.0035774
0.00359513
0.00307531
0.00291911
0.00288562
0.00288954
0.00296594
0.00316197
0.0032968
0.00335799
0.00330716
0.00316629
0.0030477
0.00297911
0.00295934
0.00297841
0.003037
0.00320109
0.00330318
0.00332513
0.00328873
0.00315226
0.00307229
0.00304712
0.00306912
0.00308951
0.0031112
0.00315446
0.00322813
0.00336046
0.00351258
0.00360653
0.00362296
0.00361592
0.00359288
0.00315526
0.00293792
0.00288556
0.00287908
0.00289547
0.00295512
0.00300183
0.003022
0.00300294
0.00296229
0.00294524
0.00294808
0.00296976
0.00303309
0.00319829
0.0033078
0.00333762
0.00332134
0.0032425
0.00315365
0.00312004
0.00312289
0.00313579
0.00317423
0.00325021
0.00338233
0.00352729
0.00361412
0.00363978
0.00362594
0.0035964
0.00358943
0.00362366
0.003322
0.00300182
0.00290405
0.00287817
0.00287459
0.00288321
0.00289951
0.00291213
0.00291864
0.00292608
0.0029431
0.00297348
0.00305069
0.00321915
0.003317
0.00334581
0.00334377
0.0033029
0.00322207
0.00317926
0.0031733
0.00319564
0.00325844
0.00338932
0.0035331
0.00360905
0.00363384
0.0036245
0.00358743
0.00358363
0.00364098
0.0038124
0.00404753
0.00353446
0.00315138
0.00297821
0.00291443
0.00289314
0.0028883
0.00289511
0.0029085
0.00292429
0.00294937
0.00300052
0.00311162
0.00325972
0.00333298
0.00335753
0.00336051
0.00333424
0.00327563
0.00324087
0.00323352
0.00327367
0.00338656
0.00352475
0.00359571
0.0036194
0.00361808
0.00358423
0.00357756
0.00364242
0.00384904
0.0041227
0.00436284
0.00444132
0.00367542
0.0034767
0.00315829
0.00303163
0.00297548
0.00295338
0.00294818
0.00296944
0.00301377
0.00308985
0.00321025
0.00331192
0.00335848
0.00337497
0.00337681
0.00335908
0.00332103
0.00329886
0.0033041
0.00338679
0.00351
0.00358328
0.00360991
0.00361247
0.00359011
0.00358314
0.00362334
0.0038178
0.00415433
0.00436118
0.00440304
0.00438848
0.00431786
0.0037302
0.00366647
0.00350638
0.00329643
0.00320796
0.00316965
0.00315855
0.0031877
0.00326348
0.00330678
0.00336255
0.00338729
0.00339598
0.00339631
0.00338723
0.0033668
0.00335692
0.00339167
0.00350076
0.00357503
0.00360206
0.0036072
0.00359959
0.0035987
0.00362469
0.00377964
0.00413493
0.0043409
0.00436625
0.00431037
0.0041496
0.0039293
0.0037403
0.00374143
0.00373012
0.00367741
0.00356399
0.00344767
0.00339726
0.00337722
0.00337186
0.00338599
0.00340097
0.00341597
0.00342266
0.00342583
0.00342377
0.00342241
0.00343361
0.00350635
0.00357427
0.00360107
0.00360898
0.00360954
0.00361284
0.00363976
0.003766
0.00408992
0.00429768
0.00431558
0.00422734
0.00400463
0.00376649
0.00356227
0.00340809
0.00330526
0.00372722
0.00374032
0.00373208
0.00369656
0.00363642
0.00357673
0.00353847
0.00351221
0.00350019
0.00349243
0.00349057
0.00349252
0.00349679
0.00351062
0.00354245
0.00358712
0.00360942
0.00361767
0.00361884
0.0036238
0.00364606
0.00373667
0.00397948
0.00417192
0.00420143
0.00414527
0.00395349
0.00370428
0.00351539
0.00340378
0.00324684
0.00308792
0.00297715
0.00368115
0.00371291
0.00373207
0.00373328
0.00371537
0.0036844
0.00366075
0.0036389
0.00361913
0.00361
0.00360537
0.00360625
0.00361147
0.00361998
0.00362974
0.00363457
0.00363547
0.00363767
0.003653
0.00371095
0.00387685
0.00404963
0.00408731
0.00407378
0.00394238
0.00370846
0.00355078
0.00344713
0.00325175
0.00301471
0.00289545
0.00286923
0.00287481
0.00367035
0.00367847
0.00369564
0.00371343
0.00371934
0.00371938
0.00370689
0.00369395
0.00368507
0.00367576
0.00366808
0.00366367
0.00366013
0.00365648
0.0036559
0.00365721
0.00366641
0.00370205
0.00380534
0.00395933
0.00400795
0.00401398
0.00395832
0.00378239
0.00360544
0.0035124
0.00332385
0.00303483
0.00286164
0.00282107
0.00282564
0.00287691
0.00299873
0.00369113
0.00368077
0.00367919
0.00368753
0.00369917
0.00370411
0.0037054
0.00370236
0.00369728
0.00369216
0.0036869
0.00368066
0.00367863
0.00367983
0.00368702
0.00370984
0.00377169
0.00389179
0.00394908
0.00396183
0.00394824
0.00384971
0.00368571
0.00358151
0.00343384
0.0031526
0.00289082
0.00279794
0.00278722
0.00281661
0.00293263
0.00313655
0.00337762
0.00374052
0.00373035
0.00370468
0.00369714
0.00369588
0.00369963
0.00370163
0.00370256
0.00370266
0.00370005
0.00370012
0.00370312
0.00371107
0.00373209
0.00377919
0.00384651
0.00390358
0.00392041
0.00392168
0.00387844
0.0037591
0.00365301
0.00354556
0.00332894
0.00303003
0.00282601
0.00277616
0.0027723
0.00281297
0.00293232
0.00310953
0.00331252
0.00352102
0.00375817
0.00376627
0.00376791
0.00375447
0.00372965
0.00372014
0.00371794
0.00371823
0.00372159
0.00372725
0.00373904
0.00376339
0.00379496
0.00383067
0.003868
0.00388649
0.00389237
0.0038794
0.00380923
0.00371746
0.00364411
0.00350054
0.00328744
0.00298255
0.00281982
0.0027781
0.00277445
0.002804
0.00288512
0.00300319
0.00315087
0.00335035
0.00353288
0.00375437
0.00377658
0.00379046
0.00379499
0.00379463
0.00378456
0.00377771
0.00377723
0.00378202
0.00379331
0.00380805
0.003823
0.00384126
0.00385623
0.00386221
0.00386254
0.00382684
0.00376526
0.00371127
0.00362986
0.00350468
0.00329779
0.00303913
0.0028736
0.00282475
0.0028188
0.00283145
0.00287316
0.00293356
0.00301425
0.00313902
0.00332311
0.00348363
0.00372855
0.00376945
0.00379128
0.00380829
0.00381419
0.00381567
0.0038153
0.00381396
0.00381615
0.00381962
0.00382304
0.00382919
0.0038346
0.00383567
0.00381934
0.00379162
0.00376338
0.00372437
0.00366132
0.0035567
0.0033952
0.00318259
0.00301671
0.00295657
0.00294692
0.00294722
0.002952
0.00295489
0.00296294
0.00299285
0.0030639
0.00318843
0.00337795
0.00366134
0.00375291
0.00378546
0.00380409
0.00381463
0.00381795
0.00381848
0.00381472
0.00381355
0.00381386
0.00381017
0.00380646
0.00379583
0.00378939
0.0037867
0.0037774
0.00375511
0.00371355
0.00363943
0.00352289
0.00336612
0.00321443
0.00314235
0.00311496
0.00308935
0.00304578
0.00299648
0.00297581
0.00297328
0.00298496
0.00302961
0.00311712
0.00326592
0.00356677
0.00371623
0.00377354
0.00379506
0.00380495
0.00380798
0.00380804
0.00379938
0.00378616
0.00377433
0.00376708
0.0037673
0.00377427
0.00378227
0.00378477
0.00378052
0.00375998
0.00371465
0.00363021
0.00349953
0.00334553
0.00321511
0.00313669
0.00309507
0.00303821
0.00295278
0.00289868
0.00288234
0.00288272
0.00291452
0.00296862
0.00304633
0.00316
0.00350886
0.00366385
0.00375476
0.00377761
0.00378268
0.00378278
0.00377092
0.00374386
0.00373503
0.00373517
0.00374263
0.0037589
0.00377577
0.00379122
0.00380273
0.00380435
0.0037888
0.00371898
0.00359684
0.00344047
0.00326578
0.0030971
0.00293395
0.00276755
0.00264301
0.00259855
0.00258609
0.00258681
0.00261511
0.00268672
0.00279934
0.00291481
0.00304248
0.00347724
0.00360897
0.00372645
0.00375288
0.00375536
0.00374428
0.00371656
0.003707
0.00370764
0.00372039
0.00374266
0.00376587
0.00379812
0.00383843
0.00385191
0.00384905
0.00378774
0.00366583
0.00348435
0.00323329
0.00292056
0.00265583
0.0025556
0.00249613
0.00249288
0.00248811
0.00249463
0.00251
0.00252674
0.00254666
0.00257611
0.00264712
0.00281046
0.00344237
0.0035543
0.00369332
0.00372932
0.00373175
0.0037124
0.00369062
0.00368771
0.0036975
0.00372385
0.00375608
0.00380513
0.00386811
0.00388904
0.00388738
0.00383492
0.00370721
0.00348398
0.00313741
0.00276986
0.00265799
0.00259236
0.00258877
0.00259328
0.00263376
0.00266145
0.00266344
0.00263452
0.0025711
0.00254039
0.00253501
0.00254785
0.00260657
0.00341619
0.0035206
0.00366576
0.00370758
0.00371068
0.00369068
0.00367737
0.00367881
0.00370137
0.00374274
0.00380776
0.00388802
0.00391306
0.00391314
0.00386516
0.00373366
0.00347165
0.00305293
0.00279195
0.00269834
0.00268293
0.00268896
0.00277255
0.0028958
0.00293626
0.00293691
0.002913
0.00286822
0.00280452
0.00270465
0.00259773
0.00255943
0.00255376
0.00341053
0.00351912
0.00364982
0.00368575
0.00368843
0.00367507
0.0036701
0.00368092
0.00372104
0.00379942
0.00389602
0.00392831
0.00393013
0.00388882
0.00375893
0.00348004
0.0030479
0.00282095
0.00275435
0.00274504
0.00278011
0.00291244
0.00302608
0.00304503
0.00303623
0.00300593
0.00297299
0.0029455
0.00292671
0.00290254
0.00283341
0.00269039
0.00258752
0.00341489
0.00352626
0.00364053
0.00366864
0.00367108
0.00366755
0.00366998
0.00369707
0.0037738
0.00388886
0.00393499
0.00394084
0.00391046
0.00379437
0.00352208
0.00309269
0.00285939
0.00279752
0.00279149
0.00284144
0.00299368
0.00309515
0.00310908
0.00309218
0.00304362
0.00301584
0.00301341
0.00302135
0.00302498
0.00301563
0.00298388
0.00291484
0.00278116
0.00342728
0.0035398
0.00363516
0.00365806
0.00366223
0.00366474
0.00367959
0.00373484
0.00385295
0.00392974
0.0039444
0.00392836
0.00383789
0.00359637
0.00318191
0.00290589
0.00282956
0.00282194
0.00287065
0.00302489
0.00313545
0.00315245
0.00313439
0.00308603
0.00307027
0.00308039
0.00313405
0.00321438
0.00324011
0.00323604
0.00320448
0.00313643
0.00302392
0.00345724
0.00355461
0.00363385
0.00365445
0.00366125
0.00366956
0.00370411
0.00379155
0.00390257
0.00393787
0.00393728
0.00388042
0.00368904
0.00331636
0.00297226
0.00285879
0.00284201
0.00287477
0.00301167
0.00314899
0.0031776
0.00316913
0.00312753
0.00311523
0.00313193
0.00319851
0.00330098
0.00337147
0.00340502
0.0034211
0.00342265
0.00340045
0.00333655
0.00352321
0.00358125
0.00363639
0.00365484
0.0036627
0.00367975
0.00373213
0.00383723
0.00391691
0.00393182
0.00390944
0.00378294
0.00348894
0.00308617
0.00290005
0.00286123
0.00287032
0.00296852
0.00313329
0.00319096
0.003195
0.00316172
0.00314633
0.00315768
0.00321635
0.00330753
0.00337017
0.00340024
0.00343887
0.00349025
0.00350805
0.00350874
0.00349419
0.00358197
0.00360885
0.00364148
0.00365357
0.00366308
0.00369081
0.00375576
0.00386228
0.00391105
0.00391414
0.0038525
0.00365282
0.0032903
0.00298233
0.00288752
0.00287572
0.00292423
0.00307814
0.00318873
0.00320731
0.00319328
0.00317098
0.00317309
0.00321232
0.00328485
0.00334333
0.00337071
0.00340257
0.00346167
0.00351407
0.0035415
0.00355339
0.00355496
0.00360724
0.00362154
0.00364059
0.00365024
0.00366141
0.00369518
0.00377116
0.00386419
0.00389432
0.00388097
0.0037792
0.00353333
0.00316223
0.00294947
0.0029018
0.00290823
0.00300602
0.0031611
0.00320996
0.00321178
0.00318623
0.003179
0.00319546
0.0032461
0.0032996
0.00332403
0.00335022
0.00340902
0.00347304
0.00351257
0.00354363
0.00356556
0.00357559
0.00361228
0.00362079
0.00363576
0.00364388
0.00365657
0.0036936
0.00377177
0.00385192
0.00386835
0.00384139
0.00371511
0.00344889
0.00310812
0.00295978
0.00293222
0.00296675
0.00310216
0.00320019
0.00321673
0.0032017
0.00317973
0.00318024
0.003204
0.00324105
0.00325842
0.00327273
0.00331179
0.00337173
0.00342927
0.00347864
0.00352179
0.00355238
0.0035691
0.00360912
0.00361451
0.00362423
0.00363313
0.00364752
0.00368745
0.00376627
0.00382978
0.00384091
0.00380771
0.00367292
0.00340238
0.00310441
0.00299916
0.00299063
0.00305251
0.00317416
0.00321628
0.00321688
0.00318254
0.0031707
0.00317597
0.00319619
0.00321437
0.00322259
0.00324207
0.00327969
0.00332315
0.00336562
0.00341467
0.00346848
0.0035164
0.00354602
0.00358648
0.0035941
0.00359754
0.00360585
0.00362717
0.00367452
0.00375192
0.00380349
0.0038112
0.00377686
0.0036458
0.00338767
0.00314385
0.00307922
0.0030816
0.00314628
0.00321525
0.00322805
0.00320318
0.00316837
0.00316544
0.0031769
0.00319687
0.00320952
0.00321871
0.00324112
0.0032729
0.00330435
0.00333647
0.00337479
0.00341571
0.00345815
0.00349943
0.00351549
0.00355093
0.00356427
0.00357154
0.00359372
0.00364512
0.00372706
0.00377248
0.00377825
0.00374757
0.00363308
0.00340662
0.00321896
0.00317595
0.00317978
0.0032238
0.00324393
0.00323487
0.00317693
0.00316075
0.0031633
0.00318007
0.00320071
0.00321233
0.00322667
0.00325412
0.00328308
0.003307
0.00333276
0.00336487
0.00339594
0.00342853
0.00346303
0.00335683
0.0034524
0.0035115
0.00354092
0.0035642
0.00360447
0.00367507
0.00373153
0.00374207
0.00372302
0.00363645
0.00345495
0.00330221
0.00326212
0.00326135
0.00327073
0.00327045
0.00321193
0.00316327
0.00315672
0.00316576
0.00318824
0.00321196
0.00322926
0.00325402
0.00328947
0.00331406
0.00333145
0.00335358
0.00337893
0.00339919
0.0034259
0.00345494
0.00321914
0.00330708
0.00340862
0.00348506
0.00353255
0.00357129
0.00362255
0.0036831
0.00370408
0.00369972
0.00364983
0.00353905
0.00340635
0.00334142
0.00331787
0.00330624
0.00326223
0.00318465
0.00315619
0.00315544
0.00317278
0.00320609
0.00324176
0.00327602
0.00332196
0.00337036
0.00339257
0.00340735
0.00342504
0.0034341
0.0034405
0.00345237
0.00346701
0.0031443
0.003183
0.00327102
0.00337934
0.00346963
0.0035339
0.00358731
0.00364417
0.00367273
0.00367617
0.00365439
0.00358945
0.00349604
0.00341655
0.00336639
0.00331989
0.00324213
0.00316807
0.00315215
0.00315853
0.0031891
0.00324487
0.00331452
0.00339798
0.00350751
0.00357732
0.00360562
0.00361455
0.00361354
0.00358123
0.00355863
0.00354757
0.00353886
0.00312705
0.00312583
0.00315884
0.00324312
0.00335539
0.00345888
0.003542
0.00361451
0.00365167
0.00365875
0.00365035
0.00361146
0.00354348
0.0034659
0.00339366
0.00331637
0.00321581
0.00315925
0.00315191
0.00316747
0.0032225
0.00332539
0.00348532
0.00372319
0.00392413
0.0040234
0.00405213
0.00406425
0.00405109
0.0039787
0.00390105
0.00382748
0.00371376
0.00316046
0.00312297
0.00311983
0.00314567
0.00322062
0.00333243
0.00344901
0.00355571
0.00362305
0.00364144
0.00364032
0.00361533
0.00356247
0.00348942
0.00340576
0.0033084
0.00319759
0.00315651
0.00315515
0.00318714
0.00328774
0.00349033
0.00379605
0.00411537
0.00425795
0.00431442
0.0043317
0.00432938
0.00427343
0.00419743
0.00416083
0.00409341
0.0040505
0.0033749
0.00318387
0.0031301
0.00312461
0.00314263
0.00320466
0.00330946
0.00343445
0.0035531
0.00360602
0.00361641
0.00360624
0.0035639
0.00349639
0.00340829
0.00329613
0.00318617
0.00315909
0.00316484
0.00322688
0.00339325
0.00369319
0.00411189
0.00436721
0.00446709
0.0045027
0.0045082
0.00447159
0.00436454
0.00428843
0.00420574
0.00415394
0.00413098
0.00362554
0.0034698
0.00323727
0.00315023
0.0031383
0.00315069
0.00319785
0.00328742
0.00340625
0.00351394
0.00355646
0.003564
0.00354478
0.00348975
0.00340173
0.00327038
0.0031821
0.00316547
0.00318165
0.00327222
0.00349698
0.00390703
0.00433721
0.00453604
0.00460927
0.0046276
0.00461379
0.00450859
0.00434715
0.0041555
0.00397722
0.00392166
0.00391452
0.00364193
0.0036664
0.00357619
0.00333051
0.0031892
0.0031611
0.00316872
0.00320274
0.00327093
0.00336431
0.00343554
0.00346147
0.00346743
0.00344554
0.00337072
0.00325028
0.00318509
0.00317414
0.00320205
0.00332275
0.00362208
0.00409503
0.004492
0.0046611
0.0047221
0.00473625
0.00470894
0.00457026
0.00439276
0.00414601
0.00382071
0.00356971
0.00347052
0.00344485
0.00362701
0.00369564
0.00366457
0.00346625
0.00325963
0.00319679
0.00319592
0.00322013
0.00326571
0.00332274
0.00335467
0.00336364
0.00335847
0.00331899
0.00324234
0.00319409
0.00318948
0.00322812
0.00338095
0.0037478
0.00422323
0.00459494
0.00475574
0.00481697
0.00483293
0.00480455
0.00467595
0.00450435
0.00420196
0.00373544
0.00344966
0.00332049
0.00332629
0.00340025
0.00359166
0.00370755
0.00372094
0.00360543
0.00337703
0.00325341
0.00323157
0.00324714
0.00327572
0.00329879
0.00330639
0.00330636
0.00328998
0.00324758
0.00320969
0.00320829
0.00325725
0.00346221
0.00385467
0.00431087
0.00467125
0.00483497
0.00490495
0.00492788
0.00489733
0.00480762
0.00465564
0.00423439
0.00363703
0.00333509
0.00319412
0.00337782
0.00334778
0.00337276
0.00352668
0.00369751
0.00374788
0.00371171
0.00353659
0.00334819
0.00328251
0.00328036
0.00329239
0.00329702
0.00329676
0.00328914
0.003261
0.00323396
0.00323594
0.00331106
0.00355724
0.00394347
0.00436693
0.00471741
0.00490201
0.00498196
0.00500996
0.0049893
0.00492645
0.0047762
0.00417569
0.00360251
0.00329289
0.00307123
0.00361734
0.00345373
0.00336506
0.00336315
0.00345967
0.00365716
0.00375259
0.00376682
0.00368339
0.0034969
0.00336477
0.00332278
0.00330988
0.00330378
0.00329658
0.0032808
0.00326225
0.00327527
0.00338749
0.00365017
0.00401487
0.0044047
0.00474104
0.00494888
0.00503788
0.00506646
0.00505945
0.00501493
0.00483369
0.00418066
0.00365591
0.00323995
0.00281307
0.00369031
0.00368933
0.00357138
0.00338356
0.00335884
0.0034113
0.00358738
0.00374271
0.00379347
0.0037802
0.00366818
0.00350249
0.00339889
0.00335328
0.00333288
0.00332099
0.00331778
0.00335008
0.00349458
0.00375391
0.00409135
0.00444659
0.00476341
0.00497578
0.00507376
0.00510526
0.00510384
0.00506956
0.00484252
0.00423493
0.00373476
0.00306829
0.00253216
0.00364786
0.00371793
0.00373509
0.00367848
0.00343632
0.00336632
0.00338839
0.00351345
0.00371084
0.00379988
0.00383204
0.00380328
0.00369363
0.00355527
0.00346575
0.00342877
0.00343574
0.00349499
0.00364891
0.00389052
0.00418944
0.0045058
0.00479051
0.00498963
0.00509415
0.00513203
0.0051317
0.0050948
0.00482324
0.00435517
0.00374358
0.00293491
0.00242022
0.00358488
0.00364498
0.00373995
0.00376455
0.00372646
0.00350703
0.00338401
0.00338643
0.00345738
0.0036462
0.00380282
0.00386643
0.00389806
0.00387055
0.00379697
0.00371162
0.00371128
0.00375174
0.00385966
0.00406376
0.00431895
0.00458761
0.00482177
0.00499699
0.00510393
0.00514719
0.00514473
0.00509709
0.00481809
0.00445458
0.00369576
0.00283381
0.00237844
0.00357889
0.00362261
0.0036954
0.00375291
0.00378119
0.00373102
0.00355772
0.00341229
0.00339366
0.00343173
0.00357626
0.0037906
0.00389825
0.0039675
0.00401339
0.00401333
0.00401964
0.00404654
0.00411723
0.00426697
0.00446105
0.00466855
0.00484953
0.00499959
0.00510589
0.00514506
0.00513869
0.00507347
0.00483497
0.00447004
0.00363453
0.0027994
0.00238156
0.00359208
0.00363646
0.00369422
0.00374491
0.00377569
0.0037796
0.00373836
0.00360907
0.00344273
0.0034078
0.00342701
0.00352589
0.00374889
0.00392905
0.00403337
0.0041214
0.00420235
0.00426583
0.00433953
0.00444637
0.00458548
0.00473819
0.00487236
0.00500079
0.00509594
0.00511588
0.00510307
0.00501616
0.00481746
0.00444601
0.00359752
0.00280824
0.00240723
0.00364424
0.00371372
0.00374221
0.00377539
0.00379045
0.00379263
0.00377862
0.00374111
0.00364251
0.00347371
0.00342486
0.00343274
0.00349631
0.00368506
0.00394406
0.00410036
0.0042228
0.0043389
0.0044494
0.00455854
0.00467146
0.00478015
0.00488834
0.0049976
0.00506374
0.00506471
0.00504093
0.00493368
0.00474892
0.00438679
0.00358796
0.00282477
0.00246039
0.00377771
0.00387717
0.00387859
0.00388476
0.00387302
0.00384293
0.00380953
0.00377902
0.00374526
0.00366527
0.00350319
0.00344191
0.00344731
0.00349362
0.00363457
0.00390308
0.00414769
0.0043122
0.00444099
0.00456279
0.00467718
0.00478106
0.00488207
0.00497342
0.00500513
0.00499948
0.0049621
0.00483351
0.0046584
0.00432919
0.00358255
0.00285972
0.00256227
0.00395971
0.00403319
0.00404897
0.00403959
0.00400792
0.00395339
0.00388154
0.00382621
0.00378466
0.0037547
0.00368582
0.00353407
0.00346333
0.00346887
0.00350321
0.00360315
0.0038257
0.00413523
0.00434979
0.00450918
0.00463584
0.00474263
0.00484323
0.00491625
0.00492048
0.00490426
0.00484821
0.00469345
0.00453736
0.00425959
0.00357589
0.00293304
0.00267167
0.00401584
0.00407655
0.00412348
0.00417019
0.0041869
0.00413366
0.00403104
0.00392155
0.00384136
0.00379405
0.00376594
0.00370375
0.0035625
0.00348739
0.00348973
0.00351302
0.00358737
0.00373406
0.00400126
0.00429642
0.00448596
0.00462309
0.00474038
0.00478814
0.00478068
0.00474526
0.00466449
0.00451198
0.00438709
0.00414253
0.0035591
0.00301267
0.00275923
0.00401172
0.00407399
0.00413546
0.00421349
0.00429595
0.00430095
0.00424599
0.00412167
0.00394959
0.00384898
0.00380372
0.00377547
0.00371442
0.0035823
0.00350696
0.00350291
0.00351604
0.00356619
0.00367633
0.00384708
0.00408378
0.00429731
0.00446824
0.00451545
0.00450787
0.00447555
0.00440657
0.00429696
0.00420225
0.00400948
0.00355224
0.00308996
0.00283364
0.00390482
0.00399418
0.00412499
0.0042353
0.00433187
0.00439362
0.00437879
0.00432105
0.00418619
0.00395224
0.00384761
0.00380589
0.00377986
0.00372251
0.00359877
0.00351838
0.00350566
0.00351137
0.00354344
0.00361669
0.00373709
0.00388844
0.00405087
0.00417885
0.00420069
0.00419007
0.00415329
0.00407365
0.00400236
0.00386657
0.00354098
0.00315699
0.00290319
0.00372973
0.00394863
0.00412751
0.00426088
0.0043619
0.00442032
0.00444294
0.00441729
0.00434891
0.00417116
0.00393052
0.00383463
0.00379536
0.00376841
0.00371361
0.00360079
0.0035196
0.00350045
0.00350174
0.00351967
0.00356743
0.00365765
0.00375741
0.00387154
0.00390747
0.00390309
0.00388177
0.00382511
0.00377172
0.00369363
0.00350815
0.00321743
0.00298452
0.00367758
0.00397501
0.0041614
0.00427596
0.00437455
0.00442983
0.00445391
0.00445477
0.004419
0.00431417
0.00408421
0.00391058
0.00383298
0.00379558
0.0037613
0.00370534
0.00359332
0.00351434
0.00349304
0.0034899
0.00350012
0.00353186
0.00359892
0.00367782
0.0037004
0.00369696
0.00368279
0.00364539
0.00360896
0.00356425
0.00346577
0.00327406
0.00309486
0.00371138
0.0040202
0.00416982
0.00426028
0.00433648
0.00438349
0.0044221
0.00443454
0.00440515
0.00429897
0.00407765
0.00391543
0.00383848
0.00380656
0.003787
0.00374983
0.00368993
0.00357571
0.00350673
0.003488
0.003482
0.00348747
0.0035083
0.00355925
0.00357284
0.00356988
0.00355868
0.00353063
0.0035041
0.00347841
0.00342584
0.00331931
0.00321732
0.00375165
0.00399944
0.004083
0.00412078
0.00415025
0.00417931
0.00424167
0.00427938
0.00427504
0.00418269
0.00401645
0.00389048
0.00382884
0.00380282
0.00378703
0.00377355
0.00373986
0.00367826
0.00356683
0.00350252
0.00348456
0.0034806
0.00348339
0.00349467
0.0034965
0.00349294
0.00348231
0.00346189
0.00344692
0.00343419
0.00340937
0.00336906
0.00333084
0.00369396
0.00383327
0.00386518
0.00386811
0.00384573
0.0038248
0.00383874
0.00389624
0.00392835
0.00392697
0.00386924
0.00382326
0.00379909
0.00378875
0.00378337
0.0037791
0.0037607
0.00372135
0.0036487
0.00354575
0.00350143
0.00348611
0.00348448
0.00348401
0.00347998
0.00347135
0.00346365
0.00345031
0.00344405
0.00343111
0.00342619
0.00341626
0.00341334
0.00346687
0.00362048
0.00369976
0.00372066
0.00372424
0.00370219
0.00369762
0.00370461
0.00373833
0.00375195
0.00375306
0.0037525
0.00375654
0.00376242
0.00377526
0.00377995
0.00377726
0.00375655
0.00371486
0.00364231
0.00356111
0.00351846
0.00349903
0.00349158
0.00348424
0.00347637
0.00347059
0.00346387
0.0034644
0.00346705
0.00347102
0.00348039
0.00348643
0.00338291
0.00347319
0.00360015
0.00366438
0.00368192
0.00368657
0.00367438
0.00366883
0.00366872
0.00369068
0.00370177
0.0037131
0.00372959
0.0037473
0.00376866
0.00377968
0.00378087
0.00377235
0.00373905
0.00368659
0.00361302
0.00356296
0.00353529
0.00352116
0.00351467
0.00351612
0.0035224
0.00354194
0.00355952
0.00357519
0.00358877
0.00360632
0.003621
0.00336896
0.00342128
0.00347648
0.00356574
0.00364567
0.00368394
0.00368878
0.00368706
0.00367819
0.00367767
0.00369882
0.00371253
0.00372742
0.0037488
0.00376749
0.00378112
0.00378485
0.00378166
0.0037703
0.00374587
0.00370589
0.00367212
0.00365095
0.00364907
0.0036505
0.00365754
0.00366559
0.00366512
0.00368861
0.00374715
0.0038318
0.00390809
0.00399438
0.0034158
0.00342563
0.00344617
0.00347898
0.00351317
0.00359325
0.0036813
0.00372313
0.00372848
0.00372858
0.0037267
0.00373394
0.00374985
0.00376239
0.00377767
0.00379268
0.00380206
0.00380449
0.00380199
0.00379256
0.00377143