/*--------------------------------*- C++ -*----------------------------------*\
  =========                 |
  \\      /  F ield         | OpenFOAM: The Open Source CFD Toolbox
   \\    /   O peration     | Website:  https://openfoam.org
    \\  /    A nd           | Version:  10
     \\/     M anipulation  |
\*---------------------------------------------------------------------------*/
FoamFile
{
    format      ascii;
    class       volVectorField;
    location    "0.949029";
    object      U;
}
// * * * * * * * * * * * * * * * * * * * * * * * * * * * * * * * * * * * * * //

dimensions      [0 1 -1 0 0 0 0];

internalField   nonuniform List<vector> 
16320
(
(0.544801 -0.190321 0)
(0.566847 -0.185044 0)
(0.586989 -0.179095 0)
(0.604981 -0.172603 0)
(0.620638 -0.165712 0)
(0.633785 -0.158612 0)
(0.644315 -0.151578 0)
(0.652097 -0.144764 0)
(0.657139 -0.138265 0)
(0.659508 -0.132358 0)
(0.659308 -0.127043 0)
(0.656701 -0.122434 0)
(0.652252 -0.11848 0)
(0.645993 -0.115271 0)
(0.636948 -0.11322 0)
(0.625147 -0.112373 0)
(0.611161 -0.112325 0)
(0.594625 -0.113171 0)
(0.574521 -0.115159 0)
(0.549328 -0.118361 0)
(0.517263 -0.122765 0)
(0.476878 -0.128139 0)
(0.428398 -0.133884 0)
(0.375009 -0.138822 0)
(0.32245 -0.14138 0)
(0.277033 -0.140057 0)
(0.242833 -0.133521 0)
(0.220585 -0.119645 0)
(0.208227 -0.0977279 0)
(0.201866 -0.0666222 0)
(0.199098 -0.028015 0)
(0.199368 0.017466 0)
(0.203888 0.0662751 0)
(0.5517 -0.197235 0)
(0.574469 -0.191205 0)
(0.595115 -0.184349 0)
(0.613415 -0.176758 0)
(0.62908 -0.168588 0)
(0.641867 -0.160098 0)
(0.651617 -0.151545 0)
(0.658368 -0.143223 0)
(0.662142 -0.13538 0)
(0.663077 -0.128145 0)
(0.661352 -0.121583 0)
(0.657248 -0.115803 0)
(0.651353 -0.110624 0)
(0.64341 -0.106436 0)
(0.63267 -0.103681 0)
(0.619544 -0.101942 0)
(0.604487 -0.101114 0)
(0.586835 -0.101284 0)
(0.565574 -0.102711 0)
(0.539367 -0.105629 0)
(0.506407 -0.109881 0)
(0.465152 -0.115368 0)
(0.41579 -0.121433 0)
(0.361513 -0.126766 0)
(0.307962 -0.129563 0)
(0.261278 -0.12834 0)
(0.225576 -0.12157 0)
(0.201565 -0.107523 0)
(0.187049 -0.0852632 0)
(0.177684 -0.0540461 0)
(0.17178 -0.0155243 0)
(0.169384 0.029497 0)
(0.172014 0.0766634 0)
(0.558251 -0.204947 0)
(0.581753 -0.198008 0)
(0.602821 -0.189742 0)
(0.621238 -0.180461 0)
(0.636625 -0.170581 0)
(0.648725 -0.160169 0)
(0.657432 -0.14996 0)
(0.662675 -0.13997 0)
(0.664683 -0.130557 0)
(0.663783 -0.121832 0)
(0.660173 -0.113983 0)
(0.654356 -0.107004 0)
(0.646722 -0.100678 0)
(0.636693 -0.0956352 0)
(0.62412 -0.0920776 0)
(0.609655 -0.0893425 0)
(0.593399 -0.0875549 0)
(0.574625 -0.087011 0)
(0.552184 -0.0878863 0)
(0.524947 -0.0903187 0)
(0.491198 -0.0943787 0)
(0.449198 -0.0998365 0)
(0.399061 -0.106047 0)
(0.344127 -0.111637 0)
(0.289977 -0.114603 0)
(0.242394 -0.11348 0)
(0.205529 -0.106328 0)
(0.179905 -0.0920384 0)
(0.163054 -0.0692157 0)
(0.150691 -0.0382501 0)
(0.141295 0.00038042 0)
(0.137377 0.0438238 0)
(0.138961 0.0881604 0)
(0.564127 -0.212026 0)
(0.588388 -0.204062 0)
(0.609822 -0.194458 0)
(0.627848 -0.183685 0)
(0.64253 -0.17199 0)
(0.653391 -0.159746 0)
(0.660356 -0.147474 0)
(0.663914 -0.135555 0)
(0.66404 -0.124256 0)
(0.661088 -0.113797 0)
(0.655389 -0.104416 0)
(0.647727 -0.0959472 0)
(0.638095 -0.0885338 0)
(0.6258 -0.0827358 0)
(0.611486 -0.0781056 0)
(0.595744 -0.0743096 0)
(0.5781 -0.071567 0)
(0.557848 -0.0702529 0)
(0.534147 -0.0705753 0)
(0.505748 -0.0725577 0)
(0.47105 -0.0764972 0)
(0.428406 -0.0816554 0)
(0.377526 -0.0879614 0)
(0.322152 -0.0936 0)
(0.26772 -0.0966165 0)
(0.219863 -0.0955644 0)
(0.182376 -0.0880271 0)
(0.155563 -0.0734252 0)
(0.136431 -0.0500797 0)
(0.121437 -0.0195179 0)
(0.1094 0.0186925 0)
(0.105238 0.0591313 0)
(0.106552 0.0997198 0)
(0.566468 -0.221007 0)
(0.590065 -0.211878 0)
(0.610731 -0.200882 0)
(0.628049 -0.188214 0)
(0.641888 -0.174189 0)
(0.651759 -0.159685 0)
(0.657583 -0.144815 0)
(0.659496 -0.130452 0)
(0.657886 -0.116871 0)
(0.653077 -0.104418 0)
(0.64565 -0.0932172 0)
(0.636214 -0.0829803 0)
(0.624383 -0.0744054 0)
(0.61016 -0.067584 0)
(0.59438 -0.0617181 0)
(0.57713 -0.056858 0)
(0.557862 -0.0531914 0)
(0.53589 -0.0509645 0)
(0.510448 -0.0504838 0)
(0.480408 -0.0520623 0)
(0.444705 -0.0557868 0)
(0.401202 -0.0608856 0)
(0.349552 -0.0673094 0)
(0.294337 -0.0729446 0)
(0.240333 -0.0760143 0)
(0.19317 -0.0749211 0)
(0.155849 -0.0672715 0)
(0.128527 -0.0522559 0)
(0.107619 -0.0289611 0)
(0.0903579 0.00135619 0)
(0.0786669 0.0373394 0)
(0.0748994 0.0739801 0)
(0.0765918 0.110414 0)
(0.561076 -0.232363 0)
(0.584322 -0.221301 0)
(0.604912 -0.20793 0)
(0.622178 -0.192382 0)
(0.635515 -0.175456 0)
(0.644592 -0.157835 0)
(0.64923 -0.140194 0)
(0.649666 -0.123154 0)
(0.646316 -0.107179 0)
(0.639612 -0.092704 0)
(0.630499 -0.0796155 0)
(0.619149 -0.067917 0)
(0.605092 -0.0582994 0)
(0.589093 -0.050143 0)
(0.571799 -0.0429929 0)
(0.552846 -0.0370125 0)
(0.531707 -0.0324265 0)
(0.5078 -0.0294434 0)
(0.480446 -0.0283617 0)
(0.448738 -0.0295534 0)
(0.411973 -0.0330172 0)
(0.36766 -0.0382277 0)
(0.315823 -0.044572 0)
(0.261614 -0.0501978 0)
(0.209145 -0.0537011 0)
(0.163753 -0.0522993 0)
(0.127604 -0.0447696 0)
(0.10032 -0.0294425 0)
(0.0782237 -0.00678611 0)
(0.0595574 0.0232119 0)
(0.0503351 0.0550964 0)
(0.0476112 0.0874915 0)
(0.0500346 0.119875 0)
(0.549818 -0.242364 0)
(0.573478 -0.229422 0)
(0.594368 -0.213683 0)
(0.611784 -0.195572 0)
(0.624989 -0.175705 0)
(0.633514 -0.155024 0)
(0.637173 -0.134261 0)
(0.636145 -0.114198 0)
(0.630889 -0.0955878 0)
(0.622228 -0.078847 0)
(0.6111 -0.0636874 0)
(0.597208 -0.0506827 0)
(0.580761 -0.0399235 0)
(0.562887 -0.030409 0)
(0.543563 -0.0219863 0)
(0.522198 -0.0147159 0)
(0.498412 -0.00880383 0)
(0.472172 -0.00480862 0)
(0.44309 -0.00325257 0)
(0.410536 -0.00453623 0)
(0.374028 -0.00855577 0)
(0.330407 -0.0146521 0)
(0.279818 -0.0212386 0)
(0.227495 -0.0268818 0)
(0.178132 -0.0308764 0)
(0.135515 -0.0294621 0)
(0.101023 -0.0220265 0)
(0.0740868 -0.00664204 0)
(0.0507451 0.0159942 0)
(0.0345415 0.0427557 0)
(0.0263208 0.070768 0)
(0.0240821 0.099373 0)
(0.0268491 0.128138 0)
(0.533979 -0.252305 0)
(0.55831 -0.238079 0)
(0.579956 -0.220381 0)
(0.598037 -0.199608 0)
(0.611468 -0.176385 0)
(0.619753 -0.151896 0)
(0.622693 -0.127439 0)
(0.620219 -0.104027 0)
(0.612924 -0.0825632 0)
(0.602093 -0.0631158 0)
(0.588288 -0.045952 0)
(0.571144 -0.0315525 0)
(0.551759 -0.0191297 0)
(0.530799 -0.00766057 0)
(0.508123 0.00269454 0)
(0.48397 0.0113843 0)
(0.458578 0.017866 0)
(0.431513 0.021837 0)
(0.402042 0.0230223 0)
(0.369477 0.0212776 0)
(0.332851 0.0170821 0)
(0.289662 0.0100575 0)
(0.242149 0.00229458 0)
(0.193676 -0.00471121 0)
(0.148399 -0.00873519 0)
(0.10889 -0.00736093 0)
(0.0761681 0.000671541 0)
(0.0485943 0.0166001 0)
(0.026672 0.0374733 0)
(0.0128608 0.060729 0)
(0.0054518 0.0849367 0)
(0.0034887 0.10999 0)
(0.00672547 0.134913 0)
(0.514053 -0.263363 0)
(0.539138 -0.247601 0)
(0.561595 -0.227363 0)
(0.580371 -0.203446 0)
(0.594203 -0.176546 0)
(0.602133 -0.147774 0)
(0.604028 -0.11897 0)
(0.600094 -0.0914428 0)
(0.591297 -0.0665123 0)
(0.57848 -0.0441433 0)
(0.561465 -0.0248343 0)
(0.540241 -0.00859524 0)
(0.516575 0.00615549 0)
(0.492478 0.0191103 0)
(0.467956 0.0299255 0)
(0.442757 0.038484 0)
(0.416686 0.0447149 0)
(0.3893 0.0483545 0)
(0.359974 0.0490094 0)
(0.328339 0.0465605 0)
(0.292503 0.04153 0)
(0.2504 0.0333834 0)
(0.204856 0.025203 0)
(0.159322 0.0174743 0)
(0.118201 0.0136632 0)
(0.0815851 0.0149192 0)
(0.0506692 0.0234434 0)
(0.0251857 0.0380375 0)
(0.00639291 0.0562999 0)
(-0.00598917 0.0767512 0)
(-0.0124933 0.0979685 0)
(-0.0132194 0.119014 0)
(-0.0084382 0.13924 0)
(0.489433 -0.27511 0)
(0.514739 -0.258078 0)
(0.536637 -0.235792 0)
(0.554337 -0.208772 0)
(0.567321 -0.17795 0)
(0.574579 -0.144712 0)
(0.575762 -0.110891 0)
(0.570932 -0.0786197 0)
(0.561182 -0.0490457 0)
(0.54713 -0.0228711 0)
(0.526211 -0.000136521 0)
(0.500831 0.0190358 0)
(0.475229 0.0348582 0)
(0.449822 0.0474673 0)
(0.423951 0.0581402 0)
(0.397748 0.0664494 0)
(0.371276 0.0721602 0)
(0.344021 0.0750429 0)
(0.315439 0.0747163 0)
(0.285427 0.0712717 0)
(0.251016 0.0648419 0)
(0.211585 0.0559098 0)
(0.170025 0.046769 0)
(0.129466 0.0381556 0)
(0.0920271 0.0341183 0)
(0.0580796 0.0353297 0)
(0.0298297 0.0432271 0)
(0.0065626 0.0563646 0)
(-0.0106206 0.0728448 0)
(-0.0210745 0.09078 0)
(-0.0252222 0.108418 0)
(-0.0236074 0.125161 0)
(-0.0165178 0.14071 0)
(0.457026 -0.287397 0)
(0.480162 -0.269422 0)
(0.499946 -0.244933 0)
(0.515969 -0.214517 0)
(0.52759 -0.179216 0)
(0.533802 -0.141283 0)
(0.533955 -0.102519 0)
(0.528466 -0.0654501 0)
(0.518449 -0.0313198 0)
(0.501539 -0.000325757 0)
(0.47834 0.0256741 0)
(0.452165 0.0476939 0)
(0.425092 0.0651812 0)
(0.398973 0.0777096 0)
(0.373391 0.0876359 0)
(0.347449 0.0949154 0)
(0.3217 0.0993011 0)
(0.29562 0.10075 0)
(0.268865 0.0989605 0)
(0.240973 0.0942827 0)
(0.208791 0.0858091 0)
(0.173311 0.075911 0)
(0.136435 0.0653331 0)
(0.101621 0.0566559 0)
(0.0684961 0.0521829 0)
(0.0382037 0.0532499 0)
(0.0125209 0.0604506 0)
(-0.00890095 0.0724071 0)
(-0.0231311 0.0868304 0)
(-0.0304155 0.101541 0)
(-0.0318126 0.115027 0)
(-0.0273055 0.127111 0)
(-0.0173835 0.137471 0)
(0.415306 -0.298889 0)
(0.43515 -0.278949 0)
(0.451601 -0.251209 0)
(0.464329 -0.216477 0)
(0.47322 -0.177409 0)
(0.477376 -0.135376 0)
(0.476628 -0.0924692 0)
(0.470789 -0.0506852 0)
(0.459439 -0.0115139 0)
(0.440445 0.023639 0)
(0.41707 0.0529231 0)
(0.391592 0.0770208 0)
(0.364749 0.0955231 0)
(0.339498 0.107982 0)
(0.316007 0.116474 0)
(0.292143 0.121907 0)
(0.268568 0.124587 0)
(0.244897 0.124199 0)
(0.221144 0.120683 0)
(0.195585 0.1142 0)
(0.166529 0.103935 0)
(0.135959 0.0926359 0)
(0.105048 0.0805601 0)
(0.0759869 0.0719369 0)
(0.0468592 0.0674342 0)
(0.0207353 0.0684689 0)
(-0.00200814 0.074823 0)
(-0.0198796 0.0850311 0)
(-0.0304391 0.0966564 0)
(-0.0344966 0.107317 0)
(-0.0322696 0.116274 0)
(-0.0237086 0.123236 0)
(-0.00945122 0.128314 0)
(0.364832 -0.307197 0)
(0.379751 -0.284662 0)
(0.391698 -0.253808 0)
(0.400204 -0.21692 0)
(0.405011 -0.17567 0)
(0.406448 -0.130567 0)
(0.404216 -0.0839581 0)
(0.398069 -0.0376522 0)
(0.384719 0.00745554 0)
(0.366105 0.0469576 0)
(0.344226 0.0794204 0)
(0.320978 0.104756 0)
(0.29617 0.123246 0)
(0.273807 0.135205 0)
(0.254079 0.142126 0)
(0.233911 0.145795 0)
(0.213711 0.146673 0)
(0.193266 0.144358 0)
(0.173006 0.139264 0)
(0.150362 0.130192 0)
(0.12575 0.118587 0)
(0.10043 0.105325 0)
(0.0761161 0.0925294 0)
(0.0521255 0.0834524 0)
(0.0274706 0.0791613 0)
(0.005828 0.0800307 0)
(-0.0130207 0.0852041 0)
(-0.0264025 0.0929057 0)
(-0.032553 0.100788 0)
(-0.0317272 0.107074 0)
(-0.0243518 0.111734 0)
(-0.0108381 0.114355 0)
(0.00858745 0.115643 0)
(0.306184 -0.310814 0)
(0.315997 -0.285447 0)
(0.32342 -0.252843 0)
(0.32816 -0.21514 0)
(0.330232 -0.171908 0)
(0.329229 -0.124476 0)
(0.324696 -0.074614 0)
(0.315999 -0.0235133 0)
(0.301092 0.0262388 0)
(0.282853 0.0690992 0)
(0.263392 0.103469 0)
(0.243571 0.128984 0)
(0.223057 0.146566 0)
(0.206025 0.157732 0)
(0.191306 0.163318 0)
(0.175402 0.165436 0)
(0.158818 0.164489 0)
(0.142429 0.160472 0)
(0.125373 0.153537 0)
(0.106374 0.142187 0)
(0.0871899 0.128889 0)
(0.0678298 0.113715 0)
(0.0496208 0.100629 0)
(0.0300061 0.091171 0)
(0.0104695 0.0868543 0)
(-0.0062366 0.0870361 0)
(-0.019911 0.0904817 0)
(-0.0275228 0.0948888 0)
(-0.0278419 0.0987039 0)
(-0.0217333 0.101067 0)
(-0.0102812 0.102451 0)
(0.00654524 0.102491 0)
(0.0275508 0.101305 0)
(0.242783 -0.308669 0)
(0.248548 -0.281381 0)
(0.252482 -0.248246 0)
(0.253957 -0.208793 0)
(0.252628 -0.16357 0)
(0.24884 -0.114261 0)
(0.24125 -0.06197 0)
(0.227516 -0.00677982 0)
(0.211593 0.0453586 0)
(0.195357 0.0892023 0)
(0.180162 0.123606 0)
(0.165322 0.148186 0)
(0.151273 0.164265 0)
(0.140718 0.174677 0)
(0.130467 0.178964 0)
(0.118323 0.179776 0)
(0.105549 0.177505 0)
(0.0932123 0.172395 0)
(0.0794198 0.162723 0)
(0.0653553 0.149768 0)
(0.0515839 0.134147 0)
(0.03857 0.118154 0)
(0.0251077 0.104623 0)
(0.00996301 0.0950503 0)
(-0.00422403 0.0900608 0)
(-0.0157292 0.0887582 0)
(-0.0235082 0.0895524 0)
(-0.0254009 0.0907216 0)
(-0.0214181 0.0912088 0)
(-0.0119923 0.0907111 0)
(0.00251104 0.0893051 0)
(0.0209014 0.0870003 0)
(0.0422714 0.0836459 0)
(0.178345 -0.302598 0)
(0.180255 -0.275122 0)
(0.180091 -0.241182 0)
(0.177466 -0.19999 0)
(0.172231 -0.152982 0)
(0.164835 -0.101495 0)
(0.153033 -0.0449776 0)
(0.136805 0.012507 0)
(0.123629 0.0633484 0)
(0.111676 0.105555 0)
(0.10152 0.138073 0)
(0.0921588 0.160643 0)
(0.0856237 0.175988 0)
(0.0803135 0.184934 0)
(0.0729398 0.188548 0)
(0.0642556 0.188785 0)
(0.055662 0.185896 0)
(0.0463022 0.179055 0)
(0.0364006 0.167189 0)
(0.0279211 0.152434 0)
(0.0198982 0.135072 0)
(0.0121351 0.118746 0)
(0.00236493 0.104947 0)
(-0.00800871 0.0951015 0)
(-0.0168587 0.0888374 0)
(-0.0232169 0.0852506 0)
(-0.0256111 0.0829688 0)
(-0.0231414 0.0810554 0)
(-0.0159066 0.0786994 0)
(-0.00380806 0.075895 0)
(0.0122963 0.0723936 0)
(0.0307106 0.0686526 0)
(0.050409 0.0651049 0)
(0.114339 -0.2945 0)
(0.111986 -0.267187 0)
(0.107409 -0.232191 0)
(0.100415 -0.188707 0)
(0.0909272 -0.139679 0)
(0.0797537 -0.0865667 0)
(0.065869 -0.027314 0)
(0.0528163 0.0278816 0)
(0.0441592 0.074981 0)
(0.0370048 0.114002 0)
(0.0316427 0.144237 0)
(0.0289658 0.166388 0)
(0.027686 0.181073 0)
(0.0245761 0.189233 0)
(0.0198242 0.193132 0)
(0.0146044 0.19348 0)
(0.00924274 0.189895 0)
(0.00299087 0.180508 0)
(-0.00156999 0.166979 0)
(-0.00528919 0.149993 0)
(-0.00835659 0.132282 0)
(-0.0127802 0.115688 0)
(-0.0185018 0.102038 0)
(-0.0239008 0.0915737 0)
(-0.0278043 0.0836146 0)
(-0.0294118 0.0773389 0)
(-0.0273998 0.0720335 0)
(-0.0214389 0.0671734 0)
(-0.0117107 0.0625658 0)
(0.00150738 0.0582689 0)
(0.0162095 0.0538968 0)
(0.0306488 0.0510319 0)
(0.0459354 0.0485984 0)
(0.0520391 -0.283489 0)
(0.0456102 -0.256226 0)
(0.0370023 -0.220099 0)
(0.0261315 -0.174674 0)
(0.013231 -0.123545 0)
(6.50268e-05 -0.0697847 0)
(-0.0104715 -0.0148574 0)
(-0.0190105 0.0356417 0)
(-0.0236955 0.079275 0)
(-0.0260944 0.116367 0)
(-0.0254293 0.145504 0)
(-0.0242591 0.166792 0)
(-0.0242775 0.180834 0)
(-0.025667 0.189652 0)
(-0.0277736 0.194317 0)
(-0.0298228 0.194612 0)
(-0.0328306 0.188867 0)
(-0.0348515 0.177733 0)
(-0.0350988 0.162038 0)
(-0.0344895 0.144007 0)
(-0.034424 0.126243 0)
(-0.03586 0.110284 0)
(-0.0375575 0.0965523 0)
(-0.0387088 0.084725 0)
(-0.0384879 0.0745524 0)
(-0.036003 0.0656706 0)
(-0.0306258 0.057932 0)
(-0.022616 0.0512187 0)
(-0.0130146 0.0452429 0)
(-0.00390192 0.0406936 0)
(0.00656029 0.0371125 0)
(0.0198659 0.0332981 0)
(0.0354303 0.0289685 0)
(-0.00688019 -0.26967 0)
(-0.0172637 -0.241994 0)
(-0.0283126 -0.205195 0)
(-0.0409348 -0.159982 0)
(-0.0537522 -0.10962 0)
(-0.0650543 -0.0571401 0)
(-0.0725408 -0.00625977 0)
(-0.0762029 0.0404774 0)
(-0.0774506 0.0815767 0)
(-0.0761261 0.116461 0)
(-0.0736858 0.143613 0)
(-0.0715392 0.163619 0)
(-0.0702262 0.178118 0)
(-0.0696131 0.187798 0)
(-0.0690908 0.19252 0)
(-0.0694691 0.190913 0)
(-0.0692636 0.18338 0)
(-0.06707 0.170386 0)
(-0.0642231 0.15335 0)
(-0.0609306 0.135676 0)
(-0.0588232 0.118367 0)
(-0.0574169 0.102459 0)
(-0.0562664 0.0877707 0)
(-0.0540697 0.0743593 0)
(-0.0504381 0.0625078 0)
(-0.0453902 0.0520788 0)
(-0.039339 0.0429122 0)
(-0.0337013 0.0350534 0)
(-0.0272988 0.0285704 0)
(-0.0188257 0.023099 0)
(-0.00723418 0.0175999 0)
(0.0068639 0.0122723 0)
(0.0228609 0.00742565 0)
(-0.0598386 -0.25512 0)
(-0.0733498 -0.226861 0)
(-0.0853559 -0.191043 0)
(-0.0977764 -0.147812 0)
(-0.108951 -0.0995567 0)
(-0.117631 -0.049273 0)
(-0.121798 -0.000671039 0)
(-0.122457 0.0426748 0)
(-0.121767 0.0810256 0)
(-0.119178 0.113253 0)
(-0.115838 0.139109 0)
(-0.112561 0.15929 0)
(-0.109695 0.174255 0)
(-0.107127 0.183537 0)
(-0.105324 0.18628 0)
(-0.103307 0.183067 0)
(-0.0995178 0.173992 0)
(-0.0947017 0.159625 0)
(-0.0896083 0.14255 0)
(-0.0849951 0.125128 0)
(-0.08155 0.108232 0)
(-0.0782273 0.0919813 0)
(-0.0744429 0.0766429 0)
(-0.0700662 0.0625839 0)
(-0.0657279 0.0498089 0)
(-0.0620549 0.0382932 0)
(-0.057975 0.0279674 0)
(-0.0520848 0.0188734 0)
(-0.0447291 0.0106747 0)
(-0.035033 0.00311782 0)
(-0.0226331 -0.00360831 0)
(-0.00801128 -0.00970758 0)
(0.00761977 -0.0140106 0)
(-0.105959 -0.240058 0)
(-0.121147 -0.211214 0)
(-0.133602 -0.176919 0)
(-0.145302 -0.136267 0)
(-0.154906 -0.091282 0)
(-0.161342 -0.0445625 0)
(-0.163431 0.000673951 0)
(-0.162212 0.0415401 0)
(-0.159804 0.0777908 0)
(-0.156116 0.108786 0)
(-0.151593 0.134311 0)
(-0.146922 0.154179 0)
(-0.142713 0.16779 0)
(-0.139247 0.175046 0)
(-0.135533 0.176503 0)
(-0.130612 0.172027 0)
(-0.124653 0.161561 0)
(-0.118232 0.146881 0)
(-0.112192 0.130235 0)
(-0.107135 0.113271 0)
(-0.102661 0.0967621 0)
(-0.0982014 0.0808869 0)
(-0.0939631 0.0655136 0)
(-0.0907092 0.0509262 0)
(-0.0877946 0.0372608 0)
(-0.0839089 0.0246976 0)
(-0.0785848 0.0131585 0)
(-0.0722771 0.00237255 0)
(-0.0633915 -0.00749698 0)
(-0.0526208 -0.0163588 0)
(-0.0410885 -0.0231676 0)
(-0.0290679 -0.026738 0)
(-0.016051 -0.0294744 0)
(-0.145305 -0.224462 0)
(-0.16032 -0.196174 0)
(-0.173035 -0.163304 0)
(-0.183661 -0.125328 0)
(-0.192044 -0.0837749 0)
(-0.197096 -0.0407572 0)
(-0.197896 0.00143421 0)
(-0.195338 0.0403157 0)
(-0.19138 0.0748735 0)
(-0.186219 0.10445 0)
(-0.18048 0.128204 0)
(-0.175134 0.145698 0)
(-0.170266 0.157508 0)
(-0.165056 0.16386 0)
(-0.159187 0.164239 0)
(-0.152595 0.158372 0)
(-0.14558 0.147439 0)
(-0.138823 0.13321 0)
(-0.133013 0.117401 0)
(-0.128086 0.101585 0)
(-0.123898 0.0857405 0)
(-0.120811 0.069925 0)
(-0.118261 0.0544496 0)
(-0.115271 0.0396261 0)
(-0.111623 0.0254863 0)
(-0.106914 0.0119632 0)
(-0.100777 -0.00123585 0)
(-0.0937135 -0.0135812 0)
(-0.0858896 -0.0236688 0)
(-0.077417 -0.0303889 0)
(-0.0682646 -0.0365922 0)
(-0.0608412 -0.0425929 0)
(-0.0520199 -0.0485955 0)
(-0.178222 -0.208686 0)
(-0.191785 -0.182271 0)
(-0.203794 -0.150465 0)
(-0.213213 -0.115031 0)
(-0.220421 -0.076476 0)
(-0.224178 -0.0367799 0)
(-0.223771 0.0022345 0)
(-0.22033 0.038291 0)
(-0.215476 0.0701479 0)
(-0.209786 0.0970157 0)
(-0.203831 0.118458 0)
(-0.197648 0.134609 0)
(-0.191262 0.145737 0)
(-0.184684 0.150907 0)
(-0.17777 0.149932 0)
(-0.170651 0.143536 0)
(-0.163874 0.133051 0)
(-0.158009 0.120012 0)
(-0.153383 0.105583 0)
(-0.150357 0.0904293 0)
(-0.148301 0.0749388 0)
(-0.146307 0.0594614 0)
(-0.143971 0.0441425 0)
(-0.140849 0.0289628 0)
(-0.1366 0.0140428 0)
(-0.13186 -0.000549795 0)
(-0.127096 -0.0133638 0)
(-0.121693 -0.0234851 0)
(-0.116999 -0.034209 0)
(-0.113557 -0.0447392 0)
(-0.10795 -0.054173 0)
(-0.0986568 -0.063434 0)
(-0.0874337 -0.0707456 0)
(-0.204692 -0.193487 0)
(-0.217215 -0.169214 0)
(-0.2275 -0.140043 0)
(-0.235404 -0.107303 0)
(-0.240879 -0.072218 0)
(-0.243583 -0.0358536 0)
(-0.242574 -0.000245937 0)
(-0.238941 0.0328216 0)
(-0.233984 0.0622381 0)
(-0.227952 0.087604 0)
(-0.221282 0.108011 0)
(-0.214264 0.123317 0)
(-0.2071 0.132923 0)
(-0.199996 0.136692 0)
(-0.193017 0.135157 0)
(-0.186597 0.129173 0)
(-0.181232 0.119638 0)
(-0.177592 0.107609 0)
(-0.175772 0.093978 0)
(-0.174769 0.0797656 0)
(-0.173887 0.0651951 0)
(-0.17267 0.0500956 0)
(-0.170724 0.0347449 0)
(-0.168146 0.0195789 0)
(-0.165512 0.00480523 0)
(-0.163531 -0.00780016 0)
(-0.162152 -0.0212337 0)
(-0.162375 -0.034632 0)
(-0.159973 -0.0476352 0)
(-0.153563 -0.0607236 0)
(-0.144923 -0.0714988 0)
(-0.134489 -0.0802933 0)
(-0.12285 -0.0874891 0)
(-0.225349 -0.178698 0)
(-0.237433 -0.156416 0)
(-0.246713 -0.129451 0)
(-0.253147 -0.0992513 0)
(-0.256981 -0.0670193 0)
(-0.258375 -0.0339245 0)
(-0.256914 -0.00141766 0)
(-0.252969 0.0289691 0)
(-0.247666 0.0562772 0)
(-0.241218 0.0795503 0)
(-0.234089 0.0981016 0)
(-0.226728 0.111658 0)
(-0.219505 0.119824 0)
(-0.212706 0.122833 0)
(-0.206718 0.121163 0)
(-0.202298 0.115467 0)
(-0.199815 0.106524 0)
(-0.198971 0.0956303 0)
(-0.199202 0.0836989 0)
(-0.199848 0.0707486 0)
(-0.200417 0.0569326 0)
(-0.200758 0.042751 0)
(-0.201024 0.028334 0)
(-0.202254 0.0146601 0)
(-0.203733 -0.00011779 0)
(-0.20635 -0.0145865 0)
(-0.206688 -0.0293499 0)
(-0.203254 -0.0452262 0)
(-0.197909 -0.0593518 0)
(-0.190684 -0.0722704 0)
(-0.182197 -0.0838921 0)
(-0.172841 -0.0942204 0)
(-0.162921 -0.103703 0)
(-0.24055 -0.163995 0)
(-0.252293 -0.144384 0)
(-0.261098 -0.119942 0)
(-0.266761 -0.0922546 0)
(-0.26941 -0.0626618 0)
(-0.269605 -0.0325314 0)
(-0.267414 -0.00275818 0)
(-0.263131 0.025052 0)
(-0.257509 0.0498748 0)
(-0.250882 0.0709777 0)
(-0.243654 0.0875663 0)
(-0.236521 0.0995018 0)
(-0.230081 0.106605 0)
(-0.224765 0.109066 0)
(-0.221037 0.107282 0)
(-0.219276 0.102247 0)
(-0.219385 0.0949615 0)
(-0.220959 0.0859379 0)
(-0.223409 0.0754809 0)
(-0.226204 0.0639263 0)
(-0.229068 0.0514484 0)
(-0.23273 0.0389703 0)
(-0.236885 0.0251101 0)
(-0.241915 0.0105732 0)
(-0.245604 -0.00395896 0)
(-0.246436 -0.0208129 0)
(-0.245076 -0.0366131 0)
(-0.241639 -0.0520406 0)
(-0.237349 -0.0670687 0)
(-0.232482 -0.0822279 0)
(-0.226072 -0.0978057 0)
(-0.218216 -0.110165 0)
(-0.207995 -0.119029 0)
(-0.250395 -0.148396 0)
(-0.261993 -0.132056 0)
(-0.270544 -0.110917 0)
(-0.275911 -0.0861561 0)
(-0.278262 -0.0593662 0)
(-0.2779 -0.0319849 0)
(-0.275062 -0.00508447 0)
(-0.270535 0.0201327 0)
(-0.264857 0.0426396 0)
(-0.258453 0.061656 0)
(-0.251803 0.0765931 0)
(-0.245577 0.0872132 0)
(-0.240635 0.0936315 0)
(-0.237424 0.0961564 0)
(-0.236116 0.0952432 0)
(-0.236912 0.0917077 0)
(-0.239706 0.0860929 0)
(-0.243904 0.0787181 0)
(-0.248972 0.0699139 0)
(-0.254942 0.0601712 0)
(-0.261284 0.0487697 0)
(-0.268814 0.0359651 0)
(-0.276217 0.0226403 0)
(-0.281521 0.00739483 0)
(-0.284832 -0.00804931 0)
(-0.286104 -0.0241049 0)
(-0.28605 -0.0403508 0)
(-0.285003 -0.057789 0)
(-0.282274 -0.0770713 0)
(-0.27835 -0.0938059 0)
(-0.270798 -0.107763 0)
(-0.259655 -0.119368 0)
(-0.248064 -0.12815 0)
(-0.254414 -0.131787 0)
(-0.266396 -0.118715 0)
(-0.275116 -0.101155 0)
(-0.280673 -0.0799189 0)
(-0.283216 -0.0563155 0)
(-0.282914 -0.0316729 0)
(-0.280229 -0.00726817 0)
(-0.275958 0.0155662 0)
(-0.270713 0.0359598 0)
(-0.265027 0.053172 0)
(-0.259478 0.0668421 0)
(-0.254765 0.0766357 0)
(-0.251664 0.0828449 0)
(-0.250678 0.0858938 0)
(-0.251912 0.0861253 0)
(-0.255356 0.0839678 0)
(-0.260865 0.0799394 0)
(-0.268072 0.074181 0)
(-0.276315 0.0668827 0)
(-0.286065 0.0577201 0)
(-0.296585 0.0473757 0)
(-0.306345 0.0350234 0)
(-0.314626 0.0217863 0)
(-0.320963 0.00715527 0)
(-0.325497 -0.00860886 0)
(-0.328279 -0.0257057 0)
(-0.329159 -0.0454746 0)
(-0.329288 -0.06544 0)
(-0.325366 -0.0829428 0)
(-0.318158 -0.0986037 0)
(-0.310947 -0.111919 0)
(-0.302606 -0.124226 0)
(-0.291899 -0.134695 0)
(-0.252329 -0.114316 0)
(-0.265191 -0.104533 0)
(-0.274647 -0.0904639 0)
(-0.280823 -0.0726771 0)
(-0.284064 -0.0523676 0)
(-0.284545 -0.0306358 0)
(-0.282728 -0.00886424 0)
(-0.279399 0.0117752 0)
(-0.275219 0.0303258 0)
(-0.270825 0.0460713 0)
(-0.266882 0.0587168 0)
(-0.264061 0.0680988 0)
(-0.262988 0.0744416 0)
(-0.264252 0.0781267 0)
(-0.268039 0.0794453 0)
(-0.274285 0.0785758 0)
(-0.282888 0.0759797 0)
(-0.293432 0.0714942 0)
(-0.305701 0.0654722 0)
(-0.319032 0.0574889 0)
(-0.331766 0.0480564 0)
(-0.34304 0.0367893 0)
(-0.352654 0.0237105 0)
(-0.360324 0.0086371 0)
(-0.365295 -0.00886073 0)
(-0.36891 -0.0299149 0)
(-0.369935 -0.0495135 0)
(-0.36705 -0.067462 0)
(-0.363248 -0.0833766 0)
(-0.359331 -0.0995445 0)
(-0.353488 -0.115029 0)
(-0.344973 -0.12948 0)
(-0.333875 -0.141747 0)
(-0.244566 -0.0958085 0)
(-0.258445 -0.0894629 0)
(-0.268952 -0.0787118 0)
(-0.27624 -0.0643077 0)
(-0.28072 -0.0472566 0)
(-0.282554 -0.0284491 0)
(-0.28227 -0.00924244 0)
(-0.280546 0.00933374 0)
(-0.278108 0.0262381 0)
(-0.275575 0.040842 0)
(-0.27362 0.0527428 0)
(-0.272944 0.061875 0)
(-0.274159 0.0684095 0)
(-0.277922 0.0725815 0)
(-0.284559 0.0747336 0)
(-0.293809 0.0751727 0)
(-0.305833 0.0740906 0)
(-0.320389 0.0714309 0)
(-0.335996 0.0667594 0)
(-0.351306 0.0601045 0)
(-0.365418 0.051286 0)
(-0.377788 0.039797 0)
(-0.387718 0.0256769 0)
(-0.395256 0.0088282 0)
(-0.402151 -0.0116054 0)
(-0.404559 -0.031023 0)
(-0.403535 -0.0485504 0)
(-0.402757 -0.0658673 0)
(-0.400946 -0.0835159 0)
(-0.397368 -0.100864 0)
(-0.39212 -0.118039 0)
(-0.38443 -0.134882 0)
(-0.374042 -0.149493 0)
(-0.231703 -0.0761726 0)
(-0.246742 -0.0731968 0)
(-0.258591 -0.065931 0)
(-0.267457 -0.0548745 0)
(-0.273561 -0.0407335 0)
(-0.277198 -0.0246288 0)
(-0.278915 -0.00782513 0)
(-0.279343 0.00879184 0)
(-0.279181 0.0241637 0)
(-0.279041 0.0376792 0)
(-0.279636 0.0489096 0)
(-0.281621 0.0578274 0)
(-0.285656 0.0646084 0)
(-0.292356 0.0695236 0)
(-0.302052 0.0729545 0)
(-0.314787 0.0749953 0)
(-0.330264 0.0753494 0)
(-0.347454 0.0740098 0)
(-0.365005 0.0705396 0)
(-0.381766 0.0641666 0)
(-0.396681 0.054489 0)
(-0.408973 0.0419846 0)
(-0.419001 0.0262616 0)
(-0.428017 0.0069892 0)
(-0.433073 -0.011873 0)
(-0.434161 -0.0287681 0)
(-0.434853 -0.046879 0)
(-0.434517 -0.0651343 0)
(-0.432519 -0.0832494 0)
(-0.429241 -0.101512 0)
(-0.424264 -0.120198 0)
(-0.416332 -0.138099 0)
(-0.407351 -0.153749 0)
(-0.215291 -0.0554401 0)
(-0.231883 -0.0553026 0)
(-0.245514 -0.0513923 0)
(-0.256265 -0.0436609 0)
(-0.264271 -0.0326513 0)
(-0.270032 -0.0192939 0)
(-0.274066 -0.00467073 0)
(-0.277057 0.0101181 0)
(-0.279727 0.0242053 0)
(-0.282587 0.036897 0)
(-0.286282 0.0478366 0)
(-0.291446 0.056991 0)
(-0.298764 0.0644249 0)
(-0.308711 0.0703385 0)
(-0.321552 0.0748655 0)
(-0.337061 0.077974 0)
(-0.354574 0.0794108 0)
(-0.373214 0.0786091 0)
(-0.391774 0.0747668 0)
(-0.408913 0.0675987 0)
(-0.423489 0.0571093 0)
(-0.43567 0.0432164 0)
(-0.446833 0.0259458 0)
(-0.454344 0.00787032 0)
(-0.457644 -0.00894521 0)
(-0.459657 -0.0267514 0)
(-0.460413 -0.0451868 0)
(-0.45941 -0.0635956 0)
(-0.456949 -0.0820666 0)
(-0.453644 -0.100586 0)
(-0.449168 -0.118918 0)
(-0.442483 -0.137045 0)
(-0.435562 -0.154184 0)
(-0.200081 -0.0340948 0)
(-0.217914 -0.0358469 0)
(-0.233064 -0.0350433 0)
(-0.245562 -0.0304993 0)
(-0.255653 -0.0222965 0)
(-0.263737 -0.0113227 0)
(-0.270453 0.00147154 0)
(-0.27639 0.014783 0)
(-0.282166 0.0278509 0)
(-0.288373 0.0400207 0)
(-0.295497 0.0508331 0)
(-0.30404 0.0602207 0)
(-0.314514 0.0682148 0)
(-0.327228 0.074871 0)
(-0.342183 0.0800122 0)
(-0.359155 0.0834717 0)
(-0.377655 0.0846829 0)
(-0.396817 0.0831403 0)
(-0.415513 0.0783653 0)
(-0.43251 0.0701128 0)
(-0.447317 0.058364 0)
(-0.460401 0.0430385 0)
(-0.470542 0.0262041 0)
(-0.47676 0.00984852 0)
(-0.480194 -0.00748141 0)
(-0.481717 -0.0254154 0)
(-0.481416 -0.0439065 0)
(-0.479205 -0.0623901 0)
(-0.475645 -0.080521 0)
(-0.471584 -0.0984056 0)
(-0.467427 -0.115737 0)
(-0.4627 -0.13292 0)
(-0.457456 -0.149767 0)
(-0.192347 -0.0139053 0)
(-0.208903 -0.0168198 0)
(-0.224703 -0.0179275 0)
(-0.238344 -0.0159323 0)
(-0.250241 -0.0101375 0)
(-0.260711 -0.00103092 0)
(-0.270243 0.0102467 0)
(-0.279289 0.0225683 0)
(-0.288326 0.0349786 0)
(-0.297872 0.0468648 0)
(-0.308176 0.0576761 0)
(-0.319475 0.0673317 0)
(-0.332173 0.0755326 0)
(-0.346577 0.0822233 0)
(-0.362612 0.087091 0)
(-0.380013 0.0898606 0)
(-0.398499 0.0901795 0)
(-0.417457 0.087563 0)
(-0.435917 0.0815672 0)
(-0.452858 0.0720957 0)
(-0.468107 0.0593727 0)
(-0.480772 0.0440824 0)
(-0.489995 0.0279205 0)
(-0.495954 0.0107328 0)
(-0.498745 -0.00724378 0)
(-0.499123 -0.0256041 0)
(-0.497215 -0.0443665 0)
(-0.493007 -0.0623753 0)
(-0.488081 -0.0795483 0)
(-0.483418 -0.0960461 0)
(-0.479434 -0.111658 0)
(-0.476178 -0.126669 0)
(-0.47292 -0.141346 0)
(-0.192091 0.00484085 0)
(-0.206169 0.00140791 0)
(-0.221562 -0.000525851 0)
(-0.236207 -5.5244e-05 0)
(-0.249769 0.00405026 0)
(-0.262514 0.0116347 0)
(-0.274728 0.0218571 0)
(-0.286677 0.0334932 0)
(-0.298565 0.0455632 0)
(-0.310795 0.0572862 0)
(-0.323375 0.0680079 0)
(-0.336537 0.0773442 0)
(-0.350553 0.0850849 0)
(-0.365563 0.0912137 0)
(-0.381692 0.0954076 0)
(-0.398729 0.097109 0)
(-0.416528 0.0961007 0)
(-0.434754 0.0920426 0)
(-0.452588 0.0847365 0)
(-0.46901 0.0742466 0)
(-0.483462 0.0606725 0)
(-0.49497 0.0450382 0)
(-0.502766 0.0276846 0)
(-0.50683 0.00937087 0)
(-0.507189 -0.00996832 0)
(-0.50513 -0.0294817 0)
(-0.500976 -0.0476314 0)
(-0.495102 -0.0640977 0)
(-0.489555 -0.0793324 0)
(-0.485002 -0.0932431 0)
(-0.481818 -0.106323 0)
(-0.480335 -0.118587 0)
(-0.479781 -0.130066 0)
(-0.197895 0.0208368 0)
(-0.209713 0.0183464 0)
(-0.224119 0.0163902 0)
(-0.239549 0.0162991 0)
(-0.254438 0.0196123 0)
(-0.269063 0.0265442 0)
(-0.283562 0.0361042 0)
(-0.297786 0.0472924 0)
(-0.311685 0.0589978 0)
(-0.325655 0.0701828 0)
(-0.339706 0.0804118 0)
(-0.353817 0.0891522 0)
(-0.36804 0.0963054 0)
(-0.382657 0.101496 0)
(-0.398076 0.104328 0)
(-0.414018 0.104373 0)
(-0.430344 0.10163 0)
(-0.446939 0.0957275 0)
(-0.462946 0.086771 0)
(-0.477446 0.074297 0)
(-0.489412 0.0584821 0)
(-0.497612 0.0416232 0)
(-0.50122 0.0218628 0)
(-0.501068 0.00272256 0)
(-0.498209 -0.0162332 0)
(-0.493255 -0.0347022 0)
(-0.486932 -0.0512186 0)
(-0.480612 -0.0658275 0)
(-0.475657 -0.0787115 0)
(-0.472703 -0.0899368 0)
(-0.471951 -0.0996495 0)
(-0.472888 -0.108173 0)
(-0.475326 -0.116067 0)
(-0.208445 0.0347951 0)
(-0.218308 0.0340659 0)
(-0.231724 0.0327313 0)
(-0.247592 0.0329467 0)
(-0.263358 0.0362434 0)
(-0.279409 0.0430017 0)
(-0.29544 0.0520893 0)
(-0.310903 0.0629491 0)
(-0.326047 0.0741165 0)
(-0.340956 0.0847194 0)
(-0.355454 0.094274 0)
(-0.369431 0.102277 0)
(-0.383009 0.108435 0)
(-0.396653 0.111997 0)
(-0.410648 0.112758 0)
(-0.424596 0.110759 0)
(-0.438635 0.105747 0)
(-0.452606 0.0976667 0)
(-0.465989 0.0857958 0)
(-0.478015 0.0718675 0)
(-0.485691 0.0528446 0)
(-0.490361 0.0346187 0)
(-0.490726 0.0156488 0)
(-0.486594 -0.00390626 0)
(-0.48145 -0.022747 0)
(-0.47508 -0.0392636 0)
(-0.46783 -0.0538418 0)
(-0.461007 -0.0659627 0)
(-0.455795 -0.0758433 0)
(-0.45243 -0.0840613 0)
(-0.451556 -0.0902817 0)
(-0.45401 -0.095346 0)
(-0.459463 -0.0997488 0)
(-0.222756 0.0471221 0)
(-0.231043 0.0484852 0)
(-0.243355 0.0484492 0)
(-0.259167 0.049629 0)
(-0.275332 0.0534695 0)
(-0.292091 0.060331 0)
(-0.308643 0.0693901 0)
(-0.324544 0.0798804 0)
(-0.340122 0.0904162 0)
(-0.355021 0.100311 0)
(-0.369039 0.108951 0)
(-0.382048 0.115959 0)
(-0.394555 0.120442 0)
(-0.406931 0.121975 0)