/*--------------------------------*- C++ -*----------------------------------*\
  =========                 |
  \\      /  F ield         | OpenFOAM: The Open Source CFD Toolbox
   \\    /   O peration     | Website:  https://openfoam.org
    \\  /    A nd           | Version:  10
     \\/     M anipulation  |
\*---------------------------------------------------------------------------*/
FoamFile
{
    format      ascii;
    class       volScalarField;
    location    "0.947026";
    object      rho;
}
// * * * * * * * * * * * * * * * * * * * * * * * * * * * * * * * * * * * * * //

dimensions      [1 -3 0 0 0 0 0];

internalField   nonuniform List<scalar> 
15984
(
0.954295
0.957642
0.958215
0.962826
0.964084
0.967409
0.969628
0.972331
0.975076
0.977821
0.980523
0.983181
0.985748
0.988265
0.990717
0.993124
0.995476
0.997782
1.00001
1.00218
1.00424
1.00626
1.00819
1.01009
1.01193
1.01372
1.01549
1.01718
1.01886
1.02046
1.02205
1.02357
1.02506
1.02648
1.0279
1.02921
1.03056
1.03179
1.03303
1.03423
1.03535
1.03645
1.03751
1.03853
1.03951
1.04046
1.04137
1.04225
1.04308
1.04389
1.04466
1.04538
1.04608
1.04673
0.956297
0.957059
0.960343
0.96205
0.964808
0.967439
0.970209
0.972982
0.975794
0.978551
0.981283
0.983955
0.986593
0.989173
0.991692
0.994152
0.996543
0.998867
1.00111
1.00328
1.00537
1.0074
1.00936
1.01126
1.01311
1.01491
1.01666
1.01833
1.01999
1.02155
1.02309
1.02456
1.02599
1.02735
1.02867
1.02992
1.03116
1.03228
1.03342
1.03448
1.03549
1.03647
1.0374
1.03829
1.03915
1.03997
1.04074
1.0415
1.0422
1.04289
1.04353
1.04415
1.04472
1.04527
0.955158
0.958945
0.959864
0.963257
0.965381
0.967992
0.970775
0.973578
0.976367
0.979149
0.981925
0.984669
0.987371
0.990027
0.992611
0.995127
0.997556
0.999898
1.00216
1.00435
1.00647
1.00853
1.01052
1.01244
1.01431
1.0161
1.01784
1.01949
1.02111
1.02263
1.02413
1.02554
1.0269
1.0282
1.02942
1.03061
1.03171
1.03275
1.03376
1.03472
1.03559
1.03646
1.03725
1.03802
1.03876
1.03943
1.04009
1.04068
1.04127
1.04181
1.04235
1.04282
1.04329
1.04372
0.956207
0.959404
0.960265
0.964249
0.965306
0.968853
0.97123
0.973984
0.976815
0.979655
0.982489
0.985277
0.988039
0.990753
0.993407
0.995982
0.998458
1.00085
1.00317
1.0054
1.00757
1.00966
1.01167
1.0136
1.01547
1.01725
1.01898
1.02062
1.02221
1.02371
1.02517
1.02653
1.02783
1.02907
1.03019
1.03132
1.03228
1.03326
1.03415
1.03498
1.03576
1.03648
1.03716
1.0378
1.03839
1.03893
1.03943
1.0399
1.04033
1.04074
1.04111
1.04148
1.0418
1.04211
0.956998
0.958971
0.961382
0.963604
0.966323
0.968918
0.9717
0.974523
0.977359
0.980212
0.98305
0.985897
0.988701
0.99146
0.994149
0.996762
0.999312
1.00178
1.00417
1.00646
1.00866
1.01077
1.0128
1.01474
1.01662
1.01841
1.02014
1.02177
1.02335
1.02481
1.02624
1.02754
1.0288
1.02996
1.03102
1.03205
1.03292
1.03381
1.0346
1.03531
1.03596
1.03657
1.03712
1.03762
1.03807
1.03846
1.03881
1.03913
1.03941
1.03967
1.03991
1.04012
1.0403
1.04047
0.958291
0.959233
0.962201
0.964
0.966533
0.969218
0.971982
0.974798
0.977678
0.980581
0.983507
0.986405
0.989274
0.992079
0.99483
0.997509
1.00012
1.00266
1.0051
1.00746
1.00972
1.01186
1.01393
1.01589
1.01778
1.01957
1.02129
1.02291
1.02447
1.02591
1.0273
1.02857
1.02977
1.03087
1.03186
1.03281
1.03359
1.03441
1.03509
1.03568
1.03623
1.03671
1.03713
1.03747
1.03778
1.038
1.03821
1.03838
1.03851
1.0386
1.03869
1.03874
1.03877
1.03879
0.957224
0.960291
0.961662
0.964252
0.966752
0.96941
0.972187
0.975067
0.978005
0.980976
0.983958
0.986907
0.989826
0.99269
0.995516
0.998267
1.00096
1.00355
1.00604
1.00843
1.0107
1.01288
1.01495
1.01694
1.01885
1.02068
1.0224
1.02405
1.02558
1.02703
1.02836
1.02963
1.03074
1.03182
1.03274
1.03361
1.03432
1.03506
1.03561
1.0361
1.03653
1.03687
1.03716
1.03736
1.03751
1.0376
1.03763
1.03764
1.03758
1.0375
1.03744
1.03731
1.03719
1.03702
0.957399
0.960505
0.961493
0.964446
0.966728
0.969422
0.972257
0.975185
0.978168
0.981206
0.984247
0.987273
0.990245
0.993188
0.996072
0.998903
1.00166
1.00432
1.00687
1.0093
1.01162
1.01385
1.01598
1.01802
1.01996
1.02181
1.02355
1.02519
1.02672
1.02815
1.02945
1.0307
1.03175
1.0328
1.03366
1.03445
1.03512
1.03574
1.03618
1.03657
1.03686
1.03708
1.03724
1.0373
1.03728
1.03721
1.03707
1.03691
1.03666
1.03642
1.0361
1.03579
1.03556
1.0352
0.957604
0.95981
0.961739
0.964047
0.96664
0.969384
0.972257
0.975231
0.97827
0.981349
0.984435
0.987519
0.990574
0.993591
0.996549
0.999436
1.00224
1.00495
1.00756
1.01006
1.01248
1.01479
1.01699
1.01908
1.02106
1.02292
1.02468
1.02632
1.02785
1.02925
1.03055
1.03175
1.03279
1.03379
1.03461
1.03532
1.03592
1.03643
1.03679
1.03706
1.03725
1.03735
1.03736
1.03729
1.03708
1.03688
1.03646
1.0363
1.03566
1.03545
1.03468
1.03435
1.03386
1.03328
0.958062
0.959289
0.961335
0.964033
0.966496
0.969261
0.972187
0.975215
0.978307
0.981451
0.984616
0.987774
0.990915
0.994
0.997052
1.00001
1.00291
1.00566
1.00831
1.01085
1.01329
1.01563
1.01786
1.01998
1.02201
1.02392
1.02573
1.02738
1.02894
1.03033
1.03164
1.0328
1.03387
1.0348
1.0356
1.03621
1.03676
1.03716
1.03745
1.03761
1.03769
1.03767
1.03752
1.0373
1.03694
1.03658
1.03599
1.03559
1.03479
1.03436
1.03335
1.033
1.03195
1.0318
0.958031
0.958647
0.961957
0.963313
0.966318
0.968945
0.971916
0.975032
0.978213
0.981441
0.984681
0.987922
0.991133
0.994289
0.997404
1.00043
1.00337
1.0062
1.00894
1.01158
1.01408
1.01644
1.0187
1.02088
1.02299
1.02497
1.0268
1.02846
1.03001
1.03141
1.03274
1.03393
1.03498
1.03586
1.0366
1.03714
1.03762
1.03795
1.03813
1.03821
1.03817
1.03803
1.03773
1.03737
1.03678
1.03636
1.03544
1.03495
1.03383
1.0333
1.03202
1.03154
1.03024
1.03066
0.957366
0.958195
0.960127
0.963856
0.965408
0.968908
0.971607
0.974768
0.977995
0.981308
0.984625
0.987954
0.99124
0.994493
0.997668
1.00076
1.00377
1.00668
1.00949
1.01218
1.01476
1.0172
1.01954
1.02177
1.02388
1.02584
1.02766
1.02935
1.03094
1.03243
1.03379
1.03502
1.03604
1.03688
1.03761
1.03806
1.0385
1.03874
1.03884
1.03886
1.0387
1.03846
1.03793
1.03744
1.03673
1.03603
1.03495
1.03423
1.03285
1.03229
1.03068
1.03067
1.02909
1.03198
0.955612
0.958011
0.959806
0.962283
0.965075
0.967963
0.971091
0.974324
0.977644
0.981021
0.984434
0.987852
0.991251
0.994605
0.997869
1.00107
1.00414
1.00713
1.01001
1.01275
1.01536
1.01788
1.02029
1.02257
1.02473
1.02676
1.02866
1.0304
1.03202
1.03349
1.03485
1.03602
1.03708
1.03784
1.03859
1.03902
1.0394
1.03961
1.03964
1.03956
1.03927
1.03885
1.0383
1.03747
1.0368
1.03553
1.03484
1.03318
1.03233
1.03164
1.02946
1.03141
1.03519
1.03515
0.95456
0.957122
0.958839
0.961457
0.964199
0.967266
0.970392
0.97371
0.977117
0.980612
0.984142
0.987672
0.991161
0.994607
0.997944
1.00122
1.00437
1.00744
1.01039
1.01324
1.01594
1.01852
1.021
1.02332
1.0255
1.02755
1.0295
1.03134
1.03303
1.03456
1.03589
1.03708
1.03803
1.03889
1.03951
1.03999
1.04028
1.04047
1.0404
1.04022
1.03986
1.03923
1.03862
1.03752
1.03679
1.03526
1.03455
1.03265
1.03281
1.0305
1.03406
1.03158
1.05074
1.04918
0.954498
0.954927
0.958119
0.960082
0.963022
0.966134
0.969417
0.972829
0.976367
0.979937
0.983579
0.987195
0.990813
0.994358
0.99783
1.00122
1.00448
1.00766
1.0107
1.01361
1.01641
1.01909
1.02162
1.024
1.02626
1.0284
1.03042
1.03225
1.03397
1.03549
1.03692
1.03811
1.03919
1.03992
1.0406
1.04091
1.04125
1.04126
1.04121
1.04094
1.04043
1.03971
1.03894
1.0377
1.03685
1.03509
1.03441
1.03226
1.03429
1.0317
1.04389
1.04415
1.10327
1.14062
0.952392
0.956147
0.956238
0.959784
0.961901
0.965016
0.968327
0.971825
0.975468
0.979166
0.98295
0.986656
0.99033
0.993986
0.99757
1.00109
1.00447
1.00776
1.01089
1.01391
1.0168
1.01956
1.02216
1.02462
1.027
1.02923
1.03128
1.03311
1.03485
1.03639
1.03789
1.03906
1.04017
1.04088
1.04153
1.0419
1.04212
1.04221
1.04204
1.04167
1.04106
1.0402
1.03927
1.03785
1.03682
1.03501
1.03493
1.03256
1.04167
1.0413
1.08453
1.1592
1.20814
1.75416
0.960383
0.956794
0.96038
0.959288
0.961672
0.964193
0.967442
0.970455
0.974332
0.977923
0.981959
0.985886
0.989774
0.993605
0.997207
1.00078
1.00429
1.00771
1.01096
1.01407
1.01707
1.01993
1.02262
1.02516
1.02759
1.02985
1.03198
1.0339
1.03572
1.03732
1.03884
1.04006
1.04112
1.04187
1.04245
1.04287
1.04309
1.04309
1.0429
1.04241
1.04166
1.04065
1.03963
1.03796
1.03712
1.03505
1.03764
1.03649
1.06769
1.09567
1.29663
1.38117
1.85771
1.8121
0.979154
0.975164
0.969106
0.968727
0.966592
0.967703
0.967499
0.972314
0.97244
0.979034
0.979658
0.984645
0.988345
0.992647
0.996713
1.00045
1.00406
1.00757
1.01091
1.01415
1.01725
1.02019
1.02297
1.02562
1.02815
1.03047
1.03265
1.03461
1.03649
1.03813
1.03971
1.04098
1.04209
1.04289
1.04349
1.04392
1.04405
1.04396
1.0437
1.04306
1.04223
1.04114
1.03998
1.03845
1.038
1.03701
1.04853
1.06283
1.1652
1.40655
1.65594
1.9004
1.88797
1.98308
1.08022
1.03971
1.01273
0.993403
0.984171
0.977659
0.974253
0.970498
0.977788
0.974473
0.982696
0.982589
0.988661
0.990811
0.995457
0.999469
1.00351
1.00707
1.01073
1.01399
1.01732
1.02037
1.02326
1.02602
1.02864
1.03107
1.03334
1.03542
1.03732
1.03899
1.04055
1.04185
1.043
1.0438
1.04437
1.04476
1.04478
1.0448
1.04446
1.04381
1.0429
1.04163
1.04057
1.03911
1.04243
1.05001
1.08819
1.205
1.50644
1.81176
1.94976
1.96583
1.98522
1.98006
1.31626
1.25498
1.1844
1.10333
1.03955
1.00901
0.994321
0.985792
0.977572
0.98319
0.978349
0.98534
0.984991
0.992025
0.993818
0.999558
1.00189
1.00729
1.00946
1.01423
1.01679
1.02011
1.02323
1.02614
1.0289
1.03149
1.03389
1.03608
1.03808
1.03983
1.04142
1.04271
1.04384
1.04463
1.04525
1.0456
1.04569
1.0456
1.04519
1.04435
1.04329
1.04223
1.04169
1.04391
1.05876
1.10884
1.27287
1.62814
1.88304
1.96354
1.99327
1.99583
1.98178
1.9537
1.39371
1.40787
1.35921
1.30642
1.22058
1.11414
1.04306
1.00559
0.994692
0.984429
0.983928
0.983254
0.988736
0.988633
0.993084
0.997919
1.00139
1.00598
1.00948
1.01326
1.01687
1.02012
1.02322
1.02622
1.02911
1.0318
1.03428
1.03655
1.03865
1.04049
1.04211
1.04346
1.04461
1.04538
1.04599
1.04623
1.04628
1.04613
1.04558
1.04465
1.04381
1.04344
1.04649
1.0662
1.13185
1.35523
1.72147
1.94538
1.994
2.00758
1.99938
1.97344
1.92309
1.84025
1.38397
1.38965
1.39109
1.37943
1.3802
1.28135
1.18378
1.09165
1.02307
1.00395
0.991938
0.988989
0.986445
0.992389
0.991793
0.996123
1.00039
1.00463
1.00882
1.01246
1.01634
1.01978
1.02311
1.0262
1.02927
1.03212
1.03471
1.03708
1.03919
1.04112
1.04273
1.04407
1.04517
1.04596
1.04651
1.04666
1.04665
1.04642
1.04572
1.04505
1.04482
1.04893
1.07217
1.15748
1.43616
1.80268
1.98567
2.01741
2.01857
2.00063
1.95724
1.87977
1.77022
1.63047
1.30163
1.35523
1.38067
1.38355
1.39458
1.36949
1.3301
1.20817
1.11567
1.03854
1.00679
0.992078
0.990612
0.990443
0.992852
0.996013
0.999614
1.00326
1.00799
1.01147
1.0156
1.01924
1.02255
1.02628
1.02926
1.03223
1.035
1.03746
1.03959
1.04148
1.04303
1.04449
1.04566
1.04663
1.04706
1.04723
1.04719
1.04665
1.04595
1.0459
1.05018
1.07824
1.18175
1.51419
1.87191
2.0155
2.03475
2.02797
1.99851
1.93548
1.83153
1.6964
1.53732
1.3446
1.15051
1.24481
1.33279
1.37146
1.38784
1.38316
1.40463
1.30323
1.20966
1.11908
1.05473
1.02149
1.00062
0.995619
0.993681
0.996267
0.998779
1.00336
1.0063
1.01151
1.01408
1.01925
1.02183
1.02561
1.02923
1.03224
1.03508
1.03758
1.03982
1.04186
1.04354
1.04506
1.04634
1.04743
1.0477
1.04756
1.04711
1.04651
1.0466
1.05071
1.08138
1.20967
1.58254
1.92524
2.03684
2.0466
2.03344
1.99085
1.9101
1.78864
1.6303
1.45591
1.26603
1.18857
1.12602
1.17026
1.25121
1.33296
1.37415
1.38971
1.38756
1.39952
1.29291
1.17591
1.09268
1.041
1.01373
1.00148
0.9968
0.996214
0.997776
1.00175
1.00497
1.0101
1.01327
1.01791
1.02172
1.02514
1.02873
1.03213
1.03495
1.0378
1.0402
1.04248
1.04439
1.04614
1.04756
1.04831
1.04816
1.04777
1.04701
1.04689
1.05075
1.08297
1.23147
1.65035
1.96014
2.05088
2.05432
2.0362
1.98352
1.8909
1.75662
1.58433
1.38783
1.21953
1.15212
1.15209
1.13745
1.15858
1.22618
1.31601
1.36896
1.39304
1.39604
1.40681
1.35034
1.24581
1.13526
1.06327
1.02479
1.00658
0.998382
0.997208
0.99721
1.00119
1.00363
1.00861
1.01231
1.0167
1.02072
1.02459
1.02814
1.03186
1.03489
1.03813
1.04108
1.04399
1.04672
1.04891
1.0499
1.04936
1.04822
1.04701
1.04669
1.05059
1.08518
1.25014
1.68848
1.98579
2.05839
2.05938
2.0375
1.9793
1.88166
1.73962
1.55369
1.35224
1.18885
1.13143
1.14661
1.15458
1.14888
1.16689
1.24033
1.3236
1.37514
1.40381
1.40877
1.42038
1.39316
1.32254
1.2024
1.11395
1.05289
1.01956
1.00341
0.998466
0.997438
0.999846
1.00318
1.00698
1.01128
1.01538
1.0197
1.02381
1.02768
1.03168
1.03538
1.03947
1.04404
1.04916
1.05358
1.05527
1.0525
1.04924
1.04693
1.04623
1.05044
1.08731
1.26486
1.71546
1.99956
2.06424
2.06342
2.04074
1.98141
1.88314
1.73781
1.54489
1.3324
1.1746
1.13057
1.13521
1.14372
1.15951
1.18287
1.22946
1.29498
1.36433
1.41219
1.43663
1.44659
1.4441
1.41396
1.32681
1.22188
1.13829
1.0777
1.03892
1.01547
1.00482
1.00019
1.0008
1.00167
1.00579
1.00978
1.01421
1.01843
1.02356
1.02738
1.03265
1.0382
1.04539
1.05533
1.06629
1.07082
1.06179
1.05277
1.0469
1.04545
1.04952
1.08726
1.27015
1.72899
2.00735
2.06814
2.06732
2.04588
1.98941
1.89475
1.7525
1.56038
1.34368
1.17314
1.1203
1.1142
1.11885
1.14268
1.14214
1.35804
1.38457
1.41572
1.4412
1.45511
1.46218
1.45752
1.45215
1.39373
1.30999
1.21379
1.13407
1.07658
1.04076
1.01896
1.00688
1.00125
0.999989
1.00208
1.0047
1.00943
1.01354
1.01902
1.02366
1.03025
1.0382
1.05122
1.07011
1.09802
1.1188
1.10389
1.07354
1.05011
1.0453
1.04875
1.08427
1.26225
1.72298
2.00719
2.07017
2.07067
2.05257
2.00224
1.91572
1.78338
1.60046
1.39223
1.19937
1.10136
1.08934
1.11138
1.10966
1.10517
1.09207
1.39869
1.41395
1.42812
1.44023
1.44707
1.44642
1.44413
1.40011
1.36624
1.26864
1.18436
1.11646
1.06688
1.035
1.01589
1.00565
1.0009
1.00014
1.00129
1.00523
1.00862
1.01492
1.0192
1.02997
1.04254
1.06917
1.1078
1.1718
1.23767
1.25944
1.15928
1.06524
1.04762
1.04889
1.0827
1.24343
1.69363
1.99626
2.0693
2.07286
2.05955
2.01788
1.94356
1.82853
1.6634
1.46518
1.26867
1.10631
1.08033
1.07695
1.06744
1.07044
1.06151
1.05116
1.23774
1.26772
1.29168
1.3069
1.31443
1.31211
1.29385
1.26338
1.20498
1.16073
1.11526
1.07599
1.04605
1.02568
1.01197
1.00394
0.999529
0.999519
1.00299
1.00601
1.01603
1.02231
1.04228
1.0622
1.11022
1.191
1.28794
1.37026
1.41704
1.37092
1.12853
1.05608
1.05
1.07777
1.21618
1.64345
1.97324
2.06532
2.07353
2.06556
2.03406
1.97453
1.8807
1.74019
1.55837
1.35803
1.175
1.0987
1.05909
1.05186
1.04514
1.03596
1.03394
1.02132
1.23357
1.22381
1.21888
1.21424
1.2049
1.19975
1.18621
1.16663
1.14243
1.11885
1.09357
1.06644
1.04315
1.02607
1.016
1.0116
1.0135
1.01621
1.02236
1.03637
1.04752
1.08385
1.12797
1.20629
1.31185
1.41702
1.50198
1.55671
1.56023
1.32047
1.08769
1.055
1.07014
1.18353
1.57537
1.93853
2.05764
2.07228
2.06942
2.04848
2.00391
1.9331
1.82139
1.66678
1.48334
1.29868
1.14793
1.05789
1.06212
1.04368
1.02502
1.02264
1.01465
1.0072
1.60712
1.51735
1.44749
1.39007
1.33602
1.30462
1.26735
1.23417
1.20656
1.1825
1.15752
1.13282
1.11193
1.09965
1.09377
1.09445
1.10028
1.11421
1.13807
1.1667
1.21524
1.27851
1.35067
1.43693
1.53117
1.60667
1.66482
1.68796
1.5243
1.21995
1.06771
1.06516
1.14755
1.48546
1.8851
2.04442
2.06939
2.07022
2.05944
2.03021
1.98209
1.90355
1.78552
1.62955
1.44799
1.26555
1.13144
1.06117
1.05232
1.04134
1.02818
1.01613
1.00813
1.00351
1.56426
1.57036
1.54181
1.51308
1.48069
1.46061
1.43594
1.41846
1.40293
1.39011
1.37442
1.35507
1.33639
1.32327
1.32011
1.32074
1.3256
1.33723
1.35968
1.38941
1.43277
1.48947
1.55395
1.62486
1.6895
1.74421
1.76914
1.67758
1.44263
1.10817
1.06917
1.11619
1.38586
1.81096
2.02309
2.0631
2.06821
2.06423
2.0476
2.01664
1.96761
1.88653
1.76822
1.6135
1.43564
1.26152
1.12835
1.06689
1.0501
1.04124
1.02635
1.01412
1.00867
1.00191
1.06518
1.15007
1.22227
1.28407
1.32986
1.36111
1.37877
1.39109
1.39761
1.4066
1.41151
1.4137
1.41487
1.42017
1.42928
1.44435
1.45828
1.47769
1.50413
1.53692
1.58003
1.63074
1.68595
1.72754
1.78336
1.80674
1.7491
1.5539
1.23434
1.08906
1.1031
1.29722
1.72614
2.00492
2.04157
2.06467
2.06357
2.0561
2.03789
2.01281
1.97066
1.90403
1.80757
1.67632
1.51702
1.3488
1.20008
1.11505
1.0526
1.06339
1.0278
1.02793
1.00722
1.00807
0.959414
0.962408
0.98292
1.01157
1.04832
1.09419
1.14445
1.19727
1.24854
1.2954
1.33603
1.36601
1.38849
1.40925
1.43135
1.45648
1.48557
1.51599
1.55204
1.59493
1.64082
1.69207
1.72539
1.80006
1.82125
1.79122
1.66904
1.52018
1.10619
1.09232
1.20744
1.6542
1.96257
2.02065
2.05706
2.05879
2.05686
2.04736
2.0339
2.01609
1.98607
1.94049
1.8718
1.77241
1.64209
1.48953
1.33988
1.21475
1.12994
1.09386
1.08694
1.06043
1.03885
1.03007
0.99675
1.00661
1.01335
1.02472
1.04309
1.06876
1.09942
1.12657
1.1509
1.17773
1.20684
1.2416
1.28465
1.32887
1.37156
1.41674
1.45887
1.50067
1.54115
1.58989
1.64868
1.6945
1.79126
1.80768
1.79409
1.71385
1.74539
1.09763
1.12766
1.18428
1.49195
1.87594
2.01848
2.04144
2.05343
2.05266
2.04959
2.04331
2.03688
2.02763
2.01198
1.991
1.95855
1.91151
1.84413
1.74875
1.6221
1.48205
1.35671
1.26185
1.20884
1.1412
1.1487
1.11359
1.06151
1.09094
1.12058
1.14793
1.16798
1.17334
1.17391
1.17319
1.17322
1.18051
1.19072
1.20216
1.21265
1.22606
1.25488
1.29847
1.35009
1.40585
1.48008
1.5674
1.64041
1.75959
1.76917
1.76719
1.72412
1.78698
1.11937
1.11319
1.1379
1.40278
1.88581
1.92649
2.04026
2.03808
2.04538
2.04382
2.04028
2.03617
2.03206
2.02488
2.01693
2.00615
1.99247
1.97357
1.94731
1.91348
1.86968
1.81345
1.74367
1.6638
1.57586
1.49898
1.41294
1.36499
1.10548
1.15519
1.21001
1.2484
1.26413
1.26352
1.25596
1.24934
1.22722
1.20978
1.18699
1.16797
1.16264
1.17054
1.19015
1.23333
1.29643
1.38236
1.46863
1.60069
1.69332
1.73783
1.74588
1.74036
1.76654
1.16351
1.16336
1.17419
1.41825
1.87572
1.87356
2.02547
2.0258
2.03601
2.03531
2.03365
2.03058
2.02786
2.02469
2.02147
2.01594
2.0122
2.00411
2.00054
1.99086
1.98249
1.97006
1.95631
1.93927
1.91905
1.89494
1.86763
1.83901
1.80623
1.1244
1.18047
1.23469
1.28357
1.28035
1.28541
1.27574
1.26024
1.2402
1.20739
1.17738
1.15104
1.15702
1.16794
1.19276
1.22217
1.29956
1.33825
1.58716
1.62021
1.71378
1.72353
1.75204
1.75213
1.19445
1.15615
1.1735
1.25735
1.75917
1.91704
1.95593
2.00871
2.02715
2.02486
2.02475
2.02219
2.02006
2.01774
2.01486
2.01172
2.00839
2.00543
2.00234
1.99941
1.99676
1.99454
1.99234
1.98974
1.98754
1.9841
1.98053
1.97608
1.97097
1.96568
1.11521
1.17288
1.23601
1.26844
1.29305
1.28508
1.28113
1.26612
1.24416
1.21663
1.17561
1.18301
1.15692
1.18152
1.1792
1.35328
1.36303
1.58954
1.59195
1.6521
1.68344
1.69489
1.5502
1.28056
1.16828
1.18286
1.33037
1.87816
1.82023
1.97964
1.97513
2.01297
2.01477
2.01445
2.01271
2.01061
2.00876
2.00614
2.00339
2.0007
1.99786
1.99491
1.99239
1.99023
1.98878
1.98779
1.98746
1.98731
1.9877
1.9881
1.98854
1.98874
1.9884
1.98746
1.08354
1.1349
1.19472
1.24058
1.28985
1.28372
1.29044
1.27675
1.27371
1.2602
1.26217
1.25755
1.30052
1.30117
1.43333
1.42367
1.50942
1.55862
1.588
1.63091
1.58262
1.3729
1.27728
1.19841
1.21704
1.36419
1.68664
1.89629
1.88372
1.98927
1.98709
2.00381
2.0045
2.00294
2.00105
1.99906
1.99635
1.99363
1.99099
1.98838
1.98554
1.98286
1.9805
1.97854
1.97715
1.97671
1.97679
1.97766
1.97893
1.98059
1.98249
1.98439
1.98574
1.98638
1.03804
1.07564
1.12531
1.17806
1.22781
1.25877
1.27914
1.28878
1.301
1.3134
1.31013
1.35252
1.34508
1.41582
1.4179
1.47697
1.49142
1.55701
1.44451
1.3855
1.27844
1.22049
1.22847
1.23971
1.36094
1.65239
1.90296
1.88915
1.98021
1.98065
1.98954
1.99378
1.99325
1.99135
1.9897
1.98759
1.98489
1.982
1.97911
1.97589
1.9728
1.96999
1.96765
1.96597
1.9647
1.96475
1.96487
1.96625
1.96844
1.97124
1.97436
1.97775
1.98045
1.98221
1.01274
1.02854
1.05313
1.08693
1.13396
1.20098
1.21447
1.25909
1.26265
1.27962
1.33727
1.30606
1.37243
1.36628
1.38582
1.38096
1.35191
1.25088
1.24271
1.2068
1.20765
1.20624
1.23528
1.47377
1.76671
1.81648
1.93246
1.94785
1.96798
1.98689
1.98275
1.98417
1.98246
1.98077
1.9788
1.97601
1.97301
1.96991
1.96649
1.96304
1.95959
1.95641
1.95396
1.95212
1.95132
1.95112
1.9517
1.95423
1.95585
1.96117
1.96503
1.9699
1.97417
1.97706
1.01422
1.01195
1.03317
1.02834
1.07038
1.06598
1.09782
1.13501
1.13412
1.20363
1.17762
1.21858
1.21198
1.2123
1.19244
1.18926
1.17784
1.17215
1.19439
1.19486
1.22063
1.36776
1.67266
1.66938
1.8864
1.88717
1.95504
1.95975
1.97303
1.97768
1.9755
1.97417
1.97266
1.97047
1.96776
1.96497
1.96137
1.95744
1.95336
1.94921
1.94508
1.94183
1.9389
1.93659
1.93562
1.93455
1.93669
1.93758
1.94414
1.94532
1.9551
1.95897
1.96704
1.97085
1.02904
1.03258
1.03597
1.03818
1.05732
1.05257
1.07201
1.072
1.09437
1.09358
1.12
1.12005
1.13334
1.1423
1.14945
1.16414
1.17765
1.20001
1.24192
1.34427
1.56141
1.63118
1.82076
1.79808
1.92219
1.9191
1.96374
1.96378
1.97022
1.96994
1.96746
1.96637
1.96426
1.96129
1.95786
1.95362
1.94914
1.94448
1.93959
1.93461
1.92993
1.92567
1.92126
1.91879
1.91529
1.91699
1.91392
1.92163
1.92042
1.93142
1.93542
1.94931
1.95459
1.96195
1.11557
1.11169
1.10406
1.1
1.09592
1.09534
1.09445
1.11172
1.10465
1.1214
1.12926
1.14165
1.15606
1.17407
1.19597
1.23334
1.29329
1.39782
1.53477
1.63458
1.77552
1.78803
1.88099
1.8772
1.92854
1.96433
1.95918
1.96587
1.9649
1.96308
1.96093
1.95837
1.9547
1.95074
1.94676
1.94261
1.93759
1.93215
1.92601
1.91988
1.91352
1.90559
1.90167
1.89479
1.89407
1.88752
1.89097
1.88775
1.89904
1.9003
1.91671
1.92536
1.94175
1.94772
1.37094
1.36049
1.35698
1.33869
1.32589
1.29874
1.29364
1.2685
1.27468
1.27358
1.28848
1.30569
1.33859
1.38234
1.44012
1.51477
1.59803
1.67333
1.75949
1.81098
1.86051
1.90005
1.90854
1.95163
1.95192
1.9631
1.96137
1.96254
1.96053
1.9576
1.9547
1.95145
1.94763
1.94353
1.93847
1.93256
1.92607
1.91847
1.91061
1.9018
1.89398
1.88622
1.87875
1.87327
1.85537
1.85721
1.84556
1.85452
1.85032
1.86544
1.87335
1.89486
1.91411
1.92651
1.60122
1.61153
1.61245
1.60937
1.59771
1.59072
1.57889
1.57265
1.57043
1.57329
1.58381
1.60171
1.62912
1.66263
1.69969
1.75219
1.78593
1.84716
1.86761
1.91286
1.91042
1.94102
1.94142
1.95959
1.95859
1.96236
1.96038
1.95871
1.95554
1.95261
1.94923
1.94517
1.94042
1.93485
1.92834
1.92117
1.91347
1.90423
1.89534
1.88411
1.87727
1.85439
1.85043
1.82236
1.82543
1.81164
1.81754
1.81456
1.83063
1.83578
1.8593
1.86495
1.89245
1.8996
1.76848
1.77684
1.7888
1.78098
1.78104
1.7743
1.77122
1.76778
1.77007
1.77492
1.77959
1.79523
1.81061
1.82198
1.86468
1.86052
1.90542
1.90557
1.93183
1.93547
1.95076
1.95215
1.96056
1.96026
1.96164
1.96031
1.95809
1.95541
1.95202
1.94817
1.94422
1.93923
1.93367
1.9271
1.91961
1.91115
1.90128
1.88987
1.88031
1.86882
1.84316
1.8435
1.81357
1.80956
1.80031
1.79657
1.80481
1.81927
1.83969
1.86267
1.8823
1.89935
1.90616
1.89478
1.86817
1.8756
1.87553
1.87894
1.87567
1.87399
1.87028
1.87579
1.87362
1.8803
1.8822
1.89054
1.90149
1.90412
1.92171
1.92211
1.93975
1.9404
1.95256
1.95361
1.96005
1.96026
1.96279
1.96187
1.96103
1.95921
1.95626
1.95337
1.94963
1.94537
1.94052
1.93493
1.9282
1.92076
1.91152
1.90225
1.89024
1.88012
1.86636
1.84129
1.83752
1.80925
1.80302
1.79032
1.78837
1.79582
1.81527
1.83293
1.85052
1.86948
1.89064
1.91485
1.93746
1.95429
1.92324
1.92333
1.92352
1.92185
1.9217
1.9205
1.92279
1.92136
1.92531
1.92515
1.92909
1.93429
1.93541
1.94312
1.94421
1.95164
1.95347
1.95826
1.96026
1.96226
1.96393
1.96389
1.96377
1.96272
1.96113
1.95824
1.95565
1.95243
1.94832
1.9433
1.93782
1.93142
1.92393
1.91549
1.90593
1.89499
1.88298
1.86674
1.84798
1.83527
1.81679
1.79876
1.78679
1.78317
1.78812
1.80289
1.81435
1.82535
1.83527
1.85111
1.87273
1.89687
1.91749
1.93113
1.9517
1.95062
1.94806
1.94784
1.9451
1.94642
1.9442
1.94575
1.94587
1.94859
1.94823
1.95183
1.95269
1.9561
1.95745
1.96049
1.96175
1.96399
1.96498
1.96595
1.96614
1.96585
1.965
1.96336
1.96103
1.9587
1.95588
1.95219
1.94761
1.94227
1.93629
1.92934
1.92115
1.9121
1.90092
1.88907
1.87219
1.8595
1.84041
1.82319
1.80294
1.78889
1.78092
1.78156
1.79271
1.79713
1.80049
1.79704
1.80554
1.82291
1.84804
1.87603
1.89685
1.90774
1.97141
1.96445
1.96551
1.95992
1.96067
1.95734
1.9577
1.95602
1.95733
1.95689
1.95883
1.95918
1.96061
1.96228
1.96344
1.9649
1.96608
1.96712
1.96789
1.96814
1.96798
1.96707
1.96583
1.96414
1.96198
1.95939
1.95619
1.9519
1.94687
1.94134
1.93506
1.92764
1.91878
1.90893
1.89665
1.88334
1.86754
1.85257
1.83214
1.81308
1.79662
1.7841
1.78094
1.78549
1.78462
1.78152
1.76521
1.76314
1.77444
1.7955
1.82751
1.85832
1.88317
1.90624
1.04734
1.0479
1.04842
1.04882
1.04919
1.04942
1.04965
1.04971
1.04973
1.04964
1.04942
1.0491
1.04862
1.04804
1.04733
1.04651
1.04555
1.04445
1.04327
1.04185
1.04578
1.04625
1.04668
1.04704
1.04734
1.04754
1.04769
1.04774
1.04772
1.04762
1.04739
1.04704
1.0466
1.04599
1.04533
1.04451
1.0436
1.04259
1.04144
1.04019
1.04412
1.04449
1.04482
1.04512
1.04534
1.04552
1.04559
1.04561
1.04554
1.0454
1.04517
1.04482
1.04436
1.04379
1.0431
1.04234
1.04147
1.04044
1.03939
1.03816
1.04238
1.04265
1.04288
1.04309
1.04326
1.04336
1.0434
1.04337
1.04328
1.04309
1.04288
1.04255
1.04212
1.04156
1.04092
1.0401
1.03931
1.03831
1.03738
1.03614
1.04063
1.04077
1.0409
1.04099
1.04106
1.0411
1.04108
1.04102
1.04088
1.04071
1.04041
1.04011
1.03968
1.03912
1.03855
1.03781
1.03698
1.03604
1.03501
1.03399
1.0388
1.0388
1.03879
1.0388
1.03875
1.0387
1.03862
1.0385
1.0383
1.03811
1.03776
1.03749
1.03701
1.03654
1.03594
1.03525
1.03448
1.03363
1.03272
1.03178
1.03693
1.03668
1.03655
1.03646
1.03635
1.03615
1.03597
1.03581
1.03558
1.03531
1.03503
1.03459
1.03423
1.03368
1.03308
1.03253
1.03173
1.03103
1.0302
1.02937
1.03495
1.03451
1.03436
1.03392
1.03388
1.0334
1.03315
1.03299
1.03279
1.03257
1.03215
1.0318
1.03122
1.03068
1.03006
1.0293
1.02848
1.02778
1.02702
1.02628
1.033
1.03225
1.03216
1.0314
1.03169
1.03095
1.03162
1.03093
1.03165
1.03075
1.0311
1.0309
1.03034
1.02961
1.02868
1.0274
1.02631
1.02519
1.02375
1.02321
1.03068
1.03108
1.02984
1.03133
1.0304
1.03272
1.03145
1.03459
1.03408
1.03735
1.0382
1.03948
1.0398
1.03921
1.03625
1.03426
1.03041
1.02624
1.02665
1.02024
1.02946
1.03161
1.03002
1.03584
1.03368
1.04411
1.04158
1.05921
1.05678
1.07489
1.08607
1.09301
1.102
1.10165
1.0955
1.08613
1.07191
1.0626
1.04223
1.05843
1.03089
1.03888
1.03729
1.05758
1.05614
1.0845
1.10955
1.14853
1.18723
1.22093
1.2799
1.31398
1.35289
1.37668
1.37411
1.34335
1.33433
1.22991
1.23563
1.1257
1.05586
1.05095
1.08398
1.12458
1.17394
1.25071
1.3533
1.45463
1.56346
1.64915
1.71856
1.76355
1.79491
1.81727
1.81225
1.81157
1.74994
1.7602
1.56358
1.65809
1.11923
1.10166
1.28247
1.3954
1.54776
1.68076
1.77956
1.84669
1.89078
1.91909
1.93679
1.94592
1.95241
1.95475
1.95305
1.94626
1.93485
1.92416
1.87017
1.86036
1.29963
1.59545
1.68124
1.7866
1.87082
1.91994
1.94671
1.95974
1.96468
1.96611
1.96433
1.96175
1.95877
1.95772
1.95423
1.95167
1.94372
1.9462
1.92468
1.92351
1.78144
1.82285
1.91055
1.95199
1.96852
1.96776
1.96674
1.96289
1.95747
1.95174
1.94651
1.93667
1.935
1.92653
1.91904
1.91246
1.90377
1.90253
1.90194
1.89463
1.94039
1.96733
1.97206
1.96885
1.96465
1.95212
1.94468
1.92873
1.91088
1.90246
1.87507
1.87242
1.84901
1.85358
1.82483
1.80955
1.80011
1.80234
1.80333
1.82669
1.96692
1.96524
1.95614
1.94213
1.92756
1.88158
1.87245
1.81781
1.81519
1.75581
1.74851
1.7264
1.70729
1.68989
1.67372
1.65283
1.65005
1.65036
1.66811
1.69327
1.96744
1.94691
1.90216
1.87736
1.77445
1.76524
1.67636
1.63821
1.58332
1.55717
1.53595
1.52178
1.51393
1.49555
1.47399
1.46886
1.47733
1.49386
1.50042
1.54413
1.90531
1.83252
1.75788
1.64185
1.57759
1.481
1.41479
1.35786
1.32017
1.29232
1.28111
1.27687
1.26481
1.25513
1.25672
1.27006
1.27218
1.31096
1.31548
1.42771
1.73952
1.61825
1.48255
1.37563
1.2844
1.23569
1.20472
1.18398
1.16816
1.15482
1.14378
1.13285
1.12055
1.11741
1.12075
1.12384
1.14018
1.16581
1.23667
1.3045
1.47223
1.32445
1.23771
1.19972
1.18025
1.16846
1.15919
1.14882
1.1384
1.12676
1.11386
1.09946
1.08842
1.08201
1.08397
1.08618
1.10081
1.15473
1.23299
1.29729
1.22871
1.1859
1.17384
1.1689
1.16559
1.16201
1.15803
1.15078
1.14154
1.1289
1.11088
1.09369
1.08165
1.07662
1.07856
1.09093
1.13373
1.20215
1.26252
1.30501
1.16503
1.16451
1.16962
1.17925
1.18925
1.19467
1.19965
1.19593
1.18872
1.17319
1.15107
1.13059
1.1234
1.12635
1.15843
1.21593
1.25796
1.28456
1.29799
1.3083
1.1603
1.17607
1.19161
1.19809
1.20519
1.21386
1.22448
1.23894
1.24653
1.24486
1.24326
1.2419
1.26525
1.29278
1.29908
1.29723
1.29848
1.29386
1.28841
1.29427
1.17271
1.18602
1.19348
1.19755
1.20575
1.22237
1.2452
1.2728
1.30726
1.33002
1.33673
1.33901
1.3374
1.31492
1.31286
1.30502
1.28323
1.27931
1.28139
1.29616
1.17074
1.171
1.16727
1.17375
1.19905
1.24358
1.29221
1.34478
1.36995
1.37987
1.37825
1.37371
1.36352
1.34441
1.31096
1.29062
1.2851
1.28783
1.30311
1.33657
1.12968
1.11725
1.11548
1.13944
1.19167
1.26024
1.32839
1.37179
1.39694
1.40109
1.39699
1.39471
1.38256
1.35825
1.33695
1.33204
1.33369
1.35146
1.39015
1.44103
1.07505
1.06709
1.07724
1.1151
1.18173
1.26362
1.33501
1.39102
1.39382
1.40568
1.40086
1.40185
1.39779
1.39374
1.39396
1.39699
1.40679
1.42538
1.44352
1.46438
1.03849
1.03208
1.04118
1.07163
1.12474
1.19447
1.26625
1.31837
1.34471
1.37604
1.37313
1.39144
1.39181
1.39567
1.39926
1.4052
1.41424
1.42307
1.43072
1.42394
1.01548
1.00732
1.00668
1.01239
1.02765
1.05861
1.10935
1.16769
1.1929
1.2716
1.26049
1.29398
1.31455
1.3152
1.32472
1.32843
1.3265
1.31117
1.28853
1.24345
0.998908
0.99554
0.991287
0.993529
0.99693
1.00294
1.00738
1.0116
1.05072
1.02805
1.09384
1.0726
1.10634
1.10227
1.11056
1.11045
1.10511
1.09131
1.07978
1.05474
0.997362
0.991602
0.988905
0.983317
0.981954
0.979853
0.9824
0.990647
0.983367
0.997853
0.983657
1.00176
0.994207
1.00471
1.00596
1.008
1.0076
1.00194
1.00629
0.995103
0.997125
0.991764
0.98749
0.984239
0.981374
0.979628
0.975903
0.973426
0.977315
0.96985
0.977017
0.973359
0.975617
0.978146
0.978136
0.982222
0.981906
0.985888
0.987268
0.990385
0.998429
0.994409
0.9896
0.985813
0.982703
0.979878
0.977487
0.976491
0.973497
0.974045
0.972637
0.973403
0.974251
0.975676
0.977374
0.97934
0.981983
0.985784
0.988721
0.992184
1.01277
1.00907
0.998702
0.99558
0.988171
0.985943
0.982009
0.979707
0.978113
0.976686
0.976793
0.976935
0.977751
0.978779
0.980665
0.983325
0.985298
0.990169
0.993169
0.99822
1.06405
1.07255
1.03396
1.03741
1.0197
1.01111
1.0048
0.997046
0.9939
0.989766
0.987522
0.986734
0.98801
0.986016
0.989732
0.990687
0.995062
0.998856
1.00388
1.01004
1.29685
1.26883
1.23526
1.18456
1.17563
1.11138
1.11862