/*--------------------------------*- C++ -*----------------------------------*\
  =========                 |
  \\      /  F ield         | OpenFOAM: The Open Source CFD Toolbox
   \\    /   O peration     | Website:  https://openfoam.org
    \\  /    A nd           | Version:  10
     \\/     M anipulation  |
\*---------------------------------------------------------------------------*/
FoamFile
{
    format      ascii;
    class       volVectorField;
    location    "0.947026";
    object      U;
}
// * * * * * * * * * * * * * * * * * * * * * * * * * * * * * * * * * * * * * //

dimensions      [0 1 -1 0 0 0 0];

internalField   nonuniform List<vector> 
15984
(
(0.64044 -0.113657 0)
(0.627626 -0.11223 0)
(0.614352 -0.110438 0)
(0.600697 -0.108435 0)
(0.586823 -0.106377 0)
(0.572786 -0.104187 0)
(0.558601 -0.102031 0)
(0.544455 -0.0998767 0)
(0.530272 -0.0977818 0)
(0.516224 -0.0957853 0)
(0.502339 -0.0939168 0)
(0.488665 -0.0921977 0)
(0.475248 -0.0906441 0)
(0.462127 -0.089267 0)
(0.449335 -0.0880734 0)
(0.436902 -0.0870656 0)
(0.424854 -0.0862424 0)
(0.413212 -0.0855992 0)
(0.401994 -0.0851288 0)
(0.391216 -0.0848212 0)
(0.380894 -0.0846646 0)
(0.371038 -0.0846451 0)
(0.361662 -0.0847472 0)
(0.352776 -0.0849536 0)
(0.344389 -0.0852461 0)
(0.336511 -0.0856048 0)
(0.329149 -0.086009 0)
(0.322312 -0.0864375 0)
(0.316006 -0.0868672 0)
(0.310237 -0.0872755 0)
(0.30501 -0.087638 0)
(0.300331 -0.0879305 0)
(0.296202 -0.0881278 0)
(0.292626 -0.0882046 0)
(0.289606 -0.0881348 0)
(0.28714 -0.0878922 0)
(0.285229 -0.0874501 0)
(0.28387 -0.0867823 0)
(0.283059 -0.0858618 0)
(0.28279 -0.0846621 0)
(0.283057 -0.0831564 0)
(0.283851 -0.0813192 0)
(0.285159 -0.0791238 0)
(0.28697 -0.0765444 0)
(0.28927 -0.073557 0)
(0.292042 -0.0701378 0)
(0.295266 -0.0662637 0)
(0.298921 -0.0619139 0)
(0.302984 -0.0570691 0)
(0.30743 -0.051713 0)
(0.312232 -0.0458321 0)
(0.317361 -0.0394163 0)
(0.322788 -0.0324599 0)
(0.328482 -0.0249614 0)
(0.6419 -0.102933 0)
(0.629364 -0.101161 0)
(0.61629 -0.0992128 0)
(0.602811 -0.097088 0)
(0.589051 -0.0948355 0)
(0.574966 -0.0925894 0)
(0.560773 -0.0903124 0)
(0.546535 -0.088163 0)
(0.532286 -0.0860898 0)
(0.518111 -0.0841489 0)
(0.504072 -0.08237 0)
(0.490222 -0.0807761 0)
(0.476614 -0.0793831 0)
(0.463292 -0.0782017 0)
(0.450296 -0.0772376 0)
(0.437657 -0.0764918 0)
(0.425406 -0.0759619 0)
(0.413567 -0.0756417 0)
(0.402161 -0.0755226 0)
(0.391207 -0.0755931 0)
(0.380722 -0.07584 0)
(0.370721 -0.0762479 0)
(0.361217 -0.0767997 0)
(0.352223 -0.0774768 0)
(0.343749 -0.0782589 0)
(0.335805 -0.0791249 0)
(0.328401 -0.0800527 0)
(0.321544 -0.0810194 0)
(0.315242 -0.0820009 0)
(0.309502 -0.0829732 0)
(0.304329 -0.083911 0)
(0.299729 -0.0847889 0)
(0.295705 -0.0855808 0)
(0.29226 -0.0862601 0)
(0.289397 -0.0867994 0)
(0.287116 -0.0871716 0)
(0.285416 -0.0873483 0)
(0.284295 -0.0873018 0)
(0.283749 -0.0870032 0)
(0.283773 -0.0864242 0)
(0.284361 -0.0855364 0)
(0.285501 -0.0843112 0)
(0.287186 -0.0827195 0)
(0.2894 -0.0807321 0)
(0.292128 -0.0783213 0)
(0.295353 -0.0754602 0)
(0.299054 -0.072122 0)
(0.303208 -0.0682819 0)
(0.307788 -0.063917 0)
(0.312768 -0.0590071 0)
(0.318117 -0.0535351 0)
(0.323802 -0.0474881 0)
(0.329788 -0.0408568 0)
(0.336042 -0.0336375 0)
(0.643677 -0.0923997 0)
(0.631381 -0.0902628 0)
(0.618431 -0.0881156 0)
(0.605079 -0.0856828 0)
(0.591324 -0.0834034 0)
(0.577312 -0.0809532 0)
(0.563027 -0.0786613 0)
(0.548678 -0.0764076 0)
(0.534288 -0.0743271 0)
(0.519945 -0.0724255 0)
(0.505712 -0.0707269 0)
(0.49165 -0.0692508 0)
(0.477816 -0.0680124 0)
(0.46426 -0.067021 0)
(0.451025 -0.0662818 0)
(0.438148 -0.0657947 0)
(0.425662 -0.065556 0)
(0.413595 -0.0655583 0)
(0.401972 -0.0657914 0)
(0.390815 -0.0662425 0)
(0.380142 -0.0668965 0)
(0.369972 -0.0677364 0)
(0.360319 -0.0687434 0)
(0.351197 -0.069897 0)
(0.342617 -0.0711757 0)
(0.33459 -0.0725567 0)
(0.327127 -0.0740165 0)
(0.320235 -0.075531 0)
(0.313925 -0.077075 0)
(0.308202 -0.0786234 0)
(0.303072 -0.0801498 0)
(0.298542 -0.0816279 0)
(0.294616 -0.0830304 0)
(0.291296 -0.0843298 0)
(0.288585 -0.085498 0)
(0.286484 -0.0865061 0)
(0.284992 -0.087325 0)
(0.284108 -0.0879251 0)
(0.283829 -0.0882757 0)
(0.284149 -0.0883469 0)
(0.285061 -0.0881084 0)
(0.286558 -0.0875277 0)
(0.288628 -0.0865728 0)
(0.291257 -0.0852127 0)
(0.294431 -0.0834152 0)
(0.298129 -0.0811483 0)
(0.30233 -0.0783819 0)
(0.30701 -0.0750862 0)
(0.312139 -0.0712344 0)
(0.317687 -0.0668018 0)
(0.32362 -0.0617675 0)
(0.329901 -0.0561131 0)
(0.336492 -0.0498274 0)
(0.343352 -0.0429022 0)
(0.645765 -0.0819216 0)
(0.633683 -0.0795776 0)
(0.62089 -0.0770029 0)
(0.607539 -0.0744545 0)
(0.593804 -0.0718354 0)
(0.579733 -0.0693319 0)
(0.56535 -0.0668932 0)
(0.550902 -0.0646019 0)
(0.536299 -0.0624962 0)
(0.521741 -0.0606106 0)
(0.507272 -0.058971 0)
(0.492958 -0.0575968 0)
(0.478859 -0.0565013 0)
(0.46503 -0.0556925 0)
(0.45152 -0.0551734 0)
(0.43837 -0.0549424 0)
(0.425616 -0.0549942 0)
(0.413291 -0.05532 0)
(0.401422 -0.0559082 0)
(0.390034 -0.0567441 0)
(0.379148 -0.0578108 0)
(0.368785 -0.0590893 0)
(0.358959 -0.0605587 0)
(0.349687 -0.062197 0)
(0.340981 -0.0639808 0)
(0.332853 -0.0658862 0)
(0.325314 -0.0678883 0)
(0.318373 -0.0699617 0)
(0.312041 -0.0720803 0)
(0.306323 -0.0742179 0)
(0.301226 -0.0763471 0)
(0.296756 -0.0784409 0)
(0.292918 -0.080471 0)
(0.289715 -0.0824091 0)
(0.287149 -0.0842262 0)
(0.285222 -0.0858923 0)
(0.283934 -0.0873775 0)
(0.283285 -0.0886498 0)
(0.28327 -0.089678 0)
(0.283886 -0.0904304 0)
(0.285126 -0.0908727 0)
(0.286984 -0.0909708 0)
(0.289448 -0.0906897 0)
(0.292504 -0.0899931 0)
(0.296137 -0.088846 0)
(0.300328 -0.0872119 0)
(0.305053 -0.0850557 0)
(0.310286 -0.0823431 0)
(0.315995 -0.0790403 0)
(0.322147 -0.0751182 0)
(0.328706 -0.0705531 0)
(0.335628 -0.0653184 0)
(0.34287 -0.0594025 0)
(0.350387 -0.052789 0)
(0.648265 -0.071591 0)
(0.636339 -0.0689393 0)
(0.62358 -0.0660156 0)
(0.610278 -0.0632393 0)
(0.596481 -0.0602982 0)
(0.582294 -0.0576415 0)
(0.567803 -0.0550152 0)
(0.553125 -0.0526638 0)
(0.53833 -0.0505153 0)
(0.523521 -0.0486309 0)
(0.508773 -0.0470386 0)
(0.494161 -0.0457572 0)
(0.479754 -0.0447987 0)
(0.465611 -0.0441692 0)
(0.451786 -0.0438697 0)
(0.438325 -0.0438965 0)
(0.425268 -0.0442423 0)
(0.412651 -0.0448963 0)
(0.400506 -0.0458449 0)
(0.388859 -0.0470715 0)
(0.377733 -0.0485575 0)
(0.36715 -0.050282 0)
(0.357129 -0.0522226 0)
(0.347684 -0.0543554 0)
(0.338832 -0.0566554 0)
(0.330585 -0.059097 0)
(0.322954 -0.0616537 0)
(0.315949 -0.0642991 0)
(0.309579 -0.067006 0)
(0.303853 -0.0697473 0)
(0.298777 -0.0724947 0)
(0.294356 -0.0752205 0)
(0.290596 -0.0778958 0)
(0.287499 -0.0804917 0)
(0.28507 -0.0829783 0)
(0.28331 -0.0853249 0)
(0.282219 -0.0875005 0)
(0.281798 -0.0894715 0)
(0.282043 -0.0912067 0)
(0.282953 -0.0926707 0)
(0.284521 -0.0938268 0)
(0.286742 -0.0946384 0)
(0.289606 -0.0950675 0)
(0.293098 -0.0950747 0)
(0.297205 -0.0946186 0)
(0.301905 -0.093659 0)
(0.307175 -0.0921526 0)
(0.312989 -0.090063 0)
(0.319313 -0.0873488 0)
(0.326106 -0.0839755 0)
(0.333332 -0.0799135 0)
(0.340942 -0.0751305 0)
(0.348887 -0.0696119 0)
(0.357113 -0.0633308 0)
(0.651175 -0.061525 0)
(0.639299 -0.058325 0)
(0.626626 -0.0551281 0)
(0.613308 -0.0518843 0)
(0.599457 -0.0487667 0)
(0.58508 -0.0458111 0)
(0.57039 -0.0430508 0)
(0.555467 -0.0405515 0)
(0.540398 -0.0383384 0)
(0.525282 -0.0364462 0)
(0.510206 -0.034897 0)
(0.495253 -0.0337051 0)
(0.480493 -0.0328795 0)
(0.465994 -0.0324252 0)
(0.451814 -0.0323429 0)
(0.438003 -0.0326283 0)
(0.424608 -0.0332729 0)
(0.411667 -0.0342634 0)
(0.399214 -0.0355834 0)
(0.387278 -0.0372128 0)
(0.375885 -0.0391296 0)
(0.365057 -0.0413104 0)
(0.354815 -0.0437312 0)
(0.345177 -0.0463672 0)
(0.336158 -0.0491926 0)
(0.327772 -0.0521809 0)
(0.320031 -0.0553045 0)
(0.312946 -0.0585354 0)
(0.306526 -0.061845 0)
(0.300777 -0.0652051 0)
(0.295708 -0.0685868 0)
(0.291324 -0.0719617 0)
(0.28763 -0.0753004 0)
(0.28463 -0.0785734 0)
(0.282326 -0.0817506 0)
(0.280722 -0.0848004 0)
(0.27982 -0.0876903 0)
(0.279619 -0.0903875 0)
(0.280117 -0.0928581 0)
(0.281315 -0.0950642 0)
(0.283209 -0.096968 0)
(0.285793 -0.0985292 0)
(0.289057 -0.0997066 0)
(0.292992 -0.10046 0)
(0.297582 -0.100736 0)
(0.30281 -0.100494 0)
(0.308649 -0.0996806 0)
(0.31507 -0.0982594 0)
(0.32204 -0.0961775 0)
(0.329514 -0.0933984 0)
(0.337451 -0.089875 0)
(0.345794 -0.0855793 0)
(0.354492 -0.0804863 0)
(0.363479 -0.0745592 0)
(0.654625 -0.0515175 0)
(0.642798 -0.0477183 0)
(0.63008 -0.0441296 0)
(0.616706 -0.0404377 0)
(0.602625 -0.0370746 0)
(0.588083 -0.0338313 0)
(0.573136 -0.0308672 0)
(0.55791 -0.0282139 0)
(0.542507 -0.0259033 0)
(0.527032 -0.0239673 0)
(0.511582 -0.0224314 0)
(0.496242 -0.0213122 0)
(0.481089 -0.0206169 0)
(0.466192 -0.020345 0)
(0.451613 -0.0204905 0)
(0.43741 -0.0210432 0)
(0.423633 -0.0219911 0)
(0.410326 -0.0233203 0)
(0.397527 -0.0250148 0)
(0.385271 -0.0270561 0)
(0.373583 -0.0294212 0)
(0.362488 -0.032084 0)
(0.352004 -0.035015 0)
(0.342151 -0.0381836 0)
(0.332945 -0.0415605 0)
(0.324401 -0.0451173 0)
(0.316533 -0.0488264 0)
(0.309351 -0.0526598 0)
(0.302865 -0.0565888 0)
(0.297081 -0.0605843 0)
(0.292006 -0.0646173 0)
(0.287646 -0.0686587 0)
(0.284005 -0.0726793 0)
(0.281088 -0.0766487 0)
(0.278897 -0.0805372 0)
(0.277438 -0.0843125 0)
(0.276712 -0.0879413 0)
(0.276718 -0.0913915 0)
(0.27746 -0.0946255 0)
(0.278938 -0.0976053 0)
(0.28115 -0.10029 0)
(0.284092 -0.102639 0)
(0.287755 -0.104609 0)
(0.292136 -0.106148 0)
(0.297221 -0.107199 0)
(0.302991 -0.10772 0)
(0.309415 -0.107648 0)
(0.316469 -0.106947 0)
(0.324117 -0.105541 0)
(0.332313 -0.103406 0)
(0.341006 -0.100463 0)
(0.350125 -0.0966932 0)
(0.35962 -0.0920558 0)
(0.369398 -0.0865083 0)
(0.65863 -0.0414363 0)
(0.646758 -0.0371786 0)
(0.633971 -0.0329666 0)
(0.620425 -0.0289581 0)
(0.606133 -0.0251503 0)
(0.59136 -0.0216293 0)
(0.576082 -0.0184522 0)
(0.560508 -0.01567 0)
(0.544723 -0.0133131 0)
(0.528831 -0.0113959 0)
(0.512937 -0.00992395 0)
(0.497137 -0.00890071 0)
(0.481522 -0.00833379 0)
(0.466169 -0.00822971 0)
(0.451146 -0.00858971 0)
(0.436514 -0.00940795 0)
(0.422324 -0.0106679 0)
(0.408619 -0.0123473 0)
(0.395438 -0.0144186 0)
(0.382817 -0.0168552 0)
(0.370791 -0.0196364 0)
(0.359388 -0.022743 0)
(0.348637 -0.0261531 0)
(0.338553 -0.0298387 0)
(0.329151 -0.033767 0)
(0.320442 -0.0379028 0)
(0.312437 -0.0422127 0)
(0.305147 -0.0466653 0)
(0.298581 -0.0512305 0)
(0.292748 -0.0558787 0)
(0.287653 -0.0605804 0)
(0.283303 -0.065306 0)
(0.279702 -0.0700267 0)
(0.276853 -0.0747119 0)
(0.274762 -0.0793319 0)
(0.273433 -0.0838539 0)
(0.272867 -0.0882462 0)
(0.273067 -0.0924743 0)
(0.274039 -0.0965005 0)
(0.275784 -0.100285 0)
(0.278302 -0.103786 0)
(0.28159 -0.106965 0)
(0.285648 -0.109767 0)
(0.290482 -0.112133 0)
(0.296066 -0.114005 0)
(0.302388 -0.115342 0)
(0.309413 -0.116067 0)
(0.317127 -0.116135 0)
(0.325482 -0.11546 0)
(0.334432 -0.114009 0)
(0.343919 -0.111692 0)
(0.35384 -0.108487 0)
(0.364145 -0.104321 0)
(0.37471 -0.0991711 0)
(0.663206 -0.0313485 0)
(0.651327 -0.0265562 0)
(0.638352 -0.0216831 0)
(0.624579 -0.0172601 0)
(0.610018 -0.0130585 0)
(0.594862 -0.00925802 0)
(0.57921 -0.00581183 0)
(0.563209 -0.00275606 0)
(0.546972 -0.000153635 0)
(0.530608 0.00194779 0)
(0.514223 0.00351265 0)
(0.497918 0.00452145 0)
(0.481791 0.00497413 0)
(0.465929 0.0048828 0)
(0.450407 0.00426481 0)
(0.435291 0.00313916 0)
(0.420638 0.00152365 0)
(0.406497 -0.000562982 0)
(0.392914 -0.00310222 0)
(0.379925 -0.0060688 0)
(0.367554 -0.00940409 0)
(0.355829 -0.0130713 0)
(0.344779 -0.0170423 0)
(0.334427 -0.0212945 0)
(0.324793 -0.0258018 0)
(0.315891 -0.0305355 0)
(0.307729 -0.0354627 0)
(0.300314 -0.0405506 0)
(0.293656 -0.0457681 0)
(0.287759 -0.0510852 0)
(0.282632 -0.0564722 0)
(0.278277 -0.0618993 0)
(0.274701 -0.0673376 0)
(0.271906 -0.0727569 0)
(0.269898 -0.0781276 0)
(0.26868 -0.0834171 0)
(0.268257 -0.0885955 0)
(0.268634 -0.093626 0)
(0.269818 -0.0984719 0)
(0.271814 -0.103092 0)
(0.274619 -0.107448 0)
(0.278241 -0.111497 0)
(0.282693 -0.115167 0)
(0.287975 -0.118402 0)
(0.294056 -0.121153 0)
(0.300931 -0.123359 0)
(0.308575 -0.124941 0)
(0.316971 -0.125836 0)
(0.326062 -0.125955 0)
(0.335793 -0.125222 0)
(0.346072 -0.123566 0)
(0.356792 -0.120926 0)
(0.367848 -0.11722 0)
(0.379094 -0.112442 0)
(0.668493 -0.0211795 0)
(0.656448 -0.0157106 0)
(0.643305 -0.0102822 0)
(0.629123 -0.00532445 0)
(0.61425 -0.000550597 0)
(0.598702 0.00374231 0)
(0.582572 0.00753319 0)
(0.566039 0.0107458 0)
(0.549242 0.0133768 0)
(0.532312 0.015427 0)
(0.515367 0.0168927 0)
(0.498513 0.0177711 0)
(0.481845 0.0180634 0)
(0.465448 0.0177752 0)
(0.449402 0.016918 0)
(0.433774 0.0155088 0)
(0.418628 0.0135698 0)
(0.404016 0.0111278 0)
(0.389985 0.00821334 0)
(0.376572 0.00485764 0)
(0.363819 0.00106535 0)
(0.351758 -0.00313517 0)
(0.340404 -0.00768958 0)
(0.329763 -0.0125259 0)
(0.319868 -0.017631 0)
(0.310741 -0.0229832 0)
(0.302396 -0.0285515 0)
(0.294839 -0.0342986 0)
(0.288072 -0.0401901 0)
(0.282098 -0.0461955 0)
(0.276924 -0.0522854 0)
(0.272551 -0.0584312 0)
(0.268984 -0.0646037 0)
(0.266226 -0.0707741 0)
(0.264283 -0.076913 0)
(0.263158 -0.0829895 0)
(0.262856 -0.0889741 0)
(0.263388 -0.0948309 0)
(0.264763 -0.100523 0)
(0.266985 -0.10601 0)
(0.270054 -0.111262 0)
(0.274 -0.116213 0)
(0.27884 -0.120789 0)
(0.284553 -0.124951 0)
(0.291119 -0.128641 0)
(0.298554 -0.131774 0)
(0.306822 -0.134274 0)
(0.315909 -0.13605 0)
(0.325757 -0.137016 0)
(0.336266 -0.137039 0)
(0.347303 -0.136045 0)
(0.35872 -0.133924 0)
(0.37033 -0.130623 0)
(0.381983 -0.126094 0)
(0.674506 -0.0109453 0)
(0.662218 -0.0046391 0)
(0.648743 0.00150598 0)
(0.634244 0.00717146 0)
(0.618922 0.012304 0)
(0.602782 0.0169756 0)
(0.586126 0.0209883 0)
(0.569031 0.0244665 0)
(0.551652 0.0272915 0)
(0.534119 0.0294636 0)
(0.51655 0.0309712 0)
(0.499061 0.0318076 0)
(0.481759 0.0319753 0)
(0.464741 0.031487 0)
(0.448091 0.0303619 0)
(0.431885 0.0286249 0)
(0.416188 0.0263037 0)
(0.401057 0.023429 0)
(0.386542 0.0200337 0)
(0.372684 0.0161531 0)
(0.35952 0.0118275 0)
(0.347075 0.00710035 0)
(0.335376 0.00199423 0)
(0.324469 -0.00349258 0)
(0.314338 -0.00926246 0)
(0.304986 -0.015264 0)
(0.296441 -0.0214905 0)
(0.288719 -0.027915 0)
(0.281824 -0.0345002 0)
(0.275756 -0.0412126 0)
(0.270517 -0.048022 0)
(0.26611 -0.0549009 0)
(0.262535 -0.0618219 0)
(0.259795 -0.0687573 0)
(0.257896 -0.075679 0)
(0.256841 -0.0825595 0)
(0.256637 -0.0893687 0)
(0.257298 -0.0960735 0)
(0.258838 -0.102638 0)
(0.261253 -0.109025 0)
(0.264564 -0.115206 0)
(0.268825 -0.121084 0)
(0.274021 -0.126623 0)
(0.280136 -0.131768 0)
(0.287182 -0.136455 0)
(0.295169 -0.140572 0)
(0.304066 -0.144065 0)
(0.313837 -0.146768 0)
(0.324412 -0.148621 0)
(0.335635 -0.149385 0)
(0.347287 -0.148986 0)
(0.359134 -0.147254 0)
(0.370914 -0.144246 0)
(0.382404 -0.139605 0)
(0.681255 -0.00046248 0)
(0.668701 0.00687016 0)
(0.654861 0.0135643 0)
(0.639733 0.0199379 0)
(0.623928 0.0256061 0)
(0.607271 0.0307276 0)
(0.589951 0.0351543 0)
(0.572235 0.0388829 0)
(0.554139 0.0418778 0)
(0.5359 0.0441232 0)
(0.517625 0.045614 0)
(0.499435 0.0463552 0)
(0.481443 0.0463584 0)
(0.463753 0.0456399 0)
(0.446454 0.0442231 0)
(0.429626 0.0421374 0)
(0.413338 0.0394155 0)
(0.39765 0.0360931 0)
(0.382615 0.0322085 0)
(0.368276 0.0278014 0)
(0.35467 0.0229122 0)
(0.341827 0.0175828 0)
(0.329774 0.0118586 0)
(0.318518 0.00579284 0)
(0.308102 -0.00061936 0)
(0.298543 -0.00733561 0)
(0.289793 -0.0142475 0)
(0.281895 -0.0213651 0)
(0.274863 -0.0286644 0)
(0.268694 -0.0361071 0)
(0.263383 -0.0436587 0)
(0.258929 -0.0512903 0)
(0.255331 -0.0589762 0)
(0.252591 -0.0666915 0)
(0.250714 -0.0744103 0)
(0.249704 -0.0821098 0)
(0.249572 -0.0897605 0)
(0.250334 -0.0973331 0)
(0.252004 -0.104793 0)
(0.254577 -0.112117 0)
(0.258113 -0.119242 0)
(0.262652 -0.126092 0)
(0.268165 -0.132651 0)
(0.274657 -0.138826 0)
(0.282161 -0.144565 0)
(0.290672 -0.14973 0)
(0.300172 -0.154277 0)
(0.310578 -0.157946 0)
(0.321786 -0.160681 0)
(0.333537 -0.162069 0)
(0.345474 -0.162129 0)
(0.357183 -0.160329 0)
(0.368559 -0.157399 0)
(0.378831 -0.15211 0)
(0.68876 0.0103459 0)
(0.675756 0.0186252 0)
(0.661373 0.0260975 0)
(0.645877 0.0331685 0)
(0.629339 0.0395618 0)
(0.611984 0.045109 0)
(0.593969 0.0499581 0)
(0.57547 0.0539364 0)
(0.556635 0.0571052 0)
(0.537625 0.0594314 0)
(0.518577 0.060911 0)
(0.499623 0.061554 0)
(0.480883 0.0613785 0)
(0.462462 0.0604102 0)
(0.444459 0.0586778 0)
(0.426959 0.0562142 0)
(0.410035 0.0530584 0)
(0.39375 0.0492526 0)
(0.378158 0.0448408 0)
(0.363304 0.0398679 0)
(0.349228 0.0343794 0)
(0.335961 0.0284214 0)
(0.323528 0.0220393 0)
(0.31195 0.0152783 0)
(0.301232 0.00819328 0)
(0.291391 0.000811668 0)
(0.282485 -0.00686954 0)
(0.274412 -0.0147173 0)
(0.267223 -0.022744 0)
(0.260929 -0.0309259 0)
(0.255525 -0.0392272 0)
(0.251004 -0.0476182 0)
(0.247363 -0.0560746 0)
(0.244601 -0.0645757 0)
(0.242723 -0.0730989 0)
(0.241731 -0.0816255 0)
(0.24164 -0.0901299 0)
(0.24247 -0.0985858 0)
(0.244224 -0.106962 0)
(0.246927 -0.115247 0)
(0.250656 -0.123341 0)
(0.255412 -0.131219 0)
(0.261199 -0.138833 0)
(0.268029 -0.146097 0)
(0.275949 -0.15294 0)
(0.284924 -0.159221 0)
(0.294955 -0.164831 0)
(0.305844 -0.169452 0)
(0.317464 -0.173 0)
(0.329283 -0.17473 0)
(0.341055 -0.175021 0)
(0.351738 -0.172791 0)
(0.361623 -0.168644 0)
(0.369365 -0.162654 0)
(0.696615 0.0216915 0)
(0.683125 0.0307714 0)
(0.668194 0.039366 0)
(0.652092 0.0470678 0)
(0.634859 0.0540929 0)
(0.616762 0.0602145 0)
(0.597971 0.065437 0)
(0.578669 0.0697298 0)
(0.559014 0.0730838 0)
(0.539171 0.0754898 0)
(0.519291 0.0769479 0)
(0.499516 0.0774772 0)
(0.479973 0.0770986 0)
(0.460777 0.0758466 0)
(0.442024 0.0737596 0)
(0.423807 0.0708792 0)
(0.406206 0.0672493 0)
(0.389287 0.0629183 0)
(0.373108 0.0579367 0)
(0.357715 0.052356 0)
(0.343148 0.0462276 0)
(0.329438 0.0396026 0)
(0.316609 0.0325318 0)
(0.30468 0.0250643 0)
(0.293665 0.0172474 0)
(0.283563 0.00913537 0)
(0.274384 0.000762088 0)
(0.266179 -0.00786689 0)
(0.258847 -0.0166498 0)
(0.25243 -0.025592 0)
(0.24693 -0.034665 0)
(0.242334 -0.043836 0)
(0.238634 -0.0530809 0)
(0.235829 -0.0623803 0)
(0.23392 -0.0717183 0)
(0.232914 -0.0810804 0)
(0.232826 -0.090448 0)
(0.233679 -0.0998001 0)
(0.235468 -0.109114 0)
(0.238256 -0.118368 0)
(0.242116 -0.127473 0)
(0.247032 -0.136416 0)
(0.253031 -0.145127 0)
(0.260132 -0.15353 0)
(0.26839 -0.161528 0)
(0.277733 -0.168949 0)
(0.288121 -0.175591 0)
(0.299116 -0.181005 0)
(0.310691 -0.185182 0)
(0.321744 -0.18683 0)
(0.3322 -0.18677 0)
(0.341491 -0.183801 0)
(0.348257 -0.175311 0)
(0.351483 -0.172574 0)
(0.703847 0.0332323 0)
(0.689849 0.0435511 0)
(0.674415 0.0530263 0)
(0.657672 0.0616683 0)
(0.639863 0.0693135 0)
(0.621009 0.0760454 0)
(0.601455 0.0817009 0)
(0.58136 0.0863031 0)
(0.560891 0.0898439 0)
(0.540215 0.0923276 0)
(0.519496 0.0937485 0)
(0.498885 0.094149 0)
(0.478518 0.0935491 0)
(0.458521 0.0919886 0)
(0.438999 0.0895119 0)
(0.420048 0.0861715 0)
(0.40175 0.0820235 0)
(0.384177 0.0771217 0)
(0.367391 0.0715236 0)
(0.35144 0.0652882 0)
(0.336365 0.0584729 0)
(0.322197 0.0511352 0)
(0.308959 0.0433307 0)
(0.296671 0.0351127 0)
(0.285343 0.0265321 0)
(0.274985 0.0176375 0)
(0.265577 0.00848506 0)
(0.257172 -0.000915709 0)
(0.249718 -0.0104896 0)
(0.243177 -0.0202015 0)
(0.237573 -0.0300422 0)
(0.232893 -0.0399853 0)
(0.229122 -0.0500096 0)
(0.226253 -0.0601017 0)
(0.224287 -0.0702503 0)
(0.223231 -0.0804479 0)
(0.223102 -0.0906814 0)
(0.223923 -0.100937 0)
(0.225695 -0.111202 0)
(0.228503 -0.121432 0)
(0.232412 -0.131582 0)
(0.237401 -0.141615 0)
(0.243526 -0.151464 0)
(0.250803 -0.16104 0)
(0.259275 -0.170211 0)
(0.268774 -0.1787 0)
(0.279173 -0.186235 0)
(0.289556 -0.192061 0)
(0.300153 -0.196342 0)
(0.309279 -0.197368 0)
(0.31685 -0.195563 0)
(0.325645 -0.190046 0)
(0.323802 -0.181738 0)
(0.322949 -0.171861 0)
(0.708368 0.0452527 0)
(0.693964 0.0565735 0)
(0.678244 0.0672204 0)
(0.661172 0.0767056 0)
(0.642859 0.0853032 0)
(0.623561 0.0926128 0)
(0.603385 0.098727 0)
(0.58266 0.103664 0)
(0.561517 0.107412 0)
(0.540122 0.109984 0)
(0.518661 0.111341 0)
(0.497301 0.111598 0)
(0.476171 0.11075 0)
(0.455415 0.108851 0)
(0.435149 0.105955 0)
(0.415482 0.102119 0)
(0.396501 0.0974049 0)
(0.378282 0.0918843 0)
(0.360891 0.0856207 0)
(0.344383 0.0786822 0)
(0.328798 0.0711322 0)
(0.31417 0.0630355 0)
(0.300523 0.0544528 0)
(0.287873 0.0454427 0)
(0.276233 0.0360613 0)
(0.265607 0.0263614 0)
(0.255991 0.0163924 0)
(0.247341 0.00621968 0)
(0.2398 -0.00419553 0)
(0.233123 -0.0146911 0)
(0.2274 -0.0253093 0)
(0.222626 -0.0360343 0)
(0.218778 -0.0468426 0)
(0.215835 -0.0577243 0)
(0.213791 -0.0686762 0)
(0.212651 -0.0796995 0)
(0.212434 -0.0907914 0)
(0.213158 -0.101945 0)
(0.214838 -0.113156 0)
(0.21757 -0.124374 0)
(0.221412 -0.135581 0)
(0.226363 -0.146727 0)
(0.232495 -0.157745 0)
(0.239812 -0.168512 0)
(0.248302 -0.178794 0)
(0.257532 -0.188136 0)
(0.267269 -0.196125 0)
(0.275933 -0.201756 0)
(0.283967 -0.204922 0)
(0.289962 -0.204929 0)
(0.294219 -0.19908 0)
(0.296934 -0.19424 0)
(0.295141 -0.190338 0)
(0.285759 -0.184534 0)
(0.705322 0.0565712 0)
(0.691265 0.0696642 0)
(0.676194 0.081546 0)
(0.659488 0.0921685 0)
(0.641484 0.101421 0)
(0.622004 0.109331 0)
(0.601803 0.116042 0)
(0.580922 0.12137 0)
(0.559513 0.125408 0)
(0.537715 0.128177 0)
(0.515798 0.129474 0)
(0.493951 0.129712 0)
(0.47226 0.128624 0)
(0.450918 0.126378 0)
(0.430046 0.123039 0)
(0.409758 0.118678 0)
(0.390169 0.113362 0)
(0.371367 0.107182 0)
(0.353419 0.100208 0)
(0.336388 0.0925236 0)
(0.32032 0.0841923 0)
(0.305251 0.0752921 0)
(0.291207 0.0658872 0)
(0.278207 0.0560416 0)
(0.266262 0.0458169 0)
(0.255375 0.0352715 0)
(0.245542 0.02446 0)
(0.236743 0.0134335 0)
(0.228942 0.0022609 0)
(0.222234 -0.00908049 0)
(0.216426 -0.0204995 0)
(0.211567 -0.0320057 0)
(0.207634 -0.0435869 0)
(0.204596 -0.0552401 0)
(0.202438 -0.0669728 0)
(0.20116 -0.0787967 0)
(0.200779 -0.090721 0)
(0.201307 -0.102749 0)
(0.202779 -0.114884 0)
(0.205293 -0.127086 0)
(0.208916 -0.139351 0)
(0.213676 -0.151629 0)
(0.21966 -0.163831 0)
(0.22682 -0.175735 0)
(0.234959 -0.186917 0)
(0.243193 -0.196645 0)
(0.25106 -0.204067 0)
(0.256634 -0.208764 0)
(0.259789 -0.208253 0)
(0.262165 -0.207823 0)
(0.260624 -0.203463 0)
(0.257177 -0.200848 0)
(0.255431 -0.196544 0)
(0.26105 -0.191963 0)
(0.688218 0.0666677 0)
(0.676639 0.0814251 0)
(0.663098 0.0948404 0)
(0.647865 0.106957 0)
(0.631021 0.117133 0)
(0.613084 0.125797 0)
(0.593903 0.133128 0)
(0.573741 0.139144 0)
(0.552955 0.14364 0)
(0.531376 0.146403 0)
(0.509631 0.148109 0)
(0.487808 0.148085 0)
(0.465852 0.146923 0)
(0.444247 0.144327 0)
(0.423038 0.140629 0)
(0.402361 0.135759 0)
(0.382348 0.129821 0)
(0.363105 0.122968 0)
(0.344716 0.115242 0)
(0.327251 0.106779 0)
(0.310764 0.0976235 0)
(0.295308 0.0878806 0)
(0.280907 0.0776129 0)
(0.267587 0.0668933 0)
(0.255362 0.055788 0)
(0.244237 0.0443609 0)
(0.234209 0.0326731 0)
(0.225265 0.0207826 0)
(0.217343 0.00875218 0)
(0.210585 -0.00343317 0)
(0.204679 -0.0156286 0)
(0.199718 -0.0278939 0)
(0.195682 -0.040224 0)
(0.19252 -0.0526163 0)
(0.190193 -0.0650879 0)
(0.188692 -0.0776643 0)
(0.188029 -0.0903709 0)
(0.188215 -0.103226 0)
(0.189302 -0.116242 0)
(0.191402 -0.129409 0)
(0.19461 -0.14273 0)
(0.199007 -0.156161 0)
(0.204669 -0.169523 0)
(0.211333 -0.182376 0)
(0.218398 -0.193866 0)
(0.224591 -0.203129 0)
(0.228608 -0.208365 0)
(0.230364 -0.21014 0)
(0.226507 -0.208096 0)
(0.22183 -0.206657 0)
(0.220932 -0.206596 0)
(0.223725 -0.203542 0)
(0.231044 -0.199942 0)
(0.23904 -0.193103 0)
(0.650604 0.0742128 0)
(0.643621 0.0899927 0)
(0.634134 0.104524 0)
(0.622098 0.11804 0)
(0.608188 0.130056 0)
(0.592904 0.140451 0)
(0.576482 0.148985 0)
(0.558577 0.155586 0)
(0.539091 0.160684 0)
(0.519108 0.164124 0)
(0.498399 0.16593 0)
(0.477147 0.166395 0)
(0.45584 0.165083 0)
(0.434471 0.162479 0)
(0.413416 0.158326 0)
(0.392628 0.153049 0)
(0.372483 0.146527 0)
(0.353042 0.139055 0)
(0.334405 0.130579 0)
(0.31667 0.121361 0)
(0.29989 0.111339 0)
(0.284148 0.100759 0)
(0.269465 0.0896 0)
(0.255885 0.0779714 0)
(0.243428 0.0659485 0)
(0.232104 0.053602 0)
(0.221916 0.0410015 0)
(0.212849 0.0282141 0)
(0.204864 0.015302 0)
(0.197913 0.0023362 0)
(0.192044 -0.0106884 0)
(0.187013 -0.0237064 0)
(0.182862 -0.0367437 0)
(0.179526 -0.0498138 0)
(0.176944 -0.0629483 0)
(0.175086 -0.0761912 0)
(0.17396 -0.0895913 0)
(0.173589 -0.10319 0)
(0.174046 -0.117026 0)
(0.175488 -0.131129 0)
(0.178075 -0.145528 0)
(0.181937 -0.160136 0)
(0.18702 -0.174547 0)
(0.192632 -0.187896 0)
(0.19729 -0.198582 0)
(0.199871 -0.205502 0)
(0.198859 -0.207121 0)
(0.193592 -0.207289 0)
(0.186855 -0.207347 0)
(0.184894 -0.206042 0)
(0.189117 -0.205614 0)
(0.197151 -0.204671 0)
(0.207343 -0.204739 0)
(0.219307 -0.204855 0)
(0.601391 0.0773027 0)
(0.596333 0.0936062 0)
(0.59077 0.110022 0)
(0.583399 0.126555 0)
(0.57371 0.13979 0)
(0.562124 0.150636 0)
(0.548463 0.161331 0)
(0.533479 0.16971 0)
(0.517369 0.175995 0)
(0.499527 0.180318 0)
(0.48102 0.182897 0)
(0.461506 0.183774 0)
(0.441172 0.182717 0)
(0.420719 0.180001 0)
(0.400206 0.175854 0)
(0.379968 0.170183 0)
(0.360079 0.16326 0)
(0.34077 0.155154 0)
(0.322152 0.146064 0)
(0.304343 0.136048 0)
(0.28744 0.125261 0)
(0.271572 0.113793 0)
(0.256681 0.101745 0)
(0.242921 0.0892008 0)
(0.230296 0.0762406 0)
(0.218829 0.0629464 0)
(0.208528 0.0494012 0)
(0.199385 0.0356884 0)
(0.191367 0.0218897 0)
(0.18436 0.00809375 0)
(0.178494 -0.00571345 0)
(0.173381 -0.0194273 0)
(0.169069 -0.0330957 0)
(0.165464 -0.0467393 0)
(0.16247 -0.0604082 0)
(0.160037 -0.0741784 0)
(0.15818 -0.0881377 0)
(0.15695 -0.102371 0)
(0.156479 -0.116965 0)
(0.157011 -0.132012 0)
(0.158812 -0.147557 0)
(0.161971 -0.163359 0)
(0.16596 -0.178461 0)
(0.169367 -0.191136 0)
(0.170065 -0.199238 0)
(0.167239 -0.201821 0)
(0.159083 -0.203802 0)
(0.151177 -0.204318 0)
(0.150563 -0.205695 0)
(0.155181 -0.206833 0)
(0.163265 -0.208863 0)
(0.173688 -0.212304 0)
(0.186785 -0.215704 0)
(0.201931 -0.218282 0)
(0.558129 0.0811161 0)
(0.55224 0.0986384 0)
(0.549066 0.115714 0)
(0.541774 0.132064 0)
(0.531557 0.146751 0)
(0.523445 0.157224 0)
(0.514528 0.172166 0)
(0.502118 0.180665 0)
(0.488072 0.187917 0)
(0.47333 0.193976 0)
(0.457343 0.197707 0)
(0.43976 0.19914 0)
(0.421344 0.198874 0)
(0.402526 0.196534 0)
(0.383326 0.192416 0)
(0.36384 0.186762 0)
(0.34466 0.179604 0)
(0.325854 0.171034 0)
(0.307573 0.161398 0)
(0.289958 0.150683 0)
(0.273158 0.139186 0)
(0.257275 0.12688 0)
(0.242371 0.113963 0)
(0.228529 0.100514 0)
(0.215806 0.086612 0)
(0.20425 0.072352 0)
(0.193883 0.0578327 0)
(0.184708 0.043162 0)
(0.176694 0.0284518 0)
(0.16972 0.0138083 0)
(0.163847 -0.000721682 0)
(0.158647 -0.0150336 0)
(0.154055 -0.0291858 0)
(0.149988 -0.0432243 0)
(0.146317 -0.0572308 0)
(0.142986 -0.0713349 0)
(0.140043 -0.0856882 0)
(0.137611 -0.100449 0)
(0.135933 -0.11579 0)
(0.135403 -0.131872 0)
(0.136334 -0.148712 0)
(0.138451 -0.165528 0)
(0.140393 -0.180235 0)
(0.139733 -0.19002 0)
(0.134666 -0.19372 0)
(0.123783 -0.196401 0)
(0.116177 -0.198956 0)
(0.116258 -0.201474 0)
(0.120765 -0.205316 0)
(0.128887 -0.210935 0)
(0.139485 -0.217839 0)
(0.152449 -0.224565 0)
(0.167684 -0.230509 0)
(0.185157 -0.235004 0)
(0.523556 0.0873761 0)
(0.515814 0.105071 0)
(0.509137 0.120983 0)
(0.501595 0.135773 0)
(0.490998 0.150405 0)
(0.485746 0.165594 0)
(0.477899 0.179472 0)
(0.463996 0.188171 0)
(0.454581 0.197792 0)
(0.442523 0.204784 0)
(0.428447 0.209848 0)
(0.413527 0.212819 0)
(0.397282 0.213467 0)
(0.380042 0.21177 0)
(0.362397 0.207996 0)
(0.344421 0.202424 0)
(0.326122 0.19513 0)
(0.308101 0.186371 0)
(0.290432 0.176283 0)
(0.273271 0.16508 0)
(0.256777 0.152906 0)
(0.241071 0.1399 0)
(0.226264 0.126169 0)
(0.212451 0.111837 0)
(0.19971 0.0970016 0)
(0.188118 0.0817736 0)
(0.177722 0.0662634 0)
(0.168536 0.0506098 0)
(0.160524 0.0349718 0)
(0.153572 0.0195077 0)
(0.147473 0.00438917 0)
(0.142204 -0.0103951 0)
(0.137186 -0.0248164 0)
(0.132398 -0.0389877 0)
(0.12771 -0.0530662 0)
(0.1231 -0.0672772 0)
(0.118706 -0.0818725 0)
(0.114789 -0.0971257 0)
(0.111785 -0.113332 0)
(0.11021 -0.130709 0)
(0.110184 -0.148906 0)
(0.110495 -0.165754 0)
(0.108729 -0.177564 0)
(0.101868 -0.182631 0)
(0.089181 -0.186452 0)
(0.0812713 -0.190045 0)
(0.081843 -0.194042 0)
(0.0865001 -0.200965 0)
(0.0941823 -0.209788 0)
(0.104217 -0.219658 0)
(0.116526 -0.229539 0)
(0.131079 -0.238979 0)
(0.147925 -0.246889 0)
(0.166726 -0.252419 0)
(0.490671 0.099151 0)
(0.48064 0.114451 0)
(0.470922 0.129535 0)
(0.461412 0.143438 0)
(0.453429 0.156904 0)
(0.448054 0.173078 0)
(0.437335 0.18341 0)
(0.427082 0.193964 0)
(0.418882 0.206495 0)
(0.407962 0.214043 0)
(0.396828 0.220133 0)
(0.383688 0.223987 0)
(0.369135 0.225548 0)
(0.353862 0.224904 0)
(0.337984 0.22198 0)
(0.32132 0.216693 0)
(0.304439 0.2096 0)
(0.287487 0.200784 0)
(0.270649 0.190495 0)
(0.254138 0.178944 0)
(0.23812 0.166269 0)
(0.222736 0.152678 0)
(0.208115 0.138224 0)
(0.194412 0.123106 0)
(0.181707 0.10738 0)
(0.170094 0.0911931 0)
(0.159643 0.0746913 0)
(0.150393 0.058051 0)
(0.14231 0.0414944 0)
(0.135268 0.0252699 0)
(0.128941 0.00963385 0)
(0.123397 -0.00537879 0)
(0.11764 -0.0197199 0)
(0.11175 -0.0336714 0)
(0.10565 -0.0475205 0)
(0.0994144 -0.0616361 0)
(0.0933245 -0.0764133 0)
(0.0878575 -0.0922792 0)
(0.083682 -0.109705 0)
(0.0812478 -0.128679 0)
(0.079911 -0.147543 0)
(0.0769792 -0.161462 0)
(0.0692164 -0.168457 0)
(0.054882 -0.173987 0)
(0.0469114 -0.17872 0)
(0.0475757 -0.184096 0)
(0.0522729 -0.193609 0)
(0.0594595 -0.205588 0)
(0.06853 -0.218076 0)
(0.0794653 -0.230398 0)
(0.0924274 -0.242479 0)
(0.107671 -0.25397 0)
(0.125033 -0.262205 0)
(0.144836 -0.266771 0)
(0.447365 0.109678 0)
(0.438014 0.12538 0)
(0.42916 0.13904 0)
(0.419198 0.152214 0)
(0.411854 0.165749 0)
(0.405574 0.177494 0)
(0.395836 0.187779 0)
(0.389437 0.20083 0)
(0.382593 0.210886 0)
(0.37124 0.221914 0)
(0.361619 0.228552 0)
(0.350777 0.233427 0)
(0.338697 0.236175 0)
(0.325291 0.23662 0)
(0.310723 0.234321 0)
(0.295624 0.22969 0)
(0.280003 0.222961 0)
(0.26416 0.214255 0)
(0.248291 0.203965 0)
(0.232539 0.192186 0)
(0.217104 0.179215 0)
(0.202123 0.16513 0)
(0.187762 0.150131 0)
(0.174176 0.134292 0)