/*--------------------------------*- C++ -*----------------------------------*\
  =========                 |
  \\      /  F ield         | OpenFOAM: The Open Source CFD Toolbox
   \\    /   O peration     | Website:  https://openfoam.org
    \\  /    A nd           | Version:  10
     \\/     M anipulation  |
\*---------------------------------------------------------------------------*/
FoamFile
{
    format      ascii;
    class       surfaceScalarField;
    location    "0.501606";
    object      phi;
}
// * * * * * * * * * * * * * * * * * * * * * * * * * * * * * * * * * * * * * //

dimensions      [1 0 -1 0 0 0 0];

internalField   nonuniform List<scalar> 
31672
(
0.0004664
-7.87373e-06
0.00046359
-1.07747e-05
0.000460066
-1.37086e-05
0.000455806
-1.64331e-05
0.000450931
-1.90742e-05
0.00044545
-2.14355e-05
0.000439455
-2.35769e-05
0.000433058
-2.54586e-05
0.000426362
-2.7082e-05
0.00041951
-2.846e-05
0.000412638
-2.96069e-05
0.000405834
-3.05583e-05
0.000399198
-3.13359e-05
0.000392811
-3.19806e-05
0.000386699
-3.25185e-05
0.000380919
-3.29856e-05
0.000375477
-3.34083e-05
0.000370387
-3.38134e-05
0.000365624
-3.42215e-05
0.000361168
-3.46528e-05
0.000357009
-3.51302e-05
0.000353077
-3.56593e-05
0.000349387
-3.62604e-05
0.000345888
-3.69448e-05
0.000342574
-3.77205e-05
0.000339425
-3.85991e-05
0.000336424
-3.95846e-05
0.00033358
-4.06806e-05
0.000330883
-4.18901e-05
0.000328331
-4.31909e-05
0.000325941
-4.46097e-05
0.000323712
-4.61245e-05
0.00032167
-4.77018e-05
0.000319814
-4.93224e-05
0.000318194
-5.09574e-05
0.000316783
-5.25869e-05
0.00031565
-5.41662e-05
0.000314781
-5.56693e-05
0.000314212
-5.70502e-05
0.000313973
-5.82678e-05
0.000314069
-5.92831e-05
0.000314531
-6.00521e-05
0.000315385
-6.05245e-05
0.000316629
-6.06594e-05
0.000318291
-6.04142e-05
0.000320368
-5.9729e-05
0.000322865
-5.85707e-05
0.000325779
-5.68763e-05
0.000329089
-5.46093e-05
0.000332767
-5.17124e-05
0.000336797
-4.81674e-05
0.000341126
-4.39124e-05
0.000345683
-3.89386e-05
-3.32095e-05
0.00035043
0.000463627
-8.71511e-06
0.000460796
-1.15439e-05
0.000457445
-1.43025e-05
0.000453348
-1.7002e-05
0.000448599
-1.9436e-05
0.000443353
-2.17202e-05
0.000437568
-2.3716e-05
0.000431382
-2.54496e-05
0.000424931
-2.68921e-05
0.000418296
-2.80748e-05
0.000411607
-2.90008e-05
0.000404989
-2.97201e-05
0.000398488
-3.02511e-05
0.0003922
-3.06464e-05
0.000386182
-3.09371e-05
0.000380477
-3.11659e-05
0.000375078
-3.13656e-05
0.000370003
-3.15658e-05
0.000365244
-3.17971e-05
0.000360785
-3.20816e-05
0.000356579
-3.24348e-05
0.000352604
-3.28855e-05
0.000348852
-3.34368e-05
0.000345286
-3.41116e-05
0.000341883
-3.49117e-05
0.000338642
-3.58521e-05
0.000335552
-3.69356e-05
0.000332609
-3.81655e-05
0.000329819
-3.9542e-05
0.000327198
-4.10597e-05
0.00032473
-4.26879e-05
0.000322432
-4.44717e-05
0.000320349
-4.63391e-05
0.000318476
-4.82867e-05
0.000316853
-5.02658e-05
0.000315486
-5.22608e-05
0.000314405
-5.42307e-05
0.000313638
-5.61423e-05
0.000313202
-5.79486e-05
0.000313122
-5.96103e-05
0.000313444
-6.1083e-05
0.000314168
-6.23224e-05
0.000315315
-6.32719e-05
0.000316926
-6.38922e-05
0.000318984
-6.41293e-05
0.000321512
-6.3923e-05
0.000324513
-6.32346e-05
0.000327971
-6.19895e-05
0.000331856
-6.01427e-05
0.000336191
-5.76389e-05
0.000340832
-5.44337e-05
0.00034589
-5.04529e-05
0.000351154
-4.57255e-05
-4.01424e-05
0.000356567
0.000460911
-9.48619e-06
0.000458212
-1.22517e-05
0.00045491
-1.49463e-05
0.000450947
-1.75312e-05
0.000446445
-1.99114e-05
0.000441386
-2.20777e-05
0.000435824
-2.39627e-05
0.000429909
-2.55526e-05
0.000423674
-2.68429e-05
0.00041726
-2.78405e-05
0.000410774
-2.85659e-05
0.000404314
-2.90597e-05
0.000397951
-2.93515e-05
0.000391792
-2.94988e-05
0.000385848
-2.95366e-05
0.000380189
-2.95157e-05
0.000374824
-2.94753e-05
0.000369747
-2.94527e-05
0.00036497
-2.94806e-05
0.000360452
-2.95864e-05
0.000356191
-2.97983e-05
0.000352144
-3.01277e-05
0.000348294
-3.0603e-05
0.000344624
-3.12333e-05
0.000341104
-3.20306e-05
0.000337747
-3.30048e-05
0.000334526
-3.41631e-05
0.000331457
-3.55056e-05
0.000328547
-3.7034e-05
0.000325799
-3.87421e-05
0.000323234
-4.0606e-05
0.000320856
-4.26286e-05
0.00031868
-4.4807e-05
0.000316778
-4.70702e-05
0.000315124
-4.94145e-05
0.000313765
-5.17976e-05
0.000312728
-5.41832e-05
0.000312029
-5.65321e-05
0.000311711
-5.88055e-05
0.000311797
-6.09519e-05
0.000312314
-6.29366e-05
0.000313288
-6.46943e-05
0.000314741
-6.61836e-05
0.000316698
-6.73531e-05
0.000319164
-6.81367e-05
0.000322155
-6.84895e-05
0.000325677
-6.8334e-05
0.000329689
-6.76195e-05
0.000334217
-6.62632e-05
0.000339202
-6.42297e-05
0.000344608
-6.1418e-05
0.000350357
-5.78072e-05
0.000356412
-5.33167e-05
-4.79351e-05
0.00036265
0.000458453
-1.02461e-05
0.000455803
-1.29288e-05
0.000452548
-1.55523e-05
0.000448768
-1.80607e-05
0.000444422
-2.03778e-05
0.000439561
-2.24554e-05
0.00043427
-2.42465e-05
0.000428555
-2.57216e-05
0.000422589
-2.68761e-05
0.000416391
-2.77137e-05
0.000410125
-2.8255e-05
0.000403833
-2.8538e-05
0.000397631
-2.86022e-05
0.000391581
-2.85022e-05
0.000385714
-2.82861e-05
0.0003801
-2.80072e-05
0.000374744
-2.77114e-05
0.000369663
-2.74468e-05
0.000364825
-2.72463e-05
0.000360256
-2.7148e-05
0.000355897
-2.71813e-05
0.000351734
-2.73664e-05
0.000347767
-2.77269e-05
0.000343952
-2.82805e-05
0.000340285
-2.90428e-05
0.000336764
-3.00221e-05
0.000333388
-3.12279e-05
0.000330154
-3.26622e-05
0.000327081
-3.43236e-05
0.000324176
-3.62068e-05
0.000321475
-3.83e-05
0.000318972
-4.05635e-05
0.000316705
-4.30408e-05
0.000314706
-4.56481e-05
0.000313005
-4.83639e-05
0.000311621
-5.11546e-05
0.000310592
-5.39852e-05
0.000309946
-5.68091e-05
0.000309726
-5.95841e-05
0.000309938
-6.22662e-05
0.000310648
-6.48043e-05
0.000311847
-6.71437e-05
0.000313601
-6.92381e-05
0.000315894
-7.10258e-05
0.000318771
-7.24301e-05
0.000322231
-7.34195e-05
0.000326275
-7.38814e-05
0.000330891
-7.37764e-05
0.000336075
-7.30024e-05
0.000341777
-7.15071e-05
0.000347942
-6.91803e-05
0.000354523
-6.59827e-05
0.000361419
-6.18191e-05
-5.66535e-05
0.000368532
0.000456136
-1.09021e-05
0.000453486
-1.35109e-05
0.000450336
-1.6078e-05
0.000446675
-1.85302e-05
0.000442507
-2.0791e-05
0.000437879
-2.28092e-05
0.000432814
-2.45231e-05
0.000427372
-2.59162e-05
0.000421637
-2.69516e-05
0.000415709
-2.76557e-05
0.000409642
-2.80296e-05
0.000403564
-2.81206e-05
0.000397514
-2.79683e-05
0.000391572
-2.76284e-05
0.000385799
-2.71586e-05
0.000380204
-2.66142e-05
0.000374862
-2.60527e-05
0.000369748
-2.55237e-05
0.000364855
-2.50725e-05
0.000360194
-2.47394e-05
0.000355724
-2.45593e-05
0.000351425
-2.45636e-05
0.000347289
-2.47759e-05
0.000343309
-2.52189e-05
0.000339462
-2.5911e-05
0.000335737
-2.68641e-05
0.000332157
-2.80886e-05
0.000328722
-2.95888e-05
0.000325443
-3.13642e-05
0.00032235
-3.34077e-05
0.000319456
-3.57096e-05
0.000316791
-3.82338e-05
0.000314384
-4.09996e-05
0.000312259
-4.39569e-05
0.000310463
-4.70648e-05
0.000309024
-5.02871e-05
0.000307969
-5.35878e-05
0.000307344
-5.69207e-05
0.000307174
-6.02441e-05
0.000307508
-6.35056e-05
0.000308364
-6.666e-05
0.000309784
-6.96425e-05
0.000311818
-7.24082e-05
0.000314442
-7.48838e-05
0.000317719
-7.69996e-05
0.000321655
-7.86968e-05
0.00032623
-7.98764e-05
0.000331476
-8.04727e-05
0.000337349
-8.03779e-05
0.000343803
-7.9515e-05
0.00035081
-7.77644e-05
0.000358289
-7.50689e-05
0.00036612
-7.1298e-05
-6.64098e-05
0.000374224
0.00045395
-1.14138e-05
0.000451316
-1.39613e-05
0.000448249
-1.64827e-05
0.000444692
-1.88935e-05
0.000440718
-2.11195e-05
0.000436286
-2.30934e-05
0.000431477
-2.4764e-05
0.000426306
-2.60829e-05
0.000420837
-2.70406e-05
0.000415178
-2.76266e-05
0.000409358
-2.78608e-05
0.00040348
-2.77784e-05
0.000397594
-2.74227e-05
0.000391792
-2.6855e-05
0.000386095
-2.6131e-05
0.000380572
-2.53191e-05
0.000375211
-2.4477e-05
0.000370047
-2.36647e-05
0.000365089
-2.29355e-05
0.000360295
-2.23372e-05
0.000355686
-2.19105e-05
0.000351231
-2.16941e-05
0.000346901
-2.172e-05
0.000342708
-2.20119e-05
0.000338636
-2.25966e-05
0.000334681
-2.34863e-05
0.000330852
-2.46985e-05
0.000327169
-2.62364e-05
0.000323644
-2.81018e-05
0.000320301
-3.02899e-05
0.000317175
-3.27884e-05
0.000314303
-3.55777e-05
0.000311694
-3.86227e-05
0.000309411
-4.19475e-05
0.00030747
-4.54614e-05
0.000305933
-4.91393e-05
0.000304815
-5.29408e-05
0.00030417
-5.68227e-05
0.000304027
-6.07351e-05
0.000304429
-6.46304e-05
0.000305421
-6.84555e-05
0.000307035
-7.21468e-05
0.0003093
-7.56559e-05
0.000312254
-7.88947e-05
0.000315924
-8.1817e-05
0.000320316
-8.4315e-05
0.00032546
-8.63144e-05
0.000331325
-8.77161e-05
0.000337922
-8.84071e-05
0.000345193
-8.82935e-05
0.000353111
-8.72294e-05
0.000361572
-8.51394e-05
0.000370459
-8.18513e-05
-7.73225e-05
0.00037968
0.0004519
-1.17477e-05
0.00044927
-1.42445e-05
0.000446235
-1.67274e-05
0.000442831
-1.9114e-05
0.000438993
-2.13244e-05
0.0004348
-2.32764e-05
0.000430232
-2.49248e-05
0.000425336
-2.62056e-05
0.000420174
-2.71001e-05
0.000414768
-2.76037e-05
0.000409221
-2.7722e-05
0.000403564
-2.74885e-05
0.000397891
-2.69497e-05
0.000392221
-2.61625e-05
0.000386627
-2.51895e-05
0.000381139
-2.41037e-05
0.000375785
-2.29685e-05
0.000370582
-2.1855e-05
0.000365529
-2.08191e-05
0.000360629
-1.99225e-05
0.00035585
-1.92106e-05
0.000351206
-1.87319e-05
0.000346655
-1.85251e-05
0.000342211
-1.86232e-05
0.000337871
-1.9057e-05
0.000333628
-1.98433e-05
0.000329517
-2.10049e-05
0.000325519
-2.25492e-05
0.000321689
-2.44794e-05
0.000318056
-2.67936e-05
0.000314636
-2.94787e-05
0.000311496
-3.25197e-05
0.00030865
-3.58706e-05
0.000306137
-3.95481e-05
0.000304015
-4.34931e-05
0.000302312
-4.76527e-05
0.000301091
-5.19884e-05
0.00030038
-5.64568e-05
0.000300213
-6.10045e-05
0.000300659
-6.55887e-05
0.000301735
-7.01425e-05
0.000303502
-7.46168e-05
0.000305989
-7.89363e-05
0.000309234
-8.30401e-05
0.00031328
-8.68419e-05
0.000318128
-9.02515e-05
0.000323816
-9.31794e-05
0.000330334
-9.55043e-05
0.000337686
-9.71173e-05
0.000345829
-9.78721e-05
0.000354726
-9.76436e-05
0.000364263
-9.6269e-05
0.000374348
-9.36029e-05
-8.95083e-05
0.000384802
0.000449916
-1.18465e-05
0.00044727
-1.431e-05
0.000444293
-1.67737e-05
0.000440981
-1.91562e-05
0.000437349
-2.1377e-05
0.000433349
-2.33262e-05
0.000429062
-2.49894e-05
0.00042445
-2.62559e-05
0.000419579
-2.71188e-05
0.000414498
-2.75733e-05
0.000409219
-2.75977e-05
0.000403834
-2.72408e-05
0.000398366
-2.65362e-05
0.000392869
-2.55421e-05
0.000387394
-2.43253e-05
0.000381969
-2.29613e-05
0.000376635
-2.15215e-05
0.000371389
-2.00814e-05
0.000366245
-1.87114e-05
0.000361203
-1.74758e-05
0.000356245
-1.64358e-05
0.000351379
-1.56466e-05
0.000346578
-1.51573e-05
0.000341845
-1.50096e-05
0.000337183
-1.52418e-05
0.000332609
-1.58823e-05
0.000328136
-1.69512e-05
0.000323784
-1.84664e-05
0.000319596
-2.04346e-05
0.000315601
-2.28529e-05
0.000311839
-2.57125e-05
0.000308357
-2.89931e-05
0.000305205
-3.26619e-05
0.000302417
-3.67088e-05
0.000300043
-4.10947e-05
0.000298146
-4.57628e-05
0.000296751
-5.06686e-05
0.000295915
-5.57604e-05
0.000295692
-6.09974e-05
0.000296117
-6.63185e-05
0.000297249
-7.16708e-05
0.000299124
-7.69918e-05
0.000301788
-8.22085e-05
0.000305299
-8.72571e-05
0.000309672
-9.20418e-05
0.000314966
-9.64755e-05
0.000321192
-0.000100449
0.000328376
-0.000103839
0.000336503
-0.00010651
0.00034557
-0.000108302
0.000355516
-0.000109054
0.000366255
-0.000108566
0.000377649
-0.000106655
-0.000103125
0.000389519
0.000448139
-1.17011e-05
0.000445445
-1.41471e-05
0.000442477
-1.65819e-05
0.000439246
-1.89848e-05
0.000435755
-2.12361e-05
0.000431977
-2.32152e-05
0.00042794
-2.49289e-05
0.000423641
-2.62275e-05
0.00041909
-2.70846e-05
0.000414321
-2.75238e-05
0.000409361
-2.74836e-05
0.000404265
-2.70322e-05
0.00039904
-2.618e-05
0.000393753
-2.49965e-05
0.000388419
-2.35347e-05
0.000383088
-2.18951e-05
0.000377773
-2.01305e-05
0.000372499
-1.834e-05
0.000367265
-1.65994e-05
0.000362064
-1.49827e-05
0.000356915
-1.35632e-05
0.000351793
-1.24091e-05
0.000346693
-1.15794e-05
0.000341632
-1.11291e-05
0.000336611
-1.11045e-05
0.000331639
-1.15436e-05
0.000326754
-1.24775e-05
0.000321988
-1.3923e-05
0.000317368
-1.58965e-05
0.000312942
-1.83965e-05
0.000308769
-2.14151e-05
0.000304878
-2.49347e-05
0.000301355
-2.89209e-05
0.000298228
-3.33534e-05
0.000295545
-3.81973e-05
0.000293371
-4.34023e-05
0.000291751
-4.89101e-05
0.000290745
-5.46749e-05
0.00029039
-6.06434e-05
0.000290751
-6.67611e-05
0.000291877
-7.29725e-05
0.000293805
-7.921e-05
0.000296606
-8.54089e-05
0.000300322
-9.14896e-05
0.000305006
-9.7367e-05
0.000310702
-0.000102941
0.000317455
-0.000108091
0.000325291
-0.000112702
0.000334234
-0.000116588
0.00034426
-0.000119611
0.000355329
-0.000121508
0.000367355
-0.000122121
0.000380186
-0.000121105
-0.000118319
0.000393645
0.000446323
-1.12155e-05
0.000443515
-1.36806e-05
0.000440666
-1.61301e-05
0.000437408
-1.86277e-05
0.000434175
-2.08601e-05
0.000430616
-2.29766e-05
0.000426757
-2.46731e-05
0.000422839
-2.6093e-05
0.000418645
-2.69908e-05
0.000414225
-2.74596e-05
0.000409619
-2.73894e-05
0.000404835
-2.68711e-05
0.000399901
-2.58883e-05
0.00039485
-2.45339e-05
0.000389693
-2.28202e-05
0.000384487
-2.09176e-05
0.000379226
-1.88042e-05
0.000373928
-1.6632e-05
0.000368605
-1.44788e-05
0.000363258
-1.24306e-05
0.000357885
-1.05736e-05
0.000352488
-8.99042e-06
0.000347066
-7.75554e-06
0.000341628
-6.93601e-06
0.000336189
-6.59119e-06
0.000330773
-6.77035e-06
0.000325411
-7.51325e-06
0.000320148
-8.84732e-06
0.000315026
-1.07896e-05
0.000310098
-1.33462e-05
0.00030543
-1.65086e-05
0.000301068
-2.02612e-05
0.000297089
-2.45719e-05
0.000293534
-2.93969e-05
0.000290474
-3.47292e-05
0.000287956
-4.04979e-05
0.000286053
-4.66462e-05
0.000284804
-5.31253e-05
0.000284261
-5.98757e-05
0.000284489
-6.68485e-05
0.000285538
-7.3979e-05
0.000287475
-8.12093e-05
0.000290346
-8.84681e-05
0.000294216
-9.56795e-05
0.000299158
-0.000102749
0.000305214
-0.000109592
0.000312464
-0.000116067
0.000320934
-0.000122057
0.000330678
-0.000127341
0.000341676
-0.000131799
0.000353921
-0.000135041
0.000367308
-0.000136965
0.000381634
-0.000136997
-0.00013513
0.00039673
0.000444661
-1.05133e-05
0.000441884
-1.28491e-05
0.000438789
-1.54329e-05
0.000435794
-1.78925e-05
0.000432547
-2.03225e-05
0.00042926
-2.24836e-05
0.000425736
-2.44385e-05
0.000422078
-2.57969e-05
0.000418265
-2.69452e-05
0.000414143
-2.72716e-05
0.000409924
-2.73373e-05
0.000405501
-2.67364e-05
0.000400929
-2.57326e-05
0.000396139
-2.41536e-05
0.000391221
-2.22372e-05
0.000386179
-2.00517e-05
0.000381014
-1.75773e-05
0.00037572
-1.49708e-05
0.000370325
-1.2353e-05
0.000364823
-9.81269e-06
0.000359226
-7.45104e-06
0.000353535
-5.36505e-06
0.000347751
-3.64848e-06
0.000341889
-2.38247e-06
0.000335974
-1.64355e-06
0.00033004
-1.49466e-06
0.000324127
-1.98638e-06
0.000318286
-3.15523e-06
0.000312577
-5.02865e-06
0.000307059
-7.61415e-06
0.000301807
-1.09059e-05
0.000296885
-1.48866e-05
0.000292372
-1.95249e-05
0.000288322
-2.4768e-05
0.000284806
-3.06086e-05
0.000281879
-3.69725e-05
0.000279606
-4.38014e-05
0.000278044
-5.10372e-05
0.000277246
-5.86228e-05
0.000277272
-6.65046e-05
0.000278185
-7.46197e-05
0.000280046
-8.29133e-05
0.000282927
-9.13112e-05
0.000286883
-9.97452e-05
0.000292
-0.000108122
0.000298367
-0.000116352
0.000306054
-0.000124303
0.000315095
-0.000131845
0.00032565
-0.000138733
0.000337635
-0.000144851
0.000350991
-0.000149654
0.000365691
-0.000153021
0.000381334
-0.000154213
-0.000153283
0.000397834
0.000443088
-9.29439e-06
0.000440047
-1.17321e-05
0.000437064
-1.43198e-05
0.000434009
-1.69391e-05
0.000430969
-1.95063e-05
0.00042775
-2.18978e-05
0.00042449
-2.38294e-05
0.000421218
-2.55449e-05
0.000417664
-2.65922e-05
0.000414149
-2.7273e-05
0.00041034
-2.73326e-05
0.000406382
-2.67653e-05
0.000402145
-2.56456e-05
0.000397736
-2.3965e-05
0.000393125
-2.18606e-05
0.000388126
-1.91844e-05
0.000383147
-1.64524e-05
0.0003779
-1.33602e-05
0.000372449
-1.023e-05
0.000366808
-7.12975e-06
0.00036098
-4.18327e-06
0.000354971
-1.50785e-06
0.00034879
7.80409e-07
0.00034246
2.57943e-06
0.000336012
3.79731e-06
0.000329486
4.35399e-06
0.000322938
4.18235e-06
0.000316436
3.23403e-06
0.000310049
1.47796e-06
0.000303843
-1.09987e-06
0.000297908
-4.50275e-06
0.000292328
-8.7148e-06
0.000287187
-1.36912e-05
0.000282553
-1.93806e-05
0.000278492
-2.57525e-05
0.000275075
-3.27478e-05
0.000272364
-4.02974e-05
0.000270411
-4.83385e-05
0.000269286
-5.68081e-05
0.000269036
-6.56547e-05
0.000269737
-7.4815e-05
0.000271453
-8.42378e-05
0.000274245
-9.38523e-05
0.000278211
-0.000103592
0.000283429
-0.000113387
0.000290001
-0.000123121
0.000298043
-0.000132713
0.0003076
-0.000141955
0.000318846
-0.000150674
0.000331631
-0.000158546
0.000346024
-0.000165081
0.000361543
-0.000169855
0.000378165
-0.000172192
-0.000172293
0.000395516
0.000441509
-7.63358e-06
0.000438282
-1.01436e-05
0.000435149
-1.28528e-05
0.000432095
-1.56557e-05
0.000429118
-1.84101e-05
0.00042613
-2.09685e-05
0.000423241
-2.32536e-05
0.000420305
-2.51112e-05
0.000417312
-2.64624e-05
0.000414019
-2.72946e-05
0.000410781
-2.73656e-05
0.000407159
-2.69195e-05
0.000403465
-2.56919e-05
0.000399512
-2.39781e-05
0.000395129
-2.1579e-05
0.000390647
-1.87103e-05
0.000385714
-1.53903e-05
0.000380534
-1.18415e-05
0.000375054
-8.12135e-06
0.000369298
-4.38436e-06
0.000363251
-7.63716e-07
0.000356914
2.59852e-06
0.0003503
5.56298e-06
0.000343443
8.00189e-06
0.000336394
9.79876e-06
0.000329196
1.08562e-05
0.000321923
1.10881e-05
0.000314642
1.04327e-05
0.000307452
8.84272e-06
0.000300451
6.29499e-06
0.000293732
2.79149e-06
0.000287389
-1.63594e-06
0.000281506
-6.97266e-06
0.000276197
-1.31362e-05
0.000271499
-2.00755e-05
0.000267506
-2.77422e-05
0.000264276
-3.60589e-05
0.00026186
-4.49514e-05
0.000260328
-5.43583e-05
0.000259724
-6.42205e-05
0.00026013
-7.44843e-05
0.000261607
-8.50941e-05
0.000264225
-9.59957e-05
0.000268095
-0.000107119
0.000273302
-0.000118431
0.000279983
-0.00012978
0.000288249
-0.000141167
0.0002982
-0.000152248
0.000309928
-0.000162975
0.000323214
-0.000172541
0.000338058
-0.00018088
0.000353784
-0.000186659
0.000370219
-0.000190167
-0.000191047
0.000387225
0.000439915
-5.45739e-06
0.000436465
-8.08206e-06
0.000433188
-1.09737e-05
0.000430089
-1.40102e-05
0.000427134
-1.70286e-05
0.000424449
-1.99228e-05
0.000421773
-2.25116e-05
0.000419234
-2.46733e-05
0.000416551
-2.63172e-05
0.000413971
-2.73e-05
0.000411086
-2.76697e-05
0.000408189
-2.72038e-05
0.000404936
-2.60979e-05
0.000401342
-2.4121e-05
0.000397525
-2.1562e-05
0.000393275
-1.83444e-05
0.0003887
-1.464e-05
0.00038369
-1.04889e-05
0.00037827
-6.09381e-06
0.000372414
-1.60596e-06
0.000366127
2.80793e-06
0.000359431
6.979e-06
0.000352339
1.07444e-05
0.000344901
1.39452e-05
0.00033716
1.6442e-05
0.000329198
1.81066e-05
0.000321085
1.88354e-05
0.000312919
1.85418e-05
0.000304814
1.71745e-05
0.000296888
1.46952e-05
0.000289256
1.11096e-05
0.000282041
6.43685e-06
0.000275324
7.45627e-07
0.000269225
-5.93257e-06
0.000263806
-1.34865e-05
0.000259147
-2.1875e-05
0.000255306
-3.10068e-05
0.000252348
-4.08027e-05
0.000250323
-5.11954e-05
0.000249287
-6.21243e-05
0.000249309
-7.3541e-05
0.000250452
-8.53899e-05
0.000252787
-9.76347e-05
0.000256452
-0.000110215
0.000261522
-0.000123119
0.000268159
-0.0001362
0.000276503
-0.000149483
0.000286566
-0.000162492
0.000298386
-0.000175157
0.000311504
-0.000186146
0.000325765
-0.000196059
0.000340001
-0.000201865
0.000355188
-0.000207145
-0.000207607
0.000369463
0.000438251
-2.68071e-06
0.000434469
-5.48032e-06
0.000431002
-8.6279e-06
0.000427829
-1.19797e-05
0.000424989
-1.53767e-05
0.000422374
-1.86563e-05
0.000420094
-2.16528e-05
0.000417896
-2.42074e-05
0.000415802
-2.6225e-05
0.00041359
-2.75535e-05
0.000411501
-2.80819e-05
0.000409041
-2.78768e-05
0.000406531
-2.66976e-05
0.000403561
-2.47667e-05
0.00040024
-2.18821e-05
0.000396529
-1.84171e-05
0.00039219
-1.40621e-05
0.000387396
-9.31398e-06
0.000382045
-4.15064e-06
0.000376139
1.18768e-06
0.00036966
6.52013e-06
0.000362615
1.16457e-05
0.000355031
1.63583e-05
0.000346952
2.04722e-05
0.000338433
2.38077e-05
0.000329577
2.62079e-05
0.0003205
2.75392e-05
0.000311322
2.76974e-05
0.000302167
2.6611e-05
0.000293175
2.4239e-05
0.000284491
2.05792e-05
0.000276253
1.56605e-05
0.000268586
9.54906e-06
0.000261576
2.3427e-06
0.000255333
-5.90273e-06
0.000249922
-1.50633e-05
0.000245398
-2.50667e-05
0.000241816
-3.58199e-05
0.000239224
-4.72506e-05
0.000237674
-5.92891e-05
0.000237219
-7.19012e-05
0.000237926
-8.50299e-05
0.000239875
-9.86575e-05
0.000243187
-0.000112746
0.000247963
-0.000127292
0.000254409
-0.00014219
0.000262544
-0.0001574
0.00027234
-0.000172247
0.000283609
-0.000186547
0.000295446
-0.00019841
0.000307639
-0.000209338
0.000319651
-0.00021491
0.00033138
-0.000224087
-0.000228167
0.000352433
0.000436421
7.9326e-07
0.000432274
-2.26368e-06
0.000428553
-5.7595e-06
0.000425286
-9.53819e-06
0.000422457
-1.3413e-05
0.000420044
-1.71995e-05
0.00041794
-2.07089e-05
0.000416243
-2.37819e-05
0.000414648
-2.62723e-05
0.00041321
-2.79828e-05
0.000411598
-2.89124e-05
0.000410062
-2.88063e-05
0.000408079
-2.7852e-05
0.000405976
-2.57641e-05
0.000403284
-2.28031e-05
0.000399966
-1.87184e-05
0.000396292
-1.39594e-05
0.0003918
-8.44645e-06
0.000386604
-2.39831e-06
0.000380683
3.94658e-06
0.000374015
1.03639e-05
0.000366602
1.66111e-05
0.000358462
2.24518e-05
0.000349668
2.76517e-05
0.000340301
3.19901e-05
0.000330464
3.52757e-05
0.000320285
3.73388e-05
0.000309927
3.80502e-05
0.000299558
3.73141e-05
0.000289342
3.50854e-05
0.000279446
3.13552e-05
0.000270037
2.6167e-05
0.000261249
1.95998e-05
0.000253233
1.17627e-05
0.00024605
2.78965e-06
0.000239793
-7.235e-06
0.000234502
-1.81725e-05
0.000230224
-2.99415e-05
0.000226986
-4.24586e-05
0.000224847
-5.56505e-05
0.000223833
-6.9484e-05
0.000224
-8.39185e-05
0.000225432
-9.89458e-05
0.000228248
-0.000114569
0.000232573
-0.000130787
0.000238563
-0.000147515
0.000246101
-0.000164506
0.000254977
-0.000180832
0.000264361
-0.000196037
0.000273433
-0.000207671
0.000282143
-0.000219882
0.000295411
-0.000229647
0.000314967
-0.000252715
-0.000294345
0.000359908
0.000434372
5.06774e-06
0.000429728
1.65492e-06
0.000425687
-2.30943e-06
0.000422259
-6.64109e-06
0.000419431
-1.11286e-05
0.000417181
-1.55606e-05
0.000415539
-1.97326e-05
0.000414184
-2.3458e-05
0.000413232
-2.64981e-05
0.000412324
-2.87926e-05
0.000411675
-3.00694e-05
0.000410751
-3.03715e-05
0.000409868
-2.94301e-05
0.000408457
-2.74555e-05
0.000406565
-2.4131e-05
0.000404178
-1.98571e-05
0.00040094
-1.4278e-05
0.000396945
-7.99272e-06
0.000392029
-9.0201e-07
0.000386161
6.61228e-06
0.000379344
1.42967e-05
0.00037158
2.18789e-05
0.000362883
2.90586e-05
0.000353292
3.55582e-05
0.000342914
4.11026e-05
0.000331914
4.54526e-05
0.000320465
4.83975e-05
0.000308745
4.9779e-05
0.00029695
4.94714e-05
0.0002853
4.74153e-05
0.000274002
4.36078e-05
0.000263262
3.81044e-05
0.000253239
3.10134e-05
0.000244073
2.24792e-05
0.000235872
1.26465e-05
0.000228669
1.69831e-06
0.000222556
-1.02785e-05
0.000217522
-2.31206e-05
0.000213584
-3.67699e-05
0.000210779
-5.11439e-05
0.000209119
-6.62199e-05
0.000208641
-8.19608e-05
0.000209433
-9.83852e-05
0.000211606
-0.000115536
0.000215273
-0.000133409
0.000220465
-0.000151846
0.000226918
-0.000170235
0.000233746
-0.000187245
0.000239877
-0.000202401
0.000245849
-0.000214065
0.00025437
-0.000232858
0.000286068
-0.000270391
0.000334453
-0.00032957
-0.000377932
0.000373736
0.000431952
1.02589e-05
0.000426756
6.36465e-06
0.000422306
1.78955e-06
0.000418673
-3.25675e-06
0.000415846
-8.52048e-06
0.000413763
-1.37677e-05
0.00041237
-1.87562e-05
0.000411546
-2.32586e-05
0.000411199
-2.7055e-05
0.000411216
-2.99768e-05
0.000411328
-3.1831e-05
0.000411576
-3.25029e-05
0.00041139
-3.1869e-05
0.000411241
-2.98253e-05
0.000410283
-2.64352e-05
0.000408734
-2.15584e-05
0.00040643
-1.54245e-05
0.000403003
-8.03002e-06
0.000398471
2.17575e-07
0.000392726
9.11562e-06
0.000385755
1.83038e-05
0.000377569
2.74542e-05
0.000368203
3.62288e-05
0.000357742
4.42777e-05
0.000346289
5.12669e-05
0.000333997
5.68981e-05
0.000321091
6.09058e-05
0.000307813
6.3093e-05
0.000294394
6.33026e-05
0.000281102
6.14547e-05
0.000268191
5.75489e-05
0.000255907
5.16604e-05
0.000244465
4.39399e-05
0.000234008
3.45776e-05
0.000224674
2.37785e-05
0.000216467
1.17817e-05
0.000209466
-1.33863e-06
0.000203645
-1.53472e-05
0.000198966
-3.01693e-05
0.000195442
-4.57485e-05
0.000193069
-6.20541e-05
0.000191859
-7.90797e-05
0.000191891
-9.68703e-05
0.000193264
-0.000115495
0.000196013
-0.000134928
0.000200001
-0.000154704
0.000204364
-0.000173798
0.000208152
-0.000190543
0.000210065
-0.000205302
0.00021896
-0.00022597
0.000248097
-0.000277974
0.000280155
-0.000341246
0.000307859
-0.000379963
-0.00040261
0.000323542
0.000428974
1.64788e-05
0.000423085
1.19532e-05
0.000418179
6.59455e-06
0.000414312
6.53403e-07
0.000411411
-5.59102e-06
0.000409514
-1.18421e-05
0.00040848
-1.78353e-05
0.000408231
-2.33076e-05
0.000408624
-2.80156e-05
0.000409537
-3.17314e-05
0.000410636
-3.42921e-05
0.000412005
-3.54542e-05
0.000413048
-3.52047e-05
0.000414011
-3.31996e-05
0.000414323
-2.96722e-05
0.000413833
-2.42124e-05
0.000412543
-1.7361e-05
0.000409722
-8.79238e-06
0.000405669
8.47158e-07
0.000400275
1.13295e-05
0.000393226
2.23233e-05
0.000384692
3.33198e-05
0.000374655
4.40112e-05
0.000363222
5.39134e-05
0.00035056
6.26222e-05
0.000336824
6.97876e-05
0.000322235
7.50838e-05
0.000307098
7.82405e-05
0.000291748
7.90608e-05
0.000276535
7.74412e-05
0.000261786
7.33849e-05
0.000247797
6.70107e-05
0.000234809
5.85179e-05
0.00022298
4.81681e-05
0.000212446
3.62306e-05
0.000203235
2.29882e-05
0.000195272
8.69287e-06
0.000188624
-6.60077e-06
0.000183165
-2.26319e-05
0.000178872
-3.94232e-05
0.000175719
-5.69439e-05
0.000173694
-7.52087e-05
0.000172851
-9.42988e-05
0.000173251
-0.000114298
0.000174755
-0.000134981
0.000176746
-0.000155514
0.000178056
-0.000174156
0.000177712
-0.000190502
0.000182343
-0.000213334
0.000206844
-0.00027146
0.000227672
-0.00033451
0.000238204
-0.000369251
0.000241454
-0.000392041
-0.000409603
0.000243806
0.00042497
2.37864e-05
0.000418407
1.8457e-05
0.00041301
1.21236e-05
0.000408841
5.0691e-06
0.000405941
-2.36312e-06
0.000404215
-9.84074e-06
0.000403614
-1.70483e-05
0.00040401
-2.36936e-05
0.000405256
-2.95088e-05
0.000407086
-3.42085e-05
0.000409421
-3.75651e-05
0.000411908
-3.94418e-05
0.000414521
-3.95448e-05
0.000416674
-3.77931e-05
0.000418379
-3.39587e-05
0.000419177
-2.80592e-05
0.000418709
-2.01531e-05
0.00041696
-1.03932e-05
0.000413658
7.66082e-07
0.000408418
1.32708e-05
0.000401359
2.63244e-05
0.000392434
3.95122e-05
0.00038167
5.24281e-05
0.000369122
6.45379e-05
0.000355026
7.52946e-05
0.000339645
8.42712e-05
0.000323233
9.10852e-05
0.000306102
9.5402e-05
0.000288636
9.69581e-05
0.000271275
9.55999e-05
0.000254459
9.13308e-05
0.000238565
8.43142e-05
0.000223888
7.4845e-05
0.0002106
6.32877e-05
0.000198824
5.00142e-05
0.000188534
3.53761e-05
0.000179697
1.96951e-05
0.000172214
3.09847e-06
0.000166046
-1.42507e-05
0.000161019
-3.22297e-05
0.000157083
-5.08999e-05
0.000154199
-7.03165e-05
0.000152403
-9.05951e-05
0.000151589
-0.000111733
0.000151306
-0.000133126
0.000150419
-0.000153283
0.000147531
-0.000170875
0.000147169
-0.000193259
0.000163548
-0.000249855
0.00017355
-0.000310549
0.000167991
-0.000343298
0.000160853
-0.000366474
0.000156437
-0.000389179
-0.000410368
0.000155309
0.000419114
3.20725e-05
0.000411919
2.57875e-05
0.000406098
1.82813e-05
0.000401758
9.89842e-06
0.000398931
1.0444e-06
0.000397512
-7.88391e-06
0.000397443
-1.65296e-05
0.000398643
-2.46101e-05
0.000400804
-3.16593e-05
0.000403715
-3.74977e-05
0.000407357
-4.18901e-05
0.000411228
-4.44999e-05
0.000415276
-4.51343e-05
0.000418786
-4.35121e-05
0.00042196
-3.9408e-05
0.000423668
-3.29508e-05
0.000424395
-2.38741e-05
0.000423292
-1.26668e-05
0.000420185
4.93719e-07
0.000415398
1.46699e-05
0.000408471
3.02943e-05
0.000398971
4.60673e-05
0.000387444
6.15107e-05
0.000373862
7.61693e-05
0.000358358
8.93622e-05
0.000341242
0.000100434
0.000322875
0.000109
0.000303643
0.000114661
0.000283985
0.000117073
0.000264418
0.000116004
0.000245471
0.000111443
0.000227626
0.00010361
0.000211252
9.29254e-05
0.000196544
7.98908e-05
0.000183609
6.50213e-05
0.000172392
4.87743e-05
0.000162804
3.15371e-05
0.000154605
1.36026e-05
0.000147766
-5.08794e-06
0.000142017
-2.41943e-05
0.000137284
-4.39303e-05
0.000133515
-6.4394e-05
0.000130625
-8.56707e-05
0.000128329
-0.000107479
0.000125529
-0.000128654
0.000120538
-0.000147356
0.00011516
-0.000167572
0.000123837
-0.000218346
0.000120239
-0.000276714
0.000104631
-0.000305747
8.98164e-05
-0.000330055
7.97727e-05
-0.000356694
7.30331e-05
-0.000383189
-0.000407135
6.81126e-05
0.000409587
4.08886e-05
0.000402208
3.35568e-05
0.000396352
2.47314e-05
0.000392148
1.48365e-05
0.000389604
4.37107e-06
0.000388735
-6.21504e-06
0.000389442
-1.65856e-05
0.00039155
-2.61581e-05
0.000394845
-3.47111e-05
0.000398994
-4.18295e-05
0.000403989
-4.72505e-05
0.000409153
-5.06772e-05
0.00041444
-5.17342e-05
0.000419143
-5.00988e-05
0.00042289
-4.56224e-05
0.000425581
-3.81735e-05
0.000426485
-2.80404e-05
0.000425635
-1.48739e-05
0.000422951
-1.73793e-07
0.000417861
1.65332e-05
0.000410718
3.42292e-05
0.000401115
5.29686e-05
0.000388717
7.13262e-05
0.00037434
8.85286e-05
0.000357591
0.000104624
0.000339032
0.000118008
0.000318957
0.000128572
0.000297797
0.000135799
0.000276095
0.000139223
0.000254483
0.000138479
0.000233592
0.000133532
0.000213999
0.000124685
0.000196143
0.000112516
0.00018025
9.77205e-05
0.000166401
8.09966e-05
0.000154471
6.29512e-05
0.000144275
4.40537e-05
0.000135618
2.46297e-05
0.000128179
4.74884e-06
0.000121852
-1.54847e-05
0.000116417
-3.6148e-05
0.000111767
-5.74695e-05
0.00010767
-7.9383e-05
0.000103318
-0.000101155
9.69276e-05
-0.000120696
8.78279e-05
-0.000139137
8.82686e-05
-0.000178822
7.25846e-05
-0.000235223
4.76041e-05
-0.000261127
2.78338e-05
-0.000286072
1.37828e-05
-0.000315088
2.78192e-06
-0.000345274
-6.80967e-06
-0.000373908
-0.000399849
-1.58741e-05
0.000394273
4.9393e-05
0.000387413
4.09966e-05
0.00038216
3.07937e-05