/*--------------------------------*- C++ -*----------------------------------*\
  =========                 |
  \\      /  F ield         | OpenFOAM: The Open Source CFD Toolbox
   \\    /   O peration     | Website:  https://openfoam.org
    \\  /    A nd           | Version:  10
     \\/     M anipulation  |
\*---------------------------------------------------------------------------*/
FoamFile
{
    format      ascii;
    class       volScalarField;
    location    "0.501606";
    object      rho;
}
// * * * * * * * * * * * * * * * * * * * * * * * * * * * * * * * * * * * * * //

dimensions      [1 -3 0 0 0 0 0];

internalField   nonuniform List<scalar> 
15984
(
0.970462
0.973678
0.977931
0.982318
0.987398
0.99285
0.998657
1.00465
1.0108
1.01681
1.02283
1.02854
1.03394
1.0389
1.04346
1.04735
1.05095
1.05384
1.05655
1.05854
1.06046
1.06182
1.06295
1.06387
1.06448
1.06503
1.06533
1.06556
1.06569
1.0657
1.0657
1.06565
1.06556
1.06539
1.06526
1.06503
1.0648
1.06453
1.06418
1.06378
1.06335
1.06275
1.06221
1.06142
1.06067
1.05972
1.05873
1.05756
1.05636
1.05493
1.05341
1.0518
1.04996
1.04803
0.970381
0.974473
0.977633
0.982992
0.987234
0.992856
0.998432
1.00443
1.01032
1.01656
1.0223
1.02824
1.03356
1.03867
1.04316
1.04736
1.05094
1.05411
1.05679
1.05911
1.06105
1.06257
1.06384
1.06485
1.06562
1.06616
1.06661
1.06686
1.06706
1.06713
1.06719
1.06707
1.06702
1.06683
1.06664
1.06642
1.0661
1.06576
1.06535
1.06483
1.06424
1.06367
1.06286
1.06204
1.06116
1.06004
1.05896
1.05763
1.05631
1.0546
1.05326
1.05086
1.04974
1.04679
0.970913
0.974461
0.978295
0.982823
0.987393
0.992923
0.998165
1.00417
1.00996
1.01604
1.02182
1.02768
1.03302
1.03818
1.04284
1.04701
1.05082
1.05408
1.05693
1.05941
1.06139
1.06321
1.06448
1.06571
1.06649
1.06723
1.0677
1.06806
1.06829
1.06844
1.06845
1.06848
1.06827
1.06819
1.0679
1.06765
1.06727
1.06689
1.06631
1.06579
1.06509
1.06435
1.06347
1.06252
1.06147
1.06027
1.059
1.05762
1.05596
1.05444
1.05248
1.05071
1.04837
1.04647
0.971692
0.975006
0.97891
0.982951
0.987915
0.992629
0.998316
1.00369
1.00962
1.01542
1.02122
1.027
1.03232
1.0376
1.04224
1.04661
1.05045
1.05391
1.05692
1.05943
1.06179
1.06349
1.06512
1.06632
1.06735
1.06808
1.06872
1.06912
1.06944
1.0696
1.06968
1.06964
1.06962
1.06933
1.06918
1.06876
1.06842
1.06785
1.06734
1.06658
1.0659
1.06495
1.06398
1.06297
1.06165
1.06047
1.05892
1.05749
1.05564
1.05401
1.05186
1.0499
1.04752
1.04528
0.972418
0.975813
0.979351
0.983611
0.987962
0.992943
0.998043
1.00357
1.00906
1.01486
1.02053
1.02615
1.03164
1.03672
1.04159
1.04596
1.04988
1.05356
1.05663
1.05943
1.0618
1.06382
1.06547
1.06685
1.06802
1.06889
1.06956
1.07011
1.07045
1.07069
1.07082
1.0708
1.07072
1.07055
1.07023
1.0699
1.0694
1.06885
1.06817
1.06739
1.06657
1.06549
1.06446
1.0633
1.06184
1.06054
1.05886
1.05719
1.05536
1.05339
1.05119
1.04899
1.04654
1.04395
0.973455
0.976556
0.980201
0.984138
0.988369
0.993156
0.997928
1.00339
1.00854
1.0143
1.01972
1.02537
1.03064
1.03585
1.04067
1.04515
1.04932
1.0529
1.05628
1.05915
1.06164
1.06386
1.06568
1.0672
1.06849
1.0695
1.07032
1.0709
1.07139
1.07164
1.07182
1.07187
1.07173
1.0716
1.07128
1.07084
1.07039
1.06968
1.06901
1.06808
1.06716
1.06603
1.06487
1.06348
1.06207
1.06048
1.05875
1.05696
1.05484
1.05283
1.05032
1.04813
1.04527
1.04272
0.974466
0.97767
0.98102
0.984833
0.988973
0.993257
0.998159
1.00293
1.00832
1.01349
1.019
1.02433
1.02966
1.03481
1.03959
1.04421
1.04832
1.05221
1.05559
1.05871
1.06139
1.06371
1.06579
1.06738
1.0689
1.06996
1.07094
1.07166
1.07212
1.07253
1.07271
1.07276
1.07276
1.07251
1.07222
1.07179
1.07117
1.07058
1.06966
1.06878
1.06771
1.06648
1.06522
1.06369
1.06221
1.06043
1.05861
1.05657
1.0544
1.05208
1.04956
1.04699
1.04406
1.04125
0.975654
0.978628
0.982042
0.985551
0.989525
0.993674
0.998111
1.0029
1.00771
1.01293
1.01807
1.02333
1.02854
1.03359
1.03844
1.04303
1.04728
1.05129
1.0548
1.05809
1.06091
1.06345
1.06565
1.06748
1.06906
1.07032
1.0714
1.07218
1.0728
1.07325
1.0735
1.07362
1.07356
1.07342
1.07305
1.07259
1.07203
1.07123
1.07036
1.0694
1.06819
1.067
1.06548
1.064
1.06225
1.06039
1.05841
1.05619
1.05393
1.05129
1.04874
1.04574
1.04285
1.03949
0.977152
0.980096
0.983206
0.986602
0.990232
0.994129
0.998332
1.00276
1.00739
1.01226
1.01718
1.02229
1.02734
1.03231
1.03717
1.04175
1.04614
1.05014
1.05393
1.05725
1.0603
1.063
1.06534
1.06733
1.0691
1.0705
1.07167
1.0726
1.07335
1.07383
1.07417
1.07433
1.07429
1.07417
1.07386
1.07333
1.07274
1.07191
1.07104
1.0699
1.06877
1.06735
1.06584
1.06418
1.06234
1.06036
1.05818
1.05588
1.05332
1.05069
1.04771
1.04467
1.04128
1.03787
0.978349
0.981451
0.983991
0.988109
0.990313
0.995264
0.998296
1.00253
1.00712
1.01157
1.01639
1.02117
1.0261
1.03096
1.03574
1.04038
1.04477
1.04894
1.05275
1.05631
1.05947
1.06235
1.06485
1.06706
1.06893
1.07053
1.07184
1.0729
1.07373
1.07433
1.07471
1.07495
1.07498
1.07481
1.07453
1.07403
1.07335
1.07262
1.07157
1.07051
1.06917
1.06776
1.06616
1.06438
1.06244
1.06036
1.05799
1.05561
1.05276
1.05002
1.04662
1.04354
1.0397
1.03612
0.981138
0.982159
0.986634
0.987864
0.992838
0.994336
1.00007
1.00191
1.00745
1.01076
1.01542
1.01989
1.02486
1.02942
1.03425
1.03886
1.04334
1.04752
1.05149
1.05515
1.05848
1.06152
1.06423
1.06659
1.06864
1.07037
1.07184
1.07302
1.07396
1.07467
1.07512
1.07542
1.0755
1.07538
1.07514
1.07466
1.07399
1.07318
1.07217
1.071
1.06968
1.06817
1.0665
1.06468
1.06256
1.06039
1.05792
1.05533
1.05217
1.0495
1.04568
1.04244
1.03803
1.03448
0.981539
0.985016
0.986753
0.990778
0.992203
0.997082
0.998527
1.00324
1.0063
1.0099
1.01543
1.01815
1.02469
1.02679
1.03392
1.03675
1.04155
1.04595
1.05002
1.05378
1.0573
1.06048
1.06338
1.06591
1.06817
1.07004
1.07167
1.07295
1.07406
1.07484
1.07543
1.07578
1.07595
1.07589
1.07565
1.0752
1.07454
1.07375
1.07267
1.07155
1.07012
1.06865
1.06687
1.06494
1.06282
1.06046
1.05788
1.05511
1.05176
1.0489
1.04445
1.04161
1.03546
1.03332
0.983902
0.986227
0.988849
0.99141
0.994029
0.997022
0.999377
1.00362
1.00574
1.01096
1.01276
1.01898
1.02086
1.02778
1.03003
1.03636
1.03984
1.04421
1.04832
1.05226
1.05595
1.05933
1.0624
1.06512
1.06752
1.06962
1.07136
1.07287
1.07399
1.07496
1.07557
1.07604
1.07628
1.07626
1.07609
1.07566
1.07505
1.07426
1.07323
1.07203
1.07066
1.06909
1.06732
1.06526
1.06313
1.06054
1.05801
1.05483
1.05168
1.04805
1.04377
1.03989
1.03465
1.03253
0.98583
0.988089
0.990659
0.992853
0.995418
0.997458
1.00098
1.00276
1.00696
1.00882
1.01397
1.01587
1.02179
1.02439
1.02938
1.03361
1.03812
1.04245
1.04665
1.0507
1.05446
1.058
1.06123
1.06411
1.06671
1.06893
1.07092
1.07248
1.07383
1.07481
1.07563
1.07612
1.07647
1.07658
1.07644
1.07615
1.07553
1.07476
1.07377
1.07255
1.0712
1.0696
1.0678
1.06564
1.06356
1.0607
1.05825
1.05466
1.05171
1.04686
1.04349
1.03835
1.0349
1.03748
0.987681
0.990182
0.992186
0.994613
0.996478
0.999066
1.00083
1.00423
1.00587
1.00989
1.01165
1.01674
1.01848
1.0246
1.02658
1.03271
1.03596
1.04037
1.04461
1.04877
1.0527
1.05644
1.05985
1.06298
1.06572
1.0681
1.07016
1.07194
1.07343
1.07459
1.07551
1.07614
1.07659
1.07676
1.07671
1.07647
1.07597
1.07521
1.0743
1.07306
1.07177
1.07012
1.06832
1.06615
1.0639
1.06101
1.05857
1.05449
1.0516
1.04634
1.04519
1.038
1.05394
1.0451
0.989879
0.991932
0.994263
0.99606
0.998234
0.999933
1.00216
1.00379
1.00697
1.00854
1.01256
1.01406
1.0192
1.02079
1.02699
1.02924
1.03414
1.03842
1.04254
1.04673
1.05075
1.05468
1.05821
1.06152
1.06444
1.06709
1.06932
1.07127
1.07291
1.07429
1.07535
1.07614
1.07666
1.07692
1.07691
1.07678
1.07634
1.07564
1.0748
1.07356
1.07234
1.07073
1.06887
1.06669
1.06434
1.06151
1.05877
1.05441
1.05158
1.04603
1.0528
1.04982
1.11765
1.17977
0.991807
0.994133
0.995917
0.997972
0.999526
1.00137
1.00287
1.00528
1.00644
1.00935
1.01075
1.01466
1.01611
1.02141
1.02299
1.02849
1.03176
1.03607
1.0403
1.04456
1.04862
1.0527
1.05649
1.06004
1.06306
1.06581
1.06819
1.07037
1.07216
1.07368
1.07489
1.07582
1.07653
1.07694
1.07707
1.07698
1.07666
1.07604
1.07526
1.07411
1.07289
1.07131
1.06938
1.06726
1.06481
1.06204
1.05875
1.05478
1.05351
1.05015
1.08563
1.1342
1.34985
1.68685
0.994024
0.996099
0.998085
0.999639
1.00136
1.00272
1.00421
1.00558
1.00713
1.00884
1.01106
1.01298
1.0163
1.01796
1.02317
1.02494
1.03013
1.03376
1.038
1.04222
1.04636
1.05042
1.05425
1.05789
1.06124
1.06423
1.0668
1.0692
1.07127
1.07303
1.07445
1.0755
1.07626
1.07678
1.07699
1.07697
1.0768
1.07629
1.07563
1.07456
1.07339
1.07184
1.06992
1.06782
1.06537
1.06239
1.05916
1.05519
1.06416
1.08224
1.20622
1.51877
1.7772
1.91937
0.996106
0.998364
0.999961
1.00174
1.00302
1.00428
1.00545
1.00646
1.00772
1.00897
1.01085
1.01219
1.01519
1.01666
1.02092
1.02323
1.0273
1.03154
1.03463
1.03965
1.04366
1.04782
1.05187
1.05568
1.05927
1.06265
1.06556
1.06806
1.07024
1.07211
1.07372
1.07502
1.07602
1.07675
1.07713
1.07726
1.07713
1.07671
1.07607
1.07508
1.07388
1.07233
1.07045
1.06829
1.06594
1.06256
1.05985
1.06483
1.09631
1.24689
1.62935
1.90594
2.01216
2.01873
0.998371
1.00041
1.00237
1.00368
1.00499
1.00598
1.00679
1.0076
1.00838
1.00936
1.0103
1.01201
1.01333
1.01621
1.01789
1.02165
1.0246
1.02759
1.03286
1.03651
1.04069
1.045
1.04923
1.05317
1.05676
1.06022
1.06349
1.06644
1.06898
1.07113
1.07291
1.07436
1.07552
1.07642
1.07696
1.07723
1.07718
1.07682
1.07626
1.07537
1.07416
1.07266
1.07082
1.06886
1.0658
1.06328
1.06613
1.0999
1.25721
1.70627
1.96922
2.04091
2.04289
2.0231
1.00054
1.00267
1.00455
1.00581
1.007
1.00788
1.00835
1.00889
1.00932
1.00962
1.01032
1.01134
1.01244
1.01457
1.01583
1.01981
1.02083
1.02631
1.02862
1.03212
1.03828
1.04145
1.0457
1.0499
1.05388
1.05752
1.06089
1.06411
1.06707
1.06967
1.07185
1.07355
1.07492
1.07596
1.07667
1.07704
1.07716
1.07689
1.07636
1.07561
1.07435
1.07287
1.07116
1.06869
1.06616
1.0669
1.09458
1.24329
1.73151
2.00593
2.06729
2.06461
2.04706
2.0226
1.00215
1.00469
1.00657
1.00808
1.00908
1.00966
1.01012
1.00996
1.01038
1.00999
1.01051
1.01068
1.01145
1.01259
1.01439
1.01588
1.01994
1.02134
1.02749
1.03017
1.03354
1.04033
1.0433
1.0471
1.05098
1.05464
1.05814
1.0614
1.06463
1.06765
1.07034
1.07243
1.07407
1.07533
1.07622
1.07676
1.07701
1.07684
1.07632
1.07557
1.07428
1.07292
1.07105
1.06835
1.06747
1.08604
1.20935
1.70854
2.02287
2.08547
2.08042
2.06551
2.04618
2.02336
1.00422
1.00671
1.00878
1.01031
1.01133
1.01179
1.01221
1.01148
1.01166
1.01074
1.01063
1.01033
1.0109
1.01157
1.01289
1.01569
1.01972
1.02457
1.03071
1.03666
1.04256
1.04531
1.04867
1.05033
1.05144
1.0539
1.05604
1.05873
1.06189
1.06519
1.06831
1.07093
1.07297
1.07453
1.07563
1.07636
1.07671
1.07657
1.07606
1.0752
1.074
1.07259
1.07021
1.06845
1.07766
1.16978
1.62264
2.0234
2.09763
2.09329
2.07975
2.06438
2.04694
2.02797
1.00758
1.00903
1.01073
1.01223
1.01313
1.01358
1.01372
1.01291
1.0128
1.01106
1.01065
1.01089
1.00994
1.01559
1.01484
1.03192
1.0335
1.05714
1.08128
1.11072
1.11804
1.12797
1.10337
1.09143
1.07436
1.06335
1.0603
1.05891
1.06003
1.06271
1.066
1.06906
1.07154
1.07346
1.07484
1.07574
1.07611
1.07602
1.07542
1.07455
1.07339
1.07172
1.06938
1.07222
1.13017
1.49234
1.99639
2.10202
2.10344
2.0915
2.0777
2.06303
2.04664
2.02729
1.01319
1.01326
1.01423
1.0153
1.01585
1.01634
1.01522
1.01543
1.01298
1.01261
1.01246
1.01254
1.02183
1.02562
1.05514
1.08697
1.19182
1.28704
1.40327
1.51308
1.53569
1.50582
1.51981
1.37005
1.21705
1.12385
1.07687
1.0619
1.05861
1.06016
1.06343
1.06685
1.06982
1.0721
1.07372
1.07474
1.07518
1.07506
1.07457
1.07363
1.07238
1.06995
1.06993
1.0998
1.3584
1.92263
2.09826
2.11082
2.10135
2.0883
2.0756
2.06149
2.04478
2.02641
1.02176
1.01834
1.01778
1.0182
1.01857
1.0187
1.01719
1.01711
1.01457
1.01881
1.01493
1.04806
1.04086
1.13786
1.32691
1.52408
1.67996
1.77959
1.86213
1.89666
1.90475
1.8756
1.87979
1.75493
1.67777
1.31643
1.14636
1.08229
1.06233
1.05901
1.06114
1.06466
1.06794
1.07047
1.07236
1.07346
1.07394
1.07381
1.07321
1.0723
1.07052
1.0685
1.08389
1.24999
1.80063
2.08078
2.11507
2.10892
2.09745
2.08544
2.07376
2.05876
2.04342
2.02534
1.03177
1.02379
1.0215
1.02121
1.02132
1.02109
1.01923
1.01973
1.01756
1.04086
1.03938
1.1582
1.42326
1.64218
1.7971
1.88459
1.92856
1.95036
1.95878
1.9655
1.96625
1.95693
1.95794
1.91311
1.85905
1.61133
1.27461
1.11758
1.06864
1.05808
1.0589
1.06231
1.06578
1.0686
1.07061
1.07174
1.07221
1.07206
1.0716
1.07041
1.0676
1.07599
1.17892
1.64107
2.04128
2.11472
2.11398
2.10456
2.09323
2.0838
2.07077
2.05746
2.04239
2.02317
1.03679
1.02745
1.02483
1.02426
1.02427
1.0233
1.02441
1.02569
1.06378
1.11261
1.43513
1.68653
1.85146
1.92944
1.95736
1.9588
1.95424
1.94734
1.94115
1.91152
1.90202
1.90936
1.91768
1.91944
1.89615
1.75906
1.4386
1.17544
1.08105
1.05781
1.05632
1.05984
1.06362
1.06661
1.0687
1.06973
1.07003
1.07007
1.06931
1.06751
1.07296
1.15094
1.53372
1.99529
2.10961
2.11623
2.10891
2.09885
2.09029
2.0795
2.06731
2.05404
2.03925
2.01996
1.03522
1.02873
1.02678
1.02661
1.02665
1.0306
1.04215
1.11901
1.34617
1.6972
1.88445
1.96163
1.98125
1.97521
1.96236
1.93554
1.88759
1.85746
1.80364
1.72646
1.7267
1.75082
1.83915
1.88002
1.8708
1.76143
1.42406
1.1616
1.07294
1.05302
1.05308
1.05713
1.06116
1.06434
1.06599
1.06699
1.06763
1.06723
1.06679
1.07628
1.16738
1.60946
2.01163
2.10845
2.11673
2.11053
2.10194
2.09393
2.08531
2.07459
2.0632
2.05043
2.03586
2.01654
1.02896
1.02739
1.02752
1.02954
1.04401
1.10668
1.30529
1.68998
1.92015
1.9967
2.01004
1.99952
1.98092
1.94972
1.89251
1.79254
1.70439
1.60443
1.46273
1.39735
1.40952
1.45361
1.59637
1.78282
1.84539
1.73339
1.40955
1.14818
1.06017
1.04691
1.04958
1.05452
1.05861
1.06119
1.0631
1.06397
1.06453
1.06607
1.0843
1.19322
1.65152
2.00019
2.10091
2.11459
2.11024
2.10278
2.09485
2.08796
2.07861
2.06921
2.05818
2.04641
2.03226
2.01357
1.02464
1.02765
1.03662
1.0906
1.34384
1.80267
1.99377
2.03589
2.03823
2.0269
2.00731
1.97344
1.91612
1.81753
1.68863
1.48502
1.29273
1.18655
1.14114
1.14263
1.16986
1.28777
1.5553
1.74056
1.76734
1.6199
1.27742
1.08411
1.04438
1.04205
1.04656
1.05145
1.05547
1.05806
1.05938
1.06095
1.06435
1.08809
1.20228
1.658
1.98399
2.09143
2.1092
2.10727
2.10096
2.09436
2.08742
2.08046
2.07204
2.06283
2.05238
2.04079
2.02785
2.01087
1.06972
1.1703
1.45019
1.85221
2.02062
2.05483
2.05753
2.0496
2.03348
2.00505
1.9565
1.87375
1.74051
1.52692
1.24444
1.11889
1.08039
1.06548
1.06893
1.10065
1.17156
1.33703
1.60584
1.73696
1.71902
1.45896
1.12484
1.049
1.03469
1.03779
1.04387
1.04931
1.05216
1.05424
1.05659
1.06319
1.09457
1.20335
1.66866
1.96265
2.08254
2.10142
2.10312
2.0977
2.09228
2.08516
2.07969
2.07159
2.06437
2.05503
2.04524
2.03395
2.02189
2.0079
1.70452
1.87936
2.01022
2.05857
2.06688
2.06456
2.05408
2.03341
1.99711
1.93381
1.82513
1.64932
1.38138
1.13
1.06232
1.05462
1.05777
1.11236
1.16197
1.19819
1.32606
1.52053
1.62577
1.62361
1.51794
1.16627
1.05755
1.02896
1.03043
1.03513
1.04145
1.04463
1.04773
1.05172
1.06171
1.09389
1.19916
1.72754
1.92677
2.07766
2.09123
2.09768
2.09306
2.08843
2.08225
2.07737
2.07006
2.06372
2.05545
2.04732
2.03747
2.027
2.01495
2.00201
2.02545
2.05457
2.06663
2.07021
2.06524
2.05287
2.02792
1.98328
1.90427
1.77181
1.57125
1.27909
1.0901
1.04404
1.04745
1.11502
1.23596
1.31582
1.35832
1.40776
1.48604
1.54332
1.57578
1.53244
1.15221
1.06984
1.02154
1.02318
1.0271
1.03453
1.03852
1.04276
1.04982
1.06155
1.10313
1.2607
1.76593
1.92166
2.06326
2.0824
2.09065
2.08739
2.08342
2.07796
2.07364
2.06712
2.06185
2.05405
2.04704
2.03833
2.02916
2.01875
2.0075
1.99502
2.06
2.06754
2.069
2.06221
2.0471
2.01689
1.96217
1.8695
1.72353
1.5145
1.24515
1.07634
1.03621
1.04446
1.10314
1.21077
1.3128
1.37391
1.40264
1.44191
1.46963
1.46651
1.35996
1.12676
1.05943
1.01406
1.01633
1.01961
1.02621
1.03032
1.03362
1.03881
1.05042
1.11175
1.33924
1.75234
1.93573
2.05181
2.07231
2.08258
2.08029
2.07704
2.07214
2.06832
2.06257
2.05788
2.05087
2.04454
2.03675
2.02888
2.0198
2.00991
1.99911
1.98751
2.06258
2.06201
2.05467
2.03614
1.99968
1.93621
1.83454
1.68577
1.48649
1.2438
1.07904
1.03766
1.03465
1.06348
1.12479
1.20641
1.28661
1.33113
1.35146
1.35839
1.31106
1.21545
1.09935
1.01749
1.02032
1.00771
1.01417
1.02041
1.02574
1.03228
1.04443
1.06721
1.1566
1.38005
1.72028
1.98609
2.02587
2.06839
2.07081
2.07252
2.06911
2.06605
2.06142
2.05776
2.05222
2.04733
2.04053
2.03416
2.0264
2.01851
2.00984
2.00043
1.99023
1.97943
2.05305
2.04349
2.02135
1.9787
1.90835
1.80162
1.65684
1.47537
1.26716
1.09606
1.04246
1.03166
1.03397
1.05057
1.07817
1.11071
1.15714
1.16254
1.16931
1.14387
1.0918
1.05075
1.02122
1.00235
1.00966
1.009
1.0146
1.01903
1.02259
1.02802
1.05047
1.15254
1.41647
1.83291
1.92908
2.04128
2.04654
2.06317
2.06182
2.06162
2.05787
2.05527
2.05054
2.04714
2.04148
2.03664
2.03001
2.02348
2.01585
2.00789
1.99948
1.99057
1.98106
1.97107
2.03199
2.00583
1.95891
1.8827
1.77345
1.63373
1.46944
1.29315
1.12482
1.05352
1.03527
1.02946
1.02898
1.03487
1.04054
1.04743
1.0572
1.0541
1.05312
1.03761
1.02312
1.00544
1.00607
1.00408
1.00877
1.01196
1.01577
1.02854
1.04486
1.08632
1.19334
1.47525
1.84452
1.93946
2.02928
2.04134
2.05319
2.05292
2.05307
2.05008
2.04784
2.04363
2.04056
2.03575
2.03084
2.02521
2.01891
2.01208
2.00463
1.99671
1.98843
1.97996
1.97103
1.96181
1.99553
1.94519
1.86722
1.75631
1.61884
1.46525
1.30908
1.16194
1.07185
1.04273
1.03418
1.02923
1.02664
1.02631
1.02605
1.02383
1.02433
1.01983
1.01728
1.011
1.00693
1.00422
1.00649
1.00758
1.01106
1.01309
1.0254
1.02717
1.06039
1.17359
1.52689
1.86571
1.94189
2.02211
2.03385
2.0445
2.04428
2.04492
2.04232
2.04054
2.03671
2.03343
2.02954
2.02476
2.01963
2.01387
2.00749
2.00061
1.9932
1.98537
1.97714
1.96869
1.96019
1.95151
1.94598
1.86816
1.75978
1.62242
1.47045
1.32226
1.19215
1.09486
1.05383
1.04127
1.03598
1.0315
1.02807
1.02644
1.02328
1.02084
1.01831
1.01439
1.01219
1.00989
1.00877
1.00957
1.01075
1.01353
1.01832
1.02677
1.03634
1.10373
1.22865
1.58143
1.84736
1.95139
2.01529
2.02742
2.03749
2.03675
2.03783
2.03517
2.03364
2.03001
2.02703
2.02321
2.01902
2.01413
2.00875
2.00292
1.99645
1.98953
1.98224
1.97458
1.96655
1.95817
1.94991
1.94159
1.89238
1.78924
1.65644
1.50125
1.34426
1.21067
1.11432
1.05863
1.05276
1.04238
1.03892
1.03485
1.0319
1.03
1.02658
1.02375
1.021
1.01836
1.01715
1.01446
1.01584
1.01505
1.01791
1.02079
1.02561
1.04349
1.11526
1.24712
1.54816
1.88265
1.9267
2.01419
2.02127
2.03237
2.0309
2.03217
2.02921
2.02792
2.02427
2.02151
2.01738
2.01372
2.00858
2.0037
1.99782
1.99177
1.98502
1.97806
1.97075
1.96327
1.95552
1.94773
1.93975
1.93173
1.85838
1.73423
1.57836
1.40869
1.25273
1.12343
1.0815
1.05606
1.05082
1.04569
1.04211
1.03869
1.03615
1.03452
1.03194
1.02992
1.0254
1.02508
1.02125
1.02233
1.0203
1.02218
1.02478
1.03379
1.06381
1.1264
1.24494
1.49908
1.8784
1.92111
2.01113
2.01867
2.02848
2.02836
2.02815
2.02592
2.02362
2.02042
2.01694
2.013
2.00892
2.00416
1.99902
1.99348
1.98746
1.98105
1.97428
1.9672
1.95994
1.95247
1.9448
1.93709
1.92922
1.92152
1.85043
1.71632
1.54783
1.36418
1.1943
1.10355
1.06499
1.06337
1.05282
1.04929
1.0456
1.04245
1.04066
1.03912
1.03614
1.0333
1.03232
1.02762
1.02997
1.02748
1.02979
1.03439
1.04564
1.07194
1.12909
1.24874
1.50652
1.74639
1.9756
1.96693
2.02427
2.02009
2.02954
2.02492
2.02556
2.02054
2.01896
2.01363
2.0106
2.00539
2.00113
1.99539
1.99
1.98374
1.97741
1.97055
1.96348
1.95625
1.94891
1.94143
1.93393
1.92633
1.91873
1.91113
1.85748
1.71972
1.54591
1.35851
1.19156
1.08196
1.07793
1.06118
1.05832
1.05144
1.04894
1.04581
1.04418
1.04257
1.04009
1.03891
1.03516
1.03611
1.0341
1.03467
1.03828
1.04704
1.06994
1.12543
1.23087
1.47539
1.72347
1.94622
1.95584
2.02056
2.02119
2.03139
2.02614
2.027
2.02087
2.01952
2.01351
2.00953
2.00466
1.99943
1.99377
1.98773
1.98135
1.97467
1.9677
1.96048
1.9532
1.94578
1.93842
1.93094
1.92351
1.91588
1.90827
1.90061
1.90405
1.77536
1.60222
1.40564
1.22384
1.08864
1.08459
1.06603
1.06342
1.05544
1.05295
1.04976
1.04864
1.04691
1.04492
1.04342
1.04146
1.04195
1.0431
1.04946
1.06245
1.08717
1.13647
1.23029
1.4677
1.72865
1.96078
1.96729
2.02561
2.01977
2.03584
2.03001
2.03106
2.0247
2.02246
2.01593
2.01114
2.00602
1.99992
1.99385
1.98744
1.98058
1.97365
1.96624
1.95874
1.95096
1.94335
1.93568
1.92818
1.9207
1.9134
1.90606
1.89889
1.8916
1.97308
1.86774
1.71275
1.51651
1.31225
1.1505
1.08105
1.08161
1.06724
1.06219
1.05797
1.05477
1.0531
1.05241
1.05052
1.05015
1.05026
1.05411
1.05841
1.07252
1.09757
1.15367
1.28042
1.52739
1.77861
1.89548
2.00454
1.9964
2.03547
2.02985
2.03958
2.03272
2.03304
2.025
2.02241
2.01458
2.00987
2.00304
1.99647
1.98961
1.9822
1.97457
1.96668
1.95839
1.9501
1.94175
1.93362
1.92571
1.91799
1.91058
1.90307
1.89552
1.888
1.88028
2.04557
1.9783
1.86353
1.69261
1.48824
1.28157
1.14241
1.09176
1.09028
1.0767
1.06991
1.06572
1.064
1.06471
1.06635
1.06998
1.07806
1.09204
1.11882
1.1678
1.26114
1.42315
1.61524
1.80096
1.9205
2.01326
2.00937
2.04303
2.03874
2.04751
2.04186
2.03927
2.03417
2.02821
2.02217
2.01561
2.00912
2.00179
1.99409
1.98613
1.97765
1.96919
1.96022
1.95121
1.94207
1.9331
1.92448
1.91611
1.90838
1.9006
1.89311
1.88529
1.87707
1.86822
2.10043
2.07022
2.01259
1.91257
1.76033
1.57047
1.37676
1.22802
1.13
1.13687
1.11788
1.11231
1.10927
1.11926
1.13764
1.1634
1.20743
1.27755
1.36381
1.47586
1.60635
1.73381
1.86563
1.95967
2.00744
2.04148
2.0378
2.05525
2.05021
2.05389
2.04611
2.04483
2.03601
2.03232
2.02257
2.01754
2.00892
2.00096
1.99231
1.98343
1.97416
1.9645
1.95461
1.94445
1.93436
1.92462
1.91527
1.90683
1.89851
1.89083
1.88264
1.87354
1.86396
1.85416
2.1362
2.1257
2.10143
2.05646
1.98356
1.87675
1.74416
1.60405
1.4919
1.38087
1.37329
1.35162
1.35548
1.39063
1.45668
1.51626
1.57747
1.63482
1.71241
1.78848
1.86488
1.93909
1.99422
2.04444
2.03884
2.06039
2.05585
2.06521
2.05843
2.05949
2.05115
2.04837
2.03908
2.03503
2.02528
2.01949
2.00943
2.00126
1.99158
1.98176
1.97136
1.96046
1.94917
1.93752
1.92647
1.91576
1.90621
1.89697
1.88866
1.88028
1.8722
1.86351
1.85346
1.84227
2.16202
2.16069
2.15385
2.1378
2.11036
2.06834
2.00953
1.93793
1.86414
1.81392
1.76755
1.76054
1.75094
1.77263
1.81127
1.84084
1.86213
1.89592
1.93396
1.97094
2.00283
2.04578
2.04308
2.06606
2.06235
2.07291
2.06796
2.07143
2.06473
2.06344
2.0552
2.05249
2.04255
2.03838
2.02862
2.02161
2.0114
2.00217
1.9916
1.9806
1.96885
1.95659
1.94333
1.93152
1.91815
1.9069
1.89561
1.88419
1.8746
1.86674
1.8583
1.84986
1.8402
1.82847
2.18231
2.18478
2.18418
2.17963
2.16972
2.15502
2.13311
2.10556
2.07191
2.04078
2.02019
2.00335
1.99232
1.99332
2.00308
2.00845
2.01255
2.02439
2.03874
2.05117
2.06138
2.07343
2.07155
2.0802
2.07615
2.08075
2.07563
2.07623
2.06961
2.06803
2.0597
2.05632
2.04662
2.04194
2.03222
2.02402
2.01364
2.00357
1.99191
1.98005
1.96673
1.95216
1.93932
1.9229
1.91021
1.89613
1.88391
1.87245
1.86476
1.85739
1.85117
1.84484
1.8364
1.82366
2.19918
2.20251
2.20527
2.2035
2.1998
2.19256
2.18121
2.16668
2.14958
2.13189
2.11439
2.10075
2.08843
2.082
2.07794
2.07476
2.07323
2.07543
2.07872
2.0818
2.08404
2.08574
2.0858
2.08607
2.0856
2.08475
2.08169
2.07992
2.07334
2.07118
2.0629
2.05933
2.05013
2.04443
2.03484
2.02593
2.01562
2.00457
1.9925
1.97861
1.96397
1.95019
1.93098
1.91607
1.89874
1.88298
1.86726
1.85751
1.84945
1.84249
1.83856
1.83419
1.82765
1.81597
2.21272
2.21867
2.22109
2.22108
2.21888
2.21227
2.20404
2.19163
2.17792
2.16246
2.14744
2.13329
2.12116
2.11161
2.104
2.09844
2.09503
2.09346
2.09252
2.09243
2.09203
2.09185
2.09143
2.09068
2.08983
2.08736
2.08479
2.08147
2.07709
2.07322
2.06687
2.06156
2.05395
2.04755
2.03824
2.02901
2.01837
2.00676
1.99322
1.97825
1.96276
1.94185
1.92531
1.90517
1.88758
1.8685
1.8543
1.84654
1.84061
1.83753
1.83834
1.83877
1.83861
1.83284
2.22572
2.23112
2.23412
2.23449
2.23217
2.22593
2.21704
2.20463
2.18991
2.17457
2.15812
2.14418
2.13135
2.1192
2.11262
2.10491
2.10128
2.0984
2.0967
2.09563
2.0948
2.09422
2.09335
2.09246
2.09099
2.08877
2.08643
2.08316
2.07945
2.07519
2.06997
2.06427
2.05722
2.05068
2.0414
2.03202
2.02095
2.00834
1.9937
1.97776
1.95973
1.93987
1.91716
1.89638
1.8744
1.8561
1.84335
1.83811
1.83741
1.84165
1.84879
1.85706
1.86343
1.86452
1.04594
1.0437
1.04141
1.03891
1.03643
1.03372
1.03106
1.02834
1.02564
1.02297
1.02035
1.01788
1.01553
1.01331
1.01134
1.00961
1.00813
1.00688
1.00596
1.00516
1.04544
1.04219
1.04034
1.03779
1.03512
1.03236
1.02957
1.02688
1.02408
1.02142
1.01887
1.01643
1.01422
1.0122
1.01041
1.00885
1.00765
1.0066
1.00593
1.00545
1.04384
1.04154
1.03894
1.03617
1.03353
1.03063
1.0279
1.02501
1.02226
1.01962
1.01709
1.01475
1.01264
1.01076
1.00919
1.00785
1.00684
1.0061
1.00562
1.00541
1.04264
1.04014
1.03735
1.03454
1.03171
1.0288
1.02584
1.02299
1.02014
1.01749
1.01502
1.01274
1.01075
1.00898
1.00759
1.00648
1.00573
1.00524
1.00501
1.00508
1.04138
1.03848
1.03565
1.03269
1.02963
1.02661
1.02361
1.02059
1.01776
1.01504
1.0126
1.01034
1.00848
1.00688
1.00566
1.0048
1.00424
1.004
1.004
1.00446
1.03976
1.03674
1.03375
1.03052
1.02734
1.02418
1.021
1.01792
1.01498
1.01222
1.00979
1.00762
1.00582
1.00436
1.00334
1.00265
1.00235
1.00235
1.00282
1.0032
1.03798
1.03493
1.03152
1.02817
1.0248
1.02131
1.0181
1.0148
1.01173
1.00895
1.00645
1.00435
1.00264
1.00142
1.00056
1.00011
1.00006
1.00031
1.00098
1.00182
1.03627
1.03276
1.0291
1.02552
1.02178
1.01819
1.01461
1.01123
1.00806
1.00517
1.00268
1.00061
0.999001
0.997934
0.997264
0.997042
0.997052
0.998134
0.998308
1.00032
1.0342
1.03037
1.02645
1.0225
1.01842
1.01453
1.01066
1.00709
1.00374
1.00077
0.998222
0.996176
0.994806
0.993767
0.99333
0.993264
0.994132
0.994419
0.996595
0.997108
1.03198
1.02769
1.02346
1.01901
1.01453
1.01023
1.00602
1.00221
0.998685
0.995592
0.993025
0.991046
0.989781
0.988968
0.988701
0.989297
0.989628
0.991587
0.992709
0.99453
1.02906
1.02494
1.02024
1.01507
1.01042
1.00576
1.00136
0.99725
0.993278
0.989821
0.987075
0.985005
0.983768
0.983243
0.983422
0.98391
0.985734
0.98685
0.989049
0.991156
1.02623
1.02366
1.01809
1.01353
1.01072
1.00705
1.00389
0.99952
0.993706
0.98839
0.983257
0.979779
0.977921
0.97654
0.977413
0.977149
0.98014
0.981958
0.984673
0.9872
1.02463
1.03016
1.01967
1.02964
1.03588
1.03785
1.04345
1.03622
1.0259
1.01452
0.999452
0.986737
0.978388
0.973728
0.971046
0.972162
0.972749
0.976488
0.978657
0.982384
1.02881
1.06477
1.07172
1.1198
1.15673
1.18681
1.21834
1.20602
1.19959
1.14695
1.10384
1.05189
1.01209
0.988271
0.974873
0.967621
0.968494
0.969573
0.973462
0.97636
1.12075
1.18773
1.31466
1.43376
1.52643
1.57728
1.59483
1.57095
1.55617
1.49245
1.4261
1.32641
1.18335
1.07754
1.01238
0.985946
0.968005
0.96466
0.966619
0.970841
1.41141
1.61478
1.73114
1.78821
1.80272
1.78225
1.7571
1.69907
1.685
1.62008
1.61915
1.53944
1.57409
1.33721
1.18029
1.03733
0.996548
0.976043
0.96665
0.964989
1.79904
1.88646
1.90765
1.88213
1.84376
1.79628
1.72058
1.69459
1.60386
1.59376
1.57716
1.57458
1.54854
1.54683
1.44239
1.30416
1.06917
0.989176
0.969826
0.965894
1.97799
1.96229
1.92659
1.87606
1.81349
1.67639
1.60993
1.44291
1.37209
1.35812
1.38033
1.42973
1.49197
1.50583
1.50915
1.43944
1.32432
1.10207
0.997687
0.964366
1.99478
1.96075
1.90901
1.82803
1.70578
1.56353
1.39953
1.28763
1.20943
1.18466
1.17169
1.20082
1.28811
1.41474
1.4695
1.47034
1.41587
1.25619
1.08025
0.999231
1.99356
1.95073
1.88983
1.80312
1.68135
1.52355
1.36466
1.2485
1.17622
1.14438
1.13609
1.1323
1.18286
1.29067
1.40108
1.42841
1.4463
1.34259
1.16712
1.03524
1.99099
1.94771
1.89088
1.80832
1.6898
1.52972
1.36739
1.24768
1.17358
1.13939
1.13254
1.15972
1.22867
1.3011
1.37826
1.40805
1.421
1.3728
1.25013
1.08702
1.99824
1.96801
1.93134
1.87646
1.79949
1.67643
1.51151
1.34931
1.23794
1.17107
1.15545
1.17971
1.27818
1.33851
1.37501
1.39142
1.39935
1.36662
1.24207
1.11122
2.00496
1.97907
1.94348
1.90704
1.84845
1.7988
1.68622
1.554
1.389
1.2473
1.17115
1.14099
1.15629
1.28271
1.34339
1.36128
1.36844
1.31283
1.21415
1.09762
2.00594
1.97893
1.94863
1.91105
1.87154
1.817
1.76688
1.6887
1.5978
1.47091
1.30868
1.1762
1.11057
1.08872
1.18719
1.25094
1.26344
1.25041
1.156
1.07462
2.0042
1.978
1.94707
1.91337
1.87295
1.83144
1.78019
1.72705
1.67213
1.6133
1.54027
1.4391
1.28129
1.10977
1.02399
1.02036
1.05857
1.07144
1.06146
1.02836
2.00235
1.97559
1.94483
1.90906
1.86929
1.82229
1.77568
1.72421
1.67803
1.63449
1.59324
1.55317
1.51062
1.45239
1.32906
1.11598
1.00503
0.987593
0.985771
0.977574
1.99975
1.9718
1.93857
1.8982
1.84822
1.79072
1.72896
1.66585
1.60794
1.56443
1.53725
1.52111
1.51793
1.51635
1.5134
1.48057
1.3323
1.09565
1.00382
0.973633
1.99639
1.96823
1.93305
1.88754
1.82857
1.75331
1.66397
1.572
1.47893
1.39787
1.34234
1.3075
1.31252
1.33872
1.38835
1.45273
1.478
1.43622
1.27261
1.08815
1.99332
1.96528
1.93012
1.88308
1.82043
1.73924
1.63954
1.52428
1.4015
1.28149
1.17423
1.11878
1.05522
1.06849
1.08416
1.14777
1.25376
1.34498
1.35905
1.30906
1.99122
1.96372
1.9284
1.88141
1.81815
1.73416
1.62673
1.50024
1.36374
1.23195
1.12039
1.0182
1.00218
0.967354
0.983377
1.0018
1.04896
1.14081
1.2589
1.3057
1.99027
1.96495
1.9318
1.88583
1.82212
1.73624
1.62705
1.49649
1.35308
1.20801
1.07991
1.01139
0.949256
0.957989
0.955178
0.981543
1.01687
1.08166
1.17196
1.26572
1.9897
1.96866
1.94167
1.90442
1.84882
1.76694
1.654
1.5123
1.35704
1.20821
1.08072
0.98063
0.966755
0.944281
0.956917
0.977866
1.03286
1.10431
1.19666
1.2583
1.98759
1.96923
1.94887
1.92301
1.88696
1.82915
1.73702
1.60146
1.43292
1.25447
1.10073
0.981824
0.968943
0.938695
0.944042
0.952577
1.0007
1.07191
1.16255
1.20063
1.98162
1.96663
1.94871
1.9294
1.90497
1.87186
1.81916
1.7333
1.59145
1.40822
1.21569
1.05797
0.970752
0.946175
0.937501
0.931961
0.937631
0.971826
1.02367
1.05887
1.97516
1.96211
1.94817
1.93115
1.91361
1.89067
1.86025
1.81255
1.73787
1.60983
1.42463
1.21598
1.05676
0.964988
0.941506
0.937856
0.924543
0.922785
0.929189
0.953924
1.96811
1.95642
1.94451
1.93308
1.91836
1.9044
1.8859
1.86067
1.81794
1.75428
1.65257
1.49897
1.28992
1.08832
1.02345
0.926236
0.941614
0.925305
0.918946
0.916486
1.96064
1.94996
1.93919
1.92869
1.91904
1.90811
1.8976
1.88557
1.87099
1.84483
1.80226
1.73116
1.62299
1.46638
1.24879
1.07478
1.00682
0.927705
0.953086
0.923937
1.95228
1.94269
1.93323
1.92395
1.91543
1.90757
1.90033
1.89257
1.8849
1.87576
1.86128
1.83854
1.80187
1.74329
1.65606
1.52879
1.34904
1.18271
1.06809
0.982819
1.94262
1.93396
1.92545
1.91752
1.91019
1.90376
1.8986
1.89444
1.89137
1.88793