/*--------------------------------*- C++ -*----------------------------------*\
  =========                 |
  \\      /  F ield         | OpenFOAM: The Open Source CFD Toolbox
   \\    /   O peration     | Website:  https://openfoam.org
    \\  /    A nd           | Version:  10
     \\/     M anipulation  |
\*---------------------------------------------------------------------------*/
FoamFile
{
    format      ascii;
    class       volVectorField;
    location    "0.501606";
    object      U;
}
// * * * * * * * * * * * * * * * * * * * * * * * * * * * * * * * * * * * * * //

dimensions      [0 1 -1 0 0 0 0];

internalField   nonuniform List<vector> 
15984
(
(0.616781 -0.00984348 0)
(0.611425 -0.0136946 0)
(0.604733 -0.0175685 0)
(0.59687 -0.0210925 0)
(0.587934 -0.0245049 0)
(0.578016 -0.0274889 0)
(0.5673 -0.0301737 0)
(0.555994 -0.0325005 0)
(0.544322 -0.0344824 0)
(0.532512 -0.0361403 0)
(0.520787 -0.037509 0)
(0.509338 -0.0386293 0)
(0.498331 -0.0395453 0)
(0.487885 -0.0403009 0)
(0.478085 -0.0409361 0)
(0.468971 -0.0414882 0)
(0.460558 -0.0419912 0)
(0.452827 -0.0424749 0)
(0.445747 -0.0429645 0)
(0.439264 -0.0434811 0)
(0.433324 -0.044042 0)
(0.427862 -0.0446627 0)
(0.422822 -0.0453565 0)
(0.41815 -0.0461377 0)
(0.413798 -0.0470173 0)
(0.409728 -0.0480057 0)
(0.405909 -0.0491078 0)
(0.40232 -0.0503277 0)
(0.39894 -0.0516676 0)
(0.395756 -0.0531059 0)
(0.392793 -0.0546698 0)
(0.390059 -0.056338 0)
(0.387545 -0.0580563 0)
(0.385255 -0.0598268 0)
(0.383225 -0.0616004 0)
(0.381476 -0.0633576 0)
(0.380032 -0.0650469 0)
(0.378926 -0.0666369 0)
(0.37818 -0.0680755 0)
(0.37783 -0.0693168 0)
(0.377904 -0.0703085 0)
(0.378429 -0.0710066 0)
(0.379437 -0.0713485 0)
(0.380955 -0.0712915 0)
(0.382997 -0.070775 0)
(0.385582 -0.0697445 0)
(0.388721 -0.0681428 0)
(0.392413 -0.0659149 0)
(0.396652 -0.0630089 0)
(0.401422 -0.0593668 0)
(0.406694 -0.0549422 0)
(0.412426 -0.0496959 0)
(0.418566 -0.0435736 0)
(0.425042 -0.0365941 0)
(0.612854 -0.010958 0)
(0.607543 -0.014663 0)
(0.601034 -0.018327 0)
(0.593406 -0.0217651 0)
(0.584749 -0.024946 0)
(0.575215 -0.0277958 0)
(0.56482 -0.0302881 0)
(0.553875 -0.0324034 0)
(0.542542 -0.0341504 0)
(0.531047 -0.0355511 0)
(0.51959 -0.0366423 0)
(0.508368 -0.03747 0)
(0.497534 -0.0380845 0)
(0.487217 -0.0385379 0)
(0.477499 -0.0388784 0)
(0.468433 -0.0391525 0)
(0.460031 -0.0393978 0)
(0.452283 -0.0396506 0)
(0.445158 -0.0399392 0)
(0.43861 -0.0402919 0)
(0.432586 -0.0407279 0)
(0.427027 -0.0412661 0)
(0.421876 -0.0419198 0)
(0.417081 -0.042703 0)
(0.4126 -0.0436275 0)
(0.408396 -0.0447025 0)
(0.404442 -0.0459328 0)
(0.400719 -0.0473222 0)
(0.397218 -0.0488695 0)
(0.393918 -0.0505611 0)
(0.390835 -0.0523901 0)
(0.388017 -0.0543704 0)
(0.385448 -0.0564454 0)
(0.383133 -0.0585921 0)
(0.381108 -0.0607719 0)
(0.379396 -0.0629569 0)
(0.378029 -0.0651013 0)
(0.377041 -0.0671664 0)
(0.376463 -0.0691006 0)
(0.376328 -0.0708537 0)
(0.376669 -0.0723766 0)
(0.377517 -0.0736143 0)
(0.378906 -0.0745083 0)
(0.38086 -0.0750063 0)
(0.383402 -0.0750462 0)
(0.38655 -0.0745666 0)
(0.390312 -0.0735041 0)
(0.39469 -0.0717961 0)
(0.399673 -0.0693771 0)
(0.405244 -0.0661836 0)
(0.41136 -0.0621574 0)
(0.418001 -0.0572459 0)
(0.425053 -0.0513996 0)
(0.432463 -0.0445936 0)
(0.609038 -0.0120199 0)
(0.603875 -0.0156399 0)
(0.597474 -0.019133 0)
(0.590099 -0.0224887 0)
(0.581749 -0.025486 0)
(0.572526 -0.028228 0)
(0.562539 -0.0305539 0)
(0.551978 -0.0324881 0)
(0.541012 -0.0340248 0)
(0.529853 -0.0351906 0)
(0.518687 -0.0360211 0)
(0.507704 -0.036568 0)
(0.497054 -0.0368861 0)
(0.486867 -0.037035 0)
(0.477229 -0.0370728 0)
(0.468194 -0.0370512 0)
(0.459785 -0.0370179 0)
(0.451993 -0.0370137 0)
(0.444793 -0.0370737 0)
(0.438145 -0.0372277 0)
(0.431997 -0.0375025 0)
(0.426298 -0.0379204 0)
(0.420995 -0.038498 0)
(0.416038 -0.039248 0)
(0.411384 -0.0401838 0)
(0.407003 -0.0413136 0)
(0.402871 -0.0426445 0)
(0.398973 -0.0441785 0)
(0.395304 -0.0459138 0)
(0.391857 -0.0478446 0)
(0.388627 -0.0499398 0)
(0.385672 -0.052219 0)
(0.383015 -0.0546525 0)
(0.38064 -0.0571821 0)
(0.378587 -0.0597826 0)
(0.376884 -0.0624208 0)
(0.375564 -0.0650479 0)
(0.374669 -0.0676226 0)
(0.374234 -0.0700958 0)
(0.374293 -0.0724106 0)
(0.374883 -0.074522 0)
(0.376041 -0.076363 0)
(0.3778 -0.0778786 0)
(0.380189 -0.0790074 0)
(0.383233 -0.0796834 0)
(0.386952 -0.079838 0)
(0.391354 -0.0794008 0)
(0.396442 -0.078298 0)
(0.402208 -0.0764527 0)
(0.408625 -0.0737896 0)
(0.415655 -0.0702365 0)
(0.423243 -0.0657216 0)
(0.43131 -0.0602078 0)
(0.439757 -0.0536072 0)
(0.6054 -0.0130149 0)
(0.600262 -0.0165555 0)
(0.594045 -0.0199661 0)
(0.586909 -0.0231861 0)
(0.578876 -0.0261174 0)
(0.57001 -0.028711 0)
(0.560428 -0.0309058 0)
(0.550266 -0.0326847 0)
(0.539701 -0.0340408 0)
(0.528902 -0.0349954 0)
(0.518057 -0.0355873 0)
(0.507336 -0.035868 0)
(0.496888 -0.0358991 0)
(0.486842 -0.0357472 0)
(0.477283 -0.0354753 0)
(0.468275 -0.0351466 0)
(0.459842 -0.034815 0)
(0.451986 -0.0345295 0)
(0.444687 -0.0343327 0)
(0.437907 -0.0342581 0)
(0.431602 -0.0343379 0)
(0.425724 -0.0345972 0)
(0.420225 -0.0350586 0)
(0.41506 -0.0357378 0)
(0.41019 -0.0366479 0)
(0.405587 -0.0378004 0)
(0.40123 -0.0392016 0)
(0.39711 -0.0408549 0)
(0.393227 -0.0427579 0)
(0.389584 -0.0449043 0)
(0.386173 -0.0472721 0)
(0.383037 -0.0498408 0)
(0.380236 -0.0526273 0)
(0.377768 -0.0555567 0)
(0.375643 -0.0585931 0)
(0.373908 -0.0617071 0)
(0.372604 -0.0648488 0)
(0.371766 -0.0679738 0)
(0.371443 -0.0710282 0)
(0.371667 -0.073962 0)
(0.372482 -0.0767152 0)
(0.373932 -0.0792295 0)
(0.376044 -0.0814404 0)
(0.378857 -0.083281 0)
(0.382399 -0.0846797 0)
(0.38669 -0.0855612 0)
(0.391746 -0.0858446 0)
(0.397569 -0.0854434 0)
(0.404153 -0.0842687 0)
(0.411468 -0.0822321 0)
(0.419475 -0.0792421 0)
(0.428107 -0.0752129 0)
(0.437278 -0.0700695 0)
(0.446878 -0.0637427 0)
(0.601867 -0.0139543 0)
(0.596764 -0.0173732 0)
(0.590708 -0.0206964 0)
(0.583817 -0.0238316 0)
(0.5761 -0.026684 0)
(0.567615 -0.0291859 0)
(0.558447 -0.0312798 0)
(0.548722 -0.0329322 0)
(0.538579 -0.0341371 0)
(0.52818 -0.0349088 0)
(0.517684 -0.0352856 0)
(0.507255 -0.0353195 0)
(0.497035 -0.0350766 0)
(0.487142 -0.0346284 0)
(0.477675 -0.0340466 0)
(0.468691 -0.0334005 0)
(0.460229 -0.032754 0)
(0.452294 -0.0321637 0)
(0.444872 -0.0316787 0)
(0.437935 -0.0313429 0)
(0.431441 -0.03119 0)
(0.425347 -0.0312516 0)
(0.419611 -0.0315553 0)
(0.414194 -0.0321228 0)
(0.40906 -0.0329695 0)
(0.404186 -0.0341086 0)
(0.399556 -0.0355488 0)
(0.395164 -0.0372936 0)
(0.391014 -0.0393418 0)
(0.387117 -0.0416857 0)
(0.38348 -0.044311 0)
(0.380119 -0.0471765 0)
(0.377111 -0.0503121 0)
(0.374493 -0.0536463 0)
(0.372257 -0.0571439 0)
(0.370445 -0.060755 0)
(0.369107 -0.0644444 0)
(0.36829 -0.0681594 0)
(0.368038 -0.0718445 0)
(0.368393 -0.0754518 0)
(0.3694 -0.0789121 0)
(0.371107 -0.082172 0)
(0.37355 -0.0851574 0)
(0.376769 -0.0877979 0)
(0.380797 -0.090014 0)
(0.385659 -0.0917229 0)
(0.391377 -0.0928317 0)
(0.397957 -0.0932429 0)
(0.405392 -0.0928522 0)
(0.413659 -0.0915531 0)
(0.422714 -0.0892332 0)
(0.432484 -0.0857857 0)
(0.442876 -0.0811087 0)
(0.453761 -0.0751119 0)
(0.598438 -0.0147239 0)
(0.593366 -0.0180502 0)
(0.587458 -0.0213028 0)
(0.580803 -0.0243737 0)
(0.573408 -0.0271684 0)
(0.565311 -0.0296058 0)
(0.556576 -0.031624 0)
(0.547312 -0.0331805 0)
(0.537624 -0.0342641 0)
(0.527658 -0.0348837 0)
(0.517549 -0.035071 0)
(0.507449 -0.0348818 0)
(0.497483 -0.0343818 0)
(0.487774 -0.0336472 0)
(0.478412 -0.0327564 0)
(0.469466 -0.0317859 0)
(0.460975 -0.0308088 0)
(0.45295 -0.0298897 0)
(0.445389 -0.029087 0)
(0.438267 -0.0284516 0)
(0.431552 -0.028027 0)
(0.425208 -0.02785 0)
(0.419193 -0.0279531 0)
(0.413477 -0.0283645 0)
(0.408032 -0.0291064 0)
(0.402835 -0.0301931 0)
(0.397876 -0.0316362 0)
(0.393155 -0.0334419 0)
(0.388681 -0.0356094 0)
(0.38447 -0.0381323 0)
(0.380545 -0.0409964 0)
(0.376904 -0.0441703 0)
(0.373636 -0.0476448 0)
(0.370803 -0.0514014 0)
(0.368394 -0.05537 0)
(0.366457 -0.0595121 0)
(0.365036 -0.0637805 0)
(0.364188 -0.0681272 0)
(0.363961 -0.0724963 0)
(0.3644 -0.0768326 0)
(0.365558 -0.0810719 0)
(0.367485 -0.0851493 0)
(0.370225 -0.0889943 0)
(0.373823 -0.0925261 0)
(0.378317 -0.0956635 0)
(0.38374 -0.0983089 0)
(0.39012 -0.100362 0)
(0.397471 -0.10171 0)
(0.405793 -0.102233 0)
(0.415065 -0.101802 0)
(0.425247 -0.100282 0)
(0.43626 -0.0975369 0)
(0.448004 -0.0934336 0)
(0.460331 -0.0878532 0)
(0.595098 -0.0152557 0)
(0.590039 -0.0185039 0)
(0.584266 -0.0217033 0)
(0.577845 -0.0247356 0)
(0.570773 -0.0275008 0)
(0.56307 -0.0299055 0)
(0.554793 -0.0318854 0)
(0.546005 -0.0333826 0)
(0.536809 -0.0343803 0)
(0.527308 -0.0348805 0)
(0.517629 -0.0349109 0)
(0.507892 -0.0345241 0)
(0.498222 -0.0337872 0)
(0.488728 -0.0327789 0)
(0.479498 -0.0315817 0)
(0.470605 -0.0302813 0)
(0.46209 -0.0289568 0)
(0.453977 -0.0276847 0)
(0.446266 -0.026532 0)
(0.438944 -0.0255587 0)
(0.431983 -0.0248179 0)
(0.425353 -0.0243556 0)
(0.419023 -0.0242111 0)
(0.412962 -0.0244179 0)
(0.40715 -0.0250052 0)
(0.401574 -0.0259951 0)
(0.396226 -0.027401 0)
(0.391113 -0.0292326 0)
(0.386248 -0.031492 0)
(0.381657 -0.0341731 0)
(0.377369 -0.0372635 0)
(0.373395 -0.0407415 0)
(0.369797 -0.0445607 0)
(0.366674 -0.0487441 0)
(0.364036 -0.0532077 0)
(0.361906 -0.0579051 0)
(0.360343 -0.0627909 0)
(0.359406 -0.0678138 0)
(0.359148 -0.072919 0)
(0.359618 -0.0780469 0)
(0.360877 -0.0831333 0)
(0.362977 -0.08811 0)
(0.365971 -0.0929017 0)
(0.369908 -0.0974267 0)
(0.374836 -0.101592 0)
(0.380802 -0.105296 0)
(0.387837 -0.108424 0)
(0.395968 -0.11085 0)
(0.405204 -0.112436 0)
(0.415535 -0.113027 0)
(0.426923 -0.112462 0)
(0.439296 -0.11057 0)
(0.452541 -0.107179 0)
(0.466496 -0.102129 0)
(0.591876 -0.0155433 0)
(0.586775 -0.0187375 0)
(0.581116 -0.0218932 0)
(0.574914 -0.0249042 0)
(0.568164 -0.0276609 0)
(0.560864 -0.0300562 0)
(0.553049 -0.032029 0)
(0.544773 -0.0335032 0)
(0.536093 -0.0344498 0)
(0.527102 -0.0348711 0)
(0.517892 -0.0347781 0)
(0.508569 -0.0342243 0)
(0.499237 -0.033273 0)
(0.489997 -0.0320043 0)
(0.480935 -0.0305049 0)
(0.472121 -0.0288689 0)
(0.463602 -0.0271818 0)
(0.455408 -0.0255301 0)
(0.447544 -0.0239922 0)
(0.440008 -0.0226389 0)
(0.432777 -0.0215329 0)
(0.425831 -0.0207319 0)
(0.419142 -0.0202848 0)
(0.412689 -0.0202338 0)
(0.406456 -0.0206137 0)
(0.400437 -0.0214552 0)
(0.394634 -0.0227796 0)
(0.389058 -0.0245987 0)
(0.383731 -0.0269184 0)
(0.378685 -0.0297356 0)
(0.373956 -0.033038 0)
(0.369575 -0.0368051 0)
(0.365586 -0.0409915 0)
(0.362088 -0.0456003 0)
(0.359141 -0.0505805 0)
(0.356754 -0.0558639 0)
(0.35498 -0.0614047 0)
(0.353887 -0.067151 0)
(0.353532 -0.0730461 0)
(0.353972 -0.079029 0)
(0.355271 -0.0850351 0)
(0.357486 -0.0909938 0)
(0.360679 -0.0968261 0)
(0.364907 -0.102448 0)
(0.370232 -0.107759 0)
(0.376704 -0.112651 0)
(0.384376 -0.117 0)
(0.393284 -0.120663 0)
(0.403455 -0.123482 0)
(0.414894 -0.125278 0)
(0.427571 -0.125855 0)
(0.441423 -0.125003 0)
(0.456329 -0.122497 0)
(0.472117 -0.118127 0)
(0.588663 -0.0154955 0)
(0.583561 -0.0186441 0)
(0.578003 -0.0217774 0)
(0.572003 -0.0247903 0)
(0.565566 -0.0276076 0)
(0.558665 -0.0299899 0)
(0.551323 -0.0320561 0)
(0.543579 -0.0335104 0)
(0.535447 -0.0344512 0)
(0.527003 -0.0348377 0)
(0.518313 -0.0346578 0)
(0.509452 -0.0339721 0)
(0.50051 -0.0328301 0)
(0.491576 -0.0313177 0)
(0.482725 -0.0295196 0)
(0.474026 -0.0275457 0)
(0.465533 -0.0254777 0)
(0.457271 -0.0234174 0)
(0.449262 -0.0214542 0)
(0.441502 -0.0196704 0)
(0.433984 -0.0181433 0)
(0.426688 -0.0169422 0)
(0.4196 -0.0161283 0)
(0.412704 -0.0157556 0)
(0.405992 -0.0158696 0)
(0.399464 -0.0165072 0)
(0.393132 -0.0176985 0)
(0.387016 -0.0194629 0)
(0.381147 -0.0218091 0)
(0.375563 -0.0247369 0)
(0.370311 -0.0282357 0)
(0.365433 -0.0322838 0)
(0.36097 -0.0368444 0)
(0.357024 -0.0418991 0)
(0.35368 -0.0474056 0)
(0.350955 -0.0533097 0)
(0.348895 -0.059545 0)
(0.347572 -0.0660619 0)
(0.347048 -0.0728033 0)
(0.347386 -0.0797061 0)
(0.348653 -0.0867057 0)
(0.350917 -0.0937299 0)
(0.354244 -0.1007 0)
(0.358703 -0.107525 0)
(0.364365 -0.114107 0)
(0.371298 -0.120328 0)
(0.37957 -0.126054 0)
(0.38924 -0.131131 0)
(0.400355 -0.135379 0)
(0.412937 -0.138593 0)
(0.426978 -0.140537 0)
(0.442425 -0.140953 0)
(0.459148 -0.139548 0)
(0.476956 -0.136054 0)
(0.585601 -0.0150711 0)
(0.580383 -0.018246 0)
(0.57489 -0.0213345 0)
(0.569037 -0.0244562 0)
(0.562935 -0.0272352 0)
(0.556415 -0.0297842 0)
(0.549543 -0.0318048 0)
(0.54241 -0.0334456 0)
(0.534818 -0.0343533 0)
(0.526965 -0.0348025 0)
(0.518847 -0.0345384 0)
(0.510504 -0.0337516 0)
(0.502017 -0.0324527 0)
(0.493449 -0.0307148 0)
(0.484862 -0.0286241 0)
(0.476327 -0.0263113 0)
(0.467899 -0.0238433 0)
(0.4596 -0.0213425 0)
(0.451456 -0.0189075 0)
(0.443476 -0.0166367 0)
(0.435654 -0.0146234 0)
(0.427984 -0.0129521 0)
(0.420455 -0.0116991 0)
(0.413063 -0.0109322 0)
(0.40581 -0.0107097 0)
(0.398703 -0.0110797 0)
(0.391763 -0.0120801 0)
(0.385021 -0.0137393 0)
(0.378519 -0.0160727 0)
(0.372305 -0.0190835 0)
(0.366435 -0.0227624 0)
(0.360966 -0.0270892 0)
(0.355937 -0.0320275 0)
(0.351457 -0.037541 0)
(0.347621 -0.0436046 0)
(0.344464 -0.0501573 0)
(0.342037 -0.0571292 0)
(0.3404 -0.0644659 0)
(0.339627 -0.0721108 0)
(0.339783 -0.0799986 0)
(0.34094 -0.0880659 0)
(0.343173 -0.0962406 0)
(0.346556 -0.104443 0)
(0.351168 -0.112585 0)
(0.357096 -0.120563 0)
(0.364427 -0.128262 0)
(0.373247 -0.135537 0)
(0.38364 -0.142224 0)
(0.395684 -0.148125 0)
(0.409425 -0.152998 0)
(0.424878 -0.156561 0)
(0.441993 -0.15852 0)
(0.46062 -0.158436 0)
(0.480554 -0.156074 0)
(0.582484 -0.0142966 0)
(0.577207 -0.0173907 0)
(0.571745 -0.0206003 0)
(0.56608 -0.0237272 0)
(0.560254 -0.0266425 0)
(0.554125 -0.0292851 0)
(0.547726 -0.031491 0)
(0.541107 -0.0331485 0)
(0.534196 -0.0342907 0)
(0.526942 -0.0346484 0)
(0.519509 -0.034464 0)
(0.5117 -0.0336514 0)
(0.50373 -0.032192 0)
(0.4956 -0.0302778 0)
(0.487337 -0.0278236 0)
(0.479022 -0.0252331 0)
(0.470719 -0.022272 0)
(0.462422 -0.0192852 0)
(0.454175 -0.0163314 0)
(0.445984 -0.0135122 0)
(0.437853 -0.0109402 0)
(0.429784 -0.00871979 0)
(0.421777 -0.00694614 0)
(0.413837 -0.0057052 0)
(0.405975 -0.0050713 0)
(0.39821 -0.005105 0)
(0.390575 -0.00585389 0)
(0.383112 -0.00735241 0)
(0.375873 -0.00962372 0)
(0.368922 -0.0126792 0)
(0.362327 -0.0165169 0)
(0.356157 -0.0211167 0)
(0.350468 -0.0264404 0)
(0.345353 -0.0324324 0)
(0.340924 -0.0390843 0)
(0.337243 -0.0463174 0)
(0.334353 -0.0540696 0)
(0.332315 -0.0622774 0)
(0.331205 -0.0708835 0)
(0.331091 -0.079822 0)
(0.33205 -0.0890306 0)
(0.334162 -0.098439 0)
(0.33751 -0.107971 0)
(0.342186 -0.117539 0)
(0.34829 -0.127045 0)
(0.355926 -0.136372 0)
(0.365215 -0.145378 0)
(0.376267 -0.153889 0)
(0.389201 -0.161691 0)
(0.40408 -0.168499 0)
(0.420904 -0.173983 0)
(0.439668 -0.177705 0)
(0.460077 -0.179225 0)
(0.481952 -0.178051 0)
(0.579525 -0.0130217 0)
(0.574024 -0.0160616 0)
(0.568537 -0.0193804 0)
(0.563017 -0.0225717 0)
(0.55743 -0.0257501 0)
(0.551648 -0.0285403 0)
(0.545781 -0.0309739 0)
(0.539742 -0.0327636 0)
(0.533472 -0.034089 0)
(0.526958 -0.0345295 0)
(0.520046 -0.0344931 0)
(0.512985 -0.0335763 0)
(0.505634 -0.032107 0)
(0.498053 -0.0299046 0)
(0.490174 -0.0273016 0)
(0.482142 -0.0241565 0)
(0.474106 -0.0208823 0)
(0.46579 -0.0172998 0)
(0.457467 -0.0137484 0)
(0.449089 -0.0103002 0)
(0.440651 -0.00708071 0)
(0.432164 -0.0042179 0)
(0.423639 -0.00182927 0)
(0.415094 -1.51262e-05 0)
(0.406552 0.00112989 0)
(0.398044 0.00152322 0)
(0.389616 0.00109926 0)
(0.381326 -0.000191808 0)
(0.373243 -0.00238551 0)
(0.365439 -0.00547429 0)
(0.357992 -0.00943918 0)
(0.350996 -0.0142834 0)
(0.344531 -0.0199845 0)
(0.338673 -0.026481 0)
(0.333546 -0.0337443 0)
(0.32924 -0.0416993 0)
(0.32579 -0.0502766 0)
(0.323257 -0.0594071 0)
(0.321718 -0.0690319 0)
(0.321241 -0.0790849 0)
(0.321905 -0.0895056 0)
(0.323796 -0.100228 0)
(0.327007 -0.111181 0)
(0.331639 -0.122284 0)
(0.337805 -0.133446 0)
(0.345639 -0.144554 0)
(0.355284 -0.155476 0)
(0.366888 -0.166029 0)
(0.3806 -0.175988 0)
(0.396482 -0.184994 0)
(0.414553 -0.192677 0)
(0.434629 -0.198314 0)
(0.456389 -0.20158 0)
(0.479533 -0.201677 0)
(0.576525 -0.0111466 0)
(0.570825 -0.0143237 0)
(0.565248 -0.0176812 0)
(0.55977 -0.0211388 0)
(0.554371 -0.0244761 0)
(0.549026 -0.0275856 0)
(0.543639 -0.0301715 0)
(0.538168 -0.0323672 0)
(0.532614 -0.0337336 0)
(0.52676 -0.0345801 0)
(0.520693 -0.0344869 0)
(0.514355 -0.0336872 0)
(0.507665 -0.0320662 0)
(0.500704 -0.029805 0)
(0.493372 -0.0268827 0)
(0.485734 -0.02333 0)
(0.477862 -0.0195551 0)
(0.469826 -0.0154286 0)
(0.461422 -0.0112004 0)
(0.452878 -0.00702185 0)
(0.444141 -0.00304601 0)
(0.435225 0.00057924 0)
(0.426151 0.0037129 0)
(0.416943 0.00621874 0)
(0.407641 0.00798369 0)
(0.398294 0.00891003 0)
(0.388961 0.00891458 0)
(0.379716 0.0079337 0)
(0.370641 0.00592938 0)
(0.361838 0.00286015 0)
(0.353427 -0.00129355 0)
(0.345493 -0.00645467 0)
(0.338112 -0.0125532 0)
(0.331388 -0.0195758 0)
(0.32545 -0.0274839 0)
(0.320405 -0.0362058 0)
(0.316293 -0.0456603 0)
(0.313166 -0.0557681 0)
(0.311098 -0.0664686 0)
(0.310161 -0.0776988 0)
(0.310428 -0.0893975 0)
(0.311992 -0.101507 0)
(0.31495 -0.113965 0)
(0.319413 -0.126702 0)
(0.325511 -0.139638 0)
(0.333401 -0.152676 0)
(0.343255 -0.165696 0)
(0.355247 -0.178494 0)
(0.369545 -0.190854 0)
(0.386123 -0.202206 0)
(0.404964 -0.212192 0)
(0.425553 -0.219672 0)
(0.447294 -0.224682 0)
(0.47014 -0.225639 0)
(0.573514 -0.00866114 0)
(0.567498 -0.0119532 0)
(0.561776 -0.0155298 0)
(0.556311 -0.0192328 0)
(0.551114 -0.0228786 0)
(0.546103 -0.0262895 0)
(0.541188 -0.0293162 0)
(0.536382 -0.0317591 0)
(0.531491 -0.0335418 0)
(0.526458 -0.0345577 0)
(0.52121 -0.0346971 0)
(0.515695 -0.0339905 0)
(0.509816 -0.0323819 0)
(0.503554 -0.0299355 0)
(0.496944 -0.0267386 0)
(0.489769 -0.0228475 0)
(0.482287 -0.0184368 0)
(0.474404 -0.0136476 0)
(0.466112 -0.00865818 0)
(0.45746 -0.00364812 0)
(0.448444 0.0012052 0)
(0.439086 0.00572027 0)
(0.429415 0.00971934 0)
(0.419479 0.0130452 0)
(0.409328 0.0155525 0)
(0.399028 0.0171141 0)
(0.388661 0.017625 0)
(0.378324 0.0170053 0)
(0.368127 0.0152019 0)
(0.35819 0.012192 0)
(0.348628 0.0079848 0)
(0.339579 0.0025682 0)
(0.331197 -0.00403701 0)
(0.323478 -0.0116267 0)
(0.316597 -0.0202026 0)
(0.310691 -0.0297373 0)
(0.305807 -0.0401222 0)
(0.301987 -0.0512659 0)
(0.299291 -0.0630997 0)
(0.297791 -0.075566 0)
(0.297557 -0.0886034 0)
(0.298678 -0.102165 0)
(0.301256 -0.1162 0)
(0.305411 -0.130657 0)
(0.311286 -0.145476 0)
(0.319059 -0.16058 0)
(0.328935 -0.175855 0)
(0.341052 -0.191072 0)
(0.355594 -0.205907 0)
(0.372242 -0.21953 0)
(0.390822 -0.231633 0)
(0.41003 -0.240251 0)
(0.429516 -0.246261 0)
(0.448525 -0.247227 0)
(0.57043 -0.00546561 0)
(0.564004 -0.00893838 0)
(0.558055 -0.0127911 0)
(0.552549 -0.0168445 0)
(0.547475 -0.0209013 0)
(0.542778 -0.024778 0)
(0.538384 -0.0282577 0)
(0.534177 -0.0311464 0)
(0.530072 -0.0333855 0)
(0.525879 -0.0347266 0)
(0.521554 -0.0351681 0)
(0.516974 -0.0346004 0)
(0.512036 -0.0330317 0)
(0.506655 -0.0304443 0)
(0.500767 -0.0269386 0)
(0.494328 -0.022693 0)
(0.487332 -0.0176035 0)
(0.479849 -0.0120798 0)
(0.471639 -0.0062076 0)
(0.462925 -0.000226579 0)
(0.453664 0.00565453 0)
(0.443864 0.011215 0)
(0.433571 0.0162489 0)
(0.422842 0.0205566 0)
(0.411745 0.0239577 0)
(0.400371 0.0262956 0)
(0.388827 0.0274397 0)
(0.377237 0.0272867 0)
(0.365739 0.0257656 0)
(0.354482 0.0228402 0)
(0.343619 0.0185102 0)
(0.333301 0.0128161 0)
(0.323644 0.00582953 0)
(0.314874 -0.0024877 0)
(0.306944 -0.0118216 0)
(0.30004 -0.0222062 0)
(0.294274 -0.0335749 0)
(0.289662 -0.0458145 0)
(0.286243 -0.0588408 0)
(0.284082 -0.0725958 0)
(0.283239 -0.0870239 0)
(0.283799 -0.102089 0)
(0.285861 -0.117758 0)
(0.289551 -0.134001 0)
(0.295026 -0.150788 0)
(0.302479 -0.168066 0)
(0.312118 -0.185705 0)
(0.324013 -0.203392 0)
(0.338208 -0.220538 0)
(0.353595 -0.235939 0)
(0.370076 -0.249294 0)
(0.38509 -0.258036 0)
(0.39822 -0.261371 0)
(0.411355 -0.261776 0)
(0.567201 -0.00144473 0)
(0.560251 -0.00519643 0)
(0.553983 -0.00943068 0)
(0.548354 -0.0139584 0)
(0.543366 -0.0185568 0)
(0.53896 -0.0230061 0)
(0.53505 -0.0270775 0)
(0.531505 -0.0305754 0)
(0.528178 -0.0333259 0)
(0.524961 -0.0351463 0)
(0.521631 -0.0359326 0)
(0.518135 -0.0356146 0)
(0.514276 -0.034123 0)
(0.509941 -0.0314761 0)
(0.504989 -0.0276937 0)
(0.499373 -0.022884 0)
(0.49314 -0.0171844 0)
(0.486009 -0.0108135 0)
(0.478135 -0.00393157 0)
(0.469454 0.00318141 0)
(0.459981 0.0102678 0)
(0.449743 0.0170744 0)
(0.438787 0.0233422 0)
(0.427188 0.0288252 0)
(0.415039 0.0333039 0)
(0.402453 0.0365829 0)
(0.389566 0.0384966 0)
(0.376533 0.038914 0)
(0.363532 0.0377454 0)
(0.350749 0.0349463 0)
(0.338376 0.0305171 0)
(0.326596 0.0245004 0)
(0.315576 0.0169783 0)
(0.305419 0.00808442 0)
(0.296404 -0.0021933 0)
(0.288418 -0.0135346 0)
(0.28164 -0.0259398 0)
(0.276133 -0.0393347 0)
(0.271901 -0.0536118 0)
(0.268987 -0.0687039 0)
(0.267436 -0.0845623 0)
(0.267315 -0.101164 0)
(0.268723 -0.118501 0)
(0.271783 -0.136572 0)
(0.276659 -0.155378 0)
(0.283545 -0.17488 0)
(0.292607 -0.194883 0)
(0.303665 -0.214764 0)
(0.316388 -0.233649 0)
(0.328388 -0.249628 0)
(0.339328 -0.261668 0)
(0.347843 -0.268813 0)
(0.350075 -0.265328 0)
(0.352469 -0.265004 0)
(0.563716 0.00352459 0)
(0.55611 -0.00062035 0)
(0.549416 -0.00537993 0)
(0.543586 -0.0105272 0)
(0.538623 -0.0158181 0)
(0.534478 -0.0209991 0)
(0.531055 -0.025822 0)
(0.528181 -0.0300542 0)
(0.525766 -0.0334792 0)
(0.523545 -0.0358874 0)
(0.521366 -0.0371835 0)
(0.519062 -0.0371522 0)
(0.516448 -0.0358509 0)
(0.513344 -0.033138 0)
(0.5096 -0.0291085 0)
(0.505041 -0.0237803 0)
(0.49958 -0.0173084 0)
(0.493244 -0.00997903 0)
(0.485731 -0.00188378 0)
(0.477188 0.00655706 0)
(0.46758 0.0150731 0)
(0.456926 0.0233521 0)
(0.445277 0.031081 0)
(0.432726 0.0379665 0)
(0.419392 0.0437366 0)
(0.405421 0.0481457 0)
(0.390985 0.0509877 0)
(0.376282 0.0520976 0)
(0.361535 0.0513618 0)
(0.34698 0.0487226 0)
(0.332856 0.0441849 0)
(0.319394 0.0378081 0)
(0.306795 0.0296989 0)
(0.295228 0.0200015 0)
(0.284743 0.00889694 0)
(0.275694 -0.00361231 0)
(0.267841 -0.0171521 0)
(0.26134 -0.03176 0)
(0.256217 -0.0473408 0)
(0.252473 -0.0638104 0)
(0.250123 -0.081128 0)
(0.249212 -0.099281 0)
(0.249827 -0.118292 0)
(0.252085 -0.138197 0)
(0.256148 -0.159028 0)
(0.26217 -0.180711 0)
(0.270211 -0.202809 0)
(0.279379 -0.224214 0)
(0.2886 -0.243078 0)
(0.294619 -0.257766 0)
(0.295551 -0.263674 0)
(0.29505 -0.266623 0)
(0.286156 -0.267555 0)
(0.274869 -0.266342 0)
(0.559831 0.00956866 0)
(0.55142 0.00489436 0)
(0.544177 -0.000546168 0)
(0.538062 -0.00650087 0)
(0.533073 -0.012669 0)
(0.529159 -0.0187733 0)
(0.526216 -0.0245296 0)
(0.524082 -0.0296773 0)
(0.522583 -0.0339246 0)
(0.521501 -0.0371374 0)
(0.520605 -0.0389906 0)
(0.519702 -0.0394942 0)
(0.518503 -0.0383357 0)
(0.516873 -0.0357243 0)
(0.514495 -0.0313244 0)
(0.511279 -0.02558 0)
(0.507002 -0.0181472 0)
(0.501445 -0.00967549 0)
(0.494629 -0.000235105 0)
(0.486319 0.00977852 0)
(0.476634 0.0199715 0)
(0.465562 0.0300145 0)
(0.45317 0.039502 0)
(0.439572 0.0480793 0)
(0.424912 0.0554078 0)
(0.40937 0.061182 0)
(0.393161 0.0651428 0)
(0.376533 0.0670864 0)
(0.359766 0.0668714 0)
(0.343159 0.0644245 0)
(0.327015 0.0597548 0)
(0.311622 0.0529452 0)
(0.297229 0.044143 0)
(0.284033 0.0335383 0)
(0.272138 0.0213318 0)
(0.261628 0.00775775 0)
(0.252785 -0.00716053 0)
(0.245233 -0.0230551 0)
(0.239151 -0.0399914 0)
(0.234514 -0.0578703 0)
(0.231292 -0.0766516 0)
(0.229496 -0.096342 0)
(0.229189 -0.117001 0)
(0.230475 -0.138705 0)
(0.233494 -0.161492 0)
(0.238307 -0.185119 0)
(0.244498 -0.208664 0)
(0.250313 -0.230135 0)
(0.252577 -0.246319 0)
(0.249984 -0.254768 0)
(0.238326 -0.256214 0)
(0.221898 -0.256967 0)
(0.213225 -0.262484 0)
(0.211059 -0.264908 0)
(0.555271 0.0168443 0)
(0.545917 0.0114556 0)
(0.538006 0.00513288 0)
(0.53152 -0.00184059 0)
(0.526457 -0.00911765 0)
(0.522757 -0.0163702 0)
(0.520313 -0.0232797 0)
(0.518959 -0.0295382 0)
(0.518489 -0.0348474 0)
(0.51866 -0.0389495 0)
(0.519185 -0.041629 0)
(0.519866 -0.0426732 0)
(0.520339 -0.0419726 0)
(0.520404 -0.039302 0)
(0.519729 -0.0348197 0)
(0.518077 -0.0282306 0)
(0.515227 -0.0200805 0)
(0.510778 -0.0101102 0)
(0.504687 0.000919333 0)
(0.496819 0.012732 0)
(0.487165 0.0249939 0)
(0.475735 0.0371106 0)
(0.462564 0.0486844 0)
(0.447817 0.0592702 0)
(0.431664 0.0684554 0)
(0.414329 0.0758678 0)
(0.39608 0.081185 0)
(0.377227 0.0841447 0)
(0.358117 0.0845596 0)
(0.339131 0.0823354 0)
(0.320661 0.0774851 0)
(0.30307 0.0701335 0)
(0.286669 0.0604866 0)
(0.271683 0.0488015 0)
(0.258259 0.0353491 0)
(0.246374 0.020433 0)
(0.236293 0.00412894 0)
(0.227817 -0.0132318 0)
(0.220707 -0.0315436 0)
(0.21512 -0.0508387 0)
(0.210972 -0.0710694 0)
(0.208213 -0.092259 0)
(0.206867 -0.114505 0)
(0.20702 -0.137922 0)
(0.208751 -0.162458 0)
(0.211772 -0.187488 0)
(0.214751 -0.211161 0)
(0.214457 -0.229964 0)
(0.2072 -0.23977 0)
(0.19027 -0.241199 0)
(0.170198 -0.242208 0)
(0.157234 -0.245153 0)
(0.152683 -0.250912 0)
(0.153369 -0.260019 0)
(0.549465 0.025477 0)
(0.539091 0.0191687 0)
(0.53046 0.0117274 0)
(0.523548 0.00349221 0)
(0.518417 -0.00515858 0)
(0.514951 -0.0138183 0)
(0.513055 -0.0221289 0)
(0.512554 -0.0297393 0)
(0.513227 -0.0363275 0)
(0.514775 -0.0415705 0)
(0.516917 -0.0452256 0)
(0.519347 -0.0470267 0)
(0.52176 -0.0468275 0)
(0.52375 -0.0443141 0)
(0.525015 -0.0395957 0)
(0.525139 -0.0323372 0)
(0.523837 -0.0230865 0)
(0.520765 -0.0116093 0)
(0.515506 0.00124159 0)
(0.508231 0.0153983 0)
(0.498707 0.0300242 0)
(0.486849 0.0445894 0)
(0.472866 0.0587514 0)
(0.456859 0.0717822 0)
(0.439051 0.0832075 0)
(0.419723 0.0925693 0)
(0.399199 0.0994842 0)
(0.37785 0.103631 0)
(0.356103 0.104768 0)
(0.334437 0.102771 0)
(0.313356 0.0976569 0)
(0.293327 0.0896 0)
(0.274729 0.0788891 0)
(0.257827 0.0658858 0)
(0.24278 0.0509602 0)
(0.229577 0.0344654 0)
(0.218092 0.016741 0)
(0.208769 -0.00224022 0)
(0.200764 -0.0220076 0)
(0.194255 -0.0427257 0)
(0.189186 -0.0643699 0)
(0.185429 -0.0869841 0)
(0.182963 -0.110713 0)
(0.181839 -0.135663 0)
(0.181925 -0.161501 0)
(0.182129 -0.186813 0)
(0.179678 -0.208138 0)
(0.169537 -0.220103 0)
(0.148353 -0.22114 0)
(0.125725 -0.220679 0)
(0.110402 -0.224534 0)
(0.102351 -0.232394 0)
(0.0988464 -0.244688 0)
(0.0981931 -0.259348 0)
(0.541236 0.0354641 0)
(0.52995 0.0280146 0)
(0.520685 0.0191998 0)
(0.513458 0.00941642 0)
(0.508331 -0.000877567 0)
(0.505218 -0.011222 0)
(0.503997 -0.0212055 0)
(0.504477 -0.0304637 0)
(0.506437 -0.0385418 0)
(0.509558 -0.0451568 0)
(0.513479 -0.0499865 0)
(0.517866 -0.0527466 0)
(0.522336 -0.0531421 0)
(0.52638 -0.050927 0)
(0.529627 -0.0458703 0)
(0.531469 -0.038025 0)
(0.531629 -0.0273083 0)
(0.529669 -0.0141995 0)
(0.525405 0.000952895 0)
(0.518641 0.0174159 0)
(0.50899 0.0349083 0)
(0.496886 0.0524229 0)
(0.482144 0.0693706 0)
(0.464795 0.0853258 0)
(0.44527 0.0994972 0)
(0.423867 0.111262 0)
(0.400972 0.120156 0)
(0.377013 0.125759 0)
(0.352492 0.127763 0)
(0.327997 0.125998 0)
(0.304166 0.120502 0)
(0.281592 0.111522 0)
(0.260753 0.0994678 0)
(0.241956 0.0848416 0)
(0.225354 0.0681547 0)
(0.210921 0.0498657 0)
(0.198468 0.0303768 0)
(0.188063 0.00983957 0)
(0.179495 -0.0115459 0)
(0.172062 -0.0336056 0)
(0.166051 -0.0565561 0)
(0.161276 -0.0804774 0)
(0.157636 -0.105527 0)
(0.155087 -0.13167 0)
(0.152887 -0.157949 0)
(0.148458 -0.181458 0)
(0.137328 -0.196143 0)
(0.113985 -0.197447 0)
(0.0878948 -0.195283 0)
(0.0698578 -0.198364 0)
(0.0588844 -0.208366 0)
(0.0520045 -0.223746 0)
(0.04751 -0.241513 0)
(0.0445276 -0.259113 0)
(0.528301 0.0465399 0)
(0.51663 0.0377672 0)
(0.507167 0.027344 0)
(0.499995 0.0157452 0)
(0.495193 0.00352832 0)
(0.492746 -0.00879072 0)
(0.492412 -0.0207742 0)
(0.494135 -0.0319019 0)
(0.49764 -0.0417218 0)
(0.502488 -0.0499133 0)
(0.508332 -0.0560936 0)
(0.514709 -0.0599272 0)
(0.521135 -0.0610136 0)
(0.526994 -0.0589945 0)
(0.531664 -0.0535739 0)
(0.534661 -0.0448496 0)
(0.535582 -0.0326805 0)
(0.534039 -0.0174499 0)
(0.529846 0.000170881 0)
(0.523163 0.0194135 0)
(0.513574 0.0400049 0)
(0.500744 0.0611241 0)
(0.485342 0.0816267 0)
(0.467228 0.100603 0)
(0.44638 0.117771 0)
(0.423297 0.132067 0)
(0.398405 0.143176 0)
(0.372136 0.150495 0)
(0.345068 0.153532 0)
(0.317918 0.152019 0)
(0.291505 0.145999 0)
(0.266581 0.135837 0)
(0.243727 0.122109 0)
(0.223294 0.105507 0)
(0.205422 0.0867284 0)
(0.190032 0.066382 0)
(0.176869 0.0449518 0)
(0.16561 0.0227652 0)
(0.156561 -0.00019164 0)
(0.148507 -0.0235657 0)
(0.141651 -0.047701 0)
(0.135917 -0.0727598 0)
(0.1311 -0.0988509 0)
(0.126808 -0.125558 0)
(0.12101 -0.150619 0)
(0.109341 -0.168467 0)
(0.0865468 -0.17074 0)
(0.0562829 -0.167806 0)
(0.0349332 -0.169893 0)
(0.0218879 -0.180366 0)
(0.0122734 -0.19774 0)
(0.00497372 -0.217541 0)
(-0.00126989 -0.237227 0)
(-0.00710687 -0.255768 0)
(0.507408 0.0578179 0)
(0.496413 0.0476788 0)
(0.487653 0.0355214 0)
(0.481316 0.0219388 0)
(0.477534 0.00758092 0)
(0.47624 -0.00694394 0)
(0.477288 -0.0211582 0)
(0.480666 -0.0343437 0)
(0.485988 -0.0461241 0)
(0.492783 -0.0560529 0)
(0.500508 -0.0636057 0)
(0.50854 -0.0684841 0)
(0.51625 -0.0700298 0)
(0.522839 -0.0678312 0)
(0.527579 -0.0617946 0)
(0.529999 -0.0515015 0)
(0.530133 -0.038103 0)
(0.527336 -0.0201952 0)
(0.522068 -0.00105427 0)
(0.514393 0.0207162 0)
(0.504205 0.0440516 0)
(0.491289 0.0686683 0)
(0.475166 0.0926591 0)
(0.456512 0.11588 0)
(0.435461 0.137346 0)
(0.411969 0.154419 0)
(0.386571 0.168015 0)
(0.359257 0.177274 0)
(0.33063 0.181584 0)
(0.301614 0.180407 0)
(0.273303 0.173758 0)
(0.246676 0.162146 0)
(0.222438 0.146391 0)
(0.200981 0.127443 0)
(0.182415 0.106256 0)
(0.166589 0.083615 0)
(0.153159 0.0601244 0)
(0.141655 0.0361842 0)
(0.132057 0.011859 0)
(0.123866 -0.0128425 0)
(0.116276 -0.0379642 0)
(0.109653 -0.0638886 0)
(0.103539 -0.0905167 0)
(0.0967524 -0.116486 0)
(0.0852398 -0.137022 0)
(0.0641564 -0.14382 0)
(0.0316801 -0.138481 0)
(0.00464044 -0.140117 0)
(-0.0101619 -0.150703 0)
(-0.0212136 -0.168752 0)
(-0.0303104 -0.189355 0)
(-0.038585 -0.210217 0)
(-0.0467672 -0.230342 0)
(-0.0551032 -0.249268 0)
(0.475151 0.0678682 0)
(0.46636 0.0564921 0)
(0.459647 0.0426225 0)
(0.4553 0.0270156 0)
(0.453524 0.0104403 0)