/*--------------------------------*- C++ -*----------------------------------*\
  =========                 |
  \\      /  F ield         | OpenFOAM: The Open Source CFD Toolbox
   \\    /   O peration     | Website:  https://openfoam.org
    \\  /    A nd           | Version:  10
     \\/     M anipulation  |
\*---------------------------------------------------------------------------*/
FoamFile
{
    format      ascii;
    class       volScalarField;
    location    "0.550995";
    object      p;
}
// * * * * * * * * * * * * * * * * * * * * * * * * * * * * * * * * * * * * * //

dimensions      [1 -1 -2 0 0 0 0];

internalField   nonuniform List<scalar> 
15984
(
2.53765
2.55398
2.56973
2.58468
2.59856
2.61125
2.62267
2.63282
2.64174
2.6495
2.65619
2.66195
2.66689
2.67115
2.67485
2.67811
2.68103
2.68368
2.68617
2.68855
2.69085
2.69311
2.69536
2.6976
2.69984
2.70207
2.70427
2.70642
2.7085
2.71048
2.71233
2.71401
2.71549
2.71675
2.71774
2.71845
2.71883
2.71886
2.71855
2.71783
2.71668
2.71511
2.71311
2.71065
2.70774
2.70438
2.70056
2.6963
2.69161
2.6865
2.68098
2.67508
2.66884
2.6623
2.54138
2.55779
2.57328
2.58826
2.60219
2.61493
2.62643
2.63668
2.6457
2.65355
2.66033
2.66616
2.67114
2.67541
2.6791
2.6823
2.68514
2.68769
2.69004
2.69224
2.69434
2.69639
2.69841
2.7004
2.70237
2.70433
2.70626
2.70813
2.70994
2.71166
2.71325
2.71469
2.71595
2.71699
2.71779
2.71833
2.71856
2.71847
2.71806
2.71724
2.71604
2.71443
2.7124
2.70994
2.70704
2.70369
2.69991
2.69568
2.69102
2.68593
2.68046
2.67455
2.66834
2.66179
2.54447
2.56052
2.57606
2.59091
2.60481
2.61761
2.62922
2.63959
2.64876
2.65675
2.66367
2.66961
2.67468
2.67901
2.68272
2.68592
2.68872
2.69119
2.69343
2.69549
2.69743
2.69929
2.7011
2.70286
2.7046
2.70631
2.70798
2.7096
2.71116
2.71263
2.71398
2.7152
2.71625
2.7171
2.71773
2.71811
2.71821
2.71802
2.71751
2.71663
2.71538
2.71374
2.7117
2.70924
2.70635
2.70302
2.69924
2.69505
2.6904
2.68532
2.67983
2.67394
2.66766
2.66106
2.54657
2.56237
2.57779
2.59255
2.60646
2.61932
2.63105
2.64159
2.65093
2.65911
2.6662
2.6723
2.67751
2.68195
2.68573
2.68896
2.69175
2.69419
2.69636
2.6983
2.7001
2.7018
2.70342
2.70498
2.7065
2.70798
2.70942
2.71081
2.71214
2.71338
2.71453
2.71554
2.7164
2.71708
2.71756
2.71781
2.7178
2.71753
2.71693
2.716
2.71472
2.71306
2.71101
2.70856
2.70568
2.70236
2.69861
2.69441
2.68976
2.68467
2.67913
2.67318
2.66682
2.6601
2.54783
2.56336
2.5786
2.59328
2.60718
2.62011
2.63197
2.64269
2.65224
2.66064
2.66795
2.67425
2.67964
2.68422
2.68812
2.69142
2.69424
2.69667
2.69879
2.70066
2.70236
2.70391
2.70537
2.70676
2.70808
2.70936
2.71059
2.71178
2.7129
2.71394
2.71489
2.71573
2.71642
2.71696
2.7173
2.71744
2.71735
2.717
2.71635
2.71538
2.71407
2.71241
2.71036
2.70792
2.70505
2.70175
2.698
2.6938
2.68913
2.68398
2.67838
2.67231
2.66581
2.6589
2.54832
2.56355
2.57857
2.59314
2.60701
2.62002
2.63201
2.64292
2.6527
2.66135
2.66891
2.67545
2.68106
2.68584
2.68988
2.6933
2.69619
2.69864
2.70075
2.70257
2.70418
2.70563
2.70695
2.70818
2.70934
2.71044
2.71149
2.71249
2.71343
2.7143
2.71508
2.71577
2.71633
2.71674
2.71697
2.71703
2.71687
2.71646
2.71577
2.71479
2.71348
2.71181
2.70978
2.70735
2.7045
2.70121
2.69745
2.69322
2.6885
2.68328
2.67755
2.67131
2.66459
2.65741
2.54812
2.56299
2.57776
2.59218
2.60602
2.61908
2.63122
2.64233
2.65235
2.66128
2.66912
2.67593
2.6818
2.6868
2.69103
2.69459
2.69758
2.70009
2.70221
2.70402
2.70557
2.70694
2.70815
2.70925
2.71027
2.71122
2.71212
2.71296
2.71375
2.71447
2.71512
2.71568
2.71613
2.71644
2.7166
2.71659
2.71638
2.71594
2.71524
2.71425
2.71294
2.7113
2.70929
2.70687
2.70403
2.70074
2.69698
2.6927
2.68791
2.68256
2.67665
2.67019
2.66316
2.6556
2.54727
2.56175
2.57622
2.59046
2.60424
2.61735
2.62963
2.64095
2.65124
2.66045
2.6686
2.67572
2.68186
2.68712
2.69157
2.69531
2.69843
2.70103
2.7032
2.70501
2.70654
2.70784
2.70897
2.70998
2.71088
2.71171
2.71247
2.71319
2.71386
2.71446
2.71501
2.71547
2.71584
2.71609
2.71619
2.71614
2.71592
2.71546
2.71476
2.71379
2.7125
2.71089
2.7089
2.70651
2.70369
2.70039
2.69659
2.69226
2.68735
2.68184
2.6757
2.66891
2.66148
2.65342
2.54579
2.55985
2.57399
2.58806
2.60175
2.61491
2.62732
2.63884
2.64939
2.6589
2.66737
2.67482
2.68127
2.68681
2.69151
2.69545
2.69874
2.70145
2.70369
2.70554
2.70706
2.70834
2.70942
2.71035
2.71117
2.7119
2.71257
2.7132
2.71377
2.7143
2.71477
2.71517
2.71549
2.7157
2.71578
2.71572
2.71549
2.71505
2.71437
2.71343
2.71219
2.71061
2.70866
2.7063
2.70348
2.70018
2.69632
2.69191
2.68684
2.68114
2.67469
2.66751
2.65955
2.65086
2.54382
2.55742
2.57117
2.58508
2.59862
2.61181
2.62434
2.63606
2.64687
2.65667
2.66548
2.67327
2.68005
2.68589
2.69086
2.69504
2.69851
2.70136
2.7037
2.70561
2.70716
2.70843
2.70948
2.71037
2.71113
2.71181
2.71242
2.71298
2.7135
2.71398
2.71441
2.71479
2.71509
2.71529
2.71538
2.71534
2.71513
2.71473
2.7141
2.71321
2.71202
2.71049
2.70858
2.70625
2.70345
2.70012
2.69621
2.69168
2.68643
2.68045
2.67364
2.66593
2.65735
2.64788
2.54137
2.5545
2.56792
2.58157
2.595
2.60813
2.62074
2.63264
2.64374
2.65378
2.66296
2.67109
2.67822
2.68438
2.68964
2.69407
2.69774
2.70076
2.70322
2.70521
2.70681
2.70811
2.70916
2.71004
2.71078
2.71143
2.71201
2.71254
2.71304
2.71351
2.71394
2.71433
2.71466
2.71489
2.71502
2.71502
2.71487
2.71453
2.71396
2.71314
2.71201
2.71054
2.70869
2.70639
2.7036
2.70024
2.69625
2.69159
2.68612
2.67981
2.67255
2.66423
2.65491
2.6445
2.53852
2.55123
2.56429
2.57761
2.5909
2.60397
2.61658
2.62866
2.63997
2.65037
2.65984
2.66829
2.67579
2.68226
2.68784
2.69255
2.69643
2.69964
2.70225
2.70435
2.70603
2.70739
2.70848
2.70938
2.71015
2.71081
2.7114
2.71195
2.71246
2.71295
2.7134
2.71383
2.71421
2.71451
2.71471
2.71479
2.71471
2.71446
2.71398
2.71324
2.71219
2.7108
2.709
2.70674
2.70395
2.70056
2.69648
2.69162
2.68589
2.67919
2.67145
2.66243
2.65225
2.64081
2.53541
2.54765
2.56035
2.57336
2.58646
2.59936
2.61204
2.62424
2.63567
2.64637
2.65615
2.66492
2.6728
2.6796
2.68548
2.69044
2.6946
2.698
2.70078
2.70301
2.70481
2.70625
2.70742
2.70838
2.7092
2.70992
2.71057
2.71119
2.71177
2.71233
2.71286
2.71334
2.71379
2.71417
2.71448
2.71467
2.7147
2.71455
2.71417
2.71353
2.71258
2.71126
2.70953
2.7073
2.70451
2.70107
2.69687
2.69182
2.6858
2.67864
2.67041
2.66059
2.64969
2.63731
2.53208
2.54386
2.55616
2.5689
2.58182
2.59442
2.60715
2.61941
2.63103
2.64193
2.65198
2.66108
2.66923
2.67639
2.68255
2.6878
2.6922
2.69582
2.69878
2.70117
2.70309
2.70465
2.70592
2.70698
2.7079
2.70872
2.70948
2.71022
2.71093
2.71161
2.71228
2.7129
2.71346
2.71394
2.71434
2.71465
2.71482
2.7148
2.71455
2.71402
2.71317
2.71194
2.71027
2.70807
2.70528
2.70178
2.69745
2.69218
2.68583
2.67822
2.66949
2.65901
2.64762
2.63415
2.52862
2.53994
2.55191
2.56433
2.57681
2.58947
2.60209
2.61434
2.62604
2.63711
2.64736
2.65674
2.66516
2.67262
2.67905
2.68457
2.68924
2.69308
2.69623
2.69879
2.70087
2.70256
2.70397
2.70517
2.70623
2.7072
2.70813
2.70904
2.70993
2.7108
2.71165
2.71246
2.71319
2.71384
2.71436
2.71478
2.7151
2.71522
2.71511
2.7147
2.71396
2.71281
2.71121
2.70905
2.70625
2.70267
2.6982
2.69267
2.68599
2.67786
2.6688
2.65736
2.64595
2.63152
2.52507
2.53603
2.5476
2.55966
2.57201
2.58442
2.59686
2.60907
2.62082
2.63194
2.64236
2.65193
2.6606
2.6683
2.67502
2.6808
2.68567
2.68974
2.69309
2.69584
2.69808
2.69995
2.70152
2.7029
2.70415
2.70533
2.70649
2.70763
2.70877
2.7099
2.71099
2.71203
2.71299
2.71384
2.71455
2.7151
2.71553
2.7158
2.71584
2.71556
2.71493
2.71387
2.71233
2.7102
2.70738
2.70373
2.6991
2.69331
2.68634
2.67767
2.66806
2.65636
2.6422
2.62615
2.52153
2.53217
2.54342
2.55513
2.56722
2.57948
2.59161
2.60373
2.61542
2.62653
2.63701
2.64673
2.65558
2.66346
2.67044
2.67644
2.68149
2.68576
2.68932
2.69226
2.69469
2.69675
2.69852
2.70012
2.70162
2.70307
2.70452
2.70597
2.70743
2.70888
2.71029
2.71162
2.71285
2.71395
2.71488
2.71562
2.71616
2.71653
2.71672
2.71657
2.71604
2.71508
2.71359
2.71148
2.70864
2.7049
2.70013
2.6941
2.68696
2.67771
2.66634
2.65428
2.63721
2.62149
2.51806
2.52846
2.53943
2.55086
2.56263
2.5746
2.58655
2.59845
2.61005
2.6209
2.63141
2.6412
2.65012
2.65815
2.66525
2.67143
2.67671
2.6811
2.68486
2.68799
2.69062
2.69288
2.69489
2.69676
2.69855
2.70034
2.70216
2.70401
2.70588
2.70773
2.70953
2.71122
2.71278
2.71416
2.71534
2.71628
2.71698
2.71743
2.71771
2.71768
2.71727
2.71637
2.71492
2.71282
2.70995
2.70613
2.70122
2.69504
2.68754
2.67829
2.66525
2.65264
2.63504
2.61494
2.51478
2.52503
2.53578
2.54693
2.55839
2.57003
2.58169
2.59329
2.60463
2.6153
2.62566
2.63535
2.64425
2.65231
2.65951
2.66578
2.67118
2.67573
2.67967
2.68294
2.68577
2.68826
2.69053
2.6927
2.69486
2.69706
2.69934
2.70168
2.70406
2.70641
2.70868
2.71082
2.71276
2.71446
2.7159
2.71705
2.71792
2.71847
2.71878
2.71884
2.71851
2.71768
2.71626
2.71416
2.71124
2.70735
2.70229
2.69597
2.68798
2.67788
2.66534
2.64914
2.62983
2.6082
2.51182
2.52202
2.5326
2.54349
2.55463
2.5659
2.5772
2.58834
2.59931
2.60979
2.6198
2.62927
2.63799
2.64599
2.65314
2.65948
2.66493
2.66958
2.67359
2.67702
2.68004
2.68275
2.68531
2.68782
2.6904
2.6931
2.69595
2.6989
2.70189
2.70486
2.70771
2.71036
2.71275
2.71482
2.71654
2.7179
2.71892
2.71958
2.7199
2.71997
2.7197
2.71891
2.71751
2.7154
2.71243
2.70842
2.70318
2.69659
2.68828
2.67715
2.66267
2.64517
2.62488
2.60202
2.50926
2.51952
2.53001
2.54068
2.55148
2.56234
2.57317
2.58385
2.59427
2.60428
2.61391
2.62299
2.63139
2.63917
2.64617
2.65242
2.65783
2.6625
2.66658
2.67008
2.67328
2.67621
2.67905
2.68194
2.68499
2.6883
2.69183
2.69553
2.69928
2.70298
2.70652
2.70979
2.71269
2.71517
2.7172
2.71876
2.71992
2.72064
2.72096
2.72099
2.72072
2.71996
2.71857
2.71644
2.71341
2.70923
2.70379
2.69734
2.68778
2.67459
2.65883
2.64057
2.61958
2.59578
2.50727
2.51767
2.52813
2.53861
2.54907
2.55946
2.56975
2.57982
2.5896
2.59899
2.60796
2.61654
2.62456
2.63182
2.6386
2.6446
2.64983
2.65438
2.65844
2.66207
2.66537
2.66851
2.67163
2.67491
2.67846
2.68247
2.68683
2.69142
2.69608
2.70067
2.70504
2.70903
2.71252
2.71544
2.71778
2.71954
2.72079
2.72155
2.72188
2.72181
2.72146
2.72069
2.71931
2.71719
2.71411
2.70984
2.70478
2.69706
2.68539
2.67139
2.65494
2.63588
2.61403
2.58932
2.506
2.51663
2.5271
2.53739
2.54749
2.55737
2.56703
2.57637
2.58534
2.59392
2.60212
2.60993
2.61732
2.62414
2.63041
2.636
2.64084
2.64519
2.64921
2.65299
2.65626
2.65958
2.66297
2.66662
2.67071
2.6756
2.68093
2.68653
2.69219
2.6978
2.70313
2.70795
2.7121
2.7155
2.71816
2.7201
2.72143
2.72219
2.72247
2.7223
2.72181
2.721
2.71963
2.71756
2.71461
2.71084
2.70468
2.69457
2.68223
2.66755
2.65041
2.63064
2.6081
2.58269
2.50563
2.51651
2.52699
2.53708
2.54678
2.5561
2.56504
2.5735
2.5815
2.58909
2.59632
2.60323
2.60983
2.616
2.62181
2.62678
2.63082
2.63514
2.63872
2.64314
2.64612
2.64933
2.653
2.65686
2.66105
2.66733
2.67385
2.68065
2.68749
2.69426
2.70069
2.70645
2.71132
2.71523
2.7182
2.72032
2.72168
2.72241
2.72261
2.72234
2.72168
2.72075
2.71938
2.71745
2.71497
2.71069
2.70201
2.69099
2.67812
2.66292
2.64528
2.625
2.60197
2.57608
2.50626
2.51736
2.5278
2.53764
2.54689
2.55557
2.56368
2.57113
2.57804
2.58448
2.59054
2.59636
2.6022
2.60758
2.61299
2.61761
2.6203
2.62502
2.62843
2.63223
2.63577
2.63948
2.64408
2.64618
2.65054
2.65798
2.66612
2.67414
2.68218
2.69017
2.69774
2.70448
2.71009
2.71451
2.71779
2.72003
2.72142
2.7221
2.7222
2.72182
2.72099
2.71985
2.71844
2.71671
2.71411
2.7068
2.69754
2.68642
2.67322
2.65774
2.63979
2.61921
2.59592
2.56974
2.50803
2.51919
2.52948
2.53896
2.54769
2.55567
2.56274
2.56907
2.57484
2.58006
2.5848
2.58922
2.59439
2.59828
2.60443
2.60695
2.60929
2.61316
2.61607
2.61845
2.62121
2.6246
2.62878
2.63295
2.64079
2.65091
2.65861
2.66767
2.67657
2.68567
2.69438
2.70205
2.70837
2.71325
2.71679
2.71914
2.72053
2.72115
2.72115
2.72066
2.7197
2.71833
2.71663
2.71502
2.7101
2.70195
2.69242
2.68108
2.66769
2.65207
2.634
2.61337
2.58994
2.56374
2.51093
2.52191
2.53185
2.54082
2.54887
2.5559
2.56187
2.56709
2.57179
2.57591
2.57929
2.58269
2.58499
2.58863
2.59157
2.59369
2.59497
2.59648
2.59831
2.60034
2.60296
2.60661
2.61191
2.61784
2.62744
2.63806
2.64699
2.65944
2.67019
2.68078
2.69072
2.69929
2.70619
2.71143
2.71514
2.71756
2.71894
2.71951
2.71944
2.71888
2.71795
2.71684
2.71463
2.7114
2.7043
2.69602
2.68638
2.67495
2.66154
2.64594
2.62796
2.60742
2.58414
2.55809
2.5144
2.52509
2.53453
2.54288
2.55002
2.55587
2.56081
2.56493
2.56872
2.57187
2.57286
2.57435
2.57565
2.57733
2.57806
2.57815
2.57798
2.57827
2.57968
2.58201
2.585
2.5896
2.59554
2.6029
2.61321
2.62612
2.63923
2.6507
2.66426
2.67631
2.68714
2.69632
2.70361
2.70906
2.71286
2.71529
2.71665
2.7172
2.71708
2.71645
2.71537
2.7135
2.71021
2.70451
2.69708
2.68886
2.67931
2.66798
2.65472
2.63931
2.62163
2.60134
2.57839
2.55269
2.51849
2.52852
2.53721
2.54455
2.55048
2.55528
2.55938
2.56244
2.56393
2.56558
2.56718
2.56744
2.56664
2.56525
2.5633
2.56141
2.55988
2.55943
2.56015
2.56265
2.5667
2.57261
2.58004
2.58912
2.60073
2.61567
2.63072
2.64328
2.6588
2.6721
2.68359
2.69316
2.70065
2.70616
2.70995
2.71235
2.71364
2.71412
2.71399
2.71317
2.7114
2.70854
2.70292
2.6965
2.6892
2.68086
2.67132
2.66021
2.64722
2.63213
2.61485
2.59499
2.57253
2.54731
2.52234
2.53155
2.53912
2.54519
2.5502
2.55418
2.55686
2.55927
2.56151
2.56226
2.5616
2.55958
2.55637
2.55246
2.54805
2.54378
2.54026
2.53841
2.53874
2.54146
2.5472
2.55515
2.56426
2.57535
2.58926
2.60558
2.62295
2.63777
2.65467
2.66835
2.68029
2.68992
2.69731
2.70268
2.70636
2.70865
2.70984
2.71016
2.70961
2.70813
2.70546
2.70026
2.69415
2.68763
2.68036
2.67202
2.66256
2.65169
2.639
2.6243
2.60749
2.58817
2.56632
2.54176
2.52566
2.53362
2.53979
2.54493
2.54897
2.55272
2.55631
2.55821
2.55866
2.55772
2.55538
2.55158
2.54634
2.53999
2.53288
2.5267
2.52174
2.51978
2.52084
2.52482
2.53178
2.54066
2.55174
2.56466
2.57905
2.59751
2.61599
2.63446
2.65085
2.66528
2.67724
2.68657
2.69363
2.69872
2.70218
2.70426
2.70519
2.70493
2.70368
2.70151
2.69653
2.69061
2.68449
2.67804
2.6708
2.6625
2.6531
2.64242
2.63003
2.61571
2.59937
2.58066
2.55948
2.53567
2.5271
2.53365
2.53978
2.54575
2.55009
2.55317
2.5552
2.55593
2.55542
2.55353
2.54995
2.54467
2.53741
2.52937
2.51948
2.51054
2.50531
2.5041
2.50543
2.51048
2.51876
2.52881
2.54001
2.55548
2.57313
2.59523
2.61409
2.63276
2.64958
2.66325
2.67437
2.6832
2.6898
2.69454
2.69772
2.69948
2.69951
2.69787
2.69663
2.69195
2.6864
2.68038
2.67435
2.66791
2.66068
2.6524
2.64296
2.63236
2.62025
2.60629
2.59031
2.57222
2.55167
2.52862
2.53136
2.53848
2.54399
2.54796
2.5506
2.55247
2.55371
2.55389
2.55281
2.55021
2.54589
2.54008
2.53018
2.51849
2.50808
2.4991
2.49289
2.48909
2.49161
2.49787
2.50763
2.51918
2.53515
2.55184
2.5713
2.59866
2.61761
2.63433
2.64926
2.66182
2.67199
2.67998
2.68594
2.69019
2.6929
2.69352
2.6922
2.69131
2.68699
2.68172
2.67576
2.66989
2.66384
2.65733
2.65006
2.64176
2.63227
2.62163
2.60966
2.59595
2.58031
2.56257
2.54268
2.52025
2.53628
2.54147
2.54564
2.54877
2.55093
2.55229
2.55297
2.55267
2.55128
2.54828
2.54323
2.53466
2.52524
2.51431
2.50264
2.49211
2.48633
2.48275
2.48543
2.49401
2.50678
2.52189
2.53563
2.55457
2.57333
2.59329
2.61742
2.635
2.64918
2.6607
2.67
2.6771
2.68235
2.68588
2.68714
2.68703
2.68649
2.68121
2.67658
2.671
2.66515
2.65922
2.65305
2.64641
2.63903
2.63067
2.62109
2.61029
2.59829
2.58471
2.56928
2.55179
2.53225
2.51044
2.53966
2.54388
2.54716
2.54963
2.55145
2.55266
2.5532
2.55279
2.55123
2.54838
2.54137
2.53463
2.52542
2.5147
2.50356
2.49389
2.48877
2.48805
2.49187
2.50056
2.51335
2.5279
2.54582
2.56528
2.58384
2.60437
2.62159
2.6371
2.64985
2.65999
2.66795
2.67386
2.67747
2.6802
2.68209
2.67863
2.67619
2.67071
2.66617
2.66051
2.65457
2.6485
2.64211
2.63525
2.62769
2.61918
2.60949
2.59848
2.58627
2.57265
2.55727
2.53993
2.52051
2.49898
2.54285
2.54614
2.54877
2.5509
2.55263
2.55391
2.55454
2.55424
2.55321
2.54996
2.54474
2.53818
2.53025
2.52137
2.51271
2.50597
2.5024
2.50257
2.5076
2.51665
2.53009
2.54543
2.55651
2.57213
2.59445
2.612
2.62742
2.6404
2.65156
2.66034
2.66685
2.67128
2.67383
2.67535
2.67503
2.67101
2.66578
2.66148
2.65612
2.65031
2.64417
2.63783
2.63115
2.624
2.61616
2.60743
2.59756
2.58634
2.57373
2.55985
2.54438
2.52702
2.50764
2.4862
2.54585
2.54856
2.55085
2.55289
2.55477
2.55629
2.55742
2.55795
2.55686
2.55398
2.55028
2.54526
2.53939
2.53318
2.5273
2.52296
2.52091
2.52257
2.52868
2.53656
2.54458
2.55736
2.57525
2.5918
2.60717
2.62081
2.63371
2.64439
2.65353
2.65993
2.66451
2.66823
2.67269
2.67061
2.6668
2.66351
2.65778
2.65284
2.64682
2.6406
2.63411
2.62737
2.6203
2.61276
2.60456
2.59549
2.58534
2.57389
2.56097
2.54661
2.53081
2.51326
2.49377
2.47232
2.54895
2.5514
2.55363
2.55579
2.558
2.56013
2.56213
2.56235
2.56117
2.56015
2.55808
2.55502
2.55139
2.54763
2.54414
2.54184
2.54052
2.54282
2.54834
2.55603
2.56734
2.57852
2.59204
2.60665
2.61899
2.63019
2.64075
2.64975
2.65681
2.6617
2.66498
2.66809
2.66731
2.66577
2.66112
2.65644
2.65072
2.64478
2.63825
2.6315
2.6245
2.61725
2.60968
2.60165
2.59299
2.58349
2.57295
2.56116
2.54791
2.5331
2.51678
2.49889
2.47918
2.45761
2.55231
2.55482
2.55724
2.55967
2.56244
2.56577
2.56627
2.5664
2.56769
2.56805
2.56767
2.56652
2.56491
2.56315
2.56151
2.56074
2.56155
2.56455
2.57007
2.5775
2.58673
2.59743
2.60821
2.61962
2.63031
2.6398
2.64813
2.65363
2.6561
2.65625
2.67018
2.66415
2.66326
2.66109
2.65656
2.6508
2.64444
2.63765
2.63048
2.62304
2.61541
2.60754
2.59937
2.59075
2.58153
2.5715
2.56048
2.54825
2.53462
2.5194
2.50253
2.48412
2.46412
2.44238
2.55614
2.55902
2.56185
2.56475
2.56823
2.56984
2.57131
2.57375
2.57587
2.57757
2.57865
2.57911
2.5792
2.57913
2.5792
2.57985
2.58179
2.58535
2.59054
2.59727
2.60544
2.61425
2.62346
2.63266
2.64142
2.64847
2.65464
2.65844
2.66297
2.67233
2.66294
2.66674
2.66165
2.65875
2.65273
2.64616
2.63903
2.63131
2.62339
2.61524
2.60686
2.59827
2.58938
2.58008
2.5702
2.55956
2.54796
2.53521
2.52112
2.5055
2.48819
2.46921
2.44876
2.42684
2.56072
2.56426
2.56794
2.57122
2.57148
2.57639
2.57912
2.58237
2.58551
2.58819
2.59049
2.59231
2.59379
2.59509
2.59651
2.59841
2.60114
2.60494
2.60989
2.6158
2.62266
2.62991
2.63718
2.64409
2.65058
2.65697
2.66032
2.66373
2.66512
2.66791
2.66357
2.66629
2.66097
2.65654
2.64971
2.64227
2.63425
2.62579
2.61698
2.60798
2.59877
2.58937
2.57969
2.56961
2.55899
2.54764
2.53539
2.52205
2.50744
2.49138
2.47372
2.45437
2.43344
2.41124
2.5651
2.56921
2.5732
2.57467
2.57941
2.58439
2.58804
2.59206
2.596
2.59963
2.60291
2.60577
2.60835
2.61072
2.6131
2.61578
2.61895
2.62277
2.62728
2.6324
2.63794
2.64375
2.64949
2.65521
2.66017
2.66411
2.6662
2.6711
2.66941
2.66787
2.66618
2.66542
2.66032
2.65454
2.64707
2.63898
2.62997
2.6207
2.61098
2.60114
2.59104
2.58075
2.57018
2.55925
2.54781
2.53569
2.52273
2.50875
2.49359
2.47708
2.45908
2.43951
2.41836
2.39585
2.57004
2.57541
2.58117
2.58349
2.58867
2.59315
2.59776
2.60259
2.6072
2.61162
2.61568
2.61937
2.62267
2.62572
2.62868
2.63171
2.63496
2.63857
2.64254
2.64679
2.65133
2.65599
2.66072
2.66653
2.67028
2.6723
2.67081
2.67225
2.67461
2.67196
2.66989
2.66574
2.65998
2.65293
2.64488
2.63574
2.62603
2.61582
2.60527
2.59452
2.58346
2.57224
2.56073
2.54886
2.53653
2.52358
2.50987
2.49524
2.47954
2.46261
2.44434
2.42463
2.40346
2.38093
2.57605
2.58291
2.58978
2.59026
2.59739
2.60272
2.60849
2.61381
2.61911
2.62404
2.62865
2.63285
2.63658
2.63996
2.6431
2.64613
2.64917
2.65236
2.65572
2.65925
2.66307
2.6669
2.67096
2.6741
2.67628
2.67472
2.67794
2.67856
2.67836
2.67547
2.6716
2.66623
2.65944
2.65156
2.64252
2.63272
2.62217
2.6111
2.59964
2.58788
2.57588
2.56364
2.55112
2.53826
2.52498
2.51116
2.49668
2.48142
2.46523
2.44799
2.42955
2.40983
2.38877
2.36645
2.58267
2.59009
2.59776
2.5995
2.60748
2.61333
2.62001
2.62586
2.63155
2.63686
2.64176
2.64618
2.65003
2.65343
2.65645
2.65921
2.66187
2.66451
2.6672
2.66999
2.67278
2.67587
2.67857
2.68132
2.68012
2.68295
2.68399
2.68322
2.68128
2.67746
2.67249
2.66612
2.65853
2.64975
2.63995
2.62935
2.61803
2.60611
2.59376
2.58105
2.56803
2.55473
2.54114
2.52723
2.51296
2.49824
2.48301
2.46716
2.4506
2.43318
2.41477
2.39522
2.37445
2.35246
2.58957
2.59733
2.60324
2.61203
2.62006
2.6239
2.63242
2.63867
2.6445
2.64998
2.65498
2.65943
2.66319
2.66634
2.66898
2.67126
2.67327
2.67507
2.67689
2.67899
2.68131
2.68362
2.68442
2.68494
2.6911
2.6881
2.68954
2.68609
2.68324
2.6782
2.67253
2.66527
2.65693
2.64746
2.63696
2.6256
2.61348
2.60077
2.58749
2.57378
2.55969
2.54528
2.53056
2.51555
2.50024
2.48462
2.46867
2.45234
2.43555
2.41819
2.40008
2.381
2.36073
2.33923
2.59733
2.60578
2.61398
2.62104
2.63042
2.63716
2.64672
2.65273
2.65813
2.66364
2.66853
2.67279
2.67619
2.67876
2.68064
2.68203
2.68314
2.684
2.68517
2.6874
2.6892
2.68998
2.69067
2.69283
2.69321
2.69218
2.69095
2.68769
2.68343
2.67795
2.67137
2.66345
2.6546
2.64442
2.63331
2.62127
2.60843
2.59483
2.58064
2.56589
2.55068
2.53509
2.51917
2.503
2.48663
2.47012
2.45353
2.43685
2.4201
2.40311
2.38567
2.36742
2.34801
2.3272
2.60683
2.61615
2.62477
2.63311
2.64128
2.65121
2.66149
2.66611
2.67252
2.67732
2.68188
2.68574
2.68852
2.69031
2.69137
2.69203
2.69283
2.69377
2.69448
2.69489
2.6961
2.6956
2.69433
2.69746
2.69521
2.69445
2.6914
2.68778
2.68263
2.6767
2.66939
2.66105
2.65148
2.64082
2.62907
2.61634
2.60275
2.58832
2.57313
2.55728
2.54088
2.52401
2.50682
2.48942
2.47196
2.45459
2.43747
2.42069
2.40426
2.38806
2.37185
2.35501
2.33691
2.31703
2.61729
2.62854
2.63908
2.6488
2.65763
2.66598
2.67597
2.68062
2.68769
2.69312
2.69583
2.69988
2.70231
2.70372
2.70446
2.70445
2.70372
2.7031
2.70264
2.70208
2.70167
2.70028
2.69958
2.69832
2.69655
2.6945
2.69095
2.68661
2.68098
2.6745
2.6667
2.65786
2.64784
2.63662
2.62433
2.61095
2.59658
2.58123
2.565
2.54796
2.53024
2.512
2.49341
2.4747
2.45611
2.43795
2.42045
2.40388
2.38824
2.37346
2.35917
2.34449
2.32836
2.30975
2.6287
2.6421
2.65495
2.66701
2.67794
2.6877
2.69629
2.7034
2.70735
2.71325
2.71635
2.71855
2.71982
2.71995
2.71918
2.71761
2.71548
2.71323
2.71087
2.70811
2.70572
2.70436
2.70145
2.69939
2.6966
2.69355
2.68945
2.68454
2.67857
2.67157
2.66347
2.6542
2.64373
2.63217
2.61922
2.60523
2.59002
2.57375
2.55634
2.538
2.51883
2.49905
2.47893
2.45878
2.43905
2.42016
2.4025
2.38645
2.37218
2.35953
2.34808
2.33673
2.32366
2.30675
2.64076
2.65636
2.67158
2.68604
2.6994
2.71122
2.72119
2.7294
2.73486
2.73966
2.74244
2.74304
2.74249
2.74021
2.73673
2.73239
2.72763
2.72287
2.71819
2.71349
2.7094
2.7057
2.70219
2.6991
2.69559
2.69175
2.68715
2.6819
2.67556
2.66838
2.65991
2.65043
2.63956
2.62755
2.61408
2.59944
2.58335
2.56607
2.54742
2.52762
2.50683
2.48535
2.46353
2.44182
2.42086
2.4013
2.38373
2.36867
2.35633
2.3466
2.33898
2.33225
2.3238
2.30949
2.65321
2.67086
2.68828
2.705
2.72059
2.73451
2.74639
2.75598
2.76249
2.76733
2.76942
2.7688
2.76604
2.76107
2.75453
2.74701
2.73914
2.73144
2.7242
2.71754
2.71167
2.70644
2.70185
2.6979
2.69357
2.68943
2.68443
2.67885
2.6724
2.66499
2.65643
2.64665
2.63556
2.6231
2.6092
2.59384
2.5769
2.55846
2.53847
2.51709
2.49451
2.47108
2.44736
2.42392
2.40162
2.38132
2.36394
2.35019
2.34046
2.33462
2.33209
2.33145
2.32929
2.31908
2.66554
2.68519
2.70464
2.72344
2.74107
2.75701
2.77068
2.78158
2.78915
2.79386
2.79536
2.79349
2.78855
2.78086
2.77123
2.76047
2.7494
2.73874
2.72893
2.72022
2.71269
2.70624
2.70072
2.69581
2.69114
2.68647
2.68137
2.67568
2.66915
2.66176
2.6531
2.64322
2.63193
2.61919
2.60481
2.58882
2.57099
2.55137
2.52993
2.50683
2.48226
2.45664
2.43064
2.40524
2.38141
2.36019
2.3428
2.33049
2.32435
2.32304
2.32541
2.32952
2.33317
2.33101
2.67753
2.69892
2.72016
2.74078
2.76024
2.77791
2.79315
2.80525
2.81356
2.81819
2.81908
2.81608
2.80913
2.79881
2.78619
2.77229
2.75813
2.74464
2.73241
2.7217
2.71264
2.70509
2.69873
2.69323
2.68821
2.68331
2.67818
2.67253
2.66612
2.65874
2.65018
2.64033
2.62897
2.61601
2.60129
2.58467
2.566
2.54519
2.52221
2.49738
2.47048
2.44248
2.41397
2.38611
2.36015
2.33747
2.3196
2.30921
2.30592
2.3084
2.3151
2.32267
2.32689
2.32391
2.65548
2.64846
2.64129
2.63402
2.62673
2.61947
2.61228
2.60524
2.59842
2.59184
2.58551
2.57944
2.57358
2.56788
2.56227
2.55668
2.55101
2.54516
2.53907
2.53264
2.65492
2.64789
2.64067
2.63336
2.62602
2.61873
2.61151
2.60443
2.59757
2.59097
2.58464
2.57857
2.57271
2.56701
2.56139
2.55577
2.55005
2.54413
2.53795
2.53141
2.65414
2.64699
2.63968
2.63225
2.62479
2.61737
2.61004
2.60284
2.59588
2.5892
2.5828
2.57668
2.57078
2.56506
2.55941
2.55377
2.54801
2.54206
2.53583
2.52926
2.65306
2.64574
2.63823
2.63059
2.62291
2.61526
2.60773
2.60035
2.59319
2.58634
2.57982
2.5736
2.56764
2.56187
2.55621
2.55055
2.54479
2.53886
2.53265
2.5261
2.65163
2.64405
2.63624
2.62828
2.62026
2.61227
2.60442
2.59674
2.5893
2.58221
2.5755
2.56914
2.56309
2.55727
2.5516
2.54596
2.54028
2.5344
2.52831
2.52186
2.64981
2.64185
2.63361
2.62519
2.6167
2.60823
2.59992
2.59182
2.58401
2.57658
2.56959
2.56305
2.55689
2.55103
2.54537
2.53982
2.53424
2.52855
2.52264
2.51646
2.64754
2.63907
2.63025
2.62121
2.61206
2.60295
2.59401
2.58536
2.57704
2.56917
2.56184
2.55505
2.54877
2.54288
2.53729
2.53189
2.52652
2.52111
2.51554
2.50974
2.64478
2.63562
2.62604
2.61616
2.60616
2.59619
2.58643
2.57703
2.56807
2.55965
2.55189
2.54484
2.53842
2.53253
2.5271
2.52193
2.51691
2.51193
2.50686
2.50161
2.64145
2.63142
2.62084
2.60989
2.59877
2.58769
2.57686
2.56649
2.55671
2.54764
2.53938
2.53202
2.52548
2.51968
2.51446
2.50968
2.50517
2.5008
2.49642
2.49193
2.63753
2.6264
2.61456
2.6022
2.58967
2.57718
2.56499
2.55338
2.54258
2.53269
2.52386
2.51618
2.50956
2.50392
2.49906
2.49483
2.49104
2.48751
2.48406
2.48057
2.633
2.62058
2.60716
2.59299
2.57872
2.56445
2.55055
2.53736
2.52522
2.51428
2.50486
2.49694
2.49028
2.48482
2.48061
2.47709
2.47428
2.47185
2.46962
2.4674
2.62781
2.61422
2.59896
2.58254
2.56638
2.54999
2.53398
2.5187
2.50459
2.49191
2.48184
2.47389
2.46718
2.46222
2.45853
2.45615
2.45457
2.45364
2.4529
2.45231
2.62205
2.60777
2.59056
2.57111
2.55304
2.53434
2.51616
2.49881
2.48136
2.46657
2.45659
2.44752
2.44069
2.43498
2.43267
2.43151
2.43188
2.43279
2.43408
2.43522
2.61709
2.6005
2.58073
2.55748
2.53519
2.51305
2.49215
2.47259
2.45457
2.43793
2.4248
2.41777
2.40954
2.40193
2.40329
2.40511
2.40672
2.40972
2.4127
2.41603
2.60888
2.58963
2.56713
2.54701
2.52304
2.4966
2.47096
2.44561
2.42449
2.40652
2.38663
2.38416
2.36655
2.35646
2.37698
2.37372
2.37895
2.38504
2.38991
2.39486
2.60765
2.58576
2.56038
2.53336
2.50442
2.47341
2.44307
2.41446
2.39002
2.36846
2.35029
2.34047
2.33368
2.33038
2.34329
2.33313
2.3401
2.35576
2.36544
2.37395
2.60124
2.57587
2.54774
2.51741
2.48546
2.45328
2.41825
2.38678
2.36127
2.33604
2.31485
2.30101
2.29522
2.2933
2.30103
2.29562
2.29774
2.32942
2.33747
2.34996
2.59164
2.56515
2.53595
2.50374
2.4696
2.43055
2.39625
2.36356
2.33199
2.30524
2.28185
2.26301
2.25963
2.25515
2.25931
2.26421
2.28107
2.29819
2.30032
2.32681
2.58376
2.55617
2.52528
2.49163
2.45479
2.41644
2.37749
2.34236
2.30972
2.28069
2.2556
2.23597
2.2232
2.22026
2.22571
2.2331
2.24762
2.2653
2.27739
2.30361
2.57634
2.54757
2.51555
2.4805
2.4428
2.40362
2.36396
2.32628
2.29194
2.26103
2.23391
2.21141
2.19606
2.19117
2.19544
2.20251
2.21692
2.2367
2.25751
2.27696
2.56905
2.53938
2.507
2.47173
2.43388
2.39367
2.35279
2.31378
2.27897
2.24699
2.21856
2.19377
2.17527
2.16651
2.16922
2.17786
2.19298
2.21268
2.23647
2.25811
2.56173
2.53129
2.49807
2.46259
2.42488
2.38592
2.34684
2.30875
2.2712
2.2379
2.20879
2.18336
2.16155
2.14872
2.15037
2.1592
2.17378
2.19346
2.21721
2.24268
2.55442
2.52343
2.48992
2.45425
2.41698
2.37882
2.34104
2.30438
2.26849
2.2344
2.2035
2.17795
2.154
2.14003
2.13752
2.14542
2.15962
2.17879
2.20264
2.22776
2.54742
2.51614
2.48253
2.44705
2.41036
2.37317
2.33627
2.3002
2.26575
2.23395
2.20424
2.17624
2.1532
2.13771
2.13212
2.13919
2.15111
2.16911
2.19199
2.21774
2.54086
2.50942
2.47578
2.44049
2.40427
2.36791
2.33217
2.29755
2.26477
2.23358
2.20522
2.1799
2.15669
2.13855
2.13305
2.13462
2.14738
2.16486
2.18696
2.21407
2.5348
2.50332
2.46969
2.43452
2.39861
2.36287
2.32829
2.29487
2.26409
2.23531
2.20841
2.1833
2.16178
2.14461
2.13615
2.13643
2.14484
2.16152
2.18488
2.21186
2.52928
2.49791
2.46437
2.4293
2.39358
2.35815
2.32406
2.29182
2.26418
2.23625
2.21143
2.18795
2.16646
2.14983
2.14132
2.14241
2.14835
2.16523
2.18723
2.21294
2.52422
2.49313
2.45982
2.42499
2.38954
2.35457
2.32103
2.29003
2.26193
2.23141
2.20808
2.18638
2.16832
2.15217
2.14515
2.14486
2.15449
2.16761
2.19041
2.21576
2.5193
2.48869
2.45583
2.42146
2.38654
2.35224
2.31942
2.28904
2.26196
2.23305
2.20943
2.18669
2.16815
2.15314
2.14484
2.14742
2.15549
2.17286
2.1933
2.2175
2.51442
2.48437
2.45196
2.41793
2.3835
2.34981
2.31837
2.29085
2.2604
2.2343
2.21125
2.18881
2.1696
2.15516
2.14717
2.14611
2.15805
2.17314
2.19604
2.22419
2.50914
2.47992
2.44831
2.415
2.38103
2.34771
2.31667
2.28917
2.26388
2.23705
2.21466
2.1923
2.17368
2.15935
2.15178
2.15063
2.15974
2.17814
2.19995
2.22786
2.50295
2.47468
2.44407
2.41173
2.37871
2.34629
2.31625
2.29128
2.26822
2.23723
2.21868
2.19802
2.18155
2.16892
2.16168
2.15941
2.16748
2.18802
2.20953
2.23596
2.49539
2.4681
2.43861
2.40743
2.37552
2.34404
2.31451
2.28746
2.26989
2.24946
2.22212
2.20567
2.19376
2.18408
2.17813
2.17503
2.18222
2.20394
2.22426
2.25014
2.48619
2.45978
2.43141
2.40156
2.3711
2.34123
2.31323
2.28852
2.27253
2.25152
2.22759
2.21501
2.20746
2.20143
2.19945
2.19918
2.20697
2.22255
2.24331
2.2681
2.47534
2.44952
2.42223
2.39363
2.36465
2.33631
2.30975
2.28613
2.26726
2.25159
2.24121
2.22394
2.22403
2.22133
2.21998
2.22553
2.23432
2.24591
2.26556
2.28814
2.46271
2.43747
2.41112
2.38345
2.35607
2.32946
2.30483
2.28254
2.26292
2.24887
2.24379
2.22935
2.23966
2.24354
2.23881
2.25002
2.2583
2.27259
2.29137
2.31166
2.449
2.42406
2.39788
2.37105
2.3447
2.31934
2.29607
2.27592
2.2595
2.24727
2.23963
2.23792
2.24765
2.26322
2.24973
2.27158
2.28199
2.29538
2.3148
2.33449
2.43431
2.40957
2.38382
2.35769
2.33215
2.30771
2.28567
2.26723
2.25288
2.24398
2.24075
2.24128
2.24714
2.2558
2.26458
2.286
2.30833
2.31125
2.33687
2.3542
2.41906
2.39448
2.36913
2.34368
2.3189
2.29561
2.27446
2.25686
2.24448
2.23839
2.23696
2.24029
2.24857
2.2601
2.2759
2.2938
2.31169
2.3278
2.35371
2.37515
2.40349
2.37905
2.35405
2.32915
2.30506
2.28252
2.26238
2.24559
2.2354
2.23132
2.2311
2.23615
2.24659
2.26156
2.28077
2.30268
2.32505
2.34769
2.37075
2.39068
2.38789
2.36361