/*--------------------------------*- C++ -*----------------------------------*\
  =========                 |
  \\      /  F ield         | OpenFOAM: The Open Source CFD Toolbox
   \\    /   O peration     | Website:  https://openfoam.org
    \\  /    A nd           | Version:  10
     \\/     M anipulation  |
\*---------------------------------------------------------------------------*/
FoamFile
{
    format      ascii;
    class       volScalarField;
    location    "0.151022";
    object      rho;
}
// * * * * * * * * * * * * * * * * * * * * * * * * * * * * * * * * * * * * * //

dimensions      [1 -3 0 0 0 0 0];

internalField   nonuniform List<scalar> 
15708
(
0.952626
0.953595
0.954856
0.956441
0.95838
0.960681
0.963345
0.966367
0.969723
0.973413
0.977383
0.98165
0.986174
0.990967
0.996031
1.00138
1.00703
1.01297
1.01917
1.02556
1.03203
1.0384
1.04449
1.05008
1.055
1.05911
1.06231
1.06456
1.06589
1.06637
1.06608
1.06515
1.0637
1.06173
1.05954
1.05721
1.05489
1.05259
1.05049
1.04856
1.04688
1.0454
1.04415
1.04305
1.04212
1.04126
1.04046
1.03971
1.039
1.03834
1.03781
0.954196
0.955199
0.956564
0.958319
0.960473
0.963041
0.965987
0.969301
0.972926
0.976815
0.980927
0.98521
0.989607
0.994136
0.998741
1.00349
1.00836
1.01339
1.01858
1.02393
1.02936
1.0348
1.04009
1.04509
1.04963
1.05357
1.05681
1.05929
1.06099
1.06193
1.06222
1.06192
1.06111
1.05994
1.05849
1.05687
1.05523
1.05367
1.05218
1.05091
1.04975
1.04876
1.04788
1.04704
1.04622
1.04536
1.0444
1.04334
1.04218
1.04094
1.03967
0.955929
0.957007
0.958481
0.960425
0.962814
0.965645
0.968867
0.97248
0.97631
0.98042
0.984582
0.988853
0.99307
0.997273
1.0014
1.00551
1.0096
1.01373
1.01792
1.02222
1.0266
1.03103
1.03544
1.03973
1.04375
1.04739
1.05054
1.05313
1.05513
1.05651
1.05733
1.05767
1.05756
1.05719
1.05652
1.05573
1.05491
1.0541
1.05339
1.05273
1.05223
1.0517
1.05116
1.0506
1.04987
1.04896
1.04782
1.04643
1.04481
1.043
1.04107
0.957744
0.958954
0.960644
0.9628
0.965429
0.968527
0.972034
0.975889
0.979916
0.984139
0.98833
0.99247
0.996465
1.00027
1.00388
1.00734
1.01065
1.01389
1.01712
1.02039
1.02374
1.02717
1.03066
1.03417
1.03758
1.04082
1.04378
1.04638
1.04858
1.05034
1.05167
1.05262
1.05325
1.05362
1.05382
1.05391
1.05396
1.054
1.05405
1.05412
1.05418
1.05414
1.05399
1.05359
1.0529
1.05189
1.05053
1.04883
1.04676
1.04441
1.04185
0.959764
0.961238
0.96303
0.96545
0.968372
0.971717
0.975502
0.979532
0.983734
0.987955
0.99209
0.99601
0.999678
1.00304
1.00608
1.00886
1.0114
1.01379
1.0161
1.01842
1.02079
1.02326
1.02586
1.02857
1.03134
1.03411
1.0368
1.03932
1.04164
1.04368
1.04549
1.04703
1.04836
1.04954
1.0506
1.05157
1.0525
1.05339
1.05425
1.05499
1.05562
1.05601
1.0561
1.05586
1.0552
1.05409
1.0525
1.05027
1.04785
1.04501
1.04192
0.962042
0.963698
0.965752
0.968477
0.971659
0.975283
0.979314
0.983406
0.987725
0.991812
0.995794
0.999392
1.00263
1.00546
1.00791
1.00999
1.01178
1.01338
1.01485
1.01629
1.01777
1.01937
1.02114
1.02308
1.02524
1.02749
1.02985
1.03226
1.03457
1.03692
1.03909
1.04117
1.04319
1.04513
1.04702
1.04886
1.05067
1.05237
1.05399
1.05536
1.05647
1.0572
1.0575
1.0573
1.05656
1.05527
1.05332
1.05096
1.04804
1.0447
1.0412
0.964617
0.966537
0.968878
0.971941
0.975307
0.979291
0.983304
0.987604
0.991706
0.995712
0.999305
1.0025
1.00525
1.00745
1.00929
1.01067
1.01175
1.01261
1.01332
1.01399
1.01471
1.01554
1.01657
1.01788
1.0194
1.02117
1.02329
1.02541
1.02778
1.03028
1.03275
1.03534
1.03799
1.04065
1.04329
1.04597
1.04858
1.05102
1.05327
1.05521
1.05668
1.05765
1.05801
1.05777
1.05693
1.05541
1.05323
1.05045
1.04715
1.04364
1.03953
0.967519
0.969764
0.972445
0.975732
0.979526
0.983438
0.987704
0.991793
0.995816
0.999381
1.00262
1.00524
1.00741
1.00898
1.01017
1.01089
1.01129
1.01151
1.01155
1.01154
1.01162
1.01182
1.01224
1.01302
1.01402
1.01539
1.01719
1.01914
1.02149
1.02407
1.02686
1.02982
1.033
1.03633
1.03969
1.04303
1.04633
1.04943
1.05215
1.05447
1.05624
1.05723
1.05761
1.05725
1.05621
1.05442
1.05194
1.04888
1.04527
1.04149
1.03713
0.970881
0.973335
0.976511
0.979998
0.983913
0.988043
0.992125
0.99611
0.999697
1.00292
1.0055
1.00758
1.00908
1.00999
1.01052
1.01062
1.01043
1.01004
1.00953
1.00895
1.00862
1.00822
1.0083
1.00857
1.00921
1.01033
1.01175
1.01362
1.01592
1.01853
1.02159
1.02491
1.02856
1.03229
1.03637
1.04019
1.04409
1.04759
1.05064
1.05325
1.05497
1.05604
1.05623
1.05568
1.05436
1.05237
1.04955
1.04631
1.04248
1.03838
1.03421
0.974542
0.977464
0.980734
0.98476
0.988578
0.992752
0.99666
1.00024
1.00344
1.00604
1.00805
1.00937
1.0102
1.0105
1.01037
1.0099
1.00914
1.00831
1.00725
1.00641
1.00553
1.00495
1.0047
1.00466
1.00503
1.00594
1.00715
1.00904
1.01119
1.01398
1.01717
1.02075
1.02471
1.02899
1.03327
1.03774
1.04183
1.04555
1.04896
1.05125
1.05315
1.05386
1.05393
1.05313
1.05149
1.04917
1.04623
1.04273
1.03881
1.03465
1.03034
0.978574
0.981914
0.985568
0.989504
0.993561
0.997448
1.0011
1.0042
1.00679
1.00877
1.00994
1.01071
1.01077
1.01048
1.00974
1.00874
1.00751
1.00629
1.00493
1.00382
1.00263
1.00201
1.00137
1.00135
1.00158
1.00235
1.00352
1.00541
1.00751
1.01041
1.0137
1.01752
1.02174
1.02628
1.03073
1.03556
1.03953
1.04362
1.04654
1.04908
1.0504
1.05101
1.05074
1.04951
1.04776
1.04504
1.04194
1.03831
1.03432
1.0303
1.02586
0.983077
0.986709
0.990339
0.99479
0.998318
1.00214
1.00519
1.00781
1.0097
1.01088
1.01147
1.01141
1.01083
1.00994
1.0087
1.00719
1.00562
1.00405
1.00266
1.00113
1.00017
0.999136
0.998737
0.998555
0.998811
0.999599
1.00088
1.0026
1.00497
1.00791
1.01129
1.01526
1.01961
1.02412
1.02905
1.03324
1.03783
1.04107
1.04428
1.04602
1.04729
1.04735
1.04669
1.04519
1.043
1.0402
1.03681
1.03333
1.02926
1.02521
1.02133
0.9878
0.991501
0.995803
0.999291
1.00343
1.00627
1.00909
1.01084
1.01204
1.01255
1.01227
1.01164
1.01036
1.00895
1.00723
1.00538
1.00356
1.0018
1.00019
0.998879
0.997698
0.996832
0.996514
0.996409
0.996754
0.997679
0.998993
1.001
1.00336
1.0064
1.00989
1.01392
1.01822
1.02292
1.02728
1.03193
1.03547
1.03904
1.04117
1.04293
1.04336
1.04304
1.04209
1.0401
1.03764
1.03462
1.03125
1.02765
1.02385
1.01998
1.01627
0.992619
0.996767
1.00028
1.00465
1.00747
1.01038
1.01216
1.01342
1.01378
1.0135
1.01263
1.01126
1.00944
1.00756
1.00547
1.00337
1.00134
0.999606
0.997887
0.996765
0.995522
0.995054
0.994658
0.994906
0.995462
0.996575
0.998057
1.00024
1.00276
1.00578
1.0094
1.01329
1.01772
1.02182
1.02653
1.02998
1.03388
1.0362
1.03828
1.039
1.03914
1.03834
1.03666
1.03459
1.03175
1.02855
1.02536
1.0216
1.01809
1.01475
1.01108
0.997695
1.00137
1.00558
1.00852
1.01175
1.01351
1.01493
1.0152
1.01485
1.01399
1.01228
1.01041
1.00814
1.00583
1.00351
1.00119
0.999233
0.997327
0.996024
0.994599
0.994024
0.99346
0.993551
0.993952
0.994831
0.996141
0.998076
1.00017
1.00299
1.00607
1.00958
1.01356
1.01747
1.02165
1.02526
1.02897
1.03143
1.03377
1.03458
1.03505
1.03441
1.03292
1.03114
1.02852
1.02543
1.02241
1.01899
1.01569
1.01243
1.00899
1.0065
1.00227
1.00636
1.00942
1.01294
1.01469
1.01637
1.01665
1.01641
1.01535
1.01359
1.01157
1.00906
1.00638
1.00395
1.00141
0.999125
0.996966
0.995505
0.993961
0.993245
0.99257
0.992554
0.992865
0.993635
0.994836
0.996616
0.99854
1.00101
1.00387
1.00705
1.01052
1.01403
1.01791
1.02116
1.02499
1.02691
1.02969
1.03044
1.03099
1.03045
1.02915
1.02757
1.02492
1.02217
1.0191
1.01595
1.01263
1.00981
1.00649
1.00419
1.00134
1.00716
1.01019
1.0138
1.01564
1.0176
1.01803
1.01792
1.01679
1.01509
1.01284
1.0102
1.00728
1.00457
1.00181
0.999216
0.996982
0.99513
0.993511
0.992674
0.99188
0.991768
0.99209
0.992683
0.99394
0.995518
0.997467
0.999753
1.00249
1.00531
1.0085
1.01164
1.01516
1.0181
1.02149
1.02356
1.02582
1.02677
1.02725
1.02675
1.0256
1.02384
1.02125
1.01875
1.01557
1.01265
1.00938
1.00677
1.00356
1.00143
0.998896
0.997373
1.01068
1.0148
1.01585
1.01883
1.01903
1.01928
1.01814
1.01649
1.01403
1.01143
1.00837
1.00537
1.00234
0.99953
0.997104
0.995041
0.99325
0.992158
0.991414
0.991043
0.991405
0.992051
0.99312
0.994734
0.996649
0.998937
1.00163
1.00425
1.00723
1.01027
1.01309
1.0163
1.01846
1.02107
1.0227
1.02344
1.02401
1.02339
1.02214
1.02027
1.01757
1.01521
1.01205
1.00898
1.00597
1.00321
1.00053
0.998273
0.995991
0.994724
0.993269
1.01515
1.0166
1.01958
1.01952
1.02023
1.01928
1.01767
1.01517
1.01255
1.00936
1.00613
1.00307
1.00001
0.997314
0.995112
0.993059
0.9918
0.990976
0.990516
0.990829
0.991417
0.992463
0.994065
0.995989
0.998471
1.00087
1.00367
1.00652
1.00932
1.01225
1.01452
1.01746
1.01836
1.02094
1.02064
1.02134
1.02046
1.01903
1.01683
1.01384
1.01146
1.00811
1.00527
1.00218
0.999456
0.996995
0.994833
0.992812
0.991716
0.990458
0.990126
1.01722
1.02017
1.02003
1.02093
1.02009
1.01871
1.01618
1.01328
1.01002
1.00679
1.0036
1.00037
0.997625
0.995167
0.993045
0.991422
0.990618
0.989996
0.990295
0.990814
0.991869
0.99343
0.995429
0.997861
1.00041
1.0032
1.0062
1.00885
1.0116
1.01416
1.0158
1.01841
1.01826
1.01954
1.01881
1.01801
1.01635
1.01346
1.01057
1.00747
1.00396
1.00096
0.998059
0.995317
0.992811
0.991014
0.989276
0.988284
0.987289
0.987212
0.987375
1.02029
1.02099
1.02127
1.02037
1.01881
1.01645
1.01367
1.01047
1.00713
1.0038
1.00048
0.99759
0.995039
0.992895
0.991129
0.990219
0.989471
0.989726
0.990208
0.991213
0.99283
0.994844
0.997262
0.999983
1.00282
1.00582
1.00871
1.01133
1.01386
1.0159
1.01704
1.01846
1.01798
1.01765
1.01608
1.01376
1.01075
1.00754
1.00356
0.999253
0.996018
0.993015
0.990234
0.988044
0.986355
0.985193
0.98418
0.983595
0.983869
0.984358
0.985409
1.02144
1.02212
1.02081
1.01918
1.0167
1.01375
1.01017
1.00668
1.0032
1.00005
0.997122
0.994451
0.992435
0.990884
0.989509
0.989003
0.988976
0.989411
0.990582
0.992199
0.994229
0.99657
0.999474
1.00233
1.00553
1.00848
1.01138
1.01397
1.01587
1.01732
1.01824
1.01781
1.01725
1.01517
1.01218
1.00838
1.00412
0.99955
0.994621
0.990313
0.987048
0.984007
0.982092
0.98074
0.979652
0.979269
0.979476
0.979927
0.980731
0.982024
0.984147
1.02331
1.02165
1.01959
1.01652
1.01325
1.00924
1.00546
1.00167
0.998589
0.995642
0.993219
0.99127
0.989673
0.988663
0.988056
0.988158
0.988624
0.989742
0.991367
0.993396
0.995951
0.998647
1.00187
1.00491
1.0083
1.01129
1.0142
1.01628
1.01762
1.01858
1.0184
1.01765
1.0159
1.01228
1.00818
1.0035
0.996799
0.989828
0.984641
0.979222
0.975889
0.974054
0.972953
0.972615
0.972887
0.973956
0.974778
0.976247
0.978313
0.980643
0.983458
1.02313
1.02043
1.01683
1.01279
1.00772
1.00315
0.999192
0.996135
0.992995
0.990704
0.988954
0.987668
0.987037
0.986908
0.986792
0.987475
0.988644
0.990367
0.992438
0.994926
0.9979
1.00095
1.00448
1.00768
1.01118
1.01398
1.01664
1.01812
1.01933
1.0192
1.01915
1.01698
1.01693
1.0095
1.00805
1.00463
0.998198
0.986028
0.975943
0.967934
0.963544
0.961611
0.962627
0.964028
0.965775
0.96815
0.970604
0.973228
0.976127
0.979571
0.983393
1.02307
1.01845
1.01387
1.0071
1.00089
0.995272
0.991023
0.987967
0.986239
0.98496
0.984057
0.98398
0.984264
0.98479
0.98581
0.987196
0.988975
0.99126
0.993841
0.996666
1.0001
1.00338
1.00716
1.01032
1.01379
1.01645
1.01885
1.01983
1.02045
1.02069
1.02075
1.0186
1.02671
1.01787
1.0376
1.06538
1.05933
1.03998
0.999931
0.97037
0.954997
0.950356
0.951116
0.954613
0.958831
0.962988
0.967059
0.970856
0.97484
0.979141
0.983725
1.02285
1.01964
1.01658
1.00762
0.995808
0.987713
0.981599
0.978339
0.977401
0.978134
0.97902
0.979993
0.98143
0.983088
0.984963
0.98719
0.989636
0.992417
0.995479
0.998701
1.00224
1.00579
1.0097
1.01285
1.01612
1.01859
1.02022
1.02147
1.0231
1.02306
1.02926
1.0325
1.07746
1.09262
1.2411
1.39007
1.37633
1.33801
1.20765
1.04972
0.972317
0.944835
0.940239
0.944056
0.950005
0.956495
0.962622
0.968447
0.973769
0.979312
0.984739
1.03162
1.05271
1.07856
1.05875
1.04468
0.99853
0.979225
0.969744
0.967801
0.969194
0.972279
0.975509
0.978744
0.981554
0.984285
0.987189
0.990298
0.99369
0.99714
1.00081
1.00441
1.00835
1.0117
1.01544
1.01813
1.02004
1.02201
1.02459
1.02943
1.03454
1.06489
1.12442
1.2716
1.57022
1.73514
1.78761
1.74331
1.64223
1.56482
1.3092
1.07369
0.967218
0.937696
0.936154
0.943439
0.951523
0.958932
0.965972
0.972642
0.97921
0.985716
1.12933
1.30066
1.39771
1.35136
1.32566
1.14238
1.02367
0.975203
0.960723
0.961537
0.965152
0.97029
0.97525
0.979628
0.983679
0.987513
0.99132
0.994988
0.998823
1.0026
1.00641
1.01035
1.01375
1.01729
1.01935
1.02199
1.0256
1.03442
1.05533
1.09493
1.22508
1.55602
1.78805
1.92865
1.93985
1.88585
1.80392
1.69623
1.54739
1.37931
1.15456
1.01676
0.954136
0.936388
0.938597
0.947364
0.956401
0.96453
0.972142
0.979601
0.986726
1.66348
1.79898
1.80675
1.74776
1.61087
1.46752
1.20334
1.04193
0.975446
0.959782
0.96026
0.966636
0.972835
0.978135
0.98306
0.987782
0.992254
0.996459
1.00052
1.00451
1.00818
1.01202
1.01559
1.01817
1.02113
1.02584
1.03727
1.08882
1.15807
1.34794
1.75821
1.95956
2.00408
1.98788
1.94483
1.88374
1.8008
1.64836
1.46985
1.25205
1.10283
0.994964
0.946091
0.931674
0.934628
0.943268
0.953324
0.962767
0.971695
0.979924
0.987799
1.99738
1.97808
1.91719
1.82327
1.70608
1.51915
1.25588
1.07202
0.988322
0.959062
0.955448
0.961308
0.969605
0.976557
0.982578
0.988146
0.993171
0.997671
1.00177
1.00591
1.00935
1.01348
1.01624
1.01951
1.02498
1.03952
1.10456
1.32007
1.52672
1.89178
2.04005
2.03041
2.00859
1.97776
1.93294
1.87209
1.78861
1.67631
1.46886
1.20129
1.02884
0.966779
0.933111
0.923477
0.928866
0.938939
0.950445
0.961234
0.97104
0.98005
0.988476
2.0332
1.99024
1.93028
1.848
1.71309
1.54088
1.27883
1.07479
0.988343
0.958546
0.95237
0.95778
0.966502
0.975021
0.982184
0.988378
0.993746
0.998532
1.00274
1.00698
1.01052
1.01373
1.01698
1.02296
1.03838
1.1222
1.45662
1.82717
2.00178
2.04254
2.03599
2.02079
1.99815
1.96854
1.92461
1.8721
1.79825
1.6871
1.52335
1.28775
1.02666
0.946066
0.921353
0.917521
0.924846
0.935804
0.947766
0.959393
0.970005
0.979606
0.988627
2.03259
1.99016
1.93351
1.85805
1.74531
1.57282
1.36303
1.10537
0.991586
0.957234
0.949131
0.955035
0.963774
0.973125
0.981334
0.988279
0.994203
0.999251
1.00352
1.00764
1.01075
1.01379
1.01994
1.04094
1.11744
1.61013
1.99534
2.02895
2.0374
2.0383
2.02494
2.00857
1.98532
1.95661
1.91514
1.86616
1.80011
1.71034
1.56901
1.37004
1.12337
0.947978
0.918329
0.914008
0.922913
0.933775
0.945919
0.958079
0.969275
0.979352
0.988956
2.02971
1.98824
1.93775
1.86883
1.7697
1.62184
1.42253
1.19812
1.01196
0.963365
0.951017
0.953723
0.962633
0.971303
0.98023
0.987868
0.994188
0.999402
1.00396
1.00807
1.01084
1.01695
1.03323
1.19169
1.8203
2.00495
2.03306
2.03844
2.03697
2.02722
2.01526
1.99655
1.97357
1.94598
1.90787
1.86392
1.80507
1.72353
1.60018
1.42754
1.20977
0.991931
0.916269
0.916798
0.922271
0.933764
0.945093
0.95743
0.968816
0.9792
0.989214
2.02451
1.98573
1.93991
1.8782
1.79491
1.66945
1.4945
1.27945
1.06727
0.970072
0.950462
0.955141
0.962023
0.970654
0.979765
0.987754
0.994462
1
1.00484
1.00746
1.01106
1.07367
1.46894
1.85716
1.99683
2.03075
2.03553
2.03145
2.0274
2.01541
2.00186
1.98356
1.96037
1.93508
1.90173
1.86386
1.81428
1.74156
1.63366
1.47653
1.27941
1.06727
0.931863
0.91787
0.929463
0.933913
0.945454
0.957577
0.968851
0.979862
0.992866
2.01845
1.98451
1.94437
1.89409
1.82325
1.71509
1.55498
1.34998
1.12813
0.981849
0.956297
0.955542
0.963259
0.971497
0.980494
0.988401
0.995208
1.00128
1.01177
1.08356
1.3998
1.69216
1.89423
1.99099
2.0245
2.02983
2.02809
2.0222
2.01487
2.00269
1.9877
1.96937
1.94758
1.92516
1.8976
1.86725
1.83051
1.77388
1.68388
1.54692
1.36201
1.15242
0.983779
0.923417
0.932202
0.939927
0.95169
0.967968
0.99477
1.0496
1.14176
2.01261
1.98527
1.95217
1.91664
1.86688
1.79285
1.66758
1.48042
1.24717
1.03127
0.973808
0.958035
0.971484
0.974886
0.983829
0.991785
0.999881
1.02156
1.1369
1.55672
1.82949
1.93692
1.99026
2.015
2.02192
2.02094
2.01572
2.01128
2.00094
1.98837
1.97222
1.95531
1.93514
1.9155
1.89484
1.87192
1.84809
1.81288
1.7526
1.64753
1.4922
1.29793
1.11076
0.948504
0.989241
0.9902
1.02248
1.10523
1.26881
1.44918
1.61598
2.00579
1.98363
1.95916
1.93401
1.90512
1.86484
1.80228
1.6969
1.52552
1.30158
1.08759
1.0343
0.981945
1.00084
1.00217
1.01412
1.05082
1.21488
1.6193
1.89238
1.9517
1.99385
2.00358
2.01103
2.01118
2.00981
2.00259
1.99741
1.986
1.97288
1.95669
1.94069
1.92342
1.90674
1.8917
1.87604
1.86115
1.84367
1.81592
1.76982
1.69363
1.58145
1.43835
1.34768
1.29635
1.32267
1.40389
1.56721
1.68868
1.76407
1.86315
1.99929
1.98094
1.96382
1.94661
1.93035
1.90915
1.87815
1.82757
1.7431
1.60878
1.43728
1.2699
1.18115
1.12882
1.14197
1.20492
1.41295
1.70973
1.92375
1.96217
1.98974
1.99805
2.00165
2.00189
1.99932
1.99652
1.98916
1.98187
1.9699
1.95658
1.94212
1.92697
1.9128
1.89959
1.88851
1.87842
1.86964
1.86144
1.84877
1.8306
1.80261
1.76155
1.71008
1.67401
1.66272
1.68231
1.73215
1.80023
1.85122
1.8842
1.92487
1.99565
1.98279
1.97135
1.96125
1.95216
1.94262
1.92877
1.90993
1.87932
1.82951
1.75169
1.65998
1.59117
1.58493
1.59267
1.67011
1.8259
1.91981
1.9777
1.98181
1.99051
1.9922
1.99266
1.98995
1.98746
1.98087
1.97447
1.96492
1.95336
1.94044
1.92784
1.91512
1.90396
1.89437
1.88724
1.88164
1.87734
1.87339
1.86818
1.86062
1.84965
1.83538
1.81961
1.80994
1.81155
1.82075
1.8441
1.86768
1.88933
1.90948
1.93063
1.99422
1.9854
1.97845
1.97349
1.96942
1.96535
1.9607
1.95345
1.94316
1.93016
1.90961
1.88011
1.86407
1.8609
1.86939
1.90342
1.95803
1.9727
1.98289
1.98317
1.9844
1.98301
1.98154
1.97685
1.97314
1.96525
1.95746
1.94781
1.93658
1.92508
1.91471
1.90484
1.89694
1.89138
1.88799
1.88572
1.88527
1.88388
1.88181
1.87761
1.87144
1.8637
1.85558
1.85022
1.85107
1.85619
1.86513
1.87796
1.89113
1.90565
1.92129
1.9956
1.99113
1.98837
1.98655
1.98741
1.98389
1.98386
1.98001
1.97575
1.97028
1.96461
1.95699
1.95351
1.95351
1.95778
1.96824
1.97781
1.97996
1.97953
1.97717
1.97581
1.97244
1.96916
1.96284
1.95679
1.94863
1.9398
1.93046
1.92022
1.91075
1.90268
1.89604
1.8915
1.8893
1.88952
1.8897
1.89187
1.89207
1.89123
1.88826
1.8828
1.87483
1.868
1.8601
1.85818
1.85909
1.86293
1.87167
1.88174
1.89403
1.9077
1.99969
1.99892
1.99953
2.00105
2.00315
2.00272
2.00229
2.00004
1.99654
1.99231
1.9883
1.98325
1.97948
1.97756
1.97721
1.97802
1.97837
1.97662
1.97338
1.96944
1.96549
1.96061
1.95466
1.94724
1.9399
1.93119
1.92215
1.91328
1.90499
1.89759
1.89218
1.88867
1.88748
1.88798
1.89066
1.89368
1.8968
1.89787
1.89755
1.89442
1.88808
1.87931
1.86984
1.86086
1.85401
1.85266
1.85435
1.85976
1.86853
1.87914
1.89188
2.00605
2.00839
2.01058
2.01673
2.01776
2.0197
2.01865
2.01636
2.01273
2.00729
2.00256
1.99549
1.98984
1.98567
1.98203
1.97887
1.97544
1.97101
1.96593
1.96031
1.95399
1.94714
1.93929
1.93099
1.9226
1.9136
1.90477
1.89718
1.89086
1.88598
1.88323
1.88255
1.88445
1.88707
1.89186
1.89655
1.90026
1.90142
1.90098
1.89688
1.88901
1.87892
1.86662
1.85555
1.84549
1.84155
1.84146
1.84427
1.85194
1.86156
1.87351
2.01365
2.01884
2.02419
2.02934
2.03282
2.03364
2.03305
2.02969
2.02503
2.01837
2.01171
2.00278
1.99539
1.98879
1.98263
1.97694
1.971
1.96441
1.95749
1.94978
1.94153
1.93293
1.92352
1.91451
1.90562
1.89622
1.88882
1.88229
1.87818
1.87596
1.87566
1.87746
1.88152
1.88632
1.89254
1.89806
1.9018
1.90287
1.9013
1.896
1.88643
1.8739
1.85939
1.84584
1.83384
1.82625
1.82432
1.82529
1.83169
1.84115
1.85246
2.02279
2.02933
2.03645
2.04185
2.04524
2.04584
2.0442
2.04008
2.03362
2.0258
2.0172
2.00679
1.99784
1.98923
1.98131
1.97335
1.96527
1.95688
1.94806
1.93845
1.9286
1.91838
1.90807
1.89843
1.88953
1.88031
1.87377
1.86933
1.86728
1.86708
1.86894
1.87316
1.87879
1.88512
1.89227
1.89786
1.90117
1.90162
1.8986
1.89166
1.88006
1.86559
1.84883
1.83266
1.81799
1.80754
1.80286
1.80309
1.80709
1.81667
1.82888
2.0321
2.03951
2.04749
2.0528
2.05503
2.05509
2.05237
2.04652
2.03889
2.02968
2.0194
2.00808
1.99767
1.98778
1.978
1.96843
1.95861
1.94859
1.93803
1.92695
1.91592
1.9046
1.89356
1.88337
1.87426
1.86653
1.86081
1.85819
1.85789
1.85935
1.86306
1.86889
1.87588
1.88303
1.89034
1.89563
1.898
1.89738
1.89259
1.8834
1.86987
1.85319
1.8344
1.81644
1.79958
1.78547
1.77805
1.77542
1.77883
1.78725
1.80227
2.04067
2.04806
2.05695
2.06056
2.06221
2.06076
2.05686
2.04951
2.04073
2.0302
2.01901
2.00676
1.99557
1.98435
1.97354
1.96267
1.95152
1.94006
1.9281
1.91606
1.90397
1.89188
1.88039
1.87016
1.86153
1.8546
1.85026
1.8488
1.8498
1.8526
1.85759
1.86435
1.87214
1.87938
1.88639
1.89069
1.8922
1.89006
1.88374
1.87295
1.85824
1.83979
1.81922
1.79857
1.77841
1.76038
1.74812
1.74459
1.74464
1.75249
1.77154
2.04768
2.05566
2.06269
2.06521
2.06568
2.0632
2.0573
2.04932
2.03905
2.02815
2.01599
2.00352
1.99162
1.97986
1.96819
1.95633
1.94425
1.93191
1.91913
1.90628
1.89347
1.88099
1.86943
1.85953
1.85124
1.845
1.8417
1.84106
1.84286
1.84667
1.85219
1.85927
1.86723
1.87416
1.88039
1.88353
1.88384
1.88027
1.87205
1.85897
1.8418
1.82142
1.79925
1.77735
1.75631
1.73599
1.71721
1.70564
1.70378
1.71065
1.73647
2.05262
2.0601
2.06499
2.06662
2.06538
2.06175
2.05443
2.0457
2.03475
2.02356
2.011
1.99882
1.98659
1.97461
1.96248
1.95015
1.9375
1.92459
1.91138
1.89818
1.88492
1.87246
1.86112
1.85139
1.84343
1.83781
1.83506
1.83482
1.83689
1.84105
1.84662
1.85346
1.86083
1.86715
1.87191
1.8738
1.8727
1.86765
1.85825
1.8447
1.82777
1.80747
1.78445
1.76038
1.73523
1.70816
1.68063
1.6593
1.65338
1.66062
1.69043
2.05501
2.06081
2.06394
2.06422
2.06177
2.05659
2.04864
2.03916
2.02836
2.01715
2.00493
1.99302
1.98106
1.96919
1.95697
1.94449
1.9317
1.91867
1.9053
1.89197
1.87875
1.86652
1.85542
1.84582
1.83815
1.83273
1.83006
1.82977
1.83164
1.83549
1.84059
1.84667
1.85299
1.8583
1.86156
1.86225
1.85991
1.8537
1.84337
1.82881
1.81029
1.78831
1.76388
1.73786
1.71061
1.68362
1.65411
1.61917
1.59633
1.59503
1.62875
2.05432
2.05811
2.05959
2.05859
2.05475
2.04864
2.04042
2.03074
2.02059
2.00957
1.99828
1.98691
1.97554
1.964
1.95205
1.93987
1.92729
1.91436
1.90109
1.88787
1.87499
1.86306
1.85211
1.84257
1.83499
1.82945
1.82637
1.82557
1.82686
1.82973
1.83392
1.83894
1.84386
1.84784
1.84973
1.84935
1.84597
1.83915
1.82873
1.8147
1.79744
1.7774
1.7546
1.72711
1.69602
1.66189
1.6225
1.57291
1.51684
1.48781
1.50222
1.03739
1.0373
1.03741
1.03795
1.03876
1.04
1.04142
1.04289
1.04426
1.04541
1.046
1.04623
1.04577
1.04472
1.04309
1.04097
1.03827
1.03555
1.03239
1.02939
1.02623
1.02332
1.02051
1.01792
1.01555
1.01341
1.03845
1.03736
1.03652
1.03593
1.03569
1.03576
1.03622
1.03681
1.03758
1.03825
1.03875
1.03888
1.03871
1.0381
1.03702
1.03553
1.03375
1.03174
1.02955
1.02739
1.02516
1.02312
1.02114
1.01936
1.01769
1.01614
1.03908
1.03714
1.03536
1.0338
1.03259
1.03167
1.03115
1.03096
1.03099
1.03119
1.03141
1.03152
1.03148
1.03121
1.03068
1.02983
1.02887
1.02771
1.02648
1.02524
1.02403
1.02288
1.02183
1.02084
1.01989
1.01896
1.03918
1.0365
1.03391
1.03153
1.0294
1.02769
1.02629
1.02533
1.02472
1.0244
1.02431
1.02432
1.02435
1.02436
1.02428
1.02414
1.02391
1.02362
1.02337
1.02311
1.02288
1.02271
1.02254
1.02235
1.0221
1.02172
1.03865
1.03534
1.03213
1.02903
1.02618
1.02376
1.02167
1.02002
1.01884
1.01806
1.01765
1.01752
1.0176
1.01782
1.01816
1.01858
1.01913
1.01974
1.02037
1.02113
1.02183
1.02261
1.02328
1.02385
1.02419
1.02427
1.03746
1.03364
1.02989
1.02632
1.02289
1.01991
1.01724
1.01513
1.01343
1.01227
1.01157
1.01132
1.01142
1.01181
1.01257
1.01346
1.01481
1.01612
1.01775
1.01933
1.021
1.02262
1.02402
1.02523
1.02608
1.02651
1.03559
1.03137
1.02726
1.02333
1.01952
1.01616
1.01312
1.01061
1.0086
1.00711
1.00625
1.00588
1.00602
1.00658
1.00764
1.00913
1.01097
1.01314
1.01555
1.01794
1.0204
1.02276
1.02474
1.02646
1.02761
1.0283
1.03302
1.02852
1.02432
1.02005
1.01614
1.0125
1.00928
1.00654
1.00435
1.00273
1.00172
1.00133
1.00154
1.00229
1.00364
1.00563
1.00803
1.01082
1.01396
1.017
1.02008
1.02301
1.02536
1.02744
1.0287
1.0295
1.02965
1.0253
1.02094
1.01663
1.01274
1.009
1.00578
1.00296
1.00075
0.999084
0.998093
0.997781
0.998105
0.999045
1.0007
1.0031
1.00601
1.00931
1.01302
1.01655
1.02005
1.0233
1.02588
1.02799
1.02935
1.02993
1.02596
1.02159
1.01718
1.01322
1.00924
1.00579
1.00259
0.999921
0.997766
0.996275
0.99542
0.995222
0.995725
0.996938
0.998982
1.00157
1.00506
1.0086
1.01278
1.01655
1.02033
1.02348
1.0263
1.02813
1.02934
1.02975
1.02181
1.0175
1.01354
1.00956
1.00603
1.00272
0.999781
0.997456
0.99551
0.994276
0.993683
0.993698
0.994473
0.99599
0.998258
1.0013
1.00482
1.009
1.01296
1.01705
1.02063
1.0239
1.02619
1.02792
1.02869
1.02882
1.01719
1.0134
1.00958
1.00616
1.00287
1
0.99755
0.995477
0.994002
0.993126
0.992814
0.993229
0.994248
0.996118
0.998621
1.00198
1.00581
1.00964
1.01407
1.01766
1.02123
1.02387
1.02604
1.02708
1.02754
1.02722
1.01263
1.00906
1.00588
1.00276
1.00014
0.997644
0.995784
0.994129
0.993261
0.992767
0.992872
0.993661
0.995128
0.997203
1.00007
1.00356
1.0071
1.01152
1.01501
1.01879
1.0215
1.02395
1.02522
1.02594
1.02578
1.025
1.0081
1.00493
1.00225
0.99979
0.997624
0.995825
0.994487
0.993617
0.993152
0.993179
0.993855
0.995047
0.996783
0.999281
1.00221
1.00572
1.00938
1.01317
1.01661
1.01946
1.02201
1.02335
1.02429
1.02423
1.02351
1.02234
1.00337
1.00124
0.998846
0.997235
0.995561
0.994672
0.99381
0.993653
0.993774
0.994469
0.995527
0.997218
0.999297
1.00198
1.00493
1.00844
1.0117
1.01519
1.01787
1.02038
1.02177
1.02282
1.02275
1.02209
1.02096
1.01918
0.999559
0.997481
0.996253
0.994925
0.99436
0.99384
0.993998
0.994348
0.995202
0.996401
0.998001
0.999972
1.00235
1.00522
1.00782
1.01163
1.01397
1.01692
1.01931
1.02051
1.02158
1.02146
1.02097
1.01969
1.01793
1.01573
0.995629
0.994683
0.993796
0.993487
0.993496
0.993881
0.994718
0.995832
0.99728
0.999023
1.00109
1.00334
1.00576
1.00873
1.01109
1.01425
1.01623
1.01874
1.0197
1.02069
1.0205
1.02001
1.01857
1.01685
1.01465
1.01232
0.992686
0.992112
0.992225
0.992593
0.993419
0.994642
0.996155
0.99806
1.00001
1.00221
1.00459
1.00706
1.00967
1.01181
1.01488
1.01629
1.01841
1.01942
1.02014
1.01974
1.01917
1.01772
1.01596
1.01356
1.01133
1.00868
0.989977
0.990432
0.991223
0.992415
0.994225
0.996023
0.998394
1.00078
1.00338
1.00595
1.00854
1.01096
1.01346
1.01524
1.01758
1.01848
1.01967
1.01991
1.01936
1.01851
1.01682
1.01495
1.01255
1.01022
1.00755
1.00521
0.988175
0.989326
0.991018
0.993088
0.995522
0.99833
1.00121
1.00428
1.00712
1.01012
1.0127
1.01507
1.0173
1.01808
1.0203
1.0197
1.02029
1.01934
1.01815
1.01599
1.01377
1.01132
1.00869
1.00636
1.00398
1.00163
0.98691
0.989103
0.991528
0.99449
0.997702
1.00114
1.00474
1.00811
1.01145
1.0145
1.017
1.01896
1.02084
1.02104
1.02182
1.02077
1.01948
1.01779
1.01519
1.01232
1.00962
1.00682
1.00445
1.00211
0.999949
0.998383
0.986534
0.989436
0.992758
0.996579
1.00042
1.00467
1.00881
1.01237
1.0159
1.01909
1.02129
1.023
1.02367
1.02328
1.02279
1.02059
1.0178
1.01474
1.01099
1.00719
1.00389
1.00137
0.999075
0.997638
0.996147
0.995181
0.986745
0.990541
0.994601
0.999271
1.00388
1.00849
1.01324
1.01697
1.02067
1.02371
1.02531
1.02629
1.02634
1.02562
1.02389
1.02129
1.01768
1.01161
1.00595
1.00046
0.996697
0.994377
0.992819
0.992278
0.992009
0.99213
0.987616
0.992209
0.997031
1.00243
1.00755
1.01292
1.01769
1.02159
1.02544
1.02764
1.02904
1.03091
1.02996
1.03111
1.03221
1.03479
1.03274
1.02119
1.00961
0.997267
0.988642
0.985511
0.984889
0.986079
0.987752
0.989755
0.988832
0.994336
0.999902
1.00588
1.01158
1.01739
1.02199
1.02684
1.02924
1.03248
1.03504
1.03984
1.03886
1.06355
1.09876
1.12286
1.13309
1.11389
1.0797
1.03105
0.99586
0.981318
0.977055
0.978775
0.982294
0.98632
0.990712
0.996746
1.00309
1.00921
1.01596
1.02146
1.02705
1.03006
1.03475
1.04074
1.04526
1.07073
1.10211
1.25926
1.39967
1.45991
1.52237
1.49259
1.40396
1.28644
1.09107
1.00456
0.979047
0.975379
0.979
0.984437
0.992409
0.99936
1.00618
1.0128
1.01978
1.02593
1.03012
1.03583
1.04549
1.06347
1.09375
1.19837
1.49285
1.76871
1.85983
1.88475
1.88904
1.8282
1.76185
1.59717
1.42341
1.14696
1.01216
0.977662
0.975869
0.982324
0.994137
1.0015
1.00898
1.01589
1.02366
1.02867
1.0356
1.04784
1.09395
1.15848
1.31581
1.70689
1.98571
2.04606
2.03776
2.01242
1.96474
1.88405
1.75664
1.63138
1.4765
1.2531
1.0901
1.01204
0.986519
0.984931
0.995782
1.00349
1.01151
1.0191
1.0257
1.03305
1.04859
1.10926
1.31579
1.55416
1.85889
2.08201
2.09935
2.08777
2.06221
2.02412
1.96546
1.87182
1.72645
1.53865
1.28164
1.17054
1.0659
1.00582
0.98604
0.986887
0.996979
1.00494
1.01353
1.02105
1.02837
1.04325
1.11762
1.46741
1.85767
2.03556
2.1073
2.11033
2.10563
2.08992
2.06319
2.02559
1.96798
1.88856
1.75445
1.52882
1.2538
1.07458
1.03193
0.997277
0.984977
0.989334
0.997478
1.00583
1.01509
1.02243
1.03521
1.11113
1.52905
2.05094
2.09514
2.11169
2.11723
2.11495
2.10376
2.08685
2.06069
2.02407
1.97175
1.89602
1.78081
1.59443
1.32547
1.06175
0.996744
0.987748
0.984193
0.991012
0.997705
1.00684
1.01649
1.02414
1.09882
1.78423
2.06067
2.09385
2.11013
2.1169
2.11759
2.11341
2.10161
2.08318
2.05741
2.02339
1.98115
1.92187
1.83638
1.69782
1.49052
1.21434
1.02274
0.989592
0.988333
0.997159
0.997698
1.01312
1.04022
1.2671
1.8189
2.0339
2.08668
2.10237
2.11104
2.11519
2.1144
2.10804
2.096
2.07749
2.05388
2.02326
1.98581
1.93631
1.86558
1.74949
1.58349
1.35984
1.12368
1.0103
0.99693
1.00483
1.02701
1.127
1.46093
1.843
2.01346
2.07017
2.09024
2.10103
2.1074
2.10995
2.10733
2.09973
2.08753
2.06995
2.0497
2.02406
1.99567
1.95723
1.90166
1.80507
1.64692
1.43291
1.18939
1.03623
1.00528
1.01067
1.33021
1.65387
1.87107
2.00595
2.04594
2.07251
2.08403
2.09489
2.09966
2.10089
2.09714
2.08915
2.07755
2.0621
2.0448
2.02612
2.00675
1.9843
1.95341
1.90625
1.81347
1.63527
1.38433
1.12911
1.04138
1.02034
1.74979
1.92549
1.9817
2.02514
2.04825
2.06451
2.07501
2.08484
2.08839
2.08833
2.08441
2.07662
2.0665
2.05399
2.04143
2.02947
2.01774
2.00598
1.98964
1.96536
1.92529
1.84848
1.70461
1.47391
1.21022
1.10126
1.9164
1.97409
2.00012
2.02372
2.03803
2.05265
2.06301
2.07119
2.07385
2.07339
2.06989
2.06325
2.05562
2.04654
2.03943
2.03383
2.03001
2.02708
2.02124
2.01346
2.00134
1.98007
1.93384
1.84729
1.71302
1.54698
1.95112
1.97676
1.99457
2.01083
2.02616
2.03771
2.04793
2.05484
2.05712
2.05688
2.05458
2.05028
2.04574
2.0411
2.03867
2.03731
2.03833
2.04079
2.04299
2.04368
2.04212
2.03974
2.04083
2.03401
2.02583
2.0163
1.94884
1.96577
1.98139
1.99691
2.01058
2.02122
2.03034
2.0365
2.03931
2.04001
2.03974
2.03833
2.0377
2.03771
2.04007
2.0434
2.04916
2.0549
2.05997
2.06517
2.06746
2.07042
2.07498
2.07819
2.08503
2.09856
1.93653
1.95162
1.96645
1.98067
1.99328
2.00284