/*--------------------------------*- C++ -*----------------------------------*\
  =========                 |
  \\      /  F ield         | OpenFOAM: The Open Source CFD Toolbox
   \\    /   O peration     | Website:  https://openfoam.org
    \\  /    A nd           | Version:  10
     \\/     M anipulation  |
\*---------------------------------------------------------------------------*/
FoamFile
{
    format      ascii;
    class       volScalarField;
    location    "0.151022";
    object      T;
}
// * * * * * * * * * * * * * * * * * * * * * * * * * * * * * * * * * * * * * //

dimensions      [0 0 0 1 0 0 0];

internalField   nonuniform List<scalar> 
15708
(
0.00854363
0.00854664
0.00855109
0.0085569
0.00856396
0.00857228
0.00858186
0.00859263
0.00860465
0.00861767
0.00863187
0.0086469
0.0086629
0.00867975
0.00869751
0.00871619
0.00873586
0.00875647
0.00877792
0.00879997
0.00882224
0.00884418
0.00886512
0.00888435
0.00890129
0.00891538
0.00892631
0.00893401
0.00893853
0.0089398
0.00893897
0.00893587
0.00893047
0.00892439
0.00891677
0.00890883
0.00890058
0.008893
0.00888562
0.00887911
0.0088733
0.00886839
0.00886409
0.0088606
0.00885736
0.0088546
0.00885205
0.00884954
0.00884716
0.00884504
0.00884302
0.00854927
0.00855266
0.00855752
0.00856387
0.00857172
0.00858088
0.00859146
0.00860322
0.00861614
0.00863003
0.00864458
0.00865966
0.00867528
0.00869101
0.00870728
0.00872368
0.00874056
0.00875795
0.00877583
0.00879418
0.00881283
0.00883147
0.00884964
0.0088668
0.00888242
0.00889602
0.0089071
0.00891563
0.00892146
0.00892471
0.00892535
0.00892453
0.00892185
0.0089177
0.00891276
0.00890731
0.0089017
0.00889617
0.00889142
0.00888672
0.00888305
0.0088797
0.00887671
0.00887411
0.00887138
0.00886855
0.00886543
0.00886191
0.00885794
0.0088537
0.00884933
0.00855508
0.00855874
0.00856428
0.00857124
0.00857989
0.00859005
0.00860174
0.00861429
0.0086284
0.00864253
0.00865768
0.00867245
0.00868753
0.00870214
0.00871666
0.0087308
0.00874497
0.00875918
0.00877353
0.00878819
0.00880317
0.00881833
0.00883346
0.00884815
0.00886203
0.00887457
0.00888544
0.00889445
0.00890132
0.00890613
0.00890896
0.00890994
0.0089098
0.00890817
0.00890614
0.00890347
0.00890053
0.00889777
0.00889529
0.00889337
0.00889118
0.00888972
0.00888829
0.00888625
0.00888395
0.0088809
0.00887713
0.00887247
0.00886699
0.00886077
0.00885404
0.00856204
0.00856586
0.00857158
0.00857936
0.00858903
0.00860025
0.00861286
0.00862639
0.00864121
0.0086558
0.00867085
0.00868541
0.00869942
0.00871278
0.00872545
0.00873723
0.00874864
0.00875972
0.0087707
0.0087818
0.00879319
0.00880487
0.00881685
0.00882879
0.00884063
0.00885181
0.00886202
0.00887107
0.00887873
0.00888479
0.00888952
0.00889284
0.00889499
0.00889635
0.00889707
0.00889733
0.00889743
0.00889753
0.00889783
0.00889814
0.00889821
0.00889818
0.00889755
0.00889655
0.00889451
0.00889126
0.00888666
0.00888057
0.00887355
0.00886549
0.00885667
0.00856959
0.00857289
0.00858037
0.0085889
0.00859935
0.0086118
0.0086251
0.00863963
0.00865453
0.00866954
0.00868407
0.00869803
0.00871083
0.00872247
0.0087331
0.0087426
0.0087513
0.00875942
0.00876718
0.00877492
0.0087829
0.00879126
0.00880011
0.00880939
0.00881895
0.00882845
0.00883777
0.0088466
0.00885464
0.00886196
0.00886816
0.00887363
0.00887835
0.00888241
0.00888601
0.00888939
0.00889262
0.00889581
0.00889863
0.00890143
0.00890348
0.0089049
0.00890517
0.00890441
0.00890224
0.00889827
0.00889248
0.00888658
0.00887735
0.00886758
0.0088568
0.00857778
0.00858203
0.00859033
0.00859964
0.00861129
0.0086245
0.00863825
0.00865392
0.00866827
0.00868354
0.00869703
0.00870994
0.00872127
0.00873117
0.0087394
0.00874658
0.00875263
0.00875789
0.00876272
0.00876742
0.00877233
0.00877769
0.00878367
0.00879043
0.00879759
0.00880556
0.00881373
0.00882193
0.00883059
0.0088381
0.00884598
0.00885347
0.00886044
0.00886725
0.00887381
0.00888033
0.00888652
0.00889266
0.00889797
0.00890292
0.00890679
0.0089093
0.00890996
0.00890929
0.00890704
0.00890254
0.00889649
0.00888746
0.00887758
0.00886688
0.00885419
0.00858695
0.00859219
0.00860155
0.00861157
0.00862503
0.00863785
0.00865356
0.00866794
0.00868328
0.00869681
0.00870979
0.00872099
0.00873025
0.00873838
0.00874414
0.00874894
0.00875253
0.00875516
0.00875738
0.00875934
0.00876151
0.00876429
0.00876791
0.00877206
0.00877752
0.00878392
0.00879018
0.00879864
0.00880675
0.00881497
0.00882436
0.00883337
0.00884238
0.00885174
0.00886139
0.00887059
0.00887956
0.00888832
0.00889609
0.00890254
0.00890778
0.00891101
0.00891206
0.00891121
0.00890807
0.00890297
0.0088955
0.00888607
0.00887522
0.00886156
0.00884966
0.00859746
0.00860386
0.00861419
0.00862593
0.00863865
0.00865413
0.00866829
0.00868365
0.00869718
0.00871052
0.00872118
0.0087309
0.00873788
0.00874372
0.00874709
0.00874954
0.00875094
0.00875106
0.00875094
0.00875081
0.00875075
0.00875144
0.00875295
0.00875506
0.00875904
0.00876383
0.00876909
0.00877683
0.00878464
0.0087936
0.00880354
0.00881438
0.00882549
0.0088368
0.00884871
0.00886092
0.00887229
0.00888292
0.00889284
0.00890064
0.00890625
0.00891036
0.00891081
0.00890974
0.00890576
0.00889993
0.00889155
0.00888084
0.00886904
0.00885445
0.0088416
0.00860862
0.00861778
0.0086279
0.00864124
0.00865525
0.00866975
0.00868478
0.00869857
0.00871174
0.00872244
0.00873201
0.00873886
0.00874378
0.00874722
0.00874833
0.00874848
0.00874773
0.00874598
0.00874373
0.0087421
0.00873946
0.00873953
0.00873883
0.00873987
0.0087424
0.00874541
0.00875085
0.00875743
0.00876515
0.00877489
0.00878517
0.00879714
0.00880965
0.00882407
0.00883685
0.00885182
0.00886453
0.00887716
0.0088883
0.00889624
0.00890308
0.00890603
0.00890638
0.00890474
0.00889996
0.0088925
0.0088837
0.00887155
0.00885906
0.00884499
0.00882897
0.00862204
0.0086315
0.00864486
0.00865656
0.00867283
0.00868655
0.0087008
0.00871393
0.00872473
0.00873377
0.00874043
0.00874555
0.00874786
0.0087485
0.00874785
0.00874593
0.00874341
0.00873937
0.00873648
0.0087322
0.00872989
0.00872751
0.00872581
0.00872649
0.00872804
0.00873019
0.00873557
0.00874054
0.00874954
0.00875855
0.00876986
0.00878287
0.00879704
0.00881166
0.00882792
0.00884229
0.00885747
0.00887129
0.00888099
0.00889181
0.00889603
0.00889978
0.00889831
0.0088958
0.00889039
0.00888226
0.00887161
0.00885944
0.00884606
0.0088316
0.00881634
0.00863716
0.0086477
0.00866112
0.00867541
0.00868965
0.00870392
0.00871645
0.00872802
0.00873681
0.0087431
0.0087483
0.00874952
0.00874988
0.0087484
0.0087457
0.00874194
0.00873773
0.00873231
0.0087281
0.00872292
0.00872047
0.008716
0.0087156
0.00871444
0.00871572
0.00871793
0.00872285
0.00872739
0.00873707
0.00874619
0.00875826
0.00877171
0.00878671
0.00880236
0.00882019
0.00883399
0.00885175
0.00886286
0.00887589
0.00888252
0.00888862
0.0088894
0.00888763
0.00888453
0.00887657
0.00886856
0.00885688
0.00884429
0.008831
0.0088155
0.00880242
0.00865249
0.00866463
0.00868079
0.00869122
0.00870861
0.00871987
0.00873207
0.00874064
0.00874719
0.00875143
0.00875259
0.00875218
0.00875056
0.00874647
0.00874176
0.00873678
0.00873108
0.00872519
0.00871869
0.00871526
0.00870956
0.00870799
0.00870501
0.00870508
0.00870622
0.00870837
0.00871269
0.00871941
0.00872746
0.00873736
0.00875012
0.00876394
0.00877947
0.00879679
0.00881146
0.00883063
0.00884221
0.00885825
0.00886565
0.00887488
0.0088767
0.00887725
0.00887485
0.00886932
0.0088614
0.0088514
0.00884037
0.00882577
0.00881362
0.00879974
0.00878406
0.00866928
0.00868404
0.0086956
0.00871359
0.00872261
0.00873723
0.00874446
0.00875232
0.00875579
0.00875647
0.00875634
0.00875271
0.00874934
0.00874304
0.00873683
0.00873043
0.00872358
0.0087172
0.00871136
0.00870557
0.00870196
0.00869958
0.00869694
0.00869752
0.00869924
0.00870172
0.00870709
0.00871272
0.00872223
0.00873237
0.00874524
0.00875935
0.00877565
0.00879101
0.00880922
0.00882217
0.00883918
0.00884792
0.00885903
0.00886215
0.008865
0.00886378
0.00885813
0.00885264
0.00884329
0.00883279
0.00882057
0.00880732
0.0087942
0.00878122
0.00876738
0.00868731
0.0087
0.00871821
0.00872608
0.00874193
0.00874941
0.00875767
0.00876076
0.00876205
0.00876069
0.00875716
0.00875188
0.00874623
0.00873834
0.00873083
0.00872336
0.00871634
0.00870881
0.0087039
0.00869721
0.00869554
0.00869174
0.00869205
0.00869192
0.00869414
0.00869772
0.00870396
0.00871019
0.00871986
0.00873131
0.00874346
0.00875854
0.00877257
0.00879086
0.00880278
0.00882156
0.00882978
0.00884257
0.00884691
0.00885165
0.00885014
0.00884728
0.00884227
0.00883285
0.00882367
0.00881293
0.00879892
0.00878812
0.00877493
0.00876082
0.00875099
0.00870342
0.00872053
0.00873085
0.0087471
0.00875342
0.00876316
0.00876576
0.00876801
0.00876676
0.00876148
0.00875718
0.00874916
0.00874146
0.00873283
0.00872405
0.00871655
0.00870805
0.00870219
0.00869478
0.00869263
0.0086878
0.00868773
0.00868723
0.0086887
0.00869202
0.00869703
0.00870223
0.00871176
0.00872053
0.00873232
0.00874537
0.00875832
0.00877425
0.00878777
0.00880379
0.00881383
0.00882696
0.0088315
0.00883824
0.0088369
0.00883535
0.00883139
0.00882198
0.00881312
0.00880367
0.00879036
0.00877894
0.00876619
0.00875399
0.0087451
0.00873033
0.0087225
0.0087346
0.00875124
0.00875695
0.00876885
0.00877087
0.00877408
0.00877218
0.00876815
0.0087626
0.00875367
0.00874535
0.00873675
0.0087257
0.0087169
0.00870833
0.00870197
0.00869355
0.00869045
0.00868504
0.00868452
0.00868367
0.00868489
0.00868766
0.00869215
0.00869687
0.0087055
0.00871423
0.00872421
0.0087355
0.00874796
0.00876252
0.00877466
0.00879056
0.0087977
0.0088149
0.00881634
0.00882497
0.0088248
0.00882413
0.00882037
0.00881082
0.00880369
0.00879269
0.00878133
0.0087691
0.00875825
0.00874428
0.00873674
0.00872311
0.00871758
0.00873563
0.00875364
0.00876043
0.00877378
0.00877559
0.00877953
0.00877761
0.00877473
0.00876797
0.00875958
0.00875
0.00874072
0.00872909
0.00871909
0.00871005
0.00870145
0.00869386
0.00868919
0.00868301
0.00868209
0.00868097
0.00868131
0.00868497
0.00868808
0.00869389
0.00870109
0.0087098
0.00871845
0.00872983
0.00874077
0.00875411
0.00876482
0.00877962
0.00878736
0.00880096
0.00880573
0.00881268
0.00881355
0.00881327
0.00880917
0.00880166
0.0087947
0.00878207
0.00877235
0.00875901
0.00874878
0.00873429
0.00872753
0.00871465
0.00870911
0.008699
0.00875579
0.00875944
0.0087815
0.00877732
0.00878515
0.00878204
0.00878072
0.00877418
0.00876678
0.00875529
0.00874502
0.00873319
0.00872259
0.00871246
0.0087026
0.00869416
0.0086886
0.00868264
0.00867962
0.00867951
0.0086789
0.00868135
0.00868589
0.0086911
0.00869835
0.00870652
0.00871467
0.0087261
0.00873639
0.0087473
0.0087603
0.00876864
0.00878326
0.00878917
0.00879672
0.00880386
0.00880316
0.00880332
0.00879965
0.00879295
0.00878641
0.00877234
0.00876243
0.00875055
0.00873858
0.00872609
0.0087158
0.00870566
0.00870008
0.00869039
0.00868743
0.00876184
0.00878182
0.00877936
0.00879163
0.00878667
0.00878559
0.00877993
0.00877312
0.00876097
0.00875034
0.00873849
0.00872571
0.00871506
0.00870477
0.00869487
0.00868917
0.00868256
0.00867847
0.0086777
0.00867651
0.00867882
0.00868337
0.00868871
0.00869611
0.00870279
0.00871348
0.00872308
0.00873354
0.00874481
0.00875428
0.00876755
0.00877183
0.00878909
0.0087856
0.008798
0.00879402
0.00879482
0.00879089
0.00878502
0.00877953
0.00876421
0.00875506
0.0087408
0.00872942
0.00871697
0.00870553
0.00869572
0.00868956
0.00868061
0.00867864
0.00867438
0.00878161
0.00878061
0.00879474
0.00878971
0.00878946
0.0087829
0.00877727
0.00876727
0.00875648
0.00874332
0.00872977
0.00871857
0.00870646
0.00869647
0.00868913
0.00868364
0.00867757
0.0086767
0.00867459
0.00867656
0.0086806
0.00868636
0.00869346
0.00870116
0.00871119
0.00872145
0.00873094
0.00874339
0.00875346
0.00876246
0.00877548
0.00877476
0.00879122
0.00878761
0.00879177
0.00878829
0.00878268
0.0087792
0.00876888
0.00875728
0.00874723
0.00873295
0.00871933
0.00870715
0.0086968
0.00868495
0.00867794
0.00867018
0.00866849
0.00866496
0.00866543
0.00878512
0.00879336
0.00879388
0.00879437
0.00879003
0.00878281
0.00877199
0.00876004
0.00874683
0.00873344
0.0087216
0.0087093
0.00869852
0.00868969
0.0086838
0.00867713
0.00867599
0.00867312
0.00867453
0.0086784
0.00868345
0.00869066
0.00869907
0.00870855
0.00871947
0.0087302
0.00874156
0.00875336
0.00876269
0.00877147
0.00878187
0.00878225
0.00879031
0.00878784
0.00878563
0.00877989
0.0087717
0.00875828
0.00874834
0.00874034
0.00872468
0.0087104
0.00869841
0.00868615
0.00867493
0.00866499
0.00865995
0.00865752
0.00865409
0.00865469
0.00865735
0.00879713
0.00879405
0.00879715
0.00879214
0.00878484
0.00877384
0.00876365
0.00875051
0.00873754
0.00872353
0.00871083
0.00870049
0.00868987
0.00868134
0.00867792
0.00867383
0.00867259
0.00867373
0.00867539
0.0086802
0.00868728
0.00869682
0.00870555
0.00871767
0.00872826
0.00874083
0.00875214
0.00876254
0.00877356
0.00878171
0.00878592
0.00879168
0.00878864
0.00878595
0.00877851
0.0087685
0.0087545
0.00873899
0.00872699
0.00871403
0.00869794
0.00868711
0.00867346
0.00866177
0.00865455
0.00864779
0.00864239
0.00864127
0.0086433
0.00864771
0.00865164
0.00879503
0.00879908
0.00879428
0.00878824
0.00877546
0.00876543
0.00875189
0.00873972
0.00872429
0.00871186
0.00869984
0.00868934
0.00868189
0.00867578
0.00867284
0.00867054
0.00867129
0.00867322
0.00867757
0.0086845
0.00869242
0.00870371
0.0087137
0.00872734
0.00873833
0.00875135
0.00876174
0.00877401
0.00878546
0.00879126
0.00879581
0.00879377
0.0087861
0.00877835
0.0087603
0.00873669
0.00872317
0.008712
0.0086918
0.00868514
0.00867265
0.00865844
0.00864795
0.00863943
0.0086333
0.00862669
0.00862816
0.00863034
0.00863333
0.00864019
0.00864904
0.00880284
0.00879913
0.00878965
0.0087759
0.0087663
0.00875259
0.00873689
0.00871884
0.00870799
0.00869638
0.00868651
0.00867903
0.00867218
0.00866722
0.00866849
0.0086686
0.00867088
0.00867457
0.00868118
0.00868975
0.00869903
0.00871152
0.00872228
0.00873702
0.00874833
0.00876299
0.00877403
0.00878834
0.00879603
0.00880404
0.00879913
0.0087971
0.00875844
0.00876354
0.00869775
0.00863714
0.00859232
0.0086026
0.00861254
0.00862825
0.00863368
0.00863376
0.00862072
0.00861416
0.00861241
0.008611
0.0086134
0.00861939
0.00862798
0.00863704
0.00864846
0.00880026
0.00879136
0.00876947
0.0087592
0.00874435
0.00873151
0.00871681
0.00870279
0.00868777
0.00867797
0.00867252
0.00866639
0.00866313
0.00866286
0.00866366
0.00866686
0.00867162
0.00867725
0.00868542
0.00869627
0.00870596
0.00872017
0.00873149
0.00874824
0.00876041
0.00877557
0.00878677
0.0088018
0.00880963
0.00880818
0.00879429
0.0087797
0.00865867
0.00865348
0.00838464
0.00805283
0.00796697
0.00799371
0.00821794
0.00841553
0.00853047
0.00857515
0.00858855
0.00858855
0.00858779
0.00859057
0.00859667
0.00860799
0.00862087
0.0086349
0.00865099
0.00879155
0.00874266
0.00868107
0.00866159
0.00867475
0.0086749
0.00867874
0.00867631
0.0086683
0.00865723
0.00865263
0.00865283
0.00865359
0.00865625
0.00866065
0.00866579
0.00867276
0.00868081
0.00869039
0.00870241
0.00871496
0.00872966
0.00874187
0.00875958
0.0087734
0.00878901
0.00880436
0.00881337
0.00880847
0.00880508
0.00873232
0.0086646
0.00824241
0.00804079
0.00695351
0.00609245
0.00601859
0.00606448
0.00662283
0.00756263
0.00817063
0.00844054
0.0085372
0.00856594
0.00857771
0.00858355
0.00859149
0.00860177
0.00861743
0.00863324
0.00865317
0.00870654
0.00842471
0.00810567
0.00812856
0.00812848
0.00842024
0.00854326
0.00861259
0.00863474
0.00864148
0.00864017
0.00864048
0.00864243
0.00864943
0.00865843
0.00866746
0.00867669
0.00868583
0.00869707
0.00870909
0.00872399
0.00873739
0.00875551
0.00876852
0.00878665
0.00880542
0.00881512
0.0088093
0.00877408
0.00872496
0.00845407
0.00796819
0.00697589
0.0055787
0.00496104
0.00470196
0.00468746
0.00483168
0.00495919
0.00585955
0.00718617
0.00805469
0.00840184
0.00851538
0.00854711
0.00856512
0.00858328
0.00860056
0.00861899
0.00863812
0.0086595
0.00795022
0.00678365
0.00619258
0.0062668
0.0062685
0.00718124
0.00798644
0.00839183
0.00855597
0.00860112
0.00862367
0.00863123
0.00863797
0.00864739
0.00865769
0.00866866
0.00867963
0.00869225
0.00870446
0.00871851
0.00873361
0.0087481
0.00876622
0.00878051
0.00880296
0.00881341
0.00880631
0.00874521
0.00857688
0.00825961
0.00735718
0.00575525
0.00496432
0.00453236
0.00441057
0.00441506
0.00447092
0.00459447
0.00488129
0.0054048
0.0064956
0.00748532
0.00811292
0.00840157
0.00850765
0.0085446
0.00856932
0.00859429
0.00861855
0.0086416
0.00866734
0.00541104
0.00491613
0.00478056
0.00480972
0.00507337
0.00545523
0.00661214
0.00767508
0.00827905
0.00850268
0.0085843
0.00860718
0.0086246
0.00864305
0.00865893
0.00867222
0.0086847
0.00869782
0.00871151
0.00872569
0.00874296
0.00875852
0.00877479
0.00879655
0.00881003
0.00880016
0.00872431
0.00832219
0.00782742
0.00671359
0.00513137
0.00456932
0.00441305
0.00437036
0.00436459
0.0043794
0.00443302
0.00467844
0.00505869
0.00585941
0.00666742
0.0075188
0.00806941
0.00835139
0.00847321
0.00853231
0.00856603
0.0085946
0.00861989
0.00864663
0.00867436
0.00451112
0.00446549
0.00449101
0.00458219
0.00474768
0.00517835
0.00618824
0.00730628
0.00803826
0.00840337
0.00854932
0.00860185
0.00862122
0.00864165
0.00866071
0.00867604
0.00869038
0.00870527
0.00872103
0.00873485
0.00875389
0.00876612
0.00878833
0.00880301
0.008795
0.00869838
0.0082031
0.0068628
0.00593655
0.00478263
0.00441004
0.00438648
0.00437312
0.0043587
0.00435441
0.00436891
0.00442776
0.00456841
0.00505335
0.00605625
0.00708233
0.00767291
0.00811005
0.0083598
0.00847302
0.00853313
0.00856735
0.00859611
0.00862413
0.00865266
0.00868255
0.00442516
0.00442639
0.00444565
0.00450639
0.0047114
0.00507132
0.0060188
0.00721116
0.0079513
0.00833058
0.00851628
0.00859066
0.00862287
0.00864338
0.00866348
0.00868159
0.00869861
0.00871436
0.00873045
0.00874311
0.00875999
0.00877821
0.00879498
0.00878338
0.00869189
0.00806328
0.00621903
0.00495395
0.00452129
0.00440808
0.0043916
0.004377
0.00436093
0.00434168
0.00433642
0.00433634
0.0043797
0.00452596
0.00486728
0.00564587
0.00710654
0.00781466
0.00817774
0.00837459
0.00847509
0.00853459
0.00857331
0.00860306
0.00863168
0.00866155
0.00869143
0.00441255
0.00441168
0.00442525
0.00447349
0.00462019
0.00497811
0.00565533
0.00698595
0.00788337
0.00829816
0.00850661
0.00858643
0.00862919
0.00865237
0.00867172
0.00868975
0.00870636
0.00872221
0.0087381
0.00874999
0.00876686
0.00878304
0.00877519
0.00863258
0.00807446
0.00561987
0.0045426
0.00444811
0.00441867
0.00439321
0.00438444
0.00436766
0.00435018
0.00432896
0.00432231
0.00432212
0.00435918
0.00446451
0.00474621
0.00534575
0.00650081
0.00779363
0.00818769
0.0083862
0.00847431
0.00853687
0.00857786
0.00860719
0.00863546
0.00866551
0.00869371
0.00440053
0.00439875
0.0044031
0.00444367
0.00456509
0.00485719
0.00544943
0.00645126
0.00771147
0.00822808
0.00847337
0.00858462
0.00863061
0.00866523
0.00868338
0.00869955
0.00871581
0.0087318
0.00874477
0.00875489
0.00877206
0.00874914
0.00864868
0.00754798
0.00496585
0.0044923
0.0044332
0.00441106
0.00439442
0.00438536
0.00436891
0.00435382
0.00433469
0.00431308
0.00430553
0.00430443
0.00433883
0.00443861
0.00468189
0.00517189
0.00607335
0.00747028
0.00820403
0.00835552
0.00847307
0.00852957
0.00857853
0.00860679
0.00863509
0.00866467
0.00869078
0.00438975
0.00438561
0.00438643
0.00442124
0.00451661
0.00475461
0.00523296
0.00607758
0.00733345
0.00817728
0.00847952
0.00857178
0.00863617
0.00867208
0.00869025
0.00870513
0.00871973
0.0087337
0.00874202
0.00875666
0.00876697
0.00829837
0.00608165
0.0048147
0.00449686
0.00442106
0.00440371
0.00439791
0.00438238
0.00437346
0.00435676
0.00433897
0.00432121
0.00429912
0.00428991
0.00428783
0.00431572
0.00440916
0.00461974
0.00504645
0.00579528
0.00697898
0.00808323
0.00835329
0.00840763
0.00852661
0.0085716
0.00860072
0.00862823
0.00865209
0.00865491
0.0043781
0.00436911
0.00436716
0.00438894
0.00446806
0.00466721
0.00508295
0.00582357
0.006984
0.00810474
0.00844366
0.00857947
0.00863247
0.00866989
0.0086876
0.00870269
0.00871672
0.00872732
0.00869006
0.00814908
0.00631826
0.00523264
0.00469581
0.00447884
0.00441015
0.00439685
0.00439027
0.004384
0.00437132
0.00435884
0.00434272
0.00432486
0.00430705
0.00428557
0.00427437
0.00427032
0.00428448
0.00435361
0.00452326
0.00486891
0.00550206
0.00651383
0.0076845
0.00831294
0.00838631
0.00846857
0.00850807
0.00850033
0.00839238
0.00805987
0.00750355
0.00436556
0.00434956
0.00434491
0.0043481
0.00439211
0.00450917
0.00479632
0.00537581
0.00637692
0.0077728
0.00832775
0.00858031
0.00857345
0.00864759
0.00866279
0.00867487
0.00867587
0.00854929
0.00772008
0.00565925
0.00482399
0.00456292
0.00445126
0.00440254
0.00438823
0.00438404
0.00438127
0.00436806
0.00435832
0.00434402
0.00432934
0.00431011
0.00429388
0.00427529
0.0042611
0.00425636
0.00425809
0.0042922
0.00439453
0.00463136
0.00508487
0.00584051
0.0068544
0.00811535
0.00790552
0.00802498
0.00789754
0.00742615
0.00656513
0.00582192
0.00527491
0.00435687
0.00434003
0.00433085
0.00432795
0.00434075
0.00438931
0.00450295
0.00475776
0.00528297
0.00621034
0.00751078
0.00798495
0.00848885
0.00842714
0.00850437
0.00847895
0.00824145
0.00717093
0.00540465
0.00463807
0.00450255
0.00441492
0.00439792
0.00438267
0.00437858
0.00437091
0.00436866
0.00435361
0.00434362
0.00432944
0.00431564
0.00429796
0.00428243
0.00426781
0.00425422
0.00424857
0.00424657
0.00425503
0.00429108
0.00437421
0.00454756
0.00486257
0.00537359
0.00576409
0.00605547
0.0060253
0.00575718
0.00521409
0.00489744
0.00474574
0.00454446
0.00435224
0.00433968
0.00432891
0.00432553
0.0043268
0.00434617
0.00439404
0.00449633
0.00470361
0.00509676
0.00573278
0.0065519
0.00708716
0.0074748
0.00746481
0.0071354
0.00611738
0.00508131
0.00452908
0.00445151
0.00439484
0.00437998
0.00437271
0.00436902
0.00436623
0.00435758
0.00435197
0.00433876
0.00432864
0.00431548
0.00430096
0.00428682
0.0042727
0.00426165
0.00425232
0.00424791
0.00424632
0.00424714
0.00426062
0.00428754
0.00433861
0.0044299
0.00456473
0.00467373
0.00473235
0.00472597
0.00463953
0.00451318
0.00443526
0.00440771
0.00436456
0.00434867
0.00433713
0.00432864
0.004325
0.00432479
0.00433057
0.00434907
0.0043807
0.00444275
0.00455935
0.00476676
0.00504942
0.00529734
0.00534377
0.00535913
0.00514459
0.0047227
0.00450673
0.00438705
0.00438423
0.00436793
0.00436371
0.00435868
0.00435671
0.00434924
0.00434496
0.00433418
0.00432416
0.00431326
0.00430175
0.0042883
0.0042765
0.00426535
0.00425766
0.00425184
0.00425019
0.00425021
0.00425238
0.00425848
0.00426843
0.00428341
0.00430454
0.0043327
0.00435449
0.0043595
0.00436231
0.00433926
0.00432343
0.00431534
0.00431488
0.00431419
0.00434821
0.00434121
0.00433693
0.00433528
0.00433569
0.00433879
0.00434399
0.00435473
0.00437114
0.00439457
0.00444007
0.00451386
0.00456128
0.00458197
0.00457991
0.00451507
0.00439754
0.00437414
0.00435673
0.00435768
0.00435326
0.00435088
0.00434511
0.00434262
0.00433347
0.00432861
0.0043186
0.00430828
0.00429842
0.00428817
0.0042768
0.00426794
0.00426022
0.00425521
0.00425272
0.00425416
0.00425506
0.00425873
0.00426314
0.00426846
0.0042729
0.00427552
0.0042774
0.00427782
0.00427399
0.00427221
0.00427205
0.0042718
0.00427771
0.00428551
0.00429391
0.00434999
0.00434636
0.00434549
0.0043475
0.00434602
0.00435433
0.00435367
0.00435913
0.0043627
0.00436697
0.00437284
0.00438519
0.00439168
0.00439319
0.00438814
0.0043689
0.00434988
0.00434633
0.00434507
0.00434554
0.00434084
0.00433734
0.00433036
0.0043267
0.0043187
0.0043117
0.00430278
0.0042927
0.00428405
0.00427525
0.00426699
0.00426064
0.00425631
0.00425453
0.00425352
0.00425793
0.00426004
0.00426458
0.00426845
0.00427121
0.00427166
0.00427071
0.00426284
0.00425852
0.00425268
0.00425006
0.00425189
0.00425307
0.00426025
0.00426876
0.00427829
0.00435402
0.00435375
0.00435546
0.00435876
0.00436115
0.00436625
0.00436819
0.00437051
0.00437083
0.00436954
0.00436662
0.00436575
0.00436396
0.0043605
0.00435545
0.00434817
0.00434182
0.00433867
0.00433692
0.00433432
0.00432908
0.00432317
0.0043169
0.00431122
0.00430276
0.00429515
0.00428673
0.00427799
0.00426999
0.00426386
0.0042586
0.00425479
0.00425331
0.00425392
0.0042557
0.00426037
0.00426466
0.00426921
0.00427209
0.00427302
0.0042717
0.00426696
0.00425878
0.00424975
0.0042436
0.00423887
0.00423756
0.00423975
0.00424468
0.00425318
0.00426204
0.00435917
0.00436207
0.00436873
0.0043681
0.00437675
0.00437765
0.00438115
0.00438181
0.00437989
0.00437704
0.00437
0.00436699
0.00436191
0.00435536
0.00434934
0.00434316
0.00433746
0.00433311
0.00432859
0.00432318
0.00431703
0.00430985
0.00430295
0.0042954
0.00428679
0.00427904
0.00427149
0.00426362
0.00425746
0.00425377
0.0042512
0.00425037
0.00424997
0.00425393
0.00425738
0.00426272
0.00426761
0.00427185
0.00427328
0.00427302
0.00427016
0.0042627
0.0042542
0.00424191
0.00423292
0.00422657
0.00422341
0.00422538
0.00422828
0.00423604
0.00424485
0.00436674
0.00437142
0.00437735
0.0043829
0.00438699
0.00439002
0.00439122
0.00439138
0.00438773
0.00438255
0.00437422
0.00436944
0.00436192
0.00435416
0.00434691
0.0043396
0.0043327
0.00432649
0.00431955
0.00431257
0.00430492
0.00429652
0.00428888
0.0042799
0.00427088
0.00426439
0.00425607
0.00425081
0.00424659
0.0042449
0.00424454
0.00424599
0.00424836
0.00425365
0.00425834
0.00426415
0.00426878
0.0042719
0.00427278
0.0042708
0.00426585
0.00425651
0.0042454
0.00423155
0.00421928
0.00421219
0.004208
0.0042081
0.00420993
0.00421593
0.00422577
0.00437395
0.00438162
0.00438762
0.00439404
0.00439727
0.00439954
0.00440004
0.00439796
0.00439336
0.0043858
0.00437673
0.00437027
0.00436109
0.00435246
0.00434364
0.0043354
0.00432734
0.00431914
0.00431054
0.00430218
0.00429301
0.00428381
0.00427483
0.00426521
0.00425576
0.00425018
0.00424329
0.00423908
0.00423726
0.00423704
0.00423903
0.00424193
0.00424668
0.00425303
0.00425828
0.00426433
0.00426799
0.00427016
0.00427017
0.00426542
0.00425767
0.00424576
0.004233
0.00421852
0.00420544
0.00419426
0.00418945
0.00418628
0.0041893
0.00419375
0.00420304
0.00438155
0.00439112
0.00439708
0.00440257
0.00440584
0.00440687
0.00440578
0.00440269
0.00439586
0.00438701
0.00437746
0.00436916
0.00435936
0.00434941
0.00434002
0.00433052
0.00432128
0.00431158
0.00430182
0.00429202
0.00428131
0.00427123
0.00426153
0.0042521
0.00424356
0.0042366
0.00423215
0.00422948
0.00422845
0.00423037
0.00423405
0.00423855
0.00424436
0.00425156
0.00425731
0.00426258
0.00426527
0.00426623
0.00426395
0.00425761
0.0042477
0.0042344
0.00422003
0.0042032
0.0041878
0.0041748
0.00416534
0.00416348
0.00416235
0.0041692
0.00417622
0.00438901
0.00440028
0.00440371
0.00440987
0.00441119
0.00441186
0.00440867
0.00440424
0.00439574
0.00438636
0.00437586
0.0043669
0.00435597
0.0043458
0.00433527
0.00432491
0.00431459
0.004304
0.00429342
0.00428215
0.00427077
0.00426013
0.00425014
0.00424067
0.00423217
0.00422577
0.00422251
0.00422119
0.00422117
0.00422462
0.00422953
0.00423526
0.00424145
0.00424918
0.00425461
0.00425854
0.00425969
0.00425914
0.00425438
0.00424541
0.00423209
0.00421705
0.00420109
0.00418441
0.00416907
0.00415402
0.00414183
0.00413212
0.00413137
0.00413982
0.00414566
0.00439575
0.00440524
0.00440956
0.00441362
0.00441433
0.00441277
0.00440937
0.00440235
0.00439393
0.00438309
0.00437285
0.00436284
0.00435185
0.00434101
0.00433011
0.0043193
0.00430822
0.00429666
0.00428516
0.00427332
0.00426169
0.00425075
0.00424055
0.00423081
0.00422292
0.0042174
0.00421509
0.00421428
0.00421537
0.00421926
0.00422517
0.00423152
0.00423759
0.00424493
0.00424923
0.00425162
0.00425186
0.00424895
0.00424269
0.00423337
0.00422071
0.00420552
0.00418864
0.00416928
0.00414876
0.00412841
0.00411073
0.00410111
0.00409529
0.00410362
0.00410782
0.00440045
0.00440819
0.00441226
0.00441401
0.00441448
0.00441097
0.00440668
0.00439824
0.00438942
0.00437819
0.00436844
0.00435757
0.00434694
0.00433583
0.00432484
0.00431361
0.00430215
0.00429021
0.00427817
0.00426593
0.00425456
0.00424333
0.00423292
0.00422365
0.0042163
0.00421119
0.00420933
0.00420883
0.00421056
0.00421447
0.0042205
0.00422686
0.00423277
0.00423882
0.00424239
0.0042436
0.0042425
0.0042377
0.00422921
0.0042168
0.00420012
0.00418172
0.00416305
0.00414344
0.00412489
0.00410877
0.00409042
0.00406917
0.00405329
0.00404939
0.00406939
0.00440248
0.00440901
0.00441123
0.00441221
0.00441089
0.00440662
0.00440077
0.00439235
0.00438289
0.00437216
0.00436259
0.00435208
0.00434155
0.00433059
0.00431977
0.00430857
0.00429693
0.00428477
0.00427274
0.00426066
0.00424935
0.00423803
0.00422776
0.00421899
0.0042119
0.00420696
0.00420507
0.00420467
0.00420636
0.00420999
0.00421545
0.00422127
0.00422655
0.00423112
0.00423343
0.00423373
0.00423076
0.00422432
0.00421455
0.00420214
0.00418768
0.00417174
0.00415416
0.00413455
0.00411302
0.00408483
0.00405183
0.00402139
0.00400003
0.00398726
0.0040194
0.00440203
0.00440648
0.00440752
0.00440719
0.00440469
0.00439957
0.00439287
0.00438481
0.00437509
0.00436567
0.00435613
0.00434638
0.00433624
0.00432585
0.0043154
0.00430423
0.00429269
0.00428083
0.00426912
0.00425744
0.0042461
0.00423488
0.00422493
0.00421652
0.00420945
0.00420429
0.00420204
0.00420135
0.00420241
0.00420559
0.00420999
0.00421468
0.00421915
0.00422225
0.00422347
0.00422261
0.00421832
0.00421064
0.00419967
0.0041859
0.00416935
0.00414989
0.00412783
0.00410752
0.00408588
0.00406084
0.00403315
0.00400553
0.00396882
0.00393529
0.00391208
0.00884198
0.00884103
0.00884191
0.0088431
0.00884661
0.0088502
0.00885494
0.00886018
0.00886511
0.00886856
0.00887153
0.0088709
0.00887008
0.00886658
0.0088609
0.00885293
0.0088449
0.00883354
0.00882391
0.00881203
0.00880201
0.00879115
0.0087815
0.00877249
0.00876426
0.00875668
0.0088451
0.0088413
0.00883796
0.00883598
0.00883511
0.00883567
0.00883644
0.00883902
0.00884123
0.00884373
0.00884532
0.00884613
0.00884537
0.00884318
0.00883964
0.00883467
0.00882825
0.00882094
0.00881353
0.00880534
0.00879809
0.0087904
0.00878382
0.00877735
0.00877161
0.00876636
0.00884713
0.00884037
0.00883405
0.00882861
0.00882394
0.00882106
0.00881912
0.00881831
0.00881865
0.00881909
0.00881994
0.0088205
0.00882023
0.00881948
0.00881755
0.00881521
0.00881132
0.00880731
0.00880289
0.00879837
0.00879407
0.00878999
0.00878621
0.00878276
0.00877949
0.00877622
0.00884741
0.00883806
0.00882902
0.00882054
0.00881328
0.00880675
0.00880226
0.0087988
0.00879663
0.00879563
0.00879527
0.00879536
0.00879562
0.00879571