/*--------------------------------*- C++ -*----------------------------------*\
  =========                 |
  \\      /  F ield         | OpenFOAM: The Open Source CFD Toolbox
   \\    /   O peration     | Website:  https://openfoam.org
    \\  /    A nd           | Version:  10
     \\/     M anipulation  |
\*---------------------------------------------------------------------------*/
FoamFile
{
    format      ascii;
    class       surfaceScalarField;
    location    "0.40069";
    object      phi;
}
// * * * * * * * * * * * * * * * * * * * * * * * * * * * * * * * * * * * * * //

dimensions      [1 0 -1 0 0 0 0];

internalField   nonuniform List<scalar> 
32368
(
0.000170413
8.15963e-05
0.000129514
8.46422e-05
0.000105243
8.42986e-05
8.62635e-05
8.87039e-05
7.32729e-05
8.75142e-05
6.63697e-05
8.3167e-05
6.37892e-05
7.796e-05
6.39045e-05
7.32345e-05
6.55961e-05
7.00859e-05
6.87895e-05
6.99506e-05
7.22025e-05
7.29589e-05
7.18333e-05
7.81487e-05
6.81053e-05
8.4654e-05
6.36534e-05
9.17171e-05
6.24132e-05
0.000100567
6.62232e-05
0.000110633
7.56309e-05
0.000121794
9.00892e-05
0.00013342
0.000108276
0.000144513
0.000128794
0.000152762
0.000151164
0.00015784
0.000173393
0.000158089
0.000194707
0.00015329
0.000214637
0.000142627
0.000232333
0.000124536
0.00024614
9.81924e-05
0.000251189
6.3916e-05
0.000240209
2.15304e-05
0.000215959
-2.15079e-05
0.000191295
-5.81069e-05
0.000169079
-9.1013e-05
0.000152073
-0.00012698
-0.000163193
0.000144255
0.000148091
9.7786e-05
0.000104903
8.85132e-05
8.07634e-05
7.64861e-05
6.5793e-05
7.41431e-05
5.82377e-05
6.99146e-05
5.6056e-05
6.53531e-05
5.69942e-05
6.12735e-05
5.94854e-05
5.80766e-05
6.21116e-05
5.6437e-05
6.54294e-05
5.62154e-05
6.85833e-05
5.78304e-05
6.99966e-05
6.24302e-05
6.98643e-05
6.99176e-05
6.94391e-05
7.97562e-05
7.14205e-05
9.07386e-05
7.81615e-05
0.000102561
8.92959e-05
0.000113724
0.000104583
0.000124194
0.000123081
0.000133442
0.000142962
0.000139611
0.000164059
0.000142111
0.000184997
0.000139734
0.000205042
0.000131069
0.000223954
0.000113859
0.000241245
8.7452e-05
0.00025229
5.22293e-05
0.000250297
8.49481e-06
0.000240504
-3.43365e-05
0.000229357
-6.79291e-05
0.000216799
-9.32915e-05
0.000203706
-0.0001154
0.000197177
-0.000139577
-0.000158113
0.000193921
0.000116841
9.07947e-05
8.06797e-05
8.00308e-05
5.86143e-05
6.29303e-05
4.96358e-05
5.59179e-05
4.75995e-05
5.09398e-05
4.98174e-05
4.78141e-05
5.39023e-05
4.58117e-05
5.84412e-05
4.49031e-05
6.26315e-05
4.50367e-05
6.64247e-05
4.56906e-05
6.88817e-05
4.803e-05
7.019e-05
5.23077e-05
7.15374e-05
5.85688e-05
7.4528e-05
6.76836e-05
8.03598e-05
7.90319e-05
9.0477e-05
9.21099e-05
0.000103962
0.000104729
0.000120188
0.000115044
0.000138218
0.000122667
0.000157076
0.000125875
0.000176291
0.000124255
0.000195208
0.000115396
0.000213883
9.84173e-05
0.000230685
7.24663e-05
0.000241177
3.71643e-05
0.000242169
-2.48065e-06
0.000244147
-4.5226e-05
0.000245976
-7.85862e-05
0.000248464
-0.000103486
0.000248257
-0.000121904
0.000248325
-0.000139148
0.000250881
-0.000151153
-0.000150514
0.000244117
7.05732e-05
5.49743e-05
5.52423e-05
5.19479e-05
4.15711e-05
4.13384e-05
3.84632e-05
3.66245e-05
4.1175e-05
3.32612e-05
4.68799e-05
3.22405e-05
5.36952e-05
3.25109e-05
6.02252e-05
3.37607e-05
6.60487e-05
3.53393e-05
7.079e-05
3.75823e-05
7.37091e-05
4.09767e-05
7.54952e-05
4.58648e-05
7.71859e-05
5.23011e-05
8.08856e-05
6.07634e-05
8.81113e-05
7.0733e-05
9.91469e-05
8.10883e-05
0.000113552
9.08461e-05
0.000130003
9.84279e-05
0.000147546
0.000102366
0.000165348
0.000101092
0.000182296
9.30059e-05
0.000198159
7.77691e-05
0.00021088
5.32037e-05
0.000218858
2.02259e-05
0.000224525
-1.52987e-05
0.000235543
-5.21576e-05
0.000246646
-8.26671e-05
0.000259144
-0.000106609
0.000271914
-0.000125743
0.0002858
-0.00014373
0.0002997
-0.000158506
0.000297315
-0.000160677
-0.000145053
0.000287006
1.12114e-05
-1.55156e-06
1.78554e-05
4.3991e-06
2.49244e-05
6.73602e-06
3.26425e-05
1.25791e-05
3.96495e-05
1.68288e-05
4.78111e-05
1.86899e-05
5.63245e-05
2.10667e-05
6.42386e-05
2.39572e-05
7.12694e-05
2.71546e-05
7.69925e-05
3.08863e-05
8.13431e-05
3.53004e-05
8.45323e-05
4.08385e-05
8.76897e-05
4.78246e-05
9.22195e-05
5.60623e-05
9.92965e-05
6.49007e-05
0.000109359
7.32028e-05
0.000121752
7.96467e-05
0.000135611
8.25848e-05
0.000150216
8.08366e-05
0.000164729
7.3439e-05
0.000177943
5.86042e-05
0.000188955
3.57308e-05
0.000198309
6.05272e-06
0.000208404
-2.49745e-05
0.000223422
-5.505e-05
0.000239444
-8.03113e-05
0.000257042
-0.000101146
0.00027599
-0.00011993
0.000299644
-0.000139398
0.000322232
-0.000157858
0.000333281
-0.000168684
0.000329706
-0.000164715
-0.000142996
0.000320001
-3.87195e-05
-4.52046e-05
-1.78393e-05
-3.80422e-05
4.2086e-06
-2.69336e-05
2.42997e-05
-1.51048e-05
3.7597e-05
-7.83286e-07
4.93238e-05
4.62068e-06
5.9901e-05
9.60978e-06
6.94385e-05
1.4384e-05
7.77671e-05
1.92804e-05
8.44521e-05
2.43911e-05
8.98406e-05
2.97908e-05
9.45703e-05
3.58749e-05
9.94743e-05
4.28351e-05
0.000105264
5.04922e-05
0.00011261
5.79386e-05
0.000121769
6.36105e-05
0.000132593
6.62807e-05
0.000144029
6.46796e-05
0.000155423
5.70925e-05
0.000165805
4.22873e-05
0.000175064
2.03333e-05
0.000184054
-3.7936e-06
0.000195948
-3.12653e-05
0.000211883
-5.44425e-05
0.000229091
-7.40476e-05
0.000249054
-9.07444e-05
0.000271298
-0.000109073
0.000297848
-0.000128756
0.000324249
-0.000147483
0.000343729
-0.000161611
0.000352729
-0.000168585
0.000351207
-0.000161706
-0.000139837
0.000343453
-4.96858e-05
-6.54368e-05
-3.5051e-05
-5.96891e-05
-1.22767e-05
-5.0468e-05
1.15474e-05
-3.90932e-05
3.22821e-05
-2.21238e-05
4.80747e-05
-1.13883e-05
6.1314e-05
-3.76181e-06
7.28228e-05
3.09685e-06
8.27649e-05
9.59794e-06
9.10047e-05
1.6084e-05
9.78549e-05
2.25112e-05
0.000103968
2.90554e-05
0.000109963
3.56577e-05
0.000116797
4.19923e-05
0.000124408
4.72563e-05
0.000132898
4.98938e-05
0.000141867
4.81596e-05
0.000150418
4.05116e-05
0.000158146
2.62733e-05
0.000165413
6.66098e-06
0.000173343
-1.37346e-05
0.000185878
-3.42909e-05
0.000202411
-5.1216e-05
0.000220545
-6.55967e-05
0.000242429
-8.0067e-05
0.000266912
-9.59504e-05
0.0002926
-0.000111333
0.000316752
-0.000125547
0.000336793
-0.000138475
0.000351402
-0.000149126
0.000357748
-0.000154142
0.000356868
-0.000148181
-0.000129959
0.000350978
-3.77314e-05
-7.75744e-05
-2.76852e-05
-7.09907e-05
-1.241e-05
-6.35873e-05
5.9995e-06
-5.51522e-05
2.7776e-05
-4.24835e-05
4.73477e-05
-3.02495e-05
6.35184e-05
-2.02244e-05
7.69479e-05
-1.13319e-05
8.83684e-05
-3.30762e-06
9.81552e-05
4.51482e-06
0.000106597
1.17837e-05
0.00011393
1.85486e-05
0.000120711
2.45305e-05
0.00012747
2.89801e-05
0.000134505
3.10681e-05
0.00014155
2.93707e-05
0.000147861
2.23106e-05
0.000153711
9.83975e-06
0.000159849
-4.66592e-06
0.000168143
-2.14101e-05
0.000181853
-3.50721e-05
0.000197926
-4.62934e-05
0.000218688
-5.53621e-05
0.000239921
-6.52873e-05
0.000262438
-7.53271e-05
0.000282278
-8.53694e-05
0.000299811
-9.57214e-05
0.000315959
-0.00010676
0.000330427
-0.000117266
0.000341488
-0.000126542
0.000346057
-0.000130978
0.000345225
-0.000126586
-0.00011266
0.00034053
-1.28e-05
-8.62069e-05
-3.69505e-06
-7.95964e-05
8.10859e-06
-7.23352e-05
2.16335e-05
-6.47902e-05
3.85096e-05
-5.57768e-05
5.63821e-05
-4.60273e-05
7.2528e-05
-3.66014e-05
8.66074e-05
-2.73469e-05
9.85756e-05
-1.87181e-05
0.000108863
-1.06967e-05
0.000117854
-3.05621e-06
0.000125758
3.43355e-06
0.000132751
8.16085e-06
0.000138806
1.0167e-05
0.000144141
8.62522e-06
0.000148856
3.00827e-06
0.000153192
-4.76296e-06
0.000158407
-1.62766e-05
0.000167018
-2.58843e-05
0.000180173
-3.19458e-05
0.000195037
-3.66762e-05
0.000211847
-4.13129e-05
0.000229038
-4.64315e-05
0.000246091
-5.18841e-05
0.000261675
-5.79387e-05
0.000274756
-6.41223e-05
0.000285698
-7.11725e-05
0.000296256
-7.99831e-05
0.000307659
-9.01675e-05
0.000317913
-9.97573e-05
0.00032204
-0.000104595
0.000320769
-0.000101824
-9.14248e-05
0.000316005
1.25624e-05
-0.000100988
2.26127e-05
-9.56879e-05
3.50118e-05
-8.87491e-05
4.70563e-05
-7.99866e-05
5.92245e-05
-7.03641e-05
7.21876e-05
-6.01212e-05
8.61997e-05
-5.00673e-05
9.9983e-05
-4.0676e-05
0.000112757
-3.22946e-05
0.000123451
-2.48245e-05
0.000132405
-1.82817e-05
0.000139672
-1.29047e-05
0.000145598
-1.01496e-05
0.00014989
-9.83585e-06
0.000152481
-1.28455e-05
0.000154458
-1.82991e-05
0.000157699
-2.30739e-05
0.000164177
-2.52067e-05
0.000173746
-2.54468e-05
0.00018479
-2.55235e-05
0.000195807
-2.62251e-05
0.000206615
-2.75226e-05
0.000215778
-2.92546e-05
0.000223263
-3.19031e-05
0.000229708
-3.48555e-05
0.000234898
-3.86115e-05
0.000241595
-4.41716e-05
0.000256426
-5.37713e-05
0.000273759
-6.49033e-05
0.000285627
-7.38115e-05
0.00028841
-7.72067e-05
0.000285285
-7.51733e-05
-6.66482e-05
0.000276565
3.41963e-05
-0.000121526
4.48852e-05
-0.000117448
5.73789e-05
-0.000110673
7.06727e-05
-0.000101706
8.35539e-05
-9.0779e-05
9.54594e-05
-7.88424e-05
0.000106231
-6.67715e-05
0.000115852
-5.53491e-05
0.000124635
-4.50687e-05
0.000132662
-3.60987e-05
0.000139547
-2.92322e-05
0.000144954
-2.4446e-05
0.000148602
-2.22643e-05
0.000149928
-2.19585e-05
0.000150157
-2.25178e-05
0.000150649
-2.20318e-05
0.000153167
-2.00374e-05
0.000157679
-1.73086e-05
0.000163345
-1.45401e-05
0.000168804
-1.24408e-05
0.000173583
-1.11333e-05
0.000177672
-1.10309e-05
0.000179918
-1.18423e-05
0.000182521
-1.35494e-05
0.000184881
-1.58728e-05
0.00018901
-1.89204e-05
0.000200554
-2.44242e-05
0.000221717
-3.31233e-05
0.000239971
-4.23316e-05
0.000248315
-4.82656e-05
0.000246647
-5.03144e-05
0.000238317
-4.71559e-05
-4.19219e-05
0.000220058
5.3656e-05
-0.000148433
6.54164e-05
-0.00014555
7.92488e-05
-0.000138662
9.33664e-05
-0.00012779
0.000106766
-0.000114021
0.000118887
-9.91094e-05
0.000129338
-8.36285e-05
0.00013782
-6.87005e-05
0.000144404
-5.53999e-05
0.000149227
-4.39852e-05
0.000152034
-3.51332e-05
0.000153139
-2.90265e-05
0.000152348
-2.49909e-05
0.000150314
-2.18626e-05
0.000148153
-1.87319e-05
0.000147259
-1.45544e-05
0.000148136
-9.77199e-06
0.000150329
-4.93457e-06
0.000153232
-8.54089e-07
0.000156162
1.77278e-06
0.000158341
3.8796e-06
0.000159876
5.19331e-06
0.000159946
5.17311e-06
0.000159667
4.10037e-06
0.000159043
2.03617e-06
0.000160752
-4.63858e-07
0.000173049
-6.73925e-06
0.00019339
-1.38649e-05
0.000205593
-1.98456e-05
0.000204923
-2.2739e-05
0.000197176
-2.25373e-05
0.00017925
-2.19464e-05
-2.88633e-05
0.00016731
7.18004e-05
-0.000185301
8.61285e-05
-0.000182916
0.000101963
-0.000173152
0.000117233
-0.000157706
0.000131026
-0.00013911
0.000142526
-0.000116795
0.000151297
-9.43284e-05
0.000157511
-7.40065e-05
0.000161369
-5.71258e-05
0.000163633
-4.32882e-05
0.00016385
-3.23504e-05
0.000162089
-2.44399e-05
0.000158775
-1.81208e-05
0.000154909
-1.25265e-05
0.000151392
-6.72199e-06
0.000148918
-7.18684e-07
0.000147744
4.81579e-06
0.000147292
1.06716e-05
0.000147135
1.52755e-05
0.000146663
1.86034e-05
0.000145867
2.08472e-05
0.000144395
2.207e-05
0.000141372
2.24133e-05
0.000138011
2.1818e-05
0.000134449
2.02714e-05
0.000135178
1.66678e-05
0.000150285
1.07479e-05
0.00016364
6.49279e-06
0.000164039
4.01989e-06
0.000154644
3.98914e-06
0.000138766
1.24448e-06
0.000128505
-1.03349e-05
-2.64749e-05
0.000136651
8.7852e-05
-0.000232456
0.000104838
-0.000225888
0.000122764
-0.000209431
0.000139638
-0.000187811
0.000153604
-0.00015826
0.000163599
-0.000127594
0.000169704
-9.87341e-05
0.000172601
-7.31037e-05
0.000173167
-5.1863e-05
0.000172161
-3.52521e-05
0.000169908
-2.22897e-05
0.000165837
-1.23173e-05
0.000160593
-4.08762e-06
0.000155359
2.59046e-06
0.000150457
1.01175e-05
0.000146247
1.66879e-05
0.000142322
2.23052e-05
0.000138714
2.7079e-05
0.000135209
3.10644e-05
0.000131686
3.41501e-05
0.000128043
3.65175e-05
0.000123363
3.82186e-05
0.000117745
3.89669e-05
0.000111752
3.89961e-05
0.000107117
3.68968e-05
0.000110779
3.17246e-05
0.000123148
3.14294e-05
0.000121902
3.00417e-05
0.000109729
3.06586e-05
9.3332e-05
2.75965e-05
8.65829e-05
9.04654e-06
9.87432e-05
-1.2681e-05
-3.62051e-05
0.000121786
9.34758e-05
-0.000270618
0.000112157
-0.00025475
0.000131889
-0.000229233
0.000149681
-0.000195783
0.00016383
-0.000159481
0.000174466
-0.000124289
0.000180951
-9.20239e-05
0.00018254
-6.36341e-05
0.000179851
-4.00016e-05
0.000175513
-2.11098e-05
0.000170004
-6.46004e-06
0.000163567
4.93238e-06
0.000156466
1.43071e-05
0.000149036
2.19719e-05
0.00014183
2.87884e-05
0.000135127
3.47309e-05
0.00012878
3.97332e-05
0.000122593
4.38334e-05
0.000116382
4.72301e-05
0.00011026
4.99892e-05
0.000103892
5.22991e-05
9.68078e-05
5.40617e-05
8.91779e-05
5.51644e-05
8.16903e-05
5.49684e-05
7.92136e-05
5.13982e-05
8.55204e-05
5.24642e-05
8.38393e-05
5.36595e-05
7.10188e-05
5.47263e-05
5.38547e-05
5.33193e-05
5.02199e-05
3.12038e-05
6.31551e-05
4.39084e-06
8.79406e-05
-2.5649e-05
-4.93771e-05
0.000115262
7.86693e-05
-0.00029033
9.69216e-05
-0.000264634
0.000116324
-0.000229488
0.000133316
-0.000187952
0.000147228
-0.000147623
0.000158448
-0.000110066
0.000166335
-7.67645e-05
0.000170617
-4.76333e-05
0.000170807
-2.32697e-05
0.000167654
-3.58231e-06
0.000161138
1.24009e-05
0.000152043
2.50887e-05
0.000142608
3.46814e-05
0.000133325
4.22946e-05
0.000124104
4.8278e-05
0.000115358
5.30687e-05
0.00010681
5.70106e-05
9.85539e-05
6.01084e-05
9.06447e-05
6.28244e-05
8.29935e-05
6.51758e-05
7.49642e-05
6.75094e-05
6.61914e-05
6.92665e-05
5.69418e-05
7.05234e-05
5.03379e-05
6.9097e-05
5.11728e-05
7.01798e-05
4.8241e-05
7.36716e-05
3.62261e-05
7.49475e-05
1.91103e-05
7.67025e-05
1.44227e-05
5.63595e-05
2.84271e-05
2.3858e-05
5.51414e-05
-1.232e-05
8.27676e-05
-4.0891e-05
-5.92006e-05
0.000106062
3.62005e-05
-0.000294101
5.31495e-05
-0.000259934
7.26083e-05
-0.000219634
8.9757e-05
-0.000173883
0.000104472
-0.000132771
0.00011689
-9.52823e-05
0.0001277
-6.22438e-05
0.000135511
-3.32454e-05
0.000138966
-8.19422e-06
0.00013792
1.34661e-05
0.000131841
3.13666e-05
0.000123749
4.40242e-05
0.000115015
5.35747e-05
0.000105824
6.07035e-05
9.64494e-05
6.57172e-05
8.70719e-05
6.96297e-05
7.79797e-05
7.24265e-05
6.93848e-05
7.48907e-05
6.10634e-05
7.7107e-05
5.25111e-05
7.97012e-05
4.30138e-05
8.18981e-05
3.28726e-05
8.34948e-05
2.40091e-05
8.39016e-05
1.89521e-05
8.5346e-05
1.50225e-05
9.04393e-05
3.17976e-06
9.24239e-05
-1.19241e-05
9.35701e-05
-1.77277e-05
8.03783e-05
-5.95432e-06
4.78653e-05
2.22798e-05
3.99484e-06
5.1078e-05
-3.08447e-05
7.39171e-05
-5.20253e-05
-6.28674e-05
8.93107e-05
-3.55489e-05
-0.000290741
-2.06243e-05
-0.000254286
-1.55051e-06
-0.000209625
1.94406e-05
-0.000163846
3.7605e-05
-0.000120255
5.2988e-05
-8.3e-05
6.58619e-05
-5.13412e-05
7.72809e-05
-2.43314e-05
8.41736e-05
1.62414e-06
8.6104e-05
2.57753e-05
8.5072e-05
4.31155e-05
8.13117e-05
5.64414e-05
7.59578e-05
6.6705e-05
6.89367e-05
7.39795e-05
6.09443e-05
7.8958e-05
5.29721e-05
8.23799e-05
4.51978e-05
8.52274e-05
3.72223e-05
8.77054e-05
2.86202e-05
9.03855e-05
1.86924e-05
9.31946e-05
7.84775e-06
9.51767e-05
-2.48315e-06
9.63099e-05
-1.14022e-05
9.87874e-05
-1.85993e-05
0.000105896
-3.04371e-05
0.000108279
-4.30731e-05
0.00010754
-4.77182e-05
9.52539e-05
-3.80714e-05
7.2631e-05
-1.23431e-05
2.70642e-05
2.01961e-05
-2.02895e-05
4.38414e-05
-4.46315e-05
5.96125e-05
-5.72742e-05
-6.18805e-05
6.88083e-05
-0.000132966
-0.000283349
-0.000118735
-0.000241615
-9.38878e-05
-0.000195216
-6.83955e-05
-0.000150828
-4.53922e-05
-0.000110498
-2.54579e-05
-7.49568e-05
-9.81383e-06
-4.3375e-05
2.32846e-06
-1.72054e-05
1.36215e-05
5.73918e-06
2.35965e-05
2.81609e-05
2.86866e-05
4.72443e-05
3.02979e-05
6.18605e-05
2.90987e-05
7.30853e-05
2.5903e-05
8.13589e-05
2.14161e-05
8.75959e-05
1.57781e-05
9.23253e-05
9.07177e-06
9.57362e-05
8.9072e-07
9.8797e-05
-8.49751e-06
0.000102082
-1.86016e-05
0.000104562
-2.83884e-05
0.000106051
-3.98776e-05
0.000111443
-5.0902e-05
0.000119798
-6.29088e-05
0.000121685
-7.2621e-05
0.000120036
-7.4194e-05
0.000106959
-6.63271e-05
8.78874e-05
-4.72618e-05
5.55956e-05
-1.20087e-05
-2.21034e-06
1.3886e-05
-3.86347e-05
3.22379e-05
-5.36397e-05
4.32236e-05
-5.86324e-05
-6.14006e-05
5.27012e-05
-0.000237191
-0.00025165
-0.000223249
-0.000209537
-0.000195299
-0.000168078
-0.000164113
-0.000130436
-0.000133355
-9.62051e-05
-0.000105399
-6.52764e-05
-8.21205e-05
-3.76759e-05
-6.37612e-05
-1.26337e-05
-4.94005e-05
9.50525e-06
-3.76064e-05
2.93066e-05
-2.85523e-05
4.75066e-05
-2.26537e-05
6.29158e-05
-1.97512e-05
7.53172e-05
-1.92868e-05
8.51367e-05
-2.1122e-05
9.26041e-05
-2.50123e-05
9.84823e-05
-3.09718e-05
0.000103592
-3.85331e-05
0.000108161
-4.75786e-05
0.000111903
-5.71979e-05
0.000114595
-7.07286e-05
0.000122223
-8.46322e-05
0.00013136
-9.51303e-05
0.000132726
-0.000101791
0.000129567
-0.000100243
0.000116565
-9.20821e-05
9.83881e-05
-7.65187e-05
7.34391e-05
-4.56436e-05
2.75998e-05
-1.54617e-05
-2.73018e-05
5.17133e-06
-5.1286e-05
1.9849e-05
-5.92261e-05
3.04454e-05
-6.08165e-05
-6.10672e-05
3.94554e-05
-0.000328509
-0.00022624
-0.000320534
-0.000188061
-0.000291574
-0.000151055
-0.000254732
-0.000117345
-0.000217907
-8.76004e-05
-0.000183422
-6.10351e-05
-0.00015446
-3.5965e-05
-0.000129759
-1.17605e-05
-0.000108221
1.06357e-05
-9.20757e-05
2.98804e-05
-8.10232e-05
4.69902e-05
-7.29305e-05
6.21169e-05
-6.75475e-05
7.52287e-05
-6.49744e-05
8.63677e-05
-6.54832e-05
9.5615e-05
-6.80503e-05
0.000103792
-7.29067e-05
0.000110329
-7.99093e-05
0.000115606
-9.03008e-05
0.000122473
-0.000104875
0.000132237
-0.000119488
0.000139914
-0.00012814
0.000140737
-0.000131303
0.000136547
-0.000125842
0.000122914
-0.000115986
0.000105049
-0.000102785
8.44806e-05
-7.88989e-05
5.00303e-05
-4.23816e-05
-5.46439e-06
-2.0567e-05
-4.2756e-05
-3.48038e-06
-5.90954e-05
9.85059e-06
-6.62201e-05
2.00585e-05
-6.43955e-05
-6.11259e-05
2.75149e-05
-0.000384154
-0.000217174
-0.000390053
-0.00018502
-0.000367829
-0.000152582
-0.000330606
-0.000120835
-0.000288805
-9.02387e-05
-0.000249535
-6.27897e-05
-0.000218011
-3.88994e-05
-0.000191355
-1.54567e-05
-0.000167957
7.1948e-06
-0.000148456
2.72664e-05
-0.00013274
4.49335e-05
-0.000122118
6.06203e-05
-0.000115269
7.47425e-05
-0.000111342
8.70902e-05
-0.000110287
9.74459e-05
-0.000112069
0.000106423
-0.00011702
0.000114624
-0.000128531
0.000126135
-0.000144192
0.000137249
-0.000156682
0.000143688
-0.000161456
0.000144105
-0.00016062
0.000139378
-0.000150748
0.000125788
-0.000139104
0.000108894
-0.000126405
9.04776e-05
-0.000104993
6.22163e-05
-7.29111e-05
1.86928e-05
-4.40044e-05
-3.0373e-05
-2.45159e-05
-5.51387e-05
-9.90111e-06
-7.07134e-05
2.20459e-06
-7.59278e-05
1.08551e-05
-7.13705e-05
-6.68789e-05
1.75847e-05
-0.000399444
-0.000220309
-0.00042208
-0.000194804
-0.000416925
-0.000166588
-0.000386966
-0.000135982
-0.000345638
-0.000103345
-0.000305789
-7.3479e-05
-0.000273678
-4.69493e-05
-0.000246102
-2.32903e-05
-0.000222216
-1.35277e-06
-0.000202032
1.94416e-05
-0.000185192
3.87272e-05
-0.000172954
5.60128e-05
-0.000164282
7.15521e-05
-0.000158751
8.46206e-05
-0.00015724
9.67308e-05
-0.000162421
0.000110413
-0.000174504
0.000124277
-0.000187464
0.000135772
-0.000194398
0.000141026
-0.000194982
0.00014199
-0.000188896
0.000136748
-0.000174736
0.000124415
-0.000161729
0.000109476
-0.000148656
9.28496e-05
-0.000128768
6.85457e-05
-9.98113e-05
3.27113e-05
-6.69713e-05
-1.23521e-05
-4.49243e-05
-4.75135e-05
-2.90374e-05
-7.08016e-05
-1.56367e-05
-8.49168e-05
-5.8635e-06
-8.62716e-05
1.37188e-06
-8.01551e-05
-7.53204e-05
7.6553e-06
-0.000386832
-0.000219483
-0.000418863
-0.000204036
-0.00043412
-0.000181814
-0.000426675
-0.000153753
-0.000394931
-0.000121504
-0.000357196
-8.84252e-05
-0.000324665
-5.89796e-05
-0.000298131
-3.40019e-05
-0.000276333
-1.16701e-05
-0.000257432
9.36451e-06
-0.000240719
3.01324e-05
-0.000227637
4.94965e-05
-0.000218499
6.66892e-05
-0.000215715
8.3438e-05
-0.000220583
9.99853e-05
-0.000228962
0.000114455
-0.000233338
0.000125098
-0.000232279
0.000131535
-0.000227269
0.000133541
-0.00021512
0.000128303
-0.000196932
0.000118179
-0.000182939
0.000106172
-0.000169036
9.14545e-05
-0.000149616
7.01208e-05
-0.000123088
3.97486e-05
-9.16414e-05
9.18182e-07
-6.46703e-05
-3.69486e-05
-4.71652e-05
-6.60085e-05
-3.24054e-05
-8.87367e-05
-2.17005e-05
-9.83872e-05
-1.44415e-05
-9.63226e-05
-8.75698e-06
-9.07792e-05
-8.92483e-05
-3.21806e-06
-0.000368995
-0.000211911
-0.000402884
-0.000203389
-0.000427949
-0.000188233
-0.00044173
-0.000165116
-0.000438032
-0.000136944
-0.000417799
-0.000106082
-0.000390671
-7.62895e-05
-0.000364672
-4.88979e-05
-0.000342661
-2.41206e-05
-0.000324431
-1.01596e-06
-0.000308737
2.10992e-05
-0.000297155
4.24831e-05
-0.000291676
6.23399e-05
-0.000289705
8.05316e-05
-0.000285241
9.56977e-05
-0.000278357
0.000106997
-0.000269363
0.000115146
-0.000256392
0.00011862
-0.000238057
0.000114644
-0.000216804
0.000107154
-0.000202033
9.84552e-05
-0.000187095
8.60438e-05
-0.000167796
6.76088e-05
-0.000142704
4.14113e-05
-0.000112946
7.51555e-06
-8.43681e-05
-2.83447e-05
-6.3888e-05
-5.92213e-05
-4.86789e-05
-8.57102e-05
-3.6365e-05
-0.000105352
-2.88836e-05
-0.000109608
-2.41102e-05
-0.000106856
-2.02545e-05
-0.000106398
-0.000112417
-1.61372e-05
-0.000348592
-0.000196612
-0.000385042
-0.000194742
-0.000412752
-0.000185886
-0.000432094
-0.000169075
-0.00044352
-0.000145724
-0.000444716
-0.000118941
-0.000437436
-9.03536e-05
-0.000426045
-6.31189e-05
-0.000411695
-3.75929e-05
-0.000395539
-1.33824e-05
-0.0003803
9.46791e-06
-0.0003654
3.18e-05
-0.000351251
5.20899e-05
-0.000336984
6.92563e-05
-0.000320598
8.31427e-05
-0.000302563
9.30094e-05
-0.000282019
9.70135e-05
-0.000255601
9.57456e-05
-0.000234565
9.16314e-05
-0.000218242
8.63752e-05
-0.000201836
7.65865e-05
-0.000182363
6.0991e-05
-0.000158069
3.85517e-05
-0.000130151
9.42396e-06
-0.000101947
-2.3128e-05
-8.01269e-05
-5.31692e-05
-6.31643e-05
-8.05579e-05
-5.01012e-05
-0.000103846
-4.08734e-05
-0.00011695
-3.71115e-05
-0.000118534
-3.53126e-05
-0.000119473
-3.50372e-05
-0.000127955
-0.000135177
-3.22354e-05
-0.000325226
-0.000185306
-0.000358894
-0.000180315
-0.000390706
-0.000175088
-0.000414102
-0.000165651
-0.000430468
-0.000147857
-0.000439378
-0.000126874
-0.000441006
-0.000101545
-0.000438953
-7.62862e-05
-0.000433347
-5.10283e-05
-0.00042406
-2.72486e-05
-0.000411333
-4.54058e-06
-0.000395125
1.69312e-05
-0.000374958
3.67107e-05
-0.000351933
5.27453e-05
-0.000326374
6.38745e-05
-0.000297293
7.01508e-05
-0.000267922
7.31047e-05
-0.000247962
7.36232e-05
-0.000230738
7.05848e-05
-0.000212683
6.3397e-05
-0.000192715
5.08797e-05
-0.000169052
3.21166e-05
-0.000142988
7.43444e-06
-0.000116496
-2.10119e-05
-9.45831e-05
-4.90167e-05
-7.67815e-05
-7.57458e-05
-6.25409e-05
-9.86187e-05
-5.1514e-05
-0.000115572
-4.66385e-05
-0.000123726
-4.64664e-05
-0.000125616
-4.94667e-05
-0.000133938
-4.95705e-05
-0.000143055
-0.000143681
-4.60113e-05
-0.000314631
-0.000177784
-0.000332218
-0.000170449
-0.00035776
-0.000161601
-0.000385114
-0.000153231
-0.000404621
-0.000141609
-0.000418065
-0.000125861
-0.000427083
-0.000106327
-0.000427799
-8.55937e-05
-0.000423522
-6.30718e-05
-0.000415622
-4.09384e-05
-0.000401499
-2.00394e-05
-0.00038231
-8.12445e-07
-0.000358852
1.65532e-05
-0.000331439
3.00735e-05
-0.000301841
4.05935e-05
-0.000277746
4.73887e-05
-0.000258422
5.11673e-05
-0.000239455
5.08922e-05
-0.000219697
4.66144e-05
-0.000198959
3.74572e-05
-0.000175792
2.25502e-05
-0.000151169
2.40048e-06
-0.000127052
-2.14714e-05
-0.000105839
-4.64654e-05
-8.83473e-05
-7.08168e-05
-7.34578e-05
-9.31324e-05
-6.17815e-05
-0.000110378
-5.41275e-05
-0.000120945
-5.35658e-05
-0.000126555
-5.79823e-05
-0.000132054
-6.33329e-05
-0.000144833
-6.21969e-05
-0.000146471
-0.000144038
-5.97995e-05
-0.000311923
-0.000171709
-0.000321188
-0.000164913
-0.000332672
-0.000155729
-0.000348277
-0.000144787
-0.000364086
-0.000132772
-0.000376233
-0.00011918
-0.000385271
-0.000104227
-0.000389468
-8.75624e-05
-0.00038543
-7.00538e-05
-0.000375107
-5.1706e-05
-0.000362259
-3.40402e-05
-0.000344053
-1.79467e-05
-0.000322316
-3.42278e-06
-0.000301234
9.06184e-06
-0.000282313
1.81289e-05
-0.000263479
2.44551e-05
-0.000243509
2.71243e-05
-0.00022262
2.59056e-05
-0.000201133
2.04708e-05
-0.000178571
9.97348e-06
-0.000155434
-5.06224e-06
-0.000133447
-2.38664e-05
-0.000113627
-4.50766e-05
-9.64994e-05
-6.6491e-05
-8.21815e-05
-8.68649e-05
-7.0577e-05
-0.000103764
-6.14996e-05
-0.000115528
-5.82538e-05
-0.00012099
-6.2145e-05
-0.00012591
-7.11887e-05
-0.000138802
-7.41876e-05
-0.000143476
-7.43421e-05
-0.000142542
-0.000137247
-7.25161e-05
-0.000311421
-0.000163784
-0.000317673
-0.000158001
-0.000324055
-0.000150673
-0.000330646
-0.000141295
-0.000337322
-0.000130611
-0.000342911
-0.000119001
-0.000346409
-0.000106091
-0.000347045
-9.25484e-05
-0.000343874
-7.82873e-05
-0.000336386
-6.3738e-05
-0.000325564
-4.95475e-05
-0.000312175
-3.60931e-05
-0.000296021
-2.386e-05
-0.000279773
-1.34667e-05
-0.000262449
-5.2448e-06
-0.000242765
-5.3302e-08
-0.00022173
1.8373e-06
-0.000200386
2.24205e-07
-0.000178459
-5.26418e-06
-0.000156873
-1.49339e-05
-0.000136476
-2.84157e-05
-0.000117812
-4.4845e-05
-0.000101524
-6.26235e-05
-8.79544e-05
-8.01312e-05
-7.69074e-05
-9.57149e-05
-6.83307e-05
-0.00010753
-6.22485e-05
-0.00011349
-6.38242e-05
-0.000118102
-7.34179e-05
-0.000124362
-8.17366e-05
-0.000136917
-8.46906e-05
-0.000136134
-8.51789e-05
-0.000132371
-0.000126386
-8.73014e-05
-0.000310385
-0.00015467
-0.000314873
-0.000150257
-0.00031898
-0.000144226
-0.0003225
-0.000137114
-0.000325616
-0.000128527
-0.000327581
-0.00011932
-0.000327902
-0.000109237
-0.000325832
-9.85899e-05
-0.000320801
-8.74096e-05
-0.000313005
-7.59597e-05
-0.000302239
-6.47284e-05
-0.000289084
-5.38269e-05
-0.000274003
-4.38969e-05
-0.000257526
-3.52582e-05
-0.000239435
-2.8243e-05
-0.000219258
-2.36363e-05
-0.000198137
-2.18246e-05
-0.000177185
-2.29809e-05
-0.000156652
-2.74405e-05
-0.000137262
-3.54985e-05
-0.000119289
-4.6563e-05
-0.000103778
-5.96639e-05
-9.05971e-05
-7.3517e-05
-8.04228e-05
-8.67295e-05
-7.25552e-05
-9.79649e-05
-6.62295e-05
-0.000104763
-6.50311e-05
-0.000107014
-7.12051e-05
-0.000111558
-8.40792e-05
-0.000122776
-9.12446e-05
-0.000126502
-9.46089e-05
-0.000124582
-9.79778e-05
-0.000117655
-0.00011448
-0.000108046
-0.000307458
-0.000144781
-0.000310747
-0.000141531
-0.000313178
-0.000137136
-0.000314813
-0.00013166
-0.000315479
-0.000125421
-0.000315198
-0.000118385
-0.000313309
-0.000111124
-0.000309315
-0.000103329
-0.000302821
-9.52097e-05
-0.000293947
-8.67999e-05
-0.000282707
-7.84393e-05
-0.000268977
-7.01429e-05
-0.000253124
-6.22333e-05
-0.000235447
-5.50039e-05
-0.000216542
-4.88503e-05
-0.000196454
-4.43459e-05
-0.000175965
-4.19759e-05
-0.000155951
-4.21263e-05
-0.000136799
-4.4947e-05
-0.000119292
-5.04959e-05
-0.000103837
-5.8545e-05
-9.08669e-05
-6.80949e-05
-8.09884e-05
-7.79109e-05
-7.39968e-05
-8.70838e-05
-6.91094e-05
-9.41962e-05
-6.59202e-05
-9.66472e-05
-7.00481e-05
-9.97863e-05
-8.07014e-05
-0.00010455
-9.41199e-05
-0.00011529
-0.00010072
-0.000113867
-0.000105367
-0.000108104
-0.000115989
-0.000104066
-9.93149e-05
-0.000135406
-0.000302525
-0.000134527
-0.000304715
-0.000132177
-0.000305971
-0.000129132
-0.000306046
-0.000125323
-0.000305006
-0.000121038
-0.000302842
-0.000116357
-0.000299342
-0.000111508
-0.000294131
-0.000106632
-0.000286885
-0.000101446
-0.00027716
-9.59554e-05
-0.000265066
-9.01797e-05
-0.000250537
-8.42278e-05
-0.000233811
-7.80733e-05
-0.000215145
-7.20469e-05
-0.000195391
-6.63199e-05
-0.000175164
-6.15212e-05
-0.00015504
-5.81344e-05
-0.000135834
-5.65228e-05
-0.000118257
-5.70398e-05
-0.000102771
-5.97453e-05
-8.97768e-05
-6.44027e-05
-7.95717e-05
-7.03485e-05
-7.29995e-05
-7.66353e-05
-6.96644e-05
-8.2481e-05
-6.769e-05
-8.61077e-05
-6.90077e-05
-8.66667e-05
-7.68471e-05
-8.97152e-05
-9.17369e-05
-9.67377e-05
-0.000102736
-0.000100776
-0.000110028
-9.82046e-05
-0.000119983
-9.32277e-05
-0.000138102
-8.77284e-05
-8.33663e-05
-0.000167582
-0.000295475
-0.000124188
-0.000296664
-0.000122405
-0.000296595
-0.000120431
-0.000295494
-0.000117977
-0.000293176
-0.000115472
-0.000289648
-0.000112977
-0.000284902
-0.000110594
-0.000278677
-0.000108409
-0.000270503
-0.000106259
-0.000260044
-0.000103643
-0.000247214
-0.000100421
-0.000231959
-9.66205e-05
-0.000214602
-9.20718e-05
-0.000195643
-8.68431e-05
-0.000175637
-8.11477e-05
-0.00015559
-7.55574e-05
-0.000136121
-7.07113e-05
-0.000118072
-6.70131e-05
-0.000102034
-6.50901e-05
-8.85357e-05
-6.51168e-05
-7.84311e-05
-6.67402e-05
-7.21967e-05
-6.92858e-05
-6.9429e-05
-7.2253e-05
-6.8802e-05
-7.46518e-05
-6.90383e-05
-7.49368e-05
-7.51627e-05
-7.61015e-05
-8.64385e-05
-7.86203e-05
-0.000102309
-8.63314e-05
-0.000111938
-8.52517e-05
-0.000121647
-8.18112e-05
-0.000136812
-7.67375e-05
-0.000163835
-7.19623e-05
-5.83533e-05
-0.00019339
-0.000288052
-0.000114029
-0.000287114
-0.000112755
-0.00028552
-0.00011135
-0.000282582
-0.000110248
-0.000278983
-0.00010922
-0.000274925
-0.000109096
-0.000270049
-0.000109526
-0.000263883
-0.000110338
-0.00025577
-0.000111261
-0.000245385
-0.000111902
-0.000232771
-0.000111523
-0.00021756
-0.000110066
-0.00019991
-0.000107259
-0.000180671
-0.000102549
-0.00016066
-9.63765e-05
-0.000140768
-8.94963e-05
-0.000122027
-8.24883e-05
-0.000105328
-7.62551e-05
-9.14055e-05
-7.13527e-05
-8.08394e-05
-6.80055e-05
-7.39317e-05
-6.61245e-05
-7.07441e-05
-6.52087e-05
-7.0502e-05
-6.4935e-05
-7.15252e-05
-6.41731e-05
-7.4764e-05
-6.20252e-05
-8.38753e-05
-6.33295e-05
-9.89417e-05
-6.73233e-05
-0.000112158
-7.07331e-05
-0.000122348
-6.92819e-05
-0.000135135
-6.57172e-05
-0.000156912
-6.06079e-05
-0.000186089
-5.35515e-05
-3.15013e-05
-0.000211081
-0.000278736
-0.000104416
-0.000276936
-0.000103221
-0.000273748
-0.000102903
-0.000270091
-0.000102762
-0.000266406
-0.000104067
-0.000262483
-0.000106198
-0.000258117
-0.000109284
-0.000252966
-0.00011333
-0.000246669
-0.000118013
-0.000238671
-0.000122713
-0.000228514
-0.000126675
-0.000215028
-0.000128027
-0.000197538
-0.000125932
-0.000178003
-0.000121097
-0.000158167
-0.000114138
-0.000138408
-0.000105651
-0.000119978
-9.64553e-05
-0.000104041
-8.72835e-05
-9.14558e-05
-7.88411e-05
-8.2667e-05
-7.16432e-05
-7.75909e-05
-6.57725e-05
-7.57794e-05
-6.08169e-05
-7.62374e-05
-5.60266e-05