/*--------------------------------*- C++ -*----------------------------------*\
  =========                 |
  \\      /  F ield         | OpenFOAM: The Open Source CFD Toolbox
   \\    /   O peration     | Website:  https://openfoam.org
    \\  /    A nd           | Version:  10
     \\/     M anipulation  |
\*---------------------------------------------------------------------------*/
FoamFile
{
    format      ascii;
    class       volScalarField;
    location    "0.40069";
    object      rho;
}
// * * * * * * * * * * * * * * * * * * * * * * * * * * * * * * * * * * * * * //

dimensions      [1 -3 0 0 0 0 0];

internalField   nonuniform List<scalar> 
16320
(
0.766322
0.639374
0.586601
0.548564
0.516678
0.4951
0.481833
0.475041
0.476968
0.497791
0.54031
0.579359
0.614065
0.643785
0.672446
0.694335
0.708234
0.718617
0.724654
0.722571
0.72442
0.724355
0.725152
0.730115
0.740455
0.758889
0.788928
0.829988
0.847292
0.867782
0.914503
1.00463
1.12788
0.793226
0.652477
0.568237
0.525556
0.49619
0.478113
0.467635
0.462944
0.464663
0.475638
0.50448
0.546271
0.593698
0.632289
0.663395
0.686754
0.701195
0.709806
0.715693
0.716385
0.717552
0.719101
0.72273
0.73101
0.746053
0.770379
0.798499
0.8059
0.817142
0.853363
0.927615
1.03339
1.18564
0.810548
0.693098
0.558213
0.508385
0.482087
0.46771
0.459885
0.456797
0.458857
0.467341
0.485902
0.513492
0.547998
0.590684
0.628011
0.659923
0.679129
0.689514
0.696393
0.69923
0.702774
0.70849
0.718489
0.734483
0.755661
0.768448
0.767856
0.773663
0.798322
0.85532
0.940218
1.08669
1.22226
0.800971
0.723898
0.596481
0.509811
0.478319
0.464351
0.457976
0.456483
0.458888
0.466672
0.480193
0.49998
0.522711
0.549456
0.576536
0.601812
0.625497
0.642364
0.657471
0.668901
0.679487
0.691197
0.706404
0.722178
0.733775
0.741355
0.751165
0.770704
0.806449
0.865839
0.98855
1.11664
1.22402
0.764722
0.710846
0.63567
0.557145
0.509011
0.483081
0.471101
0.466499
0.466207
0.472044
0.482781
0.497819
0.514922
0.533217
0.550933
0.567368
0.581842
0.596387
0.61053
0.625252
0.642973
0.665217
0.689893
0.712165
0.729768
0.74159
0.760982
0.784982
0.828995
0.915556
1.01325
1.10692
1.19526
0.685363
0.65447
0.618286
0.563107
0.52883
0.507315
0.493862
0.486097
0.484313
0.486518
0.492072
0.502121
0.515379
0.529901
0.544344
0.557147
0.570932
0.585232
0.601556
0.623232
0.650329
0.679311
0.706163
0.725747
0.738435
0.754316
0.776122
0.817653
0.881834
0.948383
1.02189
1.08728
1.15959
0.56511
0.558773
0.553241
0.539068
0.527299
0.516012
0.506052
0.499867
0.498092
0.499764
0.503551
0.510492
0.52073
0.533071
0.54708
0.561046
0.577787
0.59679
0.621864
0.651425
0.68117
0.707464
0.724929
0.739399
0.755173
0.78221
0.826355
0.872587
0.918135
0.965536
1.01683
1.06042
1.1145
0.521326
0.512616
0.513504
0.516019
0.51836
0.519386
0.517549
0.513953
0.512903
0.514506
0.518848
0.524962
0.533243
0.545693
0.559992
0.579077
0.601876
0.629527
0.660909
0.691542
0.716984
0.734771
0.751291
0.770997
0.799544
0.826808
0.852403
0.882438
0.915657
0.955527
0.996684
1.02949
1.06799
0.495673
0.488031
0.488846
0.495596
0.505348
0.515771
0.522989
0.525849
0.528065
0.530682
0.535025
0.541926
0.551896
0.566458
0.585369
0.610611
0.640105
0.672428
0.702687
0.725655
0.741447
0.753514
0.765778
0.780729
0.799541
0.818156
0.837588
0.859458
0.887439
0.930554
0.97242
1.00194
1.02951
0.48174
0.474812
0.472747
0.473325
0.475715
0.480859
0.49149
0.504117
0.518224
0.529818
0.541609
0.552868
0.567863
0.586564
0.609905
0.63769
0.667119
0.692206
0.708595
0.718029
0.724031
0.729006
0.730385
0.730933
0.734008
0.738292
0.748771
0.777305
0.841205
0.906004
0.952533
0.976757
0.992613
0.493353
0.48931
0.488123
0.488129
0.488294
0.488141
0.488129
0.489402
0.49277
0.500517
0.512855
0.528345
0.547746
0.570571
0.596816
0.620565
0.638683
0.650579
0.656175
0.658282
0.65355
0.652022
0.644242
0.641538
0.643761
0.651514
0.675308
0.744386
0.829805
0.902516
0.938927
0.95182
0.936048
0.514506
0.513466
0.513328
0.513135
0.512113
0.510547
0.50838
0.506614
0.506079
0.507955
0.513518
0.523254
0.537054
0.553812
0.571301
0.586837
0.598182
0.605856
0.608944
0.612106
0.611049
0.612449
0.610866
0.611433
0.616136
0.627828
0.660642
0.749875
0.848894
0.905159
0.92095
0.904652
0.823111
0.554201
0.557162
0.557025
0.554813
0.549628
0.541816
0.533154
0.525419
0.520308
0.518383
0.520698
0.527268
0.537401
0.549342
0.560994
0.570716
0.578296
0.583466
0.586831
0.589712
0.591822
0.595226
0.595493
0.597982
0.604771
0.621354
0.675349
0.792638
0.871839
0.896267
0.8845
0.801828
0.764992
0.620587
0.621757
0.617041
0.608799
0.594422
0.577562
0.559814
0.543177
0.532243
0.524336
0.522599
0.52611
0.532271
0.540587
0.548067
0.554444
0.559873
0.564453
0.56934
0.573088
0.57835
0.583309
0.584923
0.590426
0.600939
0.630965
0.737731
0.841958
0.876812
0.868574
0.786153
0.747207
0.749037
0.691369
0.682854
0.668312
0.648742
0.627359
0.607024
0.587355
0.569313
0.550238
0.535523
0.525537
0.523061
0.524507
0.527816
0.532134
0.537108
0.542497
0.547736
0.552995
0.558042
0.56511
0.570862
0.575846
0.585289
0.605558
0.685827
0.812086
0.859139
0.857136
0.775639
0.732321
0.735904
0.74444
0.739851
0.717797
0.688526
0.655838
0.62556
0.59919
0.578199
0.561282
0.551013
0.539462
0.529349
0.52227
0.517563
0.516743
0.517206
0.519713
0.524453
0.528708
0.534976
0.54297
0.552599
0.561006
0.570199
0.585692
0.640241
0.777235
0.840616
0.847687
0.769361
0.718004
0.724126
0.733484
0.733192
0.771036
0.736229
0.695303
0.651984
0.613327
0.578943
0.553837
0.538196
0.531563
0.523235
0.516978
0.509562
0.504467
0.502517
0.500836
0.503157
0.505431
0.510934
0.519888
0.532585
0.544815
0.555684
0.569445
0.609196
0.740665
0.825946
0.835226
0.768547
0.704492
0.709097
0.7232
0.722994
0.704681
0.793924
0.759167
0.71182
0.656942
0.606121
0.56416
0.531933
0.504817
0.492641
0.487977
0.489157
0.486526
0.48604
0.48456
0.482869
0.482284
0.48752
0.497945
0.512261
0.528177
0.54134
0.556252
0.587893
0.715219
0.813695
0.820656
0.764583
0.698236
0.69385
0.716945
0.718129
0.698358
0.64591
0.847077
0.815463
0.762137
0.70103
0.634974
0.577023
0.525128
0.488713
0.465979
0.45618
0.455908
0.457502
0.460768
0.460364
0.461894
0.468834
0.480099
0.494696
0.511699
0.528332
0.544712
0.576632
0.692946
0.786646
0.8104
0.755432
0.687908
0.683414
0.707526
0.712051
0.694412
0.640899
0.606538
0.867543
0.831251
0.775503
0.714791
0.655696
0.601382
0.55092
0.503226
0.464056
0.445002
0.440416
0.439787
0.443046
0.447862
0.455944
0.468085
0.482511
0.499426
0.517293
0.537341
0.572634
0.68224
0.76204
0.785449
0.75234
0.678551
0.673673
0.685221
0.706702
0.689848
0.639715
0.592558
0.568684
0.830576
0.805185
0.759836
0.704694
0.651826
0.602503
0.559894
0.522767
0.485498
0.452875
0.439917
0.439595
0.443792
0.451117
0.461471
0.47788
0.494401
0.51177
0.535392
0.58027
0.681907
0.742397
0.762231
0.737076
0.667704
0.661653
0.672709
0.694541
0.679053
0.629793
0.583784
0.547847
0.514741
0.75871
0.752976
0.722989
0.678317
0.62705
0.579418
0.545529
0.520091
0.497011
0.477202
0.461429
0.455847
0.460499
0.469628
0.481393
0.49543
0.514916
0.543815
0.608899
0.688177
0.727279
0.741294
0.715906
0.654191
0.647891
0.656569
0.671807
0.669619
0.618154
0.579501
0.553394
0.514189
0.485554
0.67411
0.67956
0.674982
0.648976
0.604871
0.562318
0.530852
0.509202
0.494433
0.486207
0.480113
0.479429
0.486127
0.496007
0.508269
0.530043
0.57134
0.64665
0.694632
0.718909
0.722251
0.692042
0.641081
0.635628
0.642314
0.654957
0.654367
0.610995
0.575882
0.557829
0.533263
0.497844
0.474031
0.588968
0.604272
0.620211
0.626568
0.603842
0.565149
0.532106
0.512558
0.502201
0.502288
0.505561
0.51133
0.523226
0.538609
0.57248
0.627466
0.676116
0.702936
0.713878
0.706541
0.667513
0.62903
0.624359
0.628624
0.637428
0.637133
0.608766
0.571326
0.556364
0.540405
0.517676
0.491643
0.483775
0.519278
0.545422
0.573223
0.596757
0.610447
0.602772
0.583567
0.564318
0.554635
0.553635
0.564522
0.578268
0.600236
0.637772
0.673504
0.695157
0.707338
0.706648
0.689457
0.643035
0.618633
0.614491
0.616269
0.62178
0.620757
0.599326
0.572149
0.552515
0.545145
0.525936
0.510058
0.506917
0.530663
0.462496
0.501245
0.535156
0.563853
0.588583
0.605545
0.61512
0.621204
0.628011
0.6338
0.642811
0.658884
0.674811
0.691576
0.702152
0.701314
0.691653
0.663633
0.620966
0.607655
0.604064
0.604501
0.606581
0.604439
0.590539
0.569708
0.553472
0.542456
0.526562
0.512184
0.516866
0.550983
0.60919
0.420144
0.449489
0.494961
0.531073
0.557037
0.585739
0.601567
0.618447
0.635082
0.650342
0.664026
0.67511
0.684061
0.683752
0.678673
0.658871
0.623145
0.600842
0.594173
0.591581
0.591498
0.591935
0.588788
0.580857
0.565092
0.555414
0.540635
0.525167
0.507904
0.507502
0.540789
0.605726
0.636587
0.404795
0.417865
0.443229
0.484252
0.517637
0.548038
0.572963
0.595707
0.608014
0.624085
0.632563
0.635801
0.633068
0.623345
0.605174
0.586034
0.579809
0.57769
0.576758
0.577217
0.577811
0.574485
0.569744
0.560474
0.55171
0.54344
0.52484
0.506031
0.495504
0.51187
0.578908
0.617793
0.632093
0.399766
0.407765
0.419798
0.437831
0.464335
0.490836
0.513332
0.536568
0.554441
0.560099
0.565645
0.568814
0.56214
0.557366
0.555871
0.55824
0.559719
0.560225
0.561767
0.563091
0.561086
0.55768
0.55372
0.547562
0.541065
0.527347
0.509135
0.488573
0.487729
0.536071
0.592737
0.61359
0.617521
0.400233
0.40708
0.415645
0.425527
0.438363
0.452737
0.468121
0.483411
0.497081
0.507626
0.515368
0.521527
0.526573
0.53102
0.537719
0.542083
0.544116
0.545764
0.546836
0.546944
0.545761
0.543613
0.541376
0.535887
0.527997
0.514185
0.492651
0.478379
0.493588
0.562661
0.591637
0.602499
0.58895
0.403722
0.409485
0.417043
0.424984
0.433899
0.444772
0.455661
0.467579
0.478008
0.487819
0.496931
0.504246
0.511868
0.519081
0.525804
0.529964
0.532041
0.53344
0.534369
0.534846
0.534466
0.53353
0.530374
0.525419
0.518166
0.499786
0.476863
0.475606
0.514955
0.568979
0.586334
0.57785
0.581255
0.406564
0.41352
0.419502
0.427047
0.434378
0.443117
0.452785
0.462463
0.472307
0.481152
0.490561
0.498605
0.506213
0.512632
0.518113
0.522004
0.524227
0.526018
0.527216
0.5271
0.526522
0.524939
0.522107
0.516878
0.505909
0.484108
0.470074
0.481299
0.539373
0.567907
0.572024
0.570702
0.590194
0.409966
0.41548
0.422531
0.4286
0.435833
0.443071
0.451903
0.461077
0.471003
0.480637
0.489732
0.498494
0.505595
0.511817
0.515504
0.518543
0.520294
0.520577
0.520622
0.520366
0.5194
0.515983
0.510492
0.505251
0.493605
0.472062
0.470107
0.498598
0.548456
0.564114
0.563519
0.577164
0.625615
0.410936
0.417026
0.4225
0.428716
0.435019
0.442183
0.450005
0.459389
0.469397
0.479444
0.489101
0.497879
0.504984
0.510954
0.514442
0.516194
0.51716
0.516256
0.515419
0.513197
0.509724
0.505756
0.503025
0.497505
0.482546
0.469828
0.476453
0.521604
0.549824
0.558656
0.566896
0.602615
0.663839
0.414572
0.416567
0.421602
0.425436
0.430714
0.437537
0.446539
0.457407
0.469369
0.481785
0.493913
0.504668
0.513148
0.519269
0.522424
0.522897
0.521276
0.518409
0.515383
0.512384
0.509674
0.50705
0.505138
0.497226
0.478111
0.474141
0.492695
0.53618
0.550659
0.559682
0.581369
0.641996
0.680191
0.413928
0.417743
0.418644
0.422768
0.427578
0.435566
0.446444
0.460295
0.477154
0.496025
0.516129
0.53499
0.548342
0.556371
0.561502
0.56316
0.560339
0.554727
0.54717
0.53904
0.531272
0.523566
0.514884
0.497628
0.48049
0.483657
0.515807
0.542478
0.553021
0.567313
0.613515
0.667198
0.689232
0.418891
0.416023
0.419194
0.421504
0.427631
0.4372
0.451413
0.471717
0.497904
0.527211
0.551674
0.567666
0.578033
0.585227
0.590393
0.593875
0.596152
0.597232
0.596413
0.592192
0.58218
0.562619
0.532002
0.496828
0.488673
0.50035
0.534352
0.547954
0.558453
0.587869
0.650358
0.680705
0.694493
0.41906
0.418512
0.419073
0.42313
0.430261
0.44204
0.461123
0.488013
0.520217
0.546566
0.562263
0.573084
0.581482
0.587839
0.592327
0.596579
0.601129
0.605616
0.608995
0.608884
0.601006
0.577742
0.53223
0.500074
0.501754
0.524261
0.54431
0.553781
0.572312
0.624836
0.673258
0.689954
0.69576
0.429305
0.422446
0.423062
0.426979
0.435083
0.449541
0.471933
0.501587
0.531347
0.550458
0.562296
0.570921
0.575727
0.57624
0.575778
0.58024
0.588185
0.598075
0.607019
0.606995
0.58924
0.545051
0.511
0.510886
0.523305
0.543594
0.552378
0.563711
0.600008
0.662255
0.687987
0.698143
0.69745
0.442411
0.432312
0.429552
0.432699
0.441248
0.457774
0.481835
0.510887
0.534636
0.54714
0.555197
0.557957
0.553004
0.542502
0.536634
0.542476
0.553695
0.567913
0.579546
0.576684
0.543466
0.516574
0.51861
0.527865
0.545196
0.553285
0.560586
0.584458
0.640547
0.686104
0.699615
0.705347
0.700755
0.468349
0.443964
0.438709
0.439662
0.447884
0.464229
0.48873
0.515948
0.532109
0.540309
0.54444
0.538796
0.523523
0.503894
0.498003
0.505548
0.518394
0.531413
0.538321
0.524448
0.516498
0.52309
0.532875
0.547069
0.555222
0.560857
0.576767
0.618396
0.678059
0.703656
0.711269
0.714254
0.708374
0.523404
0.463446
0.450255
0.448698
0.454697
0.470568
0.494602
0.518099
0.529353
0.535598
0.534752
0.521169
0.496975
0.470728
0.464692
0.472363
0.48423
0.497072
0.505744
0.512126
0.523705
0.536178
0.549421
0.5573
0.563436
0.575736
0.608877
0.663001
0.706858
0.721325
0.725057
0.726204
0.720579
0.61447
0.498
0.46627
0.45937
0.46276
0.476374
0.499685
0.519921
0.528193
0.532536
0.52672
0.506579
0.475957
0.450406
0.449973
0.458582
0.471932
0.48903
0.505074
0.521931
0.537045
0.549398
0.559137
0.565237
0.575929
0.604576
0.651807
0.700406
0.730865
0.741233
0.744056
0.744302
0.740305
0.707122
0.572368
0.49121
0.474097
0.47236
0.482451
0.503859
0.522106
0.528451
0.531112
0.522145
0.499106
0.467924
0.447432
0.450352
0.459642
0.474168
0.497027
0.518161
0.533486
0.547449
0.55699
0.565206
0.574287
0.59698
0.639157
0.68198
0.714517
0.742899
0.759362
0.765021
0.766848
0.768966
0.799652
0.666993
0.540244
0.494403
0.485543
0.489802
0.507514
0.524945
0.53018
0.531679
0.521301
0.497401
0.467063
0.451396
0.45701
0.467655
0.485724
0.510621
0.527803
0.542569
0.552314
0.560915
0.570043
0.586064
0.618739
0.65576
0.683299
0.707171
0.728429
0.749833
0.770698
0.780918
0.788381
0.900197
0.74665
0.624616
0.526296
0.503315
0.500611
0.512082
0.52867
0.533556
0.534682
0.524483
0.501341
0.471291
0.458774
0.466427
0.478349
0.499115
0.520643
0.53539
0.546402
0.551784
0.562907
0.573252
0.593027
0.624638
0.647873
0.659918
0.665644
0.675057
0.690778
0.711794
0.737008
0.765204
0.966185
0.82771
0.706717
0.590415
0.528031
0.516738
0.519726
0.533201
0.538452
0.539521
0.530975
0.508785
0.479483
0.469397
0.477649
0.490506
0.511232
0.527388
0.540006
0.544837
0.550973
0.562166
0.573412
0.592346
0.613781
0.616278
0.616417
0.615534
0.615072
0.617687
0.626654
0.639192
0.657911
0.975464
0.902814
0.77459
0.67558
0.571012
0.537484
0.532217
0.538324
0.544713
0.545764
0.541812
0.526222
0.501815
0.486205
0.492769
0.503876
0.519068
0.532574
0.540878
0.541729
0.548957
0.559124
0.568177
0.581328
0.590698
0.587819
0.587743
0.582652
0.580627
0.581721
0.586603
0.591839
0.600742
0.978986
0.9402
0.83975
0.740916
0.643821
0.567437
0.550176
0.547528
0.551217
0.551966
0.550592
0.540084
0.52017
0.502278
0.504249
0.514037
0.525527
0.536169
0.539906
0.537267
0.542667
0.550326
0.556214
0.561167
0.564819
0.556039
0.550595
0.538708
0.536049
0.539402
0.547743
0.556215
0.568143
0.998613
0.948407
0.893591
0.795193
0.718778
0.621094
0.572741
0.562929
0.561888
0.563579
0.563056
0.55764
0.542343
0.522145
0.516276
0.523134
0.532119
0.539106
0.540555
0.536848
0.537356
0.541565
0.54302
0.540179
0.533063
0.519777
0.502701
0.485978
0.473452
0.468268
0.470896
0.479552
0.494941
1.0189
0.958216
0.920784
0.853691
0.778699
0.697719
0.607081
0.580955
0.574607
0.575688
0.57672
0.574984
0.565488
0.545945
0.529122
0.530185
0.536911
0.542145
0.54182
0.537283
0.5361
0.539159
0.538572
0.533055
0.521973
0.502
0.478587
0.456415
0.438647
0.42809
0.424797
0.424676
0.429772
1.04126
0.965868
0.9287
0.899003
0.829682
0.765684
0.664078
0.601375
0.58826
0.585156
0.589747
0.589832
0.585869
0.571775
0.551168
0.540443
0.542464
0.54606
0.543869
0.538466
0.5363
0.538026
0.537257
0.531475
0.520169
0.499736
0.475072
0.452283
0.430662
0.415054
0.408902
0.40798
0.41099
1.06279
0.980959
0.926715
0.915534
0.87601
0.81888
0.732133
0.63056
0.603527
0.595741
0.600775
0.605013
0.602768
0.593607
0.573685
0.556197
0.551721
0.553548
0.550678
0.5437
0.541231
0.543036
0.544088
0.538867
0.526008
0.503983
0.477071
0.453718
0.431487
0.414011
0.402634
0.399251
0.401307
1.08502
1.00341
0.922591
0.905708
0.907814
0.858222
0.792574
0.676364
0.620491
0.608659
0.61057
0.622661
0.622368
0.617059
0.600253
0.579136
0.567144
0.565969
0.56574
0.560146
0.555916
0.553213
0.546535
0.540405
0.530435
0.509364
0.481986
0.455777
0.433608
0.415708
0.401293
0.39425
0.39437
1.10825
1.02614
0.92888
0.886522
0.910299
0.888605
0.839808
0.733855
0.640919
0.622491
0.62
0.637985
0.644169
0.640378
0.629406
0.608714
0.590062
0.583772
0.583498
0.580064
0.573746
0.567743
0.557905
0.543927
0.526581
0.506154
0.478121
0.450909
0.429757
0.414109
0.402095
0.394296
0.39277
1.12527
1.04931
0.946579
0.871935
0.880938
0.908089
0.871652
0.792442
0.670439
0.635666
0.628455
0.6459
0.665025
0.664062
0.657946
0.643158
0.620226
0.605011
0.598954
0.595687
0.588742
0.579199
0.566464
0.55161
0.527972
0.50297
0.474963
0.447696
0.426278
0.410975
0.401916
0.396063
0.392862
1.13139
1.0719
0.968585
0.868798
0.842821
0.899163
0.891736
0.841241
0.718444
0.647806
0.636183
0.64631
0.677191
0.684636
0.681558
0.675344
0.660326
0.641764
0.62698
0.615755
0.604236
0.591455
0.576187
0.558403
0.534011
0.506028
0.47666
0.448871
0.426783
0.411795
0.403342
0.396523
0.393577
1.13211
1.08611
0.994827
0.880336
0.817037
0.851902
0.900354
0.873204
0.778947
0.665955
0.644804
0.644861
0.675051
0.697029
0.695044
0.692589
0.689083
0.683506
0.675302
0.663495
0.648122
0.62952
0.608298
0.58319
0.556374
0.524539
0.491642
0.460745
0.435171
0.417584
0.407276
0.399907
0.395104
1.12661
1.09071
1.01573
0.900552
0.808809
0.798166
0.88067
0.887965
0.836378
0.703431
0.652464
0.646255
0.664878
0.695141
0.701437
0.697203
0.694984
0.697947
0.699527
0.701619
0.700034
0.692391
0.679186
0.660234
0.635586
0.602229
0.560521
0.513682
0.468963
0.437565
0.419145
0.407558
0.402952
1.11992
1.08921
1.02773
0.924172
0.814697
0.764081
0.815859
0.88824
0.869387
0.767684
0.663833
0.649837
0.657743
0.685584
0.689797
0.685125
0.687094
0.69196
0.695765
0.699345
0.703813
0.708585
0.709826
0.707763
0.702384
0.689633
0.667469
0.635944
0.590018
0.530368
0.473551
0.433859
0.416802
1.11313
1.0828
1.02987
0.943855
0.830764
0.750845
0.746584
0.84881
0.878876
0.834575
0.697879
0.653698
0.654221
0.678052
0.679994
0.669731
0.66334
0.661481
0.663154
0.667752
0.675194
0.684844
0.692035
0.694959
0.696364
0.692939
0.688775
0.683074
0.667882
0.643575
0.599488
0.539541
0.476237
1.10739
1.07677
1.02817
0.954447
0.852665
0.756945
0.7116
0.754875
0.866419
0.864991
0.777299
0.665874
0.652393
0.6671
0.678742
0.671648
0.66064
0.648628
0.639122
0.631884
0.626134
0.621642
0.61924
0.620688
0.623164
0.624413
0.628136
0.636345
0.653373
0.670208
0.669596
0.646661
0.598442
1.10232
1.07403
1.02385
0.957375
0.870255
0.775816
0.70813
0.692944
0.781514
0.865756
0.846695
0.720035
0.656073
0.656746
0.67202
0.6756
0.670399
0.660437
0.645173
0.632463
0.622227
0.61318
0.603556
0.592582
0.578982
0.574625
0.572325
0.572422
0.581282
0.613282
0.674937
0.690143
0.681442
1.09308
1.0725
1.02194
0.956903
0.877591
0.796765
0.72254
0.677344
0.687182
0.815314
0.862958
0.817539
0.684582
0.651644
0.655794
0.671344
0.677329
0.681032
0.689916
0.698986
0.694768
0.687224
0.67959
0.669523
0.649998
0.618098
0.587831
0.576372
0.571437
0.576382
0.610784
0.697512
0.714746
1.08042
1.07348
1.02525
0.957174
0.880952
0.808322
0.746207
0.686487
0.65552
0.688353
0.843853
0.859421
0.781425
0.66099
0.646372
0.650545
0.667473
0.676203
0.692286
0.719193
0.751491
0.790861
0.811378
0.820942
0.828338
0.811928
0.748786
0.647511
0.598078
0.582186
0.58554
0.63557
0.72803
1.06249
1.07352
1.0312
0.960152
0.884374
0.81608
0.759286
0.70981
0.65912
0.635798
0.716843
0.855623
0.845133
0.742617
0.650557
0.636811
0.63939
0.653248
0.670935
0.70001
0.739516
0.791293
0.847292
0.902963
0.931882
0.942333
0.923434
0.845121
0.70427
0.611029
0.590945
0.60021
0.694057
1.03256
1.06997
1.03861
0.966559
0.889344
0.819808
0.766547
0.721674
0.678178
0.633194
0.625628
0.789224
0.853768
0.823486
0.71098
0.639057
0.623315
0.615816
0.618904
0.640502
0.678323
0.738292
0.819934
0.911912
0.978659
1.00843
1.01088
0.973976
0.877631
0.716729
0.615679
0.605654
0.632659
0.98777
1.05977
1.04637
0.974599
0.895123
0.823945
0.7661
0.723675
0.688686
0.646763
0.60654
0.651653
0.821293
0.847414
0.79537
0.683952
0.624538
0.605903
0.596609
0.599783
0.622003
0.670912
0.753397
0.875052
1.00128
1.05765
1.06352
1.03705
0.973585
0.851536
0.680536
0.619074
0.626475
0.931068
1.0338
1.05
0.982054
0.899878
0.828087
0.764858
0.719006
0.684711
0.655041
0.607212
0.579131
0.685376
0.829509
0.836805
0.769831
0.657001
0.609287
0.594521
0.596789
0.614613
0.658104
0.739981
0.866575
1.01731
1.09647
1.10122
1.07498
1.01726
0.917894
0.765243
0.646214
0.632905
0.874335
0.989233
1.04127
0.987466
0.903843
0.82859
0.764417
0.711991
0.677611
0.650127
0.614311
0.557568
0.585861
0.757059
0.8287
0.813649
0.749066
0.649757
0.610947
0.609564
0.635875
0.685238
0.770216
0.907804
1.06317
1.13367
1.1244
1.08136
1.01758
0.940634
0.795341
0.667324
0.638268
0.830474
0.935687
1.01377
0.98769
0.907899
0.825423
0.76218
0.707087
0.668091
0.639636
0.613067
0.55806
0.533407
0.607919
0.792625
0.830933
0.794081
0.741217
0.672177
0.65247
0.685814
0.748011
0.839401
1.00565
1.13132
1.16076
1.12205
1.05017
0.9719
0.900951
0.780057
0.672298
0.639806
0.801666
0.884863
0.969808
0.97427
0.909398
0.823205
0.75662
0.702051
0.660363
0.629409
0.604418
0.559809
0.505729
0.535237
0.720102
0.817089
0.831612
0.811118
0.777067
0.761944
0.801569
0.875563
0.982948
1.12059
1.17425
1.15792
1.07959
0.979467
0.901085
0.807604
0.684718
0.64278
0.637921
0.785736
0.8491
0.920582
0.944529
0.906481
0.822796
0.752511
0.696461
0.653869
0.621174
0.595548
0.553807
0.495914
0.50136
0.606676
0.798983
0.854736
0.86953
0.889025
0.908278
0.964011
1.03699
1.11587
1.17967
1.18146
1.10139
0.986259
0.876547
0.755959
0.663778
0.62929
0.626598
0.634676
0.775697
0.826394
0.874357
0.906564
0.893067
0.82246
0.748811
0.691182
0.648563
0.615321
0.587943
0.547487
0.491571
0.479941
0.541205
0.772397
0.87919
0.931531
0.997242
1.04801
1.09458
1.13974
1.18372
1.19422
1.12371
0.990618
0.825251
0.69237
0.639292
0.621364
0.61408
0.623287
0.640166
0.769097
0.809478
0.836753
0.867036
0.872569
0.818527
0.746259
0.687621
0.644649
0.611958
0.582437
0.539985
0.485194
0.470944
0.518012
0.739177
0.923226
1.02367
1.10568
1.14929
1.17983
1.2008
1.19702
1.13073
0.983325
0.777407
0.673887
0.63361
0.612455
0.610301
0.614461
0.634268
0.656825
0.766845
0.795902
0.808875
0.834445
0.851391
0.812551
0.743998
0.685209
0.641726
0.610088
0.576479
0.526133
0.480061
0.475872
0.517449
0.716179
0.973601
1.11285
1.18507
1.21301
1.21942
1.20206
1.12493
0.928685
0.750396
0.678955
0.642678
0.615441
0.593137
0.581027
0.593009
0.622694
0.652633
0.766095
0.786232
0.789815
0.812498
0.834843
0.805626
0.74212
0.683009
0.639745
0.60812
0.567934
0.508681
0.47942
0.485439
0.53674
0.726149
1.00665
1.17388
1.22326
1.22925
1.201
1.09335
0.91687
0.766706
0.691743
0.649379
0.618889
0.592005
0.56371
0.541275
0.546189
0.598925
0.633229
0.766517
0.776706
0.777561
0.80169
0.825366
0.799433
0.738167
0.679682
0.638469
0.602935
0.550279
0.492057
0.48397
0.50177
0.572656
0.780222
1.03662
1.16773
1.20319
1.16808
1.06209
0.891157
0.759895
0.694354
0.660026
0.646887
0.618402
0.582178
0.547392
0.519568
0.514933
0.559762
0.607648
0.76534
0.769926
0.773689
0.798917
0.821148
0.794652
0.732411
0.675542
0.634873
0.588638
0.523105
0.487542
0.491382
0.52401
0.622483
0.830373
0.997942
1.06753
1.07002
0.976996
0.843193
0.756151
0.711871
0.698584
0.69198
0.665903
0.625359
0.581073
0.532324
0.500532
0.488822
0.512745
0.57288
0.762491
0.766579
0.77451
0.801584
0.823806
0.791015
0.727846
0.672014
0.627097
0.565344
0.501594
0.49056
0.503882
0.557208
0.673347
0.800983
0.866234
0.895717
0.877677
0.798395
0.75303
0.732899
0.730076
0.746316
0.731912
0.691832
0.639815
0.586467
0.530716
0.486999
0.468917
0.474542
0.520086
0.758046
0.766257
0.779637
0.808838
0.828249
0.788283
0.72062
0.666706
0.611916
0.536697
0.492633
0.491733
0.515077
0.575336
0.662512
0.720857
0.756615
0.775995
0.76207
0.750139
0.749366
0.765601
0.801932
0.801229
0.787201
0.740671
0.676239
0.61241
0.54098
0.487757
0.456415
0.450588
0.471201
0.753343
0.768294
0.78703
0.819097
0.832235
0.782065
0.714148
0.660656
0.594436
0.513483
0.488467
0.491432
0.521588
0.577707
0.637383
0.676083
0.704444
0.723843
0.733613
0.744655
0.766989
0.798556
0.817508
0.830947
0.831223
0.782971
0.715801
0.643492
0.573963
0.502426
0.455484
0.439662
0.443955
0.749429
0.77141
0.795501
0.830724
0.836161
0.774436
0.708958
0.65371
0.573203
0.500673
0.486304
0.493352
0.528008
0.580316
0.627745
0.658632
0.684076
0.705609
0.719484
0.733725
0.755381
0.768231
0.810348
0.856088
0.841695
0.798809
0.732712
0.658776
0.600314
0.543924
0.48084
0.438616
0.434292
0.746974
0.774979
0.803387
0.840509
0.838249
0.766959
0.705483
0.647108
0.555868
0.496091
0.485933
0.498086
0.534547
0.585349
0.622941
0.648145
0.669279
0.681496
0.685578
0.688595
0.694918
0.750561
0.819725
0.849899
0.835937
0.792699
0.727691
0.658224
0.602734
0.568779
0.522815
0.463785
0.433751
0.745072
0.778011
0.80818
0.846098
0.83861
0.761268
0.704533
0.644283
0.545919
0.497089
0.488162
0.505593
0.546955
0.589831
0.614861
0.632483
0.639308
0.622443
0.623574
0.634665
0.692577
0.779119
0.826456
0.83126
0.813868
0.772461
0.710002
0.648163
0.598513
0.571053
0.55104
0.512017
0.457337
0.742261
0.776848
0.810364
0.849223
0.838383
0.756047
0.70171
0.642185
0.543858
0.501535
0.493135
0.517521
0.561126
0.586791
0.601118
0.605504
0.580864
0.57946
0.592455
0.637747
0.741717
0.794381
0.803302
0.795902
0.772085
0.727311
0.677935
0.622879
0.584972
0.563352
0.554637
0.543881
0.508717
0.73567
0.775013
0.810276
0.849828
0.840288
0.752574
0.699119
0.642196
0.549232
0.510335
0.502217
0.533545
0.565118
0.575518
0.578924
0.559642
0.550628
0.561099
0.59322
0.689463
0.758264
0.774374
0.764188
0.739169
0.698213
0.653126
0.614572
0.58175
0.554507
0.544952
0.544509
0.547167
0.543322
0.728161
0.770425
0.806549
0.848207
0.845202
0.754434
0.695736
0.644128
0.559161
0.521481
0.513519
0.54555
0.561353
0.56205
0.553679
0.53477
0.53994
0.558504
0.61888
0.719399
0.745191
0.735535
0.702811
0.649005
0.589029
0.541007
0.515333
0.510293
0.507309
0.50904
0.524872
0.538635
0.55193
0.717218
0.762635
0.799352
0.844154
0.853475
0.761392
0.691684
0.646456
0.573001
0.535668
0.528195
0.552729
0.555807
0.552514
0.536965
0.528678
0.537576
0.571472
0.662643
0.715031
0.714001
0.67641
0.608349
0.52743
0.450313
0.402013
0.389723
0.406574
0.430843
0.455015
0.486074
0.521836
0.548205
0.703291
0.751307
0.790105
0.837164
0.863283
0.775607
0.687012
0.646152
0.588104
0.55167
0.543872
0.560271
0.555016
0.547952
0.532944
0.530406
0.547279
0.605356
0.679004
0.692605
0.667103
0.589873
0.49128
0.391928
0.33369
0.309052
0.296873
0.301457
0.334279
0.379938
0.434155
0.492645
0.535759
0.687067
0.735532
0.778749
0.827083
0.868366
0.801203
0.685193
0.643394
0.601795
0.568151
0.559732
0.571464
0.559513
0.548673
0.538989
0.541205
0.5713
0.631523
0.669993
0.660239
0.598635
0.485673
0.369642
0.318108
0.299207
0.287447
0.275706
0.27122
0.279793
0.312825
0.373522
0.454358
0.513895
0.670598
0.715601
0.765096
0.814311
0.867356
0.832686
0.691294
0.642095
0.611305
0.583225
0.574482
0.584885
0.57004
0.556901
0.550975
0.559978
0.591721
0.64516
0.652924
0.618227
0.514359
0.383505
0.32091
0.301834
0.294174
0.28894
0.275812
0.270792
0.280721
0.309746
0.365752
0.44223
0.499137
0.654621
0.692064
0.747835
0.799561
0.858367
0.860856
0.710278
0.641684
0.61786
0.594995
0.586476
0.598504
0.585299
0.571011
0.566563
0.575526
0.605468
0.643202
0.634923
0.580273
0.461995
0.346874
0.311202
0.301513
0.310017
0.318156
0.306697
0.296988
0.30284
0.327359
0.379129
0.435069
0.476669
0.643498
0.667988
0.726227
0.783088
0.843665
0.874354
0.754601
0.646304
0.621296
0.603025
0.595761
0.608817
0.602922
0.588785
0.581281
0.587089
0.617251
0.639112
0.622677
0.561531
0.444624
0.341375
0.316116
0.311431
0.325274
0.346748
0.353025
0.357011
0.357863
0.371354
0.401884
0.428011
0.455721
0.638103
0.651429
0.697145
0.762749
0.828872
0.870835
0.808331
0.655861
0.622677
0.608901
0.603495
0.616807
0.617075
0.601509
0.590254
0.592969
0.62455
0.639419
0.62179
0.569943
0.474053
0.375058
0.337257
0.328624
0.338354
0.361241
0.377642
0.395556
0.39434
0.392989
0.397984
0.401379
0.420216
0.637674
0.643336
0.673449
0.737153
0.814084
0.859624
0.850885
0.685863
0.626003
0.61173
0.608634
0.620935
0.628209
0.611586
0.595996
0.593464
0.622997
0.648679
0.644635
0.633606
0.599735
0.534544
0.422491
0.367513
0.353545
0.355561
0.365111
0.384579
0.38339
0.364398
0.346187
0.343914
0.350747
0.645252
0.639405
0.662423
0.711504
0.792338
0.851387
0.86099
0.756622
0.632491
0.6121
0.609423
0.619186
0.633482
0.619858
0.600475
0.590613
0.608812
0.651176
0.658517
0.662187
0.673877
0.672519
0.63376
0.561245
0.465258
0.396054
0.370802
0.35924
0.35179
0.343446
0.320426
0.309098
0.308909
1.27503
1.3647
1.32344
1.25913
1.49082
1.38692
1.24226
1.0656
1.31101
1.38436
1.36565
1.23508
1.40892
1.39361
1.30084
1.20762
1.32386
1.38395
1.38291
1.22878
1.29224
1.36271
1.29156
1.2391
1.31033
1.36627
1.3783
1.24509
1.20639
1.28532
1.2486
1.17624
1.27538
1.3303
1.34849
1.27298
1.1572
1.18362
1.21059
1.16296
1.22853
1.28044
1.30072
1.26555
1.12683
1.10007
1.12941
1.14061
1.17086
1.21204
1.23215
1.20849
1.10518
1.03964
1.03667
1.06521
1.10877
1.14065
1.13126
1.106
1.05612
1.00066
0.975842
0.978598
1.05289
1.05496
1.00532
0.976147
0.967888
0.95024
0.933341
0.922912
0.984564
0.921397
0.883285
0.880673
0.888806
0.896986
0.896317
0.891194
0.859157
0.824119
0.822743
0.832154
0.845729
0.855859
0.861094
0.86158
0.788366
0.787112
0.795996
0.806883
0.816365
0.822533
0.818219
0.813908
0.765345
0.773655
0.780977
0.786023
0.786194
0.775817
0.752291
0.739196
0.757611
0.761984
0.762015
0.754818
0.735076
0.70299
0.686415
0.681988
0.746058
0.736859
0.71902
0.687587
0.665474
0.656539
0.655688