/*--------------------------------*- C++ -*----------------------------------*\
  =========                 |
  \\      /  F ield         | OpenFOAM: The Open Source CFD Toolbox
   \\    /   O peration     | Website:  https://openfoam.org
    \\  /    A nd           | Version:  10
     \\/     M anipulation  |
\*---------------------------------------------------------------------------*/
FoamFile
{
    format      ascii;
    class       volScalarField;
    location    "0.40069";
    object      T;
}
// * * * * * * * * * * * * * * * * * * * * * * * * * * * * * * * * * * * * * //

dimensions      [0 0 0 1 0 0 0];

internalField   nonuniform List<scalar> 
16320
(
0.00297633
0.00336234
0.00347195
0.0034892
0.00348623
0.00346037
0.00342575
0.0033937
0.00334344
0.00320711
0.00299279
0.00286954
0.00281724
0.00281514
0.00282195
0.00283851
0.00286145
0.00287386
0.00288425
0.00291092
0.00291224
0.00291883
0.00292641
0.0029295
0.00293907
0.00296651
0.00302787
0.00316107
0.00346404
0.0037962
0.00399092
0.00396213
0.00376947
0.00282993
0.00320082
0.00344118
0.00348118
0.00347447
0.00344233
0.00340775
0.00337979
0.00334801
0.00328766
0.0031554
0.00301136
0.00289504
0.00285159
0.00283997
0.0028385
0.00284353
0.00284844
0.00284752
0.00285707
0.00286265
0.00287147
0.00288639
0.00291042
0.00294843
0.00300877
0.0031445
0.00342795
0.00372376
0.00391382
0.00394286
0.00384545
0.00358024
0.00268693
0.00289238
0.00331952
0.00341157
0.00341132
0.00338418
0.00335914
0.00334347
0.00332893
0.00330052
0.00324796
0.00318164
0.00311121
0.00301953
0.00295541
0.00289948
0.00287287
0.0028613
0.00285239
0.00285749
0.00286706
0.00288631
0.00291694
0.00296122
0.00304305
0.00321652
0.00348614
0.00370545
0.00383459
0.00384025
0.00377867
0.00354694
0.00337806
0.00259243
0.00261686
0.00292379
0.00322188
0.00329371
0.00330314
0.00330046
0.00329728
0.00329418
0.00328497
0.00327328
0.00325334
0.00323935
0.00320797
0.00316462
0.003109
0.00304324
0.00299866
0.00296204
0.00295535
0.00297065
0.00301053
0.00307747
0.00320177
0.00338237
0.00358029
0.00370461
0.0037537
0.0037315
0.00364524
0.00341296
0.00326186
0.00320643
0.00252031
0.00247657
0.00258301
0.0028267
0.00301094
0.00312286
0.00318025
0.00321345
0.00323838
0.00325017
0.00325747
0.0032613
0.00326859
0.00327038
0.00326482
0.00324778
0.00322781
0.00320517
0.00319667
0.00320518
0.00323447
0.00329598
0.00339853
0.00352294
0.00363175
0.00370033
0.00368886
0.00364075
0.0035212
0.00329464
0.00313497
0.00307232
0.00306915
0.00261364
0.00254185
0.00256808
0.00273816
0.00287325
0.00297356
0.00304792
0.0031048
0.00314307
0.00317867
0.00321418
0.00323989
0.00325827
0.0032714
0.00328034
0.0032922
0.00329699
0.0033075
0.00332987
0.00336591
0.00342596
0.00350649
0.0035916
0.00365089
0.00367836
0.00364919
0.00357191
0.00341729
0.00320845
0.00305254
0.00294657
0.0029281
0.00293807
0.00303475
0.0029072
0.00284771
0.00287289
0.0029171
0.00297207
0.00303062
0.0030766
0.00311119
0.00314351
0.00318039
0.00321383
0.00324071
0.00326417
0.00328263
0.00330796
0.00333038
0.00336906
0.00341685
0.00348139
0.00355304
0.00361591
0.00364785
0.00363863
0.00358572
0.00347058
0.00329312
0.00313358
0.00300677
0.00290838
0.00284218
0.00284171
0.00285445
0.00325254
0.00318099
0.00311345
0.00306782
0.00304552
0.00304016
0.00305323
0.00308249
0.00310697
0.00313148
0.003156
0.00318635
0.00322027
0.00324724
0.00328306
0.0033161
0.00336251
0.00342043
0.00347942
0.00353619
0.00357112
0.00357412
0.00353823
0.00345864
0.00333854
0.00322819
0.00313492
0.00304
0.00295496
0.00287236
0.00281527
0.00281124
0.00282245
0.00345436
0.0034127
0.0033659
0.00330647
0.00324421
0.00318403
0.00314487
0.00313623
0.00313811
0.00315071
0.00316977
0.00319292
0.00322206
0.00325339
0.00329521
0.00334108
0.00339348
0.00344512
0.00348823
0.00350376
0.00349707
0.00347098
0.00342388
0.00335715
0.00327579
0.00320221
0.00313438
0.00307129
0.00300358
0.00290177
0.00282639
0.0028087
0.00281839
0.00363359
0.00361427
0.00360481
0.00359723
0.00358607
0.00355969
0.00349807
0.00342519
0.00335284
0.00330967
0.00328242
0.00328247
0.00329359
0.00332175
0.00336462
0.00341618
0.0034674
0.00350432
0.0035244
0.00353267
0.00353216
0.00352264
0.0035202
0.00351928
0.0035086
0.00349626
0.00346203
0.00336007
0.00313526
0.00294631
0.00284623
0.00282946
0.00285214
0.00366047
0.00364777
0.00364721
0.00365076
0.00365948
0.00367104
0.00368149
0.00368443
0.00367876
0.00365847
0.00362759
0.00360729
0.00359676
0.00360514
0.00362676
0.00366294
0.00369899
0.00372678
0.00375595
0.0037817
0.00383221
0.00385697
0.00391584
0.00394345
0.00394273
0.00391402
0.00379685
0.00348197
0.00315397
0.00293577
0.00286435
0.00287533
0.00298083
0.00365574
0.00364112
0.00364106
0.00364765
0.00366068
0.00367576
0.00369349
0.00370988
0.00372517
0.00373873
0.00375229
0.0037696
0.00379136
0.00381906
0.00385037
0.00387861
0.00390546
0.00392623
0.00395379
0.00396903
0.00400274
0.00401704
0.00405145
0.00407185
0.00406735
0.00402187
0.00385139
0.00343633
0.00306922
0.00291794
0.00291279
0.00301239
0.00335588
0.00355886
0.00352643
0.00352279
0.0035312
0.00355609
0.00359151
0.00362937
0.00366864
0.00370645
0.00373771
0.00376699
0.00380028
0.00383271
0.00386569
0.00389642
0.00392372
0.00394763
0.00396853
0.00399001
0.0040077
0.00403002
0.0040431
0.0040771
0.0040981
0.0040918
0.00402854
0.00375201
0.00323811
0.0029858
0.00294839
0.00303717
0.00338965
0.00359849
0.00335257
0.00332393
0.00332334
0.00333575
0.00336557
0.00341097
0.00347611
0.00355644
0.00362747
0.00369608
0.00374881
0.00379762
0.00384203
0.00387788
0.00390904
0.00393594
0.00395856
0.00398474
0.00400597
0.00403261
0.0040464
0.0040616
0.0040995
0.00411256
0.00409173
0.00394868
0.00343319
0.0030546
0.00298151
0.00305789
0.00342056
0.00364194
0.00366698
0.00320254
0.00318696
0.00318327
0.00318348
0.00319647
0.00322408
0.00327165
0.00333882
0.00344633
0.00355405
0.00366058
0.00374934
0.00381827
0.00387183
0.00391967
0.00395751
0.00398696
0.00401399
0.00403923
0.00406477
0.0040748
0.00409433
0.00411997
0.00411612
0.00404154
0.00362878
0.00311866
0.00300272
0.00306445
0.00343828
0.00368766
0.00370202
0.00368524
0.00316812
0.00315511
0.00314405
0.00314347
0.00315446
0.0031803
0.00321476
0.00326833
0.00332603
0.00341542
0.00352682
0.00364967
0.00376785
0.00385709
0.0039346
0.00399489
0.00403557
0.00407751
0.00410225
0.00411358
0.00411253
0.00412175
0.00412695
0.00408955
0.00381043
0.00320157
0.00302139
0.00305659
0.00342594
0.00372723
0.00373508
0.00371496
0.00373667
0.00317322
0.0031513
0.00313069
0.00313083
0.00314685
0.00318798
0.0032314
0.00327244
0.00331319
0.00338934
0.00349131
0.0036312
0.00376314
0.00387154
0.00397527
0.00404639
0.00411459
0.00415398
0.00416421
0.00414477
0.00413156
0.00413128
0.00410963
0.0039178
0.00329486
0.00301952
0.00305415
0.00338259
0.00374922
0.00377909
0.00373975
0.00376396
0.00387682
0.00313893
0.00308691
0.00305834
0.00307135
0.00312364
0.0031911
0.00326844
0.0033827
0.00346282
0.00352477
0.00358732
0.00370636
0.00381717
0.003936
0.00405416
0.00416064
0.00421341
0.0042176
0.00418927
0.00415029
0.00413692
0.00411383
0.0039714
0.00334322
0.00300653
0.00304912
0.00334301
0.0037291
0.00380939
0.00373026
0.00375504
0.00388081
0.00420841
0.00295938
0.0028889
0.00285881
0.0028659
0.00294702
0.00307161
0.0032552
0.00343717
0.00359362
0.00370873
0.00379166
0.00388435
0.00397309
0.00409539
0.0041989
0.00424778
0.00425239
0.00422565
0.004179
0.00413965
0.00410539
0.00396499
0.0033775
0.0030463
0.00302597
0.00331456
0.00371288
0.0038029
0.00372594
0.00373566
0.00385718
0.00419696
0.00444572
0.00288302
0.00282553
0.00279867
0.0027977
0.00284039
0.00293091
0.00308743
0.00332879
0.0036007
0.00379387
0.00391725
0.00403409
0.00412697
0.0042072
0.00425282
0.00425629
0.0042344
0.00419112
0.0041417
0.00407914
0.00391325
0.00336136
0.00307909
0.00305536
0.00325651
0.00368112
0.00377676
0.00377109
0.00369734
0.00381927
0.00414118
0.00448841
0.00468812
0.00291635
0.00287694
0.00284817
0.00284259
0.00286361
0.00293083
0.00305217
0.00322793
0.00347085
0.00376181
0.00395769
0.00406995
0.00415223
0.0042067
0.00423067
0.00419796
0.00416179
0.00411557
0.00402294
0.00379724
0.00330383
0.00309993
0.00308215
0.00324944
0.00365247
0.00375005
0.00374844
0.00368001
0.00379505
0.00412303
0.00446897
0.00478102
0.00510394
0.00294574
0.00289892
0.00288641
0.00289918
0.00296822
0.00306636
0.0031738
0.0032983
0.00345271
0.00364287
0.00384832
0.004
0.0040751
0.00411227
0.0041225
0.00410841
0.00404787
0.00391664
0.00357448
0.00322649
0.0031121
0.0031088
0.00327287
0.00363756
0.00372927
0.00373434
0.0036965
0.00374583
0.00408877
0.00438969
0.00462154
0.00499384
0.00531235
0.00290463
0.00285865
0.00284526
0.00288029
0.00300193
0.00314833
0.00329562
0.00342612
0.0035467
0.00366406
0.00379681
0.00390599
0.00396343
0.00399232
0.00399571
0.00392021
0.00371851
0.00335031
0.00316986
0.00311087
0.00313998
0.00331977
0.00362697
0.00370243
0.00370787
0.00367608
0.00371235
0.00400429
0.00427443
0.00443778
0.00466885
0.00503162
0.00532088
0.00285374
0.00277549
0.00275802
0.00276856
0.00289086
0.00309643
0.00329645
0.00344521
0.00356123
0.00363086
0.00370007
0.00376066
0.00378014
0.00377365
0.00364256
0.00339412
0.00320286
0.00312576
0.003112
0.00317289
0.00338674
0.00362255
0.00367818
0.00368225
0.0036584
0.00368241
0.00387689
0.0041485
0.00427846
0.00442738
0.0046547
0.00494695
0.00507924
0.00284537
0.00273961
0.00269449
0.00268616
0.00271813
0.00282602
0.00298028
0.00314281
0.0032668
0.00335571
0.00338256
0.00339861
0.00337066
0.0032582
0.00315633
0.00311321
0.00309871
0.0031286
0.0032204
0.00347018
0.00362249
0.00365734
0.00365829
0.003637
0.00365279
0.00379369
0.00397808
0.00412783
0.00419826
0.00437546
0.00455456
0.00464059
0.00449353
0.00293946
0.00275935
0.00268422
0.00266315
0.00266891
0.00270668
0.00276629
0.00282898
0.00288405
0.00294333
0.00299177
0.00300738
0.00302009
0.00302214
0.00303951
0.00308932
0.00316134
0.00330935
0.0035435
0.00362633
0.00364623
0.00363898
0.00362082
0.00362796
0.00370836
0.0038362
0.00394535
0.0040288
0.00416417
0.00431227
0.00432769
0.00412184
0.00380743
0.00309474
0.00294457
0.00278411
0.00269313
0.00268943
0.0026848
0.00273253
0.00276956
0.00279958
0.00283052
0.00286383
0.00290749
0.00295066
0.0030245
0.0031056
0.00323906
0.0034484
0.00358663
0.00362882
0.00363819
0.0036252
0.00360528
0.00360474
0.00363506
0.00371833
0.0037705
0.00386841
0.00398895
0.0041443
0.00419104
0.00398936
0.00364077
0.00354256
0.00314025
0.00310391
0.00301862
0.00286652
0.00280278
0.00277232
0.00276948
0.00278302
0.0028403
0.00287296
0.00293246
0.00300668
0.00309859
0.00322001
0.00338044
0.00353203
0.00359464
0.00361555
0.00362017
0.00360411
0.00357935
0.00357382
0.00357584
0.00360999
0.00364968
0.00369697
0.00383027
0.00398842
0.00410509
0.00402128
0.00362397
0.00347409
0.00349031
0.00315223
0.00315334
0.00314817
0.0031193
0.00306012
0.00301405
0.00300171
0.00299437
0.00301604
0.00309858
0.00317484
0.00325459
0.00338156
0.00348314
0.00355097
0.00357652
0.00358518
0.00358695
0.00357142
0.00354486
0.00353186
0.00352598
0.00352462
0.00354585
0.00358039
0.00367529
0.00382491
0.0040111
0.00406219
0.00375055
0.00346766
0.00343772
0.00352559
0.00314709
0.00315867
0.00317257
0.00319119
0.00320003
0.00320739
0.00321422
0.00323111
0.00325876
0.00330602
0.0033652
0.00342574
0.00348219
0.00352335
0.0035351
0.00353845
0.00353712
0.00352805
0.00351199
0.00349328
0.00347858
0.00347037
0.0034698
0.00349986
0.00355678
0.00367109
0.00386399
0.00402128
0.00394413
0.00353382
0.00343423
0.00346876
0.00365949
0.00314136
0.00315742
0.00317313
0.00319471
0.00321821
0.00323631
0.00326008
0.0032812
0.00331512
0.00335188
0.00338795
0.00342801
0.00345462
0.00346969
0.00347422
0.0034751
0.00347133
0.00346324
0.00344995
0.00343325
0.00342214
0.00342063
0.00344024
0.00348425
0.00355647
0.0037246
0.00394283
0.00400469
0.00375191
0.00346798
0.00344664
0.00359438
0.00369147
0.00314819
0.00315164
0.00317058
0.0031869
0.00321086
0.00323188
0.00325112
0.0032747
0.00329757
0.00332618
0.00334664
0.00336993
0.00338645
0.00339823
0.00340319
0.00340414
0.00340079
0.00339193
0.0033826
0.00337968
0.00338302
0.00340028
0.0034353
0.00349813
0.00361267
0.00382183
0.00398228
0.00393988
0.00358089
0.00346562
0.00352608
0.00362971
0.00362192
0.00315335
0.003163
0.00316832
0.00318713
0.00320381
0.00322544
0.00324018
0.0032545
0.00326549
0.00327807
0.00329127
0.00330076
0.00331295
0.00332012
0.00333181
0.00333683
0.00333971
0.00334539
0.00335031
0.00335907
0.00337806
0.00342185
0.00348932
0.00356408
0.0036962
0.00391131
0.00398219
0.00380215
0.00352207
0.00349295
0.00357235
0.00358018
0.00340773
0.00317959
0.00317906
0.00318997
0.00320103
0.00321674
0.00323071
0.00324371
0.00324863
0.00325074
0.00325314
0.00325537
0.00325878
0.0032659
0.00327083
0.0032821
0.00329563
0.00330663
0.00332566
0.00334402
0.00337477
0.00342023
0.00347821
0.00353728
0.00362537
0.0037933
0.00394445
0.00394147
0.00365099
0.00352023
0.00352926
0.00355323
0.0034223
0.00321585
0.00318692
0.00321105
0.00321953
0.00324296
0.00325994
0.00326794
0.00326479
0.00325344
0.00323671
0.00321698
0.00319622
0.0031839
0.00318046
0.00318291
0.00319584
0.00321878
0.00324995
0.00328763
0.00332784
0.00337203
0.0034218
0.00348032
0.00354227
0.0036542
0.00385476
0.00394051
0.00383604
0.00357888
0.00353422
0.00353576
0.00346499
0.00321952
0.00312744
0.00323475
0.00323489
0.00326719
0.00328253
0.00329423
0.00328944
0.00326889
0.00323054
0.00317586
0.00311218
0.00304224
0.00298547
0.00295803
0.00295136
0.00295435
0.00297142
0.00300956
0.00306324
0.00313245
0.00321318
0.00330157
0.00339965
0.00351425
0.00369571
0.00387815
0.00390368
0.00370311
0.00356376
0.00354014
0.00349894
0.00328914
0.00310177
0.00308003
0.0032478
0.00328519
0.00329395
0.00331138
0.00331089
0.00328956
0.00323861
0.00315313
0.00303881
0.00292253
0.00284753
0.00281312
0.00280184
0.00280037
0.0028051
0.00281497
0.00282982
0.00285278
0.00288979
0.00295054
0.00304919
0.00321013
0.00345469
0.0037541
0.00387037
0.00382169
0.00362123
0.00356303
0.00353172
0.00338831
0.00312171
0.00303935
0.00305193
0.00332007
0.00331621
0.00332807
0.00332833
0.00331372
0.00326917
0.00318092
0.00305353
0.00291261
0.00282611
0.0027925
0.00278198
0.00278031
0.00278461
0.00279383
0.00280369
0.00281372
0.00282816
0.00285384
0.00290315
0.00299703
0.00317944
0.00351704
0.00379421
0.00383066
0.00370393
0.0035994
0.00356563
0.00347514
0.00321045
0.00302667
0.00300017
0.0030422
0.00332787
0.00335139
0.00334522
0.00333623
0.00330521
0.00323617
0.00312393
0.00298144
0.00286506
0.00281135
0.00279681
0.00279615
0.00281309
0.00284796
0.00288244
0.00289516
0.00289458
0.00289106
0.00289945
0.00296051
0.00311951
0.00344463
0.00373107
0.00378766
0.0037391
0.00363307
0.0036001
0.00354462
0.00333979
0.00305953
0.00297276
0.0029681
0.00302778
0.00334784
0.00335709
0.00336104
0.00333898
0.00329757
0.00321009
0.00308449
0.00294792
0.00286465
0.00284234
0.00284316
0.00287301
0.00294111
0.00304048
0.00310738
0.00312128
0.00310536
0.00308667
0.00309038
0.00318432
0.00346495
0.00370755
0.00375555
0.00374456
0.00366715
0.00363829
0.00360398
0.00346191
0.00316168
0.00297302
0.00293427
0.00293896
0.00300414
0.00330494
0.00336833
0.00336685
0.00334834
0.00329655
0.00320382
0.00306956
0.00294891
0.0029019
0.0028963
0.00291947
0.00299458
0.00312977
0.00329829
0.00337829
0.00338696
0.00336487
0.00335609
0.00339747
0.00357847
0.00371381
0.00374242
0.00374273
0.00369915
0.00367756
0.00365461
0.00355691
0.00330948
0.00302246
0.00291323
0.00289121
0.00289862
0.00295829
0.00315983
0.00335165
0.00337154
0.00335657
0.00330749
0.00320926
0.00307278
0.00297418
0.00294697
0.00294947
0.00299942
0.00312508
0.00333225
0.00356707
0.00366706
0.00367831
0.00366458
0.0036579
0.00369057
0.0037367
0.00374499
0.00373971
0.00371991
0.00371515
0.00369836
0.00362753
0.00342359
0.00312223
0.00291859
0.00284995
0.00283399
0.00283951
0.00288851
0.00292612
0.00327193
0.00336279
0.00336423
0.00332459
0.00323028
0.0030917
0.00300885
0.00299051
0.00300266
0.00308016
0.00325393
0.00352494
0.00376969
0.00384439
0.00385075
0.00382733
0.00378921
0.00377001
0.00374654
0.0037364
0.00373828
0.00374202
0.00374107
0.00368726
0.00351498
0.00324202
0.0029828
0.00282841
0.00276621
0.00274892
0.00274958
0.00278414
0.00282946
0.00304247
0.00331906
0.0033575
0.00333925
0.00326132
0.00312655
0.00304939
0.00303509
0.00305455
0.00314981
0.00334889
0.00363669
0.00384889
0.00390365
0.00390853
0.00387855
0.0037992
0.00375088
0.00374339
0.00374678
0.00376936
0.00377949
0.00375315
0.00362143
0.00337571
0.0031303
0.00293768
0.00277259
0.00267968
0.00264734
0.00263908
0.00264493
0.00283311
0.00283442
0.00317768
0.00333275
0.00334207
0.00329436
0.00317506
0.00309441
0.00308007
0.00310221
0.00320393
0.00341131
0.00369836
0.00387377
0.00391061
0.00390856
0.00385285
0.00377277
0.00375112
0.003754
0.00378842
0.0038154
0.00381451
0.00373883
0.00354975
0.00332971
0.00314233
0.00296475
0.00280707
0.00268218
0.00259271
0.00255392
0.00253958
0.00286272
0.00279409
0.00292511
0.00325375
0.00332543
0.00331205
0.00322837
0.00314207
0.0031238
0.00314201
0.00323876
0.00343869
0.00372056
0.00387036
0.00389519
0.00388529
0.00381429
0.00376547
0.00376164
0.0037929
0.00385212
0.00386546
0.00385021
0.00374571
0.00356184
0.00339742
0.00325719
0.00313076
0.00299456
0.0028714
0.00276386
0.00266306
0.00257724
0.00298069
0.0028124
0.00278728
0.003051
0.00328089
0.0033072
0.00327199
0.00319088
0.00316646
0.0031761
0.00325552
0.00344358
0.00371031
0.00384264
0.00386423
0.00384754
0.00378735
0.00376984
0.0037855
0.00385724
0.0039096
0.00391811
0.00389334
0.00378881
0.00365769
0.00358859
0.00348335
0.00336036
0.00325012
0.00317387
0.00310291
0.0030359
0.00296531
0.00320545
0.00287512
0.00277638
0.00283579
0.00316391
0.00328563
0.00329043
0.00324342
0.00320812
0.00320646
0.00324996
0.00338311
0.00360435
0.00376668
0.00379997
0.0037999
0.00378143
0.00377925
0.00382402
0.00391843
0.00396269
0.00397128
0.00395782
0.00388663
0.00382025
0.00376843
0.00364232
0.00352233
0.00340956
0.00333973
0.00328777
0.00325438
0.00323139
0.00337942
0.00303289
0.00280594
0.00276569
0.00295232
0.00323181
0.00328627
0.00328011
0.00325037
0.00324274
0.00326347
0.00335518
0.00353138
0.00370318
0.00376198
0.00377154
0.00377458
0.00379152
0.0038625
0.00397778
0.00403179
0.00405038
0.00405372
0.00403548
0.00399785
0.00397937
0.00387443
0.00378752
0.00366803
0.00357831
0.003501
0.0034453
0.00340768
0.00345384
0.00323269
0.00288232
0.00276211
0.00278505
0.00308066
0.00326856
0.00329276
0.00328005
0.00326282
0.00326298
0.00330852
0.00343421
0.00361566
0.00371424
0.00374253
0.00375918
0.0037964
0.00387669
0.00399463
0.00407779
0.00411447
0.00414684
0.0041852
0.00422627
0.00424255
0.00423024
0.00418777
0.00414105
0.00410869
0.00406135
0.00398872
0.0039098
0.00348694
0.00338233
0.00302157
0.00276356
0.00271667
0.00286833
0.00319617
0.00329742
0.00330291
0.00327619
0.00326117
0.0032689
0.00334084
0.0034991
0.00365701
0.00372047
0.00374651
0.00378984
0.0038743
0.00399056
0.00408005
0.0041195
0.00416182
0.00421985
0.0042908
0.00437211
0.00442903
0.00445395
0.0044649
0.00448817
0.00449597
0.00450162
0.00450186
0.00349295
0.00350088
0.00319609
0.00281458
0.00269013
0.00272746
0.00304438
0.00329141
0.00332784
0.00330987
0.00326301
0.00325012
0.00327117
0.00337342
0.00354135
0.00366608
0.003719
0.00376665
0.00385741
0.00397318
0.00405984
0.00410021
0.00413843
0.00419694
0.00426869
0.0043612
0.00444322
0.00448799
0.00454362
0.00461876
0.00465773
0.00467299
0.00469338
0.00348375
0.00355897
0.00337611
0.00294141
0.00269088
0.00266386
0.00287021
0.00324445
0.0033489
0.00334854
0.00327917
0.00323272
0.00323005
0.00328342
0.00342316
0.00357463
0.00366111
0.00371364
0.00380031
0.00391484
0.00399508
0.00402903
0.00404759
0.0040977
0.00417718
0.00428686
0.00439814
0.00445979
0.00452667
0.00461525
0.00470707
0.00474648
0.00477156
0.00345839
0.00356896
0.00353293
0.00314213
0.00273999
0.00264603
0.00273865
0.0031353
0.00335827
0.00337995
0.00331349
0.00320955
0.00318088
0.00319774
0.00329401
0.00344367
0.00356299
0.00362514
0.00368378
0.00377838
0.00385794
0.00391296
0.00397974
0.00403189
0.00408673
0.00419198
0.00431633
0.00441603
0.00448962
0.00457332
0.00468991
0.00476824
0.00480362
0.00342002
0.00355841
0.00362269
0.00336098
0.00286576
0.00265847
0.00266999
0.00298092
0.00334174
0.00340667
0.00336378
0.0032089
0.00313196
0.00312339
0.00316941
0.00328745
0.00342303
0.00350311
0.00355291
0.0036222
0.00370422
0.00376954
0.00384762
0.00394834
0.00405591
0.00416087
0.00430469
0.00442974
0.00450498
0.00455931
0.00463997
0.00471927
0.00476232
0.00339323
0.0035293
0.00364733
0.00354635
0.00308823
0.00270538
0.00264804
0.00283197
0.00327819
0.00342584
0.00341601
0.00325406
0.00310323
0.00305852
0.003063
0.00312589
0.00325441
0.00336747
0.0034413
0.00350154
0.00357686
0.00365402
0.00374261
0.00383854
0.00398452
0.0041271
0.00427973
0.0044184
0.00450698
0.00455691
0.00459722
0.00464708
0.00469877
0.00338794
0.00349055
0.00363615
0.0036639
0.00334895
0.00282894
0.0026572
0.00272043
0.00313423
0.00342803
0.0034596
0.00334759
0.00312584
0.00302177
0.00299076
0.00299677
0.00305926
0.00316235
0.00326629
0.00336109
0.00345326
0.00354188
0.00363964
0.00374567
0.00388623
0.00404606
0.00421125
0.00436058
0.00446201
0.00451098
0.00453942
0.00459544
0.00463642
0.00339013
0.00346757
0.00359241
0.0037036
0.00356449
0.00307212
0.00270229
0.00267069
0.00294069
0.00338644
0.0034792
0.00343472
0.00321313
0.00304134
0.00297593
0.00294545
0.00294056
0.00296087
0.0030131
0.00309367
0.00319411
0.00330043
0.00341662
0.00354723
0.00368691
0.00385966
0.00403962
0.00420763
0.00433993
0.00441815
0.00446539
0.0045254
0.00458783
0.00340145
0.00346271
0.00355703
0.00368965
0.00369067
0.00336779
0.00282985
0.00266871
0.00276687
0.00325079
0.00347505
0.00348207
0.00333423
0.00311927
0.00300997
0.00296123
0.0029273
0.00289707
0.00288818
0.00289681
0.00292852
0.00297575
0.00303794
0.00311911
0.00321671
0.00334851
0.00352515
0.00375063
0.00400171
0.00419859
0.00432802
0.00443274
0.00449674
0.00340974
0.00346993
0.00354297
0.00365027
0.00373855
0.00360163
0.0031073
0.00271174
0.00268422
0.00300065
0.00342951
0.00348556
0.00341061
0.00321895
0.00311917
0.00305323
0.00298177
0.00292712
0.00289593
0.00287919
0.00287255
0.00287191
0.00287618
0.00288584
0.0028932
0.00291444
0.00295713
0.00303101
0.00318562
0.0034683
0.00384027
0.00418318
0.00437168
0.00341477
0.00348561
0.00355132
0.00362164
0.00372915
0.00373497
0.00346074
0.00288014
0.00268071
0.00277084
0.00327117
0.00346487
0.00343583
0.00327934
0.00320813
0.00317413
0.00311654
0.00305737
0.00301251
0.00297887
0.00295322
0.00293513
0.00292015
0.00291304
0.00289888
0.00288719
0.00286117
0.00282728
0.00282746
0.00287787
0.00305766
0.00340299
0.00389426
0.00341187
0.00349558
0.00356419
0.00361843
0.00369359
0.00377011
0.00369179
0.00327428
0.00275614
0.00268061
0.00294206
0.00338811
0.00343483
0.00332573
0.00322333
0.00319319
0.00316589
0.00314012
0.00312753
0.00313048
0.0031446
0.00316515
0.00318803
0.00319156
0.00318179
0.00316693
0.00312238
0.00304119
0.00291261
0.00279639
0.00277702
0.00288763
0.00316341
0.00340712
0.00349919
0.00358244
0.0036387
0.00367832
0.00374123
0.00376925
0.00362301
0.00307079
0.00269714
0.00270103
0.00313237
0.00339873
0.00335998
0.00324365
0.00317127
0.00312786
0.00309338
0.00308245
0.00308995
0.0031144
0.00315124
0.00320824
0.00328469
0.00336838
0.00339507
0.00340001
0.0033779
0.0032984
0.00309852
0.0028077
0.00276019
0.00284654
0.00340395
0.00349746
0.0036021
0.00366837
0.00370425
0.00371186
0.00375235
0.00375745
0.00353926
0.00289358
0.00266035
0.00275608
0.00323368
0.00335291
0.00329052
0.00316974
0.00308181
0.00299642
0.00289215
0.00280563
0.00278543
0.00279891
0.00282177
0.00286404
0.00295365
0.00310612
0.00326084
0.0033223
0.00334856
0.00332026
0.00314729
0.00278948
0.00278206
0.00339745
0.00348894
0.00361079
0.00369854
0.00374742
0.00373043
0.00370232
0.00375696
0.00375812
0.00344603
0.0027583
0.00262663
0.00283087
0.00326797
0.00329587
0.00322038
0.00308909
0.00299156
0.00286419
0.00270629
0.00254967
0.00240282
0.00233014
0.00230003
0.00228467
0.0023329
0.0025349
0.00294471
0.00320766
0.00331802
0.00333615
0.00314047
0.00280006
0.00337848
0.00348414
0.00361373
0.00373105
0.00379257
0.00376802
0.00370662
0.00369177
0.00377776
0.00377908
0.00324675
0.00265505
0.00262083
0.00291733
0.00324737
0.00324707
0.00316626
0.00304278
0.00291676
0.00275949
0.00258742
0.00240916
0.00224641
0.00211056
0.00204755
0.00202629
0.00207171
0.00227171
0.00274401
0.00319811
0.00335566
0.00337354
0.00300948
0.00334843
0.00347579
0.00361715
0.00376429
0.00383218
0.00382062
0.00373499
0.00367813
0.00370453
0.00381756
0.00374517
0.00290211
0.00261111
0.00263787
0.00297253
0.0032106
0.00320618
0.0031714
0.00310583
0.00298068
0.00281887
0.00261056
0.00238193
0.00216634
0.00202821
0.00196343
0.00194764
0.00201483
0.00223822
0.00276467
0.00326975
0.00339897
0.00334942
0.00330378
0.00345203
0.00362099
0.00380114
0.00386784
0.00386434
0.00378978
0.00369995
0.00365991
0.00373777
0.00386419
0.00351249
0.00272898
0.00256631
0.00265055
0.00298671
0.00316773
0.00318298
0.00318844
0.00317527
0.00310474
0.00295958
0.00272509
0.00240719
0.00212147
0.00198136
0.0019339
0.00195207
0.00206308
0.00236611
0.00300213
0.00337542
0.00343845
0.00324435
0.00341802
0.00362135
0.0038369
0.00391351
0.0038983
0.00383509
0.00373848
0.00367144
0.00366165
0.00382575
0.00390963
0.00323223
0.00260759
0.00250566
0.00263047
0.00298135
0.00313252
0.00318292
0.00320644
0.00321019
0.0031544
0.00295899
0.00261249
0.0022387
0.00202894
0.00195413
0.00194611
0.00201912
0.00222712
0.00270322
0.00327365
0.00344458
0.00318519
0.00337139
0.00361103
0.00385812
0.00396756
0.00393398
0.00386348
0.00377643
0.00368799
0.00364701
0.0037188
0.00398906
0.00372507
0.00282685
0.00250862
0.00246616
0.00258932
0.00292354
0.00311022
0.00318909
0.0032232
0.00321173
0.00304588
0.00265712
0.0022652
0.00205571
0.00198231
0.00198206
0.00204965
0.00219765
0.00261754
0.00318942
0.00343675
0.00314031
0.00331311
0.00359554
0.0038729
0.0040073
0.00397698
0.00388695
0.00379218
0.0037067
0.0036543
0.00365375
0.00390912
0.00399204
0.00344124
0.00257487
0.00238482
0.00242399
0.00256745
0.00287136
0.00308322
0.00316912
0.00315349
0.00297286
0.00252927
0.00220756
0.00206462
0.00202786
0.00207458
0.00217428
0.00231113
0.00267728
0.00316519
0.0034358
0.00311638
0.00326845
0.00357825
0.00388339
0.00402548
0.00400252
0.00391583
0.00380083
0.0037128
0.00366184
0.00364652
0.00381397
0.00411967
0.00382736
0.00279826
0.00240272
0.00232031
0.0023804
0.00256525
0.00281418
0.00293631
0.0028876
0.00266128
0.00233829
0.0021689
0.00209663
0.00213456
0.00224884
0.00236443
0.00259024
0.00305458
0.00330505
0.00343184
0.00310797
0.00324973
0.00356871
0.00389725
0.00403526
0.00401268
0.0039269
0.00380698
0.00371266
0.00366548
0.0036535
0.00379608
0.00414608
0.00403574
0.00329728
0.0024625
0.00229159
0.00230037
0.00238926
0.00258059
0.00265005
0.00257805
0.00241624
0.00225114
0.0021688
0.00221526
0.00235135
0.00252939
0.00283331
0.00315827
0.00331363
0.00336888
0.00341526
0.00311605
0.00324885
0.00357749
0.00390844
0.00403932
0.00400998
0.00392532
0.00380744
0.00370936
0.00366716
0.00367148
0.00381988
0.00418203
0.00422617
0.00372809
0.0025959
0.00231042
0.00229464
0.00234925
0.00246034
0.00248624
0.00242196
0.00230847
0.00223351
0.00228251
0.00246624
0.00282319
0.00321962
0.00335803
0.00336464
0.00336684
0.00334516
0.0033382
0.00313516
0.00327407
0.00361105
0.00392979
0.00403911
0.00399997
0.00390965
0.00379732
0.00370516
0.00366918
0.00370138
0.00388857
0.00426746
0.00437316
0.00399022
0.00282914
0.00236
0.002307
0.00234481
0.00240106
0.00238781
0.00233336
0.00229784
0.0023601
0.00260658
0.00315376
0.00347073
0.00352248
0.00349312
0.0033955
0.00331387
0.00322513
0.00318292
0.003166
0.00331733
0.00366194
0.0039475
0.00402792
0.00398083
0.00388777
0.0037825
0.0037052
0.00367977
0.0037593
0.00404359
0.00440537
0.0044782
0.00419592
0.00314168
0.00246744
0.00233861
0.00234155
0.00235492
0.00234606
0.00235302
0.00246027
0.00288282
0.00343578
0.00362907
0.00364531
0.00361566
0.00357744
0.00351299
0.00336855
0.00320621
0.003117
0.00321342
0.00337521
0.00372095
0.00395897
0.00400631
0.00395266
0.0038602
0.00376981
0.00371157
0.00370882
0.00386651
0.00427587
0.00455378
0.00458569
0.00428045
0.00331199
0.0025694
0.00235576
0.00234655
0.00236411
0.00241086
0.00261085
0.00304054
0.0035255
0.00375243
0.00380779
0.00378416
0.0037375
0.00372011
0.00370488
0.00357308
0.0032416
0.0031117
0.00327314
0.00345904
0.00377807
0.00396385
0.00397184
0.00391911
0.00384251
0.00376803
0.00372238
0.00377672
0.00406257
0.00451823
0.00464714
0.00459764
0.00418942
0.00323162
0.00259656
0.00242336
0.00241698
0.00251534
0.00275418
0.00323603
0.00371442
0.00393759
0.00396963
0.00383658
0.00377202
0.00375709
0.00376377
0.00377701
0.003697
0.00336613
0.00313553
0.00335032
0.00355396
0.0038271
0.00396211
0.00394433
0.00389122
0.00383927
0.00378146
0.00375979
0.00391157
0.00434442
0.00465677
0.00468919
0.00451839
0.00394804
0.00311365
0.00273908
0.00266477
0.002725
0.00301839
0.00350275
0.00386749
0.0040211
0.00396407
0.00381925
0.00373679
0.00370919
0.00371098
0.00378945
0.00382354
0.00378899
0.00356727
0.00321904
0.00344107
0.00364471
0.00387216
0.00395584
0.00391019
0.00388045
0.00384779
0.00381027
0.00384038
0.00412692
0.00458576
0.00471561
0.00466182
0.00432454
0.00370574
0.00326952
0.00316486
0.00318756
0.00334817
0.00373018
0.00396416
0.0040409
0.00398004
0.00376808
0.00365515
0.00361147
0.00359906
0.00361183
0.00370779
0.0038199
0.00383923
0.00374781
0.00343301
0.00354146
0.00372533
0.00390557
0.00394613
0.00388262
0.00388355
0.00388728
0.00386569
0.00397877
0.00440615
0.00474054
0.00477702
0.00462582
0.00423561
0.00381596
0.00366189
0.00364128
0.0036885
0.00386924
0.00399048
0.00401239
0.00391552
0.00368446
0.00357941
0.00345852
0.00340007
0.00337986
0.00338574
0.00353311
0.00370068
0.00383241
0.00384379
0.0036949
0.00364277
0.0037924
0.00392916
0.0039296
0.0038675
0.00391399
0.00394406
0.00394368
0.00415496
0.00466598
0.00486313
0.00484386
0.00462137
0.0042622
0.00400661
0.00392175
0.00390954
0.00394595