FoamFile
{
    version 2.0;
    format ascii;
    class volVectorField;
    object U;
}

dimensions      [0 1 -1 0 0 0 0];
internalField   nonuniform List<vector>
16384
(
(-0.7181515500504747 0.6043939615080793 0)
(0.5444895385933148 -0.6025686369316552 0)
(0.41371468769523423 0.4580143360819746 0)
(-0.2830685429114548 -0.7682618809497406 0)
(-0.3382039502947016 -0.8728832994279527 0)
(0.45921235667612814 0.27511494271042625 0)
(-0.7608115081233966 0.42648957444599 0)
(0.541934359909122 -0.012408807271218514 0)
(-0.9491617465118096 -0.7842171460133911 0)
(-0.37128803784734665 0.01714138232940554 0)
(-0.17923415392874054 0.5111022770860973 0)
(-0.42049709417246395 -0.6775574254919912 0)
(0.26680751302084693 0.7429211803754354 0)
(0.7851179969799555 0.07868448383130144 0)
(-0.36399305005627225 -0.7798961509446465 0)
(0.6360295318449862 0.7214611665126869 0)
(-0.16517799370244202 -0.5557843790585395 0)
(0.8858194078250383 -0.35359413595848954 0)
(-0.27274079524141204 0.9435641654419213 0)
(-0.005502988215229099 -0.3982433803664607 0)
(0.2191286679597937 0.005358046457722976 0)
(0.8165317719333074 -0.5208762186660552 0)
(0.9713009082212014 -0.5158894569769992 0)
(-0.5247249120152007 0.45643269722371915 0)
(0.2670594215217894 0.07154936814951696 0)
(-0.35843987005652833 -0.6269629792002915 0)
(0.35512872368456483 -0.9668243421442877 0)
(0.2903455808188997 -0.6512671419900171 0)
(0.873459977473469 -0.7249581117080135 0)
(0.8493872365571256 0.754678706761962 0)
(0.6344444004024317 0.11040162319892466 0)
(-0.8137944643882016 0.7944315159066535 0)
(-0.32194041790259864 -0.3015808507746782 0)
(0.7741728485302346 0.5597510917152477 0)
(-0.6767425718107725 0.7971083770541585 0)
(-0.7970569142679358 0.3270035382161116 0)
(0.09746757873317224 0.3837903953853865 0)
(0.4243584426950717 -0.5255018250063999 0)
(0.2992657980944293 0.6984468209883559 0)
(-0.812650464343815 -0.26456839388113296 0)
(0.9460211095048912 -0.2138045506664792 0)
(0.5896226070832968 0.005274186210384224 0)
(-0.609514024403911 0.44490423052301065 0)
(0.29094459181433563 -0.6457786411859021 0)
(0.829728780440897 -0.2596825994891112 0)
(-0.14363170336537134 0.9333096380873391 0)
(-0.4111022158608286 -0.22980454279614948 0)
(-0.661014506627815 0.11360252491670031 0)
(0.14012234017872993 -0.8056470124584629 0)
(-0.7198319695269519 0.036659304727473474 0)
(0.39403148199053595 0.40496816797421853 0)
(0.6187223109570272 0.6202267893583615 0)
(0.022684797721875594 0.0030325893743992083 0)
(0.4039337545154067 0.5915853388722021 0)
(-0.24883409472011198 -0.812036120318262 0)
(-0.06880396373507969 0.08528926941515325 0)
(-0.9389995001219011 -0.9253036225015712 0)
(-0.7458789746962304 0.04448652010960874 0)
(0.2457809516380005 -0.829305070012464 0)
(0.08127024322021303 0.2748598029964131 0)
(0.03260069660239062 -0.35408705411750807 0)
(-0.12205715858872779 -0.8430872373154681 0)
(0.6719602410244117 0.39194841218739596 0)
(-0.6871259146578279 -0.49951420367080934 0)
(0.32039475343546253 -0.4401322061081143 0)
(0.10870810502280137 0.22344149246870448 0)
(-0.2880546426974768 0.5156922209287382 0)
(-0.9079947159564945 -0.9185423953620597 0)
(-0.05165234182534961 -0.804331678697997 0)
(-0.6535962601799696 -0.13229670152405393 0)
(0.2701873017352876 -0.909391980455911 0)
(0.006272517160175406 0.7129796823766446 0)
(-0.8588625051991403 0.2848385564126312 0)
(0.8804604828499152 0.1509483557517579 0)
(-0.08349421901696674 0.09123357863186987 0)
(0.9223811276478284 0.8107012839121275 0)
(-0.7984439972451467 -0.9635563486969005 0)
(-0.857622703079542 -0.3620487394124774 0)
(0.6289369651778716 -0.43629045045320014 0)
(0.257885693559768 0.7549440270541059 0)
(-0.43593085485738703 -0.6451209124405544 0)
(0.9810102840013466 -0.17476464617714704 0)
(-0.3183929194939643 0.8615146512071294 0)
(0.5017421355829947 0.5090857481693647 0)
(0.01050474489571429 0.6529149322154832 0)
(-0.22159664253167377 -0.9783246970394033 0)
(-0.36137272481917027 0.9001239341016098 0)
(0.26367442433959853 -0.10310895604336046 0)
(0.34503691215407684 0.50474905887536 0)
(-0.8175877939026193 -0.01115939059483706 0)
(-0.11693899725324597 0.7754083655165995 0)
(-0.7140166358943283 0.5230212634349445 0)
(-0.8317863877700051 0.40193826291824 0)
(0.4124844543129924 -0.8373024387162005 0)
(-0.25145840848775936 -0.25871570586621817 0)
(0.9720021276457418 0.5067563705178832 0)
(0.5542938318548736 0.1168084994716101 0)
(-0.7776050353876973 -0.0147497914182817 0)
(-0.8873934486363253 -0.7623641674638562 0)
(0.4920897585308466 0.16673753019431925 0)
(-0.42857582743627853 0.7371982563789206 0)
(-0.9756910506203673 0.9397576534152781 0)
(0.055402218172599715 0.9859295922386007 0)
(0.9386050712381979 0.046195688340297636 0)
(-0.09091787046445354 0.2551161601681269 0)
(-0.9091072393170843 -0.43807362081553936 0)
(-0.08868649442857413 0.24026519560307347 0)
(-0.07260319012003569 -0.29329554394789437 0)
(0.948789615332333 0.9724214889592058 0)
(-0.3809447674273445 0.6275900394138973 0)
(0.8218543689876849 0.645074485846338 0)
(0.22683039187157972 -0.16351392741876225 0)
(-0.9095626597876212 -0.947266051005496 0)
(0.9745522586298889 -0.6991662177929436 0)
(0.9398287956292064 0.6842378462714174 0)
(-0.17036099532466964 -0.45318585613858753 0)
(0.6258020182601551 0.9994353465722612 0)
(0.537974830361021 0.889531459764856 0)
(-0.09891172937981296 -0.74168116969701 0)
(-0.5427143889930746 0.34340136881171346 0)
(-0.772884815600742 0.3431463911855992 0)
(0.040327002223986774 0.7043630006370802 0)
(0.75330720531669 -0.19303426757520592 0)
(0.510274511347238 0.24061910270692932 0)
(-0.7272570488264605 -0.9709106686642361 0)
(-0.21551190980053536 -0.12505015595254187 0)
(0.027978978319621595 0.5673060254822861 0)
(0.7247274174934903 0.8990412473152842 0)
(-0.015767413840923616 -0.4835112234020833 0)
(-0.014763812014260802 -0.3424967794249836 0)
(-0.8482733437826722 -0.7422405561787015 0)
(-0.7223456547011797 0.2817494896064292 0)
(0.7935768198120237 -0.052076719474255295 0)
(-0.6154219623826584 -0.9182627674670423 0)
(-0.6459790314465064 -0.8225949324858888 0)
(-0.587332563188415 -0.2714602779038491 0)
(-0.9213757203178021 0.5988207978180853 0)
(0.7471572482135544 0.8417448010636264 0)
(0.6124025595861227 0.4965193807673167 0)
(-0.25905579441723603 -0.030954029617957346 0)
(-0.07493056773370421 0.49494187626751307 0)
(0.4266991717691049 0.7904136753743987 0)
(-0.7856559773204479 -0.10517526635309071 0)
(-0.4615135381012381 -0.2454316737907547 0)
(-0.5771039860069107 -0.3450052956441707 0)
(0.18718490710809732 0.3582046382889792 0)
(-0.8261594238251526 0.07421308363709556 0)
(-0.13668090754064122 -0.7448393944088725 0)
(0.29183448266320244 0.14155660933782377 0)
(0.2115496387137743 -0.525546416528011 0)
(-0.5080845432309837 -0.6786372534808887 0)
(-0.6532528094104904 0.7935308492528503 0)
(-0.17920634602067698 0.9647572338172128 0)
(0.9389408665507377 0.7310142517879605 0)
(-0.6582248252198684 0.337286439848862 0)
(0.1432253789397997 -0.44004181267943165 0)
(-0.35264152719151265 -0.14912712276716644 0)
(-0.7703263505215929 0.2212400848832652 0)
(-0.6912745694515954 -0.03771979629036504 0)
(-0.32679144361215884 -0.7311706461220515 0)
(-0.35529231005055406 0.6197488917092697 0)
(0.5204557197793731 0.19127748121568855 0)
(-0.3022634669140094 0.8590582884956517 0)
(-0.7514055530289105 0.4617349504072885 0)
(-0.867007465266445 0.4822412985801181 0)
(-0.720455246747421 0.5905346237197804 0)
(-0.6714684041380141 0.6291494404627642 0)
(-0.282339031752995 0.7544010816262166 0)
(-0.12173018285956316 -0.24611114115018484 0)
(0.49521876035250223 0.005440780184958305 0)
(-0.23221755725357718 0.08710572222797719 0)
(-0.7662039185832719 0.8796642472269502 0)
(-0.7214558546732255 0.588050378540592 0)
(0.7877851661019153 0.5771944224490615 0)
(-0.5030217203710685 0.48789258514535394 0)
(0.5249173714813811 0.7535312735234989 0)
(-0.7787365260895855 0.6929045834690364 0)
(0.5945907315591072 -0.7001651453024524 0)
(0.4400730730921487 0.2822952657705946 0)
(-0.4964018821860945 -0.3086080129921611 0)
(0.16678358953224093 -0.19829716647272022 0)
(-0.6932971937678396 0.17245966403359447 0)
(-0.963779632358319 0.744247817888303 0)
(0.3933016477537845 0.8449987623545914 0)
(0.15257672033362635 0.2134300927657118 0)
(0.8687340295380297 0.8511370258135527 0)
(0.9696823979246691 0.6777961728918682 0)
(0.7397927241242566 0.03767611425214423 0)
(-0.8904767223559373 -0.32960551670819815 0)
(-0.33300165661771164 -0.20366261281811338 0)
(-0.3073080112680775 -0.3060935962075446 0)
(-0.5507903541200361 -0.0951209677346132 0)
(-0.0032644545210405163 -0.16214910099090418 0)
(0.1611767005560869 0.26452857583906075 0)
(-0.6439280662604971 0.9221406349389103 0)
(-0.8293006638427123 0.9937485036918947 0)
(-0.865847045223145 0.4999209407983556 0)
(-0.5897207190359857 -0.6186245586726669 0)
(0.12968226652523285 -0.8685827211432953 0)
(0.04878053865516008 -0.11847450612354371 0)
(-0.689519508138575 -0.6361437390094578 0)
(-0.2533813674404941 -0.45851065371289246 0)
(-0.9492272886793103 -0.6876948052676193 0)
(-0.945808014993033 -0.5560556761341011 0)
(-0.9605789244912717 -0.7917828360308523 0)
(0.3054922157037494 -0.523634437906547 0)
(0.4445338637113183 0.7113929362125715 0)
(0.33617027314129233 -0.5900314091683581 0)
(-0.9739961529785279 -0.8289829382910638 0)
(-0.6371291298204054 0.16608312193938435 0)
(0.6348871234768818 -0.31636529660424806 0)
(0.18058988502961548 -0.4638727183542475 0)
(0.10409436170396047 -0.12774694172936663 0)
(0.5272115883195216 -0.7197736484670949 0)
(0.7891044537881828 0.5997105118946304 0)
(-0.46264528123010784 0.08326842932173384 0)
(-0.7212878518543517 0.6698604735985982 0)
(-0.656641428303393 -0.4553853469612621 0)
(-0.7644978342197177 0.1530329510285071 0)
(0.30284077670372844 0.6594836074144033 0)
(-0.7262287398623855 0.8000372836962102 0)
(0.20103372086730675 0.33007334909251096 0)
(-0.16245895021585377 -0.2337229435010051 0)
(-0.6674332624878412 0.4760672328527409 0)
(-0.5093017806373581 -0.2214087719160469 0)
(0.438091810368491 -0.40575656875364996 0)
(0.3273423307252963 0.873659478649516 0)
(-0.9376337298774307 -0.47547191140034983 0)
(-0.007267505597527313 0.19368569783377843 0)
(-0.7868034937324564 -0.8497244365283825 0)
(0.3768047928554721 -0.13034532279250755 0)
(0.5988317579379585 0.3893929417088535 0)
(-0.2780522061199464 -0.8168358533467317 0)
(0.9004747076416049 -0.10798845408408853 0)
(0.7458916717528166 0.46444977281912236 0)
(0.38455312903570493 0.6983913031306386 0)
(-0.5575811163607955 0.975336015993294 0)
(0.41115034503137693 0.8504966348313316 0)
(0.8309765951760837 -0.9321080428284023 0)
(0.8487923907530608 0.9421164903307355 0)
(0.7240853019786269 0.6890987970701408 0)
(-0.9259847305690148 0.19253975696410608 0)
(-0.8460935967415817 0.3925775517562795 0)
(-0.8692873184021153 -0.36941932433877933 0)
(-0.36249499413586017 0.2517827528740182 0)
(-0.5340810504927325 -0.951198436886924 0)
(0.7494033453683988 0.05787426805442397 0)
(0.9958682210666749 -0.2985763690965797 0)
(-0.04024875939218231 0.25501092643674017 0)
(0.5365468277290364 -0.16446643566533248 0)
(-0.5224457084633953 -0.7790517737372107 0)
(-0.4073837590880198 -0.5327844979001801 0)
(0.9754447794720631 -0.1444537325282753 0)
(-0.5634922242698717 0.8999223679004507 0)
(-0.16483844843014328 0.7582366151243294 0)
(0.2268227784214154 -0.6659321078158495 0)
(0.8854635482702513 0.2992932979847369 0)
(-0.5386603765644826 -0.6469439359889835 0)
(0.5591689471335066 -0.2997494816665398 0)
(0.7675717699268514 0.8555045663904259 0)
(-0.2075159621946825 0.5164769514081826 0)
(0.6316662499812356 -0.5511188563266787 0)
(0.1858798696834063 0.16017241567562235 0)
(-0.46879991482258787 -0.7409701574343917 0)
(0.7242552345309012 0.6190321494497562 0)
(-0.8260264801771797 -0.1830935738586026 0)
(0.4468402273771699 -0.008248529842458385 0)
(0.36651752731919185 -0.8477382810193996 0)
(-0.038826845346704 0.1848155693190352 0)
(0.3560323051181271 0.13146392799158213 0)
(0.5948520432138562 0.316903669316851 0)
(0.4167259534300696 0.6740266567273441 0)
(0.2372227564303686 0.5054332791152825 0)
(0.743687055490464 -0.9415054339308817 0)
(-0.3297622914817162 0.48701651258321554 0)
(0.6642683559154838 0.014935467521672408 0)
(0.2338538367514844 0.962372356054847 0)
(0.2680114061992227 0.07997075943171095 0)
(0.522055805004056 0.08253315735222055 0)
(0.26524378626789624 0.8640562110200349 0)
(0.3757714446016267 -0.8643258817896562 0)
(-0.8652987970624566 0.16434092035254655 0)
(-0.9085159323749743 0.7430736123047526 0)
(0.4993036634858494 -0.7398275197387361 0)
(-0.9557528969420055 -0.3527795617009175 0)
(0.3665907532130104 -0.10819458724650333 0)
(-0.1476373955280541 -0.09722595134064904 0)
(0.3873644515629773 -0.5584607744224792 0)
(0.30902242856227047 -0.45348094600358135 0)
(-0.13533039791479617 0.8872318403351978 0)
(-0.20481120407441145 -0.45156959530265994 0)
(0.7881984073582688 -0.5400907882178276 0)
(0.3033336507517701 -0.2629473125524777 0)
(0.9363868558294435 -0.6289489685937577 0)
(0.541843689288104 0.6895664562337753 0)
(-0.7375102446352249 -0.9349476410174962 0)
(0.5930745819523526 -0.036955296974899854 0)
(0.37113057445794273 -0.1393882102010746 0)
(-0.8715821258497318 0.16394280382879756 0)
(-0.37927608215285247 -0.08955970183639761 0)
(-0.21501288718663036 -0.040122330565752984 0)
(0.3899637722530851 0.7202447943784092 0)
(-0.038986105484342115 -0.7901396431636503 0)
(-0.7150089141969735 -0.002223693097287871 0)
(0.1192973669738282 -0.9804583051616327 0)
(-0.8242670017103333 -0.2987461375816385 0)
(-0.20615344759680787 -0.7345684919138793 0)
(0.6011733982181657 -0.5996995115103798 0)
(0.2728604990872734 0.4129514529738023 0)
(-0.8960574326970552 0.08259267060214093 0)
(0.4281738642648556 0.6034561661395836 0)
(-0.8397703072306497 0.7896333121210553 0)
(-0.09536343096339972 0.28715539039304994 0)
(-0.8367400359388208 -0.8792958320188724 0)
(0.7435671331844034 -0.5615720252839114 0)
(-0.6357641686226014 0.5793970142849583 0)
(0.11072710187526247 0.4384035565445277 0)
(0.9495863242935663 0.30065137269387376 0)
(-0.8556031820416483 -0.9386949955883879 0)
(0.736545010816761 0.45433813953261604 0)
(-0.30813001490607417 -0.2579224740307946 0)
(0.7340629922448971 0.15735081714478683 0)
(-0.0266621171505943 0.7468464761633211 0)
(-0.44634440552989685 0.18470065718672446 0)
(0.24593316712696556 0.2631204401850411 0)
(0.4316499293641771 0.818065041331282 0)
(0.9427901880832792 -0.6380460945810205 0)
(-0.5055378511936459 0.7414998025450228 0)
(-0.2815332612004686 0.18590170286985486 0)
(0.938824644670575 -0.4837331345977449 0)
(0.5469462513732013 -0.7382526785633003 0)
(-0.5278990733070721 -0.8530065053399747 0)
(-0.3259936471374274 0.6577667317652189 0)
(0.2342899732080601 0.4135544337708916 0)
(-0.9266571461329141 0.47280403013128103 0)
(0.6883408979383943 0.6113403059001064 0)
(-0.5883175799264635 -0.7761607612045442 0)
(0.06233905600206402 0.873211384589923 0)
(-0.09560194343312944 0.8677500350558098 0)
(-0.9168542818992158 -0.7033135980758223 0)
(-0.9901200381311808 0.9036235708464779 0)
(-0.0905202887322818 0.031192057158500486 0)
(-0.7206974904873742 -0.9400528202546441 0)
(-0.5962930957541033 0.3468648666498346 0)
(0.34520423645025256 -0.1124995613908577 0)
(0.38525190445232904 0.6762305792962204 0)
(-0.005650471983145389 0.2356944804024277 0)
(-0.9392258806063263 0.8618973910139556 0)
(-0.5686496952045657 0.3177709404653144 0)
(-0.7868139393840186 0.31569060920607206 0)
(0.9543483684426346 -0.18618407855425878 0)
(0.1340325219733356 0.476898418502653 0)
(-0.3459336768735226 0.33518677112716944 0)
(0.595627297717269 -0.128833370374134 0)
(0.08897819592169909 -0.9884826790037569 0)
(-0.20765461678148922 0.39093441337972434 0)
(-0.5249117382513451 -0.25349641674131984 0)
(0.2068971867627558 0.3364255971100325 0)
(-0.24042843964154037 0.7266672991436505 0)
(-0.9487158683871286 -0.3175043447476873 0)
(0.16034473845466457 0.06720509345375691 0)
(0.625971477432187 0.4362461524529888 0)
(-0.6084440286329078 -0.9848742500437158 0)
(-0.5130354068474015 0.8540690895926133 0)
(-0.2967546255207312 -0.797158343101567 0)
(-0.43025419607615434 -0.38542007014742685 0)
(-0.3773846016879927 0.22066756662183673 0)
(-0.17290179694929697 -0.7562278133261049 0)
(-0.6371233046087461 0.05032676733412034 0)
(0.1346244392578071 -0.4868744325972725 0)
(0.6119850995503162 0.10045308431252353 0)
(0.902806684413314 0.20322364029266238 0)
(-0.543840456102135 -0.5759103201835467 0)
(0.6797226057334407 0.8000462467960223 0)
(0.5610510304877236 -0.4503879289037278 0)
(0.3350997985829409 -0.8089293723306636 0)
(0.1732169263509482 -0.6639715845102732 0)
(-0.5665203998184487 -0.8085708889596765 0)
(0.21418807217756153 0.09339482542814004 0)
(0.1889526703723461 -0.00646628228166124 0)
(0.3902891080951876 -0.19136246379141575 0)
(0.3848723026487393 0.9825119874043766 0)
(0.4486776342574823 0.1567738340128182 0)
(-0.8286835008071389 0.7883817493282366 0)
(-0.546687195546024 -0.2900073883361254 0)
(-0.8647748728155702 0.6007130156447231 0)
(0.7601581751229165 0.30175473809438835 0)
(-0.33399617388360414 0.33897391039638025 0)
(0.1155668347400498 0.4613010204784922 0)
(0.12459363175581961 0.9152505690107604 0)
(-0.598132622681887 0.07165536894616253 0)
(0.5123266577904921 -0.30485695152203585 0)
(0.8543556389589053 -0.5307158362890929 0)
(0.9849670043167504 0.8540019358485906 0)
(0.041915954544084366 0.24717137600551942 0)
(-0.7445730327295303 0.6521352605050568 0)
(-0.9276792389504758 -0.3937432881093428 0)
(-0.8247145064723229 0.8739156460621256 0)
(-0.20603696585143316 -0.10559491899032869 0)
(0.8387839464288347 -0.006073034188339488 0)
(-0.5829789712853284 0.8611904292878325 0)
(-0.23875341304683984 0.755948640890139 0)
(0.5800608726141228 -0.39064172180391843 0)
(-0.6529509700269827 0.3899021778049234 0)
(0.28194415469066403 0.6449611272687219 0)
(0.8455143810267887 -0.025876162362128197 0)
(-0.6503227454791749 0.005132152926884848 0)
(-0.2649311554169371 -0.8636553812290129 0)
(0.9262302231783477 0.09905907179003393 0)
(-0.37636773382948085 0.012283725680488189 0)
(0.28165262938041247 -0.5679236349808008 0)
(-0.6959502937427038 -0.8773007457786637 0)
(-0.8836724089890484 0.9897326343395343 0)
(0.9673578505268272 -0.5216397915681488 0)
(-0.3934497048648089 -0.7979083779787066 0)
(0.01884425629957942 0.9933937077059536 0)
(-0.38749275842677666 0.24779167258327695 0)
(-0.738579246519601 0.7732084304809335 0)
(-0.26448129824542077 -0.17174049494214594 0)
(0.5386097872826796 -0.9779374711427056 0)
(-0.9616154463538866 -0.48037358250993156 0)
(0.0706202629051833 -0.569596255965525 0)
(0.9517475098201076 0.6030742237659792 0)
(-0.780527602644993 0.09591897794738591 0)
(-0.8038348384315108 -0.023517725956443636 0)
(0.4747141547755993 -0.04796374126246694 0)
(-0.08110646318802672 0.5700330876741138 0)
(0.5738067725105902 -0.36918620850397454 0)
(-0.49065875590789765 0.6817431588518452 0)
(-0.07704507075053169 0.27440295361656086 0)
(0.27333936433441464 0.22786716952012354 0)
(-0.6996619983659167 0.47486753744297117 0)
(-0.9166541987952315 -0.8304159679083936 0)
(-0.8574865444694828 -0.9757830495302251 0)
(-0.2934971829958717 -0.40692883742468955 0)
(0.3227412221408288 -0.6296088642650641 0)
(0.3206054394026763 0.5287453244434719 0)
(-0.8356566650471453 0.9357200696900609 0)
(0.24932713770852755 -0.2361207206942082 0)
(0.23002593607773325 0.549267561275576 0)
(-0.9160975531367275 0.9369775551887676 0)
(0.9599406587177013 0.2037631792726442 0)
(0.6235395761802751 0.3129572146630053 0)
(0.8561672806520995 -0.5507687763122961 0)
(-0.12119002061109563 0.22587916498905103 0)
(-0.7569972473981639 -0.6050590202801254 0)
(-0.42818642152167974 0.6318938779372345 0)
(0.8378530672791089 -0.49551795965327683 0)
(0.6839971057801231 0.4569813543232264 0)
(-0.6451424610605863 0.09005383779387666 0)
(-0.9136525284059767 -0.6703703685411257 0)
(0.6355706597138902 -0.5729772673786562 0)
(0.4656030895325012 0.08447441098369657 0)
(-0.40490309736235885 0.13004398571803222 0)
(0.27258270795849615 0.522243074086316 0)
(-0.9813367603458134 -0.506642270956754 0)
(-0.8016438008255682 -0.1970113682774235 0)
(0.11016989860457249 0.4661425920593496 0)
(-0.28923086262852116 0.5675835689707944 0)
(0.5219815200561877 -0.9293772901195219 0)
(0.9161469602387604 -0.26411849739583104 0)
(-0.38879156901957024 0.7533015236564011 0)
(-0.10277873809091487 0.4441418764054741 0)
(-0.21694860364434132 -0.1747563183027525 0)
(0.23917867491968137 -0.2890139791172852 0)
(0.176404533896781 -0.03805422022775251 0)
(0.15996757485626256 0.12296917591904744 0)
(0.35293587445272445 0.6099779993615395 0)
(-0.0034886354730927494 -0.8458834417313377 0)
(0.5697939542229351 0.4153618694818315 0)
(-0.11960200408901889 -0.7050949465874321 0)
(-0.8227991406407655 -0.5587760945775775 0)
(0.9966950227858993 0.8662266626871153 0)
(0.27235472941646544 0.571303236160464 0)
(0.6796045712712344 -0.23233409613391198 0)
(-0.6310474937327213 -0.27552911669542324 0)
(-0.9516164722172895 0.6633940873515469 0)
(-0.4025488528224539 0.881358490230681 0)
(0.7454605009692037 0.6838671335836173 0)
(-0.0836262265242147 -0.03406225582928957 0)
(0.4558786139475304 -0.0070776952894004985 0)
(0.5310257979822195 -0.6821836646612929 0)
(0.5027501720580914 0.31391031253427903 0)
(-0.8858905576974914 -0.4356258506135997 0)
(0.8125091610420734 -0.5009076003009878 0)
(-0.10052031509892001 0.5534211139103624 0)
(-0.9327727996334347 -0.874693593089291 0)
(0.06484136455043421 -0.1778087947985869 0)
(-0.956353206449021 0.3275793723511782 0)
(0.8736449240661837 -0.8954842414279525 0)
(0.4616419299614596 0.9625941809944933 0)
(-0.6038047344805197 0.1306605091432198 0)
(0.21705454539293312 -0.30098725582636243 0)
(-0.5493661400975298 -0.498066677319404 0)
(0.04678182274873288 -0.7704622562615651 0)
(-0.8646632761999968 0.41567019445953735 0)
(-0.08339871694268708 -0.030607425739906047 0)
(0.6999507429613239 0.33804467465821664 0)
(0.30194693430190833 0.09086373881381093 0)
(0.612807234465679 -0.08152024480608389 0)
(-0.5972724357280512 -0.48275833022392245 0)
(0.5135030113772701 0.03877171900787468 0)
(0.7591637099030584 0.7411568500920138 0)
(0.9699793122817502 0.5440249526199807 0)
(-0.07213724637533447 0.8184404117231203 0)
(-0.7890526000867388 0.3135602094485881 0)
(0.551223701850655 0.9289533078016232 0)
(-0.4257240838308489 0.5857088380676787 0)
(0.5958283192317881 -0.20805905467509023 0)
(-0.684090354329304 0.3917982363376049 0)
(0.7143585139975059 0.8122865095315328 0)
(-0.7185769439024832 -0.5959686631950201 0)
(0.3085851046499237 -0.6957914335554543 0)
(-0.8330718300212334 0.7648327368146774 0)
(0.9342532305183409 -0.1644780414498006 0)
(0.2693425465078829 -0.66809020940843 0)
(-0.6755331884350413 -0.9747849600484819 0)
(0.4387072447383171 0.7805161060356043 0)
(-0.6251761118048356 0.7163541063143279 0)
(0.42048559724662304 -0.3712997736325032 0)
(-0.0814696056535722 -0.2844034693491164 0)
(-0.32958390525825454 -0.6524768137285124 0)
(-0.7987250429529333 -0.5202517744881106 0)
(-0.0992980421891747 0.49765267392661294 0)
(-0.2952501067806912 0.6828951061695199 0)
(0.2682842765914737 -0.7474705168709945 0)
(0.37265439337219486 -0.8607177036751885 0)
(-0.5456408859529702 0.6740822504858801 0)
(0.388301147019662 0.025309506290105865 0)
(-0.9336212908751476 -0.3921071975185524 0)
(0.742408964526104 0.5321295530706052 0)
(-0.479426284867994 0.8143900614116597 0)
(-0.7780210615730379 -0.10588891238714915 0)
(0.09329644037557694 -0.2391989020591807 0)
(-0.15490314337611077 -0.9159506496571894 0)
(-0.43992534089902113 0.7166833535982418 0)
(0.5079238071935679 0.6098135536828773 0)
(0.4533419841406465 -0.39049780922773336 0)
(0.7455076791322559 -0.774839219176126 0)
(-0.8069310596091184 -0.516212343482322 0)
(-0.39746947847999925 0.19671496859551763 0)
(0.4863863974632068 -0.9037143280432931 0)
(0.33560936645281303 0.1864431402147686 0)
(-0.8420616756183428 -0.5209796601809238 0)
(0.16561367016697925 0.9908750323826199 0)
(-0.8727181814267153 0.6627470287714197 0)
(-0.8122854303532876 0.8192536388731848 0)
(0.7579578005645347 0.14354470409664444 0)
(-0.36610682441776143 -0.13080807828257646 0)
(0.7850465799096922 -0.11323997124162455 0)
(0.18339432461265104 0.40526754617103267 0)
(-0.7915503943833047 -0.2309773447103749 0)
(0.901062105172407 0.20130213309671174 0)
(0.2682080627526626 -0.8581355677324531 0)
(-0.05501328998697286 -0.9087025089952325 0)
(0.9430653818021013 -0.3373059857938985 0)
(0.22156014215153652 -0.4386335689680514 0)
(-0.9889884016791584 -0.9846719347015493 0)
(-0.7839484917386172 -0.3222787013224968 0)
(0.025335451912832818 -0.4130223535837567 0)
(-0.825814466408457 0.23413303223560256 0)
(0.01482387743561775 0.7484450493703516 0)
(0.9856336779981407 -0.7370217602040368 0)
(-0.15634364292233727 -0.17795784946890847 0)
(0.2158104281814075 -0.3812545642744358 0)
(0.6423965651004531 -0.9968697896170542 0)
(-0.4847855593325563 -0.8809505993044566 0)
(-0.7710247238681898 -0.23232223391004103 0)
(-0.7579499990296139 -0.16210441962504918 0)
(-0.8396399718361931 -0.29045741632803157 0)
(0.3573399133451296 -0.27616001832427006 0)
(0.2721920928190844 0.8265738951524735 0)
(0.4479461109321876 -0.7588831671926195 0)
(0.06793494509552755 -0.7157257524130847 0)
(-0.4099185846916875 -0.027999012404793966 0)
(-0.7539934097525087 0.1172847929008507 0)
(0.30458329718387933 0.6912087259798136 0)
(0.3459332447888648 -0.44923765148916295 0)
(-0.10716096719683565 0.596760681036705 0)
(0.8332704716824146 -0.13802955897340752 0)
(-0.25765515312474485 0.2021483336004659 0)
(-0.2508942259597573 -0.6662795966024944 0)
(0.7801940703676167 -0.3082450785242852 0)
(0.2916447725729685 0.2738046349094865 0)
(-0.18074221020953596 -0.37756500987321284 0)
(-0.27081254360492 -0.5642148914900198 0)
(0.3765484715604741 -0.7188940648432784 0)
(0.010910235820899894 0.9280348142354047 0)
(-0.9380884181613129 -0.22402648010626103 0)
(0.5124272279003537 -0.08295398223621864 0)
(-0.7677220795989488 0.9118376579106384 0)
(0.20588575295892309 0.6534147194829749 0)
(0.9222709708151859 -0.2210362101951593 0)
(0.08281521469517039 -0.6917099136430258 0)
(0.52380362520974 0.6672999238751711 0)
(-0.48133020536581106 -0.6107523265902561 0)
(-0.4595046157384335 0.9328347717328147 0)
(0.16093520198739197 -0.721606597308609 0)
(-0.022204336415097226 -0.1964423986913515 0)
(0.24681191631888022 0.13875472236456554 0)
(-0.20972451347136278 -0.9210809342182014 0)
(-0.5445005277935808 0.9280576943310275 0)
(0.06677325753072516 0.7399383192953699 0)
(-0.7503583720663034 0.5884213250988108 0)
(0.8880841876507957 -0.7024080611897687 0)
(-0.03318512805370677 0.7270950450290903 0)
(-0.4284328889482596 -0.5935538178278255 0)
(0.022550924401502304 -0.015349039997636149 0)
(0.9614786871668588 -0.18483158285236612 0)
(0.1470579029111465 0.9120942872238662 0)
(0.7079239339108443 -0.1217003667325034 0)
(-0.8750848127618571 0.7669295259721214 0)
(0.25318502218642047 0.8527652134601735 0)
(0.37544408486112135 0.4454139153964569 0)
(-0.40120882325663754 -0.2825689491659731 0)
(-0.5785900722655937 0.9148960380761924 0)
(0.35364259771479123 0.6569385988982341 0)
(0.4757390371230601 0.6682891940013516 0)
(0.5068558445139382 0.537845564215282 0)
(0.6918428793554643 0.22720822847491684 0)
(-0.8447013306567899 -0.18491393793513833 0)
(-0.30235893206104136 -0.7780038024173703 0)
(-0.8553670494841228 0.9102304145834028 0)
(-0.846275849447673 0.0012485361408356432 0)
(-0.8995479770720525 -0.854196329264193 0)
(-0.5352313538879043 -0.4379910021825728 0)
(-0.18979461094486716 0.8122220042649941 0)
(-0.5479420043680006 0.28095208435168795 0)
(-0.28437183177290226 0.29563489198105675 0)
(0.006167901559672728 -0.10130051592071587 0)
(-0.8564483875469739 0.3652344424468048 0)
(0.6450695887683935 0.6079170151050406 0)
(-0.7142480773211766 0.5506923008062712 0)
(-0.4314518141449666 -0.7323432740006137 0)
(0.4972904682524 -0.3648264094777667 0)
(-0.9062961829447937 -0.44766088435820106 0)
(0.6786769847120047 -0.9923601546828338 0)
(-0.36745970054138644 -0.7962152238679729 0)
(0.6854238043211098 -0.37330416482971374 0)
(-0.13236516084694094 0.819886287708784 0)
(-0.8214209509488541 0.3740385330064855 0)
(0.2654237574972018 0.4077141832686624 0)
(0.4260921012686374 0.33277082715641293 0)
(0.9015454154626761 0.4050810030696139 0)
(0.5636477266898712 0.2882984429518318 0)
(0.9135996309685723 0.0008022914204024456 0)
(-0.5822345519896726 -0.2625856582704096 0)
(0.5351352570358365 -0.16699113619224204 0)
(-0.5760118906026839 0.31470696434025713 0)
(-0.5685186416470918 0.35562640062008843 0)
(-0.7267981926976548 0.30327952095455313 0)
(0.2896652080446276 -0.20973818477699346 0)
(0.7804300052723487 -0.42518080706884054 0)
(-0.7769755753574472 0.03172380542465625 0)
(-0.9706132226900923 -0.24181190265612762 0)
(-0.7512632019989796 -0.17271465016272947 0)
(0.061875356824187655 0.19026334981136306 0)
(0.9269984817751766 0.038064560259097435 0)
(0.5479827563055251 0.5458429637522302 0)
(-0.7488995704746932 -0.966104670220838 0)
(-0.7595855417588475 -0.46883433408278785 0)
(0.546283747837343 0.03592105542515789 0)
(-0.9972927485690637 -0.4003989448695282 0)
(0.694121653967799 -0.9528100707089417 0)
(0.5607522471419608 -0.08400848199285704 0)
(-0.8686102820912684 -0.5435292730126018 0)
(0.49488881319338796 -0.05238034320410678 0)
(0.8854486381882245 0.5703790862968168 0)
(0.9255367005064121 -0.8487899187664985 0)
(-0.6083338317314599 -0.7183941022146478 0)
(0.1565967988407213 -0.7060745808235807 0)
(-0.22366858774600895 0.3482605910721259 0)
(0.8349716862639804 -0.4189909886571592 0)
(0.41544270053505494 -0.8755935476705945 0)
(0.2618435804583268 -0.10465314917916335 0)
(0.059319447891239774 -0.5162134117742216 0)
(-0.847521564052871 -0.45059236990421603 0)
(0.09315428406458981 -0.1343679955810615 0)
(-0.1089167225162182 -0.5816290691841444 0)
(0.9623850583282316 0.5862857479934789 0)
(0.9212539510263995 -0.6061485910931432 0)
(0.4234456114920975 0.9622874635836438 0)
(-0.12600822866875827 0.18712187075757192 0)
(0.9623556735245891 -0.6197847004325447 0)
(0.8874031856404416 0.9202712088108944 0)