/*--------------------------------*- C++ -*----------------------------------*\
  =========                 |
  \\      /  F ield         | OpenFOAM: The Open Source CFD Toolbox
   \\    /   O peration     | Website:  https://openfoam.org
    \\  /    A nd           | Version:  10
     \\/     M anipulation  |
\*---------------------------------------------------------------------------*/
FoamFile
{
    format      ascii;
    class       volScalarField;
    location    "0.099538";
    object      p;
}
// * * * * * * * * * * * * * * * * * * * * * * * * * * * * * * * * * * * * * //

dimensions      [1 -1 -2 0 0 0 0];

internalField   nonuniform List<scalar> 
16320
(
0.651578
0.635424
0.621254
0.617433
0.619343
0.625575
0.637187
0.650532
0.66292
0.669277
0.668344
0.662239
0.64654
0.616449
0.585832
0.554576
0.530936
0.5355
0.558542
0.627449
0.808266
1.19582
1.31004
1.2577
1.14551
1.02086
0.888526
0.721051
0.53948
0.420342
0.363679
0.350162
0.357246
0.684165
0.671595
0.660286
0.659925
0.665589
0.678412
0.695945
0.713446
0.726304
0.730594
0.72734
0.714997
0.686024
0.647607
0.607336
0.569891
0.539295
0.544389
0.568218
0.644305
0.848745
1.26351
1.31607
1.25578
1.14334
1.02164
0.876769
0.683113
0.495974
0.397525
0.354872
0.348048
0.356058
0.719138
0.715329
0.711146
0.716739
0.73133
0.752318
0.774569
0.79248
0.801101
0.799774
0.792146
0.772165
0.733839
0.687082
0.640724
0.598135
0.56329
0.568361
0.59793
0.683661
0.922068
1.32194
1.3183
1.24816
1.13711
1.01047
0.841317
0.618468
0.450162
0.378927
0.351139
0.347516
0.357021
0.756802
0.767545
0.774567
0.790113
0.814837
0.842484
0.86518
0.878596
0.879109
0.873997
0.858665
0.827289
0.784638
0.735639
0.685399
0.639684
0.607259
0.615816
0.657354
0.775813
1.06711
1.35236
1.32144
1.22899
1.12148
0.983311
0.76956
0.540046
0.411871
0.36786
0.351256
0.351799
0.362147
0.782696
0.82695
0.846128
0.873674
0.904109
0.933164
0.951034
0.956478
0.951155
0.93866
0.915924
0.878455
0.833535
0.785383
0.738038
0.693494
0.66843
0.684173
0.747678
0.911947
1.25884
1.35944
1.30191
1.20326
1.08994
0.919836
0.663125
0.469068
0.38812
0.362753
0.354062
0.356874
0.367913
0.791697
0.866322
0.913796
0.952199
0.982519
1.0054
1.01879
1.01802
1.00897
0.988847
0.959436
0.920135
0.876654
0.831719
0.787095
0.745662
0.737625
0.764137
0.857945
1.09786
1.37627
1.3428
1.25104
1.16299
1.03349
0.80124
0.551621
0.421675
0.375826
0.361276
0.358327
0.362307
0.373739
0.787088
0.891955
0.96212
1.01019
1.03963
1.05895
1.06636
1.06176
1.04825
1.02107
0.983916
0.942389
0.901365
0.859163
0.81817
0.786608
0.799213
0.853138
1.00237
1.31319
1.37272
1.28811
1.19199
1.10011
0.923986
0.654191
0.470017
0.39642
0.370744
0.362999
0.363145
0.368014
0.379188
0.785994
0.900519
0.986912
1.04634
1.07575
1.09429
1.09924
1.08789
1.05922
1.02023
0.978967
0.935454
0.891617
0.847533
0.806462
0.794817
0.820181
0.916657
1.16616
1.37234
1.32469
1.19895
1.12124
1.00027
0.763043
0.534931
0.425263
0.384282
0.36924
0.366186
0.367767
0.373783
0.383799
0.789987
0.903921
0.998688
1.07047
1.10749
1.11851
1.10966
1.08332
1.03638
0.980405
0.921001
0.86074
0.802204
0.75192
0.708508
0.720411
0.768245
0.914661
1.23642
1.32336
1.21567
1.11103
1.02391
0.848808
0.617301
0.465188
0.402809
0.378167
0.369025
0.36961
0.372187
0.379235
0.387851
0.794289
0.902393
1.01122
1.07963
1.1039
1.09946
1.07359
1.01862
0.947702
0.872448
0.797524
0.726846
0.664453
0.61018
0.569547
0.58262
0.641773
0.838358
1.20519
1.19224
1.08848
1.00066
0.880921
0.700406
0.524005
0.430695
0.391122
0.374743
0.369013
0.372529
0.375876
0.384165
0.391877
0.790167
0.885187
0.978765
1.02195
1.03768
1.01987
0.973424
0.902956
0.824229
0.744415
0.669515
0.603082
0.545603
0.497978
0.462046
0.473256
0.527469
0.721438
1.09589
1.04388
0.956718
0.863993
0.743997
0.597985
0.477048
0.414155
0.385169
0.372672
0.369108
0.374403
0.379179
0.388474
0.395602
0.77197
0.855375
0.9004
0.92908
0.926238
0.901871
0.848102
0.777737
0.70153
0.630856
0.565951
0.509673
0.46244
0.421861
0.391236
0.399727
0.445581
0.618652
0.975033
0.913548
0.835297
0.749302
0.648959
0.542912
0.455956
0.406202
0.381904
0.37136
0.369307
0.376115
0.382133
0.392357
0.399051
0.7547
0.795081
0.823281
0.823726
0.811642
0.77796
0.727892
0.667912
0.60532
0.545246
0.492445
0.446348
0.406006
0.369261
0.342662
0.349781
0.389689
0.545194
0.868343
0.813912
0.745432
0.672096
0.594643
0.516323
0.446711
0.402155
0.379644
0.370215
0.369652
0.377964
0.385301
0.39576
0.402271
0.759382
0.741101
0.731161
0.720583
0.699223
0.669291
0.630783
0.584499
0.533459
0.485437
0.440402
0.398524
0.360182
0.325844
0.30455
0.311383
0.350244
0.497979
0.791274
0.742027
0.684424
0.624671
0.56488
0.503098
0.442566
0.399896
0.377634
0.368652
0.369854
0.379356
0.388799
0.398004
0.406079
0.70328
0.675099
0.650207
0.627278
0.605053
0.58136
0.553254
0.519829
0.478463
0.438949
0.396604
0.355826
0.318349
0.287557
0.273763
0.281299
0.322984
0.473881
0.736011
0.689599
0.642904
0.594583
0.546359
0.494263
0.439289
0.397044
0.374564
0.365657
0.369352
0.379868
0.390615
0.40092
0.411752
0.632374
0.608207
0.582404
0.560995
0.540383
0.520007
0.496305
0.467751
0.431893
0.394701
0.352441
0.313466
0.28087
0.257935
0.250464
0.259674
0.306396
0.46884
0.692219
0.650121
0.612378
0.571936
0.531421
0.486111
0.435346
0.39314
0.369393
0.360564
0.369103
0.37886
0.390903
0.403846
0.419547
0.582138
0.564656
0.543669
0.522925
0.501704
0.478902
0.451977
0.42056
0.3861
0.346634
0.307385
0.27407
0.248939
0.233931
0.232809
0.244547
0.299133
0.475034
0.649655
0.61733
0.587246
0.552776
0.517766
0.477411
0.429562
0.38801
0.363325
0.355145
0.362957
0.37498
0.389892
0.407891
0.42856
0.558455
0.545342
0.526037
0.503726
0.478854
0.44942
0.413833
0.376017
0.339904
0.303264
0.270287
0.24407
0.22557
0.216665
0.218682
0.234937
0.300869
0.488505
0.605459
0.588596
0.565976
0.5363
0.504967
0.467828
0.421467
0.380462
0.356115
0.348233
0.357252
0.370651
0.38957
0.414158
0.440567
0.549645
0.539345
0.519877
0.494673
0.46371
0.424651
0.380876
0.339323
0.304713
0.273537
0.246467
0.225104
0.210906
0.205613
0.209509
0.231092
0.309099
0.500501
0.567177
0.563777
0.548292
0.522049
0.492824
0.457253
0.411093
0.370106
0.34696
0.340088
0.349367
0.366246
0.390673
0.423145
0.462192
0.54758
0.538388
0.518337
0.489
0.448483
0.400226
0.353503
0.314011
0.283356
0.256878
0.233549
0.214852
0.202585
0.19864
0.204554
0.233561
0.32737
0.498749
0.540706
0.543311
0.533762
0.509897
0.481165
0.44554
0.398998
0.357424
0.33607
0.331186
0.340666
0.361782
0.394635
0.440041
0.498447
0.554123
0.542353
0.518327
0.479332
0.428551
0.376608
0.333446
0.299543
0.271833
0.24885
0.2268
0.208723
0.197006
0.194981
0.203258
0.241117
0.350148
0.487996
0.522053
0.52783
0.521878
0.499805
0.470447
0.432204
0.385162
0.343633
0.323797
0.322029
0.332966
0.359777
0.405412
0.472079
0.552459
0.558001
0.544453
0.510581
0.459744
0.404545
0.356642
0.320782
0.292381
0.266659
0.24599
0.223714
0.205651
0.193889
0.192345
0.205308
0.254893
0.371704
0.472361
0.50799
0.516119
0.51216
0.491175
0.459925
0.417935
0.369418
0.328931
0.310901
0.312068
0.326652
0.362989
0.428182
0.522128
0.612487
0.557865
0.532905
0.486912
0.431116
0.381216
0.342251
0.313728
0.28914
0.264984
0.245806
0.223177
0.204377
0.191641
0.191117
0.210072
0.272391
0.381361
0.458669
0.49526
0.505119
0.502873
0.482955
0.449118
0.402201
0.351879
0.313585
0.298045
0.30239
0.323313
0.374311
0.467465
0.582537
0.670407
0.539952
0.499462
0.44815
0.400187
0.361861
0.331954
0.309162
0.287734
0.265138
0.247951
0.225081
0.20526
0.190644
0.191661
0.218258
0.289381
0.381933
0.44641
0.483074
0.494519
0.493243
0.474545
0.436264
0.385077
0.333137
0.297945
0.286168
0.294629
0.326291
0.400621
0.522145
0.645653
0.724542
0.499512
0.450825
0.407129
0.373215
0.345851
0.323058
0.304506
0.286296
0.265908
0.250248
0.227485
0.205924
0.189783
0.19319
0.227983
0.30105
0.377938
0.43347
0.469309
0.482495
0.482453
0.464176
0.421924
0.366205
0.31395
0.282925
0.276408
0.292044
0.340843
0.447756
0.593275
0.707608
0.777788
0.44838
0.404759
0.374076
0.352547
0.334042
0.316648
0.300731
0.283938
0.265644
0.249224
0.228893
0.206419
0.190161
0.196354
0.236763
0.309945
0.370975
0.420072
0.453319
0.468152
0.470402
0.451003
0.404636
0.345427
0.295093
0.269708
0.270223
0.299416
0.378869
0.52356
0.669679
0.761251
0.820027
0.404538
0.373153
0.355162
0.341809
0.32875
0.313955
0.299261
0.282904
0.265774
0.24977
0.229807
0.206381
0.191227
0.201114
0.245976
0.316807
0.363202
0.405275
0.435653
0.451941
0.457037
0.435398
0.38495
0.323633
0.277914
0.259002
0.272092
0.324653
0.448292
0.616313
0.728333
0.794472
0.840204
0.376196
0.356837
0.346181
0.337303
0.326944
0.313147
0.299094
0.283831
0.268173
0.251641
0.231795
0.206713
0.193753
0.20841
0.257308
0.323366
0.355641
0.390302
0.41773
0.435039
0.441504
0.417892
0.361639
0.301568
0.262822
0.253631
0.286308
0.378887
0.54783
0.685427
0.755416
0.807531
0.844599
0.361847
0.349511
0.342304
0.335935
0.326892
0.315785
0.305368
0.290333
0.275754
0.256921
0.235797
0.208055
0.199732
0.220516
0.2723
0.326444
0.349578
0.375532
0.400029
0.418424
0.423976
0.395484
0.335181
0.279542
0.251359
0.259432
0.321378
0.468074
0.632757
0.716482
0.768299
0.809155
0.838427
0.355165
0.347073
0.341231
0.337568
0.332802
0.325156
0.316654
0.303027
0.289512
0.270142
0.245081
0.212617
0.210307
0.237105
0.288617
0.326469
0.343719
0.362416
0.382171
0.402254
0.403739
0.367733
0.306031
0.259987
0.246427
0.278091
0.38766
0.566244
0.679697
0.73289
0.774819
0.806339
0.828011
0.352902
0.347355
0.345466
0.345214
0.344264
0.340313
0.332707
0.322772
0.311068
0.294914
0.261565
0.224313
0.226863
0.259353
0.303015
0.325792
0.337745
0.351076
0.36605
0.385328
0.378828
0.333998
0.276302
0.245485
0.2529
0.320361
0.482087
0.638244
0.703573
0.74389
0.774966
0.796789
0.811832
0.354626
0.352355
0.355941
0.35954
0.360919
0.359608
0.352827
0.348236
0.338389
0.326722
0.286589
0.250572
0.253117
0.287561
0.311985
0.324275
0.331941
0.340635
0.35211
0.364623
0.347218
0.296059
0.250545
0.238807
0.274396
0.392455
0.575218
0.673684
0.718074
0.748658
0.769314
0.781416
0.789585
0.358687
0.361873
0.369902
0.377457
0.381092
0.381769
0.377158
0.378024
0.369423
0.366916
0.325847
0.291743
0.292858
0.314664
0.321674
0.324387
0.327496
0.330457
0.338686
0.340322
0.309425
0.259625
0.233556
0.24701
0.320583
0.482799
0.633584
0.694247
0.727406
0.748675
0.759384
0.763564
0.764092
0.364813
0.374234
0.385864
0.397328
0.404889
0.407725
0.406513
0.40935
0.40236
0.414982
0.377873
0.34834
0.341328
0.334562
0.330405
0.326539
0.324028
0.321476
0.323832
0.312492
0.270179
0.234417
0.232865
0.273464
0.390685
0.560961
0.664568
0.709587
0.733141
0.74272
0.7448
0.743228
0.738339
0.373
0.387382
0.403191
0.418059
0.430099
0.43639
0.439232
0.442096
0.438382
0.470322
0.442843
0.410861
0.379407
0.353895
0.339515
0.330116
0.321814
0.313545
0.307615
0.281764
0.24158
0.229066
0.249783
0.328026
0.46627
0.604592
0.681559
0.717016
0.730301
0.732302
0.728279
0.719798
0.711824
0.381671
0.39986
0.419591
0.438557
0.455482
0.467133
0.473539
0.476018
0.480026
0.530225
0.516256
0.465515
0.407584
0.373131
0.35042
0.334924
0.321648
0.307624
0.291625
0.257037
0.238411
0.243648
0.297079
0.400752
0.515981
0.608638
0.676652
0.708281
0.716674
0.715512
0.707578
0.694767
0.688206
0.38951
0.412028
0.435213
0.457937
0.478655
0.496617
0.508037
0.513893
0.530758
0.582753
0.591786
0.514172
0.432038
0.38978
0.362992
0.342147
0.324871
0.307792
0.280964
0.257928
0.253179
0.287974
0.36366
0.44475
0.518052
0.587991
0.649959
0.683537
0.691862
0.690463
0.681216
0.670465
0.666009
0.395411
0.422709
0.449464
0.475268
0.499404
0.522676
0.541574
0.555562
0.584126
0.615035
0.665035
0.564126
0.456616
0.405233
0.376717
0.353031
0.334448
0.316079
0.288824
0.275159
0.292553
0.345178
0.395108
0.445256
0.502439
0.562471
0.613727
0.646286
0.656822
0.657215
0.65161
0.646289
0.642598
0.398717
0.429133
0.458608
0.487778
0.5163
0.543641
0.570161
0.594858
0.63042
0.637067
0.725667
0.618565
0.484892
0.421303
0.391675
0.370635
0.356135
0.33443
0.312045
0.309602
0.336882
0.365798
0.399029
0.441199
0.488325
0.536276
0.578377
0.60589
0.618884
0.62221
0.621589
0.620491
0.623842
0.399823
0.432369
0.463399
0.494197
0.526156
0.55862
0.59107
0.622882
0.65436
0.657148
0.77284
0.676948
0.519053
0.441454
0.409937
0.396387
0.39252
0.367607
0.349376
0.341998
0.351995
0.37226
0.402051
0.439074
0.480582
0.521168
0.555477
0.580709
0.590844
0.593066
0.59606
0.597334
0.603365
0.399344
0.435198
0.465802
0.496832
0.530946
0.568176
0.60617
0.642592
0.668892
0.674957
0.805826
0.73383
0.56139
0.46797
0.435038
0.434423
0.441043
0.409526
0.376875
0.361462
0.361099
0.380794
0.408943
0.441943
0.476638
0.509298
0.538007
0.557831
0.5647
0.570283
0.57004
0.578361
0.584531
0.388772
0.436116
0.469522
0.498889
0.532811
0.574971
0.6179
0.658413
0.684772
0.698241
0.82177
0.792089
0.612597
0.503765
0.473581
0.489268
0.495547
0.442321
0.3963
0.377273
0.373568
0.391916
0.418478
0.444646
0.472019
0.498824
0.51904
0.535869
0.543523
0.547568
0.547209
0.560471
0.564614
0.360696
0.424112
0.468707
0.501446
0.538198
0.580331
0.63049
0.680856
0.714326
0.748943
0.835709
0.845526
0.678248
0.55357
0.531869
0.553304
0.540927
0.464443
0.414485
0.393301
0.387224
0.40459
0.421704
0.44624
0.471062
0.488507
0.504448
0.509295
0.51713
0.527893
0.534485
0.546921
0.550179
0.322883
0.401125
0.463603
0.503653
0.542018
0.591166
0.649323
0.713745
0.76173
0.826845
0.860164
0.888925
0.758053
0.621121
0.612047
0.617205
0.57286
0.484054
0.431346
0.407638
0.400748
0.410724
0.424227
0.448699
0.46456
0.48457
0.491697
0.500431
0.506714
0.507898
0.528622
0.541275
0.545938
0.289419
0.371243
0.454263
0.509138
0.549797
0.599818
0.668113
0.749853
0.821314
0.90331
0.892461
0.925137
0.84604
0.710271
0.70995
0.675684
0.600492
0.50391
0.445632
0.421638
0.410268
0.409488
0.429927
0.442143
0.466027
0.480622
0.48848
0.500154
0.510152
0.517624
0.534665
0.543207
0.547751
0.268814
0.343001
0.439866
0.514504
0.561899
0.611429
0.680576
0.773112
0.862081
0.914206
0.923935
0.968099
0.930256
0.820214
0.819105
0.73471
0.630874
0.5256
0.457281
0.4271
0.415081
0.415435
0.424969
0.441593
0.467583
0.48095
0.49452
0.50916
0.521442
0.537968
0.549401
0.551765
0.554583
0.258785
0.325743
0.425122
0.520086
0.577023
0.624677
0.691475
0.790675
0.898331
0.947381
0.975517
1.0203
0.999708
0.942005
0.936
0.802937
0.666202
0.542506
0.465493
0.431818
0.42016
0.415997
0.417367
0.447435
0.469495
0.489513
0.504557
0.525321
0.546544
0.561698
0.570896
0.572382
0.570503
0.255282
0.317252
0.418521
0.526182
0.597264
0.642722
0.703037
0.80089
0.918884
0.98232
1.0306
1.07215
1.05907
1.05563
1.03377
0.878028
0.70784
0.561584
0.47593
0.435533
0.418567
0.411464
0.422986
0.447895
0.471641
0.493689
0.515723
0.540113
0.562628
0.580095
0.591323
0.595203
0.591375
0.257259
0.31425
0.416189
0.533643
0.619733
0.665961
0.718662
0.805955
0.924861
1.0128
1.08382
1.10295
1.10161
1.1354
1.10187
0.956264
0.756945
0.587416
0.486125
0.437453
0.416491
0.414822
0.424944
0.443696
0.475699
0.494874
0.522854
0.550395
0.574755
0.591039
0.600302
0.603142
0.595793
0.268685
0.318242
0.416216
0.543885
0.644657
0.694549
0.738894
0.811496
0.9213
1.02365
1.10398
1.10934
1.12787
1.17898
1.14765
1.03559
0.812667
0.620445
0.500387
0.444583
0.423262
0.421322
0.424499
0.446172
0.475392
0.494684
0.525644
0.551099
0.576971
0.59122
0.598903
0.600665
0.592186
0.284672
0.33283
0.429171
0.560505
0.67216
0.725689
0.764174
0.823608
0.918155
1.02431
1.10698
1.11939
1.14685
1.2012
1.19214
1.10701
0.875865
0.667792
0.526776
0.461444
0.439593
0.432131
0.431448
0.452764
0.479454
0.496129
0.52516
0.549668
0.573106
0.58663
0.591993
0.591363
0.57987
0.303009
0.352791
0.451915
0.588161
0.70408
0.758194
0.791243
0.838883
0.920431
1.02067
1.10596
1.1251
1.15644
1.21252
1.24516
1.15686
0.94604
0.735579
0.573335
0.495706
0.467761
0.459637
0.458888
0.476168
0.492753
0.503718
0.525263
0.545289
0.562647
0.573685
0.576028
0.56959
0.553779
0.321908
0.376425
0.481712
0.625137
0.742149
0.791713
0.818922
0.857377
0.92825
1.02327
1.10485
1.1322
1.16264
1.21733
1.28935
1.18692
1.02251
0.821855
0.643096
0.561663
0.529416
0.522526
0.524882
0.535698
0.53591
0.528672
0.532443
0.538691
0.546509
0.551992
0.551415
0.5401
0.523433
0.339935
0.401967
0.51608
0.669523
0.783906
0.826108
0.846625
0.876837
0.939151
1.02677
1.10477
1.14046
1.1636
1.21435
1.28984
1.20247
1.10031
0.924323
0.738138
0.652645
0.623925
0.621831
0.639604
0.643205
0.633128
0.589972
0.559809
0.541074
0.533718
0.532285
0.527378
0.514896
0.500303
0.356496
0.426474
0.551871
0.717891
0.827898
0.860346
0.873418
0.895738
0.949785
1.02864
1.10335
1.14136
1.16351
1.20557
1.27492
1.23108
1.15394
1.02543
0.831663
0.736135
0.701611
0.700396
0.75215
0.782764
0.778539
0.701876
0.62194
0.557376
0.527073
0.512656
0.505737
0.493815
0.479544
0.371602
0.448963
0.585547
0.766828
0.870874
0.893141
0.898612
0.913329
0.959612
1.02885
1.09814
1.13657
1.15866
1.19159
1.24652
1.25326
1.17866
1.10673
0.889453
0.766026
0.721867
0.722232
0.786008
0.848751
0.879852
0.838679
0.718383
0.596228
0.531556
0.499763
0.485837
0.474695
0.461042
0.382781
0.466112
0.615519
0.811485
0.909752
0.922634
0.921563
0.92828
0.967472
1.02602
1.08716
1.1253
1.14615
1.16211
1.20556
1.2465
1.1808
1.14385
0.916845
0.770781
0.72019
0.726673
0.794983
0.863694
0.903832
0.91709
0.819605
0.661461
0.546405
0.492867
0.468125
0.45628
0.443908
0.389685
0.479192
0.638995
0.847869
0.941594
0.949281
0.941866
0.938458
0.973255
1.0229
1.07462
1.1133
1.13144
1.15129
1.18176
1.23395
1.19394
1.11792
0.90976
0.742624
0.679692
0.683782
0.758173
0.854643
0.903806
0.93071
0.884755
0.72747
0.574568
0.492672
0.455482
0.439752
0.428232
0.394888
0.487192
0.656598
0.876558
0.966657
0.970162
0.955981
0.946829
0.978864
1.02197
1.06619
1.10423
1.12081
1.1398
1.16409
1.21061
1.19976
1.07908
0.880471
0.703716
0.636238
0.646702
0.713802
0.789504
0.881224
0.911179
0.896215
0.776089
0.60672
0.496625
0.446818
0.425543
0.414603
0.399916
0.492773
0.668216
0.898858
0.984871
0.983078
0.964404
0.953817
0.983635
1.02274
1.06238
1.10012
1.11678
1.13291
1.15032
1.18701
1.18987
1.04879
0.841933
0.678796
0.610416
0.627892
0.68795
0.755278
0.825898
0.879025
0.881919
0.792897
0.630959
0.502202
0.441098
0.414889
0.403089
0.405738
0.497776
0.675772
0.915559
0.998118
0.991134
0.970079
0.960079
0.986806
1.02605
1.06387
1.10317
1.12028
1.13608
1.15229
1.17584
1.16608
1.03965
0.825263
0.667269
0.605735
0.627734
0.679405
0.741919
0.798005
0.823529
0.838338
0.779676
0.64221
0.504052
0.436011
0.406667
0.394477
0.412824
0.501911
0.680435
0.926352
1.00458
0.994688
0.973474
0.965583
0.989446
1.03098
1.06995
1.11296
1.13108
1.14367
1.1601
1.17533
1.15371
1.044
0.834012
0.683253
0.637939
0.658592
0.686797
0.738799
0.781707
0.795508
0.795322
0.749114
0.63151
0.500781
0.42944
0.399395
0.38722
0.422261
0.506236
0.683456
0.931702
1.00682
0.994239
0.975182
0.971031
0.993194
1.04136
1.08694
1.12777
1.14931
1.15885
1.17602
1.17733
1.1509
1.05257
0.865015
0.731498
0.708895
0.718006
0.719516
0.749471
0.77692
0.780747
0.7709
0.722013
0.611481
0.490872
0.42076
0.392193
0.38155
0.43119
0.509103
0.680751
0.923479
0.996074
0.986085
0.975802
0.977704
1.00388
1.05418
1.10179
1.14104
1.16865
1.18041
1.18727
1.18105
1.14708
1.06107
0.916087
0.811569
0.789224
0.782665
0.756579
0.767894
0.777725
0.777043
0.762778
0.711406
0.602087
0.487613
0.416343
0.388308
0.378763
0.438075
0.51062
0.669317
0.894049
0.973659
0.975147
0.975621
0.988788
1.02115
1.07109
1.11588
1.14952
1.18021
1.18862
1.1857
1.1701
1.12972
1.05889
0.956963
0.883391
0.856141
0.834279
0.786731
0.788058
0.791167
0.788395
0.769634
0.721272
0.617079
0.49492
0.420645
0.39153
0.381246
0.442494
0.508875
0.644371
0.842505
0.943076
0.966767
0.982196
1.00597
1.0429
1.09066
1.12897
1.15763
1.18218
1.18437
1.17678
1.15262
1.11558
1.0519
0.983015
0.934723
0.908818
0.868549
0.80745
0.798954
0.801662
0.802937
0.783568
0.753047
0.669835
0.524857
0.436459
0.401512
0.388863
0.444793
0.501269
0.611576
0.783447
0.910076
0.961267
0.994632
1.0278
1.0671
1.10874
1.14091
1.16376
1.17527
1.17392
1.15826
1.1298
1.09246
1.05769
1.01335
0.973533
0.946459
0.889274
0.821236
0.810325
0.805595
0.820166
0.819875
0.792022
0.754199
0.598078
0.477854
0.426108
0.407021
0.443202
0.488108
0.584903
0.735655
0.872569
0.953507
1.00605
1.05214
1.09276
1.12772
1.14924
1.16313
1.16338
1.15884
1.13852
1.11092
1.07996
1.06579
1.03986
1.00623
0.974341
0.906417
0.835348
0.818255
0.81301
0.834002
0.837303
0.82015
0.813698
0.71816
0.564987
0.481009
0.440308
0.439241
0.479545
0.566446
0.697372
0.832748
0.936212
1.01163
1.07579
1.1187
1.14593
1.15886
1.1607
1.15194
1.14453
1.12564
1.10397
1.0852
1.08128
1.07478
1.05038
1.00843
0.932387
0.858637
0.83534
0.823914
0.843181
0.840754
0.831453
0.816928
0.779989
0.670727
0.567663
0.499841
0.438111
0.476342
0.552631
0.663746
0.788899
0.907655
1.01081
1.09376
1.14347
1.16544
1.16854
1.16451
1.14898
1.14017
1.12412
1.10979
1.10513
1.11185
1.13511
1.11771
1.06248
0.977006
0.893466
0.861838
0.837026
0.847268
0.84113
0.837621
0.823292
0.795904
0.7262
0.637938
0.557897
0.440657
0.475387
0.541645
0.631343
0.740578
0.865143
0.995367
1.10507
1.16739
1.18538
1.18001
1.1712
1.15218
1.1448
1.13324
1.13005
1.14425
1.16833
1.21266
1.18929
1.12081
1.0251
0.947625
0.898054
0.857121
0.85219
0.839225
0.840511
0.821601
0.802515
0.752368
0.678374
0.604065
0.44653
0.479745
0.534484
0.603451
0.690714
0.810896
0.962443
1.10849
1.18882
1.20861
1.19546
1.18292
1.17146
1.1578
1.15516
1.16767
1.19524
1.23151
1.2527
1.22194
1.15445
1.0603
1.00017
0.931457
0.877635
0.852406
0.830753
0.835308
0.820482
0.809206
0.771445
0.70787
0.641915
0.452504
0.484601
0.529939
0.580122
0.644708
0.750441
0.910506
1.09375
1.20402
1.23142
1.21284
1.19451
1.18101
1.17275
1.18606
1.20833
1.24167
1.2642
1.25302
1.21415
1.15665
1.08954
1.0256
0.949736
0.885279
0.842793
0.82299
0.830642
0.822554
0.818309
0.791674
0.738773
0.678979
0.459748
0.489845
0.52681
0.56093
0.606521
0.692615
0.845744
1.05726
1.21189
1.24909
1.22952
1.20701
1.19155
1.19312
1.21376
1.24113
1.26802
1.2672
1.2413
1.19707
1.14997
1.10163
1.03603
0.954384
0.883586
0.83715
0.82043
0.830672
0.828718
0.829595
0.812229
0.771678
0.718412
0.466301
0.496171
0.52438
0.545879
0.577759
0.645591
0.780031
0.997884
1.19778
1.25745
1.23869
1.21388
1.19777
1.20685
1.23042
1.25601
1.26722
1.25357
1.21922
1.17912
1.14033
1.10188
1.02996
0.947772
0.879044
0.835057
0.82248
0.833304
0.835679
0.838709
0.828605
0.801154
0.757871
0.475195
0.503265
0.521827
0.534325
0.557063
0.61149
0.723621
0.928268
1.15759
1.25306
1.24119
1.21559
1.19874
1.21175
1.23321
1.25166
1.25235
1.22958
1.19162
1.15851
1.12014
1.078
1.01213
0.93771
0.877406
0.84094
0.830557
0.834317
0.839396
0.841513
0.83747
0.823155
0.793471
0.487475
0.509268
0.51997
0.526606
0.543205
0.587558
0.681995
0.865166
1.0968
1.22513
1.23222
1.20876
1.19061
1.20594
1.22422
1.2355
1.2252
1.19381
1.15966
1.12934
1.09611
1.04915
0.993099
0.929278
0.881646
0.855751
0.838414
0.832603
0.831854
0.834186
0.835929
0.832485
0.818327
0.501143
0.513634
0.519611
0.522179
0.533902
0.571198
0.653539
0.814803
1.02977
1.17666
1.20389
1.18977
1.1759
1.19209
1.20356
1.20431
1.18414
1.15283
1.12124
1.09519
1.06949
1.02235
0.972221
0.926818
0.894548
0.870904
0.837742
0.823014
0.815208
0.816525
0.823565
0.829709
0.832349
0.511323
0.518249
0.520369
0.52015
0.528584
0.561451
0.634456
0.777031
0.969765
1.1221
1.1644
1.163
1.1577
1.16597
1.17271
1.16335
1.13775
1.107
1.07995
1.05921
1.03388
0.995039
0.957363
0.929353
0.907279
0.879023
0.835032
0.806101
0.793922
0.790422
0.799606
0.815631
0.835066
0.51853
0.522495
0.522945
0.519576
0.526115
0.556403
0.622862
0.750365
0.925332
1.07331
1.1273
1.13904
1.14213
1.14684
1.14376
1.11956
1.09011
1.05981
1.03644
1.0182
0.994778
0.965838
0.942292
0.929278
0.911602
0.876495
0.827455
0.791452
0.772711
0.766047
0.769695
0.795858
0.823174
0.524856
0.527229
0.526422
0.520501
0.525245
0.553963
0.616028
0.732207
0.894586
1.03638
1.10003
1.12714
1.13508
1.13581
1.11349
1.07809
1.04397
1.01356
0.992735
0.972396
0.952401
0.933075
0.923086
0.919108
0.903104
0.86942
0.825207
0.789763
0.764234
0.75176
0.751898
0.776764
0.79967
0.53033
0.532012
0.530548
0.522513
0.525111
0.552994
0.611393
0.718419
0.87117
1.01054
1.0828
1.12363
1.13898
1.12592
1.08768
1.04243
1.00246
0.96945
0.947598
0.928166
0.910017
0.90005
0.898332
0.899272
0.885666
0.856799
0.829166
0.799473
0.768781
0.747623
0.740064
0.751884
0.757498
0.534111
0.534902
0.532918
0.524905
0.526969
0.553343
0.60825
0.706407
0.85105
0.989569
1.07058
1.12455
1.1536
1.12146
1.06931
1.0141
0.966749
0.929161
0.902753
0.886761
0.872581
0.868373
0.871205
0.874609
0.866805
0.848088
0.823829
0.800864
0.778733
0.748515
0.737429
0.732355
0.71821
0.535285
0.535965
0.533903
0.526868
0.529625
0.554812
0.606137
0.695999
0.830792
0.967286
1.05632
1.12058
1.16008
1.12168
1.05876
0.993546
0.938653
0.895531
0.863109
0.846156
0.834416
0.832248
0.841596
0.854292
0.858813
0.837645
0.81615
0.793829
0.768262
0.743496
0.729846
0.712062
0.683111
0.53542
0.536237
0.534071
0.527757
0.531466
0.55616
0.604616
0.685325
0.809161
0.940808
1.03608
1.10834
1.15448
1.12075
1.0542
0.981079
0.919159
0.87004
0.832266
0.810742
0.797882
0.795461
0.807064
0.822578
0.834648
0.831367
0.814182
0.775156
0.751904
0.730613
0.709226
0.68041
0.645999
0.535046
0.536021
0.533752
0.528004
0.532219
0.556667
0.602856
0.67873
0.790356
0.910044
1.00777
1.08671
1.13865
1.11499
1.04908
0.974834
0.908532
0.855222
0.812425
0.785705
0.770032
0.766844
0.780665
0.795662
0.809014
0.812519
0.797344
0.758176
0.727615
0.708341
0.687825
0.662658
0.627202
0.533564
0.534547
0.532276
0.527871
0.532391
0.556719
0.601288
0.674264
0.776795
0.881743
0.973055
1.0573
1.11003
1.09821
1.03618
0.968918
0.906687
0.855005
0.811844
0.783035
0.763902
0.756455
0.767931
0.784902
0.798511
0.803969
0.785687
0.738459
0.702157
0.683589
0.666684
0.646198
0.61674
0.531386
0.532479
0.530232
0.527022
0.532261
0.556306
0.600069
0.671417
0.770164
0.868333
0.95054
1.02474
1.08251
1.07549
1.02131
0.963058
0.908606
0.860967
0.822092
0.796122
0.777766
0.773019
0.779983
0.792684
0.80348
0.804668
0.783036
0.723941
0.681584
0.664157
0.650317
0.636417
0.618051
0.529129
0.530234
0.528012
0.525605
0.53118
0.554855
0.598155
0.66941
0.7671
0.86469
0.944517
0.998231
1.06601
1.05477
1.00352
0.958123
0.916077
0.880305
0.853144
0.836474
0.823265
0.81903
0.819996
0.828343
0.832613
0.828608
0.789835
0.717249
0.672368
0.65541
0.643996
0.635716
0.624991
0.526895
0.528025
0.525767
0.523733
0.5291
0.552077
0.594491
0.665776
0.765171
0.865525
0.953244
1.00739
1.05916
1.04232
0.993461
0.959135
0.933784
0.916748
0.90486
0.897249
0.888589
0.884636
0.87956
0.884407
0.883188
0.868653
0.801735
0.715659
0.670199
0.654026
0.646357
0.643944
0.63989
0.524644
0.525792
0.52349
0.521494
0.526115
0.547827
0.588259
0.658319
0.75979
0.866025
0.956378
1.02911
1.06641
1.03674
0.983245
0.959272
0.947394
0.94379
0.942782
0.948057
0.949156
0.948001
0.948589
0.949968
0.948041
0.917746
0.809107
0.714581
0.671372
0.658898
0.658851
0.663864
0.661608
0.5222
0.52329
0.521029
0.518849
0.52228
0.542102
0.579237
0.646378
0.748698
0.860808
0.955859
1.02767
1.06771
1.0377
0.98014
0.958134
0.949148
0.954146
0.96299
0.979438
0.998149
1.01022
1.02361
1.03416
1.03472
0.952859
0.804074
0.70943
0.672464
0.663289
0.66683
0.678299
0.679885
0.519184
0.520187
0.51818
0.515658
0.517561
0.534272
0.567531
0.629824
0.729918
0.846828
0.946865
1.01863
1.06133
1.03368
0.971647
0.949614
0.94263
0.960902
0.987935
1.00728
1.04393
1.08106
1.11411
1.13778
1.12146
0.959616
0.781884
0.700948
0.670402
0.663533
0.664618
0.663455
0.654941
0.515205
0.516125
0.514543
0.511785
0.512063
0.526175
0.555088
0.610067
0.703945
0.824484
0.929784
0.996901
1.03735
1.02099
0.957649
0.93511
0.929588
0.947432
0.983622
1.02478
1.082
1.15222
1.21245
1.25299
1.1779
0.925919
0.758042
0.691164
0.669274
0.660517
0.656111
0.646882
0.629215
0.510047
0.510823
0.50968
0.507036
0.506301
0.517782
0.541678
0.588194
0.671734
0.793159
0.902618
0.965314
0.994765
0.990109
0.943529
0.903479
0.890445
0.914557
0.968249
1.03135
1.11043
1.21514
1.30117
1.34497
1.1653
0.881855
0.74211
0.689749
0.670586
0.657809
0.646195
0.621598
0.580221
0.503882
0.504412
0.503692
0.501398
0.500049
0.50932
0.528866
0.566697
0.637617
0.753971
0.86968
0.933032
0.950343
0.945712
0.915919
0.873506
0.85646
0.879934
0.944093
1.03065
1.13478
1.25222
1.36247
1.39417
1.11081
0.8494
0.73545
0.692192
0.674561
0.660213
0.643203
0.610846
0.544285
0.496698
0.497058
0.496654
0.495184
0.494017
0.501468
0.517089
0.547149
0.606259
0.707007
0.826356
0.898411
0.912001
0.904088
0.879594
0.85298
0.825939
0.847966
0.917735
1.02304
1.15264
1.27968
1.40888
1.4175
1.06692
0.829797
0.731062
0.696148
0.68178
0.668861
0.652281
0.619968
0.536198
0.38572
0.467378
0.639607
0.801264
0.760982
0.754044
0.75963
0.757461
0.389795
0.484427
0.682436
0.817482
0.797732
0.794969
0.786544
0.777483
0.394383
0.492445
0.697357
0.829923
0.829072
0.833338
0.824157
0.797786
0.398766
0.492219
0.691763
0.849731
0.854751
0.861256
0.849769
0.805883
0.401991
0.484839
0.663315
0.850998
0.872416
0.866235
0.84224
0.793939
0.404774
0.475749
0.627637
0.821657
0.879673
0.855867
0.818236
0.754441
0.406516
0.466758
0.595341
0.781866
0.8656
0.841949
0.789394
0.711556
0.406999
0.456512
0.562352
0.730327
0.832224
0.822933
0.788644
0.728988
0.40701
0.446341
0.529641
0.673036
0.790733
0.813625
0.797765
0.763956
0.406958
0.437193
0.500109
0.61711
0.747124
0.807038
0.818868
0.831315
0.406407
0.43038
0.477244
0.567406
0.695844
0.789731
0.841284
0.879626
0.407135
0.425967
0.461611
0.531121
0.642477
0.760178
0.844968
0.912015
0.409563
0.425834
0.454306
0.510472
0.604089
0.723393
0.834888
0.918707
0.414043
0.42801
0.455487
0.505195
0.589006
0.699099
0.80682
0.907401
0.422303
0.434751
0.462192
0.510309
0.591401
0.696265
0.794135
0.881918
0.433445
0.44885
0.480408
0.530896
0.609553
0.706294
0.796899
0.871179
0.448552
0.473364
0.513872
0.579886
0.658426
0.741039
0.816108
0.877093
0.47213
0.512397
0.567629
0.646776
0.725671
0.798606
0.860227
0.899086
0.511077
0.569335
0.637723
0.716236
0.788007
0.850173
0.905822
0.925864
0.567359
0.636257
0.703821
0.773389
0.838404
0.895202
0.942884
0.953979
0.629088