/*--------------------------------*- C++ -*----------------------------------*\
  =========                 |
  \\      /  F ield         | OpenFOAM: The Open Source CFD Toolbox
   \\    /   O peration     | Website:  https://openfoam.org
    \\  /    A nd           | Version:  10
     \\/     M anipulation  |
\*---------------------------------------------------------------------------*/
FoamFile
{
    format      ascii;
    class       volScalarField;
    location    "0.099538";
    object      T;
}
// * * * * * * * * * * * * * * * * * * * * * * * * * * * * * * * * * * * * * //

dimensions      [0 0 0 1 0 0 0];

internalField   nonuniform List<scalar> 
16320
(
0.00344235
0.00339928
0.00337634
0.00336888
0.00337745
0.00338304
0.00339675
0.00342357
0.00347714
0.00354212
0.00354904
0.00354002
0.00351308
0.00345489
0.00328943
0.00300136
0.00280814
0.00267927
0.00267021
0.00276189
0.00303695
0.00334624
0.0035721
0.00392377
0.00406174
0.00406591
0.00396294
0.00355252
0.00290705
0.00275995
0.0030475
0.00337865
0.00345018
0.00350046
0.00346171
0.00343085
0.00342975
0.00343377
0.0034497
0.0034826
0.00351245
0.00356612
0.00357083
0.00355572
0.0035073
0.00337699
0.0031018
0.00281618
0.00261973
0.0025078
0.00251183
0.00254561
0.00268255
0.00300683
0.00338391
0.0037155
0.00400165
0.00409191
0.00407871
0.00391291
0.00335817
0.0027784
0.00273232
0.00320123
0.00358214
0.0035903
0.00351451
0.00353926
0.00352476
0.00352215
0.00353524
0.00355765
0.00359033
0.00359338
0.00358604
0.00354393
0.00343397
0.00322795
0.00299377
0.00278604
0.0026104
0.00249655
0.00244838
0.00246594
0.00253439
0.00270328
0.00304471
0.00346394
0.00384761
0.0041011
0.0041557
0.00409547
0.00381668
0.00314113
0.00266755
0.00272021
0.0033684
0.00371962
0.00369414
0.00329644
0.00356102
0.00362312
0.00364395
0.00363357
0.00365312
0.00367381
0.0036608
0.00359276
0.00343211
0.00322364
0.00303319
0.0028391
0.00268489
0.00256175
0.00248414
0.00247012
0.002501
0.00258673
0.00283831
0.00316722
0.00357639
0.00399715
0.00416918
0.00418514
0.00406178
0.00363599
0.00293715
0.00258499
0.00271783
0.00344324
0.00377086
0.00373431
0.00284501
0.0034786
0.00367484
0.00373361
0.00376869
0.00386134
0.00384216
0.0037308
0.00354257
0.0032772
0.00307463
0.00289937
0.00273988
0.00263146
0.00256414
0.0025259
0.00253492
0.00257216
0.00269429
0.00303575
0.00336767
0.00378541
0.00415452
0.00422184
0.00418873
0.00395654
0.00338711
0.00278533
0.00254257
0.00272962
0.00349259
0.00379938
0.00376577
0.00284649
0.00346962
0.00372717
0.00387135
0.00397839
0.00397842
0.00387949
0.00370085
0.00340122
0.00314444
0.0029807
0.00283408
0.00270821
0.00263105
0.00260646
0.00258379
0.00260844
0.0026653
0.00283157
0.00319107
0.00360851
0.00406397
0.00425338
0.00424901
0.00413139
0.00374701
0.00315994
0.00269507
0.00252716
0.00273088
0.00350394
0.00381767
0.00379103
0.00296156
0.00353142
0.00384833
0.00400602
0.00402266
0.00396283
0.00382264
0.00353315
0.00321558
0.00298286
0.00287912
0.00277093
0.0026781
0.00263415
0.00263028
0.00263605
0.00266797
0.00276468
0.00299332
0.00341925
0.0040173
0.00424008
0.00427529
0.00422465
0.00398609
0.00349671
0.00301242
0.00265763
0.00253207
0.00273127
0.00350228
0.00382508
0.00380051
0.00329768
0.00373798
0.00394129
0.00400466
0.00397361
0.00379811
0.00348582
0.00315621
0.00297729
0.0028344
0.00278571
0.00271036
0.00264571
0.00263071
0.00264128
0.00265154
0.00268896
0.00283635
0.0031507
0.00385173
0.00422789
0.00428476
0.00424307
0.00411961
0.0037451
0.00328868
0.00294782
0.00265046
0.00253163
0.00272721
0.00347954
0.00383004
0.00381196
0.00364691
0.00379768
0.00388053
0.00381459
0.00353191
0.00322417
0.00301894
0.00289897
0.00282174
0.00273786
0.00270519
0.00263689
0.00257176
0.00255945
0.00256769
0.00257682
0.00264058
0.00283749
0.00338628
0.00417719
0.00427063
0.00423214
0.00413973
0.00392155
0.00350826
0.00316764
0.00292909
0.00265478
0.00253971
0.00270957
0.0034194
0.00382356
0.00381655
0.00362347
0.00365279
0.00343678
0.00314426
0.00301059
0.00294742
0.002905
0.00284354
0.00276643
0.00267929
0.00260757
0.002527
0.0024369
0.00240568
0.0023937
0.0024149
0.00250672
0.00277824
0.00362314
0.00418707
0.00418654
0.00406898
0.0039507
0.00370375
0.0033493
0.00311584
0.0029366
0.00267579
0.00255163
0.00268073
0.00330839
0.00379443
0.0038112
0.00349051
0.00319516
0.00303774
0.00302672
0.00306226
0.00304883
0.00300201
0.00289437
0.00276908
0.00264677
0.00252373
0.00241845
0.00231051
0.00227678
0.00224617
0.00227143
0.00236257
0.002661
0.00362286
0.00404789
0.003986
0.00386857
0.00376657
0.00354791
0.00327513
0.00310161
0.00295832
0.00270237
0.00256203
0.0026684
0.00322531
0.00375098
0.00379531
0.00311188
0.00299733
0.00310991
0.00325483
0.00343601
0.00341568
0.00332437
0.00312456
0.0028913
0.00266604
0.00247489
0.0023373
0.00221923
0.00217858
0.0021372
0.00216013
0.00224219
0.00253781
0.00351746
0.00386071
0.00380622
0.00370656
0.00362248
0.00345772
0.00324566
0.00310173
0.00297953
0.00273694
0.00257557
0.00265189
0.00311749
0.00368439
0.0037677
0.00308695
0.00311344
0.00341333
0.00371572
0.00386791
0.00384942
0.0037577
0.00355627
0.00313039
0.00274261
0.00246905
0.00229119
0.00216049
0.00209433
0.00206234
0.00207832
0.00215105
0.00243617
0.0033602
0.00371012
0.00367283
0.00358079
0.00352587
0.00340821
0.00323197
0.00310609
0.00300345
0.00277487
0.00259282
0.00264605
0.00300351
0.00360177
0.00373578
0.00301276
0.00344924
0.00378758
0.00390913
0.00394406
0.00391586
0.0038417
0.00370414
0.00338276
0.00285084
0.00248757
0.00225753
0.0021043
0.00202327
0.00200359
0.0020056
0.00207387
0.00235821
0.00323612
0.00359179
0.00357706
0.00349615
0.00346426
0.00337695
0.00322357
0.00311402
0.00302584
0.00281581
0.00261484
0.00264851
0.00289217
0.0034914
0.00369838
0.00351097
0.00370938
0.00384577
0.0038662
0.00383657
0.00382065
0.0037891
0.00370292
0.0034552
0.00288692
0.00248578
0.00221213
0.00204091
0.0019622
0.00194577
0.00194781
0.00202503
0.00232841
0.00315792
0.00350691
0.00350873
0.00344012
0.00341695
0.00333634
0.00320916
0.00311529
0.00303929
0.00286117
0.00264363
0.00266148
0.00280642
0.00333057
0.00364656
0.00373965
0.00373904
0.00375836
0.00372329
0.00368443
0.00368373
0.00366831
0.0036006
0.00336252
0.00277536
0.00241533
0.00212397
0.00196495
0.00191288
0.0018897
0.00189117
0.00197833
0.00232903
0.00312143
0.00344973
0.00345684
0.00339437
0.00337184
0.00330134
0.0032004
0.00311383
0.00304562
0.00290241
0.00268651
0.00268751
0.00276347
0.00314454
0.00356828
0.00369641
0.00366887
0.00365736
0.00362459
0.00358934
0.00355812
0.0035052
0.00339737
0.00308746
0.00252159
0.0022621
0.00200004
0.00188469
0.00186336
0.00186299
0.00186617
0.00196484
0.00235348
0.00310783
0.00340889
0.00341482
0.00335539
0.00332523
0.00326229
0.00318124
0.00310313
0.00304361
0.00293997
0.00272944
0.00271979
0.00275793
0.00298692
0.00345899
0.00366795
0.00363926
0.00361683
0.0035837
0.00354382
0.00349263
0.00342702
0.0032755
0.00286982
0.0022781
0.002081
0.00188021
0.00182178
0.00182948
0.00184374
0.00186059
0.00197478
0.00241253
0.00312604
0.00337833
0.00337548
0.00332362
0.0032854
0.00323492
0.0031583
0.00308384
0.00303399
0.002965
0.00277721
0.0027538
0.00277813
0.00292189
0.00334421
0.00365957
0.00363188
0.00360776
0.00356804
0.00351804
0.00343786
0.00334295
0.00317513
0.00277771
0.00216733
0.00196945
0.00182064
0.00179137
0.00181131
0.00182941
0.00185761
0.00199424
0.00251298
0.00318266
0.00336268
0.0033504
0.00329758
0.00325397
0.00320343
0.00313271
0.00307037
0.00302735
0.002975
0.0028129
0.0027818
0.00280675
0.00291938
0.00329502
0.00365013
0.00363346
0.0036101
0.00355339
0.00347039
0.00337392
0.00327312
0.00311118
0.00275283
0.00213928
0.00193086
0.00180688
0.00178712
0.00179402
0.0017992
0.00184532
0.00203273
0.00266815
0.00324963
0.00335514
0.00332743
0.00327656
0.00321796
0.00317912
0.00312127
0.00305444
0.00300928
0.00296806
0.00281846
0.00279148
0.00282956
0.00296121
0.00336777
0.00365213
0.00364561
0.00360104
0.00353512
0.0034327
0.00332077
0.00322265
0.00307992
0.00279872
0.00219249
0.00193036
0.00182603
0.00178976
0.00173958
0.00175049
0.0018124
0.00209299
0.00286075
0.00328317
0.00334153
0.00329883
0.00325875
0.00318993
0.00315143
0.00309721
0.00302122
0.0029774
0.00293704
0.00279243
0.00278661
0.00285158
0.00304916
0.00354591
0.00365666
0.00365416
0.0035916
0.00350296
0.0033783
0.00327147
0.0031906
0.00307047
0.00281597
0.00222893
0.00193123
0.00182804
0.00174287
0.00166881
0.00168502
0.00178073
0.00219995
0.00301401
0.0032942
0.00332229
0.00327401
0.00324773
0.00316279
0.00311463
0.00304976
0.00296238
0.00291944
0.00287399
0.0027464
0.0027733
0.00290006
0.00324419
0.00377512
0.00367343
0.0036351
0.00354919
0.00344028
0.00332854
0.00323344
0.0031709
0.00306877
0.00283789
0.00224432
0.0019271
0.00177973
0.00163277
0.00158918
0.00161723
0.00180004
0.0023848
0.00311277
0.00329281
0.00330318
0.00325183
0.00323233
0.0031415
0.00306472
0.00298201
0.00292131
0.00287041
0.00282946
0.00274051
0.00279856
0.0029842
0.00342116
0.00396985
0.00365038
0.0035783
0.00347554
0.00337674
0.00328175
0.00320127
0.00314515
0.0030627
0.00287232
0.00227691
0.00191642
0.00171044
0.00155692
0.00153207
0.00157772
0.00184295
0.0025805
0.00316284
0.00328603
0.00328092
0.00323053
0.00321458
0.00311372
0.00301038
0.00292244
0.00288231
0.00284742
0.00282294
0.00277305
0.00287484
0.00309467
0.00348445
0.00405674
0.00357891
0.00348775
0.00339086
0.00331287
0.00324228
0.00316825
0.00309754
0.00302364
0.00288028
0.00233
0.00188542
0.00163592
0.00148107
0.00146733
0.00155301
0.00190106
0.00275085
0.00317514
0.00326106
0.0032506
0.00321317
0.00318951
0.00307422
0.00294269
0.00284472
0.00286233
0.00281689
0.00282719
0.00285606
0.00301936
0.00323822
0.00348825
0.00401265
0.00348325
0.00338511
0.00331411
0.00326803
0.00321597
0.00314957
0.00305143
0.00292643
0.0028339
0.00237864
0.00185479
0.00158464
0.00143569
0.00142672
0.00153227
0.00195922
0.00281966
0.0031609
0.00322615
0.00321151
0.00319391
0.0031662
0.00304762
0.00288891
0.00278218
0.00281534
0.00280496
0.00285811
0.00300341
0.00323609
0.00342042
0.00356489
0.00398361
0.00337633
0.0033028
0.00326038
0.00322923
0.00319186
0.00312494
0.00300065
0.00279401
0.0027536
0.00238224
0.00181427
0.00153124
0.00139246
0.00139323
0.00152276
0.00199693
0.00283591
0.0031321
0.00319378
0.00318578
0.0031747
0.00313052
0.00299208
0.00283021
0.00273188
0.00277752
0.00281025
0.00293401
0.00318409
0.00343642
0.00358512
0.00369638
0.00407599
0.00329976
0.00325259
0.00323286
0.00321356
0.003182
0.00311551
0.00297246
0.00268775
0.00264232
0.00234332
0.00177023
0.00149196
0.00136146
0.00136978
0.0015271
0.0020348
0.00286417
0.00311682
0.00316208
0.0031641
0.00314809
0.0030923
0.00291977
0.00274876
0.00267649
0.00274603
0.00282516
0.00305519
0.00337934
0.00361609
0.00382128
0.00407686
0.00448032
0.00325843
0.00323139
0.00322088
0.00320648
0.00317953
0.00311389
0.00295219
0.00264327
0.00251976
0.00223904
0.00171151
0.00145506
0.00134102
0.00136697
0.001548
0.00211922
0.00290486
0.00309585
0.00311861
0.00312512
0.00311853
0.00305439
0.00285752
0.00267966
0.00262905
0.00271914
0.0028973
0.00322446
0.00351903
0.00374177
0.00395982
0.00442573
0.00471035
0.00323974
0.00322407
0.0032193
0.00320585
0.00318531
0.00313694
0.00295063
0.00263005
0.00237664
0.00216835
0.00165538
0.00140576
0.00131799
0.00137524
0.00159725
0.00225209
0.00295455
0.00306585
0.00307521
0.00308802
0.00307925
0.00298731
0.00279107
0.00264077
0.00261582
0.00273348
0.00303748
0.00338409
0.00361373
0.00382127
0.00407854
0.00447217
0.00466628
0.00323414
0.0032236
0.00323284
0.00323451
0.00323118
0.00320133
0.00301189
0.00263857
0.00226642
0.00209502
0.00163753
0.00138403
0.00132111
0.00140248
0.00167199
0.00247343
0.00299497
0.00303974
0.00304227
0.00305268
0.00301669
0.0028886
0.00271771
0.0026275
0.00264177
0.00282797
0.00320803
0.00350995
0.00370252
0.0039373
0.00423459
0.00446173
0.00483995
0.00324163
0.00323967
0.00326664
0.00328487
0.00328828
0.00327303
0.00311568
0.00271637
0.00218297
0.00199029
0.0016387
0.00139417
0.00134144
0.00146012
0.00183907
0.00271371
0.00301048
0.00300299
0.00300384
0.00300748
0.00292887
0.00277362
0.00264555
0.00263142
0.00271243
0.00301515
0.00338799
0.00362059
0.00380976
0.0040577
0.0043282
0.00444388
0.00504411
0.0032664
0.00328475
0.00331593
0.00335218
0.00336981
0.00337086
0.00327037
0.002878
0.00213565
0.00188574
0.00165061
0.00142636
0.00138944
0.00156281
0.00212056
0.0028561
0.0030111
0.00295834
0.00297432
0.00294274
0.00281991
0.00266539
0.0025963
0.00267227
0.00285887
0.00322316
0.00352786
0.0037009
0.00387973
0.00410011
0.00434527
0.00445254
0.00515389
0.00330475
0.00332099
0.00337381
0.00341969
0.00347047
0.00349232
0.00345086
0.00309215
0.00213859
0.00181735
0.00165198
0.00148248
0.00146642
0.00173841
0.0024082
0.00293595
0.00300876
0.00293148
0.0029423
0.00285558
0.00270247
0.00259077
0.00260293
0.00276836
0.00305338
0.0033889
0.00360508
0.00374558
0.00387367
0.00402166
0.00426448
0.00438598
0.00517799
0.00334001
0.0033713
0.0034415
0.00348373
0.00356309
0.00362423
0.00363094
0.00339039
0.00219514
0.00180023
0.00165556
0.00155456
0.00155873
0.00193296
0.0026784
0.00297749
0.00301214
0.00290242
0.00289622
0.0027554
0.00261089
0.00258061
0.00266677
0.00293947
0.00323125
0.00347516
0.00362589
0.00373431
0.0038281
0.00395762
0.0041557
0.00438596
0.00535787
0.00334777
0.00339559
0.00348896
0.00355402
0.00364382
0.00374793
0.00377411
0.00368418
0.00236608
0.00180001
0.00166758
0.00161912
0.00166768
0.00216386
0.0028271
0.00300737
0.0030322
0.00287561
0.00284496
0.0026713
0.00261466
0.00263355
0.00283036
0.00313142
0.00332124
0.00346849
0.00359294
0.00371787
0.00383456
0.00399731
0.00417816
0.00462262
0.00621862
0.00333774
0.00339992
0.00350477
0.00358804
0.00369303
0.00383863
0.00390414
0.00387658
0.00278028
0.00182281
0.00169458
0.0016695
0.00177074
0.0023746
0.00293149
0.00304783
0.00306827
0.00286948
0.00279496
0.00268438
0.00266804
0.00278313
0.00303214
0.00320624
0.00329923
0.0034302
0.00360624
0.00380474
0.00402252
0.00430225
0.00453541
0.00538843
0.00816368
0.00324837
0.00337614
0.00350257
0.00359716
0.0037092
0.0038737
0.00402294
0.00405015
0.00347339
0.00187785
0.0017213
0.00170872
0.0018533
0.00252161
0.00302227
0.0031181
0.0030933
0.00289361
0.00280746
0.00274887
0.00279223
0.0029611
0.00310561
0.00320834
0.00333362
0.00358707
0.00393867
0.00425437
0.00437499
0.00480437
0.00529332
0.0067028
0.00935858
0.00305404
0.00322162
0.00342499
0.00358208
0.00370972
0.00387928
0.00407842
0.00418597
0.00407931
0.00204327
0.00174167
0.0017419
0.0019178
0.00258278
0.00308325
0.00320172
0.00312484
0.0029453
0.00287058
0.00284929
0.00293471
0.00304825
0.0032175
0.00341562
0.00366998
0.0039146
0.00424968
0.00461274
0.00477648
0.00495171
0.00590162
0.00782464
0.00900411
0.00276594
0.0029455
0.00318493
0.00344557
0.00364329
0.0038484
0.00409095
0.00430759
0.00436978
0.00228171
0.0017758
0.00176494
0.00195705
0.00258136
0.00312057
0.00328286
0.00319584
0.00303166
0.0029802
0.00297212
0.00304579
0.00322007
0.00345562
0.00367223
0.00384444
0.00400324
0.00436109
0.00468246
0.00482025
0.00500842
0.00665984
0.00820685
0.00774358
0.00251987
0.00264583
0.00286049
0.0031624
0.00347331
0.00373905
0.00404639
0.00433816
0.00444556
0.00252597
0.0017963
0.00178144
0.00196844
0.002573
0.00315291
0.00336295
0.00329602
0.00313671
0.00308668
0.00308071
0.00314991
0.00336454
0.00356784
0.00376787
0.00392566
0.00411856
0.00438092
0.00444962
0.00441678
0.004706
0.00690898
0.00777891
0.00571179
0.00242526
0.00251515
0.00263117
0.0028251
0.00316876
0.00355023
0.00392217
0.00433756
0.00448416
0.00287415
0.00184564
0.00179045
0.00196448
0.00254848
0.00320259
0.00347414
0.00339381
0.00323071
0.00317068
0.00315372
0.0032522
0.00344481
0.00369702
0.00395435
0.00406147
0.00408119
0.00393785
0.00368795
0.00368533
0.00459049
0.00672605
0.0069874
0.00408563
0.00240007
0.00247952
0.00256049
0.00266552
0.00286114
0.00323767
0.00371816
0.00425509
0.00452879
0.00328731
0.00195303
0.00180339
0.00195719
0.0025026
0.00328985
0.00358939
0.00347202
0.0032989
0.00323836
0.00322318
0.00338257
0.0036195
0.00394049
0.00404585
0.00398222
0.0036679
0.00328207
0.00319005
0.00349123
0.00472385
0.00599044
0.00566059
0.00323323
0.00235123
0.00246922
0.00254161
0.00261963
0.0027404
0.00296771
0.00345027
0.00409094
0.00455003
0.00383314
0.0020665
0.0018178
0.00194305
0.00242749
0.00338084
0.00365927
0.00353286
0.00336142
0.00332171
0.00332616
0.00359293
0.00388481
0.00403007
0.00395998
0.00353584
0.00307601
0.00294921
0.00305467
0.00361191
0.00466163
0.00502772
0.00437485
0.00276675
0.00231108
0.00243035
0.00253315
0.00260957
0.00270238
0.00285721
0.00318614
0.00388703
0.00458182
0.0045713
0.002277
0.00186169
0.00193912
0.00235414
0.00343873
0.00370872
0.00359009
0.00343176
0.003407
0.00348937
0.00385123
0.00399573
0.00397082
0.00355516
0.00300047
0.00280791
0.00280433
0.00302714
0.00373648
0.00424904
0.00432739
0.00348964
0.00255739
0.00227373
0.00238821
0.00252216
0.00260832
0.00269384
0.00281006
0.0030441
0.00352006
0.00463655
0.00547968
0.0025844
0.00194096
0.00194549
0.002286
0.00343945
0.00378443
0.00366093
0.00354403
0.00354376
0.00373159
0.0039794
0.00397746
0.00364224
0.00302855
0.00273839
0.00268721
0.002729
0.00291015
0.00336258
0.00358934
0.00362147
0.00291073
0.00244569
0.00225301
0.00235137
0.00250297
0.00262471
0.00269741
0.00279253
0.00296996
0.00329581
0.00418801
0.00568002
0.00295466
0.00202839
0.00195029
0.00221786
0.00337289
0.00385648
0.00372659
0.00362733
0.00366725
0.00389171
0.00397991
0.00373967
0.00312849
0.00272648
0.00262465
0.00263364
0.00269731
0.00279651
0.00303637
0.00315422
0.00315747
0.00264788
0.00244267
0.00224505
0.00233321
0.0024931
0.00263656
0.00272226
0.00278755
0.00293041
0.00310861
0.0037175
0.00530731
0.00393966
0.0022073
0.00196371
0.0021524
0.00320809
0.00391931
0.00384955
0.0037867
0.00387891
0.00395808
0.00382087
0.00322782
0.00270045
0.00254322
0.00254128
0.00262534
0.00268737
0.00271344
0.00276771
0.00282288
0.00281995
0.00253733
0.00245181
0.00227011
0.002332
0.00249325
0.00264887
0.00274439
0.00280504
0.00291582
0.00302441
0.00335464
0.00467559
0.00515769
0.00273293
0.00202758
0.00210666
0.00297901
0.00395761
0.00397482
0.00392604
0.00391747
0.00380615
0.00332792
0.00268388
0.00245162
0.00242441
0.00253049
0.00264814
0.00266965
0.00264981
0.00259482
0.0025947
0.00260126
0.00248764
0.0024603
0.00233297
0.00237621
0.00251407
0.00266906
0.00277594
0.00283102
0.0029131
0.00298651
0.00319996
0.00410984
0.00560899
0.00391072
0.00224083
0.00209555
0.00272301
0.00395652
0.0040951
0.00401413
0.00386202
0.00350839
0.00281779
0.00243059
0.00235357
0.00238276
0.00255695
0.00267591
0.00269136
0.00262888
0.00249977
0.00247756
0.00249246
0.00245924
0.00247528
0.00238295
0.00241823
0.00254499
0.00270333
0.00281023
0.00286358
0.00292481
0.0029753
0.00313027
0.00377747
0.00559545
0.00486077
0.00267523
0.00212232
0.00250539
0.00387824
0.00416243
0.00407515
0.00375365
0.00314322
0.00253242
0.00234546
0.00231895
0.00238638
0.00259914
0.00270644
0.00271736
0.0026433
0.00244541
0.00237579
0.00238043
0.00238366
0.00247144
0.00246049
0.00247866
0.00258457
0.00274079
0.00285457
0.0028985
0.00294083
0.00297993
0.00310001
0.00355623
0.00542588
0.00511295
0.00297448
0.00218288
0.00238602
0.00366622
0.00423166
0.00415888
0.00362184
0.00282846
0.00243933
0.00234883
0.00234216
0.00243389
0.00264263
0.00273499
0.00274754
0.00266974
0.00244235
0.00230804
0.00228769
0.0022875
0.00245248
0.00251635
0.00253729
0.00265903
0.00280776
0.00289781
0.00293232
0.002966
0.00301603
0.00309212
0.00340045
0.00520214
0.00512733
0.00305488
0.00220452
0.00231784
0.00334361
0.00426264
0.00423714
0.00349976
0.00274685
0.00248786
0.00243204
0.00243296
0.00252596
0.00270658
0.00277357
0.00278036
0.00269264
0.00246912
0.0022738
0.00221864
0.00220955
0.00240367
0.00257771
0.0025922
0.00270595
0.00285897
0.00294839
0.00297427
0.00299711
0.00304711
0.00309576
0.00333895
0.00487713
0.00517088
0.00315052
0.0022222
0.0022492
0.00297903
0.00423272
0.00434608
0.00358699
0.00285198
0.00261945
0.00256821
0.00257486
0.002653
0.00280806
0.00285342
0.00283748
0.00272894
0.00251724
0.00226966
0.00216722
0.00214184
0.00228482
0.00261316
0.00264245
0.00277007
0.00292616
0.00299437
0.00300637
0.00302497
0.00306524
0.00311186
0.00332812
0.00454002
0.00532048
0.00339478
0.00227788
0.00219823
0.00265172
0.00404953
0.00446111
0.00377799
0.0029694
0.00274454
0.002694
0.00272556
0.00278361
0.00290307
0.00298055
0.00294584
0.00277603
0.00256152
0.00228335
0.00213485
0.00208797
0.00215308
0.00264628
0.00268402
0.00281723
0.00297911
0.00303721
0.00304139
0.00305116
0.00307768
0.00313556
0.00334263
0.00433619
0.00548436
0.00408271
0.00246354
0.00220513
0.00242612
0.00363047
0.00444433
0.00384401
0.00300354
0.00283535
0.00284572
0.00287326
0.00285048
0.0028913
0.00304836
0.00307319
0.00285077
0.00260574
0.00232766
0.00212269
0.00205179
0.00206514
0.00267005
0.00271616
0.00286085
0.00302828
0.00307475
0.0030729
0.00308336
0.00309099
0.00315906
0.00338708
0.00426721
0.00559742
0.00493376
0.00295299
0.00226453
0.00230209
0.00306584
0.00427441
0.00373688
0.00305913
0.00302697
0.00327494
0.00332761
0.00313817
0.00285982
0.00302378
0.0031325
0.00295256
0.00264755
0.002366
0.00212663
0.00203313
0.0020225
0.0026861
0.00273841
0.00289254
0.00306803
0.00310836
0.00310018
0.00310213
0.00310095
0.00318465
0.00346107
0.00426061
0.00567305
0.00539178
0.0034666
0.00237407
0.00223652
0.00262764
0.00371139
0.00345581
0.00308272
0.00313739
0.0037244
0.00404063
0.00394421
0.00299343
0.00292409
0.00309828
0.00303763
0.00270397
0.00239293
0.00213972
0.00202902
0.00200947
0.00269401
0.00274673
0.00291008
0.00309603
0.00313199
0.00311821
0.00311555
0.00311465
0.00320866
0.00352143
0.0043082
0.00567413
0.00558087
0.00377445
0.00246309
0.00221341
0.00232728
0.0030921
0.0031214
0.00298957
0.00313569
0.00375635
0.00427181
0.004373
0.00354173
0.00290852
0.00297125
0.00305462
0.00276993
0.0024169
0.00214834
0.00203125
0.0020108
0.00269517
0.00274698
0.00291621
0.00311269
0.00314612
0.00312959
0.0031236
0.00312366
0.00321961
0.00353741
0.00456112
0.00572253
0.00568727
0.00399865
0.00255375
0.00222131
0.00217262
0.00256889
0.00277519
0.00279612
0.00292017
0.00330549
0.00420125
0.00440373
0.0040187
0.00310138
0.0029142
0.00300543
0.00282026
0.00245364
0.00215714
0.00203352
0.00201966
0.00267886
0.00273157
0.00290734
0.00311973
0.00315208
0.00313532
0.00312838
0.00313092
0.00322491
0.0035332
0.00460287
0.00582568
0.00581933
0.00439186
0.0027202
0.00225655
0.00210345
0.00221831
0.00242924
0.00248915
0.00255647
0.00274305
0.00388584
0.00434803
0.0040755
0.00335236
0.00291317
0.0029407
0.00285223
0.00248878
0.00216725
0.00203751
0.00203427
0.00263365
0.00269092
0.00288088
0.00311452
0.00315021
0.00313645
0.00312936
0.00313365
0.0032261
0.00352521
0.00435622
0.00585836
0.0059623
0.00516298
0.00307786
0.00235516
0.00210642
0.00207169
0.00213186
0.00222842
0.0023142
0.00252445
0.00371904
0.00435465
0.00390097
0.00338577
0.00300308
0.00292165
0.00285673
0.00252694
0.00218296
0.00204448
0.00204721
0.00258401
0.00265241
0.00285979
0.00310838
0.00314636
0.00313749
0.0031286
0.00313434
0.00322832
0.00355997
0.00405361
0.00566456
0.00606199
0.00571599
0.00391356
0.00261966
0.00216237
0.00205557
0.00200701
0.00204052
0.00213863
0.00240782
0.00367499
0.00443881
0.00383187
0.00327079
0.00316042
0.00295505
0.0028597
0.00254514
0.00220284
0.00205674
0.00207242
0.00256805
0.0026398
0.00284983
0.00309836
0.00313797
0.00313239
0.00312473
0.00313791
0.0032444
0.00363649
0.00399679
0.00536379
0.00609538
0.00603126
0.00523205
0.00331267
0.00239029
0.00209519
0.001984
0.00200055
0.002061
0.00235201
0.00376696
0.00457348
0.0038406
0.0032243
0.0032502
0.00308176
0.00289053
0.00257843
0.00224229
0.00208545
0.00212449
0.00257456
0.00264253
0.0028425
0.00307266
0.0031223
0.0031206
0.00312241
0.00314326
0.00326754
0.00369902
0.00397617
0.00505763
0.00604142
0.00616316
0.00587164
0.00483646
0.00302607
0.0022701
0.00201508
0.00201582
0.00205581
0.00235517
0.00391317
0.00473012
0.00391591
0.00321576
0.00343036
0.00327379
0.00296251
0.0026221
0.00232555
0.00215423
0.00218957
0.00258808
0.0026491
0.00281367
0.00301461
0.00309216
0.00310925
0.00312553
0.00315536
0.00330496
0.00374964
0.00395373
0.00480704
0.00593741
0.00619734
0.00610665
0.00563437
0.00411487
0.00275069
0.00215321
0.00207326
0.00209199
0.00242525
0.00403404
0.00483246
0.00416562
0.00324481
0.00359019
0.00360508
0.00310169
0.00271472
0.00241542
0.00224155
0.00228938
0.00259097
0.0026352
0.00276626
0.00294388
0.00306101
0.00310265
0.00313787
0.00317196
0.00335283
0.003796
0.00397228
0.00441636
0.00574371
0.00619121
0.00616413
0.00588849
0.00508805
0.00332866
0.00236943
0.0021437
0.00213638
0.00250494
0.00406973
0.00484751
0.00450291
0.00338123
0.00360922
0.00413947
0.00332746
0.00287976
0.00255923
0.00237959
0.00250782
0.00258735
0.00261842
0.00272675
0.00288221
0.00302347
0.00309122
0.00314896
0.0031878
0.00338919
0.00380707
0.00400809
0.00422485
0.00523744
0.00610306
0.00614542
0.00593827
0.00543423
0.00386153
0.00253238
0.00219028
0.00217076
0.00255306
0.0040093
0.00479652
0.00463539
0.00355266
0.00354237
0.00434646
0.0039696
0.00317062
0.00281042
0.00266623
0.00301908
0.00257905
0.00260791
0.00269607
0.0028366
0.00298562
0.00306958
0.00315414
0.00320021
0.00340702
0.0038002
0.00401457
0.00421985
0.00510068
0.00602918
0.00614884
0.00599499
0.00564431
0.004291
0.0026799
0.00224385
0.00221129
0.00256629
0.00383482
0.004715
0.004657
0.00381671
0.00339794
0.00411848
0.00468116
0.0038924
0.00335631
0.00333328
0.00367996
0.00257799
0.00260127
0.00267425
0.00279848
0.00293778
0.00304063
0.00315441
0.0032108
0.00342606
0.00378242
0.00401687
0.00411988
0.0050801
0.00601102
0.00618252
0.0061072
0.00587055
0.00510165
0.0030162
0.00235386
0.00228816
0.00258689
0.00378108
0.0046872
0.0046559
0.00396923
0.00333707
0.00375358
0.00478872
0.00459026
0.00411463
0.00406932
0.00416966
0.00258657
0.00259751
0.00265725
0.00276437
0.00288034
0.00300284
0.00313726
0.00322667
0.00345192
0.00377732
0.00401754
0.00408233
0.00509221
0.00600728
0.006211
0.00618161
0.00604134
0.0056247
0.00362544
0.00257536
0.00245924
0.00276646
0.0040347
0.00472624
0.0046562
0.00400419
0.00331477
0.00355625
0.00461922
0.00487743
0.00462792
0.0045131
0.00446618
0.00260025
0.00260401
0.00264955
0.00273237
0.00282064
0.00295851
0.00310306
0.00324866
0.0035084
0.00381077
0.00402533
0.00407672
0.00439777
0.00567731
0.00616891
0.00621063
0.00611677
0.00586304
0.00475264
0.0030259
0.00290635
0.00351256
0.00473804
0.00480065
0.00457367
0.00387417
0.00326873
0.00343496
0.00440844
0.00495761
0.00482881
0.00469692
0.0045849
0.00260927
0.00261573
0.00264646
0.00270511
0.00276522
0.00290331
0.00305432
0.00325769
0.00357019
0.003877
0.0040519
0.00409188
0.00420334
0.00502817
0.00591943
0.00616316
0.00611163
0.00594299
0.00541172
0.00397599
0.00397826
0.00481633
0.00494895
0.00472183
0.00412142
0.00350945
0.00317946
0.0033715
0.00432472
0.00498665
0.00493337
0.00477162
0.0046238
0.00262496
0.00262635
0.00264683
0.00268035
0.00272396
0.00284495
0.00300058
0.00324864
0.0036291
0.00394594
0.00408068
0.00411826
0.0041512
0.00471141
0.00561862
0.00600533
0.00602524
0.00590995
0.00564419
0.0048817
0.00491752
0.00523734
0.00485477
0.00419062
0.0036277
0.00320563
0.00311648
0.00335559
0.00434338
0.00500396
0.00499154
0.00482838
0.00465456
0.00264418
0.00263858
0.00264566
0.00265956
0.0026932
0.00278521
0.00294601
0.00322348
0.00366691
0.00399743
0.00411717
0.00417462
0.00415433
0.00438688
0.005298
0.00584719
0.00592406
0.00584416
0.00568391
0.00525427
0.00579563
0.00523241
0.00426083
0.00383959
0.00334826
0.00309996
0.00311994
0.00345512
0.00447549
0.00504082
0.00503958
0.00486898
0.00466369
0.00266165
0.00265085
0.0026416
0.00264147
0.00267033
0.00274089
0.00289035
0.00319372
0.00368559
0.00404598
0.00417632
0.00424195
0.00421899
0.00430051
0.00487984
0.00567783
0.00586413
0.00577871
0.00565597
0.00566687
0.00587235
0.00454983
0.00399357
0.00345939
0.00321966
0.00308503
0.00321122
0.00377366
0.00468441
0.00504102
0.00501999
0.00484016
0.00461945
0.00268236
0.00265737
0.00263616
0.00263023
0.00265431
0.00271165
0.00285667
0.00318067
0.00370368
0.00408023
0.00423675
0.00429659
0.00428049
0.00432345
0.00472245
0.00562238
0.00582444
0.00570984
0.0056973
0.00587541
0.00541762
0.00427825
0.00365983
0.00335051
0.00320535
0.00321628
0.00354163
0.00421118
0.00481494
0.00498641
0.00493406
0.00473748
0.00440519
0.00269969
0.0026602
0.00263456
0.00262592
0.00264264
0.00269807
0.00284395
0.00318371
0.00373363
0.00409377
0.00426813
0.00431179
0.00430484
0.00432535
0.00472436
0.00557563
0.00575507
0.00571663
0.00583415
0.00585764
0.00500813
0.00392982
0.00355776
0.00335422
0.00335203
0.00345436
0.00393017
0.00437826
0.00478049
0.00482768
0.00471854
0.00438133
0.00388884
0.00271051
0.00266472
0.00263614
0.00262576
0.00263933
0.00269352
0.00284182
0.00323067
0.00374583
0.00407797
0.00427752
0.00426732
0.00430398
0.00433633
0.00481219
0.00556904
0.00573019
0.00576669
0.0059344
0.00576109
0.00467809
0.00383333
0.00357138
0.00351376
0.0035833
0.00372351
0.00394642
0.0041338
0.00451303
0.00448278
0.00415668
0.00376214
0.00352644
0.0027163
0.00266925
0.002641
0.00262859
0.00263882
0.0027029
0.0028756
0.00328843
0.0037337
0.00402596
0.00424414
0.00414828
0.00424819
0.00438179
0.00499155
0.00557909
0.00573999
0.00587283
0.00593513
0.00553744
0.00429433
0.00385399
0.00379231
0.00385576
0.00393447
0.00392355
0.00374341
0.00360791
0.00375278
0.00374282
0.00353503
0.00340855
0.00333965
0.00272196
0.0026748
0.00264633
0.00263398
0.00264481
0.00271635
0.00291356
0.00333958
0.00372375
0.0039898
0.00421073
0.00408986
0.00419151
0.00446141
0.00509845
0.00561257
0.00577095
0.00590961
0.00589215
0.00511429
0.00421522
0.00412281
0.00430317
0.00454588
0.00465684
0.00443816
0.00384057
0.00339729
0.00323768
0.0032273
0.00321294
0.00319767
0.00322017
0.00272538
0.00268028
0.00265295
0.00264167
0.00265613
0.00273758
0.00296785
0.0033641
0.0037211
0.00397685
0.0041895
0.00406165
0.00414766
0.00460739
0.00515584
0.00564924
0.00579202
0.00590818
0.00577995
0.00478208
0.00432325
0.00437623