/*--------------------------------*- C++ -*----------------------------------*\
  =========                 |
  \\      /  F ield         | OpenFOAM: The Open Source CFD Toolbox
   \\    /   O peration     | Website:  https://openfoam.org
    \\  /    A nd           | Version:  10
     \\/     M anipulation  |
\*---------------------------------------------------------------------------*/
FoamFile
{
    format      ascii;
    class       volScalarField;
    location    "0.947026";
    object      p;
}
// * * * * * * * * * * * * * * * * * * * * * * * * * * * * * * * * * * * * * //

dimensions      [1 -1 -2 0 0 0 0];

internalField   nonuniform List<scalar> 
15984
(
2.34607
2.35331
2.36132
2.36975
2.3786
2.38769
2.397
2.40639
2.41582
2.42521
2.43451
2.44369
2.45269
2.4615
2.4701
2.47847
2.48662
2.49454
2.50225
2.50974
2.51703
2.52413
2.53104
2.53778
2.54434
2.55073
2.55696
2.56303
2.56894
2.57469
2.58028
2.58571
2.59097
2.59608
2.60102
2.6058
2.61043
2.61489
2.6192
2.62335
2.62736
2.63122
2.63494
2.63852
2.64196
2.64528
2.64846
2.65151
2.65442
2.65721
2.65986
2.66237
2.66472
2.66692
2.34856
2.35573
2.36356
2.37193
2.38069
2.38979
2.39911
2.40857
2.41809
2.42761
2.43707
2.4464
2.45558
2.46456
2.47333
2.48187
2.49018
2.49826
2.5061
2.51371
2.5211
2.52828
2.53524
2.542
2.54856
2.55493
2.5611
2.56708
2.57287
2.57847
2.58388
2.5891
2.59414
2.59898
2.60363
2.6081
2.61239
2.6165
2.62043
2.62419
2.62778
2.63121
2.63449
2.63763
2.64062
2.64347
2.64619
2.64878
2.65124
2.65358
2.65579
2.65788
2.65983
2.66165
2.35084
2.35777
2.36553
2.37377
2.38254
2.39164
2.40101
2.41055
2.42018
2.42984
2.43945
2.44895
2.45831
2.46748
2.47643
2.48516
2.49364
2.50188
2.50987
2.51761
2.52512
2.53238
2.53941
2.54621
2.55278
2.55913
2.56525
2.57116
2.57684
2.5823
2.58755
2.59257
2.59738
2.60197
2.60635
2.61051
2.61446
2.61821
2.62177
2.62513
2.62831
2.63131
2.63415
2.63682
2.63934
2.64172
2.64396
2.64607
2.64805
2.64992
2.65166
2.65329
2.65481
2.65621
2.35281
2.35959
2.36722
2.37537
2.38413
2.39321
2.40266
2.41229
2.42206
2.43186
2.44163
2.45131
2.46086
2.47022
2.47938
2.4883
2.49697
2.50538
2.51353
2.52142
2.52905
2.53641
2.54352
2.55037
2.55697
2.56331
2.5694
2.57525
2.58084
2.58618
2.59127
2.59611
2.6007
2.60505
2.60915
2.61302
2.61665
2.62005
2.62323
2.6262
2.62896
2.63153
2.63391
2.63612
2.63816
2.64005
2.64178
2.64339
2.64487
2.64623
2.64747
2.64862
2.64966
2.65061
2.35445
2.3611
2.36858
2.3767
2.38541
2.39455
2.40404
2.41378
2.42367
2.43363
2.44358
2.45346
2.46321
2.47278
2.48214
2.49127
2.50014
2.50874
2.51706
2.52511
2.53287
2.54035
2.54755
2.55447
2.56111
2.56746
2.57354
2.57933
2.58484
2.59008
2.59503
2.5997
2.60409
2.60821
2.61206
2.61564
2.61895
2.62202
2.62483
2.62741
2.62976
2.63189
2.63381
2.63554
2.63709
2.63846
2.63968
2.64076
2.6417
2.64252
2.64324
2.64386
2.64439
2.64484
2.35563
2.36221
2.3696
2.37772
2.38641
2.39559
2.40515
2.41499
2.42503
2.43516
2.4453
2.45538
2.46534
2.47513
2.48471
2.49405
2.50312
2.51192
2.52044
2.52865
2.53657
2.54418
2.55149
2.55849
2.56518
2.57156
2.57763
2.5834
2.58885
2.59399
2.59882
2.60334
2.60755
2.61145
2.61506
2.61836
2.62138
2.62411
2.62657
2.62876
2.6307
2.63239
2.63385
2.6351
2.63613
2.63698
2.63766
2.63818
2.63855
2.63881
2.63895
2.639
2.63898
2.63889
2.35652
2.36293
2.37029
2.37835
2.38706
2.39629
2.40595
2.41592
2.4261
2.43641
2.44675
2.45704
2.46722
2.47724
2.48705
2.49662
2.50591
2.51493
2.52364
2.53204
2.54012
2.54788
2.5553
2.5624
2.56916
2.57559
2.58168
2.58743
2.59284
2.59791
2.60263
2.60701
2.61106
2.61477
2.61814
2.62119
2.62392
2.62634
2.62845
2.63026
2.63179
2.63305
2.63404
2.63479
2.63531
2.63562
2.63573
2.63567
2.63544
2.63509
2.63462
2.63406
2.63343
2.63275
2.35685
2.36321
2.37054
2.37859
2.38734
2.39664
2.4064
2.4165
2.42685
2.43733
2.44787
2.45838
2.46879
2.47904
2.48909
2.4989
2.50844
2.51768
2.52661
2.53521
2.54348
2.5514
2.55897
2.56619
2.57304
2.57953
2.58565
2.59141
2.59679
2.60181
2.60645
2.61072
2.61462
2.61815
2.62132
2.62413
2.62658
2.6287
2.63047
2.63192
2.63305
2.63387
2.63439
2.63464
2.63463
2.63438
2.6339
2.63323
2.63237
2.63137
2.63024
2.62902
2.62773
2.6264
2.35682
2.36309
2.37034
2.3784
2.38718
2.39656
2.40645
2.41672
2.42726
2.43797
2.44874
2.4595
2.47016
2.48067
2.49096
2.50101
2.51078
2.52024
2.52938
2.53819
2.54664
2.55475
2.56248
2.56983
2.57679
2.58337
2.58954
2.59532
2.60071
2.60569
2.61026
2.61444
2.61821
2.62159
2.62457
2.62716
2.62936
2.63119
2.63264
2.63373
2.63446
2.63485
2.63491
2.63465
2.63409
2.63327
2.63217
2.63086
2.62932
2.62764
2.62579
2.62389
2.62188
2.61986
2.35617
2.36244
2.36962
2.37773
2.38659
2.39611
2.40618
2.41666
2.42742
2.43837
2.44939
2.4604
2.47132
2.48209
2.49264
2.50294
2.51295
2.52265
2.532
2.54101
2.54965
2.55791
2.5658
2.5733
2.5804
2.58708
2.59333
2.59916
2.60456
2.60953
2.61406
2.61816
2.62184
2.62508
2.62789
2.63028
2.63225
2.63381
2.63495
2.63569
2.63604
2.636
2.63559
2.63482
2.63371
2.63228
2.63055
2.62857
2.62633
2.62391
2.62131
2.61863
2.61589
2.61315
2.35496
2.36115
2.36838
2.37661
2.3856
2.39531
2.40556
2.41624
2.42722
2.43839
2.44965
2.46091
2.4721
2.48314
2.49396
2.50454
2.51482
2.52478
2.53438
2.54362
2.55247
2.56092
2.56897
2.57661
2.58384
2.59064
2.597
2.60289
2.60833
2.61331
2.61783
2.62188
2.62548
2.62861
2.63128
2.63349
2.63524
2.63655
2.6374
2.63781
2.63778
2.63732
2.63644
2.63516
2.63348
2.63145
2.62905
2.62636
2.62338
2.62017
2.61679
2.61329
2.60978
2.60634
2.35308
2.3594
2.36664
2.37497
2.3841
2.39396
2.40443
2.41532
2.42654
2.43796
2.44949
2.46103
2.4725
2.48383
2.49495
2.50581
2.51638
2.52661
2.53648
2.54597
2.55506
2.56373
2.57197
2.57977
2.58713
2.59406
2.60052
2.60652
2.61202
2.61703
2.62155
2.62558
2.62912
2.63216
2.63471
2.63676
2.63833
2.6394
2.63998
2.64007
2.63968
2.63881
2.63745
2.63566
2.63341
2.63074
2.62767
2.62425
2.62048
2.61646
2.61223
2.60794
2.60368
2.59953
2.35059
2.35687
2.36431
2.37274
2.38203
2.39207
2.40273
2.41386
2.42534
2.43705
2.44887
2.46071
2.47248
2.48412
2.49554
2.50672
2.51758
2.52811
2.53827
2.54803
2.55738
2.56629
2.57475
2.58275
2.59027
2.59732
2.60391
2.61001
2.6156
2.62067
2.62522
2.62925
2.63275
2.63573
2.63818
2.6401
2.6415
2.64236
2.64268
2.64248
2.64174
2.64045
2.63864
2.63632
2.63351
2.63019
2.62644
2.62222
2.6177
2.61277
2.60768
2.6026
2.59772
2.5926
2.34726
2.35361
2.36119
2.36978
2.37928
2.38954
2.40044
2.41184
2.4236
2.43561
2.44775
2.45991
2.47201
2.48397
2.49572
2.50722
2.51841
2.52926
2.53972
2.54978
2.5594
2.56858
2.57728
2.5855
2.59322
2.60044
2.60714
2.61336
2.61905
2.62421
2.62881
2.63286
2.63635
2.63929
2.64167
2.64349
2.64473
2.64541
2.6455
2.64503
2.64394
2.64226
2.64
2.63716
2.63377
2.62981
2.62535
2.62035
2.61504
2.60919
2.60335
2.5975
2.59189
2.58496
2.34289
2.3495
2.35718
2.36604
2.37578
2.38633
2.39751
2.40919
2.42126
2.43359
2.44607
2.45858
2.47103
2.48334
2.49545
2.50729
2.51883
2.53001
2.54081
2.55118
2.56111
2.57057
2.57954
2.58801
2.59595
2.60336
2.61023
2.61656
2.62237
2.62763
2.6323
2.6364
2.63991
2.64284
2.64517
2.6469
2.64803
2.64854
2.64843
2.6477
2.64629
2.64423
2.64154
2.63819
2.63423
2.62961
2.62445
2.61868
2.61266
2.60587
2.5993
2.59281
2.5837
2.57646
2.33753
2.34435
2.35232
2.36142
2.37154
2.38239
2.39387
2.40587
2.41827
2.43096
2.44381
2.45669
2.46951
2.4822
2.49468
2.5069
2.51881
2.53035
2.54151
2.55222
2.56248
2.57225
2.58151
2.59024
2.59843
2.60606
2.61312
2.61961
2.62554
2.63091
2.63569
2.63985
2.6434
2.64634
2.64865
2.65034
2.65137
2.65175
2.65146
2.65049
2.64878
2.64637
2.64324
2.6394
2.63486
2.62961
2.62377
2.61722
2.61056
2.60316
2.59531
2.58628
2.57329
2.56387
2.33136
2.3385
2.3466
2.35606
2.36636
2.37758
2.38942
2.40176
2.41455
2.42763
2.44092
2.4542
2.46742
2.48051
2.49339
2.50601
2.51831
2.53025
2.54178
2.55287
2.56348
2.57359
2.58317
2.59219
2.60065
2.60852
2.6158
2.62248
2.62855
2.63404
2.63893
2.64319
2.64681
2.64979
2.65211
2.65377
2.65474
2.65502
2.65458
2.65339
2.65142
2.64866
2.64513
2.64079
2.63571
2.62982
2.62335
2.61606
2.6088
2.6002
2.58997
2.57899
2.57191
2.55696
2.32459
2.33158
2.33996
2.34957
2.36043
2.37205
2.38417
2.39695
2.41007
2.4236
2.43739
2.45108
2.46471
2.47824
2.49155
2.50458
2.5173
2.52966
2.5416
2.55309
2.56409
2.57456
2.58449
2.59383
2.60258
2.61072
2.61824
2.62512
2.63137
2.637
2.64202
2.6464
2.65011
2.65315
2.65551
2.65718
2.65813
2.65833
2.65777
2.6564
2.65417
2.6511
2.64718
2.64237
2.63674
2.63028
2.62316
2.61516
2.60628
2.59671
2.58709
2.57773
2.56308
2.54989
2.31649
2.3239
2.33213
2.34221
2.35366
2.36588
2.37854
2.3914
2.40491
2.41894
2.43304
2.44729
2.46134
2.47534
2.48909
2.50256
2.51574
2.52854
2.54094
2.55286
2.56427
2.57514
2.58544
2.59513
2.60421
2.61264
2.62042
2.62753
2.63398
2.63977
2.64493
2.64944
2.65327
2.6564
2.65883
2.66054
2.66149
2.66166
2.66101
2.65948
2.65704
2.65366
2.64936
2.64408
2.63796
2.63104
2.6228
2.61326
2.60252
2.59338
2.58235
2.56925
2.5559
2.54131
2.30685
2.31533
2.32352
2.33426
2.34654
2.3593
2.37206
2.38578
2.39948
2.41381
2.42832
2.44274
2.45731
2.47172
2.486
2.49994
2.5136
2.52687
2.53975
2.55214
2.56401
2.5753
2.586
2.59607
2.60549
2.61424
2.62231
2.62968
2.63635
2.64233
2.64764
2.6523
2.65627
2.65952
2.66205
2.66383
2.66482
2.66497
2.66427
2.6626
2.65995
2.65629
2.6516
2.64594
2.63937
2.63164
2.62165
2.61346
2.60198
2.58972
2.57634
2.56232
2.54767
2.5324
2.29718
2.30763
2.31112
2.32417
2.33802
2.3527
2.36533
2.37944
2.39396
2.40844
2.4229
2.4377
2.45262
2.4675
2.48221
2.4967
2.51086
2.52464
2.53801
2.55088
2.56323
2.57499
2.58613
2.59661
2.60641
2.61551
2.62389
2.63154
2.63845
2.64463
2.65012
2.65494
2.65906
2.66246
2.66511
2.667
2.66805
2.66823
2.66747
2.66568
2.66281
2.65885
2.65385
2.64786
2.6405
2.63092
2.62273
2.61154
2.599
2.58528
2.57102
2.55584
2.54019
2.52427
2.2883
2.29671
2.30441
2.31573
2.32836
2.34663
2.35467
2.3728
2.3881
2.40243
2.41737
2.43239
2.44745
2.46271
2.47797
2.49287
2.50752
2.52179
2.53568
2.54908
2.56194
2.57419
2.5858
2.59672
2.60694
2.61642
2.62514
2.63308
2.64026
2.64667
2.65233
2.6573
2.66159
2.66515
2.66796
2.66997
2.67112
2.67132
2.67053
2.6686
2.6655
2.66127
2.65602
2.64919
2.63973
2.63174
2.62126
2.60892
2.59531
2.58091
2.56581
2.54999
2.53359
2.51745
2.279
2.28635
2.29607
2.30762
2.3209
2.33398
2.34744
2.36645
2.38078
2.39624
2.41134
2.42662
2.44198
2.45749
2.47301
2.48842
2.50357
2.51836
2.53278
2.5467
2.56009
2.57286
2.58497
2.59637
2.60703
2.61691
2.626
2.63428
2.64173
2.64837
2.65421
2.65934
2.66379
2.66752
2.6705
2.67265
2.6739
2.67415
2.67328
2.67119
2.66785
2.66337
2.65734
2.64833
2.64064
2.6307
2.61894
2.60575
2.59161
2.57674
2.56126
2.54532
2.52894
2.51218
2.27396
2.28116
2.28882
2.29957
2.3124
2.32465
2.34039
2.36052
2.37187
2.38919
2.40522
2.4208
2.43633
2.45195
2.46775
2.48352
2.49911
2.51442
2.52931
2.54378
2.55767
2.57099
2.5836
2.5955
2.60664
2.61696
2.62645
2.63508
2.64283
2.6497
2.65572
2.66096
2.66554
2.66944
2.67259
2.6749
2.67626
2.67653
2.67559
2.67332
2.66969
2.664
2.65622
2.64909
2.63946
2.62829
2.61586
2.60226
2.58782
2.57286
2.55795
2.54345
2.52613
2.50786
2.26547
2.27326
2.28343
2.29284
2.30472
2.31819
2.33348
2.3519
2.36485
2.38133
2.39844
2.41427
2.43002
2.44599
2.46208
2.47817
2.49415
2.50991
2.52528
2.54025
2.55466
2.56849
2.58165
2.59406
2.60569
2.61648
2.62639
2.6354
2.64346
2.65057
2.65675
2.66207
2.66671
2.67075
2.67408
2.67656
2.67804
2.6783
2.67727
2.67479
2.67022
2.66356
2.65671
2.64778
2.63739
2.62571
2.61275
2.59848
2.58408
2.56972
2.55608
2.5394
2.52247
2.5049
2.26042
2.26775
2.27768
2.28697
2.29839
2.31164
2.32631
2.34401
2.35836
2.37306
2.39127
2.40761
2.42358
2.43981
2.45611
2.47247
2.48876
2.50487
2.5207
2.53612
2.55105
2.56538
2.57905
2.59197
2.6041
2.61537
2.62573
2.63513
2.64351
2.65085
2.65716
2.66256
2.66722
2.67132
2.67483
2.67746
2.679
2.67922
2.67796
2.67449
2.67159
2.66375
2.65526
2.64566
2.63474
2.62243
2.60903
2.595
2.58113
2.56739
2.55108
2.53613
2.52034
2.50272
2.25785
2.26468
2.27338
2.28249
2.29335
2.30588
2.32003
2.33552
2.35094
2.36655
2.38416
2.40074
2.41708
2.43339
2.44986
2.4664
2.48297
2.4994
2.5156
2.53143
2.5468
2.5616
2.57574
2.58915
2.60175
2.61349
2.62429
2.63408
2.64281
2.65036
2.65678
2.66227
2.66698
2.67112
2.67469
2.67741
2.67896
2.67902
2.6768
2.67579
2.66961
2.66169
2.65282
2.64272
2.6312
2.61852
2.6052
2.59206
2.57939
2.56428
2.55067
2.53512
2.51911
2.50142
2.25732
2.26337
2.27107
2.27948
2.28958
2.30115
2.31407
2.32865
2.34406
2.35954
2.37682
2.3935
2.41006
2.42666
2.44335
2.46014
2.47688
2.49354
2.51001
2.52616
2.5419
2.55711
2.57166
2.58551
2.59852
2.61067
2.62188
2.63205
2.6411
2.64895
2.65553
2.66112
2.66597
2.67015
2.67364
2.67631
2.67772
2.67687
2.67754
2.67293
2.66639
2.65857
2.64941
2.63878
2.62689
2.61419
2.60155
2.59041
2.57586
2.56326
2.55023
2.5343
2.51853
2.50142
2.26069
2.26564
2.27069
2.27772
2.28655
2.29705
2.30896
2.32272
2.33678
2.35287
2.36974
2.38645
2.40306
2.41977
2.4366
2.45351
2.47043
2.48729
2.50397
2.52036
2.53638
2.55191
2.56683
2.58097
2.59431
2.60676
2.61827
2.62886
2.63839
2.64677
2.65361
2.65927
2.66414
2.66839
2.67175
2.67398
2.67445
2.67669
2.67371
2.66876
2.66238
2.65447
2.64493
2.63396
2.62199
2.60967
2.59815
2.58595
2.57537
2.56276
2.54896
2.53375
2.51813
2.50238
2.26538
2.26793
2.27203
2.27805
2.28549
2.29468
2.30561
2.31737
2.33173
2.34728
2.36319
2.3796
2.39617
2.41287
2.42978
2.44677
2.46381
2.48078
2.49758
2.51409
2.53025
2.54597
2.56109
2.57544
2.58893
2.60169
2.61348
2.62498
2.63552
2.64473
2.65144
2.65669
2.66157
2.66584
2.66888
2.6696
2.67289
2.67171
2.66849
2.6638
2.65743
2.64928
2.63948
2.62845
2.61676
2.60538
2.59472
2.58489
2.57375
2.56033
2.54684
2.53283
2.51829
2.50336
2.27084
2.27174
2.2743
2.27832
2.28424
2.292
2.30134
2.31278
2.32569
2.34032
2.35588
2.37195
2.38871
2.40572
2.42287
2.44004
2.45714
2.47412
2.4909
2.50737
2.52352
2.53931
2.55495
2.5689
2.58209
2.59625
2.6093
2.621
2.63241
2.64246
2.64794
2.65324
2.65824
2.6623
2.66429
2.66494
2.66674
2.6655
2.66251
2.65783
2.65133
2.64303
2.63321
2.62243
2.6115
2.60152
2.59302
2.58203
2.56963
2.55774
2.54501
2.53186
2.5183
2.50414
2.27683
2.27618
2.27728
2.28021
2.28514
2.29197
2.30054
2.31092
2.32268
2.33604
2.35046
2.36564
2.38146
2.39824
2.41554
2.4331
2.45046
2.46747
2.48411
2.50037
2.51605
2.53114
2.54765
2.56303
2.57786
2.59065
2.60385
2.61678
2.62863
2.63852
2.64309
2.64883
2.65367
2.65695
2.65725
2.65976
2.65972
2.65833
2.6553
2.65058
2.64402
2.63579
2.62625
2.61603
2.60602
2.59782
2.58959
2.57442
2.56566
2.55406
2.54247
2.53048
2.51756
2.50466
2.28361
2.28157
2.28126
2.28265
2.28587
2.29098
2.29772
2.30646
2.31643
2.32834
2.34195
2.35703
2.37298
2.38948
2.40664
2.42427
2.44171
2.45926
2.47678
2.49411
2.51071
2.52725
2.54084
2.55561
2.57031
2.58421
2.59788
2.6113
2.62339
2.63226
2.63692
2.64286
2.64698
2.64785
2.6514
2.65206
2.65132
2.64962
2.64657
2.64184
2.63539
2.6274
2.61827
2.60864
2.59933
2.59189
2.57921
2.57157
2.56219
2.55095
2.54001
2.52842
2.51696
2.5049
2.29154
2.28639
2.28375
2.28317
2.28477
2.28839
2.29402
2.30158
2.31154
2.32315
2.33558
2.34966
2.36481
2.38071
2.39697
2.41362
2.43117
2.44896
2.46668
2.48429
2.50138
2.51777
2.53299
2.54797
2.56256
2.57653
2.59006
2.60392
2.61612
2.62165
2.62916
2.63464
2.63677
2.64162
2.64273
2.6424
2.64121
2.63917
2.63605
2.63142
2.62526
2.61776
2.60933
2.60051
2.59184
2.58399
2.57391
2.5672
2.55726
2.54726
2.53625
2.52621
2.51548
2.50456
2.29469
2.28908
2.28511
2.28313
2.28379
2.28616
2.29051
2.29679
2.30478
2.31349
2.32446
2.33769
2.35241
2.36812
2.38479
2.402
2.41973
2.43773
2.45571
2.47367
2.49129
2.50827
2.52425
2.53927
2.55339
2.56666
2.57894
2.59241
2.60543
2.61189
2.61896
2.62242
2.63078
2.63085
2.63129
2.63086
2.62931
2.62684
2.62356
2.61924
2.61361
2.60682
2.59926
2.5913
2.58324
2.57532
2.56867
2.56275
2.55042
2.54136
2.53349
2.52329
2.51339
2.50355
2.29664
2.2901
2.28536
2.28236
2.28056
2.28077
2.28318
2.28789
2.29484
2.30465
2.31619
2.33031
2.34455
2.35978
2.37538
2.39139
2.40896
2.42701
2.44533
2.46361
2.4818
2.49879
2.5145
2.52919
2.54167
2.55208
2.56276
2.58093
2.58705
2.60032
2.60492
2.61592
2.61678
2.61763
2.61778
2.61711
2.61549
2.61284
2.60932
2.60512
2.60006
2.59406
2.58742
2.58049
2.57356
2.56669
2.56013
2.5535
2.54656
2.53684
2.53074
2.51822
2.51142
2.50181
2.29962
2.29166
2.28589
2.28192
2.27973
2.27962
2.28158
2.28563
2.29175
2.29984
2.30939
2.31941
2.3321
2.34667
2.36382
2.38242
2.40083
2.41967
2.43814
2.45625
2.47322
2.48926
2.50453
2.51698
2.52565
2.53274
2.53967
2.55927
2.57771
2.58872
2.59249
2.6025
2.60221
2.60245
2.60262
2.60155
2.59979
2.59709
2.59343
2.58913
2.58436
2.57909
2.57332
2.56736
2.56139
2.55554
2.54974
2.54346
2.53663
2.53056
2.52808
2.51529
2.50891
2.49932
2.30413
2.29508
2.28786
2.28326
2.28067
2.27942
2.28031
2.28339
2.28839
2.29515
2.30444
2.31483
2.32705
2.34085
2.35526
2.37096
2.38818
2.40647
2.42504
2.44428
2.46233
2.47825
2.49225
2.50156
2.51224
2.52281
2.54202
2.5567
2.56705
2.57383
2.58511
2.58516
2.58767
2.58644
2.58583
2.58439
2.58237
2.57961
2.57603
2.57172
2.56696
2.56201
2.55691
2.55169
2.54664
2.54183
2.53728
2.53252
2.5274
2.52222
2.51699
2.50954
2.50323
2.49631
2.31054
2.30056
2.29202
2.28672
2.28279
2.28028
2.28029
2.2826
2.28708
2.29402
2.30197
2.31155
2.32349
2.33699
2.35162
2.36673
2.38316
2.40022
2.41535
2.43604
2.4513
2.46663
2.47811
2.4902
2.50375
2.51697
2.53189
2.54655
2.54754
2.57164
2.56583
2.57067
2.56929
2.56868
2.5675
2.56585
2.56361
2.56081
2.5573
2.55316
2.54852
2.54361
2.53876
2.5341
2.5296
2.52546
2.52165
2.51818
2.51499
2.51191
2.50839
2.50443
2.50011
2.49484
2.31896
2.30806
2.29954
2.29283
2.28787
2.28456
2.28362
2.28498
2.28861
2.29465
2.30294
2.31068
2.32291
2.33544
2.34937
2.36244
2.37631
2.38955
2.41003
2.42637
2.44368
2.45597
2.47008
2.48014
2.49287
2.5096
2.52205
2.52765
2.53358
2.54581
2.54579
2.55059
2.55024
2.54946
2.54825
2.54638
2.54404
2.54114
2.53764
2.53368
2.52925
2.52457
2.51987
2.51553
2.51169
2.50837
2.50547
2.50299
2.50095
2.49916
2.49736
2.49536
2.49291
2.48988
2.32895
2.3183
2.30804
2.30084
2.29703
2.29198
2.2901
2.2906
2.29336
2.2977
2.30565
2.31348
2.32362
2.33541
2.34927
2.36304
2.37897
2.39698
2.40473
2.42061
2.43702
2.45143
2.46174
2.47863
2.48854
2.50023
2.50604
2.51921
2.51414
2.52723
2.52804
2.53071
2.53073
2.53003
2.52863
2.52661
2.52408
2.52098
2.51746
2.51349
2.50922
2.50482
2.50048
2.49648
2.49311
2.49059
2.48883
2.48768
2.48716
2.48704
2.48711
2.48705
2.48644
2.48512
2.3402
2.32984
2.31935
2.3137
2.30611
2.3013
2.29908
2.29958
2.30185
2.30721
2.31304
2.3224
2.33121
2.3412
2.34738
2.36031
2.37652
2.38978
2.40193
2.42065
2.43053
2.43863
2.45499
2.46969
2.48253
2.4902
2.50054
2.50452
2.5013
2.5098
2.51065
2.512
2.51167
2.5107
2.50899
2.50671
2.50385
2.50055
2.49678
2.4927
2.48845
2.48421
2.48018
2.47659
2.4737
2.47182
2.47109
2.47122
2.47223
2.47396
2.47618
2.47841
2.47995
2.48046
2.35227
2.34272
2.33353
2.32586
2.31856
2.31331
2.31064
2.31115
2.3129
2.31579
2.32143
2.32739
2.33509
2.34269
2.35245
2.36375
2.38139
2.39283
2.39868
2.41273
2.42859
2.44479
2.45396
2.46307
2.47199
2.48113
2.49032
2.48825
2.48777
2.49179
2.49382
2.49403
2.49325
2.49173
2.48964
2.48692
2.48366
2.47993
2.47578
2.47146
2.46703
2.46276
2.45888
2.45561
2.45334
2.45225
2.45225
2.45366
2.4563
2.46002
2.4645
2.46913
2.4731
2.47539
2.36412
2.35539
2.34708
2.33924
2.33268
2.32651
2.32352
2.32519
2.32545
2.32905
2.33362
2.33877
2.34506
2.35144
2.36158
2.37054
2.37826
2.3898
2.40238
2.42136
2.43122
2.44061
2.4485
2.46676
2.46392
2.46801
2.47615
2.47449
2.47574
2.47796
2.4775
2.47708
2.47563
2.47356
2.47083
2.46752
2.46363
2.45931
2.45464
2.44983
2.44502
2.44049
2.43651
2.43346
2.43174
2.43126
2.43226
2.43492
2.43923
2.44516
2.4523
2.45981
2.46649
2.4707
2.37552
2.36731
2.35877
2.3526
2.34574
2.34104
2.33993
2.33697
2.33658
2.33861
2.34126
2.3452
2.34982
2.35771
2.36762
2.37827
2.38958
2.39935
2.40984
2.42007
2.42882
2.44777
2.44827
2.45097
2.45728
2.46026
2.46368
2.46322
2.46369
2.46396
2.46277
2.46138
2.45917
2.45631
2.45283
2.44866
2.44401
2.4389
2.43349
2.42796
2.42249
2.41744
2.41309
2.41007
2.40871
2.40863
2.41065
2.41464
2.42076
2.42934
2.4395
2.45061
2.46052
2.4667
2.3862
2.37829
2.37094
2.36543
2.35928
2.35555
2.35272
2.35138
2.35103
2.35346
2.35563
2.3605
2.36529
2.37149
2.37827
2.3865
2.39506
2.4033
2.41361
2.42975
2.43195
2.4363
2.44217
2.44342
2.45146
2.45202
2.45406
2.4531
2.4527
2.45151
2.44955
2.44714
2.44403
2.44025
2.43578
2.43066
2.425
2.41892
2.4125
2.40601
2.3996
2.39376
2.38877
2.38542
2.38406
2.38442
2.38731
2.39277
2.40134
2.41249
2.42652
2.44181
2.45606
2.4646
2.39575
2.38796
2.38125
2.37591
2.37096
2.36725
2.36462
2.36304
2.36319
2.36486
2.36727
2.37096
2.37523
2.38034
2.38629
2.39404
2.40549
2.41622
2.42093
2.42995
2.42887
2.43181
2.43995
2.44032
2.44562
2.44626
2.44569
2.44456
2.44293
2.44075
2.43795
2.43455
2.43036
2.42556
2.42002
2.41373
2.4069
2.39962
2.39195
2.38422
2.37661
2.36963
2.3636
2.35987
2.35838
2.35892
2.36252
2.37014
2.38092
2.39532
2.41354
2.43409
2.45407
2.46538
2.40607
2.39716
2.39076
2.38575
2.38133
2.37894
2.37659
2.37538
2.37644
2.3778
2.38041
2.38455
2.38948
2.39534
2.40169
2.40755
2.41153
2.41783
2.42365
2.42835
2.43195
2.43455
2.43833
2.43892
2.44061
2.44077
2.43926
2.43748
2.43495
2.4318
2.42807
2.42362
2.41841
2.41245
2.40569
2.39821
2.39001
2.38131
2.3722
2.363
2.35403
2.34577
2.33869
2.33364
2.33219
2.33289
2.3374
2.34656
2.36005
2.37856
2.40176
2.4285
2.45607
2.4717
2.41747
2.40975
2.40333
2.39751
2.39414
2.39009
2.38788
2.38672
2.38659
2.38775
2.39003
2.39337
2.39752
2.40266
2.40802
2.41334
2.41832
2.42198
2.42778
2.43045
2.43347
2.43589
2.4372
2.43811
2.4379
2.43689
2.43468
2.43207
2.42872
2.42473
2.42004
2.41457
2.4083
2.40119
2.3932
2.38436
2.37475
2.36442
2.35369
2.34295
2.33244
2.32296
2.3145
2.30924
2.307
2.30763
2.31352
2.32466
2.34253
2.36626
2.3941
2.42673
2.46256
2.48526
2.42829
2.42213
2.41685
2.41093
2.40683
2.40288
2.40039
2.39894
2.39867
2.39963
2.40153
2.40437
2.40755
2.4123
2.4154
2.41943
2.42403
2.42755
2.43122
2.43391
2.43566
2.43702
2.43738
2.43725
2.43618
2.43434
2.43162
2.42827
2.42423
2.41943
2.41386
2.40743
2.4001
2.39185
2.38261
2.3724
2.36137
2.34935
2.33729
2.32498
2.31349
2.30272
2.29244
2.28723
2.28492
2.28629
2.29402
2.30847
2.33
2.35668
2.38721
2.42154
2.45937
2.49272
2.44076
2.4343
2.42846
2.42299
2.41847
2.4146
2.41197
2.41039
2.40988
2.41045
2.41208
2.41432
2.41686
2.42001
2.42297
2.42616
2.42971
2.43239
2.4351
2.43688
2.43807
2.4385
2.43845
2.43744
2.43577
2.43329
2.43001
2.42605
2.4214
2.4159
2.40954
2.40224
2.39391
2.38456
2.37411
2.36262
2.35014
2.33691
2.32317
2.30979
2.29671
2.28463
2.27452
2.26836
2.26654
2.26933
2.27884
2.29528
2.31778
2.34494
2.37596
2.40926
2.442
2.47174
2.45215
2.44561
2.43951
2.43403
2.42928
2.42534
2.42217
2.4204
2.41987
2.41991
2.42111
2.42268
2.42482
2.42715
2.42972
2.43226
2.4348
2.43696
2.43882
2.44009
2.44059
2.4406
2.43993
2.43847
2.43632
2.43341
2.42978
2.42536
2.42016
2.41405
2.40703
2.39897
2.38978
2.37944
2.36792
2.35522
2.34145
2.32687
2.31208
2.29718
2.2831
2.26993
2.25914
2.25288
2.25096
2.25466
2.26457
2.28089
2.30258
2.32845
2.35733
2.38684
2.41245
2.43139
2.46266
2.45588
2.44954
2.44383
2.43888
2.43469
2.4315
2.42924
2.42836
2.42815
2.42873
2.42996
2.43155
2.43346
2.43546
2.43757
2.43947
2.44115
2.44246
2.4432
2.44337
2.443
2.44195
2.44021
2.43776
2.43457
2.43064
2.42594
2.42035
2.41381
2.40626
2.39755
2.38761
2.37642
2.36393
2.35021
2.33545
2.31968
2.30355
2.28758
2.27208
2.25834
2.24702
2.24003
2.23807
2.24104
2.25035
2.26545
2.28548
2.3093
2.33519
2.36075
2.38138
2.39514
2.47213
2.46518
2.45835
2.45261
2.44715
2.44288
2.43944
2.43693
2.43561
2.43508
2.43542
2.43612
2.43735
2.43884
2.44045
2.44212
2.44363
2.44493
2.44589
2.44631
2.44625
2.44563
2.4444
2.4425
2.43991
2.4366
2.43252
2.42759
2.42171
2.41487
2.40695
2.39779
2.3873
2.37542
2.36215
2.34756
2.33179
2.31505
2.29784
2.28074
2.26432
2.24977
2.23768
2.22979
2.22654
2.2283
2.23601
2.24935
2.26747
2.28889
2.31176
2.334
2.35259
2.36961
2.66896
2.67081
2.67244
2.67382
2.67492
2.67577
2.67634
2.67661
2.67658
2.67622
2.67546
2.67429
2.6727
2.67068
2.66822
2.66531
2.66197
2.65819
2.654
2.64941
2.66332
2.66484
2.66619
2.66734
2.66823
2.66887
2.66926
2.6694
2.66926
2.66883
2.66803
2.66686
2.66531
2.66335
2.66098
2.65819
2.65499
2.65138
2.6474
2.64305
2.65749
2.65864
2.65966
2.66053
2.66121
2.66165
2.66184
2.66182
2.66157
2.66103
2.66019
2.65901
2.65749
2.65558
2.6533
2.65063
2.64757
2.64415
2.64037
2.63628
2.65146
2.65221
2.65286
2.65339
2.6538
2.65403
2.65404
2.65384
2.65343
2.65278
2.65188
2.65069
2.64918
2.64734
2.64514
2.64258
2.63967
2.63643
2.63289
2.62907
2.64522
2.64552
2.64576
2.64591
2.64598
2.64594
2.64576
2.64538
2.6448
2.64403
2.64306
2.64184
2.64034
2.63854
2.63642
2.63398
2.63123
2.6282
2.62489
2.62136
2.63875
2.63856
2.63833
2.63806
2.63773
2.63736
2.63692
2.63636
2.63562
2.63472
2.63366
2.63239
2.6309
2.62914
2.6271
2.62478
2.6222
2.61938
2.61634
2.61312
2.63204
2.6313
2.63057
2.6298
2.62904
2.62827
2.62748
2.62668
2.62579
2.62476
2.6236
2.62229
2.62078
2.61905
2.61709
2.61489
2.6125
2.60992
2.60718
2.6043
2.62507
2.62373
2.62243
2.62112
2.61988
2.61864
2.61747
2.61632
2.61522
2.61407
2.61284
2.61146
2.60993
2.60822
2.60633
2.60425
2.60207
2.59976
2.59735
2.59481
2.61785
2.61586
2.61392
2.61205
2.61027
2.60851
2.60692
2.60538
2.60398
2.60266
2.60139
2.59992
2.59836
2.59667
2.59483
2.59285
2.59094
2.58895
2.58684
2.58451
2.61039
2.60776
2.60505
2.60272
2.60022
2.59796
2.59596
2.59389
2.59232
2.59065
2.58922
2.58776
2.58616
2.58442
2.5826
2.58061
2.5792
2.57739
2.576
2.57319
2.60284
2.59953
2.59591
2.59312
2.58986
2.58705
2.585
2.58188
2.5804
2.57848
2.57699
2.5755
2.57394
2.57192
2.56985
2.56736
2.56644
2.56464
2.56393
2.56133
2.59543
2.59141
2.58662
2.5832
2.57935
2.5756
2.57307
2.57032
2.56815
2.56611
2.56426
2.56266
2.56137
2.55928
2.55765
2.55514
2.5538
2.5521
2.55273
2.55043
2.58849
2.58274
2.57774
2.57262
2.56771
2.56346
2.55969
2.55611
2.55306
2.55018
2.54739
2.54451
2.54176
2.54021
2.53848
2.53807
2.53488
2.53834
2.53397
2.54159
2.58025
2.5738
2.56571
2.55935
2.55338
2.54918
2.54453
2.53923
2.53399
2.52927
2.52513
2.52155
2.51853
2.51652
2.51491
2.5136
2.51268
2.51351
2.51212
2.51294
2.56492
2.55841
2.55436
2.54727
2.53972
2.53232
2.52504
2.51814
2.51196
2.50669
2.50233
2.4988
2.49586
2.49377
2.49179
2.49081
2.49045
2.49085
2.48961
2.49084
2.55854
2.54772
2.54018
2.532
2.52254
2.51324
2.50467
2.49706
2.49035
2.48456
2.47975
2.47607
2.4731
2.47079
2.46884
2.46802
2.46783
2.46814
2.4687
2.47041
2.54466
2.53643
2.52624
2.51546
2.50464
2.4942
2.48469
2.47626
2.46871
2.46199
2.45669
2.45304
2.44978
2.44847
2.44553
2.44546
2.44571
2.44656
2.44803
2.44993
2.53769
2.52492
2.51234
2.49958
2.48716
2.47575
2.4648
2.45527
2.44722
2.43868
2.43349
2.42984
2.42705
2.4255
2.42455
2.42471
2.42554
2.42687
2.42914
2.43238
2.52726
2.51304
2.49865
2.48421
2.47062
2.45715
2.44615
2.43468
2.42517
2.41712
2.41137
2.40751
2.40511
2.4041
2.4045
2.40539
2.40703
2.40972
2.41234
2.41564
2.51713
2.50157
2.48618
2.47029
2.45588
2.44237
2.42906
2.41674
2.40638
2.39806
2.39192
2.38798
2.38569
2.38543
2.3864
2.38863
2.39056
2.39462
2.39762
2.4027
2.50831
2.49173
2.47686
2.45923
2.44131
2.42502
2.41125
2.3991
2.38869
2.38037
2.37433
2.37066
2.36914
2.36956
2.3713
2.37405
2.37717
2.38091
2.38475
2.38982
2.50259
2.48344
2.46358
2.44644
2.4297
2.41316
2.39822
2.3848
2.37331
2.36427
2.35794
2.35438
2.35339
2.35444
2.35679
2.36022
2.36389
2.36845
2.37276
2.37824
2.49259
2.47516
2.45663
2.43881
2.42073
2.40296
2.38626
2.37148
2.35894
2.34928
2.34278
2.33935
2.33872
2.3402
2.34315
2.3471
2.3516
2.35659
2.3618
2.36814
2.48904
2.47079
2.4511
2.43168
2.41252
2.39389
2.37612
2.36044
2.34737
2.33722
2.33057
2.32719
2.32677
2.32872
2.33186
2.33598
2.34061
2.34553
2.35175
2.35951
2.48618
2.46709
2.44763
2.42734
2.40706
2.38744
2.36937
2.3531
2.33952
2.32918
2.32218
2.31851
2.31745
2.31806
2.32133
2.3257
2.33088
2.33705
2.34474
2.35416
2.48444
2.46496
2.44527
2.4252
2.40501
2.38514
2.36654
2.34982
2.33587
2.32559
2.31843
2.3144
2.31295
2.31348
2.31591
2.32002
2.32588
2.33334
2.34242
2.35344
2.48339
2.46467
2.44549
2.42583
2.40585
2.3859
2.36739
2.35083
2.33775
2.32735
2.32002
2.31567
2.31393
2.31445
2.31715
2.3214
2.32747
2.33552
2.34565
2.35814
2.48393
2.46605
2.44767
2.4287
2.40942
2.39058
2.37243
2.35721
2.3436
2.33358
2.32654
2.32227
2.32062
2.32107
2.32353
2.328
2.33465
2.34353
2.35479
2.36773
2.48512
2.4685
2.45101
2.43303
2.41496
2.39714
2.38086
2.36512
2.35252
2.34355
2.33663
2.33279
2.33118
2.3315
2.33399
2.3388
2.34595
2.35556
2.36739
2.38188
2.48703
2.47143
2.45508
2.43838
2.42196
2.40595
2.39085
2.37684
2.36606
2.35535
2.34957
2.3468
2.34508
2.34551
2.34847
2.35396
2.36184
2.3722
2.38478
2.39974
2.48917
2.47392
2.45849
2.44357
2.42907
2.41546
2.40233
2.38855
2.38049
2.36979
2.36474
2.36356
2.36173
2.36282
2.36648
2.37222
2.38017
2.39028
2.40216
2.41623
2.49056
2.47679
2.46304
2.44938
2.4362
2.42361
2.41128
2.40161
2.39107
2.38482
2.37906
2.37768
2.37906
2.37982
2.38397
2.38949
2.39742
2.40762
2.41992
2.43379
2.49221
2.47962
2.46698
2.45459
2.44282
2.43162
2.42132
2.41122
2.40283
2.39806
2.39289
2.39338
2.39333
2.39542
2.39935
2.40549
2.41373
2.42417
2.4361
2.44974
2.49336
2.48183
2.47047
2.45938
2.44877
2.43872
2.42947
2.42152
2.41457
2.4101
2.40693
2.40642
2.40748
2.41044
2.41473
2.42131
2.42999
2.4403
2.45213
2.4654
2.49388
2.48366
2.47328
2.46338
2.45396
2.44528
2.43746
2.43066
2.42507
2.42117
2.41923
2.41916
2.42078
2.42427
2.42951
2.43662
2.44543
2.45578
2.4675
2.48024
2.49392
2.48466
2.47539
2.46659
2.45833
2.45106
2.44427
2.43866
2.43417
2.43109
2.4302
2.43067
2.43287
2.43701
2.4429
2.45054
2.45969
2.47013
2.48187
2.4943
2.49338
2.48499
2.47643
2.46902
2.46163
2.45604
2.44975
2.44524
2.44201
2.43967
2.43963
2.44108
2.44343
2.44857
2.45488
2.46305
2.47272
2.48337
2.49496
2.50702
2.48993
2.48241
2.47568
2.47048
2.46387
2.46054
2.45489
2.45089
2.44893
2.44699
2.44815
2.45067
2.45171
2.45867
2.46449
2.47351
2.48359
2.49434
2.50577
2.51769
2.4898
2.48223
2.47831
2.47229
2.46946
2.46317
2.45409
2.45331
2.45177
2.44814
2.45048
2.45415
2.45705
2.4642
2.47208
2.48153
2.49238
2.50394
2.51581
2.52771
2.48664
2.48275
2.4789
2.4751
2.47079
2.46579
2.46218
2.46062
2.45783
2.45866
2.45993
2.46418
2.46891
2.47706
2.48629
2.49631
2.50807
2.52047