/*--------------------------------*- C++ -*----------------------------------*\
  =========                 |
  \\      /  F ield         | OpenFOAM: The Open Source CFD Toolbox
   \\    /   O peration     | Website:  https://openfoam.org
    \\  /    A nd           | Version:  10
     \\/     M anipulation  |
\*---------------------------------------------------------------------------*/
FoamFile
{
    format      ascii;
    class       surfaceScalarField;
    location    "0.947026";
    object      phi;
}
// * * * * * * * * * * * * * * * * * * * * * * * * * * * * * * * * * * * * * //

dimensions      [1 0 -1 0 0 0 0];

internalField   nonuniform List<scalar> 
31672
(
0.000473529
-8.08202e-05
0.000464698
-7.98206e-05
0.000455893
-7.85679e-05
0.000446879
-7.73162e-05
0.000437471
-7.58109e-05
0.000427999
-7.43817e-05
0.00041838
-7.28725e-05
0.000408765
-7.14467e-05
0.000399155
-7.00621e-05
0.000389584
-6.87579e-05
0.000380082
-6.75533e-05
0.000370678
-6.64649e-05
0.000361406
-6.55063e-05
0.000352302
-6.4688e-05
0.000343395
-6.40158e-05
0.000334713
-6.34929e-05
0.000326275
-6.31185e-05
0.000318097
-6.289e-05
0.000310196
-6.28007e-05
0.000302584
-6.28445e-05
0.000295277
-6.30106e-05
0.000288291
-6.32904e-05
0.000281639
-6.36704e-05
0.000275338
-6.4139e-05
0.000269397
-6.46812e-05
0.00026383
-6.52805e-05
0.000258642
-6.59225e-05
0.000253843
-6.65854e-05
0.000249442
-6.72562e-05
0.000245445
-6.79099e-05
0.00024186
-6.85326e-05
0.00023869
-6.90997e-05
0.000235942
-6.9593e-05
0.000233621
-6.99898e-05
0.000231728
-7.02702e-05
0.000230266
-7.04084e-05
0.000229237
-7.03883e-05
0.000228637
-7.0179e-05
0.00022847
-6.97668e-05
0.000228725
-6.9123e-05
0.0002294
-6.82245e-05
0.000230492
-6.70523e-05
0.000231987
-6.55814e-05
0.000233879
-6.37882e-05
0.000236157
-6.16523e-05
0.000238805
-5.9153e-05
0.000241809
-5.62679e-05
0.000245151
-5.29796e-05
0.000248812
-4.92684e-05
0.000252773
-4.5121e-05
0.000257006
-4.05228e-05
0.000261493
-3.54643e-05
0.000266206
-2.99395e-05
-2.39452e-05
0.000271119
0.000475033
-7.29586e-05
0.000466488
-7.16183e-05
0.000457697
-7.02681e-05
0.000448539
-6.87097e-05
0.000439278
-6.72024e-05
0.000429801
-6.56103e-05
0.00042025
-6.40693e-05
0.000410611
-6.25794e-05
0.000400937
-6.11746e-05
0.000391265
-5.98779e-05
0.00038164
-5.87124e-05
0.000372106
-5.76939e-05
0.000362702
-5.68361e-05
0.000353459
-5.61474e-05
0.000344406
-5.56324e-05
0.000335572
-5.52935e-05
0.00032698
-5.51286e-05
0.000318649
-5.51339e-05
0.000310599
-5.53033e-05
0.00030285
-5.56287e-05
0.000295417
-5.60996e-05
0.000288319
-5.67051e-05
0.000281571
-5.74312e-05
0.000275187
-5.82636e-05
0.000269179
-5.91866e-05
0.000263559
-6.01824e-05
0.000258335
-6.12344e-05
0.000253518
-6.23214e-05
0.000249115
-6.34277e-05
0.000245135
-6.45288e-05
0.000241587
-6.56093e-05
0.000238474
-6.66438e-05
0.000235803
-6.76131e-05
0.000233578
-6.84942e-05
0.000231801
-6.92637e-05
0.000230478
-6.98995e-05
0.000229605
-7.03789e-05
0.000229183
-7.06742e-05
0.000229217
-7.07674e-05
0.000229695
-7.063e-05
0.000230614
-7.02376e-05
0.000231971
-6.95678e-05
0.000233758
-6.85925e-05
0.000235959
-6.72894e-05
0.000238568
-6.56335e-05
0.000241564
-6.35977e-05
0.000244936
-6.1161e-05
0.000248661
-5.82993e-05
0.00025272
-5.49927e-05
0.00025709
-5.12226e-05
0.000261743
-4.6973e-05
0.000266654
-4.22301e-05
0.000271792
-3.69858e-05
-3.12348e-05
0.00027713
0.000476712
-6.50739e-05
0.000468331
-6.36629e-05
0.00045958
-6.19225e-05
0.000450624
-6.02939e-05
0.000441293
-5.85473e-05
0.000431788
-5.68436e-05
0.00042217
-5.52212e-05
0.000412435
-5.36499e-05
0.000402642
-5.221e-05
0.000392842
-5.09087e-05
0.000383082
-4.97718e-05
0.0003734
-4.88148e-05
0.000363839
-4.80498e-05
0.000354431
-4.74843e-05
0.000345208
-4.71222e-05
0.000336197
-4.69643e-05
0.000327424
-4.70076e-05
0.000318917
-4.72479e-05
0.0003107
-4.76782e-05
0.000302795
-4.8289e-05
0.000295221
-4.90693e-05
0.000287997
-5.00054e-05
0.000281136
-5.10828e-05
0.000274654
-5.22848e-05
0.000268563
-5.35953e-05
0.000262876
-5.49946e-05
0.000257602
-5.64651e-05
0.000252753
-5.79856e-05
0.000248337
-5.95376e-05
0.000244366
-6.10981e-05
0.000240846
-6.26486e-05
0.000237781
-6.41639e-05
0.000235181
-6.56237e-05
0.000233046
-6.70045e-05
0.000231382
-6.82801e-05
0.000230192
-6.94322e-05
0.000229473
-7.04293e-05
0.000229231
-7.1252e-05
0.000229467
-7.18731e-05
0.000230168
-7.22672e-05
0.000231337
-7.24061e-05
0.000232967
-7.22652e-05
0.000235048
-7.18143e-05
0.000237573
-7.1029e-05
0.000240523
-6.98797e-05
0.000243886
-6.83376e-05
0.000247641
-6.63765e-05
0.00025177
-6.39691e-05
0.00025625
-6.10936e-05
0.000261056
-5.77244e-05
0.000266158
-5.38454e-05
0.000271522
-4.94365e-05
0.000277121
-4.44886e-05
-3.89918e-05
0.000282916
0.000478709
-5.7393e-05
0.000470348
-5.56546e-05
0.00046176
-5.36973e-05
0.000452684
-5.18593e-05
0.00044335
-4.98483e-05
0.000433856
-4.80722e-05
0.000424091
-4.62573e-05
0.000414226
-4.46281e-05
0.000404294
-4.3135e-05
0.000394342
-4.18216e-05
0.000384411
-4.07046e-05
0.000374547
-3.98004e-05
0.000364795
-3.91204e-05
0.000355193
-3.86724e-05
0.000345772
-3.84592e-05
0.000336561
-3.84805e-05
0.000327591
-3.87331e-05
0.000318894
-3.9211e-05
0.000310495
-3.99064e-05
0.00030242
-4.08074e-05
0.000294687
-4.19019e-05
0.000287315
-4.31742e-05
0.000280321
-4.46091e-05
0.000273721
-4.6188e-05
0.00026753
-4.78941e-05
0.00026176
-4.9706e-05
0.000256425
-5.16056e-05
0.000251534
-5.35701e-05
0.000247099
-5.55803e-05
0.000243128
-5.7612e-05
0.000239628
-5.96461e-05
0.000236606
-6.16561e-05
0.00023407
-6.3622e-05
0.000232018
-6.55182e-05
0.000230462
-6.73189e-05
0.0002294
-6.90051e-05
0.000228834
-7.05415e-05
0.000228773
-7.19128e-05
0.000229207
-7.30866e-05
0.000230137
-7.40364e-05
0.000231557
-7.4733e-05
0.000233464
-7.51483e-05
0.000235851
-7.52513e-05
0.000238703
-7.5012e-05
0.000242009
-7.44006e-05
0.00024575
-7.33809e-05
0.000249909
-7.19265e-05
0.000254464
-7.0004e-05
0.000259388
-6.7585e-05
0.000264652
-6.46436e-05
0.000270228
-6.11588e-05
0.00027608
-5.71055e-05
0.000282171
-5.24717e-05
-4.72417e-05
0.00028846
0.000480728
-4.97742e-05
0.000472529
-4.76897e-05
0.000463894
-4.5516e-05
0.000454847
-4.33632e-05
0.000445542
-4.11964e-05
0.000435902
-3.91746e-05
0.000426076
-3.72443e-05
0.000416079
-3.54991e-05
0.000405976
-3.39358e-05
0.000395824
-3.25884e-05
0.000385681
-3.14775e-05
0.000375599
-3.06169e-05
0.000365618
-3.00165e-05
0.00035578
-2.96821e-05
0.000346121
-2.96162e-05
0.000336682
-2.98173e-05
0.000327496
-3.02813e-05
0.000318591
-3.10008e-05
0.000309991
-3.19654e-05
0.000301722
-3.31625e-05
0.000293805
-3.45776e-05
0.000286263
-3.6194e-05
0.000279116
-3.79947e-05
0.000272383
-3.99602e-05
0.000266078
-4.20716e-05
0.000260215
-4.43072e-05
0.000254807
-4.66468e-05
0.000249864
-4.90674e-05
0.000245395
-5.15481e-05
0.000241414
-5.40642e-05
0.000237926
-5.65958e-05
0.000234937
-5.91156e-05
0.000232456
-6.16031e-05
0.000230482
-6.40317e-05
0.000229028
-6.63761e-05
0.000228089
-6.86148e-05
0.000227674
-7.07129e-05
0.000227787
-7.26548e-05
0.00022842
-7.44059e-05
0.000229574
-7.5936e-05
0.000231248
-7.72172e-05
0.000233437
-7.82178e-05
0.000236132
-7.89047e-05
0.000239321
-7.92435e-05
0.000242992
-7.91999e-05
0.000247128
-7.8737e-05
0.000251705
-7.78166e-05
0.000256704
-7.64114e-05
0.000262096
-7.44813e-05
0.000267853
-7.19981e-05
0.00027394
-6.89332e-05
0.000280307
-6.52577e-05
0.000286929
-6.09587e-05
-5.60101e-05
0.00029375
0.000483275
-4.23361e-05
0.000475077
-3.97625e-05
0.000466447
-3.73199e-05
0.000457271
-3.47746e-05
0.000447834
-3.2421e-05
0.000438071
-3.0166e-05
0.000428072
-2.80825e-05
0.000417886
-2.62067e-05
0.000407581
-2.45599e-05
0.000397214
-2.31695e-05
0.000386841
-2.20554e-05
0.00037651
-2.12307e-05
0.000366271
-2.07047e-05
0.000356171
-2.04819e-05
0.000346255
-2.05641e-05
0.000336561
-2.09478e-05
0.000327128
-2.16273e-05
0.000317984
-2.2593e-05
0.000309159
-2.38331e-05
0.000300676
-2.53332e-05
0.00029256
-2.70768e-05
0.000284834
-2.90464e-05
0.000277518
-3.12228e-05
0.000270633
-3.35859e-05
0.000264197
-3.61143e-05
0.000258224
-3.87861e-05
0.000252726
-4.15785e-05
0.000247718
-4.44686e-05
0.000243207
-4.74333e-05
0.000239205
-5.04489e-05
0.000235718
-5.34917e-05
0.000232753
-5.6538e-05
0.000230319
-5.95619e-05
0.000228416
-6.25415e-05
0.000227055
-6.54471e-05
0.000226234
-6.82582e-05
0.000225965
-7.09385e-05
0.000226248
-7.34758e-05
0.000227075
-7.58253e-05
0.000228452
-7.79624e-05
0.000230378
-7.98556e-05
0.000232847
-8.14702e-05
0.000235851
-8.27705e-05
0.000239389
-8.3723e-05
0.000243431
-8.42788e-05
0.000247967
-8.44019e-05
0.000252982
-8.40559e-05
0.000258453
-8.32044e-05
0.000264341
-8.17955e-05
0.000270612
-7.98036e-05
0.000277241
-7.71834e-05
0.00028416
-7.39126e-05
0.000291349
-6.99665e-05
-6.5311e-05
0.000298728
0.000485929
-3.4748e-05
0.000477763
-3.18641e-05
0.000468988
-2.89723e-05
0.000459849
-2.6152e-05
0.000450262
-2.35212e-05
0.00044034
-2.10189e-05
0.000430149
-1.87428e-05
0.00041975
-1.67166e-05
0.000409207
-1.49706e-05
0.000398584
-1.35276e-05
0.000387937
-1.24034e-05
0.000377322
-1.16093e-05
0.000366793
-1.1153e-05
0.000356402
-1.10395e-05
0.000346196
-1.12689e-05
0.000336217
-1.18377e-05
0.000326502
-1.27378e-05
0.000317085
-1.3958e-05
0.000307998
-1.54838e-05
0.000299268
-1.72986e-05
0.000290923
-1.93824e-05
0.000282988
-2.17164e-05
0.000275484
-2.42801e-05
0.000268434
-2.70527e-05
0.000261855
-3.00114e-05
0.000255762
-3.31331e-05
0.000250168
-3.63931e-05
0.000245084
-3.97674e-05
0.000240521
-4.3231e-05
0.000236488
-4.67606e-05
0.000232994
-5.033e-05
0.000230043
-5.39184e-05
0.000227646
-5.7495e-05
0.000225807
-6.10432e-05
0.00022453
-6.45284e-05
0.00022382
-6.79307e-05
0.000223686
-7.12159e-05
0.000224129
-7.43677e-05
0.000225141
-7.73394e-05
0.000226735
-8.011e-05
0.000228906
-8.26419e-05
0.000231655
-8.49005e-05
0.000234979
-8.68554e-05
0.000238857
-8.84442e-05
0.000243277
-8.96357e-05
0.000248236
-9.0391e-05
0.0002537
-9.06494e-05
0.000259662
-9.03894e-05
0.000266057
-8.9533e-05
0.000272887
-8.80699e-05
0.000280082
-8.59268e-05
0.000287581
-8.30808e-05
0.000295364
-7.95079e-05
-7.51569e-05
0.000303311
0.00048899
-2.7272e-05
0.000480716
-2.39249e-05
0.000471872
-2.05441e-05
0.000462602
-1.74259e-05
0.000452832
-1.4418e-05
0.000442715
-1.16782e-05
0.0004323
-9.18879e-06
0.000421647
-6.99533e-06
0.000410825
-5.12926e-06
0.0003999
-3.61415e-06
0.000388932
-2.46669e-06
0.000377985
-1.6978e-06
0.000367121
-1.31283e-06
0.0003564
-1.31412e-06
0.000345872
-1.69964e-06
0.00033558
-2.46074e-06
0.000325561
-3.58877e-06
0.000315845
-5.06921e-06
0.000306468
-6.88716e-06
0.000297462
-9.0271e-06
0.000288863
-1.14658e-05
0.000280702
-1.41839e-05
0.000273002
-1.71564e-05
0.000265781
-2.03569e-05
0.000259051
-2.37616e-05
0.000252829
-2.73465e-05
0.000247126
-3.10875e-05
0.000241955
-3.49592e-05
0.000237328
-3.89365e-05
0.000233251
-4.2994e-05
0.000229738
-4.71063e-05
0.000226792
-5.12511e-05
0.000224422
-5.53984e-05
0.000222637
-5.95307e-05
0.000221433
-6.36137e-05
0.000220825
-6.76247e-05
0.000220813
-7.15364e-05
0.000221402
-7.53214e-05
0.000222591
-7.8941e-05
0.000224392
-8.23696e-05
0.000226802
-8.55697e-05
0.000229832
-8.85108e-05
0.000233461
-9.11396e-05
0.000237686
-9.34103e-05
0.000242496
-9.5271e-05
0.000247881
-9.66938e-05
0.000253802
-9.76036e-05
0.000260279
-9.79789e-05
0.000267206
-9.77131e-05
0.000274614
-9.68122e-05
0.00028238
-9.51534e-05
0.00029048
-9.27706e-05
0.000298858
-8.95486e-05
-8.54878e-05
0.000307354
0.000492296
-1.96469e-05
0.000483983
-1.58688e-05
0.000475021
-1.19999e-05
0.000465536
-8.48606e-06
0.000455588
-5.13624e-06
0.000445222
-2.0917e-06
0.000434524
6.33713e-07
0.000423566
3.01053e-06
0.000412416
5.00912e-06
0.000401142
6.60829e-06
0.000389814
7.79001e-06
0.0003785
8.54125e-06
0.000367268
8.85685e-06
0.000356177
8.73814e-06
0.000345281
8.19134e-06
0.00033463
7.22695e-06
0.000324265
5.85711e-06
0.000314228
4.09754e-06
0.000304557
1.96631e-06
0.00029528
-5.13087e-07
0.000286426
-3.31825e-06
0.000278026
-6.43261e-06
0.000270103
-9.82721e-06
0.00026268
-1.34732e-05
0.000255775
-1.73438e-05
0.000249403
-2.14114e-05
0.000243576
-2.56514e-05
0.000238305
-3.00371e-05
0.000233601
-3.45441e-05
0.000229472
-3.91447e-05
0.000225931
-4.38161e-05
0.000222979
-4.85317e-05
0.000220627
-5.32669e-05
0.000218881
-5.79976e-05
0.000217739
-6.26955e-05
0.000217214
-6.7333e-05
0.000217312
-7.18884e-05
0.000218036
-7.63278e-05
0.000219391
-8.062e-05
0.000221388
-8.47314e-05
0.000224035
-8.86325e-05
0.000227331
-9.22866e-05
0.000231263
-9.56218e-05
0.00023583
-9.86016e-05
0.000241016
-0.000101186
0.000246845
-0.000103318
0.000253246
-0.000104922
0.000260258
-0.000105976
0.000267729
-0.000106344
0.000275739
-0.000106021
0.000284037
-0.000104864
0.00029275
-0.000102902
0.000301594
-9.99959e-05
-9.6196e-05
0.000310558
0.000496113
-1.20381e-05
0.000487581
-7.58316e-06
0.000478471
-3.29415e-06
0.000468803
6.6189e-07
0.000458577
4.40593e-06
0.000447903
7.79062e-06
0.000436859
1.07875e-05
0.000425517
1.33784e-05
0.000413967
1.552e-05
0.000402294
1.72014e-05
0.00039057
1.84097e-05
0.000378865
1.91359e-05
0.000367242
1.93775e-05
0.000355763
1.91369e-05
0.000344484
1.84229e-05
0.000333457
1.72466e-05
0.000322724
1.5624e-05
0.000312328
1.35732e-05
0.000302312
1.11166e-05
0.000292713
8.27789e-06
0.000283572
5.07737e-06
0.000274909
1.54646e-06
0.000266737
-2.27959e-06
0.00025909
-6.38543e-06
0.00025199
-1.07409e-05
0.000245456
-1.53145e-05
0.000239494
-2.0075e-05
0.000234114
-2.49945e-05
0.000229324
-3.00485e-05
0.000225135
-3.52094e-05
0.000221555
-4.04551e-05
0.00021859
-4.57579e-05
0.000216245
-5.10947e-05
0.000214524
-5.64386e-05
0.00021343
-6.17657e-05
0.000212973
-6.70459e-05
0.000213164
-7.22615e-05
0.000214008
-7.73764e-05
0.000215513
-8.23614e-05
0.000217691
-8.71828e-05
0.000220562
-9.18214e-05
0.000224105
-9.62048e-05
0.00022832
-0.000100278
0.000233234
-0.000104024
0.000238815
-0.000107366
0.000245082
-0.000110266
0.000251963
-0.000112608
0.00025951
-0.00011437
0.00026755
-0.000115404
0.000276108
-0.000115668
0.00028495
-0.000114979
0.000294085
-0.000113368
0.000303233
-0.000110679
-0.000106999
0.000312439
0.00050036
-4.26704e-06
0.000491778
7.58317e-07
0.000482389
5.63992e-06
0.000472298
1.01953e-05
0.000461751
1.42843e-05
0.000450667
1.80596e-05
0.000439247
2.1302e-05
0.000427519
2.41201e-05
0.000415562
2.64208e-05
0.000403455
2.82021e-05
0.00039128
2.94478e-05
0.000379114
3.0152e-05
0.000367028
3.03148e-05
0.000355093
2.99424e-05
0.000343369
2.90461e-05
0.000331909
2.76409e-05
0.000320766
2.57463e-05
0.000309989
2.3384e-05
0.000299619
2.05793e-05
0.00028969
1.73582e-05
0.000280231
1.37481e-05
0.000271274
9.78009e-06
0.00026286
5.48366e-06
0.000255007
8.90918e-07
0.000247719
-3.9605e-06
0.000241012
-9.05402e-06
0.000234896
-1.43516e-05
0.000229385
-1.98222e-05
0.000224494
-2.54409e-05
0.000220233
-3.11811e-05
0.000216607
-3.70169e-05
0.000213616
-4.29229e-05
0.000211261
-4.88733e-05
0.000209548
-5.48438e-05
0.000208484
-6.08125e-05
0.000208075
-6.675e-05
0.000208342
-7.26414e-05
0.000209286
-7.8451e-05
0.000210922
-8.41493e-05
0.000213269
-8.97116e-05
0.000216331
-9.5107e-05
0.000220102
-0.000100244
0.000224604
-0.000105111
0.000229842
-0.000109655
0.000235805
-0.000113807
0.000242508
-0.000117501
0.000249868
-0.000120636
0.000257931
-0.000123147
0.000266498
-0.00012484
0.000275531
-0.000125653
0.000284744
-0.000125325
0.000294044
-0.00012389
0.000303179
-0.000121267
-0.000117547
0.000312272
0.000504956
3.64646e-06
0.000495954
9.55195e-06
0.000486435
1.48217e-05
0.000476134
1.99454e-05
0.000465143
2.45581e-05
0.000453717
2.86698e-05
0.0004418
3.22936e-05
0.000429582
3.53281e-05
0.000417122
3.78001e-05
0.000404514
3.96801e-05
0.000391835
4.09595e-05
0.000379164
4.16364e-05
0.00036658
4.171e-05
0.000354155
4.11929e-05
0.000341951
4.00972e-05
0.000330032
3.8444e-05
0.000318452
3.62553e-05
0.00030726
3.35579e-05
0.000296499
3.038e-05
0.000286209
2.67518e-05
0.000276421
2.27053e-05
0.000267167
1.82739e-05
0.000258476
1.34911e-05
0.000250368
8.39108e-06
0.000242863
3.00417e-06
0.000235956
-2.62401e-06
0.000229677
-8.48223e-06
0.00022404
-1.45246e-05
0.000219056
-2.07268e-05
0.000214724
-2.70612e-05
0.000211046
-3.35009e-05
0.000208018
-4.00199e-05
0.000205639
-4.65956e-05
0.000203924
-5.32016e-05
0.000202871
-5.98248e-05
0.000202494
-6.64315e-05
0.000202817
-7.3013e-05
0.000203839
-7.95335e-05
0.000205584
-8.59654e-05
0.00020808
-9.23018e-05
0.000211297
-9.84533e-05
0.000215284
-0.000104397
0.00022004
-0.000110092
0.000225585
-0.000115465
0.000231919
-0.000120486
0.00023901
-0.000125
0.00024684
-0.000129004
0.000255341
-0.000132189
0.000264344
-0.000134575
0.000273654
-0.000135747
0.00028295
-0.00013562
0.000291999
-0.000134047
0.000300848
-0.000131426
-0.000127168
0.000309122
0.000509971
1.19125e-05
0.00050082
1.84549e-05
0.000490741
2.45179e-05
0.000480023
3.01403e-05
0.000468641
3.52711e-05
0.000456701
3.97996e-05
0.000444328
4.37426e-05
0.000431594
4.70407e-05
0.000418601
4.96946e-05
0.000405443
5.1682e-05
0.000392216
5.29948e-05
0.000379005
5.36347e-05
0.000365886
5.36104e-05
0.000352933
5.2931e-05
0.000340218
5.16164e-05
0.000327805
4.96922e-05
0.000315752
4.71837e-05
0.000304114
4.41236e-05
0.000292933
4.05444e-05
0.000282248
3.64803e-05
0.000272104
3.19672e-05
0.000262533
2.70429e-05
0.000253555
2.17442e-05
0.000245193
1.61076e-05
0.000237462
1.01693e-05
0.000230381
3.96612e-06
0.000223947
-2.46885e-06
0.000218174
-9.10104e-06
0.000213067
-1.58996e-05
0.000208633
-2.28417e-05
0.000204873
-2.9898e-05
0.000201787
-3.70423e-05
0.000199369
-4.42513e-05
0.000197633
-5.15053e-05
0.000196581
-5.87875e-05
0.000196218
-6.60759e-05
0.000196574
-7.33552e-05
0.000197652
-8.06024e-05
0.000199477
-8.77857e-05
0.000202065
-9.49004e-05
0.000205429
-0.000101851
0.000209592
-0.000108629
0.000214577
-0.000115188
0.000220384
-0.000121431
0.000227048
-0.000127358
0.000234476
-0.000132729
0.000242726
-0.000137581
0.000251448
-0.000141397
0.000260797
-0.000144435
0.000269875
-0.000145548
0.000279064
-0.000145756
0.000287648
-0.000143645
0.000296028
-0.000140949
-0.000136559
0.000303701
0.000515143
2.04863e-05
0.000505633
2.77143e-05
0.000495177
3.46022e-05
0.000484006
4.07874e-05
0.000472151
4.64586e-05
0.000459694
5.1451e-05
0.000446765
5.57416e-05
0.000433468
5.93135e-05
0.000419902
6.21552e-05
0.000406167
6.42529e-05
0.000392358
6.55958e-05
0.00037856
6.61928e-05
0.000364865
6.60517e-05
0.000351345
6.51948e-05
0.000338076
6.364e-05
0.000325134
6.14166e-05
0.000312579
5.85589e-05
0.000300471
5.51052e-05
0.000288855
5.10918e-05
0.000277772
4.65591e-05
0.000267258
4.15472e-05
0.000257351
3.60981e-05
0.00024807
3.02521e-05
0.000239435
2.40494e-05
0.000231464
1.75303e-05
0.000224176
1.07334e-05
0.000217575
3.69819e-06
0.000211674
-3.55454e-06
0.000206462
-1.09708e-05
0.000201933
-1.85304e-05
0.00019809
-2.62123e-05
0.000194932
-3.39886e-05
0.000192462
-4.18384e-05
0.000190685
-4.97424e-05
0.000189602
-5.76886e-05
0.000189226
-6.56584e-05
0.000189581
-7.36452e-05
0.000190677
-8.16227e-05
0.000192541
-8.95776e-05
0.000195189
-9.74768e-05
0.000198648
-0.000105257
0.000202944
-0.000112894
0.000208102
-0.000120351
0.00021412
-0.000127502
0.000221054
-0.000134359
0.000228737
-0.000140577
0.000237185
-0.000146206
0.000245931
-0.00015045
0.000255062
-0.000154007
0.000263638
-0.000154726
0.000272071
-0.000155154
0.000279813
-0.000152355
0.000287993
-0.000150382
-0.000148879
0.000297457
0.000519627
2.9256e-05
0.000509768
3.74486e-05
0.000499012
4.49548e-05
0.000487361
5.19294e-05
0.000475061
5.8094e-05
0.000462123
6.35871e-05
0.000448684
6.82631e-05
0.000434846
7.2133e-05
0.000420714
7.51779e-05
0.000406389
7.73976e-05
0.000391989
7.87639e-05
0.000377598
7.93129e-05
0.000363318
7.90454e-05
0.000349227
7.79891e-05
0.000335412
7.6174e-05
0.000321934
7.3633e-05
0.00030887
7.03973e-05
0.000296281
6.65185e-05
0.000284212
6.20368e-05
0.000272711
5.69999e-05
0.00026182
5.1455e-05
0.000251565
4.5447e-05
0.000241971
3.90203e-05
0.000233062
3.22195e-05
0.000224859
2.50892e-05
0.000217372
1.76695e-05
0.000210606
1.00001e-05
0.000204544
2.12527e-06
0.000199209
-5.93936e-06
0.000194588
-1.4132e-05
0.000190669
-2.24448e-05
0.000187447
-3.0855e-05
0.000184912
-3.93474e-05
0.000183072
-4.78976e-05
0.000181929
-5.65077e-05
0.000181503
-6.5157e-05
0.000181817
-7.38505e-05
0.000182884
-8.25636e-05
0.000184742
-9.12936e-05
0.000187396
-9.99868e-05
0.000190889
-0.000108617
0.000195253
-0.000117137
0.000200516
-0.00012551
0.000206671
-0.000133596
0.000213736
-0.000141355
0.000221459
-0.000148315
0.000229709
-0.000154526
0.000237855
-0.000158801
0.000246168
-0.000162676
0.000253814
-0.000163051
0.000261287
-0.000164509
0.00027384
-0.00016513
0.00028151
-0.00016328
-0.000191835
0.000315209
0.00052256
3.80985e-05
0.000512496
4.70794e-05
0.00050125
5.56893e-05
0.000489385
6.32055e-05
0.00047662
7.01852e-05
0.000463288
7.6126e-05
0.000449432
8.12081e-05
0.000435153
8.53969e-05
0.000420562
8.86656e-05
0.000405739
9.10366e-05
0.00039083
9.24254e-05
0.000375887
9.29604e-05
0.00036105
9.25678e-05
0.000346412
9.13087e-05
0.000332059
8.92118e-05
0.000318069
8.63253e-05
0.000304507
8.2692e-05
0.000291438
7.83587e-05
0.000278919
7.33761e-05
0.000267003
6.78029e-05
0.000255729
6.16891e-05
0.000245126
5.5088e-05
0.00023522
4.80469e-05
0.000226042
4.06153e-05
0.000217605
3.28428e-05
0.00020991
2.47724e-05
0.000202955
1.64479e-05
0.000196756
7.9092e-06
0.000191292
-8.0182e-07
0.000186564
-9.63981e-06
0.000182552
-1.85941e-05
0.00017925
-2.76444e-05
0.000176643
-3.67743e-05
0.000174731
-4.59662e-05
0.000173519
-5.52253e-05
0.000173015
-6.45472e-05
0.00017325
-7.39332e-05
0.000174241
-8.33761e-05
0.000176007
-9.28675e-05
0.000178593
-0.000102361
0.00018203
-0.000111843
0.000186367
-0.000121261
0.000191628
-0.000130578
0.000197781
-0.000139578
0.000204752
-0.000148145
0.000212126
-0.000155571
0.000219583
-0.000162004
0.000226522
-0.000165876
0.000233681
-0.000170569
0.000242043
-0.000172555
0.000258984
-0.000185694
0.000275799
-0.000192246
0.000341512
-0.000235368
-0.000268571
0.000392141
0.000522608
4.64832e-05
0.000512131
5.70198e-05
0.000500674
6.63716e-05
0.000488151
7.50357e-05
0.000475212
8.23013e-05
0.000461692
8.87455e-05
0.000447661
9.42687e-05
0.000433178
9.88222e-05
0.000418367
0.000102342
0.000403249
0.000104968
0.000388099
0.000106301
0.00037284
0.000106912
0.000357622
0.00010645
0.000342552
0.000105012
0.000327726
0.000102669
0.000313269
9.94361e-05
0.000299268
9.5378e-05
0.000285767
9.05822e-05
0.000272834
8.50766e-05
0.000260524
7.89447e-05
0.000248888
7.22314e-05
0.000237951
6.50068e-05
0.000227742
5.73204e-05
0.000218293
4.92278e-05
0.000209615
4.07823e-05
0.000201717
3.20312e-05
0.000194597
2.30254e-05
0.000188253
1.38111e-05
0.000182662
4.44247e-06
0.000177855
-5.0867e-06
0.000173774
-1.46859e-05
0.000170393
-2.4365e-05
0.000167702
-3.4118e-05
0.000165692
-4.39333e-05
0.000164368
-5.38178e-05
0.000163741
-6.37829e-05
0.000163824
-7.38332e-05
0.000164644
-8.39714e-05
0.000166227
-9.42026e-05
0.000168619
-0.000104485
0.00017188
-0.00011482
0.000176069
-0.00012516
0.000181194
-0.000135414
0.000187152
-0.000145245
0.000193605
-0.000154344
0.000200006
-0.000161775
0.000205962
-0.000168127
0.000211704
-0.00017208
0.000220479
-0.000181275
0.000245394
-0.000201594
0.000274938
-0.000236062
0.000323745
-0.000263733
0.000374973
-0.000286865
-0.000282645
0.000390932
0.000521018
5.64736e-05
0.000508652
6.73639e-05
0.000496197
7.72877e-05
0.000483324
8.62242e-05
0.000469966
9.42092e-05
0.000456238
0.000101168
0.00044232
0.000106888
0.000428014
0.000112036
0.000413274
0.000115999
0.000398159
0.000118545
0.000382723
0.000120484
0.000367498
0.000120824
0.000352131
0.000120475
0.00033699
0.000118828
0.000321978
0.000116318
0.000307222
0.000112811
0.000292895
0.000108349
0.00027905
0.0001031
0.000265787
9.70574e-05
0.00025314
9.03695e-05
0.000241183
8.30321e-05
0.000229942
7.51697e-05
0.000219462
6.68131e-05
0.000209769
5.80343e-05
0.000200873
4.88892e-05
0.000192787
3.94298e-05
0.000185512
2.97142e-05
0.000179051
1.9794e-05
0.000173397
9.72052e-06
0.000168497
-4.6341e-07
0.000164329
-1.07046e-05
0.000160864
-2.10077e-05
0.000158076
-3.13642e-05
0.000155942
-4.17662e-05
0.000154452
-5.22306e-05
0.00015361
-6.27828e-05
0.000153425
-7.34374e-05
0.000153937
-8.42266e-05
0.000155184
-9.5153e-05
0.000157228
-0.000106211
0.000160175
-0.000117414
0.000164082
-0.000128692
0.000168903
-0.000139841
0.00017429
-0.000150257
0.000179608
-0.000159456
0.000184576
-0.000166701
0.000188975
-0.000173754
0.00019929
-0.000185078
0.00022643
-0.000215334
0.000266054
-0.000260192
0.00030639
-0.000291157
0.000340935
-0.00030451
0.000355732
-0.000306823
-0.000309045
0.000376354
0.000535817
7.0922e-05
0.000512277
8.21886e-05
0.0004921
9.12711e-05
0.000475111
9.95792e-05
0.000460125
0.000106438
0.000445754
0.000112984
0.000431237
0.000119357
0.000417681
0.000124067
0.000403407
0.00012856
0.000388996
0.00013173
0.000374378
0.00013354
0.00035928
0.000134646
0.000344175
0.000134093
0.00032896
0.000132675
0.000314085
0.00012983
0.000299312
0.000126191
0.00028493
0.000121341
0.000270916
0.000115735
0.000257484
0.000109151
0.000244615
0.000101955
0.000232443
9.39865e-05
0.000220976
8.54953e-05
0.000210272
7.64662e-05
0.000200373
6.69874e-05
0.000191297
5.71245e-05
0.000183059
4.69353e-05
0.000175664
3.64854e-05
0.000169103
2.58384e-05
0.000163352
1.50584e-05
0.000158367
4.21208e-06
0.000154146
-6.69593e-06
0.000150606
-1.75892e-05
0.000147692
-2.84933e-05
0.000145369
-3.9412e-05
0.000143616
-5.03745e-05
0.000142424
-6.14215e-05
0.000141822
-7.25959e-05
0.000141857
-8.39578e-05
0.000142575
-9.55334e-05
0.000144105
-0.000107357
0.000146578
-0.000119465
0.000150052
-0.000131708
0.000154247
-0.000143598
0.00015858
-0.000154238
0.000162172
-0.000163405
0.00016662
-0.000172256
0.000175454
-0.000188745
0.000204241
-0.000226808
0.000239952
-0.000276375
0.000275529
-0.000304058
0.000296038
-0.000318117
0.000311469
-0.000323162
0.000331106
-0.00032511
-0.000324395
0.000348753
0.000600901
8.44778e-05
0.000565725
9.96583e-05
0.000524647
0.000113504
0.000484112
0.000122406
0.000454273
0.000126098
0.000434697
0.00012743
0.00041825
0.000132045
0.000403061
0.000136354
0.00038943
0.000140183
0.000375541
0.000143737
0.000361587
0.00014599
0.000347311
0.000147286
0.000332858
0.000147132
0.000318359
0.000145658
0.000303802
0.000142976
0.000289278
0.000139273
0.000275053
0.000134146
0.000261107
0.00012826
0.000247648
0.000121226
0.000234737
0.000113544
0.000222408
0.000105032
0.000210818
9.58995e-05
0.000199977
8.62129e-05
0.000189935
7.60352e-05
0.000180733
6.54417e-05
0.000172389
5.45054e-05
0.000164911
4.32986e-05
0.000158293
3.1903e-05
0.000152504
2.04033e-05
0.000147495
8.88167e-06
0.000143202
-2.64405e-06
0.000139547
-1.40809e-05
0.000136447
-2.54506e-05
0.000133835
-3.67727e-05
0.00013167
-4.81003e-05
0.00012994
-5.95036e-05
0.000128685
-7.10776e-05
0.000127981
-8.29172e-05
0.000127944
-9.51074e-05
0.000128773
-0.000107738
0.000130671
-0.000120839
0.000133498
-0.000134039
0.000136618
-0.000146335
0.000139379
-0.000157288
0.000142403
-0.000168807
0.000153046
-0.00019088
0.000177512
-0.000237526
0.000206274
-0.000286698
0.000230793
-0.000310422
0.000246025
-0.00032422
0.000262435
-0.00033308
0.000280139
-0.00033855
0.000299232
-0.000340384
-0.000336157
0.000317457
0.000605061
9.06705e-05
0.000595181
0.000111851
0.000564269
0.000125809
0.000529101
0.0001402
0.000480573
0.000152002
0.000437996
0.000149724
0.000406541
0.000153637
0.000386808
0.000150937
0.000371572
0.00015171
0.00035789
0.000154972
0.000344637
0.000157164
0.000331655
0.000158626
0.000318144
0.000159094
0.000304193
0.000158031
0.000290546
0.000155167
0.000276674
0.00015156
0.000262904
0.000146511
0.000249338
0.000140361
0.000236079
0.000133117
0.000223276
0.000124924
0.000211037
0.000115986
0.000199404
0.000106284
0.000188492
9.59676e-05
0.000178367
8.51149e-05
0.000169076
7.38013e-05
0.000160653
6.21074e-05
0.000153119
5.01239e-05
0.000146477
3.79546e-05
0.00014069
2.57124e-05
0.000135697
1.35055e-05
0.000131335
1.45177e-06
0.000127511
-1.04216e-05
0.000124098
-2.21107e-05
0.000121005
-3.36609e-05
0.000118176
-4.51631e-05
0.00011562
-5.67488e-05
0.000113424
-6.85873e-05
0.000111728
-8.08451e-05
0.00011076
-9.36912e-05
0.000110841
-0.000107273
0.000112038
-0.000121514
0.000113865
-0.000135456
0.000115493
-0.000148339
0.000117579
-0.000162663
0.000127587
-0.000189872
0.000145262
-0.00024155
0.00016697
-0.000286684
0.000183213
-0.00031076
0.000194926
-0.000325408
0.000210131
-0.000336927
0.000226791
-0.00034554
0.000243996
-0.000348994
0.000259943
-0.00034472
-0.00033124
0.000273191
0.00056258
9.91682e-05
0.000556599
0.000118614
0.000546646
0.000136299
0.000534795
0.000150503
0.000504891
0.000165173
0.00046564
0.000177271
0.000416452
0.000178075
0.00037962
0.000171569
0.000355477
0.000168772
0.000339378
0.000166788
0.000325774
0.000167933
0.000312843
0.000169124
0.000300451
0.000169621
0.000287604
0.000169146
0.000274491
0.000166782
0.000261471
0.000163144
0.000248389
0.000158133
0.000235363
0.000151859
0.000222548
0.000144481
0.000210027
0.000135997
0.000197988
0.000126659
0.000186462
0.000116508
0.0001756
0.000105628
0.000165461
9.41595e-05
0.000156137
8.21518e-05
0.000147672
6.97077e-05
0.000140105
5.6942e-05
0.000133438
4.39883e-05
0.00012763
3.10043e-05
0.000122564
1.8167e-05
0.000118062
5.65463e-06
0.000113975
-6.52659e-06
0.000110087
-1.83102e-05
0.000106265
-2.98301e-05
0.000102475
-4.12681e-05
9.87889e-05
-5.28639e-05
9.53857e-05
-6.48776e-05
9.253e-05
-7.75813e-05
9.06332e-05
-9.12615e-05
8.99551e-05
-0.000106061
9.03023e-05
-0.000121382
9.06905e-05
-0.000136356
9.14907e-05
-0.000153351
9.98372e-05
-0.00018542
0.000108785
-0.000240376
0.000121739
-0.000281123
0.000132244
-0.000304519
0.000142415
-0.000321328
0.000155853
-0.000335646
0.000170927
-0.000346129
0.00018608
-0.000349658
0.000199866
-0.000344607
0.000210097
-0.000329944
-0.000304553
0.000215111
0.000503599
9.89447e-05
0.000508108
0.00012093
0.000503963
0.000142806
0.000494638
0.00015932
0.000486931
0.000176405
0.000466414
0.000187918
0.000426138
0.000198147
0.000384689
0.000193042
0.00034763
0.000189899
0.000321668
0.000183622
0.000304657
0.000180388
0.000291568
0.000179611