/*--------------------------------*- C++ -*----------------------------------*\
  =========                 |
  \\      /  F ield         | OpenFOAM: The Open Source CFD Toolbox
   \\    /   O peration     | Website:  https://openfoam.org
    \\  /    A nd           | Version:  10
     \\/     M anipulation  |
\*---------------------------------------------------------------------------*/
FoamFile
{
    format      ascii;
    class       volScalarField;
    location    "0.947026";
    object      T;
}
// * * * * * * * * * * * * * * * * * * * * * * * * * * * * * * * * * * * * * //

dimensions      [0 0 0 1 0 0 0];

internalField   nonuniform List<scalar> 
15984
(
0.00856589
0.00856229
0.0085863
0.00857567
0.00859647
0.00859966
0.00861344
0.00862314
0.00863255
0.00864178
0.00865104
0.00866016
0.00866944
0.00867842
0.00868717
0.00869549
0.00870346
0.00871102
0.0087185
0.00872566
0.00873302
0.00874007
0.00874721
0.00875405
0.00876068
0.00876724
0.00877328
0.00877955
0.00878521
0.00879108
0.00879647
0.00880189
0.00880703
0.00881212
0.00881674
0.00882166
0.0088258
0.00883029
0.00883421
0.00883803
0.00884195
0.00884553
0.00884894
0.00885228
0.00885548
0.00885847
0.00886143
0.0088641
0.00886681
0.0088692
0.00887149
0.00887374
0.00887563
0.00887747
0.00855704
0.0085763
0.00857539
0.00859049
0.00859758
0.00860695
0.00861587
0.00862518
0.00863434
0.00864391
0.00865341
0.00866298
0.00867221
0.00868124
0.00869
0.00869843
0.00870661
0.00871453
0.0087223
0.00872984
0.00873729
0.00874452
0.00875161
0.00875842
0.00876497
0.00877135
0.00877733
0.00878341
0.00878889
0.00879463
0.00879977
0.00880492
0.00880979
0.00881448
0.00881894
0.0088234
0.00882727
0.00883157
0.00883507
0.00883866
0.00884213
0.00884534
0.00884839
0.0088513
0.008854
0.00885659
0.00885914
0.0088614
0.00886367
0.00886562
0.00886754
0.00886927
0.00887088
0.00887232
0.00857556
0.00856686
0.00858684
0.0085864
0.00859916
0.0086087
0.00861766
0.00862699
0.00863673
0.00864655
0.0086562
0.00866571
0.00867501
0.00868401
0.00869284
0.0087014
0.00870985
0.00871816
0.00872624
0.00873406
0.00874164
0.00874889
0.0087559
0.0087627
0.00876916
0.00877545
0.00878142
0.00878735
0.00879286
0.00879841
0.00880335
0.00880834
0.00881293
0.00881733
0.0088217
0.00882564
0.00882951
0.00883332
0.00883667
0.00883975
0.00884305
0.00884572
0.00884849
0.00885089
0.00885306
0.00885534
0.00885722
0.00885927
0.00886089
0.00886256
0.00886377
0.00886519
0.00886629
0.00886731
0.00857332
0.00856937
0.00858936
0.00858333
0.00860555
0.00860671
0.00861955
0.00862964
0.00863945
0.00864925
0.00865897
0.00866871
0.00867814
0.0086873
0.0086962
0.00870491
0.00871358
0.00872204
0.0087302
0.00873812
0.00874567
0.00875305
0.00876009
0.008767
0.00877345
0.00877984
0.0087858
0.00879161
0.00879702
0.00880227
0.00880708
0.0088118
0.0088162
0.0088203
0.00882459
0.008828
0.00883204
0.0088352
0.00883826
0.00884114
0.00884379
0.00884632
0.0088485
0.00885049
0.00885225
0.00885395
0.00885552
0.00885696
0.00885818
0.00885929
0.00886031
0.00886103
0.00886175
0.00886233
0.00857219
0.00857872
0.00858432
0.00859389
0.0086011
0.00861094
0.00862031
0.00863016
0.00864039
0.00865065
0.00866095
0.00867085
0.00868062
0.00869009
0.0086994
0.00870849
0.00871719
0.00872565
0.00873374
0.00874173
0.00874944
0.00875702
0.00876422
0.00877122
0.00877771
0.00878405
0.00878989
0.00879564
0.00880088
0.00880613
0.00881065
0.00881531
0.0088194
0.0088234
0.00882731
0.00883058
0.00883433
0.0088371
0.00883984
0.00884241
0.00884476
0.00884672
0.00884849
0.00885008
0.00885136
0.00885269
0.00885377
0.00885465
0.00885542
0.00885602
0.00885633
0.00885662
0.00885686
0.0088569
0.00856492
0.00858041
0.00858072
0.00859404
0.00860287
0.00861201
0.00862179
0.00863207
0.00864241
0.00865281
0.008663
0.00867315
0.00868307
0.0086929
0.00870242
0.00871167
0.00872057
0.00872909
0.00873734
0.00874534
0.00875309
0.0087607
0.00876798
0.00877506
0.00878167
0.00878806
0.00879399
0.00879966
0.00880485
0.0088099
0.0088144
0.00881882
0.00882281
0.00882658
0.00883026
0.00883329
0.00883678
0.00883903
0.00884147
0.00884379
0.00884564
0.00884725
0.00884858
0.0088498
0.00885067
0.00885164
0.0088521
0.00885241
0.00885259
0.00885265
0.0088524
0.00885212
0.00885179
0.00885134
0.0085777
0.00857356
0.00858801
0.00859409
0.00860324
0.00861283
0.00862284
0.008633
0.00864335
0.00865379
0.00866418
0.00867462
0.00868488
0.00869498
0.00870463
0.00871402
0.00872298
0.00873175
0.00874029
0.00874863
0.00875681
0.00876468
0.00877226
0.00877938
0.00878608
0.00879231
0.00879819
0.00880366
0.00880886
0.00881362
0.0088182
0.00882218
0.00882636
0.00882963
0.0088332
0.00883601
0.00883918
0.00884094
0.00884336
0.00884523
0.00884678
0.00884807
0.00884891
0.00884974
0.00885016
0.0088505
0.00885061
0.00885026
0.00885005
0.00884953
0.00884851
0.00884774
0.00884658
0.00884581
0.00857735
0.0085727
0.00859045
0.00859319
0.00860446
0.00861396
0.00862383
0.00863404
0.00864455
0.00865503
0.0086656
0.00867613
0.00868672
0.00869695
0.00870692
0.00871645
0.00872564
0.00873459
0.00874339
0.008752
0.00876043
0.00876839
0.00877599
0.00878306
0.00878975
0.00879601
0.00880189
0.00880734
0.00881252
0.00881721
0.00882184
0.00882558
0.00882974
0.00883266
0.00883598
0.00883869
0.0088413
0.00884305
0.00884533
0.00884683
0.00884813
0.00884905
0.00884947
0.00884977
0.00884983
0.00884962
0.00884918
0.00884832
0.00884754
0.0088463
0.00884518
0.00884375
0.00884139
0.00883994
0.0085754
0.00857843
0.00858752
0.00859609
0.00860467
0.00861404
0.00862401
0.00863441
0.00864513
0.00865603
0.00866703
0.00867792
0.00868865
0.00869911
0.00870929
0.00871917
0.0087287
0.00873801
0.00874698
0.00875564
0.00876391
0.00877177
0.00877924
0.0087864
0.00879311
0.00879951
0.00880539
0.00881099
0.00881609
0.00882092
0.00882532
0.0088291
0.00883295
0.00883582
0.00883885
0.00884153
0.00884378
0.00884556
0.0088474
0.00884874
0.00884954
0.00885005
0.00885012
0.00884983
0.00884975
0.00884872
0.00884857
0.00884559
0.00884589
0.00884199
0.00884237
0.00883878
0.00883622
0.00883432
0.00856894
0.00858074
0.00858853
0.00859377
0.00860383
0.00861352
0.00862367
0.00863432
0.00864538
0.00865654
0.00866773
0.00867885
0.00868974
0.0087005
0.00871075
0.00872085
0.00873047
0.00874015
0.00874948
0.00875855
0.00876715
0.00877532
0.00878312
0.00879052
0.00879724
0.00880357
0.00880921
0.00881482
0.00881974
0.00882472
0.00882876
0.00883269
0.00883593
0.00883895
0.0088416
0.00884437
0.00884629
0.00884815
0.0088495
0.00885065
0.00885116
0.00885116
0.00885105
0.0088504
0.00884967
0.00884796
0.0088472
0.00884393
0.00884322
0.00883876
0.00883862
0.00883256
0.00883231
0.00882436
0.00856482
0.00858182
0.00857845
0.00859615
0.00860185
0.00861343
0.00862387
0.00863446
0.00864548
0.0086567
0.00866806
0.00867936
0.00869056
0.00870165
0.0087123
0.0087228
0.00873295
0.00874287
0.00875223
0.00876128
0.00877009
0.00877865
0.00878671
0.00879403
0.00880054
0.00880667
0.00881246
0.00881828
0.0088234
0.00882824
0.00883208
0.00883563
0.00883876
0.00884179
0.0088444
0.00884721
0.00884903
0.00885062
0.00885197
0.00885263
0.00885282
0.00885254
0.0088521
0.00885085
0.00885029
0.00884707
0.00884685
0.00884199
0.00884147
0.0088352
0.00883475
0.00882706
0.00882635
0.00881112
0.00856394
0.00857949
0.00858849
0.00858539
0.00860453
0.00860892
0.00862255
0.0086335
0.00864498
0.00865635
0.00866799
0.00867949
0.00869104
0.0087023
0.00871343
0.00872431
0.00873483
0.00874498
0.00875476
0.00876412
0.00877306
0.00878172
0.00878976
0.00879716
0.00880408
0.00881075
0.0088171
0.00882291
0.0088279
0.00883203
0.00883572
0.00883878
0.00884192
0.00884499
0.00884735
0.00885037
0.00885187
0.00885341
0.00885451
0.00885468
0.00885469
0.00885387
0.00885378
0.008852
0.00885045
0.00884745
0.00884642
0.00884104
0.00884016
0.0088313
0.00883086
0.0088164
0.00881551
0.00877678
0.00857056
0.00857194
0.00858292
0.00859135
0.00860003
0.00861051
0.00862102
0.00863224
0.00864384
0.00865565
0.00866748
0.00867926
0.00869087
0.00870232
0.00871376
0.0087248
0.00873579
0.00874631
0.00875643
0.00876634
0.00877586
0.00878463
0.00879274
0.00880045
0.00880744
0.00881399
0.00881999
0.00882573
0.00883077
0.00883531
0.00883897
0.00884256
0.00884527
0.00884879
0.0088506
0.00885343
0.00885482
0.00885597
0.00885678
0.0088568
0.00885673
0.00885599
0.00885465
0.00885395
0.00885018
0.00884989
0.0088432
0.00884317
0.00883519
0.00882441
0.00882592
0.00879203
0.00874353
0.00872664
0.00856786
0.00856802
0.00858023
0.008588
0.00859792
0.00860761
0.00861903
0.00863044
0.00864229
0.00865414
0.00866608
0.00867802
0.00869001
0.00870179
0.00871373
0.00872524
0.00873665
0.00874756
0.00875809
0.0087681
0.00877782
0.00878693
0.00879532
0.0088033
0.00881082
0.00881773
0.00882375
0.00882898
0.00883374
0.00883803
0.00884221
0.00884559
0.00884925
0.00885178
0.0088545
0.00885649
0.00885825
0.00885889
0.00885974
0.00885969
0.0088591
0.00885885
0.00885652
0.00885639
0.00885121
0.00885093
0.00884195
0.00884136
0.00882213
0.00882212
0.00877202
0.0087734
0.00859477
0.00858454
0.00855247
0.00857273
0.0085721
0.00858674
0.00859576
0.0086061
0.00861714
0.00862876
0.00864057
0.00865295
0.00866511
0.00867752
0.00868961
0.00870178
0.00871377
0.00872545
0.00873721
0.00874831
0.00875915
0.00876967
0.00877958
0.00878884
0.00879768
0.00880605
0.00881356
0.00882035
0.00882632
0.00883199
0.00883693
0.00884165
0.00884514
0.0088487
0.00885132
0.00885488
0.00885697
0.00886015
0.00886102
0.00886264
0.00886265
0.00886252
0.0088621
0.00886135
0.00885887
0.00885823
0.00885216
0.00885169
0.00884013
0.00883906
0.00880149
0.00880059
0.0086759
0.00865209
0.00815965
0.00787037
0.00855176
0.00854302
0.00857127
0.00857263
0.00859041
0.00860185
0.00861376
0.00862576
0.00863787
0.00865038
0.00866264
0.00867558
0.00868851
0.00870102
0.00871337
0.0087253
0.00873716
0.00874859
0.0087599
0.00877071
0.00878087
0.00879053
0.00879969
0.00880827
0.00881563
0.00882242
0.0088287
0.00883492
0.00884002
0.00884495
0.00884824
0.00885227
0.00885472
0.00885849
0.00886065
0.00886317
0.00886473
0.00886527
0.00886573
0.00886561
0.00886507
0.00886434
0.00886183
0.00886105
0.00885456
0.00885237
0.00883345
0.00883163
0.00873204
0.00871038
0.00833799
0.00777372
0.00742137
0.00509262
0.00845823
0.00851594
0.00851352
0.00855758
0.00857371
0.00859181
0.00860562
0.0086232
0.00863461
0.00864951
0.00866111
0.00867357
0.00868604
0.00869845
0.00871203
0.00872483
0.00873703
0.00874868
0.0087603
0.00877152
0.00878202
0.0087919
0.00880141
0.00881028
0.00881811
0.00882537
0.00883178
0.00883785
0.00884278
0.00884755
0.00885099
0.00885493
0.00885799
0.00886155
0.00886439
0.00886642
0.00886774
0.0088687
0.00886883
0.00886901
0.0088688
0.00886816
0.00886506
0.0088648
0.00885484
0.00885275
0.00880897
0.00879424
0.00851355
0.00826877
0.00695972
0.00650604
0.00482383
0.00491647
0.00827197
0.00833081
0.00841302
0.00845087
0.00850866
0.00854074
0.00858618
0.00858949
0.00863537
0.00862534
0.00866893
0.00867344
0.00868904
0.00869885
0.00870989
0.00872275
0.00873556
0.00874788
0.00876006
0.00877154
0.00878251
0.00879301
0.00880288
0.00881188
0.00881985
0.00882754
0.0088343
0.00884068
0.00884568
0.00885058
0.00885396
0.0088578
0.00886083
0.00886411
0.00886696
0.00886889
0.00887087
0.00887238
0.00887274
0.00887355
0.00887319
0.00887219
0.00886897
0.00886591
0.00885085
0.00883752
0.00871685
0.00857332
0.00779353
0.00643253
0.00544355
0.00472613
0.00473022
0.00448019
0.00747194
0.00778788
0.00802362
0.00821513
0.00833274
0.0084318
0.00850652
0.00858561
0.00856973
0.00864906
0.00862668
0.00867816
0.00867438
0.00870478
0.00871227
0.00872427
0.0087349
0.00874828
0.00875941
0.00877217
0.00878256
0.00879339
0.00880362
0.00881292
0.00882117
0.00882885
0.00883566
0.00884191
0.00884738
0.00885256
0.0088566
0.00886056
0.00886358
0.00886731
0.00887053
0.00887293
0.00887594
0.0088763
0.00887708
0.00887749
0.00887707
0.00887656
0.00887122
0.00886595
0.0088173
0.00873069
0.008398
0.00755629
0.00601946
0.00498745
0.00461475
0.0045538
0.00448591
0.00447192
0.00610647
0.00642822
0.00683535
0.00737151
0.00786493
0.00814702
0.00831216
0.00843256
0.0085523
0.00855419
0.00864821
0.00863785
0.00869242
0.00868141
0.00871581
0.00871436
0.00874161
0.00874063
0.0087663
0.00876758
0.00878623
0.00879624
0.00880582
0.00881506
0.00882328
0.00883068
0.00883739
0.0088435
0.00884886
0.00885395
0.00885826
0.00886282
0.00886646
0.00887065
0.00887381
0.00887674
0.00887935
0.00888061
0.00888167
0.00888326
0.00888349
0.00888025
0.00886921
0.00883144
0.00868591
0.00826936
0.00717635
0.00559291
0.00481459
0.00459545
0.00450352
0.00447327
0.0044792
0.00451635
0.00574299
0.00571108
0.00592448
0.00619864
0.00667416
0.00735767
0.00790124
0.00824455
0.00838576
0.00852442
0.00857999
0.00863832
0.00864298
0.00869633
0.00870895
0.00871737
0.00873642
0.00874429
0.00876013
0.00877168
0.00878283
0.00879508
0.00880636
0.00881618
0.00882459
0.0088323
0.00883939
0.00884569
0.00885106
0.00885606
0.00886064
0.00886527
0.00886923
0.00887404
0.00887775
0.008882
0.00888507
0.00888687
0.00888905
0.00889099
0.00888857
0.00887854
0.00883598
0.00865309
0.00812853
0.00676408
0.00530846
0.00467741
0.00454145
0.00448694
0.00448047
0.00451257
0.00460235
0.00477939
0.00576103
0.00575856
0.00577188
0.0058493
0.00587791
0.00638101
0.00693065
0.00757342
0.00813322
0.0083378
0.00849125
0.00856949
0.00864479
0.00864661
0.00870539
0.0087197
0.00873349
0.00874616
0.00875779
0.00877246
0.00878302
0.00879522
0.00880612
0.00881672
0.00882499
0.0088326
0.00883989
0.0088464
0.00885245
0.00885756
0.0088628
0.008868
0.00887296
0.00887808
0.00888276
0.0088882
0.00889209
0.00889477
0.00889806
0.00889734
0.00888895
0.00884007
0.00863139
0.00797469
0.00640428
0.00508673
0.00459957
0.00450589
0.0044798
0.0044949
0.00456766
0.00472658
0.0049868
0.00537976
0.00610056
0.00587818
0.00579442
0.00581145
0.00579867
0.00593817
0.00614928
0.00682467
0.00743525
0.00803932
0.00834517
0.00852255
0.00858921
0.00864521
0.00867872
0.00870507
0.00872652
0.00874622
0.00875495
0.00877286
0.0087831
0.00879535
0.00880819
0.00881487
0.00882542
0.0088334
0.00884038
0.00884721
0.00885399
0.00886012
0.00886655
0.00887125
0.00887612
0.00888033
0.00888658
0.00889231
0.00889681
0.00890223
0.00890524
0.00889874
0.00885141
0.00860658
0.00783495
0.00609404
0.00491515
0.00454781
0.00448465
0.00447699
0.00451832
0.00463868
0.00487252
0.00522792
0.00573175
0.00650985
0.00688663
0.00638508
0.00598363
0.00584222
0.00580548
0.00585599
0.00580548
0.00631101
0.0068319
0.00743883
0.00794558
0.0082573
0.00848364
0.00858088
0.00865304
0.00868573
0.00871825
0.00873164
0.00875767
0.00876245
0.0087879
0.0087889
0.00880972
0.00881769
0.00882433
0.00883347
0.00884117
0.00884885
0.00885575
0.0088614
0.00886717
0.00887181
0.00887619
0.00887993
0.00888809
0.008897
0.00890536
0.00891131
0.00890749
0.00886505
0.00860192
0.00767327
0.0058482
0.0047943
0.00451515
0.00447458
0.00448227
0.00455436
0.00472054
0.00501195
0.00546687
0.006087
0.00695229
0.00735178
0.00701011
0.00676831
0.00635874
0.00599337
0.00584386
0.00581217
0.00585959
0.00585534
0.00637309
0.007056
0.00764807
0.00808069
0.00835222
0.00850991
0.00860613
0.00866747
0.00870971
0.00872999
0.00875533
0.00876247
0.00878458
0.00879188
0.00880401
0.00881684
0.00882543
0.0088328
0.00884205
0.00884802
0.00885459
0.008859
0.00886346
0.00886634
0.00886974
0.0088768
0.00888917
0.00890073
0.0089121
0.00891399
0.0088778
0.00860572
0.00755504
0.00562341
0.00472248
0.00449838
0.00447323
0.00449304
0.0045896
0.00478811
0.00512558
0.00565139
0.00641727
0.00725527
0.00762857
0.0075756
0.00692421
0.00681999
0.00647219
0.006055
0.00584986
0.00578192
0.00580609
0.00580548
0.00608531
0.00663699
0.00733919
0.0078896
0.00824021
0.00844541
0.00857168
0.00863892
0.00869582
0.00871736
0.0087511
0.0087611
0.00878047
0.00879168
0.0088037
0.0088144
0.0088251
0.00883133
0.00884037
0.00884435
0.00884728
0.00884715
0.00884507
0.00884458
0.00885167
0.00886981
0.00889114
0.0089102
0.008918
0.00888568
0.00859834
0.00745411
0.005513
0.00467384
0.00449461
0.00447623
0.00450562
0.00461642
0.00483115
0.00519753
0.00578839
0.00661534
0.00747675
0.00781009
0.0076587
0.0075527
0.00684752
0.00676224
0.00638627
0.00600852
0.00581084
0.00572324
0.00573809
0.00572917
0.00587968
0.00623478
0.00690874
0.00750917
0.00799876
0.00831595
0.00850698
0.00860684
0.00867359
0.00870997
0.00873725
0.00875908
0.00877483
0.00879017
0.00880121
0.00881156
0.00882111
0.00882652
0.00883135
0.00882938
0.00881991
0.00880192
0.00878623
0.00879026
0.00882902
0.00887017
0.00890164
0.00891665
0.0088861
0.00858491
0.00737373
0.00543482
0.00465187
0.00449274
0.00447955
0.0045121
0.00462694
0.00484493
0.00522339
0.00584603
0.00674522
0.00760659
0.00786087
0.00778105
0.00767431
0.00751671
0.00664922
0.0064144
0.00611058
0.00582144
0.00564909
0.00558102
0.00557372
0.00561849
0.00577623
0.00619631
0.00677767
0.00732643
0.00779193
0.00813841
0.00838366
0.00853067
0.0086285
0.00868131
0.00873097
0.00875121
0.0087709
0.00878488
0.00879824
0.00880126
0.00881273
0.00880874
0.00879922
0.00877261
0.00871985
0.00865592
0.00864066
0.00873253
0.0088234
0.00888674
0.00891076
0.00888504
0.00858117
0.00734324
0.00539582
0.00463958
0.0044922
0.00448078
0.00451213
0.0046216
0.00483062
0.00519748
0.00580919
0.00671714
0.00765045
0.00797207
0.007975
0.00789225
0.00767955
0.00763099
0.0058002
0.00570154
0.00558847
0.00550666
0.00547519
0.00547373
0.0055197
0.00557314
0.0058419
0.00625811
0.00680254
0.0073321
0.00777734
0.00810099
0.00833184
0.00849034
0.00859697
0.00866651
0.00870644
0.00874059
0.00875491
0.00877284
0.00877662
0.008785
0.00877389
0.0087485
0.00867828
0.00855964
0.00837229
0.00824287
0.0083758
0.00863098
0.00883969
0.00889453
0.00887641
0.00859277
0.0073825
0.00541292
0.0046413
0.00449178
0.00447995
0.00450604
0.00460269
0.00479063
0.00512272
0.0056814
0.0065023
0.00751241
0.00814751
0.00819708
0.00799128
0.00795587
0.00793899
0.00798393
0.00564331
0.0055887
0.00554324
0.0055112
0.00550306
0.00552765
0.00556279
0.00576695
0.00594652
0.00644674
0.00695233
0.00742634
0.00782555
0.00812281
0.00833361
0.00847737
0.00857691
0.0086425
0.00869106
0.0087142
0.00874079
0.00874051
0.00875543
0.00871245
0.00865251
0.00847861
0.00821999
0.00780522
0.0074195
0.00731674
0.00796906
0.00868979
0.00885212
0.00885555
0.00858886
0.00748065
0.00549889
0.00466322
0.00449321
0.0044776
0.00449575
0.00457452
0.0047319
0.00500855
0.00548127
0.00619575
0.00712616
0.008141
0.0083009
0.00828352
0.0083133
0.00824435
0.00826601
0.00829794
0.00639252
0.00624381
0.00613488
0.00607418
0.00605505
0.0060864
0.00619744
0.00637843
0.0067249
0.00702517
0.00736024
0.00768087
0.00795654
0.0081724
0.00834213
0.00846842
0.0085654
0.0086247
0.00865311
0.00868421
0.00865398
0.00865455
0.00854109
0.00842664
0.00810353
0.00759536
0.007059
0.00666467
0.00647271
0.00671598
0.00817538
0.00875376
0.00882103
0.00860687
0.00763302
0.00564996
0.00470884
0.00449681
0.00447399
0.00448336
0.00454166
0.00466393
0.00487843
0.00525076
0.00583895
0.0066747
0.00768919
0.00818834
0.00845374
0.0084725
0.00848457
0.00851554
0.00848648
0.00854303
0.00643101
0.00648051
0.00650979
0.00654309
0.00660811
0.00665632
0.00675744
0.00690184
0.0070839
0.00727486
0.00748892
0.00772902
0.00795445
0.00814382
0.00828384
0.00838038
0.00842436
0.0084602
0.008466
0.00840626
0.00836895
0.00813695
0.00786962
0.00740314
0.00684681
0.00637013
0.00604038
0.00585699
0.00587022
0.00696219
0.00846687
0.00874812
0.00864011
0.00782202
0.00587711
0.00478061
0.0045038
0.00446967
0.00447074
0.00450839
0.00459728
0.00475083
0.00502398
0.0054686
0.00612138
0.0069698
0.00786011
0.00847911
0.00841663
0.00852659
0.00864249
0.00862175
0.00864527
0.00866458
0.00495094
0.00523918
0.00549126
0.00572159
0.00596145
0.00611862
0.00631704
0.00651157
0.00668935
0.00686054
0.00704956
0.00724965
0.00743587
0.00757115
0.00766655
0.00771792
0.00773226
0.00769043
0.00758286
0.00744852
0.00719863
0.00688744
0.00655457
0.00619687
0.00584892
0.00560422
0.00543707
0.00539025
0.00599661
0.00751799
0.00860515
0.00864516
0.00803698
0.00621078
0.00490067
0.0045199
0.00446409
0.00445944
0.00447764
0.00453398
0.00463273
0.00480924
0.00510933
0.00557777
0.00625474
0.00713596
0.00794272
0.00844357
0.00848359
0.00853538
0.00860759
0.00866986
0.00869906
0.00869724
0.00510425
0.00507302
0.00516096
0.00525765
0.0053764
0.00545895
0.00556641
0.00565356
0.00574089
0.00582292
0.0059209
0.00604167
0.00616563
0.00626861
0.00632656
0.00636747
0.00639024
0.00638099
0.00632108
0.00622997
0.00608298
0.00588975
0.0056795
0.00546375
0.0052848
0.00514697
0.00510109
0.00540829
0.00631851
0.00824294
0.00856811
0.00822425
0.0066293
0.00508247
0.00455147
0.00446264
0.00444962
0.00445475
0.00448562
0.00454647
0.00464888
0.00483481
0.00514172
0.0056157
0.00629037
0.0071369
0.00794809
0.00838402
0.00848516
0.00852387
0.00861014
0.00867951
0.00868929
0.00870997
0.00750611
0.00693506
0.00651407
0.0061952
0.00598362
0.00585233
0.00578836
0.00575284
0.00574589
0.00573074
0.00573789
0.0057616
0.0057931
0.00580999
0.00581359
0.00579451
0.0057815
0.005748
0.0056886
0.00560797
0.00549378
0.00535923
0.00521676
0.00512146
0.00498874
0.00494979
0.00513738
0.00581291
0.00735457
0.00835637
0.00827228
0.00704371
0.00531033
0.00457207
0.00449074
0.00443977
0.00443952
0.00445148
0.00448564
0.00453406
0.00462107
0.00477036
0.00501034
0.00538613
0.00593319
0.00665268
0.00745783
0.00800801
0.00844233
0.00832698
0.00858861
0.00855295
0.00869465
0.00865326
0.00834068
0.00829105
0.00810123
0.00786147
0.00757983
0.00726275
0.00695114
0.00665823
0.00640421
0.00619891
0.00604047
0.00594393
0.00588342
0.00583439
0.00578231
0.00572085
0.00565003
0.00557815
0.00548972
0.005382
0.00527011
0.00514547
0.00507783
0.00489562
0.00486254
0.0049643
0.00535003
0.00591556
0.00814869
0.0082945
0.00751695
0.00550998
0.00464575
0.00451368
0.00443405
0.00442919
0.0044306
0.00444666
0.00447004
0.00450228
0.00456146
0.00465782
0.00481639
0.00507283
0.00546071
0.00600396
0.00665747
0.00732424
0.00785257
0.00808064
0.00811249
0.00827419
0.00842326
0.00846251
0.00803867
0.00793237
0.00785982
0.00775906
0.00761512
0.00743185
0.00723079
0.00706908
0.00693816
0.00680399
0.00666747
0.00650894
0.00632525
0.00615295
0.00600504
0.00585927
0.00573401
0.00561803
0.00551224
0.00538293
0.00522686
0.00511851
0.00487172
0.00485145
0.00490504
0.00514909
0.00506989
0.0081241
0.00796468
0.00761632
0.00605449
0.00483377
0.00449194
0.0044418
0.00441617
0.00441601
0.00441963
0.00442859
0.00443632
0.00444916
0.00447552
0.00451345
0.00457797
0.00467977
0.00483946
0.00509177
0.00547688
0.00597966
0.00651453
0.0069875
0.00728681
0.00767962
0.00761015
0.00782007
0.00756305
0.00733013
0.00711378
0.00693033
0.00680364
0.00676881
0.0067682
0.00678152
0.00679617
0.00677415
0.00674328
0.00670919
0.00668628
0.00665237
0.00653957
0.00636219
0.0061634
0.00596424
0.00570883
0.00543358
0.00523009
0.00490736
0.00490835
0.00493221
0.00507699
0.00491903
0.00791259
0.00800244
0.00786039
0.00639299
0.00477635
0.00467558
0.00441914
0.00442176
0.00440495
0.00440585
0.00441004
0.00441422
0.00441701
0.00442526
0.00443447
0.00444971
0.00447133
0.00450494
0.00455665
0.00462846
0.00472842
0.00486586
0.00505039
0.00528195
0.00556518
0.00583327
0.00617294
0.00637209
0.00728241
0.00693897
0.00659998
0.00638226
0.006292
0.00628814
0.00632598
0.00636597
0.0064934
0.00660697
0.0067572
0.0068958
0.0069632
0.00695639
0.00688461
0.00668627
0.00640497
0.00604985
0.00573037
0.00530263
0.00504395
0.0049455
0.0049456
0.00498549
0.00493837
0.0075374
0.00758307
0.00755662
0.00625866
0.004777
0.00477172
0.00442215
0.00441905
0.00439585
0.00439534
0.00439612
0.00439892
0.00440001
0.00440086
0.00440073
0.00440479
0.00440447
0.00441381
0.00441357
0.00442717
0.00443856
0.00445986
0.00448501
0.00451868
0.0045607
0.00461225
0.00467232
0.00473684
0.00481265
0.007186
0.00681253
0.00648932
0.00622397
0.00622611
0.00619264
0.00623703
0.00631744
0.00642978
0.00662189
0.00681523
0.0069946
0.00699526
0.00696727
0.006863
0.00673512
0.0063712
0.00622144
0.00529072
0.00521796
0.00496824
0.00496499
0.00491227
0.00493202
0.00727187
0.00756321
0.00748829
0.00700446
0.00501812
0.00462709
0.00453507
0.00442422
0.00438338
0.004387
0.00438517
0.00438749
0.00438807
0.0043881
0.00438834
0.00438833
0.00438791
0.00438624
0.00438485
0.00438372
0.00438283
0.0043819
0.00438166
0.00438305
0.00438433
0.00438879
0.00439353
0.0043999
0.00440698
0.00441346
0.0072764
0.00688697
0.00650631
0.00632018
0.00618963
0.00621432
0.00622837
0.00630358
0.0064226
0.00658037
0.0068335
0.00681386
0.00699805
0.00688708
0.00694162
0.00608412
0.00608131
0.0052542
0.00526321
0.00510507
0.00504398
0.00503954
0.0055331
0.00674411
0.00742183
0.00736478
0.00656342
0.00467353
0.00481258
0.00444807
0.00445965
0.00438045
0.00437657
0.00437607
0.00437741
0.00437849
0.00437813
0.00437846
0.00437837
0.00437732
0.00437611
0.0043749
0.00437283
0.00437059
0.00436787
0.00436561
0.00436324
0.00436155
0.00435981
0.00435871
0.00435786
0.00435735
0.00435702
0.00435676
0.00752526
0.00715289
0.00676416
0.00649826
0.00622954
0.00624622
0.00620768
0.00627561
0.00629682
0.00637916
0.00638529
0.00643467
0.00624564
0.00626931
0.00570625
0.00577659
0.00548588
0.00534234
0.00527016
0.00517149
0.00535103
0.006189
0.00669698
0.00718047
0.00710728
0.00636024
0.00516566
0.00460187
0.00462661
0.00439603
0.00440233
0.00436795
0.00436586
0.00436758
0.00436873
0.0043691
0.00437003
0.00437023
0.00436944
0.00436801
0.00436681
0.00436525
0.00436338
0.00436138
0.00435935
0.00435701
0.00435554
0.00435384
0.00435283
0.00435223
0.00435196
0.00435171
0.00435145
0.00435095
0.00789566
0.00758874
0.00722529
0.00687908
0.00657961
0.00640326
0.00629402
0.00624833
0.0061943
0.00614352
0.00617383
0.00599567
0.00604879
0.00576528
0.00578083
0.00557628
0.00556344
0.00535469
0.00578584
0.00606761
0.00661891
0.00697947
0.00696009
0.0069226
0.00632878
0.00523179
0.00455974
0.00458924
0.00437736
0.00438347
0.00436744
0.00435851
0.0043583
0.00435981
0.00435976
0.00435962
0.00435984
0.00435963
0.00435869
0.00435818
0.00435717
0.00435584
0.00435415
0.00435208
0.00435088
0.00434883
0.00434856
0.00434799
0.00434785
0.00434823
0.00434928
0.00434996
0.00435104
0.0043512
0.00813369
0.00797912
0.00776534
0.00749873
0.00716757
0.00674965
0.00666613
0.00643448
0.00641707
0.0063418
0.0060803
0.00623935
0.00595357
0.00599664
0.0059376
0.00598107
0.00612952
0.00665669
0.00673573
0.00699097
0.00701454
0.00704981
0.00690637
0.0058319
0.00485933
0.00473404
0.00446458
0.00442635
0.00438328
0.00434546
0.0043537
0.00434987
0.00435105
0.00435113
0.00435066
0.00435097
0.00435071
0.00434992
0.00434921
0.00434831
0.0043474
0.00434642
0.00434477
0.00434342
0.00434213
0.00434172
0.00434221
0.00434133
0.00434542
0.00434417
0.0043483
0.00435081
0.00435319
0.00435425
0.00816095
0.00815099
0.00795476
0.00797123
0.00763585
0.00765202
0.00742654
0.0071741
0.00717855
0.00676984
0.00692723
0.00670565
0.0067554
0.00677633
0.00691815
0.00696783
0.00706887
0.0071322
0.00703001
0.00705705
0.00693304
0.00623554
0.00509994
0.0051156
0.00453874
0.0045424
0.00439079
0.00437942
0.00435077
0.00434101
0.00434372
0.00434417
0.0043436
0.00434339
0.00434318
0.00434197
0.00434167
0.0043413
0.00434071
0.00434008
0.00433949
0.00433769
0.00433643
0.00433617
0.00433589
0.00433814
0.00433697
0.00434216
0.00433849
0.00435123
0.00434755
0.00435873
0.0043584
0.00436089
0.00807954
0.00802517
0.00797421
0.0079387
0.00777479
0.00779746
0.00764689
0.00764259
0.00748529
0.00749841
0.00732834
0.00734312
0.00727173
0.00723362
0.00720918
0.0071428
0.00708621
0.00697809
0.00677155
0.00629778
0.00542691
0.00520408
0.00467346
0.00473481
0.00444367
0.00445186
0.00435427
0.00435248
0.00433754
0.00433605
0.00433805
0.00433618
0.00433533
0.00433518
0.00433481
0.00433511
0.00433495
0.00433442
0.00433384
0.00433328
0.00433223
0.00433125
0.00433215
0.00433161
0.00433708
0.00433387
0.00434609
0.00433855
0.00435684
0.00435215
0.00436841
0.00436459
0.00437822
0.00437696
0.00748271
0.0074844
0.00751496
0.00752577
0.00753808
0.00753027
0.00752801
0.00740613
0.00745396
0.00734783
0.0073041
0.00723613
0.00715877
0.00706411
0.00695209
0.00676337
0.0064807
0.00602281
0.00549608
0.00517971
0.00476643
0.00473881
0.00451969
0.0045295
0.0044185
0.00433912
0.0043495
0.00433273
0.00433196
0.00433211
0.00433188
0.0043315
0.00433218
0.00433238
0.00433132
0.00432929
0.00432822
0.00432728
0.00432722
0.00432698
0.00432751
0.00433276
0.00433066
0.00433952
0.00433844
0.00435446
0.00435315
0.00437466
0.00436843
0.00439193
0.00438745
0.00440492
0.00440359
0.00441032
0.00611513
0.00613922
0.0061387
0.00620952
0.00625785
0.0063823
0.00640113
0.00652467
0.00649589
0.00650523
0.00643705
0.00636325
0.00621971
0.00603761
0.00581077
0.00553789
0.005258
0.00503452
0.00479951
0.0046721
0.00455446
0.00446444
0.00445149
0.00435426
0.00435661
0.0043321
0.00433324
0.0043275
0.00432743
0.00432829
0.00432807
0.00432734
0.00432651
0.00432495
0.00432408
0.00432382
0.00432356
0.00432489
0.00432606
0.00432925
0.00433061
0.0043332
0.00433728
0.00434059
0.00437973
0.00437669
0.00441286
0.00440873
0.00444415
0.0044427
0.00446708
0.00446555
0.00447083
0.00447031
0.00526046
0.00521013
0.00519328
0.00519063
0.00522114
0.00523522
0.00526955
0.00528793
0.0052951
0.00528805
0.00525792
0.00520642
0.00512769
0.00503513
0.00493632
0.00479899
0.00471806
0.00456855
0.00452936
0.00442707
0.00443824
0.00437262
0.00437409
0.00433513
0.00433697
0.00432683
0.00432728
0.00432631
0.00432737
0.00432674
0.00432588
0.00432509
0.00432443
0.00432407
0.00432423
0.00432433
0.00432425
0.00432634
0.00432689
0.0043328
0.00432909
0.00436469
0.0043581
0.00441517
0.00440348
0.0044382
0.0044351
0.00446377
0.00445859
0.00449112
0.00448649
0.00453385
0.00453395
0.00455852
0.00478425
0.00474968
0.00470763
0.00471672
0.00470854
0.00471866
0.00472197
0.00472829
0.00472165
0.00471063
0.004702
0.00466655
0.00463303
0.0046132
0.00451335
0.00453098
0.00443263
0.00443872
0.00438501
0.0043816
0.00435038
0.00434971
0.0043317
0.00433212
0.00432717
0.00432685
0.0043269
0.00432685
0.00432716
0.00432712
0.00432595
0.00432552
0.00432475
0.00432459
0.00432469
0.00432521
0.00432745
0.00433142
0.00433109
0.00433477
0.0043734
0.00435224
0.00440431
0.00440404
0.00442218
0.00443406
0.00442873
0.00442121
0.00441291
0.00440837