/*--------------------------------*- C++ -*----------------------------------*\
  =========                 |
  \\      /  F ield         | OpenFOAM: The Open Source CFD Toolbox
   \\    /   O peration     | Website:  https://openfoam.org
    \\  /    A nd           | Version:  10
     \\/     M anipulation  |
\*---------------------------------------------------------------------------*/
FoamFile
{
    format      ascii;
    class       volScalarField;
    location    "0.599718";
    object      p;
}
// * * * * * * * * * * * * * * * * * * * * * * * * * * * * * * * * * * * * * //

dimensions      [1 -1 -2 0 0 0 0];

internalField   nonuniform List<scalar> 
15984
(
2.59216
2.59484
2.5969
2.5985
2.59974
2.60069
2.60144
2.6021
2.60274
2.60342
2.6042
2.60512
2.60621
2.60752
2.60902
2.61075
2.61268
2.61482
2.61714
2.61961
2.62222
2.62493
2.62772
2.63054
2.63336
2.63615
2.63888
2.64151
2.64401
2.64635
2.64852
2.65047
2.6522
2.65368
2.65489
2.65582
2.65645
2.65678
2.65679
2.6565
2.65587
2.65489
2.65359
2.65196
2.65
2.64772
2.64513
2.64222
2.63902
2.63553
2.63178
2.62776
2.6235
2.61899
2.59985
2.60263
2.60471
2.60635
2.60761
2.60849
2.60912
2.60965
2.61011
2.61056
2.61107
2.61168
2.61244
2.61336
2.61447
2.61578
2.61728
2.61898
2.62085
2.62289
2.62507
2.62736
2.62975
2.63219
2.63466
2.63713
2.63957
2.64194
2.64421
2.64636
2.64837
2.65019
2.65182
2.65323
2.6544
2.65531
2.65596
2.65631
2.65636
2.65613
2.65555
2.65464
2.6534
2.65183
2.64991
2.64765
2.64506
2.64213
2.63888
2.63527
2.63141
2.62718
2.62271
2.61791
2.60669
2.60955
2.61178
2.61348
2.61476
2.61565
2.61625
2.61668
2.617
2.61726
2.61753
2.61787
2.61832
2.61891
2.61965
2.62057
2.62167
2.62296
2.62442
2.62606
2.62784
2.62975
2.63177
2.63387
2.63602
2.6382
2.64038
2.64252
2.6446
2.64659
2.64846
2.65018
2.65174
2.6531
2.65426
2.65518
2.65584
2.65624
2.65634
2.65616
2.65566
2.65482
2.65364
2.65212
2.65023
2.64799
2.64538
2.6424
2.63906
2.63535
2.63129
2.62686
2.62208
2.61694
2.61255
2.6156
2.618
2.61983
2.62119
2.62214
2.62275
2.62313
2.62334
2.62346
2.62355
2.62365
2.62383
2.62411
2.62452
2.62509
2.62583
2.62674
2.62783
2.62908
2.6305
2.63206
2.63375
2.63555
2.63742
2.63934
2.6413
2.64324
2.64516
2.64702
2.64879
2.65045
2.65196
2.65331
2.65447
2.65541
2.65612
2.65658
2.65675
2.65664
2.65621
2.65544
2.65432
2.65284
2.65099
2.64874
2.6461
2.64305
2.63959
2.63572
2.63144
2.62674
2.62163
2.61611
2.61744
2.62075
2.62335
2.62538
2.62688
2.62793
2.6286
2.62896
2.62912
2.62914
2.62907
2.62898
2.62892
2.62894
2.62905
2.6293
2.6297
2.63027
2.63102
2.63194
2.63303
2.63428
2.63568
2.6372
2.63883
2.64054
2.64231
2.64411
2.6459
2.64766
2.64937
2.65099
2.65249
2.65386
2.65505
2.65604
2.65682
2.65735
2.6576
2.65756
2.65723
2.65653
2.65547
2.65403
2.65218
2.64992
2.64722
2.64408
2.64048
2.63641
2.63187
2.62685
2.62135
2.61537
2.62134
2.62494
2.62783
2.63011
2.63179
2.63299
2.63375
2.63416
2.6343
2.63426
2.63408
2.63383
2.63357
2.63335
2.6332
2.63317
2.63327
2.63353
2.63398
2.6346
2.6354
2.63638
2.63752
2.63882
2.64025
2.64178
2.64341
2.64509
2.64681
2.64852
2.6502
2.65182
2.65335
2.65475
2.65601
2.65708
2.65794
2.65856
2.65891
2.65896
2.65872
2.6581
2.65709
2.65567
2.65383
2.65154
2.64876
2.6455
2.64172
2.63741
2.63256
2.62716
2.6212
2.61469
2.62422
2.62818
2.6314
2.63395
2.6359
2.63729
2.6382
2.63869
2.63886
2.63879
2.63854
2.63816
2.63774
2.63731
2.63694
2.63665
2.6365
2.6365
2.63666
2.63701
2.63757
2.63832
2.63925
2.64036
2.64163
2.64305
2.64458
2.64619
2.64787
2.64957
2.65127
2.65293
2.65452
2.656
2.65735
2.65852
2.65949
2.66023
2.66068
2.66084
2.66067
2.66014
2.65918
2.65779
2.65594
2.65359
2.65072
2.64729
2.6433
2.63871
2.6335
2.62765
2.62116
2.61402
2.62606
2.63043
2.63403
2.63693
2.63918
2.64081
2.64191
2.64253
2.64277
2.64271
2.64241
2.64195
2.64139
2.6408
2.64023
2.63973
2.63934
2.63911
2.63905
2.63917
2.63951
2.64007
2.64084
2.64181
2.64298
2.64431
2.64579
2.64739
2.64908
2.65082
2.65258
2.65432
2.65601
2.6576
2.65907
2.66038
2.66148
2.66234
2.66293
2.66319
2.66311
2.66267
2.66175
2.66037
2.65849
2.65607
2.65308
2.64947
2.64522
2.64029
2.63467
2.62831
2.6212
2.61333
2.62687
2.63168
2.63572
2.63902
2.64161
2.64354
2.64487
2.64566
2.646
2.64598
2.64568
2.64517
2.64451
2.64378
2.64304
2.64236
2.64178
2.64134
2.64109
2.64105
2.64121
2.64161
2.64226
2.64314
2.64425
2.64556
2.64705
2.64868
2.65042
2.65225
2.65411
2.65598
2.65781
2.65956
2.66118
2.66265
2.66391
2.66492
2.66564
2.66602
2.66604
2.66567
2.6648
2.66342
2.6615
2.65898
2.65584
2.65201
2.64746
2.64216
2.63605
2.6291
2.62128
2.61257
2.62664
2.63194
2.63648
2.64021
2.6432
2.64546
2.64706
2.64807
2.64855
2.6486
2.64834
2.64779
2.64707
2.64623
2.64536
2.64452
2.64378
2.64318
2.64277
2.64258
2.64262
2.64291
2.64348
2.64433
2.64543
2.64677
2.64831
2.65003
2.65189
2.65385
2.65588
2.65792
2.65993
2.66186
2.66368
2.66533
2.66676
2.66794
2.66881
2.66932
2.66944
2.66913
2.66831
2.66692
2.66494
2.66231
2.65899
2.65491
2.65003
2.64429
2.63763
2.63002
2.62138
2.61171
2.62535
2.63125
2.6363
2.64051
2.64394
2.64659
2.6485
2.64975
2.6504
2.65057
2.65035
2.64981
2.64905
2.64814
2.64715
2.64619
2.64531
2.64458
2.64404
2.64375
2.64371
2.64394
2.64448
2.64533
2.64648
2.6479
2.64956
2.65142
2.65345
2.6556
2.65784
2.6601
2.66234
2.66451
2.66655
2.66841
2.67004
2.6714
2.67243
2.67308
2.67329
2.67305
2.67227
2.67085
2.66879
2.66603
2.6625
2.65814
2.65288
2.64667
2.63941
2.63103
2.62147
2.61076
2.62312
2.62959
2.63519
2.63995
2.64387
2.64691
2.64917
2.65068
2.65155
2.65187
2.65172
2.65121
2.65044
2.64947
2.6484
2.64734
2.64635
2.64552
2.64489
2.64452
2.64445
2.64468
2.64524
2.64617
2.64743
2.64899
2.65083
2.65289
2.65515
2.65754
2.66002
2.66254
2.66504
2.66748
2.66978
2.67188
2.67374
2.67529
2.67649
2.67727
2.67759
2.67741
2.67665
2.6752
2.67305
2.67013
2.66638
2.66169
2.656
2.64927
2.64136
2.63221
2.62165
2.60982
2.61994
2.62701
2.63325
2.63857
2.64301
2.64647
2.64912
2.65093
2.65203
2.6525
2.65245
2.65199
2.65121
2.65021
2.64908
2.64794
2.64688
2.64598
2.64529
2.6449
2.64484
2.6451
2.64575
2.6468
2.64824
2.65001
2.65208
2.65442
2.65697
2.65967
2.66246
2.66528
2.66807
2.67078
2.67336
2.67573
2.67783
2.6796
2.68097
2.68189
2.68231
2.68217
2.68143
2.67994
2.67767
2.67458
2.67055
2.66552
2.65937
2.65204
2.64346
2.63347
2.62225
2.60924
2.61588
2.62359
2.63052
2.63643
2.64141
2.64532
2.64836
2.65051
2.65185
2.6525
2.65256
2.65217
2.6514
2.65037
2.6492
2.648
2.64688
2.64593
2.64523
2.64484
2.64482
2.64515
2.64594
2.64718
2.64884
2.65088
2.65326
2.65593
2.65884
2.66191
2.66508
2.66827
2.67142
2.67445
2.67731
2.67995
2.68231
2.68429
2.68585
2.68691
2.68742
2.68732
2.68657
2.68502
2.68263
2.67933
2.67502
2.66959
2.66294
2.65493
2.64572
2.63476
2.62328
2.60903
2.61092
2.61943
2.62698
2.63356
2.63908
2.64352
2.64695
2.64943
2.65102
2.65185
2.65204
2.65172
2.65097
2.64993
2.64872
2.64748
2.64631
2.64533
2.64463
2.64428
2.64433
2.64479
2.64576
2.64725
2.6492
2.65158
2.65434
2.65742
2.66076
2.66427
2.66788
2.67149
2.67504
2.67844
2.68162
2.68454
2.68714
2.68935
2.69109
2.69228
2.69287
2.6928
2.69203
2.6904
2.68787
2.68435
2.67972
2.67387
2.66672
2.65801
2.64818
2.63621
2.62371
2.61005
2.60549
2.6145
2.62279
2.63
2.63612
2.64105
2.6449
2.64771
2.64957
2.6506
2.65091
2.65065
2.64991
2.64887
2.64763
2.64634
2.64515
2.64415
2.64347
2.64318
2.64333
2.64396
2.64519
2.64697
2.64928
2.65207
2.65529
2.65886
2.6627
2.66673
2.67083
2.67493
2.67893
2.68274
2.68629
2.68949
2.69232
2.69475
2.69666
2.69798
2.69864
2.69857
2.69777
2.69604
2.69333
2.68958
2.68461
2.67834
2.67072
2.66132
2.65099
2.63789
2.62147
2.60507
2.59918
2.60918
2.61793
2.62585
2.6326
2.63803
2.64226
2.64542
2.64755
2.64875
2.64918
2.64897
2.64825
2.64719
2.6459
2.64458
2.64335
2.64235
2.6417
2.6415
2.64177
2.64263
2.64415
2.6463
2.64903
2.65231
2.65606
2.66021
2.66464
2.66925
2.67393
2.67857
2.68307
2.68733
2.69126
2.69479
2.69785
2.70044
2.70251
2.70394
2.70465
2.70458
2.70371
2.70186
2.69897
2.69494
2.68966
2.68294
2.67499
2.6647
2.65294
2.64012
2.62372
2.60473
2.59242
2.60317
2.6128
2.62129
2.62854
2.63445
2.63912
2.64265
2.64499
2.64636
2.64688
2.64671
2.64598
2.64489
2.64354
2.64215
2.64089
2.63988
2.63928
2.63917
2.63959
2.64071
2.64259
2.64516
2.6484
2.65225
2.65663
2.66143
2.66654
2.67182
2.67715
2.68239
2.68744
2.69217
2.69651
2.70038
2.7037
2.70644
2.7086
2.7101
2.71085
2.71075
2.70979
2.70778
2.70468
2.70038
2.69476
2.68762
2.6791
2.6689
2.65464
2.6407
2.62284
2.60215
2.58526
2.59682
2.60723
2.61633
2.62413
2.6305
2.63558
2.6394
2.64197
2.64348
2.64407
2.64389
2.64311
2.64195
2.64052
2.63905
2.63772
2.6367
2.63613
2.63615
2.63674
2.63814
2.64042
2.64348
2.6473
2.65182
2.65692
2.66248
2.66836
2.6744
2.68045
2.68636
2.692
2.69726
2.70202
2.70622
2.70978
2.71266
2.71487
2.71641
2.71715
2.717
2.71592
2.71373
2.7104
2.70581
2.69979
2.69228
2.68298
2.67179
2.65768
2.6402
2.6204
2.5982
2.57787
2.59024
2.60138
2.61115
2.61945
2.62634
2.6317
2.63581
2.63854
2.64015
2.64076
2.64053
2.63967
2.63838
2.63682
2.63523
2.63381
2.63276
2.63222
2.63232
2.63311
2.63485
2.63756
2.64118
2.64567
2.65094
2.65687
2.66329
2.67004
2.67693
2.68379
2.69044
2.69673
2.70253
2.70773
2.71226
2.71605
2.71907
2.7213
2.72278
2.72347
2.72324
2.72201
2.71962
2.71603
2.7111
2.70463
2.6966
2.687
2.67395
2.65788
2.63937
2.61838
2.59485
2.57051
2.58365
2.59547
2.60583
2.61466
2.62194
2.62767
2.63194
2.63482
2.63646
2.63701
2.63665
2.63565
2.63416
2.63242
2.63066
2.62911
2.62799
2.62745
2.62763
2.62862
2.6307
2.63389
2.63813
2.64338
2.64952
2.65638
2.66379
2.67152
2.67936
2.68711
2.69457
2.70156
2.70794
2.71358
2.71843
2.72242
2.72554
2.72776
2.72914
2.72972
2.72936
2.72795
2.72534
2.72145
2.71605
2.70923
2.70122
2.68956
2.6748
2.6576
2.63793
2.61566
2.59074
2.56343
2.5773
2.58973
2.60061
2.60989
2.61752
2.62351
2.62792
2.63085
2.63245
2.63285
2.63233
2.63106
2.62929
2.62728
2.62529
2.62356
2.62232
2.62174
2.62198
2.62314
2.62557
2.62932
2.63423
2.64032
2.64743
2.65535
2.66386
2.67269
2.68159
2.69033
2.69867
2.70641
2.71339
2.71949
2.72463
2.72879
2.73196
2.73415
2.73538
2.73576
2.73524
2.73364
2.73082
2.72656
2.72071
2.71436
2.70429
2.69093
2.67511
2.65682
2.63594
2.61237
2.5861
2.55695
2.57146
2.58438
2.59567
2.60529
2.61319
2.61936
2.62384
2.62671
2.62817
2.62834
2.62752
2.6259
2.62373
2.62136
2.61907
2.61708
2.61568
2.615
2.61528
2.61666
2.61944
2.62374
2.62941
2.63643
2.64463
2.65373
2.66347
2.6735
2.68356
2.69335
2.70264
2.71117
2.71877
2.72532
2.73074
2.73503
2.7382
2.74031
2.74136
2.74149
2.74077
2.73898
2.73595
2.73145
2.72607
2.71808
2.70602
2.69165
2.67482
2.65542
2.63335
2.60854
2.58102
2.55129
2.56636
2.57958
2.59114
2.60099
2.60905
2.61529
2.61973
2.62246
2.62366
2.62348
2.62225
2.62013
2.61743
2.61457
2.61203
2.60971
2.60797
2.6072
2.60752
2.60908
2.61225
2.61711
2.62352
2.63109
2.6411
2.65157
2.66263
2.67389
2.68515
2.69608
2.70635
2.71571
2.72395
2.73092
2.73659
2.74097
2.74412
2.74609
2.74697
2.74681
2.74579
2.74382
2.74066
2.73648
2.73021
2.71999
2.70678
2.69152
2.67379
2.65343
2.63028
2.60435
2.57567
2.54635
2.56201
2.5754
2.58709
2.59704
2.60513
2.61132
2.61561
2.61808
2.6189
2.61829
2.61646
2.6136
2.61041
2.60683
2.60403
2.60147
2.59924
2.5984
2.59856
2.60027
2.60404
2.60911
2.61752
2.62384
2.63582
2.64837
2.6613
2.67407
2.68652
2.69853
2.70978
2.71995
2.72878
2.73615
2.74203
2.74646
2.74955
2.75137
2.75202
2.75157
2.75021
2.74801
2.74493
2.74109
2.7315
2.72031
2.70664
2.69063
2.67211
2.65091
2.62689
2.60002
2.57033
2.54173
2.55815
2.57173
2.58347
2.5934
2.60139
2.60739
2.61141
2.61351
2.61381
2.61258
2.61011
2.60646
2.60256
2.59921
2.59527
2.59269
2.59044
2.58898
2.58946
2.59189
2.59633
2.6034
2.61012
2.61903
2.63424
2.64463
2.65965
2.674
2.6878
2.70076
2.71288
2.72379
2.73317
2.74087
2.74691
2.75137
2.75436
2.75603
2.75646
2.75572
2.75385
2.75135
2.74949
2.74144
2.73172
2.71989
2.7057
2.6891
2.66997
2.6481
2.62336
2.59571
2.56518
2.53829
2.55485
2.56853
2.58021
2.58997
2.59772
2.60341
2.60704
2.60855
2.60822
2.60616
2.60315
2.59867
2.59413
2.59046
2.58514
2.58083
2.57651
2.57423
2.57423
2.57642
2.58157
2.58927
2.59803
2.61041
2.62526
2.64149
2.65942
2.67461
2.6888
2.7027
2.71569
2.72723
2.73703
2.74498
2.75112
2.75556
2.75847
2.76001
2.76029
2.75943
2.75745
2.75515
2.74946
2.7411
2.731
2.71867
2.704
2.68694
2.66733
2.64496
2.61973
2.59153
2.56039
2.53552
2.55183
2.56554
2.57709
2.58657
2.59398
2.59921
2.60212
2.60292
2.60205
2.59952
2.59489
2.58927
2.58231
2.57465
2.56699
2.56144
2.55732
2.55547
2.5562
2.55964
2.566
2.57527
2.58648
2.60111
2.61763
2.63857
2.6558
2.67379
2.69028
2.70484
2.71831
2.73025
2.74031
2.74839
2.75456
2.75896
2.7618
2.76326
2.76344
2.76254
2.75964
2.75564
2.74887
2.73991
2.72922
2.71649
2.70146
2.68406
2.66417
2.64154
2.61603
2.5875
2.55603
2.5341
2.5497
2.56303
2.57415
2.58306
2.58972
2.59416
2.59639
2.59615
2.59421
2.58973
2.58282
2.5741
2.56434
2.55482
2.54647
2.54055
2.53707
2.53645
2.53835
2.54333
2.55139
2.56234
2.57569
2.59208
2.61141
2.63361
2.6552
2.673
2.69101
2.70652
2.72052
2.73272
2.7429
2.751
2.75716
2.76151
2.76429
2.76566
2.76559
2.7637
2.76037
2.75484
2.74724
2.73777
2.72649
2.71334
2.69803
2.68043
2.66037
2.63765
2.61208
2.58356
2.55202
2.53314
2.54787
2.56063
2.57086
2.57868
2.58416
2.5876
2.58871
2.58744
2.58305
2.57565
2.56619
2.55552
2.5444
2.5337
2.52462
2.51802
2.51483
2.51488
2.51831
2.52522
2.53545
2.54875
2.56501
2.58394
2.60564
2.62998
2.65414
2.67359
2.69179
2.70788
2.72224
2.73457
2.74473
2.75278
2.75876
2.76303
2.76567
2.76662
2.76588
2.76373
2.75909
2.75261
2.74444
2.73446
2.72267
2.70914
2.69363
2.67593
2.65587
2.63324
2.60785
2.5795
2.54816
2.533
2.54561
2.55605
2.56503
2.57191
2.57756
2.57985
2.57866
2.57462
2.56797
2.55901
2.54816
2.53613
2.52361
2.5118
2.50236
2.49591
2.49357
2.49457
2.49943
2.50785
2.51989
2.53503
2.55374
2.57565
2.59979
2.62653
2.65113
2.67282
2.69211
2.70885
2.72337
2.73562
2.74564
2.7535
2.75932
2.76333
2.76551
2.766
2.76528
2.76184
2.75633
2.74926
2.74057
2.7301
2.71781
2.70391
2.68821
2.67044
2.65053
2.6281
2.60309
2.57525
2.54449
2.52936
2.54219
2.55325
2.56143
2.56621
2.56841
2.56834
2.56567
2.56033
2.55246
2.54242
2.53054
2.51833
2.50547
2.49373
2.48469
2.47954
2.47782
2.48002
2.4865
2.49688
2.51053
2.52709
2.5472
2.57075
2.59678
2.62609
2.64986
2.67345
2.69268
2.70937
2.72374
2.73581
2.74561
2.75325
2.75885
2.76227
2.76362
2.76503
2.76273
2.75853
2.75248
2.74492
2.73569
2.72469
2.71193
2.69762
2.68173
2.66392
2.64416
2.62207
2.59757
2.57044
2.54055
2.53028
2.54039
2.54831
2.55401
2.55714
2.55781
2.55625
2.55246
2.54647
2.53802
2.52836
2.51614
2.50283
2.49015
2.47884
2.4699
2.46434
2.46236
2.46543
2.47353
2.48569
2.50139
2.51889
2.54203
2.56827
2.59683
2.62795
2.65275
2.67422
2.69284
2.70928
2.72343
2.73526
2.74486
2.75228
2.75678
2.75908
2.76228
2.76164
2.75908
2.7542
2.74772
2.73959
2.7298
2.71829
2.70508
2.6903
2.67414
2.65632
2.63669
2.61503
2.59111
2.56482
2.53601
2.52698
2.53515
2.54143
2.54557
2.54741
2.54713
2.5448
2.54073
2.53529
2.52624
2.51549
2.50449
2.49237
2.47963
2.46742
2.45748
2.45176
2.45009
2.45421
2.46433
2.47822
2.49613
2.51723
2.54123
2.57075
2.60255
2.62494
2.65226
2.67359
2.69219
2.70851
2.7225
2.73409
2.74332
2.74981
2.75289
2.75715
2.75817
2.7575
2.75439
2.74906
2.74203
2.7333
2.72291
2.7109
2.69726
2.68206
2.66556
2.64771
2.62818
2.60692
2.5836
2.55823
2.53062
2.52306
2.52945
2.53414
2.53702
2.53804
2.53732
2.53499
2.53128
2.52402
2.51728
2.50818
2.49749
2.48531
2.47251
2.46039
2.45068
2.44516
2.44602
2.45324
2.46474
2.48029
2.49707
2.51912
2.54638
2.57497
2.59871
2.62791
2.65244
2.67311
2.69124
2.70707
2.72064
2.73164
2.73976
2.74679
2.74962
2.75267
2.75394
2.75278
2.74898
2.74308
2.73543
2.72606
2.71508
2.70257
2.68853
2.67298
2.65611
2.6381
2.61872
2.59772
2.57506
2.55055
2.52414
2.51853
2.52354
2.52716
2.52928
2.52998
2.52956
2.52818
2.52367
2.51895
2.51264
2.50419
2.49415
2.48294
2.47108
2.46112
2.45335
2.44954
2.45096
2.45818
2.46996
2.48613
2.50478
2.5282
2.55404
2.57499
2.60622
2.63076
2.65258
2.6727
2.69026
2.70552
2.71863
2.72951
2.73573
2.74069
2.74678
2.7481
2.74954
2.74727
2.74278
2.73625
2.72793
2.71793
2.70637
2.69336
2.67893
2.66311
2.64594
2.62767
2.60835
2.58765
2.56547
2.54168
2.51637
2.51406
2.51812
2.52116
2.52305
2.52409
2.52466
2.52313
2.51998
2.51597
2.51045
2.50318
2.4946
2.48524
2.47582
2.46735
2.46177
2.45972
2.46247
2.47077
2.48295
2.49966
2.51818
2.53635
2.55863
2.58655
2.61131
2.63368
2.65356
2.67256
2.6881
2.70184
2.71502
2.7251
2.73206
2.73866
2.74269
2.74409
2.74417
2.74097
2.73575
2.72853
2.71955
2.70893
2.69682
2.68333
2.66853
2.65246
2.63514
2.61664
2.59722
2.57676
2.555
2.53185
2.50724
2.51009
2.51363
2.51661
2.519
2.52046
2.52107
2.51987
2.5178
2.51478
2.5104
2.50475
2.49816
2.49117
2.48438
2.47833
2.47442
2.47384
2.4775
2.48574
2.49572
2.50962
2.52768
2.54987
2.5723
2.59434
2.61573
2.63664
2.65512
2.67206
2.6879
2.69979
2.7129
2.71263
2.72681
2.73475
2.73816
2.73911
2.73776
2.73382
2.72784
2.71995
2.71031
2.6991
2.68647
2.67253
2.65739
2.6411
2.62369
2.60515
2.58559
2.5652
2.54382
2.52119
2.4973
2.50694
2.5103
2.5137
2.51544
2.51779
2.51833
2.51809
2.51706
2.51525
2.51237
2.50851
2.50401
2.49932
2.49489
2.49113
2.48916
2.49039
2.49378
2.50196
2.51351
2.52758
2.54399
2.56253
2.58159
2.60178
2.6218
2.6413
2.65972
2.67492
2.68158
2.70198
2.70728
2.71483
2.72395
2.73074
2.73282
2.73284
2.73044
2.72575
2.71906
2.71045
2.7002
2.68845
2.67534
2.661
2.64555
2.62906
2.61158
2.5931
2.57361
2.5532
2.532
2.50981
2.48646
2.50502
2.50799
2.50997
2.5137
2.51566
2.51681
2.51742
2.51765
2.51719
2.51585
2.51384
2.5114
2.50883
2.50644
2.50487
2.50449
2.50667
2.5116
2.51932
2.52986
2.54273
2.55743
2.57367
2.59088
2.60865
2.62665
2.64291
2.65756
2.6748
2.69037
2.69614
2.70765
2.71354
2.72107
2.72521
2.72652
2.72546
2.72217
2.71667
2.70926
2.70006
2.68923
2.67696
2.66341
2.64871
2.63299
2.61633
2.59879
2.58037
2.56105
2.54078
2.51966
2.49771
2.47478
2.50176
2.50511
2.50875
2.51246
2.51427
2.51628
2.51803
2.51939
2.5202
2.52044
2.52022
2.51968
2.51905
2.51864
2.51888
2.52021
2.52336
2.52864
2.53598
2.54558
2.557
2.57002
2.58407
2.59873
2.61368
2.62919
2.646
2.66275
2.66845
2.68372
2.69264
2.70554
2.71126
2.71666
2.7189
2.7192
2.71713
2.71293
2.70669
2.69857
2.68875
2.67737
2.66462
2.65065
2.63562
2.61966
2.60285
2.58527
2.56692
2.54778
2.52778
2.50685
2.48503
2.46233
2.50278
2.50531
2.50782
2.51068
2.51362
2.5167
2.51944
2.52192
2.52406
2.52582
2.52724
2.52845
2.52959
2.53092
2.53277
2.53549
2.53947
2.54494
2.55201
2.56067
2.57078
2.5822
2.59437
2.60725
2.62032
2.63525
2.64777
2.66186
2.67157
2.68176
2.69177
2.70244
2.7071
2.71067
2.71183
2.71104
2.70792
2.70287
2.69584
2.687
2.67656
2.66462
2.6514
2.63703
2.62169
2.6055
2.58857
2.57095
2.55267
2.5337
2.51397
2.49335
2.47175
2.44916
2.50255
2.50066
2.50558
2.50993
2.51373
2.51772
2.52159
2.52507
2.52852
2.53168
2.53464
2.53743
2.54016
2.54301
2.54618
2.54991
2.55443
2.55992
2.56649
2.57419
2.58296
2.59266
2.6033
2.61516
2.62957
2.64265
2.6501
2.66064
2.67366
2.68297
2.69166
2.69833
2.70217
2.70401
2.70408
2.70206
2.69795
2.69199
2.68412
2.67459
2.66339
2.65098
2.63728
2.62251
2.60685
2.59043
2.57338
2.55575
2.53756
2.51877
2.49931
2.47903
2.45776
2.43539
2.49899
2.50248
2.50466
2.50994
2.51399
2.51931
2.5242
2.52881
2.53342
2.53789
2.54224
2.54646
2.5506
2.55471
2.55892
2.56338
2.56824
2.57364
2.57963
2.58636
2.59414
2.60352
2.61342
2.62298
2.63541
2.64498
2.65359
2.66579
2.67486
2.68303
2.6896
2.69408
2.69634
2.69691
2.69564
2.69241
2.68732
2.68036
2.67167
2.66133
2.64956
2.63647
2.62226
2.60705
2.59105
2.5744
2.55722
2.53958
2.52151
2.50295
2.48379
2.46386
2.44296
2.42091
2.49635
2.50021
2.50514
2.51024
2.51558
2.52142
2.52736
2.53291
2.53864
2.54432
2.54996
2.55547
2.56081
2.56597
2.571
2.57601
2.5811
2.58637
2.59194
2.59795
2.60474
2.61276
2.61987
2.63058
2.64143
2.64955
2.65835
2.66823
2.67596
2.68203
2.68654
2.68925
2.69017
2.68939
2.68675
2.6824
2.67613
2.66831
2.65864
2.6475
2.63496
2.6212
2.60637
2.59066
2.57426
2.55733
2.54002
2.52239
2.50447
2.4862
2.46744
2.44794
2.42747
2.40579
2.49602
2.4959
2.50429
2.51108
2.51736
2.524
2.5308
2.53733
2.54406
2.55093
2.55777
2.5645
2.57093
2.57702
2.58276
2.5882
2.59337
2.59841
2.60356
2.60944
2.61621
2.6246
2.62923
2.63651
2.64796
2.65446
2.66371
2.67022
2.67633
2.68045
2.68317
2.68422
2.68382
2.68163
2.67775
2.67205
2.66483
2.6558
2.64521
2.63314
2.61975
2.60519
2.58966
2.57335
2.55647
2.53922
2.52174
2.50415
2.48647
2.46862
2.4504
2.43151
2.41158
2.39033
2.49094
2.49882
2.50036
2.51199
2.51879
2.52704
2.53502
2.54209
2.54985
2.55789
2.56601
2.57378
2.58115
2.58799
2.59423
2.59997
2.60524
2.61047
2.61588
2.62147
2.62843
2.63472
2.64083
2.64737
2.65485
2.66136
2.66733
2.67239
2.67624
2.67868
2.6797
2.67937
2.67743
2.67388
2.6687
2.66179
2.65327
2.64315
2.63151
2.61842
2.60405
2.58858
2.57221
2.55518
2.53774
2.5201
2.50247
2.48496
2.46765
2.45042
2.43302
2.415
2.39585
2.37513
2.48615
2.49399
2.50188
2.51222
2.51812
2.53122
2.53937
2.54671
2.55571
2.56489
2.57409
2.58286
2.59114
2.59876
2.60566
2.6122
2.61832
2.6242
2.63038
2.63472
2.64092
2.64833
2.65152
2.6583
2.66258
2.66748
2.6709
2.67401
2.6763
2.67699
2.67653
2.67467
2.67131
2.66637
2.65993
2.65178
2.64193
2.63063
2.61781
2.60356
2.58806
2.57151
2.55416
2.53628
2.51819
2.50011
2.48238
2.46506
2.44827
2.43205
2.41585
2.39922
2.38125
2.36124
2.48233
2.49139
2.50068
2.51036
2.52097
2.53101
2.54283
2.55139
2.56184
2.57266
2.58262
2.59278
2.60245
2.61149
2.61964
2.627
2.63397
2.64069
2.64702
2.65109
2.65451
2.66167
2.66399
2.66801
2.67065
2.67306
2.67509
2.67616
2.67656
2.67574
2.67377
2.67046
2.6657
2.65949
2.65163
2.64219
2.63113
2.61851
2.60436
2.5888
2.57201
2.55421
2.5357
2.51682
2.49795
2.4795
2.46168
2.44487
2.42906
2.41418
2.39987
2.38537
2.36926
2.35026
2.47835
2.48865
2.49973
2.51132
2.52318
2.53497
2.54607
2.55827
2.56955
2.58323
2.59507
2.60632
2.61742
2.62775
2.63715
2.64563
2.65322
2.65984
2.66538
2.66888
2.67213
2.67445
2.67635
2.6779
2.67873
2.67935
2.67937
2.6788
2.6774
2.67511
2.67169
2.66699
2.6609
2.65334
2.64418
2.6335
2.62105
2.60704
2.59144
2.57441
2.55613
2.5369
2.51707
2.49705
2.47735
2.45849
2.44091
2.42487
2.41055
2.39778
2.38617
2.37479
2.36172
2.34439
2.47523
2.48667
2.49905
2.51212
2.52556
2.53903
2.55294
2.56734
2.58177
2.59717
2.61115
2.6241
2.63661
2.64809
2.65833
2.66724
2.67479
2.68077
2.68508
2.68742
2.6888
2.68924
2.68891
2.68848
2.68729
2.68603
2.68425
2.68196
2.67906
2.67526
2.67046
2.66446
2.6571
2.6483
2.63787
2.62582
2.61203
2.59654
2.57939
2.56073
2.54079
2.51993
2.49861
2.4773
2.45674
2.43758
2.42036
2.40558
2.39331
2.38338
2.37539
2.36842
2.36021
2.34615
2.47331
2.48587
2.49949
2.51399
2.52917
2.54489
2.56117
2.57793
2.59491
2.61198
2.62812
2.64329
2.65734
2.67002
2.68104
2.6902
2.69739
2.70246
2.70534
2.70635
2.70602
2.70448
2.70216
2.69946
2.69644
2.69317
2.6897
2.68582
2.68143
2.6763
2.6703
2.66312
2.65451
2.64458
2.63288
2.61952
2.60434
2.58732
2.5685
2.54808
2.52625
2.5036
2.48051
2.45785
2.43632
2.41684
2.40024
2.38707
2.37768
2.37176
2.3689
2.36777
2.36541
2.35673
2.47259
2.48635
2.50135
2.51742
2.53443
2.55224
2.57071
2.58964
2.60876
2.62766
2.64586
2.66289
2.67847
2.6923
2.70403
2.71337
2.72013
2.72424
2.72589
2.72561
2.72351
2.72007
2.71579
2.71097
2.70606
2.70106
2.69594
2.69056
2.68479
2.67842
2.67124
2.66305
2.65345
2.64237
2.62952
2.61491
2.59827
2.5797
2.55909
2.53678
2.51297
2.48821
2.46319
2.43882
2.41621
2.39628
2.38016
2.36875
2.36288
2.36147
2.36297
2.3651
2.36576
2.36424
2.47309
2.48809
2.50449
2.52217
2.54095
2.56065
2.581
2.60188
2.62291
2.64361
2.66354
2.68227
2.69933
2.71435
2.72676
2.73622
2.74249
2.7458
2.74658
2.74488
2.7411
2.73582
2.72964
2.72298
2.71627
2.7096
2.70295
2.69623
2.68926
2.68177
2.67357
2.66435
2.65392
2.64187
2.62804
2.61213
2.5942
2.57398
2.55163
2.52734
2.50127
2.47418
2.44692
2.4205
2.39621
2.37539
2.35939
2.34999
2.3469
2.34902
2.35405
2.35818
2.35755
2.34756
2.61426
2.6093
2.60413
2.59874
2.59314
2.58731
2.58124
2.57493
2.56835
2.56153
2.55448
2.54722
2.53976
2.53212
2.52434
2.51646
2.50852
2.50058
2.4927
2.48494
2.6128
2.60748
2.60186
2.59599
2.58985
2.58346
2.5768
2.56987
2.56267
2.55521
2.54753
2.53966
2.53163
2.52345
2.51518
2.50687
2.49856
2.49032
2.4822
2.47429
2.61147
2.60568
2.59957
2.59315
2.58642
2.5794
2.57209
2.5645
2.55663
2.54851
2.54019
2.53172
2.52313
2.51445
2.50574
2.49706
2.48845
2.47997
2.4717
2.46373
2.61019
2.60389
2.5972
2.59015
2.58275
2.57503
2.567
2.55869
2.55011
2.5413
2.53232
2.52325
2.51412
2.50498
2.49586
2.48697
2.47804
2.46947
2.46107
2.45322
2.60893
2.60202
2.59467
2.5869
2.57874
2.57023
2.5614
2.55229
2.54294
2.53341
2.52375
2.51407
2.50443
2.49482
2.48537
2.47627
2.46722
2.45858
2.45026
2.44255
2.60762
2.60002
2.5919
2.5833
2.57427
2.56486
2.55512
2.54514
2.53497
2.52465
2.51428
2.50398
2.49383
2.48388
2.47417
2.46485
2.45579
2.44725
2.43912
2.43161
2.60624
2.59782
2.58881
2.57924
2.5692
2.55874
2.54798
2.537
2.52589
2.51473
2.50361
2.4927
2.48207
2.47187
2.46192
2.45254
2.44359
2.43526
2.42755
2.42048
2.6047
2.59534
2.58528
2.57458
2.56334
2.55168
2.53971
2.52759
2.51544
2.50335
2.49145
2.47991
2.46885
2.45835
2.4484
2.43909
2.43044
2.4225
2.41529
2.4089
2.60298
2.59251
2.58121
2.56916
2.55653
2.54344
2.53006
2.5166
2.50325
2.49014
2.4774
2.46522
2.45376
2.44312
2.43324
2.42419
2.41601
2.40865
2.4022
2.39667
2.60102
2.58927
2.57651
2.56284
2.54855
2.53377
2.51874
2.50373
2.48897
2.47471
2.461
2.44814
2.43633
2.4258
2.41608
2.40752
2.39995
2.39341
2.38797
2.38362
2.59882
2.58563
2.57125
2.55572
2.53947
2.52267
2.50571
2.48887
2.47245
2.45658
2.44165
2.42784
2.41628
2.40583
2.39669
2.38886
2.38209
2.37656
2.37244
2.36953
2.59622
2.58176
2.56547
2.54829
2.5302
2.51085
2.4915
2.47254
2.45415
2.43571
2.41949
2.40342
2.39256
2.38409
2.375
2.3674
2.36162
2.35781
2.35541
2.35429
2.59392
2.57736
2.55895
2.54066
2.52083
2.49794
2.47529
2.45357
2.43241
2.41459
2.39433
2.37425
2.36892
2.35575
2.34965
2.3432
2.33961
2.3373
2.33709
2.33818
2.5915
2.57357
2.5507
2.52849
2.50675
2.48525
2.46144
2.43664
2.41256
2.389
2.37077
2.34597
2.34011
2.3282
2.31547
2.3135
2.31386
2.31593
2.31757
2.32056
2.5854
2.56722
2.54653
2.52395
2.49821
2.47082
2.44251
2.41308
2.38573
2.36073
2.33726
2.31605
2.30309
2.29098
2.27897
2.28043
2.28599
2.28746
2.29709
2.30529
2.58721
2.56485
2.54061
2.51365
2.48446
2.4535
2.42264
2.39047
2.35977
2.33382
2.3083
2.2875
2.27146
2.25878
2.24663
2.24765
2.25419
2.25738
2.27028
2.28677
2.58403
2.55986
2.53237
2.50313
2.47209
2.43909
2.40444
2.36994
2.33905
2.30808
2.28066
2.25741
2.24192
2.22833
2.22132
2.22367
2.22927
2.24726
2.23365
2.26412
2.5785
2.55261
2.52434
2.49362
2.46069
2.42547
2.3897
2.35199
2.3168
2.28463
2.25571
2.23194
2.21186
2.19917
2.19568
2.1961
2.20125
2.21671
2.22804
2.23965
2.57367
2.54657
2.51684
2.48466
2.45005
2.4136
2.37532
2.33649
2.29919
2.26482
2.23444
2.20839
2.18797
2.17478
2.16922
2.17089
2.17926
2.19225
2.21175
2.23011
2.56878
2.54018
2.50914
2.47579
2.44041
2.40296
2.36387
2.32362
2.28459
2.24939
2.2173
2.18928
2.16701
2.15227
2.14594
2.14742
2.16264
2.17442
2.19226
2.21655
2.56323
2.53322
2.50089
2.46648
2.43029
2.39241
2.3536
2.31529
2.27682
2.23843
2.20498
2.17575
2.15103
2.13381
2.12759
2.13055
2.14437
2.15958
2.18016
2.20737
2.55724
2.52595
2.49252
2.45731
2.42074
2.38317
2.34508
2.30691
2.26916
2.23259
2.19697
2.16685
2.14068
2.12114
2.11443
2.11842
2.13213
2.14891
2.1719
2.20116
2.5509
2.51845
2.484
2.44813
2.41136
2.37419
2.33707
2.30031
2.26396
2.22805
2.19407
2.1624
2.1357
2.11554
2.10615
2.11131
2.12458
2.14348
2.16797
2.19831
2.54439
2.51084
2.47549
2.43901
2.4021
2.36537
2.32935
2.29415
2.25961
2.22562
2.19264
2.16242
2.13543
2.11356
2.104
2.10922
2.12232
2.14233
2.16832
2.19937
2.53801
2.50346
2.46728
2.43027
2.39325
2.35697
2.322
2.28842
2.25617
2.22435
2.19309
2.16384
2.13755
2.11606
2.10818
2.11253
2.12569
2.14615
2.17288
2.20447
2.53199
2.4966
2.45973
2.42229
2.38524
2.34938
2.31534
2.2831
2.2532
2.22303
2.19436
2.16639
2.14189
2.12245
2.11458
2.11788
2.13248
2.15359
2.18053
2.21259
2.52655
2.49053
2.45315
2.4155
2.37859
2.34324
2.30992
2.27736
2.24642
2.2179
2.19087
2.16704
2.1466
2.13083
2.12436
2.12858
2.14045
2.16279
2.19157
2.2258
2.52183
2.48545
2.44779
2.41018
2.37368
2.33921
2.30713
2.27417
2.24413
2.21551
2.18906
2.16648
2.1482
2.13866
2.13433
2.14099
2.15451
2.17779
2.20698
2.24005
2.51775
2.48136
2.44377
2.40647
2.37069
2.33787
2.30151
2.27293
2.24333
2.21391
2.18803
2.16624
2.14999
2.14372
2.14337
2.15213
2.1694
2.1933
2.22268
2.2552
2.51402
2.47774
2.44063
2.4037
2.36875
2.33582
2.30454
2.2736
2.24339
2.21458
2.18862
2.16731
2.15296
2.14701
2.15294
2.16319
2.1837
2.20799
2.23908
2.27094
2.51097
2.47527
2.43838
2.40198
2.36819
2.33924
2.30461
2.27371
2.24648
2.21837
2.19223
2.17033
2.15728
2.15387
2.16107
2.1738
2.19648
2.22499
2.25391
2.28697
2.50799
2.47322
2.43721
2.40166
2.36988
2.34108
2.30324
2.27774
2.25118
2.22389
2.19893
2.17724
2.16419
2.16597
2.17122
2.18637
2.20973
2.23915
2.27225
2.30431
2.5047
2.47121
2.43635
2.40162
2.36943
2.34226
2.3087
2.27521
2.25693
2.23164
2.20753
2.18978
2.17657
2.174
2.18729
2.20115
2.22466
2.25403
2.28644
2.3194
2.50076
2.46884
2.43544
2.4017
2.36951
2.34176
2.3055
2.28529
2.26451
2.23857
2.21713
2.20257
2.18989
2.19485
2.2054
2.2153
2.24115
2.2703
2.30258
2.33543
2.49577
2.46558
2.43385
2.40146
2.36987
2.34071
2.3157
2.28317
2.26781
2.24688
2.22495
2.21463
2.21046
2.21348
2.21999
2.2333
2.2598
2.28766
2.31848
2.35081
2.48932
2.46089
2.43101
2.40025
2.36922
2.33891
2.31133
2.28626
2.27245
2.2506
2.23264
2.22686
2.22568
2.22804
2.23863
2.25416
2.27705
2.30382
2.3332
2.36472
2.48124
2.45431
2.42569
2.39638
2.36682
2.338
2.31028
2.28386
2.26219
2.25149
2.23637
2.23718
2.23866
2.24066
2.25608
2.27142
2.29156
2.32
2.34812
2.37757
2.47216
2.44588
2.41831
2.39029
2.3619
2.33417
2.30756
2.28274
2.26161
2.24615
2.23803
2.23369
2.23721
2.2506
2.27283
2.28768
2.30513
2.33431
2.35978
2.39042
2.46193
2.43626
2.40958
2.38224
2.35457
2.32728
2.30136
2.27747
2.25662
2.24231
2.23505
2.23381
2.23874
2.25018
2.26797
2.29559
2.30619
2.34398
2.37505
2.39599
2.4507
2.42549
2.39932
2.37247
2.34536
2.31857
2.29306
2.26892
2.24864
2.23565
2.22999
2.22911
2.23516
2.24766
2.26587
2.28929
2.31348
2.34393
2.3755
2.40544
2.4386
2.41375