/*--------------------------------*- C++ -*----------------------------------*\
  =========                 |
  \\      /  F ield         | OpenFOAM: The Open Source CFD Toolbox
   \\    /   O peration     | Website:  https://openfoam.org
    \\  /    A nd           | Version:  10
     \\/     M anipulation  |
\*---------------------------------------------------------------------------*/
FoamFile
{
    format      ascii;
    class       surfaceScalarField;
    location    "0.599718";
    object      phi;
}
// * * * * * * * * * * * * * * * * * * * * * * * * * * * * * * * * * * * * * //

dimensions      [1 0 -1 0 0 0 0];

internalField   nonuniform List<scalar> 
31672
(
0.000398745
-3.4942e-05
0.000396439
-3.7053e-05
0.000394066
-3.91846e-05
0.000391645
-4.13744e-05
0.000389166
-4.35558e-05
0.000386601
-4.56968e-05
0.000383929
-4.775e-05
0.00038116
-4.97373e-05
0.000378291
-5.15936e-05
0.000375336
-5.33049e-05
0.000372303
-5.48452e-05
0.000369175
-5.62022e-05
0.00036598
-5.7347e-05
0.000362726
-5.82807e-05
0.000359429
-5.89895e-05
0.000356103
-5.94778e-05
0.000352767
-5.97457e-05
0.00034942
-5.98024e-05
0.000346098
-5.96606e-05
0.000342799
-5.93403e-05
0.000339541
-5.88577e-05
0.000336361
-5.82421e-05
0.000333266
-5.75214e-05
0.000330287
-5.67215e-05
0.000327435
-5.58768e-05
0.000324731
-5.50139e-05
0.000322201
-5.4167e-05
0.000319859
-5.33627e-05
0.000317733
-5.26315e-05
0.00031584
-5.19974e-05
0.000314201
-5.14845e-05
0.000312839
-5.11133e-05
0.000311774
-5.08987e-05
0.000311027
-5.08511e-05
0.000310615
-5.09756e-05
0.000310556
-5.1271e-05
0.000310873
-5.17327e-05
0.000311568
-5.23481e-05
0.000312659
-5.30912e-05
0.000314149
-5.39422e-05
0.000316064
-5.48727e-05
0.000318406
-5.58424e-05
0.000321166
-5.68177e-05
0.000324351
-5.77325e-05
0.000327957
-5.85505e-05
0.000331973
-5.92e-05
0.000336397
-5.96442e-05
0.000341194
-5.97819e-05
0.000346364
-5.95929e-05
0.00035184
-5.89407e-05
0.000357628
-5.78491e-05
0.000363629
-5.61417e-05
0.000369828
-5.38424e-05
-5.08185e-05
0.000376118
0.000397452
-3.23256e-05
0.000395122
-3.39946e-05
0.00039268
-3.57891e-05
0.000390333
-3.76173e-05
0.00038789
-3.94699e-05
0.000385337
-4.13225e-05
0.000382656
-4.31517e-05
0.000379973
-4.48988e-05
0.000377229
-4.65559e-05
0.000374427
-4.80992e-05
0.000371552
-4.94997e-05
0.000368603
-5.07308e-05
0.000365588
-5.17876e-05
0.000362516
-5.2646e-05
0.000359398
-5.33035e-05
0.000356249
-5.37585e-05
0.000353063
-5.40098e-05
0.000349867
-5.40691e-05
0.000346667
-5.39464e-05
0.000343474
-5.36611e-05
0.000340305
-5.32321e-05
0.000337186
-5.2687e-05
0.000334131
-5.20531e-05
0.000331154
-5.13591e-05
0.000328281
-5.06374e-05
0.000325532
-4.99197e-05
0.000322925
-4.9236e-05
0.000320486
-4.86189e-05
0.000318237
-4.8096e-05
0.000316201
-4.76949e-05
0.000314406
-4.74383e-05
0.000312881
-4.73477e-05
0.000311647
-4.74386e-05
0.000310728
-4.77209e-05
0.000310148
-4.81995e-05
0.00030993
-4.88734e-05
0.000310102
-4.97354e-05
0.000310668
-5.07728e-05
0.000311659
-5.19575e-05
0.000313087
-5.3265e-05
0.000314965
-5.46758e-05
0.00031731
-5.61398e-05
0.000320124
-5.76097e-05
0.000323418
-5.90391e-05
0.000327181
-6.03659e-05
0.000331427
-6.1535e-05
0.000336132
-6.24675e-05
0.000341278
-6.311e-05
0.000346875
-6.33623e-05
0.000352825
-6.31792e-05
0.000359164
-6.24392e-05
0.000365786
-6.10922e-05
0.000372659
-5.90591e-05
-5.6217e-05
0.000379676
0.00039665
-2.96189e-05
0.00039411
-3.09246e-05
0.000391581
-3.23478e-05
0.000389075
-3.38521e-05
0.000386581
-3.54142e-05
0.000384091
-3.70037e-05
0.000381544
-3.85916e-05
0.00037898
-4.0135e-05
0.000376345
-4.16095e-05
0.000373656
-4.29925e-05
0.000370911
-4.42569e-05
0.0003681
-4.53827e-05
0.000365243
-4.63399e-05
0.000362329
-4.71256e-05
0.000359372
-4.77258e-05
0.000356374
-4.81388e-05
0.000353341
-4.83656e-05
0.000350278
-4.84142e-05
0.000347196
-4.82962e-05
0.000344102
-4.8029e-05
0.00034101
-4.76357e-05
0.000337938
-4.71405e-05
0.000334898
-4.6574e-05
0.000331914
-4.59651e-05
0.000329006
-4.53487e-05
0.000326187
-4.4756e-05
0.000323486
-4.4221e-05
0.000320927
-4.37757e-05
0.000318536
-4.34507e-05
0.000316344
-4.32737e-05
0.000314374
-4.32696e-05
0.000312661
-4.34588e-05
0.000311235
-4.38578e-05
0.000310122
-4.44774e-05
0.000309353
-4.53214e-05
0.000308955
-4.63886e-05
0.000308962
-4.76699e-05
0.000309383
-4.91528e-05
0.000310253
-5.08066e-05
0.000311595
-5.26031e-05
0.000313425
-5.45301e-05
0.000315766
-5.65263e-05
0.000318626
-5.85413e-05
0.000322019
-6.05283e-05
0.000325948
-6.24177e-05
0.000330419
-6.4156e-05
0.000335428
-6.56522e-05
0.000340955
-6.68401e-05
0.000346992
-6.76275e-05
0.000353486
-6.79288e-05
0.00036042
-6.76411e-05
0.000367717
-6.66912e-05
0.0003753
-6.49542e-05
-6.24044e-05
0.00038316
0.000395803
-2.68653e-05
0.000393253
-2.78157e-05
0.000390763
-2.88958e-05
0.000388233
-3.0106e-05
0.000385725
-3.13857e-05
0.000383202
-3.27247e-05
0.000380665
-3.40824e-05
0.000378131
-3.54291e-05
0.000375552
-3.67442e-05
0.000372958
-3.79774e-05
0.000370326
-3.91192e-05
0.000367655
-4.0133e-05
0.000364938
-4.10049e-05
0.000362175
-4.17176e-05
0.000359365
-4.22561e-05
0.000356512
-4.26208e-05
0.000353619
-4.28138e-05
0.000350686
-4.28384e-05
0.000347707
-4.27098e-05
0.000344701
-4.24439e-05
0.000341672
-4.20661e-05
0.000338635
-4.16003e-05
0.000335606
-4.10797e-05
0.000332598
-4.05359e-05
0.00032963
-4.0003e-05
0.000326729
-3.95164e-05
0.000323914
-3.91126e-05
0.000321214
-3.88239e-05
0.00031866
-3.86842e-05
0.000316282
-3.87223e-05
0.000314115
-3.89641e-05
0.000312189
-3.94315e-05
0.000310543
-4.01409e-05
0.000309211
-4.11038e-05
0.000308227
-4.23237e-05
0.000307623
-4.3799e-05
0.000307436
-4.5519e-05
0.000307689
-4.74701e-05
0.000308418
-4.96221e-05
0.000309653
-5.19443e-05
0.000311413
-5.44212e-05
0.000313734
-5.69934e-05
0.000316627
-5.96014e-05
0.000320111
-6.21978e-05
0.000324198
-6.47095e-05
0.000328897
-6.7074e-05
0.000334203
-6.91954e-05
0.000340138
-7.10079e-05
0.000346639
-7.23941e-05
0.000353711
-7.32617e-05
0.000361308
-7.35064e-05
0.000369356
-7.30111e-05
0.000377797
-7.16645e-05
-6.93727e-05
0.000386505
0.00039536
-2.40776e-05
0.000392713
-2.46613e-05
0.000390075
-2.54309e-05
0.000387481
-2.63441e-05
0.000384905
-2.73589e-05
0.00038238
-2.84713e-05
0.000379857
-2.96209e-05
0.000377346
-3.07965e-05
0.000374848
-3.19458e-05
0.000372337
-3.30588e-05
0.000369812
-3.40775e-05
0.00036726
-3.49925e-05
0.00036467
-3.57814e-05
0.000362044
-3.64175e-05
0.000359384
-3.68977e-05
0.000356674
-3.72122e-05
0.000353915
-3.73565e-05
0.000351096
-3.73432e-05
0.00034822
-3.71893e-05
0.00034529
-3.69061e-05
0.000342311
-3.65229e-05
0.000339291
-3.60654e-05
0.000336255
-3.55676e-05
0.00033321
-3.50645e-05
0.000330169
-3.45934e-05
0.000327163
-3.41916e-05
0.000324216
-3.38987e-05
0.000321354
-3.37503e-05
0.000318612
-3.3781e-05
0.000316025
-3.40236e-05
0.000313626
-3.45039e-05
0.00031146
-3.5246e-05
0.000309567
-3.62672e-05
0.000307983
-3.75787e-05
0.000306751
-3.91844e-05
0.000305909
-4.10818e-05
0.000305497
-4.32601e-05
0.000305553
-4.57038e-05
0.000306109
-4.83833e-05
0.00030721
-5.12657e-05
0.000308879
-5.4332e-05
0.000311157
-5.75216e-05
0.00031406
-6.07748e-05
0.000317618
-6.40366e-05
0.000321857
-6.72311e-05
0.000326783
-7.02932e-05
0.00033241
-7.31167e-05
0.000338744
-7.56257e-05
0.000345748
-7.76915e-05
0.000353441
-7.92228e-05
0.000361741
-8.00759e-05
0.000370595
-8.01264e-05
0.000379946
-7.92451e-05
-7.72942e-05
0.000389658
0.000395231
-2.12334e-05
0.000392423
-2.147e-05
0.000389655
-2.19308e-05
0.000386962
-2.25591e-05
0.000384297
-2.33465e-05
0.000381731
-2.4234e-05
0.000379184
-2.52114e-05
0.000376701
-2.62196e-05
0.00037423
-2.72374e-05
0.000371793
-2.82226e-05
0.000369353
-2.91407e-05
0.00036691
-2.99665e-05
0.000364453
-3.06741e-05
0.000361964
-3.12386e-05
0.000359439
-3.16516e-05
0.000356858
-3.19029e-05
0.000354223
-3.19966e-05
0.000351524
-3.19434e-05
0.000348748
-3.17385e-05
0.000345887
-3.14163e-05
0.000342952
-3.10075e-05
0.00033995
-3.05333e-05
0.000336886
-3.00335e-05
0.000333779
-2.95455e-05
0.000330648
-2.91109e-05
0.000327515
-2.87707e-05
0.000324409
-2.85665e-05
0.000321356
-2.8538e-05
0.000318398
-2.87233e-05
0.000315571
-2.91562e-05
0.000312914
-2.98666e-05
0.000310473
-3.08784e-05
0.000308295
-3.22105e-05
0.000306423
-3.38751e-05
0.000304906
-3.58758e-05
0.000303789
-3.82096e-05
0.000303118
-4.08659e-05
0.00030294
-4.38265e-05
0.000303291
-4.70646e-05
0.000304228
-5.05456e-05
0.000305774
-5.42305e-05
0.000307971
-5.80906e-05
0.00031087
-6.20432e-05
0.000314482
-6.60276e-05
0.000318856
-6.99758e-05
0.000324002
-7.38024e-05
0.000329946
-7.74128e-05
0.000336685
-8.0706e-05
0.00034423
-8.35527e-05
0.000352559
-8.58456e-05
0.000361612
-8.74095e-05
0.000371371
-8.81225e-05
0.000381723
-8.78017e-05
-8.62917e-05
0.000392554
0.000395317
-1.83255e-05
0.000392336
-1.8229e-05
0.000389426
-1.83904e-05
0.00038658
-1.87665e-05
0.000383835
-1.93235e-05
0.000381173
-2.00241e-05
0.000378604
-2.08318e-05
0.000376109
-2.17031e-05
0.000373671
-2.26031e-05
0.000371295
-2.34787e-05
0.000368938
-2.4312e-05
0.000366602
-2.50573e-05
0.000364268
-2.569e-05
0.000361917
-2.61873e-05
0.000359527
-2.65323e-05
0.000357087
-2.6717e-05
0.000354578
-2.67451e-05
0.000351976
-2.66189e-05
0.000349289
-2.6364e-05
0.000346502
-2.59909e-05
0.000343605
-2.55213e-05
0.000340603
-2.50024e-05
0.000337509
-2.44733e-05
0.000334332
-2.39725e-05
0.000331095
-2.35455e-05
0.000327818
-2.32393e-05
0.000324525
-2.30985e-05
0.000321256
-2.31673e-05
0.000318047
-2.3487e-05
0.000314941
-2.40947e-05
0.000311985
-2.5023e-05
0.000309227
-2.62978e-05
0.000306722
-2.79395e-05
0.000304522
-2.99603e-05
0.000302678
-3.23646e-05
0.000301244
-3.5149e-05
0.000300273
-3.83024e-05
0.000299818
-4.1805e-05
0.000299923
-4.5632e-05
0.000300652
-4.97431e-05
0.00030204
-5.40952e-05
0.000304134
-5.8671e-05
0.000306983
-6.33765e-05
0.000310629
-6.81493e-05
0.000315108
-7.29184e-05
0.000320458
-7.75927e-05
0.000326707
-8.20798e-05
0.000333861
-8.62549e-05
0.00034195
-8.99966e-05
0.000350939
-9.31628e-05
0.000360828
-9.55765e-05
0.000371547
-9.7075e-05
0.000382999
-9.74455e-05
-9.65044e-05
0.000395094
0.000395633
-1.53335e-05
0.000392416
-1.49133e-05
0.000389299
-1.47979e-05
0.000386298
-1.49374e-05
0.000383419
-1.52963e-05
0.000380682
-1.58297e-05
0.000378059
-1.64951e-05
0.000375554
-1.72514e-05
0.000373152
-1.80468e-05
0.000370827
-1.88399e-05
0.000368562
-1.96025e-05
0.000366331
-2.02781e-05
0.00036412
-2.08429e-05
0.000361902
-2.12751e-05
0.000359654
-2.15508e-05
0.000357354
-2.16655e-05
0.000354975
-2.16153e-05
0.000352496
-2.14094e-05
0.000349895
-2.10653e-05
0.000347165
-2.0613e-05
0.000344305
-2.00702e-05
0.000341305
-1.94806e-05
0.000338167
-1.88854e-05
0.000334901
-1.83353e-05
0.000331531
-1.78843e-05
0.000328079
-1.75799e-05
0.000324574
-1.74726e-05
0.000321051
-1.76119e-05
0.000317552
-1.80428e-05
0.000314127
-1.88067e-05
0.000310826
-1.9939e-05
0.000307709
-2.14684e-05
0.000304835
-2.34163e-05
0.000302258
-2.57959e-05
0.00030004
-2.86118e-05
0.000298244
-3.18603e-05
0.000296927
-3.55296e-05
0.000296148
-3.95999e-05
0.000295965
-4.40432e-05
0.000296437
-4.88226e-05
0.000297621
-5.38909e-05
0.000299564
-5.92205e-05
0.000302332
-6.47407e-05
0.000305972
-7.03694e-05
0.000310534
-7.60304e-05
0.00031606
-8.16456e-05
0.000322589
-8.70949e-05
0.000330153
-9.22747e-05
0.000338781
-9.70229e-05
0.000348479
-0.000101219
0.000359223
-0.000104622
0.000370949
-0.000107052
0.000383606
-0.000108272
-0.000108032
0.000397042
0.000396133
-1.2236e-05
0.000392738
-1.15417e-05
0.000389395
-1.1131e-05
0.000386214
-1.10761e-05
0.000383194
-1.12486e-05
0.000380344
-1.1646e-05
0.000377651
-1.21977e-05
0.000375118
-1.28607e-05
0.000372714
-1.35808e-05
0.000370426
-1.43124e-05
0.000368233
-1.50148e-05
0.000366108
-1.56326e-05
0.000364022
-1.61469e-05
0.000361946
-1.65173e-05
0.000359846
-1.6726e-05
0.000357688
-1.67602e-05
0.000355448
-1.66218e-05
0.000353092
-1.63189e-05
0.000350589
-1.5869e-05
0.000347925
-1.52999e-05
0.000345093
-1.46522e-05
0.000342076
-1.39542e-05
0.000338878
-1.32611e-05
0.000335513
-1.2629e-05
0.000331987
-1.21114e-05
0.000328327
-1.17704e-05
0.000324571
-1.16627e-05
0.000320754
-1.18414e-05
0.000316926
-1.23571e-05
0.00031314
-1.32554e-05
0.000309451
-1.45752e-05
0.000305925
-1.63476e-05
0.000302626
-1.85969e-05
0.000299619
-2.13366e-05
0.000296974
-2.45713e-05
0.00029476
-2.82974e-05
0.000293044
-3.25021e-05
0.00029189
-3.71643e-05
0.000291366
-4.22552e-05
0.000291531
-4.77398e-05
0.000292468
-5.35707e-05
0.000294216
-5.96983e-05
0.000296853
-6.60903e-05
0.000300435
-7.26424e-05
0.000305031
-7.9275e-05
0.000310687
-8.59186e-05
0.000317469
-9.24374e-05
0.000325421
-9.87429e-05
0.000334584
-0.000104637
0.000344986
-0.00011002
0.000356584
-0.000114552
0.000369371
-0.000118091
0.000383238
-0.000120308
-0.000120911
0.000398031
0.000396753
-9.02328e-06
0.000393117
-7.99544e-06
0.000389507
-7.4392e-06
0.000386203
-7.14678e-06
0.000382976
-7.20311e-06
0.000379968
-7.46474e-06
0.000377219
-7.9383e-06
0.000374637
-8.5284e-06
0.000372217
-9.20779e-06
0.000369963
-9.91276e-06
0.000367858
-1.05726e-05
0.000365853
-1.11592e-05
0.000363919
-1.16262e-05
0.000362009
-1.19415e-05
0.000360078
-1.208e-05
0.000358085
-1.20267e-05
0.000355994
-1.17847e-05
0.00035377
-1.13642e-05
0.000351378
-1.07831e-05
0.00034879
-1.00705e-05
0.000345982
-9.27159e-06
0.000342948
-8.42693e-06
0.000339681
-7.59509e-06
0.000336185
-6.83487e-06
0.00033248
-6.21139e-06
0.000328586
-5.7888e-06
0.000324543
-5.63824e-06
0.000320391
-5.81875e-06
0.000316182
-6.38746e-06
0.000311985
-7.39598e-06
0.000307855
-8.88566e-06
0.000303863
-1.08895e-05
0.000300088
-1.34336e-05
0.000296597
-1.65316e-05
0.000293465
-2.01906e-05
0.000290773
-2.44065e-05
0.000288597
-2.91657e-05
0.000287009
-3.44447e-05
0.000286087
-4.02148e-05
0.00028589
-4.64399e-05
0.000286515
-5.30708e-05
0.00028801
-6.00607e-05
0.000290455
-6.73738e-05
0.000293924
-7.49161e-05
0.000298498
-8.26016e-05
0.000304238
-9.03642e-05
0.000311227
-9.80667e-05
0.000319509
-0.000105619
0.000329213
-0.000112809
0.000340228
-0.000119517
0.000352649
-0.000125343
0.000366423
-0.000130136
0.000381399
-0.000133445
-0.000134972
0.000397355
0.00039773
-5.63376e-06
0.000393676
-4.37369e-06
0.000389861
-3.54527e-06
0.000386174
-3.17339e-06
0.000382802
-3.07854e-06
0.000379622
-3.30236e-06
0.000376762
-3.70351e-06
0.000374122
-4.28705e-06
0.000371749
-4.95309e-06
0.000369633
-5.63521e-06
0.000367654
-6.29451e-06
0.000365755
-6.86402e-06
0.000363913
-7.30108e-06
0.000362123
-7.56391e-06
0.000360355
-7.63206e-06
0.000358545
-7.49053e-06
0.000356631
-7.12943e-06
0.000354566
-6.57154e-06
0.000352301
-5.83014e-06
0.000349794
-4.93756e-06
0.000347019
-3.94327e-06
0.000343964
-2.90578e-06
0.000340612
-1.87967e-06
0.000336966
-9.37176e-07
0.000333052
-1.56685e-07
0.000328895
3.91213e-07
0.000324531
6.30659e-07
0.000320003
4.90997e-07
0.000315367
-9.16816e-08
0.000310693
-1.17343e-06
0.000306046
-2.80272e-06
0.000301513
-5.02183e-06
0.000297187
-7.86087e-06
0.000293145
-1.13238e-05
0.000289468
-1.5416e-05
0.000286239
-2.01334e-05
0.000283544
-2.54636e-05
0.000281464
-3.13845e-05
0.000280076
-3.78631e-05
0.00027946
-4.4863e-05
0.000279701
-5.23407e-05
0.000280877
-6.0236e-05
0.00028307
-6.85298e-05
0.000286361
-7.71285e-05
0.000290848
-8.59472e-05
0.000296602
-9.49223e-05
0.000303723
-0.000103915
0.000312288
-0.00011285
0.000322354
-0.000121461
0.000333937
-0.000129602
0.000347083
-0.000136855
0.000361517
-0.000142921
0.000377244
-0.00014732
-0.00014959
0.000393634
0.000398719
-2.04956e-06
0.000394407
-5.23937e-07
0.000390117
4.15184e-07
0.000386244
9.30482e-07
0.000382546
1.07278e-06
0.000379279
8.9313e-07
0.00037624
4.73162e-07
0.000373626
-1.19802e-07
0.000371269
-7.93562e-07
0.000369116
-1.52201e-06
0.000367161
-2.19594e-06
0.00036537
-2.78445e-06
0.00036376
-3.20598e-06
0.000362249
-3.42827e-06
0.000360724
-3.43145e-06
0.000359159
-3.1891e-06
0.000357477
-2.68993e-06
0.000355581
-1.96545e-06
0.000353423
-1.0233e-06
0.000350974
8.24772e-08
0.000348214
1.31769e-06
0.000345134
2.60679e-06
0.000341696
3.88771e-06
0.000337896
5.07083e-06
0.000333749
6.07436e-06
0.000329287
6.80806e-06
0.00032455
7.19173e-06
0.000319588
7.14492e-06
0.000314461
6.59322e-06
0.000309247
5.47047e-06
0.000304032
3.71965e-06
0.000298911
1.30085e-06
0.00029396
-1.80892e-06
0.000289282
-5.62972e-06
0.000284977
-1.01675e-05
0.000281138
-1.54073e-05
0.000277854
-2.13316e-05
0.000275208
-2.79186e-05
0.000273289
-3.51365e-05
0.000272182
-4.2948e-05
0.000271976
-5.13101e-05
0.000272764
-6.01662e-05
0.000274626
-6.9485e-05
0.000277659
-7.9203e-05
0.00028198
-8.92347e-05
0.000287631
-9.9501e-05
0.000294822
-0.000109893
0.000303513
-0.000120307
0.000313872
-0.000130462
0.000325764
-0.000140028
0.000339169
-0.00014874
0.000353534
-0.00015565
0.000369138
-0.000161195
-0.000163945
0.000385113
0.000399979
1.80606e-06
0.000395115
3.5415e-06
0.000390512
4.58115e-06
0.000386263
5.17688e-06
0.000382319
5.29383e-06
0.000378857
5.11934e-06
0.000375723
4.63368e-06
0.000373008
3.98498e-06
0.000370579
3.19734e-06
0.000368516
2.41397e-06
0.000366749
1.67604e-06
0.000365188
1.05359e-06
0.000363789
6.21869e-07
0.000362471
4.29099e-07
0.000361149
4.92208e-07
0.000359789
8.49572e-07
0.000358328
1.48874e-06
0.000356683
2.41475e-06
0.000354718
3.59178e-06
0.000352402
4.97431e-06
0.000349676
6.49905e-06
0.000346551
8.11285e-06
0.000342997
9.71211e-06
0.000339013
1.12068e-05
0.000334611
1.24992e-05
0.000329811
1.34907e-05
0.000324657
1.40858e-05
0.000319203
1.4191e-05
0.000313526
1.37195e-05
0.000307712
1.25975e-05
0.000301849
1.07634e-05
0.000296036
8.17315e-06
0.000290382
4.79482e-06
0.000284999
6.13435e-07
0.000279984
-4.36942e-06
0.000275449
-1.01482e-05
0.000271492
-1.66933e-05
0.000268206
-2.39754e-05
0.000265687
-3.19654e-05
0.000264015
-4.06233e-05
0.000263285
-4.99074e-05
0.000263605
-5.97669e-05
0.000265055
-7.01666e-05
0.000267747
-8.10566e-05
0.000271777
-9.23662e-05
0.000277278
-0.000104004
0.000284342
-0.000115908
0.000293066
-0.000127832
0.000303374
-0.00013958
0.000315156
-0.000150282
0.000328089
-0.000160322
0.000341334
-0.000167237
0.000356054
-0.000174421
-0.000176202
0.000369082
0.000401316
6.09535e-06
0.000395834
7.80428e-06
0.000390924
8.97633e-06
0.000386241
9.52614e-06
0.000382124
9.65679e-06
0.000378297
9.32541e-06
0.000375075
8.77984e-06
0.000372242
7.964e-06
0.00036989
7.07773e-06
0.000367875
6.14477e-06
0.000366257
5.30719e-06
0.000364859
4.61087e-06
0.000363704
4.15239e-06
0.000362696
3.95065e-06
0.000361717
4.08209e-06
0.000360641
4.55304e-06
0.000359372
5.37832e-06
0.00035789
6.52995e-06
0.000356114
7.98202e-06
0.000353955
9.68893e-06
0.000351342
1.15901e-05
0.000348236
1.35837e-05
0.000344604
1.55836e-05
0.000340429
1.74786e-05
0.000335728
1.91488e-05
0.000330538
2.0481e-05
0.000324899
2.1368e-05
0.000318879
2.16958e-05
0.000312568
2.13665e-05
0.000306056
2.0295e-05
0.00029945
1.84132e-05
0.000292864
1.56713e-05
0.00028642
1.20358e-05
0.000280242
7.49507e-06
0.000274445
2.04927e-06
0.000269138
-4.28184e-06
0.000264435
-1.14701e-05
0.000260437
-1.94786e-05
0.000257236
-2.82718e-05
0.000254919
-3.7813e-05
0.000253587
-4.80553e-05
0.000253346
-5.89541e-05
0.000254292
-7.04855e-05
0.000256533
-8.25939e-05
0.000260174
-9.52319e-05
0.000265352
-0.000108315
0.000272156
-0.000121746
0.000280594
-0.000135191
0.000290499
-0.000148322
0.000301272
-0.000159761
0.000312827
-0.000170562
0.000323916
-0.000176981
0.000337097
-0.000186415
-0.000188491
0.000350166
0.000402509
1.05634e-05
0.000396639
1.25198e-05
0.00039111
1.36076e-05
0.000386131
1.41514e-05
0.000381563
1.40797e-05
0.00037766
1.36677e-05
0.000374186
1.28454e-05
0.000371352
1.1883e-05
0.00036897
1.07529e-05
0.000367104
9.66242e-06
0.000365632
8.64408e-06
0.000364498
7.84129e-06
0.000363615
7.3034e-06
0.0003629
7.09971e-06
0.000362209
7.27998e-06
0.000361488
7.88456e-06
0.000360636
8.89229e-06
0.000359511
1.03146e-05
0.00035798
1.21015e-05
0.000355976
1.42005e-05
0.000353406
1.65387e-05
0.00035027
1.90204e-05
0.000346515
2.15112e-05
0.000342124
2.39026e-05
0.000337107
2.6048e-05
0.000331494
2.78251e-05
0.000325326
2.90949e-05
0.000318675
2.97289e-05
0.000311639
2.96134e-05
0.000304331
2.86504e-05
0.000296883
2.67636e-05
0.00028942
2.38973e-05
0.000282082
2.00166e-05
0.00027501
1.51128e-05
0.000268331
9.19233e-06
0.000262161
2.28433e-06
0.000256631
-5.58516e-06
0.000251839
-1.43536e-05
0.000247877
-2.3983e-05
0.000244838
-3.44395e-05
0.000242825
-4.56759e-05
0.000241937
-5.76516e-05
0.000242283
-7.03443e-05
0.000243961
-8.37082e-05
0.000247086
-9.77177e-05
0.000251783
-0.000112267
0.000258094
-0.000127203
0.000265782
-0.000141919
0.000274468
-0.000155969
0.000283106
-0.000167217
0.0002922
-0.000178554
0.000301913
-0.000185626
0.000315197
-0.000200585
-0.000229975
0.000357149
0.000403935
1.5777e-05
0.000397251
1.75163e-05
0.000391303
1.86328e-05
0.000385752
1.89627e-05
0.000380952
1.87237e-05
0.000376641
1.79901e-05
0.000373113
1.69673e-05
0.000370142
1.56466e-05
0.000367861
1.42723e-05
0.000366088
1.28877e-05
0.000364854
1.16684e-05
0.000364005
1.06771e-05
0.000363471
1.00304e-05
0.000363116
9.78889e-06
0.000362846
1.00237e-05
0.000362556
1.07381e-05
0.000362082
1.19806e-05
0.000361277
1.37074e-05
0.000360029
1.58817e-05
0.000358248
1.84481e-05
0.000355848
2.13222e-05
0.000352744
2.43777e-05
0.000348882
2.74901e-05
0.000344264
3.04863e-05
0.000338882
3.32369e-05
0.000332771
3.5573e-05
0.000325989
3.7336e-05
0.000318622
3.83753e-05
0.000310773
3.8558e-05
0.000302573
3.77701e-05
0.000294175
3.5927e-05
0.000285726
3.29652e-05
0.000277386
2.88496e-05
0.000269315
2.35753e-05
0.000261648
1.716e-05
0.000254526
9.63634e-06
0.00024806
1.06653e-06
0.000242386
-8.51691e-06
0.000237589
-1.90248e-05
0.000233748
-3.04284e-05
0.000230968
-4.26906e-05
0.000229346
-5.57711e-05
0.000228987
-6.96496e-05
0.000229992
-8.42941e-05
0.00023244
-9.96764e-05
0.00023647
-0.000115661
0.000241806
-0.000131867
0.000248035
-0.000147263
0.000254431
-0.000161465
0.000259963
-0.00017174
0.000267197
-0.000185165
0.000290706
-0.000208866
0.00034113
-0.000253427
-0.00029771
0.00038973
0.000404902
2.1365e-05
0.000397781
2.3162e-05
0.000391038
2.39633e-05
0.000385112
2.40858e-05
0.000379864
2.35276e-05
0.000375408
2.24892e-05
0.000371582
2.10004e-05
0.000368642
1.93367e-05
0.000366366
1.75433e-05
0.000364818
1.58344e-05
0.000363825
1.42851e-05
0.000363344
1.30669e-05
0.000363209
1.22556e-05
0.000363338
1.19466e-05
0.000363531
1.22033e-05
0.000363709
1.30667e-05
0.000363728
1.45294e-05
0.000363373
1.66176e-05
0.000362505
1.9253e-05
0.000361013
2.23672e-05
0.000358777
2.58833e-05
0.000355717
2.96459e-05
0.000351773
3.34863e-05
0.000346909
3.72451e-05
0.000341138
4.07413e-05
0.000334493
4.37798e-05
0.000327031
4.61688e-05
0.000318846
4.77297e-05
0.000310059
4.83105e-05
0.000300833
4.77776e-05
0.000291342
4.60339e-05
0.000281759
4.30081e-05
0.000272274
3.86665e-05
0.000263067
3.30085e-05
0.000254299
2.60655e-05
0.000246117
1.7889e-05
0.000238664
8.54441e-06
0.000232027
-1.88213e-06
0.000226311
-1.33158e-05
0.000221594
-2.57068e-05
0.000217976
-3.90245e-05
0.000215537
-5.32345e-05
0.000214383
-6.83108e-05
0.000214563
-8.42349e-05
0.000216225
-0.000100959
0.000219199
-0.000118213
0.000223076
-0.000135119
0.000226778
-0.000150305
0.000230409
-0.000164387
0.000236378
-0.000177194
0.000258048
-0.000207583
0.000302656
-0.000259364
0.000350474
-0.000304362
-0.000327424
0.000382747
0.000405483
2.76154e-05
0.000397691
2.92214e-05
0.000390443
2.98201e-05
0.000383958
2.95398e-05
0.000378319
2.85827e-05
0.000373468
2.70103e-05
0.000369646
2.50662e-05
0.000366634
2.28538e-05
0.000364531
2.05792e-05
0.000363142
1.83909e-05
0.000362525
1.64576e-05
0.000362461
1.49161e-05
0.000362821
1.38866e-05
0.000363489
1.34627e-05
0.000364307
1.3723e-05
0.000365062
1.47273e-05
0.000365635
1.64697e-05
0.000365842
1.89413e-05
0.000365453
2.21088e-05
0.000364333
2.5877e-05
0.000362339
3.01513e-05
0.000359365
3.47767e-05
0.000355354
3.94987e-05
0.000350226
4.41959e-05
0.000343993
4.86087e-05
0.000336713
5.25151e-05
0.000328451
5.56815e-05
0.000319317
5.79047e-05
0.000309461
5.9003e-05
0.000299063
5.88194e-05
0.000288336
5.72371e-05
0.00027749
5.41804e-05
0.000266729
4.96147e-05
0.000256257
4.35489e-05
0.000246261
3.60332e-05
0.000236901
2.71467e-05
0.000228313
1.69817e-05
0.000220611
5.64964e-06
0.000213936
-6.81765e-06
0.000208321
-2.0245e-05
0.000203812
-3.46316e-05
0.000200497
-4.9975e-05
0.000198444
-6.62478e-05
0.000197737
-8.34303e-05
0.000198342
-0.0001014
0.000199946
-0.000119482
0.000201453
-0.000136232
0.000202571
-0.000150924
0.000204226
-0.000165912
0.00022826
-0.000202091
0.000270122
-0.000256382
0.000305456
-0.000294669
0.00032004
-0.000319082
-0.000334484
0.000326092
0.000404909
3.42854e-05
0.000396579
3.57016e-05
0.000388846
3.59938e-05
0.000381929
3.52613e-05
0.000375952
3.37933e-05
0.000370854
3.15841e-05
0.00036691
2.90537e-05
0.000363938
2.61797e-05
0.000362028
2.32881e-05
0.000360959
2.05067e-05
0.000360766
1.80805e-05
0.000361243
1.61257e-05
0.00036222
1.47988e-05
0.00036355
1.42215e-05
0.000365094
1.44679e-05
0.00036662
1.55959e-05
0.000367866
1.76408e-05
0.000368634
2.05743e-05
0.000368787
2.43502e-05
0.000368125
2.88988e-05
0.000366473
3.40706e-05
0.000363622
3.96839e-05
0.000359528
4.55113e-05
0.000354131
5.13363e-05
0.000347407
5.68722e-05
0.000339416
6.18423e-05
0.000330258
6.59811e-05
0.000320073
6.90314e-05
0.000309022
7.07864e-05
0.000297302
7.1061e-05
0.000285158
6.97156e-05
0.000272854
6.66594e-05
0.000260642
6.18611e-05
0.000248762
5.53446e-05
0.000237427
4.7188e-05
0.000226816
3.75011e-05
0.000217079
2.64146e-05
0.000208348
1.40557e-05
0.000200608
5.75922e-07
0.000194
-1.39529e-05
0.000188522
-2.94484e-05
0.000184228
-4.59287e-05
0.000181195
-6.33804e-05
0.000179445
-8.1769e-05
0.000178786
-0.000100716
0.000178338
-0.000118913
0.000176964
-0.000134672
0.000176445
-0.000150398
0.000196959
-0.000187478
0.000229606
-0.000240935
0.000247919
-0.000277747
0.000251953
-0.000299691
0.000253126
-0.00031784
-0.00033448
0.000255654
0.000401655
4.09871e-05
0.000393079
4.22624e-05
0.000385167
4.22174e-05
0.000378053
4.10735e-05
0.000371883
3.89317e-05
0.000366971
3.61433e-05
0.000362921
3.27331e-05
0.000360218
2.91522e-05
0.000358526
2.55003e-05
0.00035799
2.20448e-05
0.000358331
1.89925e-05
0.000359487
1.65472e-05
0.000361232
1.48544e-05
0.000363404
1.4066e-05
0.000365768
1.42743e-05
0.000368128
1.55552e-05
0.000370228
1.79288e-05
0.000371767
2.13938e-05
0.000372558
2.58923e-05
0.000372365
3.13271e-05
0.000371053
3.75797e-05
0.000368375
4.43874e-05
0.000364212
5.15305e-05
0.000358504
5.86986e-05
0.000351246
6.55905e-05
0.000342472
7.18624e-05
0.000332297
7.71817e-05
0.000320894
8.12403e-05
0.000308471
8.3806e-05
0.00029526
8.46673e-05
0.000281539
8.36431e-05
0.000267609
8.06215e-05
0.000253778
7.55704e-05
0.000240342
6.85392e-05
0.000227549
5.96435e-05
0.000215594
4.90419e-05
0.000204623
3.69214e-05
0.000194716
2.34678e-05
0.000185921
8.85524e-06
0.000178358
-6.88211e-06
0.000171943
-2.35006e-05
0.000166675
-4.10924e-05
0.000162619
-5.96748e-05
0.000159706
-7.91127e-05
0.000157361
-9.85102e-05
0.000154135
-0.00011578
0.000150808
-0.00013158
0.000164726
-0.000165576
0.000188077
-0.000217388
0.000196519
-0.000251348
0.000193114
-0.00027294
0.00018911
-0.000293599
0.000187792
-0.000314478
-0.000333835
0.000189139
0.000393245
4.69579e-05
0.00038504
4.81916e-05
0.000377481
4.79241e-05
0.00037072
4.63471e-05
0.000364934
4.36523e-05
0.00036026
4.01057e-05
0.000356724
3.59449e-05
0.000354528
3.14837e-05
0.000353462
2.69674e-05
0.000353631
2.27335e-05
0.000354834
1.89769e-05
0.000356883
1.59377e-05
0.000359603
1.38345e-05
0.000362777
1.28128e-05
0.000366148
1.29929e-05
0.000369454
1.44608e-05
0.000372395
1.72487e-05
0.000374724
2.13581e-05
0.000376208
2.6696e-05
0.000376581
3.32097e-05
0.00037557
4.07123e-05
0.000372964
4.89348e-05
0.000368639
5.75715e-05
0.000362513
6.63577e-05
0.000354602
7.4835e-05
0.000344945
8.26397e-05
0.000333662
8.93569e-05
0.000320943
9.46272e-05
0.000307038
9.81702e-05
0.000292226
9.97467e-05
0.000276808
9.91324e-05
0.00026114
9.61821e-05
0.000245596
9.08494e-05
0.000230533
8.32147e-05
0.000216241
7.34467e-05
0.000202939
6.17722e-05
0.000190781
4.84549e-05
0.000179838
3.3748e-05
0.000170158
1.78537e-05
0.00016161
1.00731e-06
0.000154227
-1.67704e-05
0.000147958
-3.54413e-05
0.00014279
-5.50548e-05
0.000138462
-7.52432e-05
0.000133816
-9.42278e-05
0.000127981
-0.000110354
0.000133863
-0.000138952
0.000149104
-0.00018748
0.000148911
-0.000219083
0.000138657
-0.000240457
0.000130525
-0.000263603
0.000126544
-0.000288114
0.000125406
-0.000311561
-0.000332393
0.000125985
0.00037717
5.13901e-05
0.000369868
5.2605e-05
0.000363323
5.22172e-05
0.000357602
5.03188e-05
0.000352838
4.71305e-05
0.000349197
4.28921e-05
0.000346768
3.7946e-05
0.000345592
3.26008e-05
0.000345717
2.72329e-05
0.00034698
2.21234e-05
0.000349387
1.76477e-05
0.000352662
1.40119e-05
0.00035664
1.14711e-05
0.000361021
1.02678e-05
0.000365516
1.05005e-05
0.000369808
1.22948e-05
0.00037359
1.5655e-05
0.000376582
2.06029e-05
0.000378541
2.69567e-05
0.000379175
3.47517e-05
0.000378262
4.36867e-05
0.000375555
5.34737e-05
0.000370955
6.38705e-05
0.00036431
7.44421e-05
0.000355673
8.47129e-05
0.000345094
9.42144e-05
0.000332677
0.000102527
0.000318652
0.000109182
0.000303265
0.000113879
0.000286843
0.000116295
0.000269768
0.000116166
0.000252418
0.000113311
0.000235218
0.000107655
0.000218598
9.93072e-05
0.000202903
8.85051e-05
0.000188383
7.55711e-05
0.000175182
6.08777e-05
0.000163323
4.47787e-05
0.000152758
2.75746e-05
0.000143383
9.54734e-06
0.000135201
-9.43224e-06
0.000128017
-2.90715e-05
0.000121664
-4.94435e-05
0.000115446
-6.96804e-05
0.000108191
-8.76146e-05
0.000106013
-0.00010937
0.000113929
-0.000153989
0.000106235
-0.000182437
8.98675e-05
-0.000202797
7.82979e-05
-0.000228298
7.18875e-05
-0.000256317
6.86324e-05
-0.000283668
6.71779e-05
-0.000308623
-0.000330067
6.6814e-05
0.000353601
5.44322e-05
0.000346613
5.51064e-05
0.000341239
5.44362e-05
0.000337061
5.22168e-05
0.000334027
4.85622e-05
0.000332143
4.37084e-05
0.000331517
3.79901e-05
0.000332142
3.1822e-05
0.000333969
2.55872e-05
0.000337037
1.97051e-05
0.000341122