/*--------------------------------*- C++ -*----------------------------------*\
  =========                 |
  \\      /  F ield         | OpenFOAM: The Open Source CFD Toolbox
   \\    /   O peration     | Website:  https://openfoam.org
    \\  /    A nd           | Version:  10
     \\/     M anipulation  |
\*---------------------------------------------------------------------------*/
FoamFile
{
    format      ascii;
    class       volVectorField;
    location    "0.599718";
    object      U;
}
// * * * * * * * * * * * * * * * * * * * * * * * * * * * * * * * * * * * * * //

dimensions      [0 1 -1 0 0 0 0];

internalField   nonuniform List<vector> 
15984
(
(0.499201 -0.0452693 0)
(0.49589 -0.0480892 0)
(0.492713 -0.0509788 0)
(0.489511 -0.0538913 0)
(0.486281 -0.0567812 0)
(0.483003 -0.0596083 0)
(0.47964 -0.0623229 0)
(0.476174 -0.0649252 0)
(0.472598 -0.0673521 0)
(0.4689 -0.06958 0)
(0.46508 -0.0715728 0)
(0.461136 -0.0733149 0)
(0.457073 -0.0747781 0)
(0.45291 -0.0759578 0)
(0.448656 -0.0768401 0)
(0.444331 -0.077428 0)
(0.439952 -0.0777253 0)
(0.435541 -0.0777446 0)
(0.431121 -0.0775035 0)
(0.426717 -0.0770251 0)
(0.422354 -0.0763379 0)
(0.418058 -0.0754729 0)
(0.413858 -0.074465 0)
(0.40978 -0.0733512 0)
(0.405853 -0.0721693 0)
(0.402107 -0.070958 0)
(0.39857 -0.0697552 0)
(0.395271 -0.0685974 0)
(0.39224 -0.0675194 0)
(0.389505 -0.066554 0)
(0.387094 -0.0657278 0)
(0.385034 -0.0650651 0)
(0.383354 -0.0645852 0)
(0.382077 -0.064301 0)
(0.381229 -0.0642189 0)
(0.380834 -0.0643387 0)
(0.380912 -0.0646541 0)
(0.381468 -0.0651487 0)
(0.382512 -0.0658 0)
(0.384117 -0.0665766 0)
(0.386293 -0.0674431 0)
(0.389 -0.0683639 0)
(0.392247 -0.06928 0)
(0.396052 -0.0701388 0)
(0.400424 -0.0708755 0)
(0.405345 -0.071422 0)
(0.410815 -0.0717141 0)
(0.416807 -0.0716645 0)
(0.423304 -0.0712005 0)
(0.430269 -0.07024 0)
(0.437661 -0.0686953 0)
(0.445428 -0.066499 0)
(0.453504 -0.0635401 0)
(0.461821 -0.059793 0)
(0.496582 -0.0418865 0)
(0.493192 -0.0441896 0)
(0.489962 -0.0466007 0)
(0.486737 -0.0490658 0)
(0.483528 -0.0515473 0)
(0.480325 -0.0540122 0)
(0.477049 -0.0564188 0)
(0.473699 -0.0587298 0)
(0.470291 -0.0609037 0)
(0.466791 -0.0629149 0)
(0.463195 -0.0647292 0)
(0.4595 -0.0663243 0)
(0.455704 -0.067677 0)
(0.451814 -0.0687731 0)
(0.44784 -0.0696034 0)
(0.443789 -0.070165 0)
(0.439677 -0.0704624 0)
(0.435518 -0.0705058 0)
(0.43133 -0.0703119 0)
(0.427131 -0.0699031 0)
(0.422943 -0.0693063 0)
(0.41879 -0.0685535 0)
(0.414695 -0.0676788 0)
(0.410686 -0.0667196 0)
(0.406789 -0.0657142 0)
(0.403035 -0.0647019 0)
(0.399452 -0.0637216 0)
(0.396073 -0.0628106 0)
(0.392929 -0.0620045 0)
(0.390053 -0.061336 0)
(0.387478 -0.0608339 0)
(0.385235 -0.0605219 0)
(0.383358 -0.0604192 0)
(0.381877 -0.0605389 0)
(0.380823 -0.0608867 0)
(0.380226 -0.0614623 0)
(0.380115 -0.0622573 0)
(0.380503 -0.063256 0)
(0.381405 -0.0644287 0)
(0.382897 -0.0657452 0)
(0.384999 -0.067178 0)
(0.387677 -0.0686729 0)
(0.390952 -0.0701792 0)
(0.394849 -0.0716308 0)
(0.399378 -0.0729659 0)
(0.404527 -0.0741109 0)
(0.410304 -0.0749831 0)
(0.416696 -0.0755117 0)
(0.423671 -0.075585 0)
(0.431208 -0.0751329 0)
(0.439253 -0.0740496 0)
(0.447779 -0.0722383 0)
(0.456685 -0.0696196 0)
(0.465901 -0.0660743 0)
(0.494498 -0.0384738 0)
(0.491016 -0.0403054 0)
(0.487684 -0.0422795 0)
(0.484401 -0.0443319 0)
(0.481164 -0.0464301 0)
(0.477958 -0.0485476 0)
(0.474742 -0.0506564 0)
(0.471504 -0.052683 0)
(0.468226 -0.0546129 0)
(0.464888 -0.0564168 0)
(0.461487 -0.0580595 0)
(0.458007 -0.0595132 0)
(0.454445 -0.0607528 0)
(0.450803 -0.061762 0)
(0.447081 -0.0625317 0)
(0.443283 -0.0630551 0)
(0.439415 -0.0633365 0)
(0.435487 -0.0633846 0)
(0.431509 -0.0632162 0)
(0.427496 -0.0628527 0)
(0.423465 -0.0623215 0)
(0.419434 -0.0616544 0)
(0.415425 -0.0608864 0)
(0.411464 -0.0600556 0)
(0.407575 -0.0592019 0)
(0.40379 -0.0583655 0)
(0.400138 -0.0575868 0)
(0.396653 -0.0569046 0)
(0.393371 -0.0563558 0)
(0.390327 -0.0559739 0)
(0.387559 -0.055789 0)
(0.385104 -0.0558259 0)
(0.383 -0.0561038 0)
(0.381286 -0.0566354 0)
(0.379998 -0.0574266 0)
(0.379172 -0.0584756 0)
(0.378843 -0.0597736 0)
(0.379036 -0.0613034 0)
(0.379773 -0.0630327 0)
(0.381127 -0.0649264 0)
(0.38313 -0.0669683 0)
(0.385766 -0.0690898 0)
(0.389056 -0.0712335 0)
(0.393034 -0.0733383 0)
(0.397714 -0.0753329 0)
(0.403103 -0.0771411 0)
(0.409197 -0.0786669 0)
(0.416 -0.0798308 0)
(0.423495 -0.0805252 0)
(0.431637 -0.0806452 0)
(0.440413 -0.080091 0)
(0.449742 -0.0787292 0)
(0.459582 -0.0764958 0)
(0.469793 -0.0732285 0)
(0.492897 -0.0350628 0)
(0.48927 -0.0364313 0)
(0.485833 -0.0379575 0)
(0.482474 -0.0396092 0)
(0.479182 -0.0413475 0)
(0.475954 -0.0431393 0)
(0.472758 -0.0449484 0)
(0.469581 -0.0467249 0)
(0.466395 -0.0484433 0)
(0.463183 -0.0500567 0)
(0.459939 -0.0515412 0)
(0.45665 -0.0528623 0)
(0.4533 -0.0539911 0)
(0.44988 -0.0549145 0)
(0.44639 -0.0556145 0)
(0.442824 -0.05609 0)
(0.439183 -0.0563415 0)
(0.435468 -0.0563767 0)
(0.431684 -0.0562127 0)
(0.42784 -0.0558713 0)
(0.423947 -0.0553802 0)
(0.420021 -0.0547724 0)
(0.416079 -0.0540838 0)
(0.412143 -0.0533546 0)
(0.408241 -0.0526264 0)
(0.404399 -0.0519416 0)
(0.400652 -0.0513424 0)
(0.397033 -0.0508701 0)
(0.393583 -0.0505631 0)
(0.390339 -0.0504568 0)
(0.387346 -0.0505824 0)
(0.384645 -0.0509655 0)
(0.382281 -0.0516263 0)
(0.380298 -0.0525777 0)
(0.37874 -0.0538251 0)
(0.37765 -0.0553659 0)
(0.37707 -0.0571898 0)
(0.377035 -0.059279 0)
(0.37758 -0.0615993 0)
(0.378762 -0.0641132 0)
(0.380637 -0.0668067 0)
(0.383211 -0.0696039 0)
(0.386499 -0.0724442 0)
(0.390542 -0.075262 0)
(0.395367 -0.0779839 0)
(0.400988 -0.0805225 0)
(0.407415 -0.0827849 0)
(0.414649 -0.0846647 0)
(0.422682 -0.0860576 0)
(0.431488 -0.0868394 0)
(0.441036 -0.0868812 0)
(0.451265 -0.0860731 0)
(0.462101 -0.0842567 0)
(0.47344 -0.0813577 0)
(0.491821 -0.0315872 0)
(0.488014 -0.0324947 0)
(0.484413 -0.0336088 0)
(0.480913 -0.0348935 0)
(0.477524 -0.036296 0)
(0.474235 -0.0377949 0)
(0.471025 -0.0393338 0)
(0.46787 -0.0408847 0)
(0.464754 -0.0424008 0)
(0.46165 -0.043846 0)
(0.458544 -0.0451775 0)
(0.455423 -0.046368 0)
(0.452262 -0.0473932 0)
(0.449051 -0.0482268 0)
(0.445778 -0.0488558 0)
(0.442428 -0.049274 0)
(0.439 -0.0494804 0)
(0.435485 -0.0494833 0)
(0.43188 -0.0493038 0)
(0.428191 -0.04896 0)
(0.42442 -0.0484832 0)
(0.420581 -0.0479066 0)
(0.416686 -0.0472692 0)
(0.412756 -0.0466127 0)
(0.408814 -0.0459819 0)
(0.40489 -0.0454221 0)
(0.401018 -0.0449784 0)
(0.397234 -0.0446947 0)
(0.393581 -0.0446122 0)
(0.390103 -0.0447681 0)
(0.386847 -0.0451956 0)
(0.383862 -0.0459214 0)
(0.381197 -0.0469663 0)
(0.378905 -0.048344 0)
(0.377036 -0.0500596 0)
(0.375641 -0.0521097 0)
(0.37477 -0.0544828 0)
(0.374469 -0.0571599 0)
(0.374781 -0.0601065 0)
(0.375758 -0.0632839 0)
(0.377471 -0.0666719 0)
(0.379952 -0.0701982 0)
(0.383213 -0.0737945 0)
(0.387302 -0.0773924 0)
(0.392257 -0.0809136 0)
(0.398104 -0.0842638 0)
(0.40486 -0.0873433 0)
(0.41254 -0.0900365 0)
(0.421143 -0.0922225 0)
(0.430649 -0.0937638 0)
(0.441032 -0.0945183 0)
(0.452238 -0.0943382 0)
(0.464188 -0.0930659 0)
(0.476775 -0.0905533 0)
(0.491225 -0.028071 0)
(0.487189 -0.0285468 0)
(0.483382 -0.0292833 0)
(0.479716 -0.0302123 0)
(0.47619 -0.0313065 0)
(0.472807 -0.0325225 0)
(0.469548 -0.0338199 0)
(0.466388 -0.0351552 0)
(0.463307 -0.0364836 0)
(0.460283 -0.0377714 0)
(0.4573 -0.0389628 0)
(0.454323 -0.0400356 0)
(0.451337 -0.0409595 0)
(0.448319 -0.0417024 0)
(0.445249 -0.0422551 0)
(0.44211 -0.0426062 0)
(0.438887 -0.0427547 0)
(0.43556 -0.0427147 0)
(0.432124 -0.0424942 0)
(0.428577 -0.0421206 0)
(0.424916 -0.0416306 0)
(0.421147 -0.0410547 0)
(0.41728 -0.040437 0)
(0.413332 -0.0398225 0)
(0.409326 -0.0392587 0)
(0.405291 -0.0387951 0)
(0.401261 -0.0384805 0)
(0.397277 -0.0383621 0)
(0.393383 -0.0384842 0)
(0.389629 -0.038887 0)
(0.386067 -0.0396056 0)
(0.382752 -0.0406687 0)
(0.379741 -0.0420979 0)
(0.377092 -0.0439073 0)
(0.374865 -0.046102 0)
(0.373119 -0.0486784 0)
(0.371911 -0.0516239 0)
(0.371298 -0.0549181 0)
(0.371333 -0.0585275 0)
(0.372063 -0.062412 0)
(0.373576 -0.0665357 0)
(0.375926 -0.0708496 0)
(0.379129 -0.075265 0)
(0.383235 -0.0797127 0)
(0.388297 -0.0841111 0)
(0.394354 -0.0883601 0)
(0.401436 -0.0923513 0)
(0.409565 -0.0959588 0)
(0.418754 -0.0990501 0)
(0.428999 -0.101472 0)
(0.440277 -0.103058 0)
(0.452545 -0.103634 0)
(0.465724 -0.103015 0)
(0.479706 -0.101012 0)
(0.49107 -0.0244818 0)
(0.486764 -0.0245355 0)
(0.48272 -0.024895 0)
(0.478841 -0.0254974 0)
(0.475142 -0.0263083 0)
(0.47163 -0.0272722 0)
(0.468288 -0.0283581 0)
(0.465097 -0.0295046 0)
(0.46203 -0.0306777 0)
(0.459068 -0.0318184 0)
(0.456186 -0.0328946 0)
(0.453342 -0.0338617 0)
(0.450521 -0.0346903 0)
(0.447691 -0.0353467 0)
(0.444818 -0.0358184 0)
(0.44188 -0.0360922 0)
(0.43885 -0.0361711 0)
(0.43571 -0.0360655 0)
(0.432445 -0.035787 0)
(0.429028 -0.0353623 0)
(0.425462 -0.0348254 0)
(0.42175 -0.0342158 0)
(0.417892 -0.0335829 0)
(0.413905 -0.0329747 0)
(0.409808 -0.0324442 0)
(0.40563 -0.0320444 0)
(0.401408 -0.0318287 0)
(0.397184 -0.0318487 0)
(0.393007 -0.0321526 0)
(0.388931 -0.0327842 0)
(0.385014 -0.0337809 0)
(0.381319 -0.0351736 0)
(0.377908 -0.0369854 0)
(0.374849 -0.039231 0)
(0.37221 -0.0419156 0)
(0.370059 -0.0450349 0)
(0.368461 -0.0485758 0)
(0.367484 -0.0525164 0)
(0.367189 -0.0568254 0)
(0.367632 -0.0614591 0)
(0.368895 -0.0663658 0)
(0.371062 -0.0715241 0)
(0.374169 -0.0768249 0)
(0.378257 -0.0821965 0)
(0.383395 -0.0875542 0)
(0.389637 -0.0927953 0)
(0.397026 -0.0978024 0)
(0.4056 -0.102443 0)
(0.415386 -0.106566 0)
(0.426398 -0.110007 0)
(0.438628 -0.112572 0)
(0.45204 -0.114056 0)
(0.466565 -0.11424 0)
(0.482091 -0.112889 0)
(0.491403 -0.0208518 0)
(0.486755 -0.0205041 0)
(0.482406 -0.0205027 0)
(0.478263 -0.020797 0)
(0.474348 -0.0213399 0)
(0.47067 -0.0220822 0)
(0.467217 -0.0229762 0)
(0.463968 -0.023965 0)
(0.460898 -0.024998 0)
(0.457982 -0.0260173 0)
(0.455186 -0.0269938 0)
(0.452472 -0.0278662 0)
(0.44981 -0.0286022 0)
(0.447163 -0.029176 0)
(0.444489 -0.0295619 0)
(0.441754 -0.0297508 0)
(0.438921 -0.0297429 0)
(0.435962 -0.0295447 0)
(0.432853 -0.0291823 0)
(0.429572 -0.0286816 0)
(0.426099 -0.0280664 0)
(0.422429 -0.0273907 0)
(0.418561 -0.0267042 0)
(0.41451 -0.0260619 0)
(0.410293 -0.0255249 0)
(0.405939 -0.0251524 0)
(0.401485 -0.0250014 0)
(0.396977 -0.0251293 0)
(0.392468 -0.0255889 0)
(0.388018 -0.0264275 0)
(0.383691 -0.0276861 0)
(0.379557 -0.0293981 0)
(0.375688 -0.0315884 0)
(0.372159 -0.0342727 0)
(0.369049 -0.0374566 0)
(0.366434 -0.0411353 0)
(0.364387 -0.0452947 0)
(0.362985 -0.0499116 0)
(0.362303 -0.0549547 0)
(0.362407 -0.0603787 0)
(0.363366 -0.0661283 0)
(0.365294 -0.0721782 0)
(0.368255 -0.0784354 0)
(0.372279 -0.0848083 0)
(0.377451 -0.091213 0)
(0.383839 -0.0975466 0)
(0.391507 -0.103685 0)
(0.400509 -0.109486 0)
(0.41089 -0.114787 0)
(0.422685 -0.119411 0)
(0.435908 -0.123126 0)
(0.450535 -0.125704 0)
(0.466506 -0.126879 0)
(0.483707 -0.126357 0)
(0.492082 -0.0170952 0)
(0.487099 -0.0163764 0)
(0.482421 -0.016045 0)
(0.477974 -0.0160585 0)
(0.473803 -0.0163681 0)
(0.469923 -0.0169122 0)
(0.466327 -0.017641 0)
(0.462999 -0.0184996 0)
(0.45991 -0.0194213 0)
(0.457019 -0.0203513 0)
(0.4543 -0.0212459 0)
(0.451715 -0.0220374 0)
(0.44921 -0.022702 0)
(0.446748 -0.0231985 0)
(0.444277 -0.0235008 0)
(0.441748 -0.0235979 0)
(0.439119 -0.0234883 0)
(0.436347 -0.0231816 0)
(0.433395 -0.0227006 0)
(0.43024 -0.0220802 0)
(0.426855 -0.021356 0)
(0.423217 -0.0205738 0)
(0.419327 -0.0197915 0)
(0.415188 -0.0190728 0)
(0.410818 -0.0184841 0)
(0.406249 -0.0180926 0)
(0.40152 -0.0179653 0)
(0.396679 -0.0181646 0)
(0.391784 -0.0187493 0)
(0.386901 -0.0197721 0)
(0.382103 -0.0212772 0)
(0.377467 -0.0232995 0)
(0.373074 -0.0258646 0)
(0.369009 -0.028989 0)
(0.365361 -0.032679 0)
(0.362214 -0.036931 0)
(0.359653 -0.0417303 0)
(0.357763 -0.0470525 0)
(0.356628 -0.0528641 0)
(0.356329 -0.0591217 0)
(0.356929 -0.0657711 0)
(0.358553 -0.0727623 0)
(0.361303 -0.0800453 0)
(0.365212 -0.0874997 0)
(0.370361 -0.095045 0)
(0.376846 -0.102577 0)
(0.384748 -0.10997 0)
(0.394144 -0.117075 0)
(0.405093 -0.12372 0)
(0.417671 -0.129702 0)
(0.431906 -0.134783 0)
(0.447774 -0.138636 0)
(0.465232 -0.141029 0)
(0.48415 -0.141532 0)
(0.493253 -0.0132029 0)
(0.487787 -0.0121248 0)
(0.482716 -0.0114813 0)
(0.477911 -0.0112614 0)
(0.473447 -0.011366 0)
(0.469336 -0.0117644 0)
(0.465566 -0.0123695 0)
(0.462131 -0.01313 0)
(0.459003 -0.0139742 0)
(0.456132 -0.0148463 0)
(0.453494 -0.0156765 0)
(0.451032 -0.0164104 0)
(0.448688 -0.0170103 0)
(0.446425 -0.0174317 0)
(0.444171 -0.0176471 0)
(0.441867 -0.0176407 0)
(0.439455 -0.0174155 0)
(0.436882 -0.0169793 0)
(0.434101 -0.0163558 0)
(0.431072 -0.0155779 0)
(0.427768 -0.0146981 0)
(0.424158 -0.0137588 0)
(0.420226 -0.0128315 0)
(0.415977 -0.0119884 0)
(0.411427 -0.0113029 0)
(0.406603 -0.0108495 0)
(0.401548 -0.0107041 0)
(0.396317 -0.0109323 0)
(0.390973 -0.0115977 0)
(0.385591 -0.012761 0)
(0.380253 -0.0144771 0)
(0.375047 -0.01679 0)
(0.370061 -0.0197281 0)
(0.36539 -0.0233034 0)
(0.36113 -0.0275166 0)
(0.357378 -0.0323616 0)
(0.354229 -0.0378241 0)
(0.351777 -0.0438801 0)
(0.350118 -0.0504959 0)
(0.349342 -0.0576297 0)
(0.349523 -0.0652268 0)
(0.350775 -0.0732249 0)
(0.353234 -0.0815947 0)
(0.35696 -0.0902125 0)
(0.362022 -0.0989928 0)
(0.368536 -0.107835 0)
(0.376609 -0.116611 0)
(0.386339 -0.125175 0)
(0.397817 -0.133336 0)
(0.411122 -0.14088 0)
(0.42635 -0.147535 0)
(0.443401 -0.152903 0)
(0.462204 -0.15667 0)
(0.482674 -0.158363 0)
(0.494728 -0.00917603 0)
(0.488809 -0.0077183 0)
(0.483291 -0.00684335 0)
(0.478074 -0.0064048 0)
(0.473267 -0.0063682 0)
(0.468874 -0.00664305 0)
(0.464916 -0.0071668 0)
(0.461359 -0.00786054 0)
(0.458178 -0.00866901 0)
(0.455329 -0.00950753 0)
(0.452779 -0.010306 0)
(0.450452 -0.0110114 0)
(0.448284 -0.0115617 0)
(0.446228 -0.0119165 0)
(0.444204 -0.0120452 0)
(0.442135 -0.0119271 0)
(0.439952 -0.0115603 0)
(0.437593 -0.0109647 0)
(0.434995 -0.010161 0)
(0.432105 -0.00918939 0)
(0.428886 -0.00811 0)
(0.425297 -0.0069805 0)
(0.421309 -0.0058674 0)
(0.416924 -0.00484587 0)
(0.412158 -0.00400095 0)
(0.407039 -0.00341915 0)
(0.401613 -0.00319463 0)
(0.395941 -0.00341201 0)
(0.390091 -0.0041459 0)
(0.384141 -0.00545361 0)
(0.378177 -0.00737065 0)
(0.372302 -0.00993443 0)
(0.366626 -0.0131906 0)
(0.361262 -0.0171765 0)
(0.356316 -0.0219025 0)
(0.351887 -0.0273535 0)
(0.348076 -0.0335037 0)
(0.344987 -0.0403244 0)
(0.342727 -0.0477811 0)
(0.341397 -0.0558323 0)
(0.341082 -0.0644255 0)
(0.341887 -0.073495 0)
(0.343975 -0.083015 0)
(0.347435 -0.0928762 0)
(0.352327 -0.102985 0)
(0.358787 -0.113249 0)
(0.366944 -0.123547 0)
(0.376927 -0.133717 0)
(0.388841 -0.14359 0)
(0.402776 -0.152855 0)
(0.418821 -0.16129 0)
(0.436804 -0.168307 0)
(0.456544 -0.173651 0)
(0.477903 -0.17642 0)
(0.49659 -0.00486327 0)
(0.490137 -0.00310755 0)
(0.48406 -0.0020261 0)
(0.478395 -0.00144324 0)
(0.473196 -0.00129577 0)
(0.468515 -0.00151238 0)
(0.464329 -0.00201183 0)
(0.460625 -0.00271023 0)
(0.457381 -0.0035195 0)
(0.454548 -0.00436535 0)
(0.452071 -0.00516742 0)
(0.449882 -0.00586377 0)
(0.447913 -0.00638384 0)
(0.446097 -0.00667554 0)
(0.44434 -0.00671779 0)
(0.442556 -0.00648431 0)
(0.440643 -0.00596054 0)
(0.438524 -0.00518602 0)
(0.436132 -0.00416705 0)
(0.433392 -0.00294914 0)
(0.43026 -0.00158135 0)
(0.42669 -0.000150027 0)
(0.422642 0.0012677 0)
(0.418103 0.00256711 0)
(0.413085 0.00364913 0)
(0.407621 0.0044159 0)
(0.40176 0.00477791 0)
(0.395571 0.00464659 0)
(0.389129 0.0039391 0)
(0.382523 0.00257324 0)
(0.375859 0.000468952 0)
(0.369256 -0.00242692 0)
(0.362826 -0.00611837 0)
(0.356667 -0.0105658 0)
(0.350919 -0.0158064 0)
(0.345711 -0.0218607 0)
(0.341152 -0.0287112 0)
(0.337346 -0.0363215 0)
(0.334405 -0.0446518 0)
(0.332439 -0.0536591 0)
(0.331549 -0.0632965 0)
(0.331825 -0.0734944 0)
(0.333449 -0.084224 0)
(0.336548 -0.095405 0)
(0.341174 -0.106935 0)
(0.347472 -0.118729 0)
(0.355612 -0.130677 0)
(0.365716 -0.142615 0)
(0.377944 -0.15435 0)
(0.392262 -0.165473 0)
(0.408736 -0.175727 0)
(0.426922 -0.184243 0)
(0.446684 -0.191115 0)
(0.467691 -0.194637 0)
(0.498792 -0.000264362 0)
(0.491688 0.00171978 0)
(0.485005 0.00300444 0)
(0.478834 0.00367004 0)
(0.473205 0.00387772 0)
(0.468161 0.00366273 0)
(0.463727 0.00313889 0)
(0.459875 0.00237904 0)
(0.456564 0.00150599 0)
(0.453745 0.000591946 0)
(0.451374 -0.000261918 0)
(0.449364 -0.000991722 0)
(0.447636 -0.00150431 0)
(0.44609 -0.00174903 0)
(0.44462 -0.00170763 0)
(0.443143 -0.00133925 0)
(0.441527 -0.000641269 0)
(0.439684 0.000374073 0)
(0.437536 0.00167397 0)
(0.43498 0.00319315 0)
(0.431949 0.0048686 0)
(0.428391 0.00662492 0)
(0.424261 0.00836412 0)
(0.419538 0.00997738 0)
(0.414235 0.0113559 0)
(0.408382 0.0123849 0)
(0.402032 0.0129549 0)
(0.395259 0.0129604 0)
(0.38815 0.0123056 0)
(0.38081 0.0109091 0)
(0.373353 0.00870703 0)
(0.365902 0.00565075 0)
(0.358584 0.00169025 0)
(0.351564 -0.00324336 0)
(0.344945 -0.00907054 0)
(0.338856 -0.0157671 0)
(0.333442 -0.0233454 0)
(0.328825 -0.0317797 0)
(0.325116 -0.0410232 0)
(0.322426 -0.0510296 0)
(0.320868 -0.061754 0)
(0.32053 -0.0731363 0)
(0.321592 -0.0851341 0)
(0.324218 -0.0977004 0)
(0.328467 -0.110735 0)
(0.334486 -0.124163 0)
(0.342459 -0.137878 0)
(0.352521 -0.151712 0)
(0.364808 -0.16538 0)
(0.379077 -0.178296 0)
(0.395295 -0.190198 0)
(0.412283 -0.199523 0)
(0.430211 -0.207386 0)
(0.448164 -0.210488 0)
(0.501301 0.00470642 0)
(0.493436 0.00690066 0)
(0.486075 0.00824155 0)
(0.479313 0.00898756 0)
(0.473224 0.00912723 0)
(0.467808 0.008863 0)
(0.463087 0.00822915 0)
(0.459055 0.00735807 0)
(0.455685 0.00634595 0)
(0.452905 0.00531925 0)
(0.450647 0.00436977 0)
(0.448832 0.00357742 0)
(0.447378 0.0030437 0)
(0.446142 0.00280958 0)
(0.445019 0.00293373 0)
(0.443904 0.00344193 0)
(0.442644 0.00433987 0)
(0.441127 0.00560711 0)
(0.439244 0.00720852 0)
(0.436891 0.00908975 0)
(0.433998 0.0111764 0)
(0.43048 0.0133714 0)
(0.426269 0.0155575 0)
(0.421345 0.0176099 0)
(0.415718 0.0193959 0)
(0.409421 0.0207857 0)
(0.40251 0.0216545 0)
(0.395069 0.0218798 0)
(0.387193 0.0213503 0)
(0.379004 0.019971 0)
(0.370634 0.0176658 0)
(0.36223 0.0143796 0)
(0.353942 0.0100806 0)
(0.345906 0.00476659 0)
(0.338313 -0.00161815 0)
(0.331291 -0.00901295 0)
(0.324929 -0.0173445 0)
(0.319396 -0.026622 0)
(0.314821 -0.0368103 0)
(0.311316 -0.0478554 0)
(0.308996 -0.0597083 0)
(0.307948 -0.0723181 0)
(0.308348 -0.0856465 0)
(0.310381 -0.0996526 0)
(0.314124 -0.114264 0)
(0.319714 -0.129412 0)
(0.327351 -0.144993 0)
(0.337115 -0.160744 0)
(0.34909 -0.17632 0)
(0.362421 -0.190584 0)
(0.377206 -0.203605 0)
(0.39074 -0.212689 0)
(0.404243 -0.21962 0)
(0.416637 -0.223009 0)
(0.503978 0.010162 0)
(0.49528 0.0124193 0)
(0.487167 0.0138411 0)
(0.479781 0.0144945 0)
(0.473133 0.0145504 0)
(0.467318 0.014097 0)
(0.462292 0.0132758 0)
(0.458086 0.0121952 0)
(0.454649 0.0109804 0)
(0.451924 0.00975617 0)
(0.449819 0.00864002 0)
(0.448254 0.00773813 0)
(0.447112 0.00714414 0)
(0.44625 0.00690687 0)
(0.445545 0.00711171 0)
(0.44486 0.00778076 0)
(0.444014 0.00890507 0)
(0.442879 0.0104803 0)
(0.441342 0.0124597 0)
(0.43926 0.0147847 0)
(0.436528 0.0173695 0)
(0.433051 0.0200949 0)
(0.428755 0.0228206 0)
(0.423607 0.0254152 0)
(0.417614 0.0277151 0)
(0.410814 0.029573 0)
(0.40327 0.0308418 0)
(0.395068 0.0313778 0)
(0.386322 0.0310526 0)
(0.377172 0.0297591 0)
(0.36777 0.0274123 0)
(0.358285 0.0239512 0)
(0.348888 0.0193391 0)
(0.33975 0.013564 0)
(0.331022 0.00664737 0)
(0.322911 -0.00143098 0)
(0.315553 -0.0105932 0)
(0.309016 -0.0207576 0)
(0.303477 -0.0319236 0)
(0.299064 -0.0440461 0)
(0.29589 -0.0570687 0)
(0.294031 -0.0709461 0)
(0.293663 -0.0856493 0)
(0.294985 -0.101142 0)
(0.298077 -0.117384 0)
(0.303068 -0.134317 0)
(0.310154 -0.15177 0)
(0.319173 -0.169347 0)
(0.330139 -0.186414 0)
(0.341077 -0.20116 0)
(0.352257 -0.213829 0)
(0.360046 -0.222233 0)
(0.363881 -0.222122 0)
(0.371568 -0.225731 0)
(0.506749 0.0161832 0)
(0.497152 0.0184224 0)
(0.488215 0.0197788 0)
(0.480082 0.0203103 0)
(0.472884 0.0201164 0)
(0.466598 0.0194198 0)
(0.461267 0.0182991 0)
(0.456869 0.0169232 0)
(0.453389 0.0154084 0)
(0.450741 0.0139148 0)
(0.448838 0.012565 0)
(0.447575 0.0114898 0)
(0.446811 0.0107835 0)
(0.446393 0.0105301 0)
(0.446192 0.0107963 0)
(0.446009 0.0116156 0)
(0.445662 0.0129983 0)
(0.445003 0.0149275 0)
(0.443863 0.0173529 0)
(0.4421 0.0202024 0)
(0.439586 0.0233803 0)
(0.436183 0.0267498 0)
(0.431811 0.0301524 0)
(0.426431 0.0334134 0)
(0.420035 0.0363613 0)
(0.412674 0.0388206 0)
(0.40441 0.040611 0)
(0.395342 0.0415652 0)
(0.385605 0.0415357 0)
(0.375361 0.0403999 0)
(0.364788 0.0380619 0)
(0.354079 0.0344546 0)
(0.343432 0.0295411 0)
(0.333042 0.0233147 0)
(0.323096 0.0157947 0)
(0.313747 0.00703354 0)
(0.305252 -0.00298327 0)
(0.29765 -0.0140943 0)
(0.291055 -0.0262749 0)
(0.285636 -0.0395089 0)
(0.281514 -0.0537398 0)
(0.278747 -0.0689206 0)
(0.277505 -0.085028 0)
(0.277992 -0.102041 0)
(0.280274 -0.119947 0)
(0.28448 -0.138654 0)
(0.290675 -0.157887 0)
(0.298257 -0.176799 0)
(0.307036 -0.194379 0)
(0.313492 -0.208082 0)
(0.317087 -0.216877 0)
(0.319897 -0.224902 0)
(0.313627 -0.224271 0)
(0.305783 -0.222546 0)
(0.509359 0.0228896 0)
(0.498793 0.0250816 0)
(0.489034 0.0262201 0)
(0.480118 0.0264934 0)
(0.472263 0.0259756 0)
(0.465543 0.0248902 0)
(0.459866 0.0233407 0)
(0.455298 0.0215207 0)
(0.451781 0.0195996 0)
(0.449258 0.0177303 0)
(0.447605 0.0160558 0)
(0.446712 0.0147253 0)
(0.446415 0.0138547 0)
(0.446543 0.0135385 0)
(0.446922 0.0138564 0)
(0.447359 0.0148349 0)
(0.447622 0.0165023 0)
(0.447521 0.018843 0)
(0.446888 0.0217866 0)
(0.445537 0.0252631 0)
(0.4433 0.0291662 0)
(0.440019 0.0333183 0)
(0.435584 0.0375451 0)
(0.429949 0.0416313 0)
(0.423121 0.0453894 0)
(0.415131 0.0486024 0)
(0.406048 0.0510552 0)
(0.395994 0.0525522 0)
(0.385125 0.0529246 0)
(0.373631 0.052031 0)
(0.361721 0.0497615 0)
(0.34962 0.0460423 0)
(0.337558 0.0408369 0)
(0.32576 0.0341459 0)
(0.314437 0.0260033 0)
(0.303784 0.0164634 0)
(0.293931 0.00562076 0)
(0.285245 -0.00656482 0)
(0.277517 -0.0198054 0)
(0.270994 -0.0341708 0)
(0.265831 -0.0496344 0)
(0.262068 -0.0661452 0)
(0.259855 -0.0836735 0)
(0.259381 -0.10222 0)
(0.260709 -0.121776 0)
(0.263859 -0.14216 0)
(0.26871 -0.162698 0)
(0.273748 -0.182018 0)
(0.278239 -0.19779 0)
(0.278682 -0.209701 0)
(0.269904 -0.212263 0)
(0.260669 -0.215525 0)
(0.25615 -0.219782 0)
(0.252928 -0.219325 0)
(0.511526 0.0303188 0)
(0.49998 0.0323567 0)
(0.489292 0.0331998 0)
(0.479614 0.0330306 0)
(0.471135 0.0320864 0)
(0.463883 0.0304453 0)
(0.457877 0.0283635 0)
(0.453166 0.0259669 0)
(0.449688 0.0235067 0)
(0.447336 0.021137 0)
(0.446011 0.0190331 0)
(0.445584 0.0173663 0)
(0.445856 0.0162674 0)
(0.446641 0.0158406 0)
(0.447741 0.0161813 0)
(0.448908 0.0173435 0)
(0.449917 0.0193159 0)
(0.450519 0.0221189 0)
(0.45049 0.0256742 0)
(0.449656 0.0298854 0)
(0.447783 0.034641 0)
(0.444667 0.039753 0)
(0.440191 0.0449562 0)
(0.434304 0.0500719 0)
(0.426996 0.0548354 0)
(0.418292 0.0589883 0)
(0.408274 0.0622776 0)
(0.39709 0.0644732 0)
(0.384927 0.0653764 0)
(0.372005 0.0648227 0)
(0.358571 0.0626868 0)
(0.344889 0.0588886 0)
(0.331228 0.0533938 0)
(0.317851 0.0462142 0)
(0.304999 0.0374027 0)
(0.292886 0.0270411 0)
(0.281687 0.0152246 0)
(0.271523 0.00208672 0)
(0.262735 -0.0123719 0)
(0.255086 -0.0279484 0)
(0.248816 -0.0446758 0)
(0.243984 -0.0625336 0)
(0.240715 -0.0814894 0)
(0.239171 -0.101555 0)
(0.239369 -0.122687 0)
(0.24121 -0.144427 0)
(0.243818 -0.165325 0)
(0.244964 -0.183257 0)
(0.240878 -0.195249 0)
(0.232194 -0.201072 0)
(0.218395 -0.203681 0)
(0.206855 -0.203403 0)
(0.203547 -0.207098 0)
(0.204518 -0.212453 0)
(0.512212 0.0385433 0)
(0.499818 0.0403271 0)
(0.488351 0.0407706 0)
(0.477998 0.0400869 0)
(0.468937 0.0385092 0)
(0.461284 0.0361618 0)
(0.455024 0.0333631 0)
(0.450212 0.0302629 0)
(0.446838 0.0270865 0)
(0.44476 0.0240671 0)
(0.443882 0.0214128 0)
(0.444043 0.0193029 0)
(0.445023 0.017885 0)
(0.446611 0.0173007 0)
(0.448589 0.0176351 0)
(0.450655 0.0189604 0)
(0.45254 0.021297 0)
(0.453986 0.0246168 0)
(0.45471 0.0288795 0)
(0.454497 0.0339713 0)
(0.453091 0.0397452 0)
(0.450187 0.0459853 0)
(0.44569 0.0523969 0)
(0.439552 0.0587671 0)
(0.431707 0.0647588 0)
(0.422195 0.0700651 0)
(0.411116 0.0743892 0)
(0.398643 0.0774608 0)
(0.385001 0.0790446 0)
(0.370449 0.078948 0)
(0.355278 0.0770245 0)
(0.339801 0.0731825 0)
(0.324336 0.0673925 0)
(0.309194 0.0596834 0)
(0.294654 0.0501355 0)
(0.280958 0.0388673 0)
(0.268305 0.026011 0)
(0.256795 0.01171 0)
(0.246774 -0.00400116 0)
(0.237959 -0.0208181 0)
(0.230499 -0.0388113 0)
(0.224507 -0.0580074 0)
(0.220101 -0.0783822 0)
(0.217388 -0.099929 0)
(0.216291 -0.122447 0)
(0.216326 -0.144807 0)
(0.215266 -0.164545 0)
(0.209147 -0.17861 0)
(0.195299 -0.184891 0)
(0.178442 -0.185907 0)
(0.166813 -0.189437 0)
(0.161009 -0.192904 0)
(0.158421 -0.199732 0)
(0.159089 -0.209203 0)
(0.509287 0.0471351 0)
(0.496577 0.0486424 0)
(0.484724 0.0486534 0)
(0.474045 0.0473664 0)
(0.464684 0.0450528 0)
(0.456836 0.0419034 0)
(0.450564 0.0382071 0)
(0.445855 0.0342212 0)
(0.442753 0.030201 0)
(0.441149 0.0263873 0)
(0.440901 0.0230448 0)
(0.441832 0.0203752 0)
(0.443712 0.018551 0)
(0.446299 0.0177408 0)
(0.449326 0.0180419 0)
(0.452474 0.0195362 0)
(0.455415 0.0222596 0)
(0.457838 0.0261915 0)
(0.459444 0.0312729 0)
(0.459959 0.0373912 0)
(0.459059 0.0443845 0)
(0.45641 0.051961 0)
(0.451915 0.0598633 0)
(0.445484 0.0677409 0)
(0.437023 0.0752368 0)
(0.426595 0.0819661 0)
(0.414315 0.0875663 0)
(0.400387 0.0917166 0)
(0.385074 0.094148 0)
(0.368681 0.0946359 0)
(0.35155 0.0930052 0)
(0.334055 0.0891494 0)
(0.316579 0.0830425 0)
(0.299491 0.0747363 0)
(0.283118 0.0643497 0)
(0.267729 0.0520503 0)
(0.253527 0.0380266 0)
(0.240647 0.022462 0)
(0.229085 0.00557469 0)
(0.219326 -0.0126769 0)
(0.210743 -0.0319986 0)
(0.203594 -0.0525345 0)
(0.198022 -0.0742927 0)
(0.194072 -0.0972216 0)
(0.191458 -0.120668 0)
(0.188653 -0.14235 0)
(0.181108 -0.158763 0)
(0.164345 -0.16649 0)
(0.144705 -0.167362 0)
(0.130801 -0.169115 0)
(0.122288 -0.174151 0)
(0.117847 -0.184082 0)
(0.116683 -0.196587 0)
(0.117751 -0.209463 0)
(0.499019 0.0554821 0)
(0.487063 0.0568471 0)
(0.475766 0.0564691 0)
(0.465496 0.0545914 0)
(0.456506 0.0514599 0)
(0.449025 0.0474139 0)
(0.443165 0.0426907 0)
(0.43902 0.0376652 0)
(0.436582 0.0326322 0)
(0.435771 0.0278898 0)
(0.436471 0.0237251 0)
(0.43847 0.0203683 0)
(0.441522 0.0180588 0)
(0.445356 0.0169588 0)
(0.44966 0.0172093 0)
(0.454064 0.0188976 0)
(0.45819 0.0220665 0)
(0.461686 0.0267116 0)
(0.464199 0.0327502 0)
(0.465442 0.0400706 0)
(0.46502 0.0484964 0)
(0.462578 0.0576841 0)
(0.457998 0.0673069 0)
(0.451163 0.0769993 0)
(0.44199 0.0862924 0)
(0.430515 0.0947412 0)
(0.41689 0.101903 0)
(0.401364 0.107383 0)
(0.384239 0.110871 0)
(0.365853 0.112096 0)
(0.346602 0.110846 0)
(0.32693 0.106997 0)
(0.307302 0.100528 0)
(0.288157 0.0915242 0)
(0.269883 0.080157 0)
(0.252784 0.0666623 0)
(0.237075 0.0513068 0)
(0.222889 0.0343449 0)
(0.210192 0.0159977 0)
(0.199352 -0.00366628 0)
(0.18972 -0.0242996 0)
(0.181385 -0.0461126 0)
(0.174587 -0.0691654 0)
(0.169316 -0.0932406 0)
(0.164612 -0.116752 0)
(0.156569 -0.13588 0)
(0.138489 -0.146195 0)
(0.115823 -0.146654 0)
(0.0994596 -0.147304 0)
(0.0887273 -0.153079 0)
(0.0821719 -0.164506 0)
(0.0789645 -0.179179 0)
(0.0780921 -0.194616 0)
(0.0786844 -0.209181 0)
(0.476864 0.0619873 0)
(0.46711 0.063526 0)
(0.457723 0.0630114 0)
(0.449086 0.0606975 0)
(0.441537 0.056889 0)
(0.435364 0.0519342 0)
(0.430786 0.0461908 0)
(0.427921 0.0400711 0)
(0.426814 0.0339277 0)
(0.427404 0.0281514 0)
(0.429544 0.02307 0)
(0.433054 0.0189584 0)
(0.437671 0.0160882 0)
(0.443049 0.0146993 0)
(0.448832 0.0149259 0)
(0.454583 0.0168883 0)
(0.45988 0.0206362 0)
(0.464319 0.0261677 0)
(0.467548 0.0333415 0)
(0.469281 0.042114 0)
(0.469061 0.0521661 0)
(0.466517 0.0632349 0)
(0.461626 0.0749142 0)
(0.454235 0.0867187 0)
(0.44421 0.0980578 0)
(0.431635 0.108466 0)
(0.41665 0.117429 0)
(0.399543 0.124454 0)
(0.380643 0.129206 0)
(0.360298 0.131346 0)
(0.338948 0.130597 0)
(0.317123 0.126791 0)
(0.295377 0.119908 0)
(0.274238 0.110076 0)
(0.254165 0.0975426 0)
(0.2355 0.0826403 0)
(0.218463 0.0657416 0)
(0.203142 0.0471994 0)
(0.189506 0.0273096 0)
(0.177364 0.00638064 0)
(0.167156 -0.0157106 0)
(0.157819 -0.0387644 0)
(0.149834 -0.0629436 0)
(0.143029 -0.0876117 0)
(0.13447 -0.109782 0)
(0.117215 -0.123637 0)
(0.0916785 -0.124752 0)
(0.0723213 -0.123759 0)
(0.0592884 -0.129366 0)
(0.0505654 -0.142382 0)
(0.0456729 -0.159242 0)
(0.0431795 -0.176715 0)
(0.0421284 -0.193333 0)
(0.041998 -0.208508 0)
(0.440646 0.0654813 0)
(0.43418 0.0674552 0)
(0.427928 0.0670869 0)
(0.422168 0.0645806 0)
(0.417254 0.0602563 0)
(0.413539 0.0545179 0)
(0.411299 0.047811 0)
(0.410699 0.040605 0)
(0.41179 0.0333748 0)
(0.414546 0.0265402 0)
(0.418816 0.0205297 0)
(0.424373 0.0156754 0)
(0.430953 0.0122907 0)
(0.438118 0.0107278 0)
(0.445394 0.0110879 0)
(0.452307 0.0135267 0)
(0.458398 0.0181299 0)
(0.463226 0.0248945 0)
(0.466537 0.0334315 0)
(0.468058 0.0439487 0)
(0.467391 0.0559503 0)
(0.464326 0.069033 0)
(0.458725 0.0829186 0)
(0.45044 0.0972418 0)
(0.439481 0.11106 0)
(0.425932 0.123361 0)
(0.409851 0.13434 0)
(0.391558 0.143084 0)
(0.371366 0.149289 0)
(0.349527 0.15246 0)
(0.326484 0.15225 0)
(0.302853 0.14846 0)
(0.279319 0.141057 0)
(0.256528 0.130217 0)
(0.235022 0.116286 0)
(0.215187 0.0997233 0)
(0.197236 0.0810458 0)
(0.181207 0.0607421 0)
(0.167019 0.0392332 0)
(0.154345 0.0168074 0)
(0.143642 -0.00661826 0)
(0.133325 -0.0305829 0)
(0.124039 -0.0554326 0)
(0.114658 -0.0794974 0)
(0.0983885 -0.0977647 0)
(0.0730883 -0.101211 0)
(0.0490804 -0.0991204 0)
(0.0333626 -0.103563 0)
(0.0226868 -0.117612 0)
(0.0161819 -0.136459 0)
(0.012199 -0.155851 0)
(0.00963592 -0.174452 0)
(0.0080913 -0.191793 0)
(0.00731967 -0.207476 0)
(0.392763 0.066042 0)
(0.389424 0.067987 0)
(0.386554 0.0677544 0)
(0.384208 0.0651753 0)
(0.382694 0.0604733 0)
(0.382328 0.0540815 0)
(0.383365 0.0465004 0)
(0.385953 0.0383025 0)
(0.390126 0.0300521 0)
(0.395831 0.0222882 0)
(0.402869 0.0154657 0)