/*--------------------------------*- C++ -*----------------------------------*\
  =========                 |
  \\      /  F ield         | OpenFOAM: The Open Source CFD Toolbox
   \\    /   O peration     | Website:  https://openfoam.org
    \\  /    A nd           | Version:  10
     \\/     M anipulation  |
\*---------------------------------------------------------------------------*/
FoamFile
{
    format      ascii;
    class       volScalarField;
    location    "0.500916";
    object      p;
}
// * * * * * * * * * * * * * * * * * * * * * * * * * * * * * * * * * * * * * //

dimensions      [1 -1 -2 0 0 0 0];

internalField   nonuniform List<scalar> 
15708
(
2.45407
2.47634
2.49811
2.51915
2.53932
2.55851
2.57663
2.59365
2.60952
2.62425
2.63785
2.65037
2.66186
2.67237
2.68196
2.69069
2.69863
2.70582
2.71232
2.71818
2.72342
2.72808
2.73219
2.73576
2.73879
2.7413
2.74329
2.74475
2.74566
2.74604
2.74589
2.74521
2.74395
2.74212
2.73975
2.73683
2.73337
2.7294
2.72493
2.71999
2.71462
2.70886
2.70276
2.69636
2.68974
2.68296
2.67609
2.6692
2.66237
2.65569
2.64924
2.4581
2.48046
2.50224
2.52323
2.54328
2.56231
2.58025
2.59705
2.61271
2.62723
2.64063
2.65296
2.66428
2.67462
2.68406
2.69266
2.70046
2.70752
2.71389
2.7196
2.7247
2.72922
2.73317
2.73657
2.73944
2.74178
2.74359
2.74487
2.74562
2.74583
2.74554
2.74471
2.74332
2.7414
2.73896
2.736
2.73253
2.72858
2.72416
2.7193
2.71405
2.70843
2.7025
2.6963
2.68989
2.68333
2.67669
2.67004
2.66344
2.65697
2.65071
2.46304
2.48533
2.50697
2.52775
2.54754
2.56626
2.58387
2.60034
2.61567
2.62987
2.64298
2.65505
2.66611
2.67624
2.68548
2.69389
2.70152
2.70842
2.71464
2.72021
2.72516
2.72953
2.73333
2.73657
2.73928
2.74146
2.7431
2.74422
2.74481
2.74488
2.74446
2.74351
2.74202
2.74003
2.73755
2.73457
2.73112
2.72722
2.72288
2.71814
2.71303
2.70759
2.70185
2.69587
2.68969
2.68338
2.67699
2.67058
2.66422
2.65798
2.65191
2.46879
2.49089
2.51223
2.53265
2.55203
2.57031
2.58746
2.60347
2.61836
2.63215
2.64488
2.6566
2.66735
2.6772
2.68619
2.69438
2.70182
2.70854
2.71459
2.72
2.7248
2.72901
2.73266
2.73575
2.73831
2.74033
2.74183
2.7428
2.74326
2.7432
2.74267
2.74161
2.74006
2.73803
2.73553
2.73257
2.72916
2.72534
2.72111
2.71652
2.71158
2.70634
2.70083
2.69509
2.68917
2.68312
2.677
2.67085
2.66474
2.65872
2.65285
2.47528
2.49703
2.51794
2.53786
2.55668
2.57439
2.59097
2.60642
2.62076
2.63405
2.64631
2.65761
2.668
2.67752
2.68622
2.69415
2.70136
2.70788
2.71375
2.71899
2.72363
2.72768
2.73118
2.73413
2.73654
2.73843
2.73979
2.74064
2.74097
2.74082
2.7402
2.73907
2.73747
2.73542
2.73293
2.73001
2.72668
2.72297
2.71889
2.71446
2.70973
2.70471
2.69945
2.69398
2.68834
2.68257
2.67673
2.67085
2.665
2.65921
2.65355
2.48242
2.50369
2.52404
2.5433
2.56144
2.57846
2.59435
2.60913
2.62285
2.63555
2.64728
2.6581
2.66806
2.6772
2.68558
2.69323
2.70019
2.70649
2.71215
2.71721
2.72168
2.72558
2.72893
2.73174
2.73402
2.73578
2.73702
2.73776
2.73799
2.73777
2.73707
2.7359
2.73428
2.73224
2.72979
2.72694
2.72371
2.72013
2.71622
2.712
2.70749
2.70273
2.69774
2.69256
2.68722
2.68175
2.6762
2.67061
2.66502
2.65948
2.65402
2.49009
2.51071
2.53035
2.54888
2.56624
2.58246
2.59757
2.61161
2.62462
2.63666
2.64777
2.65809
2.66757
2.67627
2.68432
2.69163
2.69833
2.7044
2.70985
2.71472
2.71901
2.72276
2.72597
2.72865
2.7308
2.73244
2.73358
2.73422
2.73437
2.73409
2.73335
2.73215
2.73054
2.72853
2.72614
2.72338
2.72029
2.71687
2.71315
2.70916
2.70491
2.70042
2.69573
2.69086
2.68583
2.68068
2.67544
2.67015
2.66484
2.65954
2.65429
2.49795
2.51786
2.53678
2.55447
2.57097
2.58632
2.60057
2.61382
2.62603
2.63741
2.64781
2.65761
2.66653
2.67485
2.68245
2.68945
2.69585
2.70166
2.70689
2.71156
2.71569
2.71929
2.72236
2.72491
2.72694
2.72848
2.72952
2.73008
2.73016
2.72984
2.72907
2.72786
2.72628
2.72432
2.72201
2.71938
2.71644
2.71321
2.70972
2.70597
2.702
2.69782
2.69344
2.6889
2.68421
2.67939
2.67448
2.66949
2.66446
2.65941
2.65438
2.50607
2.52514
2.54311
2.55992
2.57551
2.58996
2.60333
2.6157
2.62713
2.63773
2.64753
2.65665
2.66508
2.67289
2.68009
2.68674
2.69282
2.69836
2.70336
2.70783
2.71179
2.71523
2.71816
2.72059
2.72252
2.72395
2.72491
2.7254
2.72542
2.72507
2.72428
2.72309
2.72155
2.71966
2.71746
2.71497
2.71221
2.70919
2.70594
2.70247
2.6988
2.69494
2.69091
2.68671
2.68238
2.67791
2.67333
2.66866
2.66392
2.65913
2.65432
2.51424
2.53231
2.54936
2.56528
2.57986
2.59336
2.6058
2.61727
2.62787
2.63769
2.64681
2.65529
2.66317
2.67049
2.67728
2.68354
2.68931
2.69457
2.69934
2.70362
2.7074
2.71068
2.71348
2.71578
2.7176
2.71894
2.71982
2.72023
2.72023
2.71985
2.71904
2.71788
2.71639
2.7146
2.71252
2.71019
2.70762
2.70484
2.70185
2.69868
2.69534
2.69183
2.68815
2.68433
2.68036
2.67626
2.67203
2.66769
2.66325
2.65873
2.65414
2.5223
2.53955
2.55557
2.57037
2.58395
2.59644
2.60792
2.61849
2.62825
2.6373
2.64572
2.65356
2.66088
2.6677
2.67407
2.67996
2.68542
2.69041
2.69494
2.69901
2.70261
2.70574
2.70839
2.71057
2.71228
2.71352
2.71432
2.71467
2.71462
2.71422
2.71341
2.71228
2.71086
2.70916
2.70722
2.70506
2.70271
2.70018
2.69749
2.69464
2.69164
2.68849
2.68521
2.68177
2.67819
2.67447
2.67061
2.66661
2.66248
2.65823
2.65387
2.53013
2.54644
2.56144
2.57518
2.58772
2.5992
2.6097
2.61936
2.62828
2.63656
2.64428
2.6515
2.65827
2.66461
2.67055
2.67608
2.68121
2.68594
2.69023
2.6941
2.69752
2.70049
2.70299
2.70504
2.70663
2.70778
2.70848
2.70876
2.70868
2.70824
2.70744
2.70634
2.70498
2.70339
2.70159
2.69962
2.6975
2.69524
2.69285
2.69035
2.68772
2.68497
2.68209
2.67907
2.6759
2.67258
2.6691
2.66545
2.66164
2.65767
2.65354
2.53771
2.55294
2.56693
2.57963
2.59113
2.60158
2.61112
2.61987
2.62797
2.63549
2.64252
2.64913
2.65537
2.66125
2.66678
2.67196
2.67679
2.68125
2.68532
2.68898
2.69222
2.69502
2.69738
2.69929
2.70076
2.70179
2.70239
2.70259
2.70245
2.70198
2.70117
2.70009
2.69879
2.69731
2.69566
2.69389
2.692
2.69003
2.68797
2.68583
2.6836
2.68126
2.67881
2.67623
2.6735
2.6706
2.66752
2.66424
2.66077
2.65708
2.65319
2.54491
2.55916
2.57203
2.58363
2.59408
2.60354
2.61213
2.62001
2.62728
2.63407
2.64045
2.64649
2.65222
2.65767
2.66282
2.66768
2.67223
2.67644
2.68029
2.68376
2.68682
2.68946
2.69165
2.69341
2.69474
2.69563
2.69612
2.69622
2.69601
2.69546
2.69463
2.69357
2.69232
2.69094
2.68944
2.68786
2.68623
2.68456
2.68285
2.68109
2.67928
2.67739
2.6754
2.67328
2.67101
2.66856
2.66591
2.66302
2.6599
2.65652
2.65288
2.55162
2.56485
2.57661
2.58715
2.59656
2.60504
2.61271
2.61973
2.62623
2.63231
2.63809
2.6436
2.64887
2.65391
2.65873
2.66331
2.66761
2.67161
2.67526
2.67854
2.68143
2.68388
2.68591
2.6875
2.68867
2.68939
2.68973
2.68971
2.6894
2.68875
2.68787
2.68679
2.68559
2.68429
2.68293
2.68155
2.68018
2.67881
2.67747
2.67612
2.67475
2.67334
2.67185
2.67024
2.66847
2.66649
2.66429
2.66183
2.65908
2.65602
2.65263
2.55774
2.57005
2.58066
2.59017
2.59853
2.60607
2.61282
2.61902
2.62477
2.63019
2.63542
2.64046
2.64533
2.65004
2.65459
2.65893
2.66303
2.66684
2.67032
2.67343
2.67613
2.6784
2.68024
2.68163
2.68259
2.68314
2.6833
2.68313
2.68264
2.68187
2.68091
2.67979
2.67859
2.67735
2.67612
2.67493
2.67382
2.67278
2.67182
2.6709
2.67002
2.66912
2.66817
2.6671
2.66587
2.66441
2.66271
2.66069
2.65834
2.6556
2.65251
2.56357
2.57461
2.58421
2.59254
2.59998
2.60651
2.61237
2.61782
2.62281
2.62772
2.63242
2.63707
2.64163
2.64609
2.65043
2.65461
2.65855
2.66221
2.66555
2.6685
2.67103
2.67311
2.67474
2.67592
2.67664
2.67697
2.67691
2.67651
2.67581
2.67486
2.67377
2.67256
2.67133
2.67012
2.66899
2.66799
2.66713
2.66642
2.66586
2.66541
2.66504
2.66471
2.66435
2.66388
2.66324
2.66235
2.66118
2.65965
2.65773
2.65537
2.65256
2.56891
2.57869
2.58712
2.59435
2.60069
2.60629
2.61133
2.61602
2.62046
2.6248
2.62911
2.63344
2.63777
2.64207
2.64628
2.65035
2.65421
2.65779
2.66102
2.66384
2.66621
2.6681
2.66951
2.67043
2.67089
2.67093
2.67061
2.6699
2.66893
2.66775
2.66645
2.6651
2.66378
2.66256
2.66151
2.66066
2.66005
2.65969
2.65954
2.65959
2.65979
2.66008
2.66037
2.66056
2.66057
2.66033
2.65974
2.65876
2.6573
2.65534
2.65284
2.57361
2.58215
2.58939
2.59552
2.60072
2.60541
2.60962
2.61362
2.61751
2.62142
2.62542
2.62952
2.63372
2.63795
2.64215
2.64622
2.65008
2.65364
2.65682
2.65954
2.66177
2.66346
2.66463
2.66526
2.66542
2.66513
2.66441
2.66337
2.66204
2.66054
2.65896
2.65739
2.65592
2.65463
2.6536
2.6529
2.65253
2.6525
2.65278
2.65338
2.65422
2.6552
2.65622
2.65715
2.6579
2.65835
2.65841
2.65804
2.6571
2.65557
2.65341
2.57786
2.58503
2.59095
2.59588
2.60003
2.60375
2.60716
2.61051
2.61391
2.61746
2.62123
2.62523
2.62943
2.63373
2.63804
2.64224
2.64621
2.64984
2.65303
2.65571
2.6578
2.65929
2.66019
2.66051
2.66031
2.6596
2.65843
2.65693
2.65517
2.65325
2.65128
2.64939
2.64769
2.64626
2.6452
2.6446
2.64445
2.64474
2.6455
2.64671
2.64824
2.65
2.65184
2.65361
2.65519
2.65644
2.65725
2.65752
2.65717
2.65613
2.65433
2.58153
2.58726
2.5918
2.59546
2.59849
2.6012
2.60383
2.60653
2.60949
2.61279
2.61644
2.62049
2.62484
2.62938
2.63396
2.63842
2.64263
2.64643
2.64973
2.65241
2.6544
2.6557
2.6563
2.65626
2.65564
2.65441
2.65271
2.65065
2.64833
2.64586
2.64339
2.64107
2.63902
2.63737
2.63621
2.63564
2.63569
2.6363
2.63758
2.63945
2.64178
2.6444
2.64718
2.64991
2.65244
2.6546
2.65625
2.65727
2.65755
2.65704
2.65566
2.58463
2.58881
2.59185
2.59412
2.59596
2.59763
2.59943
2.60152
2.60408
2.60722
2.61088
2.61515
2.61987
2.62485
2.62988
2.63478
2.63937
2.64349
2.64698
2.64974
2.65168
2.65277
2.65306
2.65261
2.65146
2.64963
2.64731
2.64456
2.64153
2.63837
2.63525
2.63234
2.62981
2.62781
2.62648
2.62589
2.62608
2.62703
2.62888
2.63147
2.63467
2.6383
2.64215
2.646
2.64963
2.65284
2.65544
2.65731
2.65831
2.65835
2.65743
2.58708
2.58951
2.59096
2.59172
2.59221
2.59281
2.59373
2.59524
2.59744
2.6005
2.60434
2.60905
2.61438
2.62003
2.62574
2.6313
2.63648
2.64106
2.64488
2.64779
2.6497
2.65059
2.65055
2.64965
2.64785
2.64534
2.64226
2.63868
2.63477
2.63074
2.62679
2.62311
2.61993
2.61745
2.61583
2.61515
2.61545
2.61675
2.61917
2.62257
2.62676
2.63153
2.63663
2.64179
2.6467
2.65111
2.6548
2.65762
2.65943
2.66011
2.65963
2.58865
2.58923
2.58894
2.58799
2.58696
2.58638
2.58649
2.58735
2.58932
2.59243
2.5967
2.60209
2.60826
2.61482
2.62147
2.62793
2.63392
2.63916
2.64345
2.64662
2.64855
2.64927
2.64887
2.64739
2.6449
2.64159
2.63758
2.63302
2.62801
2.62293
2.61793
2.61328
2.60925
2.60612
2.60409
2.60322
2.60364
2.60528
2.60835
2.61261
2.61788
2.62398
2.63058
2.63722
2.6436
2.64936
2.65427
2.65817
2.66088
2.66225
2.6622
2.58916
2.5877
2.58558
2.58261
2.58001
2.57808
2.57723
2.5776
2.57913
2.58248
2.58741
2.594
2.60145
2.60922
2.61704
2.62468
2.63171
2.63781
2.64272
2.64626
2.64827
2.6488
2.64801
2.64587
2.64259
2.63834
2.63327
2.6275
2.62122
2.61485
2.60866
2.60277
2.59769
2.59378
2.59106
2.58992
2.5904
2.59244
2.59607
2.60131
2.60783
2.61533
2.62389
2.63228
2.64033
2.64754
2.65376
2.65881
2.66247
2.66457
2.66498
2.58844
2.58468
2.58096
2.57518
2.57157
2.56875
2.56681
2.56677
2.56775
2.57124
2.57643
2.58448
2.59348
2.60287
2.61234
2.62154
2.62985
2.63701
2.64269
2.64667
2.64882
2.64914
2.64792
2.64504
2.64085
2.63556
2.62922
2.62205
2.61434
2.60642
2.59904
2.59154
2.58541
2.58069
2.57696
2.57558
2.57609
2.57834
2.5826
2.58853
2.59673
2.60567
2.61609
2.6267
2.6365
2.64534
2.65299
2.65926
2.66392
2.66675
2.66761
2.58579
2.57961
2.57269
2.56549
2.56005
2.55604
2.55397
2.55394
2.555
2.55874
2.56646
2.57577
2.58535
2.59627
2.60767
2.61862
2.62837
2.63672
2.64327
2.64775
2.65003
2.6501
2.64836
2.64466
2.6395
2.63303
2.62527
2.61658
2.60734
2.59779
2.58908
2.58017
2.57245
2.56773
2.56271
2.56073
2.56076
2.56311
2.56836
2.57609
2.58572
2.59621
2.60913
2.62129
2.63226
2.64275
2.65188
2.65936
2.66496
2.66845
2.66966
2.57858
2.57175
2.56315
2.5539
2.54556
2.53912
2.53524
2.53434
2.53608
2.54093
2.54971
2.56175
2.57379
2.59189
2.60436
2.61667
2.62759
2.63705
2.64445
2.64938
2.65169
2.65143
2.64902
2.64445
2.63815
2.63043
2.62119
2.61117
2.60029
2.5897
2.57806
2.56679
2.55677
2.54848
2.54206
2.5377
2.53667
2.53884
2.54482
2.55388
2.56598
2.58018
2.5963
2.61309
2.62786
2.64025
2.6506
2.65904
2.66538
2.66933
2.67071
2.57322
2.56092
2.5481
2.53602
2.52605
2.51908
2.51605
2.51639
2.5196
2.52627
2.53648
2.54963
2.56621
2.58584
2.5992
2.61552
2.62839
2.63865
2.64646
2.65148
2.65355
2.65278
2.6495
2.64396
2.63661
2.62752
2.61679
2.60561
2.59257
2.57839
2.56304
2.54778
2.53354
2.52187
2.51414
2.51011
2.50984
2.51319
2.52084
2.53203
2.54645
2.56352
2.58299
2.60366
2.62233
2.63693
2.64869
2.65804
2.66487
2.66901
2.6703
2.56193
2.54739
2.53229
2.51849
2.50743
2.49981
2.49765
2.49855
2.50335
2.51263
2.52521
2.54109
2.56
2.58094
2.59839
2.6165
2.63028
2.641
2.6489
2.65371
2.65527
2.65373
2.64935
2.64259
2.63401
2.62406
2.61182
2.5973
2.58013
2.56157
2.5429
2.52513
2.50877
2.49523
2.48583
2.4815
2.48168
2.48665
2.49683
2.51071
2.52785
2.54758
2.57002
2.59429
2.6166
2.63305
2.6455
2.6555
2.66285
2.66716
2.66836
2.5519
2.53624
2.51838
2.50197
2.48985
2.48362
2.48327
2.48593
2.49235
2.50264
2.51658
2.53459
2.55626
2.58011
2.60005
2.61875
2.63295
2.64378
2.65144
2.65569
2.65647
2.65396
2.64812
2.63915
2.62899
2.62055
2.60301
2.58335
2.56335
2.54283
2.52218
2.5027
2.48562
2.4719
2.46273
2.45759
2.45781
2.46302
2.47368
2.48842
2.50858
2.53183
2.5576
2.58406
2.6093
2.62604
2.6402
2.65103
2.65871
2.66329
2.66507
2.54141
2.5222
2.50429
2.4884
2.47592
2.46979
2.4693
2.47385
2.48291
2.49591
2.51216
2.53319
2.55762
2.58284
2.60475
2.6228
2.63656
2.64692
2.65372
2.657
2.65687
2.65334
2.64628
2.63917
2.62621
2.60763
2.58759
2.56719
2.54613
2.52487
2.50427
2.4849
2.46762
2.45356
2.44303
2.43658
2.43641
2.44297
2.45651
2.47036
2.49158
2.51671
2.54529
2.57534
2.59801
2.61822
2.63306
2.64404
2.65149
2.6564
2.6579
2.5341
2.51575
2.49658
2.47917
2.46582
2.45981
2.46093
2.46718
2.47829
2.49403
2.51395
2.53803
2.56442
2.58891
2.61052
2.62785
2.64063
2.64991
2.65551
2.65752
2.6562
2.65265
2.64312
2.62735
2.61177
2.59336
2.57243
2.55187
2.53123
2.51115
2.49111
2.47149
2.45282
2.43692
2.42592
2.4176
2.4163
2.42287
2.43724
2.45558
2.47725
2.50567
2.53709
2.56207
2.58795
2.60822
2.62343
2.63396
2.64136
2.6456
2.64304
2.53174
2.51364
2.49531
2.47796
2.46517
2.45915
2.46132
2.47069
2.48428
2.50205
2.52496
2.55017
2.57364
2.59881
2.61757
2.63254
2.64409
2.65198
2.65635
2.65752
2.65544
2.64625
2.63234
2.61649
2.59902
2.57968
2.55928
2.53944
2.5203
2.50149
2.48175
2.46144
2.44192
2.42375
2.40937
2.40385
2.40594
2.41351
2.42517
2.44296
2.46736
2.49386
2.52134
2.55222
2.57589
2.59619
2.61241
2.62113
2.62753
2.6287
2.62564
2.53469
2.51902
2.50327
2.48862
2.47993
2.47674
2.47968
2.48913
2.50421
2.52181
2.54063
2.56405
2.58661
2.60686
2.62322
2.63617
2.64631
2.65246
2.65713
2.65531
2.64736
2.63606
2.62149
2.60462
2.58633
2.56743
2.54882
2.53097
2.5131
2.49447
2.47462
2.45412
2.43325
2.41525
2.40281
2.39766
2.39974
2.40646
2.42106
2.43969
2.4577
2.48806
2.51599
2.5391
2.56075
2.58422
2.59974
2.602
2.60795
2.60849
2.60606
2.54287
2.5309
2.51952
2.5093
2.50332
2.50236
2.50592
2.51487
2.52672
2.54304
2.56284
2.58198
2.59925
2.61488
2.62797
2.63885
2.64955
2.65436
2.65309
2.64779
2.63873
2.62611
2.61047
2.59319
2.5753
2.55844
2.54067
2.52435
2.50724
2.48902
2.47
2.44994
2.42949
2.41309
2.40475
2.39752
2.39988
2.40558
2.41266
2.43294
2.45931
2.48206
2.50549
2.52367
2.54652
2.57138
2.57543
2.57934
2.58463
2.58549
2.58389
2.55394
2.54539
2.5375
2.53196
2.52903
2.52888
2.53386
2.54218
2.55388
2.56765
2.58293
2.59705
2.60996
2.62243
2.63414
2.64496
2.65116
2.65131
2.64814
2.6412
2.63048
2.61658
2.60043
2.58319
2.5663
2.55004
2.53456
2.51886
2.50214
2.4843
2.46596
2.4474
2.42908
2.41147
2.40218
2.39749
2.39741
2.40432
2.41618
2.43471
2.45314
2.47288
2.49615
2.51227
2.54257
2.54404
2.55262
2.55634
2.56007
2.56078
2.55956
2.56721
2.56187
2.55731
2.55481
2.55434
2.55623
2.56146
2.56943
2.579
2.58948
2.60051
2.61158
2.62287
2.6369
2.64186
2.648
2.65079
2.64911
2.64403
2.63512
2.62299
2.60818
2.59165
2.57519
2.55983
2.5429
2.52869
2.51347
2.49733
2.48076
2.46382
2.44705
2.4312
2.41713
2.40823
2.40399
2.40364
2.40798
2.4168
2.4286
2.44462
2.46028
2.48404
2.50267
2.50939
2.52072
2.52644
2.53179
2.53481
2.53565
2.53456
2.5816
2.57922
2.57798
2.57823
2.58004
2.58356
2.58855
2.59514
2.60256
2.61088
2.62103
2.63303
2.64079
2.64575
2.65097
2.65227
2.65276
2.64828
2.64064
2.63001
2.61649
2.60081
2.58411
2.56831
2.55506
2.53674
2.52296
2.50904
2.49361
2.47813
2.46238
2.44708
2.433
2.42077
2.41145
2.40582
2.40407
2.4068
2.41654
2.43036
2.44332
2.45697
2.46089
2.48001
2.4869
2.49666
2.50254
2.50729
2.51012
2.51091
2.51007
2.59574
2.5961
2.59706
2.59935
2.60294
2.60775
2.61357
2.62122
2.6301
2.6398
2.64621
2.65365
2.65651
2.65977
2.66248
2.66016
2.65583
2.64852
2.63859
2.62596
2.61107
2.59455
2.57738
2.56119
2.54583
2.53412
2.52053
2.50489
2.49044
2.47579
2.46106
2.44662
2.4332
2.42149
2.41177
2.40626
2.40615
2.41186
2.41833
2.41957
2.42609
2.44228
2.44726
2.45948
2.46675
2.47425
2.47989
2.48419
2.48646
2.48731
2.48681
2.60782
2.61203
2.61586
2.62044
2.62627
2.63394
2.6427
2.65211
2.66193
2.67125
2.67494
2.67867
2.67953
2.67814
2.67525
2.66885
2.66049
2.65004
2.63757
2.6231
2.60707
2.59001
2.57289
2.55717
2.54453
2.52983
2.51343
2.50141
2.48726
2.47299
2.45892
2.44509
2.43226
2.42237
2.41502
2.40999
2.40658
2.40538
2.40751
2.41168
2.41433
2.42546
2.43194
2.44109
2.44757
2.45368
2.45866
2.46241
2.46452
2.46524
2.46486
2.63047
2.63604
2.6431
2.6508
2.65943
2.67029
2.68119
2.69174
2.70073
2.7066
2.70895
2.70823
2.70437
2.69807
2.68942
2.67857
2.66632
2.65272
2.63795
2.62203
2.60513
2.58771
2.57036
2.5539
2.53951
2.5284
2.51523
2.49381
2.48478
2.47177
2.45865
2.44574
2.43343
2.42136
2.41152
2.40463
2.40012
2.39814
2.39725
2.40208
2.40491
2.41104
2.41707
2.42374
2.42949
2.43472
2.43911
2.44235
2.44416
2.44483
2.44464
2.65577
2.66439
2.67418
2.68544
2.6975
2.71017
2.72192
2.73204
2.73936
2.74266
2.74217
2.7378
2.72918
2.71809
2.70446
2.68931
2.67337
2.65677
2.63961
2.62207
2.60429
2.58651
2.5691
2.55258
2.53758
2.52507
2.51102
2.49248
2.48177
2.4688
2.45527
2.44193
2.42942
2.41765
2.40719
2.3987
2.39269
2.39057
2.38878
2.39019
2.39335
2.39761
2.40255
2.40774
2.41277
2.41738
2.42121
2.42405
2.42578
2.42634
2.42622
2.67974
2.6915
2.7045
2.71872
2.73333
2.74752
2.75997
2.76998
2.77562
2.77723
2.77406
2.76609
2.75367
2.73795
2.72001
2.70084
2.68132
2.66172
2.64235
2.62333
2.60473
2.58662
2.56917
2.55266
2.53736
2.52353
2.50814
2.49308
2.4803
2.4668
2.45274
2.43869
2.42545
2.41325
2.40225
2.39266
2.38657
2.38115
2.3795
2.37982
2.38136
2.38459
2.38854
2.39297
2.39744
2.40159
2.40509
2.40771
2.40934
2.41003
2.41005
2.70353
2.71788
2.73365
2.7502
2.7666
2.78206
2.79514
2.80457
2.8092
2.80963
2.80428
2.79324
2.7773
2.75767
2.73575
2.71277
2.68994
2.6675
2.64601
2.62557
2.60616
2.58772
2.57024
2.55379
2.53862
2.52349
2.50759
2.49357
2.47975
2.46549
2.45091
2.43641
2.42253
2.40953
2.39756
2.38798
2.37907
2.373
2.37046
2.36935
2.36984
2.37205
2.37532
2.37928
2.38346
2.38744
2.39085
2.39346
2.39522
2.39611
2.39632
2.7263
2.74303
2.7609
2.77922
2.79711
2.81347
2.82702
2.83615
2.84011
2.83947
2.83228
2.81872
2.79976
2.77663
2.7512
2.7248
2.6987
2.67381
2.65037
2.62862
2.60846
2.5897
2.57218
2.55571
2.54034
2.52488
2.50968
2.49514
2.48058
2.46573
2.45065
2.43558
2.42095
2.40705
2.39413
2.38281
2.37325
2.36554
2.36093
2.35891
2.35858
2.35994
2.36275
2.36654
2.37077
2.37495
2.37864
2.38157
2.38365
2.38489
2.38537
2.74794
2.76659
2.78611
2.80582
2.82479
2.84185
2.85551
2.86449
2.86807
2.86646
2.85772
2.84195
2.82066
2.79449
2.76592
2.73641
2.70748
2.68028
2.65516
2.63229
2.61147
2.59251
2.57507
2.55871
2.54319
2.52803
2.51315
2.49833
2.48327
2.46786
2.45217
2.43646
2.421
2.40598
2.39183
2.37904
2.36792
2.35857
2.35189
2.34849
2.34749
2.3482
2.35079
2.35472
2.35941
2.36423
2.36863
2.37224
2.37485
2.37658
2.37751
2.76816
2.78833
2.80915
2.82988
2.84958
2.86706
2.88086
2.88957
2.89276
2.89033
2.8803
2.86294
2.8393
2.81079
2.77948
2.74733
2.71584
2.6866
2.66033
2.63635
2.61506
2.59603
2.57873
2.56268
2.54746
2.53264
2.51796
2.50313
2.48788
2.47211
2.45585
2.43928
2.42269
2.40645
2.39081
2.37628
2.36329
2.35196
2.34305
2.33796
2.33608
2.33617
2.33874
2.34322
2.34889
2.35499
2.36074
2.36554
2.36907
2.37143
2.37286
2.78674
2.80812
2.82991
2.85137
2.87154
2.8892
2.9029
2.91137
2.91413
2.91097
2.89979
2.88099
2.85561
2.82508
2.79149
2.75711
2.72379
2.69291
2.66517
2.64063
2.61909
2.60011
2.5831
2.5675
2.55276
2.53843
2.52411
2.50946
2.49425
2.47831
2.46162
2.44426
2.42645
2.40857
2.39118
2.37459
2.35934
2.34583
2.33457
2.32728
2.32439
2.32409
2.327
2.33257
2.33991
2.34792
2.35556
2.36193
2.36655
2.36959
2.37155
2.80353
2.82584
2.84832
2.87022
2.89059
2.90826
2.92183
2.92986
2.93217
2.92813
2.91617
2.89599
2.86935
2.83716
2.80165
2.76565
2.73075
2.6986
2.66995
2.64496
2.62337
2.60462
2.58807
2.57306
2.55897
2.54527
2.53149
2.51725
2.50225
2.48627
2.46924
2.45118
2.43224
2.41272
2.39313
2.37419
2.35629
2.33997
2.32603
2.31578
2.31127
2.31041
2.31357
2.32043
2.32983
2.3404
2.35066
2.3594
2.36577
2.36983
2.37252
2.8184
2.84139
2.86431
2.8864
2.90675
2.92421
2.93746
2.94503
2.94689
2.9421
2.92946
2.90827
2.88033
2.84676
2.81008
2.77272
2.73664
2.70361
2.67439
2.64916
2.62774
2.60941
2.59348
2.57923
2.56596
2.55306
2.54001
2.52635
2.51173
2.49589
2.47866
2.45999
2.43995
2.41875
2.39687
2.37502
2.35402
2.33438
2.31704
2.30321
2.2963
2.29467
2.29841
2.30767
2.32084
2.33575
2.35008
2.36198
2.37077
2.37562
2.37754
2.64309
2.63732
2.632
2.62719
2.62296
2.61933
2.61634
2.614
2.61232
2.61128
2.61084
2.61095
2.61156
2.61261
2.61397
2.61557
2.6173
2.61907
2.62077
2.62229
2.62353
2.62436
2.62468
2.62444
2.62357
2.62188
2.64472
2.63907
2.63383
2.62906
2.62479
2.62107
2.61793
2.61538
2.61342
2.61203
2.6112
2.61088
2.61102
2.61155
2.61241
2.61349
2.61473
2.61603
2.6173
2.61843
2.61933
2.6199
2.62002
2.61967
2.61873
2.61708
2.64608
2.64056
2.6354
2.63064
2.62634
2.62253
2.61923
2.61645
2.6142
2.61247
2.61123
2.61046
2.61012
2.61015
2.61048
2.61105
2.61178
2.6126
2.61342
2.61416
2.61472
2.61501
2.61495
2.61448
2.61348
2.61188
2.64719
2.64179
2.6367
2.63197
2.62763
2.62371
2.62024
2.61723
2.61469
2.61261
2.61096
2.60974
2.60891
2.60842
2.60822
2.60827
2.60848
2.6088
2.60916
2.60949
2.60971
2.60971
2.60948
2.60887
2.60784
2.6063
2.64805
2.64278
2.63776
2.63304
2.62866
2.62464
2.621
2.61775
2.61491
2.61247
2.61042
2.60874
2.60741
2.6064
2.60566
2.60517
2.60485
2.60467
2.60456
2.60447
2.60433
2.60406
2.60361
2.60289
2.60181
2.60033
2.6487
2.64354
2.63859
2.63389
2.62946
2.62532
2.62151
2.61802
2.61487
2.61207
2.60961
2.60747
2.60564
2.60411
2.60283
2.60178
2.60093
2.60023
2.59964
2.59912
2.59861
2.59806
2.59739
2.59655
2.59544
2.59402
2.64914
2.6441
2.63922
2.63453
2.63004
2.62579
2.62179
2.61806
2.61461
2.61145
2.60856
2.60596
2.60363
2.60157
2.59975
2.59814
2.59674
2.59552
2.59444
2.59348
2.5926
2.59174
2.59085
2.58988
2.58876
2.58741
2.6494
2.64449
2.63967
2.63498
2.63044
2.62607
2.62189
2.61792
2.61416
2.61062
2.60732
2.60425
2.60141
2.59881
2.59644
2.59428
2.59232
2.59057
2.58899
2.58758
2.58631
2.58514
2.58403
2.58294
2.58179
2.58053
2.64951
2.64472
2.63997
2.63528
2.63068
2.62619
2.62183
2.61761
2.61353
2.60963
2.6059
2.60236
2.59901
2.59586
2.59292
2.5902
2.58769
2.58539
2.58331
2.58144
2.57978
2.57829
2.57697
2.57575
2.57458
2.57342
2.6495
2.64483
2.64014
2.63546
2.6308
2.62619
2.62163
2.61715
2.61277
2.60849
2.60433
2.60031
2.59644
2.59274
2.58923
2.58593
2.58286
2.58002
2.57742
2.57509
2.57302
2.57123
2.56968
2.56834
2.56718
2.56612
2.6494
2.64485
2.64022
2.63554
2.63082
2.62608
2.62133
2.61659
2.61188
2.60722
2.60262
2.59812
2.59372
2.58946
2.58538
2.58149
2.57783
2.57444
2.57132
2.56852
2.56606
2.56395
2.56219
2.56075
2.5596
2.55868
2.64925
2.64482
2.64026
2.63557
2.63079
2.62591
2.62096
2.61595
2.61091
2.60586
2.60081
2.5958
2.59087
2.58604
2.58135
2.57686
2.57261
2.56865
2.56502
2.56174
2.55889
2.55647
2.55451
2.55299
2.55188
2.55113
2.64909
2.64478
2.64028
2.63559
2.63073
2.62571
2.62054
2.61526
2.60987
2.60441
2.5989
2.59338
2.58788
2.58246
2.57716
2.57204
2.56718
2.56263
2.55846
2.55472
2.55148
2.54877
2.54664
2.54507
2.54404
2.5435
2.64896
2.64478
2.64034
2.63563
2.63069
2.62551
2.62012
2.61454
2.60879
2.6029
2.59691
2.59084
2.58476
2.57871
2.57276
2.567
2.56149
2.55633
2.55162
2.5474
2.54378
2.54081
2.53853
2.53697
2.53607
2.5358
2.64891
2.64486
2.64047
2.63575
2.63071
2.62536
2.61973
2.61383
2.6077
2.60135
2.59484
2.5882
2.58149
2.57477
2.56814
2.56168
2.55549
2.54969
2.54439
2.53971
2.53572
2.53251
2.53014
2.52863
2.52794
2.52802
2.649
2.64507
2.64073
2.63598
2.63083
2.6253
2.6194
2.61316
2.60661
2.59977
2.5927
2.58544
2.57804
2.57061
2.56322
2.55601
2.54908
2.54258
2.53668
2.53151
2.52717
2.52376
2.52136
2.51999
2.5196
2.5201
2.64926
2.64547
2.64118
2.63639
2.63112
2.62537
2.61918
2.61256
2.60554
2.59817
2.59048
2.58254
2.57439
2.56616
2.55795
2.5499
2.54215
2.53489
2.52833
2.52265
2.51798
2.51443
2.51207
2.51092
2.51095
2.512
2.64978
2.64612
2.64187
2.63703
2.6316
2.62562
2.61908
2.61205
2.60451
2.59655
2.58818
2.5795
2.57049
2.56139
2.55223
2.54327
2.53458
2.52645
2.51918
2.51297
2.508
2.50435
2.5021
2.50131
2.50185
2.50367
2.65059
2.64708
2.64286
2.63794
2.63233
2.62607
2.61915
2.61164
2.60354
2.59488
2.58579
2.57631
2.56633
2.55632
2.54603
2.53608
2.52632
2.51717
2.50911
2.50235
2.49708
2.49335
2.49133
2.49105
2.49219
2.49511
2.65176
2.6484
2.6442
2.63918
2.63335
2.62675
2.61939
2.61134
2.60259
2.59322
2.58325
2.57282
2.56213
2.55088
2.53965
2.52852
2.51767
2.50734
2.49846
2.49109
2.48553
2.4816
2.47966
2.48012
2.48187
2.48613
2.65336
2.65014
2.64594
2.64077
2.63467
2.62768
2.61983
2.61115
2.60169
2.59149
2.58067
2.56922
2.55802
2.54557
2.53309
2.52088
2.50896
2.49729
2.48758
2.47954
2.47372
2.46976
2.4681
2.46883
2.47126
2.47672
2.65539
2.65231
2.64808
2.64273
2.63629
2.62883
2.6204
2.61105
2.6009
2.58984
2.57827
2.56581
2.55349
2.5404
2.52499
2.51179
2.49782
2.48631
2.47583
2.46682
2.46012
2.45599
2.45515
2.45626
2.46011
2.46901
2.65793
2.6549
2.65061
2.64499
2.63813
2.63013
2.62108
2.61107
2.60027
2.5885
2.57566
2.56226
2.54685
2.53259
2.51893
2.50384
2.48846
2.47401
2.4613
2.45112
2.44405
2.44035
2.43996
2.44231
2.44765
2.4574
2.66077
2.65781
2.65337
2.64741
2.64004
2.63141
2.62178
2.61117
2.59957
2.5865
2.57167
2.55769
2.54317
2.52676
2.50964
2.49247
2.47583
2.46019
2.44683
2.43653
2.43009
2.42727
2.42765
2.43124
2.43816
2.44918
2.66375
2.66078
2.65609
2.64967
2.64168
2.63238
2.62231
2.61079
2.59723
2.58354
2.56896
2.55296
2.53583
2.51824
2.50038
2.48316
2.46659
2.44987
2.43533
2.4246
2.41865
2.41636
2.41741
2.42242
2.43121
2.44359
2.66651
2.66342
2.65836
2.65133
2.6427
2.63278
2.62114
2.60774
2.5945
2.57915
2.56282
2.54591
2.52897
2.51262
2.49484
2.47584
2.45646
2.43932
2.42526
2.41501
2.40992
2.40869
2.41112
2.41759
2.42748
2.44125
2.66861
2.66529
2.65969
2.65202
2.64275
2.6314
2.6186
2.60371
2.58816
2.57235
2.55657
2.54032
2.52437
2.50643
2.48877
2.47096
2.45255
2.43441
2.41886
2.40805
2.40279
2.40301
2.40726
2.41538
2.42728
2.44313
2.66957
2.66593
2.65975
2.65114
2.6403
2.62722
2.61199
2.59625
2.58072
2.56578
2.55199
2.53631
2.52073
2.50493
2.48802
2.47026
2.45164
2.43356
2.41751
2.40671
2.4021
2.40256
2.4087
2.41852
2.43255
2.44968
2.66886
2.6649
2.6582
2.64839
2.63386
2.61824
2.60278
2.58755
2.57308
2.55978
2.54582
2.53368
2.51987
2.50477
2.48866
2.4718
2.45468
2.43873
2.42469
2.41537
2.41184
2.41278
2.419
2.42845
2.4408
2.45704
2.66632
2.6615
2.65286
2.63926
2.62387
2.60825
2.59295
2.57894
2.56673
2.55429
2.54353
2.53189
2.51894
2.50501
2.49039
2.47548
2.46099
2.44786
2.43657
2.42835
2.42472
2.42507
2.43026
2.43974
2.45262
2.46766
2.66173
2.6539
2.64165
2.62793
2.61273
2.59745
2.58344
2.5716
2.55986
2.55033
2.54027
2.52937
2.51766
2.50518
2.49224
2.47935
2.46692
2.45575
2.44659
2.44015
2.43777
2.43877
2.4437
2.45204
2.46281
2.47523
2.6511
2.64108
2.6294
2.61573
2.60115
2.58712
2.57473
2.56345
2.55391
2.5453
2.53584
2.526
2.5156
2.50465
2.49347
2.4825
2.4722
2.46309
2.45574
2.45051
2.44886
2.4498
2.45404
2.46086
2.46964
2.48026
2.63637
2.62711
2.61577
2.60301
2.58965
2.57713
2.56736
2.55432
2.54669
2.53937
2.53055
2.52167
2.51254
2.50302
2.49346
2.48419
2.47557
2.46803
2.46198
2.45791
2.45657
2.45785
2.46226
2.46929
2.47869
2.48901
2.61975
2.61125
2.601
2.58977
2.57812
2.56727
2.55856
2.54656
2.53967
2.53285
2.52465
2.51666
2.50844
2.50003
2.4917
2.48363
2.47615
2.46965
2.46476
2.46248
2.46257
2.46516
2.46928
2.47524
2.48291
2.49027
2.60106
2.59367
2.58461
2.57493
2.56517
2.55604
2.54874
2.53768
2.53068
2.5252
2.51779
2.51025
2.50251
2.4949
2.48777
2.48122
2.47544
2.47077
2.46782
2.46707
2.468
2.47108
2.47553
2.4811
2.4876
2.49426
2.57982
2.57346
2.56557
2.55691
2.54829
2.54031
2.53221
2.52413
2.51771
2.51163
2.50527
2.49862
2.49221
2.48582
2.48053
2.47568
2.47174
2.46896
2.46782
2.46808
2.46992
2.47319
2.47741
2.4825
2.48808
2.49377
2.55608
2.5508
2.54425
2.53698
2.52946
2.52211
2.51495
2.50816
2.50212
2.49624
2.49039
2.4847
2.47935
2.47444
2.47021
2.46668
2.46405
2.46289
2.46285
2.46413
2.46671
2.47031
2.4746
2.47952
2.4846
2.4896
2.53186
2.52765
2.52235
2.51641
2.51019
2.50393
2.49775
2.49179
2.48609
2.48053
2.47516
2.47009
2.4654
2.4613
2.45772
2.45504
2.45349
2.45317
2.4541
2.45614
2.45938
2.46338
2.46806
2.47304
2.47807
2.48285
2.50799
2.50461
2.50036
2.49554
2.49039
2.48509
2.47973
2.47439
2.46911
2.46392
2.45888
2.45414
2.44976
2.44587
2.44263
2.44037
2.43934
2.43959
2.44103
2.44376
2.44752
2.4522
2.45739
2.46291
2.46835
2.47341
2.48516
2.4825
2.47909
2.47517
2.4709
2.46638
2.46165
2.45678
2.45182
2.44682
2.44188
2.4371
2.4326
2.42857
2.42515
2.42281
2.42179
2.42207
2.42384
2.42689
2.4312
2.43658
2.44264
2.44912
2.45549
2.46138
2.46364
2.46152
2.45878
2.45556
2.45194
2.44797
2.44368
2.43909
2.43426
2.42924
2.4241
2.41898
2.41394
2.40935
2.40526
2.40223
2.40075
2.40061
2.40215
2.40538
2.41005
2.41633
2.42362
2.43151
2.4394
2.44676
2.44366
2.442
2.43978
2.43707
2.43392
2.43032
2.42627
2.42178
2.41686
2.41154
2.4059
2.40003
2.39408
2.3884
2.38313
2.37879
2.37596
2.37496
2.37582
2.37881
2.38381
2.39105
2.39992
2.40982
2.41995
2.42955
2.42554
2.42424
2.42239
2.42006
2.41721
2.4138
2.40981
2.40519
2.39994
2.39406
2.38758
2.3806
2.37329
2.36595
2.3589
2.35263
2.34754
2.34498
2.34453
2.34677