/*--------------------------------*- C++ -*----------------------------------*\
  =========                 |
  \\      /  F ield         | OpenFOAM: The Open Source CFD Toolbox
   \\    /   O peration     | Website:  https://openfoam.org
    \\  /    A nd           | Version:  10
     \\/     M anipulation  |
\*---------------------------------------------------------------------------*/
FoamFile
{
    format      ascii;
    class       volScalarField;
    location    "0.500916";
    object      rho;
}
// * * * * * * * * * * * * * * * * * * * * * * * * * * * * * * * * * * * * * //

dimensions      [1 -3 0 0 0 0 0];

internalField   nonuniform List<scalar> 
15708
(
0.986307
0.992679
0.998879
1.00494
1.01069
1.01619
1.02135
1.02619
1.03068
1.03482
1.03865
1.04218
1.0454
1.04838
1.05102
1.05353
1.05564
1.05779
1.05944
1.06122
1.06263
1.06392
1.06512
1.06613
1.06697
1.06768
1.06825
1.06868
1.06895
1.06906
1.06902
1.06881
1.06847
1.06796
1.0673
1.06648
1.06552
1.06439
1.06313
1.06175
1.06026
1.05864
1.05695
1.05517
1.05332
1.05141
1.0495
1.04757
1.04566
1.04379
1.04197
0.987417
0.993801
1.00003
1.00606
1.01182
1.01727
1.0224
1.02719
1.03161
1.03571
1.0395
1.04296
1.04614
1.04904
1.0517
1.05408
1.05627
1.05824
1.06003
1.06162
1.06305
1.06431
1.06544
1.06638
1.06719
1.06785
1.06838
1.06877
1.069
1.06906
1.06897
1.06873
1.06836
1.06783
1.06715
1.06631
1.06535
1.06424
1.06299
1.06163
1.06016
1.05859
1.05694
1.0552
1.05343
1.05158
1.04973
1.04786
1.046
1.0442
1.04242
0.988807
0.995182
1.00139
1.00735
1.01301
1.01837
1.0234
1.02809
1.03244
1.03643
1.04014
1.04352
1.04666
1.04946
1.0521
1.05439
1.05656
1.05847
1.06022
1.06179
1.06317
1.06441
1.06548
1.06639
1.06715
1.06777
1.06825
1.0686
1.06879
1.06881
1.06868
1.06842
1.06802
1.06747
1.06678
1.06594
1.06497
1.06388
1.06265
1.06133
1.05989
1.05837
1.0568
1.05511
1.05339
1.05161
1.04982
1.04803
1.04625
1.04449
1.04278
0.990496
0.996768
1.00288
1.00872
1.01428
1.0195
1.0244
1.02897
1.03319
1.03709
1.04067
1.04397
1.04699
1.04975
1.05228
1.05455
1.05664
1.05851
1.06019
1.06172
1.06307
1.06426
1.06528
1.06615
1.06688
1.06746
1.0679
1.06821
1.06836
1.06835
1.06818
1.0679
1.06749
1.06694
1.06624
1.06541
1.06445
1.06338
1.06219
1.0609
1.05952
1.05805
1.0565
1.05491
1.05324
1.05156
1.04982
1.04812
1.04639
1.04471
1.04306
0.992338
0.99854
1.0045
1.0102
1.01559
1.02066
1.02537
1.02982
1.03381
1.0377
1.04098
1.04437
1.04708
1.04992
1.05227
1.05447
1.05654
1.05834
1.05996
1.06143
1.06276
1.06389
1.06486
1.06569
1.06638
1.06691
1.06732
1.0676
1.06771
1.06767
1.0675
1.06721
1.06678
1.06622
1.06553
1.06472
1.06378
1.06273
1.0616
1.06036
1.05901
1.05762
1.05613
1.05458
1.05301
1.05139
1.04975
1.04809
1.04646
1.04483
1.04325
0.994362
1.00042
1.00624
1.01177
1.01696
1.02182
1.02635
1.0305
1.03452
1.03795
1.04137
1.0443
1.04724
1.04964
1.0521
1.05421
1.05618
1.05796
1.05952
1.06094
1.06218
1.06328
1.06422
1.06502
1.06567
1.06617
1.06655
1.0668
1.06688
1.06682
1.06663
1.06633
1.0659
1.06533
1.06465
1.06386
1.06295
1.06196
1.06086
1.05967
1.05842
1.05704
1.05564
1.05417
1.05269
1.05113
1.0496
1.04801
1.04644
1.04487
1.04334
0.995676
1.00232
1.00785
1.01337
1.01833
1.02285
1.02741
1.03109
1.03519
1.03789
1.04179
1.04407
1.0477
1.04906
1.05223
1.05352
1.05594
1.05738
1.05887
1.06018
1.06138
1.06243
1.06334
1.06411
1.06474
1.06522
1.06559
1.0658
1.06586
1.06578
1.06559
1.06527
1.06485
1.0643
1.06364
1.06287
1.06199
1.06105
1.05998
1.05886
1.05767
1.05639
1.05507
1.05369
1.05226
1.05081
1.04933
1.04786
1.04633
1.04485
1.04337
0.997828
1.00606
1.00936
1.01466
1.01939
1.02412
1.02782
1.03208
1.03484
1.03919
1.04104
1.04484
1.04626
1.04962
1.05074
1.05368
1.05479
1.0566
1.05812
1.05936
1.06047
1.06141
1.06228
1.06305
1.06365
1.06412
1.06445
1.06463
1.06466
1.06457
1.06438
1.06405
1.06364
1.06311
1.06248
1.06172
1.06091
1.06001
1.05903
1.05796
1.05682
1.05566
1.05441
1.05312
1.05177
1.05041
1.04904
1.0476
1.0462
1.04477
1.04331
1.00059
1.00616
1.01151
1.0164
1.02102
1.02514
1.02901
1.03242
1.03583
1.03855
1.0416
1.04388
1.04649
1.04845
1.05061
1.05235
1.05412
1.05561
1.05702
1.05824
1.05937
1.06034
1.06116
1.06184
1.06241
1.06284
1.06313
1.06329
1.06331
1.06322
1.06303
1.06272
1.06231
1.06181
1.06118
1.0605
1.05971
1.05886
1.05794
1.05696
1.05592
1.05483
1.05368
1.05247
1.05126
1.04995
1.04866
1.04733
1.046
1.04464
1.04325
1.00498
1.00736
1.01457
1.01717
1.02313
1.02598
1.02936
1.0328
1.03584
1.03868
1.04129
1.04359
1.04579
1.04786
1.0497
1.05145
1.0531
1.05453
1.05588
1.05704
1.05812
1.05899
1.0598
1.06049
1.06102
1.0614
1.06168
1.06181
1.06184
1.06175
1.06155
1.06127
1.06084
1.06036
1.05982
1.05913
1.05842
1.05763
1.0568
1.05587
1.05494
1.0539
1.05287
1.05177
1.05062
1.04946
1.04822
1.04701
1.04575
1.04447
1.04315
1.00511
1.01064
1.01496
1.01953
1.02318
1.02709
1.03009
1.03348
1.03591
1.03879
1.04079
1.04319
1.04496
1.04723
1.04872
1.05096
1.052
1.05337
1.05461
1.0558
1.05674
1.05761
1.05836
1.05898
1.05946
1.05985
1.0601
1.06023
1.06024
1.06015
1.05996
1.05968
1.0593
1.05883
1.05829
1.05771
1.05703
1.05632
1.05552
1.05472
1.05389
1.05293
1.052
1.05104
1.04995
1.04895
1.0478
1.04666
1.04548
1.04427
1.04308
1.00773
1.01244
1.01681
1.02092
1.02447
1.02773
1.03082
1.03352
1.03615
1.03831
1.0407
1.04256
1.04448
1.04622
1.04781
1.04931
1.05076
1.05206
1.05323
1.05433
1.05525
1.05609
1.05681
1.05745
1.05791
1.05823
1.05846
1.05856
1.05857
1.05847
1.05827
1.058
1.05763
1.05722
1.05669
1.05616
1.05557
1.05492
1.05422
1.05352
1.05274
1.05196
1.05109
1.05025
1.0493
1.04837
1.04733
1.04632
1.0452
1.04405
1.0429
1.01093
1.01395
1.01953
1.02215
1.02533
1.0284
1.03104
1.03378
1.03582
1.03825
1.03999
1.04207
1.04358
1.04532
1.04676
1.0482
1.0495
1.05072
1.05187
1.05283
1.05371
1.05453
1.05525
1.05579
1.05621
1.05651
1.05672
1.0568
1.05682
1.05677
1.05656
1.05628
1.05585
1.05539
1.05499
1.05454
1.05404
1.05347
1.05287
1.05224
1.0516
1.0509
1.05021
1.04942
1.04866
1.04778
1.04689
1.0459
1.04494
1.0438
1.04277
1.0114
1.01609
1.01957
1.0233
1.02617
1.02914
1.0314
1.03382
1.03581
1.03778
1.03952
1.04126
1.04282
1.04421
1.0457
1.04696
1.04817
1.0494
1.05035
1.05135
1.05219
1.05294
1.05358
1.05412
1.05451
1.0548
1.05495
1.05502
1.05498
1.05488
1.05474
1.05441
1.054
1.05364
1.05329
1.05288
1.0524
1.05193
1.05144
1.05091
1.05039
1.04982
1.04922
1.04862
1.04794
1.04725
1.04643
1.0456
1.04464
1.04368
1.04258
1.01357
1.01788
1.02119
1.02438
1.02706
1.02952
1.03172
1.03363
1.03561
1.03728
1.03895
1.04049
1.0418
1.04328
1.04444
1.04573
1.04685
1.04796
1.04885
1.04989
1.05063
1.05136
1.05194
1.05237
1.05276
1.053
1.05314
1.05318
1.05315
1.053
1.05279
1.05249
1.05224
1.05185
1.05141
1.05105
1.05071
1.05035
1.04996
1.04954
1.04913
1.0487
1.04824
1.04774
1.0472
1.04662
1.04595
1.0452
1.04439
1.04353
1.04248
1.01623
1.0188
1.02296
1.02504
1.02791
1.02968
1.03193
1.03346
1.03565
1.03692
1.03817
1.03936
1.04078
1.04197
1.04328
1.04445
1.04558
1.04659
1.04751
1.04837
1.04911
1.04977
1.0503
1.05072
1.05101
1.05123
1.05131
1.05132
1.05123
1.05106
1.05083
1.05054
1.05024
1.04988
1.04964
1.04926
1.04898
1.04862
1.04835
1.04811
1.0478
1.04752
1.04724
1.04689
1.0465
1.04602
1.04555
1.04478
1.04424
1.04318
1.04244
1.0179
1.02046
1.02301
1.02589
1.02827
1.03018
1.03167
1.03347
1.03449
1.0364
1.03707
1.03876
1.04007
1.04127
1.04225
1.04316
1.04414
1.04518
1.046
1.04691
1.04761
1.0482
1.04868
1.04907
1.0493
1.04947
1.0495
1.04944
1.04933
1.04907
1.04884
1.04851
1.04823
1.04791
1.04763
1.04734
1.04711
1.04691
1.04673
1.04658
1.04644
1.04631
1.04617
1.04598
1.04573
1.04542
1.04505
1.04454
1.04399
1.04316
1.0424
1.01917
1.02143
1.02474
1.02688
1.02861
1.0298
1.03148
1.03273
1.03398
1.03526
1.03633
1.03757
1.03871
1.03981
1.04094
1.04198
1.04301
1.04387
1.04482
1.04554
1.04622
1.04671
1.04719
1.04749
1.0477
1.04776
1.04775
1.0476
1.04737
1.04711
1.04673
1.04647
1.0461
1.04583
1.04555
1.04535
1.04513
1.04506
1.04501
1.04498
1.04498
1.04503
1.04507
1.04506
1.045
1.04485
1.04462
1.04427
1.04375
1.04322
1.04237
1.01943
1.02282
1.02495
1.02722
1.02857
1.03012
1.031
1.03221
1.03316
1.03426
1.03541
1.0364
1.03747
1.03857
1.03964
1.04076
1.04182
1.04265
1.0436
1.04427
1.04493
1.04541
1.04572
1.04595
1.04608
1.04611
1.04597
1.0458
1.04545
1.04505
1.04471
1.04428
1.04397
1.04358
1.0434
1.0432
1.04308
1.04306
1.04315
1.04331
1.04348
1.04366
1.04387
1.04416
1.04432
1.04441
1.04433
1.04411
1.04371
1.04317
1.04239
1.02117
1.02389
1.02536
1.02693
1.02837
1.02958
1.03056
1.0314
1.03224
1.03319
1.03412
1.03546
1.03665
1.03763
1.03854
1.03954
1.04058
1.04147
1.04246
1.04317
1.04373
1.04417
1.04441
1.04458
1.04458
1.04447
1.04425
1.04399
1.04353
1.04307
1.04258
1.04208
1.04166
1.04134
1.04103
1.04101
1.04092
1.04097
1.0412
1.04142
1.04192
1.04228
1.0427
1.04317
1.04354
1.04377
1.04385
1.04377
1.04358
1.04319
1.04259
1.02222
1.02396
1.02579
1.02691
1.02802
1.02877
1.02955
1.03047
1.03153
1.0321
1.03281
1.0339
1.03495
1.03622
1.03733
1.03856
1.03958
1.04049
1.04134
1.04208
1.0427
1.04311
1.0434
1.04347
1.04336
1.04307
1.04267
1.04224
1.04167
1.041
1.04038
1.03979
1.03933
1.03887
1.03862
1.03853
1.03854
1.03866
1.03898
1.03946
1.0399
1.04085
1.04131
1.04201
1.0426
1.04319
1.04355
1.0437
1.04366
1.04333
1.04285
1.02316
1.02476
1.0257
1.0265
1.0271
1.02769
1.02837
1.02889
1.02968
1.03066
1.03151
1.03257
1.03359
1.03482
1.03608
1.03736
1.03867
1.03967
1.04066
1.04134
1.04189
1.04217
1.04229
1.04218
1.04196
1.04155
1.04114
1.04041
1.03978
1.03892
1.03815
1.03744
1.03677
1.03626
1.03602
1.03583
1.03589
1.03623
1.03649
1.03692
1.03801
1.03884
1.03983
1.04084
1.04166
1.04254
1.04321
1.04362
1.04386
1.04365
1.04313
1.02382
1.02472
1.02543
1.02592
1.0262
1.02651
1.02675
1.02711
1.02753
1.0287
1.0297
1.0306
1.03174
1.03314
1.03445
1.03586
1.03732
1.03862
1.03966
1.04052
1.04113
1.04143
1.04155
1.04143
1.04108
1.04045
1.03992
1.03891
1.03806
1.03682
1.03591
1.03493
1.03418
1.03345
1.03314
1.03285
1.03291
1.03327
1.03356
1.03491
1.03544
1.03665
1.03798
1.0393
1.04058
1.04173
1.0425
1.04305
1.04361
1.04371
1.04355
1.02475
1.02537
1.02554
1.02529
1.02524
1.02506
1.02519
1.02517
1.02543
1.02603
1.0272
1.02866
1.03006
1.03156
1.03309
1.03458
1.03606
1.03755
1.03899
1.03992
1.04063
1.04096
1.04093
1.04061
1.04007
1.03926
1.03856
1.03734
1.03631
1.03487
1.03375
1.03232
1.03133
1.03037
1.03013
1.03
1.03069
1.0313
1.0325
1.03317
1.03417
1.0365
1.03646
1.03811
1.03965
1.04116
1.04217
1.04257
1.04296
1.04316
1.04319
1.02587
1.02633
1.02561
1.0269
1.02711
1.03015
1.0316
1.03125
1.03131
1.03095
1.02986
1.03019
1.03081
1.03178
1.03284
1.03408
1.03531
1.03647
1.03783
1.03915
1.03997
1.04041
1.04057
1.04008
1.03944
1.03837
1.03754
1.03594
1.03457
1.03286
1.03185
1.02997
1.02922
1.02994
1.03095
1.03364
1.03557
1.03973
1.04199
1.0444
1.04322
1.04195
1.04522
1.04166
1.04117
1.04172
1.04249
1.04299
1.04279
1.04276
1.04293
1.02905
1.03756
1.03833
1.05445
1.07832
1.08609
1.11257
1.11468
1.11586
1.10101
1.08471
1.06617
1.05284
1.04396
1.03859
1.03705
1.03674
1.03697
1.03775
1.03877
1.03951
1.03989
1.04008
1.03958
1.03901
1.03769
1.03655
1.03462
1.03313
1.03128
1.03404
1.03118
1.03844
1.04852
1.05711
1.07478
1.08658
1.1119
1.12057
1.11664
1.12013
1.10023
1.07871
1.06592
1.05596
1.05026
1.04704
1.0451
1.04392
1.0435
1.04376
1.06159
1.12679
1.20854
1.30651
1.40792
1.47526
1.55788
1.57355
1.56631
1.52828
1.46293
1.34883
1.19307
1.11175
1.07093
1.04987
1.04067
1.03811
1.03815
1.03885
1.03959
1.03974
1.03986
1.03916
1.03862
1.03721
1.03556
1.03348
1.03392
1.03391
1.05987
1.05565
1.10587
1.17134
1.24224
1.34759
1.42879
1.50448
1.53861
1.53788
1.49851
1.4314
1.34759
1.21569
1.12128
1.07743
1.05794
1.04931
1.04558
1.04431
1.04447
1.46659
1.6205
1.73669
1.8051
1.84793
1.86602
1.88459
1.89537
1.89202
1.86469
1.84687
1.74629
1.63104
1.3699
1.17954
1.09196
1.05838
1.04489
1.04033
1.03977
1.04024
1.04027
1.03998
1.03964
1.03837
1.03753
1.03547
1.04013
1.04703
1.09561
1.17007
1.33884
1.51492
1.65748
1.75952
1.82695
1.8559
1.88086
1.8855
1.88059
1.86791
1.80518
1.73349
1.57421
1.33022
1.16317
1.09594
1.06234
1.04841
1.04472
1.04472
1.8926
1.90137
1.90591
1.89343
1.88151
1.87073
1.86865
1.87361
1.88231
1.88423
1.8883
1.8584
1.82171
1.64442
1.38653
1.19368
1.09918
1.05938
1.04511
1.04154
1.04122
1.04108
1.04049
1.0403
1.03861
1.0419
1.04638
1.09936
1.21697
1.48453
1.70227
1.82975
1.88046
1.90324
1.90603
1.90304
1.89877
1.89638
1.90154
1.9106
1.91882
1.91308
1.88459
1.78973
1.58474
1.26934
1.1101
1.06015
1.04601
1.04393
1.04496
1.91032
1.84817
1.78581
1.67795
1.6203
1.57605
1.57778
1.60004
1.6527
1.75319
1.83081
1.84389
1.83031
1.74058
1.4939
1.22907
1.10558
1.06017
1.04543
1.0422
1.04208
1.04192
1.04129
1.04113
1.04555
1.07654
1.20398
1.53547
1.8006
1.91019
1.93395
1.91492
1.87706
1.80886
1.74476
1.69314
1.69234
1.71228
1.76268
1.82904
1.88396
1.90312
1.89947
1.8245
1.56278
1.24267
1.09126
1.04903
1.04267
1.0437
1.04687
1.63949
1.46427
1.31637
1.22632
1.19104
1.18019
1.19048
1.22099
1.29135
1.43039
1.64102
1.77108
1.79881
1.72855
1.45959
1.20309
1.0928
1.05417
1.04335
1.04245
1.04294
1.04306
1.04316
1.05159
1.12339
1.49172
1.83613
1.96429
1.9749
1.93549
1.84644
1.69755
1.51994
1.38576
1.30479
1.27439
1.28623
1.32843
1.39767
1.52489
1.71784
1.873
1.87709
1.73331
1.51625
1.13442
1.05317
1.04118
1.04301
1.05825
1.14212
1.19108
1.10723
1.08178
1.08021
1.08267
1.08974
1.0943
1.114
1.17607
1.38353
1.6361
1.76769
1.77418
1.63765
1.34363
1.13014
1.06065
1.04322
1.04189
1.04321
1.04428
1.04454
1.06237
1.29458
1.84469
2.02023
2.01337
1.96343
1.84987
1.66243
1.43454
1.22433
1.13053
1.10233
1.09996
1.1119
1.13529
1.18536
1.31401
1.48855
1.72264
1.8287
1.76641
1.69429
1.17676
1.06794
1.04007
1.04383
1.07923
1.24324
1.73417
1.04754
1.04674
1.0607
1.09079
1.12543
1.15166
1.14917
1.18068
1.29893
1.5329
1.68369
1.7226
1.65575
1.41667
1.14124
1.06338
1.04259
1.04127
1.04297
1.04607
1.0615
1.2003
1.75879
2.00858
2.0355
1.9992
1.89978
1.7291
1.49063
1.22911
1.09546
1.06026
1.05627
1.07333
1.11799
1.15567
1.18116
1.23832
1.37067
1.57707
1.69957
1.72959
1.73048
1.21104
1.08255
1.04316
1.04813
1.10794
1.34881
1.81676
2.00217
1.03374
1.06073
1.12912
1.22454
1.31826
1.38572
1.42775
1.44656
1.5427
1.6124
1.65915
1.62563
1.34062
1.12797
1.05935
1.04077
1.04131
1.04547
1.06326
1.14449
1.55293
1.91585
2.02902
2.02946
1.96759
1.8327
1.62665
1.36357
1.12981
1.05039
1.03828
1.06518
1.13842
1.25752
1.33689
1.37789
1.40482
1.44618
1.58401
1.63664
1.69404
1.71986
1.14979
1.08994
1.04919
1.05516
1.14113
1.48182
1.8948
1.98196
2.03271
1.03595
1.08176
1.16489
1.28252
1.38482
1.44476
1.46998
1.50897
1.52995
1.52874
1.4149
1.2246
1.09886
1.04226
1.04169
1.04274
1.05557
1.10713
1.31276
1.74352
1.98211
2.03239
2.01794
1.93548
1.77849
1.56008
1.29774
1.09675
1.04024
1.03056
1.06137
1.14131
1.26377
1.36764
1.41268
1.4523
1.48944
1.53928
1.56034
1.58832
1.51426
1.1135
1.08436
1.05939
1.06939
1.20932
1.59943
1.91388
1.99161
2.03001
2.03036
1.02654
1.04798
1.09715
1.17352
1.25558
1.33638
1.34197
1.35695
1.29164
1.19881
1.11517
1.05046
1.04712
1.04526
1.04743
1.08257
1.19753
1.55706
1.87732
2.01186
2.03412
2.00888
1.91653
1.75541
1.54612
1.30361
1.1037
1.03668
1.0223
1.03285
1.07128
1.14438
1.25021
1.32705
1.41049
1.40702
1.43084
1.43232
1.36588
1.24161
1.10482
1.05448
1.06982
1.10567
1.29392
1.62539
1.97546
1.98109
2.02661
2.03021
2.02635
1.01734
1.02011
1.02983
1.04757
1.08375
1.08493
1.09918
1.09718
1.06798
1.04763
1.04678
1.04282
1.05223
1.07129
1.1554
1.38975
1.71781
1.98237
2.01895
2.03968
2.00728
1.91987
1.77153
1.58486
1.36007
1.1457
1.04576
1.02069
1.01452
1.01755
1.03951
1.08005
1.13382
1.18621
1.19532
1.20623
1.19704
1.1496
1.10297
1.0575
1.06931
1.08017
1.17736
1.46994
1.84054
1.84599
2.0013
2.00727
2.02548
2.02595
2.02146
1.02115
1.02031
1.0215
1.02448
1.02651
1.03254
1.03559
1.04004
1.04287
1.04865
1.05994
1.08017
1.14351
1.30526
1.65899
1.85931
2.02442
2.03796
2.04503
2.01923
1.94196
1.82295
1.66218
1.45993
1.24818
1.07188
1.03471
1.01339
1.00817
1.0037
1.00837
1.01992
1.03284
1.04425
1.04864
1.0517
1.0517
1.05219
1.05914
1.07596
1.12425
1.2645
1.53583
1.90991
1.88109
1.9936
1.99762
2.0131
2.01624
2.01391
2.01084
1.03477
1.03339
1.03204
1.0339
1.03771
1.04193
1.05048
1.06024
1.07675
1.10973
1.1784
1.33367
1.59784
1.80554
1.99923
2.01698
2.05929
2.05464
2.03474
1.976
1.88516
1.75959
1.59179
1.3971
1.19909
1.07883
1.02119
1.01712
1.00911
1.00312
1.00403
1.00835
1.01329
1.01833
1.02507
1.03494
1.04808
1.06732
1.11446
1.22992
1.45725
1.80824
1.78381
1.93947
1.95129
1.98795
1.99724
2.0027
2.00186
2.00044
1.99829
1.09979
1.08229
1.08346
1.08344
1.0945
1.11077
1.1438
1.19987
1.30353
1.47069
1.644
1.81805
1.98169
1.9924
2.06504
2.06642
2.07037
2.05331
2.01666
1.95349
1.86551
1.73921
1.5777
1.39664
1.22181
1.06532
1.04748
1.01907
1.01683
1.0097
1.00938
1.01449
1.02208
1.03222
1.04875
1.08035
1.13973
1.26314
1.45078
1.63931
1.78497
1.90441
1.89235
1.96046
1.96828
1.98274
1.98788
1.989
1.9876
1.98604
1.98526
1.29924
1.30854
1.30281
1.34124
1.39793
1.45141
1.54702
1.65759
1.77392
1.86296
1.99316
2.0221
2.07156
2.07048
2.08877
2.0839
2.0749
2.05017
2.01101
1.9532
1.87034
1.75401
1.60955
1.44503
1.27964
1.15747
1.04745
1.05984
1.03629
1.04377
1.03795
1.05563
1.08313
1.13011
1.21828
1.33318
1.48078
1.6258
1.73622
1.88426
1.87077
1.93107
1.9378
1.96263
1.96815
1.97428
1.97464
1.97428
1.97441
1.97403
1.97297
1.74617
1.72693
1.72854
1.76387
1.82101
1.8445
1.9098
1.97181
2.01206
2.06149
2.0867
2.10479
2.10281
2.10819
2.10195
2.0935
2.07875
2.05339
2.01867
1.97057
1.90146
1.80828
1.69364
1.55903
1.41864
1.28858
1.22014
1.15453
1.15974
1.1539
1.18919
1.25125
1.34889
1.44264
1.54886
1.64765
1.75222
1.82511
1.87254
1.90321
1.93384
1.9378
1.9489
1.95689
1.96062
1.96173
1.96161
1.96338
1.96297
1.96241
1.96181
1.97293
1.97403
1.98224
2.003
2.02912
2.04417
2.07097
2.09729
2.11309
2.1264
2.12667
2.13229
2.12592
2.12311
2.11284
2.1013
2.08553
2.06366
2.0359
1.99764
1.94514
1.878
1.79508
1.69908
1.59841
1.50546
1.45863
1.42377
1.42037
1.43201
1.4786
1.55849
1.63694
1.70533
1.77075
1.82462
1.87307
1.89544
1.92066
1.92047
1.93619
1.93926
1.94517
1.94871
1.9493
1.95095
1.95191
1.95189
1.95192
1.95151
1.95075
2.06708
2.07632
2.08415
2.09579
2.10867
2.12107
2.13355
2.14463
2.15067
2.15259
2.15121
2.1509
2.14529
2.13431
2.12384
2.10953
2.09378
2.07545
2.0516
2.0227
1.98522
1.94031
1.88603
1.82506
1.7625
1.70637
1.6812
1.66431
1.65939
1.67727
1.7185
1.77517
1.81512
1.85036
1.87666
1.89928
1.91047
1.92319
1.92339
1.93052
1.93155
1.93489
1.93766
1.93794
1.93986
1.94107
1.94152
1.9423
1.94207
1.94168
1.94124
2.1049
2.11067
2.12377
2.13247
2.14435
2.15367
2.16282
2.16984
2.17307
2.17403
2.17176
2.16767
2.15785
2.14633
2.13397
2.11815
2.10171
2.08422
2.06497
2.04141
2.01523
1.98487
1.95093
1.9138
1.87738
1.85397
1.83434
1.82481
1.82269
1.83755
1.86192
1.88743
1.90042
1.91213
1.91851
1.92295
1.92778
1.9231
1.92436
1.92583
1.92603
1.92783
1.9281
1.92946
1.93105
1.93197
1.93293
1.93333
1.93297
1.93254
1.93139
2.12367
2.13314
2.14364
2.15434
2.16503
2.17493
2.18288
2.18888
2.19101
2.19197
2.18709
2.18131
2.16839
2.15821
2.14093
2.12655
2.10916
2.09137
2.07356
2.05535
2.03463
2.01374
1.99169
1.96928
1.94867
1.93567
1.92268
1.91482
1.91367
1.92044
1.92838
1.93456
1.93395
1.93403
1.93184
1.92886
1.92838
1.92065
1.9207
1.9193
1.91932
1.91961
1.91993
1.92172
1.92258
1.92393
1.9245
1.9242
1.92388
1.92271
1.92148
2.13692
2.14766
2.15867
2.17026
2.18058
2.19099
2.19889
2.20391
2.20646
2.20501
2.20283
2.19053
2.18488
2.16349
2.15315
2.13004
2.11786
2.09722
2.08116
2.06391
2.04775
2.0311
2.01528
2.00079
1.98799
1.97644
1.96701
1.96121
1.9579
1.95738
1.95592
1.9529
1.9469
1.94202
1.93597
1.93058
1.9243
1.91865
1.91569
1.91281
1.91234
1.91177
1.91207
1.91323
1.91412
1.91508
1.91546
1.91464
1.91411
1.91213
1.91129
2.14824
2.15991
2.17187
2.18353
2.19496
2.205
2.2127
2.2181
2.2197
2.21925
2.21272
2.20479
2.19097
2.17506
2.15847
2.13773
2.12399
2.10093
2.08857
2.06936
2.05614
2.04167
2.02912
2.01754
2.0072
1.99799
1.99012
1.9839
1.97862
1.97388
1.96763
1.96032
1.95168
1.9441
1.93578
1.92831
1.92034
1.91474
1.90796
1.90509
1.9036
1.90251
1.90253
1.90395
1.90497
1.90617
1.90683
1.90707
1.907
1.90505
1.90384
2.15844
2.17094
2.18331
2.19531
2.20686
2.21669
2.22471
2.22946
2.23076
2.23022
2.22226
2.21457
2.19824
2.18392
2.16309
2.14584
2.12487
2.10731
2.09088
2.07484
2.06152
2.04862
2.03751
2.0275
2.01845
2.01024
2.00267
1.99567
1.98862
1.98127
1.973
1.96418
1.95455
1.94542
1.93569
1.92654
1.91722
1.90943
1.90306
1.89676
1.89501
1.89364
1.89359
1.89496
1.89622
1.89798
1.89942
1.89875
1.89735
1.89436
1.89105
2.16754
2.18052
2.19322
2.20579
2.2172
2.22769
2.23413
2.23906
2.24071
2.2368
2.23366
2.21804
2.20988
2.18497
2.17272
2.14814
2.13005
2.1112
2.09429
2.07935
2.0659
2.05406
2.04346
2.03406
2.02552
2.01751
2.00993
2.00253
1.99507
1.98732
1.97841
1.96868
1.95809
1.94727
1.93605
1.92501
1.91402
1.90414
1.8952
1.88797
1.88472
1.88288
1.88211
1.88354
1.88638
1.88948
1.89175
1.89388
1.89329
1.8918
1.88833
2.17556
2.18913
2.20187
2.21447
2.226
2.23601
2.24255
2.24699
2.24827
2.24374
2.24087
2.22438
2.21541
2.18917
2.17774
2.1514
2.13358
2.11508
2.09639
2.08337
2.069
2.05824
2.048
2.03922
2.03119
2.02371
2.0165
2.00921
2.00158
1.99313
1.98361
1.97302
1.96133
1.94914
1.93596
1.92231
1.90928
1.89755
1.88494
1.87736
1.87094
1.86925
1.86985
1.87574
1.88406
1.8892
1.89916
1.90125
1.90447
1.90393
1.90326
1.04026
1.03863
1.03713
1.03577
1.03459
1.03355
1.03271
1.03202
1.03156
1.03123
1.03107
1.0311
1.03127
1.03159
1.03193
1.03238
1.03285
1.03335
1.03381
1.03424
1.03459
1.03484
1.03493
1.03489
1.03466
1.03423
1.04075
1.03916
1.03769
1.03634
1.03514
1.03409
1.0332
1.03247
1.0319
1.03153
1.03124
1.03116
1.03119
1.03134
1.03157
1.03186
1.03219
1.03257
1.03292
1.03323
1.0335
1.03365
1.03371
1.03363
1.03338
1.03294
1.04116
1.03958
1.03814
1.03682
1.03559
1.03452
1.03358
1.03279
1.03214
1.03166
1.0313
1.03106
1.03096
1.03097
1.03107
1.03123
1.03143
1.03164
1.03189
1.03209
1.03227
1.03233
1.03234
1.03222
1.03193
1.03151
1.04146
1.03996
1.03851
1.03718
1.03595
1.03485
1.03388
1.03303
1.03231
1.03171
1.03127
1.03089
1.03065
1.0305
1.03046
1.03048
1.03053
1.03063
1.03072
1.03081
1.03089
1.03088
1.03084
1.03066
1.03039
1.02993
1.0417
1.04021
1.0388
1.03747
1.03625
1.03511
1.03408
1.03317
1.03237
1.03168
1.0311
1.03064
1.03025
1.02995
1.02974
1.02961
1.02953
1.02948
1.02945
1.02943
1.0294
1.02931
1.02919
1.02898
1.02869
1.02825
1.04185
1.0404
1.039
1.03768
1.03645
1.03528
1.03421
1.03323
1.03234
1.03155
1.03086
1.03028
1.02976
1.02932
1.02895
1.02866
1.02843
1.02824
1.02807
1.02792
1.02777
1.02761
1.02743
1.02719
1.02689
1.02647
1.04193
1.04051
1.03916
1.03782
1.03655
1.03538
1.03425
1.03321
1.03225
1.03136
1.03056
1.02984
1.0292
1.02862
1.0281
1.02763
1.02723
1.02688
1.02655
1.02631
1.02609
1.02589
1.02565
1.02536
1.02503
1.02464
1.04195
1.04055
1.03922
1.0379
1.03663
1.03541
1.03424
1.03314
1.03209
1.03112
1.03018
1.02934
1.02855
1.02783
1.02716
1.02656
1.02601
1.02552
1.02508
1.02468
1.02431
1.02398
1.02366
1.02334
1.02301
1.02264
1.04193
1.04054
1.03925
1.03793
1.03665
1.0354
1.03418
1.03302
1.03189
1.03079
1.02978
1.02877
1.02785
1.02698
1.02616
1.0254
1.02471
1.02406
1.02348
1.02297
1.02249
1.02207
1.02167
1.02131
1.02095
1.02059
1.04185
1.04052
1.03921
1.03792
1.03662
1.03534
1.03409
1.03283
1.03164
1.03048
1.0293
1.0282
1.0271
1.02611
1.02515
1.02422
1.02335
1.02257
1.02183
1.02117
1.02056
1.02005
1.01958
1.01919
1.01885
1.01853
1.04173
1.0405
1.0392
1.03792
1.03658
1.03526
1.03396
1.03263
1.03135
1.03007
1.02881
1.02756
1.02638
1.02516
1.02407
1.023
1.02195
1.02099
1.02013
1.01933
1.01865
1.01804
1.01751
1.01707
1.01671
1.01642
1.04169
1.04039
1.03915
1.03784
1.03651
1.03516
1.03379
1.03245
1.03105
1.02967
1.0283
1.02691
1.0256
1.02419
1.02298
1.02169
1.02053
1.01945
1.01837
1.0174
1.0166
1.01594
1.01537
1.01493
1.01457
1.0143
1.04158
1.04034
1.03906
1.0378
1.03647
1.03502
1.03363
1.0322
1.03073
1.02927
1.02775
1.02626
1.02476
1.02323
1.02181
1.02035
1.01904
1.01778
1.01657
1.01547
1.01457
1.0138
1.01314
1.01271
1.01231
1.01212
1.04154
1.04024
1.03902
1.03775
1.03635
1.03495
1.03346
1.03196
1.03041
1.0288
1.0272
1.02554
1.02387
1.02222
1.02061
1.01897
1.0175
1.01605
1.01475
1.01353
1.01242
1.0115
1.01089
1.01045
1.01011
1.00997
1.04148
1.04026
1.03896
1.03774
1.03636
1.03488
1.03334
1.03172
1.03007
1.02835
1.0266
1.0248
1.02297
1.02115
1.01928
1.01758
1.0158
1.01423
1.01278
1.01144
1.01025
1.00922
1.00862
1.00812
1.00783
1.00778
1.04145
1.04026
1.03899
1.03777
1.03636
1.03484
1.03322
1.03151
1.02974
1.0279
1.02602
1.02401
1.02203
1.02001
1.01797
1.01605
1.0141
1.01228
1.0107
1.00917
1.00791
1.00675
1.0062
1.00569
1.00551
1.00555
1.04144
1.04034
1.0391
1.03772
1.03641
1.03464
1.03319
1.03119
1.02949
1.02738
1.02541
1.02322
1.02102
1.01885
1.01652
1.01444
1.0122
1.01023
1.00835
1.00673
1.00534
1.00414
1.00349
1.00291
1.00279
1.00301
1.0415
1.04046
1.03922
1.03775
1.03645
1.03463
1.03314
1.03094
1.02937
1.02672
1.02512
1.02215
1.02032
1.01751
1.01511
1.01279
1.01046
1.00835
1.00636
1.00473
1.00334
1.00207
1.00113
1.00071
1.00034
1.00081
1.04161
1.04058
1.03939
1.03787
1.03658
1.03457
1.03326
1.03059
1.02945
1.02601
1.02489
1.02099
1.02013
1.01585
1.01554
1.01161
1.0106
1.00961
1.00818
1.00698
1.00612
1.00444
1.00355
1.002
1.00118
1.00092
1.04173
1.04083
1.0396
1.03805
1.03673
1.03466
1.03319
1.03066
1.029
1.02593
1.02439
1.02065
1.02121
1.01695
1.02056
1.01793
1.02263
1.02847
1.03285
1.03659
1.03844
1.03522
1.03376
1.02634
1.01926
1.01322
1.04202
1.04122
1.03997
1.03845
1.03709
1.03484
1.03346
1.03037
1.0292
1.02517
1.02565
1.02146
1.03351
1.02865
1.04861
1.07716
1.08787
1.13387
1.16442
1.19575
1.21057
1.20542
1.18766
1.15893
1.10957
1.0766
1.04241
1.04128
1.04016
1.0388
1.03698
1.03519
1.03346
1.03054
1.03002
1.0265
1.03484
1.0369
1.09444
1.09043
1.21364
1.31504
1.42227
1.51376
1.56685
1.60122
1.61722
1.60601
1.5968
1.51711
1.51278
1.37785
1.04299
1.04224
1.04084
1.03947
1.03758
1.03585
1.03374
1.03215
1.03657
1.04212
1.08553
1.16921
1.29457
1.51654
1.63258
1.70507
1.74617
1.74984
1.75376
1.75368
1.75706
1.75454
1.75064
1.7363
1.70092
1.67239
1.04275
1.0421
1.04074
1.03969
1.03819
1.03669
1.03607
1.04766
1.06812
1.16401
1.35183
1.59852
1.74294
1.80269
1.81176
1.79755
1.77565
1.73593
1.71098
1.68119
1.68048
1.68829
1.71413
1.72662
1.72854
1.726
1.04272
1.04232
1.04147
1.0404
1.03982
1.04024
1.06317
1.10894
1.30924
1.61097
1.79419
1.85863
1.86004
1.83163
1.77037
1.66559
1.54174
1.41695
1.34898
1.32572
1.33577
1.36908
1.4496
1.5782
1.68104
1.70977
1.04358
1.04315
1.04248
1.04203
1.04629
1.07589
1.18873
1.53041
1.7922
1.89829
1.90653
1.87108
1.78047
1.62993
1.40332
1.22688
1.14463
1.12646
1.12979
1.14533
1.1576
1.18185
1.23679
1.39288
1.58713
1.68415
1.04434
1.04403
1.04403
1.05079
1.09748
1.29219
1.71431
1.91312
1.94807
1.92017
1.83131
1.65618
1.39047
1.17319
1.08044
1.06402
1.07205
1.1015
1.14366
1.18077
1.18727
1.21754
1.31391
1.50314
1.62295
1.6687
1.04493
1.04515
1.05405
1.12492
1.4413
1.84632
1.97255
1.97221
1.9033
1.74065
1.49474
1.22015
1.07923
1.03603
1.03402
1.05932
1.1333
1.25359
1.34085
1.40522
1.45327
1.46104
1.52276
1.56666
1.59495
1.54918
1.04586
1.05381
1.17555
1.62219
1.96031
2.00567
1.96905
1.84405
1.63703
1.37567
1.1382
1.04547
1.02014
1.01884
1.04257
1.09942
1.20152
1.33407
1.39641
1.42874
1.43722
1.44416
1.44943
1.41721
1.32908
1.20915
1.06668
1.28628
1.81273
2.00522
2.00953
1.94283
1.78659
1.5707
1.31885
1.10638
1.03444
1.01572
1.01159
1.01695
1.03721
1.04995
1.05999
1.09528
1.1408
1.16811
1.17546
1.16986
1.13569
1.10157
1.05853
1.01504
1.55197
1.9586
2.0268
2.00805
1.91757
1.7553
1.54367
1.30827
1.10508
1.0397
1.01666
1.00982
1.00391
1.00027
0.999946
1.00095
1.00705
1.00264
1.01063
1.00858
1.01116
1.01023
1.00565
1.00306
1.00148
1.0032
1.99895
2.03157
2.00384
1.9105
1.76166
1.57477
1.35713
1.1555
1.05814
1.02474
1.01413
1.00665
1.00196
0.998177
0.996167
0.993942
0.991345
0.990492
0.990438
0.994461
0.993584
1.00098
1.00266
1.01383
1.02587
1.05687
2.02996
2.00905
1.93099
1.81758
1.66708
1.48398
1.27967
1.11227
1.04286
1.03128
1.0185
1.01395
1.0102
1.00972
1.01191
1.01338
1.0161
1.02304
1.03299
1.04786
1.06856
1.10223
1.15388
1.24531
1.38027
1.53349
2.01805
1.96687
1.87943
1.77172
1.62378
1.45544
1.29075
1.16975
1.10012
1.09386
1.08342
1.0832
1.09711
1.13135
1.17409
1.22328
1.27695
1.34703
1.42212
1.5012
1.58742
1.67133
1.75951
1.82477
1.89948
1.90739
2.00739
1.96665
1.92207
1.86526
1.78817
1.69237
1.5842
1.50374
1.46302
1.45806
1.46858
1.50902
1.59193
1.66902
1.74385
1.79999
1.85205
1.88544
1.90178
1.92201
1.93359
1.94848
1.96045
1.97409
1.98441
1.99282
2.01001
1.99617
1.98342
1.96409
1.94287
1.9214
1.90683
1.89718
1.89475
1.89984
1.91225
1.93869
1.9552
1.96929
1.96865
1.971
1.9697
1.97141
1.97408
1.97645
1.98022
1.98405
1.9869
1.99109
1.99416
1.99796
2.01606
2.0105
2.00593
2.00045
1.99581
1.99185
1.98909
1.98687
1.98525
1.9839
1.98281
1.98168
1.98028
1.9791
1.97789
1.9773
1.97659
1.97703
1.97801
1.97919
1.98102
1.98357
1.98694
1.98987
1.99326
1.99585
2.00879
2.00531
2.00221
1.99863
1.996
1.99325
1.99047
1.98829
1.98591
1.98389
1.98156
1.97991
1.97756
1.97607
1.97424
1.97283
1.97205
1.97189
1.97276
1.97431
1.97668
1.97957
1.98251
1.98599
1.98889
1.99197
1.99699
1.99447
1.99145
1.98912
1.98687
1.9845
1.98198
1.98006
1.9776
1.97563
1.97293
1.97101
1.96845
1.96719
1.96578
1.96483
1.96447
1.96494
1.96622
1.9682
1.97063
1.97353
1.97718
1.97999
1.98341
1.98579
1.98384
1.98185
1.97994
1.97759
1.97582
1.97367
1.97148
1.96968
1.9672
1.96535
1.96271
1.96099
1.95862
1.9571
1.95552
1.95446
1.95398
1.95462
1.95639
1.95869
1.96115
1.96472
1.96891
1.97252
1.97646
1.97957
1.97201
1.97062
1.96878
1.96719
1.96562
1.96388
1.96174
1.95985
1.95734
1.95514
1.95229
1.95027
1.9474
1.94526
1.94295
1.94153
1.94079
1.94073
1.94195
1.94463
1.94808
1.95221
1.95725
1.96181
1.9665
1.97054
1.96071
1.95978
1.9584
1.95704
1.95545
1.9538
1.95152
1.94941
1.94671
1.94411
1.94091
1.93824
1.93456
1.93168
1.9284
1.92637
1.92471
1.92404
1.92479
1.92726
1.93127
1.93646
1.9426
1.94884
1.95469
1.95986
1.95028
1.94915
1.94823
1.94677
1.94515
1.94339
1.94107
1.93861
1.93573
1.93252
1.92868
1.92479
1.91998
1.91592
1.91133
1.90829
1.90536
1.90414
1.90447
1.90626
1.91023