/*--------------------------------*- C++ -*----------------------------------*\
  =========                 |
  \\      /  F ield         | OpenFOAM: The Open Source CFD Toolbox
   \\    /   O peration     | Website:  https://openfoam.org
    \\  /    A nd           | Version:  10
     \\/     M anipulation  |
\*---------------------------------------------------------------------------*/
FoamFile
{
    format      ascii;
    class       volScalarField;
    location    "0.500916";
    object      T;
}
// * * * * * * * * * * * * * * * * * * * * * * * * * * * * * * * * * * * * * //

dimensions      [0 0 0 1 0 0 0];

internalField   nonuniform List<scalar> 
15708
(
0.00866939
0.00869191
0.0087139
0.0087343
0.00875414
0.00877252
0.00879006
0.00880637
0.00882164
0.00883595
0.00884903
0.00886087
0.00887191
0.00888159
0.00889112
0.00889877
0.00890723
0.00891276
0.00892027
0.00892451
0.00892993
0.0089343
0.0089377
0.00894089
0.00894375
0.00894604
0.00894769
0.00894889
0.00894958
0.00894991
0.0089498
0.00894933
0.00894807
0.00894631
0.00894414
0.00894149
0.00893824
0.00893471
0.00893061
0.00892607
0.00892099
0.00891562
0.00890974
0.00890371
0.0088974
0.00889107
0.00888449
0.00887797
0.00887139
0.00886501
0.0088589
0.00867388
0.00869655
0.0087183
0.00873869
0.00875799
0.00877625
0.00879339
0.00880939
0.00882448
0.00883837
0.00885113
0.00886297
0.00887364
0.0088835
0.00889234
0.00890061
0.00890792
0.00891456
0.00892047
0.00892583
0.00893058
0.00893475
0.00893824
0.00894145
0.00894404
0.00894613
0.00894761
0.00894855
0.00894905
0.00894919
0.008949
0.00894833
0.00894687
0.00894507
0.00894285
0.00894015
0.00893686
0.00893331
0.00892925
0.00892482
0.00891988
0.00891466
0.00890899
0.00890321
0.00889702
0.00889092
0.00888453
0.00887828
0.00887204
0.00886576
0.00885998
0.00867907
0.00870154
0.00872292
0.00874318
0.00876238
0.00878026
0.00879711
0.00881281
0.00882741
0.00884111
0.00885352
0.00886514
0.00887541
0.0088853
0.00889365
0.00890209
0.00890894
0.00891565
0.00892136
0.00892645
0.00893106
0.00893498
0.00893841
0.0089414
0.00894387
0.00894579
0.00894713
0.00894786
0.00894821
0.00894823
0.00894797
0.00894701
0.0089455
0.00894366
0.00894132
0.0089386
0.00893546
0.00893182
0.00892793
0.00892352
0.00891887
0.00891373
0.00890806
0.00890254
0.00889664
0.00889085
0.00888474
0.00887867
0.00887256
0.00886668
0.00886093
0.00868453
0.0087071
0.00872819
0.00874817
0.00876683
0.00878437
0.00880067
0.00881588
0.00883009
0.00884321
0.00885537
0.00886646
0.00887668
0.00888603
0.00889444
0.00890235
0.00890928
0.00891569
0.00892141
0.00892635
0.00893073
0.00893455
0.00893793
0.00894075
0.00894298
0.00894473
0.00894592
0.00894646
0.0089467
0.00894663
0.00894627
0.00894519
0.00894353
0.00894153
0.00893919
0.00893649
0.00893339
0.00892987
0.00892601
0.00892176
0.0089172
0.00891232
0.00890721
0.00890168
0.00889621
0.00889036
0.00888476
0.0088788
0.00887311
0.0088673
0.00886169
0.00869119
0.00871309
0.0087339
0.00875336
0.00877144
0.00878835
0.00880433
0.00881849
0.00883286
0.00884434
0.0088575
0.0088665
0.00887804
0.00888567
0.00889461
0.00890234
0.00890866
0.00891495
0.00892056
0.0089254
0.00892946
0.00893332
0.0089366
0.00893928
0.00894137
0.00894307
0.00894408
0.0089445
0.00894465
0.00894449
0.00894396
0.00894266
0.00894108
0.00893904
0.00893672
0.00893396
0.00893091
0.00892754
0.00892371
0.0089196
0.00891538
0.00891058
0.00890581
0.00890081
0.00889539
0.00889003
0.00888447
0.00887899
0.00887335
0.00886789
0.00886239
0.00869851
0.00871994
0.00873989
0.0087585
0.00877599
0.00879222
0.00880738
0.00882189
0.00883386
0.00884723
0.00885749
0.00886868
0.00887697
0.00888697
0.00889395
0.00890144
0.00890783
0.00891351
0.00891906
0.00892374
0.00892794
0.00893154
0.00893463
0.00893713
0.00893911
0.00894065
0.00894149
0.00894183
0.00894189
0.00894168
0.00894103
0.00893972
0.00893805
0.0089361
0.00893377
0.00893111
0.0089282
0.00892473
0.00892113
0.00891732
0.00891297
0.00890889
0.00890424
0.00889952
0.00889441
0.00888951
0.008884
0.00887892
0.00887358
0.00886845
0.00886327
0.00871388
0.00872776
0.00874785
0.00876385
0.00878055
0.00879698
0.00880918
0.00882521
0.00883408
0.00885148
0.00885551
0.00887066
0.00887142
0.00888881
0.0088887
0.00890194
0.0089037
0.00891153
0.00891695
0.00892196
0.00892592
0.00892944
0.00893233
0.0089346
0.00893638
0.0089377
0.00893833
0.00893866
0.00893864
0.00893841
0.00893755
0.00893628
0.0089346
0.00893265
0.00893028
0.00892776
0.00892501
0.00892173
0.0089185
0.00891473
0.00891081
0.00890677
0.00890245
0.00889802
0.00889342
0.0088886
0.00888377
0.00887864
0.00887393
0.00886883
0.00886385
0.00872252
0.00872009
0.0087569
0.00877192
0.00878764
0.00879926
0.00881588
0.0088242
0.00884179
0.00884294
0.008862
0.00886247
0.00888012
0.00887931
0.00889512
0.00889339
0.00890523
0.0089091
0.0089135
0.00891847
0.00892267
0.00892657
0.00892935
0.00893127
0.00893285
0.00893396
0.00893459
0.00893489
0.00893494
0.00893463
0.00893369
0.00893253
0.00893074
0.00892884
0.00892652
0.00892429
0.00892144
0.00891843
0.0089152
0.00891182
0.00890838
0.00890431
0.00890048
0.00889634
0.00889218
0.00888772
0.00888305
0.00887865
0.0088738
0.00886907
0.00886466
0.00872675
0.00874444
0.00876006
0.00877557
0.00878906
0.00880282
0.00881501
0.00882766
0.00883704
0.00884948
0.00885634
0.00886744
0.00887336
0.00888276
0.00888841
0.00889569
0.0089008
0.00890658
0.00891116
0.00891562
0.00891909
0.0089223
0.00892496
0.00892722
0.00892876
0.00892991
0.00893054
0.00893081
0.00893079
0.00893038
0.00892935
0.00892808
0.00892646
0.00892448
0.00892254
0.00892003
0.00891766
0.00891488
0.00891187
0.00890873
0.00890541
0.00890182
0.0088982
0.0088946
0.00889045
0.00888671
0.00888245
0.00887815
0.0088737
0.00886928
0.00886499
0.00871697
0.00875882
0.00875512
0.00878735
0.00878575
0.00880724
0.00882035
0.00882967
0.00883945
0.00884819
0.00885655
0.00886538
0.00887298
0.00887976
0.00888671
0.00889268
0.00889788
0.00890318
0.00890756
0.00891185
0.00891521
0.00891869
0.00892106
0.00892286
0.00892434
0.00892551
0.00892603
0.00892634
0.00892606
0.00892559
0.00892464
0.00892314
0.00892191
0.00892001
0.00891776
0.00891588
0.00891343
0.00891092
0.00890808
0.00890546
0.00890226
0.00889939
0.00889597
0.00889262
0.00888919
0.00888536
0.00888186
0.0088777
0.00887357
0.00886934
0.00886525
0.00874377
0.00875535
0.00877313
0.00878437
0.00879928
0.00880817
0.00882132
0.00882796
0.00884011
0.00884596
0.00885717
0.008863
0.00887241
0.00887581
0.00888438
0.00888499
0.00889422
0.00889924
0.00890372
0.00890708
0.00891107
0.00891403
0.00891647
0.00891838
0.00891999
0.00892077
0.00892133
0.00892131
0.00892113
0.00892055
0.00891946
0.00891816
0.00891668
0.00891502
0.00891318
0.00891096
0.00890896
0.00890656
0.0089044
0.00890176
0.00889889
0.00889655
0.00889359
0.00889032
0.00888765
0.00888378
0.00888064
0.00887703
0.00887326
0.00886938
0.00886495
0.00874809
0.00876353
0.00877729
0.00878878
0.00880102
0.00881199
0.00882111
0.00883061
0.00883818
0.00884758
0.00885311
0.00886148
0.00886774
0.00887407
0.0088804
0.00888604
0.0088908
0.00889544
0.00889978
0.00890328
0.00890682
0.00890952
0.00891176
0.00891308
0.0089145
0.00891557
0.00891587
0.00891595
0.00891561
0.00891501
0.00891408
0.00891272
0.00891133
0.00890953
0.00890809
0.0089061
0.00890408
0.00890205
0.00890012
0.00889775
0.00889564
0.00889307
0.0088909
0.00888801
0.00888554
0.0088824
0.00887961
0.00887607
0.00887285
0.00886938
0.00886534
0.00874651
0.00877282
0.00877259
0.00879338
0.00880515
0.00881436
0.00882402
0.0088301
0.00883995
0.00884453
0.00885327
0.0088577
0.00886572
0.00887052
0.00887672
0.00888175
0.00888678
0.00889125
0.00889505
0.00889903
0.00890236
0.00890465
0.00890634
0.00890808
0.00890942
0.00891027
0.00891052
0.00891049
0.00890989
0.00890874
0.0089078
0.00890665
0.00890594
0.00890496
0.00890288
0.00890084
0.00889881
0.00889712
0.00889535
0.00889358
0.00889164
0.00888982
0.00888754
0.0088856
0.00888296
0.00888084
0.00887806
0.00887556
0.00887213
0.00886954
0.00886531
0.00876726
0.00877566
0.00878965
0.00879711
0.00880805
0.00881464
0.00882436
0.00883023
0.00883772
0.00884372
0.00885031
0.00885577
0.00886168
0.00886802
0.00887252
0.00887808
0.00888294
0.00888649
0.00889123
0.00889425
0.0088973
0.00889965
0.00890159
0.00890285
0.00890393
0.00890442
0.0089047
0.0089045
0.00890414
0.00890315
0.00890157
0.00890087
0.00890019
0.00889868
0.00889664
0.00889491
0.00889357
0.00889202
0.00889051
0.00888913
0.00888749
0.0088861
0.00888452
0.00888257
0.00888087
0.00887851
0.00887665
0.00887407
0.00887181
0.00886873
0.00886588
0.00877158
0.00877967
0.0087914
0.00879986
0.00880883
0.00881649
0.00882351
0.00883088
0.0088359
0.00884207
0.00884724
0.00885265
0.00885909
0.00886342
0.00886965
0.00887392
0.00887875
0.00888266
0.00888721
0.00888936
0.00889265
0.00889456
0.00889641
0.00889805
0.00889859
0.00889898
0.00889892
0.00889854
0.0088977
0.00889685
0.00889573
0.00889464
0.00889282
0.00889182
0.00889098
0.00888949
0.00888784
0.00888629
0.00888515
0.00888428
0.0088832
0.00888211
0.00888105
0.00887992
0.00887864
0.00887696
0.00887534
0.0088735
0.00887118
0.00886826
0.00886589
0.00876955
0.0087896
0.00878996
0.00880445
0.00880817
0.00881859
0.00882211
0.00882994
0.00883067
0.008838
0.00884492
0.00885176
0.00885599
0.00886157
0.00886563
0.00887021
0.00887425
0.00887842
0.00888212
0.00888519
0.0088879
0.00888985
0.00889152
0.00889257
0.00889323
0.00889327
0.00889308
0.00889247
0.00889157
0.00889046
0.00888924
0.00888796
0.00888655
0.00888542
0.00888336
0.00888269
0.00888132
0.00888089
0.00888
0.00887903
0.00887874
0.00887809
0.00887728
0.00887671
0.00887589
0.00887519
0.00887347
0.00887325
0.00887005
0.00886991
0.00886581
0.00877518
0.00879083
0.00880164
0.00880519
0.00880997
0.00881578
0.0088228
0.00882583
0.00883395
0.00883418
0.00884422
0.00884545
0.00884959
0.00885434
0.00886054
0.00886675
0.00887159
0.00887497
0.00887905
0.0088812
0.00888364
0.00888561
0.00888695
0.00888757
0.00888799
0.00888763
0.00888719
0.00888633
0.00888497
0.00888403
0.00888238
0.00888117
0.00887944
0.00887808
0.00887675
0.00887588
0.00887494
0.0088743
0.00887389
0.0088737
0.00887366
0.00887367
0.00887368
0.00887373
0.00887368
0.00887338
0.00887264
0.00887188
0.00887015
0.0088693
0.00886631
0.00878248
0.00879643
0.00879661
0.00880281
0.00880953
0.0088183
0.00882096
0.00882609
0.00883038
0.00883408
0.00883949
0.00884339
0.0088482
0.00885328
0.0088578
0.00886254
0.00886668
0.00887135
0.00887405
0.0088773
0.00887943
0.00888156
0.00888218
0.00888271
0.00888249
0.00888207
0.00888105
0.00888006
0.00887868
0.00887699
0.00887588
0.00887364
0.00887233
0.00887058
0.00886946
0.00886837
0.00886815
0.00886758
0.00886753
0.00886791
0.00886859
0.00886914
0.00886978
0.0088705
0.00887097
0.00887144
0.00887147
0.00887113
0.00887073
0.00886865
0.00886752
0.00879627
0.00879625
0.00880259
0.00880384
0.00880995
0.00881258
0.00881927
0.00882245
0.00882749
0.00883123
0.00883489
0.00884023
0.0088452
0.00885002
0.00885497
0.00885906
0.00886301
0.00886786
0.00887035
0.00887377
0.0088756
0.00887718
0.00887837
0.00887853
0.00887797
0.00887672
0.00887558
0.00887355
0.0088721
0.00887045
0.00886804
0.00886648
0.00886424
0.00886319
0.00886131
0.00886071
0.00886047
0.00886054
0.00886068
0.00886137
0.00886274
0.00886449
0.00886609
0.00886675
0.00886789
0.00886861
0.00886953
0.00887007
0.00887035
0.00886989
0.00886928
0.0087958
0.00879681
0.00880436
0.00880756
0.00880931
0.00881159
0.00881476
0.00881883
0.0088232
0.00882698
0.0088318
0.00883376
0.0088378
0.00884387
0.0088506
0.00885619
0.00886055
0.00886513
0.00886744
0.00887033
0.00887255
0.0088738
0.00887478
0.00887438
0.00887365
0.00887223
0.00887028
0.00886742
0.00886542
0.00886291
0.00886056
0.00885848
0.00885631
0.00885432
0.00885337
0.00885151
0.00885179
0.00885232
0.00885292
0.00885511
0.00885601
0.00885879
0.00886137
0.00886333
0.00886542
0.00886766
0.00886968
0.00887122
0.0088717
0.00887156
0.00887066
0.00879923
0.00880383
0.00880356
0.0088063
0.00880708
0.00880987
0.00881207
0.00881333
0.0088143
0.00882061
0.00882684
0.00883112
0.00883687
0.00884125
0.00884718
0.00885169
0.00885714
0.00886209
0.00886594
0.00886855
0.00886998
0.00887075
0.00887038
0.00886965
0.00886849
0.00886683
0.00886454
0.00886136
0.00885838
0.00885583
0.00885287
0.0088501
0.00884713
0.00884552
0.00884376
0.00884259
0.00884271
0.00884372
0.00884528
0.0088475
0.00885158
0.0088522
0.00885759
0.00886077
0.00886426
0.00886642
0.00886895
0.00887106
0.0088723
0.00887344
0.00887288
0.0088017
0.00880221
0.00880444
0.00880533
0.00880644
0.00880705
0.00880728
0.0088099
0.00881182
0.00881407
0.00881916
0.00882457
0.00883172
0.00883797
0.00884414
0.0088497
0.00885397
0.0088592
0.00886246
0.00886595
0.00886769
0.00886897
0.00886896
0.00886841
0.00886637
0.00886376
0.0088595
0.00885653
0.00885175
0.00884848
0.00884451
0.00884078
0.00883806
0.0088357
0.00883326
0.00883285
0.00883298
0.00883333
0.00883733
0.00884233
0.00884378
0.00884887
0.00885334
0.0088577
0.00886283
0.0088661
0.00886911
0.00887179
0.00887311
0.00887502
0.00887641
0.0088044
0.00880491
0.0088038
0.00880216
0.00880137
0.00880076
0.00880186
0.00880387
0.00880774
0.00880812
0.00881254
0.00882079
0.00882903
0.00883612
0.00884416
0.00885081
0.00885574
0.00886001
0.00886394
0.00886636
0.00886759
0.00886799
0.00886684
0.00886487
0.0088618
0.00885879
0.00885304
0.00884958
0.00884368
0.00884071
0.00883517
0.00883117
0.00882691
0.00882477
0.00882196
0.00882216
0.00882264
0.00882391
0.00882961
0.00882953
0.00883911
0.00884486
0.00885064
0.00885666
0.00886221
0.00886719
0.00887298
0.00887775
0.00887897
0.00888044
0.00888021
0.00880179
0.00879844
0.00879601
0.00879484
0.00879182
0.00879134
0.0087906
0.00879378
0.00879823
0.00880361
0.00880806
0.00881383
0.0088227
0.00883204
0.00884136
0.00885044
0.00885792
0.00886278
0.00886494
0.0088676
0.00886804
0.00886758
0.00886653
0.00886429
0.00886054
0.00885638
0.00884891
0.008844
0.0088359
0.00883106
0.00882379
0.00882034
0.00881522
0.00881279
0.00880797
0.0088062
0.00880173
0.00880208
0.00880216
0.00881085
0.00882008
0.00882076
0.00884328
0.0088515
0.0088598
0.00886616
0.00887403
0.00888362
0.00888936
0.00889229
0.00889185
0.00879389
0.008785
0.00878391
0.00876279
0.0087522
0.00871984
0.00870471
0.00870896
0.00871356
0.00872801
0.00875386
0.00877341
0.00879324
0.00881122
0.00882859
0.00884372
0.00885691
0.00886748
0.00887235
0.00887299
0.00887268
0.0088707
0.0088667
0.00886374
0.00885815
0.00885309
0.00884307
0.0088374
0.0088279
0.00882105
0.0088088
0.00880494
0.00879413
0.00877473
0.00875691
0.00873033
0.00871563
0.00868764
0.00868091
0.00867841
0.00870999
0.00874573
0.00874687
0.0088048
0.00883592
0.00885533
0.0088696
0.00888218
0.00889616
0.0089034
0.00890335
0.00876431
0.00867975
0.00866088
0.00850933
0.00830929
0.00824082
0.00803861
0.00802323
0.00801786
0.00813702
0.00827599
0.00844618
0.00858292
0.00868729
0.00876395
0.00880791
0.00883848
0.00886049
0.00887296
0.0088776
0.00887847
0.00887629
0.00887055
0.00886514
0.00885598
0.00884952
0.00883792
0.00883027
0.00881698
0.00880606
0.00875769
0.00875665
0.00867483
0.00857577
0.00849381
0.00834972
0.0082606
0.00807959
0.00803029
0.00807708
0.00807745
0.00825185
0.00845006
0.00858618
0.00869948
0.00877602
0.00882848
0.00886574
0.00889133
0.00890437
0.00890505
0.00848694
0.00797674
0.00741721
0.0068418
0.00633555
0.00603686
0.00571209
0.00565516
0.00568363
0.00583361
0.00611258
0.00665372
0.00755035
0.00813686
0.0084841
0.00869061
0.00880007
0.00884984
0.00887147
0.00888053
0.00888185
0.0088808
0.0088739
0.00886753
0.00885482
0.00884511
0.00883312
0.0088216
0.00878666
0.00875453
0.00851148
0.00851612
0.00810505
0.00763803
0.00718801
0.00662094
0.00624473
0.00593602
0.00581622
0.00583651
0.00601222
0.00631966
0.00674607
0.0075129
0.00817953
0.00854634
0.00873382
0.00883051
0.00888074
0.00890312
0.00890585
0.00612613
0.00552961
0.0051424
0.00492965
0.00479967
0.0047411
0.00468724
0.00465891
0.00467036
0.00474789
0.00481026
0.00511131
0.00549823
0.00659239
0.00769311
0.00834946
0.00865023
0.0087935
0.00885682
0.00887816
0.00888187
0.00888069
0.00887507
0.00886274
0.00885245
0.00883364
0.00882015
0.00874708
0.00865319
0.00823585
0.00767709
0.00668001
0.00588052
0.00535731
0.00503391
0.00483981
0.00476237
0.00470318
0.00470267
0.00473174
0.00478642
0.00498016
0.00521852
0.0057837
0.00688321
0.00790889
0.00842697
0.00872114
0.0088581
0.00890256
0.00890718
0.00473731
0.00469293
0.0046583
0.00466679
0.00467789
0.00469184
0.00469144
0.00467966
0.00466396
0.00467154
0.00468032
0.00478027
0.00490824
0.00547901
0.00653165
0.00763455
0.00833173
0.00867845
0.00882302
0.00887002
0.00887969
0.0088783
0.00887236
0.00885545
0.00884523
0.0087869
0.00871354
0.00825817
0.00742275
0.00605164
0.00524614
0.00485159
0.00469437
0.00461681
0.00459592
0.00459578
0.00460562
0.00461757
0.00461907
0.00461757
0.00462397
0.00466893
0.00477552
0.00506887
0.00576559
0.00723827
0.00831352
0.00873587
0.00887674
0.00890822
0.00890376
0.00467277
0.0048025
0.00494073
0.00522969
0.00539198
0.00552652
0.00551566
0.00544091
0.00527767
0.00499361
0.00480583
0.00480174
0.00487338
0.00516651
0.00606033
0.00741748
0.00828944
0.00867978
0.00882847
0.00887187
0.00887811
0.00887437
0.00886501
0.00884379
0.00877779
0.00849291
0.00755855
0.00589381
0.00499272
0.00467244
0.0045814
0.00459459
0.0046569
0.00480641
0.0049642
0.00510664
0.00510941
0.00506005
0.00493549
0.00478287
0.00467512
0.00466418
0.0047143
0.00495437
0.00583383
0.00738272
0.00844683
0.00882005
0.00889847
0.00890399
0.00888111
0.00542337
0.00603508
0.00666588
0.00710876
0.00728388
0.00733244
0.00726804
0.00709397
0.00672481
0.00609619
0.0053433
0.00498635
0.00495147
0.0052008
0.00620676
0.00758417
0.00839489
0.00873834
0.0088545
0.00887635
0.00887481
0.00886541
0.00884508
0.00874442
0.00815401
0.00612095
0.00493954
0.00458238
0.00452249
0.00457763
0.00475944
0.00513689
0.005698
0.00621523
0.00657645
0.00671927
0.00665798
0.00646013
0.00616667
0.00568591
0.00508813
0.00470988
0.00474746
0.00519444
0.00599605
0.00806567
0.00873473
0.00887164
0.00888166
0.00876887
0.00813037
0.00743445
0.00793701
0.00806598
0.00802649
0.00796807
0.00789677
0.00786234
0.00773751
0.00735601
0.00628572
0.00534996
0.00499315
0.00502287
0.00549529
0.00675462
0.0080862
0.00866125
0.00884056
0.00887453
0.00887433
0.00886478
0.00885074
0.00867907
0.00710318
0.00496043
0.00449738
0.00447801
0.00455572
0.00479572
0.00529188
0.00608248
0.00707171
0.00760521
0.00775531
0.00773866
0.00763531
0.00747754
0.00718098
0.00651379
0.00578242
0.00503956
0.00479519
0.00502064
0.00529616
0.00769245
0.00854227
0.00882083
0.00882578
0.00856029
0.00744477
0.00534023
0.00842883
0.0083742
0.00820098
0.00791914
0.00763409
0.00744201
0.00746156
0.00728088
0.0066478
0.00566893
0.00520246
0.00513365
0.00539647
0.0063674
0.00797009
0.00861047
0.0088249
0.00886716
0.00887138
0.00885179
0.00871875
0.00770025
0.0052362
0.00455767
0.00447072
0.00451981
0.00471797
0.00514223
0.00591662
0.00711859
0.00792336
0.00812198
0.00809104
0.00791078
0.00756055
0.00728893
0.00712784
0.0068173
0.00619556
0.00542524
0.00507861
0.00504769
0.00510838
0.00737133
0.00832959
0.00871181
0.00872102
0.00828334
0.00682323
0.00507387
0.00459958
0.00853335
0.00825683
0.00770011
0.00705074
0.00651567
0.00618336
0.00600663
0.00595109
0.00561092
0.00540677
0.00530253
0.00546588
0.00668894
0.0080277
0.0086094
0.00881318
0.00884726
0.00883839
0.0087048
0.00809056
0.00595796
0.00481265
0.00452034
0.00449214
0.00460244
0.00490443
0.00548198
0.00648898
0.00777248
0.00829778
0.00832832
0.00805158
0.00747382
0.00671563
0.00627945
0.00607865
0.00596732
0.00581487
0.00533456
0.00520088
0.00507484
0.00505234
0.00764061
0.00815887
0.00855436
0.00857295
0.00797669
0.00616323
0.00483169
0.00462126
0.00450064
0.0085251
0.00811363
0.00748753
0.00676099
0.00623964
0.00597307
0.0058776
0.00574753
0.00570303
0.0057477
0.00625646
0.00729535
0.00820164
0.00871479
0.00877422
0.0088087
0.00873508
0.00834761
0.00705246
0.00530643
0.00465371
0.00451921
0.00452642
0.0046889
0.00506696
0.00573409
0.00684331
0.00804071
0.00841759
0.00843372
0.00812372
0.00749215
0.00670863
0.00615324
0.00592636
0.00575237
0.00561377
0.00544722
0.00540629
0.00535194
0.00565514
0.00778548
0.00808446
0.00835098
0.0083434
0.00744564
0.00566343
0.00473704
0.00456257
0.00447719
0.00447223
0.00863103
0.00841466
0.00800138
0.00745033
0.00694678
0.00652433
0.00650637
0.0064575
0.00681598
0.00739122
0.00800747
0.00856419
0.00864897
0.00871647
0.00874196
0.00849319
0.00770901
0.00593975
0.00492409
0.00458563
0.00451993
0.00455485
0.0047459
0.00514717
0.00580361
0.00683816
0.00802069
0.00848437
0.00854542
0.00839663
0.00803358
0.00745933
0.00677091
0.00633576
0.00594037
0.00593713
0.005844
0.00585188
0.00615455
0.00682745
0.00775597
0.00820142
0.00816012
0.00795281
0.00685729
0.00551215
0.00454252
0.00453648
0.00444367
0.00443727
0.00444297
0.00874694
0.00869403
0.0085853
0.00842148
0.00813091
0.00812158
0.00803206
0.00807315
0.00833201
0.00853971
0.0085975
0.00867728
0.00864245
0.00852922
0.00794367
0.00663125
0.00537743
0.00466004
0.00457013
0.00451183
0.00456604
0.00474874
0.00511459
0.00567909
0.00657446
0.00775516
0.00844469
0.00859855
0.00859341
0.00850675
0.00826557
0.00789541
0.0074647
0.00708328
0.00700223
0.00692532
0.00697828
0.00728717
0.00763272
0.00802196
0.00799346
0.00797673
0.00738712
0.00595497
0.00481328
0.00480184
0.00444414
0.00443737
0.0044039
0.0044041
0.00441178
0.00875967
0.00874857
0.00872286
0.00868899
0.0086702
0.00862598
0.00861812
0.00860802
0.00861655
0.00860391
0.00854856
0.00842412
0.0079919
0.00703898
0.00554856
0.00496227
0.00456234
0.00452917
0.00450485
0.00454704
0.00470621
0.00498514
0.00543265
0.00614599
0.00714576
0.00826603
0.0085151
0.00864196
0.00863095
0.00861178
0.00851339
0.0083597
0.00820167
0.00806509
0.00800175
0.00796442
0.0079633
0.00797397
0.00795058
0.00786453
0.00757637
0.00677922
0.00563544
0.00456567
0.00464807
0.00440556
0.00440667
0.00438204
0.00438045
0.00438694
0.00439177
0.00869277
0.00869639
0.00870355
0.00868871
0.00866289
0.00863964
0.00858581
0.00852845
0.00842171
0.00819755
0.00774987
0.00687896
0.00575857
0.00510568
0.00462015
0.00458172
0.00448844
0.004491
0.00452183
0.00463749
0.004836
0.00515005
0.00565641
0.0064052
0.00742443
0.00819285
0.00860829
0.00859508
0.00861
0.00860765
0.00854523
0.00845571
0.00836609
0.00828286
0.00819667
0.00809956
0.00799224
0.00785704
0.00755516
0.00688507
0.00584198
0.00473432
0.00480682
0.00445538
0.00444068
0.00437592
0.00436581
0.00436217
0.00436894
0.00437341
0.00437664
0.00822366
0.00835784
0.00835183
0.00835936
0.00828636
0.00818006
0.00796153
0.00761175
0.00703019
0.00625409
0.00560835
0.00508569
0.00467078
0.00465137
0.00449233
0.00448542
0.00446958
0.00449431
0.00455883
0.00468372
0.00487679
0.00519785
0.00569206
0.00638956
0.00726005
0.00828826
0.00838414
0.00856446
0.0085338
0.00854354
0.00849532
0.00840301
0.00829482
0.00817383
0.00801267
0.00776053
0.00735585
0.00665296
0.00580801
0.0051427
0.00473577
0.00446837
0.00450601
0.00437118
0.00436669
0.00434804
0.00434667
0.00435176
0.0043588
0.00436373
0.00436454
0.00699359
0.00695513
0.00699596
0.00680739
0.00654587
0.00632307
0.00595202
0.00557477
0.00522851
0.00499603
0.00467614
0.00461563
0.00450686
0.00450689
0.00446261
0.00446233
0.00446765
0.00450378
0.00456987
0.00467931
0.00485675
0.00514497
0.00556969
0.00616588
0.00692845
0.00761546
0.00836082
0.00822354
0.00836287
0.00825528
0.00825434
0.00807045
0.00782425
0.00746848
0.00690698
0.00629853
0.0056627
0.00515502
0.00483146
0.00445957
0.00449665
0.00437634
0.00437279
0.00433371
0.00433303
0.00433034
0.00433834
0.00434576
0.00434918
0.0043513
0.00435298
0.0052488
0.00531853
0.00532781
0.00523629
0.00508851
0.00504421
0.00489163
0.00475643
0.00467686
0.00457463
0.0045233
0.00448323
0.00448105
0.00445919
0.00445811
0.00445803
0.00446913
0.00450127
0.00455318
0.00463616
0.00477373
0.00498613
0.00528794
0.00570774
0.00623722
0.00683669
0.00718262
0.00752615
0.00746517
0.00746367
0.00720378
0.00681054
0.00628573
0.0058481
0.0054249
0.00508507
0.00477264
0.00457824
0.00446062
0.00439759
0.00433304
0.00433521
0.00432128
0.00431552
0.00431752
0.00432439
0.00433244
0.00433428
0.00433839
0.00434084
0.00434182
0.00469021
0.0047028
0.00470055
0.00467143
0.004632
0.0046195
0.00457946
0.00453883
0.00451694
0.00449408
0.00449271
0.00447372
0.00447301
0.00446072
0.00445992
0.00445932
0.0044664
0.00448569
0.00451748
0.00457343
0.00466502
0.0047988
0.00498668
0.00523454
0.00553153
0.00584411
0.00599817
0.00609967
0.00608799
0.00600695
0.00578579
0.00545939
0.0051711
0.00493968
0.00473662
0.00458055
0.00445089
0.00439447
0.00433351
0.00433649
0.00430697
0.00430781
0.00430358
0.00430504
0.00431273
0.0043173
0.00432201
0.00432713
0.00433015
0.00433207
0.00433355
0.00451699
0.00451662
0.00452139
0.00451992
0.00451645
0.00451336
0.00450729
0.00450027
0.00449675
0.00449537
0.00449312
0.00448084
0.0044724
0.00446973
0.00446234
0.00446094
0.00446201
0.00446852
0.00448758
0.00451893
0.00457159
0.00464489
0.00474632
0.00487336
0.0050161
0.00515287
0.00519813
0.00521935
0.00520799
0.00512443
0.00497297
0.00478665
0.00465588
0.00454423
0.00446014
0.00438941
0.0043526
0.00431399
0.00431055
0.0042952
0.00429568
0.00429409
0.00429507
0.0043024
0.00430618
0.00431094
0.00431623
0.00431918
0.00432261
0.00432473
0.00432574
0.00447521
0.00448666
0.00448487
0.00449359
0.00449536
0.00450092
0.00450296
0.00450353
0.00450424
0.00450294
0.00449907
0.00448983
0.00448451
0.00447672
0.00446686
0.00446241
0.00445948
0.00445937
0.00446469
0.00448134
0.00450598
0.00454255
0.00459035
0.00464945
0.00471149
0.00474257
0.00476312
0.00476121
0.00474033
0.00467496
0.00458649
0.00449773
0.00444155
0.00439066
0.0043543
0.00432689
0.00429995
0.00429941
0.004292
0.00428671
0.00428718
0.00428716
0.00429247
0.00429658
0.00430059
0.00430571
0.00430973
0.00431354
0.00431752
0.0043201
0.00432303
0.00447303
0.0044805
0.00448759
0.00449492
0.00450151
0.00450724
0.00451245
0.00451463
0.00451652
0.00451353
0.00451216
0.00450244
0.0044988
0.00448268
0.00447749
0.00446449
0.0044582
0.00445464
0.00445351
0.00445612
0.00446697
0.00448084
0.0044998
0.00452186
0.0045422
0.00454489
0.00454804
0.00454026
0.00451647
0.00447362
0.00442794
0.00438667
0.0043617
0.00433647
0.00431807
0.0043043
0.00428812
0.00429138
0.0042829
0.00428235
0.00428171
0.00428354
0.00428791
0.0042908
0.00429655
0.0043011
0.00430649
0.00431249
0.00431697
0.00432184
0.00432548
0.00448058
0.00448841
0.00449702
0.00450467
0.00451364
0.00451932
0.00452474
0.00452864
0.00452905
0.00452949
0.00452015
0.00452045
0.00449817
0.00450052
0.0044759
0.00447618
0.00445433
0.00445298
0.00444527
0.00444383
0.00444347
0.00444737
0.00445212
0.00445587
0.00445737
0.00445669
0.00445171
0.00443852
0.00441923
0.00439298
0.00436831
0.00434704
0.00433276
0.0043167
0.00430471
0.00429366
0.00428755
0.0042832
0.00427765
0.00427791
0.00427715
0.0042797
0.00428374
0.00428832
0.00429485
0.00430146
0.00430862
0.00431702
0.00432299
0.0043306
0.00433419
0.00448975
0.00449804
0.00450667
0.00451567
0.00452344
0.00453044
0.00453643
0.00453906
0.0045408
0.00453791
0.0045355
0.00452438
0.00451533
0.00450268
0.00448674
0.00447788
0.00445518
0.0044556
0.00443813
0.00443896
0.00443142
0.00443036
0.00442804
0.00442575
0.00442211
0.00441666
0.00440842
0.00439619
0.00438108
0.00436377
0.00434884
0.00433558
0.00432518
0.00431293
0.00430332
0.00429373
0.00428796
0.0042799
0.00427883
0.00427599
0.00427588
0.00427849
0.00428316
0.00428817
0.00429624
0.00430468
0.00431371
0.00432193
0.00432853
0.00433729
0.00434266
0.00449853
0.00450693
0.00451619
0.00452554
0.00453371
0.00454135
0.00454645
0.00455001
0.00455166
0.00454782
0.0045466
0.00453279
0.00452623
0.00450722
0.0044965
0.00447682
0.00446638
0.00445255
0.00444131
0.00443441
0.00442668
0.00442227
0.00441729
0.00441229
0.00440663
0.00439978
0.00439149
0.00438134
0.0043702
0.00435839
0.00434718
0.00433591
0.00432552
0.0043138
0.00430419
0.00429462
0.00428777
0.00428061
0.00427433
0.00427513
0.00427376
0.00427631
0.00428177
0.00428892
0.00429956
0.00431028
0.00432101
0.00433423
0.00434593
0.00435838
0.00436961
0.00450662
0.00451546
0.00452502
0.00453383
0.00454251
0.00454875
0.0045568
0.00455928
0.00455949
0.00456118
0.00454894
0.00454928
0.00452406
0.00452432
0.00449288
0.00448588
0.00446689
0.00445371
0.004442
0.00443205
0.00442451
0.0044182
0.0044129
0.00440758
0.00440194
0.00439574
0.00438843
0.00437987
0.00437005
0.00435909
0.00434872
0.00433825
0.004328
0.00431713
0.00430689
0.0042973
0.00428939
0.00428179
0.00427637
0.00427381
0.00427285
0.00427542
0.00428304
0.00429247
0.00430336
0.00431581
0.00432952
0.00434072
0.0043538
0.00436471
0.00437771
0.00451382
0.00452245
0.00453255
0.00454152
0.00454984
0.00455668
0.004564
0.00456671
0.00456698
0.00456878
0.00455497
0.00455555
0.00453004
0.00453091
0.00449601
0.00449054
0.00446913
0.00445381
0.00444495
0.00443052
0.00442523
0.00441733
0.00441233
0.00440695
0.00440161
0.00439569
0.00438886
0.00438109
0.00437236
0.00436319
0.00435387
0.00434428
0.00433454
0.00432377
0.00431381
0.00430484
0.00429591
0.00428639
0.00428302
0.00427463
0.00427645
0.00427729
0.00428288
0.00428661
0.00429206
0.00430787
0.00431155
0.00432864
0.00433739
0.0043475
0.00435256
0.0088529
0.0088474
0.00884228
0.00883775
0.00883357
0.00883023
0.00882737
0.00882535
0.00882363
0.00882291
0.00882279
0.00882294
0.00882349
0.00882431
0.00882605
0.00882751
0.00882936
0.00883112
0.00883285
0.00883431
0.00883549
0.00883616
0.00883647
0.00883602
0.00883505
0.00883302
0.00885416
0.00884879
0.00884369
0.00883916
0.00883507
0.00883153
0.00882854
0.00882613
0.00882436
0.00882291
0.00882259
0.00882218
0.00882237
0.00882288
0.00882381
0.00882498
0.00882635
0.00882753
0.00882876
0.00882994
0.00883067
0.00883131
0.00883123
0.00883073
0.00882969
0.00882783
0.00885521
0.00885016
0.00884511
0.00884045
0.00883642
0.00883273
0.00882965
0.00882699
0.00882498
0.00882321
0.00882211
0.00882161
0.00882131
0.00882133
0.00882158
0.00882216
0.00882287
0.00882388
0.00882446
0.00882527
0.00882559
0.00882607
0.00882585
0.00882523
0.00882434
0.00882252
0.00885639
0.00885108
0.0088463
0.00884181
0.00883766
0.00883393
0.00883049
0.00882762
0.00882517
0.00882327
0.00882154