/*--------------------------------*- C++ -*----------------------------------*\
  =========                 |
  \\      /  F ield         | OpenFOAM: The Open Source CFD Toolbox
   \\    /   O peration     | Website:  https://openfoam.org
    \\  /    A nd           | Version:  11
     \\/     M anipulation  |
\*---------------------------------------------------------------------------*/
FoamFile
{
    format      ascii;
    class       surfaceScalarField;
    location    "1";
    object      phi;
}
// * * * * * * * * * * * * * * * * * * * * * * * * * * * * * * * * * * * * * //

dimensions      [0 3 -1 0 0 0 0];

internalField   nonuniform List<scalar> 
18960
(
0.0443209
0.00304069
-0.0473616
0.0408927
0.00342828
0.0406441
0.000248589
0.0429452
-0.00230115
0.0461992
-0.00325398
0.0487104
-0.0025112
0.049834
-0.00112363
0.0502472
-0.000413157
0.0502884
-4.11918e-05
0.0501593
0.000129043
0.0499958
0.000163579
0.0498716
0.000124102
0.049817
5.46951e-05
0.0498622
-4.52426e-05
0.0500637
-0.000201539
0.0503475
-0.000283787
0.0507296
-0.00038207
0.051066
-0.00033637
0.0512347
-0.00016871
0.0512523
-1.75803e-05
0.0510829
0.000169336
0.0506746
0.000408347
0.0502104
0.000464186
0.0496101
0.000600333
0.04906
0.000550041
0.0486658
0.000394173
0.0484822
0.000183639
0.0484539
2.83012e-05
0.0485724
-0.000118468
0.0488307
-0.000258337
0.0491578
-0.000327117
0.0496119
-0.000454043
0.050198
-0.000586114
0.0509496
-0.000751666
0.0517878
-0.000838196
0.0528032
-0.00101533
0.0537668
-0.000963629
0.0552817
-0.00151487
0.0565278
-0.0012461
0.000444118
0.0560836
0.0450035
0.00491985
-0.0468826
0.0442555
0.00417625
0.0443741
0.000130001
0.0444035
-0.00233057
0.0437353
-0.00258573
0.0420926
-0.000868496
0.041366
-0.00039707
0.0412312
-0.000278394
0.0415171
-0.000327016
0.0421561
-0.000510043
0.0429323
-0.000612577
0.0437797
-0.000723271
0.0446903
-0.000855965
0.0456676
-0.00102248
0.0466947
-0.00122868
0.0477384
-0.00132745
0.0487501
-0.0013938
0.0496621
-0.00124832
0.0503828
-0.000889477
0.0507898
-0.000424576
0.0508472
0.000111954
0.0506038
0.000651784
0.0501295
0.00093844
0.0494462
0.00128364
0.0485334
0.00146288
0.0475876
0.00133991
0.0466695
0.00110177
0.0458486
0.000849205
0.0451896
0.00054058
0.0445233
0.000407876
0.0441186
7.76031e-05
0.0435395
0.000125071
0.0431559
-0.000202544
0.0427924
-0.00038817
0.0422307
-0.000276435
0.041653
-0.00043767
0.040958
-0.000268564
0.039928
-0.000484942
0.0389987
-0.000316716
-0.00183079
0.0412736
0.0447095
0.0066239
-0.0464135
0.0446437
0.00424207
0.0456875
-0.000913894
0.0468003
-0.00344331
0.0483222
-0.0041076
0.0498929
-0.00243921
0.0508559
-0.00136007
0.0512723
-0.000694807
0.0513166
-0.000371326
0.0511487
-0.000342181
0.050905
-0.000368829
0.0507059
-0.000524244
0.0505727
-0.000722744
0.0505504
-0.00100012
0.0506709
-0.00134923
0.0508584
-0.00151498
0.0511073
-0.00164262
0.0513462
-0.00148725
0.0515286
-0.00107187
0.0515723
-0.000468307
0.051464
0.000220266
0.0510863
0.00102948
0.050655
0.00136971
0.0502281
0.00171062
0.0498273
0.00186361
0.0494987
0.00166856
0.0493051
0.00129532
0.0492574
0.000896934
0.0493822
0.000415727
0.0496054
0.000184737
0.049921
-0.000238007
0.0503917
-0.000345599
0.0508009
-0.000611787
0.0515315
-0.00111875
0.0524291
-0.00117409
0.0535056
-0.00151415
0.0547131
-0.00147604
0.0561444
-0.00191628
0.0562214
-0.000393643
-0.000449679
0.0548402
0.0455847
0.00720952
-0.0461703
0.0473017
0.00252505
0.0487525
-0.00236467
0.0489342
-0.00362503
0.0475693
-0.0027427
0.0451544
-2.42644e-05
0.0432989
0.000495383
0.0424568
0.000147265
0.0423293
-0.000243808
0.0426624
-0.000675209
0.0433152
-0.00102169
0.044169
-0.00137806
0.045104
-0.00165773
0.0461053
-0.00200138
0.0471422
-0.00238617
0.0481353
-0.00250807
0.0490745
-0.00258181
0.0499271
-0.0023399
0.0505708
-0.00171551
0.0509368
-0.000834319
0.0509573
0.000199715
0.0508527
0.00113407
0.0504534
0.00176905
0.0498666
0.00229746
0.0490906
0.00263953
0.0481985
0.00256071
0.0472741
0.00221966
0.046369
0.00180212
0.0455674
0.00121729
0.0448579
0.000894214
0.0442522
0.000367668
0.0438604
4.625e-05
0.0432646
-1.59473e-05
0.0426634
-0.000517646
0.0421581
-0.000668744
0.0416222
-0.000978245
0.0411568
-0.00101063
0.0407881
-0.00154755
0.0414312
-0.00103675
-0.00250733
0.0434888
0.0469069
0.00633514
-0.0460325
0.0489754
0.000456559
0.0491836
-0.00257286
0.0483893
-0.0028307
0.0477822
-0.00213558
0.0486305
-0.000872642
0.0499132
-0.000787319
0.0508777
-0.000817175
0.0512862
-0.000652313
0.0513173
-0.000706348
0.051184
-0.000888364
0.0509733
-0.00116737
0.0508266
-0.00151101
0.0507456
-0.00192036
0.0508223
-0.00246294
0.0509567
-0.00264247
0.0511505
-0.00277555
0.0513282
-0.00251759
0.0514321
-0.00181942
0.0514818
-0.000884056
0.0514703
0.000211213
0.0511341
0.00147027
0.0507701
0.00213309
0.0503897
0.00267782
0.0500422
0.0029871
0.049744
0.00285887
0.0495706
0.00239308
0.0495213
0.00185138
0.0496475
0.00109108
0.0498955
0.000646254
0.0501849
7.82902e-05
0.0506162
-0.000385056
0.0510083
-0.000408057
0.0516111
-0.00112041
0.0523943
-0.00145194
0.0535287
-0.0021127
0.0545002
-0.00198212
0.0549779
-0.00202526
0.0546309
-0.000689762
-0.00101849
0.0531421
0.048421
0.00414995
-0.0462358
0.0501754
-0.00129782
0.050291
-0.0026885
0.0499003
-0.00243996
0.0488326
-0.00106788
0.0472737
0.000686207
0.0455178
0.000968584
0.0441551
0.000545575
0.0435126
-9.84907e-06
0.0435772
-0.000770969
0.0439918
-0.00130291
0.0447416
-0.00191719
0.0456677
-0.00243709
0.0466582
-0.00291085
0.0476717
-0.00347649
0.0486238
-0.0035945
0.0494722
-0.00362404
0.0502148
-0.00326014
0.0507943
-0.00239898
0.0511018
-0.00119154
0.0511054
0.000207699
0.0510873
0.00148831
0.0507984
0.002422
0.0503377
0.00313847
0.0496754
0.00364949
0.0488952
0.00363907
0.0480172
0.003271
0.0470837
0.00278492
0.0461564
0.00201841
0.0453576
0.00144504
0.0446071
0.000828818
0.0442031
1.88761e-05
0.0437452
4.98614e-05
0.0432155
-0.000590696
0.0427047
-0.000941137
0.0422238
-0.00163184
0.0420501
-0.00180843
0.0422312
-0.0022063
0.0435405
-0.00199905
-0.00288799
0.04541
0.0500962
0.00135764
-0.0473039
0.0509724
-0.00217399
0.0503124
-0.00202853
0.0488725
-0.00100009
0.0477569
4.77666e-05
0.0477581
0.000685016
0.0486935
3.31739e-05
0.049931
-0.000691968
0.0508356
-0.00091445
0.0511419
-0.00107723
0.0512399
-0.00140096
0.0511327
-0.00180994
0.0509837
-0.00228808
0.0508878
-0.00281495
0.050929
-0.00351776
0.0510487
-0.00371415
0.0512189
-0.00379422
0.0513356
-0.00337688
0.0514014
-0.00246481
0.0514884
-0.00127853
0.0515461
0.000150012
0.0512352
0.00179923
0.0509495
0.00270766
0.0505941
0.00349391
0.0502553
0.00398833
0.0499442
0.00395015
0.049751
0.0034642
0.0497172
0.00281871
0.0498117
0.00192393
0.0501146
0.00114206
0.0504112
0.000532253
0.0507459
-0.000315786
0.0510474
-0.000251662
0.0515121
-0.00105537
0.0521381
-0.00156722
0.0528649
-0.00235858
0.0532773
-0.00222081
0.0533156
-0.00224462
0.0526746
-0.00135807
-0.00176764
0.0515543
0.0514769
-0.000886262
-0.049233
0.0514336
-0.00213075
0.0504552
-0.00105004
0.0494366
1.84273e-05
0.0488055
0.000678932
0.0482418
0.00124872
0.047135
0.00113997
0.0459696
0.000473461
0.0450733
-1.81542e-05
0.0448427
-0.000846641
0.0450502
-0.00160852
0.0455543
-0.00231401
0.0463584
-0.00309214
0.0473199
-0.00377645
0.0483089
-0.00450678
0.0491612
-0.00456645
0.0499236
-0.00455664
0.0505517
-0.00400498
0.0510745
-0.00298759
0.051424
-0.00162801
0.0513389
0.000235083
0.0513342
0.00180387
0.0510746
0.0029673
0.0507292
0.00383927
0.0502345
0.00448306
0.0495817
0.00460296
0.0488224
0.00422354
0.0479389
0.00370221
0.0469546
0.00290822
0.0460442
0.00205247
0.0451711
0.00140531
0.044676
0.000179338
0.0444168
7.52353e-06
0.0439877
-0.000626257
0.043568
-0.00114757
0.0432728
-0.0020634
0.0434085
-0.00235642
0.0440121
-0.00284831
0.045436
-0.00278196
-0.00332589
0.0469943
0.0519973
-0.00182828
-0.0510552
0.0515067
-0.00164022
0.0503168
0.0001399
0.0491977
0.00113756
0.0483225
0.00155405
0.0477867
0.00178451
0.0480156
0.000911105
0.0490736
-0.000584568
0.0501629
-0.00110745
0.0507234
-0.00140709
0.0510026
-0.00188776
0.0510905
-0.00240188
0.0510283
-0.00302997
0.050995
-0.00374312
0.0510146
-0.00452639
0.0511458
-0.00469767
0.0512981
-0.00470887
0.0514154
-0.00412229
0.0514573
-0.00302953
0.0515265
-0.00169717
0.0517043
5.72409e-05
0.0514345
0.0020737
0.051203
0.00319877
0.0508668
0.00417548
0.0504954
0.00485445
0.0501699
0.00492852
0.0499149
0.00447847
0.0498518
0.00376538
0.0499381
0.00282191
0.0502535
0.00173709
0.050608
0.00105074
0.0507979
-1.05264e-05
0.0509582
-0.000152817
0.0513507
-0.00101875
0.0516526
-0.00144947
0.0518321
-0.00224288
0.0517555
-0.00227985
0.0515384
-0.00263119
0.0509508
-0.00219433
-0.00266323
0.0502881
0.0521534
-0.00174499
-0.0522367
0.051287
-0.00077388
0.0500193
0.0014076
0.0492139
0.00194295
0.0487875
0.00198052
0.0486777
0.00189426
0.0483292
0.00125965
0.047403
0.000341643
0.0465276
-0.000232083
0.0462003
-0.00107978
0.0462885
-0.001976
0.0465806
-0.002694
0.0472096
-0.00365891
0.0480801
-0.00461366
0.0489862
-0.00543249
0.0497506
-0.00546203
0.0504153
-0.00537362
0.0509055
-0.00461246
0.051351
-0.00347503
0.0517027
-0.00204887
0.0515889
0.000171035
0.0516149
0.00204771
0.0514038
0.00340988
0.0510835
0.00449576
0.0507002
0.00523777
0.0502252
0.00540354
0.0496305
0.00507308
0.0488726
0.00452331
0.0479136
0.00378095
0.046925
0.00272571
0.0459322
0.00204351
0.0453837
0.00053801
0.0452315
-7.09565e-07
0.0449263
-0.000713523
0.0447518
-0.00127495
0.0446864
-0.00217747
0.0450298
-0.00262322
0.0457714
-0.00337282
0.0469368
-0.00335972
-0.00379299
0.0480665
0.0519716
-0.00107863
-0.0526379
0.0509179
0.000279829
0.0499579
0.0023676
0.0493066
0.00259423
0.0487437
0.00254341
0.0482632
0.00237471
0.0480828
0.00144012
0.048522
-9.75692e-05
0.0495614
-0.0012715
0.0502546
-0.00177294
0.0506418
-0.00236329
0.0509065
-0.00295865
0.051011
-0.00376336
0.0510553
-0.00465796
0.0511063
-0.00548353
0.0512375
-0.00559318
0.0514
-0.00553617
0.0515701
-0.00478252
0.0516108
-0.00351575
0.051657
-0.00209504
0.0518967
-6.87456e-05
0.0517145
0.00222993
0.0515195
0.00360487
0.0512279
0.00478738
0.0508611
0.00560462
0.0504693
0.00579533
0.0501391
0.00540324
0.0500157
0.00464671
0.0500476
0.00374908
0.0503668
0.00240654
0.0507401
0.0016702
0.050828
0.000450089
0.0508247
2.57765e-06
0.0509941
-0.00088289
0.0509332
-0.00121403
0.0507922
-0.00203651
0.0505217
-0.00235271
0.0502083
-0.00305944
0.0497328
-0.00288423
-0.00349213
0.049432
0.0515903
-0.000121928
-0.052547
0.0506059
0.00126427
0.04985
0.00312345
0.0492682
0.00317606
0.0488891
0.00292246
0.0488791
0.0023848
0.0490142
0.00130493
0.048532
0.000384688
0.0478484
-0.000587937
0.0474373
-0.00136182
0.0474539
-0.00237992
0.0477021
-0.00320677
0.0482261
-0.00428736
0.0489602
-0.00539211
0.0497288
-0.00625211
0.0503745
-0.00623892
0.0509263
-0.00608797
0.051318
-0.00517423
0.0516412
-0.00383898
0.0519844
-0.00243818
0.0518798
3.58769e-05
0.051934
0.00217572
0.0517331
0.0038058
0.0514425
0.00507793
0.0511192
0.00592789
0.0507624
0.00615211
0.0503349
0.00583075
0.049772
0.00520969
0.048924
0.00459701
0.0479528
0.00337773
0.0469275
0.00269554
0.0463172
0.00106036
0.0461948
0.000124973
0.0460125
-0.000700563
0.046064
-0.00126558
0.0462264
-0.00219887
0.0466402
-0.00276656
0.0472689
-0.00368812
0.0480886
-0.00370387
-0.00412061
0.048717
0.051143
0.000898681
-0.0521636
0.0503626
0.00204468
0.049813
0.00367304
0.0493865
0.00360255
0.0491402
0.00316872
0.0488578
0.00266721
0.0485879
0.00157491
0.0486928
0.000279724
0.0491348
-0.00102992
0.0498902
-0.00211718
0.0503706
-0.00286034
0.0507278
-0.00356401
0.0509889
-0.00454847
0.05114
-0.00554316
0.0512536
-0.00636576
0.0514194
-0.0064047
0.0515827
-0.00625133
0.051781
-0.00537246
0.0518857
-0.00394372
0.051919
-0.00247148
0.0521778
-0.000222894
0.0520552
0.00229836
0.0518848
0.00397618
0.0516688
0.00529394
0.0513603
0.00623635
0.0509728
0.00653959
0.0505387
0.00626489
0.0502754
0.00547294
0.0502421
0.00463028
0.0504587
0.00316122
0.0507892
0.00236499
0.0508692
0.000980335
0.0506912
0.000303055
0.0505961
-0.000605559
0.0503041
-0.000973522
0.0500486
-0.00194338
0.049673
-0.00239096
0.0492977
-0.00331278
0.049156
-0.00356215
-0.00413172
0.0491671
0.0508181
0.00178973
-0.0517092
0.0502109
0.00265193
0.0498381
0.00404579
0.049517
0.00392368
0.0492642
0.00342148
0.049062
0.00286941
0.0491522
0.00148471
0.0492052
0.000226773
0.0490122
-0.000836943
0.0486572
-0.00176213
0.0485584
-0.00276154
0.0488297
-0.00383531
0.0493305
-0.00504931
0.049921
-0.00613361
0.0505074
-0.00695216
0.0510128
-0.00691011
0.0514453
-0.00668381
0.0517422
-0.00566944
0.0519931
-0.0041946
0.0522529
-0.00273124
0.0522429
-0.000212938
0.0522662
0.00227506
0.0521139
0.00412857
0.0518939
0.00551391
0.0516146
0.0065156
0.0512695
0.00688473
0.0509417
0.00659267
0.0505501
0.00586459
0.0498932
0.00528711
0.0490561
0.00399836
0.0480809
0.00334014
0.0473841
0.00167715
0.0472125
0.000474727
0.0471779
-0.000571049
0.0474063
-0.00120192
0.0476553
-0.00219232
0.048045
-0.00278073
0.0483631
-0.00363079
0.0487272
-0.0039263
-0.00445533
0.0490508
0.0506123
0.00254551
-0.0513681
0.0501203
0.00314391
0.0498933
0.00427286
0.0496389
0.00417804
0.0494682
0.00359224
0.0493941
0.00294341
0.0492605
0.0016184
0.0491938
0.000293432
0.0493359
-0.000978996
0.049739
-0.00216529
0.0502668
-0.00328932
0.0507453
-0.00431386
0.0510519
-0.00535588
0.0512883
-0.00636996
0.0514596
-0.00712351
0.0516572
-0.00710769
0.0518656
-0.00689222
0.0520881
-0.00589194
0.0522471
-0.00435361
0.0523155
-0.00279962
0.0524915
-0.000388949
0.0524511
0.00231542
0.0523154
0.0042643
0.0521392
0.00569013
0.0519082
0.00674656
0.0516148
0.00717813
0.0511961
0.00701135
0.0507651
0.00629568
0.050556
0.00549612
0.0506049
0.00394947
0.0508581
0.00308698
0.0508908
0.0016444
0.0505978
0.000767732
0.0502532
-0.000226365
0.0499133
-0.000862071
0.0496074
-0.00188645
0.0493052
-0.00247853
0.0491303
-0.00345588
0.0491155
-0.00391148
-0.00458161
0.0492418
0.0504872
0.00315098
-0.0510927
0.0500903
0.00354082
0.049964
0.00439923
0.0498212
0.00432083
0.0497067
0.00370667
0.0496268
0.0030233
0.0495187
0.0017266
0.0495393
0.000272781
0.0496382
-0.00107785
0.0496775
-0.00220468
0.049765
-0.00337679
0.0499997
-0.00454853
0.0503772
-0.00573341
0.0508245
-0.00681729
0.0512216
-0.00752058
0.0516312
-0.00751727
0.0519852
-0.00724623
0.0522537
-0.00616043
0.0524268
-0.00452668
0.052587
-0.00295985
0.0526843
-0.000486217
0.0526872
0.00231248
0.0525782
0.00437328
0.0524193
0.00584905
0.0521893
0.00697653
0.0519451
0.00742232
0.0515722
0.00738428
0.0512471
0.00662082
0.050807
0.00593616
0.0501407
0.00461575
0.0493293
0.00389838
0.0486675
0.00230627
0.0483474
0.00108782
0.0484066
-0.000285597
0.0485896
-0.00104504
0.0488026
-0.00209948
0.048989
-0.00266491
0.0491305
-0.00359741
0.0492373
-0.00401823
-0.00470354
0.0493592
0.0504962
0.00358459
-0.0509298
0.0501905
0.00384652
0.0500799
0.0045098
0.0499983
0.00440248
0.0499072
0.0037978
0.0499145
0.00301598
0.049871
0.00177009
0.0498232
0.000320555
0.0498637
-0.00111836
0.0500805
-0.00242143
0.0504854
-0.0037817
0.0509025
-0.0049656
0.0512707
-0.0061016
0.0515398
-0.00708643
0.0517653
-0.00774603
0.0520534
-0.0078054
0.0523158
-0.00750864
0.0525552
-0.00639988
0.052687
-0.00465848
0.0527853
-0.0030581
0.0529296
-0.000630519
0.0529273
0.00231478
0.0528199
0.00448064
0.0526795
0.00598947
0.0524838
0.00717225
0.0522642
0.00764189
0.0519432
0.00770525
0.0515476
0.00701645
0.0511342
0.00634959
0.0509241
0.0048259
0.0509986
0.00382385
0.0509722
0.00233265
0.0506925
0.00136755
0.0502131
0.000193764
0.0498242
-0.000656096
0.0495809
-0.00185625
0.0494421
-0.00252603
0.0494416
-0.00359692
0.049487
-0.00406368
-0.0047966
0.0495801
0.0505533
0.00391262
-0.0508813
0.0503089
0.00409095
0.0502201
0.00459855
0.0501758
0.0044468
0.0501596
0.00381404
0.0501897
0.0029858
0.0501405
0.00181936
0.0501246
0.000336403
0.0502204
-0.00121414
0.0504323
-0.00263337
0.0506879
-0.00403723
0.0509576
-0.00523535
0.0512807
-0.00642467
0.0516273
-0.00743303
0.0519506
-0.0080694
0.052265
-0.00811979
0.052559
-0.00780259
0.0528161
-0.00665705
0.0529555
-0.00479783
0.0530405
-0.00314307
0.0531792
-0.000769218
0.0532248
0.00226911
0.0531468
0.00455868
0.0529639
0.00617232
0.0527922
0.007344
0.0526077
0.00782637
0.0523185
0.00799449
0.051961
0.00737393
0.0516179
0.00669266
0.0511691
0.00527467
0.0505514
0.00444156
0.0499984
0.00288569
0.0495956
0.00177031
0.0496028
0.000186581
0.0495454
-0.000598718
0.0495644
-0.00187522
0.0495975
-0.00255915
0.0496297
-0.00362909
0.0496982
-0.00413218
-0.00489284
0.0497944
0.0506106
0.00416933
-0.0508674
0.0504343
0.00426724
0.0503857
0.00464721
0.0504029
0.00442957
0.0504351
0.0037818
0.0504805
0.00294041
0.0504678
0.00183207
0.0504883
0.000315908
0.0505639
-0.00128972
0.0507672
-0.00283667
0.0510429
-0.00431294
0.0513888
-0.00558122
0.0517382
-0.00677406
0.0520682
-0.00776302
0.0523716
-0.00837281
0.0526326
-0.00838085
0.0528933
-0.00806325
0.053153
-0.00691676
0.0533109
-0.00495575
0.0533428
-0.00317496
0.053466
-0.000892446
0.0535462
0.00218893
0.0534852
0.00461972
0.0533152
0.0063423
0.0531513
0.00750789
0.0529702
0.00800746
0.0527269
0.00823784
0.0524052
0.00769563
0.0520073
0.00709051
0.0515971
0.00568495
0.051395
0.00464365
0.0512803
0.00300039
0.0510064
0.00204412
0.0505678
0.000625263
0.0502727
-0.000303628
0.0500282
-0.0016308
0.0499129
-0.00244385
0.0498875
-0.00360366
0.0499321
-0.00417673
-0.00497396
0.0500132
0.0506991
0.00436729
-0.050897
0.0505972
0.00436916
0.0505731
0.00467126
0.0506246
0.00437809
0.050698
0.00370836
0.0507829
0.00285554
0.0508355
0.00177944
0.0508584
0.000293046
0.0509518
-0.00138314
0.0511698
-0.0030546
0.0514383
-0.00458147
0.051775
-0.00591798
0.0521031
-0.00710211
0.0524359
-0.00809586
0.05273
-0.00866686
0.0530021
-0.00865293
0.0532138
-0.00827501
0.053488
-0.00719096
0.0536695
-0.00513722
0.053681
-0.00318651
0.0537605
-0.000971895
0.0538919
0.00205751
0.0538312
0.00468038
0.0537179
0.00645564
0.0535572
0.00766864
0.0533842
0.00818038
0.0531557
0.00846636
0.052895
0.00795631
0.0525042
0.00748136
0.0521077
0.00608142
0.0516872
0.00506421
0.0512577
0.00342986
0.0508785
0.00242329
0.0506687
0.000835138
0.0504728
-0.00010779
0.050326
-0.001484
0.0502035
-0.00232133
0.0501609
-0.00356107
0.0501722
-0.00418798
-0.00505484
0.050253
0.0508183
0.00453095
-0.0509819
0.0507589
0.00442852
0.0507863
0.00464386
0.0508654
0.004299
0.0509879
0.00358583
0.0511123
0.00273116
0.0512228
0.00166895
0.0512704
0.000245434
0.0513954
-0.00150814
0.0515914
-0.00325056
0.051861
-0.00485108
0.0522211
-0.00627812
0.0525547
-0.00743564
0.0528445
-0.00838572
0.0531465
-0.0089688
0.0534178
-0.0089243
0.0536053
-0.00846244
0.0538508
-0.00743645
0.0540715
-0.00535796
0.0540643
-0.00317932
0.0540875
-0.000995078
0.054254
0.001891
0.0542606
0.00467379
0.054178
0.00653822
0.0540486
0.00779805
0.0538585
0.00837047
0.0536654
0.00865943
0.0534352
0.00818659
0.0530893
0.00782722
0.0526546
0.00651613
0.0522162
0.00550257
0.0518695
0.0037766
0.0516096
0.00268316
0.0513065
0.00113831
0.0510446
0.000154043
0.0508255
-0.00126486
0.0506326
-0.0021284
0.0505186
-0.0034471
0.05047
-0.0041394
-0.00510644
0.0505216
0.0509707
0.00465913
-0.0510989
0.050957
0.00444224
0.0510214
0.00457942
0.0511285
0.00419193
0.0513141
0.00340024
0.0514958
0.00254944
0.0516161
0.00154868
0.0517513
0.000110147
0.0519217
-0.00167852
0.0521262
-0.00345502
0.052388
-0.00511288
0.0526973
-0.00658747
0.0530289
-0.00776725
0.0533148
-0.00867156
0.0535948
-0.0092488
0.053873
-0.00920253
0.0540145
-0.00860391
0.0542105
-0.00763253
0.0544656
-0.00561301
0.0544815
-0.00319519
0.0544835
-0.000997089
0.0546439
0.00173056
0.0546994
0.00461826
0.0546762
0.00656144
0.0545928
0.00788148
0.0543908
0.00857249
0.0541849
0.00886527
0.0539831
0.00838844
0.0537248
0.00808554
0.0533294
0.00691153
0.0528582
0.0059737
0.0523945
0.0042403
0.0520015
0.00307619
0.051689
0.00145077
0.0514288
0.000414305
0.0512214
-0.00105745
0.0510188
-0.00192583
0.0508812
-0.00330947
0.0507908
-0.00404904
-0.00513629
0.0508207
0.0511741
0.00475418
-0.0512691
0.0512015
0.0044148
0.0513175
0.00446344
0.0514495
0.00405992
0.0516746
0.00317509
0.0518934
0.00233067
0.0521203
0.00132179
0.0523314
-0.00010095
0.0524935
-0.00184066
0.0526974
-0.00365886
0.0529559
-0.0053714
0.0532325
-0.00686408
0.0535509
-0.00808561
0.0538454
-0.00896612
0.0540911
-0.0094945
0.0543446
-0.009456
0.0545011
-0.00876037
0.0546343
-0.00776574
0.0548696
-0.00584836
0.0549536
-0.00327913
0.0549225
-0.000965965
0.0550713
0.00158169
0.0552102
0.00447938
0.0552067
0.00656498
0.0551468
0.00794137
0.0550276
0.00869164
0.0547824
0.00911051
0.0545555
0.00861528
0.0543545
0.00828658
0.0540475
0.00721848
0.0536233
0.00639797
0.0531293
0.00473428
0.052675
0.00353044
0.0523183
0.00180756
0.0520468
0.000685748
0.0517969
-0.000807516
0.0515772
-0.00170619
0.0513952
-0.00312743
0.0512353
-0.00388918
-0.00510704
0.0512061
0.051415
0.00486226
-0.0515231
0.0514754
0.00435443
0.0516399
0.00429897
0.051846
0.00385384
0.052097
0.00292401
0.0524492
0.00197855
0.0527515
0.00101945
0.0529669
-0.000316382
0.0531889
-0.00206266
0.0534034
-0.00387335
0.0536331
-0.0056011
0.0538708
-0.00710174
0.0541392
-0.00835401
0.0544214
-0.00924838
0.0546238
-0.00969686
0.0548467
-0.00967886
0.0550205
-0.00893421
0.055106
-0.00785128
0.0552867
-0.00602906
0.0554385
-0.00343086
0.0554525
-0.000980031
0.0555323
0.00150198
0.055716
0.00429562
0.0558348
0.00644623
0.0557575
0.00801867
0.0556855
0.0087636
0.0555232
0.00927285
0.0552519
0.00888659
0.0549935
0.00854492
0.054752
0.00745995
0.0544545
0.00669552
0.0539966
0.0051922
0.0534723
0.0040547
0.0529545
0.0023254
0.0525446
0.00109562
0.0522515
-0.000514448
0.0520047
-0.00145936
0.0518175
-0.00294023
0.0516783
-0.00374994
-0.00506118
0.0516324
0.0516911
0.00494973
-0.0517785
0.0518299
0.00421559
0.052022
0.0041069
0.0522785
0.00359729
0.0526272
0.00257532
0.0530204
0.0015854
0.0533739
0.000665922
0.0536422
-0.000584628
0.053888
-0.00230853
0.0540999
-0.0040852
0.0543662
-0.00586748
0.0546145
-0.00734995
0.0548253
-0.00856484
0.0550936
-0.00951669
0.0552363
-0.00983958
0.0554086
-0.00985119
0.0556454
-0.00917099
0.0556863
-0.00789218
0.0557859
-0.00612866
0.0559964
-0.00364135
0.0560523
-0.00103596
0.0561266
0.00142773
0.0562919
0.00413029
0.0564672
0.00627093
0.0564871
0.00799876
0.0564281
0.00882266
0.0563033
0.00939765
0.0561197
0.00907019
0.0558329
0.00883173
0.0555223
0.00777054
0.0552355
0.00698232
0.0548926
0.0055351
0.0544819
0.0044654
0.0540056
0.00280168
0.0535241
0.00157714
0.0530981
-8.84329e-05
0.0527289
-0.00109017
0.0524562
-0.0026675
0.0522304
-0.00352414
-0.00497281
0.052142
0.0520867
0.00494166
-0.0520787
0.0522269
0.00407543
0.0525125
0.00382134
0.0528067
0.00330303
0.0531392
0.00224286
0.0535749
0.00114969
0.0540454
0.000195386
0.0544187
-0.000957864
0.0547218
-0.0026117
0.0549579
-0.00432127
0.0552071
-0.00611668
0.0554083
-0.00755116
0.0555505
-0.00870701
0.0557929
-0.00975906
0.0559498
-0.00999648
0.0560511
-0.00995251
0.0562509
-0.00937082
0.0563155
-0.0079568
0.0563657
-0.00617879
0.0565548
-0.00383055
0.0566946
-0.00117571
0.0567681
0.00135423
0.0569315
0.00396685
0.057143
0.00605943
0.057274
0.00786775
0.057299
0.00879769
0.0571656
0.0095311
0.0570209
0.0092149
0.0567955
0.00905705
0.0565061
0.00805999
0.0561869
0.00730149
0.0558245
0.00589756
0.055421
0.00486883
0.0549765
0.00324621
0.0544932
0.0020604
0.0540526
0.000352202
0.0536401
-0.000677651
0.0532727
-0.00230008
0.0529447
-0.00319617
-0.00476937
0.0527412
0.0526801
0.00493397
-0.0526724
0.052762
0.00399357
0.0531086
0.00347469
0.053431
0.00298071
0.0537286
0.00194525
0.0542138
0.000664501
0.0547537
-0.000344524
0.0552406
-0.00144483
0.0556554
-0.00302642
0.0559468
-0.00461275
0.0561232
-0.00629302
0.0562942
-0.00772222
0.0564525
-0.00886524
0.0566238
-0.00993035
0.0567905
-0.0101632
0.0568489
-0.0100109
0.0569298
-0.00945169
0.0570376
-0.00806468
0.0570507
-0.00619189
0.0571939
-0.00397376
0.0573696
-0.00135137
0.0575241
0.00119977
0.0576721
0.00381882
0.0578947
0.00583682
0.0581052
0.00765727
0.0582991
0.00860379
0.0582795
0.0095507
0.0580889
0.00940549
0.0578278
0.00931818
0.0575126
0.0083751
0.0571494
0.0076647
0.0568089
0.00623808
0.0564572
0.00522056
0.0560681
0.00363525
0.0555936
0.00253489
0.0551182
0.000827676
0.0546756
-0.000235105
0.0542732
-0.00189761
0.0539057
-0.00282874
-0.00446656
0.0536029
0.0532013
0.00491746
-0.0531848
0.0533336
0.00386129
0.053688
0.00312027
0.0541116
0.00255709
0.0545332
0.00152369
0.0550577
0.000139989
0.0556551
-0.000941963
0.0561315
-0.00192118
0.0565716
-0.00346651
0.0569581
-0.00499924
0.0571877
-0.00652269
0.0573641
-0.00789859
0.0575504
-0.00905157
0.057573
-0.00995289
0.0576801
-0.0102704
0.0577634
-0.0100942
0.0577496
-0.00943788
0.0578284
-0.00814353
0.0578791
-0.00624253
0.0579777
-0.0040724
0.0581049
-0.00147858
0.0583553
0.000949376
0.0585827
0.00359138
0.0587833
0.00563624
0.0589731
0.00746745
0.0592587
0.00831825
0.0594578
0.00935156
0.0594292
0.00943414
0.0592004
0.00954696
0.0588467
0.0087288
0.0584615
0.00804984
0.0580316
0.00666801
0.0576264
0.00562574
0.0572426
0.00401907
0.0568148
0.00296268
0.0563467
0.00129579
0.0558521
0.000259536
0.0553805
-0.00142607
0.0549196
-0.00236786
-0.00408122
0.0545343
0.0540757
0.00487748
-0.0540357
0.0542188
0.00371812
0.0545535
0.00278565
0.055005
0.00210554
0.0554126
0.00111607
0.0558914
-0.000338754
0.0565413
-0.00159186
0.0571668
-0.00254671
0.0575957
-0.0038954
0.0580135
-0.00541701
0.0583433
-0.00685256
0.0585583
-0.00811354
0.0587331
-0.0092264
0.0587602
-0.00997999
0.0587557
-0.0102659
0.0587825
-0.010121
0.0587248
-0.00938016
0.0587029
-0.00812158
0.0587269
-0.00626654
0.0588628
-0.00420827
0.0589598
-0.0015756
0.0591682
0.000740914
0.0594909
0.00326873
0.0598683
0.00525883
0.0600937
0.00724207
0.0603129
0.00809906
0.06059
0.00907441
0.0607813
0.00924284
0.0607985
0.00952974
0.0605907
0.00893659
0.0602338
0.00840683
0.0597879
0.00711388
0.0592995
0.00611417
0.0588122
0.0045063
0.0583141
0.00346083
0.0578327
0.00177714
0.0573365
0.000755741
0.056827
-0.000916562
0.0563112
-0.00185204
-0.00358227
0.0558123
0.0550155
0.00468896
-0.054827
0.0552082
0.00352535
0.0555029
0.00249105
0.0559683
0.00164005
0.0564058
0.00067862
0.0568453
-0.000778275
0.0574672
-0.00221372
0.0582116
-0.00329116
0.0587936
-0.00447739
0.0592194
-0.00584282
0.059596
-0.00722916
0.0598754
-0.00839289
0.0600094
-0.00936049
0.0600865
-0.010057
0.0600697
-0.0102491
0.0600054
-0.0100566
0.0599238
-0.00929855
0.0598437
-0.00804145
0.0597571
-0.00617996
0.0598167
-0.00426792
0.0599625
-0.00172134
0.0601301
0.000573238
0.0604524
0.00294651
0.0609521
0.0047591
0.0613819
0.00681224
0.0616455
0.00783547
0.0618923
0.00882758
0.0621828
0.00895243
0.0624509
0.00926165
0.0624926
0.00889483
0.062271
0.00862846
0.0618674
0.00751746
0.0613189
0.00666269
0.0607442
0.00508104
0.0601781
0.00402686
0.0596022
0.0023531
0.0590333
0.00132465
0.058483
-0.000366309
0.0579193
-0.00128835
-0.00303359
0.0573706
0.0564283
0.00457204
-0.0563114
0.0565495
0.0034042
0.0567847
0.00225587
0.0572073
0.00121744
0.0576926
0.000193308
0.0581286
-0.00121433
0.0586686
-0.0027537
0.0593779
-0.00400043
0.0600119
-0.00511138
0.0605535
-0.00638443
0.0609239
-0.00759957
0.0612357
-0.00870472
0.0614343
-0.00955908
0.0615016
-0.0101243
0.061494
-0.0102415
0.061429
-0.00999163
0.0612496
-0.00911914
0.0611696
-0.00796149
0.0610673
-0.00607769
0.06101
-0.00421054
0.0611225
-0.00183393
0.0613668
0.000329012
0.0616126
0.00270072
0.0620794
0.00429228
0.0627012
0.00619042
0.0632194
0.00731731
0.0635791
0.00846787
0.0638369
0.00869457
0.0641419
0.00895668
0.0644515
0.00858519
0.0645704
0.00850964
0.064376
0.00771181
0.0638966
0.00714206
0.0632551
0.00572255
0.0625727
0.00470929
0.061923
0.00300274
0.0612812
0.00196647
0.0607238
0.000191114
0.0601021
-0.000666705
-0.0024491
0.0595177
0.0576065
0.00414814
-0.0571826
0.0580532
0.00295754
0.0584856
0.00182342
0.0589917
0.000711406
0.0594722
-0.000287231
0.0598974
-0.00163954
0.0603588
-0.00321508
0.0609474
-0.00458904
0.0614945
-0.00565851
0.0619938
-0.00688372
0.0624146
-0.0080203
0.0627332
-0.00902335
0.0628974
-0.00972333
0.0630286
-0.0102555
0.063012
-0.0102249
0.0629516
-0.00993123
0.0628025
-0.00897004
0.0626655
-0.0078245
0.0625733
-0.00598547
0.0625385
-0.00417571
0.0625302
-0.00182564
0.0627631
9.61108e-05
0.0631243
0.00233958
0.0635074
0.00390914
0.0640601
0.00563774
0.0647567
0.00662065
0.0654169
0.00780772
0.0659166
0.00819484
0.0662368
0.00863651
0.0665275
0.0082945
0.0668172
0.00821996
0.0669788
0.00755017
0.0668683
0.00725258
0.0664205
0.00617033
0.0656974
0.00543243
0.0648879
0.00381225
0.064009
0.00284534
0.0631578
0.0010423
0.0622754
0.000215695
-0.00173573
0.061562
0.0600669
0.00394328
-0.059862
0.0603319
0.00269247
0.0606016
0.00155371
0.0610152
0.000297852
0.0615364
-0.000808425
0.0619493
-0.00205244
0.0622996
-0.00356536
0.0628211
-0.00511059
0.0633485
-0.00618593
0.063782
-0.00731713
0.0640735
-0.00831184
0.064367
-0.00931685
0.0644918
-0.00984813
0.0645558
-0.0103195
0.0645275
-0.0101966
0.0644965
-0.00990022
0.0643497
-0.00882327
0.064263
-0.00773776
0.064199
-0.00592151
0.0642245
-0.00420117
0.0643066
-0.00190775
0.0644576
-5.49056e-05
0.064821
0.00197617
0.0653081
0.00342207
0.0658694
0.00507642
0.0665298
0.00596026
0.0672966
0.00704096
0.0680918
0.00739962
0.0687565
0.00797184
0.0692934
0.00775755
0.0696955
0.00781785
0.0700876
0.00715806
0.070386
0.00695421
0.0705434
0.00601296
0.070349
0.00562677
0.0698964
0.00426484
0.0691223
0.00361942
0.068321
0.00184367
0.067427
0.00110964
-0.000732719
0.066424
0.0621684
0.00327978
-0.0615049
0.0627799
0.00208095
0.0633413
0.000992357
0.0638411
-0.000201922
0.0644566
-0.00142398
0.065097
-0.00269277
0.0654801
-0.00394853
0.0658972
-0.00552767
0.0662712
-0.00655988
0.066618
-0.00766392
0.066706
-0.00839985
0.0667687
-0.00937955
0.0666687
-0.0097482
0.066556
-0.0102067
0.0663103
-0.0099509
0.0661544
-0.00974433
0.0659475
-0.00861634
0.0658171
-0.00760737
0.065737
-0.00584147
0.0658101
-0.0042743
0.0660375
-0.00213505
0.0664128
-0.00043026
0.0668951
0.00149388
0.0674142
0.00290293
0.0680609
0.00442974
0.0687579
0.00526326
0.0694895
0.0063094
0.0702368
0.00665232