/*--------------------------------*- C++ -*----------------------------------*\
  =========                 |
  \\      /  F ield         | OpenFOAM: The Open Source CFD Toolbox
   \\    /   O peration     | Website:  https://openfoam.org
    \\  /    A nd           | Version:  10
     \\/     M anipulation  |
\*---------------------------------------------------------------------------*/
FoamFile
{
    format      ascii;
    class       volScalarField;
    location    "0.500082";
    object      p;
}
// * * * * * * * * * * * * * * * * * * * * * * * * * * * * * * * * * * * * * //

dimensions      [1 -1 -2 0 0 0 0];

internalField   nonuniform List<scalar> 
16320
(
0.693312
0.703444
0.722993
0.747287
0.771097
0.788734
0.802193
0.81161
0.818612
0.824605
0.830158
0.835701
0.841826
0.8494
0.860069
0.875532
0.897145
0.921774
0.942066
0.954196
0.956821
0.952196
0.942114
0.929239
0.915193
0.901121
0.886824
0.871616
0.855118
0.837278
0.82028
0.804843
0.791229
0.694712
0.702929
0.719433
0.740333
0.76153
0.778579
0.792212
0.802888
0.811917
0.819932
0.826943
0.833242
0.839557
0.84667
0.856022
0.868921
0.884912
0.901546
0.916005
0.925279
0.928005
0.925068
0.917584
0.90717
0.895259
0.882583
0.868904
0.854104
0.838774
0.822515
0.808568
0.795967
0.785802
0.694729
0.701284
0.715021
0.733726
0.752473
0.768743
0.781946
0.793443
0.803442
0.812347
0.820061
0.826874
0.833058
0.839214
0.846327
0.855509
0.867001
0.879775
0.891413
0.899646
0.903032
0.901619
0.896327
0.887742
0.877177
0.865166
0.851765
0.837885
0.823546
0.809916
0.798654
0.789048
0.782247
0.69792
0.702686
0.713001
0.727604
0.744495
0.759698
0.772774
0.784043
0.794083
0.802982
0.810562
0.816983
0.823032
0.828192
0.833941
0.840877
0.849774
0.860111
0.870387
0.878373
0.882513
0.882232
0.878372
0.870741
0.860672
0.848987
0.836435
0.823862
0.81009
0.799865
0.790827
0.784221
0.780662
0.703355
0.706864
0.714297
0.724373
0.738181
0.751583
0.764133
0.774889
0.784478
0.792995
0.800515
0.8067
0.811621
0.816636
0.822604
0.828334
0.835717
0.844886
0.853926
0.861471
0.865933
0.866279
0.863085
0.856169
0.846621
0.835305
0.823201
0.810332
0.800552
0.792073
0.785664
0.782114
0.781111
0.707473
0.709111
0.714366
0.723602
0.73418
0.744763
0.756017
0.766001
0.775298
0.783366
0.790685
0.797124
0.802563
0.80738
0.811655
0.817531
0.825433
0.834079
0.842476
0.849337
0.853571
0.853989
0.850955
0.844218
0.834369
0.822338
0.811564
0.801937
0.793522
0.787306
0.783804
0.782955
0.785196
0.712668
0.712932
0.716354
0.723173
0.731275
0.740323
0.748799
0.757687
0.766214
0.774507
0.781785
0.788137
0.794305
0.799976
0.805462
0.811376
0.817211
0.823637
0.830523
0.836565
0.840122
0.840223
0.837025
0.830572
0.822302
0.813475
0.804333
0.795954
0.789656
0.786465
0.785533
0.787727
0.793639
0.716138
0.714311
0.716
0.720806
0.727769
0.735352
0.742932
0.750426
0.758155
0.765748
0.773083
0.780379
0.786601
0.793361
0.799823
0.806022
0.811898
0.817688
0.823286
0.82801
0.830671
0.830401
0.827346
0.821802
0.81473
0.806845
0.799316
0.793711
0.790637
0.789651
0.791868
0.79776
0.806449
0.717302
0.713009
0.712612
0.715123
0.720834
0.727875
0.735377
0.742905
0.750061
0.757424
0.764825
0.772181
0.779731
0.787013
0.793603
0.799507
0.805231
0.810239
0.814563
0.818089
0.820046
0.819735
0.817249
0.812803
0.807611
0.80258
0.798471
0.795584
0.795508
0.79811
0.804174
0.812892
0.823168
0.715376
0.708047
0.705305
0.706394
0.710205
0.71696
0.724813
0.732594
0.74022
0.747475
0.754813
0.763245
0.771357
0.778797
0.785751
0.791608
0.795845
0.799079
0.801717
0.803987
0.805637
0.806206
0.805715
0.804386
0.802408
0.800779
0.800598
0.802085
0.806163
0.812695
0.821258
0.831723
0.842945
0.708688
0.699126
0.694261
0.694119
0.696406
0.702653
0.710517
0.719025
0.726992
0.734958
0.743334
0.751195
0.75946
0.768266
0.775035
0.779885
0.78257
0.783993
0.785043
0.786347
0.788063
0.790287
0.792859
0.795581
0.798419
0.801667
0.805721
0.811943
0.820016
0.829478
0.840951
0.853145
0.865393
0.696702
0.685664
0.679314
0.677674
0.678843
0.683865
0.69193
0.70114
0.71015
0.71883
0.727901
0.736902
0.745665
0.75263
0.758401
0.762181
0.763788
0.764012
0.764046
0.764823
0.767123
0.771347
0.777292
0.784484
0.792734
0.802043
0.812421
0.823414
0.835181
0.847917
0.862194
0.876906
0.890138
0.681816
0.668815
0.660943
0.657607
0.657895
0.661516
0.669038
0.678486
0.688387
0.698904
0.708581
0.718222
0.727459
0.734806
0.73984
0.742472
0.742631
0.741448
0.740572
0.741603
0.745117
0.751977
0.761864
0.773972
0.787683
0.802547
0.818386
0.834471
0.850282
0.867826
0.88578
0.902235
0.916
0.66411
0.649446
0.640331
0.635252
0.634174
0.636054
0.642027
0.651149
0.661233
0.6729
0.685276
0.695788
0.704687
0.711734
0.716649
0.718427
0.717892
0.71601
0.714944
0.716439
0.721386
0.730906
0.744458
0.761157
0.780161
0.800507
0.821785
0.843921
0.866705
0.889027
0.908809
0.925596
0.938362
0.654086
0.635336
0.621036
0.612656
0.608495
0.608125
0.611539
0.619644
0.630153
0.642794
0.656318
0.668716
0.678882
0.685531
0.689384
0.690512
0.68934
0.687548
0.687027
0.689497
0.69633
0.708432
0.72531
0.745988
0.769559
0.795364
0.823587
0.853519
0.881751
0.90639
0.926271
0.942742
0.955419
0.651048
0.630364
0.61122
0.594884
0.584625
0.579217
0.579688
0.584971
0.595843
0.609477
0.624086
0.637656
0.64871
0.656558
0.660362
0.661025
0.659626
0.658066
0.658552
0.662572
0.671637
0.685844
0.705377
0.729335
0.757023
0.789016
0.824821
0.859325
0.890154
0.915436
0.936682
0.952984
0.965029
0.656023
0.633192
0.609459
0.58659
0.566813
0.553415
0.548853
0.551429
0.56082
0.574853
0.590215
0.604249
0.615581
0.623452
0.627608
0.628887
0.62855
0.62857
0.630918
0.63699
0.648112
0.664614
0.6864
0.712938
0.745175
0.783067
0.821651
0.858355
0.890144
0.918066
0.939806
0.955949
0.968144
0.671914
0.648467
0.620057
0.588317
0.557977
0.534503
0.522802
0.521964
0.529198
0.542114
0.556475
0.57014
0.581443
0.58962
0.594437
0.596783
0.598255
0.600477
0.605323
0.614178
0.627712
0.646224
0.67009
0.699357
0.734992
0.77411
0.813643
0.851188
0.885869
0.914629
0.936928
0.953596
0.965567
0.698653
0.676606
0.644404
0.602636
0.557895
0.523281
0.503829
0.497974
0.50196
0.512472
0.525051
0.537371
0.548159
0.556564
0.562464
0.566468
0.570452
0.575896
0.583981
0.595508
0.611076
0.631684
0.658463
0.689135
0.725409
0.764094
0.803663
0.842786
0.877948
0.907557
0.930899
0.947452
0.960913
0.735211
0.717333
0.681559
0.627569
0.567257
0.516845
0.489245
0.479273
0.479028
0.486121
0.496329
0.507331
0.517519
0.526139
0.533587
0.54041
0.547637
0.556473
0.567643
0.581456
0.599162
0.622656
0.650057
0.681929
0.717159
0.75503
0.79464
0.833386
0.868133
0.897691
0.922216
0.940019
0.955277
0.779899
0.768716
0.73023
0.661828
0.57758
0.510036
0.475504
0.461841
0.459147
0.46357
0.471942
0.482087
0.492403
0.501994
0.511164
0.520487
0.530564
0.542225
0.55668
0.572937
0.593849
0.618123
0.646248
0.677417
0.711483
0.748161
0.786405
0.823211
0.857287
0.888642
0.912913
0.933005
0.94927
0.82937
0.827984
0.789752
0.697046
0.581684
0.499817
0.460429
0.445279
0.441658
0.444923
0.452751
0.462649
0.473276
0.484004
0.495002
0.506513
0.519084
0.533392
0.55107
0.570403
0.592452
0.617466
0.645213
0.675478
0.707983
0.742942
0.777987
0.812956
0.846886
0.878359
0.903109
0.925152
0.941522
0.889091
0.899738
0.855044
0.729575
0.578974
0.486077
0.445153
0.430257
0.426902
0.430451
0.43848
0.448908
0.460248
0.472024
0.484753
0.498709
0.514184
0.530957
0.550331
0.571201
0.594085
0.619219
0.646543
0.675301
0.706148
0.737649
0.770013
0.803688
0.835268
0.866755
0.892504
0.914937
0.933721
0.949603
0.97561
0.921572
0.756067
0.573472
0.473167
0.432632
0.418854
0.416055
0.420855
0.429634
0.440753
0.453567
0.46704
0.48111
0.496488
0.513698
0.532275
0.552821
0.574604
0.598011
0.622627
0.64885
0.676452
0.704953
0.733191
0.763144
0.794481
0.824892
0.854637
0.88218
0.903733
0.92128
1.00625
1.04511
0.988866
0.782511
0.572533
0.465428
0.425149
0.412207
0.410199
0.416668
0.426767
0.438566
0.451565
0.465497
0.481306
0.498162
0.516682
0.536489
0.557605
0.579566
0.602503
0.626677
0.652017
0.678228
0.703503
0.730393
0.758851
0.786837
0.817554
0.844891
0.869844
0.890435
0.907091
1.03374
1.07785
1.04781
0.834696
0.593415
0.470265
0.425749
0.411079
0.408786
0.415797
0.426553
0.439201
0.452997
0.468367
0.485078
0.502786
0.521442
0.541582
0.562627
0.584449
0.607224
0.630863
0.655144
0.679833
0.704059
0.73009
0.755867
0.783722
0.810688
0.836103
0.85877
0.877453
0.892511
1.04002
1.08175
1.07284
0.907948
0.6533
0.500322
0.438979
0.418477
0.413551
0.419309
0.430378
0.443585
0.458079
0.473584
0.490016
0.507896
0.52689
0.546661
0.567433
0.589189
0.61177
0.635054
0.659009
0.682431
0.706306
0.730768
0.755282
0.782093
0.806397
0.829443
0.849123
0.865378
0.87802
1.0321
1.06369
1.06775
0.973667
0.753451
0.561466
0.470893
0.43586
0.426124
0.427018
0.436753
0.449199
0.463323
0.478795
0.495449
0.512913
0.531515
0.551173
0.5719
0.5936
0.616126
0.639422
0.663409
0.685656
0.709692
0.73245
0.758244
0.781309
0.804065
0.824165
0.840777
0.85412
0.863975
1.02135
1.04694
1.0514
0.991762
0.84821
0.655946
0.522108
0.465803
0.444382
0.438894
0.444146
0.455402
0.468855
0.483736
0.499852
0.517086
0.535493
0.555101
0.575875
0.597734
0.620565
0.644532
0.667028
0.69036
0.713378
0.736297
0.7605
0.782254
0.802667
0.819497
0.83329
0.84349
0.850163
1.00914
1.0288
1.03302
0.996285
0.898687
0.747895
0.59953
0.507732
0.469192
0.455937
0.45405
0.461769
0.473772
0.487851
0.503425
0.520367
0.538691
0.55838
0.579424
0.601693
0.625152
0.64917
0.671128
0.694733
0.71666
0.741375
0.763069
0.783385
0.801135
0.815487
0.826388
0.83308
0.835974
0.998216
1.01101
1.01227
0.985977
0.922091
0.816777
0.68515
0.570305
0.504115
0.476178
0.467833
0.46911
0.478296
0.491122
0.506084
0.522785
0.541137
0.561143
0.582693
0.605654
0.629999
0.652395
0.675659
0.698567
0.720513
0.744761
0.76567
0.784375
0.799448
0.811578
0.818713
0.821551
0.82193
0.986917
0.993971
0.990405
0.968401
0.92343
0.856216
0.758908
0.645694
0.553732
0.503967
0.483899
0.478959
0.483029
0.493775
0.507893
0.524386
0.542994
0.56347
0.585648
0.609283
0.63341
0.655529
0.679395
0.701662
0.723831
0.747448
0.767519
0.784431
0.797798
0.806105
0.809509
0.810085
0.807649
0.975069
0.977564
0.969399
0.947694
0.913883
0.870072
0.808282
0.717079
0.615878
0.541106
0.50417
0.490773
0.48889
0.496119
0.509005
0.525316
0.544232
0.565373
0.588232
0.61246
0.635102
0.65852
0.681603
0.703147
0.727534
0.749603
0.768551
0.783832
0.794213
0.79863
0.79957
0.797662
0.792527
0.960321
0.9579
0.947452
0.927961
0.902777
0.873577
0.835014
0.771124
0.679824
0.588211
0.530038
0.503962
0.496261
0.498612
0.509744
0.525716
0.545008
0.566587
0.589953
0.614176
0.636462
0.660757
0.683126
0.704764
0.72983
0.750611
0.767931
0.781782
0.788087
0.789978
0.788651
0.783948
0.775711
0.941084
0.935378
0.923347
0.906332
0.887634
0.868923
0.846909
0.810808
0.739774
0.642882
0.562202
0.520192
0.504358
0.501658
0.510112
0.525437
0.544765
0.566832
0.590766
0.613702
0.637057
0.661134
0.683142
0.706424
0.730455
0.749524
0.766063
0.776203
0.780979
0.779129
0.77588
0.769548
0.759328
0.915862
0.90849
0.897496
0.884375
0.871456
0.86046
0.848305
0.828453
0.784267
0.70097
0.603458
0.540415
0.513363
0.505732
0.510224
0.524313
0.543496
0.56589
0.589573
0.611376
0.635911
0.659266
0.681082
0.7063
0.728434
0.745967
0.761286
0.769045
0.769932
0.767995
0.763653
0.755047
0.743659
0.88377
0.87715
0.868735
0.859928
0.851971
0.846617
0.842261
0.832319
0.807964
0.74807
0.651917
0.566325
0.523823
0.510005
0.509207
0.521228
0.540152
0.562916
0.584375
0.607314
0.632076
0.654974
0.677207
0.702389
0.722878
0.739678
0.753461
0.758811
0.758825
0.756798
0.751945
0.742226
0.730437
0.844729
0.841192
0.836558
0.832548
0.830055
0.829069
0.828927
0.827063
0.815267
0.778669
0.697506
0.597717
0.537269
0.513978
0.508569
0.51694
0.534354
0.555749
0.576987
0.600917
0.624535
0.64686
0.671188
0.69422
0.71327
0.730015
0.742675
0.747705
0.748049
0.746353
0.741388
0.732057
0.720907
0.801749
0.802956
0.802011
0.801676
0.803381
0.80656
0.810864
0.813866
0.811365
0.792447
0.732236
0.630998
0.552139
0.517706
0.507727
0.511518
0.525628
0.545839
0.567731
0.590513
0.613424
0.635359
0.659718
0.682075
0.6998
0.716691
0.729992
0.735972
0.737829
0.73696
0.732927
0.72493
0.71512
0.762973
0.76667
0.767992
0.770331
0.774636
0.78104
0.788881
0.79715
0.802458
0.795497
0.754949
0.661289
0.567297
0.521851
0.506048
0.503636
0.515629
0.533919
0.554273
0.576162
0.598058
0.619762
0.643411
0.664415
0.683306
0.700755
0.715115
0.724785
0.728279
0.728781
0.726649
0.7206
0.712602
0.729469
0.73434
0.73798
0.741678
0.747458
0.755751
0.76636
0.778949
0.790802
0.793724
0.768383
0.687425
0.583031
0.524303
0.500885
0.495751
0.503253
0.518609
0.53738
0.557585
0.577674
0.600577
0.623284
0.643564
0.664572
0.683476
0.699887
0.712515
0.719341
0.72203
0.72201
0.718342
0.712382
0.708715
0.713096
0.71643
0.719965
0.725903
0.734412
0.746376
0.761542
0.778182
0.788828
0.776579
0.709292
0.600586
0.525976
0.494943
0.486422
0.488562
0.5009
0.517578
0.535563
0.556177
0.577962
0.599909
0.622194
0.644784
0.66591
0.684663
0.700448
0.709961
0.716386
0.718181
0.717321
0.71355
0.698225
0.701054
0.704001
0.707475
0.712714
0.720515
0.732083
0.747708
0.766732
0.782181
0.781076
0.72841
0.619545
0.53016
0.489557
0.475853
0.473791
0.482496
0.496685
0.512928
0.53371
0.555433
0.577174
0.601325
0.62554
0.648826
0.669852
0.687797
0.701992
0.710515
0.715576
0.717247
0.715647
0.693563
0.695621
0.698449
0.701501
0.706172
0.713515
0.72411
0.738959
0.757914
0.776486
0.782912
0.745553
0.643646
0.539463
0.486861
0.466479
0.461357
0.465775
0.477478
0.493403
0.512694
0.534378
0.557055
0.582092
0.607551
0.63243
0.655419
0.675777
0.693187
0.703819
0.71255
0.715616
0.716383
0.691897
0.693746
0.695984
0.699329
0.703718
0.710827
0.72079
0.734775
0.752871
0.77274
0.784334
0.761021
0.67215
0.557186
0.489695
0.46166
0.453436
0.453449
0.463291
0.477755
0.495729
0.51721
0.540276
0.564812
0.590631
0.616213
0.640601
0.662909
0.68242
0.697224
0.709422
0.716389
0.718852
0.694359
0.695479
0.697095
0.700141
0.704385
0.710943
0.720353
0.733584
0.75091
0.771269
0.786029
0.775108
0.703647
0.58529
0.501112
0.464129
0.450496
0.447529
0.454605
0.467801
0.484727
0.504471
0.526194
0.550413
0.575798
0.600926
0.625793
0.649198
0.670233
0.688092
0.703162
0.713629
0.718382
0.698807
0.700108
0.701297
0.704772
0.70881
0.714617
0.723375
0.73555
0.751848
0.772059
0.788873
0.788009
0.735584
0.623898
0.523248
0.473279
0.454795
0.44878
0.45219
0.463491
0.478866
0.496935
0.517189
0.539205
0.562938
0.5871
0.611297
0.634883
0.656865
0.676557
0.69363
0.707152
0.713293
0.704946
0.706208
0.70755
0.710797
0.715198
0.720513
0.728696
0.739891
0.755133
0.774635
0.793016
0.79929
0.765005
0.669002
0.556503
0.491193
0.465777
0.455658
0.45522
0.464282
0.477489
0.494021
0.512837
0.533498
0.555472
0.578157
0.601098
0.623712
0.645273
0.665057
0.682352
0.697066
0.707054
0.712132
0.713592
0.71526
0.718044
0.722784
0.728088
0.735593
0.746007
0.760041
0.778409
0.797829
0.809114
0.790108
0.714588
0.600633
0.519288
0.482296
0.467841
0.464252
0.469185
0.479686
0.494088
0.510907
0.529586
0.549635
0.570511
0.591702
0.613058
0.633725
0.652804
0.670098
0.685189
0.697518
0.719912
0.721711
0.723982
0.726694
0.731556
0.736908
0.743623
0.753153
0.765894
0.782845
0.802863
0.817292
0.809895
0.755262
0.651572
0.556403
0.50524
0.484955
0.4785
0.478208
0.485609
0.497209
0.511727
0.528208
0.546245
0.564992
0.583793
0.603908
0.622979
0.641006
0.657629
0.672786
0.685768
0.728196
0.730231
0.732288
0.735937
0.740637
0.746208
0.752446
0.761124
0.772702
0.788171
0.80751
0.824441
0.825834
0.788371
0.702112
0.599505
0.535245
0.505983
0.494111
0.491085
0.49459
0.503205
0.515174
0.529383
0.545173
0.561901
0.57919
0.596919
0.614386
0.630986
0.646606
0.661001
0.673759
0.736479
0.739102
0.741853
0.745536
0.749803
0.75549
0.761805
0.769621
0.780153
0.794075
0.812031
0.830629
0.83815
0.81498
0.747343
0.648269
0.569753
0.529531
0.51167
0.506026
0.5057
0.511224
0.520467
0.532191
0.545654
0.560282
0.575775
0.591538
0.607102
0.622564
0.637111
0.650578
0.662755
0.74507
0.748077
0.751344
0.755614
0.759402
0.765245
0.770942
0.778234
0.787868
0.800457
0.816735
0.835704
0.847695
0.836704
0.785461
0.697112
0.609107
0.556243
0.531161
0.521336
0.518707
0.520921
0.527377
0.536609
0.547647
0.560009
0.573285
0.587215
0.601417
0.614925
0.628561
0.641241
0.652915
0.753742
0.75703
0.7608
0.764816
0.769289
0.774661
0.780201
0.786641
0.795525
0.80714
0.821915
0.839726
0.855285
0.853241
0.816867
0.742093
0.65141
0.585817
0.551416
0.536611
0.531659
0.531142
0.534908
0.541744
0.550451
0.560574
0.57174
0.583677
0.596203
0.608385
0.62054
0.63259
0.643793
0.762518
0.766077
0.770205
0.77422
0.779824
0.78415
0.789665
0.795115
0.803078
0.813461
0.827336
0.844613
0.861104
0.86582
0.841841
0.780924
0.693873
0.617341
0.572522
0.551176
0.542722
0.540457
0.541711
0.546352
0.552971
0.561033
0.570216
0.580228
0.590906
0.60203
0.612775
0.623806
0.634827
0.771436
0.775288
0.779738
0.783602
0.790055
0.793836
0.79873
0.803757
0.810917
0.820646
0.833437
0.849219
0.865434
0.875815
0.861368
0.812831
0.733091
0.650313
0.594317
0.564691
0.551736
0.547209
0.546502
0.549095
0.553844
0.560111
0.567541
0.575915
0.58498
0.594453
0.604514
0.614691
0.624897
0.780555
0.784802
0.789429
0.793663
0.79942
0.803763
0.807597
0.812624
0.818829
0.828289
0.840358
0.85508
0.870592
0.882453
0.876348
0.838668
0.767504
0.682584
0.616945
0.577871
0.558921
0.550965
0.548665
0.54933
0.552396
0.557092
0.562892
0.569688
0.57721
0.585501
0.594307
0.603664
0.613545
0.789755
0.794382
0.799488
0.804146
0.80932
0.814387
0.81708
0.821274
0.826908
0.836428
0.848053
0.86158
0.876275
0.887708
0.887509
0.858988
0.796951
0.713346
0.639753
0.591486
0.565415
0.553143
0.548442
0.547494
0.548909
0.552206
0.556693
0.562018
0.567986
0.574577
0.581783
0.589791
0.59877
0.798973
0.804141
0.809514
0.814426
0.819448
0.824755
0.828285
0.832115
0.837941
0.845924
0.856875
0.869585
0.883031
0.894639
0.895926
0.874718
0.821102
0.741517
0.661977
0.605388
0.57189
0.554899
0.547203
0.544376
0.544555
0.546516
0.549629
0.553538
0.557884
0.562729
0.567964
0.573912
0.58095
0.80789
0.813655
0.819413
0.824694
0.82981
0.835227
0.839517
0.84267
0.848948
0.856336
0.867391
0.87992
0.892168
0.90246
0.904603
0.887513
0.841463
0.766917
0.684199
0.619135
0.578497
0.556555
0.545702
0.541298
0.539931
0.540276
0.541731
0.54395
0.547005
0.55071
0.554263
0.557719
0.561941
0.816176
0.82255
0.828687
0.834054
0.839259
0.84501
0.84976
0.853657
0.859074
0.867467
0.878327
0.890266
0.90151
0.909805
0.912022
0.899068
0.860069
0.79243
0.70818
0.635097
0.586764
0.559724
0.545878
0.539084
0.5359
0.534678
0.534532
0.535117
0.536333
0.538295
0.540585
0.54217
0.543952
0.823322
0.830437
0.836729
0.842344
0.84817
0.853871
0.859478
0.864078
0.869363
0.878358
0.888679
0.900376
0.910497
0.916663
0.917645
0.907624
0.874967
0.816493
0.734853
0.655297
0.598572
0.565356
0.54773
0.538478
0.533547
0.530884
0.529302
0.528362
0.527918
0.528083
0.528251
0.528554
0.52855
0.827405
0.835508
0.842616
0.848899
0.855262
0.861244
0.867398
0.873549
0.879473
0.887447
0.898727
0.909445
0.918297
0.922795
0.921358
0.911911
0.885768
0.836635
0.762164
0.679239
0.614714
0.574102
0.55118
0.539051
0.532151
0.528241
0.525752
0.524058
0.522463
0.521167
0.52058
0.518897
0.51738
0.828769
0.837504
0.845492
0.852706
0.859899
0.866585
0.873247
0.880113
0.887122
0.895968
0.906633
0.917023
0.924536
0.927037
0.923459
0.912838
0.891406
0.850524
0.786145
0.705685
0.633728
0.584727
0.55601
0.539919
0.531373
0.52651
0.523679
0.522009
0.520147
0.518213
0.516725
0.514548
0.510757
0.827976
0.837494
0.846081
0.854128
0.861718
0.868906
0.876213
0.884313
0.893129
0.902318
0.912394
0.922963
0.928635
0.928738
0.923374
0.910934
0.891221
0.858675
0.804993
0.731328
0.655602
0.598341
0.563256
0.544845
0.535109
0.529194
0.525273
0.521944
0.519643
0.517296
0.515953
0.512904
0.508255
0.823908
0.834259
0.844018
0.852941
0.861145
0.868859
0.876734
0.885543
0.895451
0.905581
0.916228
0.925162
0.930095
0.928087
0.920717
0.906213
0.886349
0.859201
0.816731
0.753545
0.68065
0.618602
0.57931
0.558
0.544887
0.536365
0.53044
0.526487
0.523189
0.518666
0.517133
0.513873
0.508598
0.816501
0.827582
0.838732
0.848628
0.857502
0.86584
0.874449
0.88391
0.894586
0.905638
0.916123
0.924652
0.928141
0.92508
0.915702
0.898192
0.877105
0.852051
0.817372
0.767301
0.704992
0.646725
0.606854
0.58106
0.562366
0.54892
0.539482
0.533142
0.527984
0.523654
0.519667
0.515999
0.509886
0.806077
0.817745
0.829787
0.840653
0.850428
0.859614
0.868983
0.879183
0.890457
0.902252
0.913074
0.920772
0.92255
0.918758
0.907007
0.886748
0.863051
0.838498
0.808197
0.767391
0.718973
0.67196
0.636334
0.608946
0.585284
0.566085
0.551935
0.542367
0.535144
0.529337
0.524144
0.51921
0.512691
0.793413
0.804998
0.817316
0.829026
0.839842
0.85005
0.860327
0.871255
0.882971
0.894771
0.905099
0.911621
0.912379
0.907555
0.89469
0.871156
0.845624
0.819455
0.792204
0.759138
0.722003
0.688034
0.659401
0.635068
0.6091
0.584633
0.565932
0.552938
0.543393
0.535668
0.529063
0.522903
0.51559
0.779586
0.789942
0.801813
0.814002
0.825822
0.83711
0.848373
0.859997
0.871987
0.883369
0.89263
0.897791
0.896613
0.890877
0.876824
0.853666
0.826426
0.800179
0.775334
0.748917
0.722162
0.698828
0.678041
0.657735
0.631081
0.602897
0.579767
0.563386
0.551168
0.541748
0.533738
0.526503
0.518558
0.765543
0.773716
0.784212
0.796269
0.808426
0.82067
0.832976
0.845378
0.857543
0.868303
0.876269
0.879621
0.87745
0.870262
0.855925
0.832929
0.80704
0.782398
0.760285
0.740639
0.722831
0.70734
0.693224
0.67677
0.650007
0.618401
0.591579
0.572258
0.557497
0.547034
0.538059
0.529797
0.521426
0.752239
0.757581
0.765769
0.776424
0.788395
0.801201
0.814407
0.827525
0.839837
0.850022
0.856713
0.858439
0.855497
0.847057
0.833728
0.81294
0.789023
0.767042
0.749542
0.735878
0.725422
0.715714
0.705898
0.692652
0.663914
0.629425
0.600182
0.578577
0.562219
0.551001
0.541531
0.532747
0.523984
0.740168
0.742605
0.748081
0.756155
0.76691
0.77951
0.793156
0.806824
0.819311
0.829134
0.834892
0.835538
0.832134
0.823927
0.810304
0.79284
0.773105
0.756221
0.74311
0.73559
0.730779
0.72499
0.71792
0.703669
0.671684
0.635791
0.605896
0.5824
0.566196
0.554482
0.544233
0.535069
0.526075
0.729522
0.729038
0.731429
0.736732
0.745253
0.756635
0.770109
0.784021
0.796692
0.80641
0.811872
0.812218
0.808831
0.801252
0.789052
0.776246
0.760381
0.748149
0.742078
0.738577
0.738278
0.73509
0.729424
0.709743
0.674876
0.639286
0.609104
0.585565
0.570429
0.557412
0.546329
0.536919
0.527518
0.72041
0.717361
0.716779
0.719146
0.724675
0.733998
0.746537
0.760305
0.77303
0.782895
0.788632
0.789469
0.786641
0.78061
0.770999
0.760438
0.752682
0.745753
0.744388
0.745123
0.747419
0.745507
0.73858
0.71323
0.676014
0.641248
0.611039
0.590697
0.573991
0.559787
0.548046
0.538244
0.529119
0.712483
0.707131
0.704005
0.703578
0.706342
0.713285
0.724387
0.73736
0.749843
0.759909
0.766244
0.768287
0.766725
0.762812
0.756352
0.749435
0.749693
0.747691
0.750006
0.755732
0.759776
0.759172
0.746067
0.715438
0.678549
0.64234
0.616831
0.595361
0.577171
0.562018
0.549515
0.53922
0.530194
0.705205
0.698387
0.692968
0.689871
0.690848
0.695721
0.705071
0.716983
0.728951
0.739165
0.746349
0.750147
0.750692
0.74977
0.747821
0.746851
0.7522
0.754423
0.762335
0.771862
0.777497
0.77424
0.754662
0.720487
0.680123
0.649384
0.622607
0.599476
0.580133
0.564163
0.551092
0.540131
0.531777
0.698669
0.690674
0.683746
0.679305
0.678584
0.682137
0.690056
0.70082
0.712256
0.722438
0.730729
0.736767
0.740196
0.743452
0.747524
0.751221
0.76049
0.76975
0.783258
0.796369
0.801743
0.793419
0.766629
0.723528
0.68892
0.656393
0.627603
0.603053
0.582914
0.566491
0.553214
0.542079
0.533837
0.692849
0.684406
0.677549
0.672906
0.671981
0.675147
0.681708
0.690984
0.701984
0.712096
0.721166
0.729485
0.737531
0.745233
0.75413
0.763477
0.777926
0.798088
0.817395
0.832085
0.833947
0.817252
0.775421
0.737073
0.697518
0.66207
0.631071
0.605839
0.585258
0.569144
0.556
0.545225
0.536686
0.688565
0.680999
0.674681
0.670632
0.670092
0.673155
0.679373
0.687779
0.697582
0.707674
0.718303
0.729568
0.741401
0.754713
0.771036
0.788144
0.816436
0.844213
0.867827
0.879984
0.871868
0.833933
0.792257
0.747372
0.702932
0.664438
0.633122
0.607929
0.587719
0.572183
0.559461
0.549019
0.540983
0.686485
0.679898
0.674141
0.671214
0.671593
0.674971
0.680964
0.688915
0.697894
0.708316
0.720357
0.734726
0.752584
0.77436
0.802466
0.841842
0.876561
0.911855
0.933931
0.933055
0.898949
0.855492
0.804767
0.751671
0.704783
0.666323
0.635578
0.610681
0.590601
0.575716
0.563779
0.553959
0.546251
0.685899
0.680393
0.676186
0.674917
0.676238
0.679971
0.685954
0.692694
0.701794
0.712873
0.727133
0.74643
0.773412
0.809047
0.850342
0.899666
0.951847
0.989025
0.993024
0.967522
0.924873
0.869219
0.808299
0.751926
0.705036
0.668309
0.638743
0.614883
0.595619
0.580118
0.569045
0.559844
0.55269
0.686989
0.682995
0.680566
0.68077
0.683007
0.687118
0.692725
0.699474
0.708505
0.720546
0.737768
0.762258
0.795697
0.840345
0.896007
0.962194
1.01286
1.0328
1.02555
0.991046
0.935564
0.869754
0.805345
0.750938
0.706328
0.671206
0.64311
0.620215
0.601596
0.586176
0.575191
0.566971
0.560033
0.689487
0.687019
0.686403
0.688059
0.691169
0.695841
0.700349
0.707598
0.716818
0.729926
0.749593
0.77824
0.818406
0.870772
0.932097
0.986512
1.02772
1.04708
1.03279
0.989958
0.928057
0.860692
0.79929
0.748651
0.707993
0.675287
0.648743
0.626933
0.608937
0.594265
0.582489
0.575011
0.568773
0.692999
0.692148
0.693125
0.696114
0.699958
0.704657
0.709118
0.716471
0.726016
0.740065
0.762111
0.792982
0.833834
0.883411
0.939478
0.992471
1.02555
1.03624
1.017
0.971185
0.90919
0.845698
0.790896
0.746198
0.709898
0.679897
0.655062
0.634528
0.617423
0.603305
0.591835
0.583957
0.578813
0.697102
0.697683
0.700211
0.704343
0.709035
0.713366
0.718185
0.725597
0.735095
0.749732
0.771998
0.802654
0.842464
0.889461
0.938933
0.983012
1.0069
1.0117
0.989089
0.941868
0.883961
0.828859
0.782542
0.743825
0.711406
0.684004
0.661261
0.642373
0.626533
0.613085
0.60212
0.593778
0.589635
0.701163
0.70339
0.707238
0.712346
0.717339
0.721901
0.727288
0.734285
0.743173
0.759161
0.780103
0.808556
0.844855
0.88697
0.929168
0.96327
0.981955
0.981079
0.954611
0.909639
0.858758
0.815695
0.775623
0.740901
0.7115
0.685862
0.66627
0.649811
0.635648
0.623279
0.612625
0.604883
0.600657
0.705087
0.709013
0.713784
0.719869
0.724937
0.729997
0.735704
0.742306
0.750585
0.765545
0.784658
0.810515
0.843213
0.878884
0.913926
0.941236
0.954327
0.948334
0.921872
0.882676
0.839683
0.798544
0.763245
0.731478
0.704735
0.684114
0.669333
0.656075
0.644374
0.633813
0.623279
0.615669
0.611143
0.708823
0.714416
0.719706
0.726289
0.731973
0.737345
0.742982
0.749158
0.756853
0.770312
0.787045
0.810129
0.838057
0.868258
0.898573
0.920935
0.929311
0.920942
0.896349
0.863262
0.827258
0.793863
0.759699
0.728235
0.701636
0.682204
0.668636
0.660322
0.651699
0.641763
0.632789
0.625293
0.621012
0.7125
0.719047
0.724801
0.731531
0.738005
0.743508
0.748934
0.754807
0.7618
0.773235
0.787765
0.807963
0.831222
0.857957
0.883922
0.903397
0.909086
0.899735
0.878386
0.852603
0.823631
0.791351
0.757924
0.727687
0.701801
0.683462
0.67111
0.663192
0.656768
0.649256
0.641679
0.634679
0.630802
0.716182
0.722847
0.729054
0.735958
0.743147
0.748469
0.753503
0.759045
0.765264
0.774862
0.787458
0.804718
0.824837
0.848676
0.871647
0.889271
0.894372
0.887005
0.870462
0.847861
0.822496
0.793595
0.764091
0.734644
0.709753
0.691358
0.678994
0.671268
0.664948
0.657997
0.651222
0.645288
0.641744
0.719537
0.725603
0.732402
0.739292
0.746612
0.752034
0.75694
0.762029
0.767554
0.77593
0.786658
0.801418
0.819592
0.84081
0.862147
0.878681
0.884014
0.878816
0.865373
0.846541
0.82556
0.802984
0.778755
0.753454
0.726712
0.70755
0.69381
0.684903
0.678014
0.671083
0.664852
0.659246
0.655332
0.721995
0.728028
0.735161
0.741771
0.748934
0.754566
0.759359
0.764085
0.769196
0.776611
0.786015
0.799074
0.815427
0.83477
0.855022
0.871011
0.876754
0.873487
0.862282
0.849206
0.833466
0.818036
0.801695
0.784022
0.764647
0.744591
0.726544
0.712581
0.702131
0.69309
0.684922
0.677735
0.671969
0.723981
0.730097
0.73671
0.743199
0.749894
0.756529
0.760965
0.765575
0.770737
0.777112
0.78597
0.797734
0.812815
0.830781
0.850218
0.866531
0.873571
0.872639
0.864627
0.852988
0.843879
0.836262
0.828307
0.819503
0.808138
0.790361
0.774385
0.758218
0.74089
0.72477
0.710725
0.700627
0.69138
0.725683
0.731627
0.737469
0.743947
0.750417
0.757391
0.76187
0.766708
0.772133
0.778334
0.786721
0.797628
0.811696
0.828849
0.847566
0.864402
0.873683
0.875542
0.872237
0.866143
0.859128
0.853969
0.852921
0.847245
0.838952
0.83442
0.823335
0.806407
0.785905
0.763631
0.745184
0.727553
0.712905
0.727302
0.732566
0.737974
0.744159
0.750531
0.757464
0.762425
0.767756
0.773712
0.780116
0.788022
0.798795
0.812706
0.829108
0.847865
0.865271
0.878077
0.883638
0.884597
0.883184
0.88131
0.879118
0.872324
0.868789
0.866505
0.861337
0.850135
0.830557
0.807579
0.786315
0.76632
0.749435
0.736309
0.728397
0.733017
0.738103
0.743719
0.75013
0.756861
0.763597
0.769072
0.775483
0.782156
0.790289
0.801057
0.815119
0.832061
0.851205
0.870537
0.886521
0.896224
0.901191
0.903761
0.904673
0.904913
0.903831
0.902406
0.900201
0.890228
0.870428
0.84887
0.826109
0.803142
0.781104
0.762927
0.751879
0.779649
0.770095
0.763573
0.757111
0.749928
0.742222
0.736034
0.729899
0.777615
0.771527
0.767261
0.763023
0.758106
0.752552
0.743938
0.734935
0.777297
0.77452
0.772779
0.771611
0.768405
0.762133
0.753088
0.741584
0.778959
0.779274
0.780642
0.781147
0.778816
0.773127
0.763248
0.749721
0.782932
0.786934
0.790586
0.792146
0.790292
0.784867
0.774238
0.759255
0.790592
0.797022
0.802343
0.804544
0.802809
0.796955
0.785659
0.769377
0.801686
0.80979
0.815891
0.81804
0.815932
0.809471
0.79738
0.780343
0.81615
0.824976
0.830936
0.83234
0.82959
0.822549
0.809304
0.79298
0.833545
0.842128
0.84719
0.847577
0.844346
0.837122
0.824557
0.810062
0.853401
0.861316
0.865416
0.86584
0.863102
0.856979
0.847175
0.835391
0.875837
0.883358
0.887532
0.888396
0.887201
0.883772
0.878507
0.872179
0.900859
0.908106
0.91223
0.914402
0.915455
0.915583
0.915217
0.914792
0.925977
0.932875
0.937634
0.941273