/*--------------------------------*- C++ -*----------------------------------*\
  =========                 |
  \\      /  F ield         | OpenFOAM: The Open Source CFD Toolbox
   \\    /   O peration     | Website:  https://openfoam.org
    \\  /    A nd           | Version:  10
     \\/     M anipulation  |
\*---------------------------------------------------------------------------*/
FoamFile
{
    format      ascii;
    class       volScalarField;
    location    "0.500082";
    object      rho;
}
// * * * * * * * * * * * * * * * * * * * * * * * * * * * * * * * * * * * * * //

dimensions      [1 -3 0 0 0 0 0];

internalField   nonuniform List<scalar> 
16320
(
0.784675
0.7923
0.807092
0.823691
0.820686
0.776198
0.754295
0.750284
0.749339
0.755721
0.765666
0.789782
0.830774
0.859365
0.879718
0.893231
0.906533
0.918295
0.926633
0.927499
0.91371
0.900007
0.894639
0.895286
0.899969
0.90204
0.909468
0.92654
0.913659
0.856832
0.783816
0.770065
0.79637
0.839706
0.849416
0.861083
0.85833
0.810103
0.747676
0.72412
0.720597
0.726567
0.738922
0.759998
0.802769
0.850072
0.879774
0.898737
0.908221
0.914818
0.918659
0.923385
0.922348
0.91521
0.90875
0.904715
0.903973
0.904479
0.908994
0.92077
0.918518
0.893681
0.818556
0.771422
0.764808
0.797895
0.849975
0.863817
0.877338
0.87457
0.803562
0.732309
0.704924
0.70037
0.707251
0.7193
0.743599
0.795878
0.848501
0.881881
0.903663
0.916335
0.923028
0.926081
0.928966
0.926692
0.921627
0.919842
0.918135
0.919217
0.92073
0.922289
0.917073
0.900164
0.856383
0.781424
0.760508
0.762052
0.812483
0.825834
0.85176
0.871563
0.874398
0.826991
0.739531
0.700659
0.692539
0.696098
0.705406
0.719831
0.766838
0.828523
0.86683
0.890679
0.907404
0.918701
0.927927
0.935728
0.938412
0.937163
0.936365
0.9336
0.929107
0.923057
0.913344
0.898436
0.867571
0.797689
0.763238
0.755961
0.771798
0.839811
0.720162
0.756714
0.80298
0.835941
0.836309
0.786447
0.724034
0.697287
0.692517
0.698212
0.709055
0.730213
0.775283
0.825101
0.862952
0.886453
0.900856
0.911537
0.921269
0.927576
0.929596
0.928848
0.925102
0.917115
0.907011
0.891512
0.860892
0.802959
0.767135
0.756517
0.760029
0.802204
0.869982
0.641414
0.648946
0.670875
0.713131
0.766921
0.790493
0.778892
0.739369
0.710965
0.70094
0.704419
0.716826
0.738412
0.768408
0.801147
0.836064
0.865227
0.884835
0.898822
0.907191
0.910383
0.909549
0.90453
0.892826
0.873362
0.839365
0.795074
0.768386
0.758162
0.75868
0.787241
0.851382
0.90778
0.627531
0.628277
0.633323
0.643816
0.664027
0.709816
0.74577
0.752619
0.746297
0.72911
0.716057
0.714495
0.72626
0.741214
0.760092
0.781004
0.803363
0.825196
0.8431
0.856327
0.860773
0.859334
0.850863
0.832448
0.80823
0.783935
0.768201
0.760518
0.762693
0.789003
0.839876
0.892002
0.936786
0.626255
0.625621
0.628012
0.632349
0.638951
0.648847
0.674634
0.722612
0.734673
0.738749
0.738549
0.731787
0.725858
0.73454
0.743583
0.755368
0.768596
0.78133
0.792094
0.800385
0.803392
0.802564
0.797188
0.787041
0.777471
0.769536
0.765387
0.772382
0.802271
0.832222
0.866351
0.907854
0.950174
0.627376
0.627243
0.629162
0.630497
0.63285
0.633038
0.640554
0.656183
0.689865
0.719946
0.729655
0.7354
0.738557
0.739845
0.742588
0.74886
0.755978
0.763779
0.770369
0.775655
0.778559
0.779719
0.778384
0.775442
0.773439
0.776731
0.786331
0.803588
0.823795
0.844443
0.871921
0.913954
0.958334
0.637687
0.643358
0.65038
0.650738
0.650434
0.64563
0.637946
0.638208
0.647295
0.665011
0.694912
0.718486
0.729601
0.735425
0.741157
0.74634
0.751107
0.755847
0.760132
0.763827
0.766752
0.769093
0.770596
0.77224
0.77393
0.778109
0.786932
0.799092
0.813866
0.826267
0.84516
0.901813
0.964213
0.668378
0.677314
0.688889
0.689173
0.68767
0.683164
0.667081
0.645348
0.639102
0.642778
0.653022
0.670271
0.695175
0.714399
0.725474
0.732938
0.737484
0.740706
0.743281
0.745695
0.74809
0.750781
0.753082
0.754452
0.753772
0.751245
0.745765
0.743625
0.748886
0.771667
0.848859
0.933431
0.99027
0.717397
0.726004
0.730554
0.728323
0.725916
0.720047
0.706977
0.682987
0.649771
0.636882
0.637878
0.642817
0.652911
0.665587
0.681718
0.693993
0.702193
0.706239
0.707672
0.70806
0.70838
0.707324
0.705057
0.700551
0.694246
0.689338
0.690476
0.699648
0.724766
0.796742
0.907814
0.978152
1.00649
0.756629
0.753994
0.748543
0.743636
0.740407
0.736115
0.72782
0.714063
0.692555
0.655442
0.633019
0.629162
0.632359
0.637812
0.643552
0.649614
0.652888
0.654703
0.654374
0.654218
0.654703
0.654646
0.656995
0.65902
0.659815
0.664864
0.676401
0.699356
0.759761
0.892426
0.971819
0.992613
0.952201
0.762279
0.753768
0.743523
0.736028
0.730212
0.723317
0.717397
0.708701
0.702536
0.682572
0.649886
0.624404
0.617421
0.618124
0.620626
0.622137
0.622649
0.621911
0.62042
0.620449
0.621153
0.624392
0.631859
0.637371
0.64433
0.657294
0.680733
0.745097
0.890014
0.962799
0.964228
0.901312
0.866835
0.763144
0.754742
0.745008
0.733706
0.722642
0.707627
0.694156
0.685926
0.683443
0.676813
0.65876
0.63352
0.611461
0.601713
0.599414
0.598819
0.597731
0.595879
0.594657
0.595054
0.596678
0.60301
0.611501
0.619568
0.634458
0.659646
0.735217
0.885605
0.946743
0.927895
0.860806
0.847631
0.850061
0.770003
0.762737
0.748729
0.72845
0.712431
0.693147
0.669346
0.65392
0.648054
0.648601
0.644307
0.629841
0.611511
0.595798
0.585588
0.579161
0.574666
0.571217
0.569989
0.570276
0.573445
0.58196
0.590985
0.606949
0.635036
0.723378
0.868395
0.919478
0.887038
0.830061
0.827987
0.833998
0.825016
0.778823
0.768922
0.748525
0.720118
0.692037
0.660206
0.628056
0.610655
0.605852
0.609553
0.612236
0.607701
0.594519
0.579705
0.566701
0.556696
0.550174
0.545705
0.544354
0.543886
0.550935
0.562469
0.578636
0.610413
0.710079
0.833247
0.877675
0.845184
0.799519
0.804856
0.8127
0.791642
0.750415
0.789967
0.773916
0.744099
0.705069
0.660556
0.610049
0.575942
0.558713
0.55861
0.567604
0.574165
0.571621
0.560518
0.547916
0.536759
0.527762
0.521926
0.516163
0.516703
0.524687
0.536309
0.553127
0.589871
0.696298
0.789924
0.828598
0.797929
0.76829
0.780728
0.787087
0.753416
0.702813
0.679248
0.787654
0.763057
0.72956
0.681785
0.619488
0.556357
0.510619
0.497718
0.503824
0.520718
0.531955
0.531352
0.522785
0.513085
0.503405
0.493248
0.490045
0.492864
0.50046
0.513254
0.53313
0.576471
0.681613
0.748986
0.779134
0.754891
0.733366
0.748886
0.750074
0.708892
0.654794
0.62719
0.627241
0.777435
0.745298
0.704481
0.645633
0.572069
0.500038
0.462688
0.45444
0.46045
0.471814
0.482736
0.4838
0.477093
0.468131
0.463577
0.465302
0.470836
0.479461
0.494757
0.518349
0.573192
0.663262
0.711706
0.734318
0.713207
0.696641
0.713541
0.712526
0.668458
0.623566
0.596825
0.586836
0.592297
0.76072
0.72205
0.675205
0.613922
0.535847
0.459757
0.425537
0.416105
0.417756
0.423294
0.428358
0.430785
0.433005
0.436283
0.44269
0.450114
0.461539
0.479497
0.511627
0.578727
0.644499
0.680631
0.697043
0.679143
0.665658
0.6814
0.680355
0.64198
0.610468
0.602532
0.58125
0.580675
0.589914
0.779019
0.722172
0.669561
0.599945
0.508109
0.438962
0.40516
0.39457
0.39297
0.396278
0.400383
0.406633
0.414435
0.422766
0.433051
0.448011
0.471036
0.516682
0.585594
0.626474
0.654633
0.6647
0.647874
0.638046
0.652054
0.652092
0.623203
0.603779
0.606191
0.596973
0.599613
0.614361
0.639823
0.829137
0.76681
0.693924
0.600522
0.493495
0.425466
0.39431
0.383151
0.381077
0.384376
0.389456
0.398447
0.408785
0.422901
0.443306
0.47884
0.539196
0.581352
0.61058
0.631666
0.635793
0.6202
0.615338
0.628318
0.629068
0.606975
0.595399
0.604934
0.61482
0.635211
0.66962
0.714148
0.751674
0.903552
0.848069
0.742198
0.618323
0.492692
0.422051
0.392504
0.381808
0.380059
0.385102
0.39393
0.408095
0.430012
0.464578
0.509966
0.547629
0.57414
0.596305
0.608031
0.610972
0.593238
0.597965
0.609803
0.611771
0.59638
0.587783
0.600309
0.62279
0.656289
0.708996
0.752248
0.774542
0.787828
0.969952
0.972203
0.882295
0.693632
0.531385
0.450207
0.419555
0.410466
0.411501
0.423207
0.44395
0.469723
0.499495
0.526691
0.546514
0.566752
0.578213
0.588314
0.581663
0.574105
0.584724
0.593342
0.598324
0.588585
0.58283
0.595892
0.618711
0.655093
0.711129
0.746624
0.767581
0.776964
0.780559
0.975212
1.01453
0.984952
0.82048
0.630081
0.528034
0.488514
0.476799
0.475745
0.484933
0.498283
0.513524
0.527693
0.541569
0.553481
0.563752
0.563408
0.556098
0.558531
0.570445
0.581651
0.585668
0.585759
0.58131
0.588978
0.608338
0.638243
0.691084
0.727666
0.749567
0.759379
0.758267
0.757093
0.904752
0.973568
1.00318
0.8953
0.709549
0.581192
0.527921
0.508119
0.501786
0.505372
0.512594
0.52255
0.530966
0.539242
0.541394
0.536973
0.53635
0.546458
0.555714
0.569304
0.576947
0.581868
0.583373
0.585133
0.598209
0.62078
0.663619
0.705374
0.728528
0.739609
0.737113
0.737039
0.741735
0.846659
0.879954
0.90584
0.889561
0.761359
0.627065
0.55081
0.520642
0.510253
0.506434
0.509691
0.512755
0.513099
0.514277
0.515311
0.522511
0.531821
0.544571
0.558455
0.569103
0.578847
0.584149
0.585032
0.588342
0.606293
0.637199
0.682563
0.708224
0.723833
0.726169
0.727039
0.733134
0.739853
0.829877
0.848704
0.856274
0.824135
0.755991
0.642261
0.557649
0.511486
0.494491
0.485755
0.485164
0.486479
0.492846
0.49977
0.509145
0.521501
0.533965
0.548657
0.56175
0.573567
0.5829
0.58609
0.582084
0.593944
0.616304
0.657886
0.690902
0.710763
0.720872
0.727675
0.73717
0.74261
0.741694
0.824921
0.837664
0.840044
0.81861
0.756904
0.670073
0.5734
0.516714
0.486785
0.477411
0.47602
0.480199
0.489017
0.499649
0.511851
0.524904
0.538022
0.552873
0.5663
0.578174
0.584413
0.579876
0.581703
0.599887
0.630837
0.674732
0.699761
0.718685
0.733936
0.745244
0.748324
0.74091
0.727481
0.827018
0.845313
0.847787
0.826491
0.784058
0.711936
0.630491
0.552661
0.5099
0.489243
0.483828
0.485585
0.492825
0.503436
0.515463
0.529047
0.54328
0.558478
0.570343
0.578686
0.578062
0.572596
0.584568
0.606642
0.646721
0.690791
0.717238
0.736732
0.750548
0.754318
0.74298
0.72362
0.706532
0.82005
0.847974
0.863087
0.850349
0.80928
0.758784
0.687355
0.611182
0.546789
0.512642
0.498306
0.495187
0.499366
0.509115
0.521477
0.534942
0.548108
0.560006
0.569371
0.572098
0.567337
0.570583
0.588861
0.618411
0.668378
0.709955
0.733826
0.75113
0.75778
0.747068
0.724806
0.703184
0.687868
0.808512
0.841001
0.872898
0.876882
0.852228
0.804264
0.74815
0.674616
0.601485
0.546566
0.519388
0.510056
0.509521
0.51545
0.525359
0.536512
0.547707
0.557513
0.562069
0.561675
0.560124
0.573515
0.596199
0.63667
0.690919
0.725516
0.746126
0.757825
0.752223
0.729696
0.703959
0.688143
0.674584
0.793757
0.825572
0.861927
0.887727
0.883699
0.862093
0.820707
0.75554
0.670999
0.594731
0.548285
0.526877
0.520189
0.520642
0.527548
0.536593
0.545497
0.552606
0.556445
0.556066
0.560781
0.579654
0.608874
0.659415
0.709442
0.736275
0.753303
0.756103
0.7378
0.708874
0.691813
0.679271
0.669935
0.777456
0.802448
0.839428
0.871826
0.87873
0.872554
0.861655
0.833697
0.774385
0.685789
0.607413
0.564625
0.544314
0.536405
0.537647
0.543544
0.550708
0.556648
0.557841
0.554156
0.565477
0.588053
0.625804
0.681421
0.723058
0.7446
0.757085
0.747934
0.720406
0.697699
0.683963
0.678777
0.674056
0.766287
0.775915
0.808715
0.846926
0.857249
0.856923
0.854918
0.85271
0.828752
0.7702
0.689374
0.630147
0.602151
0.587127
0.581189
0.581287
0.581102
0.574406
0.557653
0.553557
0.571653
0.599271
0.645979
0.69962
0.732103
0.750428
0.755555
0.736911
0.706697
0.689153
0.684971
0.6799
0.681078
0.764778
0.750416
0.774481
0.810455
0.818377
0.811421
0.806377
0.804714
0.807683
0.786743
0.726981
0.659779
0.622613
0.609643
0.60181
0.59683
0.586388
0.567474
0.548507
0.556514
0.578904
0.613536
0.666556
0.712695
0.738982
0.753797
0.750503
0.723273
0.695527
0.687659
0.682487
0.679194
0.680098
0.77419
0.738672
0.74303
0.776903
0.790852
0.782865
0.756405
0.742731
0.742931
0.753601
0.732072
0.672189
0.626063
0.605156
0.594583
0.581258
0.563771
0.540328
0.54069
0.560204
0.587964
0.631825
0.683653
0.720605
0.742558
0.752303
0.740575
0.709276
0.689251
0.68323
0.679257
0.676014
0.675151
0.81462
0.734164
0.717357
0.743549
0.763302
0.758183
0.727104
0.689752
0.674507
0.687976
0.694751
0.655342
0.603435
0.575129
0.559959
0.531273
0.513166
0.520514
0.539006
0.564469
0.602622
0.649469
0.694766
0.726384
0.744884
0.748585
0.731126
0.700303
0.684506
0.680371
0.677106
0.674242
0.671693
0.859814
0.748006
0.706371
0.713653
0.735468
0.734843
0.704881
0.662491
0.644771
0.64588
0.656945
0.622316
0.560588
0.524198
0.505767
0.49105
0.499027
0.516135
0.540207
0.573784
0.614052
0.66126
0.702069
0.728584
0.744555
0.742596
0.722401
0.694694
0.681191
0.677085
0.675473
0.673001
0.671157
0.856757
0.790349
0.705458
0.693214
0.710853
0.717469
0.686876
0.644977
0.630233
0.629695
0.63713
0.603252
0.540964
0.500269
0.48629
0.483991
0.495165
0.516455
0.544328
0.580181
0.624919
0.671162
0.705836
0.729209
0.742235
0.736481
0.717554
0.692766
0.677302
0.674724
0.673719
0.672824
0.672359
0.840864
0.827364
0.722766
0.6841
0.692057
0.70158
0.677326
0.634656
0.621126
0.624299
0.636081
0.606974
0.54507
0.500404
0.482548
0.484629
0.495
0.517735
0.549292
0.591505
0.640217
0.679942
0.708396
0.731174
0.740269
0.735139
0.720166
0.697885
0.678087
0.672099
0.671992
0.671457
0.671998
0.827854
0.835304
0.765841
0.689894
0.683103
0.690973
0.67309
0.631484
0.617873
0.622826
0.640233
0.619692
0.561358
0.506084
0.486212
0.484841
0.497371
0.522343
0.56218
0.609653
0.653447
0.687435
0.714744
0.735842
0.743727
0.741839
0.731173
0.712361
0.689209
0.675451
0.673819
0.67424
0.675923
0.802088
0.833534
0.81285
0.709876
0.682146
0.685435
0.674793
0.63455
0.617412
0.623433
0.646229
0.633435
0.580083
0.516066
0.489767
0.487168
0.5006
0.529742
0.569985
0.618217
0.658991
0.692358
0.722588
0.748559
0.763015
0.767391
0.763233
0.750176
0.729324
0.711258
0.71181
0.718301
0.735093
0.778006
0.828897
0.83165
0.745825
0.688451
0.684145
0.679883
0.643532
0.620655
0.625368
0.649848
0.644444
0.598945
0.530468
0.495357
0.491378
0.503273
0.531787
0.566768
0.61007
0.650469
0.688247
0.723844
0.75732
0.789099
0.812326
0.828175
0.839277
0.846688
0.855147
0.8681
0.876184
0.879362
0.775138
0.810537
0.838655
0.79655
0.705289
0.68707
0.685602
0.657744
0.627875
0.62961
0.650591
0.65346
0.616178
0.549095
0.503201
0.492156
0.502759
0.520752
0.551267
0.581159
0.613577
0.648452
0.687752
0.72864
0.765914
0.799813
0.831703
0.857436
0.877296
0.891013
0.896406
0.890913
0.873755
0.777573
0.781431
0.843214
0.837986
0.735442
0.695073
0.691904
0.675162
0.639917
0.637053
0.650339
0.658778
0.631488
0.569851
0.514276
0.494265
0.494636
0.503782
0.513233
0.534097
0.552419
0.579104
0.605404
0.635268
0.664044
0.693077
0.718593
0.738621
0.751607
0.758607
0.761116
0.759587
0.756786
0.783583
0.770213
0.836489
0.859117
0.780729
0.709602
0.699151
0.692168
0.657351
0.645196
0.652528
0.663734
0.642762
0.591723
0.529333
0.495281
0.488077
0.489416
0.493887
0.508564
0.523676
0.541068
0.557687
0.575853
0.592852
0.61113
0.629327
0.647021
0.663728
0.680727
0.696753
0.711249
0.723891
0.792234
0.773055
0.815558
0.871291
0.835698
0.733525
0.708251
0.707885
0.678253
0.655119
0.656537
0.665839
0.650325
0.611737
0.548006
0.503838
0.484529
0.479293
0.480727
0.487542
0.49875
0.509341
0.522907
0.535611
0.548811
0.563085
0.578924
0.595247
0.615463
0.63334
0.65333
0.676206
0.697431
0.806008
0.779302
0.788301
0.879225
0.878046
0.769946
0.721609
0.719781
0.705176
0.672235
0.663558
0.667976
0.656205
0.620211
0.562053
0.503911
0.472181
0.45688
0.452041
0.446883
0.448585
0.450551
0.454472
0.460575
0.467996
0.480031
0.493397
0.511022
0.528061
0.550513
0.578752
0.611292
0.642702
0.821411
0.787232
0.772559
0.872306
0.901379
0.822378
0.737771
0.728916
0.729523
0.695276
0.674823
0.672867
0.665142
0.630075
0.575577
0.510706
0.464617
0.441897
0.425059
0.415791
0.409682
0.408426
0.407566
0.411541
0.41624
0.423986
0.434383
0.447119
0.46054
0.476591
0.498711
0.529575
0.569448
0.832513
0.797396
0.774173
0.844286
0.915355
0.879572
0.763475
0.737477
0.746722
0.724248
0.693881
0.680355
0.674697
0.645666
0.595227
0.531039
0.474863
0.443768
0.42155
0.40893
0.399843
0.396233
0.394176
0.396857
0.400636
0.406406
0.413347
0.421364
0.431242
0.442082
0.454604
0.472001
0.499123
0.842575
0.813119
0.78255
0.803581
0.921104
0.916586
0.806998
0.747999
0.757568
0.752207
0.718678
0.694218
0.68425
0.662572
0.61789
0.558611
0.497935
0.458478
0.432402
0.416846
0.405954
0.399832
0.395835
0.395698
0.396948
0.400055
0.404789
0.410566
0.415758
0.422647
0.431691
0.442049
0.457584
0.851141
0.827461
0.792086
0.779999
0.905241
0.93573
0.860766
0.76677
0.765345
0.777564
0.749667
0.716862
0.696783
0.679277
0.641241
0.58749
0.527694
0.47962
0.45022
0.430049
0.417421
0.408741
0.402649
0.400244
0.39924
0.399875
0.402468
0.40645
0.409843
0.412574
0.418734
0.426549
0.436411
0.855999
0.838363
0.80646
0.777689
0.861582
0.946366
0.913898
0.796663
0.769839
0.793795
0.783934
0.748724
0.716343
0.697772
0.666302
0.617048
0.560188
0.506187
0.471749
0.448122
0.433298
0.42156
0.412315
0.40715
0.405383
0.405683
0.406352
0.40785
0.409915
0.410823
0.411695
0.41715
0.424393
0.860443
0.84781
0.822198
0.78556
0.810484
0.940765
0.942663
0.844593
0.779007
0.803205
0.814827
0.787578
0.745974
0.719869
0.693499
0.649084
0.594177
0.538619
0.496943
0.468641
0.447897
0.433538
0.421486
0.413988
0.411569
0.412323
0.413974
0.415735
0.416558
0.41717
0.415209
0.413758
0.417177
0.865139
0.852271
0.834112
0.800172
0.785951
0.902318
0.955263
0.901343
0.797351
0.802639
0.835337
0.828495
0.791413
0.749609
0.724285
0.688493
0.635157
0.576124
0.526152
0.489964
0.464624
0.445675
0.431626
0.421637
0.417016
0.416817
0.418869
0.421499
0.4236
0.425983
0.427428
0.425911
0.419394
0.872141
0.857105
0.844275
0.819837
0.784927
0.841996
0.954498
0.942119
0.838551
0.803291
0.843657
0.862955
0.842187
0.798517
0.757597
0.721601
0.672722
0.611825
0.554979
0.513955
0.483954
0.46249
0.446521
0.43437
0.426616
0.423686
0.424489
0.42678
0.429736
0.432801
0.436557
0.439309
0.436617
0.880818
0.865524
0.848465
0.832315
0.79462
0.800008
0.916918
0.95693
0.899851
0.814209
0.83686
0.883209
0.886177
0.857885
0.813263
0.763906
0.711908
0.650001
0.588752
0.542164
0.50983
0.487816
0.472558
0.461731
0.454297
0.4498
0.446305
0.445006
0.444574
0.445252
0.4473
0.450252
0.450275
0.889163
0.875221
0.855951
0.841264
0.81639
0.791586
0.855921
0.957152
0.946378
0.850377
0.833801
0.882022
0.910655
0.906764
0.880751
0.838096
0.780523
0.713079
0.646855
0.59668
0.566508
0.551294
0.547015
0.550534
0.55487
0.557486
0.557515
0.549768
0.532392
0.501347
0.480202
0.472965
0.468308
0.896059
0.88511
0.865175
0.845124
0.82991
0.796229
0.805641
0.914176
0.956243
0.911848
0.842406
0.867111
0.919501
0.929511
0.922303
0.902838
0.862423
0.804904
0.739852
0.686603
0.653955
0.638566
0.633546
0.631428
0.629961
0.629019
0.628443
0.627592
0.625952
0.625547
0.606266
0.556815
0.516235
0.901448
0.894703
0.874995
0.851687
0.834228
0.814842
0.798166
0.847387
0.951563
0.953752
0.879129
0.86257
0.905356
0.934422
0.939381
0.929802
0.902161
0.857428
0.795443
0.734409
0.689716
0.661295
0.643653
0.62749
0.612115
0.603487
0.599347
0.599483
0.610298
0.630367
0.646456
0.641901
0.618004
0.901762
0.900496
0.887163
0.858313
0.835596
0.827048
0.800458
0.807062
0.895125
0.954091
0.934938
0.875605
0.887967
0.92199
0.932097
0.93261
0.912748
0.87226
0.809783
0.735187
0.671079
0.62048
0.588357
0.575649
0.573602
0.575127
0.574673
0.573722
0.575194
0.579511
0.614391
0.649176
0.646603
0.898132
0.90189
0.893365
0.864738
0.839863
0.824127
0.814602
0.804459
0.827519
0.928062
0.950149
0.910078
0.885233
0.902038
0.917435
0.913204
0.896035
0.86135
0.806374
0.737794
0.675573
0.633701
0.615944
0.632076
0.656103
0.660761
0.639614
0.609479
0.583555
0.571953
0.571499
0.616307
0.648311
0.890804
0.899236
0.894261
0.869589
0.842602
0.822092
0.819686
0.807745
0.814147
0.865089
0.945326
0.949934
0.903739
0.893026
0.904039
0.906763
0.897555
0.875487
0.836833
0.789332
0.75572
0.769126
0.823701
0.860417
0.872427
0.87109
0.834711
0.757244
0.658181
0.591294
0.566477
0.570405
0.62828
0.879982
0.891506
0.889971
0.869032
0.84192
0.822351
0.811531
0.813619
0.809557
0.825111
0.901818
0.947776
0.93799
0.897864
0.892599
0.897635
0.901504
0.909515
0.921827
0.93437
0.949697
0.959038
0.972678
0.972387
0.96891
0.965592
0.954267
0.914171
0.828081
0.67856
0.582091
0.563823
0.590781
0.866302
0.878303
0.879767
0.862247
0.836077
0.818804
0.806823
0.807089
0.806743
0.814538
0.838029
0.91793
0.937877
0.913678
0.890472
0.882874
0.891193
0.912124
0.943095
0.96918
0.978322
0.976791
0.970484
0.973772
0.994586
0.997623
0.991332
0.968821
0.91383
0.811821
0.641193
0.569192
0.564542
0.849034
0.86135
0.863472
0.846101
0.824195
0.809331
0.801341
0.795407
0.801457
0.807208
0.819144
0.855292
0.922921
0.924312
0.89498
0.874886
0.868374
0.890522
0.923335
0.945457
0.931489
0.876532
0.83577
0.870955
0.95763
1.00307
1.00959
0.989987
0.945259
0.866718
0.721868
0.592877
0.564163
0.828992
0.840956
0.842154
0.820693
0.804313
0.795476
0.7903
0.787126
0.788755
0.798511
0.805222
0.819375
0.876521
0.917332
0.904051
0.869267
0.848014
0.843817
0.872547
0.86784
0.816025
0.763113
0.747281
0.800952
0.909329
0.988642
1.01291
0.995842
0.957897
0.886791
0.761082
0.619996
0.567307
0.807783
0.817008
0.817234
0.792814
0.776661
0.776018
0.775763
0.776966
0.775832
0.78459
0.790854
0.798253
0.816233
0.878918
0.901469
0.875796
0.836102
0.816107
0.807159
0.792564
0.758387
0.729591
0.723241
0.775661
0.899383
0.993288
1.01121
0.984377
0.937937
0.874821
0.771579
0.632236
0.571425
0.785595
0.790964
0.787971
0.763352
0.751161
0.754615
0.759701
0.763853
0.763547
0.768761
0.776565
0.779112
0.783026
0.812583
0.872735
0.868332
0.839252
0.802771
0.783787
0.763542
0.741456
0.725951
0.727053
0.783962
0.924241
1.01017
1.00654
0.966555
0.891743
0.812546
0.723475
0.629015
0.573792
0.762644
0.764254
0.756215
0.73276
0.729793
0.734988
0.742605
0.748392
0.751931
0.753162
0.759882
0.761264
0.759944
0.765955
0.820461
0.85827
0.840875
0.810844
0.778343
0.759681
0.743207
0.73466
0.745664
0.838112
0.978151
1.02456
0.994808
0.931877
0.821556
0.735196
0.640489
0.592539
0.568099
0.739512
0.73712
0.721933
0.709135
0.709396
0.716
0.72553
0.733967
0.738934
0.739069
0.742269
0.744006
0.73948
0.736195
0.753351
0.819693
0.845446
0.82559
0.793696
0.768688
0.756051
0.754456
0.791416
0.918384
1.02439
1.02479
0.967594
0.860701
0.713753
0.625609
0.591358
0.576797
0.566479
0.716183
0.710548
0.694595
0.68993
0.692305
0.701796
0.711778
0.72034
0.725003
0.725656
0.726083
0.727255
0.720336
0.713217
0.713556
0.767322
0.828825
0.843533
0.831094
0.805122
0.797689
0.808867
0.8734
1.00806
1.05031
1.00329
0.903745
0.721947
0.613897
0.579738
0.568956
0.566855
0.564574
0.694009
0.685938
0.677544
0.674416
0.681474
0.690219
0.699739
0.70724
0.711077
0.713256
0.712453
0.712509
0.704765
0.69073
0.686576
0.713236
0.805556
0.854908
0.863526
0.86307
0.869645
0.893567
0.985877
1.06584
1.0404
0.942377
0.737728
0.613663
0.574421
0.560424
0.55379
0.562794
0.572719
0.674455
0.669431
0.664931
0.666111
0.673521
0.68038
0.686158
0.69038
0.694383
0.697179
0.697428
0.696095
0.686554
0.667893
0.66429
0.678696
0.770421
0.855289
0.897117
0.918488
0.940377
0.994609
1.07825
1.07647
0.985463
0.761521
0.624057
0.579836
0.559071
0.546567
0.54168
0.552754
0.579607
0.65906
0.659334
0.656547
0.660332
0.667642
0.668194
0.669296
0.6723
0.676544
0.680321
0.679855
0.677199
0.664808
0.641192
0.63953
0.65486
0.757325
0.865015
0.933386
0.974615
1.0294
1.09749
1.1093
1.03386
0.801074
0.640599
0.595992
0.574793
0.554372
0.536448
0.527251
0.535686
0.576871
0.650101
0.652975
0.652211
0.659314
0.658431
0.655706
0.653756
0.655779
0.659307
0.661242
0.657862
0.646291
0.62495
0.60622
0.610805
0.642225
0.770868
0.894794
0.989195
1.06674
1.12901
1.14277
1.08008
0.843401
0.660271
0.616886
0.596504
0.579037
0.555803
0.529336
0.519633
0.529449
0.577165
0.644157
0.648834
0.653305
0.655855
0.652323
0.642153
0.635812
0.636083
0.636023
0.628785
0.607479
0.583291
0.573824
0.57882
0.597035
0.654806
0.816633
0.973614
1.0977
1.16325
1.18018
1.12574
0.87528
0.68375
0.649776
0.643372
0.624898
0.597329
0.559119
0.52144
0.511878
0.526727
0.578823
0.641238
0.650469
0.65334
0.653862
0.643037
0.621101
0.61642
0.610956
0.595782
0.563332
0.54716
0.547532
0.559847
0.578897
0.613181
0.717493
0.950169
1.11105
1.19672
1.22338
1.16813
0.912135
0.724474
0.70126
0.705244
0.687021
0.657609
0.620522
0.568789
0.521159
0.508763
0.521519
0.57708
0.641678
0.652404
0.653106
0.649866
0.62578
0.599912
0.592915
0.571937
0.539271
0.530815
0.535426
0.550773
0.5735
0.611712
0.696685
0.922098
1.11898
1.223
1.26753
1.19337
0.941769
0.779653
0.758433
0.768022
0.750677
0.725774
0.70007
0.664376
0.599856
0.52951
0.504801
0.510571
0.568428
0.644019
0.653519
0.653206
0.642514
0.607539
0.581551
0.564312
0.530126
0.522973
0.530197
0.548629
0.583329
0.650504
0.757122
0.920406
1.09851
1.22923
1.2847
1.18447
0.954953
0.832283
0.807637
0.808686
0.787981
0.76147
0.736628
0.715628
0.691268
0.650748
0.557985
0.506032
0.504477
0.552647
0.646647
0.655009
0.652773
0.634425
0.591463
0.562381
0.53519
0.519053
0.524471
0.545813
0.598415
0.681613
0.783274
0.902823
1.03959
1.16675
1.22328
1.11164
0.949866
0.868147
0.839887
0.830023
0.812506
0.782801
0.753141
0.734686
0.720105
0.702223
0.677839
0.616843
0.520767
0.506705
0.524741
0.649133
0.656371
0.652834
0.627346
0.57764
0.545243
0.52098
0.518387
0.531567
0.572669
0.653951
0.744745
0.834456
0.934675
1.03177
1.06455
1.00016
0.924322
0.874291
0.843464
0.833136
0.819695
0.786578
0.753849
0.729403
0.712222
0.704387
0.704096
0.690082
0.66093
0.563815
0.509571
0.51421
0.650212
0.658303
0.65384
0.621657
0.566656
0.534142
0.517486
0.519534
0.54164
0.598658
0.687305
0.755294
0.819194
0.87497
0.903477
0.892559
0.861607
0.838922
0.821776
0.832035
0.827368
0.787305
0.741632
0.710075
0.691084
0.682745
0.679205
0.682391
0.692031
0.67828
0.628017
0.52795
0.517845
0.650617
0.66092
0.656453
0.620149
0.558318
0.52787
0.518265
0.523148
0.554385
0.625251
0.68836
0.730377
0.767185
0.792945
0.795405
0.784002
0.779832
0.786857
0.830332
0.827509
0.778764
0.707006
0.650254
0.623362
0.61537
0.621462
0.634578
0.64541
0.669237
0.682698
0.661704
0.56995
0.524852
0.649184
0.663529
0.660875
0.62375
0.553748
0.526534
0.521016
0.527699
0.566716
0.635248
0.6744
0.701488
0.718718
0.71966
0.713161
0.723152
0.746637
0.812669
0.817715
0.767751
0.670687
0.566261
0.504652
0.483514
0.486091
0.516375
0.55533
0.587377
0.620838
0.670363
0.671385
0.628668
0.541238
0.644992
0.665471
0.665927
0.629854
0.555349
0.528446
0.524602
0.532824
0.577133
0.630768
0.655176
0.669903
0.666723
0.659523
0.673473
0.698805
0.772474
0.796929
0.761707
0.651129
0.513168
0.4347
0.405748
0.388956
0.379521
0.388502
0.43991
0.495893
0.5523
0.632286
0.672356
0.653758
0.567603
0.638256
0.666614
0.671113
0.639592
0.560444
0.53155
0.527593
0.53542
0.578883
0.619183
0.635341
0.636305
0.624459
0.631397
0.651693
0.715811
0.768792
0.759143
0.665915
0.51244
0.435999
0.407766
0.392618
0.376202
0.359643
0.345309
0.347442
0.378608
0.457741
0.568138
0.661808
0.661431
0.60439
0.628062
0.665559
0.675523
0.653635
0.571714
0.533935
0.529257
0.535615
0.5744
0.604938
0.616023
0.60774
0.601601
0.615736
0.652177
0.731083
0.752518
0.708213
0.57911
0.466765
0.42754
0.412268
0.409523
0.390372
0.361659
0.337588
0.32825
0.336888
0.37273
0.488715
0.64807
0.669194
0.632216
0.618545
0.659547
0.677608
0.667378
0.590538
0.537227
0.529823
0.533953
0.564772
0.591989
0.599799
0.590483
0.592553
0.609919
0.667132
0.733533
0.740621
0.684978
0.553283
0.465043
0.44407
0.445385
0.45334
0.437607
0.388676
0.344716
0.329925
0.332249
0.375322
0.511725
0.645036
0.676574
0.64124
0.61472
0.646168
0.677265
0.678908
0.617061
0.542085
0.530306
0.53152
0.552734
0.581181
0.588512
0.582771
0.588586
0.608946
0.6835
0.735539
0.738743
0.680888
0.564262
0.498735
0.478355
0.470905
0.480005
0.49059
0.463405
0.404571
0.377385
0.372299
0.442855
0.585188
0.663146
0.678306
0.647812
0.613946
0.632274
0.674388
0.685412
0.649612
0.552682
0.531531
0.529561
0.540858
0.572504
0.582212
0.580706
0.5863
0.614092
0.691569
0.744447
0.7568
0.733762
0.667051
0.558718
0.509429
0.492024
0.496011
0.530463
0.544544
0.540788
0.529045
0.533377
0.618832
0.660836
0.676642
0.675945
0.648918
0.615016
0.624392
0.664909
0.686831
0.675671
0.581474
0.533405
0.528543
0.532255
0.560713
0.57967
0.580489
0.587461
0.619769
0.688648
0.759295
0.796839
0.808713
0.787885
0.703033
0.56745
0.521579
0.510765
0.531668
0.580134
0.609008
0.635245
0.660191
0.677599
0.679345
0.673257
0.664357
0.639888
0.619993
0.623104
0.6512
0.685132
0.689284
0.627807
0.537197
0.52861
0.528639
0.546509
0.575812
0.583599
0.591127
0.622722
0.680494
0.751669
0.808455
0.835596
0.843116
0.824215
0.74546
0.59952
0.540501
0.524907
0.526619
0.547453
0.56735
0.599737
0.623078
0.631641
0.6319
0.625764
0.617448
0.630607
0.626632
0.640656
0.679793
0.694055
0.670478
0.549723
0.529643
0.528296
0.536629
0.567119
0.584064
0.598507
0.624098
0.668921
0.727107
0.797014
0.843131
0.865643
0.871746
0.859627
0.796496
0.685043
0.594389
0.541733
0.515891
0.494773
0.478369
0.468335
0.473105
0.492313
0.52488
0.561311
0.647659
0.633349
0.636746
0.667979
0.694681
0.695576
0.601695
0.533305
0.527717
0.53288
0.551918
0.582115
0.600153
0.624665
0.657539
0.69995
0.754676
0.820298
0.863947
0.890293
0.894228
0.868061
0.811909
0.735623
0.668458
0.62503
0.579766
0.519893
0.468314
0.43273
0.422919
0.430179
0.45139
0.874545
0.925975
0.917528
0.862977
0.935127
0.842003
0.714185
0.621846
0.870311
0.92804
0.939977
0.870534
0.918709
0.904783
0.796977
0.68035
0.879045
0.931729
0.951447
0.910922
0.897703
0.91223
0.87524
0.782464
0.895886
0.9409
0.965482
0.960952
0.915851
0.913605
0.896697
0.850531
0.917875
0.955598
0.979953
0.984552
0.948129
0.914315
0.904147
0.878904
0.949939
0.981492
1.00166
1.00863
0.995893
0.941669
0.907742
0.887571
0.974265
1.00409
1.02185
1.02909
1.02459
0.990461
0.925315
0.893569
0.987376
1.01812
1.03575
1.04331
1.04006
1.02024
0.95847
0.900426
0.996722
1.02815
1.04427
1.05058
1.04813
1.03234
0.982716
0.916032
1.00881
1.03471
1.04527
1.04354
1.03396
1.02175
0.98956
0.929974
1.0193
1.02676
1.01342
0.975929
0.95264
0.949564
0.942422
0.920705
0.997229
0.946037
0.910051
0.893067
0.88627
0.887433
0.88946
0.886555
0.894976
0.876742
0.872907
0.874418
0.875852
0.880672
0.884406
0.885486
0.862679
0.864649
0.866792
0.8661