/*--------------------------------*- C++ -*----------------------------------*\
  =========                 |
  \\      /  F ield         | OpenFOAM: The Open Source CFD Toolbox
   \\    /   O peration     | Website:  https://openfoam.org
    \\  /    A nd           | Version:  10
     \\/     M anipulation  |
\*---------------------------------------------------------------------------*/
FoamFile
{
    format      ascii;
    class       volVectorField;
    location    "0.500082";
    object      U;
}
// * * * * * * * * * * * * * * * * * * * * * * * * * * * * * * * * * * * * * //

dimensions      [0 1 -1 0 0 0 0];

internalField   nonuniform List<vector> 
16320
(
(0.320295 -0.250401 0)
(0.300074 -0.220406 0)
(0.266124 -0.184521 0)
(0.228424 -0.149401 0)
(0.193456 -0.115767 0)
(0.158236 -0.0785522 0)
(0.128802 -0.031195 0)
(0.107641 0.0226018 0)
(0.0957171 0.0760266 0)
(0.0907971 0.127477 0)
(0.0930156 0.172815 0)
(0.101122 0.209638 0)
(0.11064 0.237999 0)
(0.11744 0.259008 0)
(0.119113 0.277955 0)
(0.113721 0.299022 0)
(0.101599 0.325168 0)
(0.0869421 0.357541 0)
(0.076264 0.394987 0)
(0.0749311 0.431146 0)
(0.0836434 0.456447 0)
(0.10021 0.464122 0)
(0.120163 0.451941 0)
(0.139473 0.422699 0)
(0.154218 0.37889 0)
(0.162159 0.324043 0)
(0.162781 0.261875 0)
(0.156096 0.196423 0)
(0.144512 0.132996 0)
(0.125403 0.0757261 0)
(0.0970098 0.0177629 0)
(0.0646792 -0.0355081 0)
(0.033795 -0.0773164 0)
(0.225805 -0.248572 0)
(0.212062 -0.214845 0)
(0.187847 -0.174071 0)
(0.161352 -0.133763 0)
(0.134745 -0.0957445 0)
(0.108583 -0.0549242 0)
(0.0882442 -0.00647284 0)
(0.0746101 0.0455772 0)
(0.068162 0.0953742 0)
(0.0677174 0.141809 0)
(0.0730605 0.182201 0)
(0.0828642 0.214719 0)
(0.0923382 0.239733 0)
(0.0981055 0.260097 0)
(0.0988313 0.280128 0)
(0.0939187 0.302864 0)
(0.0848187 0.330619 0)
(0.0750983 0.363508 0)
(0.0694783 0.398388 0)
(0.0714002 0.429694 0)
(0.0814647 0.450111 0)
(0.0974901 0.454645 0)
(0.116339 0.441721 0)
(0.134745 0.413356 0)
(0.149302 0.371799 0)
(0.158435 0.319987 0)
(0.161533 0.261629 0)
(0.158755 0.201146 0)
(0.151139 0.144469 0)
(0.136422 0.0911247 0)
(0.112427 0.0376575 0)
(0.0859458 -0.0104597 0)
(0.0619658 -0.0472631 0)
(0.144814 -0.247182 0)
(0.13959 -0.213462 0)
(0.128381 -0.170915 0)
(0.115332 -0.127074 0)
(0.0978706 -0.084275 0)
(0.0799763 -0.0373456 0)
(0.067537 0.0136411 0)
(0.0610051 0.0647856 0)
(0.059161 0.112685 0)
(0.0621321 0.156049 0)
(0.0688324 0.193603 0)
(0.0790222 0.224362 0)
(0.0881961 0.247758 0)
(0.0930864 0.267894 0)
(0.0930285 0.288394 0)
(0.0882579 0.311662 0)
(0.080427 0.33891 0)
(0.0728043 0.369288 0)
(0.0691963 0.399457 0)
(0.0718837 0.424909 0)
(0.0814794 0.440109 0)
(0.0959411 0.441183 0)
(0.113158 0.427159 0)
(0.130699 0.39916 0)
(0.145563 0.359296 0)
(0.156416 0.310369 0)
(0.16213 0.256081 0)
(0.162798 0.201158 0)
(0.157445 0.150632 0)
(0.145763 0.100822 0)
(0.129566 0.0538222 0)
(0.109747 0.0104783 0)
(0.0917721 -0.0224899 0)
(0.0961535 -0.250687 0)
(0.0970284 -0.219289 0)
(0.0949397 -0.177026 0)
(0.0917607 -0.129901 0)
(0.084465 -0.0824541 0)
(0.0731911 -0.0285389 0)
(0.0671949 0.0267223 0)
(0.0660716 0.0792578 0)
(0.0678313 0.127362 0)
(0.0733331 0.169767 0)
(0.0809705 0.206029 0)
(0.0895879 0.236448 0)
(0.0968831 0.260482 0)
(0.100596 0.281199 0)
(0.0995936 0.30111 0)
(0.0943903 0.322798 0)
(0.0867359 0.347151 0)
(0.0793303 0.373015 0)
(0.0753679 0.397415 0)
(0.0769436 0.416682 0)
(0.0847444 0.426541 0)
(0.0971534 0.424104 0)
(0.112551 0.408876 0)
(0.129119 0.381113 0)
(0.144151 0.342892 0)
(0.156025 0.297217 0)
(0.163563 0.248082 0)
(0.165959 0.199103 0)
(0.16223 0.15107 0)
(0.154354 0.105301 0)
(0.145053 0.0630353 0)
(0.134564 0.0245421 0)
(0.122431 -0.00391064 0)
(0.0908966 -0.254036 0)
(0.090064 -0.224305 0)
(0.0888927 -0.184783 0)
(0.0882183 -0.137429 0)
(0.0883451 -0.0855593 0)
(0.0857187 -0.0287899 0)
(0.0828917 0.03032 0)
(0.084834 0.0861122 0)
(0.0897727 0.136622 0)
(0.0971475 0.180581 0)
(0.105401 0.217426 0)
(0.113453 0.248001 0)
(0.119013 0.272909 0)
(0.119824 0.294299 0)
(0.116486 0.314585 0)
(0.110092 0.334638 0)
(0.101469 0.354962 0)
(0.09289 0.375077 0)
(0.0873177 0.393068 0)
(0.0865603 0.406085 0)
(0.0916059 0.410871 0)
(0.101507 0.405143 0)
(0.11467 0.388545 0)
(0.129744 0.361304 0)
(0.144516 0.325418 0)
(0.156989 0.283741 0)
(0.164966 0.238506 0)
(0.167354 0.192352 0)
(0.166405 0.147097 0)
(0.163733 0.1051 0)
(0.15977 0.065627 0)
(0.155763 0.0327776 0)
(0.14996 0.0110392 0)
(0.140859 -0.261872 0)
(0.131057 -0.231373 0)
(0.118645 -0.191125 0)
(0.109041 -0.143321 0)
(0.105906 -0.0883174 0)
(0.10681 -0.0282785 0)
(0.109363 0.0338722 0)
(0.112976 0.0913988 0)
(0.119709 0.1437 0)
(0.128316 0.188821 0)
(0.136741 0.226978 0)
(0.143908 0.258769 0)
(0.148706 0.283798 0)
(0.149601 0.30492 0)
(0.144928 0.324338 0)
(0.135223 0.342237 0)
(0.123266 0.359039 0)
(0.111905 0.37474 0)
(0.103594 0.387493 0)
(0.099876 0.395127 0)
(0.10175 0.395624 0)
(0.108722 0.386986 0)
(0.119475 0.368832 0)
(0.132851 0.341822 0)
(0.146414 0.307061 0)
(0.157035 0.267243 0)
(0.164582 0.224126 0)
(0.170076 0.181016 0)
(0.173231 0.139672 0)
(0.174611 0.0996081 0)
(0.175714 0.0639937 0)
(0.174425 0.0364517 0)
(0.169581 0.019281 0)
(0.227705 -0.273975 0)
(0.217644 -0.241261 0)
(0.20021 -0.198244 0)
(0.176759 -0.148149 0)
(0.1543 -0.0939695 0)
(0.139229 -0.0360838 0)
(0.134745 0.0254388 0)
(0.139435 0.087982 0)
(0.147837 0.14435 0)
(0.157752 0.193071 0)
(0.168059 0.233909 0)
(0.175702 0.267125 0)
(0.17997 0.293721 0)
(0.180302 0.31451 0)
(0.175155 0.330722 0)
(0.1649 0.344614 0)
(0.151682 0.35715 0)
(0.137726 0.368215 0)
(0.125574 0.37632 0)
(0.117734 0.37965 0)
(0.115437 0.376643 0)
(0.118439 0.36533 0)
(0.125753 0.345605 0)
(0.13609 0.318245 0)
(0.147707 0.28421 0)
(0.158785 0.246307 0)
(0.16845 0.206981 0)
(0.176327 0.166847 0)
(0.182204 0.127373 0)
(0.186876 0.091179 0)
(0.188962 0.0605959 0)
(0.186139 0.0372239 0)
(0.181107 0.0244419 0)
(0.324467 -0.286634 0)
(0.316268 -0.24849 0)
(0.301096 -0.201531 0)
(0.277858 -0.14662 0)
(0.249999 -0.0884252 0)
(0.221345 -0.0289035 0)
(0.201044 0.0297491 0)
(0.190106 0.0877363 0)
(0.187533 0.143614 0)
(0.191512 0.194347 0)
(0.197945 0.237249 0)
(0.204338 0.271885 0)
(0.208412 0.299328 0)
(0.20799 0.319759 0)
(0.202412 0.334765 0)
(0.192145 0.345989 0)
(0.17847 0.353822 0)
(0.163326 0.359025 0)
(0.149175 0.361371 0)
(0.138401 0.360006 0)
(0.132317 0.353273 0)
(0.131507 0.339467 0)
(0.13569 0.318885 0)
(0.143786 0.292259 0)
(0.154269 0.260484 0)
(0.16513 0.225308 0)
(0.174846 0.188317 0)
(0.183471 0.151142 0)
(0.190276 0.115855 0)
(0.192922 0.0845934 0)
(0.190757 0.0575291 0)
(0.185701 0.037892 0)
(0.180732 0.0284426 0)
(0.416538 -0.302597 0)
(0.409768 -0.257903 0)
(0.396814 -0.205362 0)
(0.376889 -0.145887 0)
(0.350867 -0.08195 0)
(0.323185 -0.0188549 0)
(0.297569 0.0419732 0)
(0.273212 0.0994729 0)
(0.254765 0.153147 0)
(0.243607 0.201755 0)
(0.238271 0.243851 0)
(0.236371 0.27765 0)
(0.235118 0.3036 0)
(0.232415 0.322661 0)
(0.226478 0.335947 0)
(0.21584 0.344447 0)
(0.201666 0.349073 0)
(0.186124 0.350322 0)
(0.171253 0.348314 0)
(0.158942 0.342879 0)
(0.150245 0.332758 0)
(0.146519 0.316886 0)
(0.148012 0.295614 0)
(0.153404 0.269422 0)
(0.161405 0.239081 0)
(0.170623 0.205655 0)
(0.179207 0.171473 0)
(0.185121 0.13849 0)
(0.186639 0.107454 0)
(0.183285 0.0797001 0)
(0.176631 0.0564212 0)
(0.170085 0.0393274 0)
(0.165596 0.0311365 0)
(0.494939 -0.319271 0)
(0.489054 -0.268746 0)
(0.476421 -0.210754 0)
(0.459025 -0.147609 0)
(0.435495 -0.078715 0)
(0.409404 -0.010349 0)
(0.383711 0.0549804 0)
(0.357892 0.115622 0)
(0.33316 0.170956 0)
(0.311187 0.219388 0)
(0.292373 0.259314 0)
(0.277878 0.290574 0)
(0.267453 0.313763 0)
(0.258214 0.329191 0)
(0.24803 0.338264 0)
(0.235795 0.342409 0)
(0.221382 0.343225 0)
(0.205519 0.340833 0)
(0.190167 0.335293 0)
(0.176698 0.326408 0)
(0.165779 0.313806 0)
(0.15908 0.296609 0)
(0.157109 0.27501 0)
(0.158727 0.249587 0)
(0.162224 0.221518 0)
(0.165858 0.191747 0)
(0.167681 0.161706 0)
(0.165559 0.132532 0)
(0.15891 0.105721 0)
(0.149255 0.0807214 0)
(0.139766 0.0572035 0)
(0.134935 0.0399975 0)
(0.133873 0.0313789 0)
(0.552602 -0.336382 0)
(0.547473 -0.281219 0)
(0.535229 -0.218628 0)
(0.519327 -0.151317 0)
(0.497919 -0.0789716 0)
(0.472459 -0.00535767 0)
(0.446748 0.0655429 0)
(0.422259 0.131331 0)
(0.398349 0.190491 0)
(0.373548 0.240844 0)
(0.348944 0.280506 0)
(0.326044 0.310002 0)
(0.305055 0.329461 0)
(0.286462 0.340495 0)
(0.269914 0.344987 0)
(0.253692 0.344566 0)
(0.236912 0.340549 0)
(0.219433 0.333709 0)
(0.2024 0.324364 0)
(0.186906 0.312212 0)
(0.172897 0.297647 0)
(0.161505 0.279864 0)
(0.153614 0.258711 0)
(0.147965 0.234958 0)
(0.142923 0.209348 0)
(0.136654 0.182755 0)
(0.127813 0.156062 0)
(0.116457 0.130147 0)
(0.103403 0.105281 0)
(0.0927877 0.0784535 0)
(0.089424 0.0531134 0)
(0.0890493 0.036232 0)
(0.0889288 0.0283516 0)
(0.585358 -0.35663 0)
(0.582142 -0.296914 0)
(0.571422 -0.229748 0)
(0.556571 -0.157299 0)
(0.537024 -0.081099 0)
(0.512007 -0.00169907 0)
(0.485055 0.0750481 0)
(0.460581 0.146609 0)
(0.438386 0.210322 0)
(0.415348 0.263314 0)
(0.390127 0.304632 0)
(0.364072 0.332705 0)
(0.338694 0.34831 0)
(0.314657 0.354709 0)
(0.291804 0.353687 0)
(0.269724 0.347494 0)
(0.248065 0.337881 0)
(0.226528 0.325989 0)
(0.205555 0.31245 0)
(0.185872 0.29707 0)
(0.166712 0.280442 0)
(0.148276 0.26213 0)
(0.131935 0.241614 0)
(0.116851 0.219534 0)
(0.101829 0.196306 0)
(0.086569 0.172339 0)
(0.070967 0.148829 0)
(0.0548662 0.126217 0)
(0.0407756 0.100806 0)
(0.036336 0.069357 0)
(0.0373433 0.0452978 0)
(0.0347874 0.0314231 0)
(0.0294807 0.028008 0)
(0.596282 -0.379144 0)
(0.5959 -0.314997 0)
(0.586745 -0.243037 0)
(0.572017 -0.164732 0)
(0.553383 -0.0834798 0)
(0.528648 0.00128168 0)
(0.499785 0.0840787 0)
(0.473899 0.16125 0)
(0.451115 0.229643 0)
(0.429607 0.286207 0)
(0.407008 0.328817 0)
(0.381636 0.356633 0)
(0.355256 0.370075 0)
(0.328948 0.371222 0)
(0.302833 0.363266 0)
(0.277027 0.349785 0)
(0.251188 0.333351 0)
(0.225057 0.315448 0)
(0.198997 0.296968 0)
(0.173862 0.278078 0)
(0.148553 0.25915 0)
(0.122981 0.240129 0)
(0.0991785 0.220834 0)
(0.0764267 0.20175 0)
(0.053809 0.182916 0)
(0.0317282 0.163928 0)
(0.0105956 0.144802 0)
(-0.00878553 0.120513 0)
(-0.0178603 0.0862146 0)
(-0.0158705 0.0560662 0)
(-0.0220696 0.0401491 0)
(-0.0358418 0.0368365 0)
(-0.0497046 0.0379705 0)
(0.59013 -0.402583 0)
(0.59124 -0.335497 0)
(0.582283 -0.258315 0)
(0.566369 -0.173696 0)
(0.546982 -0.0855148 0)
(0.522753 0.0054142 0)
(0.492309 0.0959446 0)
(0.464138 0.179244 0)
(0.439578 0.251251 0)
(0.416674 0.309993 0)
(0.394915 0.353249 0)
(0.372915 0.380374 0)
(0.348956 0.391163 0)
(0.322903 0.388111 0)
(0.295691 0.37446 0)
(0.267867 0.354295 0)
(0.239245 0.330925 0)
(0.209676 0.30674 0)
(0.179612 0.283142 0)
(0.149827 0.260957 0)
(0.119032 0.240089 0)
(0.0878451 0.220989 0)
(0.0581373 0.203649 0)
(0.028371 0.188414 0)
(-0.00175085 0.174082 0)
(-0.0311411 0.158758 0)
(-0.058682 0.136794 0)
(-0.0731189 0.102916 0)
(-0.0746112 0.071323 0)
(-0.0884898 0.0566841 0)
(-0.108881 0.0533333 0)
(-0.122651 0.0469851 0)
(-0.119235 0.0342404 0)
(0.564709 -0.421412 0)
(0.567957 -0.353683 0)
(0.558524 -0.274114 0)
(0.538834 -0.184596 0)
(0.515461 -0.0892808 0)
(0.490253 0.00867419 0)
(0.458878 0.107765 0)
(0.428328 0.199028 0)
(0.402054 0.274989 0)
(0.378289 0.334174 0)
(0.356633 0.37642 0)
(0.33611 0.401373 0)
(0.315384 0.409107 0)
(0.292588 0.401532 0)
(0.266599 0.382567 0)
(0.238307 0.356621 0)
(0.207958 0.327557 0)
(0.175848 0.298218 0)
(0.142908 0.270358 0)
(0.109407 0.245259 0)
(0.0744337 0.222935 0)
(0.0393566 0.204424 0)
(0.00443408 0.189622 0)
(-0.0321337 0.178088 0)
(-0.0680039 0.167399 0)
(-0.102382 0.149395 0)
(-0.122953 0.117749 0)
(-0.129627 0.0882524 0)
(-0.148869 0.074147 0)
(-0.172272 0.0679546 0)
(-0.186361 0.0537579 0)
(-0.176774 0.0301428 0)
(-0.15272 0.00278102 0)
(0.520067 -0.431292 0)
(0.522917 -0.36096 0)
(0.513075 -0.2801 0)
(0.48988 -0.188613 0)
(0.458781 -0.0887265 0)
(0.426003 0.0153353 0)
(0.391951 0.120526 0)
(0.360112 0.218881 0)
(0.333446 0.299097 0)
(0.310953 0.357577 0)
(0.291219 0.396006 0)
(0.273332 0.416608 0)
(0.255364 0.420499 0)
(0.235378 0.408642 0)
(0.212049 0.385154 0)
(0.184791 0.354544 0)
(0.153908 0.320915 0)
(0.120303 0.287672 0)
(0.0853785 0.257117 0)
(0.0493099 0.2305 0)
(0.0121439 0.208116 0)
(-0.0258546 0.190445 0)
(-0.0643078 0.178773 0)
(-0.103052 0.169755 0)
(-0.140315 0.154087 0)
(-0.165011 0.125566 0)
(-0.176424 0.0998088 0)
(-0.199042 0.0877663 0)
(-0.224323 0.0796067 0)
(-0.237809 0.0579256 0)
(-0.224396 0.0227949 0)
(-0.198611 -0.0135546 0)
(-0.176457 -0.0358385 0)
(0.462207 -0.434617 0)
(0.463785 -0.359752 0)
(0.44917 -0.274356 0)
(0.418614 -0.180032 0)
(0.377524 -0.0778584 0)
(0.329792 0.0304945 0)
(0.287915 0.138462 0)
(0.256634 0.237731 0)
(0.232278 0.317789 0)
(0.212892 0.373347 0)
(0.19747 0.407528 0)
(0.184089 0.423202 0)
(0.16986 0.422603 0)
(0.15277 0.407277 0)
(0.131504 0.380507 0)
(0.105522 0.346739 0)
(0.075296 0.310503 0)
(0.0421029 0.275775 0)
(0.00658447 0.24407 0)
(-0.0303087 0.217228 0)
(-0.0667096 0.196102 0)
(-0.10344 0.180818 0)
(-0.140519 0.169073 0)
(-0.175989 0.152781 0)
(-0.201396 0.126962 0)
(-0.216809 0.105517 0)
(-0.240636 0.0954234 0)
(-0.265492 0.0858648 0)
(-0.279082 0.0602595 0)
(-0.265128 0.015596 0)
(-0.239076 -0.0283777 0)
(-0.224102 -0.0448582 0)
(-0.215794 -0.0509578 0)
(0.39363 -0.431285 0)
(0.394571 -0.352225 0)
(0.373611 -0.260695 0)
(0.330202 -0.160202 0)
(0.272641 -0.0545351 0)
(0.203795 0.0540982 0)
(0.151625 0.15804 0)
(0.11969 0.250328 0)
(0.100605 0.32593 0)
(0.0858889 0.378065 0)
(0.0765379 0.408097 0)
(0.0686703 0.419489 0)
(0.0589649 0.415001 0)
(0.045688 0.396177 0)
(0.0273952 0.367165 0)
(0.00366673 0.332391 0)
(-0.0241852 0.296355 0)
(-0.0550984 0.262921 0)
(-0.0878632 0.232565 0)
(-0.12067 0.207215 0)
(-0.152833 0.187513 0)
(-0.184497 0.170341 0)
(-0.213657 0.150529 0)
(-0.235073 0.126852 0)
(-0.252462 0.108032 0)
(-0.274314 0.097405 0)
(-0.298749 0.084619 0)
(-0.311967 0.0564047 0)
(-0.300555 0.00802228 0)
(-0.278063 -0.0396637 0)
(-0.268256 -0.0575671 0)
(-0.266325 -0.0612448 0)
(-0.267605 -0.064253 0)
(0.31825 -0.423866 0)
(0.320544 -0.339089 0)
(0.291776 -0.238535 0)
(0.230577 -0.129225 0)
(0.142906 -0.016517 0)
(0.053502 0.0864094 0)
(-0.00813253 0.176545 0)
(-0.0427415 0.254293 0)
(-0.0572982 0.322076 0)
(-0.0633518 0.368945 0)
(-0.065306 0.39398 0)
(-0.0668287 0.402065 0)
(-0.0713491 0.395413 0)
(-0.0797506 0.375891 0)
(-0.0932913 0.34775 0)
(-0.112678 0.315362 0)
(-0.136259 0.281436 0)
(-0.161658 0.249517 0)
(-0.187303 0.221829 0)
(-0.21247 0.198445 0)
(-0.236948 0.176541 0)
(-0.258233 0.152671 0)
(-0.272029 0.129628 0)
(-0.286604 0.111001 0)
(-0.30495 0.0977238 0)
(-0.325497 0.0817015 0)
(-0.337609 0.0521728 0)
(-0.32982 0.00540442 0)
(-0.314267 -0.0427709 0)
(-0.309618 -0.0682649 0)
(-0.31333 -0.0741513 0)
(-0.318723 -0.0731147 0)
(-0.321346 -0.0759079 0)
(0.240686 -0.416225 0)
(0.248208 -0.323282 0)
(0.212427 -0.209684 0)
(0.128106 -0.0859143 0)
(0.00894733 0.030538 0)
(-0.0921485 0.113 0)
(-0.169686 0.180693 0)
(-0.208999 0.243041 0)
(-0.221236 0.299379 0)
(-0.221657 0.340785 0)
(-0.217111 0.363813 0)
(-0.212867 0.371041 0)
(-0.211446 0.365079 0)
(-0.214421 0.348214 0)
(-0.222483 0.322746 0)
(-0.234715 0.292987 0)
(-0.249566 0.263312 0)
(-0.265466 0.23565 0)
(-0.281196 0.209857 0)
(-0.296534 0.185357 0)
(-0.309396 0.159591 0)
(-0.316178 0.136745 0)
(-0.324671 0.117543 0)
(-0.336862 0.100437 0)
(-0.351281 0.0805264 0)
(-0.360075 0.0493998 0)
(-0.354091 0.00462337 0)
(-0.342141 -0.0434612 0)
(-0.340665 -0.075273 0)
(-0.351665 -0.0863043 0)
(-0.360844 -0.0864682 0)
(-0.368783 -0.085077 0)
(-0.373975 -0.0856611 0)
(0.163992 -0.411044 0)
(0.183697 -0.30796 0)
(0.147404 -0.178193 0)
(0.0360946 -0.0383374 0)
(-0.104642 0.0616369 0)
(-0.231275 0.124486 0)
(-0.322481 0.175498 0)
(-0.364749 0.223051 0)
(-0.3776 0.265942 0)
(-0.376144 0.299952 0)
(-0.367539 0.321007 0)
(-0.357806 0.32912 0)
(-0.349656 0.325315 0)
(-0.345088 0.312069 0)
(-0.344644 0.292017 0)
(-0.347236 0.268686 0)
(-0.351921 0.244116 0)
(-0.357573 0.218912 0)
(-0.361845 0.193261 0)
(-0.364811 0.16885 0)
(-0.366295 0.14673 0)
(-0.368465 0.127322 0)
(-0.373478 0.107548 0)
(-0.379952 0.0842131 0)
(-0.38236 0.0518426 0)
(-0.374384 0.00911319 0)
(-0.362182 -0.0383849 0)
(-0.359388 -0.0766565 0)
(-0.370507 -0.0978026 0)
(-0.381709 -0.102462 0)
(-0.392375 -0.0974062 0)
(-0.402011 -0.0954429 0)
(-0.405474 -0.0947051 0)
(0.0876648 -0.410156 0)
(0.12284 -0.296083 0)
(0.0905955 -0.148473 0)
(-0.0411367 -0.00588237 0)
(-0.211084 0.0768138 0)
(-0.364227 0.122792 0)
(-0.459434 0.159452 0)
(-0.500991 0.194551 0)
(-0.513307 0.227056 0)
(-0.510548 0.254517 0)
(-0.498837 0.273913 0)
(-0.483835 0.28363 0)
(-0.469193 0.283764 0)
(-0.457176 0.27574 0)
(-0.448075 0.261136 0)
(-0.441237 0.242313 0)
(-0.435897 0.221549 0)
(-0.430451 0.199514 0)
(-0.423748 0.178029 0)
(-0.419307 0.157766 0)
(-0.416794 0.138799 0)
(-0.415567 0.118018 0)
(-0.414651 0.0924244 0)
(-0.409631 0.0588471 0)
(-0.39702 0.016548 0)
(-0.381122 -0.0318817 0)
(-0.371776 -0.075893 0)
(-0.375035 -0.106611 0)
(-0.384142 -0.117155 0)
(-0.394981 -0.113811 0)
(-0.406322 -0.107882 0)
(-0.41305 -0.105876 0)
(-0.412736 -0.106214 0)
(0.0127735 -0.41285 0)
(0.0670038 -0.296526 0)
(0.0365968 -0.137024 0)
(-0.110638 -0.00150346 0)
(-0.311435 0.0720422 0)
(-0.481906 0.108195 0)
(-0.574271 0.136036 0)
(-0.610886 0.163427 0)
(-0.620264 0.189564 0)
(-0.614946 0.21239 0)
(-0.600212 0.23045 0)
(-0.581271 0.24097 0)
(-0.561444 0.24358 0)
(-0.543252 0.239589 0)
(-0.526762 0.230352 0)
(-0.510467 0.217021 0)
(-0.495539 0.201235 0)
(-0.484204 0.185044 0)
(-0.474643 0.16841 0)
(-0.467147 0.150564 0)
(-0.46114 0.129874 0)
(-0.454008 0.103719 0)
(-0.441957 0.0699492 0)
(-0.423564 0.0280601 0)
(-0.402371 -0.0210612 0)
(-0.384903 -0.0698996 0)
(-0.378259 -0.109664 0)
(-0.380311 -0.130361 0)
(-0.38874 -0.13374 0)
(-0.399387 -0.129618 0)
(-0.406517 -0.127148 0)
(-0.409693 -0.123498 0)
(-0.409275 -0.119512 0)
(-0.0599049 -0.41289 0)
(0.00399724 -0.317893 0)
(-0.0100573 -0.164902 0)
(-0.170507 -0.0254806 0)
(-0.396291 0.0466277 0)
(-0.574672 0.0807759 0)
(-0.661248 0.105957 0)
(-0.691558 0.130045 0)
(-0.696527 0.152682 0)
(-0.687497 0.173027 0)
(-0.669418 0.19031 0)
(-0.64715 0.202825 0)
(-0.622608 0.209081 0)
(-0.597996 0.209921 0)
(-0.575898 0.205894 0)
(-0.557746 0.198698 0)
(-0.542591 0.188242 0)
(-0.529618 0.17591 0)
(-0.51826 0.161202 0)
(-0.507707 0.141918 0)
(-0.495844 0.116258 0)
(-0.478029 0.0833564 0)
(-0.454807 0.0422832 0)
(-0.428648 -0.00686569 0)
(-0.403537 -0.0592342 0)
(-0.386584 -0.106267 0)
(-0.380829 -0.137968 0)
(-0.38469 -0.150772 0)
(-0.394105 -0.153162 0)
(-0.403485 -0.14957 0)
(-0.409298 -0.142336 0)
(-0.414331 -0.132321 0)
(-0.422024 -0.119695 0)
(-0.122363 -0.396105 0)
(-0.0675304 -0.333977 0)
(-0.0806164 -0.226802 0)
(-0.233946 -0.0953812 0)
(-0.466293 -0.00382932 0)
(-0.638484 0.0444342 0)
(-0.715969 0.0745717 0)
(-0.739236 0.100429 0)
(-0.739166 0.123288 0)
(-0.725837 0.143692 0)
(-0.704218 0.161453 0)
(-0.680072 0.175742 0)
(-0.655799 0.185706 0)
(-0.633821 0.190308 0)
(-0.614344 0.190521 0)
(-0.596882 0.187163 0)
(-0.581565 0.18056 0)
(-0.567179 0.169296 0)
(-0.553011 0.152583 0)
(-0.536504 0.128864 0)
(-0.514837 0.0980926 0)
(-0.488173 0.0586403 0)
(-0.458204 0.0108811 0)
(-0.427722 -0.0432323 0)
(-0.402966 -0.0943898 0)
(-0.389754 -0.134693 0)
(-0.388184 -0.157789 0)
(-0.396369 -0.1673 0)
(-0.407427 -0.167196 0)
(-0.417776 -0.158557 0)
(-0.430893 -0.144198 0)
(-0.447456 -0.127516 0)
(-0.466292 -0.109536 0)
(-0.162458 -0.377137 0)
(-0.119335 -0.346409 0)
(-0.132971 -0.288227 0)
(-0.272195 -0.188001 0)
(-0.49722 -0.0746186 0)
(-0.667867 0.000598559 0)
(-0.741448 0.0456874 0)
(-0.761175 0.0775267 0)
(-0.759661 0.103687 0)
(-0.746456 0.125705 0)
(-0.726535 0.144427 0)
(-0.704862 0.159637 0)
(-0.683759 0.171298 0)
(-0.663819 0.178685 0)
(-0.645035 0.182406 0)
(-0.627749 0.18097 0)
(-0.611861 0.174183 0)
(-0.594925 0.161074 0)
(-0.574212 0.140702 0)
(-0.549266 0.112283 0)
(-0.520216 0.0753957 0)
(-0.487978 0.0296187 0)
(-0.454689 -0.0233838 0)
(-0.424706 -0.0766488 0)
(-0.405157 -0.121474 0)
(-0.399372 -0.152407 0)
(-0.405329 -0.168762 0)
(-0.418115 -0.1747 0)
(-0.432402 -0.168144 0)
(-0.45071 -0.154104 0)
(-0.474324 -0.135324 0)
(-0.501434 -0.113118 0)
(-0.530119 -0.0902326 0)
(-0.184236 -0.361122 0)
(-0.148147 -0.350575 0)
(-0.154238 -0.332253 0)
(-0.263977 -0.273761 0)
(-0.47104 -0.16262 0)
(-0.657622 -0.0547059 0)
(-0.747066 0.0132603 0)
(-0.774134 0.0559508 0)
(-0.77551 0.0877533 0)
(-0.764583 0.113874 0)
(-0.74638 0.134786 0)
(-0.726051 0.151968 0)
(-0.705808 0.165005 0)
(-0.686447 0.173701 0)
(-0.668277 0.177234 0)
(-0.650077 0.174889 0)
(-0.629685 0.165888 0)
(-0.606122 0.149898 0)
(-0.579154 0.125208 0)
(-0.548389 0.0914068 0)
(-0.514822 0.0487626 0)
(-0.480195 -0.00145393 0)
(-0.447987 -0.0544241 0)
(-0.424198 -0.100295 0)
(-0.414733 -0.136119 0)
(-0.418626 -0.15827 0)
(-0.432259 -0.169663 0)
(-0.449127 -0.168423 0)
(-0.470654 -0.156307 0)
(-0.499115 -0.137578 0)
(-0.532615 -0.11344 0)
(-0.568837 -0.0868579 0)
(-0.604088 -0.0617334 0)
(-0.186581 -0.349483 0)
(-0.158325 -0.350345 0)
(-0.158497 -0.350596 0)
(-0.235745 -0.32809 0)
(-0.40766 -0.243766 0)
(-0.604538 -0.121301 0)
(-0.72883 -0.0230864 0)
(-0.774521 0.0356134 0)
(-0.783326 0.075533 0)
(-0.776265 0.106602 0)
(-0.760733 0.129795 0)
(-0.741451 0.147527 0)
(-0.721533 0.160609 0)
(-0.700983 0.168626 0)
(-0.679281 0.170919 0)
(-0.655908 0.167032 0)
(-0.63027 0.155538 0)
(-0.601632 0.13528 0)
(-0.570078 0.105882 0)
(-0.536211 0.0673477 0)
(-0.501523 0.0212016 0)
(-0.469144 -0.0291141 0)
(-0.443618 -0.0750571 0)
(-0.43153 -0.111751 0)
(-0.433646 -0.138423 0)
(-0.446995 -0.153179 0)
(-0.466104 -0.15808 0)
(-0.489594 -0.149213 0)
(-0.520475 -0.132324 0)
(-0.557738 -0.107843 0)
(-0.598356 -0.0799836 0)
(-0.639012 -0.0522135 0)
(-0.676804 -0.0284931 0)
(-0.185772 -0.343124 0)
(-0.15605 -0.350805 0)
(-0.14978 -0.358433 0)
(-0.200225 -0.354902 0)
(-0.331185 -0.306128 0)
(-0.512216 -0.197594 0)
(-0.669536 -0.0797879 0)
(-0.752969 0.00501122 0)
(-0.776555 0.0576681 0)
(-0.776544 0.0945122 0)
(-0.764495 0.122102 0)
(-0.744852 0.141199 0)
(-0.722023 0.154536 0)
(-0.697764 0.162206 0)
(-0.671964 0.163324 0)
(-0.64439 0.156752 0)
(-0.614892 0.141705 0)
(-0.583285 0.117583 0)
(-0.550067 0.0843525 0)
(-0.516509 0.0432391 0)
(-0.485356 -0.00265711 0)
(-0.460346 -0.0471701 0)
(-0.446663 -0.0829467 0)
(-0.447729 -0.111287 0)
(-0.4603 -0.128745 0)
(-0.481468 -0.13744 0)
(-0.506601 -0.133624 0)
(-0.53774 -0.119172 0)
(-0.576221 -0.0965483 0)
(-0.619188 -0.0685456 0)
(-0.662977 -0.0397856 0)
(-0.704478 -0.014044 0)
(-0.74143 0.00521647 0)
(-0.185889 -0.335024 0)
(-0.160809 -0.346971 0)
(-0.150957 -0.358811 0)
(-0.178378 -0.363008 0)
(-0.264183 -0.339336 0)
(-0.409381 -0.262718 0)
(-0.57023 -0.148727 0)
(-0.686698 -0.0412056 0)
(-0.740621 0.0317504 0)
(-0.751571 0.078219 0)
(-0.744185 0.111148 0)
(-0.726588 0.133761 0)
(-0.702521 0.147458 0)
(-0.675765 0.153907 0)
(-0.647432 0.152923 0)
(-0.617743 0.143685 0)
(-0.586764 0.125601 0)
(-0.554896 0.0986492 0)
(-0.523389 0.0637309 0)
(-0.494567 0.0234473 0)
(-0.471851 -0.0175365 0)
(-0.458334 -0.0520993 0)
(-0.458827 -0.0789634 0)
(-0.47157 -0.0987457 0)
(-0.493213 -0.108855 0)
(-0.520067 -0.11065 0)
(-0.551129 -0.0994017 0)
(-0.589223 -0.0798374 0)
(-0.632209 -0.0534651 0)
(-0.677219 -0.0247841 0)
(-0.721846 0.00343474 0)
(-0.762436 0.0256938 0)
(-0.795871 0.0372086 0)
(-0.177324 -0.326099 0)
(-0.157924 -0.341277 0)
(-0.149586 -0.35387 0)
(-0.165854 -0.361127 0)
(-0.218446 -0.350133 0)
(-0.314958 -0.304299 0)
(-0.449165 -0.210369 0)
(-0.580016 -0.0978963 0)
(-0.664956 -0.00412613 0)
(-0.697244 0.0567634 0)
(-0.699077 0.0957577 0)
(-0.686207 0.122043 0)
(-0.664656 0.137176 0)
(-0.638042 0.142916 0)
(-0.609357 0.140274 0)
(-0.579738 0.129086 0)
(-0.549981 0.109265 0)
(-0.521267 0.0815873 0)
(-0.495755 0.0480461 0)
(-0.476419 0.0123799 0)
(-0.465545 -0.0198154 0)
(-0.466013 -0.0441439 0)
(-0.47938 -0.06407 0)
(-0.501113 -0.0759845 0)
(-0.529622 -0.080296 0)
(-0.561219 -0.0750564 0)
(-0.59743 -0.0591659 0)
(-0.639815 -0.0355294 0)
(-0.685135 -0.0068187 0)
(-0.730402 0.0226439 0)
(-0.771796 0.0469933 0)
(-0.808157 0.0611649 0)
(-0.837485 0.0634586 0)
(-0.161288 -0.316421 0)
(-0.147708 -0.336102 0)
(-0.142491 -0.351478 0)
(-0.152408 -0.358759 0)
(-0.182173 -0.353585 0)
(-0.239073 -0.324659 0)
(-0.329173 -0.259036 0)
(-0.445792 -0.157265 0)
(-0.551694 -0.0521043 0)
(-0.613539 0.026566 0)
(-0.63196 0.0753321 0)
(-0.627763 0.105807 0)
(-0.611759 0.123813 0)
(-0.588677 0.130222 0)
(-0.5625 0.127014 0)
(-0.536113 0.1152 0)
(-0.511206 0.0955681 0)
(-0.48973 0.0697319 0)
(-0.474364 0.0407252 0)
(-0.467358 0.0128611 0)
(-0.469261 -0.00928082 0)
(-0.482832 -0.026405 0)
(-0.505809 -0.0396941 0)
(-0.53407 -0.0456994 0)
(-0.5676 -0.0456202 0)
(-0.603249 -0.0349378 0)
(-0.643219 -0.0147326 0)
(-0.687284 0.0126223 0)
(-0.730489 0.0415564 0)
(-0.770665 0.0673754 0)
(-0.807985 0.0848924 0)
(-0.840346 0.0910618 0)
(-0.864833 0.0857484 0)
(-0.142511 -0.306926 0)
(-0.13579 -0.331781 0)
(-0.134337 -0.351599 0)
(-0.141484 -0.36115 0)
(-0.157537 -0.358218 0)
(-0.183641 -0.337565 0)
(-0.232432 -0.289734 0)
(-0.313679 -0.208402 0)
(-0.41759 -0.104912 0)
(-0.505106 -0.0116291 0)
(-0.548241 0.0505529 0)
(-0.557891 0.0875558 0)
(-0.551028 0.10891 0)
(-0.535577 0.117681 0)
(-0.515715 0.11549 0)
(-0.495889 0.104828 0)
(-0.479257 0.087556 0)
(-0.468351 0.0662169 0)
(-0.465332 0.0442215 0)
(-0.470455 0.0253262 0)
(-0.484281 0.0116152 0)
(-0.507685 -0.00111588 0)
(-0.536294 -0.00904489 0)
(-0.569661 -0.0112631 0)
(-0.606099 -0.00704011 0)
(-0.643185 0.00860096 0)
(-0.682401 0.0315042 0)
(-0.721403 0.0575315 0)
(-0.758424 0.0837795 0)
(-0.7943 0.10489 0)
(-0.827739 0.116196 0)
(-0.854668 0.115612 0)
(-0.873806 0.103497 0)
(-0.123672 -0.297885 0)
(-0.124538 -0.327212 0)
(-0.128665 -0.350865 0)
(-0.136132 -0.363537 0)
(-0.144083 -0.361854 0)
(-0.152339 -0.34577 0)
(-0.168433 -0.311469 0)
(-0.210894 -0.249876 0)
(-0.289858 -0.157587 0)
(-0.384805 -0.0559489 0)
(-0.455562 0.0218862 0)
(-0.485876 0.068259 0)
(-0.49224 0.0940309 0)
(-0.487558 0.106733 0)
(-0.477699 0.107556 0)
(-0.467586 0.0999883 0)
(-0.46155 0.0870979 0)
(-0.462057 0.0718924 0)
(-0.470172 0.0574971 0)
(-0.484921 0.0466988 0)
(-0.508407 0.0379869 0)
(-0.538373 0.0293557 0)
(-0.57058 0.0253521 0)
(-0.606287 0.0251519 0)
(-0.641106 0.0323588 0)
(-0.674655 0.0491074 0)
(-0.709052 0.0710576 0)
(-0.741856 0.0956512 0)
(-0.773482 0.11855 0)
(-0.804537 0.135273 0)
(-0.832022 0.140571 0)
(-0.852394 0.134133 0)
(-0.865788 0.115458 0)
(-0.105459 -0.290727 0)
(-0.112487 -0.323309 0)
(-0.121207 -0.350435 0)
(-0.129814 -0.365134 0)
(-0.134923 -0.364253 0)
(-0.13648 -0.349211 0)
(-0.138117 -0.32006 0)
(-0.150601 -0.272251 0)
(-0.195822 -0.19704 0)
(-0.278721 -0.100049 0)
(-0.366098 -0.00950044 0)
(-0.419866 0.0487957 0)
(-0.442797 0.0811612 0)
(-0.451228 0.0983462 0)
(-0.453918 0.103922 0)
(-0.45497 0.101047 0)
(-0.459464 0.093815 0)
(-0.469907 0.0851283 0)
(-0.486206 0.0779107 0)
(-0.508969 0.0738123 0)
(-0.539368 0.0667662 0)
(-0.571367 0.0604281 0)
(-0.603629 0.0567846 0)
(-0.637352 0.0566051 0)
(-0.668085 0.0656236 0)
(-0.697404 0.0823311 0)
(-0.725985 0.102907 0)
(-0.752534 0.125194 0)
(-0.777358 0.144576 0)
(-0.801618 0.15586 0)
(-0.821882 0.155755 0)
(-0.83427 0.143802 0)
(-0.840853 0.119114 0)
(-0.0881771 -0.289328 0)
(-0.0997054 -0.322472 0)
(-0.111756 -0.352827 0)
(-0.120824 -0.370388 0)
(-0.123515 -0.37102 0)
(-0.120458 -0.356613 0)
(-0.11593 -0.328369 0)
(-0.115937 -0.285724 0)
(-0.137418 -0.224663 0)
(-0.200355 -0.137488 0)
(-0.292521 -0.0407193 0)
(-0.370614 0.0315286 0)
(-0.412526 0.0720403 0)
(-0.433477 0.0935182 0)
(-0.446926 0.104729 0)
(-0.457989 0.107176 0)
(-0.471623 0.105698 0)
(-0.490498 0.103567 0)
(-0.51384 0.10343 0)
(-0.54429 0.10152 0)
(-0.577224 0.0943592 0)
(-0.606808 0.0879564 0)
(-0.636773 0.0830248 0)
(-0.665654 0.0825428 0)
(-0.690718 0.0916135 0)
(-0.714679 0.10663 0)
(-0.736652 0.124887 0)
(-0.755219 0.144017 0)
(-0.773093 0.15953 0)
(-0.789508 0.165355 0)
(-0.800323 0.160563 0)
(-0.804775 0.144075 0)
(-0.804222 0.115733 0)
(-0.0730747 -0.29734 0)
(-0.086255 -0.326815 0)
(-0.100877 -0.358305 0)
(-0.111088 -0.378469 0)
(-0.113402 -0.381252 0)
(-0.108708 -0.368639 0)
(-0.100645 -0.34263 0)
(-0.0943722 -0.302333 0)
(-0.102784 -0.246912 0)
(-0.147483 -0.170359 0)
(-0.23721 -0.0736419 0)
(-0.336528 0.0139356 0)
(-0.404672 0.0667238 0)
(-0.44179 0.0952877 0)
(-0.467042 0.112552 0)
(-0.488895 0.120958 0)
(-0.510305 0.125138 0)
(-0.533559 0.128292 0)
(-0.560548 0.13031 0)
(-0.591904 0.124715 0)
(-0.620222 0.116423 0)
(-0.644544 0.107942 0)
(-0.669545 0.100696 0)
(-0.691927 0.100102 0)
(-0.710712 0.107635 0)
(-0.728447 0.120043 0)
(-0.74267 0.135314 0)
(-0.753267 0.15085 0)
(-0.762932 0.161779 0)
(-0.770391 0.163786 0)
(-0.772275 0.155342 0)
(-0.768419 0.136358 0)
(-0.760912 0.106773 0)
(-0.060145 -0.316351 0)
(-0.0724481 -0.338075 0)
(-0.0886922 -0.367911 0)
(-0.1012 -0.389897 0)
(-0.105152 -0.395174 0)
(-0.101716 -0.384295 0)
(-0.0938862 -0.359021 0)
(-0.0835063 -0.320766 0)
(-0.0846575 -0.266053 0)
(-0.118801 -0.195226 0)
(-0.204724 -0.102735 0)
(-0.320636 -0.00766114 0)
(-0.41701 0.058121 0)
(-0.474574 0.0952779 0)
(-0.512713 0.118193 0)
(-0.544405 0.133399 0)
(-0.571664 0.143671 0)
(-0.597093 0.149885 0)
(-0.623217 0.148305 0)
(-0.647248 0.139465 0)
(-0.666068 0.128765 0)
(-0.68375 0.117461 0)
(-0.701697 0.108299 0)
(-0.716776 0.106907 0)
(-0.729181 0.11241 0)
(-0.740098 0.122075 0)
(-0.746622 0.134282 0)
(-0.748702 0.145872 0)
(-0.749537 0.1531 0)
(-0.747824 0.152195 0)
(-0.740657 0.142061 0)
(-0.729107 0.122181 0)
(-0.714993 0.0929559 0)
(-0.0466823 -0.345715 0)
(-0.0577572 -0.354637 0)
(-0.0746333 -0.381094 0)
(-0.090334 -0.404646 0)
(-0.098099 -0.412643 0)
(-0.0982239 -0.404265 0)
(-0.0938385 -0.380046 0)
(-0.0837099 -0.342159 0)
(-0.0805369 -0.286792 0)
(-0.106605 -0.214631 0)
(-0.187941 -0.125106 0)
(-0.3183 -0.0269338 0)
(-0.444141 0.0503326 0)