FoamFile
{
    version     2.0;
    format      ascii;
    class       volVectorField;
    object      U;
}
dimensions      [0 1 -1 0 0 0 0];

internalField   nonuniform List<vector>
16384
(
(-0.17152967499124194 0.30202078971961804 0.0)
(-0.20621998058194302 0.3601433195010227 0.0)
(-0.19716700046635624 0.38597791627981426 0.0)
(-0.14005003911150254 0.37824385743721833 0.0)
(-0.038086612857551626 0.3405705981691248 0.0)
(0.09816767426584923 0.28100677908265814 0.0)
(0.2522429257786096 0.21083503311442497 0.0)
(0.4041805539432237 0.1428509461341287 0.0)
(0.533564683746914 0.08936016963213006 0.0)
(0.6226583549941332 0.060205017151058374 0.0)
(0.6591263030825272 0.06113900601808925 0.0)
(0.6378993245629356 0.0928213229006877 0.0)
(0.56188514658802 0.15060913285959085 0.0)
(0.4414298052924418 0.22519873707249907 0.0)
(0.2926457060188431 0.3040278192547496 0.0)
(0.13490985514746084 0.373224068577108 0.0)
(-0.012034550498827087 0.419792444354538 0.0)
(-0.13088956532638824 0.4336908126190974 0.0)
(-0.2090789358025196 0.4094595663143603 0.0)
(-0.2401539623622593 0.34714289964874123 0.0)
(-0.2241595792692546 0.25235552874715605 0.0)
(-0.16697957065787827 0.1354889418874965 0.0)
(-0.07885456106896278 0.010191577657556704 0.0)
(0.027603702921739928 -0.10862641424796193 0.0)
(0.1395151308835176 -0.20694068549788847 0.0)
(0.24557658010187883 -0.2735724318680506 0.0)
(0.33735630946656037 -0.301660892081653 0.0)
(0.40987538686661973 -0.2894388627980081 0.0)
(0.46146688769805005 -0.24022353859894832 0.0)
(0.49304747224229883 -0.16166713230108778 0.0)
(0.5070422479418355 -0.06443052312062712 0.0)
(0.506253115518866 0.039471767786878005 0.0)
(0.49294568152828505 0.1383693175388249 0.0)
(0.4683562825888734 0.22240461126342181 0.0)
(0.4327065349413329 0.28456243796292413 0.0)
(0.38568387633540074 0.32114382396580193 0.0)
(0.3272311062260623 0.33167691712793773 0.0)
(0.2584109079474193 0.31835863010664095 0.0)
(0.18208923610116948 0.2851963263870884 0.0)
(0.10321893846617027 0.23705534378822868 0.0)
(0.028593991122055584 0.17881082768575407 0.0)
(-0.03393382931305287 0.11475521762157481 0.0)
(-0.07665627881157072 0.0483376781112963 0.0)
(-0.09340219255349931 -0.017774055898579052 0.0)
(-0.08083636912364778 -0.08139669457822 0.0)
(-0.03937553408239285 -0.14043956975086141 0.0)
(0.02650624333267237 -0.1925755153814807 0.0)
(0.10869825499378544 -0.2351102177596692 0.0)
(0.19657362879518372 -0.26513021391223307 0.0)
(0.278639708847187 -0.2799328785963981 0.0)
(0.34443276775164694 -0.2776609498075699 0.0)
(0.3863081282293439 -0.2579978418619973 0.0)
(0.40078043083261145 -0.22274390453561388 0.0)
(0.3891410390797755 -0.1760975527349313 0.0)
(0.35720834382945577 -0.1245102247907805 0.0)
(0.3142283812361078 -0.07606308719007393 0.0)
(0.27110696505838955 -0.03941145000794285 0.0)
(0.23828851427657136 -0.022440458035993986 0.0)
(0.22367405428251014 -0.030852375040220485 0.0)
(0.230975033616411 -0.06694450997107104 0.0)
(0.2588280090838052 -0.12882717143021535 0.0)
(0.30085988003928876 -0.21027173166443383 0.0)
(0.34671868679519474 -0.3012784043114894 0.0)
(0.3839035093146245 -0.3893285914505432 0.0)
(0.4000730505274057 -0.4611600009454075 0.0)
(0.3854156971795385 -0.5047979023859865 0.0)
(0.3346434138172825 -0.5115134917641373 0.0)
(0.2482327097474262 -0.477373866910729 0.0)
(0.13266777105631666 -0.4041012009780295 0.0)
(-0.000380177068551414 -0.2990641283051369 0.0)
(-0.13581004150447976 -0.17436512276042646 0.0)
(-0.25748578518131243 -0.04513984518115381 0.0)
(-0.350852373065251 0.07267853045213067 0.0)
(-0.40531371474945366 0.16477963003109994 0.0)
(-0.4159549102338634 0.22069066839900361 0.0)
(-0.38430842920330527 0.23542139967895928 0.0)
(-0.318035373723504 0.21026297398143956 0.0)
(-0.22958686136738815 0.15260034228096217 0.0)
(-0.13409098134011724 0.07475873042517973 0.0)
(-0.046844633102364044 -0.007936757953530507 0.0)
(0.019147269300360408 -0.07958012791962944 0.0)
(0.05516094048261076 -0.12619576720594128 0.0)
(0.05794185072315904 -0.13794186296676703 0.0)
(0.029915184082979943 -0.11065801101381849 0.0)
(-0.021577009191096955 -0.04651783081315947 0.0)
(-0.08583258756329386 0.0463062650212853 0.0)
(-0.15082416900180032 0.15490015849117578 0.0)
(-0.20532288008353491 0.26357630707928065 0.0)
(-0.24072373702408523 0.35623564787693696 0.0)
(-0.25226000546846383 0.4187529555995062 0.0)
(-0.23942477758959158 0.44102400381619067 0.0)
(-0.20557827997612924 0.4183787489241717 0.0)
(-0.15687712179689495 0.3521746778222102 0.0)
(-0.1007861015540011 0.24951829595870628 0.0)
(-0.04450085140193598 0.12219731310248898 0.0)
(0.006391207754489704 -0.014980611252048793 0.0)
(0.048751246507100644 -0.1461717638419625 0.0)
(0.08208843500173967 -0.2565049998441964 0.0)
(0.1081196799782611 -0.33383851072291115 0.0)
(0.12983003133237858 -0.3700502303414936 0.0)
(0.15027979054295867 -0.36173610794340083 0.0)
(0.17145508127167847 -0.31028845853212533 0.0)
(0.19344429261428975 -0.22141651254684547 0.0)
(0.2141467763500302 -0.10423909045088585 0.0)
(0.22959866359634162 0.029883413618602122 0.0)
(0.23485934742907733 0.16860561934131058 0.0)
(0.22527100341244025 0.2997930365260187 0.0)
(0.1978105894040469 0.4125492551395373 0.0)
(0.15221956073932713 0.49801461427327315 0.0)
(0.09162964679015682 0.5499202361647235 0.0)
(0.022498249884443152 0.5649121713003631 0.0)
(-0.04619380548825957 0.5426744026481745 0.0)
(-0.10437394703319704 0.4858775729317731 0.0)
(-0.14269055832797156 0.39996781442657664 0.0)
(-0.1543628642824015 0.2927949309349218 0.0)
(-0.13669455821726653 0.1740697945026573 0.0)
(-0.09192248711670666 0.054643693336155374 0.0)
(-0.0271846695668967 -0.05437968611829522 0.0)
(0.04644682121818759 -0.14265777775314753 0.0)
(0.11574306091132888 -0.20166817311263152 0.0)
(0.1676172531218061 -0.2256976167189611 0.0)
(0.19154249643231022 -0.21262286412310807 0.0)
(0.1816430736758373 -0.164344832971033 0.0)
(0.13805461221572693 -0.0867642339082868 0.0)
(0.06726684587445454 0.01075946665844438 0.0)
(-0.018661215552569308 0.11644967932787952 0.0)
(-0.1039216059009023 0.21755570338287059 0.0)
(-0.17152967499124153 0.30202078971961877 0.0)
(-0.2284962513302807 0.3108591243120633 0.0)
(-0.2567394939588749 0.3384744343743633 0.0)
(-0.23809755560249893 0.3281433266728902 0.0)
(-0.16976645144939528 0.2841478335415713 0.0)
(-0.05664906470053541 0.2160090727558146 0.0)
(0.08907775524970932 0.1370000660951958 0.0)
(0.24962257769168095 0.0620625802961638 0.0)
(0.40421024214766416 0.005444160632502008 0.0)
(0.532255995255893 -0.021577759546610644 0.0)
(0.6165558206368271 -0.012525681544198681 0.0)
(0.6459595401474716 0.033186737425002714 0.0)
(0.6170809697461351 0.11007959579067264 0.0)
(0.5347654270130286 0.2073802414502857 0.0)
(0.41124921706926054 0.3106264731486651 0.0)
(0.26416967989174234 0.4038481462205232 0.0)
(0.11377776100130492 0.4719844317463869 0.0)
(-0.02016641406939224 0.5031586886622132 0.0)
(-0.12129289835265784 0.49045938988599724 0.0)
(-0.17884540990280348 0.4329588702708996 0.0)
(-0.1888910707504721 0.335827263087465 0.0)
(-0.15436718266202232 0.20954524115794554 0.0)
(-0.08402454373457247 0.06836124480836041 0.0)
(0.009482999856151383 -0.07174690691127979 0.0)
(0.11197565655445456 -0.19527813994820134 0.0)
(0.21014325739147377 -0.28924230272274803 0.0)
(0.2935350237086928 -0.34472706479665816 0.0)
(0.3558206429488993 -0.35779291543412356 0.0)
(0.3951566058839976 -0.3296111814220601 0.0)
(0.4136721848655356 -0.2658864313913186 0.0)
(0.4162579738296387 -0.1757157559700116 0.0)
(0.4089644335654897 -0.07011469760242163 0.0)
(0.3973757308118123 0.03952850020444754 0.0)
(0.38530633640789147 0.1428248769472516 0.0)
(0.3740804950763205 0.23139561264223962 0.0)
(0.3625175464774201 0.2994206433691318 0.0)
(0.34758835847647956 0.34372005211565 0.0)
(0.3255625092018356 0.3634501196445741 0.0)
(0.29336192666289046 0.35955722155651565 0.0)
(0.24979511982003377 0.33415812185503363 0.0)
(0.1963746019525545 0.29000203076967757 0.0)
(0.13751194008744363 0.23012347254092347 0.0)
(0.08002050442035748 0.15772762570163126 0.0)
(0.03200704342980379 0.07627744943543906 0.0)
(0.0013682308771454177 -0.01030871120968933 0.0)
(-0.005800797531674681 -0.09747544075643459 0.0)
(0.01344871402910113 -0.1799924121279289 0.0)
(0.05811367457747076 -0.2521556536897685 0.0)
(0.12316235369427632 -0.30826330518434836 0.0)
(0.2002310423144985 -0.3433272363353263 0.0)
(0.27898237371640755 -0.3539103304864254 0.0)
(0.3488766042405969 -0.3389266806915848 0.0)
(0.40101796716801247 -0.3002215261978688 0.0)
(0.42971548263188647 -0.2427662934307014 0.0)
(0.43344691542306363 -0.17436050708117193 0.0)
(0.41502712540124254 -0.10481755658677465 0.0)
(0.38093630220232155 -0.04470989097087243 0.0)
(0.339929385054397 -0.003842191113352215 0.0)
(0.30119253078142694 0.010310424436184037 0.0)
(0.2724068027941052 -0.006066925882027938 0.0)
(0.25810388758309993 -0.052276888838767376 0.0)
(0.2586476952668778 -0.12291868829652111 0.0)
(0.2700580773768366 -0.20843714792868479 0.0)
(0.28473072480207356 -0.2963682826633762 0.0)
(0.2929317252258979 -0.37311590238647274 0.0)
(0.2847903954850451 -0.42599490385693584 0.0)
(0.25241035174166543 -0.4452198424539057 0.0)
(0.19168720992189733 -0.42551353831670047 0.0)
(0.10346892306990417 -0.3670622089368915 0.0)
(-0.0061866011099310034 -0.2756434202426572 0.0)
(-0.12673426781269828 -0.16188484622833446 0.0)
(-0.2447374941456417 -0.03975337889099112 0.0)
(-0.34606208741131145 0.07549852910324394 0.0)
(-0.418276171908893 0.16961111593216865 0.0)
(-0.45281933587879253 0.23146249433858704 0.0)
(-0.44654116390182247 0.2547423063011924 0.0)
(-0.4023214880937717 0.23889010771924354 0.0)
(-0.32865119611126836 0.18915235009827458 0.0)
(-0.2382420775353197 0.11575249174752306 0.0)
(-0.14591136720421377 0.03230897482250348 0.0)
(-0.06611813802740098 -0.046247553062207195 0.0)
(-0.010590009527167769 -0.1059320279524159 0.0)
(0.013541360818879713 -0.1357911489684889 0.0)
(0.0047745477179349715 -0.12950592436838917 0.0)
(-0.03272387749725593 -0.08628131071071479 0.0)
(-0.0900606755456524 -0.010909510979232775 0.0)
(-0.15534156831008106 0.08697752675388555 0.0)
(-0.21584850082385554 0.1943299977165355 0.0)
(-0.26026278153236704 0.296546192319591 0.0)
(-0.28053264470035866 0.3794986176173125 0.0)
(-0.2730631007854039 0.43142910052613037 0.0)
(-0.23904360082174506 0.44445860350934546 0.0)
(-0.18389743457961408 0.4155294412873425 0.0)
(-0.11600287371723635 0.3466903961122098 0.0)
(-0.04496788236775847 0.24473252941120863 0.0)
(0.020186956466798998 0.12026976960375681 0.0)
(0.07258151377138668 -0.013578412968201278 0.0)
(0.10847833170486379 -0.1427115429244332 0.0)
(0.12757069283873124 -0.25358655426921045 0.0)
(0.13254543479762662 -0.3346004506849842 0.0)
(0.12805892623511264 -0.3771893686401125 0.0)
(0.11938121970792408 -0.3765660960813013 0.0)
(0.11102389130423758 -0.33206660958803963 0.0)
(0.10565996054686552 -0.2471161694563473 0.0)
(0.10357196671634865 -0.1288532886971812 0.0)
(0.10274252005660738 0.012534495853532042 0.0)
(0.09955631221241107 0.1647026121512335 0.0)
(0.08994434542171324 0.31420662373981917 0.0)
(0.07069927357612672 0.44765951066571613 0.0)
(0.040647069761029234 0.5529179895776282 0.0)
(0.0013846473653530607 0.6202168012470637 0.0)
(-0.04261857768145292 0.6431583548386108 0.0)
(-0.08462237000128503 0.6194569230161583 0.0)
(-0.11683390912558808 0.5513377466600718 0.0)
(-0.1320148316460479 0.4455073534798274 0.0)
(-0.125151055991362 0.31264517949593995 0.0)
(-0.09482571954249885 0.16641753399709228 0.0)
(-0.043975762095119386 0.022078061433090528 0.0)
(0.020178823934670964 -0.1052148377362372 0.0)
(0.0870868403728259 -0.20217523281889374 0.0)
(0.14457658769880716 -0.25903564512342975 0.0)
(0.18104300216107722 -0.270828902657083 0.0)
(0.1877169472196449 -0.2381022165774003 0.0)
(0.16058281075345698 -0.16692497798156355 0.0)
(0.10155375112701814 -0.06814585271890278 0.0)
(0.01863452768664456 0.04403526574088394 0.0)
(-0.07502067845075121 0.15400618798718022 0.0)
(-0.16304575025526208 0.24692908509867537 0.0)
(-0.22849625133028026 0.3108591243120641 0.0)
(-0.25677177285955716 0.3140764140721352 0.0)
(-0.273843444221784 0.3076054717237805 0.0)
(-0.2454804132943831 0.2581747209962876 0.0)
(-0.17095334957159047 0.17578052815900022 0.0)
(-0.05658205057212685 0.07589582668210308 0.0)
(0.08492128793669591 -0.023012961343673605 0.0)
(0.23619589944321442 -0.10246143468255743 0.0)
(0.37779861126405934 -0.1469399847695341 0.0)
(0.4911770458050778 -0.14644265098350912 0.0)
(0.5615555109003131 -0.09812466602707116 0.0)
(0.580247078638841 -0.006822918414386553 0.0)
(0.5459996570371471 0.11564071776841547 0.0)
(0.4651482943546458 0.2522548199029659 0.0)
(0.35055123295552987 0.38341674781264223 0.0)
(0.21949647175754294 0.4899112936572444 0.0)
(0.09094115122244913 0.5557921276964265 0.0)
(-0.01744351567579856 0.5707136890665485 0.0)
(-0.09192322929262876 0.5313608712845596 0.0)
(-0.12461163002874473 0.44177966105597266 0.0)
(-0.1143442909445039 0.3125959754534024 0.0)
(-0.06640738152929013 0.15929013507063594 0.0)
(0.00878355573557539 -0.00016001756491991825 0.0)
(0.09777787982101571 -0.14786723683862765 0.0)
(0.1865538987510435 -0.2684383223214241 0.0)
(0.2628998290846188 -0.35083234792474566 0.0)
(0.3182933347352839 -0.38942681999756096 0.0)
(0.3489714130572572 -0.3841941727207896 0.0)
(0.3560455843833569 -0.3400475494562144 0.0)
(0.34470165380294143 -0.26555020622653064 0.0)
(0.3226935094044363 -0.17127378012080838 0.0)
(0.2984647184206195 -0.06812303248683214 0.0)
(0.2792877444893612 0.03408397073167807 0.0)
(0.2697896348034225 0.1275717689791013 0.0)
(0.27114119074622667 0.2070047007740815 0.0)
(0.28104363371168295 0.2693531709942247 0.0)
(0.2944817820500559 0.3133633747233684 0.0)
(0.30505860587844724 0.33883473316623497 0.0)
(0.30661279346092657 0.3459299190861346 0.0)
(0.294770134084429 0.334711655482493 0.0)
(0.26809994198613135 0.30502702862934095 0.0)
(0.22863407063351426 0.2567611165448054 0.0)
(0.18164001460759344 0.19037957985512244 0.0)
(0.13469371520009152 0.10759719028842431 0.0)
(0.09624087855469604 0.01196452916377127 0.0)
(0.07393932399667218 -0.09083131119153766 0.0)
(0.07311871011310664 -0.1931040171026164 0.0)
(0.09566966789383373 -0.28580464012202433 0.0)
(0.13958729611274606 -0.35960795546601304 0.0)
(0.19926202171055593 -0.4062911252420732 0.0)
(0.2664607213728739 -0.4201652161388442 0.0)
(0.3318029417653627 -0.3992825288454603 0.0)
(0.3864386954113802 -0.34615948115376083 0.0)
(0.42359525017995425 -0.267825305325663 0.0)
(0.4396882512480926 -0.1751196838497203 0.0)
(0.43478167094583875 -0.0812975136022305 0.0)
(0.41231347839985305 -0.00013109392122652666 0.0)
(0.37815291309651333 0.05619623672714082 0.0)
(0.33919085876595073 0.07905641749937631 0.0)
(0.3017597165094172 0.06486099074704656 0.0)
(0.27021413826719226 0.015790266892381808 0.0)
(0.2459717224596521 -0.060385602598064476 0.0)
(0.22721944541426828 -0.15139528572261957 0.0)
(0.2093556127329182 -0.24231047852995516 0.0)
(0.18608551494803602 -0.3178589029911487 0.0)
(0.15095211877947984 -0.3648339860407351 0.0)
(0.09898867028894442 -0.3742067192161659 0.0)
(0.02814747189774826 -0.34259034568787966 0.0)
(-0.05980435113264115 -0.27281377495011616 0.0)
(-0.15913188149547286 -0.1735068694864234 0.0)
(-0.2607886121233921 -0.057764465534727256 0.0)
(-0.35378848842744587 0.058892126699911784 0.0)
(-0.42705569416025513 0.16092336948470334 0.0)
(-0.4714129083129909 0.23515966252901255 0.0)
(-0.48133160692867677 0.2727884332591399 0.0)
(-0.4561030216291562 0.27063118249774654 0.0)
(-0.4001898190636748 0.23152312053199708 0.0)
(-0.3226677375118224 0.16375736040605351 0.0)
(-0.23583523963594677 0.07970667072745033 0.0)
(-0.15322564862039173 -0.006136944125414819 0.0)
(-0.08737033747445247 -0.07938151906007156 0.0)
(-0.047711387778974636 -0.127863104992283 0.0)
(-0.03903795904554293 -0.14336344615038868 0.0)
(-0.06072672949914337 -0.12267919921994459 0.0)
(-0.10692076414356905 -0.06791866161813442 0.0)
(-0.16761050798401467 0.013971776695183746 0.0)
(-0.23041737972446819 0.11233274253942387 0.0)
(-0.28275520802434156 0.21436168834190114 0.0)
(-0.31398069060869577 0.30687296283006377 0.0)
(-0.31715258171131633 0.37799077058515135 0.0)
(-0.2900979671855937 0.4185551686745563 0.0)
(-0.23561701562112491 0.4230882529779281 0.0)
(-0.1608190887123933 0.3902490767883411 0.0)
(-0.07574206791191043 0.3227856685687492 0.0)
(0.008466838438080052 0.22705715753718006 0.0)
(0.08146002195949396 0.11223965830581009 0.0)
(0.13533688120501297 -0.010656527456200526 0.0)
(0.1657428416476013 -0.1298404233165626 0.0)
(0.17225021670978477 -0.23377189029883302 0.0)
(0.15799679050117002 -0.31210922945999514 0.0)
(0.12870293614689618 -0.3565375821907924 0.0)
(0.09130373210878044 -0.361458323940072 0.0)
(0.052496690239735286 -0.3245214846377251 0.0)
(0.017506834856000703 -0.2469737852795481 0.0)
(-0.010689701593832713 -0.133780643623207 0.0)
(-0.0315509000133044 0.006529749488894959 0.0)
(-0.046563325913651595 0.16234984156423724 0.0)
(-0.058375897930713676 0.31983232394325267 0.0)
(-0.06970202339584686 0.46407400866106774 0.0)
(-0.08226698776149341 0.5805759722133356 0.0)
(-0.09606418196597295 0.6568499641109219 0.0)
(-0.10911215209456854 0.6839862403629472 0.0)
(-0.11778957913947738 0.6579642471183599 0.0)
(-0.11769134170830799 0.5804866251645138 0.0)
(-0.10482425404186979 0.4591553150065531 0.0)
(-0.07687283942141478 0.30688533487073116 0.0)
(-0.0342334291273111 0.14055833736903658 0.0)
(0.019452482486675367 -0.020961463713382117 0.0)
(0.07744204069223459 -0.15921234326276373 0.0)
(0.1307529806716049 -0.2585981653199735 0.0)
(0.1696330848211229 -0.3085663932434801 0.0)
(0.18538937943867728 -0.3051551014131371 0.0)
(0.17223543845656653 -0.25163956231976864 0.0)
(0.12878553940988044 -0.15813588513527765 0.0)
(0.058867838997213734 -0.04017796798357088 0.0)
(-0.028560246925092188 0.08355073434730206 0.0)
(-0.1204516647065957 0.19400549690306806 0.0)
(-0.20154252896702027 0.27466724932466696 0.0)
(-0.2567717728595567 0.314076414072136 0.0)
(-0.25123416874049764 0.3117864569664146 0.0)
(-0.2526738154117514 0.27208936660443406 0.0)
(-0.2147755849958352 0.1857303234134163 0.0)
(-0.13940183024638195 0.06785982771634518 0.0)
(-0.03400714217776725 -0.06080016638480122 0.0)
(0.08923953981176624 -0.17730830286242832 0.0)
(0.21514162916831564 -0.2602467202402415 0.0)
(0.3277161965934847 -0.2932409326673296 0.0)
(0.41262984447041523 -0.2676767620936829 0.0)
(0.45942479063194913 -0.1841669822236695 0.0)
(0.46315754016102284 -0.05252908172330649 0.0)
(0.4251669400810447 0.10971553391134341 0.0)
(0.35283457998824475 0.2800645930375507 0.0)
(0.2583727539033609 0.43452339267915613 0.0)
(0.15684277795838636 0.5512809576294632 0.0)
(0.06373917324946071 0.6139753038301178 0.0)
(-0.007450958865747835 0.61403033776987 0.0)
(-0.047302513391837844 0.5517144170594737 0.0)
(-0.05178105358805698 0.4357936198255152 0.0)
(-0.022636259672765984 0.2818911854643742 0.0)
(0.033182906638066306 0.1098762958638904 0.0)
(0.10496264494778412 -0.05924606595143613 0.0)
(0.18023352615080873 -0.2064112751691817 0.0)
(0.24698517014835056 -0.3170384898714854 0.0)
(0.29569074184763583 -0.3826625355952941 0.0)
(0.32079109456789023 -0.4014563559637554 0.0)
(0.32139615790395554 -0.37765280886418123 0.0)
(0.30111033545452914 -0.32006821908236294 0.0)
(0.26705102457569124 -0.24007559622053842 0.0)
(0.22827469236613385 -0.14944788219863497 0.0)
(0.1939267227430877 -0.058480701384883975 0.0)
(0.1714715685116716 0.025284283222537344 0.0)
(0.16533250752750217 0.09755965044438614 0.0)
(0.1761822074039855 0.15703187250197478 0.0)
(0.20099435686400988 0.204458754977335 0.0)
(0.23381855086358228 0.24142476332374627 0.0)
(0.26710385799824543 0.2690918141574376 0.0)
(0.2932967486224276 0.2872665654456683 0.0)
(0.3063944302144663 0.2940199302467048 0.0)
(0.30315232462198893 0.2859595345239439 0.0)
(0.2837195439059516 0.2591000541385812 0.0)
(0.25159296334127224 0.21013268640514787 0.0)
(0.21291535408168075 0.1377936907477935 0.0)
(0.1752695190899657 0.043994542247643334 0.0)
(0.1462141462576562 -0.06558863712927822 0.0)
(0.13185068297279132 -0.18166721040425513 0.0)
(0.13569661300576152 -0.2922863732935111 0.0)
(0.15807313398461692 -0.3844528585026737 0.0)
(0.19610884499811543 -0.44618159137892466 0.0)
(0.24433749966244056 -0.4685959610808654 0.0)
(0.2957519700351562 -0.4476819918261167 0.0)
(0.3430911367552492 -0.38533968983584016 0.0)
(0.3800978421751727 -0.2894890343870431 0.0)
(0.4025010653967767 -0.17315334461137885 0.0)
(0.40854001288414704 -0.05262872774921108 0.0)
(0.3989478895311631 0.05497985956581752 0.0)
(0.3764277667889443 0.1344504595723318 0.0)
(0.3447585365153558 0.1749046770856569 0.0)
(0.30774385143373667 0.17160655622261448 0.0)
(0.2682460439248839 0.1267766538349179 0.0)
(0.22752457231635734 0.04926533093287672 0.0)
(0.1850294293573769 -0.046873575342296116 0.0)
(0.13869859390528627 -0.1446759128530497 0.0)
(0.08569609294654879 -0.22704292183365282 0.0)
(0.023427029247681624 -0.27953111425567956 0.0)
(-0.049400884407412915 -0.2926862413971485 0.0)
(-0.1319187220535488 -0.26353188647161113 0.0)
(-0.22065644515298882 -0.19597123093370925 0.0)
(-0.309657052585369 -0.10004899477023999 0.0)
(-0.3911684327780374 0.009784451144462795 0.0)
(-0.4568157187812051 0.11709781057343624 0.0)
(-0.49905130389773483 0.2061733499528969 0.0)
(-0.5126110306256277 0.26451698965200776 0.0)
(-0.4956882551186857 0.2847739860579119 0.0)
(-0.450577351770232 0.2657535012100233 0.0)
(-0.38362849676908 0.21242568042076274 0.0)
(-0.30447996445961595 0.1349323640153303 0.0)
(-0.22466941277395766 0.046815421169079004 0.0)
(-0.15584591163252062 -0.03721302114098285 0.0)
(-0.10788640995771043 -0.10357554570005305 0.0)
(-0.08724756287424883 -0.14183678912255046 0.0)
(-0.09585019429128434 -0.14611345505859252 0.0)
(-0.1307044987278744 -0.11570661028288083 0.0)
(-0.18435531257070722 -0.05491716112891991 0.0)
(-0.24608194031571856 0.027858088135019728 0.0)
(-0.3036528079423642 0.12154472612900903 0.0)
(-0.34533644940289737 0.21405643444214212 0.0)
(-0.3618252398337478 0.29393213041504107 0.0)
(-0.3477450627344607 0.3517088164605303 0.0)
(-0.30249937027483675 0.3808710844737076 0.0)
(-0.23031562128227903 0.3783125363090503 0.0)
(-0.13950349200024947 0.3443357133941395 0.0)
(-0.04107134530826924 0.28228747389670417 0.0)
(0.05304483874648818 0.19796432141380368 0.0)
(0.1318267001589708 0.09892350903265827 0.0)
(0.18677865549643735 -0.006194101360003025 0.0)
(0.2130347361913491 -0.10827248409470153 0.0)
(0.20980967479042142 -0.19825577168626787 0.0)
(0.18016211698531645 -0.26764642583165005 0.0)
(0.13016323268083146 -0.30901883646027245 0.0)
(0.06766570912713708 -0.31658879283108654 0.0)
(0.0009276127643518653 -0.2868414144197183 0.0)
(-0.06264686882615669 -0.21916691843056124 0.0)
(-0.1174315436455486 -0.11640037890307545 0.0)
(-0.16003313606087397 0.014874889047547926 0.0)
(-0.189249046848343 0.16440649545795066 0.0)
(-0.20560550279831857 0.3188482780544019 0.0)
(-0.21063684050519105 0.4628753349853284 0.0)
(-0.20611090796333553 0.5807851825157606 0.0)
(-0.19340265118285388 0.6584248946699821 0.0)
(-0.17316970030129808 0.6851904161929693 0.0)
(-0.14540155326807597 0.655785489947025 0.0)
(-0.10981628488795664 0.5714208938403319 0.0)
(-0.06648735520523572 0.44018800968619587 0.0)
(-0.016518533285630885 0.27645074257719393 0.0)
(0.03743792514800462 0.09925135051937897 0.0)
(0.09099979544981814 -0.07010588192352193 0.0)
(0.13832141047602342 -0.21097408417659072 0.0)
(0.1728207132444223 -0.3063554221638796 0.0)
(0.18827081600950676 -0.34548927250876155 0.0)
(0.18006494462024672 -0.32559682259084294 0.0)
(0.14640318025113042 -0.25245659464364884 0.0)
(0.08913836394612455 -0.13966338265190908 0.0)
(0.014062045815451526 -0.006636218985316401 0.0)
(-0.06949641422398477 0.12434679557760321 0.0)
(-0.14975957784214058 0.23163520632452386 0.0)
(-0.21414818858337037 0.29765976759785784 0.0)
(-0.251234168740497 0.3117864569664152 0.0)
(-0.212167067137115 0.303665131070245 0.0)
(-0.19445218919046595 0.2360121454547941 0.0)
(-0.14753999593778344 0.1199410019555946 0.0)
(-0.07626831385151299 -0.025458902589085626 0.0)
(0.011048824087711337 -0.17563387525796104 0.0)
(0.10371896327679475 -0.30454305440356133 0.0)
(0.19018437436175414 -0.38892982306643686 0.0)
(0.25972228798835795 -0.41217609102626573 0.0)
(0.3040618662546743 -0.3670936047335675 0.0)
(0.3186512549704806 -0.257183874904905 0.0)
(0.30335857725340853 -0.09615708586364706 0.0)
(0.2624805549190121 0.0942046836713331 0.0)
(0.20404666905445118 0.2874751570044008 0.0)
(0.13852566415145467 0.4567227457266878 0.0)
(0.07714374404762775 0.5786677955388646 0.0)
(0.030091539301431186 0.6371731525285343 0.0)
(0.004917363291584194 0.625509031831339 0.0)
(0.005373287359300618 0.5470536504026422 0.0)
(0.030903225055480658 0.41436560591759974 0.0)
(0.07685195684705985 0.24684296525970234 0.0)
(0.1353502600971258 0.06741784362978324 0.0)
(0.1967159184356942 -0.10111671410323403 0.0)
(0.251123754206084 -0.23951281401561025 0.0)
(0.2902551370173886 -0.334648005853534 0.0)
(0.3086458945193114 -0.3808938580096427 0.0)
(0.3045091718349835 -0.38012209959229637 0.0)
(0.2799057140471838 -0.34045012220563964 0.0)
(0.24025065667355539 -0.27405026718766834 0.0)
(0.1932620646115581 -0.1944997044731111 0.0)
(0.1475514041966378 -0.1142036933830169 0.0)
(0.11111327730547266 -0.0423773395293692 0.0)
(0.08998164666803846 0.016067758929924496 0.0)
(0.08728175759117966 0.06058564494734236 0.0)
(0.10282907274147568 0.09408120458714911 0.0)
(0.13332393853165278 0.12129007285970218 0.0)
(0.1730827086899468 0.14686058989262124 0.0)
(0.2151524778030224 0.17359367382719906 0.0)
(0.25259405528280854 0.20124984012438557 0.0)
(0.27969676646770125 0.2262017509931447 0.0)
(0.2929115365755675 0.2420231261301627 0.0)
(0.2913496859278994 0.24089909400832987 0.0)
(0.2767812016078488 0.21556097689698644 0.0)
(0.2531608766800388 0.16132705940443157 0.0)
(0.22579557181870252 0.07779493141847935 0.0)
(0.2003253915265263 -0.030211618932702713 0.0)
(0.181715603596948 -0.15269810311337656 0.0)
(0.17344167408445513 -0.2756184425429609 0.0)
(0.17700139041537297 -0.38290576484946115 0.0)
(0.19181667822423157 -0.4590742961647702 0.0)
(0.21550844196989796 -0.49192505375652895 0.0)
(0.24445662913115207 -0.47484903412641716 0.0)
(0.27450856900122134 -0.4082792595323123 0.0)
(0.3016803881459879 -0.29998781377511397 0.0)
(0.32271129407478377 -0.16412950112075228 0.0)
(0.33537419594790685 -0.01916183723316578 0.0)
(0.338508141018278 0.11502098692180711 0.0)
(0.3318044712422969 0.22025389359776576 0.0)
(0.31543490443151273 0.2830190215731392 0.0)
(0.28964378261776574 0.29660687905233896 0.0)
(0.2544312877461754 0.26214212706362827 0.0)
(0.20942868316960012 0.18829519675353856 0.0)
(0.15401634137892134 0.08973274711732163 0.0)
(0.08767157214864113 -0.01541843989655086 0.0)
(0.010470235970167194 -0.10864840241644835 0.0)
(-0.07638191742771815 -0.17414602684779726 0.0)
(-0.17013394001993173 -0.20135690739072526 0.0)
(-0.2663254788280231 -0.18658834860483678 0.0)
(-0.35896638018406285 -0.1334078047079525 0.0)
(-0.4410862006621343 -0.05179751429419639 0.0)
(-0.5056016821419158 0.043753852025257944 0.0)
(-0.5463765204994672 0.13686138908837847 0.0)
(-0.5592938708060671 0.2120837671271402 0.0)
(-0.5431401661037258 0.2574965846649188 0.0)
(-0.5001152600352249 0.2665681539164716 0.0)
(-0.43583757603064854 0.23904559298849448 0.0)
(-0.35879543814053605 0.1807442525726858 0.0)
(-0.27929271435752784 0.10232948370482088 0.0)
(-0.208030639837165 0.017350577928642422 0.0)
(-0.15454050774150083 -0.06009747532571204 0.0)
(-0.12571948834986385 -0.11766632463343656 0.0)
(-0.12471599581346413 -0.14661737483877432 0.0)
(-0.1503614352407239 -0.142973608925377 0.0)
(-0.19725954607880675 -0.10782302094516447 0.0)
(-0.2565373686162584 -0.046795576324636066 0.0)
(-0.3171517132914864 0.031122044034986213 0.0)
(-0.36755129251233754 0.11516962483114294 0.0)
(-0.39743398597698426 0.19448831389804935 0.0)
(-0.3993218267446492 0.25960059376611727 0.0)
(-0.36970618667372657 0.30348064241352607 0.0)
(-0.3095869454740467 0.3221057013158169 0.0)
(-0.22432946922779415 0.31449315456462706 0.0)
(-0.1228743639683284 0.28232621069590946 0.0)
(-0.0164378625500085 0.22933378742916563 0.0)
(0.0830821736486723 0.1606069001028258 0.0)
(0.16474085734179988 0.08200496349998315 0.0)
(0.21997263884038548 -0.00025822932853555175 0.0)
(0.24360672179886722 -0.07983901616090874 0.0)
(0.234346347517051 -0.1503635431427915 0.0)
(0.19468062656244423 -0.20551654664606253 0.0)
(0.13029044967021247 -0.23924379385309721 0.0)
(0.0490855130952461 -0.24616097827129257 0.0)
(-0.0399446764347018 -0.22219463799808714 0.0)
(-0.1278729488144743 -0.16539413092599922 0.0)
(-0.2068018092544073 -0.07676976992537922 0.0)
(-0.2705403384439476 0.03904637008648589 0.0)
(-0.31494247463286174 0.17353541322087976 0.0)
(-0.3379265982953195 0.3146027876842659 0.0)
(-0.3392514361592131 0.44755701584234553 0.0)
(-0.32015527900466595 0.5567222622904112 0.0)
(-0.2829697111130933 0.6275123290713208 0.0)
(-0.23079702718820538 0.6486712781347046 0.0)
(-0.1672994604925902 0.6143072507086754 0.0)
(-0.09659938249762587 0.5253325920719266 0.0)
(-0.02324528328000261 0.38998462730583305 0.0)
(0.047830248911067075 0.2232324334400379 0.0)
(0.11143985090294972 0.04505632637419612 0.0)
(0.1624179184476076 -0.12221235160630234 0.0)
(0.196064023473662 -0.2571201314894675 0.0)
(0.2087209794707743 -0.3423880794093228 0.0)
(0.19840406252838771 -0.36772701176331146 0.0)
(0.16536011320701838 -0.3316696805253601 0.0)
(0.11242143324393483 -0.2420588730608719 0.0)
(0.04503531046868226 -0.11504323325536545 0.0)
(-0.029104800209993745 0.027317225817134593 0.0)
(-0.100832828516081 0.16049001433402185 0.0)
(-0.1606169821813982 0.2614140812921564 0.0)
(-0.19985584143052246 0.31230305860187885 0.0)
(-0.21216706713711453 0.3036651310702456 0.0)
(-0.14519387284251267 0.2890116781748193 0.0)
(-0.10638200027643191 0.20236680224793888 0.0)
(-0.05138134027010819 0.06797604407895196 0.0)
(0.011840145945155872 -0.09284475213981591 0.0)