/*--------------------------------*- C++ -*----------------------------------*\
  =========                 |
  \\      /  F ield         | OpenFOAM: The Open Source CFD Toolbox
   \\    /   O peration     | Website:  https://openfoam.org
    \\  /    A nd           | Version:  10
     \\/     M anipulation  |
\*---------------------------------------------------------------------------*/
FoamFile
{
    format      ascii;
    class       volScalarField;
    location    "0.451496";
    object      rho;
}
// * * * * * * * * * * * * * * * * * * * * * * * * * * * * * * * * * * * * * //

dimensions      [1 -3 0 0 0 0 0];

internalField   nonuniform List<scalar> 
16320
(
0.658916
0.676195
0.677197
0.652961
0.626988
0.624007
0.629531
0.636941
0.648761
0.670805
0.704309
0.75948
0.795376
0.809961
0.813745
0.809943
0.803155
0.803785
0.810022
0.819315
0.836992
0.859917
0.882154
0.900359
0.915272
0.929048
0.942585
0.948437
0.927449
0.854952
0.829168
0.845438
0.903236
0.710427
0.719694
0.717392
0.675473
0.638
0.627412
0.629584
0.636943
0.649035
0.666922
0.706688
0.763609
0.802098
0.821121
0.831416
0.83728
0.840184
0.846585
0.855974
0.863399
0.872188
0.883107
0.894434
0.906584
0.918626
0.931907
0.939358
0.930021
0.876986
0.824474
0.827739
0.851499
0.925374
0.780208
0.783423
0.773593
0.710361
0.659025
0.642035
0.641335
0.647305
0.65722
0.670146
0.698179
0.753116
0.800566
0.829081
0.847718
0.860303
0.867062
0.87342
0.878942
0.880729
0.883233
0.88819
0.89356
0.90027
0.910384
0.916875
0.911292
0.872606
0.82131
0.814567
0.828856
0.871454
0.966972
0.852853
0.859784
0.848049
0.770425
0.696774
0.669336
0.663287
0.665937
0.672113
0.680282
0.696013
0.724877
0.759246
0.796268
0.82583
0.846651
0.857456
0.862216
0.864681
0.864286
0.86285
0.86173
0.863012
0.867431
0.872529
0.864501
0.837255
0.809323
0.806101
0.819
0.847534
0.924179
1.0091
0.884567
0.902148
0.905682
0.864229
0.775978
0.722841
0.700788
0.694048
0.693055
0.695423
0.701661
0.71411
0.72624
0.740997
0.754421
0.769497
0.783928
0.792323
0.797144
0.799543
0.798671
0.797843
0.797083
0.794447
0.790659
0.781879
0.782296
0.791702
0.809423
0.836285
0.897266
0.981168
1.04422
0.803826
0.844164
0.868148
0.871816
0.839555
0.798746
0.765614
0.741943
0.726404
0.716514
0.710295
0.709251
0.710762
0.711137
0.711327
0.710892
0.711011
0.711938
0.712199
0.713025
0.713957
0.715611
0.718279
0.722793
0.732164
0.746275
0.764807
0.791097
0.826351
0.887882
0.965166
1.02914
1.07646
0.691828
0.70734
0.732092
0.758947
0.783732
0.789348
0.779726
0.761554
0.743635
0.729024
0.715549
0.702203
0.691689
0.683738
0.678805
0.674181
0.671873
0.67004
0.669255
0.669795
0.671271
0.674902
0.681383
0.691948
0.707696
0.731135
0.765139
0.817394
0.880589
0.937064
0.99942
1.04933
1.08677
0.662374
0.669505
0.678767
0.687975
0.701662
0.719495
0.732091
0.732341
0.723188
0.710775
0.698079
0.685511
0.672624
0.662403
0.65402
0.6483
0.645144
0.643277
0.643682
0.645776
0.64976
0.656471
0.666674
0.682448
0.706896
0.744843
0.78914
0.837734
0.887292
0.933665
0.988377
1.03788
1.07484
0.650931
0.6545
0.657153
0.658221
0.657443
0.655378
0.652986
0.65308
0.656632
0.658226
0.655835
0.65002
0.642567
0.636508
0.631486
0.628783
0.628354
0.629854
0.632948
0.637957
0.645167
0.654715
0.667765
0.684366
0.706955
0.736914
0.770238
0.810225
0.847959
0.887585
0.940116
1.00572
1.04873
0.644783
0.647362
0.648243
0.643729
0.633839
0.619916
0.604957
0.591688
0.582108
0.576385
0.578897
0.584491
0.590617
0.595694
0.599368
0.602264
0.605502
0.609976
0.615559
0.62215
0.629687
0.638698
0.64942
0.660678
0.671563
0.682195
0.69354
0.709993
0.740401
0.792169
0.889339
0.971102
1.01733
0.654244
0.660659
0.658525
0.64825
0.631301
0.609091
0.584942
0.563045
0.544768
0.532635
0.526116
0.524506
0.526928
0.533607
0.543202
0.55351
0.562596
0.570676
0.577803
0.584868
0.590142
0.59414
0.595959
0.594722
0.594492
0.598898
0.61072
0.631327
0.672361
0.769233
0.878638
0.946578
0.980884
0.681768
0.684085
0.675434
0.6592
0.633205
0.60419
0.576847
0.55068
0.528055
0.512199
0.503097
0.499568
0.500282
0.503636
0.509008
0.51595
0.523333
0.530975
0.538083
0.545037
0.549859
0.554913
0.559415
0.561734
0.5649
0.572606
0.585329
0.608142
0.672429
0.791568
0.874487
0.913803
0.924539
0.719989
0.707257
0.686978
0.662127
0.631046
0.600924
0.574706
0.549329
0.522482
0.502974
0.491894
0.487563
0.487621
0.49109
0.496608
0.503311
0.510284
0.517979
0.524537
0.531903
0.537061
0.543114
0.548678
0.551353
0.555076
0.56321
0.5763
0.61379
0.724369
0.815244
0.854143
0.860986
0.808633
0.729346
0.701102
0.670851
0.638209
0.604666
0.575534
0.554598
0.537848
0.522052
0.502821
0.488996
0.482301
0.481182
0.484234
0.490092
0.497001
0.504907
0.512137
0.519391
0.52588
0.531251
0.538161
0.543247
0.545214
0.550563
0.559849
0.585501
0.683024
0.77942
0.812434
0.803478
0.745579
0.739788
0.719949
0.683191
0.645832
0.607454
0.571866
0.544624
0.525465
0.512243
0.505849
0.502319
0.49537
0.486708
0.481809
0.482514
0.487076
0.493498
0.500654
0.507918
0.515773
0.521647
0.527532
0.534189
0.537466
0.541434
0.549396
0.568492
0.655352
0.757952
0.78782
0.766387
0.700034
0.699085
0.718164
0.717476
0.678488
0.633974
0.586493
0.547962
0.517223
0.497025
0.48676
0.48475
0.489387
0.492064
0.491381
0.488002
0.486025
0.486726
0.490377
0.496712
0.503273
0.509924
0.515227
0.522013
0.529011
0.53368
0.541465
0.557302
0.632931
0.744808
0.774216
0.746296
0.67115
0.670079
0.685909
0.700513
0.728021
0.679358
0.625385
0.574811
0.529813
0.493187
0.472196
0.460933
0.464237
0.472792
0.480406
0.483504
0.482493
0.482371
0.483733
0.48673
0.492048
0.4964
0.501219
0.508467
0.517913
0.525738
0.534526
0.550072
0.619103
0.73863
0.760155
0.734978
0.659839
0.650955
0.665622
0.673306
0.668886
0.717456
0.657493
0.601253
0.55339
0.509919
0.473799
0.449607
0.43419
0.433442
0.445787
0.461597
0.469997
0.472002
0.474019
0.475892
0.477921
0.479334
0.483822
0.492427
0.5055
0.51752
0.529047
0.546746
0.618812
0.726392
0.750023
0.725625
0.65355
0.643299
0.658597
0.659816
0.645567
0.606925
0.690842
0.628826
0.57724
0.534737
0.495876
0.462357
0.429901
0.410888
0.407238
0.41589
0.431493
0.444501
0.452976
0.456472
0.456362
0.457442
0.465508
0.47806
0.493534
0.508191
0.522077
0.545239
0.620733
0.715538
0.740152
0.715658
0.651424
0.642593
0.651581
0.653004
0.629402
0.582895
0.558391
0.652886
0.590083
0.544531
0.506431
0.475015
0.44705
0.418483
0.394524
0.387836
0.394829
0.40516
0.414409
0.423977
0.429161
0.437754
0.450227
0.464113
0.479298
0.496725
0.515502
0.544422
0.628243
0.703111
0.726146
0.708513
0.646346
0.639118
0.645856
0.651763
0.614993
0.567855
0.536212
0.51296
0.602258
0.546755
0.502906
0.470325
0.449963
0.430844
0.408683
0.388664
0.377267
0.380229
0.389904
0.398309
0.40927
0.421467
0.43558
0.450168
0.466104
0.485106
0.508644
0.547794
0.636987
0.690717
0.710141
0.697396
0.644271
0.637239
0.643333
0.646629
0.602024
0.557587
0.532235
0.503141
0.484876
0.575975
0.51964
0.469483
0.437648
0.423613
0.414521
0.401322
0.389668
0.380763
0.38111
0.388958
0.398265
0.409083
0.422905
0.438483
0.455904
0.477285
0.508847
0.56827
0.638386
0.67696
0.693523
0.681792
0.63758
0.632101
0.637386
0.639046
0.604287
0.557986
0.542513
0.521323
0.495452
0.483291
0.564683
0.509146
0.459866
0.430078
0.416748
0.40731
0.397776
0.39203
0.387992
0.388212
0.394538
0.404352
0.417253
0.432988
0.451981
0.480507
0.529306
0.594255
0.63663
0.663396
0.67385
0.659977
0.627862
0.62548
0.631204
0.632704
0.606406
0.56405
0.554328
0.539032
0.519985
0.502925
0.507771
0.569575
0.518742
0.470773
0.435279
0.421561
0.414616
0.405933
0.403809
0.402945
0.403868
0.412989
0.425109
0.441662
0.469358
0.514864
0.564506
0.602874
0.631032
0.649124
0.65207
0.634068
0.616138
0.616937
0.623811
0.626498
0.609922
0.572578
0.562416
0.555567
0.540824
0.538583
0.555939
0.598237
0.594132
0.547518
0.524985
0.496195
0.471116
0.454177
0.446173
0.443556
0.446953
0.456561
0.469341
0.491679
0.521398
0.553589
0.580139
0.603751
0.620671
0.628765
0.63147
0.606117
0.602897
0.606701
0.614788
0.618949
0.609151
0.582683
0.573228
0.566454
0.560969
0.567121
0.599845
0.648819
0.676346
0.595642
0.558598
0.544985
0.53801
0.530907
0.523544
0.519078
0.516249
0.520258
0.529323
0.54091
0.555643
0.570734
0.582911
0.593542
0.605389
0.609952
0.598078
0.587276
0.588166
0.595725
0.604274
0.610217
0.606067
0.5916
0.583564
0.575436
0.570055
0.577137
0.615296
0.666739
0.684929
0.691883
0.587707
0.552417
0.548672
0.546788
0.546532
0.549746
0.550586
0.552893
0.553513
0.559013
0.563791
0.571027
0.578373
0.583775
0.583595
0.578929
0.56934
0.569344
0.574201
0.583371
0.592684
0.60026
0.60163
0.596996
0.592437
0.586551
0.573549
0.578107
0.607253
0.663426
0.682661
0.688202
0.681954
0.546521
0.519003
0.522116
0.528387
0.52912
0.53853
0.545164
0.549401
0.554765
0.556549
0.55919
0.559987
0.555113
0.550867
0.547736
0.54763
0.554324
0.560886
0.57164
0.581706
0.59047
0.596429
0.598393
0.597887
0.594286
0.576526
0.575051
0.590647
0.644155
0.67268
0.67917
0.671644
0.664466
0.51209
0.48449
0.479202
0.477332
0.487152
0.49441
0.502796
0.507844
0.513666
0.5175
0.51777
0.520499
0.523984
0.528427
0.532894
0.541979
0.551153
0.561602
0.571458
0.580841
0.588919
0.595191
0.599253
0.596515
0.583104
0.570293
0.576754
0.612319
0.656019
0.666697
0.663873
0.656356
0.660472
0.530422
0.485518
0.463663
0.463968
0.46547
0.470695
0.476718
0.482853
0.489474
0.496004
0.50249
0.509991
0.518046
0.525902
0.533806
0.542941
0.552664
0.562564
0.572518
0.58119
0.588857
0.594529
0.594156
0.585315
0.566604
0.56519
0.581731
0.630173
0.650555
0.654736
0.653754
0.661839
0.679102
0.558172
0.496845
0.474398
0.464911
0.465261
0.469759
0.475773
0.482883
0.48988
0.497701
0.50517
0.513408
0.52099
0.528729
0.536301
0.54558
0.554987
0.564577
0.573083
0.580332
0.585507
0.585871
0.580564
0.566081
0.552886
0.558956
0.59207
0.629497
0.641273
0.648353
0.661066
0.684407
0.695454
0.602903
0.528894
0.488979
0.476855
0.473136
0.476908
0.483524
0.490524
0.497937
0.504545
0.511849
0.518911
0.526733
0.534049
0.541833
0.549889
0.557563
0.564282
0.569836
0.573496
0.573228
0.569444
0.560113
0.542958
0.541483
0.555598
0.59772
0.622651
0.635706
0.652493
0.679659
0.69354
0.696532
0.646062
0.564111
0.513408
0.487959
0.483589
0.484389
0.491349
0.498974
0.506847
0.513908
0.520645
0.526533
0.532326
0.538149
0.543474
0.548917
0.553227
0.556908
0.559324
0.558629
0.555027
0.548274
0.536117
0.526006
0.531445
0.555822
0.595517
0.616534
0.634787
0.665203
0.685987
0.693356
0.682919
0.665551
0.604449
0.540691
0.507673
0.494237
0.494058
0.499362
0.508725
0.51673
0.523553
0.529404
0.534142
0.53784
0.540691
0.542756
0.544899
0.546226
0.546512
0.546039
0.542509
0.538163
0.530119
0.515994
0.513684
0.52425
0.55638
0.59087
0.612147
0.641724
0.673524
0.686531
0.684572
0.662452
0.671923
0.633853
0.582359
0.536059
0.517752
0.517249
0.523839
0.53321
0.542944
0.551609
0.557802
0.561798
0.563655
0.563443
0.561791
0.558456
0.554223
0.550272
0.545371
0.5392
0.529492
0.513306
0.500226
0.504211
0.520728
0.556515
0.587379
0.613447
0.653167
0.676393
0.685681
0.672953
0.648311
0.666274
0.654517
0.619184
0.572909
0.542523
0.532227
0.531902
0.536154
0.543045
0.551312
0.558672
0.565528
0.571852
0.577308
0.581447
0.583428
0.582472
0.577705
0.566932
0.549005
0.522619
0.49386
0.489215
0.497961
0.521227
0.558071
0.586226
0.622905
0.661578
0.67944
0.681766
0.660629
0.640321
0.658741
0.659029
0.647002
0.60952
0.563823
0.535124
0.521621
0.518012
0.519374
0.524256
0.529368
0.535497
0.542536
0.549963
0.557322
0.563975
0.568048
0.566337
0.555794
0.535066
0.50323
0.479765
0.482948
0.496304
0.525128
0.560012
0.590439
0.638058
0.66769
0.68285
0.676493
0.650825
0.635629
0.657138
0.658131
0.661297
0.642713
0.591771
0.542351
0.51519
0.50224
0.497304
0.493585
0.492872
0.497513
0.505387
0.515781
0.526452
0.536292
0.541971
0.540478
0.527184
0.500485
0.472367
0.470567
0.480829
0.500413
0.531448
0.562815
0.604952
0.650822
0.673943
0.683762
0.669824
0.642721
0.634379
0.667317
0.658642
0.668758
0.666589
0.622874
0.554192
0.507731
0.484073
0.469203
0.453738
0.446599
0.448721
0.456048
0.468681
0.483111
0.493774
0.501148
0.495016
0.472325
0.453403
0.456842
0.467331
0.483353
0.508065
0.536437
0.572225
0.62677
0.66119
0.682111
0.686176
0.669474
0.642905
0.635573
0.694344
0.664569
0.668514
0.682851
0.650956
0.574713
0.509816
0.472918
0.44356
0.420152
0.410003
0.410313
0.416717
0.428977
0.440469
0.449055
0.45196
0.444012
0.437014
0.443936
0.45503
0.469167
0.488953
0.513077
0.543904
0.595059
0.644948
0.671957
0.690139
0.690499
0.67321
0.646983
0.639327
0.746384
0.681897
0.673915
0.689116
0.678175
0.603914
0.523305
0.47084
0.428297
0.397962
0.386166
0.385394
0.390664
0.400267
0.408375
0.415847
0.420352
0.422585
0.431927
0.44318
0.4563
0.472758
0.493412
0.521325
0.564353
0.623165
0.660636
0.685625
0.700684
0.70011
0.68387
0.657514
0.646138
0.824187
0.718056
0.684647
0.690478
0.699287
0.636358
0.545467
0.476789
0.421483
0.387512
0.376318
0.374637
0.378527
0.387157
0.396021
0.403693
0.412214
0.421411
0.432372
0.444737
0.459073
0.476968
0.502428
0.542279
0.599698
0.650192
0.680203
0.703657
0.716778
0.717892
0.705047
0.680721
0.65911
0.87376
0.778892
0.70639
0.698872
0.711949
0.667846
0.573982
0.49044
0.42433
0.388582
0.376961
0.374623
0.378167
0.385432
0.395556
0.403586
0.413285
0.422716
0.433997
0.446508
0.46265
0.486242
0.522682
0.576002
0.635975
0.677994
0.707011
0.729613
0.742943
0.745869
0.735729
0.713483
0.68886
0.891701
0.855985
0.746899
0.712985
0.716581
0.696563
0.607561
0.512369
0.435965
0.396356
0.382447
0.379081
0.382484
0.389949
0.398743
0.406875
0.414303
0.42405
0.434878
0.448861
0.469312
0.500627
0.545964
0.602428
0.65977
0.705083
0.739444
0.765982
0.78432
0.79366
0.792412
0.777321
0.753628
0.898474
0.895563
0.80892
0.736091
0.726366
0.719199
0.642711
0.540402
0.455013
0.408324
0.391056
0.386425
0.389743
0.397047
0.402344
0.408506
0.415289
0.424279
0.435566
0.452021
0.477063
0.513404
0.560178
0.611218
0.660984
0.713237
0.762851
0.800083
0.829924
0.852951
0.870675
0.883327
0.891569
0.881163
0.912024
0.880777
0.774754
0.742428
0.735458
0.677902
0.573745
0.481291
0.424537
0.402335
0.395553
0.397659
0.402676
0.40611
0.409228
0.415353
0.423158
0.434859
0.452723
0.478936
0.514514
0.55651
0.598178
0.637923
0.683473
0.735071
0.784831
0.828287
0.862508
0.888691
0.911581
0.93139
0.852815
0.917916
0.920188
0.832986
0.764956
0.747157
0.710547
0.612208
0.514234
0.445022
0.416476
0.405999
0.405812
0.407583
0.408179
0.409821
0.413639
0.420864
0.43293
0.45097
0.475518
0.504656
0.531524
0.558844
0.589701
0.626685
0.661852
0.694408
0.729409
0.759562
0.781569
0.798266
0.811427
0.854812
0.902616
0.938373
0.898386
0.798803
0.764411
0.738268
0.6554
0.552947
0.473624
0.43529
0.419414
0.413988
0.412019
0.410996
0.41086
0.412182
0.418722
0.429438
0.444819
0.464901
0.487204
0.510084
0.53577
0.564569
0.594266
0.620224
0.643392
0.663388
0.678519
0.691854
0.703861
0.715948
0.865158
0.869706
0.946534
0.946965
0.849125
0.78614
0.756469
0.69287
0.590362
0.504544
0.454649
0.433326
0.423013
0.416665
0.41304
0.41085
0.409802
0.41513
0.424437
0.436818
0.451708
0.469359
0.488298
0.508617
0.532119
0.556285
0.577732
0.597326
0.613621
0.625751
0.63723
0.647608
0.663353
0.8776
0.860861
0.933914
0.975019
0.91363
0.81614
0.775681
0.729714
0.633056
0.541451
0.478113
0.449384
0.434337
0.423665
0.417146
0.411307
0.406299
0.407418
0.413242
0.421908
0.430893
0.441056
0.452213
0.463868
0.47612
0.487613
0.497026
0.507006
0.516962
0.528057
0.537437
0.55056
0.570366
0.892432
0.866477
0.90697
0.991998
0.971919
0.856362
0.796416
0.75963
0.677516
0.580589
0.506248
0.467373
0.447455
0.433736
0.423582
0.414727
0.40712
0.40477
0.407001
0.412302
0.417055
0.421191
0.42604
0.431109
0.436171
0.442055
0.447339
0.452756
0.459249
0.465532
0.472115
0.47792
0.48924
0.912871
0.878429
0.884959
0.995155
1.0112
0.912747
0.820903
0.778518
0.718821
0.62187
0.543489
0.488758
0.462873
0.446047
0.432739
0.42121
0.411916
0.406804
0.407077
0.410556
0.413944
0.416132
0.418826
0.421386
0.423571
0.427011
0.430772
0.434491
0.439356
0.445039
0.448723
0.452574
0.45748
0.937286
0.893814
0.870581
0.964811
1.03648
0.977058
0.849124
0.795423
0.754321
0.665646
0.58167
0.51687
0.480494
0.460593
0.444277
0.431046
0.419161
0.412265
0.410999
0.413488
0.416344
0.417956
0.419708
0.421232
0.422557
0.424712
0.427014
0.427801
0.429331
0.433844
0.435821
0.436677
0.43823
0.955204
0.914495
0.875677
0.924316
1.05253
1.02982
0.890061
0.818233
0.781283
0.710537
0.621099
0.553267
0.50351
0.477131
0.459698
0.443708
0.429811
0.420983
0.418029
0.419464
0.422372
0.424864
0.426706
0.427223
0.426626
0.426944
0.427607
0.42637
0.425704
0.427425
0.429185
0.42814
0.425501
0.970615
0.939697
0.890776
0.896899
1.03599
1.06388
0.955357
0.842583
0.802783
0.755162
0.665461
0.593358
0.534103
0.498959
0.477906
0.461326
0.445574
0.434107
0.429582
0.430506
0.43358
0.43485
0.436202
0.436294
0.433028
0.428729
0.427577
0.428284
0.427489
0.427407
0.426849
0.424626
0.419581
0.982743
0.959156
0.911876
0.882985
0.986327
1.08647
1.02555
0.875465
0.821473
0.794936
0.715726
0.635342
0.574497
0.527557
0.503225
0.487056
0.472741
0.460252
0.453088
0.451175
0.450914
0.449197
0.447035
0.443757
0.437845
0.432293
0.428554
0.429521
0.430227
0.431327
0.430461
0.426707
0.420309
0.990807
0.974804
0.941154
0.891155
0.930068
1.08796
1.07855
0.92736
0.843326
0.82011
0.767561
0.682885
0.621213
0.568921
0.533527
0.513136
0.49952
0.488051
0.479926
0.47423
0.470397
0.466422
0.461319
0.454896
0.446342
0.439532
0.433345
0.43295
0.434242
0.435119
0.433778
0.431927
0.427693
0.996352
0.986042
0.96066
0.908778
0.904627
1.04234
1.10687
1.00762
0.87032
0.832119
0.812447
0.737465
0.668012
0.620066
0.578643
0.548975
0.529072
0.516444
0.506102
0.498318
0.492332
0.486856
0.480452
0.47283
0.462933
0.454227
0.445621
0.442044
0.441814
0.441436
0.43946
0.438137
0.435365
1.00204
0.991547
0.974588
0.940037
0.897308
0.956375
1.11377
1.08169
0.914227
0.846009
0.835396
0.78657
0.716309
0.666793
0.632725
0.603959
0.580259
0.560715
0.545762
0.534465
0.526422
0.520185
0.513614
0.506155
0.49653
0.486329
0.47546
0.466329
0.459833
0.454626
0.451558
0.449057
0.445266
1.0087
0.995015
0.98196
0.959025
0.908769
0.91909
1.06927
1.11721
0.992929
0.868891
0.839435
0.824225
0.758681
0.705363
0.674532
0.655964
0.641374
0.629182
0.619414
0.610445
0.604084
0.600365
0.598608
0.598521
0.598309
0.59314
0.583701
0.566041
0.540145
0.507844
0.481449
0.470987
0.462121
1.01395
1.00102
0.983585
0.969005
0.935687
0.900828
0.961438
1.11886
1.08203
0.913866
0.844251
0.834788
0.793683
0.736316
0.701877
0.687167
0.680678
0.677354
0.675877
0.676323
0.67886
0.683476
0.689634
0.69757
0.706203
0.712255
0.71631
0.713582
0.698166
0.667848
0.612433
0.54878
0.501187
1.01728
1.00577
0.985881
0.96963
0.949307
0.904924
0.91289
1.05452
1.11321
0.995958
0.869001
0.832961
0.809933
0.753808
0.717885
0.705009
0.701223
0.7008
0.703524
0.707796
0.712709
0.717985
0.722818
0.727295
0.729689
0.730678
0.732929
0.734468
0.74241
0.745731
0.726638
0.678273
0.616036
1.01748
1.00929
0.98761
0.96617
0.949207
0.92733
0.895216
0.931205
1.088
1.07568
0.919751
0.838921
0.818194
0.769157
0.721673
0.702715
0.696368
0.695726
0.696716
0.697772
0.696677
0.692757
0.685471
0.676309
0.668713
0.667527
0.66755
0.669779
0.678858
0.70135
0.741966
0.733449
0.694188
1.01578
1.01132
0.990621
0.963732
0.940149
0.929769
0.900413
0.898739
0.984628
1.08253
1.0098
0.869411
0.81385
0.787619
0.74133
0.712374
0.701739
0.699679
0.70008
0.700466
0.699595
0.69801
0.695207
0.695781
0.702127
0.709483
0.701236
0.685359
0.671338
0.667036
0.682362
0.736719
0.72171
1.01259
1.01043
0.993323
0.959955
0.933088
0.917531
0.913436
0.888104
0.898488
1.02053
1.05636
0.932227
0.834525
0.78922
0.76082
0.732203
0.723272
0.725243
0.735928
0.753748
0.779576
0.814325
0.85967
0.919319
0.952512
0.960916
0.892204
0.784928
0.704241
0.66503
0.649987
0.675263
0.725655
1.00627
1.00727
0.993662
0.955056
0.92535
0.906036
0.903259
0.893061
0.878111
0.901548
1.01994
1.00901
0.872113
0.802202
0.767731
0.751143
0.742664
0.757532
0.789425
0.832991
0.88653
0.947177
1.00821
1.06084
1.09179
1.1119
1.09828
1.01575
0.841511
0.695265
0.644202
0.635492
0.695569
0.998313
1.00246
0.988961
0.949376
0.915841
0.894657
0.885644
0.885838
0.872445
0.865077
0.909561
1.00572
0.945196
0.830409
0.776874
0.758908
0.757883
0.768175
0.794624
0.83026
0.870739
0.914499
0.960471
1.01961
1.08465
1.12663
1.14729
1.11827
1.00917
0.807508
0.658712
0.621765
0.634539
0.990821
0.995341
0.981861
0.941358
0.902965
0.881839
0.869783
0.866378
0.865639
0.852399
0.845597
0.939817
0.98001
0.894005
0.798507
0.762569
0.75586
0.761612
0.770929
0.777615
0.775984
0.778017
0.803231
0.883534
1.00903
1.09728
1.13693
1.13384
1.06392
0.914325
0.701606
0.62146
0.610273
0.983711
0.98651
0.969709
0.930167
0.889126
0.865815
0.853463
0.847223
0.846928
0.841228
0.82434
0.833327
0.944174
0.950131
0.857419
0.786889
0.756619
0.739318
0.721274
0.702768
0.687007
0.685956
0.71927
0.812181
0.948072
1.05422
1.10902
1.11811
1.06808
0.950217
0.752812
0.629369
0.600523
0.975815
0.977493
0.954356
0.910605
0.874898
0.85017
0.836215
0.828557
0.825438
0.825814
0.811891
0.795955
0.849754
0.949409
0.93445
0.847378
0.785947
0.745795
0.708876
0.679317
0.664034
0.66378
0.692691
0.787587
0.921679
1.02811
1.0758
1.08097
1.0379
0.951757
0.769271
0.634058
0.59716
0.967645
0.966373
0.936011
0.885975
0.856503
0.834801
0.819433
0.810715
0.80592
0.805692
0.799772
0.778493
0.776635
0.895747
0.960836
0.935243
0.847295
0.773618
0.721963
0.686504
0.668491
0.670643
0.702009
0.818186
0.943642
1.02039
1.04075
1.03026
0.96431
0.885225
0.753934
0.635441
0.595184
0.958373
0.953238
0.916133
0.860746
0.833791
0.818147
0.803961
0.794052
0.788321
0.785617
0.784662
0.767887
0.751218
0.78743
0.950368
0.990236
0.94097
0.834258
0.751436
0.708702
0.69181
0.706483
0.774095
0.888716
0.969728
1.00561
1.00518
0.953973
0.877474
0.787166
0.670068
0.620148
0.593964
0.946364
0.937665
0.893785
0.835904
0.812706
0.801559
0.789737
0.779569
0.773055
0.7694
0.768128
0.759327
0.729196
0.733637
0.877026
0.999213
0.995117
0.923958
0.832594
0.773281
0.7647
0.802756
0.869639
0.94082
0.986233
0.983022
0.941999
0.849773
0.744856
0.673006
0.637333
0.614949
0.594967
0.930144
0.918108
0.868205
0.815109
0.797787
0.786895
0.777224
0.767115
0.760146
0.755998
0.752729
0.743519
0.709023
0.699901
0.769018
0.970381
1.01564
0.978773
0.917788
0.871489
0.860266
0.886964
0.936416
0.981937
0.973634
0.936531
0.832738
0.694911
0.644958
0.633183
0.625459
0.6156
0.600099
0.908877
0.894134
0.840573
0.800185
0.785382
0.776125
0.766087
0.757715
0.750617
0.746019
0.738952
0.724904
0.683493
0.663813
0.697236
0.899534
1.00893
1.0069
0.975697
0.941185
0.931152
0.960076
0.985698
0.973424
0.932485
0.807744
0.668144
0.627201
0.61692
0.618369
0.624269
0.628202
0.61694
0.882567
0.865201
0.815002
0.788239
0.77508
0.769452
0.759591
0.750048
0.741892
0.735967
0.72482
0.699451
0.644607
0.618202
0.649478
0.862368
1.0011
1.01338
1.00543
0.989571
0.992328
0.995497
0.980423
0.926073
0.771073
0.645528
0.609735
0.603726
0.605571
0.607002
0.616869
0.635366
0.634136
0.854144
0.836074
0.795392
0.778098
0.770459
0.764633
0.752663
0.741962
0.734835
0.725521
0.705255
0.652947
0.598376
0.589186
0.63107
0.851786
0.994452
1.02526
1.02641
1.01682
1.0053
0.983378
0.918129
0.756882
0.635229
0.599039
0.594772
0.595217
0.591173
0.587862
0.595905
0.637175
0.642615
0.825689
0.808879
0.783893
0.772877
0.771125
0.758938
0.747019
0.736541
0.727928
0.71129
0.665535
0.601634
0.575531
0.578358
0.646554
0.879299
1.00295
1.02817
1.02279
1.00372
0.978267
0.899939
0.726432
0.613774
0.584113
0.58782
0.597363
0.601008
0.591451
0.581335
0.587448
0.640469
0.64892
0.800678
0.790002
0.773758
0.769636
0.770505
0.756232
0.74093
0.730141
0.716834
0.679384
0.612355
0.578732
0.572734
0.593185
0.735149
0.93055
0.993774
1.00121
0.992979
0.957848
0.866199
0.686554
0.596088
0.583564
0.596272
0.611915
0.617156
0.613064
0.592672
0.577712
0.584088
0.644141
0.656566
0.780279
0.776565
0.769025
0.773546
0.769834
0.752664
0.73396
0.720892
0.693553
0.629003
0.591242
0.582987
0.594351
0.680917
0.84702
0.930288
0.954512
0.954715
0.914177
0.792772
0.652659
0.59445
0.585134
0.609017
0.631643
0.640097
0.641313
0.631762
0.603701
0.57964
0.582502
0.638361
0.664351
0.767911
0.770889
0.770434
0.777813
0.771538
0.743206
0.724835
0.705658
0.651837
0.610172
0.596996
0.610022
0.672967
0.787286
0.852875
0.881414
0.877754
0.830489
0.713536
0.624749
0.596767
0.59319
0.623995
0.651691
0.673804
0.685511
0.687133
0.673649
0.628898
0.590045
0.583163
0.619235
0.671463
0.760888
0.769084
0.774419
0.781669
0.771181
0.733573
0.715474
0.68055
0.624177
0.607258
0.617427
0.66927
0.746465
0.78245
0.787215
0.763476
0.717476
0.650045
0.608217
0.595401
0.598722
0.623709
0.648492
0.674761
0.700502
0.715058
0.728086
0.726089
0.68506
0.611794
0.587574
0.604651
0.661218
0.756348
0.769813
0.77981
0.787817
0.766986
0.72569
0.703585
0.651959
0.615913
0.611951
0.649138
0.715753
0.742777
0.720248
0.675371
0.648183
0.616238
0.595322
0.589178
0.590452
0.605533
0.626315
0.658809
0.688451
0.706585
0.727741
0.749226
0.759472
0.747484
0.666078
0.60351
0.599499
0.638626
0.754385
0.773469
0.787152
0.793965
0.763628
0.717087
0.690981
0.631329
0.61525
0.620007
0.673108
0.724683
0.713676
0.661603
0.625811
0.604519
0.592839
0.582492
0.580504
0.583378
0.593588
0.628693
0.665547
0.689071
0.708487
0.729252
0.754593
0.778173
0.783257
0.745022
0.635741
0.603445
0.618964
0.753536
0.778893
0.794891
0.799922
0.760921
0.709376
0.678681
0.623348
0.615181
0.631572
0.691704
0.72775
0.698002
0.647654
0.612493
0.590849
0.571125
0.560689
0.559137
0.565811
0.60945
0.651621
0.676351
0.692238
0.70857
0.729382
0.752637
0.781019
0.801932
0.794858
0.707497
0.620339
0.607398
0.752787
0.784677
0.801729
0.806726
0.759229
0.700074
0.668851
0.621246
0.617049
0.642368
0.707077
0.731036
0.691325
0.641952
0.597431
0.56046
0.544596
0.539593
0.55359
0.597306
0.647259
0.669111
0.679721
0.688873
0.6999
0.714558
0.736517
0.762195
0.79802
0.812046
0.777798
0.655663
0.609695
0.751038
0.789299
0.808786
0.814286
0.761817
0.691565
0.662298
0.621722
0.619341
0.652033
0.716207
0.714068
0.675408
0.620086
0.571299
0.543151
0.533842
0.549891
0.59523
0.645955
0.664959
0.67112
0.668063
0.662494
0.657225
0.663114
0.684882
0.712769
0.757044
0.808859
0.80368
0.721027
0.620108
0.747441
0.790328
0.814792
0.821848
0.767729
0.686318
0.656922
0.622857
0.621247
0.662369
0.704914
0.687798
0.645932
0.598754
0.558891
0.540668
0.549158
0.590452
0.643333
0.66216
0.663608
0.641482
0.610031
0.575869
0.553384
0.549968
0.575792
0.612983
0.677224
0.768084
0.806696
0.763772
0.646087
0.741762
0.78753
0.819303
0.829287
0.778079
0.683356
0.65228
0.623403
0.620289
0.658745
0.68346
0.660413
0.621368
0.584182
0.557002
0.555289
0.583716
0.638163
0.657995
0.657475
0.624752
0.555312
0.477226
0.425599
0.404766
0.401926
0.423807
0.462601
0.551374
0.683894
0.793258
0.779692
0.686559
0.734944
0.778245
0.820811
0.835138
0.794704
0.68238
0.64572
0.622521
0.616362
0.648175
0.660221
0.637899
0.606199
0.577582
0.564888
0.579763
0.63041
0.65763
0.657817
0.622809
0.530252
0.417909
0.373398
0.362732
0.361824
0.358526
0.358486
0.374558
0.421064
0.576813
0.763985
0.78192
0.717527
0.728071
0.76359
0.817652
0.837511
0.81172
0.686755
0.640687
0.620071
0.610605
0.632603
0.642969
0.623393
0.598844
0.579638
0.577843
0.613983
0.657456
0.662863
0.63955
0.548929
0.423098
0.375271
0.364182
0.3644
0.365883
0.357182
0.348432
0.353991
0.390813
0.529642
0.720232
0.779166
0.731769
0.724301
0.74517
0.807824
0.835923
0.825685
0.704284
0.637583
0.616428
0.604578
0.615705
0.631195
0.616678
0.596432
0.584386
0.595729
0.646024
0.670981
0.668012
0.619493
0.504157
0.403587
0.379982
0.380023
0.403304
0.408614
0.385744
0.366293
0.370054
0.420172
0.568179
0.729674
0.773525
0.740867
0.723507
0.733423
0.787714
0.831159
0.833248
0.735917
0.634897
0.612074
0.599175
0.602004
0.621925
0.612275
0.597537
0.593264
0.614604
0.66017
0.682303
0.67782
0.624079
0.503877
0.419529
0.407309
0.410588
0.427916
0.448443
0.454593
0.4524
0.456661
0.522902
0.663978
0.742381
0.763184
0.738454
0.725769
0.728144
0.761511
0.821654
0.833865
0.773489
0.635695
0.607527
0.594011
0.59005
0.611888
0.612473
0.601318
0.603542
0.624901
0.668629
0.697196
0.698078
0.663327
0.583288
0.487062
0.448537
0.437813
0.439677
0.468868
0.5032
0.541316
0.582057
0.62937
0.698508
0.727953
0.734698
0.718433
0.735903
0.725703
0.746363
0.805445
0.829709
0.804069
0.651844
0.603066
0.58837
0.580672
0.598121
0.610344
0.606676
0.60903
0.62495
0.663044
0.710996
0.738781
0.753578
0.741834
0.672864
0.522511
0.470469
0.457085
0.465148
0.507689
0.550347
0.586305
0.616762
0.639189
0.655135
0.666059
0.670024
0.755078
0.729771
0.737915
0.780613
0.821375
0.815677
0.706266
0.600309
0.582722
0.574032
0.583952
0.604496
0.60898
0.609524
0.618868
0.645978
0.702599
0.747876
0.779394
0.805649
0.809829
0.737763
0.583489
0.479663
0.452945
0.445336
0.452638
0.46953
0.476073
0.485696
0.495075
0.515749
0.550777
0.78867
0.739525
0.734367
0.761625
0.810817
0.817767
0.760565
0.606544
0.578173
0.568625
0.571726
0.596645
0.605452
0.607137
0.611685
0.62697
0.66768
0.732412
0.769039
0.810239
0.837864
0.839485
0.803854
0.70611
0.556289
0.471229
0.442417
0.415711
0.400635
0.396634
0.402757
0.418393
0.449725
1.0124
1.09864
1.11321
1.0377
1.19507
1.11571
0.988349
0.837765
1.02667
1.10772
1.13382
1.06009
1.13596
1.14947
1.05936
0.956079
1.04792
1.11555
1.14437
1.09281
1.08942
1.13201
1.10275
1.0386
1.06987
1.12331
1.15129
1.14287
1.07762
1.09672
1.09425
1.05373
1.09028
1.12917
1.1525
1.15924
1.08686
1.0631
1.06938
1.05243
1.11113
1.13738
1.15387
1.16224
1.12816
1.04987
1.03722
1.03211
1.11583
1.13513
1.14639
1.15299
1.13964
1.05943
1.01224
1.00916
1.10079
1.11821
1.12632
1.1303
1.12038
1.06569
0.999042
0.981775
1.07614
1.09156
1.09717
1.08754
1.07933
1.04522
0.991452
0.960607
1.04198
1.05032
1.03439
0.991342
0.980841
0.982216
0.967436
0.945673
0.990439
0.953618
0.911295
0.895229
0.899612
0.913753
0.923923
0.923986
0.876411
0.844471
0.843942
0.85633
0.872435
0.892239
0.907619
0.912344
0.789936
0.801122
0.820843
0.843043
0.86342
0.883894
0.893166
0.890043
0.758229
0.78081
0.803146
0.821701
0.840476
0.845338
0.839451
0.827094
0.738817
0.754602
0.762522