/*--------------------------------*- C++ -*----------------------------------*\
  =========                 |
  \\      /  F ield         | OpenFOAM: The Open Source CFD Toolbox
   \\    /   O peration     | Website:  https://openfoam.org
    \\  /    A nd           | Version:  10
     \\/     M anipulation  |
\*---------------------------------------------------------------------------*/
FoamFile
{
    format      ascii;
    class       volScalarField;
    location    "0.451496";
    object      T;
}
// * * * * * * * * * * * * * * * * * * * * * * * * * * * * * * * * * * * * * //

dimensions      [0 0 0 1 0 0 0];

internalField   nonuniform List<scalar> 
16320
(
0.00306805
0.00298332
0.00300525
0.00315923
0.00336799
0.00348207
0.00356083
0.0036375
0.00368737
0.00366573
0.00356186
0.00334381
0.00320434
0.00313987
0.003108
0.00310574
0.00312817
0.00314509
0.00317065
0.00321817
0.00325944
0.00329122
0.00331603
0.00333399
0.00333913
0.00332081
0.00328239
0.003262
0.00333987
0.00364005
0.00378851
0.00376897
0.00359844
0.00293752
0.00291211
0.0029639
0.00320231
0.00347658
0.00362807
0.00371204
0.00376747
0.00378971
0.00376479
0.00360731
0.00337214
0.00322623
0.00315592
0.00311738
0.0031034
0.00311166
0.00312482
0.00314351
0.00317913
0.00320734
0.00322162
0.00323556
0.00324612
0.00324915
0.00323987
0.00324047
0.00329171
0.00351159
0.0037652
0.00379022
0.00373868
0.00350809
0.00280262
0.00281606
0.00291207
0.00323286
0.00356725
0.00374249
0.00382438
0.0038641
0.00387455
0.00385722
0.00374681
0.00350586
0.00332004
0.00321874
0.00315892
0.00312642
0.00312112
0.00312071
0.00312015
0.00312915
0.00313755
0.00314442
0.00315634
0.00317323
0.00318863
0.00321951
0.00328918
0.00347555
0.00373347
0.00380379
0.00378231
0.0036497
0.00335191
0.00271723
0.00273356
0.00282969
0.00317371
0.00358004
0.00379085
0.00388174
0.00391636
0.00392468
0.00391468
0.0038581
0.0037292
0.00357555
0.00341895
0.0033001
0.00321805
0.00317118
0.00314428
0.00312645
0.00311964
0.00312006
0.0031286
0.00314772
0.00318055
0.00322972
0.00333703
0.00352312
0.00371524
0.00378815
0.00377792
0.00369867
0.00344106
0.00320576
0.00277293
0.00276621
0.00280828
0.00299294
0.00337902
0.00367388
0.00382254
0.00388247
0.00390459
0.0039034
0.00387703
0.00381251
0.00374367
0.0036563
0.00357043
0.00347236
0.00337774
0.00330922
0.00325767
0.00322465
0.00321899
0.00323079
0.00326621
0.00334127
0.00344914
0.00359838
0.00370678
0.0037591
0.00375404
0.0036963
0.00349634
0.00324316
0.00309457
0.00318871
0.00309303
0.00306315
0.0031003
0.00325397
0.00343498
0.00358738
0.00369395
0.00375706
0.0037894
0.00380217
0.00378274
0.00374203
0.00369895
0.00364928
0.00359909
0.00354825
0.00350049
0.00346609
0.00344257
0.00343612
0.0034468
0.00348113
0.00354009
0.00360532
0.0036677
0.00371105
0.00370981
0.00364995
0.00347415
0.00324991
0.00309204
0.00299505
0.00379117
0.0037698
0.00370509
0.00362408
0.00354129
0.00352356
0.00354159
0.00358345
0.00362131
0.00364387
0.00365964
0.00367213
0.00366658
0.00364591
0.00361113
0.00358033
0.00354603
0.00352115
0.00350385
0.00349445
0.00349629
0.00350756
0.00353165
0.00356421
0.00360015
0.00362444
0.00360969
0.0035202
0.00338217
0.00326704
0.0031263
0.00302215
0.00295083
0.00400184
0.00401212
0.00400819
0.00398922
0.00392595
0.00381047
0.00368943
0.00361467
0.00357904
0.00355951
0.00354675
0.00353677
0.00353255
0.00352154
0.00351077
0.00349809
0.00348478
0.00347702
0.00346985
0.00346623
0.0034678
0.00347365
0.00348311
0.00348831
0.00347748
0.0034322
0.00337957
0.0033254
0.00326919
0.00321403
0.00311506
0.0030197
0.00294937
0.00406541
0.00407018
0.00407442
0.00407427
0.00406243
0.00402306
0.00394567
0.00383421
0.00370004
0.00358986
0.00351413
0.00346665
0.00344048
0.00342032
0.00340912
0.00339957
0.00339121
0.00338451
0.00338037
0.0033781
0.00337587
0.00337458
0.00337088
0.0033671
0.00335608
0.00333327
0.00331798
0.00329257
0.00328346
0.00326017
0.00317676
0.00304047
0.00296071
0.00403666
0.00400945
0.00398875
0.00398614
0.00398934
0.00398692
0.00397
0.00393007
0.00386921
0.00379392
0.00368568
0.00357955
0.00349253
0.00343036
0.00339273
0.00337415
0.00336509
0.00336027
0.00335873
0.00336072
0.00336704
0.00337472
0.00338265
0.00339822
0.00342793
0.003473
0.00353158
0.00358088
0.00357442
0.00348004
0.00322264
0.0030401
0.00296471
0.00386757
0.00377738
0.00373225
0.00371856
0.00372197
0.00373904
0.00376399
0.00378398
0.00379807
0.00379368
0.0037736
0.00373585
0.00368969
0.00363297
0.00357527
0.003528
0.00350058
0.00348882
0.00349092
0.00350063
0.00352732
0.00356673
0.00362416
0.00370576
0.00378861
0.00385251
0.00388284
0.00387223
0.00376353
0.00342455
0.0031175
0.00299554
0.00297163
0.00358422
0.00347617
0.00341962
0.00339253
0.00340404
0.00343421
0.00347146
0.0035282
0.00359653
0.003656
0.00369306
0.00370821
0.00370865
0.00370432
0.00369695
0.00368829
0.00368524
0.00368772
0.00369978
0.00371772
0.00375324
0.00378861
0.00382821
0.00388303
0.0039333
0.00395709
0.00395582
0.00390264
0.00363421
0.00319263
0.00299998
0.00297999
0.00304801
0.00326124
0.00318678
0.00314173
0.00311421
0.00311879
0.0031356
0.00316662
0.00323182
0.00335339
0.00347254
0.00356269
0.00362725
0.00366935
0.00369318
0.00370887
0.00372175
0.00373762
0.0037521
0.00377744
0.00379814
0.00383411
0.00386149
0.00388923
0.00393422
0.00396964
0.00397496
0.00395053
0.00377779
0.00328092
0.0030006
0.00296663
0.0030595
0.00338346
0.00309406
0.00304536
0.00300539
0.00298105
0.00297975
0.00298809
0.00300165
0.00304149
0.00312655
0.00326984
0.00341995
0.00353695
0.00361935
0.00367419
0.00371038
0.0037403
0.00376359
0.00379182
0.00381854
0.00384864
0.0038831
0.0039013
0.00392734
0.00397077
0.00398573
0.00397099
0.00384813
0.00335384
0.00299902
0.00295231
0.00308399
0.0034475
0.00361484
0.00301754
0.00296958
0.00292873
0.00290856
0.00290972
0.00291674
0.00293811
0.00298561
0.00303972
0.00312034
0.00325477
0.00341185
0.00354843
0.00364514
0.00371112
0.00376023
0.00380008
0.00383549
0.00386214
0.00389781
0.00392667
0.0039429
0.0039773
0.00400087
0.00399051
0.00389973
0.00342368
0.00300242
0.00294267
0.00309776
0.00349024
0.00361562
0.00365949
0.00292365
0.00284998
0.00281142
0.00281642
0.00283244
0.00287424
0.00292586
0.00298396
0.00303467
0.00309411
0.00318954
0.00331506
0.00346133
0.00359649
0.00370764
0.00378983
0.00384499
0.00389083
0.00392798
0.00396733
0.00398717
0.00399765
0.00401853
0.0040106
0.00394035
0.00350631
0.00301377
0.00294112
0.00310659
0.00352337
0.00361798
0.00364216
0.00369617
0.00278729
0.00272112
0.00269867
0.00271038
0.00276667
0.00286313
0.00294842
0.00303519
0.00307504
0.00312629
0.00320644
0.00332573
0.00347406
0.00361159
0.00373039
0.00382757
0.00389655
0.00396265
0.00401501
0.00403886
0.00403688
0.0040399
0.004028
0.00396246
0.00355988
0.00301819
0.00297008
0.00311646
0.00352628
0.00363739
0.00363241
0.00368622
0.00382932
0.00273002
0.00268064
0.00266322
0.00267997
0.00276018
0.00288947
0.00302275
0.00315892
0.00324008
0.00326785
0.00329773
0.00339151
0.00353141
0.00366486
0.00378956
0.00390203
0.00400817
0.00407615
0.00409903
0.00407702
0.0040559
0.00403147
0.00395589
0.00354015
0.00305418
0.00299693
0.00313979
0.00353365
0.00364081
0.00361219
0.00367038
0.00383733
0.00419276
0.00272778
0.00267815
0.00265864
0.00268318
0.0027769
0.00292262
0.00313392
0.00331748
0.00343031
0.00348195
0.00350618
0.00356526
0.00366197
0.00379188
0.00394183
0.00407034
0.00412449
0.00412746
0.00409671
0.00406605
0.00403443
0.00392827
0.00350313
0.00308413
0.00302493
0.00317252
0.00353205
0.00362768
0.00362503
0.0036664
0.00386865
0.00425327
0.00454444
0.00277036
0.00274842
0.00274366
0.00278598
0.00287544
0.00301775
0.00322423
0.00346573
0.00361069
0.00366988
0.00372735
0.00381121
0.00389612
0.00401623
0.00409361
0.00412252
0.00412809
0.00411338
0.00407237
0.00401556
0.00388116
0.00342569
0.00311517
0.00306648
0.00319109
0.00354725
0.00363594
0.00364522
0.00365672
0.00392321
0.00430923
0.0046419
0.0049493
0.00290495
0.00289468
0.00292859
0.00298266
0.00304016
0.00314941
0.00332775
0.00354802
0.00373912
0.00382915
0.00387975
0.00396098
0.00402325
0.00407189
0.00409579
0.00410736
0.00409916
0.00405786
0.00397564
0.00378484
0.00332984
0.00313565
0.00310897
0.00322057
0.00354013
0.00363149
0.0036471
0.00367474
0.00399071
0.0043551
0.00462096
0.00496253
0.00524396
0.00297057
0.00300114
0.00311508
0.00320897
0.00325243
0.0033053
0.00342557
0.00357648
0.00374126
0.00384884
0.00390622
0.0039664
0.00402007
0.00404676
0.00405447
0.00404179
0.00399156
0.00386285
0.00355976
0.00325431
0.00314755
0.00314202
0.00325986
0.00354743
0.00363627
0.00366023
0.00370092
0.00396147
0.00433236
0.00450328
0.00474203
0.00506005
0.00527509
0.0029913
0.00303981
0.00317402
0.00328229
0.00333883
0.00340381
0.00350126
0.00360043
0.00371475
0.00381501
0.00387751
0.00392185
0.00394613
0.00394975
0.00392531
0.00382777
0.0035974
0.00330849
0.00318231
0.00314252
0.00317476
0.00331603
0.0035568
0.00363641
0.00366414
0.00371196
0.00392689
0.00426596
0.00438484
0.00455523
0.00477716
0.00500034
0.00503089
0.00294372
0.00296704
0.00310205
0.00326759
0.0033416
0.00339061
0.00348225
0.00354663
0.00362559
0.00371154
0.00373963
0.00375419
0.0037423
0.00365341
0.00345414
0.00326179
0.00316031
0.00312154
0.00312947
0.00320479
0.00338104
0.00356136
0.00363155
0.00365989
0.00370786
0.00386846
0.00417321
0.00429789
0.00439554
0.00456032
0.00462854
0.00453403
0.00427766
0.00280565
0.00279859
0.00278658
0.00288954
0.00302661
0.00313874
0.00321999
0.00328277
0.00332466
0.00333353
0.00333639
0.00328516
0.00320048
0.00311587
0.00307874
0.00306223
0.00308037
0.0031416
0.00322228
0.00345145
0.00356113
0.00362169
0.00364999
0.00369646
0.00382313
0.00406096
0.00418301
0.00428352
0.00436789
0.00436473
0.00416726
0.00390361
0.00379848
0.00282471
0.00271902
0.00270513
0.00269819
0.00272462
0.00276878
0.00281976
0.00287854
0.00291328
0.00293083
0.00294475
0.00295074
0.00296206
0.00299345
0.00303683
0.00307633
0.00315008
0.00331029
0.00347093
0.00356116
0.00360498
0.00363629
0.00367809
0.00377695
0.00394004
0.00405999
0.00417663
0.00426596
0.00425858
0.00403243
0.0037669
0.0037058
0.00371836
0.0028928
0.00275685
0.0027063
0.00268316
0.00268105
0.00268501
0.00271464
0.00274916
0.0028018
0.00283838
0.00288606
0.00292769
0.00297366
0.00303218
0.00312126
0.0032386
0.00339159
0.00349053
0.00355604
0.00359112
0.00362016
0.00365522
0.00372445
0.00382891
0.0039319
0.00404088
0.00419166
0.00421253
0.00405047
0.00375454
0.00368169
0.00368946
0.00377208
0.00315714
0.00297105
0.00287133
0.00280561
0.00280454
0.0027927
0.00280048
0.0028305
0.00286208
0.00291728
0.00297333
0.00304184
0.0031463
0.00325444
0.00336222
0.00345449
0.00350405
0.00355375
0.00357465
0.00359723
0.00362443
0.00366634
0.00373128
0.00381107
0.00391015
0.00409929
0.00417543
0.00411618
0.00381934
0.00369377
0.00369122
0.00376716
0.00385172
0.00343827
0.00329988
0.00314438
0.00313929
0.00309305
0.00309156
0.0030939
0.00312285
0.00315244
0.00319833
0.00326953
0.00332893
0.00338528
0.00343687
0.00349049
0.00351477
0.0035385
0.00355344
0.00357156
0.00359077
0.00361684
0.00365373
0.00370442
0.00379855
0.00396369
0.00412048
0.00413839
0.00394638
0.0037293
0.00370047
0.00374538
0.00381825
0.00383567
0.00359131
0.00334234
0.00333407
0.00327825
0.00327515
0.0032899
0.00331073
0.00333554
0.00336079
0.00338866
0.00341808
0.00344159
0.00346187
0.00348386
0.00350621
0.00352064
0.00353234
0.00354274
0.00355189
0.00356801
0.00359067
0.00362667
0.00370214
0.0038345
0.00403295
0.00411359
0.00405148
0.00379388
0.00371044
0.00371643
0.00374618
0.00372919
0.0036756
0.00363755
0.003471
0.00334476
0.00332476
0.00331301
0.00332681
0.00335004
0.00337064
0.00339293
0.0034103
0.0034298
0.00344345
0.00346085
0.00347715
0.00349489
0.00350213
0.00350866
0.0035115
0.00352056
0.00353808
0.00356952
0.00363274
0.00373508
0.00390397
0.00406267
0.00408423
0.00390682
0.00372278
0.00368606
0.00367444
0.00362731
0.00354146
0.00352351
0.00376207
0.00348388
0.00338989
0.00330624
0.00329448
0.00329292
0.00330941
0.00333204
0.00335238
0.00337634
0.00339397
0.00341172
0.00342354
0.00343764
0.00344789
0.00345508
0.00346243
0.00347469
0.00349425
0.00352623
0.00358397
0.00366674
0.00379098
0.00397271
0.00404876
0.00400272
0.00377154
0.00366019
0.00362153
0.00355763
0.0034537
0.00342245
0.00346131
0.00387808
0.00361562
0.00339903
0.00332203
0.00325691
0.00324408
0.00324441
0.0032604
0.00327854
0.00330031
0.00332071
0.00334281
0.00336256
0.00337993
0.00339802
0.00341332
0.00343437
0.00345823
0.00348951
0.00354078
0.00361225
0.00370808
0.00384905
0.00397666
0.00399535
0.00387186
0.003666
0.00358521
0.00352231
0.00340445
0.00335244
0.00336766
0.00348315
0.00399305
0.00372215
0.00348071
0.00330354
0.00321487
0.00316576
0.00314973
0.0031458
0.0031596
0.00318203
0.00320745
0.00323564
0.00326602
0.00329894
0.00333079
0.00336036
0.00339454
0.00343177
0.00347384
0.00353565
0.00360503
0.00370528
0.00385674
0.0039283
0.00390477
0.00373407
0.00357104
0.00350181
0.00339184
0.00330057
0.00329186
0.00337153
0.00355945
0.00403085
0.00382461
0.0035195
0.00327145
0.00309562
0.00298639
0.00292803
0.00290683
0.0029036
0.0029123
0.0029334
0.00296326
0.00300094
0.00304556
0.00309856
0.00315838
0.00322017
0.00328089
0.00334564
0.00341918
0.00352089
0.00367797
0.0038207
0.00385112
0.00378867
0.00360838
0.00348493
0.00340173
0.0032725
0.00323185
0.0032614
0.00340427
0.00360973
0.00404558
0.00386293
0.00358592
0.0032616
0.00301654
0.00286966
0.00279815
0.00276786
0.00276052
0.00275973
0.0027681
0.00277924
0.00279261
0.00280927
0.00283191
0.00286394
0.00290891
0.00297237
0.00306774
0.00320852
0.0034183
0.00366369
0.00375821
0.00376089
0.00366246
0.00349601
0.00340621
0.00328362
0.00318816
0.00318023
0.00325936
0.00345307
0.00363529
0.00404333
0.00390639
0.00364678
0.00331293
0.00301886
0.00285265
0.00277844
0.00274798
0.00273745
0.00273612
0.00274463
0.00275233
0.00275858
0.0027644
0.00277309
0.00278616
0.00281337
0.00287018
0.00297397
0.00314412
0.00340617
0.00362966
0.00368151
0.00365962
0.00354001
0.00340559
0.00331569
0.00316905
0.00312181
0.00314343
0.00326995
0.00349355
0.00365519
0.00400711
0.00393475
0.00371941
0.00339358
0.0030806
0.00289244
0.00279791
0.0027683
0.00275883
0.00277578
0.00279659
0.00280267
0.00279853
0.00278413
0.00277671
0.00277636
0.00280202
0.00286797
0.00300398
0.00323722
0.00349926
0.00359275
0.00359995
0.00354467
0.00342831
0.00333095
0.00319342
0.00308171
0.0030687
0.00312741
0.00329426
0.00353221
0.00366454
0.00391057
0.00394488
0.00378221
0.0034927
0.00318733
0.00298897
0.00289696
0.00286326
0.00287834
0.00294771
0.00299006
0.00299806
0.00298178
0.00294126
0.00290702
0.00289883
0.00291991
0.00302783
0.00325411
0.00346599
0.00352999
0.00353775
0.00350936
0.00343186
0.00334714
0.00323339
0.00306565
0.00301195
0.0030214
0.00311004
0.00329423
0.00353508
0.0036663
0.00374215
0.00391966
0.00384901
0.00358515
0.00331555
0.00312154
0.00301845
0.00298011
0.00304375
0.0031589
0.00321851
0.00322527
0.00319764
0.00314301
0.00311582
0.00311421
0.00316677
0.00330464
0.00343949
0.00347656
0.00348177
0.00346769
0.00342197
0.00336046
0.00327017
0.00309045
0.00297178
0.00295437
0.00298578
0.0030931
0.003283
0.00352616
0.00366566
0.00347368
0.00382999
0.00387168
0.00368744
0.00342359
0.00324907
0.00314209
0.00310216
0.00319993
0.00334676
0.00341516
0.00341958
0.00338522
0.00333789
0.00332128
0.00332171
0.00336097
0.0034225
0.00343653
0.00343842
0.003431
0.00340682
0.00336356
0.00328572
0.00313415
0.00295619
0.00290103
0.00290072
0.00295011
0.00306316
0.00324956
0.00349582
0.0036623
0.00314662
0.00365448
0.00385771
0.00377969
0.00352175
0.00336645
0.00326601
0.00322406
0.00334365
0.0034879
0.00353313
0.0035319
0.00349419
0.00344101
0.00340918
0.0034021
0.00340214
0.00340528
0.00340402
0.00339873
0.00338646
0.00335827
0.0032909
0.0031518
0.00295345
0.00284792
0.00282984
0.00284624
0.00290576
0.00301233
0.00318149
0.00341457
0.00363764
0.00298769
0.00337929
0.00377607
0.00381349
0.00361946
0.00346944
0.00338342
0.00334268
0.00345391
0.00356097
0.0035813
0.00356551
0.0035214
0.00346696
0.00341282
0.00339537
0.00338073
0.00337948
0.00337441
0.00336981
0.00334803
0.00328688
0.00316176
0.00296988
0.00280914
0.00275525
0.00275182
0.00277865
0.00283907
0.00293715
0.00308867
0.00330032
0.00353766
0.0029511
0.00310319
0.00360672
0.00380894
0.00372452
0.00355244
0.00348208
0.00344694
0.00353276
0.00360158
0.00360189
0.00357262
0.00351939
0.00344815
0.00339991
0.0033714
0.00336968
0.00336299
0.00336046
0.00334501
0.00329604
0.0031933
0.00303639
0.00286152
0.00273528
0.00268359
0.00267349
0.00269202
0.00273593
0.00280713
0.00291377
0.00307423
0.00327933
0.00295863
0.00299402
0.00335168
0.0037444
0.00377063
0.00362476
0.00356369
0.00354036
0.00359028
0.00363571
0.00361171
0.00356633
0.00349939
0.00342292
0.00338964
0.00337058
0.00336828
0.0033635
0.00335589
0.00332179
0.00324555
0.00312262
0.00297653
0.00285024
0.00276477
0.00268987
0.00264217
0.00263053
0.00263803
0.00266343
0.00269739
0.00274411
0.0028044
0.0030608
0.00297343
0.00311692
0.00359754
0.00377689
0.00369512
0.00362315
0.00361307
0.00362872
0.0036612
0.00361984
0.00355884
0.0034845
0.00342437
0.00338951
0.00338587
0.00338106
0.00338064
0.00336707
0.00332283
0.00324176
0.0031305
0.00301873
0.00294331
0.00290338
0.00285422
0.00279065
0.00273317
0.00269711
0.00268347
0.00268222
0.00268772
0.00270088
0.00320281
0.00299142
0.00301751
0.00337477
0.00373506
0.00375273
0.00366386
0.00365225
0.00364595
0.00367788
0.00362675
0.00355801
0.00348273
0.00343283
0.00341646
0.00341144
0.00341369
0.0034131
0.00339147
0.00334506
0.00327522
0.00320918
0.00318472
0.00317852
0.00317239
0.0031485
0.00313808
0.0031326
0.00310136
0.00308047
0.00307361
0.00307614
0.0030902
0.00324753
0.00308608
0.00299487
0.00316799
0.00362106
0.00376774
0.00369705
0.00366105
0.00364668
0.00365859
0.00362101
0.0035551
0.00349233
0.00345683
0.00344474
0.00344304
0.00345058
0.00344881
0.00343251
0.00340336
0.00336415
0.00333972
0.00333457
0.00333331
0.00333231
0.00333606
0.00336298
0.00339215
0.00341676
0.00344461
0.00345802
0.00346201
0.00346093
0.00326096
0.00325241
0.00300856
0.00304203
0.00343608
0.00374367
0.00374396
0.00368008
0.00366279
0.00365286
0.00363481
0.00356965
0.0035166
0.00348971
0.00348434
0.00349219
0.00350563
0.00350203
0.00349023
0.00348024
0.00347733
0.00347818
0.00349386
0.00351949
0.00353933
0.00356301
0.00360011
0.00363672
0.00366993
0.00370144
0.00371011
0.00370926
0.00366998
0.00326765
0.00333781
0.00309094
0.00298866
0.00322515
0.0036628
0.00376129
0.00367961
0.00364914
0.00362651
0.00363566
0.00358632
0.00354079
0.00352087
0.00351703
0.00354386
0.00358231
0.0036001
0.00360822
0.00362155
0.00365993
0.00371344
0.00378091
0.0038621
0.00395077
0.0040488
0.0041558
0.00424177
0.00430399
0.00432294
0.00432733
0.00428295
0.0041792
0.00326755
0.0033725
0.00323149
0.00297503
0.00306981
0.00352304
0.00375485
0.00369007
0.00362517
0.00360073
0.00361604
0.00360362
0.00356606
0.0035471
0.0035437
0.00357738
0.00363227
0.00366557
0.00369328
0.00372788
0.00379791
0.0039006
0.00401958
0.0041542
0.00430002
0.00443971
0.00457642
0.00469378
0.00477386
0.00482433
0.00483746
0.00483521
0.00476658
0.0032487
0.00338413
0.00336701
0.00300883
0.0029855
0.0033294
0.00372043
0.00373209
0.00361292
0.00357248
0.00355972
0.00359992
0.0035858
0.00357162
0.00356753
0.00359922
0.00365599
0.0037006
0.00373154
0.00377154
0.00384597
0.00396056
0.00409391
0.00424576
0.00441126
0.0045651
0.00470628
0.0048293
0.00491471
0.00496197
0.00499924
0.00500924
0.00499558
0.00322068
0.0033857
0.00348267
0.0031537
0.00295173
0.00314982
0.00364165
0.00376151
0.00361774
0.0035431
0.00351303
0.00356586
0.00359312
0.00358872
0.00359296
0.00361073
0.00366909
0.00371877
0.00374758
0.003782
0.00384944
0.00395933
0.00409281
0.00424516
0.00440734
0.00456082
0.00470351
0.00484526
0.00495701
0.00500685
0.00505653
0.00509605
0.00511333
0.00321392
0.00336964
0.00352762
0.0033521
0.00295324
0.00303046
0.00350681
0.00376
0.00365212
0.00351942
0.00347701
0.00348994
0.00356681
0.00359489
0.0035995
0.0036198
0.00366897
0.00372191
0.00374938
0.00377779
0.00383162
0.00392162
0.00404202
0.00419141
0.0043593
0.00451644
0.00466115
0.00481085
0.00493469
0.00500743
0.00505354
0.00510969
0.00517248
0.00321577
0.0033401
0.00353568
0.00352434
0.00306021
0.00298588
0.00332038
0.00373266
0.00370171
0.00350649
0.00343208
0.00340829
0.00349926
0.00356483
0.00359027
0.0036082
0.00364847
0.00370276
0.00373251
0.00374972
0.00378654
0.00387109
0.00398131
0.00412037
0.00429956
0.0044887
0.00463694
0.00474991
0.00486093
0.00494355
0.00500821
0.00507273
0.00515987
0.0032263
0.00332949
0.00351966
0.00365203
0.00328171
0.00298152
0.00315929
0.00366922
0.00375736
0.00352098
0.00338448
0.00334242
0.00338338
0.00349232
0.00353668
0.0035507
0.00356896
0.00360945
0.0036469
0.00366989
0.00371675
0.00380912
0.00393294
0.00408581
0.00427332
0.00445916
0.00461874
0.00471305
0.00479221
0.00484772
0.00490485
0.0049783
0.00507272
0.00324705
0.00333082
0.0034748
0.00369072
0.00355314
0.00304065
0.00306409
0.00352929
0.00378244
0.00359389
0.00335855
0.0032784
0.00326007
0.0033535
0.00344928
0.00349542
0.00351018
0.00353105
0.00356325
0.00360371
0.00366338
0.00375642
0.00388623
0.00404747
0.0042392
0.00441719
0.00458287
0.00467443
0.00472956
0.00477141
0.0048185
0.00485765
0.00491413
0.00327173
0.00334269
0.00346198
0.00368694
0.00372834
0.00324174
0.00304632
0.00332233
0.00376231
0.00370772
0.00338393
0.00322283
0.00317323
0.0031882
0.00328569
0.00337998
0.00344228
0.00347414
0.00351468
0.00356239
0.00362528
0.00371495
0.00383772
0.00398915
0.0041702
0.00434163
0.00450552
0.00460738
0.00465798
0.00469085
0.00472511
0.00474175
0.00476693
0.00329034
0.00336794
0.00346434
0.00362577
0.00382705
0.00360098
0.00308935
0.00316136
0.00366302
0.00379494
0.0034978
0.00322958
0.00311794
0.00308416
0.00310605
0.0031749
0.00325556
0.00332969
0.00339624
0.00346291
0.00353249
0.00361646
0.00372398
0.00385258
0.00400435
0.0041594
0.00431156
0.00443592
0.00451905
0.0045712
0.0045942
0.0046021
0.00461424
0.00329912
0.00339052
0.00348079
0.00360433
0.00383837
0.00381843
0.00327944
0.00311893
0.00344992
0.00380271
0.00366437
0.00330232
0.00312663
0.00304744
0.00301882
0.00302025
0.00304835
0.00308762
0.00313203
0.00318424
0.00323654
0.00329119
0.00334827
0.00340401
0.00346085
0.00353899
0.00362791
0.00375096
0.00392331
0.00415305
0.0043378
0.00438751
0.00442046
0.00330545
0.00339622
0.00350548
0.00360495
0.00377174
0.00394533
0.00369947
0.00316471
0.00322942
0.00370227
0.00378832
0.00346978
0.00319182
0.00307015
0.00301218
0.00298079
0.00297288
0.00298031
0.00299591
0.00301286
0.0030281
0.00304305
0.00305771
0.00306843
0.0030747
0.00308327
0.00308392
0.00308943
0.00312822
0.00322542
0.00345326
0.00378152
0.00406759
0.00331056
0.00339489
0.0035134
0.0036219
0.00374226
0.00395898
0.00393673
0.00339914
0.00318332
0.00346104
0.0037794
0.00364786
0.00333247
0.00316787
0.00306867
0.00300977
0.00298812
0.00298619
0.00299471
0.00300739
0.00302229
0.00303931
0.00306012
0.0030826
0.00311023
0.00313407
0.00314382
0.00312984
0.0030553
0.00297203
0.00296959
0.00308776
0.00330732
0.0033176
0.00338725
0.00351074
0.0036391
0.00375081
0.00387597
0.00403701
0.0038733
0.00328714
0.0032544
0.00364063
0.00373841
0.00348266
0.0032863
0.00318833
0.00311937
0.00309531
0.00309188
0.00311339
0.00314742
0.00319329
0.00325173
0.00332611
0.00341152
0.00348955
0.00352056
0.00351969
0.00348693
0.00339296
0.00320943
0.00294558
0.00287902
0.00294191
0.00332482
0.00337827
0.00349497
0.00364111
0.00377873
0.00385988
0.00401153
0.00402011
0.00364671
0.00325597
0.0033573
0.00368165
0.00363125
0.00338344
0.00324867
0.00318508
0.00315814
0.00315174
0.003168
0.00319794
0.00323446
0.00327203
0.00331498
0.00334232
0.00333998
0.00332979
0.00337343
0.00343212
0.00345345
0.00339475
0.00321695
0.00287639
0.0028257
0.00333284
0.0033733
0.00347186
0.00363662
0.00378558
0.00388902
0.00393404
0.00405406
0.00398605
0.00345786
0.00323726
0.00347231
0.00362015
0.00350977
0.00331067
0.00320534
0.00313798
0.00309601
0.00305132
0.00299398
0.00291074
0.00280073
0.00266589
0.00251208
0.0024537
0.00245577
0.00265243
0.00299999
0.00329414
0.00340334
0.00337303
0.00312543
0.00280118
0.00334821
0.00337188
0.00345199
0.00362812
0.00378357
0.00390072
0.00394068
0.00399774
0.00405388
0.00389897
0.00335729
0.00324164
0.00350719
0.00353717
0.00340519
0.00323507
0.00313315
0.00301193
0.00286652
0.00270707
0.00254026
0.00237558
0.00223224
0.00213585
0.00210301
0.00209623
0.00214097
0.00230977
0.00274087
0.00323406
0.003381
0.00330352
0.00290776
0.00336867
0.00337387
0.00344572
0.00361692
0.00378096
0.00390134
0.00396614
0.00397896
0.00403454
0.00402997
0.00374882
0.00326056
0.00327053
0.00346747
0.00345781
0.0033136
0.00315889
0.00302639
0.00287216
0.00271071
0.00255776
0.0024146
0.00228841
0.00216348
0.00206011
0.00202121
0.00201656
0.00207509
0.00226653
0.00275591
0.00327434
0.00334922
0.00315636
0.00338967
0.00338354
0.00344591
0.0036117
0.00378684
0.00389987
0.00397361
0.00400161
0.00400149
0.00403315
0.00398469
0.0034796
0.0031792
0.00326211
0.00343143
0.00340083
0.00326629
0.00311864
0.00298669
0.00288514
0.00283246
0.00278355
0.00267688
0.00243206
0.00214999
0.00201621
0.00198833
0.00201418
0.00212795
0.0024109
0.00304363
0.00332428
0.00326285
0.00341325
0.00340075
0.00346367
0.00361664
0.00379325
0.00390668
0.00397479
0.00401167
0.00401007
0.00401465
0.00403539
0.00388144
0.00330861
0.00311857
0.00326913
0.00339269
0.0033753
0.00330342
0.00323591
0.00319922
0.00318031
0.00311978
0.00293901
0.00259027
0.0022302
0.00203912
0.00198456
0.00200356
0.00209798
0.00230447
0.00281583
0.00326394
0.00330242
0.00344444
0.00342062
0.00349347
0.00365384
0.00379926
0.00390891
0.00397497
0.00401214
0.00402307
0.00400328
0.00402789
0.00401976
0.00367091
0.00316609
0.00308695
0.00326634
0.00337261
0.00337193
0.00335194
0.00333019
0.00328976
0.0032072
0.00301927
0.00262974
0.0022484
0.0020421
0.00199838
0.0020359
0.00213538
0.00228821
0.00274334
0.00322914
0.00331345
0.00347811
0.00344899
0.0035352
0.0037134
0.00382296
0.00390769
0.00397003
0.00400464
0.0040207
0.0040063
0.00400843
0.00406003
0.00398294
0.0034024
0.00309026
0.00307886
0.00325255
0.00334566
0.00334997
0.00333184
0.00328257
0.00317586
0.00296621
0.0025105
0.00216845
0.0020268
0.00203263
0.0021067
0.00227589
0.00245137
0.00279714
0.00321542
0.00332308
0.00351264
0.00348435
0.00358431
0.00377906
0.00386805
0.00391232
0.00395808
0.00399036
0.00400712
0.00400681
0.00399771
0.00405243
0.00409645
0.00386792
0.00319665
0.00300279
0.00302321
0.00317398
0.00327178
0.0032689
0.00320242
0.00303195
0.00269739
0.00230615
0.00209981
0.00204462
0.0020909
0.00225957
0.00248518
0.00274716
0.00315092
0.00330132
0.00332904
0.00355
0.00352702
0.00364476
0.00384647
0.00390591
0.00391719
0.00394135
0.00396745
0.00398451
0.00399188
0.00399019
0.00402366
0.00417098
0.00412586
0.00348015
0.00301212
0.0028881
0.00289292
0.00298496
0.00302753
0.00292672
0.00269026
0.00241244
0.00218454
0.00206988
0.00209591
0.00223298
0.00253343
0.00292099
0.0032104
0.00332054
0.00333584
0.003328
0.0035873
0.00357883
0.00371861
0.00389557
0.00391702
0.00391596
0.0039204
0.0039399
0.00395726
0.00396801
0.00398013
0.00402526
0.00421098
0.00426638
0.00390205
0.00306683
0.00280451
0.00271581
0.00270596
0.00269699
0.0026177
0.00245188
0.00225682
0.00211025
0.00211707
0.00222093
0.00254526
0.00311
0.00337791
0.00341978
0.00339664
0.00334486
0.00330804
0.00362775
0.00363838
0.00380143
0.00391733
0.00391752
0.00389926
0.00389874
0.00390629
0.0039238
0.00393875
0.00397295
0.00404214
0.00426804
0.00437962
0.00415614
0.00320185
0.00274374
0.00258794
0.0025213
0.00249173
0.00242277
0.0022769
0.00216132
0.00215303
0.00224169
0.00261054
0.00320808
0.00346946
0.00354983
0.00352029
0.00342216
0.00329516
0.00322693
0.00367825
0.00371027
0.00387079
0.00392294
0.00390932
0.00386644
0.00386247
0.00387714
0.00390333
0.00392927
0.00398455
0.00411001
0.00441199
0.00455194
0.00428596
0.00318589
0.00263608
0.00247803
0.00239272
0.00234572
0.00226615
0.0021989
0.00218701
0.00228876
0.00274687
0.00331169
0.0035556
0.00363858
0.00364669
0.00361716
0.00349415
0.00328355
0.00315304
0.00373699
0.00378223
0.00391174
0.00391882
0.00387586
0.00383189
0.00384161
0.00386997
0.0038989
0.00394574
0.00405114
0.00433767
0.00465426
0.00463238
0.00423929
0.00306347
0.00251936
0.00235159
0.00227684
0.00223987
0.00221338
0.00221993
0.00234262
0.00282031
0.00337531
0.00361195
0.00368723
0.00373103
0.00377714
0.00377901
0.00366244
0.00331508
0.00313718
0.00380434
0.00385227
0.00391551
0.00389412
0.003821
0.00381679
0.00383825
0.00387686
0.00392327
0.00401733
0.00428037
0.00467548
0.00476857
0.00459755
0.00398704
0.00282508
0.00238054
0.00225432
0.00221641
0.002218
0.00224136
0.0024077
0.00295432
0.00350125
0.00369877
0.00371626
0.00371195
0.00374129
0.00382983
0.00388413
0.00378417
0.0033626
0.00315133
0.00387034
0.00389261
0.00391674
0.00386545
0.00379162
0.00381149
0.00386242
0.00391789
0.0040055
0.00423412
0.0046767
0.00486555
0.00474686
0.00439119
0.00339523
0.00254775
0.00229803
0.00223132
0.00222119
0.00227693
0.0024929
0.00311742
0.00359273
0.00368423
0.00363727
0.00359506
0.00362807
0.00371379
0.003885
0.00398787
0.00389908
0.00343622
0.0031869
0.00393103
0.00392117
0.00390741
0.00382258
0.00378385
0.00383207
0.0039217
0.00400868
0.00419335
0.00464073
0.00490989
0.00486122
0.00456143
0.00376409
0.00282931
0.00243941
0.0023051
0.00226837
0.00234883
0.00268448
0.00325506
0.00357651
0.00364381
0.00352417
0.00343868
0.00345403
0.0035217
0.00364903
0.00388034
0.00406662
0.004021
0.00358602
0.00325167
0.00397424
0.00393233
0.00388724
0.00379652
0.00378533
0.00391464
0.00402757
0.00417177
0.00456022
0.00489667
0.00496141
0.00471288
0.00403399
0.00316984
0.00270471
0.0024905
0.00243333
0.00253498
0.0029349
0.00336757
0.003533
0.00356104
0.00340243
0.00328804
0.0032282
0.00323884
0.00331637
0.00346724
0.00379219
0.00409075
0.004136
0.00382732
0.0033439
0.00400426
0.00393707
0.00386715
0.00379155
0.00382506
0.00403008
0.00416583
0.00443077
0.00488703
0.00504678
0.00491447
0.00437035
0.00362557
0.00312133
0.00285015
0.00279421
0.00290972
0.00319485
0.00342376