/*--------------------------------*- C++ -*----------------------------------*\
  =========                 |
  \\      /  F ield         | OpenFOAM: The Open Source CFD Toolbox
   \\    /   O peration     | Website:  https://openfoam.org
    \\  /    A nd           | Version:  10
     \\/     M anipulation  |
\*---------------------------------------------------------------------------*/
FoamFile
{
    format      ascii;
    class       volVectorField;
    location    "0.451496";
    object      U;
}
// * * * * * * * * * * * * * * * * * * * * * * * * * * * * * * * * * * * * * //

dimensions      [0 1 -1 0 0 0 0];

internalField   nonuniform List<vector> 
16320
(
(0.460615 -0.0568947 0)
(0.451502 -0.0263558 0)
(0.431931 -0.000811579 0)
(0.399019 0.0244798 0)
(0.35462 0.0555422 0)
(0.307214 0.097377 0)
(0.258677 0.145173 0)
(0.210802 0.193978 0)
(0.16856 0.240354 0)
(0.134531 0.280794 0)
(0.112927 0.311466 0)
(0.103331 0.333168 0)
(0.0984247 0.348759 0)
(0.0969957 0.362178 0)
(0.0993212 0.373882 0)
(0.105213 0.382442 0)
(0.113672 0.386507 0)
(0.123415 0.382412 0)
(0.13127 0.368133 0)
(0.133705 0.342751 0)
(0.129253 0.308566 0)
(0.118564 0.270141 0)
(0.103938 0.231828 0)
(0.088536 0.195578 0)
(0.0756599 0.160104 0)
(0.0672554 0.122925 0)
(0.0636231 0.0830748 0)
(0.0653463 0.0427905 0)
(0.0662204 0.00239779 0)
(0.0645582 -0.0360726 0)
(0.0636012 -0.0719628 0)
(0.058672 -0.10542 0)
(0.05101 -0.127642 0)
(0.370819 -0.0526306 0)
(0.373464 -0.0208171 0)
(0.367528 0.00212595 0)
(0.345948 0.0247932 0)
(0.313063 0.0555373 0)
(0.277757 0.0970528 0)
(0.239759 0.142851 0)
(0.20186 0.187484 0)
(0.168428 0.2277 0)
(0.140613 0.261615 0)
(0.121361 0.287788 0)
(0.10962 0.304497 0)
(0.100863 0.314782 0)
(0.0942215 0.322339 0)
(0.0895194 0.326714 0)
(0.0879086 0.327473 0)
(0.0891332 0.323695 0)
(0.0923481 0.314425 0)
(0.0963087 0.299353 0)
(0.099485 0.2795 0)
(0.101606 0.256963 0)
(0.101685 0.233988 0)
(0.0992882 0.211402 0)
(0.0958105 0.188364 0)
(0.0926425 0.162753 0)
(0.0911896 0.132816 0)
(0.0930343 0.099702 0)
(0.0975123 0.0647306 0)
(0.100674 0.0306703 0)
(0.101615 -0.00419073 0)
(0.103176 -0.0382988 0)
(0.101566 -0.0677254 0)
(0.0984378 -0.0861132 0)
(0.27345 -0.0717208 0)
(0.291483 -0.0399533 0)
(0.302683 -0.0176956 0)
(0.298467 0.00523239 0)
(0.28114 0.0391231 0)
(0.259387 0.081951 0)
(0.232652 0.126663 0)
(0.204131 0.16796 0)
(0.177735 0.202979 0)
(0.154548 0.230627 0)
(0.135224 0.251184 0)
(0.11893 0.264124 0)
(0.105019 0.270961 0)
(0.0935488 0.273396 0)
(0.0838702 0.272689 0)
(0.0770131 0.269161 0)
(0.0737857 0.2629 0)
(0.0750937 0.254966 0)
(0.0804916 0.245447 0)
(0.0882702 0.234925 0)
(0.0969899 0.2239 0)
(0.105337 0.212431 0)
(0.112098 0.199933 0)
(0.116376 0.185068 0)
(0.118802 0.16624 0)
(0.121006 0.142999 0)
(0.124022 0.115211 0)
(0.127291 0.0863249 0)
(0.131185 0.0571443 0)
(0.137308 0.0264411 0)
(0.140092 -0.00580124 0)
(0.143946 -0.0332088 0)
(0.144709 -0.0486421 0)
(0.177481 -0.11236 0)
(0.213022 -0.0816822 0)
(0.24394 -0.0553087 0)
(0.260787 -0.0312537 0)
(0.261335 0.00700595 0)
(0.252475 0.0533124 0)
(0.236053 0.0992929 0)
(0.215314 0.139295 0)
(0.193562 0.170965 0)
(0.172133 0.193876 0)
(0.151693 0.208522 0)
(0.132242 0.21672 0)
(0.113361 0.221007 0)
(0.0965588 0.222092 0)
(0.0830166 0.220956 0)
(0.0745118 0.218699 0)
(0.0723007 0.216274 0)
(0.0756156 0.214147 0)
(0.0839782 0.212273 0)
(0.0963603 0.210024 0)
(0.110947 0.206828 0)
(0.1252 0.202464 0)
(0.136809 0.195684 0)
(0.144621 0.185065 0)
(0.148952 0.170229 0)
(0.14985 0.151898 0)
(0.150028 0.130744 0)
(0.152702 0.106597 0)
(0.158937 0.0796194 0)
(0.16665 0.0504773 0)
(0.175389 0.0207024 0)
(0.183494 -0.0050453 0)
(0.185904 -0.0170822 0)
(0.0918292 -0.157875 0)
(0.141245 -0.1281 0)
(0.188572 -0.0972262 0)
(0.225968 -0.066864 0)
(0.246796 -0.028357 0)
(0.252418 0.0184999 0)
(0.246102 0.0648526 0)
(0.23145 0.104883 0)
(0.212474 0.135665 0)
(0.191114 0.156711 0)
(0.168795 0.168776 0)
(0.14684 0.173796 0)
(0.125938 0.175063 0)
(0.107128 0.175159 0)
(0.0924873 0.175639 0)
(0.0842291 0.178124 0)
(0.0831663 0.181964 0)
(0.0891234 0.186357 0)
(0.100827 0.190695 0)
(0.116324 0.193897 0)
(0.133726 0.194914 0)
(0.150439 0.193351 0)
(0.163458 0.18871 0)
(0.171848 0.180623 0)
(0.175965 0.169308 0)
(0.176593 0.155439 0)
(0.177168 0.138856 0)
(0.179516 0.118772 0)
(0.184843 0.0947975 0)
(0.193621 0.067453 0)
(0.206268 0.0395886 0)
(0.216302 0.0192021 0)
(0.219443 0.0118318 0)
(0.0504408 -0.18899 0)
(0.0990289 -0.159848 0)
(0.149752 -0.128485 0)
(0.198528 -0.091039 0)
(0.235315 -0.0456878 0)
(0.253668 0.0021928 0)
(0.255339 0.0455316 0)
(0.245878 0.0814609 0)
(0.228961 0.10869 0)
(0.207518 0.12694 0)
(0.184154 0.137571 0)
(0.1614 0.142155 0)
(0.140608 0.143403 0)
(0.123215 0.144053 0)
(0.11133 0.146477 0)
(0.106013 0.151361 0)
(0.107394 0.158322 0)
(0.115012 0.165851 0)
(0.1278 0.172425 0)
(0.144104 0.17686 0)
(0.162328 0.178683 0)
(0.180135 0.176993 0)
(0.194542 0.172138 0)
(0.204196 0.165597 0)
(0.208561 0.157614 0)
(0.208566 0.148512 0)
(0.207234 0.136979 0)
(0.207587 0.121235 0)
(0.212916 0.100493 0)
(0.222909 0.0761552 0)
(0.233014 0.0535667 0)
(0.239176 0.0388049 0)
(0.241592 0.0356257 0)
(0.0945808 -0.214546 0)
(0.134591 -0.188001 0)
(0.173825 -0.157871 0)
(0.207633 -0.124987 0)
(0.237034 -0.0807539 0)
(0.25472 -0.0316653 0)
(0.258241 0.016362 0)
(0.249959 0.0555599 0)
(0.233654 0.0844614 0)
(0.213061 0.10357 0)
(0.191052 0.114866 0)
(0.170192 0.120464 0)
(0.152635 0.123107 0)
(0.139766 0.125855 0)
(0.132626 0.130159 0)
(0.131399 0.136228 0)
(0.135848 0.143256 0)
(0.145208 0.15027 0)
(0.158803 0.155934 0)
(0.175699 0.159293 0)
(0.194171 0.159603 0)
(0.211668 0.15649 0)
(0.226171 0.150827 0)
(0.236242 0.144218 0)
(0.241108 0.137278 0)
(0.241679 0.130242 0)
(0.240629 0.121512 0)
(0.241768 0.10916 0)
(0.244353 0.0943756 0)
(0.246241 0.0786986 0)
(0.248306 0.063538 0)
(0.249572 0.0546208 0)
(0.250473 0.0548863 0)
(0.187396 -0.241703 0)
(0.229736 -0.210676 0)
(0.266303 -0.171892 0)
(0.291904 -0.130271 0)
(0.305909 -0.085315 0)
(0.306522 -0.0410604 0)
(0.29363 -0.00207506 0)
(0.27183 0.0318435 0)
(0.245879 0.0591836 0)
(0.219043 0.0789861 0)
(0.194379 0.0917638 0)
(0.17445 0.0993259 0)
(0.16057 0.104882 0)
(0.15286 0.110348 0)
(0.150866 0.116708 0)
(0.154114 0.123574 0)
(0.161896 0.130157 0)
(0.173436 0.135851 0)
(0.188205 0.139554 0)
(0.204942 0.140457 0)
(0.222234 0.137957 0)
(0.23892 0.132292 0)
(0.253677 0.124599 0)
(0.265128 0.116074 0)
(0.272358 0.107709 0)
(0.275674 0.100408 0)
(0.27447 0.0947309 0)
(0.269745 0.0897614 0)
(0.26281 0.0838212 0)
(0.254963 0.0770568 0)
(0.249267 0.0691981 0)
(0.245963 0.0652115 0)
(0.244925 0.0682966 0)
(0.285137 -0.274169 0)
(0.331196 -0.238637 0)
(0.369149 -0.193545 0)
(0.394995 -0.144078 0)
(0.404924 -0.0938271 0)
(0.395954 -0.0472101 0)
(0.368629 -0.00775582 0)
(0.328817 0.0228821 0)
(0.285602 0.0447919 0)
(0.245821 0.0610341 0)
(0.213124 0.0729682 0)
(0.189538 0.0820822 0)
(0.175603 0.0900192 0)
(0.16981 0.097526 0)
(0.170246 0.104926 0)
(0.175582 0.111767 0)
(0.184969 0.117332 0)
(0.197428 0.120875 0)
(0.211929 0.121755 0)
(0.227782 0.119444 0)
(0.244171 0.114035 0)
(0.259925 0.105961 0)
(0.273981 0.0960413 0)
(0.285158 0.0854966 0)
(0.292404 0.0757993 0)
(0.294455 0.068334 0)
(0.290175 0.0637178 0)
(0.280245 0.062486 0)
(0.265341 0.0643244 0)
(0.248358 0.0660119 0)
(0.235853 0.0656628 0)
(0.229278 0.0665943 0)
(0.226447 0.0730743 0)
(0.371089 -0.304711 0)
(0.416592 -0.263403 0)
(0.452883 -0.213577 0)
(0.475727 -0.159983 0)
(0.481439 -0.107221 0)
(0.467635 -0.0597134 0)
(0.435173 -0.02014 0)
(0.388826 0.0107526 0)
(0.337039 0.0335482 0)
(0.287452 0.050872 0)
(0.245664 0.0623635 0)
(0.216229 0.0711071 0)
(0.199562 0.0791653 0)
(0.192833 0.0870599 0)
(0.192965 0.0943439 0)
(0.197878 0.100245 0)
(0.206202 0.104135 0)
(0.217004 0.105364 0)
(0.22952 0.103665 0)
(0.242854 0.0989775 0)
(0.256127 0.0913379 0)
(0.26858 0.0810881 0)
(0.279265 0.0692055 0)
(0.287145 0.057117 0)
(0.290732 0.0465624 0)
(0.288416 0.0391659 0)
(0.279599 0.0367553 0)
(0.264334 0.0402282 0)
(0.243338 0.046819 0)
(0.223906 0.0514066 0)
(0.212103 0.0540409 0)
(0.203239 0.0590974 0)
(0.197065 0.0694186 0)
(0.438743 -0.327877 0)
(0.480121 -0.283101 0)
(0.510206 -0.231042 0)
(0.526219 -0.176045 0)
(0.52547 -0.122243 0)
(0.506591 -0.0735012 0)
(0.471154 -0.0325349 0)
(0.423895 -0.000526903 0)
(0.372373 0.0234645 0)
(0.322115 0.0417079 0)
(0.277699 0.0551056 0)
(0.244679 0.0656827 0)
(0.22418 0.0751537 0)
(0.213652 0.0831531 0)
(0.21018 0.0889953 0)
(0.211824 0.0925116 0)
(0.21705 0.093672 0)
(0.224525 0.0923334 0)
(0.233154 0.088319 0)
(0.24205 0.0814909 0)
(0.250281 0.0722989 0)
(0.257192 0.0611813 0)
(0.262001 0.0490959 0)
(0.264034 0.0373229 0)
(0.262725 0.0272485 0)
(0.257318 0.0206481 0)
(0.247334 0.0188807 0)
(0.231777 0.0216361 0)
(0.213136 0.0256484 0)
(0.198934 0.0298229 0)
(0.185842 0.035458 0)
(0.170867 0.0457143 0)
(0.158708 0.0613577 0)
(0.482778 -0.342742 0)
(0.517766 -0.296604 0)
(0.540562 -0.244237 0)
(0.548954 -0.189385 0)
(0.541598 -0.135681 0)
(0.518165 -0.0864886 0)
(0.48131 -0.0443234 0)
(0.436387 -0.00921579 0)
(0.389152 0.0186604 0)
(0.343209 0.0407374 0)
(0.30121 0.0567278 0)
(0.268703 0.0680938 0)
(0.246747 0.076757 0)
(0.232876 0.0828704 0)
(0.22501 0.0864517 0)
(0.221839 0.0875972 0)
(0.222092 0.0862643 0)
(0.224603 0.0824316 0)
(0.228172 0.0762378 0)
(0.232004 0.0678831 0)
(0.235346 0.0579576 0)
(0.237766 0.0469919 0)
(0.238639 0.0358427 0)
(0.237361 0.0254115 0)
(0.233572 0.0167041 0)
(0.226873 0.0110785 0)
(0.215632 0.00944141 0)
(0.199557 0.0103456 0)
(0.185887 0.011092 0)
(0.17321 0.0141631 0)
(0.153965 0.0217437 0)
(0.132334 0.0364318 0)
(0.111116 0.0581236 0)
(0.50086 -0.349405 0)
(0.529018 -0.302525 0)
(0.544496 -0.250926 0)
(0.545494 -0.197855 0)
(0.53195 -0.146196 0)
(0.505359 -0.0984404 0)
(0.469669 -0.0555004 0)
(0.429535 -0.0176225 0)
(0.389379 0.0161592 0)
(0.34976 0.0432725 0)
(0.311658 0.061755 0)
(0.281316 0.0747841 0)
(0.259661 0.0835321 0)
(0.244172 0.0883586 0)
(0.233398 0.0898673 0)
(0.226423 0.0885088 0)
(0.222262 0.0846748 0)
(0.219996 0.0786722 0)
(0.218669 0.0710159 0)
(0.217753 0.0620768 0)
(0.216477 0.0523726 0)
(0.214504 0.0423756 0)
(0.211243 0.0328038 0)
(0.206091 0.0242277 0)
(0.198752 0.017313 0)
(0.188727 0.0127187 0)
(0.175951 0.00929677 0)
(0.162398 0.00533245 0)
(0.152317 0.00388406 0)
(0.136403 0.00658136 0)
(0.112374 0.0185495 0)
(0.0836278 0.0383154 0)
(0.0562441 0.0598806 0)
(0.496422 -0.345711 0)
(0.517456 -0.298981 0)
(0.524995 -0.249302 0)
(0.518725 -0.19915 0)
(0.500198 -0.150434 0)
(0.472645 -0.10459 0)
(0.439711 -0.0620306 0)
(0.406322 -0.023056 0)
(0.374329 0.0148172 0)
(0.339649 0.0453992 0)
(0.305926 0.0676018 0)
(0.279137 0.083188 0)
(0.258139 0.0923146 0)
(0.241539 0.0960889 0)
(0.228587 0.095873 0)
(0.218543 0.0926668 0)
(0.210739 0.0872898 0)
(0.204422 0.0803177 0)
(0.19883 0.0721844 0)
(0.193171 0.063481 0)
(0.187086 0.0547386 0)
(0.180468 0.0464408 0)
(0.172616 0.0391153 0)
(0.162852 0.0329982 0)
(0.151003 0.0282666 0)
(0.136616 0.023775 0)
(0.12142 0.016587 0)
(0.1128 0.0116163 0)
(0.100258 0.0113891 0)
(0.0776397 0.0189704 0)
(0.0479785 0.0316561 0)
(0.0248736 0.0415584 0)
(0.0258675 0.0413173 0)
(0.46637 -0.331617 0)
(0.47683 -0.287084 0)
(0.474328 -0.241608 0)
(0.460684 -0.196266 0)
(0.438844 -0.151659 0)
(0.412982 -0.108349 0)
(0.386318 -0.0661999 0)
(0.363108 -0.0243874 0)
(0.339753 0.0151297 0)
(0.310932 0.0462402 0)
(0.283233 0.0719472 0)
(0.259739 0.0904501 0)
(0.23951 0.100951 0)
(0.222247 0.104806 0)
(0.207551 0.10397 0)
(0.195037 0.100233 0)
(0.184186 0.0944446 0)
(0.174172 0.0874224 0)
(0.164561 0.0798336 0)
(0.154795 0.0723602 0)
(0.14463 0.0654915 0)
(0.133908 0.0595294 0)
(0.121901 0.054678 0)
(0.108282 0.0511302 0)
(0.0932823 0.0480077 0)
(0.0774515 0.0411538 0)
(0.0694358 0.0340947 0)
(0.0599909 0.029609 0)
(0.0413449 0.0306924 0)
(0.0163478 0.0352673 0)
(0.000489688 0.0313936 0)
(0.0137931 0.0146674 0)
(0.0329421 -0.00217606 0)
(0.402986 -0.310598 0)
(0.397921 -0.271272 0)
(0.382663 -0.232902 0)
(0.361503 -0.194794 0)
(0.338285 -0.156312 0)
(0.316968 -0.116474 0)
(0.300411 -0.0745352 0)
(0.289854 -0.0292977 0)
(0.276788 0.0125786 0)
(0.256286 0.0482209 0)
(0.236469 0.0777192 0)
(0.217572 0.0985587 0)
(0.199348 0.11079 0)
(0.182383 0.115786 0)
(0.167061 0.115651 0)
(0.152986 0.112101 0)
(0.139776 0.106538 0)
(0.127105 0.100175 0)
(0.11464 0.0940669 0)
(0.101878 0.0886144 0)
(0.0889203 0.0839858 0)
(0.0754303 0.0803292 0)
(0.0605158 0.0777507 0)
(0.0446 0.0766785 0)
(0.0285076 0.0709004 0)
(0.0214644 0.0615473 0)
(0.0157148 0.0527311 0)
(0.000234305 0.0503799 0)
(-0.0202428 0.0523023 0)
(-0.029341 0.0389253 0)
(-0.00482447 0.00479726 0)
(0.022894 -0.0277919 0)
(0.0402284 -0.0448736 0)
(0.301847 -0.286362 0)
(0.279151 -0.255232 0)
(0.250817 -0.227001 0)
(0.222556 -0.198167 0)
(0.200156 -0.16637 0)
(0.185766 -0.130263 0)
(0.18099 -0.088258 0)
(0.182265 -0.0418781 0)
(0.182084 0.00283187 0)
(0.171297 0.045528 0)
(0.158076 0.080379 0)
(0.14393 0.10524 0)
(0.129541 0.120673 0)
(0.115986 0.128139 0)
(0.102812 0.12964 0)
(0.0896338 0.12722 0)
(0.0766846 0.123094 0)
(0.0635129 0.118512 0)
(0.0503291 0.11436 0)
(0.0370179 0.110902 0)
(0.0232549 0.108375 0)
(0.00816796 0.107194 0)
(-0.00789066 0.107464 0)
(-0.0236433 0.102273 0)
(-0.0305236 0.0906932 0)
(-0.0340808 0.079901 0)
(-0.0472401 0.0746586 0)
(-0.0597562 0.0731126 0)
(-0.0658484 0.0600987 0)
(-0.0401804 0.0194518 0)
(0.00207323 -0.0403552 0)
(0.02388 -0.0660682 0)
(0.0358098 -0.0790316 0)
(0.172239 -0.262141 0)
(0.133336 -0.241074 0)
(0.0940701 -0.222365 0)
(0.0620771 -0.199352 0)
(0.0409082 -0.171054 0)
(0.0312313 -0.137654 0)
(0.0332215 -0.0968239 0)
(0.0397973 -0.0519995 0)
(0.0513349 -0.00169183 0)
(0.0503232 0.0482243 0)
(0.0456195 0.0873352 0)
(0.0396327 0.115346 0)
(0.0328414 0.133152 0)
(0.0256841 0.142403 0)
(0.017301 0.145661 0)
(0.00783253 0.145398 0)
(-0.00258602 0.143574 0)
(-0.0131582 0.140994 0)
(-0.0241574 0.138601 0)
(-0.0362012 0.136969 0)
(-0.0498765 0.136949 0)
(-0.0645692 0.137312 0)
(-0.0779937 0.13233 0)
(-0.0843839 0.120963 0)
(-0.0870186 0.10923 0)
(-0.0948229 0.102356 0)
(-0.103521 0.0973067 0)
(-0.104314 0.0815278 0)
(-0.0850864 0.041731 0)
(-0.0365182 -0.0333222 0)
(-0.00192786 -0.0751173 0)
(0.0136551 -0.0934595 0)
(0.0198808 -0.103723 0)
(0.0207122 -0.239663 0)
(-0.0281862 -0.227835 0)
(-0.0688604 -0.21395 0)
(-0.0995666 -0.193354 0)
(-0.120608 -0.167565 0)
(-0.129702 -0.136806 0)
(-0.129791 -0.0988516 0)
(-0.126079 -0.0557139 0)
(-0.119394 -0.00204154 0)
(-0.10215 0.0525357 0)
(-0.0937021 0.094729 0)
(-0.0870652 0.125112 0)
(-0.0831199 0.145194 0)
(-0.0820297 0.156976 0)
(-0.0836681 0.163328 0)
(-0.0870654 0.165963 0)
(-0.0916167 0.166183 0)
(-0.0974605 0.165364 0)
(-0.105221 0.165049 0)
(-0.114452 0.16527 0)
(-0.124777 0.164551 0)
(-0.134641 0.159694 0)
(-0.139414 0.150419 0)
(-0.140237 0.139319 0)
(-0.14367 0.130615 0)
(-0.148784 0.123146 0)
(-0.147646 0.105776 0)
(-0.128557 0.0684991 0)
(-0.0861837 0.00300427 0)
(-0.0413123 -0.068723 0)
(-0.0164485 -0.0997817 0)
(-0.0052954 -0.11427 0)
(-0.000448254 -0.123331 0)
(-0.138474 -0.221706 0)
(-0.188557 -0.214086 0)
(-0.226774 -0.201387 0)
(-0.255702 -0.181904 0)
(-0.275688 -0.157531 0)
(-0.282848 -0.12679 0)
(-0.284132 -0.089567 0)
(-0.284397 -0.0477021 0)
(-0.278045 3.14844e-05 0)
(-0.260133 0.0518302 0)
(-0.240822 0.0969524 0)
(-0.224275 0.130777 0)
(-0.20974 0.15482 0)
(-0.198826 0.170815 0)
(-0.190778 0.18051 0)
(-0.185712 0.185648 0)
(-0.183715 0.188041 0)
(-0.18413 0.189562 0)
(-0.186911 0.190384 0)
(-0.190976 0.188802 0)
(-0.194669 0.184201 0)
(-0.195152 0.1769 0)
(-0.193845 0.167696 0)
(-0.193885 0.158967 0)
(-0.194899 0.149519 0)
(-0.191902 0.13105 0)
(-0.173889 0.0957176 0)
(-0.136369 0.0360964 0)
(-0.0887362 -0.0478877 0)
(-0.0580087 -0.0923837 0)
(-0.0383041 -0.11795 0)
(-0.027797 -0.130634 0)
(-0.0246941 -0.13729 0)
(-0.29418 -0.204374 0)
(-0.343644 -0.197038 0)
(-0.37825 -0.184096 0)
(-0.40439 -0.165829 0)
(-0.420295 -0.141616 0)
(-0.423027 -0.109874 0)
(-0.421653 -0.0728612 0)
(-0.419929 -0.0322813 0)
(-0.413622 0.0117239 0)
(-0.396414 0.0577535 0)
(-0.374332 0.100621 0)
(-0.351604 0.136009 0)
(-0.329555 0.162963 0)
(-0.310102 0.18215 0)
(-0.293893 0.19487 0)
(-0.281425 0.202781 0)
(-0.272464 0.207424 0)
(-0.266406 0.209392 0)
(-0.262774 0.20882 0)
(-0.258855 0.205714 0)
(-0.252813 0.200101 0)
(-0.247833 0.193067 0)
(-0.244564 0.185412 0)
(-0.242276 0.175142 0)
(-0.236774 0.155897 0)
(-0.219468 0.121741 0)
(-0.18461 0.0677716 0)
(-0.139012 -0.00507939 0)
(-0.102357 -0.0741062 0)
(-0.0785595 -0.111339 0)
(-0.0624602 -0.134209 0)
(-0.0541311 -0.143204 0)
(-0.0539508 -0.148241 0)
(-0.444579 -0.185866 0)
(-0.491862 -0.177407 0)
(-0.523529 -0.164546 0)
(-0.54551 -0.147377 0)
(-0.554095 -0.122751 0)
(-0.550063 -0.0906186 0)
(-0.54346 -0.0542495 0)
(-0.53652 -0.0150441 0)
(-0.526085 0.0259182 0)
(-0.508001 0.0673557 0)
(-0.484974 0.107001 0)
(-0.459205 0.141779 0)
(-0.432974 0.169946 0)
(-0.407973 0.191206 0)
(-0.385664 0.20615 0)
(-0.366845 0.215285 0)
(-0.351227 0.220299 0)
(-0.337459 0.222793 0)
(-0.324368 0.222578 0)
(-0.313012 0.219824 0)
(-0.303355 0.21522 0)
(-0.295786 0.209045 0)
(-0.289832 0.198852 0)
(-0.281719 0.179845 0)
(-0.263961 0.147691 0)
(-0.232423 0.0984618 0)
(-0.190606 0.0315026 0)
(-0.148707 -0.0464873 0)
(-0.119564 -0.0966435 0)
(-0.0992582 -0.130612 0)
(-0.0877173 -0.147795 0)
(-0.0845925 -0.15273 0)
(-0.0863789 -0.157294 0)
(-0.581801 -0.167453 0)
(-0.628425 -0.159062 0)
(-0.65752 -0.147703 0)
(-0.673427 -0.13082 0)
(-0.674045 -0.105766 0)
(-0.664296 -0.0732538 0)
(-0.652271 -0.0372792 0)
(-0.638834 0.00115692 0)
(-0.621641 0.0401243 0)
(-0.599833 0.0784488 0)
(-0.574288 0.115282 0)
(-0.545937 0.148246 0)
(-0.516563 0.17534 0)
(-0.487729 0.196236 0)
(-0.460864 0.211957 0)
(-0.435825 0.223258 0)
(-0.411651 0.229965 0)
(-0.390278 0.233449 0)
(-0.373651 0.234615 0)
(-0.359931 0.23305 0)
(-0.348097 0.228925 0)
(-0.33785 0.219336 0)
(-0.325964 0.201078 0)
(-0.306338 0.170841 0)
(-0.275673 0.125982 0)
(-0.236243 0.0658067 0)
(-0.194645 -0.00655312 0)
(-0.161105 -0.0733678 0)
(-0.13667 -0.118733 0)
(-0.121463 -0.145134 0)
(-0.11612 -0.154468 0)
(-0.116732 -0.157943 0)
(-0.118839 -0.164148 0)
(-0.700157 -0.151392 0)
(-0.745244 -0.144602 0)
(-0.769977 -0.134705 0)
(-0.778254 -0.116945 0)
(-0.771571 -0.0913824 0)
(-0.757259 -0.0603511 0)
(-0.741258 -0.0264289 0)
(-0.722032 0.0104141 0)
(-0.698316 0.0474562 0)
(-0.671483 0.084493 0)
(-0.641935 0.119209 0)
(-0.610725 0.150756 0)
(-0.578408 0.17798 0)
(-0.544856 0.200286 0)
(-0.511713 0.216834 0)
(-0.482256 0.229493 0)
(-0.457018 0.238397 0)
(-0.43475 0.243376 0)
(-0.416189 0.24567 0)
(-0.400613 0.243797 0)
(-0.385998 0.235671 0)
(-0.36939 0.218957 0)
(-0.346718 0.191141 0)
(-0.315937 0.150278 0)
(-0.278072 0.0956632 0)
(-0.237283 0.0284472 0)
(-0.199597 -0.0437321 0)
(-0.170621 -0.0984188 0)
(-0.15357 -0.134642 0)
(-0.146607 -0.151292 0)
(-0.146296 -0.156984 0)
(-0.148133 -0.16419 0)
(-0.150439 -0.174622 0)
(-0.790898 -0.144403 0)
(-0.83491 -0.133688 0)
(-0.85151 -0.125483 0)
(-0.850501 -0.106357 0)
(-0.838245 -0.0803056 0)
(-0.820904 -0.0508683 0)
(-0.80064 -0.0186986 0)
(-0.77634 0.0162481 0)
(-0.747693 0.0522016 0)
(-0.716496 0.0880033 0)
(-0.68369 0.121829 0)
(-0.649132 0.15265 0)
(-0.614385 0.179852 0)
(-0.581199 0.202882 0)
(-0.549925 0.221023 0)
(-0.520895 0.234857 0)
(-0.495277 0.245575 0)
(-0.472154 0.252025 0)
(-0.451717 0.252717 0)
(-0.432914 0.247021 0)
(-0.411054 0.232698 0)
(-0.384253 0.207969 0)
(-0.351776 0.171126 0)
(-0.313964 0.121722 0)
(-0.273515 0.0604257 0)
(-0.234271 -0.0089193 0)
(-0.202254 -0.0703956 0)
(-0.181995 -0.115614 0)
(-0.174111 -0.142327 0)
(-0.174552 -0.15284 0)
(-0.177657 -0.161745 0)
(-0.1799 -0.170568 0)
(-0.18166 -0.178534 0)
(-0.857424 -0.146671 0)
(-0.896149 -0.129599 0)
(-0.907419 -0.117787 0)
(-0.894862 -0.0969935 0)
(-0.87686 -0.0718579 0)
(-0.855928 -0.0444211 0)
(-0.832605 -0.0135201 0)
(-0.805903 0.0196959 0)
(-0.776161 0.0544927 0)
(-0.744331 0.0887959 0)
(-0.711323 0.121971 0)
(-0.677701 0.152568 0)
(-0.644356 0.179954 0)
(-0.612231 0.203814 0)
(-0.581563 0.224261 0)
(-0.552313 0.23983 0)
(-0.525568 0.250062 0)
(-0.501218 0.254605 0)
(-0.476534 0.251708 0)
(-0.449393 0.240683 0)
(-0.418508 0.219785 0)
(-0.383354 0.187243 0)
(-0.344422 0.142644 0)
(-0.30329 0.0865145 0)
(-0.263066 0.0215482 0)
(-0.228369 -0.0426139 0)
(-0.206046 -0.0907764 0)
(-0.197096 -0.125372 0)
(-0.198907 -0.144341 0)
(-0.205468 -0.1555 0)
(-0.209258 -0.163924 0)
(-0.212817 -0.169157 0)
(-0.222902 -0.172532 0)
(-0.89353 -0.153804 0)
(-0.940703 -0.13361 0)
(-0.950395 -0.113308 0)
(-0.93326 -0.0901543 0)
(-0.912459 -0.0660746 0)
(-0.888055 -0.0400572 0)
(-0.860995 -0.0101212 0)
(-0.832143 0.0218032 0)
(-0.801292 0.0551285 0)
(-0.768948 0.0887379 0)
(-0.735652 0.121589 0)
(-0.701935 0.152681 0)
(-0.668413 0.180676 0)
(-0.635876 0.204692 0)
(-0.605009 0.224393 0)
(-0.575609 0.238936 0)
(-0.546324 0.247081 0)
(-0.515706 0.248105 0)
(-0.483093 0.241234 0)
(-0.447913 0.224496 0)
(-0.409715 0.196775 0)
(-0.368836 0.157242 0)
(-0.326466 0.106353 0)
(-0.28514 0.0463521 0)
(-0.249017 -0.015873 0)
(-0.22512 -0.0655033 0)
(-0.215355 -0.10314 0)
(-0.217849 -0.129279 0)
(-0.228475 -0.145024 0)
(-0.237471 -0.155833 0)
(-0.244933 -0.159766 0)
(-0.259102 -0.161843 0)
(-0.280347 -0.162616 0)
(-0.90213 -0.165288 0)
(-0.969633 -0.14371 0)
(-0.980393 -0.111923 0)
(-0.964705 -0.088914 0)
(-0.943588 -0.0641688 0)
(-0.916165 -0.0370983 0)
(-0.886053 -0.00749756 0)
(-0.854973 0.0239332 0)
(-0.822333 0.0562691 0)
(-0.788641 0.0887163 0)
(-0.754291 0.120298 0)
(-0.719985 0.149866 0)
(-0.686169 0.176524 0)
(-0.652461 0.19917 0)
(-0.618342 0.216803 0)
(-0.583459 0.229101 0)
(-0.547712 0.234967 0)
(-0.510395 0.232698 0)
(-0.471004 0.220807 0)
(-0.429739 0.198266 0)
(-0.38672 0.164333 0)
(-0.34294 0.119286 0)
(-0.300788 0.0652676 0)
(-0.264371 0.00770707 0)
(-0.239654 -0.0428003 0)
(-0.228859 -0.0804569 0)
(-0.231178 -0.109936 0)
(-0.244309 -0.129859 0)
(-0.260827 -0.145363 0)
(-0.274384 -0.150883 0)
(-0.291887 -0.152004 0)
(-0.317509 -0.150956 0)
(-0.351036 -0.147884 0)
(-0.885011 -0.200554 0)
(-0.97835 -0.150524 0)
(-0.993173 -0.115569 0)
(-0.987375 -0.0885121 0)
(-0.964905 -0.0618489 0)
(-0.936486 -0.0348295 0)
(-0.904862 -0.007086 0)
(-0.871343 0.022321 0)
(-0.836305 0.0526203 0)
(-0.80032 0.0828166 0)
(-0.763509 0.112227 0)
(-0.725975 0.139678 0)
(-0.68787 0.164451 0)
(-0.649454 0.185666 0)
(-0.61024 0.201994 0)
(-0.569942 0.211998 0)
(-0.52866 0.214291 0)
(-0.486148 0.207749 0)
(-0.442318 0.191049 0)
(-0.39748 0.163462 0)
(-0.352679 0.125065 0)
(-0.310104 0.0775856 0)
(-0.27382 0.0254757 0)
(-0.24879 -0.0236352 0)
(-0.237371 -0.0613156 0)
(-0.239469 -0.0901923 0)
(-0.253827 -0.112796 0)
(-0.276464 -0.130506 0)
(-0.297227 -0.141729 0)
(-0.318868 -0.142909 0)
(-0.348889 -0.140388 0)
(-0.386956 -0.135172 0)
(-0.431666 -0.127413 0)
(-0.833922 -0.241194 0)
(-0.943938 -0.170489 0)
(-0.983905 -0.126516 0)
(-0.980432 -0.0914877 0)
(-0.962172 -0.0620967 0)
(-0.934914 -0.0352189 0)
(-0.902127 -0.00882273 0)
(-0.866452 0.0181893 0)
(-0.828677 0.0458471 0)
(-0.789567 0.0735469 0)
(-0.749385 0.100508 0)
(-0.708303 0.125838 0)
(-0.666469 0.148334 0)
(-0.624013 0.16686 0)
(-0.580822 0.180283 0)
(-0.536845 0.187089 0)
(-0.492082 0.185808 0)
(-0.446534 0.175368 0)
(-0.400716 0.154777 0)
(-0.355809 0.123772 0)
(-0.313725 0.0836258 0)
(-0.278004 0.0377819 0)
(-0.253085 -0.00786076 0)
(-0.242445 -0.0449463 0)
(-0.243735 -0.0731198 0)
(-0.257773 -0.0966999 0)
(-0.282876 -0.114884 0)
(-0.311309 -0.130553 0)
(-0.338758 -0.134384 0)
(-0.371458 -0.13224 0)
(-0.413117 -0.125243 0)
(-0.461128 -0.115363 0)
(-0.512424 -0.100774 0)
(-0.736755 -0.296492 0)
(-0.882116 -0.206489 0)
(-0.935802 -0.143938 0)
(-0.946304 -0.101263 0)
(-0.932558 -0.0690422 0)
(-0.906637 -0.0412145 0)
(-0.873365 -0.0156737 0)
(-0.836394 0.00944106 0)
(-0.796933 0.0345428 0)
(-0.755763 0.0594779 0)
(-0.71328 0.0836652 0)
(-0.669796 0.106174 0)
(-0.625507 0.125912 0)
(-0.58058 0.141661 0)
(-0.534939 0.152178 0)
(-0.488848 0.155966 0)
(-0.442708 0.151682 0)
(-0.397079 0.138103 0)
(-0.353158 0.114798 0)
(-0.312607 0.0826259 0)
(-0.278362 0.0442233 0)
(-0.254431 0.00417726 0)
(-0.244324 -0.0311233 0)
(-0.245155 -0.059913 0)
(-0.258606 -0.0821155 0)
(-0.283592 -0.101606 0)
(-0.316468 -0.117669 0)
(-0.349384 -0.127239 0)
(-0.384825 -0.126261 0)
(-0.428049 -0.119457 0)
(-0.477746 -0.108309 0)
(-0.529927 -0.0921048 0)
(-0.583328 -0.069877 0)
(-0.60927 -0.378319 0)
(-0.775752 -0.260619 0)
(-0.863617 -0.176103 0)
(-0.889518 -0.122129 0)
(-0.884473 -0.0840852 0)
(-0.861816 -0.0542029 0)
(-0.829126 -0.0289131 0)
(-0.790997 -0.00536033 0)
(-0.750361 0.0175928 0)
(-0.70752 0.0399497 0)
(-0.663255 0.0613809 0)
(-0.618038 0.0812188 0)
(-0.572189 0.0983558 0)
(-0.525952 0.111602 0)
(-0.479627 0.119583 0)
(-0.433856 0.120701 0)
(-0.389533 0.113861 0)
(-0.347594 0.098395 0)
(-0.309438 0.0747496 0)
(-0.277615 0.0446889 0)
(-0.255236 0.0114903 0)
(-0.245215 -0.0204619 0)
(-0.246608 -0.0487294 0)
(-0.258522 -0.07048 0)
(-0.282084 -0.0902156 0)
(-0.314661 -0.106239 0)
(-0.351478 -0.119524 0)
(-0.38961 -0.121936 0)
(-0.432785 -0.116752 0)
(-0.482526 -0.105078 0)
(-0.535199 -0.088452 0)
(-0.587373 -0.0634125 0)
(-0.641702 -0.0341214 0)
(-0.47539 -0.456404 0)
(-0.639278 -0.33978 0)
(-0.759015 -0.231569 0)
(-0.81471 -0.159854 0)
(-0.822667 -0.112804 0)
(-0.806906 -0.0792352 0)
(-0.777029 -0.0528913 0)
(-0.739054 -0.0299587 0)
(-0.697148 -0.00832177 0)
(-0.653576 0.0126786 0)
(-0.608686 0.0324978 0)
(-0.562898 0.0504097 0)
(-0.51695 0.065592 0)
(-0.471333 0.0768353 0)
(-0.426701 0.082959 0)
(-0.383988 0.0824951 0)
(-0.34435 0.0747336 0)
(-0.309027 0.0598228 0)
(-0.279922 0.0384161 0)
(-0.259375 0.0127568 0)
(-0.249431 -0.0141225 0)
(-0.250338 -0.0399046 0)
(-0.260274 -0.0621501 0)
(-0.280981 -0.0799095 0)
(-0.311609 -0.0966744 0)
(-0.348777 -0.10973 0)
(-0.387653 -0.117809 0)
(-0.42948 -0.115082 0)
(-0.477576 -0.10435 0)
(-0.529471 -0.0878817 0)
(-0.579616 -0.0622004 0)
(-0.63036 -0.0298064 0)
(-0.683248 0.00478692 0)
(-0.353279 -0.523269 0)
(-0.492685 -0.426257 0)
(-0.629917 -0.311263 0)
(-0.717275 -0.217534 0)
(-0.748379 -0.157668 0)
(-0.744533 -0.118287 0)
(-0.720967 -0.0895739 0)
(-0.685971 -0.066489 0)
(-0.645351 -0.0454793 0)
(-0.602162 -0.0255543 0)
(-0.557995 -0.00673373 0)
(-0.513816 0.0106148 0)
(-0.470152 0.0254341 0)
(-0.427453 0.0363871 0)
(-0.386869 0.0421923 0)
(-0.349766 0.0419997 0)
(-0.317104 0.0355979 0)
(-0.290351 0.0230082 0)
(-0.271291 0.00543645 0)
(-0.260998 -0.0149152 0)
(-0.259993 -0.0363765 0)
(-0.267891 -0.0566108 0)
(-0.283999 -0.072416 0)
(-0.310643 -0.0877992 0)
(-0.344931 -0.100755 0)
(-0.383106 -0.110284 0)
(-0.422644 -0.11184 0)
(-0.466273 -0.103925 0)
(-0.515549 -0.0882797 0)
(-0.563221 -0.0646382 0)
(-0.609746 -0.0307575 0)
(-0.657706 0.00619997 0)
(-0.703926 0.0434693 0)
(-0.2586 -0.567668 0)
(-0.360455 -0.504882 0)
(-0.48978 -0.401426 0)
(-0.602993 -0.296207 0)
(-0.663759 -0.222775 0)
(-0.677782 -0.176646 0)
(-0.664558 -0.145043 0)
(-0.636015 -0.120548 0)
(-0.599426 -0.0994593 0)
(-0.559739 -0.0796092 0)
(-0.51901 -0.0608784 0)
(-0.478348 -0.043569 0)
(-0.438827 -0.0284402 0)
(-0.401658 -0.0162456 0)
(-0.367621 -0.00822451 0)
(-0.337486 -0.00510181 0)
(-0.31267 -0.0072954 0)
(-0.294213 -0.0148049 0)
(-0.282881 -0.0264775 0)
(-0.279456 -0.0407796 0)
(-0.284061 -0.0558294 0)
(-0.29539 -0.0684138 0)
(-0.316046 -0.0791589 0)
(-0.345591 -0.0915901 0)
(-0.379554 -0.100628 0)
(-0.415812 -0.105462 0)
(-0.454161 -0.101231 0)
(-0.497629 -0.0880119 0)
(-0.542635 -0.0679237 0)
(-0.584255 -0.0360241 0)
(-0.626081 0.00134378 0)
(-0.667457 0.0413235 0)
(-0.70671 0.0781433 0)
(-0.189882 -0.590402 0)
(-0.258635 -0.558519 0)
(-0.362922 -0.483351 0)
(-0.484993 -0.382281 0)
(-0.576041 -0.296867 0)
(-0.614105 -0.243155 0)
(-0.614998 -0.207255 0)
(-0.596054 -0.17959 0)
(-0.566583 -0.156212 0)
(-0.532399 -0.135223 0)
(-0.496887 -0.115296 0)
(-0.461647 -0.0965584 0)
(-0.427993 -0.0799089 0)
(-0.396905 -0.0661702 0)
(-0.369256 -0.0559603 0)
(-0.34583 -0.0497745 0)
(-0.327514 -0.0478098 0)
(-0.31513 -0.0496597 0)
(-0.309247 -0.0545389 0)
(-0.310326 -0.061415 0)
(-0.317477 -0.0685345 0)
(-0.331506 -0.0733366 0)
(-0.354963 -0.0816065 0)
(-0.383298 -0.0897513 0)
(-0.413709 -0.095009 0)
(-0.445877 -0.0948891 0)
(-0.481403 -0.0857734 0)
(-0.521925 -0.0690157 0)
(-0.559378 -0.0431566 0)
(-0.594967 -0.00684242 0)
(-0.63123 0.0324368 0)
(-0.664032 0.0724995 0)
(-0.696716 0.107314 0)
(-0.139286 -0.594851 0)
(-0.185373 -0.586447 0)
(-0.260732 -0.542249 0)
(-0.372799 -0.460017 0)
(-0.485993 -0.369158 0)
(-0.553878 -0.306161 0)
(-0.573694 -0.266307 0)
(-0.566904 -0.237708 0)
(-0.547128 -0.212828 0)
(-0.520987 -0.189842 0)
(-0.492082 -0.167403 0)
(-0.463397 -0.145754 0)
(-0.436484 -0.125876 0)
(-0.412193 -0.108081 0)
(-0.391179 -0.0935768 0)
(-0.37399 -0.082549 0)
(-0.361282 -0.075238 0)
(-0.353396 -0.0714569 0)
(-0.35094 -0.0704394 0)
(-0.354189 -0.0710371 0)
(-0.361752 -0.0711413 0)
(-0.377348 -0.0728122 0)
(-0.399636 -0.0783151 0)
(-0.422402 -0.0825292 0)
(-0.446397 -0.0843851 0)
(-0.472768 -0.0799269 0)
(-0.50459 -0.0673143 0)
(-0.538063 -0.0481807 0)
(-0.567824 -0.0166101 0)
(-0.597763 0.0204722 0)
(-0.626778 0.0600305 0)
(-0.652043 0.0985449 0)
(-0.678131 0.130264 0)
(-0.100217 -0.584205 0)
(-0.133921 -0.591838 0)
(-0.18558 -0.574908 0)
(-0.276984 -0.518605 0)
(-0.39587 -0.436004 0)
(-0.493304 -0.362177 0)
(-0.539846 -0.316576 0)
(-0.548806 -0.286768 0)
(-0.538619 -0.262296 0)
(-0.520869 -0.238157 0)
(-0.500293 -0.213086 0)
(-0.480061 -0.188461 0)
(-0.461084 -0.164982 0)
(-0.444321 -0.142885 0)
(-0.430424 -0.123778 0)
(-0.41939 -0.107451 0)
(-0.412126 -0.0943668 0)
(-0.408775 -0.0846928 0)
(-0.409213 -0.0773283 0)
(-0.412717 -0.0702444 0)
(-0.420564 -0.0657822 0)
(-0.433727 -0.0670316 0)
(-0.44769 -0.0699221 0)
(-0.461344 -0.0722383 0)
(-0.476793 -0.0714174 0)
(-0.496744 -0.0636035 0)
(-0.523028 -0.0493832 0)
(-0.547337 -0.0261241 0)
(-0.570464 0.00778085 0)
(-0.595045 0.0443171 0)
(-0.616992 0.082401 0)
(-0.635501 0.117957 0)
(-0.6544 0.146228 0)