/*--------------------------------*- C++ -*----------------------------------*\
  =========                 |
  \\      /  F ield         | OpenFOAM: The Open Source CFD Toolbox
   \\    /   O peration     | Website:  https://openfoam.org
    \\  /    A nd           | Version:  10
     \\/     M anipulation  |
\*---------------------------------------------------------------------------*/
FoamFile
{
    format      ascii;
    class       surfaceScalarField;
    location    "0.801585";
    object      phi;
}
// * * * * * * * * * * * * * * * * * * * * * * * * * * * * * * * * * * * * * //

dimensions      [1 0 -1 0 0 0 0];

internalField   nonuniform List<scalar> 
32368
(
-9.2089e-05
-6.62787e-05
-7.66943e-05
-6.36263e-05
-6.05669e-05
-5.78928e-05
-4.55427e-05
-4.91343e-05
-3.33058e-05
-3.88126e-05
-2.46446e-05
-2.89805e-05
-1.82743e-05
-2.02956e-05
-1.32283e-05
-1.1907e-05
-9.24944e-06
-3.47852e-06
-6.80337e-06
5.44196e-06
-6.26933e-06
1.82946e-05
-5.57501e-06
4.75205e-05
-7.15716e-06
6.49783e-05
-7.90513e-06
6.62556e-05
-7.66849e-06
5.5697e-05
-6.14229e-06
3.52131e-05
-4.02354e-06
2.16868e-05
-1.13411e-06
1.79507e-05
2.47427e-06
1.78117e-05
6.72334e-06
1.82567e-05
1.1567e-05
1.91619e-05
1.67686e-05
2.04893e-05
2.21442e-05
2.21818e-05
2.74368e-05
2.4209e-05
3.26736e-05
2.66303e-05
3.79873e-05
2.96017e-05
4.36124e-05
3.30125e-05
4.97233e-05
3.72085e-05
5.64752e-05
4.25671e-05
6.41852e-05
4.91471e-05
7.34021e-05
5.7592e-05
8.37293e-05
6.87948e-05
9.5136e-05
8.33997e-05
0.000108637
0.000103403
0.000124257
0.000129781
0.000142454
0.000162278
0.000163545
0.000202327
0.000187593
0.000246156
0.000214627
0.000296223
0.000243784
0.000341848
0.000276275
0.000387018
0.000306706
0.000425271
0.000334979
0.000452365
0.000363932
0.000477121
0.000394741
0.000500507
0.000428099
0.000522412
0.000457608
0.000546256
0.00047652
0.000560728
0.000480609
0.000559424
0.000475777
0.000542681
0.000467363
0.000521896
0.000445929
0.000493346
0.000408481
0.000473209
0.000324676
0.000407564
0.000226616
0.000314568
0.000166228
0.000219414
0.000127301
0.000150731
9.34074e-05
8.40637e-05
6.71062e-05
2.4965e-05
5.31118e-05
-1.02359e-05
4.73696e-05
-2.82573e-05
4.42779e-05
-3.79148e-05
4.67228e-05
-4.2938e-05
4.52792e-05
-4.59299e-05
4.25068e-05
-4.85227e-05
3.83589e-05
-5.25767e-05
3.79714e-05
-5.99126e-05
4.22585e-05
-6.87455e-05
5.02479e-05
-7.88896e-05
6.16397e-05
-9.09823e-05
7.67517e-05
-0.000106876
9.10826e-05
-0.000121931
0.000100268
-0.000129653
0.000103475
-0.000129526
0.000102834
-0.000122871
9.66083e-05
-0.000113985
7.78053e-05
-0.00010081
4.81838e-05
-7.82262e-05
3.02779e-05
-5.23376e-05
2.42234e-05
-4.3109e-05
2.23365e-05
-4.2598e-05
2.4885e-05
-4.44594e-05
3.39501e-05
-5.37613e-05
4.76746e-05
-7.47396e-05
6.37343e-05
-0.000102977
7.74711e-05
-0.000126995
8.73274e-05
-0.000137813
9.36093e-05
-0.000131677
9.81364e-05
-0.000111226
0.000102228
-8.0862e-05
0.00010714
-4.71251e-05
0.00011239
-1.34033e-05
0.000112756
1.78328e-05
0.000106694
4.46043e-05
9.5178e-05
6.38621e-05
8.23155e-05
7.69147e-05
6.65724e-05
8.39575e-05
4.63868e-05
8.34017e-05
2.17411e-05
6.70761e-05
-9.29947e-07
3.80903e-05
-3.01651e-05
9.84719e-07
-5.81511e-05
-5.1419e-05
-7.66943e-05
-0.000113833
-6.89655e-05
-0.000162194
-5.26365e-05
-0.000155577
-5.12927e-05
-0.000144741
-5.90652e-05
-0.000152581
-6.20208e-05
-0.000205357
-5.67753e-05
-0.000203922
-5.17689e-05
-0.000177493
-4.80535e-05
-0.000147759
-4.46543e-05
-0.000106208
-6.70972e-05
-5.1676e-05
-9.70169e-05
-7.31915e-05
-8.21619e-05
-7.11398e-05
-6.65984e-05
-6.58532e-05
-5.17281e-05
-5.7347e-05
-3.88663e-05
-4.70067e-05
-2.90111e-05
-3.60273e-05
-2.20516e-05
-2.58533e-05
-1.66464e-05
-1.62874e-05
-1.25901e-05
-6.73805e-06
-1.02029e-05
3.0591e-06
-1.0474e-05
1.40779e-05
-1.44063e-05
3.5393e-05
-1.50218e-05
6.48284e-05
-1.51518e-05
7.00392e-05
-1.31235e-05
6.28908e-05
-1.02912e-05
4.26461e-05
-7.34922e-06
2.48643e-05
-4.58334e-06
1.69667e-05
-1.11417e-06
1.51166e-05
2.95556e-06
1.46489e-05
7.52155e-06
1.48348e-05
1.23432e-05
1.56614e-05
1.71996e-05
1.70735e-05
2.18962e-05
1.8938e-05
2.64229e-05
2.11913e-05
3.08107e-05
2.38551e-05
3.51091e-05
2.69053e-05
3.94099e-05
3.04319e-05
4.38332e-05
3.4609e-05
4.85121e-05
3.95579e-05
5.38649e-05
4.55232e-05
6.03574e-05
5.3088e-05
6.83426e-05
6.20557e-05
7.87476e-05
7.36577e-05
9.24381e-05
8.96447e-05
0.000109965
0.000110795
0.000131015
0.000141555
0.000158651
0.000184204
0.000190954
0.000241215
0.0002254
0.000302115
0.000262841
0.000363878
0.000297646
0.000418359
0.000329371
0.000455254
0.000359818
0.000484313
0.000391798
0.000509131
0.000423402
0.000531733
0.000452288
0.000556773
0.000472607
0.000573354
0.000479712
0.000574667
0.000476464
0.000559537
0.000471331
0.000540596
0.000453681
0.00051599
0.0004337
0.000491607
0.000368956
0.000447417
0.000275078
0.000357897
0.000205537
0.000262263
0.000153689
0.00017853
0.000107
9.4367e-05
7.41074e-05
2.77159e-05
5.79378e-05
-7.47747e-06
5.13173e-05
-2.44828e-05
4.83408e-05
-3.3134e-05
4.99521e-05
-3.71113e-05
4.75866e-05
-3.96108e-05
4.29707e-05
-4.30764e-05
3.93214e-05
-4.87001e-05
3.90744e-05
-5.7133e-05
4.34395e-05
-6.63625e-05
4.9646e-05
-7.55114e-05
6.04697e-05
-8.74348e-05
7.55315e-05
-0.000103305
9.03419e-05
-0.000118192
0.000100433
-0.000126705
0.000104587
-0.000126876
0.000105161
-0.000120358
0.000100073
-0.000111316
8.2628e-05
-9.75955e-05
5.42865e-05
-7.66267e-05
3.53712e-05
-5.34883e-05
2.83113e-05
-4.40118e-05
2.5616e-05
-4.23858e-05
2.52969e-05
-4.27766e-05
3.17133e-05
-4.48492e-05
4.48164e-05
-5.84234e-05
6.31255e-05
-8.38262e-05
8.09866e-05
-0.000110059
9.42276e-05
-0.000128362
0.000102191
-0.000130153
0.000106177
-0.00011572
0.000109027
-8.96391e-05
0.000112289
-5.7833e-05
0.000116774
-2.45471e-05
0.000120495
7.72382e-06
0.000118114
3.69574e-05
0.000109992
5.99563e-05
9.78456e-05
7.61854e-05
8.4e-05
8.56493e-05
6.71436e-05
8.84782e-05
4.42792e-05
8.0116e-05
2.19374e-05
5.35333e-05
-1.98053e-06
1.99147e-05
-2.88145e-05
-2.96863e-05
-5.46157e-05
-9.22724e-05
-6.36952e-05
-0.000157313
-4.9569e-05
-0.000176526
-4.53331e-05
-0.000153759
-4.8533e-05
-0.000153184
-5.48911e-05
-0.000198382
-5.08898e-05
-0.000207588
-4.70489e-05
-0.000180117
-4.38467e-05
-0.000147849
-4.16828e-05
-0.000104664
-6.6602e-05
-4.85023e-05
-0.00010035
-7.84586e-05
-8.62274e-05
-7.6897e-05
-7.14622e-05
-7.20728e-05
-5.73671e-05
-6.38532e-05
-4.53356e-05
-5.35347e-05
-3.579e-05
-4.26415e-05
-2.85418e-05
-3.17973e-05
-2.25091e-05
-2.08138e-05
-1.83491e-05
-9.86886e-06
-1.56705e-05
9.66388e-07
-1.61519e-05
1.26805e-05
-2.33354e-05
3.10726e-05
-2.60919e-05
6.00702e-05
-2.45274e-05
7.18158e-05
-2.03366e-05
6.59483e-05
-1.51024e-05
4.74949e-05
-1.0823e-05
2.78376e-05
-7.3736e-06
1.66958e-05
-3.97929e-06
1.28825e-05
-1.00512e-07
1.14985e-05
4.20508e-06
1.10778e-05
8.69134e-06
1.15804e-05
1.31603e-05
1.28598e-05
1.74482e-05
1.47261e-05
2.15182e-05
1.70265e-05
2.54259e-05
1.96845e-05
2.91562e-05
2.26757e-05
3.27529e-05
2.60364e-05
3.62765e-05
2.98345e-05
3.98047e-05
3.41719e-05
4.3587e-05
3.91771e-05
4.78012e-05
4.51814e-05
5.26397e-05
5.20811e-05
5.87044e-05
6.05279e-05
6.65195e-05
7.14295e-05
7.75888e-05
8.5127e-05
9.43549e-05
0.000103965
0.000117679
0.000129002
0.000148883
0.000167027
0.000186565
0.000219764
0.000232722
0.000291639
0.000276653
0.000370161
0.000315414
0.000430028
0.00035324
0.000472454
0.000383315
0.000507569
0.000416568
0.000537198
0.000446579
0.000562444
0.000468741
0.000581492
0.00047651
0.000586043
0.000474675
0.000573326
0.00047133
0.000552884
0.000458752
0.000533268
0.000437158
0.000507131
0.000397631
0.000462756
0.000314551
0.000387099
0.000242473
0.000290477
0.000175989
0.000195908
0.000116654
9.93652e-05
7.9044e-05
2.94439e-05
6.18591e-05
-4.07794e-06
5.46368e-05
-1.96119e-05
5.26486e-05
-2.73693e-05
5.26677e-05
-3.02359e-05
4.94652e-05
-3.31646e-05
4.29648e-05
-3.78819e-05
4.01218e-05
-4.47828e-05
4.05225e-05
-5.376e-05
4.43392e-05
-6.32306e-05
4.94054e-05
-7.23675e-05
5.90499e-05
-8.35077e-05
7.30709e-05
-9.73673e-05
8.8017e-05
-0.000111193
9.95248e-05
-0.000121335
0.000105124
-0.000123468
0.000107103
-0.000117924
0.000102922
-0.000109614
8.6644e-05
-9.70941e-05
5.94472e-05
-7.80317e-05
4.08478e-05
-5.56637e-05
3.29088e-05
-4.57498e-05
2.97432e-05
-4.31206e-05
2.8376e-05
-4.31311e-05
2.97078e-05
-4.30432e-05
4.0807e-05
-4.65651e-05
5.94604e-05
-6.68626e-05
8.081e-05
-9.28293e-05
9.86978e-05
-0.000115694
0.000109088
-0.000124911
0.000113422
-0.000116895
0.000114653
-9.55005e-05
0.000116047
-6.6484e-05
0.000118902
-3.45629e-05
0.000124006
-2.18349e-06
0.000125047
2.74197e-05
0.000120138
5.35483e-05
0.000109829
7.26129e-05
9.67264e-05
8.47949e-05
8.11367e-05
8.96498e-05
6.20107e-05
8.55169e-05
3.86247e-05
6.5701e-05
1.91376e-05
3.20473e-05
-4.21596e-06
-1.26618e-05
-2.85293e-05
-7.42277e-05
-4.73343e-05
-0.000142678
-4.42411e-05
-0.000183423
-3.68384e-05
-0.000166222
-3.76309e-05
-0.000156636
-4.71925e-05
-0.000188277
-4.50417e-05
-0.000210815
-4.26108e-05
-0.000183148
-3.93438e-05
-0.000147002
-3.91063e-05
-0.000101735
-6.5225e-05
-4.62874e-05
-0.000103788
-8.18667e-05
-9.07005e-05
-8.1062e-05
-7.6878e-05
-7.69212e-05
-6.36113e-05
-6.91214e-05
-5.25934e-05
-5.9276e-05
-4.44846e-05
-4.86752e-05
-3.77092e-05
-3.76473e-05
-3.09625e-05
-2.52094e-05
-2.64944e-05
-1.29149e-05
-2.38847e-05
-1.03058e-06
-2.47599e-05
1.1597e-05
-3.43836e-05
3.06697e-05
-3.855e-05
5.70161e-05
-3.49571e-05
7.02637e-05
-2.82389e-05
6.6603e-05
-2.02385e-05
4.89137e-05
-1.4027e-05
2.91274e-05
-9.4365e-06
1.60446e-05
-6.09585e-06
1.09948e-05
-2.51717e-06
8.8549e-06
1.41176e-06
7.90802e-06
5.46004e-06
8.17491e-06
9.46208e-06
9.37436e-06
1.32929e-05
1.12715e-05
1.69207e-05
1.36314e-05
2.03913e-05
1.63272e-05
2.36961e-05
1.93001e-05
2.6881e-05
2.25682e-05
2.99837e-05
2.61685e-05
3.30634e-05
3.02005e-05
3.62601e-05
3.4766e-05
3.96653e-05
4.00496e-05
4.34137e-05
4.60591e-05
4.78557e-05
5.31526e-05
5.32984e-05
6.17436e-05
6.06547e-05
7.20353e-05
7.08446e-05
8.55817e-05
8.52218e-05
0.000102609
0.000106867
0.000126945
0.000139618
0.000159598
0.000184267
0.000207433
0.000237176
0.00027651
0.000285649
0.000354712
0.000330631
0.000424421
0.000376679
0.000478722
0.000408277
0.000528665
0.000440079
0.000558165
0.000462728
0.000581342
0.00047428
0.000590282
0.000472498
0.000580757
0.000468856
0.000562322
0.000457863
0.000541275
0.000446561
0.00051169
0.000406552
0.000472612
0.000337997
0.000397333
0.000263109
0.000304308
0.000188773
0.000200364
0.000120485
9.98355e-05
8.07818e-05
2.9244e-05
6.45593e-05
-3.65074e-07
5.71887e-05
-1.37322e-05
5.67806e-05
-2.00999e-05
5.4373e-05
-2.29272e-05
5.0362e-05
-2.65843e-05
4.3029e-05
-3.30345e-05
4.07212e-05
-4.11483e-05
4.20169e-05
-5.03293e-05
4.51759e-05
-6.00914e-05
4.91962e-05
-6.91116e-05
5.63953e-05
-7.76194e-05
6.78365e-05
-8.69394e-05
8.24952e-05
-9.83603e-05
9.64838e-05
-0.000110883
0.00010495
-0.000117805
0.000108806
-0.000115798
0.000106677
-0.000109779
9.33296e-05
-9.96485e-05
6.7641e-05
-8.26948e-05
4.77608e-05
-6.03241e-05
3.83097e-05
-4.90424e-05
3.41783e-05
-4.50166e-05
3.26377e-05
-4.42674e-05
3.22563e-05
-4.41772e-05
3.68291e-05
-4.45699e-05
5.50068e-05
-5.35679e-05
7.79831e-05
-7.78867e-05
0.000100618
-0.000102892
0.0001148
-0.000117343
0.000119928
-0.000115518
0.000119528
-9.88712e-05
0.000118621
-7.30333e-05
0.000119359
-4.31891e-05
0.000122504
-1.24138e-05
0.000127413
1.74881e-05
0.000125303
4.54111e-05
0.000117682
6.71052e-05
0.000105067
8.14255e-05
8.99609e-05
8.80148e-05
7.27315e-05
8.59911e-05
5.20658e-05
7.10503e-05
3.37859e-05
3.99501e-05
1.4886e-05
-1.87786e-06
-6.0317e-06
-6.10318e-05
-2.67865e-05
-0.000127234
-3.40827e-05
-0.000177635
-2.87637e-05
-0.000176367
-2.88858e-05
-0.000161126
-3.89838e-05
-0.000180636
-3.93804e-05
-0.000212516
-3.86136e-05
-0.000185414
-3.52303e-05
-0.000144751
-3.70613e-05
-9.8683e-05
-6.33541e-05
-4.47613e-05
-0.000107155
-8.27637e-05
-9.58618e-05
-8.30994e-05
-8.37134e-05
-8.02101e-05
-7.22092e-05
-7.3468e-05
-6.30855e-05
-6.50717e-05
-5.61645e-05
-5.52601e-05
-4.92984e-05
-4.33577e-05
-4.20247e-05
-2.95916e-05
-3.73104e-05
-1.60829e-05
-3.48444e-05
-2.97113e-06
-3.68337e-05
1.09069e-05
-4.80966e-05
3.17469e-05
-5.05615e-05
5.44794e-05
-4.50227e-05
6.57169e-05
-3.57131e-05
6.45561e-05
-2.48159e-05
4.78114e-05
-1.62987e-05
2.83486e-05
-1.08989e-05
1.47903e-05
-7.57703e-06
9.34522e-06
-4.37902e-06
6.78266e-06
-9.24185e-07
5.39277e-06
2.66109e-06
5.40192e-06
6.16816e-06
6.54702e-06
9.51352e-06
8.45582e-06
1.26556e-05
1.08501e-05
1.56492e-05
1.3547e-05
1.85039e-05
1.64502e-05
2.12568e-05
1.95822e-05
2.3949e-05
2.29796e-05
2.66567e-05
2.67148e-05
2.94675e-05
3.09004e-05
3.24664e-05
3.5644e-05
3.57717e-05
4.10241e-05
3.95737e-05
4.72466e-05
4.40961e-05
5.45344e-05
4.9799e-05
6.31648e-05
5.72866e-05
7.38851e-05
6.74653e-05
8.68686e-05
8.22053e-05
0.000104097
0.000103803
0.00012689
0.000135754
0.000158948
0.000180637
0.000205597
0.000236529
0.000263131
0.00028565
0.000336823
0.000342148
0.00040195
0.000387495
0.000474157
0.000424889
0.000524493
0.000454876
0.000563265
0.000468179
0.000581537
0.000470073
0.000579335
0.000465129
0.000561416
0.000461261
0.000542508
0.000438107
0.000514634
0.000408578
0.000462666
0.00034612
0.000393277
0.000274598
0.000305005
0.000190271
0.000197859
0.000116773
8.91038e-05
7.99016e-05
2.79076e-05
6.61415e-05
3.739e-06
5.94049e-05
-7.48912e-06
5.95391e-05
-1.17419e-05
5.57944e-05
-1.50217e-05
5.00837e-05
-2.03994e-05
4.31424e-05
-2.88011e-05
4.14245e-05
-3.77556e-05
4.38324e-05
-4.71717e-05
4.65943e-05
-5.71338e-05
4.90771e-05
-6.51098e-05
5.24779e-05
-6.99821e-05
5.94497e-05
-7.42827e-05
7.23325e-05
-8.11597e-05
8.94214e-05
-9.46241e-05
0.000102952
-0.000107247
0.000109711
-0.000112297
0.000111444
-0.00010944
0.000102355
-0.000103499
7.89878e-05
-9.05606e-05
5.69112e-05
-6.91072e-05
4.51999e-05
-5.528e-05
3.93372e-05
-4.89866e-05
3.70024e-05
-4.66742e-05
3.63486e-05
-4.61926e-05
3.7939e-05
-4.59002e-05
5.14699e-05
-4.88959e-05
7.50781e-05
-6.83751e-05
0.00010068
-9.25336e-05
0.000119079
-0.000109921
0.000126238
-0.000112752
0.000125188
-0.000100674
0.000121808
-7.8106e-05
0.000119216
-5.06534e-05
0.000119394
-2.12993e-05
0.000124567
8.25709e-06
0.000126685
3.5584e-05
0.00012116
5.98573e-05
0.000109688
7.67762e-05
9.42999e-05
8.49145e-05
7.68682e-05
8.40693e-05
5.80419e-05
7.1264e-05
4.05342e-05
4.3687e-05
2.43039e-05
3.58397e-06
7.16708e-06
-5.23094e-05
-9.20264e-06
-0.000116594
-1.99168e-05
-0.000168497
-2.04141e-05
-0.000178736
-2.22108e-05
-0.000164051
-3.09893e-05
-0.000177589
-3.40938e-05
-0.000212279
-3.51368e-05
-0.000186071
-3.24663e-05
-0.000141283
-3.60599e-05
-9.57394e-05
-6.15308e-05
-4.47113e-05
-0.000110881
-8.21959e-05
-0.000101721
-8.34472e-05
-9.16923e-05
-8.16826e-05
-8.3025e-05
-7.65884e-05
-7.69218e-05
-7.07356e-05
-7.10544e-05
-6.19301e-05
-6.3957e-05
-4.95871e-05
-5.6648e-05
-3.50813e-05
-5.18188e-05
-2.01966e-05
-4.95446e-05
-5.28162e-06
-5.38175e-05
1.09455e-05
-6.32373e-05
3.1203e-05
-6.09619e-05
5.04039e-05
-5.3381e-05
6.01035e-05
-4.17567e-05
5.94486e-05
-2.83312e-05
4.44673e-05
-1.77176e-05
2.57913e-05
-1.19922e-05
1.30285e-05
-8.75315e-06
7.91085e-06
-5.78978e-06
5.1314e-06
-2.72456e-06
3.43164e-06
4.87938e-07
3.13316e-06
3.57956e-06
4.24791e-06
6.47235e-06
6.18827e-06
9.17005e-06
8.60035e-06
1.16816e-05
1.12839e-05
1.40771e-05
1.4101e-05
1.63792e-05
1.70724e-05
1.86198e-05
2.02623e-05
2.08621e-05
2.3704e-05
2.32112e-05
2.74714e-05
2.57327e-05
3.16851e-05
2.85572e-05
3.6391e-05
3.18346e-05
4.1743e-05
3.57171e-05
4.79443e-05
4.05394e-05
5.52054e-05
4.66659e-05
6.39533e-05
5.46915e-05
7.44412e-05
6.57431e-05
8.76948e-05
8.12108e-05
0.000104763
0.000103762
0.000127521
0.000135897
0.000159573
0.000177088
0.000201295
0.000230834
0.000254975
0.000279893
0.00031418
0.000339871
0.000379856
0.00038705
0.000448982
0.00042753
0.000504979
0.00045382
0.000545477
0.000459127
0.000556784
0.000458535
0.000546381
0.000451539
0.000525266
0.000441852
0.000496484
0.000396805
0.00045335
0.000350694
0.00038113
0.000270306
0.000288228
0.0001814
0.000169785
0.000107171
7.39404e-05
7.71188e-05
2.67274e-05
6.61097e-05
8.54338e-06
6.17528e-05
-2.48165e-07
6.09721e-05
-2.74338e-06
5.65194e-05
-7.83869e-06
4.86674e-05
-1.54306e-05
4.34608e-05
-2.5275e-05
4.25214e-05
-3.48621e-05
4.58788e-05
-4.47188e-05
4.82078e-05
-5.43448e-05
4.9271e-05
-6.07299e-05
4.94531e-05
-6.35284e-05
5.16306e-05
-6.56812e-05
5.92518e-05
-6.8205e-05
7.75127e-05
-7.53617e-05
9.63157e-05
-9.16431e-05
0.000108768
-0.000104147
0.000113951
-0.000107694
0.000111487
-0.000105633
9.4209e-05
-9.95166e-05
7.01011e-05
-8.3811e-05
5.50021e-05
-6.64384e-05
4.63207e-05
-5.66426e-05
4.23084e-05
-5.16633e-05
4.12521e-05
-4.99004e-05
4.21816e-05
-4.9358e-05
5.06767e-05
-5.03855e-05
7.47565e-05
-6.4151e-05
0.000101768
-8.72169e-05
0.00012302
-0.000104677
0.000132242
-0.000109944
0.000131304
-0.000101008
0.000125973
-8.15139e-05
0.000120069
-5.67972e-05
0.00011686
-2.91232e-05
0.000117363
-9.77741e-07
0.000123071
2.61485e-05
0.00012052
5.15817e-05
0.000110239
7.06448e-05
9.45768e-05
8.02622e-05
7.61698e-05
8.03032e-05
5.7947e-05
6.82561e-05
4.17485e-05
4.34454e-05
2.72799e-05
5.52276e-06
1.38278e-05
-4.75917e-05
1.5471e-06
-0.00011008
-7.37834e-06
-0.000162647
-1.12684e-05
-0.000176928
-1.4722e-05
-0.000164299
-2.38432e-05
-0.000175766
-2.95411e-05
-0.000210282
-3.24658e-05
-0.000184389
-3.1105e-05
-0.000136138
-3.65295e-05
-9.29e-05
-5.99711e-05
-4.65407e-05
-0.000115831
-8.02419e-05
-0.000108295
-8.2165e-05
-9.96986e-05
-8.10458e-05
-9.51746e-05
-7.78433e-05
-9.16631e-05
-7.36696e-05
-8.81362e-05
-6.61919e-05
-8.38924e-05
-5.58979e-05
-7.77136e-05
-4.23375e-05
-7.26211e-05
-2.63149e-05
-7.0821e-05
-8.85475e-06
-7.47381e-05
9.26303e-06
-7.56657e-05
2.89634e-05
-6.91594e-05
4.49838e-05
-5.95046e-05
5.36763e-05
-4.53273e-05
5.21941e-05
-2.97954e-05
3.88967e-05
-1.82248e-05
2.22427e-05
-1.29847e-05
1.13415e-05
-9.78556e-06
6.67064e-06
-6.77603e-06
3.66886e-06
-3.7281e-06
1.65814e-06
-7.79242e-07
1.24658e-06
2.00882e-06
2.35919e-06
4.54562e-06
4.37918e-06
6.84298e-06
6.85163e-06
8.95028e-06
9.53067e-06
1.09756e-05
1.22284e-05
1.29018e-05
1.50655e-05
1.47101e-05
1.81301e-05
1.64856e-05
2.13484e-05
1.82986e-05
2.48079e-05
2.02318e-05
2.85953e-05
2.24177e-05
3.26947e-05
2.49674e-05
3.72494e-05
2.8046e-05
4.23619e-05
3.19295e-05
4.81896e-05
3.69109e-05
5.50562e-05
4.33949e-05
6.33226e-05
5.20324e-05
7.36376e-05
6.36862e-05
8.65998e-05
7.99375e-05
0.00010315
0.000102661
0.000125663
0.000133106
0.000155102
0.000172347
0.000193943
0.0002184
0.000240051
0.000270938
0.000298319
0.000327581
0.000361657
0.000376988
0.000424014
0.000413886
0.000476836
0.000433012
0.000506821
0.000432685
0.000503134
0.000432057
0.000483691
0.000409434
0.000455822
0.000390006
0.000409492
0.000323062
0.000341155
0.000244579
0.000239671
0.000151852
0.000136075
9.21595e-05
5.50245e-05
7.24195e-05
2.65073e-05
6.45106e-05
1.37782e-05
6.39876e-05
8.74112e-06
6.06227e-05
5.2927e-06
5.59702e-05
-1.66017e-06
4.69399e-05
-1.22414e-05
4.39728e-05
-2.26619e-05
4.40102e-05
-3.2763e-05
4.8194e-05
-4.28966e-05
5.01885e-05
-5.15995e-05
5.07199e-05
-5.76412e-05
5.02304e-05
-6.11777e-05
5.15601e-05
-6.40397e-05
5.43105e-05
-6.61275e-05
6.39047e-05
-6.78723e-05
8.49059e-05
-7.53562e-05
0.000103272
-9.12912e-05
0.000113259
-0.00010237
0.00011602
-0.000104969
0.000109517
-0.000103951
8.99887e-05
-9.8194e-05
6.98822e-05
-8.41889e-05
5.66676e-05
-6.96922e-05
4.9666e-05
-6.05754e-05
4.75629e-05
-5.65011e-05
4.77211e-05
-5.53975e-05
5.37058e-05
-5.48179e-05
7.81289e-05
-6.45126e-05
0.000106873
-8.66914e-05
0.00012848
-0.000103738
0.000137703
-0.000108658
0.000136121
-0.00010115
0.000129272
-8.38983e-05
0.000121064
-6.14595e-05
0.000114503
-3.52833e-05
0.000111317
-8.93042e-06
0.000115009
1.70848e-05
0.000115871
4.20392e-05
0.000106305
6.34445e-05
9.0786e-05
7.4657e-05
7.16617e-05
7.50904e-05
5.36459e-05
6.38615e-05
3.87779e-05
4.04737e-05
2.69556e-05
4.0527e-06
1.70184e-05
-4.67632e-05
8.51547e-06
-0.000106619
1.59926e-06
-0.000158628
-2.48461e-06
-0.000174801
-7.85322e-06
-0.000162044
-1.80135e-05
-0.000173909
-2.61602e-05
-0.000207105
-3.07368e-05
-0.000180001
-3.09818e-05
-0.000129099
-3.83121e-05
-8.97361e-05
-5.84085e-05
-4.94779e-05
-0.000120791
-7.60789e-05
-0.000114811
-7.8867e-05
-0.000107865
-7.8832e-05
-0.000105373
-7.67009e-05
-0.000103636
-7.3305e-05
-0.000102981
-6.69293e-05
-0.000102937
-5.85072e-05
-9.92136e-05
-4.60064e-05
-9.46641e-05
-3.0067e-05
-9.08077e-05
-1.20958e-05
-8.91016e-05
6.33427e-06
-8.33766e-05
2.458e-05
-7.43186e-05
3.86723e-05
-6.19503e-05
4.57207e-05
-4.53837e-05
4.34787e-05
-2.93766e-05
3.2201e-05
-1.86702e-05
1.89513e-05
-1.37136e-05
1.00097e-05
-1.02673e-05
5.46631e-06
-6.83414e-06
1.96561e-06
-3.62481e-06
-1.39111e-07
-7.18323e-07
-4.97986e-07
1.87938e-06
7.60572e-07
4.12387e-06
2.96022e-06
6.0909e-06
5.52634e-06
7.76315e-06
8.31286e-06
9.49924e-06
1.07387e-05
1.11509e-05
1.34441e-05
1.25622e-05
1.65327e-05
1.38642e-05
1.96532e-05
1.51142e-05
2.29717e-05
1.64259e-05
2.64986e-05
1.79608e-05
3.01702e-05
1.97697e-05
3.421e-05
2.19057e-05
3.86257e-05
2.46472e-05
4.32566e-05
2.82993e-05
4.83914e-05
3.32001e-05
5.43551e-05
3.97615e-05
6.17857e-05
4.84549e-05
7.11671e-05
6.01285e-05
8.30118e-05
7.61447e-05
9.85398e-05
9.76431e-05
0.000118998
0.000125906
0.00014613
0.000162037
0.000179549
0.00020676
0.000224422
0.000256397
0.000276674
0.000309671
0.000331767
0.000350027
0.000386546
0.000371514
0.000419137
0.00038186
0.000420419
0.000373588
0.00040429
0.000370681
0.000373212
0.000332447
0.000327003
0.000272541
0.000256506
0.000189459
0.000171
0.000110175
8.25548e-05
7.80087e-05
4.48134e-05
6.74537e-05
2.86061e-05
6.37219e-05
1.97406e-05
6.39647e-05
1.82381e-05
5.97989e-05
1.22608e-05
5.36268e-05
2.82945e-06
4.57176e-05
-1.02364e-05
4.43767e-05
-2.1215e-05
4.60636e-05
-3.1638e-05
5.01394e-05
-4.15787e-05
5.19661e-05
-4.977e-05
5.28712e-05
-5.63198e-05
5.30652e-05
-6.0756e-05
5.44049e-05
-6.42907e-05
5.61832e-05
-6.67125e-05
5.99341e-05
-6.76506e-05
7.19323e-05
-6.9138e-05
9.30091e-05
-7.84164e-05
0.000109173
-9.30801e-05
0.000116213
-0.000102219
0.000116417
-0.000104607
0.00010795
-0.000104729
9.07979e-05
-9.98541e-05
7.17329e-05
-8.83842e-05
6.00676e-05
-7.37872e-05
5.5864e-05
-6.65238e-05
5.5323e-05
-6.43049e-05
5.87346e-05
-6.26772e-05
8.31209e-05
-6.87088e-05
0.000113649
-8.95035e-05
0.000135483
-0.000105508
0.000143532
-0.000109393
0.000140433
-0.00010178
0.000131619
-8.56943e-05
0.000121491
-6.48268e-05
0.000111536
-4.02719e-05
0.000105413
-1.57505e-05
0.000104114
8.53661e-06
0.000106666
3.35975e-05
9.82992e-05
5.63584e-05
8.2583e-05
6.88003e-05
6.37843e-05
6.96672e-05
4.63221e-05
5.85464e-05
3.28787e-05
3.57568e-05
2.34929e-05
1.84507e-07
1.7074e-05
-4.89742e-05
1.25004e-05
-0.000105501
8.12724e-06
-0.000155612
3.65812e-06
-0.000171574
-2.57195e-06
-0.00015878
-1.37332e-05
-0.000171448
-2.40729e-05
-0.000201948
-3.00845e-05
-0.000172629
-3.23383e-05
-0.00012069
-4.13493e-05
-8.56125e-05
-5.59748e-05
-5.32871e-05
-0.000125471
-7.00633e-05
-0.000121206
-7.36622e-05
-0.000115145
-7.47503e-05
-0.00011314
-7.33444e-05
-0.000112395
-7.04629e-05
-0.000113278
-6.51252e-05
-0.000115209
-5.78529e-05
-0.000112136
-4.64687e-05
-0.000107185
-3.15118e-05
-0.000101277
-1.46219e-05
-9.51292e-05
2.77297e-06
-8.64249e-05
1.91736e-05
-7.50076e-05
3.14658e-05
-6.03336e-05
3.72265e-05
-4.3544e-05
3.51409e-05
-2.88813e-05
2.64409e-05
-1.91787e-05
1.63228e-05
-1.4012e-05
8.61756e-06
-9.56826e-06
3.56204e-06
-5.53712e-06
-1.69919e-07
-1.92913e-06
-2.28248e-06
1.08627e-06
-2.25978e-06
3.27425e-06
-3.48459e-07
4.92303e-06
2.24081e-06
6.30435e-06
4.93688e-06
7.17126e-06
8.13743e-06
8.21919e-06
1.03027e-05
8.72251e-06
1.35296e-05
9.07667e-06
1.68827e-05
9.93754e-06
1.96267e-05
1.09463e-05
2.26309e-05
1.20845e-05
2.57386e-05
1.35329e-05
2.86257e-05
1.51183e-05
3.19772e-05
1.67165e-05
3.60116e-05
1.8698e-05
4.00197e-05
2.12731e-05
4.41815e-05
2.46721e-05
4.8641e-05
2.9254e-05
5.3534e-05
3.54378e-05
5.95212e-05
4.36344e-05
6.73606e-05
5.45619e-05
7.76931e-05
6.93141e-05
9.11496e-05
8.8522e-05
0.000109132
0.000113792
0.000131295
0.000146543
0.000161263
0.000185397
0.000197315
0.000226765
0.00023808
0.000265971
0.00027751
0.000287988
0.00030655
0.000292223
0.000305744
0.000295862
0.000293661
0.000282144
0.000260928
0.000233091
0.000216696
0.00018377
0.000159963
0.000115302
9.4961e-05
7.99891e-05
5.88536e-05
6.78594e-05
4.14786e-05
6.26322e-05
3.16419e-05
6.37815e-05
2.96797e-05
6.16481e-05
2.56522e-05
5.8048e-05
1.70043e-05
5.02857e-05
4.65471e-06
4.51205e-05
-9.19748e-06
4.51091e-05
-2.06753e-05
4.81449e-05
-3.12744e-05
5.18615e-05
-4.11944e-05
5.42974e-05
-4.92933e-05
5.58435e-05
-5.60379e-05
5.66566e-05
-6.11139e-05
5.7994e-05
-6.50196e-05
5.95085e-05
-6.76784e-05
6.16224e-05
-6.89376e-05
6.63136e-05
-6.92264e-05
8.18146e-05
-7.11292e-05
0.000101076
-8.34408e-05
0.000113978
-9.64132e-05
0.000117662
-0.000103629
0.000116025
-0.000105904
0.000107544
-0.000106995
9.04552e-05
-0.000103476
7.31587e-05
-8.94286e-05
6.64365e-05
-7.88329e-05
6.51142e-05
-7.56917e-05
6.69151e-05
-7.36876e-05
9.09698e-05
-8.02237e-05
0.000121606
-9.89714e-05
0.000142653
-0.00011107
0.000148461
-0.000112014
0.000143333
-0.000102734
0.000132798
-8.68027e-05
0.000120799
-6.68676e-05
0.000107747
-4.38781e-05
9.89298e-05
-2.07234e-05
9.31247e-05
2.0913e-06
9.36983e-05
2.63231e-05
8.62279e-05
4.95566e-05
7.04053e-05
6.33234e-05
5.22517e-05
6.43816e-05
3.58951e-05
5.29044e-05
2.44905e-05
2.98695e-05
1.79763e-05
-5.54836e-06
1.53401e-05
-5.34224e-05
1.45351e-05
-0.00010654
1.29824e-05
-0.000154116
8.57658e-06
-0.000163786
1.57238e-06
-0.000154784
-1.11672e-05
-0.000169801
-2.33333e-05
-0.000194627
-3.04288e-05
-0.000162006
-3.50467e-05
-0.000111416
-4.53741e-05
-8.01673e-05
-5.22784e-05
-5.71309e-05
-0.000129356
-6.22346e-05
-0.000126267
-6.67091e-05
-0.000120958
-6.87412e-05
-0.000117677
-6.8172e-05
-0.000117473
-6.51131e-05
-0.000119115
-6.08669e-05
-0.00012203
-5.4878e-05
-0.000118812
-4.54881e-05
-0.000112793
-3.22541e-05
-0.000105396
-1.68206e-05
-9.64772e-05
-7.55789e-07
-8.56171e-05
1.39303e-05
-7.2567e-05
2.46945e-05
-5.73768e-05
2.96874e-05
-4.17565e-05
2.83376e-05
-2.87644e-05
2.1922e-05
-1.9616e-05
1.3778e-05
-1.31005e-05
6.41737e-06
-7.70111e-06
9.1893e-07
-3.05144e-06
-3.00989e-06
7.40545e-07
-4.66306e-06
2.92352e-06
-3.2267e-06
3.19702e-06
6.54892e-07
1.25496e-06
5.53513e-06
-3.04776e-06
1.09167e-05
-1.02948e-05
1.79875e-05
-1.81975e-05
2.72502e-05
-2.27083e-05
3.35889e-05
-2.33009e-05
3.78162e-05
-2.03113e-05
3.98256e-05
-1.42379e-05
4.16131e-05
-6.18861e-06
4.32311e-05
1.33109e-06
4.40052e-05
7.8855e-06
4.36039e-05
1.04425e-05
4.06936e-05
1.27346e-05
4.01478e-05
1.51993e-05
4.16708e-05
1.77535e-05
4.47772e-05
2.09737e-05
4.84865e-05
2.51565e-05
5.23897e-05
3.06598e-05
5.6966e-05
3.79389e-05
6.31382e-05
4.74603e-05
7.14574e-05
5.98935e-05
8.23529e-05
7.57778e-05
9.59279e-05
9.61418e-05
0.000113282
0.000120971
0.000133586
0.000148537
0.000156731
0.000173849
0.000178668
0.00019032
0.000191852
0.000193119
0.000190637
0.000194591
0.000176966
0.000165431
0.000152727
0.000137484
0.00012315
9.94983e-05
8.93994e-05
7.53824e-05
6.53187e-05
6.50859e-05
5.11415e-05
6.02486e-05
4.25043e-05
6.11222e-05
3.95174e-05
6.15667e-05
3.77464e-05
5.88483e-05
3.07557e-05
5.51052e-05
1.97723e-05
4.71937e-05
4.29604e-06
4.51368e-05
-9.2684e-06
4.62852e-05
-2.11714e-05
5.01619e-05
-3.19475e-05
5.38728e-05
-4.1786e-05
5.66813e-05
-4.98978e-05
5.88236e-05
-5.66369e-05
6.01813e-05
-6.19245e-05
6.15216e-05
-6.58877e-05
6.27898e-05
-6.86135e-05
6.44075e-05
-7.00763e-05
6.6832e-05
-7.07005e-05
7.40157e-05
-7.10932e-05
9.18517e-05
-7.57986e-05
0.000108361
-8.93233e-05
0.000116862
-0.000100384
0.000118034
-0.000106128
0.000114774
-0.000109221
0.000103788
-0.000110202
8.56122e-05
-0.000101066
7.77839e-05
-9.06068e-05
7.61854e-05
-8.80628e-05
8.06109e-05
-8.76666e-05
0.00010963
-0.000100573
0.000137661
-0.000116416
0.000151477
-0.000121296
0.000151878
-0.000116061
0.000143626
-0.000103781
0.000131306
-8.70816e-05
0.000117396
-6.74656e-05
0.000102155
-4.56677e-05
9.06991e-05
-2.36656e-05
8.14048e-05
-2.03986e-06
7.75479e-05
2.08224e-05
6.98492e-05
4.42702e-05
5.39066e-05
5.88416e-05
3.66477e-05
5.95876e-05
2.21475e-05
4.72437e-05
1.32735e-05
2.3065e-05
1.02065e-05
-1.32172e-05
1.20111e-05
-5.96046e-05
1.50022e-05
-0.000109933
1.63837e-05
-0.000153731
1.19969e-05
-0.000154032
4.71625e-06
-0.000150261
-1.02268e-05
-0.00016754
-2.4216e-05
-0.000185743
-3.16568e-05
-0.000147931
-3.87031e-05
-0.000101623
-4.97966e-05
-7.34393e-05
-4.76255e-05
-6.05069e-05
-0.000132239
-5.24034e-05
-0.000129828
-5.82957e-05
-0.000125412
-6.1538e-05
-0.000118927
-6.18165e-05
-0.000116439
-5.98379e-05
-0.000116091
-5.48728e-05
-0.000119834
-4.92261e-05
-0.000120078
-4.16092e-05
-0.000114527
-3.17099e-05
-0.000106664
-1.83754e-05
-9.63648e-05
-4.09313e-06
-8.37063e-05
9.11339e-06
-6.95484e-05
1.89138e-05
-5.47694e-05
2.36069e-05
-4.05985e-05
2.29263e-05
-2.84919e-05
1.79004e-05
-1.89388e-05
1.05558e-05
-1.14389e-05
3.37738e-06
-6.06205e-06
-2.01889e-06
-2.61215e-06
-4.92923e-06
-2.82243e-06
-3.41783e-06
-7.85272e-06
3.0607e-06
-1.90167e-05
1.23942e-05
-3.76021e-05
2.60699e-05
-5.60938e-05
3.86874e-05
-7.02776e-05
4.81216e-05
-7.74843e-05
5.19333e-05
-7.54318e-05
4.98751e-05
-6.55736e-05
4.73941e-05
-5.25766e-05
4.35528e-05
-4.18234e-05
4.35057e-05
-3.25546e-05
4.64549e-05
-2.3821e-05
5.07206e-05
-1.58588e-05
5.55639e-05
-3.86942e-06
6.08514e-05
5.01385e-06
6.08738e-05
1.0725e-05
5.56647e-05
1.20519e-05
4.84575e-05
1.46264e-05
4.57527e-05
1.73334e-05
4.81217e-05
2.10041e-05
5.1035e-05
2.57906e-05
5.44374e-05
3.18675e-05
5.89815e-05
3.94323e-05
6.5161e-05
4.87523e-05
7.28107e-05
5.99755e-05
8.20368e-05
7.30358e-05
9.22174e-05
8.7445e-05
0.000103162
0.000100382
0.000112728
0.000106294
0.000116423
0.000109631
0.000114299
0.000102767
0.000105903
9.13704e-05
9.44065e-05
7.7322e-05
7.98973e-05
6.59575e-05
6.67177e-05
5.98676e-05
5.75042e-05
5.62297e-05
5.10168e-05
5.65825e-05
4.82698e-05
5.90689e-05
4.80849e-05
5.79663e-05
4.33557e-05
5.59797e-05
3.35902e-05
5.11971e-05
2.00525e-05
4.55562e-05
2.92545e-06
4.56742e-05
-1.05765e-05
4.78975e-05