/*--------------------------------*- C++ -*----------------------------------*\
  =========                 |
  \\      /  F ield         | OpenFOAM: The Open Source CFD Toolbox
   \\    /   O peration     | Website:  https://openfoam.org
    \\  /    A nd           | Version:  10
     \\/     M anipulation  |
\*---------------------------------------------------------------------------*/
FoamFile
{
    format      ascii;
    class       volVectorField;
    location    "0.801585";
    object      U;
}
// * * * * * * * * * * * * * * * * * * * * * * * * * * * * * * * * * * * * * //

dimensions      [0 1 -1 0 0 0 0];

internalField   nonuniform List<vector> 
16320
(
(-0.32855 -0.207245 0)
(-0.304547 -0.214297 0)
(-0.276763 -0.214312 0)
(-0.245796 -0.205307 0)
(-0.210692 -0.184804 0)
(-0.171399 -0.151625 0)
(-0.131798 -0.107777 0)
(-0.0965798 -0.0596658 0)
(-0.0651789 -0.0112163 0)
(-0.0379793 0.0396557 0)
(-0.0231208 0.0969709 0)
(-0.0120538 0.138727 0)
(-0.0160029 0.156978 0)
(-0.0190341 0.167528 0)
(-0.0238745 0.167133 0)
(-0.0332595 0.150612 0)
(-0.0359711 0.130066 0)
(-0.0200974 0.129137 0)
(0.00333202 0.135801 0)
(0.0313833 0.142667 0)
(0.0632785 0.150347 0)
(0.0969481 0.159194 0)
(0.130637 0.169029 0)
(0.162577 0.179521 0)
(0.191456 0.19142 0)
(0.217483 0.205118 0)
(0.240585 0.220917 0)
(0.26024 0.239509 0)
(0.275985 0.259931 0)
(0.288169 0.281621 0)
(0.296954 0.304199 0)
(0.301917 0.32726 0)
(0.303025 0.351224 0)
(0.302161 0.376285 0)
(0.30117 0.401598 0)
(0.300866 0.426269 0)
(0.3018 0.448069 0)
(0.304448 0.465392 0)
(0.310625 0.479321 0)
(0.321465 0.491327 0)
(0.336112 0.501613 0)
(0.353519 0.511496 0)
(0.372621 0.521848 0)
(0.392672 0.532603 0)
(0.413515 0.541779 0)
(0.43436 0.549001 0)
(0.453929 0.553983 0)
(0.471139 0.556328 0)
(0.485126 0.555824 0)
(0.495955 0.552541 0)
(0.502186 0.543992 0)
(0.504071 0.534197 0)
(0.498797 0.51926 0)
(0.484825 0.493648 0)
(0.445802 0.466866 0)
(0.384769 0.405404 0)
(0.340991 0.31807 0)
(0.30438 0.211468 0)
(0.274904 0.0838653 0)
(0.262503 -0.0515506 0)
(0.25508 -0.155451 0)
(0.229633 -0.207391 0)
(0.208987 -0.211547 0)
(0.200418 -0.208371 0)
(0.195202 -0.222369 0)
(0.191279 -0.263132 0)
(0.184578 -0.30479 0)
(0.184663 -0.329841 0)
(0.189719 -0.335182 0)
(0.196639 -0.331962 0)
(0.204289 -0.321571 0)
(0.2125 -0.309121 0)
(0.219891 -0.297308 0)
(0.224643 -0.28521 0)
(0.227476 -0.272465 0)
(0.229511 -0.26112 0)
(0.230747 -0.257801 0)
(0.224034 -0.267705 0)
(0.203663 -0.289419 0)
(0.189003 -0.318034 0)
(0.176151 -0.337358 0)
(0.160206 -0.336151 0)
(0.151895 -0.328696 0)
(0.147152 -0.312776 0)
(0.14494 -0.293111 0)
(0.144255 -0.269966 0)
(0.143521 -0.241975 0)
(0.144641 -0.207821 0)
(0.148973 -0.166725 0)
(0.156566 -0.11824 0)
(0.165422 -0.0645422 0)
(0.172975 -0.0117658 0)
(0.176103 0.0354274 0)
(0.17454 0.0740575 0)
(0.163875 0.103897 0)
(0.143196 0.122784 0)
(0.118723 0.129155 0)
(0.0976214 0.125062 0)
(0.0712453 0.108645 0)
(0.0259274 0.0673292 0)
(-0.037664 -0.0195252 0)
(-0.0853275 -0.116274 0)
(-0.123184 -0.217709 0)
(-0.153194 -0.325374 0)
(-0.177105 -0.448364 0)
(-0.190351 -0.527501 0)
(-0.162438 -0.510369 0)
(-0.11671 -0.40868 0)
(-0.0973217 -0.327203 0)
(-0.0839951 -0.273945 0)
(-0.079833 -0.230268 0)
(-0.0772198 -0.185995 0)
(-0.0851947 -0.128841 0)
(-0.33396 -0.224893 0)
(-0.311905 -0.234907 0)
(-0.286235 -0.238291 0)
(-0.257559 -0.232814 0)
(-0.226016 -0.215457 0)
(-0.191503 -0.184643 0)
(-0.154784 -0.140891 0)
(-0.119695 -0.0891145 0)
(-0.0897732 -0.0335035 0)
(-0.0640745 0.0233782 0)
(-0.0486516 0.0783328 0)
(-0.0388833 0.135708 0)
(-0.0368032 0.166208 0)
(-0.0389154 0.175157 0)
(-0.0397761 0.175997 0)
(-0.0463456 0.159961 0)
(-0.0520572 0.133162 0)
(-0.0436563 0.115653 0)
(-0.0219681 0.114911 0)
(0.00517396 0.116591 0)
(0.036434 0.120544 0)
(0.0699553 0.127366 0)
(0.103783 0.1369 0)
(0.136222 0.148407 0)
(0.166189 0.161765 0)
(0.193436 0.176921 0)
(0.217798 0.193543 0)
(0.238994 0.211371 0)
(0.256761 0.230806 0)
(0.271197 0.251697 0)
(0.282548 0.274075 0)
(0.291858 0.298106 0)
(0.299202 0.324818 0)
(0.303737 0.354823 0)
(0.305919 0.386402 0)
(0.305859 0.417785 0)
(0.303318 0.447022 0)
(0.302224 0.473734 0)
(0.306408 0.495565 0)
(0.31543 0.511283 0)
(0.328504 0.520494 0)
(0.345388 0.527443 0)
(0.36499 0.534784 0)
(0.385177 0.542257 0)
(0.405236 0.550242 0)
(0.425386 0.556808 0)
(0.44414 0.561227 0)
(0.460676 0.563239 0)
(0.474334 0.562352 0)
(0.48389 0.558325 0)
(0.490153 0.549654 0)
(0.492023 0.53765 0)
(0.486112 0.519696 0)
(0.475472 0.498203 0)
(0.441852 0.460839 0)
(0.386783 0.402763 0)
(0.347209 0.319824 0)
(0.313023 0.21644 0)
(0.287372 0.0902231 0)
(0.279663 -0.0394715 0)
(0.269323 -0.134165 0)
(0.240167 -0.177739 0)
(0.218002 -0.178029 0)
(0.2096 -0.179741 0)
(0.202827 -0.201042 0)
(0.196002 -0.248103 0)
(0.188845 -0.289682 0)
(0.188412 -0.313711 0)
(0.192868 -0.325009 0)
(0.198019 -0.326671 0)
(0.205607 -0.319727 0)
(0.215172 -0.309689 0)
(0.224785 -0.299245 0)
(0.232406 -0.287862 0)
(0.238604 -0.275532 0)
(0.244166 -0.264055 0)
(0.248157 -0.259542 0)
(0.245389 -0.268506 0)
(0.231237 -0.290264 0)
(0.220114 -0.317759 0)
(0.2108 -0.338384 0)
(0.196104 -0.342513 0)
(0.1832 -0.332664 0)
(0.176167 -0.321153 0)
(0.174201 -0.304537 0)
(0.173464 -0.283801 0)
(0.171765 -0.257679 0)
(0.170551 -0.225122 0)
(0.171237 -0.185888 0)
(0.175312 -0.139395 0)
(0.181942 -0.0861471 0)
(0.188496 -0.0303821 0)
(0.192085 0.0214124 0)
(0.192394 0.0652035 0)
(0.185564 0.0995879 0)
(0.168726 0.124181 0)
(0.145662 0.136282 0)
(0.122343 0.136644 0)
(0.10057 0.12351 0)
(0.0640647 0.0910087 0)
(0.0183335 0.0274958 0)
(-0.0317286 -0.0676136 0)
(-0.0715017 -0.170695 0)
(-0.108485 -0.283886 0)
(-0.133812 -0.412839 0)
(-0.160226 -0.535722 0)
(-0.148726 -0.546787 0)
(-0.109444 -0.442913 0)
(-0.0907271 -0.346513 0)
(-0.079198 -0.288955 0)
(-0.0761216 -0.242126 0)
(-0.0743337 -0.193421 0)
(-0.0826937 -0.132064 0)
(-0.341115 -0.242183 0)
(-0.321662 -0.254691 0)
(-0.298565 -0.260231 0)
(-0.272838 -0.256536 0)
(-0.245109 -0.240765 0)
(-0.215585 -0.210685 0)
(-0.184548 -0.166919 0)
(-0.153109 -0.113797 0)
(-0.125389 -0.0541497 0)
(-0.0993881 0.0108263 0)
(-0.085068 0.072398 0)
(-0.0784831 0.130462 0)
(-0.0677927 0.171274 0)
(-0.0656791 0.182373 0)
(-0.0626067 0.182402 0)
(-0.0639671 0.167181 0)
(-0.0676687 0.137031 0)
(-0.0617036 0.108665 0)
(-0.0418549 0.097337 0)
(-0.0163338 0.0929036 0)
(0.0138314 0.092509 0)
(0.045762 0.0970728 0)
(0.0780941 0.106238 0)
(0.109161 0.118821 0)
(0.138046 0.133908 0)
(0.164578 0.150894 0)
(0.188549 0.169374 0)
(0.209844 0.189139 0)
(0.228457 0.210324 0)
(0.244461 0.232959 0)
(0.258028 0.257079 0)
(0.269709 0.282655 0)
(0.279759 0.308963 0)
(0.288123 0.336059 0)
(0.295049 0.364588 0)
(0.30141 0.394456 0)
(0.308464 0.425747 0)
(0.313806 0.45906 0)
(0.315583 0.488765 0)
(0.316933 0.512226 0)
(0.324128 0.528836 0)
(0.338641 0.538764 0)
(0.356423 0.545528 0)
(0.375708 0.550335 0)
(0.396078 0.555956 0)
(0.415053 0.560139 0)
(0.433129 0.564007 0)
(0.448969 0.565751 0)
(0.461872 0.564688 0)
(0.470654 0.55998 0)
(0.475499 0.550792 0)
(0.476173 0.535762 0)
(0.473071 0.516853 0)
(0.462151 0.491634 0)
(0.430337 0.450486 0)
(0.385628 0.393126 0)
(0.350055 0.315691 0)
(0.31928 0.217531 0)
(0.299017 0.0962418 0)
(0.295862 -0.0253539 0)
(0.280674 -0.109426 0)
(0.249075 -0.14502 0)
(0.226901 -0.14369 0)
(0.218061 -0.151597 0)
(0.209407 -0.181418 0)
(0.198988 -0.231433 0)
(0.1933 -0.272656 0)
(0.19251 -0.296863 0)
(0.195156 -0.313591 0)
(0.198931 -0.320497 0)
(0.206708 -0.318321 0)
(0.218106 -0.311887 0)
(0.230501 -0.303435 0)
(0.241585 -0.293005 0)
(0.251733 -0.281155 0)
(0.261914 -0.270667 0)
(0.269957 -0.266603 0)
(0.269859 -0.274225 0)
(0.259407 -0.294073 0)
(0.252218 -0.319417 0)
(0.245679 -0.340768 0)
(0.235418 -0.349606 0)
(0.220002 -0.340675 0)
(0.207092 -0.325673 0)
(0.20501 -0.314373 0)
(0.204982 -0.296155 0)
(0.202918 -0.27232 0)
(0.19971 -0.241646 0)
(0.196736 -0.203946 0)
(0.196262 -0.159186 0)
(0.199229 -0.107484 0)
(0.203611 -0.0507293 0)
(0.206578 0.00543396 0)
(0.207056 0.0533353 0)
(0.201949 0.0922391 0)
(0.187797 0.120868 0)
(0.166318 0.137781 0)
(0.141772 0.141851 0)
(0.118393 0.132212 0)
(0.0891834 0.104204 0)
(0.0497389 0.051244 0)
(0.0090738 -0.0299777 0)
(-0.025597 -0.128117 0)
(-0.0632686 -0.240689 0)
(-0.0932069 -0.373846 0)
(-0.123032 -0.525072 0)
(-0.125262 -0.576788 0)
(-0.100059 -0.476807 0)
(-0.0818805 -0.363219 0)
(-0.073692 -0.302306 0)
(-0.071785 -0.253879 0)
(-0.0716864 -0.201375 0)
(-0.0824926 -0.135764 0)
(-0.350391 -0.256661 0)
(-0.334412 -0.271675 0)
(-0.314901 -0.279303 0)
(-0.293057 -0.277136 0)
(-0.269782 -0.261906 0)
(-0.245257 -0.231041 0)
(-0.219906 -0.186026 0)
(-0.194048 -0.131728 0)
(-0.17029 -0.0695402 0)
(-0.146416 -0.00123648 0)
(-0.12767 0.0666794 0)
(-0.120391 0.129878 0)
(-0.106522 0.171305 0)
(-0.096895 0.186108 0)
(-0.0890492 0.186436 0)
(-0.0855113 0.170734 0)
(-0.0833927 0.139077 0)
(-0.0757393 0.10334 0)
(-0.0559721 0.0829391 0)
(-0.0324087 0.0722639 0)
(-0.00478118 0.067605 0)
(0.0243696 0.0702643 0)
(0.0536351 0.079044 0)
(0.0818267 0.0922892 0)
(0.108153 0.108523 0)
(0.132476 0.126701 0)
(0.154735 0.146302 0)
(0.174978 0.167271 0)
(0.193367 0.189694 0)
(0.21003 0.213712 0)
(0.225085 0.239407 0)
(0.238781 0.266725 0)
(0.251214 0.295304 0)
(0.262506 0.32473 0)
(0.273026 0.354985 0)
(0.283188 0.38569 0)
(0.294209 0.41567 0)
(0.305665 0.443387 0)
(0.316933 0.469451 0)
(0.327033 0.494615 0)
(0.333134 0.517862 0)
(0.339965 0.533955 0)
(0.350919 0.544503 0)
(0.367468 0.553396 0)
(0.384956 0.556396 0)
(0.403393 0.560576 0)
(0.421398 0.561709 0)
(0.436364 0.562544 0)
(0.448347 0.560765 0)
(0.455813 0.555202 0)
(0.458766 0.544669 0)
(0.459578 0.528505 0)
(0.455649 0.50715 0)
(0.443859 0.478942 0)
(0.416605 0.435304 0)
(0.379825 0.379415 0)
(0.351435 0.306917 0)
(0.325749 0.217823 0)
(0.310174 0.101096 0)
(0.308896 -0.00992201 0)
(0.287341 -0.0808629 0)
(0.254753 -0.10803 0)
(0.234233 -0.109524 0)
(0.223943 -0.124071 0)
(0.214901 -0.163527 0)
(0.202398 -0.214272 0)
(0.198145 -0.254742 0)
(0.19762 -0.280546 0)
(0.198201 -0.301175 0)
(0.201398 -0.313532 0)
(0.209805 -0.317399 0)
(0.222896 -0.315421 0)
(0.23812 -0.309831 0)
(0.252785 -0.300708 0)
(0.266375 -0.289711 0)
(0.279968 -0.281298 0)
(0.29211 -0.278295 0)
(0.296386 -0.28452 0)
(0.289638 -0.298922 0)
(0.283599 -0.3218 0)
(0.278463 -0.34345 0)
(0.270905 -0.356325 0)
(0.262119 -0.354038 0)
(0.243976 -0.336805 0)
(0.236469 -0.322055 0)
(0.238531 -0.306688 0)
(0.236006 -0.284825 0)
(0.231458 -0.256124 0)
(0.225233 -0.22032 0)
(0.219738 -0.177404 0)
(0.217901 -0.127591 0)
(0.218918 -0.0711151 0)
(0.219424 -0.0129983 0)
(0.218672 0.0396273 0)
(0.213868 0.082378 0)
(0.200824 0.114456 0)
(0.180472 0.134788 0)
(0.155188 0.141955 0)
(0.129189 0.134944 0)
(0.101961 0.110354 0)
(0.06822 0.0630493 0)
(0.0365831 -0.00822416 0)
(0.00754538 -0.0966566 0)
(-0.0250906 -0.203418 0)
(-0.0564354 -0.334547 0)
(-0.0841575 -0.496944 0)
(-0.098039 -0.595027 0)
(-0.0887626 -0.506393 0)
(-0.0713585 -0.37605 0)
(-0.0679031 -0.312429 0)
(-0.0671573 -0.26385 0)
(-0.0694404 -0.209094 0)
(-0.0842197 -0.139116 0)
(-0.362013 -0.26613 0)
(-0.350248 -0.283598 0)
(-0.335016 -0.29312 0)
(-0.31771 -0.291575 0)
(-0.29944 -0.27598 0)
(-0.280216 -0.244107 0)
(-0.260317 -0.198653 0)
(-0.239577 -0.144023 0)
(-0.219508 -0.0811217 0)
(-0.199488 -0.0122293 0)
(-0.178 0.0574114 0)
(-0.164338 0.123492 0)
(-0.146215 0.166215 0)
(-0.129667 0.184285 0)
(-0.115831 0.186729 0)
(-0.107947 0.170521 0)
(-0.0995021 0.136961 0)
(-0.0865634 0.0967859 0)
(-0.0653172 0.0706348 0)
(-0.0442982 0.0553155 0)
(-0.0196885 0.0467785 0)
(0.00604704 0.0479908 0)
(0.031625 0.0565664 0)
(0.0564349 0.0702551 0)
(0.0796167 0.0871187 0)
(0.101046 0.105915 0)
(0.120844 0.125922 0)
(0.139166 0.147158 0)
(0.15624 0.169746 0)
(0.172285 0.19392 0)
(0.187497 0.219818 0)
(0.202079 0.247545 0)
(0.216174 0.27695 0)
(0.229901 0.30777 0)
(0.243409 0.339753 0)
(0.256985 0.372322 0)
(0.271274 0.404589 0)
(0.28613 0.434765 0)
(0.301621 0.461664 0)
(0.317764 0.483442 0)
(0.331854 0.500808 0)
(0.343064 0.51662 0)
(0.355363 0.530264 0)
(0.364045 0.541364 0)
(0.377112 0.549703 0)
(0.392353 0.553283 0)
(0.407251 0.555026 0)
(0.422164 0.554037 0)
(0.432975 0.550431 0)
(0.439088 0.54337 0)
(0.440898 0.531175 0)
(0.440261 0.513842 0)
(0.437962 0.490773 0)
(0.425729 0.45864 0)
(0.400409 0.416343 0)
(0.374615 0.364835 0)
(0.354685 0.30211 0)
(0.332797 0.213193 0)
(0.317192 0.104017 0)
(0.318472 0.0075112 0)
(0.289626 -0.0504686 0)
(0.255838 -0.0686521 0)
(0.238894 -0.0763007 0)
(0.227999 -0.0981911 0)
(0.218346 -0.14724 0)
(0.2067 -0.198005 0)
(0.204071 -0.237536 0)
(0.204411 -0.265395 0)
(0.204783 -0.289143 0)
(0.209071 -0.306651 0)
(0.218324 -0.317096 0)
(0.231487 -0.319285 0)
(0.248274 -0.316947 0)
(0.265897 -0.309623 0)
(0.281333 -0.300185 0)
(0.29674 -0.292617 0)
(0.312316 -0.290896 0)
(0.321491 -0.296241 0)
(0.31811 -0.304722 0)
(0.31139 -0.323755 0)
(0.307973 -0.345468 0)
(0.301766 -0.3614 0)
(0.296081 -0.365128 0)
(0.285566 -0.354841 0)
(0.273476 -0.33183 0)
(0.271064 -0.317675 0)
(0.26944 -0.295259 0)
(0.26401 -0.26735 0)
(0.255093 -0.233618 0)
(0.244984 -0.193107 0)
(0.23771 -0.14559 0)
(0.233854 -0.090986 0)
(0.230682 -0.0323205 0)
(0.227617 0.0247974 0)
(0.22169 0.0709059 0)
(0.20839 0.106056 0)
(0.188291 0.129181 0)
(0.162429 0.138624 0)
(0.133799 0.133189 0)
(0.104963 0.110698 0)
(0.0740516 0.06716 0)
(0.047783 0.00330591 0)
(0.0248284 -0.0788225 0)
(-0.000236355 -0.177479 0)
(-0.0261185 -0.302178 0)
(-0.0495436 -0.465714 0)
(-0.0705719 -0.602091 0)
(-0.0738627 -0.525829 0)
(-0.0606762 -0.384076 0)
(-0.0621794 -0.318554 0)
(-0.063057 -0.270846 0)
(-0.0686868 -0.215036 0)
(-0.0883819 -0.141718 0)
(-0.375525 -0.269601 0)
(-0.368856 -0.289271 0)
(-0.357948 -0.300522 0)
(-0.345107 -0.299188 0)
(-0.331846 -0.283539 0)
(-0.31713 -0.25105 0)
(-0.301591 -0.205279 0)
(-0.284676 -0.151229 0)
(-0.267147 -0.0895349 0)
(-0.248473 -0.0218349 0)
(-0.225765 0.0481937 0)
(-0.204864 0.111601 0)
(-0.182956 0.156046 0)
(-0.160305 0.176835 0)
(-0.140968 0.181446 0)
(-0.127885 0.166027 0)
(-0.112857 0.13158 0)
(-0.0945067 0.088341 0)
(-0.072533 0.0593803 0)
(-0.0531906 0.0414035 0)
(-0.0314907 0.0307972 0)
(-0.0082519 0.0302246 0)
(0.0144606 0.038587 0)
(0.0362073 0.0524448 0)
(0.0564144 0.0696085 0)
(0.0748884 0.0886251 0)
(0.0920001 0.108569 0)
(0.108006 0.129504 0)
(0.12306 0.151673 0)
(0.137423 0.175289 0)
(0.151437 0.200603 0)
(0.165391 0.227807 0)
(0.179545 0.256885 0)
(0.194061 0.287653 0)
(0.209188 0.319865 0)
(0.225101 0.352956 0)
(0.241989 0.386011 0)
(0.259766 0.417835 0)
(0.278284 0.447095 0)
(0.297186 0.471563 0)
(0.315409 0.489709 0)
(0.33266 0.502995 0)
(0.347279 0.513209 0)
(0.362462 0.519869 0)
(0.372214 0.530391 0)
(0.38258 0.534541 0)
(0.395194 0.538207 0)
(0.405738 0.538146 0)
(0.415254 0.53471 0)
(0.420361 0.525984 0)
(0.421191 0.512297 0)
(0.421584 0.494414 0)
(0.41715 0.470093 0)
(0.407023 0.436885 0)
(0.392155 0.39875 0)
(0.374644 0.355614 0)
(0.35581 0.291067 0)
(0.332711 0.207333 0)
(0.327459 0.107879 0)
(0.320875 0.0284326 0)
(0.286366 -0.0189403 0)
(0.254928 -0.0296324 0)
(0.240868 -0.0448415 0)
(0.230011 -0.0762346 0)
(0.220087 -0.132632 0)
(0.212277 -0.183153 0)
(0.211454 -0.222273 0)
(0.214173 -0.252443 0)
(0.217653 -0.279405 0)
(0.224735 -0.301932 0)
(0.234858 -0.318357 0)
(0.245926 -0.324271 0)
(0.260924 -0.321339 0)
(0.279927 -0.317495 0)
(0.297053 -0.310443 0)
(0.312742 -0.303543 0)
(0.329302 -0.302949 0)
(0.343564 -0.309631 0)
(0.343524 -0.316614 0)
(0.33447 -0.326401 0)
(0.331957 -0.346664 0)
(0.328509 -0.365986 0)
(0.325946 -0.374669 0)
(0.322413 -0.369521 0)
(0.307999 -0.349317 0)
(0.301528 -0.32965 0)
(0.301733 -0.303874 0)
(0.295342 -0.274836 0)
(0.283936 -0.242685 0)
(0.269988 -0.204862 0)
(0.257485 -0.1602 0)
(0.24834 -0.109175 0)
(0.241065 -0.0515422 0)
(0.233351 0.00754388 0)
(0.224703 0.0580271 0)
(0.211221 0.0958977 0)
(0.190285 0.121546 0)
(0.163058 0.132271 0)
(0.132137 0.127744 0)
(0.101132 0.106499 0)
(0.0722788 0.066488 0)
(0.0491982 0.00863439 0)
(0.03111 -0.0680225 0)
(0.0133803 -0.162695 0)
(-0.00442834 -0.279957 0)
(-0.0220437 -0.438498 0)
(-0.0409849 -0.5969 0)
(-0.0570806 -0.534912 0)
(-0.0520646 -0.386494 0)
(-0.0571898 -0.320443 0)
(-0.0600052 -0.274295 0)
(-0.0699814 -0.217523 0)
(-0.0950172 -0.14244 0)
(-0.389021 -0.266273 0)
(-0.388074 -0.287621 0)
(-0.381619 -0.300147 0)
(-0.373577 -0.299925 0)
(-0.364595 -0.285006 0)
(-0.351924 -0.253395 0)
(-0.338718 -0.20834 0)
(-0.324034 -0.155685 0)
(-0.307261 -0.0953107 0)
(-0.28776 -0.0286746 0)
(-0.26423 0.0395942 0)
(-0.238739 0.0983752 0)
(-0.212262 0.142206 0)
(-0.185854 0.165225 0)
(-0.162571 0.171336 0)
(-0.143345 0.15705 0)
(-0.122197 0.121758 0)
(-0.0997435 0.0774703 0)
(-0.0787605 0.0494001 0)
(-0.0599599 0.0303654 0)
(-0.0386677 0.0181737 0)
(-0.0164945 0.015852 0)
(0.00455951 0.0237906 0)
(0.0237656 0.0380063 0)
(0.0412212 0.0555524 0)
(0.0569652 0.0747179 0)
(0.0715451 0.0942101 0)
(0.0853646 0.114471 0)
(0.0982664 0.136041 0)
(0.11041 0.15878 0)
(0.122268 0.183015 0)
(0.134226 0.208978 0)
(0.146746 0.236769 0)
(0.160201 0.26653 0)
(0.174905 0.298145 0)
(0.19099 0.330707 0)
(0.208681 0.363394 0)
(0.227991 0.395299 0)
(0.248586 0.425193 0)
(0.269831 0.451398 0)
(0.290831 0.472533 0)
(0.310882 0.488019 0)
(0.328788 0.497741 0)
(0.345467 0.504646 0)
(0.358871 0.506924 0)
(0.369177 0.513445 0)
(0.380409 0.515544 0)
(0.390261 0.517066 0)
(0.396587 0.515046 0)
(0.399333 0.506402 0)
(0.401226 0.493094 0)
(0.401814 0.475158 0)
(0.399416 0.45085 0)
(0.394969 0.422943 0)
(0.387162 0.390041 0)
(0.371076 0.340295 0)
(0.352079 0.284444 0)
(0.338925 0.196093 0)
(0.329087 0.113503 0)
(0.31163 0.0521256 0)
(0.275989 0.0190876 0)
(0.252073 0.00667702 0)
(0.239617 -0.0174543 0)
(0.230532 -0.0607938 0)
(0.22144 -0.120182 0)
(0.218644 -0.171222 0)
(0.220538 -0.209986 0)
(0.227255 -0.242864 0)
(0.235451 -0.2737 0)
(0.245555 -0.301924 0)
(0.255914 -0.323037 0)
(0.267753 -0.333605 0)
(0.277045 -0.330765 0)
(0.291758 -0.324004 0)
(0.31123 -0.319253 0)
(0.327544 -0.314169 0)
(0.342333 -0.312663 0)
(0.357425 -0.319435 0)
(0.364041 -0.330058 0)
(0.356861 -0.33655 0)
(0.349718 -0.349474 0)
(0.348835 -0.370987 0)
(0.350863 -0.385608 0)
(0.352403 -0.385766 0)
(0.338345 -0.368676 0)
(0.329075 -0.341479 0)
(0.330146 -0.310907 0)
(0.323183 -0.280123 0)
(0.309475 -0.248557 0)
(0.292537 -0.213038 0)
(0.27532 -0.17131 0)
(0.261059 -0.123755 0)
(0.249181 -0.0686004 0)
(0.236439 -0.0107344 0)
(0.222918 0.0431728 0)
(0.207975 0.0838241 0)
(0.185994 0.111461 0)
(0.156929 0.123308 0)
(0.124472 0.119308 0)
(0.0924393 0.0992044 0)
(0.0652242 0.0619814 0)
(0.0454937 0.00819192 0)
(0.0328167 -0.0635341 0)
(0.0204919 -0.15471 0)
(0.0101139 -0.268641 0)
(-0.000353839 -0.41782 0)
(-0.0142448 -0.582374 0)
(-0.0411143 -0.534362 0)
(-0.0452583 -0.382964 0)
(-0.0536156 -0.318103 0)
(-0.058716 -0.273662 0)
(-0.0738504 -0.216119 0)
(-0.103448 -0.140769 0)
(-0.400004 -0.254479 0)
(-0.404686 -0.277221 0)
(-0.403202 -0.291254 0)
(-0.400176 -0.293441 0)
(-0.395331 -0.280182 0)
(-0.384653 -0.250682 0)
(-0.372149 -0.207498 0)
(-0.356418 -0.156128 0)
(-0.337234 -0.0977241 0)
(-0.316173 -0.0347322 0)
(-0.291574 0.0283147 0)
(-0.263697 0.0845085 0)
(-0.23405 0.126615 0)
(-0.205101 0.150594 0)
(-0.178672 0.157186 0)
(-0.153976 0.142945 0)
(-0.128194 0.108016 0)
(-0.103141 0.0673704 0)
(-0.08256 0.0404237 0)
(-0.0618184 0.0203328 0)
(-0.0382134 0.00625729 0)
(-0.0156914 0.00311541 0)
(0.0047401 0.0112445 0)
(0.0219666 0.0262506 0)
(0.036949 0.0442407 0)
(0.0498733 0.063777 0)
(0.0618965 0.0834106 0)
(0.0738477 0.104161 0)
(0.0845517 0.125499 0)
(0.0938207 0.14779 0)
(0.102452 0.172342 0)
(0.110981 0.198181 0)
(0.120335 0.224562 0)
(0.131164 0.251989 0)
(0.143512 0.280669 0)
(0.157626 0.310198 0)
(0.174136 0.340594 0)
(0.193138 0.3711 0)
(0.214154 0.400286 0)
(0.236646 0.426714 0)
(0.259621 0.449329 0)
(0.28216 0.467153 0)
(0.302601 0.479541 0)
(0.320852 0.487892 0)
(0.336258 0.491776 0)
(0.348796 0.495511 0)
(0.360223 0.49828 0)
(0.370347 0.498318 0)
(0.3759 0.495568 0)
(0.3789 0.488829 0)
(0.381922 0.476742 0)
(0.384359 0.459406 0)
(0.386249 0.437771 0)
(0.38672 0.414488 0)
(0.376014 0.370981 0)
(0.364524 0.328836 0)
(0.3478 0.264595 0)
(0.323977 0.184998 0)
(0.325245 0.125639 0)
(0.293545 0.077854 0)
(0.26192 0.0572008 0)
(0.244942 0.0360903 0)
(0.235449 0.00410211 0)
(0.229148 -0.0515615 0)
(0.224034 -0.111546 0)
(0.226024 -0.163267 0)
(0.231661 -0.201967 0)
(0.242444 -0.238185 0)
(0.253526 -0.272623 0)
(0.264533 -0.304266 0)
(0.27448 -0.328062 0)
(0.285683 -0.342298 0)
(0.297317 -0.345276 0)
(0.307418 -0.335912 0)
(0.322088 -0.328067 0)
(0.339744 -0.323056 0)
(0.353175 -0.320775 0)
(0.364423 -0.324433 0)
(0.373157 -0.336242 0)
(0.374441 -0.347897 0)
(0.368297 -0.35998 0)
(0.36374 -0.378423 0)
(0.368894 -0.398445 0)
(0.375318 -0.402728 0)
(0.362815 -0.387266 0)
(0.35192 -0.353735 0)
(0.352936 -0.31671 0)
(0.345604 -0.284162 0)
(0.330169 -0.252765 0)
(0.310523 -0.21903 0)
(0.289387 -0.179865 0)
(0.270761 -0.13494 0)
(0.253967 -0.0827884 0)
(0.235574 -0.0274368 0)
(0.215434 0.0265748 0)
(0.197451 0.0711402 0)
(0.175145 0.100688 0)
(0.144272 0.113564 0)
(0.111128 0.109827 0)
(0.079581 0.0904684 0)
(0.0545458 0.0551586 0)
(0.0382491 0.00405242 0)
(0.0307287 -0.0642717 0)
(0.0226436 -0.153292 0)
(0.0199469 -0.264374 0)
(0.015862 -0.408639 0)
(0.0075398 -0.562019 0)
(-0.0276714 -0.522769 0)
(-0.0403461 -0.373692 0)
(-0.0516844 -0.311648 0)
(-0.0599761 -0.268363 0)
(-0.0809858 -0.21038 0)
(-0.113449 -0.136246 0)
(-0.406006 -0.233741 0)
(-0.416225 -0.257842 0)
(-0.419744 -0.273887 0)
(-0.421037 -0.279756 0)
(-0.419667 -0.269217 0)
(-0.411013 -0.242719 0)
(-0.398658 -0.202504 0)
(-0.381545 -0.154358 0)
(-0.360106 -0.100824 0)
(-0.336774 -0.0429486 0)
(-0.310199 0.0156423 0)
(-0.280553 0.0690382 0)
(-0.249111 0.109418 0)
(-0.218219 0.13301 0)
(-0.188453 0.139396 0)
(-0.15938 0.12535 0)
(-0.130587 0.093649 0)
(-0.104584 0.0572283 0)
(-0.0812388 0.0312548 0)
(-0.054834 0.00774215 0)
(-0.0271096 -0.00743692 0)
(-0.00200322 -0.00935863 0)
(0.0166262 0.00136964 0)
(0.0300606 0.0176875 0)
(0.0404893 0.0339475 0)
(0.0482274 0.0514191 0)
(0.054654 0.05809 0)
(0.0595419 0.0711686 0)
(0.061469 0.0884513 0)
(0.0644578 0.103639 0)
(0.0714432 0.12082 0)
(0.078921 0.142439 0)
(0.08829 0.171048 0)
(0.0993808 0.208216 0)
(0.110357 0.249899 0)
(0.122323 0.286024 0)
(0.136967 0.317672 0)
(0.154756 0.346947 0)
(0.175365 0.374509 0)
(0.198128 0.400221 0)
(0.222165 0.423253 0)
(0.246364 0.44259 0)
(0.269587 0.457208 0)
(0.290444 0.46781 0)
(0.308085 0.474272 0)
(0.32306 0.478833 0)
(0.336024 0.481252 0)
(0.346489 0.481437 0)
(0.354112 0.478397 0)
(0.358867 0.472364 0)
(0.363521 0.462 0)
(0.369725 0.444436 0)
(0.377145 0.426298 0)
(0.369217 0.390515 0)
(0.361954 0.351289 0)
(0.350597 0.304633 0)
(0.322574 0.233935 0)
(0.323999 0.190007 0)
(0.301511 0.141905 0)
(0.269434 0.108471 0)
(0.247752 0.087888 0)
(0.235183 0.058411 0)
(0.229266 0.0172335 0)
(0.226068 -0.0464039 0)
(0.227525 -0.106861 0)
(0.234438 -0.158963 0)
(0.244487 -0.199633 0)
(0.257152 -0.23797 0)
(0.270377 -0.273886 0)
(0.282487 -0.305847 0)
(0.292543 -0.330267 0)
(0.302235 -0.346064 0)
(0.312761 -0.352751 0)
(0.322036 -0.349784 0)
(0.332637 -0.337631 0)
(0.347365 -0.331037 0)
(0.360857 -0.327466 0)
(0.369706 -0.328518 0)
(0.376146 -0.336912 0)
(0.381442 -0.352097 0)
(0.383136 -0.371149 0)
(0.38004 -0.390529 0)
(0.382316 -0.412882 0)
(0.390425 -0.418344 0)
(0.378198 -0.402914 0)
(0.367591 -0.363792 0)
(0.368431 -0.32035 0)
(0.360621 -0.286019 0)
(0.344221 -0.255778 0)
(0.32255 -0.223443 0)
(0.298337 -0.186103 0)
(0.275872 -0.142953 0)
(0.253882 -0.0939268 0)
(0.229239 -0.0413702 0)
(0.203318 0.0109138 0)
(0.180507 0.0588459 0)
(0.156793 0.0905454 0)
(0.12511 0.104346 0)
(0.0921356 0.100829 0)
(0.0623995 0.0813511 0)
(0.040532 0.046899 0)
(0.0286778 -0.00264582 0)
(0.0259454 -0.068641 0)
(0.0219773 -0.157153 0)
(0.026326 -0.265211 0)
(0.0280037 -0.406131 0)
(0.0241852 -0.541279 0)
(-0.01803 -0.500357 0)
(-0.0377134 -0.358758 0)
(-0.0514132 -0.300875 0)
(-0.0639272 -0.258027 0)
(-0.0910823 -0.199883 0)
(-0.124111 -0.128685 0)
(-0.404279 -0.20465 0)
(-0.419647 -0.230118 0)
(-0.428366 -0.248265 0)
(-0.432853 -0.258679 0)
(-0.433789 -0.252559 0)
(-0.427365 -0.231036 0)
(-0.41534 -0.195281 0)
(-0.397377 -0.150806 0)
(-0.374282 -0.102583 0)
(-0.349285 -0.0501575 0)
(-0.321118 0.00338232 0)
(-0.289866 0.0526236 0)
(-0.257083 0.0906249 0)
(-0.224191 0.113508 0)
(-0.191813 0.119387 0)
(-0.160174 0.10656 0)
(-0.129992 0.0790714 0)
(-0.101869 0.0464173 0)
(-0.072193 0.0163492 0)
(-0.0385538 -0.0102183 0)
(-0.00683858 -0.0268875 0)
(0.0152304 -0.0261798 0)
(0.0244221 -0.0113061 0)
(0.019504 0.00513517 0)
(-0.000127601 0.0256751 0)
(-0.0460569 0.0549261 0)
(-0.0816766 0.0744291 0)
(-0.0891109 0.0837823 0)
(-0.0881827 0.0904238 0)
(-0.0813708 0.0954699 0)
(-0.0663775 0.101523 0)
(-0.0445476 0.111958 0)
(-0.0139221 0.129848 0)
(0.0250389 0.156663 0)
(0.0581365 0.186905 0)
(0.0783903 0.224992 0)
(0.0955222 0.270755 0)
(0.112653 0.314522 0)
(0.131715 0.346795 0)
(0.154098 0.372574 0)
(0.178522 0.395459 0)
(0.203664 0.415703 0)
(0.228721 0.432567 0)
(0.252639 0.445246 0)
(0.273604 0.453783 0)
(0.291589 0.459523 0)
(0.307371 0.462123 0)
(0.320954 0.461935 0)
(0.330818 0.458978 0)
(0.339082 0.452762 0)
(0.345413 0.441055 0)
(0.355619 0.42531 0)
(0.354183 0.397665 0)
(0.347941 0.357919 0)
(0.339406 0.328038 0)
(0.320363 0.271566 0)
(0.316138 0.240562 0)
(0.29839 0.200798 0)
(0.269674 0.1618 0)
(0.246897 0.137248 0)
(0.230463 0.10917 0)
(0.224563 0.0730062 0)
(0.222685 0.021137 0)
(0.223475 -0.0454095 0)
(0.231722 -0.106499 0)
(0.242765 -0.158916 0)
(0.256579 -0.20208 0)
(0.271306 -0.241394 0)
(0.285801 -0.276974 0)
(0.298398 -0.307776 0)
(0.308444 -0.331326 0)
(0.316925 -0.347283 0)
(0.32513 -0.355564 0)
(0.333818 -0.356605 0)
(0.339652 -0.348264 0)
(0.349713 -0.337654 0)
(0.363637 -0.332587 0)
(0.372766 -0.332148 0)
(0.377391 -0.337786 0)
(0.381885 -0.35263 0)
(0.390133 -0.375793 0)
(0.393193 -0.402733 0)
(0.394836 -0.426609 0)
(0.399313 -0.431732 0)
(0.383404 -0.41436 0)
(0.373437 -0.367174 0)
(0.374657 -0.322433 0)
(0.366173 -0.288997 0)
(0.34969 -0.259413 0)
(0.327504 -0.227275 0)
(0.301174 -0.190403 0)
(0.275073 -0.147957 0)
(0.247648 -0.101242 0)
(0.216819 -0.0511297 0)
(0.185538 -0.000842748 0)
(0.156459 0.0474284 0)
(0.130542 0.0813702 0)
(0.0992556 0.0960914 0)
(0.0673627 0.0924541 0)
(0.0407057 0.0722725 0)
(0.0229886 0.0375774 0)
(0.0164969 -0.0118933 0)
(0.0171686 -0.0779447 0)
(0.0193742 -0.166265 0)
(0.0306963 -0.271221 0)
(0.0374401 -0.407474 0)
(0.0354606 -0.52081 0)
(-0.0130347 -0.468453 0)
(-0.0375372 -0.338695 0)
(-0.0529141 -0.285246 0)
(-0.0702602 -0.242964 0)
(-0.102761 -0.185313 0)
(-0.134506 -0.11887 0)
(-0.392283 -0.167961 0)
(-0.411859 -0.195033 0)
(-0.425764 -0.215457 0)
(-0.433065 -0.22929 0)
(-0.436114 -0.231397 0)
(-0.43297 -0.216845 0)
(-0.421292 -0.187465 0)
(-0.402127 -0.146369 0)
(-0.377716 -0.102845 0)
(-0.351318 -0.0560461 0)
(-0.322589 -0.00780793 0)
(-0.290747 0.0367862 0)
(-0.257186 0.0717842 0)
(-0.223141 0.0932547 0)
(-0.189435 0.0990176 0)
(-0.156886 0.0880908 0)
(-0.125752 0.0630855 0)
(-0.0937525 0.0303119 0)
(-0.0578681 -0.00588234 0)
(-0.0263416 -0.0342212 0)
(-0.0108597 -0.0421303 0)
(-0.0270924 -0.0184515 0)
(-0.0801112 0.0229205 0)
(-0.125077 0.0628468 0)
(-0.143171 0.0799214 0)
(-0.150052 0.0891467 0)
(-0.15271 0.0964183 0)
(-0.150132 0.100712 0)
(-0.142896 0.107255 0)
(-0.129585 0.116385 0)
(-0.111507 0.127055 0)
(-0.0927064 0.136969 0)
(-0.074063 0.145783 0)
(-0.0564692 0.154162 0)
(-0.0338946 0.165616 0)
(0.000282147 0.186515 0)
(0.0415258 0.219983 0)
(0.0733859 0.259712 0)
(0.0915757 0.30391 0)
(0.1086 0.341398 0)
(0.130185 0.366434 0)
(0.155199 0.387002 0)
(0.181175 0.405294 0)
(0.206729 0.420791 0)
(0.230558 0.431941 0)
(0.252077 0.439452 0)
(0.270927 0.44298 0)
(0.287482 0.44268 0)
(0.301842 0.438051 0)
(0.311733 0.430562 0)
(0.321942 0.416326 0)
(0.32757 0.399411 0)
(0.325893 0.365722 0)
(0.321161 0.34385 0)
(0.312563 0.307432 0)
(0.302949 0.282948 0)
(0.285483 0.249861 0)
(0.260313 0.212403 0)
(0.239932 0.183704 0)
(0.224155 0.156203 0)
(0.214661 0.122038 0)
(0.213875 0.0798777 0)
(0.215965 0.0178034 0)
(0.223332 -0.0492421 0)
(0.236248 -0.110963 0)
(0.250721 -0.163669 0)
(0.267081 -0.208393 0)
(0.283105 -0.247647 0)
(0.298067 -0.281695 0)
(0.310514 -0.310021 0)
(0.319947 -0.331314 0)
(0.327004 -0.34601 0)
(0.332717 -0.354589 0)
(0.338476 -0.357702 0)
(0.343286 -0.355171 0)
(0.348396 -0.34354 0)
(0.359015 -0.336765 0)
(0.370027 -0.334861 0)
(0.375221 -0.339913 0)
(0.38006 -0.353852 0)
(0.391364 -0.378968 0)
(0.399316 -0.412425 0)
(0.401958 -0.437511 0)
(0.398889 -0.44201 0)
(0.380819 -0.42052 0)
(0.373101 -0.364913 0)
(0.372891 -0.32452 0)
(0.364859 -0.293934 0)
(0.349242 -0.263758 0)
(0.326203 -0.230304 0)
(0.297524 -0.19227 0)
(0.267454 -0.149594 0)
(0.2342 -0.104158 0)
(0.197352 -0.0561245 0)
(0.160738 -0.00807331 0)
(0.125394 0.0387084 0)
(0.0974546 0.074855 0)
(0.0675035 0.0895804 0)
(0.0379059 0.0848946 0)
(0.015632 0.0634694 0)
(0.00306279 0.0272543 0)
(0.00279681 -0.0236601 0)
(0.00622528 -0.0923977 0)
(0.0167587 -0.17966 0)
(0.0341788 -0.281658 0)
(0.0452754 -0.409958 0)
(0.0425015 -0.498447 0)
(-0.0130199 -0.42862 0)
(-0.0394908 -0.313653 0)
(-0.0559417 -0.264617 0)
(-0.0786536 -0.223665 0)
(-0.114243 -0.168029 0)
(-0.143465 -0.107837 0)
(-0.368449 -0.124945 0)
(-0.39104 -0.153586 0)
(-0.408296 -0.176746 0)
(-0.419388 -0.193014 0)
(-0.423672 -0.201865 0)
(-0.422246 -0.197153 0)
(-0.413821 -0.176381 0)
(-0.395924 -0.141449 0)
(-0.369973 -0.100026 0)
(-0.34204 -0.0583411 0)
(-0.313635 -0.017412 0)
(-0.282614 0.0226829 0)
(-0.249311 0.0546959 0)
(-0.21531 0.0745531 0)
(-0.181487 0.080156 0)
(-0.148845 0.0705431 0)
(-0.116662 0.0461921 0)
(-0.0835053 0.010933 0)
(-0.0573052 -0.0209515 0)
(-0.0573371 -0.0275335 0)
(-0.0964037 0.00362236 0)
(-0.141125 0.049209 0)
(-0.16572 0.0777576 0)
(-0.179005 0.0941559 0)
(-0.184802 0.101335 0)
(-0.183236 0.104941 0)
(-0.17471 0.106545 0)
(-0.159202 0.105929 0)
(-0.140303 0.104987 0)
(-0.120987 0.107051 0)