/*--------------------------------*- C++ -*----------------------------------*\
  =========                 |
  \\      /  F ield         | OpenFOAM: The Open Source CFD Toolbox
   \\    /   O peration     | Website:  https://openfoam.org
    \\  /    A nd           | Version:  11
     \\/     M anipulation  |
\*---------------------------------------------------------------------------*/
FoamFile
{
    format      ascii;
    class       volScalarField;
    location    "4";
    object      p;
}
// * * * * * * * * * * * * * * * * * * * * * * * * * * * * * * * * * * * * * //

dimensions      [0 2 -2 0 0 0 0];

internalField   nonuniform List<scalar> 
9600
(
0.0616738
0.0622001
0.0629412
0.0638091
0.0646197
0.0652926
0.0656949
0.0658602
0.0658352
0.0654979
0.0639534
0.0628368
0.0612607
0.0578271
0.055568
0.0527369
0.0492308
0.0450574
0.0407017
0.035975
0.030971
0.0259381
0.0207777
0.015999
0.0120753
0.00884159
0.00610419
0.00412133
0.00293948
0.0024407
0.00227734
0.00265939
0.00303109
0.003404
0.00398122
0.00451649
0.00488355
0.0052307
0.0052829
0.00535088
0.0619714
0.062652
0.0635089
0.0644286
0.065193
0.0656533
0.0659277
0.0660422
0.0660364
0.0654323
0.063914
0.0624837
0.0606022
0.057097
0.0541358
0.0519893
0.0482218
0.0436161
0.0392762
0.0347184
0.0299333
0.0251671
0.0202717
0.0157033
0.011932
0.00897465
0.00625949
0.00421534
0.00299138
0.00234219
0.00221039
0.0023875
0.00289771
0.00323067
0.00385175
0.00450332
0.00500743
0.00553726
0.0057341
0.00517416
0.0623206
0.0629916
0.0638316
0.0646512
0.0652714
0.065689
0.0659404
0.0659741
0.0656821
0.0650768
0.0637471
0.0622149
0.0600336
0.0571364
0.055062
0.052159
0.0485903
0.0448388
0.0408919
0.0364603
0.0317093
0.0268431
0.0219127
0.0172373
0.0132191
0.00984183
0.00706036
0.00512501
0.00345145
0.0025669
0.00221254
0.00230245
0.00266627
0.00301012
0.00341045
0.00386731
0.00427893
0.00464167
0.00506324
0.0054949
0.0627069
0.0633685
0.0642046
0.0650107
0.0656203
0.0660063
0.0661743
0.0660816
0.0657875
0.0650562
0.0638205
0.0620459
0.0597774
0.0573467
0.0541558
0.0512422
0.0474538
0.0430955
0.0387059
0.0341631
0.0295062
0.0248216
0.0200644
0.0156058
0.0118273
0.00864943
0.00593833
0.00393513
0.00293464
0.00221979
0.00198883
0.00210366
0.00249303
0.00298276
0.00358865
0.00428801
0.00491684
0.0053919
0.00553953
0.00535199
0.0631337
0.0637702
0.0645947
0.0653883
0.065934
0.0662248
0.0663038
0.0661399
0.0658024
0.0650351
0.0636008
0.0617978
0.0595316
0.0571867
0.054408
0.0514012
0.0479084
0.0442397
0.0403873
0.0362381
0.0317803
0.0270957
0.0224071
0.0178609
0.0138511
0.0105184
0.0077642
0.00530608
0.00365665
0.002505
0.00199266
0.00195634
0.00220132
0.00252407
0.00290241
0.00327125
0.0036986
0.00426364
0.0049738
0.00570341
0.0635922
0.0641989
0.0649963
0.065764
0.0662537
0.0664797
0.0664878
0.0662511
0.0658681
0.0650304
0.063515
0.0618852
0.0597459
0.0571898
0.0542005
0.0509941
0.0471901
0.0429613
0.0385636
0.0340198
0.029421
0.0247559
0.0200412
0.0155912
0.0116854
0.00826632
0.0055539
0.00369467
0.00230934
0.00179236
0.0014657
0.00161456
0.00191929
0.00243979
0.00315011
0.00388555
0.00462663
0.00511911
0.00533372
0.00535505
0.0640823
0.0646501
0.0654088
0.0661462
0.0666141
0.0667762
0.0667009
0.0664306
0.065984
0.0650214
0.0635877
0.0618908
0.0596477
0.0571247
0.0541982
0.050966
0.0473385
0.0435766
0.0396646
0.0355932
0.0313567
0.0268644
0.0223444
0.0179535
0.0139895
0.010669
0.00794295
0.00551711
0.00388021
0.00226146
0.00155387
0.00140099
0.0016099
0.00189762
0.00229497
0.00270397
0.00313908
0.00374039
0.00457212
0.00540705
0.0645976
0.065113
0.0658322
0.0665437
0.0669971
0.0671197
0.0669933
0.0666378
0.0660739
0.0650735
0.0637024
0.0620306
0.0598099
0.0571575
0.0541652
0.0508619
0.047093
0.042952
0.0385981
0.0340754
0.0294804
0.0248074
0.0200961
0.0155831
0.0115059
0.00789176
0.00501726
0.00294731
0.00114403
0.000978788
0.000721275
0.000768181
0.00110308
0.00161929
0.00237009
0.00321427
0.00414244
0.00480345
0.00505709
0.0051224
0.0651379
0.0655997
0.0662864
0.0669689
0.0674222
0.0675212
0.0673156
0.0668799
0.0662289
0.0652476
0.06393
0.0621955
0.0598322
0.0571295
0.054129
0.0507809
0.0470225
0.0430521
0.0390068
0.0348557
0.0306557
0.0262723
0.0218398
0.0175881
0.0136453
0.0103095
0.00762695
0.00537835
0.00338025
0.00164712
0.000803304
0.000576101
0.000708972
0.00108548
0.00150576
0.00197326
0.00248293
0.00311888
0.00399808
0.00490552
0.0656961
0.0661133
0.0667869
0.0674566
0.0678907
0.0679558
0.0676693
0.0671696
0.06651
0.0655138
0.064128
0.0623436
0.0599662
0.0572105
0.0541665
0.0507707
0.0469731
0.0428876
0.0386093
0.0340994
0.0295026
0.0248389
0.0201014
0.01551
0.0112721
0.00747831
0.00438292
0.00208588
0.000789465
-0.000282122
-0.000429554
-0.000396323
-9.87407e-05
0.000447091
0.00123787
0.00218367
0.00329673
0.00419402
0.00461044
0.00490025
0.0662977
0.0666804
0.06734
0.0679921
0.0684046
0.0684227
0.0680834
0.0675691
0.0668481
0.0658084
0.064463
0.0625795
0.060089
0.057277
0.0541948
0.050735
0.0468796
0.0427613
0.0385608
0.0342012
0.0298539
0.0255124
0.0210619
0.0168022
0.0128774
0.00945649
0.00668832
0.00447325
0.00250413
0.000850735
-0.000280694
-0.000644352
-0.000517562
-0.000122668
0.000422873
0.000980249
0.00158168
0.0022707
0.00311561
0.00409117
0.0669559
0.0673081
0.0679579
0.0686001
0.0689549
0.0689175
0.0685812
0.0680581
0.0672797
0.0661935
0.0647544
0.0627916
0.0602474
0.0574203
0.0543057
0.0507698
0.0468629
0.0426906
0.0384142
0.0339451
0.0293481
0.0246981
0.0199483
0.0152889
0.0109277
0.00701216
0.0036055
0.000973536
-0.000683173
-0.00136977
-0.00188381
-0.00192026
-0.00168986
-0.00110761
-0.00032186
0.000707743
0.00194899
0.00315543
0.00385713
0.0041846
0.0676788
0.0680078
0.0686282
0.0692452
0.0695801
0.0695064
0.0691577
0.0686185
0.0677572
0.0665878
0.0651191
0.0630997
0.0604894
0.0575958
0.0544019
0.0507743
0.0467906
0.0425281
0.038185
0.0337456
0.0291728
0.0246576
0.020131
0.0157464
0.0117071
0.00817661
0.00524837
0.00291763
0.0010707
-0.000643012
-0.00176645
-0.00232729
-0.00228676
-0.00180692
-0.00115212
-0.000436872
0.000252324
0.00106537
0.00204024
0.00313166
0.0684954
0.0687782
0.0693598
0.0699524
0.0702688
0.0701831
0.069825
0.0692423
0.0682902
0.0670937
0.065559
0.0634371
0.0607443
0.0577768
0.0545264
0.0508359
0.0467679
0.0424336
0.0380235
0.0335255
0.0288892
0.0242687
0.0195594
0.0148381
0.0103209
0.00626733
0.00270338
-0.000253386
-0.00229526
-0.00352264
-0.00432693
-0.0041419
-0.00384963
-0.00330273
-0.00240278
-0.00133628
-2.72748e-05
0.00140541
0.00248397
0.00308106
0.0693869
0.0696236
0.0701725
0.0707357
0.0710424
0.0709488
0.0705569
0.069937
0.0689623
0.0676619
0.0660087
0.0638403
0.061089
0.0580408
0.0546946
0.0508844
0.0467176
0.0422781
0.0377308
0.0331852
0.0285068
0.0238708
0.0192363
0.0145882
0.0102424
0.00648108
0.00333302
0.000766402
-0.0011769
-0.00265294
-0.00388496
-0.00463478
-0.00473608
-0.00428107
-0.00351002
-0.00254082
-0.00164117
-0.00071361
0.000394971
0.00152708
0.0703517
0.0705291
0.0710479
0.0716069
0.0719216
0.0718274
0.0714015
0.0707435
0.0696878
0.0682736
0.066549
0.0643135
0.0614904
0.0583184
0.054823
0.0509228
0.0466558
0.0421125
0.0374913
0.0328901
0.0281733
0.0234532
0.0187269
0.0140049
0.00940775
0.00516626
0.00142028
-0.00177238
-0.00422953
-0.00585049
-0.00672405
-0.00720395
-0.00676072
-0.00619322
-0.00532762
-0.00415137
-0.00275581
-0.00113876
0.0003022
0.00119287
0.071387
0.071524
0.0720501
0.0726028
0.0728972
0.0727921
0.0723415
0.0716122
0.070492
0.0690258
0.0671536
0.0648241
0.0619375
0.0586162
0.0549977
0.0509811
0.0465944
0.0419709
0.0371845
0.0324599
0.0276886
0.0228776
0.0181176
0.013375
0.00875974
0.00459662
0.00104191
-0.00186865
-0.00413633
-0.00568585
-0.00690756
-0.00767177
-0.00806618
-0.00769671
-0.00685407
-0.00573102
-0.0044701
-0.00331623
-0.00208621
-0.000858241
0.0725088
0.0726195
0.0731697
0.073712
0.0739961
0.0739116
0.0734083
0.0726001
0.0714531
0.0698584
0.0678001
0.0653814
0.0624312
0.0589759
0.0551593
0.0510078
0.0465224
0.041736
0.036814
0.0320091
0.0271879
0.0223577
0.0175479
0.0127159
0.00797437
0.00355541
-0.000372457
-0.00376539
-0.00664465
-0.00870219
-0.0100471
-0.0105793
-0.0106437
-0.0101455
-0.00922556
-0.00807101
-0.00653636
-0.0047837
-0.0030164
-0.00172092
0.0737822
0.0738767
0.0744098
0.0749256
0.0752328
0.0751714
0.0745795
0.0736918
0.0724729
0.0707601
0.0685393
0.0659829
0.0629757
0.0593481
0.0553144
0.0510255
0.0463853
0.0415225
0.0364799
0.0314957
0.0265953
0.0216892
0.0167694
0.0118787
0.00706208
0.00251806
-0.00148777
-0.00480443
-0.00755847
-0.00959581
-0.0110539
-0.0119681
-0.0122911
-0.0121562
-0.011382
-0.0102021
-0.00871548
-0.00718986
-0.00570136
-0.00430068
0.0752219
0.0752663
0.0757907
0.0763284
0.0766509
0.0765717
0.0759038
0.0748866
0.0735888
0.0717966
0.069388
0.0666357
0.0634938
0.0597543
0.0555065
0.0509699
0.0462167
0.0412576
0.0360191
0.0308876
0.0258789
0.020916
0.0160353
0.0110781
0.0061595
0.00154429
-0.00270835
-0.0064493
-0.00972769
-0.0122716
-0.0141679
-0.0153175
-0.0155905
-0.0152129
-0.0143604
-0.0132208
-0.0116831
-0.00986521
-0.00784817
-0.0061873
0.0768468
0.0768126
0.0773235
0.0779117
0.0782316
0.0781156
0.0773609
0.0762027
0.0748142
0.0729181
0.0703279
0.0672972
0.0639978
0.0601905
0.0556824
0.050893
0.045954
0.040852
0.0355266
0.030237
0.0251179
0.0201124
0.0151746
0.0101681
0.0051439
0.000314333
-0.00418499
-0.00811033
-0.0114488
-0.0141708
-0.0161558
-0.0174963
-0.018221
-0.0182777
-0.0175121
-0.0164035
-0.0147642
-0.0129271
-0.0110581
-0.00939743
0.0786708
0.0785697
0.0790859
0.0797016
0.0799936
0.0798145
0.079002
0.0777212
0.076161
0.0741256
0.0713337
0.0680354
0.0645113
0.0605465
0.0558722
0.0507724
0.0455642
0.0403846
0.0349486
0.0294556
0.0242618
0.0191185
0.0140693
0.0091316
0.00409053
-0.000837309
-0.00542604
-0.00961445
-0.0133642
-0.0166656
-0.0192324
-0.0211134
-0.0221562
-0.0224204
-0.0218394
-0.020561
-0.0189536
-0.0170832
-0.0149309
-0.0130374
0.0806903
0.0805197
0.0810469
0.0816921
0.0819669
0.0816995
0.0808393
0.0793895
0.077598
0.0753673
0.0724143
0.0688236
0.0649786
0.0608323
0.0559769
0.0505577
0.0451285
0.0397426
0.0341644
0.0284968
0.0231726
0.0181196
0.0130443
0.00798816
0.00295581
-0.00202295
-0.0067734
-0.0113617
-0.015494
-0.0191852
-0.0221373
-0.0243639
-0.025735
-0.0264376
-0.026244
-0.0253075
-0.0236299
-0.0215337
-0.0194744
-0.0177026
0.0829897
0.0827567
0.0832845
0.0839163
0.084175
0.0838064
0.0828563
0.0812522
0.0791607
0.0766585
0.0736041
0.0697211
0.0653869
0.0609733
0.0559932
0.0503231
0.0444755
0.0388741
0.0332974
0.0274235
0.0218097
0.0168672
0.0119739
0.00684643
0.00174206
-0.00345666
-0.00839427
-0.0130467
-0.0173098
-0.0213626
-0.0249726
-0.0280661
-0.0302022
-0.0314281
-0.0317122
-0.0310724
-0.0296067
-0.0275563
-0.0253546
-0.0234709
0.0856115
0.0852989
0.0858115
0.0863896
0.0866161
0.0861579
0.0850413
0.0832692
0.0808761
0.0780323
0.0746803
0.0706236
0.0658328
0.0608951
0.055797
0.0499788
0.0436459
0.0376506
0.0321115
0.026412
0.0205081
0.0150299
0.0102721
0.0055739
0.000697838
-0.00454427
-0.00970438
-0.0147088
-0.0194185
-0.0239494
-0.0280342
-0.0317265
-0.0345927
-0.0365524
-0.0375424
-0.0374477
-0.0364938
-0.0347104
-0.0322733
-0.0302133
0.0886222
0.0881942
0.0886874
0.0891923
0.0892991
0.0887457
0.0874302
0.0854413
0.0827661
0.0795528
0.0757803
0.0714106
0.066306
0.0607779
0.0552299
0.0493073
0.042811
0.0361966
0.0302459
0.0248539
0.019288
0.0134452
0.00830854
0.00363608
-0.000749909
-0.0054528
-0.0105479
-0.0161625
-0.0215091
-0.0266126
-0.0311899
-0.0354631
-0.0391147
-0.041914
-0.043798
-0.0447449
-0.0445203
-0.043411
-0.0414959
-0.0393016
0.092072
0.0914911
0.091928
0.0923608
0.0922851
0.0915373
0.089978
0.0876766
0.0846754
0.0810597
0.0768583
0.0720312
0.0666044
0.0606027
0.054384
0.0481215
0.041616
0.0346666
0.0281197
0.0223601
0.0172447
0.0119625
0.00674257
0.00169301
-0.00269689
-0.00707579
-0.0117318
-0.0170197
-0.0225454
-0.0284331
-0.0341234
-0.0396362
-0.0443113
-0.0481082
-0.0508623
-0.0526836
-0.0534219
-0.0531437
-0.0521175
-0.0506305
0.0960408
0.0952587
0.0955659
0.0959032
0.0956402
0.094607
0.0927347
0.0900454
0.0866235
0.0825279
0.077811
0.0724841
0.066621
0.0601342
0.0533632
0.0464479
0.0397592
0.0327458
0.0258959
0.019544
0.0142687
0.00954562
0.00485446
1.52343e-05
-0.00436437
-0.00864694
-0.012977
-0.0179838
-0.0233604
-0.0296409
-0.036139
-0.0428451
-0.0490368
-0.0544805
-0.0589428
-0.0621325
-0.064013
-0.0646702
-0.0643437
-0.0639683
0.100573
0.0995699
0.0996606
0.0997963
0.0993218
0.0979489
0.0956396
0.0924469
0.0885294
0.0838387
0.0785202
0.0725713
0.0662173
0.0591704
0.0518631
0.044325
0.0370998
0.0299673
0.0230905
0.0164859
0.0108875
0.00619559
0.00204934
-0.00202979
-0.00592027
-0.00989067
-0.0139276
-0.0185989
-0.0238341
-0.0301193
-0.037304
-0.0450215
-0.0527673
-0.0601863
-0.0668479
-0.0723479
-0.0762124
-0.0784937
-0.079357
-0.0797564
0.105748
0.10447
0.104314
0.104136
0.10332
0.101543
0.0987622
0.0949026
0.0903127
0.0849271
0.0789014
0.0722333
0.0651998
0.0574696
0.049587
0.0414679
0.0337019
0.026204
0.0192222
0.0127738
0.00693724
0.00230955
-0.00163034
-0.00480437
-0.00809255
-0.011023
-0.0146748
-0.0186779
-0.0234616
-0.029329
-0.0366247
-0.0453799
-0.0547817
-0.0645236
-0.0739225
-0.0824209
-0.0894358
-0.094492
-0.0974054
-0.098993
0.11174
0.10996
0.109433
0.108948
0.10762
0.105145
0.101803
0.0972897
0.0918533
0.0856231
0.078749
0.0711828
0.0632943
0.0548661
0.0462264
0.0375803
0.0291571
0.0213199
0.0140773
0.00776398
0.0020453
-0.00248198
-0.00607301
-0.00857967
-0.0109412
-0.0127411
-0.0153563
-0.0181896
-0.0222196
-0.0273023
-0.0340602
-0.042554
-0.0528289
-0.0649524
-0.0777861
-0.0907261
-0.10269
-0.112911
-0.120168
-0.124713
0.118622
0.116348
0.115313
0.114046
0.112026
0.10875
0.104391
0.0991187
0.0927477
0.0854478
0.0775202
0.0690504
0.0598823
0.0508022
0.0413002
0.0320519
0.0230638
0.0148993
0.00742287
0.00109417
-0.00434354
-0.0086089
-0.0117958
-0.0137421
-0.0148901
-0.0154731
-0.0163763
-0.0175458
-0.0199437
-0.0233209
-0.0287012
-0.0361189
-0.0461743
-0.0587551
-0.0740112
-0.0918246
-0.110387
-0.128992
-0.145673
-0.159661
0.126584
0.123583
0.121829
0.120005
0.117258
0.113216
0.107892
0.101166
0.093372
0.0846932
0.0752943
0.0654805
0.0551983
0.0449955
0.0345817
0.0247019
0.015151
0.006626
-0.000959816
-0.00743087
-0.0126773
-0.01659
-0.0192181
-0.0204897
-0.0207025
-0.0199779
-0.0189323
-0.0178111
-0.0176465
-0.0181723
-0.0206017
-0.0249143
-0.0324724
-0.0433626
-0.0586152
-0.0782378
-0.10202
-0.129636
-0.159401
-0.189239
0.13519
0.130944
0.12754
0.124236
0.12002
0.114504
0.107706
0.0998389
0.0908103
0.0808294
0.069945
0.0587098
0.0471191
0.0357603
0.0246124
0.0139889
0.00417835
-0.00465893
-0.0122976
-0.0187489
-0.0236041
-0.027036
-0.0290437
-0.0297326
-0.0290555
-0.0272711
-0.0244831
-0.0210244
-0.0173834
-0.0139987
-0.0121105
-0.0116513
-0.0138533
-0.0186954
-0.0283275
-0.0432433
-0.0653183
-0.0939696
-0.131662
-0.175276
0.14699
0.14223
0.137813
0.133106
0.126956
0.11923
0.109994
0.0989973
0.0867777
0.0740793
0.0608464
0.0474466
0.0343024
0.0215775
0.00952657
-0.00178027
-0.0118674
-0.020771
-0.0282013
-0.0342267
-0.0385858
-0.0412906
-0.0423183
-0.0419937
-0.0402796
-0.0376274
-0.0336365
-0.0280812
-0.0215913
-0.0141547
-0.00701151
-0.000428774
0.00444899
0.00790465
0.00864435
0.00542135
-0.00342744
-0.0197251
-0.0439332
-0.0760046
0.153092
0.144159
0.136096
0.128146
0.11987
0.110413
0.099787
0.0877086
0.0740053
0.0592813
0.0441752
0.028988
0.014272
0.000283582
-0.0127276
-0.0245509
-0.0347878
-0.0435424
-0.0505463
-0.0557624
-0.0592413
-0.0610049
-0.0612433
-0.0601332
-0.0577977
-0.0543744
-0.0496586
-0.0432754
-0.0352164
-0.0250275
-0.0125801
0.00120706
0.0146861
0.0276373
0.03995
0.0505239
0.0587127
0.0630837
0.0623505
0.0540935
0.176462
0.167851
0.1582
0.146514
0.132631
0.116559
0.0988289
0.080373
0.061796
0.0434497
0.0254395
0.00793218
-0.00880968
-0.0245978
-0.0390306
-0.0518963
-0.0629655
-0.0718629
-0.0785949
-0.0831495
-0.0858221
-0.0869399
-0.0866747
-0.0856531
-0.0839783
-0.0816269
-0.0785211
-0.074601
-0.0691142
-0.0608366
-0.048372
-0.0323068
-0.0125802
0.00936511
0.0318097
0.0533905
0.074513
0.0923717
0.106954
0.116778
0.14885
0.130177
0.112604
0.095351
0.0777754
0.0597729
0.0405246
0.020219
-0.00106305
-0.0224035
-0.0432862
-0.0629452
-0.0809655
-0.0969857
-0.110746
-0.122018
-0.130613
-0.136438
-0.13959
-0.140336
-0.138999
-0.135961
-0.13177
-0.127379
-0.123788
-0.121881
-0.122124
-0.124403
-0.127457
-0.129372
-0.127491
-0.118438
-0.1011
-0.077339
-0.0508182
-0.0232618
0.00226629
0.0266781
0.0483761
0.0654579
0.214271
0.189436
0.161986
0.134507
0.106909
0.0793144
0.0519631
0.025394
-9.70954e-05
-0.0242239
-0.0465475
-0.0666252
-0.0841084
-0.0987166
-0.110352
-0.118574
-0.123408
-0.124495
-0.122129
-0.116466
-0.107803
-0.0968335
-0.0850949
-0.0742051
-0.0661047
-0.0625674
-0.0655046
-0.0761291
-0.0966696
-0.12863
-0.171413
-0.206005
-0.215008
-0.212629
-0.206116
-0.195725
-0.183243
-0.167786
-0.15294
-0.135142
-0.0293682
-0.0623811
-0.0966054
-0.135882
-0.178409
-0.220989
-0.261742
-0.299956
-0.334381
-0.363012
-0.385179
-0.402698
-0.417437
-0.429952
-0.438225
-0.44066
-0.436034
-0.424393
-0.406207
-0.382417
-0.354216
-0.322506
-0.288222
-0.252834
-0.218337
-0.187587
-0.163535
-0.149113
-0.147213
-0.159798
-0.190952
-0.209073
-0.211844
-0.218241
-0.223699
-0.229563
-0.234164
-0.237403
-0.237834
-0.23167
0.00589382
0.00672351
0.0069024
0.00721637
0.00793629
0.00879231
0.00984264
0.0107301
0.0114863
0.0118402
0.0115214
0.0105429
0.00880121
0.00658885
0.00449381
0.00221638
0.000283767
-0.00152467
-0.00294624
-0.00410031
-0.00499292
-0.00575289
-0.0062137
-0.00649154
-0.0066739
-0.00678828
-0.00684199
-0.00678002
-0.00666308
-0.00655357
-0.00644048
-0.00631186
-0.00615448
-0.00599985
-0.00587078
-0.00570939
-0.00542762
-0.0052161
-0.00464293
-0.00554825
0.00545573
0.0065565
0.0069442
0.00726419
0.00793154
0.00889293
0.0101127
0.0112288
0.0121568
0.0125729
0.0121726
0.0111088
0.00921203
0.00681788
0.00458921
0.00225654
0.000186486
-0.00165888
-0.00309073
-0.00435161
-0.00530201
-0.00608409
-0.00656785
-0.00683688
-0.00699584
-0.0071069
-0.0071109
-0.00701412
-0.00691059
-0.00680649
-0.00668529
-0.00656469
-0.00638862
-0.00622489
-0.00605329
-0.00585611
-0.0056138
-0.0053682
-0.00545958
-0.00692572
0.00634833
0.00639819
0.00684566
0.00722471
0.00797005
0.00906665
0.0104239
0.0117008
0.012785
0.0133534
0.0129223
0.0117606
0.00973341
0.00718579
0.00479152
0.0024582
0.000211542
-0.00167043
-0.0032053
-0.0045427
-0.00556891
-0.00636488
-0.00691357
-0.00723663
-0.0074249
-0.00751115
-0.00744568
-0.00729677
-0.0072173
-0.007083
-0.00694696
-0.00681394
-0.00662255
-0.00644202
-0.00623506
-0.00603223
-0.00579647
-0.00548475
-0.00503749
-0.00461879
0.00550145
0.00633258
0.0067114
0.00717664
0.00807484
0.00925871
0.0107434
0.0121691
0.0133904
0.0141697
0.0137816
0.0124988
0.0103721
0.00764334
0.00506625
0.00268398
0.000313467
-0.00167315
-0.00325342
-0.00470669
-0.0058085
-0.00664335
-0.00725326
-0.00759933
-0.00781974
-0.00791768
-0.00783705
-0.00765877
-0.00756674
-0.00739748
-0.00725438
-0.00707491
-0.00686555
-0.00665645
-0.00642862
-0.00622867
-0.00599659
-0.00576716
-0.00579457
-0.00647354
0.00669121
0.00619437
0.00657282
0.00719543
0.00819995
0.0094136
0.0110264
0.0126518
0.0140446
0.0150234
0.0147569
0.0133207
0.0111145
0.00816669
0.00544687
0.002931
0.000484573
-0.00164648
-0.00336517
-0.00482773
-0.00600052
-0.00686393
-0.00751531
-0.00789312
-0.00816414
-0.00828535
-0.00818825
-0.00804795
-0.00793473
-0.00775565
-0.00760776
-0.00738621
-0.00715663
-0.00692223
-0.00668393
-0.00646883
-0.00622956
-0.00595993
-0.00550125
-0.0048537
0.00587582
0.00603105
0.00651928
0.00727603
0.00831616
0.0095801
0.0113052
0.0131169
0.0147547
0.0159346
0.0158267
0.0141953
0.0119416
0.00873355
0.00594318
0.00321258
0.000668116
-0.00154302
-0.00347981
-0.00493256
-0.00619126
-0.0071055
-0.00779417
-0.00820514
-0.00854407
-0.00862136
-0.00849984
-0.00844264
-0.00832427
-0.00815763
-0.00801813
-0.00777569
-0.00752723
-0.0072668
-0.00700007
-0.00674294
-0.0064877
-0.00626866
-0.0062077
-0.00648344
0.0064158
0.00591865
0.00646067
0.00731471
0.00835802
0.00975606
0.0115735
0.0135555
0.0154612
0.0169081
0.016971
0.0151232
0.0128861
0.00924327
0.00648996
0.00356735
0.000883932
-0.00137925
-0.00354025
-0.00505113
-0.00638923
-0.00738356
-0.00810592
-0.00859111
-0.00898054
-0.00899813
-0.00891329
-0.00891115
-0.00879885
-0.0086502
-0.00848151
-0.00820444
-0.00792121
-0.00761512
-0.00730367
-0.00700706
-0.00673702
-0.00646508
-0.0060236
-0.00538902
0.00576832
0.00580988
0.0063346
0.00727127
0.0083294
0.00984793
0.011754
0.0139769
0.0161552
0.0179468
0.018199
0.016097
0.0139188
0.00989854
0.00710057
0.00397992
0.00114597
-0.0011532
-0.00352509
-0.00515789
-0.00659948
-0.00769843
-0.00843919
-0.0090355
-0.00944017
-0.00946165
-0.00947639
-0.00947906
-0.00934634
-0.00917663
-0.00891014
-0.00857457
-0.00823694
-0.00789436
-0.00755479
-0.00724564
-0.0069721
-0.00674711
-0.00663596
-0.00667632
0.00604904
0.00566412
0.00617157
0.0071462
0.00821486
0.00984816
0.0118496
0.0143471
0.0168669
0.0190713
0.019539
0.0170375
0.0147875
0.0108143
0.00770047
0.00451132
0.00151061
-0.000949654
-0.00344273
-0.00527432
-0.00682717
-0.00800328
-0.00877389
-0.0095332
-0.00992867
-0.0100071
-0.0100972
-0.010031
-0.00983576
-0.00958817
-0.00924715
-0.00889038
-0.00852692
-0.0081783
-0.00783475
-0.00753432
-0.00726125
-0.00699818
-0.00658467
-0.00605388
0.00557751
0.00549443
0.00592182
0.00691671
0.007988
0.00979337
0.0119573
0.0146882
0.017592
0.0202734
0.0210331
0.0180695
0.0155383
0.011703
0.00837675
0.00512366
0.00192486
-0.000779655
-0.00330847
-0.0054019
-0.00705483
-0.00832303
-0.00920936
-0.010047
-0.0103991
-0.0105225
-0.0106238
-0.010508
-0.0102802
-0.00999418
-0.00965496
-0.00929563
-0.00892857
-0.00857597
-0.00823428
-0.00791424
-0.0076075
-0.00734318
-0.00710857
-0.00698742
0.00534046
0.00520326
0.00554857
0.00652076
0.00763641
0.00962643
0.0120382
0.0149857
0.0183057
0.0215224
0.0226995
0.0191223
0.016456
0.0127456
0.00921724
0.00577971
0.00230872
-0.000596324
-0.00316429
-0.00552769
-0.00729027
-0.0086794
-0.00971053
-0.0105116
-0.0108401
-0.0110422
-0.0111767
-0.0110652
-0.0108568
-0.0105791
-0.0102305
-0.00984964
-0.00946531
-0.00908643
-0.00871121
-0.00833857
-0.00799174
-0.00766412
-0.00723685
-0.00678648
0.00479969
0.00492648
0.00506705
0.00600412
0.00720551
0.00931215
0.011995
0.0151477
0.0189482
0.0227829
0.0245311
0.0203282
0.0173909
0.0138757
0.0103229
0.00654878
0.00276524
-0.000363634
-0.00303034
-0.00563738
-0.00757005
-0.00908133
-0.0102191
-0.0110109
-0.0113765
-0.0117066
-0.0118575
-0.0117429
-0.0115538
-0.0112553
-0.0108908
-0.0104738
-0.0100492
-0.00960772
-0.00918505
-0.00877448
-0.00839646
-0.00798971
-0.00757741
-0.00735381
0.00431442
0.00453152
0.00456831
0.00537025
0.00667461
0.00884093
0.0117785
0.0151468
0.0194459
0.0239939
0.0265366
0.0218953
0.018396
0.01517
0.011648
0.00755818
0.00343038
-5.15792e-05
-0.00294893
-0.00573733
-0.00785981
-0.0094687
-0.0107121
-0.0115557
-0.012
-0.0124158
-0.0125451
-0.0124521
-0.0122765
-0.0119399
-0.0115512
-0.011089
-0.0106392
-0.0101587
-0.0097274
-0.00929243
-0.00888361
-0.00840075
-0.00792117
-0.0075676
0.00365305
0.00398969
0.00398249
0.00456275
0.00591072
0.00816974
0.0113694
0.014944
0.0197373
0.0250809
0.0287727
0.024003
0.0194936
0.0166936
0.0131421
0.00878346
0.00425863
0.000414307
-0.00287721
-0.005777
-0.00807841
-0.00981057
-0.0111894
-0.0120831
-0.0126382
-0.0131272
-0.0132487
-0.0131787
-0.0129802
-0.012603
-0.0122063
-0.0117641
-0.0113329
-0.0108616
-0.0104298
-0.00995783
-0.00948591
-0.00893978
-0.00842864
-0.00809365
0.00265563
0.0031153
0.00311806
0.0035139
0.00483122
0.00719725
0.010733
0.014546
0.0198031
0.0259552
0.0311478
0.0268776
0.0208112
0.0183938
0.0148207
0.0102046
0.00524052
0.000993261
-0.00273477
-0.005769
-0.00828134
-0.0101847
-0.0116987
-0.0126765
-0.013385
-0.0139051
-0.0140013
-0.0139278
-0.0136876
-0.0133178
-0.0129575
-0.0125632
-0.012141
-0.0116767
-0.0112108
-0.0106653
-0.0101325
-0.00956678
-0.00905031
-0.00868549
0.00167921
0.00210494
0.00206428
0.00220601
0.0033873
0.00578731
0.00971345
0.0138809
0.0196163
0.0266603
0.0337809
0.030102
0.0228069
0.0205393
0.0167395
0.0118162
0.00639028
0.00171189
-0.00253318
-0.00577012
-0.00855724
-0.0106746
-0.0122909
-0.0133666
-0.0141986
-0.0146982
-0.0148184
-0.0147686
-0.0144948
-0.0141416
-0.0137693
-0.013372
-0.0129115
-0.0124088
-0.0118933
-0.0113117
-0.0107769
-0.0101963
-0.00964098
-0.00926821
0.000240851
0.000862258
0.000860804
0.000667768
0.0016481
0.00395831
0.00814704
0.0127969
0.0190642
0.0272325
0.0360358
0.0337643
0.0258158
0.023347
0.0189715
0.0136278
0.00773313
0.00256182
-0.00224726
-0.00578538
-0.00886288
-0.0112042
-0.0128819
-0.0140968
-0.0150577
-0.0155772
-0.0157475
-0.0157246
-0.0154245
-0.0150671
-0.0146338
-0.0141843
-0.0136583
-0.0131221
-0.0125774
-0.0119991
-0.0114349
-0.0108221
-0.0103117
-0.00997878
-0.00121686
-0.000704342
-0.00069912
-0.00123245
-0.000496074
0.00171545
0.00593046
0.0111425
0.0179757
0.0274557
0.0375766
0.0379003
0.0295629
0.0268171
0.0216352
0.0157933
0.00930081
0.00354414
-0.00178723
-0.00574142
-0.00909134
-0.0116537
-0.0134597
-0.0148874
-0.0159782
-0.0165959
-0.0168487
-0.0168295
-0.0165429
-0.0161882
-0.0157168
-0.0152439
-0.0146674
-0.0141052
-0.0134975
-0.012853
-0.0121875
-0.0115368
-0.0110585
-0.0107754
-0.00341711
-0.00302754
-0.00312965
-0.00391188
-0.00351504
-0.00133859
0.00276309
0.00856233
0.0161168
0.0269685
0.038207
0.0420894
0.0337732
0.0309341
0.0248992
0.018403
0.0111173
0.00464368
-0.0010983
-0.00558537
-0.00925666
-0.0119944
-0.0140403
-0.0157012
-0.0169224
-0.0176573
-0.0180232
-0.0180338
-0.0178176
-0.0175125
-0.0170942
-0.0166298
-0.0159981
-0.0153636
-0.0146355
-0.0138921
-0.0131136
-0.0124208
-0.0119054
-0.011633
-0.00565965
-0.0057259
-0.00639486
-0.00757792
-0.00781656
-0.00576757
-0.00177472
0.00459512
0.0130957
0.0254598
0.037781
0.0444973
0.0394586
0.0358953
0.0288077
0.0213368
0.0131467
0.00582306
-0.000301519
-0.00538761
-0.00938763
-0.012401
-0.0147189
-0.0165605
-0.0178678
-0.0186621
-0.0191005
-0.0191466
-0.0190239
-0.0187805
-0.0184442
-0.0179584
-0.0172842
-0.0165713
-0.0157999
-0.0150227
-0.0142182
-0.0134899
-0.0128931
-0.0126262
-0.00860393
-0.00870005
-0.0101473
-0.0118798
-0.0129875
-0.0114526
-0.00772555
-0.000999498
0.00848543
0.0225527
0.0362873
0.0460088
0.0455144
0.0414578
0.0332491
0.0245139
0.0153219
0.00706599
0.000367618
-0.00533459
-0.0097235
-0.0130872
-0.0156201
-0.0175893
-0.0189091
-0.0196939
-0.020142
-0.0201879
-0.0201287
-0.0198768
-0.0195584
-0.0190806
-0.018479
-0.0178243
-0.0171173
-0.0163815
-0.0155822
-0.0147793
-0.0140858
-0.0137991
-0.0121334
-0.0123309
-0.0145523
-0.0169009
-0.0188807
-0.0183176
-0.015046
-0.00838192
0.00197926
0.0175595
0.0334145
0.0464732
0.0515393
0.0474698
0.0381544
0.0280222
0.0177058
0.0084722
0.000874414
-0.00550011
-0.0103922
-0.0140341
-0.0168178
-0.0189656
-0.0203431
-0.0211977
-0.0216329
-0.0216819
-0.0216031
-0.0213115
-0.0210451
-0.0206437
-0.0201342
-0.0195117
-0.018804
-0.0180179
-0.0171301
-0.0162191
-0.0154165
-0.015095
-0.0170405
-0.0179154
-0.0209669
-0.024367
-0.0272066
-0.0278969
-0.0249372
-0.0184801
-0.00711294
0.00998274
0.0285852
0.0453423
0.0562228
0.0537865
0.043306
0.0318233
0.0203965
0.0101333
0.0015233
-0.00553554
-0.0110194
-0.0150506
-0.0182253
-0.0207279
-0.0222738
-0.0233051
-0.0237505
-0.0238546
-0.0237814
-0.0235766
-0.0233245
-0.0228399
-0.0222022
-0.0214087
-0.0205287
-0.0195591
-0.0185684
-0.0175905
-0.0167659
-0.0164753
-0.023044
-0.0251811
-0.0294819
-0.034894
-0.0393224
-0.0416552
-0.0392416
-0.0329522
-0.0204632
-0.000788978
0.0209993
0.041735
0.0589656
0.0595881
0.0480917
0.0355527
0.0231843
0.0118731
0.00250942
-0.00520341
-0.0113173
-0.015899
-0.0194903
-0.0223313
-0.0240504
-0.0253528
-0.025947
-0.0261997
-0.0261837
-0.025985
-0.0255616
-0.0248684
-0.0240066
-0.0230495
-0.0220557
-0.0210271
-0.0200354
-0.0190239
-0.0182251
-0.0180287
-0.0301244
-0.0335385
-0.0395258
-0.047254
-0.054395
-0.0590563
-0.0586752
-0.0529009
-0.0394533
-0.0160261
0.0102755
0.0353778
0.0594029
0.0637329
0.0518906
0.0386187
0.0253657
0.0131842
0.00335432
-0.00498343
-0.0115505
-0.0165619
-0.0204633
-0.0234925
-0.025502
-0.0271188
-0.0278439
-0.0281964
-0.0281956
-0.0279329
-0.0273996
-0.0266742
-0.0258508
-0.024986
-0.0240473
-0.023032
-0.0220209
-0.0209368
-0.0201192
-0.0199394
-0.0393274
-0.0435775
-0.0517571
-0.0624674
-0.0736207
-0.0818029
-0.0855852
-0.0805524
-0.0651845
-0.0369452
-0.00416875
0.026898
0.056492
0.0655028
0.0540116
0.0403996
0.0262904
0.0135358
0.00323089
-0.005665
-0.0124708
-0.0178938
-0.022178
-0.0254193
-0.027756
-0.0294696
-0.0301553
-0.0305956
-0.030625
-0.0304069
-0.0299751
-0.0293739
-0.0286964
-0.0279396
-0.0270036
-0.025876
-0.0247263
-0.0234688
-0.0225983
-0.0223517
-0.0516086
-0.057602
-0.0689491
-0.0844828
-0.101446
-0.115925
-0.123115
-0.120834
-0.100136
-0.0644896
-0.0236828
0.0149351
0.0508042
0.0637153
0.0532884
0.0401859
0.0255194
0.0125678
0.0017463
-0.00752878
-0.0147806
-0.020801
-0.0255126
-0.0289506
-0.0313511
-0.033087
-0.0338087
-0.0344241
-0.0344121
-0.0342183
-0.0338039
-0.0332344
-0.0325082
-0.0316511
-0.0305776
-0.0292641
-0.0279229
-0.0265254
-0.0255624
-0.0251586
-0.0670728
-0.0766575
-0.0928103
-0.115272
-0.139942
-0.164538
-0.177947
-0.174665
-0.146143
-0.0990742
-0.0494429
-0.000867149
0.0413388
0.0562019
0.0479524
0.0367579
0.0223002
0.00991259
-0.00125254
-0.0105592
-0.0184125
-0.0246471
-0.0296352
-0.0331923
-0.0356399
-0.0375023
-0.0382998
-0.0390984
-0.038982
-0.0388296
-0.0383332
-0.0377044
-0.0367374
-0.0357019
-0.0344318
-0.0329103
-0.0314839
-0.0300458
-0.0289904
-0.028491
-0.0849925
-0.0996529
-0.123915
-0.155874
-0.192755
-0.229027
-0.252854
-0.243968
-0.20397
-0.141664
-0.0810177
-0.0239739
0.0257386
0.0414233
0.0364709
0.028397
0.0152964
0.00434798
-0.00644215
-0.0151603
-0.0230863
-0.0289405
-0.0341624
-0.0374964
-0.0401825
-0.0420406
-0.0430262
-0.0439553
-0.0438433
-0.0438244
-0.0431468
-0.0423279
-0.0411563
-0.0400905
-0.0386554
-0.0370495
-0.035601
-0.0340842
-0.033016
-0.0324704
-0.106642
-0.127099