/*--------------------------------*- C++ -*----------------------------------*\
  =========                 |
  \\      /  F ield         | OpenFOAM: The Open Source CFD Toolbox
   \\    /   O peration     | Website:  https://openfoam.org
    \\  /    A nd           | Version:  11
     \\/     M anipulation  |
\*---------------------------------------------------------------------------*/
FoamFile
{
    format      ascii;
    class       volVectorField;
    location    "4";
    object      U;
}
// * * * * * * * * * * * * * * * * * * * * * * * * * * * * * * * * * * * * * //

dimensions      [0 1 -1 0 0 0 0];

internalField   nonuniform List<vector> 
9600
(
(0.992005 0.000507576 -6.02717e-21)
(0.991494 0.000746869 0)
(0.991246 0.000705978 -6.2808e-21)
(0.991092 0.001122 6.20443e-21)
(0.990421 0.00112797 0)
(0.990275 0.000737354 3.2201e-21)
(0.99058 0.000404691 -6.40933e-21)
(0.991409 2.46274e-05 3.19515e-21)
(0.993023 -9.75417e-05 3.22325e-21)
(0.995422 0.00119615 -3.24647e-21)
(0.994317 0.00606767 2.48691e-23)
(0.977531 0.0106691 0)
(0.9515 0.00993555 0)
(0.939397 0.00501818 -1.43361e-21)
(0.938757 -0.000650647 6.4132e-23)
(0.945894 -0.00648909 1.35244e-21)
(0.965659 -0.0130297 0)
(0.986339 -0.0191256 0)
(1.00472 -0.0236643 1.98333e-24)
(1.02092 -0.0276113 0)
(1.0345 -0.0290523 0)
(1.04578 -0.0303835 -1.26742e-24)
(1.05594 -0.0295256 2.03519e-24)
(1.06256 -0.0291953 -3.59243e-22)
(1.06768 -0.0283123 3.55777e-22)
(1.07035 -0.0267379 1.88605e-22)
(1.06998 -0.0249848 -1.87582e-22)
(1.06844 -0.023912 -1.76225e-22)
(1.06597 -0.0227822 1.73908e-22)
(1.06244 -0.020927 0)
(1.05757 -0.019735 0)
(1.05184 -0.0168435 1.43151e-22)
(1.04527 -0.0153443 -3.02764e-22)
(1.03907 -0.0126216 1.60235e-22)
(1.0332 -0.0105788 0)
(1.02779 -0.0081928 3.48722e-24)
(1.02262 -0.00616789 5.02066e-22)
(1.01793 -0.00368753 -4.95436e-22)
(1.01362 -0.0021632 -4.18322e-24)
(1.00915 0.00139059 -1.06781e-21)
(0.992594 0.000185483 -6.15725e-21)
(0.992873 -7.08799e-05 -1.75412e-22)
(0.99292 -0.000224052 -3.96644e-23)
(0.992982 -0.000508967 6.4971e-21)
(0.993388 -0.000832641 3.30432e-21)
(0.994369 -0.000948122 -3.32023e-21)
(0.995096 -0.000896516 5.25007e-23)
(0.995683 -0.000876013 2.63319e-23)
(0.996602 -0.000857646 -3.36812e-21)
(0.997744 -0.000105363 3.42152e-21)
(1.00005 0.00236314 -2.56589e-23)
(1.00399 0.0042365 5.02098e-23)
(1.00697 0.00178024 1.47056e-21)
(1.00803 -0.00260355 -2.96255e-21)
(1.00822 -0.00414148 1.45882e-21)
(1.01006 -0.00488531 1.29965e-21)
(1.01516 -0.00297566 -1.31271e-21)
(1.02417 0.00417553 5.46852e-22)
(1.0319 0.0108835 -5.4066e-22)
(1.03862 0.0169358 0)
(1.04472 0.0205871 0)
(1.05032 0.0232203 -2.91364e-22)
(1.05558 0.0246831 2.88829e-22)
(1.06014 0.0256881 3.21585e-24)
(1.06217 0.0260126 0)
(1.06225 0.0263816 1.99031e-22)
(1.06192 0.0262295 -5.92888e-23)
(1.06013 0.0259278 5.22265e-23)
(1.05763 0.0253079 -1.84623e-22)
(1.05239 0.0240719 -1.97392e-24)
(1.04796 0.0234 1.18078e-22)
(1.04181 0.0203309 -1.18792e-22)
(1.03566 0.0193057 1.58795e-22)
(1.02991 0.015628 -3.36589e-22)
(1.02391 0.0134021 1.74135e-22)
(1.01723 0.010386 -3.56845e-24)
(1.01301 0.00857104 -3.89998e-24)
(1.0067 0.00510203 0)
(1.00412 0.00412306 4.29097e-24)
(0.99499 -0.00186611 -5.25855e-22)
(0.992688 0.000116841 0)
(0.992893 -4.22616e-05 6.60196e-21)
(0.992986 -9.77864e-05 -6.5047e-21)
(0.993195 -3.97703e-05 0)
(0.993756 -5.89888e-05 0)
(0.994398 -0.000207726 -1.06998e-22)
(0.994985 -0.000338243 -1.61428e-22)
(0.995957 -0.000799612 0)
(0.998194 -0.00126009 -3.53178e-21)
(1.00184 0.00044045 3.38195e-21)
(1.00471 0.00497278 0)
(1.00514 0.00812657 -5.09144e-23)
(1.00429 0.00819442 4.89447e-23)
(0.998114 0.00487634 0)
(0.993235 -0.000692049 -1.44571e-21)
(0.99562 -0.00770686 1.42429e-21)
(1.00298 -0.0151291 4.00622e-23)
(1.01218 -0.0218628 -9.19433e-24)
(1.02421 -0.0261749 -2.49159e-22)
(1.03525 -0.0301011 2.57504e-22)
(1.04654 -0.0315564 1.94936e-22)
(1.05471 -0.0331451 -2.02981e-22)
(1.06424 -0.0316293 4.38665e-24)
(1.06987 -0.0311554 -4.05057e-22)
(1.07551 -0.0287494 3.99508e-22)
(1.07795 -0.0272499 2.12778e-22)
(1.08015 -0.0241524 -2.24063e-22)
(1.07896 -0.0223347 2.2701e-22)
(1.07788 -0.019496 -2.26486e-22)
(1.07387 -0.0175072 2.02148e-24)
(1.06916 -0.0151291 0)
(1.06384 -0.0118599 1.30332e-22)
(1.05758 -0.01044 -2.80724e-22)
(1.052 -0.00640747 1.48044e-22)
(1.04687 -0.00557859 1.95103e-22)
(1.04027 -0.002345 -6.10756e-22)
(1.03685 -0.00119031 -3.99951e-23)
(1.03138 0.000973548 4.59083e-22)
(1.0288 0.00253807 -8.47829e-24)
(1.0222 0.00451943 -1.38688e-25)
(0.99265 8.18333e-05 -1.29976e-20)
(0.99287 -0.000243107 6.61724e-21)
(0.992976 -0.000292742 6.79816e-21)
(0.993211 -0.00042861 -6.81582e-21)
(0.993745 -0.000736043 0)
(0.994468 -0.000961324 3.62976e-21)
(0.995434 -0.0013 -3.42141e-21)
(0.99683 -0.00207893 3.64479e-21)
(0.998624 -0.00236156 -2.76001e-23)
(1.00129 -0.000459555 -3.51735e-21)
(1.00607 0.00361177 -3.29232e-21)
(1.00915 0.00544071 6.8084e-21)
(1.01093 0.0041605 -1.70947e-21)
(1.01569 -0.000121626 -3.0947e-21)
(1.02353 -0.00650703 1.51681e-21)
(1.03075 -0.0122736 1.38746e-21)
(1.03794 -0.0130314 -1.36529e-21)
(1.04431 -0.0083625 -1.8608e-23)
(1.04967 -0.00171524 -8.48298e-24)
(1.05355 0.00516815 0)
(1.05652 0.0105435 0)
(1.05862 0.0142691 5.50693e-24)
(1.06143 0.0173598 0)
(1.0643 0.0199557 0)
(1.06603 0.0217118 -5.60363e-24)
(1.06617 0.0236742 7.85895e-24)
(1.06553 0.0252569 -1.28198e-22)
(1.06301 0.0263197 -4.4552e-23)
(1.06073 0.0264089 1.91509e-22)
(1.05606 0.0262705 -1.13649e-22)
(1.05166 0.0259851 1.13397e-22)
(1.04703 0.0236601 3.40879e-24)
(1.04055 0.022876 1.42784e-22)
(1.03553 0.0189683 -1.46273e-22)
(1.02969 0.017366 -2.04335e-22)
(1.02299 0.0132552 -2.79542e-22)
(1.01819 0.0113054 -5.8392e-23)
(1.01211 0.00704558 5.43218e-22)
(1.00842 0.00638949 8.688e-24)
(1.00335 0.00149884 8.75304e-24)
(0.992624 -5.80163e-05 0)
(0.992867 -0.000487359 7.11719e-21)
(0.992963 -0.000577541 -1.41479e-20)
(0.993211 -0.000727806 7.03364e-21)
(0.993731 -0.00102245 0)
(0.994758 -0.00142757 0)
(0.995985 -0.0019303 0)
(0.997238 -0.00256724 1.13811e-22)
(0.998803 -0.00273652 -3.48815e-21)
(1.00102 -0.00130648 3.60105e-21)
(1.00694 0.00258374 -1.09978e-22)
(1.01485 0.00574905 3.26002e-21)
(1.02064 0.00406707 -4.99763e-21)
(1.02322 -0.00150088 1.62621e-21)
(1.02308 -0.00672979 0)
(1.02144 -0.0119138 1.34182e-21)
(1.02185 -0.0166894 -1.38774e-21)
(1.02443 -0.0216503 1.90829e-23)
(1.03076 -0.0249122 0)
(1.03838 -0.0284293 0)
(1.04765 -0.0297105 -2.06032e-22)
(1.05515 -0.0316918 2.05986e-22)
(1.06317 -0.0307498 0)
(1.06892 -0.030666 -4.43323e-22)
(1.07396 -0.0278053 4.54115e-22)
(1.07641 -0.026077 2.55051e-22)
(1.07862 -0.0225948 -2.49083e-22)
(1.07857 -0.0208045 2.40764e-22)
(1.07846 -0.0166285 -2.53885e-22)
(1.07439 -0.0138355 -3.715e-24)
(1.07121 -0.0110157 0)
(1.06499 -0.00740637 -3.49413e-24)
(1.06006 -0.00551728 -1.25757e-22)
(1.05377 -0.00155725 1.29374e-22)
(1.04909 -1.86022e-06 -5.53311e-24)
(1.04243 0.00292678 0)
(1.03903 0.00437961 0)
(1.03339 0.00573557 4.98641e-22)
(1.03052 0.00650564 -4.78664e-22)
(1.02409 0.00717883 1.83029e-23)
(0.992501 -0.000179048 -6.6962e-21)
(0.992765 -0.000703579 -2.204e-22)
(0.992851 -0.000893031 2.24004e-22)
(0.993156 -0.00106151 2.28472e-22)
(0.993912 -0.0014412 0)
(0.995093 -0.00196983 0)
(0.996032 -0.00254146 0)
(0.99715 -0.00340642 3.48982e-21)
(0.999328 -0.00368459 -7.646e-21)
(1.00386 -0.00171564 3.46998e-21)
(1.00899 0.000757097 0)
(1.01319 0.0013322 3.35267e-21)
(1.01835 0.000391944 -3.47075e-21)
(1.02424 -0.00302588 -1.59247e-21)
(1.03109 -0.00865724 1.59484e-21)
(1.03806 -0.0152574 4.56616e-23)
(1.04553 -0.0181928 -4.23642e-23)
(1.05249 -0.0169051 0)
(1.05777 -0.0121533 1.75521e-23)
(1.062 -0.00651319 0)
(1.06557 -0.000245505 -3.41086e-24)
(1.06745 0.00419497 -1.15858e-23)
(1.0696 0.00857718 0)
(1.07074 0.0126693 4.06388e-22)
(1.07208 0.0158909 -4.02491e-22)
(1.07224 0.0192938 1.80902e-22)
(1.07155 0.0225059 -2.09447e-22)
(1.06786 0.0254966 -1.63138e-22)
(1.06475 0.02626 1.6549e-22)
(1.06059 0.0274676 2.11693e-25)
(1.05641 0.0276772 5.34823e-24)
(1.05197 0.0267853 -5.32364e-24)
(1.04582 0.0263222 1.22784e-22)
(1.04092 0.0227209 -2.79338e-22)
(1.03519 0.0217521 1.56416e-22)
(1.02862 0.0173371 0)
(1.02372 0.0150741 1.3471e-23)
(1.01736 0.0104863 -1.53105e-23)
(1.01369 0.0097628 -1.77325e-23)
(1.0076 0.00517639 5.9908e-22)
(0.992458 -0.000388238 -1.93082e-22)
(0.99284 -0.0010222 -1.43997e-20)
(0.992958 -0.00124616 1.47902e-22)
(0.993268 -0.00145509 7.25154e-21)
(0.994018 -0.00189631 0)
(0.99538 -0.00256328 2.40371e-22)
(0.996402 -0.00317433 2.40847e-22)
(0.997531 -0.00416764 0)
(0.999802 -0.00497076 4.03314e-21)
(1.00442 -0.00390173 -3.33295e-21)
(1.01016 -0.000820792 0)
(1.01513 0.0010023 2.26314e-22)
(1.02092 -0.00189441 -1.71108e-21)
(1.02752 -0.00801468 1.71435e-21)
(1.03341 -0.013033 0)
(1.03654 -0.017276 1.40017e-21)
(1.03784 -0.0197377 -1.44767e-21)
(1.03847 -0.0223594 0)
(1.04061 -0.0237148 -3.13504e-22)
(1.04453 -0.0265958 2.77536e-22)
(1.05052 -0.0272217 7.0082e-24)
(1.05705 -0.0288808 2.38041e-23)
(1.0636 -0.027973 -1.95478e-23)
(1.06914 -0.0282842 -4.86058e-22)
(1.07389 -0.025685 4.81941e-22)
(1.07641 -0.0238333 1.74054e-23)
(1.07825 -0.0201048 1.97586e-22)
(1.07876 -0.0181296 -2.13157e-22)
(1.07933 -0.0138843 -1.73749e-22)
(1.07619 -0.0102433 1.76967e-22)
(1.07339 -0.0067525 -5.49046e-24)
(1.06721 -0.0032847 1.53762e-24)
(1.06283 -0.000307233 0)
(1.0563 0.00269432 -6.33139e-24)
(1.05163 0.00529486 -1.43522e-22)
(1.04495 0.00819186 -1.91275e-22)
(1.04149 0.00977575 -7.28732e-23)
(1.03554 0.0108015 4.06156e-22)
(1.0325 0.0112349 -5.63254e-22)
(1.02587 0.0110169 5.72992e-22)
(0.992349 -0.000724725 7.43941e-21)
(0.992726 -0.00145772 3.10317e-22)
(0.992862 -0.00169231 -1.51022e-20)
(0.993235 -0.00200138 7.48317e-21)
(0.994293 -0.00262062 0)
(0.995647 -0.00307736 -2.46826e-22)
(0.996574 -0.00384739 -3.95378e-21)
(0.998166 -0.00567206 8.15813e-21)
(1.00083 -0.00652546 -7.60361e-21)
(1.00552 -0.00468613 3.67083e-21)
(1.0104 -0.00228045 0)
(1.01588 -0.00289537 3.54435e-21)
(1.02189 -0.00602853 -3.55637e-21)
(1.02683 -0.010554 -1.57168e-21)
(1.03241 -0.014603 1.6825e-21)
(1.0387 -0.0194323 0)
(1.04619 -0.0217772 1.49178e-25)
(1.05419 -0.0221236 0)
(1.06152 -0.0192159 3.69094e-23)
(1.06628 -0.015837 -8.16463e-24)
(1.07072 -0.0103106 -3.6025e-24)
(1.07346 -0.00584919 -1.22357e-23)
(1.07638 -0.000723138 2.00903e-23)
(1.07753 0.00438941 -4.25834e-22)
(1.07851 0.00888835 4.33527e-22)
(1.07878 0.013629 1.95012e-22)
(1.07858 0.0181516 -1.94708e-22)
(1.07523 0.0231238 -1.15256e-22)
(1.0709 0.0253457 1.86733e-22)
(1.06579 0.027457 -1.08511e-22)
(1.06197 0.0288 5.08057e-23)
(1.05713 0.0288475 4.03335e-24)
(1.0517 0.0295405 0)
(1.04668 0.0268422 6.50176e-24)
(1.04071 0.0261298 0)
(1.03446 0.0221187 0)
(1.02933 0.0200291 0)
(1.02275 0.0151369 5.74449e-22)
(1.01925 0.0141749 -6.03781e-22)
(1.01239 0.00982187 -3.74724e-23)
(0.992323 -0.00103436 -7.19089e-21)
(0.992865 -0.00177046 3.72547e-24)
(0.993064 -0.00217197 -8.47033e-21)
(0.993573 -0.00274552 8.2617e-21)
(0.994597 -0.00325688 -5.10566e-22)
(0.995886 -0.00383232 -4.34308e-21)
(0.997177 -0.00506942 3.59014e-21)
(0.998605 -0.00684991 -2.5478e-22)
(1.00118 -0.00769384 -4.28094e-21)
(1.00568 -0.00666733 8.00954e-21)
(1.01096 -0.00493843 -4.22733e-21)
(1.0164 -0.0051949 0)
(1.02237 -0.00831844 -3.47686e-22)
(1.028 -0.0139132 -1.10823e-22)
(1.03404 -0.0188018 1.05198e-22)
(1.04002 -0.0231335 1.42355e-21)
(1.04553 -0.0247178 -1.4783e-21)
(1.04939 -0.025956 0)
(1.05261 -0.0248588 -3.78079e-23)
(1.05536 -0.0260319 -2.03835e-27)
(1.05813 -0.0255722 0)
(1.0621 -0.0266611 1.24496e-23)
(1.06649 -0.0252099 2.04197e-23)
(1.07148 -0.0252226 1.61442e-23)
(1.07535 -0.0228174 -2.44604e-23)
(1.07773 -0.0211631 0)
(1.07893 -0.017236 0)
(1.07987 -0.0148499 2.71233e-22)
(1.08068 -0.0106197 -2.62605e-22)
(1.07886 -0.00669923 -2.61089e-24)
(1.07641 -0.00251761 0)
(1.07054 0.00116196 -3.96856e-23)
(1.06621 0.00457045 9.39712e-23)
(1.05956 0.00723204 -1.33354e-22)
(1.05473 0.0104571 7.84862e-23)
(1.04789 0.0131496 -1.56818e-23)
(1.04437 0.0150196 -3.14894e-22)
(1.0381 0.0161079 3.35182e-22)
(1.03484 0.0166663 5.63404e-22)
(1.02817 0.0157239 -1.14454e-21)
(0.992159 -0.00152758 -7.9868e-21)
(0.99284 -0.00234813 1.51974e-20)
(0.993003 -0.00296382 8.2643e-23)
(0.993428 -0.00363032 -8.81251e-21)
(0.994723 -0.00417905 5.2457e-22)
(0.995814 -0.0047078 2.63896e-22)
(0.997282 -0.00599022 2.63981e-22)
(0.999001 -0.008237 4.19821e-21)
(1.00147 -0.0095652 -5.21172e-23)
(1.00593 -0.00841863 -4.16831e-21)
(1.01143 -0.00695438 -3.75647e-21)
(1.01681 -0.00858103 3.80567e-22)
(1.02284 -0.0124229 6.00391e-21)
(1.0283 -0.0175761 -3.64974e-21)
(1.03323 -0.0216709 1.67364e-21)
(1.03864 -0.0258802 2.0336e-22)
(1.04542 -0.0273642 0)
(1.05285 -0.0276439 -6.54176e-22)
(1.06117 -0.025092 9.65405e-22)
(1.06792 -0.0224779 -2.83113e-22)
(1.07329 -0.0179099 0)
(1.07694 -0.0139965 -3.73397e-22)
(1.08067 -0.00947562 3.39408e-22)
(1.08335 -0.00403786 -4.29241e-22)
(1.08476 0.00164389 4.04636e-22)
(1.08522 0.00716399 1.7273e-22)
(1.08533 0.0125722 -3.03659e-22)
(1.08348 0.0189564 1.14357e-23)
(1.07925 0.0235086 8.31685e-23)
(1.07357 0.0264756 3.82447e-24)
(1.06874 0.0291092 0)
(1.06327 0.0302106 -1.70643e-24)
(1.0586 0.0320231 0)
(1.0528 0.0308345 5.26788e-23)
(1.04668 0.0306966 -5.8918e-23)
(1.04051 0.027215 -3.36132e-22)
(1.03513 0.0256094 3.16179e-22)
(1.0281 0.0208062 0)
(1.02466 0.0196519 -5.81139e-22)
(1.01739 0.0154111 6.04697e-22)
(0.992236 -0.00197377 -8.78361e-21)
(0.992928 -0.00293724 5.22735e-22)
(0.993178 -0.00364351 -8.56535e-21)
(0.993626 -0.00451977 9.68658e-21)
(0.994664 -0.00496838 0)
(0.996216 -0.00546219 0)
(0.997848 -0.00747125 0)
(0.999229 -0.00993346 0)
(1.00156 -0.0109796 -4.30284e-21)
(1.0061 -0.0105169 4.31731e-21)
(1.01223 -0.00985197 0)
(1.01776 -0.0117764 -2.55679e-22)
(1.02351 -0.0155189 -2.17338e-21)
(1.02826 -0.0203816 1.93081e-21)
(1.03363 -0.0246306 0)
(1.03926 -0.0290308 1.50669e-21)
(1.04606 -0.0304352 -1.71036e-21)
(1.05259 -0.0314284 0)
(1.05837 -0.0290989 -1.99093e-23)
(1.06322 -0.0281762 0)
(1.06682 -0.0259046 0)
(1.07016 -0.0258206 1.29709e-23)
(1.07294 -0.0238149 2.11761e-23)
(1.07634 -0.023076 3.3107e-23)
(1.07927 -0.020125 4.94273e-23)
(1.08162 -0.0183452 3.00153e-22)
(1.08186 -0.0144816 -2.5397e-22)
(1.08241 -0.0116603 2.4014e-22)
(1.08263 -0.00707456 -2.28478e-22)
(1.08195 -0.00287254 -1.17189e-24)
(1.08011 0.00209017 0)
(1.07484 0.00561276 2.11217e-24)
(1.07073 0.00964837 0)
(1.06391 0.0122943 0)
(1.0589 0.0157731 6.63948e-24)
(1.05182 0.0180762 1.76141e-22)
(1.04797 0.0203912 -3.93561e-22)
(1.04124 0.0216531 5.63011e-22)
(1.03756 0.0227102 1.14577e-22)
(1.03105 0.0210955 -4.83033e-22)
(0.991877 -0.00261731 1.17783e-24)
(0.992602 -0.00368539 1.74759e-20)
(0.992857 -0.00470479 -1.77134e-20)
(0.99332 -0.00545448 -6.24362e-22)
(0.99447 -0.00609878 1.35845e-20)
(0.996303 -0.00704517 -4.55546e-21)
(0.997791 -0.00882449 0)
(0.999151 -0.0112916 -4.50842e-21)
(1.00198 -0.0128623 6.23534e-23)
(1.00645 -0.0132439 4.47846e-21)
(1.01243 -0.01304 -2.7324e-22)
(1.01859 -0.0152016 2.65637e-22)
(1.02425 -0.0187019 5.09983e-22)
(1.02898 -0.0239586 0)
(1.03346 -0.0281236 0)
(1.03781 -0.0327327 0)
(1.04407 -0.0341313 9.51745e-26)
(1.05083 -0.0344025 0)
(1.05903 -0.0318075 6.1407e-23)
(1.06695 -0.0288867 -9.02525e-24)
(1.07441 -0.0246598 7.80182e-24)
(1.07964 -0.0207437 -1.33748e-23)
(1.08427 -0.0164552 -2.1836e-23)
(1.08786 -0.0116402 -4.8048e-22)
(1.09032 -0.00558791 4.20557e-22)
(1.09149 0.000687845 1.62852e-22)
(1.09205 0.00666078 -1.61223e-22)
(1.09139 0.0135852 -3.23013e-24)
(1.08831 0.0201236 7.01154e-23)
(1.08299 0.024863 -6.48623e-23)
(1.07753 0.0286392 0)
(1.07128 0.0309525 0)
(1.06649 0.0336504 -7.65962e-23)
(1.06001 0.0340739 4.53621e-23)
(1.05429 0.0353764 3.45123e-23)
(1.04745 0.0325651 -1.61967e-22)
(1.04172 0.0317404 -1.83628e-22)
(1.03408 0.0272147 3.54567e-22)
(1.03025 0.0263394 5.1987e-22)
(1.02254 0.0214507 -5.12162e-22)
(0.991903 -0.00331091 0)
(0.992711 -0.00458407 5.71076e-22)
(0.993019 -0.00562206 -5.79104e-22)
(0.993587 -0.00649905 0)
(0.994748 -0.0071124 0)
(0.996409 -0.00809645 0)
(0.998098 -0.0104223 -5.94462e-22)
(0.999853 -0.0133911 -5.92051e-22)
(1.00268 -0.0151036 4.63349e-21)
(1.00725 -0.015853 -4.93937e-21)
(1.01299 -0.0161793 2.81893e-22)
(1.01849 -0.0187734 4.0307e-21)
(1.02418 -0.022462 -6.64212e-21)
(1.02873 -0.0272135 2.06703e-21)
(1.03297 -0.0306561 -1.19421e-22)
(1.03759 -0.0350844 1.60273e-21)
(1.04319 -0.0366544 -1.61377e-21)
(1.0504 -0.0379588 0)
(1.05808 -0.0355653 -4.21926e-23)
(1.06536 -0.033536 9.32471e-24)
(1.07209 -0.0296401 -8.0601e-24)
(1.07753 -0.0275797 0)
(1.08114 -0.0243336 0)
(1.08422 -0.0225374 0)
(1.08626 -0.0187251 0)
(1.08846 -0.0162712 2.35263e-22)
(1.08829 -0.0120314 -3.97072e-22)
(1.08785 -0.00902521 2.73277e-22)
(1.087 -0.00384074 -1.39773e-22)
(1.08626 0.000164338 7.92795e-23)
(1.08488 0.0064859 -7.01541e-23)
(1.0803 0.0102905 1.59087e-22)
(1.07641 0.0148664 -1.75532e-22)
(1.06949 0.0177118 -2.18769e-23)
(1.06447 0.0213895 0)
(1.05697 0.0236782 1.25508e-23)
(1.05265 0.0264697 -9.20758e-23)
(1.04557 0.0273548 9.87625e-23)
(1.04119 0.0294501 3.26375e-22)
(1.0346 0.0273268 -8.09823e-22)
(0.991336 -0.00413999 -9.96302e-21)
(0.991989 -0.00565543 8.92621e-21)
(0.99247 -0.00685051 -8.97006e-21)
(0.993174 -0.00781293 -9.76257e-21)
(0.994526 -0.00831546 9.81177e-21)
(0.996121 -0.00994336 6.20161e-22)
(0.997911 -0.0126727 6.13555e-22)
(0.999828 -0.0154129 -5.84735e-24)
(1.00305 -0.0172388 -4.82065e-21)
(1.00732 -0.0187026 5.1378e-21)
(1.01251 -0.0196802 0)
(1.01835 -0.0224738 0)
(1.02413 -0.0255579 0)
(1.02835 -0.0301296 -2.29286e-21)
(1.03303 -0.0336487 2.15872e-21)
(1.03662 -0.0385124 2.30727e-22)
(1.04199 -0.040704 0)
(1.04815 -0.0418695 0)
(1.05586 -0.0398233 0)
(1.06418 -0.0370001 0)
(1.07315 -0.0325305 8.17071e-24)
(1.08063 -0.0280323 0)
(1.08701 -0.0228435 0)
(1.09207 -0.0182691 -4.90267e-22)
(1.09585 -0.0122226 1.32098e-22)
(1.09812 -0.00572823 3.00313e-22)
(1.09924 0.00114027 0)
(1.09905 0.00805618 -9.30166e-23)
(1.0976 0.0154213 -1.17584e-22)
(1.09285 0.022003 2.08599e-22)
(1.08845 0.0273472 -1.36418e-23)
(1.08115 0.0309956 0)
(1.07586 0.0348615 -2.53584e-22)
(1.06881 0.036358 1.07124e-22)
(1.06279 0.0394645 2.00473e-22)
(1.05581 0.0379296 -1.6975e-23)
(1.0496 0.0385387 7.29338e-24)
(1.04137 0.0340788 2.58475e-22)
(1.03648 0.034112 -2.4757e-22)
(1.02844 0.0285138 0)
(0.991491 -0.0051918 -9.79699e-21)
(0.992041 -0.00670342 9.31758e-21)
(0.992695 -0.00813525 7.95223e-23)
(0.993546 -0.0091271 -2.03233e-20)
(0.995109 -0.00988143 1.02466e-20)
(0.997008 -0.0118057 -6.40703e-22)
(0.998513 -0.0147011 0)
(1.0006 -0.01772 -6.88171e-24)
(1.0039 -0.0197849 -4.39092e-21)
(1.00789 -0.0219296 5.36209e-21)
(1.01311 -0.0230588 0)
(1.01817 -0.0260346 0)
(1.02359 -0.0291785 2.50832e-21)
(1.02857 -0.0338301 -1.68537e-21)
(1.03306 -0.036848 0)
(1.03732 -0.0411703 1.7137e-21)
(1.04148 -0.0431115 -1.83593e-21)
(1.04697 -0.0451525 0)
(1.05469 -0.0434623 0)
(1.06318 -0.0415216 -9.73178e-24)
(1.07207 -0.0369525 -8.45335e-24)
(1.08048 -0.0333077 0)
(1.08703 -0.0281247 0)
(1.09242 -0.0247729 3.4573e-23)
(1.09537 -0.0194501 2.41077e-23)
(1.09787 -0.0160597 0)
(1.09823 -0.0104304 7.66193e-23)
(1.09726 -0.00708191 -7.28538e-23)
(1.0953 -0.00106584 0)
(1.09268 0.00298794 0)
(1.09148 0.0099867 0)
(1.08719 0.0149233 0)
(1.08368 0.0203107 0)
(1.07658 0.023425 -3.18798e-22)
(1.07167 0.027482 2.82798e-22)
(1.06364 0.0295783 1.75329e-23)
(1.05852 0.0335661 -1.96558e-22)
(1.0515 0.0337141 1.76656e-22)
(1.04629 0.0369783 0)
(1.03919 0.0343892 -1.19487e-23)
(0.990726 -0.00611054 6.35133e-22)
(0.991312 -0.00813361 1.10457e-20)
(0.992001 -0.00964031 -1.04634e-20)
(0.992642 -0.0107187 -9.9979e-21)
(0.994323 -0.0116353 1.60966e-20)
(0.996374 -0.013856 -4.72003e-21)
(0.997964 -0.0171286 -4.68634e-21)
(1.00007 -0.020409 1.13821e-20)
(1.00358 -0.0226141 -7.54166e-22)
(1.00762 -0.0249459 -5.60043e-21)
(1.01227 -0.0264564 0)
(1.01707 -0.0299041 0)
(1.02301 -0.0328505 -2.95978e-22)
(1.02784 -0.0374193 -2.47311e-21)
(1.03334 -0.0397995 2.19638e-21)
(1.03771 -0.0438858 1.89794e-21)
(1.04214 -0.0461075 -1.901e-21)
(1.04739 -0.0486169 0)
(1.05362 -0.0481006 0)
(1.06125 -0.0465873 1.00805e-23)
(1.07032 -0.0422461 8.52209e-24)
(1.07984 -0.0378482 0)
(1.08868 -0.0312745 0)
(1.09589 -0.0257008 -4.56148e-22)
(1.1016 -0.0188919 4.55153e-22)
(1.10506 -0.0124598 1.27801e-22)
(1.10759 -0.00430777 -1.27477e-22)
(1.10748 0.00292357 -1.1246e-23)
(1.10742 0.0111263 3.87911e-22)
(1.10351 0.0179407 -3.86687e-22)
(1.09969 0.0256547 0)
(1.09336 0.0299376 0)
(1.08703 0.0360414 -4.9105e-22)
(1.0799 0.0381247 -1.14894e-23)
(1.07295 0.0429384 8.45519e-22)
(1.06555 0.0425684 -4.00215e-22)
(1.05906 0.0454779 3.43381e-22)
(1.05061 0.0414779 -3.58249e-22)
(1.04437 0.0429163 1.70799e-22)
(1.03611 0.0369974 -9.59542e-23)
(0.990861 -0.00777033 0)
(0.991755 -0.00966196 1.02284e-20)
(0.99214 -0.0111146 -2.27352e-20)
(0.992884 -0.0126065 1.04332e-20)
(0.994595 -0.0141064 -7.10237e-22)
(0.997258 -0.0166487 -6.34722e-21)
(0.999052 -0.0197639 4.25831e-21)
(1.00072 -0.0233572 0)
(1.00437 -0.0252728 -4.80434e-21)
(1.00773 -0.0281239 4.84026e-21)
(1.01236 -0.0301856 0)
(1.01722 -0.0338048 5.06004e-21)
(1.02246 -0.0367695 -5.07634e-21)
(1.02785 -0.0412754 0)
(1.03336 -0.0435124 -1.85607e-21)
(1.0389 -0.0473708 2.13781e-21)
(1.04394 -0.0490169 1.17586e-22)
(1.04846 -0.0519011 0)
(1.05388 -0.0514229 -4.68172e-23)
(1.06117 -0.0507848 0)
(1.06896 -0.0468512 -1.55963e-25)
(1.07893 -0.043225 2.8618e-23)
(1.08782 -0.0363207 4.50862e-23)
(1.09688 -0.0312702 0)
(1.10292 -0.0235468 0)
(1.1069 -0.018613 1.13531e-22)
(1.10891 -0.011104 -9.66202e-23)
(1.10867 -0.00659769 2.32762e-22)
(1.10761 0.000719384 -6.58092e-22)
(1.10362 0.00538024 3.90424e-22)
(1.10132 0.0125173 0)
(1.09682 0.0179161 0)
(1.09323 0.0253212 0)
(1.08641 0.0291083 6.78853e-23)
(1.08077 0.0343874 -1.37414e-22)
(1.0729 0.0357509 4.77992e-23)
(1.06644 0.0409516 5.10928e-22)
(1.05922 0.040821 -6.34024e-22)
(1.05358 0.0453228 2.42329e-23)
(1.04559 0.0427343 7.11482e-23)
(0.989672 -0.0089932 -1.20807e-20)
(0.990766 -0.0110205 7.09203e-22)
(0.990906 -0.0126568 1.16244e-20)
(0.991676 -0.0146247 -2.27388e-20)
(0.993187 -0.0165182 1.85087e-20)
(0.995585 -0.0191452 -5.96267e-21)
(0.997938 -0.022237 1.48818e-21)
(0.999744 -0.0258775 5.86812e-21)
(1.00282 -0.0282117 -1.24059e-20)
(1.00657 -0.0316992 1.21822e-20)
(1.01167 -0.0338706 -5.68211e-21)
(1.01602 -0.0379793 -5.29545e-21)
(1.0216 -0.040615 4.98738e-21)
(1.02659 -0.0454906 0)
(1.03256 -0.0477135 -2.87773e-22)
(1.03909 -0.0510305 2.04271e-21)
(1.04481 -0.0522131 -2.16827e-21)
(1.05062 -0.0546879 8.25082e-22)
(1.05567 -0.0547616 -7.28969e-22)
(1.0618 -0.0552207 1.04359e-23)
(1.06827 -0.0520134 -2.69568e-22)
(1.07705 -0.0493205 6.50214e-22)
(1.08556 -0.0428899 -4.2093e-22)
(1.09549 -0.0367544 -4.34144e-22)
(1.10384 -0.0277264 4.33351e-22)
(1.11053 -0.0207241 6.65638e-23)
(1.11503 -0.0109876 -7.12439e-23)
(1.11647 -0.00323659 2.22719e-23)
(1.11744 0.00673496 2.7943e-23)
(1.11532 0.0137766 7.73407e-22)
(1.11191 0.023401 -8.78811e-22)
(1.10664 0.0283971 0)
(1.1003 0.0364564 1.16816e-22)
(1.09306 0.0396425 -7.84922e-22)
(1.08585 0.0464355 1.45466e-21)
(1.0777 0.0466486 -6.9313e-22)
(1.07052 0.0519464 9.56636e-22)
(1.06168 0.0490674 -2.97959e-22)
(1.05476 0.0521091 -1.01045e-21)
(1.04565 0.047251 3.3869e-22)
(0.989463 -0.0110833 1.4885e-21)
(0.991022 -0.0132814 1.21044e-20)
(0.991372 -0.0151076 -1.06561e-20)
(0.992254 -0.0175269 -1.55005e-21)
(0.993388 -0.0195804 0)
(0.995209 -0.0227579 0)
(0.998542 -0.0255105 -7.78512e-22)
(1.00053 -0.0292986 0)
(1.00348 -0.0317568 6.09015e-21)
(1.00685 -0.0354291 -1.13071e-20)
(1.0116 -0.0379764 5.9751e-21)
(1.01622 -0.0422824 3.56976e-22)
(1.02137 -0.0447771 -2.8699e-24)
(1.02689 -0.0497407 3.22671e-22)
(1.03279 -0.0519453 0)
(1.039 -0.0557031 0)
(1.04569 -0.0562108 -1.26282e-22)
(1.05291 -0.0584152 1.1305e-22)
(1.0579 -0.0582995 -5.00922e-23)
(1.06451 -0.0589254 -1.08549e-23)
(1.06941 -0.0560693 0)
(1.07758 -0.054317 0)
(1.08475 -0.0477287 -9.16526e-23)
(1.09469 -0.0429494 -3.82025e-22)
(1.10313 -0.0332599 4.30571e-22)
(1.11164 -0.0264976 0)
(1.11706 -0.0159082 5.05904e-24)
(1.12026 -0.00960042 -2.31644e-23)
(1.12096 5.53658e-05 -7.38607e-22)
(1.11895 0.0058546 6.76799e-22)
(1.11574 0.0150419 1.12653e-22)
(1.11101 0.0200024 0)
(1.10574 0.0292153 -1.2133e-22)
(1.09929 0.033373 -1.4405e-22)
(1.09294 0.0414034 1.07826e-22)
(1.08514 0.0426989 1.57364e-21)
(1.07777 0.0489257 -2.48946e-22)
(1.0692 0.0484438 -1.24528e-21)
(1.06336 0.0541032 -6.91364e-23)
(1.05403 0.0522261 3.03985e-23)
(0.987589 -0.0126147 -1.34867e-20)
(0.989225 -0.0150955 1.28054e-20)
(0.990032 -0.016984 -2.66808e-20)
(0.990669 -0.0195488 2.7859e-20)
(0.991552 -0.02214 -1.3229e-20)
(0.992815 -0.0256579 -6.63332e-21)
(0.995966 -0.0283699 6.67279e-21)
(0.998624 -0.032374 6.53326e-21)
(1.00164 -0.0344802 -1.2177e-20)
(1.0045 -0.0390844 1.27498e-20)
(1.0096 -0.0419375 -6.30358e-21)
(1.01446 -0.0469624 -3.71567e-22)
(1.02014 -0.0493588 -2.05858e-21)
(1.02622 -0.0541689 -1.5575e-22)
(1.03188 -0.0566376 2.92319e-21)
(1.03886 -0.0602943 2.34919e-21)
(1.04508 -0.0609694 -2.07727e-21)
(1.0532 -0.0629527 -9.5545e-25)
(1.05988 -0.0616777 5.09374e-23)
(1.06745 -0.0624992 0)
(1.07251 -0.0597414 -9.0803e-24)
(1.0798 -0.0587799 0)
(1.0856 -0.0535079 4.66599e-23)
(1.09416 -0.0499766 -2.43139e-24)
(1.1022 -0.040547 1.40064e-22)
(1.11114 -0.0336974 -1.74405e-22)
(1.11827 -0.0220099 -2.06625e-22)
(1.12441 -0.0132382 -5.62743e-22)
(1.12749 -0.000462579 7.84389e-22)
(1.12862 0.00781928 6.10596e-23)
(1.12669 0.0202105 0)
(1.12318 0.0265315 1.36684e-21)
(1.11704 0.0370626 -1.35984e-21)
(1.10977 0.0405138 1.4981e-22)
(1.10217 0.0495717 0)
(1.09295 0.0509322 0)
(1.08565 0.0582037 0)
(1.07521 0.0571977 0)
(1.06837 0.0614476 1.36186e-21)
(1.05768 0.0585877 -2.09721e-21)
(0.987392 -0.0153876 1.33737e-20)
(0.988976 -0.0185137 -8.14105e-22)
(0.990213 -0.0204052 -2.747e-20)
(0.990789 -0.0232608 -9.43201e-22)
(0.992036 -0.0257566 1.40569e-20)
(0.992705 -0.029536 0)
(0.995621 -0.0323189 0)
(0.998521 -0.0363881 0)
(1.0021 -0.0387212 5.95434e-21)
(1.00542 -0.0437239 -7.68207e-21)
(1.00996 -0.0469268 4.12151e-22)
(1.01519 -0.0524273 -6.13769e-21)
(1.02043 -0.054406 5.78706e-21)
(1.02645 -0.0591838 -3.55339e-22)
(1.03228 -0.0612145 1.07967e-24)
(1.03971 -0.0652736 -2.92676e-25)
(1.04527 -0.0659282 0)
(1.05411 -0.0679969 -2.42487e-22)
(1.06084 -0.0666532 -5.31592e-23)
(1.07009 -0.0675063 -1.10936e-23)
(1.07598 -0.0637774 2.87646e-22)
(1.08363 -0.0636617 -2.98008e-22)
(1.08869 -0.0578908 4.34009e-23)
(1.0966 -0.055262 -3.14854e-23)
(1.10283 -0.0466049 3.03631e-23)
(1.1122 -0.0406787 -8.97579e-23)
(1.11899 -0.0281919 9.10584e-23)
(1.1268 -0.0201752 9.08324e-22)
(1.13085 -0.00651691 1.48863e-22)
(1.1339 0.000924659 -1.19233e-21)
(1.13292 0.0142243 0)
(1.13021 0.0201724 -2.22557e-22)
(1.12529 0.032346 0)
(1.11887 0.0365816 -1.39904e-21)
(1.11144 0.0471201 3.15736e-21)
(1.10232 0.0496083 -4.33198e-21)
(1.09503 0.0575498 5.45157e-21)
(1.08386 0.0576352 -2.62547e-21)
(1.07787 0.0637674 1.69889e-21)
(1.06652 0.0632124 -1.74195e-21)
(0.985137 -0.0171001 -9.04311e-22)
(0.986274 -0.0206385 1.62819e-20)
(0.987345 -0.022785 -1.45866e-20)
(0.987824 -0.0259257 9.40205e-22)
(0.989421 -0.0282391 0)
(0.990357 -0.0324511 -9.53938e-22)
(0.992791 -0.035052 0)
(0.995364 -0.0403046 8.30162e-21)
(0.999204 -0.0427504 -1.09789e-21)
(1.0031 -0.0480467 -6.36607e-21)
(1.00761 -0.0512805 -4.30416e-22)
(1.01298 -0.0570694 -4.1776e-22)
(1.01754 -0.0595176 0)
(1.02478 -0.0642338 -2.493e-21)
(1.03066 -0.0661549 2.52894e-21)
(1.03942 -0.0706723 2.22645e-21)
(1.04564 -0.0708906 -2.52931e-21)
(1.05424 -0.0738801 1.26095e-22)
(1.061 -0.0720389 -3.46607e-22)
(1.07089 -0.0731484 4.12131e-22)
(1.07795 -0.068719 -9.59472e-24)
(1.087 -0.0682029 5.93986e-23)
(1.09315 -0.0620732 -4.53818e-23)
(1.10058 -0.0600898 2.65171e-23)
(1.10645 -0.0520246 -1.42687e-23)
(1.1141 -0.0478066 -1.64981e-22)
(1.12031 -0.0366755 1.91561e-22)
(1.12764 -0.0295094 1.11646e-21)
(1.13324 -0.0145704 -1.13427e-21)
(1.13834 -0.00470169 -1.08969e-22)
(1.14076 0.0114799 0)
(1.13996 0.0206661 2.31405e-21)
(1.13782 0.0350989 -1.7833e-21)
(1.131 0.0411351 -2.05582e-21)
(1.12518 0.0524289 1.80682e-21)
(1.11388 0.0557674 0)
(1.107 0.0640608 3.16203e-21)
(1.09426 0.066048 -3.1603e-21)
(1.08761 0.0715306 0)
(1.07462 0.0713119 -1.27086e-22)
(0.985145 -0.0208186 7.72354e-22)
(0.986195 -0.024893 -1.63997e-20)
(0.987083 -0.0271359 1.57175e-20)
(0.987271 -0.0305186 -3.27459e-20)
(0.988839 -0.0327875 2.5085e-20)
(0.990462 -0.0370178 -7.08385e-21)
(0.992967 -0.0396587 0)
(0.995831 -0.045467 -9.82482e-22)
(0.999098 -0.0483772 -6.73003e-21)
(1.00352 -0.0540278 6.79596e-21)
(1.00808 -0.0567565 4.64327e-22)
(1.01436 -0.063079 -6.84439e-21)
(1.01869 -0.0656018 9.67947e-21)
(1.02613 -0.0708042 -3.24151e-21)
(1.03175 -0.0724054 0)
(1.04131 -0.0768772 0)
(1.0473 -0.0766892 1.47245e-22)
(1.05618 -0.0798471 -8.33697e-22)
(1.06263 -0.0773215 1.25952e-21)
(1.07216 -0.0794689 -4.0831e-22)
(1.07934 -0.074481 2.78218e-22)
(1.08926 -0.0740387 -2.70747e-22)
(1.09652 -0.0679285 -4.06733e-23)
(1.10564 -0.0662524 -3.12115e-22)
(1.11153 -0.0575784 2.8373e-22)
(1.11936 -0.0542922 -2.35728e-22)
(1.12474 -0.0428234 -2.79888e-22)
(1.13168 -0.0369411 -8.45564e-22)
(1.13678 -0.022028 1.56925e-21)
(1.14193 -0.0138041 2.43015e-22)
(1.14539 0.00348078 -2.98138e-22)
(1.14649 0.0126515 3.29951e-22)
(1.14591 0.0292114 -2.9959e-22)
(1.14123 0.0369862 -2.92176e-21)
(1.13704 0.0505021 5.44243e-21)
(1.12648 0.055915 -2.52674e-21)
(1.12012 0.0658887 0)
(1.10616 0.0682451 0)
(1.09992 0.0749338 0)
(1.08527 0.0770587 -3.29515e-21)
(0.981592 -0.0228614 0)
(0.982834 -0.0273326 1.66316e-20)
(0.983611 -0.0296757 -1.78401e-20)
(0.983517 -0.0336364 1.71152e-20)
(0.984884 -0.0358335 -1.93932e-20)
(0.986667 -0.0408358 -1.09756e-21)
(0.989346 -0.0434243 1.09277e-21)
(0.992855 -0.0494947 0)
(0.995715 -0.0529983 8.21949e-21)
(1.00068 -0.0589584 -8.26783e-21)
(1.00415 -0.0620942 -4.862e-22)
(1.01176 -0.0687107 7.69656e-21)
(1.01637 -0.0712288 -6.83834e-21)
(1.02422 -0.0769211 -2.75062e-21)