/*--------------------------------*- C++ -*----------------------------------*\
  =========                 |
  \\      /  F ield         | OpenFOAM: The Open Source CFD Toolbox
   \\    /   O peration     | Website:  https://openfoam.org
    \\  /    A nd           | Version:  10
     \\/     M anipulation  |
\*---------------------------------------------------------------------------*/
FoamFile
{
    format      ascii;
    class       surfaceScalarField;
    location    "0.050274";
    object      phi;
}
// * * * * * * * * * * * * * * * * * * * * * * * * * * * * * * * * * * * * * //

dimensions      [1 0 -1 0 0 0 0];

internalField   nonuniform List<scalar> 
32368
(
-6.61151e-05
-2.14044e-05
-5.73918e-05
-1.32447e-05
-5.48197e-05
-6.18348e-06
-7.04136e-05
-2.29609e-06
-0.000101796
-3.56919e-06
-0.00012431
7.91786e-06
-0.000123722
2.92842e-05
-0.000107983
5.86483e-05
-6.88079e-05
9.312e-05
-4.00447e-06
0.000123349
2.0949e-05
0.000122709
2.49381e-05
0.000101038
3.89421e-05
7.22835e-05
4.46904e-05
4.11805e-05
7.25403e-05
2.69427e-05
0.000101943
9.16483e-06
0.000130184
-6.42104e-06
0.00016045
-6.5569e-06
0.000193699
-5.05573e-06
0.000206678
-9.12598e-06
0.000156112
-3.90263e-05
9.21834e-05
-0.000117304
2.35153e-05
-0.000235309
-1.60843e-05
-0.000336036
-3.42559e-05
-0.000343055
-3.23682e-05
-0.000262316
-7.66444e-05
-0.000147532
-0.000118408
-5.07262e-05
-0.000153892
-3.83231e-06
-0.000149319
2.5891e-05
-0.000100187
5.613e-05
-4.30478e-05
9.07498e-05
-8.80499e-06
0.000120251
2.61359e-06
0.00014852
-1.3103e-05
0.000180556
-4.92849e-05
0.000225744
-8.45706e-05
0.000270507
-0.000126703
0.000278373
-0.000180727
0.000245285
-0.000277206
0.000207984
-0.000514135
0.000156071
-0.000639604
-2.78849e-05
-0.000514387
-0.000229399
-0.000304033
-0.000383375
-9.40059e-05
-0.00035022
-3.71018e-05
-5.82267e-05
-1.06087e-05
3.46429e-05
-1.37389e-05
6.02894e-05
-2.17053e-05
7.06949e-05
-2.84199e-05
6.67998e-05
-3.45755e-05
5.99305e-05
-4.17298e-05
5.35336e-05
-5.35634e-05
5.32979e-05
-6.75997e-05
6.45526e-05
-6.59318e-05
7.64556e-05
-4.08888e-05
6.85518e-05
2.26002e-05
2.05496e-05
0.000118938
-0.00010574
0.000220111
-0.000215571
0.000277702
-0.000316838
0.000268295
-0.000364097
0.000161858
-0.000229053
8.48129e-05
-0.000110395
7.56809e-05
-6.31301e-05
9.22277e-05
-3.70854e-05
0.000114604
-9.85424e-06
0.000161417
3.16891e-06
0.000138714
-7.09214e-06
8.71536e-05
-2.56539e-05
6.03157e-05
-4.19092e-05
5.2687e-05
-5.75428e-05
4.92599e-05
-6.68989e-05
4.44149e-05
-7.32284e-05
3.71752e-05
-8.01937e-05
4.1926e-05
-0.000102318
-1.37969e-05
-0.000296531
-8.58066e-05
-0.000460038
-0.000114015
-0.000441272
-0.000126674
-0.000433887
-0.000145884
-0.000404723
-0.00016175
-0.000371957
-0.000164702
-0.000346218
-0.000157389
-0.000323859
-0.000139497
-0.000304119
-0.000116235
-0.000279947
-8.84909e-05
-0.000248872
-5.74918e-05
-0.00021155
-2.50775e-05
-0.000172499
3.90267e-06
-0.000131788
2.66888e-05
-9.36526e-05
5.67023e-05
-8.07935e-05
8.79783e-05
-2.54902e-05
0.000106575
9.23526e-05
0.000147612
0.00018362
0.000162688
0.000271558
0.000172527
0.000307018
0.000177003
0.00030384
0.000109189
0.000284769
9.26191e-07
0.000167944
-5.49441e-05
0.000103073
-5.69078e-05
9.85296e-05
8.26056e-06
8.51907e-05
9.25775e-05
6.68845e-05
0.000175358
3.61056e-05
0.000226336
-2.7028e-05
0.000279321
-0.000230292
0.000389706
-0.000517889
0.000225744
-0.00051221
8.91723e-05
-0.000622933
4.42237e-05
-0.0008284
-3.13541e-05
-0.000728321
-8.74688e-05
-0.00050579
-0.000351741
-0.000140364
-6.10384e-05
-2.43096e-05
-5.11079e-05
-1.82407e-05
-5.04492e-05
-1.67894e-05
-6.5618e-05
-2.29645e-05
-8.99243e-05
-2.65096e-05
-0.000109976
-1.90574e-05
-0.00011123
-5.03188e-06
-9.12352e-05
1.28339e-05
-5.93615e-05
3.06952e-05
-1.49333e-05
4.6847e-05
3.31216e-05
6.15096e-05
4.9836e-05
7.72114e-05
6.53624e-05
5.38089e-05
8.0135e-05
2.82152e-05
0.000109584
9.29652e-06
0.00014089
-4.00379e-06
0.000164953
-1.42762e-05
0.000188699
-1.37546e-05
0.000213309
-9.28979e-06
0.000234315
-1.17684e-05
0.000216938
-3.30229e-05
0.000130146
-9.81334e-05
4.36034e-05
-0.000201608
-7.62595e-06
-0.000292365
-2.26656e-05
-0.000306111
-1.52749e-05
-0.000263118
-7.79905e-05
-0.000153745
-0.00018628
-3.89278e-05
-0.000256739
3.28785e-05
-0.000227017
7.0621e-05
-0.000160811
0.000100615
-7.72166e-05
0.000124493
-3.74585e-05
0.000133731
-2.87375e-05
0.000161432
-4.48445e-05
0.00019019
-7.64644e-05
0.000236005
-0.000103297
0.000276344
-0.000138443
0.000285124
-0.000194178
0.000260845
-0.00031527
0.000230495
-0.000582073
0.000195588
-0.000697302
4.28173e-05
-0.000568895
-0.00022042
-0.000341817
-0.000412172
-7.27933e-05
-0.00044732
-2.49457e-05
-8.77809e-05
-1.58445e-05
4.01698e-05
-1.85865e-05
7.29529e-05
-2.48143e-05
8.23037e-05
-2.98524e-05
7.767e-05
-3.47125e-05
7.03677e-05
-4.06139e-05
6.40672e-05
-4.9377e-05
6.12388e-05
-6.2179e-05
6.70949e-05
-5.84288e-05
7.97392e-05
-3.14415e-05
6.3466e-05
2.76243e-05
3.6693e-06
0.000122936
-0.000106418
0.000222266
-0.000207088
0.000285124
-0.000307052
0.000258195
-0.000310625
0.000148466
-0.000179283
8.82117e-05
-9.07005e-05
8.1045e-05
-6.17302e-05
8.92981e-05
-4.11262e-05
0.000103574
-1.58618e-05
0.000145323
1.09911e-05
0.000136272
1.52622e-05
8.94706e-05
-6.19596e-06
6.12328e-05
-3.49645e-05
5.19428e-05
-5.48364e-05
4.62518e-05
-6.5374e-05
3.91907e-05
-7.0593e-05
2.97225e-05
-7.47225e-05
3.14963e-05
-9.0824e-05
-2.56283e-05
-0.000285088
-8.93955e-05
-0.000446091
-0.000110376
-0.000424801
-0.000118564
-0.000421896
-0.000143053
-0.000395306
-0.000160071
-0.000361115
-0.000161838
-0.000335324
-0.000148311
-0.000315187
-0.000126359
-0.000294807
-9.75875e-05
-0.000268732
-6.37704e-05
-0.000236008
-2.90823e-05
-0.000200226
4.77702e-08
-0.000166017
2.16698e-05
-0.000126452
3.17021e-05
-0.000106253
2.83848e-05
-8.38553e-05
1.8022e-05
-2.55149e-05
2.52625e-05
4.20046e-05
4.30012e-05
9.5177e-05
6.08423e-05
0.000147808
9.2039e-05
0.000173098
0.000106963
0.000160959
9.86223e-05
0.000132488
7.44581e-05
8.89011e-05
5.72785e-05
5.89711e-05
6.60533e-05
5.0733e-05
0.000114831
3.56035e-05
0.000207828
1.61607e-05
0.000336045
-1.87497e-05
0.000468813
-7.15347e-05
0.000538201
-0.000184284
0.000641807
-0.000402139
0.000399963
-0.000319605
0.000171336
-0.000406583
3.29324e-05
-0.000666322
-1.7169e-05
-0.00070245
-7.80974e-05
-0.000501903
-0.000362892
-0.000134533
-5.77712e-05
-2.44089e-05
-4.9774e-05
-2.53646e-05
-5.18419e-05
-3.09613e-05
-6.1404e-05
-3.88337e-05
-7.4975e-05
-3.95326e-05
-8.6959e-05
-3.32192e-05
-9.1433e-05
-2.24059e-05
-8.19087e-05
-9.02813e-06
-5.94296e-05
2.88314e-06
-2.81704e-05
1.24048e-05
1.40722e-05
1.82105e-05
5.59042e-05
5.13432e-05
8.60534e-05
4.95051e-05
0.000112717
3.3581e-05
0.000137412
2.09702e-05
0.000157274
1.19226e-05
0.000171517
4.16683e-06
0.000186836
-1.64899e-06
0.000206061
-7.49453e-06
0.000218468
-1.30593e-05
0.000197732
-3.07636e-05
0.000108215
-8.40611e-05
3.20364e-05
-0.000177428
-1.63378e-05
-0.000250906
-2.95223e-05
-0.0002708
-1.77302e-05
-0.000287765
-0.000113383
-0.000174121
-0.000271358
-5.02016e-06
-0.000294385
6.86233e-05
-0.000229183
0.000104631
-0.000155603
0.000132997
-7.71473e-05
0.000136128
-4.7728e-05
0.000127668
-4.67204e-05
0.000155039
-6.28707e-05
0.00019033
-8.66318e-05
0.000235842
-0.000105768
0.000269027
-0.00013016
0.000275217
-0.000171374
0.000254241
-0.000266605
0.000224625
-0.000471926
0.000203884
-0.000644416
0.000111429
-0.000615791
-9.29673e-05
-0.000360922
-0.000424986
-6.88994e-05
-0.000512418
-1.11521e-05
-0.000153029
-1.54749e-05
4.35234e-05
-2.31567e-05
9.17475e-05
-2.84509e-05
0.000100644
-3.19776e-05
9.5487e-05
-3.59069e-05
8.73111e-05
-3.95358e-05
8.04301e-05
-4.35058e-05
7.39075e-05
-4.9043e-05
7.30205e-05
-5.04693e-05
7.6416e-05
-3.34446e-05
5.92791e-05
1.29464e-05
-5.8376e-06
9.93895e-05
-9.72104e-05
0.000192781
-0.000186752
0.000262992
-0.000275642
0.00022338
-0.000232202
0.000122641
-0.000129894
8.42341e-05
-7.66178e-05
8.24745e-05
-6.1324e-05
8.87479e-05
-4.23754e-05
0.000102774
-1.25312e-05
0.000137337
2.42818e-05
0.000128962
3.25689e-05
8.48607e-05
5.91784e-06
6.03485e-05
-2.96241e-05
5.15036e-05
-5.2135e-05
4.49814e-05
-6.32747e-05
3.69745e-05
-6.77907e-05
2.72846e-05
-7.04845e-05
3.03066e-05
-8.15094e-05
-3.11017e-05
-0.00026366
-9.37228e-05
-0.000432399
-0.000104907
-0.000416978
-0.000114623
-0.000414159
-0.00014234
-0.000385008
-0.000159318
-0.000351095
-0.000157094
-0.000327626
-0.000140391
-0.00030759
-0.000114198
-0.000284681
-8.07914e-05
-0.000255701
-4.44919e-05
-0.000222292
-1.12234e-05
-0.00018848
1.4952e-05
-0.000156411
2.91851e-05
-0.000128092
3.40349e-05
-0.000109983
1.57936e-05
-6.37939e-05
-7.09939e-06
-4.78791e-06
-6.67233e-06
2.90523e-05
5.04021e-06
5.60784e-05
2.50936e-05
9.16939e-05
5.35303e-05
0.000102765
7.57005e-05
9.12566e-05
8.85997e-05
7.03625e-05
8.9224e-05
4.61066e-05
8.72264e-05
2.59845e-05
9.78747e-05
1.13295e-05
0.000129514
-4.46288e-06
0.000198523
-2.49094e-05
0.000298644
-6.26869e-05
0.000399827
-0.000120734
0.000463003
-0.000226017
0.0005668
-0.000348022
0.000357841
-0.000220854
0.000161053
-0.000256193
5.19744e-05
-0.000507134
-1.98415e-06
-0.000667865
-0.000101503
-0.000471785
-0.000362509
-0.00016933
-6.12461e-05
-2.72869e-05
-5.74055e-05
-3.40605e-05
-5.69375e-05
-4.24255e-05
-5.90576e-05
-4.64555e-05
-6.36293e-05
-4.47279e-05
-6.83827e-05
-3.87591e-05
-7.17309e-05
-2.9298e-05
-6.92681e-05
-1.73882e-05
-5.89433e-05
-5.6844e-06
-4.12671e-05
3.74206e-08
-3.04513e-06
-1.12152e-05
6.32517e-05
7.09761e-06
0.000105896
4.08521e-05
0.000135855
4.93642e-05
0.000159115
4.60911e-05
0.000175327
3.91413e-05
0.000184374
3.10835e-05
0.000194668
2.11706e-05
0.000203568
1.13411e-05
0.000207512
1.24267e-06
0.000188621
-1.97507e-05
0.000117902
-7.70798e-05
3.46882e-05
-0.000154894
-1.60511e-05
-0.000209629
-3.39816e-05
-0.000234346
-2.83224e-05
-0.000296959
-0.000172365
-0.00018314
-0.000328684
2.9631e-05
-0.000313912
0.0001091
-0.000228623
0.000138861
-0.000129684
0.000144564
-6.33699e-05
0.000120994
-4.3058e-05
0.000119642
-4.688e-05
0.000147949
-6.44537e-05
0.000186413
-8.42933e-05
0.000229008
-9.95281e-05
0.000255692
-0.000117589
0.000257656
-0.000150225
0.000237401
-0.000227322
0.000203616
-0.00040154
0.000181165
-0.000567121
0.000136454
-0.000550004
1.86048e-05
-0.000365443
-0.000300128
-6.9355e-05
-0.000507592
-1.3354e-05
-0.000163396
-1.81769e-05
4.89267e-05
-2.74458e-05
0.000108134
-3.4281e-05
0.000119963
-3.77082e-05
0.000114464
-4.00106e-05
0.000105103
-4.09894e-05
9.61579e-05
-3.96852e-05
8.79678e-05
-3.93661e-05
8.21832e-05
-3.43942e-05
7.80987e-05
-2.22212e-05
5.73226e-05
1.20395e-05
-1.10926e-06
8.56997e-05
-7.54414e-05
0.000159774
-0.000155916
0.00020495
-0.000219887
0.000164421
-0.000176924
9.26873e-05
-0.000114023
7.58047e-05
-7.85175e-05
7.89987e-05
-6.50585e-05
8.34094e-05
-4.22821e-05
0.000105466
-5.05872e-06
0.000130021
3.85619e-05
0.000123552
4.53636e-05
8.21742e-05
1.26968e-05
6.0644e-05
-2.61662e-05
5.19547e-05
-4.98753e-05
4.47238e-05
-6.13056e-05
3.6049e-05
-6.56857e-05
2.68141e-05
-6.85302e-05
3.15813e-05
-8.08802e-05
-3.0371e-05
-0.00025216
-9.45158e-05
-0.000425813
-0.000100444
-0.000413674
-0.000113467
-0.000406586
-0.00014288
-0.000373895
-0.000157326
-0.00034391
-0.000152169
-0.000320797
-0.000131963
-0.000298366
-0.000101422
-0.000272385
-6.50338e-05
-0.000241437
-2.87114e-05
-0.00020806
4.44571e-07
-0.000175541
2.49969e-05
-0.000144015
3.43248e-05
-0.000126499
3.11121e-05
-9.87668e-05
1.30908e-05
-3.46679e-05
-4.72499e-06
7.08826e-06
-1.1345e-05
2.66693e-05
-4.33951e-06
3.5976e-05
1.72999e-05
5.91504e-05
4.32903e-05
6.16276e-05
6.37013e-05
5.29944e-05
7.67461e-05
3.98573e-05
8.33607e-05
2.51905e-05
8.884e-05
8.88333e-06
0.000103081
-8.70618e-06
0.000128669
-2.66124e-05
0.000188852
-5.04845e-05
0.000294913
-9.25651e-05
0.00041266
-0.00016164
0.000485116
-0.000266587
0.000591946
-0.000446269
0.000394381
-0.000290753
0.0001884
-0.000257517
6.28804e-05
-0.000501434
-8.615e-06
-0.000736199
-0.00014417
-0.000533365
-0.000354098
-0.000195007
-7.22591e-05
-3.17152e-05
-6.86716e-05
-4.18486e-05
-6.1815e-05
-4.79928e-05
-5.73479e-05
-4.95318e-05
-5.49934e-05
-4.63518e-05
-5.43734e-05
-4.04406e-05
-5.60942e-05
-3.11369e-05
-5.70155e-05
-1.92707e-05
-5.3571e-05
-6.9329e-06
-4.76837e-05
7.24793e-07
-2.59169e-05
-2.24167e-05
4.65713e-05
-4.22312e-05
0.000101306
2.4552e-05
0.000144086
5.35535e-05
0.000172536
6.59214e-05
0.000186185
6.6775e-05
0.000193055
6.01253e-05
0.000196695
4.94854e-05
0.000200896
3.60563e-05
0.000205071
2.0865e-05
0.000192232
-2.45649e-06
0.000128857
-6.04677e-05
4.09248e-05
-0.00012498
-1.41391e-05
-0.00016852
-2.9785e-05
-0.000198186
-1.56799e-05
-0.000292875
-0.000137801
-0.000207728
-0.000290842
7.19327e-05
-0.000266974
0.000131005
-0.000179354
0.000149168
-8.54492e-05
0.000132266
-4.24372e-05
0.00010148
-3.02361e-05
0.000114341
-3.56453e-05
0.000140337
-5.55903e-05
0.000176774
-7.6801e-05
0.000218415
-9.36265e-05
0.000238304
-0.000110369
0.000235959
-0.000137011
0.000213205
-0.000190706
0.000173238
-0.000339629
0.000144972
-0.000469754
9.7243e-05
-0.000386781
2.32517e-05
-0.000261109
-0.000110009
-3.56637e-06
-0.000475209
2.7343e-07
-0.000132788
-2.4392e-05
6.71113e-05
-3.5453e-05
0.000118638
-4.12981e-05
0.000131486
-4.42984e-05
0.000126005
-4.47766e-05
0.000116083
-4.3691e-05
0.00010659
-4.00338e-05
9.93158e-05
-3.38037e-05
9.26115e-05
-2.46314e-05
8.35598e-05
-1.06633e-05
6.02425e-05
1.41801e-05
1.21695e-05
7.01499e-05
-4.42017e-05
0.000110192
-0.000104821
0.000139183
-0.000161927
0.0001229
-0.000176205
8.35682e-05
-0.000138505
7.29167e-05
-9.85158e-05
7.65554e-05
-7.38222e-05
8.12318e-05
-4.37653e-05
0.000111264
7.13525e-06
0.000126041
5.1033e-05
0.000119452
5.3809e-05
7.86908e-05
1.3984e-05
6.08697e-05
-2.53092e-05
5.2373e-05
-4.8915e-05
4.45759e-05
-6.01479e-05
3.52298e-05
-6.44063e-05
2.57498e-05
-6.80958e-05
3.08981e-05
-9.19655e-05
-3.27668e-05
-0.000253758
-9.38715e-05
-0.000420605
-9.57598e-05
-0.000412912
-0.000113523
-0.000398175
-0.000143189
-0.000366829
-0.000155115
-0.000337024
-0.000145905
-0.000312359
-0.000121506
-0.000287583
-8.75229e-05
-0.000259215
-4.9832e-05
-0.000227018
-1.47389e-05
-0.000193994
1.34307e-05
-0.000161245
3.13262e-05
-0.000133012
3.5347e-05
-0.000119749
1.99548e-05
-6.79734e-05
-8.21635e-07
-6.38809e-06
-7.92069e-06
9.81542e-06
-8.33913e-06
2.03258e-05
-2.92083e-06
2.24054e-05
1.65727e-05
3.66014e-05
3.71297e-05
3.63373e-05
5.41279e-05
3.17281e-05
6.76032e-05
2.48408e-05
7.77162e-05
1.56057e-05
8.92502e-05
3.31727e-06
0.000105792
-1.3662e-05
0.000134233
-3.62442e-05
0.000200702
-6.73148e-05
0.000316651
-0.000119743
0.00046076
-0.000214497
0.000590216
-0.000336178
0.000703711
-0.00054227
0.000484192
-0.000439461
0.000249202
-0.000288776
8.14194e-05
-0.000506667
-2.04841e-05
-0.000814964
-0.000173872
-0.000606912
-0.000370673
-0.000196015
-8.47979e-05
-3.52245e-05
-7.76463e-05
-4.51689e-05
-6.58832e-05
-4.97813e-05
-5.565e-05
-4.84765e-05
-4.77934e-05
-4.46203e-05
-4.21941e-05
-3.9109e-05
-4.03857e-05
-3.11526e-05
-4.07141e-05
-2.00797e-05
-3.75924e-05
-8.69345e-06
-3.15385e-05
7.68087e-07
-2.55562e-05
-1.64849e-05
1.80363e-05
-6.94309e-05
8.22311e-05
-7.74654e-06
0.000135947
4.27112e-05
0.000169133
7.71592e-05
0.000183635
8.85559e-05
0.000189283
8.41839e-05
0.000191217
7.37246e-05
0.000193991
5.99729e-05
0.000197725
4.3142e-05
0.000184139
1.54338e-05
0.000119122
-3.58536e-05
3.63243e-05
-9.6097e-05
-1.1302e-05
-0.000131156
-2.56319e-05
-0.000161435
-1.70744e-05
-0.000252858
-0.000110721
-0.000209221
-0.000234387
8.42542e-05
-0.000201824
0.00014423
-0.000112872
0.000138163
-4.79614e-05
0.000106295
-2.38616e-05
9.59932e-05
-1.41488e-05
0.00010837
-2.04731e-05
0.000129256
-3.99545e-05
0.000163853
-6.94111e-05
0.000200406
-9.37529e-05
0.000218916
-0.000114783
0.000216159
-0.000141555
0.000196039
-0.000213873
0.000163281
-0.000420192
0.000138717
-0.000555917
2.81818e-05
-0.000301885
-0.000111965
0.000297875
-7.45493e-05
0.000218022
-0.000152913
3.56698e-05
-1.04989e-05
-2.70315e-05
9.7856e-05
-4.37464e-05
0.000124387
-4.8262e-05
0.000131753
-5.08461e-05
0.000126508
-5.05716e-05
0.000118021
-4.85449e-05
0.000110222
-4.35367e-05
0.000105482
-3.40154e-05
9.82257e-05
-2.05161e-05
8.7391e-05
-3.58453e-06
6.40714e-05
1.0382e-05
2.907e-05
4.3043e-05
-1.10697e-05
6.22697e-05
-7.91009e-05
9.78763e-05
-0.000175796
0.000137795
-0.000274108
0.000119554
-0.000248569
8.74693e-05
-0.000154449
8.09344e-05
-8.58837e-05
8.23248e-05
-4.15376e-05
0.00011806
1.83043e-05
0.000126116
5.898e-05
0.00011521
5.52777e-05
7.75107e-05
1.14778e-05
6.11634e-05
-2.69358e-05
5.22794e-05
-4.91252e-05
4.38666e-05
-5.97326e-05
3.44706e-05
-6.40134e-05
2.56145e-05
-6.96148e-05
2.78429e-05
-0.000131188
-4.25021e-05
-0.000289249
-9.23953e-05
-0.000416396
-9.15615e-05
-0.000414819
-0.000113996
-0.000393679
-0.000143224
-0.000359508
-0.000151207
-0.000329136
-0.000137401
-0.000302856
-0.000109223
-0.000276271
-7.29277e-05
-0.000246054
-3.50877e-05
-0.000212984
-2.66634e-06
-0.000181015
2.33083e-05
-0.000144737
3.4024e-05
-0.00013093
3.40587e-05
-0.000111715
1.74898e-05
-3.61327e-05
2.2097e-07
9.55202e-06
-7.50462e-06
1.54391e-05
-5.28799e-06
1.60959e-05
5.60586e-07
1.55631e-05
1.58728e-05
2.34121e-05
3.2537e-05
2.32887e-05
4.82668e-05
2.15866e-05
6.30404e-05
1.87827e-05
7.66259e-05
1.34397e-05
9.39935e-05
1.90216e-06
0.000116894
-1.69857e-05
0.000158606
-4.81519e-05
0.000246553
-8.91203e-05
0.000387106
-0.000151216
0.000548368
-0.000255072
0.00068738
-0.000392275
0.000833945
-0.000637768
0.000591177
-0.000538512
0.000301613
-0.000313133
0.000115117
-0.000502811
-2.44358e-05
-0.000830727
-0.000192442
-0.000645883
-0.000380879
-0.000207712
-9.71578e-05
-3.72148e-05
-8.53742e-05
-4.46843e-05
-6.97496e-05
-4.56778e-05
-5.46801e-05
-4.35479e-05
-4.24806e-05
-3.99452e-05
-3.27656e-05
-3.53184e-05
-2.71335e-05
-2.91892e-05
-2.51768e-05
-2.01078e-05
-1.98674e-05
-1.24137e-05
-1.03699e-05
-3.18783e-06
-3.85648e-06
-1.35897e-05
1.42536e-05
-7.50172e-05
6.10796e-05
-3.25067e-05
0.00011532
2.76819e-05
0.000155009
7.55799e-05
0.000172936
9.75583e-05
0.000179583
9.86649e-05
0.000180326
9.14744e-05
0.000182318
7.99912e-05
0.000183506
6.48427e-05
0.000159811
3.49694e-05
8.77612e-05
-1.44476e-05
1.91609e-05
-7.23557e-05
-1.13699e-05
-9.9802e-05
-8.73043e-06
-0.0001336
3.06492e-06
-0.000208247
-1.1182e-05
-0.000195258
-0.000167225
0.000101652
-0.0001484
0.000156266
-6.88062e-05
0.000128723
-2.9913e-05
9.32406e-05
-8.86679e-06
9.4205e-05
9.31116e-07
0.000102228
-2.2263e-06
0.000116886
-2.58439e-05
0.000144248
-6.33486e-05
0.000177115
-9.82363e-05
0.000198116
-0.00013003
0.000200603
-0.000181001
0.000198691
-0.000347499
0.000208627
-0.00076443
0.000261529
-0.00114185
0.000276562
-0.000906075
-6.90093e-05
3.90775e-05
-0.000590807
7.29714e-05
-0.000243074
-1.11469e-05
2.58944e-05
-4.11723e-05
9.98543e-05
-5.22851e-05
0.000117575
-5.4832e-05
0.0001213
-5.63459e-05
0.000117435
-5.64387e-05
0.000112745
-5.55994e-05
0.000108861
-5.12507e-05
0.000106752
-3.94785e-05
9.89593e-05
-2.28097e-05
8.64607e-05
-9.07231e-06
6.7062e-05
-3.6491e-06
4.07422e-05
1.39191e-05
-8.04903e-06
3.79284e-05
-0.000122714
9.4217e-05
-0.000239644
0.000219764
-0.000356499
0.000196889
-0.000306494
0.000116427
-0.000178016
9.12015e-05
-8.4825e-05
8.837e-05
-3.34294e-05
0.000122227
2.78944e-05
0.000126442
6.57268e-05
0.000112744
5.43312e-05
7.47912e-05
4.83259e-06
5.92277e-05
-3.08143e-05
5.02903e-05
-5.04183e-05
4.14825e-05
-6.02221e-05
3.30254e-05
-6.53759e-05
3.14973e-05
-7.81688e-05
1.44406e-05
-0.000197796
-6.07486e-05
-0.000389601
-9.04099e-05
-0.000415923
-8.67326e-05
-0.000419585
-0.000114831
-0.000389464
-0.00014207
-0.000352192
-0.000145436
-0.000321047
-0.000127105
-0.000293192
-9.5646e-05
-0.000264874
-5.80013e-05
-0.0002332
-2.14453e-05
-0.000200133
6.67847e-06
-0.000169626
2.79665e-05
-0.000135925
3.28317e-05
-0.000127988
1.92092e-05
-8.71322e-05
-6.94399e-07
-7.08237e-06
-6.09516e-06
1.47326e-05
-8.63732e-06
1.72516e-05
-5.35899e-06
1.44591e-05
1.89283e-06
1.35486e-05
1.58195e-05
1.7439e-05
3.10541e-05
1.86489e-05
4.66565e-05
1.97852e-05
6.33388e-05
1.96837e-05
8.15929e-05
1.38722e-05
0.000107556
6.46632e-07
0.000138194
-2.14429e-05
0.000209557
-5.2668e-05
0.000316882
-9.67221e-05
0.000476385
-0.000158544
0.000647609
-0.000267418
0.000788361
-0.000412105
0.000934758
-0.000690481
0.00066077
-0.000559058
0.000332198
-0.000284318
0.000118123
-0.000466767
-3.43718e-05
-0.000812833
-0.000193132
-0.000666118
-0.00039045
-0.000208274
-0.000107162
-3.5567e-05
-9.13004e-05
-3.90462e-05
-7.28541e-05
-3.85382e-05
-5.42958e-05
-3.63328e-05
-3.89403e-05
-3.3273e-05
-2.62458e-05
-2.95125e-05
-1.77121e-05
-2.48722e-05
-1.37315e-05
-1.78558e-05
-8.96241e-06
-1.19024e-05
4.61404e-07
-5.25245e-06
9.37035e-06
-1.32804e-05
1.90167e-05
-7.49392e-05
5.08905e-05
-4.80199e-05
0.000102331
1.12446e-05
0.000143128
6.76933e-05
0.000162564
9.79458e-05
0.000169274
0.000105925
0.00016842
0.000103531
0.000166681
9.61266e-05
0.000156435
8.47303e-05
0.000109091
5.53741e-05
3.60648e-05
4.89211e-06
-7.55457e-06
-4.89568e-05
-1.45384e-05
-7.10015e-05
1.4406e-05
-0.00011461
4.95449e-05
-0.000192095
9.91318e-05
-8.26999e-05
-7.11645e-05
0.000127615
-0.000103612
0.000167054
-4.96351e-05
0.000116471
-2.13865e-05
8.40931e-05
-8.38204e-07
9.00297e-05
1.30507e-05
9.44351e-05
1.19197e-05
0.000102984
-1.29612e-05
0.000120867
-5.54628e-05
0.000150007
-9.59822e-05
0.000175293
-0.000135479
0.000187273
-0.000180866
0.000191797
-0.00033003
0.000213228
-0.000604758
0.000295758
-0.000697394
0.000333912
-0.000585332
2.56612e-05
-0.000100146
-0.000873355
-9.39842e-05
-0.000327122
-4.82116e-05
-1.45151e-05
-5.6398e-05
8.07384e-05
-5.89877e-05
9.83577e-05
-5.8254e-05
0.000101775
-5.87781e-05
0.000100749
-6.09333e-05
0.000101002
-6.32045e-05
0.000101669
-6.07385e-05
0.000101924
-4.91863e-05
9.38752e-05
-3.1225e-05
8.04745e-05
-1.6366e-05
6.40207e-05
-8.40881e-06
4.00203e-05
-2.22692e-06
-2.77929e-05
2.06127e-05
-0.000162021
8.32317e-05
-0.000273527
0.000248293
-0.000376793
0.000230591
-0.000299033
0.000130671
-0.00016452
0.000100044
-7.34064e-05
9.69211e-05
-1.81497e-05
0.000128087
4.35953e-05
0.000126541
7.28743e-05
0.000103896
5.07111e-05
6.63238e-05
-5.62301e-06
5.43605e-05
-3.65059e-05
4.66297e-05
-5.34696e-05
3.74289e-05
-6.15424e-05
2.78568e-05
-6.58951e-05
2.46557e-05
-7.78499e-05
-6.86336e-06
-0.000229076
-6.67527e-05
-0.000425497
-8.09669e-05
-0.000415835
-8.25464e-05
-0.000417699
-0.000115223
-0.000384115
-0.000139629
-0.000344971
-0.000137873
-0.00031277
-0.000115282
-0.000283542
-8.11742e-05
-0.000253559
-4.34321e-05
-0.000221071
-9.5235e-06
-0.000188838
1.63094e-05
-0.00015944
3.04555e-05
-0.000136897
3.04823e-05
-0.000121508
2.12159e-05
-6.13349e-05
-2.1359e-06
1.20541e-05
-1.10076e-05
1.98092e-05
-1.04203e-05
1.66311e-05
-7.26781e-06
1.44196e-05
2.48384e-06
1.49858e-05
1.64425e-05
1.75796e-05
3.24534e-05
1.98344e-05
5.01701e-05
2.13035e-05
6.98047e-05
2.10875e-05
9.23245e-05
1.53423e-05
0.00012264
2.30992e-06
0.000156705
-2.03471e-05
0.000235556
-5.03507e-05
0.000347912
-9.2932e-05
0.000504375
-0.00015212
0.000669074
-0.000259061
0.000790493
-0.000392449
0.000894603
-0.000653543
0.00054814
-0.000550707
0.000261029
-0.000260302
6.44404e-05
-0.000435734
-6.24734e-05
-0.000790724
-0.000189123
-0.00068109
-0.000395843
-0.000198845
-0.000114957
-2.87674e-05
-9.59597e-05
-3.03829e-05
-7.52826e-05
-2.94851e-05
-5.44255e-05
-2.75703e-05
-3.64755e-05
-2.50867e-05
-2.14469e-05
-2.19763e-05
-1.05976e-05
-1.83512e-05
-3.36491e-06
-1.331e-05
1.21995e-06
-8.28296e-06
9.60775e-06
-4.18854e-06
1.8436e-05
-1.20913e-05
2.64875e-05
-7.40356e-05
4.91287e-05
-5.70964e-05
9.49974e-05
-3.53247e-07
0.000135438
5.94843e-05
0.000156735
9.64819e-05
0.000161439
0.000110582
0.000158098
0.000112818
0.000146493
0.000110341
0.000112835
0.000105706
2.76905e-05
8.80211e-05
-4.79007e-05
4.53863e-05
-5.94639e-05
-2.15406e-05
-2.98727e-05
-4.86003e-05
2.70432e-05
-0.000106489
0.000102494
-0.000214567
0.000324799
2.52864e-05
9.51972e-05
0.000197503
-2.70316e-05
0.000148017
-2.12161e-05
8.18801e-05
-8.02405e-06
7.5152e-05
8.16216e-06
8.37463e-05
2.03743e-05
8.60973e-05
2.16663e-05
9.03168e-05
-3.27009e-07
9.84914e-05
-4.14785e-05
0.000120672
-8.36895e-05
0.000148957
-0.000115175
0.000168192
-0.000144258
0.000175144
-0.000254509
0.00019981
-0.000460449
0.000299647
-0.000496449
0.00036515
-0.000303941
9.38116e-05
-5.28525e-05
-0.000952056
-0.000106711
-0.000369746
-6.77078e-05
-6.24308e-05
-6.01552e-05
4.54959e-05
-5.71533e-05
6.47071e-05
-5.52871e-05
6.91502e-05
-5.69617e-05
7.11874e-05
-6.17481e-05
7.55956e-05
-6.69517e-05
8.00521e-05
-6.79934e-05
8.19906e-05
-5.91462e-05
7.49307e-05
-4.02214e-05
6.06654e-05
-2.19334e-05
4.47445e-05
-9.33019e-06
2.10725e-05
-1.95493e-05
-4.45208e-05
-7.59131e-06
-0.000171343
5.12892e-05
-0.000287346
0.000225868
-0.000384569
0.000221138
-0.000283857
0.000129346
-0.000143669
0.000104563
-6.00719e-05
0.00010438
-3.27558e-06
0.000135238
5.72834e-05
0.000134291
7.08163e-05
9.16805e-05
3.81245e-05
6.00424e-05
-1.43892e-05
5.11617e-05
-4.25161e-05
4.31499e-05
-5.73083e-05
3.39391e-05
-6.3585e-05
2.42162e-05
-6.64608e-05
1.98474e-05
-7.35677e-05
-1.10213e-05
-0.000231374
-6.40608e-05
-0.0004413
-7.11412e-05
-0.000418999
-7.96147e-05
-0.000411536
-0.000115211
-0.000376962
-0.000135863
-0.000337372
-0.000128748
-0.000304202
-0.000102251
-0.000273756
-6.62694e-05
-0.00024237
-2.95265e-05
-0.000209689
-4.69976e-08
-0.000178549
2.29643e-05
-0.000149671
2.97539e-05
-0.000133612
1.8824e-05
-0.000100443
7.53604e-07
-3.09119e-05
-9.5615e-06
1.77304e-05
-1.44209e-05
2.02594e-05
-1.37506e-05
1.58479e-05
-9.84761e-06
1.42093e-05
2.58879e-06
1.54719e-05
1.8024e-05
1.72922e-05
3.63428e-05
1.93631e-05
5.68576e-05
2.2852e-05
7.98937e-05
2.43604e-05
0.000105957
1.98212e-05
0.00013924
6.77225e-06
0.000175605
-1.66683e-05
0.0002555
-4.58229e-05
0.000366217
-8.76418e-05
0.000513697
-0.000145312
0.000660126
-0.000240233
0.000770834
-0.000358926
0.00086795
-0.000571435
0.000526033
-0.000520649
0.00025098
-0.000240495
3.51346e-05
-0.000378114
-9.098e-05
-0.000744925
-0.000188071
-0.000683142
-0.000398388
-0.000186831
-0.00012104
-1.91021e-05
-9.98181e-05
-1.99673e-05
-7.71299e-05
-1.91421e-05
-5.47094e-05
-1.76715e-05
-3.46806e-05
-1.57309e-05
-1.76915e-05
-1.32279e-05
-5.10408e-06
-1.02203e-05
3.44118e-06
-6.89279e-06
1.00229e-05
-3.12766e-06
1.82362e-05
-8.45262e-07
2.69514e-05
-1.04967e-05
3.36737e-05
-7.2994e-05
5.13868e-05
-6.31935e-05
9.30524e-05
-7.8635e-06
0.000131572
5.41495e-05
0.000154282
9.67973e-05
0.00015585
0.000115848
0.000148282
0.000120972
0.00012607
0.000122704
6.95502e-05
0.000125951
-3.42005e-05
0.000126495
-9.72141e-05
0.000100631
-9.2173e-05
2.08393e-05
-5.3797e-05
-1.06841e-05
1.06371e-05
-9.02807e-05
0.000128177
-0.000218335
0.000377889
0.000141378
0.000167311
0.000192423
4.49917e-05
9.0237e-05
1.37629e-05
4.57092e-05
1.09534e-05
5.94823e-05
1.81953e-05
7.29773e-05
2.60395e-05
7.81061e-05
2.64731e-05
7.88575e-05
9.00963e-06
8.07388e-05
-2.48337e-05
9.46332e-05
-6.28902e-05
0.000120948
-9.23064e-05
0.000144948
-0.000116113
0.000156158
-0.000209222
0.000183115
-0.000390504
0.000296161
-0.000385542
0.000393436
-0.000120479
0.000197399
1.47128e-05
-0.000868357
-3.75877e-05
-0.000407992
-5.02316e-05
-9.10323e-05
-4.76394e-05
2.67589e-07
-4.56337e-05
1.9036e-05
-4.49897e-05
2.17467e-05
-4.76292e-05
2.21533e-05
-5.42587e-05
2.52779e-05
-6.20428e-05
3.04694e-05
-6.67055e-05
3.35565e-05
-6.33499e-05
3.09188e-05
-4.77996e-05
2.31951e-05
-2.93014e-05
1.3131e-05
-1.63158e-05
-5.44935e-06
-3.7014e-05
-5.36766e-05
-2.87376e-05
-0.000171464
2.41733e-05
-0.00028973
0.000190397
-0.0003946
0.000191925
-0.000285859
0.000117802
-0.000134308
0.000102834
-5.16853e-05
0.00011414
7.77961e-06
0.000140723
6.2442e-05
0.000129599
6.78703e-05
8.01852e-05
2.54312e-05
5.84446e-05
-1.96454e-05
4.93347e-05
-4.75881e-05
4.08053e-05
-6.14798e-05
3.18668e-05
-6.65104e-05
2.25744e-05
-6.78422e-05
1.79761e-05
-6.97129e-05
-2.77631e-06
-0.000205322
-5.66685e-05
-0.000440315
-6.33844e-05
-0.000424301
-7.81322e-05
-0.000405045
-0.000115122
-0.000368844
-0.000130853
-0.000329283
-0.000118383
-0.00029498
-8.84753e-05
-0.000263456
-5.14323e-05
-0.000231039
-1.64429e-05
-0.000198736
1.07069e-05
-0.000167872
2.73472e-05
-0.000141715
2.9432e-05
-0.000127546
9.76914e-06
-6.64414e-05
-1.37524e-05
-2.66255e-06
-1.80455e-05
1.52841e-05
-1.97493e-05
1.77628e-05
-1.90412e-05
1.38935e-05
-1.27952e-05
1.28902e-05
2.28275e-06
1.41188e-05
1.98947e-05
1.61308e-05
4.14893e-05
2.04027e-05
6.79262e-05
2.64151e-05
9.46888e-05
2.92824e-05
0.000124675
2.51682e-05
0.000160326
1.08481e-05
0.000198051
-1.36343e-05
0.000279047
-4.4011e-05
0.000384809
-8.51577e-05
0.000506255
-0.000137413
0.000628105
-0.000210988
0.000717555
-0.000305263
0.000807333
-0.000467445
0.00053648
-0.000487385
0.000267424
-0.000217266
3.42295e-05
-0.000274299
-0.000109145
-0.000670176
-0.000192891
-0.000675529
-0.000397748
-0.000178501
-0.000125258
-7.94276e-06
-0.000102539
-8.466e-06
-7.8449e-05
-8.00342e-06
-5.48849e-05
-6.97451e-06
-3.31434e-05
-5.65312e-06
-1.44723e-05
-3.85635e-06
-6.80438e-08
-1.6607e-06
9.82863e-06
3.15252e-07
1.75247e-05
2.51517e-06
2.53269e-05
2.88045e-06
3.30853e-05
-9.12707e-06
3.98496e-05
-7.40289e-05
5.55355e-05
-7.05349e-05
9.45126e-05
-1.45634e-05
0.000130892
5.01307e-05
0.000151642
9.74405e-05
0.00015108
0.000119657
0.000138672
0.000127009
0.000106705
0.000131774
3.46816e-05
0.000141539
-6.90673e-05
0.000157372
-0.000109578
0.000147827
-9.64954e-05
8.13278e-05
-6.58606e-05
5.82173e-05
-4.39762e-05
-3.39051e-05
5.07792e-05
-0.000141398
0.000345771
0.000127708
0.000202425
8.48245e-05
8.64278e-05
1.39927e-06
5.04324e-05
-9.60244e-06
3.60566e-05
2.57809e-05
3.16304e-05
5.28931e-05
3.15053e-05
6.70268e-05
2.88699e-05
6.85714e-05
1.50658e-05
6.81768e-05
-1.09675e-05
7.58935e-05
-4.55184e-05
9.67484e-05
-7.4102e-05
0.000120803
-0.000100923
0.000135129
-0.000189823
0.000165196
-0.00036308
0.000284624
-0.000334451
0.000434406
4.19364e-05
0.000234505
0.000109872
-0.000710172
1.27896e-05
-0.000429202
-2.34638e-05
-9.92681e-05
-3.1752e-05
-2.63124e-05
-3.21402e-05
-1.64377e-05
-3.19517e-05
-1.59035e-05
-3.27972e-05