/*--------------------------------*- C++ -*----------------------------------*\
  =========                 |
  \\      /  F ield         | OpenFOAM: The Open Source CFD Toolbox
   \\    /   O peration     | Website:  https://openfoam.org
    \\  /    A nd           | Version:  10
     \\/     M anipulation  |
\*---------------------------------------------------------------------------*/
FoamFile
{
    format      ascii;
    class       volScalarField;
    location    "0.050274";
    object      T;
}
// * * * * * * * * * * * * * * * * * * * * * * * * * * * * * * * * * * * * * //

dimensions      [0 0 0 1 0 0 0];

internalField   nonuniform List<scalar> 
16320
(
0.00573226
0.00600271
0.00592736
0.00597909
0.00602716
0.00600336
0.00574434
0.00508454
0.00410731
0.00352215
0.00293234
0.00240138
0.00214177
0.00246243
0.00293318
0.00291815
0.00286329
0.00281615
0.00280772
0.00288498
0.00330391
0.00387097
0.00493457
0.00584629
0.00684702
0.00656821
0.00564793
0.00510797
0.00429902
0.00345352
0.0032621
0.00359243
0.00422776
0.00482213
0.00547225
0.00585099
0.00600382
0.00596063
0.00578607
0.00505735
0.00277792
0.00164738
0.00141689
0.00140773
0.00179026
0.00459698
0.00785764
0.0120937
0.0121187
0.0120048
0.0117986
0.0111523
0.00960311
0.00714286
0.00583758
0.00536327
0.0050184
0.00264859
0.00216694
0.00222561
0.00263358
0.00428206
0.00957266
0.0168975
0.0189693
0.0182621
0.0123082
0.0106446
0.012103
0.0163012
0.018045
0.0183171
0.0182642
0.0178667
0.0137539
0.00327921
0.00148216
0.00139684
0.00139969
0.00139423
0.00136944
0.0013456
0.00133165
0.00131681
0.00129482
0.00126598
0.00123283
0.00120165
0.00117497
0.00114684
0.00117308
0.0012969
0.00149156
0.00143074
0.0015265
0.00181724
0.00189268
0.00202062
0.00266145
0.0030773
0.00277533
0.0021994
0.00187474
0.00172199
0.0017631
0.00177503
0.0017142
0.00193215
0.00201054
0.00204039
0.00202402
0.00188759
0.00183496
0.00587195
0.00585883
0.00564182
0.00565017
0.00558322
0.00556189
0.0055604
0.00542015
0.00500034
0.00420006
0.00346198
0.00305579
0.0028381
0.00288121
0.00286618
0.00274811
0.00266307
0.00266488
0.00268724
0.0027553
0.00297497
0.00359881
0.00495719
0.00592586
0.00717473
0.00834096
0.00671957
0.00462932
0.00287786
0.00236938
0.00231778
0.00275127
0.0040463
0.00463892
0.0055084
0.00594741
0.00603944
0.00592835
0.00539337
0.00397234
0.00214454
0.00145913
0.00132034
0.00132131
0.00161178
0.00422791
0.00701629
0.0113831
0.0119358
0.0118689
0.0116435
0.0109104
0.00966644
0.00766753
0.00585888
0.00509604
0.00396299
0.00234117
0.0020969
0.00219537
0.00279555
0.00501997
0.0112833
0.0172761
0.0188575
0.0184531
0.0136141
0.0112606
0.0122644
0.0161343
0.0180736
0.0184069
0.0183843
0.0179882
0.0133137
0.00305713
0.00147985
0.00145272
0.00145013
0.00142256
0.00138349
0.00135137
0.001332
0.00130856
0.00127898
0.00124619
0.00121127
0.00117709
0.0011326
0.00111404
0.00115856
0.0015278
0.00214265
0.00177815
0.00187235
0.00210054
0.00218362
0.00242606
0.00306598
0.00336638
0.00328382
0.00283502
0.00224348
0.00179042
0.00165824
0.00166056
0.00169439
0.00206833
0.00224307
0.00208892
0.00200679
0.00186453
0.00181854
0.00593579
0.00563855
0.00553167
0.00532219
0.00523335
0.0052069
0.0052645
0.00531534
0.00529652
0.00515739
0.00469301
0.00359979
0.00333058
0.00312189
0.00288392
0.0027158
0.00260487
0.00259495
0.00261994
0.00270584
0.00296135
0.00361747
0.00498953
0.00600462
0.00727008
0.00871062
0.00665429
0.00361242
0.00251967
0.00226428
0.00226796
0.00287371
0.00430118
0.00484714
0.00568912
0.00603405
0.00607727
0.00590902
0.00529069
0.00383915
0.00214858
0.00147335
0.00129968
0.00129104
0.00153066
0.00335761
0.00774624
0.0102993
0.0111321
0.0111613
0.0109441
0.00998997
0.00946073
0.00841141
0.00643608
0.00545356
0.00418882
0.00237966
0.00218103
0.00232425
0.00310845
0.0060146
0.0130137
0.0177834
0.0186797
0.0176301
0.0122678
0.0108798
0.0122809
0.0165024
0.0183272
0.0186246
0.0185889
0.0181507
0.0134047
0.00309504
0.00149383
0.00147106
0.00146989
0.00143356
0.00138771
0.00135236
0.00132625
0.00129837
0.00126709
0.00123043
0.00118896
0.0011455
0.00110055
0.00110212
0.0011999
0.00221465
0.00267678
0.00243437
0.00266756
0.00274874
0.00283054
0.00294738
0.00308336
0.00315981
0.00313959
0.00299233
0.00263968
0.00198965
0.00179028
0.00178197
0.00180237
0.00217106
0.00234311
0.00218295
0.00208478
0.00201185
0.002067
0.00570518
0.00557866
0.00524583
0.00507333
0.00500719
0.00499752
0.00506702
0.00515604
0.00526955
0.00537335
0.00537609
0.00411434
0.0035813
0.0032157
0.00292256
0.00274345
0.00265624
0.00262855
0.00264857
0.00272113
0.00294768
0.00348656
0.00474338
0.00603617
0.00735729
0.00875102
0.00544668
0.0029079
0.00223189
0.00211374
0.00231787
0.00332766
0.00486777
0.00533315
0.00583226
0.00602562
0.0060757
0.00591768
0.00532315
0.00394721
0.00223934
0.00148601
0.00124492
0.00121336
0.00149258
0.00275731
0.00769536
0.00954905
0.00987201
0.00968562
0.00945837
0.00892175
0.00880115
0.00855557
0.00749614
0.00662744
0.00477398
0.00250251
0.00224921
0.00246113
0.00367516
0.00759008
0.0141311
0.017976
0.0183049
0.01648
0.0112106
0.0105387
0.0122422
0.0166615
0.0184279
0.0187196
0.0186809
0.0181977
0.0136211
0.00324758
0.00151091
0.00148371
0.00148023
0.00143741
0.00138842
0.00134882
0.00132106
0.00129105
0.00125676
0.00121594
0.00117186
0.0011218
0.00109127
0.00111322
0.00141284
0.00265682
0.00273571
0.00266945
0.00283725
0.00287748
0.00290111
0.00291524
0.00292262
0.00294039
0.002973
0.00292343
0.00268903
0.00212177
0.0017851
0.0017949
0.00181719
0.00214832
0.00243411
0.00228522
0.00212428
0.00211129
0.002423
0.00563725
0.00539818
0.0050859
0.0049537
0.00491264
0.00491375
0.00498791
0.0050921
0.00521457
0.00535548
0.00539884
0.00517511
0.00412151
0.00342545
0.00303194
0.00282698
0.002727
0.00269087
0.00270696
0.00277763
0.00298805
0.00346745
0.00465328
0.00607501
0.00751956
0.00893255
0.0050423
0.00288145
0.00229748
0.0022057
0.00263179
0.00436949
0.00516772
0.0055411
0.00581292
0.00595324
0.00602821
0.00595698
0.00547202
0.00435207
0.00263248
0.00158488
0.00122354
0.0011332
0.00148825
0.00263034
0.00711766
0.00878996
0.00894329
0.00873069
0.00851221
0.00830131
0.00829207
0.00840177
0.00799624
0.00743185
0.00535237
0.00270995
0.00233406
0.00257388
0.00395219
0.00789977
0.0133799
0.0170578
0.0170001
0.0137226
0.00992212
0.0099723
0.012188
0.0168234
0.0185042
0.0187973
0.0187269
0.0180438
0.0127253
0.0031761
0.00151199
0.00149409
0.00148428
0.00143788
0.00138302
0.00134538
0.00131526
0.00128299
0.001245
0.00120162
0.0011553
0.00110001
0.00109344
0.00118786
0.00211256
0.00274631
0.00268997
0.00266254
0.00274949
0.00278454
0.00278555
0.00278027
0.00281027
0.00291273
0.00296507
0.00292244
0.00267343
0.00212805
0.00172398
0.00174785
0.00175471
0.00198608
0.0025242
0.00237965
0.00209256
0.00213329
0.00271955
0.00565584
0.00523086
0.00501883
0.00490637
0.00487711
0.00488999
0.00496344
0.0050872
0.00522281
0.00534779
0.0055271
0.00580521
0.00482392
0.00378387
0.00325716
0.00297589
0.0028284
0.00278208
0.00279412
0.00286934
0.0030929
0.00357787
0.00477177
0.00619011
0.00772637
0.00903121
0.00433713
0.00274441
0.00242965
0.00244892
0.00351322
0.00493577
0.00533814
0.00555025
0.00567448
0.00580784
0.00599349
0.00602556
0.00574522
0.00473294
0.00271899
0.00160712
0.00121191
0.00109187
0.00142503
0.00259719
0.00701767
0.00837989
0.0083932
0.00822789
0.00808227
0.00805336
0.0080739
0.0082253
0.00818089
0.00773457
0.00611804
0.00299145
0.00236503
0.00257767
0.00346114
0.00524138
0.00901079
0.0146839
0.0146878
0.0110758
0.00907113
0.0094703
0.0121607
0.0167413
0.0185134
0.0188216
0.0186984
0.0174719
0.00993028
0.00283871
0.00150536
0.00150242
0.00148574
0.0014323
0.00137599
0.00133984
0.00130731
0.00127223
0.00123146
0.00118681
0.00113577
0.00109326
0.00111608
0.00136433
0.00261064
0.00273992
0.00265087
0.00262056
0.00265145
0.002698
0.00271711
0.00274993
0.00282754
0.002982
0.00301056
0.00291307
0.00251141
0.00197614
0.00163929
0.001697
0.00170681
0.00188792
0.0025514
0.00243578
0.00204742
0.002109
0.00279346
0.00549718
0.00518265
0.00501575
0.00493766
0.00491776
0.00492924
0.00498439
0.00510604
0.00525203
0.00537031
0.00551814
0.00587789
0.0053822
0.0040597
0.00337973
0.00305646
0.00289852
0.00285378
0.00286779
0.0029585
0.00321566
0.00375303
0.00504255
0.00640107
0.00778518
0.00943471
0.00434022
0.00264024
0.0024069
0.00275834
0.00442783
0.00509597
0.00535186
0.00545486
0.00537585
0.00566189
0.00593517
0.00599855
0.00563951
0.00405649
0.00197975
0.00131403
0.00119849
0.00125008
0.00190358
0.00390183
0.00763237
0.00819837
0.00811252
0.00798923
0.00792893
0.0080085
0.00802869
0.00816429
0.00823743
0.00811294
0.00706994
0.00358654
0.00224587
0.00221997
0.00245453
0.00342541
0.00638027
0.0126829
0.0130941
0.010231
0.00873968
0.00917416
0.0119904
0.0168606
0.0186274
0.0188458
0.0186091
0.0162511
0.00593163
0.00209034
0.00150269
0.00151231
0.00148363
0.00142469
0.00136782
0.00133196
0.00129691
0.00125926
0.00121637
0.00117179
0.00111363
0.00109503
0.00116887
0.00204605
0.00278937
0.00270803
0.00264586
0.0026117
0.00264358
0.00270346
0.00274897
0.00281263
0.00294882
0.00303374
0.00301058
0.0027357
0.00226865
0.00188847
0.00160983
0.00167676
0.00169052
0.00186249
0.00252732
0.0024232
0.00201483
0.00209153
0.00277518
0.00540569
0.00518594
0.00507848
0.00501456
0.00499871
0.00500459
0.00504702
0.00515229
0.00528849
0.00542037
0.00554006
0.00589889
0.00551245
0.00415813
0.00340049
0.00308352
0.00293691
0.00290507
0.0029294
0.00304893
0.00335466
0.00395694
0.00536796
0.00662286
0.00783358
0.00932812
0.00476154
0.00267599
0.00242886
0.00294726
0.00464646
0.00508678
0.00529901
0.00525962
0.00512354
0.00543065
0.00581658
0.00589841
0.00537025
0.00348802
0.00173816
0.00123229
0.00117899
0.00130947
0.001936
0.00457377
0.00780059
0.00803603
0.00796651
0.00791401
0.00790745
0.00802686
0.00805997
0.00811893
0.00827331
0.00838104
0.00752607
0.00428624
0.0021704
0.00211741
0.00225714
0.0030836
0.00587022
0.0120781
0.0122995
0.00933284
0.00824395
0.00889909
0.0127182
0.0176238
0.018837
0.0188604
0.0185099
0.015181
0.00419978
0.00167623
0.00151448
0.0015189
0.00148059
0.00141512
0.00135938
0.0013218
0.00128459
0.00124454
0.00120019
0.00115442
0.00110476
0.00110859
0.00127478
0.00237636
0.00278474
0.00269749
0.0026557
0.00264088
0.0026956
0.00277199
0.00284581
0.00296067
0.00310161
0.00314378
0.00311216
0.00281448
0.00233661
0.00197897
0.00167532
0.00173307
0.00171536
0.00192519
0.00264961
0.00239242
0.00198856
0.00207646
0.00275993
0.00537206
0.00523653
0.00515386
0.00510843
0.00509311
0.00509292
0.00512616
0.00521565
0.00533702
0.00545389
0.00555977
0.00590348
0.00562491
0.00428257
0.00340898
0.00309203
0.00296258
0.00294362
0.00298991
0.00314997
0.00352738
0.00428734
0.00593775
0.00701537
0.00799921
0.0081778
0.00481902
0.00292874
0.00263451
0.00356582
0.00487768
0.00510124
0.005191
0.00502696
0.00490066
0.00515372
0.00558647
0.00568791
0.00519611
0.00346115
0.0017087
0.00120144
0.0011406
0.00122381
0.0017293
0.00386615
0.0074062
0.00774088
0.00776978
0.00780357
0.00784993
0.00802795
0.00808343
0.00809577
0.00825863
0.00837967
0.00764214
0.00467189
0.00234412
0.00216286
0.00228063
0.0031363
0.00621328
0.0120981
0.0121167
0.00922227
0.00841019
0.00971453
0.0152598
0.0185006
0.018949
0.0188718
0.0184835
0.0150216
0.0038811
0.00158127
0.00152452
0.00152207
0.0014745
0.00140396
0.00134987
0.00131006
0.00127073
0.00122856
0.00118386
0.0011346
0.00110315
0.00114794
0.00169601
0.00279577
0.00279055
0.00271904
0.0026917
0.00272346
0.00281736
0.00288103
0.00298613
0.00310554
0.00324856
0.00326938
0.00324079
0.00296187
0.00245739
0.00208375
0.00177842
0.00181492
0.00175785
0.00194892
0.00266331
0.00239523
0.00198312
0.00206957
0.0027516
0.00538646
0.00528816
0.00523293
0.00519981
0.00518302
0.00517845
0.00520532
0.00528191
0.00537704
0.00548171
0.0055718
0.00590385
0.00569862
0.00443694
0.00344765
0.00310216
0.00298175
0.00298019
0.00303932
0.00323307
0.00364719
0.00441936
0.00605779
0.00720039
0.00807163
0.00659791
0.00368813
0.00289972
0.00303625
0.0046852
0.00519286
0.00519082
0.00504639
0.0047481
0.00470111
0.00488428
0.00533039
0.00551269
0.0052087
0.00353614
0.00171892
0.00118776
0.00110687
0.00120957
0.00160355
0.00338492
0.00661655
0.00717134
0.00732385
0.00742235
0.00749967
0.00775246
0.00786351
0.00790531
0.00805248
0.0081438
0.00754808
0.00492502
0.00244732
0.00217134
0.00231222
0.00331492
0.00703477
0.0122113
0.0119449
0.00927867
0.00918708
0.011533
0.0168888
0.0187414
0.0189556
0.0188721
0.0185581
0.0159118
0.00421967
0.00156858
0.00153211
0.00152331
0.00146537
0.00139106
0.00133942
0.00129719
0.00125582
0.00121213
0.00116699
0.00111537
0.00111344
0.00124826
0.00231999
0.00285104
0.00278854
0.00276078
0.00275984
0.00283648
0.00293936
0.00304211
0.00307862
0.00319454
0.00333762
0.00335935
0.00332696
0.00304168
0.00250044
0.00218177
0.00193105
0.00194281
0.00182971
0.00197243
0.00262901
0.0024811
0.00199898
0.00205021
0.00273362
0.00540797
0.00534267
0.00530198
0.00527681
0.00526001
0.0052502
0.00527084
0.00533299
0.00540713
0.00549951
0.00558171
0.00589864
0.00572661
0.00455206
0.0034966
0.00311264
0.00299174
0.00300025
0.00308005
0.00329953
0.00370604
0.00431057
0.00572147
0.00709197
0.007884
0.00435902
0.00280879
0.00278042
0.00342913
0.00514548
0.00545318
0.00536174
0.00500544
0.00457776
0.00448769
0.00464767
0.00507498
0.00536888
0.00527837
0.00371081
0.00174639
0.00118469
0.00109406
0.00123284
0.00156179
0.00325812
0.00601603
0.00646114
0.00651968
0.00653998
0.00657148
0.00686072
0.00709869
0.00729265
0.00756073
0.00774759
0.00736573
0.00517848
0.00253667
0.00217226
0.00231067
0.00335181
0.00725673
0.0119011
0.011341
0.00942405
0.0097505
0.0126094
0.0173726
0.0188311
0.0189848
0.0189076
0.0185912
0.0163131
0.0048101
0.00157997
0.00153484
0.00151922
0.00145286
0.00137781
0.00132802
0.00128342
0.00124015
0.00119542
0.00114718
0.00110899
0.00114034
0.00151154
0.00285748
0.002845
0.0028085
0.00280849
0.00285386
0.00294951
0.00306891
0.0031109
0.00317744
0.00332437
0.00337499
0.00338461
0.00330058
0.00291235
0.00248671
0.00246829
0.00241834
0.00232946
0.00198879
0.00201217
0.00252349
0.00266626
0.00207273
0.00203449
0.00271515
0.0054264
0.00537863
0.00535858
0.0053403
0.00532152
0.00530558
0.00531949
0.00536551
0.00542262
0.00550926
0.00558787
0.00586974
0.00571548
0.00462022
0.00353246
0.00312514
0.00299742
0.00300909
0.00310472
0.00335333
0.00373878
0.00427652
0.00571272
0.00698841
0.0061172
0.00333357
0.00275118
0.00295731
0.00426759
0.00565203
0.0058613
0.00558904
0.00498785
0.00454238
0.00437321
0.00449321
0.00485747
0.00529039
0.00534681
0.00378692
0.00179551
0.00123361
0.00112365
0.00125408
0.00154506
0.00318801
0.00561971
0.00589705
0.00588225
0.00586504
0.00588203
0.00610939
0.00637213
0.00667815
0.00706075
0.00740895
0.00726305
0.00547104
0.00264222
0.0021882
0.00231688
0.00337726
0.00738516
0.0117903
0.011105
0.00943226
0.00989502
0.0129609
0.0175796
0.0189386
0.0190676
0.0189829
0.0185888
0.0160604
0.00488063
0.00158155
0.0015393
0.00151034
0.00143839
0.00136534
0.00131499
0.00126877
0.00122369
0.00117855
0.00112392
0.00111073
0.00120138
0.00226659
0.0028997
0.00285259
0.00284611
0.00287273
0.00294074
0.00304958
0.00314723
0.00318863
0.00327068
0.0033361
0.00334709
0.00326931
0.00286685
0.0027975
0.00300663
0.00364082
0.00383407
0.00331558
0.00230184
0.00203961
0.00236502
0.00291278
0.00225552
0.00203265
0.0027148
0.00544788
0.00541724
0.00539874
0.00538807
0.00536667
0.00534675
0.00535202
0.00538558
0.00542898
0.00551453
0.00560069
0.00581943
0.0057038
0.00469389
0.00356761
0.00313472
0.00300047
0.00301126
0.00310826
0.00337797
0.00375546
0.00433773
0.00586551
0.0071687
0.00707625
0.00388894
0.00272226
0.00291379
0.00405613
0.00567928
0.00612034
0.00588988
0.00511491
0.00457155
0.00434798
0.00443454
0.0047579
0.00526246
0.00523656
0.00336132
0.00166049
0.00122082
0.00110075
0.00126526
0.00163287
0.00346036
0.00542997
0.00561483
0.00558952
0.00557902
0.00560426
0.00578501
0.00601756
0.00633201
0.00673209
0.00721259
0.0072349
0.00579992
0.00280093
0.00222343
0.00234314
0.00353119
0.00805236
0.0117975
0.0109561
0.00939315
0.00991365
0.0131076
0.017767
0.0190774
0.0191959
0.0190983
0.0185056
0.0142488
0.00441674
0.00157168
0.00154137
0.00149961
0.00142294
0.00135235
0.00130076
0.00125322
0.00120686
0.00116049
0.0011072
0.00112054
0.00132185
0.00263892
0.00290864
0.00287853
0.00289559
0.00294398
0.00303373
0.00312436
0.00317847
0.00328688
0.00334109
0.00335573
0.00336382
0.00338686
0.00355432
0.00422782
0.00597006
0.00693348
0.00651283
0.00419001
0.00257204
0.00201796
0.00227448
0.00299921
0.00252898
0.00205116
0.00278938
0.00545666
0.00544439
0.00543334
0.00542594
0.00540066
0.00538184
0.00537866
0.00539988
0.00543154
0.00551985
0.00563879
0.00576105
0.0057601
0.00499417
0.00365805
0.00315846
0.00300309
0.00300746
0.00310407
0.00337157
0.00375352
0.00436342
0.00590593
0.00663811
0.00389315
0.00268057
0.00262862
0.00295172
0.00412639
0.00569579
0.00615393
0.00598198
0.00536349
0.00468692
0.00438606
0.00443369
0.00473857
0.00513814
0.00429717
0.00205884
0.00130916
0.00118716
0.00121109
0.00145802
0.00196663
0.00408054
0.00515716
0.00538292
0.00544216
0.0054608
0.00549712
0.00565697
0.00586355
0.0061658
0.0065326
0.00710456
0.00725824
0.00615558
0.00304626
0.00226842
0.00235495
0.00372666
0.00898757
0.0116507
0.0104109
0.00921758
0.00984315
0.0132422
0.0178956
0.0192225
0.0193663
0.019249
0.018042
0.00919774
0.00275848
0.00156295
0.00154017
0.001488
0.00140687
0.00133875
0.00128545
0.00123687
0.00119025
0.00113986
0.00110257
0.00114831
0.00182539
0.00291397
0.00294316
0.0029274
0.00296451
0.00302687
0.00310668
0.00320732
0.00324186
0.00333113
0.0033797
0.00343146
0.00355583
0.0039568
0.00501374
0.00650789
0.00753452
0.00781008
0.00733738
0.00465721
0.00269959
0.00202968
0.00226372
0.00302077
0.00272285
0.00212433
0.00310026
0.005469
0.00546404
0.00546095
0.00545843
0.00543462
0.00541651
0.00540727
0.00541731
0.00544557
0.00552901
0.00566872
0.00572856
0.00587334
0.00548632
0.00399684
0.00323677
0.00301857
0.00299949
0.00308219
0.00335036
0.00372574
0.00426716
0.00562483
0.00681235
0.00573153
0.00391182
0.00269337
0.00276336
0.0033673
0.00490013
0.00583702
0.00584979
0.00555485
0.00487204
0.00446898
0.00444387
0.00470332
0.0050314
0.00379969
0.00177837
0.00121765
0.00113717
0.00122427
0.00145995
0.00217147
0.00402623
0.00468182
0.00497524
0.00526918
0.00538661
0.00542688
0.00559939
0.00579666
0.00608456
0.00642052
0.00702085
0.0073123
0.00655814
0.00344601
0.00232308
0.00235205
0.00375857
0.00917506
0.0111432
0.00958916
0.00894099
0.00973179
0.0133655
0.0178749
0.0193367
0.0195722
0.0194605
0.0177409
0.00639013
0.0019925
0.00156466
0.00153719
0.00147649
0.00139069
0.00132444
0.00126906
0.00122006
0.00117437
0.00112046
0.00110846
0.00122353
0.00239868
0.00298179
0.0029665
0.00299136
0.0030426
0.00312583
0.00316806
0.00329301
0.00331447
0.00336055
0.00345045
0.00365638
0.00424677
0.00550493
0.00666898
0.00740334
0.00787162
0.00806143
0.00775171
0.00519266
0.00284234
0.00206798
0.0022482
0.00300552
0.00300059
0.00227733
0.00374318
0.00548569
0.00549026
0.00549405
0.00549766
0.00547533
0.00546016
0.00544703
0.00544554
0.00547403
0.00553641
0.00566895
0.00571957
0.00588241
0.00558391
0.00422444
0.00336234
0.00306056
0.00300379
0.00306726
0.00331192
0.00371386
0.00410072
0.00472445
0.00622479
0.00565559
0.0051339
0.00360433
0.00303861
0.00321214
0.00409235
0.00533347
0.00565235
0.00552285
0.00506719
0.00460161
0.00446719
0.00468147
0.00497945
0.0036193
0.00165576
0.00115868
0.0010884
0.00115439
0.00140252
0.00229542
0.00374009
0.00394411
0.00417845
0.00498697
0.00524426
0.00531392
0.00554548
0.00574327
0.00601796
0.00634269
0.00692673
0.00736412
0.00693557
0.00413572
0.0024185
0.00228026
0.00329853
0.00758976
0.0101452
0.00893265
0.00868523
0.00958748
0.0132215
0.0175867
0.0193908
0.0198025
0.0197447
0.0179583
0.00590827
0.00186419
0.00157184
0.00153193
0.00146324
0.0013752
0.00130875
0.00125202
0.00120324
0.00115797
0.00111498
0.00113086
0.00141417
0.00285061
0.00298775
0.00299069
0.00305607
0.00312911
0.00319761
0.0032542
0.00333552
0.00337855
0.00345579
0.00368977
0.00439632
0.00567312
0.00673235
0.00740468
0.00776916
0.00803509
0.00814108
0.00789398
0.00537343
0.00290258
0.00212352
0.00222725
0.00300672
0.00337745
0.00248839
0.00405766
0.00550853
0.00552212
0.00553369
0.00554167
0.00552265
0.00551139
0.00549646
0.0054864
0.0055125
0.00555986
0.00567861
0.00572058
0.00587723
0.00564121
0.0044018
0.003442
0.00310036
0.00301726
0.00306676
0.00327873
0.00372863
0.00410644
0.00437054
0.00486029
0.00466925
0.00443508
0.00373881
0.00325841
0.00330675
0.00378146
0.00480875
0.00539228
0.00544291
0.00519584
0.00472739
0.00451054
0.00465241
0.00496847
0.00360673
0.00161455
0.00115234
0.00108373
0.00114976
0.0013565
0.00226389
0.00337691
0.00342475
0.00364186
0.00451229
0.00491346
0.00502496
0.00544106
0.00566854
0.00594373
0.00625949
0.00683374
0.00738299
0.00726646
0.00519911
0.00267217
0.00219972
0.00237501
0.00409598
0.00829008
0.00843607
0.00850548
0.00945901
0.0127854
0.0173896
0.0195034
0.0200358
0.020044
0.0189288
0.00691412
0.00195993
0.00158079
0.00152537
0.00144779
0.00136
0.00129171
0.00123493
0.00118671
0.00113856
0.00111552
0.0011915
0.00203061
0.0029819
0.00301376
0.0030503
0.00313232
0.003212
0.00326929
0.00336222
0.00338073
0.00342577
0.00356539
0.0040213
0.00515547
0.00636271
0.00719149
0.00766362
0.00793246
0.00810703
0.00817291
0.00792454
0.00532428
0.00292117
0.00224004
0.0022734
0.00310901
0.00357686
0.00269269
0.00361373
0.00553307
0.00555536
0.00557219
0.00558165
0.00557201
0.00556625
0.00555273
0.00553384
0.00555702
0.00559275
0.00569561
0.00574117
0.00590431
0.00566372
0.00437835
0.00342375
0.00309894
0.00301958
0.00307066
0.00329022
0.00375923
0.00414764
0.00429031
0.00449896
0.00434731
0.00397088
0.00316513
0.00301038
0.00320733
0.00398771
0.00500477
0.00544593
0.00547462
0.00530677
0.00480613
0.00455078
0.00465813
0.0049317
0.0035499
0.00155921
0.00112733
0.00108061
0.00117788
0.00134162
0.00214406
0.00311174
0.00311976
0.00318644
0.00367727
0.00422975
0.0045164
0.00518957
0.00554013
0.00584039
0.00617754
0.00672843
0.00736571
0.00749487
0.00599914
0.00324669
0.00220701
0.00205337
0.00264153
0.00528427
0.00744193
0.00804873
0.00921294
0.0125649
0.01789
0.0199322
0.0203073
0.0203031
0.0194117
0.00864727
0.00214999
0.00158807
0.00151879
0.00143046
0.00134413
0.00127454
0.00121814
0.00117006
0.00112104
0.00112883
0.00137038
0.00258923
0.00304264
0.00304225
0.00313056
0.00321235
0.00328253
0.00333729
0.00340982
0.00342813
0.00350803
0.00379531
0.00471275
0.00610026
0.00708135
0.00766488
0.00796733
0.00806625
0.00813802
0.00815272
0.00788691
0.00519621
0.00290952
0.00237904
0.00246099
0.0033381
0.00369432
0.00278087
0.00281949
0.00553463
0.00557812
0.0056031
0.00561701
0.00561656
0.00560687
0.00560092
0.00558011
0.00559797
0.00562924
0.00572533
0.00577916
0.00593877
0.00572175
0.00443642
0.00342421
0.00309433
0.00302565
0.00308679
0.00333133
0.00381279
0.00416969
0.00422835
0.00439536
0.00421681
0.00325223
0.00278412
0.00281574
0.00320438
0.00426363
0.00520013
0.00554213
0.00553762
0.00540194
0.00490162
0.00462759
0.004696
0.00474506
0.00318908
0.00146063
0.00116425
0.00110739
0.00119509
0.00134199
0.00212558
0.00277951
0.00263268
0.00255797
0.0026633
0.00320488
0.00413504
0.00492939
0.00540261
0.00576636
0.00613096
0.00663521
0.00734252
0.00763007
0.00645736
0.00374934
0.00233908
0.00202189
0.00234854
0.00368645
0.00598184
0.0072575
0.0094805
0.0152182
0.0193741
0.0203521
0.0204936
0.0204062
0.0194633
0.00927833
0.00224722
0.00160332
0.0015109
0.00141306
0.00132773
0.00125724
0.00120156
0.00115089
0.00111699
0.00116287
0.00174481
0.00302278
0.00306348
0.003099
0.00319965
0.00328411
0.00336411
0.00340673
0.00343333
0.00349998
0.00368745
0.0043681
0.00586089
0.00698562
0.00761982
0.00795827
0.00811283
0.00811273
0.00813471
0.00813166
0.00779704
0.00493993
0.00280323
0.00239209
0.0025716
0.00359382
0.00414321
0.00302437
0.00257169
0.00554508
0.00558957
0.00561402
0.00562411
0.00563475
0.00564524
0.00562131
0.00561482
0.00562528
0.00566023
0.00576198
0.00581405
0.00595158
0.00574472
0.00450318
0.00344471
0.0031016
0.00304072
0.00312515
0.00342352
0.00387462
0.0041374
0.00415983
0.00430041
0.00414227
0.00321711
0.00279335
0.00284782
0.00329901
0.00436984
0.00522786
0.00557143
0.0055807
0.00546936
0.00500421
0.00470085
0.00478844
0.00461428
0.00267209
0.00144172
0.00116464
0.00109535
0.00120864
0.00142672
0.00222517
0.00262439
0.00243107
0.00231741
0.00232785
0.00276349
0.00402821
0.00485139
0.00536186
0.00574883
0.00611398
0.00660664
0.00731423
0.00772463
0.00690063
0.00396857
0.00238804
0.00206045
0.00277056
0.00472772
0.00618978
0.00747871
0.0107819
0.0169673
0.019775
0.0204818
0.0205794
0.0204267
0.0191511
0.00943312
0.00228201
0.00160997
0.00150084
0.00139525
0.0013107
0.00123967
0.00118536
0.0011285
0.00112015
0.00124957
0.00245624
0.00305982
0.00308135
0.00316041
0.00326449
0.00334986
0.00340998
0.00345183
0.00349715
0.0036475
0.00414169
0.00562733
0.00694365
0.00760791
0.00794112
0.00811227
0.00817344
0.00813855
0.00812518
0.00807641
0.00751692
0.0046057
0.00272369
0.00236497
0.00252474
0.00346448
0.00461095
0.00426054
0.00405555
0.00557214
0.00559184
0.00560575
0.00561937
0.00563132
0.00563348
0.00564215
0.00561975
0.00563904
0.00568303
0.00579603
0.00584092
0.00593255
0.00574933
0.00453379
0.00348031
0.00312273
0.00307242
0.0031943
0.00355956
0.00393428
0.00409877
0.00406458
0.00419247
0.00411066
0.00338342
0.00291311
0.00295535
0.0033732
0.00436236
0.00519779
0.00556545
0.00560621
0.00551912
0.00507557
0.00478691
0.00483578
0.00402424
0.00186766
0.00131532
0.00116599
0.00115083
0.00126569
0.00151029
0.00237931
0.00256252
0.00238814
0.00227487
0.00227576
0.00270757
0.00401253
0.00484321
0.00535901
0.00578627
0.00616417
0.00660766
0.00730449
0.00782383
0.00720863
0.00417654
0.00245969
0.00203086
0.00293669
0.00533532
0.0067053
0.00842993
0.0126799
0.0176784
0.0198798
0.0205385
0.0206122
0.0203517
0.0177217
0.00752107
0.00219341
0.00160535
0.001487
0.0013777
0.00129268
0.00122248
0.00116825
0.00111493
0.00113221
0.00139499
0.0028378
0.00307814
0.0031104
0.00321572
0.00333158
0.00342556
0.00346597
0.00348557
0.00363991
0.00400839
0.00525051
0.00687519
0.00761953
0.00791583
0.0080928
0.00818951
0.00820163
0.00813893
0.00808806
0.00796818
0.00731778
0.00452627
0.00273446
0.00236297
0.00248563
0.00320777
0.00464263
0.00505984
0.00500124
0.00556073
0.00553656
0.00552011
0.00554525
0.00561615
0.00563235
0.00562443
0.00562101
0.00564095
0.00569694
0.00582278
0.0058753
0.00592805
0.0058387
0.00469206
0.00355234
0.00316298
0.00313027
0.00330262
0.00370395
0.00395071
0.00402146
0.00416194
0.00397308
0.00389163
0.00331579
0.00302311
0.0030762
0.00350202
0.00442657
0.00520491
0.005567
0.0056383
0.00555461
0.00517807
0.00488521
0.00477772
0.003465
0.00159623
0.00124048
0.00114673
0.00112297
0.00123979
0.00152714
0.00243396
0.00255346
0.00238127
0.00229299
0.00230546
0.00274859
0.00404561
0.00486582
0.0053878
0.00585278
0.00626442
0.00667436
0.007301
0.00798772
0.00769097
0.00465387
0.00257603
0.00202275
0.00259719
0.00460152
0.0065365
0.00874693
0.0131605
0.0176232
0.0198104
0.0205366
0.0206146
0.0201908
0.0147425
0.00411253
0.00193273
0.00159441
0.00147172
0.00136084
0.00127401
0.00120617
0.00115023
0.00111119
0.0011625
0.0019494
0.00302613
0.00310642
0.00316281
0.00327444
0.00338397
0.00345529
0.00349586
0.00356769
0.00393111
0.00460062
0.00639815
0.0074933
0.00791558
0.00807624
0.00819575
0.00824638
0.00822022
0.00811972
0.00794457
0.00778505
0.00723763
0.00488561
0.00298035
0.00250837
0.00258301
0.00316591
0.00458647
0.00533188
0.00528159
0.00550478
0.00533942
0.0052965
0.00541665
0.00559912
0.0056051
0.00557643
0.00562154
0.00564278
0.00570954
0.00584882
0.00591733
0.00593565
0.00604452
0.00526256
0.00372836
0.00323422
0.00321131
0.00345344
0.00382865
0.00395337
0.00396947
0.00413253
0.0039087
0.0032119
0.0030089
0.003002
0.00319006
0.00383135
0.00469471
0.00531633
0.00561835
0.00567776
0.0055833
0.00522018
0.00494114
0.00467678
0.00309804
0.00144069
0.00115891
0.00111583
0.00110067
0.00119291
0.00169964
0.0025565
0.00255995
0.0023645
0.00229099
0.0023166
0.00272704
0.00395841
0.004832
0.00538837
0.00587876
0.00633203
0.00672878
0.00728845
0.00813674
0.00812541
0.00514534
0.00264452
0.00209627
0.00258737
0.00428838
0.00620399
0.00871951
0.0129714
0.0172511
0.0195906
0.0204703
0.0206419
0.020167
0.0130694
0.00302364
0.00185546
0.00159419
0.00145979
0.00134463
0.00125545
0.00119052
0.0011315
0.00111747
0.00124053
0.00248226
0.00307575
0.00311241
0.00321008
0.00332268
0.00344421
0.00350785
0.00356211
0.00374401
0.00422902
0.00539024
0.00716309
0.0078675
0.00810942
0.0082113
0.00828308
0.00827868
0.00821201
0.00806165
0.00772564
0.00760488
0.00721331
0.00525447
0.00327846
0.00274239
0.00279948
0.00334439
0.00468908
0.00538677
0.00525551
0.00528015
0.00483979
0.00471866
0.00495578
0.00549301
0.00558678
0.00564007
0.00557682
0.0056507
0.00573778
0.00588373
0.00598286
0.00598356
0.00612523
0.0058474
0.00421972
0.00338136
0.00333977
0.0036255
0.00388381
0.00393054
0.00393063
0.00408141
0.00389142
0.00300945
0.00282585
0.00292623
0.00336839
0.00430169
0.00507884
0.00554551
0.0057581
0.00576554
0.00563612
0.00524287
0.00496334
0.00450731
0.00266355
0.00133026
0.00108147
0.00109462
0.00114354
0.00121067
0.0017777
0.00262189
0.0025464
0.00234913
0.00229509
0.00235338
0.00265326
0.00380048
0.00479565
0.00540861
0.005955
0.00641794
0.00681382
0.00731892
0.00816919
0.008253
0.0052903
0.00268052
0.00218982
0.00281692
0.00461104
0.00632289
0.00854577
0.0123262
0.0165021
0.0190936
0.0202658
0.0207002
0.0203938
0.0135657
0.00287131
0.00186484
0.0016077
0.00145251
0.0013297
0.00123722
0.00117417
0.00112016
0.00113505
0.00141073
0.00289064
0.00307212
0.0031226
0.00323932
0.00337061
0.00347119
0.00352541
0.0036259
0.00390268
0.00453064
0.00632376
0.0077901
0.00818702
0.00829451
0.00834125
0.00835021
0.00829099
0.00816217
0.00789049
0.00749676
0.00743036
0.00710946
0.00537869
0.00341829
0.00292287
0.00302744
0.00366757
0.00491261
0.00535101