FoamFile
{
    version     2.0;
    format      ascii;
    class       volVectorField;
    object      U;
}
dimensions      [0 1 -1 0 0 0 0];

internalField   nonuniform List<vector>
16320
(
(-0.04562528230583489 0.04596836397717011 0.0)
(-0.09430587804081056 0.04616366892553669 0.0)
(-0.14322783842859893 0.04899789065609459 0.0)
(-0.19570339320405403 0.051803074790224196 0.0)
(-0.24836606513457066 0.05324750261540566 0.0)
(-0.30316133624089087 0.054632102795871884 0.0)
(-0.3579895474475754 0.05552573538234694 0.0)
(-0.41399643768591904 0.05632486515373499 0.0)
(-0.4698460648508473 0.056616644351940575 0.0)
(-0.5260158959577417 0.05682862447061049 0.0)
(-0.5818690563274503 0.05673831740552275 0.0)
(-0.6374330378457486 0.05656624524699165 0.0)
(-0.6925478669458569 0.05608247564629287 0.0)
(-0.746835208405901 0.0555191199683391 0.0)
(-0.8005517691853555 0.05471284129401871 0.0)
(-0.8529885871547791 0.05379876988541008 0.0)
(-0.9046972939400901 0.05260681050389091 0.0)
(-0.9546521066923759 0.051281136770001144 0.0)
(-1.003669056819883 0.04969324603715815 0.0)
(-1.0504590387987118 0.04794763090558376 0.0)
(-1.096057610165997 0.045927707340118314 0.0)
(-1.1389478715325325 0.04375905553285964 0.0)
(-1.1803964594737102 0.04136643588779241 0.0)
(-1.218723881539675 0.03886803049047709 0.0)
(-1.255430567423224 0.03621010798843818 0.0)
(-1.2887211931125173 0.03353567760757746 0.0)
(-1.3203593128353042 0.030831735153304143 0.0)
(-1.3485042496379038 0.02824893964280524 0.0)
(-1.3752084907035633 0.02579186080866423 0.0)
(-1.3986295961421902 0.023602985016919244 0.0)
(-1.4211022028510427 0.02160432408491025 0.0)
(-1.4406541474167218 0.019633117660933702 0.0)
(-1.4593579061686526 0.017069627864116425 0.0)
(-1.4740815285559683 0.013196251316876116 0.0)
(-1.4855198060823873 0.007428836044689077 0.0)
(-1.4893705637831613 0.00016532010952186195 0.0)
(-1.4870549939529232 -0.007322601960308568 0.0)
(-1.4766976612683174 -0.013440106294260476 0.0)
(-1.462786740205161 -0.017454645907551143 0.0)
(-1.4448206280189424 -0.019566634400445145 0.0)
(-1.4268595787358356 -0.020599120170122828 0.0)
(-1.4067981393496125 -0.021229617824897382 0.0)
(-1.3874283005380652 -0.02189586058556142 0.0)
(-1.3658501733324477 -0.02268420058064741 0.0)
(-1.3447329182397458 -0.02362558464329156 0.0)
(-1.3211333648361454 -0.024650145725360794 0.0)
(-1.2978648884381787 -0.025745147947074696 0.0)
(-1.2720005149189924 -0.026832808996802383 0.0)
(-1.2464932799386752 -0.027891428542934343 0.0)
(-1.218441654650639 -0.028840022932427274 0.0)
(-1.1909490670943534 -0.02962145797888143 0.0)
(-1.1612115683579074 -0.030096310375853686 0.0)
(-1.1325969357114576 -0.03012789600608395 0.0)
(-1.1025743771533714 -0.029509924786063745 0.0)
(-1.0749562520959666 -0.028062230179092575 0.0)
(-1.047626575373935 -0.025633202273063163 0.0)
(-1.0247839247186235 -0.022264827444194703 0.0)
(-1.0043311043939065 -0.01826123484652144 0.0)
(-0.98993644541667 -0.01430165158848455 0.0)
(-0.9780755690325907 -0.011336597589273991 0.0)
(-0.04595568441854971 0.09464895971214578 0.0)
(-0.09489717891547181 0.09496494698691871 0.0)
(-0.14407022488653762 0.09969664823771632 0.0)
(-0.19671331978106377 0.10437218814321007 0.0)
(-0.24952475299359486 0.10697647413382408 0.0)
(-0.3044015629117415 0.10944384395237423 0.0)
(-0.3592832513019631 0.11094328610486102 0.0)
(-0.4152819608380835 0.11225312385537094 0.0)
(-0.4710898771724796 0.1126263734878519 0.0)
(-0.5271644984229887 0.11284012020891204 0.0)
(-0.5828899903868492 0.11244688834952618 0.0)
(-0.6382845128380692 0.11190565055619489 0.0)
(-0.6932053750128275 0.11078356092636914 0.0)
(-0.7472726110326338 0.10952107108808842 0.0)
(-0.8007564698712444 0.10778953066845776 0.0)
(-0.8529509429273467 0.10587153226277737 0.0)
(-0.904416299084828 0.10343857027268925 0.0)
(-0.9541310959457062 0.1007670182098976 0.0)
(-1.002915048671746 0.09759671209032617 0.0)
(-1.049483624335673 0.0941419075786407 0.0)
(-1.0948704167974546 0.09017212370702861 0.0)
(-1.1375619410378062 0.08592848018671628 0.0)
(-1.1788183634154443 0.0812544408913637 0.0)
(-1.216962318125497 0.07638508446523404 0.0)
(-1.2534818632554494 0.07120876377485928 0.0)
(-1.2865802571697156 0.06600005031361754 0.0)
(-1.318002272737511 0.06072326341599746 0.0)
(-1.3459005361444025 0.05567352857693474 0.0)
(-1.3723003230514297 0.05085453406080738 0.0)
(-1.3953501153742476 0.04654984109065902 0.0)
(-1.4173654229328052 0.04261659972217603 0.0)
(-1.4363961000406917 0.03876096931973862 0.0)
(-1.4545501759415775 0.03378331843373975 0.0)
(-1.4687863885414567 0.02627720127374349 0.0)
(-1.479881247059787 0.01507335365828556 0.0)
(-1.4836181563847608 0.0009329140447897612 0.0)
(-1.4814399873190776 -0.013659053217730593 0.0)
(-1.4714692098083413 -0.025574233168141468 0.0)
(-1.4581231145900162 -0.03339316253223859 0.0)
(-1.440824398850863 -0.03753021513510797 0.0)
(-1.423530160796371 -0.03961036450478774 0.0)
(-1.4040850711079507 -0.04094525692378252 0.0)
(-1.3852410293273922 -0.04236984359414383 0.0)
(-1.3641127893344458 -0.04403189172980708 0.0)
(-1.3433677324032358 -0.04598398889144272 0.0)
(-1.3200926500052335 -0.04808416062614442 0.0)
(-1.297098203190915 -0.05031157290565121 0.0)
(-1.2714797357035381 -0.05251861324655408 0.0)
(-1.2461732479288647 -0.05467085867711111 0.0)
(-1.2182863348405955 -0.05661212935458823 0.0)
(-1.1908907041234094 -0.05823650112524719 0.0)
(-1.1611784464702004 -0.05927237606730155 0.0)
(-1.1324734389205717 -0.059446491608351935 0.0)
(-1.102246272836342 -0.05833026659380924 0.0)
(-1.0742940400154195 -0.05553613106881072 0.0)
(-1.0465634367815873 -0.050719365961734715 0.0)
(-1.0233256148163787 -0.04391256293420902 0.0)
(-1.0026545433562615 -0.035684974497498204 0.0)
(-0.9883646562492271 -0.02742941926914242 0.0)
(-0.9770545048326307 -0.021196594789050748 0.0)
(-0.048920287427820494 0.14385135297101428 0.0)
(-0.09989242077609235 0.1442782093935246 0.0)
(-0.15100824089518292 0.15081403152168657 0.0)
(-0.2046620860108497 0.15725760289728144 0.0)
(-0.2583666148632143 0.16093574574608333 0.0)
(-0.313629902111974 0.16439060110424014 0.0)
(-0.3687521142722559 0.16640613330868895 0.0)
(-0.42460992940641823 0.16813149102425146 0.0)
(-0.4801192746668431 0.16849918193684588 0.0)
(-0.5356102386875813 0.16862873768498013 0.0)
(-0.5906010559409018 0.16785833182060314 0.0)
(-0.6450296339736703 0.16688162987297 0.0)
(-0.6988649171312546 0.16507057384085747 0.0)
(-0.7516869245870784 0.16307021482675593 0.0)
(-0.8038517769904684 0.16039117318873172 0.0)
(-0.8546300544921229 0.15745859909899373 0.0)
(-0.9046579465767361 0.15378696352225035 0.0)
(-0.9529022388741188 0.14977988635691902 0.0)
(-1.000241711143225 0.14504577442712496 0.0)
(-1.0453806795104368 0.1399029990312923 0.0)
(-1.0894005209663389 0.13400602404225145 0.0)
(-1.1307751492346967 0.12770700215084957 0.0)
(-1.1707977506068683 0.12076681297548324 0.0)
(-1.20777077189046 0.1135315303304822 0.0)
(-1.2432002015160208 0.1058280470326569 0.0)
(-1.2752569147365922 0.09805608708963882 0.0)
(-1.305682018981943 0.09015201412799097 0.0)
(-1.3325725293896638 0.08254698995672395 0.0)
(-1.3579191284024545 0.07524144003850912 0.0)
(-1.3797862907262781 0.06866808489829483 0.0)
(-1.40043678311601 0.06265030875135456 0.0)
(-1.4178651085490421 0.056817870669706075 0.0)
(-1.4342554898569277 0.04945991636488148 0.0)
(-1.4467794553584312 0.038527322435085644 0.0)
(-1.456630976042265 0.022260603887993172 0.0)
(-1.460015965379842 0.001724060368812307 0.0)
(-1.4586344133596496 -0.019471548536728084 0.0)
(-1.4504771267137988 -0.03675697902332191 0.0)
(-1.4395783645132763 -0.04809945686502959 0.0)
(-1.4248886579886546 -0.054159588194090134 0.0)
(-1.410058863713153 -0.057338447913035016 0.0)
(-1.392777933438997 -0.05951874929387618 0.0)
(-1.3758104061714724 -0.06186814235906636 0.0)
(-1.3563057692156968 -0.06455749750480387 0.0)
(-1.3370086774448775 -0.06764572397250393 0.0)
(-1.3150377613576707 -0.07091967493768167 0.0)
(-1.2932592824399478 -0.07435806224877001 0.0)
(-1.2687694956425482 -0.07775776425885238 0.0)
(-1.24452501511471 -0.08108482940587688 0.0)
(-1.2175991356319105 -0.08412256673788297 0.0)
(-1.191053039692652 -0.08672934634927654 0.0)
(-1.1620086542637411 -0.08851357557869116 0.0)
(-1.133748901142315 -0.08906006963994235 0.0)
(-1.103670251510645 -0.08768932369121595 0.0)
(-1.07557713094309 -0.0837450662338473 0.0)
(-1.04744627968184 -0.07660162747210396 0.0)
(-1.0237218979009568 -0.06617372086952059 0.0)
(-1.0027147163536905 -0.053222193413673076 0.0)
(-0.988579049609464 -0.03990169011211529 0.0)
(-0.9781024904600696 -0.029620711749961785 0.0)
(-0.05202139884659149 0.1965932264086895 0.0)
(-0.105145865189132 0.19705290045428112 0.0)
(-0.15832134042542675 0.20446631347247365 0.0)
(-0.2130708134521249 0.21173056211124142 0.0)
(-0.26774199114977404 0.21594429023494838 0.0)
(-0.3234247983122881 0.21982934336141585 0.0)
(-0.3788030050425686 0.2219233133993052 0.0)
(-0.4344946992323316 0.2236202842499582 0.0)
(-0.48965902327189575 0.223626682769015 0.0)
(-0.5444839860588029 0.22332190148297076 0.0)
(-0.5986377240255625 0.2218662836356152 0.0)
(-0.6519706427444085 0.2201695117465477 0.0)
(-0.704576224809561 0.21744085153977716 0.0)
(-0.7559934050010902 0.2145079309473021 0.0)
(-0.8066736486254544 0.21073266057350235 0.0)
(-0.8558662052871037 0.2066777018490452 0.0)
(-0.9042887098268712 0.2017107546546851 0.0)
(-0.9509002522659282 0.1963507827763862 0.0)
(-0.9966398082822967 0.19007515272664413 0.0)
(-1.0402044971934916 0.1833007174017548 0.0)
(-1.0827204905288519 0.17556659343128853 0.0)
(-1.1226536648104848 0.16732570982724576 0.0)
(-1.161323639294835 0.15825006354712695 0.0)
(-1.197016118661027 0.14878753537438646 0.0)
(-1.2312449031405082 0.13869490662099151 0.0)
(-1.2621516700288407 0.12848186777953957 0.0)
(-1.291458463553761 0.11803887806906906 0.0)
(-1.3172019401438837 0.10791063799744646 0.0)
(-1.3413066369022968 0.09806829539742169 0.0)
(-1.3617206879657127 0.08906749580421462 0.0)
(-1.3805696311861893 0.0806954175449401 0.0)
(-1.3957025757140484 0.07257967606065621 0.0)
(-1.4093070263877492 0.06269766524312884 0.0)
(-1.4188723744254874 0.048652687459080836 0.0)
(-1.4263330183179859 0.02830986367969611 0.0)
(-1.4287969151187943 0.0029363513621743615 0.0)
(-1.4285000057321 -0.02319789188377355 0.0)
(-1.4231880017442795 -0.04463028201451491 0.0)
(-1.4160651959900394 -0.05898163125738276 0.0)
(-1.4052057709142793 -0.06704971593523126 0.0)
(-1.3937499694920599 -0.07172108905444545 0.0)
(-1.3792567400770195 -0.07519371446546305 0.0)
(-1.3645840099555748 -0.07884200781744391 0.0)
(-1.3470166127174945 -0.08283362045640202 0.0)
(-1.3294147417966153 -0.08725199674946897 0.0)
(-1.308971269113916 -0.09183355563107412 0.0)
(-1.2886077357190513 -0.0965798386207737 0.0)
(-1.2654455186600881 -0.10125288057179185 0.0)
(-1.2424512367615141 -0.1058412186877489 0.0)
(-1.2166842009894596 -0.11008410477664625 0.0)
(-1.1911789271932955 -0.11382698249341645 0.0)
(-1.1630018419440988 -0.11657651461763859 0.0)
(-1.1353662603683716 -0.11778489436144814 0.0)
(-1.105590040527767 -0.11650203679303414 0.0)
(-1.077421034491944 -0.11176010289761566 0.0)
(-1.0488153419744135 -0.10257459900386788 0.0)
(-1.0242651133561749 -0.08864412626235843 0.0)
(-1.0022088179277013 -0.07082782278899111 0.0)
(-0.9870037997645303 -0.05204164516276341 0.0)
(-0.9756566187526986 -0.03720843720882078 0.0)
(-0.05402583835919 0.2501002856560953 0.0)
(-0.10884035466882078 0.25057815097235986 0.0)
(-0.16363965497676433 0.25873897978467947 0.0)
(-0.21944839411753733 0.2666782536216287 0.0)
(-0.27506377420737155 0.2712897306062465 0.0)
(-0.33117918760249193 0.2754516149970347 0.0)
(-0.3868387012609115 0.27747603422873246 0.0)
(-0.4423837676377188 0.2789875092535786 0.0)
(-0.49723287836600155 0.27848846876331723 0.0)
(-0.5513925799706529 0.2776074384386468 0.0)
(-0.6047237115101735 0.27534498850620875 0.0)
(-0.6569618283141627 0.2728201306569685 0.0)
(-0.7083550871488123 0.26909333609753916 0.0)
(-0.7583734228046928 0.2651676386426494 0.0)
(-0.8075955344159448 0.26026397347474517 0.0)
(-0.8552271851700518 0.2550736603004104 0.0)
(-0.9020892901780408 0.2488210105010749 0.0)
(-0.9471097670537749 0.2421309848123446 0.0)
(-0.9913084550562059 0.23435001935468847 0.0)
(-1.0333531322706617 0.22598368127784746 0.0)
(-1.0744295529809633 0.21645519165924443 0.0)
(-1.112972703200239 0.20631015091683272 0.0)
(-1.150343527557555 0.19512926682602558 0.0)
(-1.1847892302003777 0.18345279417615548 0.0)
(-1.2178448403166533 0.17096359840047043 0.0)
(-1.2476024238478343 0.1582696475028914 0.0)
(-1.27578005988918 0.14520228424303416 0.0)
(-1.3003341121478105 0.13239516330525997 0.0)
(-1.323135992572182 0.1197601878603379 0.0)
(-1.3419908931507916 0.10793107918218728 0.0)
(-1.3588828898641758 0.09663219649969051 0.0)
(-1.3714633406396184 0.08555526587126587 0.0)
(-1.3819121875965727 0.0726297150763203 0.0)
(-1.3880403275625806 0.05555331436532239 0.0)
(-1.3926476407580175 0.032185144581299986 0.0)
(-1.393887235184859 0.00389104778292637 0.0)
(-1.3946545553232723 -0.025080461911242708 0.0)
(-1.3923923314893591 -0.04919178876538242 0.0)
(-1.3893488191627759 -0.0660816876950297 0.0)
(-1.3825699118690566 -0.07647481469206968 0.0)
(-1.3746551938628795 -0.08328747875029503 0.0)
(-1.3630307157280361 -0.08868470883036127 0.0)
(-1.3507047026623769 -0.09410826971859117 0.0)
(-1.3351036181113838 -0.09972676566376334 0.0)
(-1.3192379033120996 -0.10569106757608256 0.0)
(-1.300357715494098 -0.11172668101524576 0.0)
(-1.281463752474046 -0.11788381270259776 0.0)
(-1.259682738553504 -0.12391426321638933 0.0)
(-1.23802149368529 -0.12984614707650546 0.0)
(-1.213510452373354 -0.13539487630610178 0.0)
(-1.189191937236242 -0.14041170539463727 0.0)
(-1.1620615049845737 -0.1443262424036149 0.0)
(-1.13529282519394 -0.1464718710562743 0.0)
(-1.1060801721241469 -0.14563454956764368 0.0)
(-1.0780833108674723 -0.1405197647872007 0.0)
(-1.0490918569418326 -0.12975754860787295 0.0)
(-1.023481274846617 -0.11278024491623284 0.0)
(-0.9995167172359444 -0.09048350700531774 0.0)
(-0.9815177302705853 -0.06645388928711794 0.0)
(-0.9666010720580293 -0.047028521689427005 0.0)
(-0.05607932983209779 0.3062222590279511 0.0)
(-0.1125941037922866 0.30666671707185544 0.0)
(-0.16902518676208 0.3150743529211902 0.0)
(-0.22587211453185368 0.3231546813418486 0.0)
(-0.2824069799865 0.327675083719903 0.0)
(-0.33891294826130963 0.3316042704149558 0.0)
(-0.3948062712606198 0.3331278934345321 0.0)
(-0.45013992862327756 0.3340144613550482 0.0)
(-0.5046031859660716 0.3326354951019491 0.0)
(-0.5580143102119933 0.3308127346271427 0.0)
(-0.6104344759949059 0.327435531979125 0.0)
(-0.66148043797307 0.3238008873851866 0.0)
(-0.7115615265837141 0.31885244603030727 0.0)
(-0.7600786697993235 0.31374837821443446 0.0)
(-0.8077405996156081 0.3075864229388613 0.0)
(-0.8537113626291245 0.30117145761114134 0.0)
(-0.8989162167901864 0.29359333653840824 0.0)
(-0.9422558340267121 0.2855699476545512 0.0)
(-0.9848283482372923 0.276318517943531 0.0)
(-1.0252769914972177 0.2664218153265123 0.0)
(-1.0648433189230235 0.2551861643608657 0.0)
(-1.1019377966321335 0.24323968440383759 0.0)
(-1.1379563782001585 0.2300665905472656 0.0)
(-1.1711155274964027 0.21628884813348448 0.0)
(-1.2029658167334623 0.20150810026844804 0.0)
(-1.231560330571556 0.18641708735206627 0.0)
(-1.2586086295220527 0.17077056636904533 0.0)
(-1.2820043179093616 0.15526657068044838 0.0)
(-1.3035718157969327 0.13972507640040271 0.0)
(-1.3210099034503042 0.12481439309620856 0.0)
(-1.3361940911198897 0.11016786503376694 0.0)
(-1.3466426547396786 0.09560897379305319 0.0)
(-1.3545457983591276 0.07927465216609096 0.0)
(-1.3579843034522758 0.059388140620525505 0.0)
(-1.3604152288559153 0.034156771301974635 0.0)
(-1.3607823017361171 0.004943265927429109 0.0)
(-1.3624677525879851 -0.02469279557927341 0.0)
(-1.3626988312516162 -0.04993601817501133 0.0)
(-1.3630057302904575 -0.06880405087768522 0.0)
(-1.3596633014404926 -0.08174334123512748 0.0)
(-1.3548371703086686 -0.09126028519546603 0.0)
(-1.3458345867397916 -0.09914420566596578 0.0)
(-1.3357471788268782 -0.10676910543409626 0.0)
(-1.322103342309965 -0.11430041980667938 0.0)
(-1.3080145441916302 -0.12199789936675483 0.0)
(-1.2907832957843837 -0.12960770646912756 0.0)
(-1.2734645523864785 -0.1372548155613674 0.0)
(-1.2532055084434055 -0.14469513936054787 0.0)
(-1.233046302546975 -0.1520135048678991 0.0)
(-1.2100207283796514 -0.15891366122569428 0.0)
(-1.187182988415918 -0.16527592988219664 0.0)
(-1.1615006730902258 -0.17047562665994065 0.0)
(-1.1361105021692033 -0.1737662272218751 0.0)
(-1.108097392643992 -0.17371155111950165 0.0)
(-1.0809579072581095 -0.16874841807992982 0.0)
(-1.0522051947932896 -0.15717663502472326 0.0)
(-1.0258530268790578 -0.13821926596824677 0.0)
(-0.9997035250812326 -0.11279136736502288 0.0)
(-0.9777000895392034 -0.08495729034067848 0.0)
(-0.9569715841689775 -0.061981287322087346 0.0)
(-0.057779109783515296 0.36312983357647294 0.0)
(-0.11563441505194384 0.3635240079023421 0.0)
(-0.17334929425301476 0.3720169905242465 0.0)
(-0.23099760876657682 0.3800600468460487 0.0)
(-0.2882318216235991 0.38433056433570245 0.0)
(-0.34499078561099805 0.3878509062711545 0.0)
(-0.4009978339365853 0.3887030145907004 0.0)
(-0.4560310963480173 0.3887844239590304 0.0)
(-0.5100392978794156 0.386362850352033 0.0)
(-0.5626464083305225 0.38343872846748117 0.0)
(-0.614120979683099 0.3788111162672854 0.0)
(-0.6639451334151594 0.37394718124577664 0.0)
(-0.7127052979167231 0.36769156792379265 0.0)
(-0.7597156325835204 0.3613467116745434 0.0)
(-0.8058306442736124 0.3538966663045462 0.0)
(-0.8501535028451775 0.34624927747498885 0.0)
(-0.8937303575980785 0.3373654818986625 0.0)
(-0.9354158200476651 0.32804311625945043 0.0)
(-0.9764010650329661 0.31737117682519406 0.0)
(-1.0152863189867352 0.3059986519635788 0.0)
(-1.053384746026663 0.2931159967941603 0.0)
(-1.0890648482546728 0.27942321019396765 0.0)
(-1.1237731496716448 0.26430699769029486 0.0)
(-1.1556800929346793 0.24846223270945916 0.0)
(-1.186370984349134 0.23140840147562358 0.0)
(-1.213848333622569 0.2139124602914818 0.0)
(-1.23983847900938 0.1956462715808398 0.0)
(-1.2621739150384939 0.17735834958014007 0.0)
(-1.2826804265173923 0.15876577340128045 0.0)
(-1.2989886465844132 0.14055335450514428 0.0)
(-1.3129714413757494 0.12226494778906502 0.0)
(-1.3221074793928766 0.10390697311050362 0.0)
(-1.328670461663794 0.08397136378891758 0.0)
(-1.3308641232692437 0.06142274486211017 0.0)
(-1.3324219430560142 0.03498314286514119 0.0)
(-1.3325241998935096 0.005943571514996263 0.0)
(-1.3347338559505864 -0.02316393239574375 0.0)
(-1.3361951950665654 -0.048653811062910265 0.0)
(-1.338244170746002 -0.06911721750615324 0.0)
(-1.3368608040296068 -0.08464337467385857 0.0)
(-1.3340405984113437 -0.0971161934509959 0.0)
(-1.326957232915654 -0.10777470031215143 0.0)
(-1.3187013844519564 -0.11783951414841785 0.0)
(-1.3067758050147957 -0.12745940029901143 0.0)
(-1.2943420660769962 -0.13701111410166392 0.0)
(-1.2786923390259086 -0.14627667282039744 0.0)
(-1.2629358049411992 -0.15546160004357593 0.0)
(-1.2442110099976484 -0.164332513055893 0.0)
(-1.2256203682152669 -0.17303092714025964 0.0)
(-1.2041932237437103 -0.18125819043715868 0.0)
(-1.1830444669908442 -0.1889317606840628 0.0)
(-1.159121076167504 -0.19539872865032973 0.0)
(-1.1355801044811051 -0.19987515150250795 0.0)
(-1.1093843814154134 -0.2007871444787374 0.0)
(-1.0838686662479124 -0.19641196263790334 0.0)
(-1.05615930435329 -0.18486242898692454 0.0)
(-1.0297947639630332 -0.16528191462828976 0.0)
(-1.0019030154172017 -0.1386364443451722 0.0)
(-0.9759157165616625 -0.10918583019937302 0.0)
(-0.9488674509861879 -0.08438704394027066 0.0)
(-0.059352164075639764 0.4219328695648082 0.0)
(-0.1184098487541963 0.42223690154135496 0.0)
(-0.17727186172794632 0.4304375466358232 0.0)
(-0.2355786724513389 0.438037208712433 0.0)
(-0.29337523742618293 0.44166826056432423 0.0)
(-0.35025503636368577 0.444370282727942 0.0)
(-0.4062548824201759 0.44416820417155134 0.0)
(-0.4608784331092657 0.4430559252978785 0.0)
(-0.5143377117610324 0.4392508070844543 0.0)
(-0.5660627788421574 0.4348944164308261 0.0)
(-0.6165299892456344 0.42873425706376195 0.0)
(-0.665086650121109 0.42238520561881066 0.0)
(-0.7124939272364746 0.4146229451986682 0.0)
(-0.7579790410153137 0.4068737245713238 0.0)
(-0.8025371931714811 0.39802429320051846 0.0)
(-0.8452117352578005 0.3890711709356074 0.0)
(-0.8871636571040148 0.37885565374089575 0.0)
(-0.927204492333595 0.3682406550894388 0.0)
(-0.9666117221688113 0.356189016882601 0.0)
(-1.0039483626565584 0.3434054963202091 0.0)
(-1.040592937748727 0.3289646936288035 0.0)
(-1.0748800365452476 0.3136280880488194 0.0)
(-1.1083006893683989 0.29668183522727215 0.0)
(-1.1389908932486723 0.27888668281097373 0.0)
(-1.168566696362846 0.2596763409563377 0.0)
(-1.1949955967605388 0.2398845820123123 0.0)
(-1.2200219676606452 0.2190961477849701 0.0)
(-1.2414457206499447 0.1981085181884607 0.0)
(-1.2611141356122983 0.17653980794632215 0.0)
(-1.276649402077452 0.15510540795456565 0.0)
(-1.2899862233588077 0.1332866978422303 0.0)
(-1.2986602340147755 0.11130799408109776 0.0)
(-1.3050470036892583 0.08803129604245816 0.0)
(-1.3073534107770721 0.06313962201274581 0.0)
(-1.309227581168347 0.035816847926240354 0.0)
(-1.3096454336809362 0.007255178822001124 0.0)
(-1.312069784344024 -0.021021800406217574 0.0)
(-1.3137020170264888 -0.04642570337959573 0.0)
(-1.3160977131634464 -0.06813844191464366 0.0)
(-1.3153824111832768 -0.08594691356978576 0.0)
(-1.3135931194764927 -0.10116385630941892 0.0)
(-1.307803897919133 -0.11448341962535302 0.0)
(-1.301010047097424 -0.1269505333349545 0.0)
(-1.2906101437660242 -0.13865973818163965 0.0)
(-1.2797346354660142 -0.15008136535564195 0.0)
(-1.2656388832238952 -0.1610139676049246 0.0)
(-1.2514494477823048 -0.17173614458962758 0.0)
(-1.2343036291999068 -0.18201057608648 0.0)
(-1.2173536425011515 -0.19203129112183717 0.0)
(-1.1976529439503363 -0.20148956245011695 0.0)
(-1.1783819912737135 -0.21034807745840317 0.0)
(-1.156513148136098 -0.21793998916967974 0.0)
(-1.1352371264713959 -0.22350292197396546 0.0)
(-1.1114386259865698 -0.22542298935269434 0.0)
(-1.0882823294233357 -0.22197349514205336 0.0)
(-1.0625203086671664 -0.21125053730960253 0.0)
(-1.037185621055993 -0.19247555490433485 0.0)
(-1.008773900038933 -0.16667041476639358 0.0)
(-0.9802365351729567 -0.13799285477169243 0.0)
(-0.9485413965026718 -0.11335444843202351 0.0)
(-0.06038263475587431 0.48124520293358597 0.0)
(-0.1201777766905965 0.4814437055546486 0.0)
(-0.17973535364416227 0.4891858142213892 0.0)
(-0.2383425803460172 0.49616342254428536 0.0)
(-0.2963683679304629 0.4990069282480493 0.0)
(-0.35311328536233594 0.5007305512651474 0.0)
(-0.408886229095721 0.49932641133628025 0.0)
(-0.4629457358334143 0.4968672532998869 0.0)
(-0.5157450401246161 0.49154719608492464 0.0)
(-0.5665279349844642 0.4856310059520832 0.0)
(-0.615972090767333 0.47783498754623704 0.0)
(-0.6632847795102167 0.4699111192366168 0.0)
(-0.7094010780621848 0.46058395881799735 0.0)
(-0.75344719988754 0.45138997760954985 0.0)
(-0.7965620645661756 0.44112936054703294 0.0)
(-0.8377120272669896 0.43087574140752255 0.0)
(-0.8781782254488654 0.419358238974457 0.0)
(-0.9167111190827696 0.40749118132424694 0.0)
(-0.9546832898564912 0.39411504714815737 0.0)
(-0.9906042461505465 0.3799798675434946 0.0)
(-1.025929434691662 0.36404767068284943 0.0)
(-1.0589446450955562 0.3471309618136395 0.0)
(-1.0912003450442143 0.32841785439371973 0.0)
(-1.1207859504332387 0.3087282397039062 0.0)
(-1.1493665736221819 0.28741310498749006 0.0)
(-1.1748655996086752 0.2653677315892809 0.0)
(-1.1990698822758565 0.2420963954702458 0.0)
(-1.2197455506744566 0.21845051753179326 0.0)
(-1.2387965869392223 0.19396945482878758 0.0)
(-1.2538473238128511 0.16942544225165374 0.0)
(-1.2669412189095666 0.14427577972638858 0.0)
(-1.2756762352929514 0.11896775344095413 0.0)
(-1.2825279742897668 0.09266454055121429 0.0)
(-1.2855975583386565 0.06560332234119881 0.0)
(-1.2882941937467278 0.037275165769005233 0.0)
(-1.2891817447229976 0.00878577469067362 0.0)
(-1.2915385340024144 -0.01910734905019108 0.0)
(-1.2926662714993864 -0.044625882243488006 0.0)
(-1.2945461940118026 -0.06743682334936527 0.0)
(-1.293634282015938 -0.08714796836081237 0.0)
(-1.292158334475046 -0.10469470671513963 0.0)
(-1.2871135026556142 -0.12035777269122018 0.0)
(-1.28139881145323 -0.13503326830152668 0.0)
(-1.2722465610950617 -0.14873481193042118 0.0)
(-1.26273621215819 -0.16198237464379303 0.0)
(-1.250036203760354 -0.1745618605041067 0.0)
(-1.2372941879106782 -0.18679685406756433 0.0)
(-1.2216161041007798 -0.19842831833704638 0.0)
(-1.2062244906869062 -0.20968161238983013 0.0)
(-1.1881780899086674 -0.22022984166459672 0.0)
(-1.1707566419827842 -0.23007155649830127 0.0)
(-1.150948551635868 -0.23854359345264733 0.0)
(-1.1320228851362184 -0.244949673652036 0.0)
(-1.110788835818593 -0.24774194152679752 0.0)
(-1.0903097567010194 -0.24533027995730672 0.0)
(-1.0670011514263218 -0.2359591373542672 0.0)
(-1.043528603455121 -0.219028323256523 0.0)
(-1.0159000002886505 -0.19558553022820857 0.0)
(-0.9868097779701679 -0.16941833373563447 0.0)
(-0.9531674403719315 -0.14641953140810768 0.0)
(-0.06112439118721394 0.5415231534342525 0.0)
(-0.1213760546315491 0.5415896204296429 0.0)
(-0.18135255683063448 0.5486023502912439 0.0)
(-0.24000094888340318 0.5546702229987336 0.0)
(-0.2980112928598127 0.556438965580643 0.0)
(-0.3544048065917272 0.5568881438932001 0.0)
(-0.4097620068949706 0.5540006546426297 0.0)
(-0.4631081431805742 0.5499147363267736 0.0)
(-0.5151352633317077 0.5428330062355042 0.0)
(-0.5649081689033836 0.535121467073543 0.0)
(-0.6132994773797869 0.5254911015895145 0.0)
(-0.6593791243601365 0.5158141929136625 0.0)
(-0.7042449309733608 0.5047853655759916 0.0)
(-0.7469216739665391 0.49403471107531477 0.0)
(-0.788678591603317 0.4822891205799679 0.0)
(-0.8284049007183301 0.4706873318182971 0.0)
(-0.86748830032407 0.45785474555667577 0.0)
(-0.9046205532739123 0.44474571949706465 0.0)
(-0.9412580076578064 0.43008214395037797 0.0)
(-0.9758631106114241 0.41465164115537995 0.0)
(-1.0099590048581304 0.3973050925738132 0.0)
(-1.041792699192381 0.3788989984013716 0.0)
(-1.0729671687034206 0.3585231405649545 0.0)
(-1.1015384515478732 0.3370529113889413 0.0)
(-1.1292149896269967 0.31375599013177424 0.0)
(-1.1538918180158895 0.28958789066598717 0.0)
(-1.1773942761705487 0.26397609885075146 0.0)
(-1.1974724602858635 0.23783522285182648 0.0)
(-1.216081703684904 0.2106415810847168 0.0)
(-1.2308608355494444 0.18325003992490982 0.0)
(-1.2439401715845133 0.15511560932233057 0.0)
(-1.2529627763619227 0.12689474946129792 0.0)
(-1.2604479850193542 0.09795261908816322 0.0)
(-1.264363927212931 0.06890584146970688 0.0)
(-1.2678628816232411 0.039401034310581416 0.0)
(-1.2691403434220072 0.010499519077687725 0.0)
(-1.271312678327038 -0.017537273629828785 0.0)
(-1.2718004728531769 -0.043418043370207646 0.0)
(-1.272985441104613 -0.06717043139809199 0.0)
(-1.2716700317060368 -0.08833477310654234 0.0)
(-1.2702879796438105 -0.10768463566974275 0.0)
(-1.2658018040759074 -0.12524294264716895 0.0)
(-1.261017794017361 -0.14181747489550706 0.0)
(-1.253012581449192 -0.15732233747667976 0.0)
(-1.244786549079902 -0.17229172269034942 0.0)
(-1.2334210729437423 -0.1864559918524362 0.0)
(-1.2220610131605196 -0.2001562442492019 0.0)
(-1.2077902124804838 -0.21308027331025223 0.0)
(-1.1938819672419363 -0.22546930531394974 0.0)
(-1.1774121361663266 -0.23695741115423882 0.0)
(-1.1617399892226248 -0.24757761573120246 0.0)
(-1.1438833077256945 -0.2566737460162456 0.0)
(-1.1271742654710464 -0.26366263779124066 0.0)
(-1.1083842651982923 -0.26713611778789326 0.0)
(-1.0905105234778294 -0.2657611795343244 0.0)
(-1.0697539322265806 -0.25803169055550096 0.0)
(-1.0485558594143318 -0.2435767060420063 0.0)
(-1.0226716282030974 -0.22338924025134665 0.0)
(-0.9947105333234577 -0.20072541468841135 0.0)
(-0.961561434782262 -0.18027829257786773 0.0)
(-0.06135793544544651 0.6017485298222564 0.0)
(-0.12156973126063454 0.6016718711980691 0.0)
(-0.18147966855393538 0.6078107084732433 0.0)
(-0.2397390177400481 0.6128221585734636 0.0)
(-0.2973315626313976 0.6134107859563733 0.0)
(-0.3530459364666141 0.6124812653003053 0.0)
(-0.4077056436199927 0.6080297479251273 0.0)
(-0.460134553560416 0.6022405097366239 0.0)
(-0.5112441193984563 0.593347221807734 0.0)
(-0.5599349707557204 0.5837952200001624 0.0)
(-0.6072609161854315 0.5723059430029899 0.0)
(-0.6521539206522748 0.5608565728301909 0.0)
(-0.6958640717360819 0.5481265084243999 0.0)
(-0.7373037534267808 0.535823638239506 0.0)
(-0.7778654151389544 0.522612587298824 0.0)
(-0.8163454173130905 0.5096854501282756 0.0)
(-0.8542354511921851 0.4955738915300392 0.0)
(-0.8901525118716039 0.48126088865798333 0.0)
(-0.9256400531931777 0.4653576044856691 0.0)
(-0.9590993552470364 0.4486808647438187 0.0)
(-0.9921299545837959 0.4299772592638065 0.0)
(-1.0229282743985486 0.4101391256589297 0.0)
(-1.0531631141685334 0.38816360674921196 0.0)
(-1.0808467904892318 0.3649760606274824 0.0)
(-1.1077470526668765 0.33976647145550626 0.0)
(-1.1317207127211426 0.31354701813283287 0.0)
(-1.1546486481281797 0.28567703774021985 0.0)
(-1.1742518061953617 0.25713794504614856 0.0)
(-1.192547744863094 0.2273578300923685 0.0)
(-1.207161927644794 0.19728391015126287 0.0)
(-1.2202979177621385 0.16637772053886682 0.0)
(-1.2295836006453136 0.13547556687579518 0.0)
(-1.2375549704268098 0.10406569140222256 0.0)
(-1.2420280339179137 0.0730182189450857 0.0)
(-1.2459823981169935 0.04205158197808144 0.0)
(-1.2473465484654944 0.012235571394470516 0.0)
(-1.2491793114446945 -0.016447219619021392 0.0)
(-1.2489943358890294 -0.04295311946591302 0.0)
(-1.249509840937109 -0.06756726449650535 0.0)
(-1.2477810738192698 -0.08984542982161492 0.0)
(-1.2464409213897947 -0.11056293434526905 0.0)
(-1.2424144122535354 -0.12962795831766966 0.0)
(-1.2384538464508554 -0.14782249092824215 0.0)
(-1.2314692248423489 -0.16496605686788038 0.0)
(-1.224399112879585 -0.18157388314924253 0.0)
(-1.2142131571781962 -0.19728739642348886 0.0)
(-1.204071270595096 -0.2124277145308229 0.0)