/*--------------------------------*- C++ -*----------------------------------*\
  =========                 |
  \\      /  F ield         | OpenFOAM: The Open Source CFD Toolbox
   \\    /   O peration     | Website:  https://openfoam.org
    \\  /    A nd           | Version:  10
     \\/     M anipulation  |
\*---------------------------------------------------------------------------*/
FoamFile
{
    format      ascii;
    class       volScalarField;
    location    "0.199606";
    object      rho;
}
// * * * * * * * * * * * * * * * * * * * * * * * * * * * * * * * * * * * * * //

dimensions      [1 -3 0 0 0 0 0];

internalField   nonuniform List<scalar> 
16320
(
0.637522
0.603516
0.577003
0.547677
0.516698
0.487705
0.466081
0.453507
0.451285
0.457626
0.476776
0.509543
0.540198
0.553273
0.548373
0.539487
0.527369
0.514643
0.502525
0.493979
0.498642
0.52296
0.540296
0.550743
0.569244
0.579105
0.596415
0.627215
0.692762
0.735755
0.694373
0.672446
0.671324
0.651513
0.592934
0.556475
0.527432
0.497879
0.470583
0.449353
0.436905
0.433944
0.439148
0.457204
0.4923
0.530439
0.552435
0.552522
0.544776
0.5348
0.527648
0.528221
0.54809
0.572006
0.587345
0.58502
0.584737
0.587188
0.592315
0.607108
0.633584
0.702357
0.718775
0.674752
0.660406
0.661884
0.653085
0.57657
0.537578
0.508553
0.482507
0.455188
0.432794
0.419408
0.415844
0.419889
0.435835
0.471053
0.520716
0.554199
0.561932
0.561336
0.565117
0.580993
0.598877
0.616768
0.625768
0.622399
0.607717
0.596921
0.596084
0.597998
0.610378
0.638503
0.705835
0.697103
0.654598
0.648354
0.652196
0.651865
0.562131
0.522296
0.492401
0.465224
0.44046
0.421322
0.408995
0.405662
0.409166
0.422809
0.454033
0.503361
0.555627
0.586599
0.603091
0.622253
0.640279
0.650415
0.657823
0.654219
0.639248
0.621129
0.602076
0.599732
0.600666
0.612523
0.644682
0.706984
0.679746
0.643528
0.64307
0.648534
0.660436
0.563586
0.519004
0.484421
0.456159
0.433025
0.414618
0.402478
0.39785
0.399821
0.410255
0.436414
0.491151
0.555026
0.60844
0.639901
0.662479
0.67704
0.684076
0.682238
0.66855
0.646578
0.625327
0.605227
0.601142
0.602971
0.615532
0.654124
0.699555
0.660083
0.634748
0.640502
0.647443
0.660244
0.570279
0.525316
0.488477
0.459351
0.432267
0.411334
0.397505
0.391542
0.393358
0.404538
0.431833
0.488128
0.549148
0.602849
0.644922
0.667529
0.685014
0.6915
0.685467
0.666707
0.643395
0.620305
0.602405
0.599599
0.603013
0.618349
0.662999
0.685837
0.644415
0.631287
0.642135
0.649716
0.66589
0.59504
0.548348
0.50788
0.472727
0.438657
0.412768
0.399877
0.393787
0.398166
0.409181
0.442018
0.493504
0.54889
0.596053
0.631395
0.655824
0.673181
0.677989
0.66976
0.651737
0.631502
0.610197
0.598561
0.596371
0.602208
0.621681
0.668032
0.669807
0.634856
0.635622
0.650173
0.65669
0.669936
0.630608
0.586729
0.541851
0.49729
0.461642
0.4342
0.420128
0.412815
0.417932
0.434538
0.470915
0.523699
0.568954
0.604552
0.627975
0.643971
0.652352
0.651312
0.641635
0.627055
0.610649
0.595772
0.590879
0.589075
0.599023
0.6239
0.669782
0.656933
0.634938
0.647063
0.663798
0.665929
0.665074
0.656996
0.630079
0.591629
0.550523
0.522303
0.493746
0.477462
0.476057
0.484988
0.504922
0.542613
0.58451
0.612922
0.626301
0.633079
0.636295
0.630873
0.62159
0.610114
0.598726
0.587757
0.580513
0.577247
0.580528
0.596276
0.626561
0.668237
0.648805
0.64264
0.659725
0.678382
0.672789
0.702687
0.720964
0.706865
0.682689
0.656352
0.641117
0.623417
0.60618
0.601049
0.597432
0.60655
0.619895
0.640664
0.645899
0.645276
0.636433
0.626669
0.612425
0.599721
0.587364
0.577253
0.569458
0.565189
0.564307
0.572402
0.591053
0.637213
0.668561
0.643858
0.651679
0.672085
0.687599
0.673716
0.749778
0.750566
0.721838
0.698384
0.685947
0.680095
0.679573
0.669915
0.668937
0.667104
0.670111
0.673819
0.676133
0.6707
0.657136
0.637293
0.61822
0.598333
0.584396
0.571085
0.561641
0.556327
0.552613
0.553614
0.562433
0.593022
0.653751
0.665444
0.640628
0.653267
0.68361
0.689933
0.665745
0.729506
0.681975
0.619224
0.592251
0.579821
0.574434
0.585119
0.599684
0.631836
0.658026
0.682207
0.689805
0.689193
0.67839
0.65661
0.632318
0.606982
0.587335
0.573954
0.56004
0.55048
0.546921
0.544241
0.5419
0.555417
0.612535
0.663231
0.656871
0.633848
0.654462
0.692546
0.687625
0.647689
0.660039
0.597249
0.57697
0.570998
0.569463
0.568745
0.570565
0.570289
0.575513
0.584787
0.600028
0.624013
0.644322
0.648777
0.637673
0.62137
0.594742
0.577843
0.566238
0.552256
0.543634
0.540742
0.535725
0.531697
0.563695
0.636422
0.66054
0.642647
0.630036
0.659437
0.696136
0.679858
0.611724
0.584599
0.571846
0.569735
0.572959
0.577682
0.584346
0.592466
0.597761
0.599335
0.595577
0.581142
0.55867
0.557925
0.578099
0.585715
0.58975
0.57597
0.567728
0.559857
0.546612
0.540649
0.53602
0.526957
0.531589
0.591016
0.648728
0.646311
0.632675
0.627824
0.667085
0.693343
0.666245
0.58103
0.566492
0.570991
0.5773
0.584638
0.594387
0.606986
0.619976
0.631108
0.63309
0.625662
0.600271
0.558424
0.522494
0.516443
0.537186
0.554333
0.555691
0.557631
0.55347
0.541688
0.537878
0.532274
0.524818
0.548845
0.618449
0.64636
0.63369
0.623157
0.630733
0.672236
0.685116
0.658269
0.57424
0.571218
0.581026
0.590867
0.602051
0.614519
0.628474
0.644737
0.657016
0.661251
0.654448
0.625177
0.570167
0.517564
0.485057
0.496701
0.516792
0.534459
0.547977
0.54737
0.537758
0.536869
0.53431
0.533886
0.581727
0.632461
0.632617
0.623721
0.616013
0.634865
0.669563
0.675934
0.65584
0.582175
0.582293
0.594975
0.607451
0.62021
0.633884
0.647264
0.66215
0.672132
0.673745
0.666896
0.639105
0.58095
0.521804
0.481374
0.486416
0.504342
0.527505
0.543937
0.542757
0.53795
0.539531
0.542966
0.558045
0.611926
0.627549
0.620877
0.614483
0.611436
0.635674
0.664543
0.668866
0.653046
0.594498
0.594265
0.609197
0.62281
0.638076
0.654682
0.669917
0.684807
0.691447
0.68922
0.675881
0.639113
0.585495
0.526555
0.483049
0.483854
0.498847
0.522591
0.540162
0.540127
0.541704
0.548742
0.561347
0.596703
0.61947
0.614576
0.60953
0.606591
0.612378
0.635391
0.660478
0.663826
0.648445
0.592521
0.606564
0.625559
0.642724
0.662484
0.680582
0.695699
0.706918
0.706383
0.699635
0.678104
0.63288
0.582597
0.535415
0.490109
0.483807
0.494057
0.517606
0.536432
0.539895
0.548475
0.569871
0.596774
0.61805
0.612683
0.603198
0.598228
0.600107
0.612091
0.635031
0.659305
0.658084
0.636829
0.580106
0.614354
0.636318
0.657588
0.679884
0.69939
0.713628
0.721787
0.718132
0.705205
0.675823
0.624295
0.567156
0.544962
0.517565
0.500769
0.498055
0.516751
0.536733
0.544962
0.566149
0.606574
0.630168
0.618842
0.599676
0.590193
0.589456
0.598141
0.608208
0.638648
0.65629
0.648216
0.600619
0.546818
0.620162
0.642364
0.663259
0.682971
0.704275
0.719091
0.721133
0.7153
0.704578
0.668082
0.608213
0.550122
0.537899
0.540431
0.525
0.513874
0.524616
0.542197
0.559819
0.602978
0.655171
0.638405
0.60406
0.59023
0.580651
0.585175
0.591017
0.601722
0.641596
0.651084
0.623807
0.559323
0.522528
0.6159
0.635558
0.655038
0.673798
0.695553
0.709618
0.706956
0.701424
0.697436
0.662649
0.59259
0.532989
0.529586
0.543349
0.540124
0.521048
0.538461
0.554201
0.5916
0.662533
0.674788
0.62225
0.595621
0.581214
0.576003
0.579336
0.578601
0.602683
0.637144
0.641425
0.600036
0.541882
0.511471
0.601499
0.613918
0.626876
0.64038
0.656901
0.669179
0.666617
0.664741
0.685569
0.656828
0.581534
0.520819
0.520092
0.540114
0.53902
0.537808
0.551148
0.581844
0.647465
0.721085
0.652366
0.605434
0.587873
0.575344
0.572446
0.568061
0.56732
0.602758
0.62591
0.62844
0.586278
0.539336
0.513086
0.579061
0.585574
0.592461
0.597238
0.604087
0.60543
0.603526
0.609579
0.661848
0.648452
0.569805
0.513304
0.527402
0.543773
0.550811
0.551951
0.577759
0.636258
0.739233
0.693071
0.623428
0.597847
0.581181
0.573384
0.564256
0.554571
0.562602
0.596343
0.610544
0.613369
0.582919
0.541168
0.518062
0.560042
0.562832
0.564996
0.564118
0.5599
0.548854
0.547573
0.562325
0.639639
0.632079
0.556374
0.529366
0.552451
0.564821
0.568675
0.583368
0.633483
0.739097
0.734007
0.647945
0.609646
0.590525
0.579593
0.56773
0.552046
0.544008
0.55789
0.579923
0.588503
0.589999
0.567395
0.521258
0.497468
0.547109
0.549324
0.550596
0.546631
0.532931
0.516806
0.51564
0.540252
0.634026
0.622192
0.565549
0.584273
0.5963
0.598559
0.605975
0.647907
0.739201
0.758941
0.671787
0.622898
0.602283
0.587361
0.574606
0.557384
0.540958
0.537054
0.54308
0.554444
0.556193
0.550785
0.52993
0.487932
0.467377
0.545197
0.548478
0.549057
0.542192
0.523334
0.505498
0.504966
0.5561
0.658857
0.632343
0.623811
0.65531
0.651183
0.648481
0.683489
0.754433
0.770095
0.689915
0.637988
0.613411
0.596328
0.583066
0.565996
0.547505
0.531937
0.524967
0.528069
0.528211
0.518514
0.497655
0.463739
0.44169
0.432061
0.556726
0.560166
0.559097
0.547509
0.522565
0.503046
0.509393
0.60368
0.702457
0.681152
0.720432
0.723186
0.718642
0.743286
0.781961
0.767469
0.697331
0.650514
0.627177
0.608297
0.591344
0.575848
0.556724
0.537527
0.521937
0.51281
0.508984
0.498813
0.475366
0.43949
0.40597
0.389679
0.388502
0.581228
0.583383
0.579133
0.559276
0.526866
0.504816
0.527548
0.67942
0.773652
0.779003
0.799807
0.809799
0.821134
0.801883
0.748471
0.697433
0.663233
0.641241
0.621632
0.604525
0.588766
0.568892
0.548305
0.526446
0.509696
0.50021
0.490233
0.471872
0.444167
0.409432
0.386251
0.3724
0.357977
0.615316
0.615816
0.605489
0.573968
0.535352
0.516678
0.574098
0.805864
0.865469
0.876791
0.87967
0.877846
0.802839
0.723243
0.694474
0.675175
0.660483
0.643506
0.626626
0.609106
0.587583
0.562782
0.537622
0.514613
0.498013
0.485819
0.473281
0.448672
0.422354
0.395027
0.380047
0.370872
0.342421
0.655575
0.651132
0.63233
0.592828
0.548144
0.536674
0.666021
0.954187
0.95003
0.91179
0.897773
0.809462
0.719876
0.69514
0.68948
0.686006
0.676838
0.662566
0.643405
0.620431
0.592467
0.56286
0.533914
0.508834
0.489868
0.473357
0.454806
0.429462
0.402832
0.385683
0.379699
0.368877
0.311765
0.68631
0.679657
0.65978
0.618078
0.568091
0.567132
0.79692
1.05597
0.965511
0.914416
0.852496
0.751147
0.689485
0.696401
0.703951
0.706731
0.703711
0.693454
0.673289
0.645014
0.612849
0.580002
0.545568
0.513808
0.486102
0.462946
0.440519
0.415727
0.396109
0.387172
0.388097
0.378575
0.310753
0.697809
0.702409
0.689244
0.648327
0.593934
0.624221
0.933228
1.07205
0.969276
0.906439
0.820431
0.727807
0.682015
0.699455
0.714774
0.724747
0.730301
0.730948
0.717176
0.690323
0.656389
0.615423
0.570915
0.530178
0.49543
0.466284
0.437636
0.417425
0.403321
0.399018
0.403777
0.392817
0.318631
0.710721
0.71864
0.7179
0.680522
0.628776
0.700816
1.04028
1.0616
0.97439
0.896075
0.811742
0.722374
0.677031
0.693699
0.713868
0.73244
0.748226
0.757954
0.75717
0.746597
0.720104
0.678287
0.627483
0.577787
0.534051
0.493926
0.464366
0.443385
0.430543
0.427337
0.426007
0.394217
0.337917
0.720791
0.738427
0.743742
0.713835
0.670336
0.776054
1.08178
1.06316
0.991343
0.891055
0.811678
0.71567
0.670383
0.683285
0.704995
0.727816
0.750217
0.761479
0.769608
0.770908
0.756235
0.728068
0.690324
0.648897
0.607333
0.564755
0.531511
0.500869
0.478739
0.462317
0.44344
0.38456
0.377996
0.733994
0.757984
0.772115
0.748976
0.718033
0.84699
1.11761
1.07409
1.01146
0.891323
0.800741
0.69699
0.662889
0.674066
0.695791
0.718107
0.739478
0.746963
0.752932
0.751117
0.736778
0.719322
0.703643
0.687592
0.667609
0.642089
0.61105
0.573233
0.53497
0.494926
0.435723
0.394281
0.490468
0.743913
0.777327
0.800478
0.78418
0.76517
0.900282
1.14985
1.08775
1.02292
0.886376
0.763294
0.669061
0.659113
0.671895
0.691503
0.711539
0.728281
0.729768
0.727919
0.719253
0.705612
0.693111
0.684439
0.677779
0.670527
0.660175
0.645797
0.616832
0.572126
0.503984
0.424838
0.44652
0.65366
0.755041
0.793676
0.828492
0.820207
0.810888
0.936977
1.18354
1.10601
1.0316
0.869302
0.718913
0.655369
0.659015
0.673954
0.690635
0.706732
0.715615
0.705736
0.688835
0.663781
0.647483
0.637583
0.629221
0.623209
0.618548
0.608993
0.597822
0.58515
0.5567
0.477782
0.438144
0.588882
0.745084
0.764929
0.808457
0.853286
0.858974
0.852112
0.964152
1.22009
1.12756
1.03779
0.850178
0.687453
0.652324
0.659029
0.673268
0.685949
0.693659
0.684769
0.649611
0.620257
0.612565
0.614107
0.613894
0.610105
0.607121
0.602946
0.593885
0.580356
0.570242
0.547165
0.472315
0.527919
0.722477
0.761593
0.774641
0.821632
0.875825
0.895461
0.887194
0.973105
1.25315
1.15942
1.05062
0.831496
0.669432
0.649212
0.653188
0.663226
0.669958
0.663645
0.633731
0.60337
0.594742
0.604168
0.624931
0.645146
0.655234
0.654471
0.649938
0.6349
0.6084
0.589618
0.531299
0.496225
0.66633
0.772667
0.756068
0.782629
0.831962
0.892725
0.925755
0.917684
0.973237
1.26952
1.20374
1.08051
0.847911
0.668605
0.643718
0.642371
0.648217
0.65053
0.63793
0.604107
0.589926
0.590343
0.645756
0.724892
0.769212
0.774994
0.768256
0.748159
0.7215
0.689278
0.618391
0.512909
0.569154
0.788453
0.776473
0.733229
0.792293
0.843505
0.9055
0.951233
0.944905
0.975607
1.22141
1.26324
1.12058
0.878845
0.677886
0.640129
0.633053
0.635918
0.636141
0.620565
0.591117
0.586422
0.615998
0.754432
0.821787
0.826524
0.82002
0.805191
0.773467
0.7448
0.71288
0.602978
0.514996
0.689819
0.836983
0.760656
0.692805
0.800273
0.853917
0.914874
0.966681
0.97286
0.988608
1.14182
1.32139
1.17203
0.944196
0.699168
0.639252
0.626149
0.625399
0.62285
0.603656
0.58678
0.595346
0.694741
0.837422
0.847636
0.840437
0.832903
0.817679
0.782983
0.733732
0.680196
0.548289
0.542656
0.832199
0.832693
0.731971
0.648941
0.808118
0.86449
0.926393
0.979017
0.993208
0.997479
1.08596
1.34149
1.22509
1.03513
0.750473
0.645151
0.621547
0.614789
0.609022
0.59029
0.587824
0.626353
0.7939
0.861694
0.850497
0.847197
0.846358
0.836409
0.796247
0.693765
0.573893
0.493702
0.587329
0.923176
0.805088
0.700557
0.608255
0.817434
0.875597
0.933987
0.988486
1.00997
1.00044
1.04727
1.32838
1.28639
1.12656
0.84425
0.664514
0.621601
0.60544
0.594588
0.583926
0.592942
0.678343
0.832923
0.863209
0.847594
0.84849
0.856654
0.867062
0.82538
0.671154
0.502669
0.479027
0.691203
0.952063
0.771036
0.670347
0.575688
0.826032
0.88685
0.943693
0.996297
1.02978
1.00075
1.00842
1.25606
1.35769
1.2063
0.973342
0.726032
0.63024
0.59707
0.582784
0.581776
0.604258
0.729518
0.837255
0.851175
0.834052
0.843613
0.866639
0.901777
0.891463
0.67558
0.486845
0.498974
0.851701
0.934804
0.741688
0.642223
0.550774
0.836277
0.897274
0.951247
1.0022
1.04169
1.01143
0.983443
1.09896
1.38542
1.27681
1.10357
0.833448
0.663798
0.596441
0.57865
0.580603
0.619749
0.763584
0.825463
0.826394
0.809825
0.831333
0.871812
0.918282
0.935737
0.744928
0.531257
0.574281
0.994505
0.912902
0.7205
0.618159
0.530234
0.846973
0.907933
0.95943
1.00652
1.04566
1.02956
0.967199
0.955673
1.28172
1.32978
1.20225
0.958975
0.733492
0.606509
0.575561
0.577211
0.6336
0.767022
0.803092
0.789085
0.771479
0.799205
0.863808
0.925236
0.955188
0.883659
0.667542
0.685007
1.07404
0.912467
0.717574
0.602061
0.520882
0.857955
0.918085
0.966209
1.00885
1.04617
1.0411
0.966467
0.893456
1.04383
1.32332
1.24916
1.0836
0.834496
0.642122
0.576619
0.574594
0.637843
0.75252
0.773895
0.738388
0.715677
0.741037
0.826949
0.901598
0.961531
0.970165
0.793097
0.783569
1.11552
0.933639
0.724023
0.594793
0.52694
0.868323
0.925142
0.969353
1.00964
1.04419
1.04172
0.975046
0.857364
0.860313
1.20054
1.2584
1.16539
0.943978
0.709448
0.578498
0.567454
0.629964
0.72915
0.739328
0.672724
0.643613
0.665612
0.771699
0.855603
0.931623
0.987098
0.940273
0.883713
1.11694
1.00367
0.756925
0.608646
0.549346
0.877304
0.928852
0.970311
1.00973
1.04206
1.04009
0.978932
0.841872
0.775705
0.970152
1.23484
1.19246
1.04288
0.795003
0.591752
0.562992
0.614895
0.701358
0.699666
0.602248
0.571131
0.587234
0.688694
0.799982
0.886134
0.961297
0.999943
0.950962
1.08283
1.10828
0.856421
0.660723
0.584111
0.886405
0.932167
0.971215
1.00949
1.03978
1.03517
0.970949
0.834367
0.734699
0.786214
1.13634
1.18477
1.10185
0.879569
0.612446
0.554677
0.593691
0.670438
0.662792
0.560431
0.533791
0.54569
0.592686
0.718809
0.832589
0.918252
0.981416
0.995909
1.05705
1.15768
1.01014
0.775618
0.654095
0.893645
0.934862
0.970977
1.00959
1.03762
1.02794
0.955724
0.820039
0.707107
0.686452
0.938878
1.15926
1.1135
0.951899
0.657285
0.551196
0.571705
0.641616
0.634716
0.535953
0.509512
0.519309
0.549442
0.616553
0.757028
0.869351
0.951824
1.05404
1.05028
1.17969
1.12838
0.925961
0.783165
0.901476
0.937015
0.971414
1.01024
1.03563
1.01871
0.935516
0.800014
0.681651
0.641502
0.753786
1.08086
1.10493
1.00599
0.728281
0.547271
0.547713
0.617075
0.610019
0.517246
0.49087
0.500878
0.522114
0.563838
0.654617
0.810252
0.928748
1.07036
1.08683
1.18565
1.20899
1.03622
0.884056
0.906687
0.940214
0.972464
1.01202
1.03451
1.00791
0.912259
0.775277
0.657587
0.6133
0.649713
0.934742
1.08139
1.03776
0.814832
0.555017
0.523001
0.586465
0.592546
0.511127
0.4862
0.501983
0.515595
0.52973
0.586284
0.710069
0.862351
0.983171
1.13009
1.19254
1.2572
1.113
0.900755
0.911648
0.943625
0.97639
1.01405
1.03133
0.992075
0.885773
0.749348
0.631554
0.587032
0.599746
0.806171
1.0407
1.05124
0.895358
0.593592
0.514737
0.535873
0.577945
0.527793
0.503206
0.537323
0.548173
0.523297
0.550026
0.622236
0.763294
0.929738
1.10215
1.22083
1.29415
1.19633
0.940273
0.916703
0.948074
0.983318
1.01698
1.02535
0.968165
0.854225
0.726397
0.610074
0.555888
0.56094
0.710561
1.00326
1.05677
0.959332
0.704646
0.52166
0.513329
0.54956
0.547932
0.526296
0.565787
0.610846
0.575302
0.543364
0.586403
0.669154
0.852195
1.00003
1.19346
1.32112
1.30399
1.04111
0.921965
0.956013
0.994011
1.02072
1.01414
0.937187
0.818811
0.705529
0.601395
0.528105
0.514645
0.614425
0.968375
1.06404
1.00926
0.831264
0.55775
0.515356
0.516127
0.542457
0.536659
0.562387
0.627692
0.664075
0.597387
0.57229
0.623601
0.727239
0.92127
1.09699
1.29852
1.38038
1.19483
0.932055
0.967154
1.00482
1.02292
0.993578
0.898656
0.782504
0.684619
0.599184
0.512921
0.484423
0.521481
0.891683
1.06544
1.04318
0.935724
0.689454
0.536939
0.519557
0.527029
0.535917
0.559566
0.624928
0.68922
0.700361
0.607201
0.597293
0.649014
0.796543
0.97659
1.22727
1.38972
1.35895
0.943465
0.98518
1.01543
1.02136
0.9646
0.857664
0.7498
0.665392
0.597084
0.524529
0.469398
0.471006
0.7371
1.03867
1.06615
1.00603
0.851572
0.611825
0.543562
0.54281
0.54888
0.564574
0.618405
0.705888
0.74575
0.701635
0.610226
0.618651
0.688663
0.843867
1.08315
1.34634
1.44749
0.959494
1.00237
1.02474
1.01172
0.9288
0.819294
0.723446
0.649425
0.594059
0.545511
0.46306
0.441949
0.560317
0.959437
1.07715
1.04608
0.969114
0.805135
0.610668
0.579613
0.579983
0.590529
0.630856
0.725762
0.783347
0.783232
0.663183
0.614498
0.645339
0.739044
0.927587
1.25711
1.457
0.980668
1.01804
1.02899
0.991378
0.889151
0.78693
0.704137
0.636953
0.587706
0.551287
0.47833
0.426301
0.478276
0.779407
1.02791
1.07079
1.03522
0.95053
0.787332
0.652678
0.629845
0.633945
0.666462
0.771227
0.845544
0.856084
0.741093
0.633819
0.632054
0.685906
0.821045
1.11058
1.41954
1.0008
1.02843
1.02539
0.960159
0.850847
0.761886
0.690056
0.629988
0.586113
0.557882
0.488433
0.425496
0.444984
0.577601
0.863422
1.03605
1.06104
1.03394
0.954549
0.813327
0.735504
0.728945
0.75235
0.85136
0.924845
0.939009
0.835509
0.675131
0.637606
0.660855
0.75752
0.967286
1.33167
1.01438
1.0326
1.0072
0.918898
0.816978
0.741763
0.679531
0.62485
0.586105
0.56563
0.513676
0.423162
0.419965
0.478124
0.710077
0.931572
1.03955
1.054
1.031
0.963421
0.876319
0.865508
0.881797
0.953323
1.00085
1.01355
0.925293
0.73295
0.652861
0.656053
0.720414
0.88542
1.21199
1.01998
1.02791
0.973196
0.873752
0.787794
0.726648
0.671994
0.621519
0.585971
0.566614
0.532013
0.436663
0.40434
0.434927
0.593128
0.833532
0.995578
1.04659
1.05922
1.0422
0.994089
0.984914
0.996028
1.03832
1.07056
1.08054
1.00904
0.802058
0.67839
0.659613
0.69922
0.835242
1.10832
1.02026
1.00488
0.925848
0.831525
0.763602
0.711989
0.663495
0.619157
0.588136
0.566425
0.536017
0.458621
0.397535
0.414138
0.49193
0.728113
0.920317
1.01588
1.05519
1.07052
1.06353
1.06285
1.0762
1.10364
1.13002
1.12915
1.06933
0.868226
0.712124
0.66794
0.687571
0.795679
1.03174
1.00952
0.963204
0.87389
0.795127
0.742072
0.697468
0.652734
0.614151
0.588611
0.568882
0.54005
0.476761
0.396939
0.399032
0.437029
0.570389
0.798046
0.944839
1.01763
1.0531
1.06953
1.0877
1.10763
1.13455
1.15821
1.15338
1.09862
0.919724
0.744037
0.679999
0.68238
0.765448
0.974472
0.980173
0.908972
0.825632
0.765847
0.722837
0.683316
0.640896
0.60786
0.587161
0.570203
0.544782
0.504494
0.417845
0.389705
0.407247
0.461948
0.62034
0.815415
0.939901
1.00859
1.04777
1.08451
1.11445
1.14459
1.16432
1.15186
1.09929
0.951327
0.765419
0.691839
0.681907
0.740869
0.917263
0.932863
0.851269
0.78553
0.740382
0.704361
0.66791
0.627134
0.601353
0.583993
0.567885
0.542977
0.503354
0.431706
0.385416
0.39183
0.413987
0.479134
0.607801
0.777238
0.896616
0.968918
1.03272
1.08304
1.1105
1.11793
1.10688
1.07102
0.965015
0.777973
0.698338
0.685279
0.724478
0.865579
0.87412
0.799728
0.751639
0.716812
0.686421
0.651084
0.613502
0.593468
0.578371
0.564417
0.544827
0.50457
0.431545
0.388336
0.383696
0.394186
0.421194
0.474345
0.560972
0.673721
0.764638
0.852276
0.937949
1.00979
1.05209
1.0638
1.04777
0.94951
0.762715
0.693252
0.69035
0.716035
0.822539
0.814495
0.758968
0.721954
0.694233
0.667374
0.633543
0.600212
0.582051
0.56874
0.557587
0.544442
0.51756
0.441435
0.386718
0.378866
0.385868
0.398445
0.422451
0.461936
0.509356
0.580819
0.683098
0.820605
0.950544
1.02369
1.03922
1.00951
0.859694
0.711655
0.679293
0.690901
0.725051
0.792922
0.765271
0.72436
0.695856
0.671759
0.645975
0.613565
0.585339
0.568323
0.555153
0.546381
0.538644
0.526919
0.471714
0.386084
0.376146
0.379903
0.389645
0.403745
0.424075
0.451285
0.498523
0.614145
0.788585
0.933142
0.989773
0.991022
0.905058
0.734855
0.676678
0.67664
0.711527
0.752228
0.792426
0.728084
0.695483
0.671924
0.649747
0.623265
0.593859
0.570389
0.554042
0.540894
0.531711
0.529203
0.5266
0.503121
0.405998
0.375568
0.377116
0.384973
0.396528
0.411017
0.431033
0.469596
0.593391
0.783358
0.896009
0.917906
0.867113
0.721411
0.670206
0.665315
0.699663
0.751876
0.785747
0.819699
0.698325
0.672348
0.650578
0.629227
0.601457
0.575855
0.554927
0.538995
0.52632
0.517572
0.517182
0.517889
0.512818
0.454627
0.377225
0.376753
0.38314
0.393311
0.406314
0.423869
0.45908
0.597141
0.753566
0.791651
0.76445
0.672173
0.653302
0.659107
0.709568
0.763492
0.784092
0.808537
0.832325
0.675963
0.653504
0.632166
0.609664
0.58137
0.558769
0.540319
0.525888
0.512911
0.504529
0.504338
0.506311
0.509886
0.485408
0.388601
0.377413
0.383481
0.393273
0.406466
0.424122
0.46507
0.59768
0.654405
0.646353
0.614746
0.624279
0.676223
0.73899
0.770641
0.78631
0.795382
0.81124
0.822768
0.660526
0.638303
0.615228
0.590837
0.562139
0.541084
0.52481
0.512157
0.501077
0.49567
0.494669
0.495741
0.501365
0.496125
0.420066
0.380987
0.384923
0.395123
0.409327
0.428297
0.480134
0.561246
0.569886
0.575367
0.612807
0.704934
0.757723
0.772139
0.764077
0.751993
0.753552
0.765659
0.774399
0.650295
0.626174
0.598919
0.570767
0.543493
0.522754
0.507007
0.496316
0.489242
0.487721
0.488281
0.487962
0.491811
0.497218
0.45222
0.39291
0.388155
0.397889
0.412586
0.433959
0.491372
0.519869
0.540426
0.601851
0.713873
0.746303
0.741038
0.718599
0.692849
0.673438
0.655052
0.654333
0.670298
0.643102
0.616069
0.58317
0.550148
0.524913
0.503071
0.488589
0.480674
0.477581
0.478306
0.481455
0.481667
0.482457
0.492285
0.466449
0.408659
0.396783
0.403036
0.418012
0.447211
0.487574
0.507055
0.56916
0.69992
0.719818
0.687764
0.637005
0.639941
0.660338
0.658293
0.638248
0.609488
0.617945
0.638049
0.608076
0.568538
0.534518
0.507305
0.483599
0.470869
0.464832
0.46442
0.466558
0.471649
0.473102
0.473261
0.4843
0.461839
0.408973
0.402234
0.412102
0.42935
0.455402
0.478525
0.521094
0.664344
0.686603
0.631222
0.578788
0.58677
0.603543
0.648788
0.67039
0.667052
0.626682
0.607963
0.637824
0.6031
0.558191
0.522854
0.490216
0.467203
0.455616
0.451232
0.451896
0.455998
0.460645
0.463024
0.46399
0.47361
0.450642
0.405783
0.405103
0.417382
0.434136
0.454336
0.48428
0.603214
0.65021
0.588431
0.533167
0.549703
0.577786
0.59353
0.616356
0.659394
0.688745
0.692114
0.64683
0.64134
0.600859
0.55251
0.512316
0.476435
0.454371
0.443981
0.441404
0.442033
0.447181
0.45065
0.453305
0.454342
0.459394
0.430796
0.399849
0.404121
0.41654
0.432124
0.453691
0.526427
0.605354
0.558705
0.496936
0.522423
0.589687
0.640033
0.644714
0.621417
0.621424
0.66318
0.718491
0.734424
0.646012
0.600813
0.550096
0.502881
0.466457
0.445192
0.436057
0.43424
0.436267
0.440094
0.442066
0.443125
0.442156
0.437409
0.406834
0.393361
0.400575
0.413191
0.428267
0.462545
0.545867
0.554569
0.493998
0.500707
0.566407
0.612242
0.662399
0.698504
0.697972
0.6374
0.617696
0.656256
0.747247
0.651186
0.602155
0.549263
0.496455
0.460116
0.440425
0.432224
0.430037
0.433105
0.43357
0.431495
0.427423
0.423137
0.413245
0.388235
0.388302
0.396893
0.409418
0.428483
0.49111
0.534491
0.50118
0.488582
0.544756
0.548645
0.565991
0.622385
0.685091
0.715368
0.712268
0.636523
0.593889
0.63123
0.656173
0.60395
0.548865
0.491172
0.457293
0.439295
0.432793
0.431353
0.433117
0.430955
0.42389
0.412033
0.401604
0.391046
0.378208
0.383917
0.394053
0.40726
0.437583
0.495903
0.515774
0.4988
0.515983
0.480299
0.458253
0.471721
0.540251
0.639002
0.701487
0.717807
0.705299
0.619917
0.552403
0.661855
0.608071
0.547433
0.488528
0.456892
0.441374
0.436208
0.435388
0.43622
0.432657
0.421092
0.401215
0.384595
0.377711
0.373602
0.381361
0.39135
0.406933
0.449691
0.492864
0.503682
0.493987
0.488018
0.414473
0.418489
0.436584
0.506658
0.609453
0.680638
0.706957
0.709246
0.682143
0.583443
0.66867
0.612345
0.546537
0.488124
0.457397
0.4445
0.440889
0.441274
0.441801
0.437057
0.422065
0.396045
0.373182
0.370065
0.371305
0.379852
0.390286
0.412957
0.462964
0.488472
0.494046
0.479781
0.408301
0.398496
0.405504
0.423983
0.491445
0.597322
0.673146
0.703304
0.708317
0.692954
0.630574
0.676387
0.616959
0.546492
0.489227
0.459267
0.448865
0.446685
0.448695
0.450617
0.444296
0.426116
0.394237
0.368665
0.367496
0.371504
0.379019
0.391037
0.42248
0.468223
0.484076
0.484838
0.464504
0.40442
0.399174
0.40647
0.43136
0.516791
0.626861
0.694267
0.716921
0.721636
0.703487
0.639493
0.686658
0.624241
0.549803
0.492973
0.463129
0.455303
0.454945
0.458256
0.460966
0.452915
0.431857
0.396068
0.368685
0.368174
0.372796
0.379295
0.39138
0.424559
0.467324
0.479779
0.478915
0.461396
0.411509
0.399277
0.411022
0.463508
0.585063
0.668238
0.706381
0.723296
0.728252
0.71175
0.646892
0.701514
0.63553
0.557633
0.498847
0.468961
0.46324
0.464858
0.469489
0.474456
0.464929
0.440481
0.401606
0.370165
0.368742
0.372921
0.378335
0.390583
0.423971
0.465971
0.477328
0.475492
0.443422
0.394989
0.396636
0.422873
0.528661
0.628934
0.685023
0.712898
0.732625
0.737012
0.719594
0.651012
0.720562
0.651141
0.569725
0.507181
0.476495
0.472415
0.476237
0.481615
0.489763
0.481433
0.453924
0.409876
0.372222
0.368128
0.372057
0.3771
0.389078
0.420695
0.462398
0.474524
0.465351
0.406504
0.389324
0.404944
0.489527
0.590892
0.656234
0.695982
0.723528
0.743066
0.744878
0.714144
0.633546
0.74032
0.669674
0.585428
0.517994
0.485022
0.482059
0.488673
0.494555
0.504764
0.498081
0.4711
0.423906
0.376226
0.368646
0.370684
0.37463
0.38271
0.40727
0.45042
0.462987
0.426498
0.380647
0.389782
0.45869
0.561579
0.623711
0.673262
0.707122
0.737485
0.75216
0.743135
0.690718
0.592119
0.75945
0.69011
0.605165
0.532922
0.495623
0.491681
0.499729
0.504926
0.515452
0.508454
0.48029
0.43305
0.380979
0.367401
0.367217
0.370307
0.375403
0.391769
0.421331
0.419765
0.374384
0.377242
0.439924
0.542651
0.598216
0.642238
0.688031
0.72257
0.750688
0.757229
0.727507
0.654407
0.534863
0.776649
0.711133
0.628271
0.551194
0.508423
0.502738
0.510639
0.514891
0.523621
0.514535
0.483225
0.434588
0.382117
0.366668
0.365436
0.36799
0.373148
0.384574
0.393416
0.373039
0.368665
0.429545
0.54365
0.582621
0.614957
0.656474
0.698761
0.739123
0.765002
0.757129
0.703668
0.588721
0.459129
0.790239
0.731044
0.65362
0.572977
0.523345
0.513546
0.520164
0.522775
0.528452
0.515555
0.479512
0.430251
0.380395
0.36704
0.365487
0.368553
0.371816
0.371102
0.370057
0.367176
0.429237
0.547769
0.583558
0.597741
0.617631
0.66548
0.713167
0.759373
0.781756
0.752296
0.662061
0.504174
0.376094
0.800028
0.748497
0.678472
0.59728
0.541616
0.525855
0.526486
0.525367
0.525822
0.504511
0.461086
0.411733
0.374701
0.365571
0.366455
0.368043
0.364581
0.36538
0.366946
0.399898
0.548832
0.582566
0.587368
0.59496
0.622269
0.682418
0.733055
0.782577
0.793691
0.743676
0.610787
0.435645
0.321891
0.806469
0.763488
0.700023
0.622114
0.561686
0.540176
0.533309
0.52742
0.515795
0.4779
0.423124
0.376074
0.363624
0.361975
0.363942
0.36365
0.364973
0.368326
0.384558
0.513288
0.571486
0.573058
0.578426
0.592666
0.631006
0.695616
0.753585
0.806607
0.807242
0.731909
0.554064
0.390651
0.301613
0.808414
0.776624
0.718241
0.645092
0.581132
0.554225
0.542059
0.531767
0.510404
0.458827
0.393586
0.361013
0.357102
0.358307
0.361702
0.364718
0.369668
0.389637
0.478486
0.550151
0.557793
0.567501
0.576013
0.593171
0.637931
0.704437
0.765266
0.820285
0.8179
0.721147
0.531817
0.392649
0.297148
0.650227
0.659841
0.646296
0.693839
0.925076
1.04105
1.05563
0.921642
0.641058
0.654696
0.662016
0.721228
0.943341
1.05838
1.00959
0.835303
0.632245
0.646647
0.662462
0.71531
0.921037
1.03714
0.929799
0.729847
0.628089
0.640956
0.660091
0.693061
0.857083
0.962328
0.842592
0.620382
0.625306
0.633127
0.6502
0.66978
0.774446
0.870277
0.783625
0.577964
0.624158
0.626712
0.64561
0.65788
0.690323
0.789429
0.748183
0.57525
0.624555
0.619825
0.641381
0.655116
0.657539
0.694569
0.696218
0.590752
0.625593
0.612334
0.632201
0.660636
0.657597
0.648994
0.632747
0.586558
0.622532
0.602294
0.611334
0.661218
0.665728
0.647794
0.615508
0.573063
0.611911
0.58764
0.590716
0.644337
0.674448
0.653493
0.617968
0.574935
0.591899
0.568197
0.570286
0.622182
0.671106
0.661816
0.628748
0.584056
0.567333
0.547881
0.550671
0.604852
0.659698
0.661837
0.636885
0.5969
0.543194
0.529977
0.537078
0.593632
0.642806
0.653914
0.632699
0.594519
0.527804
0.51827
0.528229
0.582607
0.625175
0.635358
0.617053
0.576162
0.521391
0.511638
0.520976
0.573037
0.608699
0.613652
0.593382
0.549751
0.522801
0.510659
0.515853
0.563837
0.59169
0.589185
0.562289