/*--------------------------------*- C++ -*----------------------------------*\
  =========                 |
  \\      /  F ield         | OpenFOAM: The Open Source CFD Toolbox
   \\    /   O peration     | Website:  https://openfoam.org
    \\  /    A nd           | Version:  11
     \\/     M anipulation  |
\*---------------------------------------------------------------------------*/
FoamFile
{
    format      ascii;
    class       volScalarField;
    location    "2.5";
    object      mag(U);
}
// * * * * * * * * * * * * * * * * * * * * * * * * * * * * * * * * * * * * * //

dimensions      [0 1 -1 0 0 0 0];

internalField   nonuniform List<scalar> 
9600
(
0.982336
0.976263
0.971835
0.972639
0.967209
0.928014
0.86367
0.833225
0.828601
0.834899
0.859228
0.893139
0.921461
0.947216
0.97367
0.998551
1.0274
1.05234
1.08012
1.10198
1.12294
1.1369
1.13692
1.13244
1.1223
1.10337
1.07992
1.05433
1.03236
1.01352
0.999578
0.989268
0.982888
0.977372
0.973465
0.97042
0.968973
0.96895
0.970193
0.967408
0.983299
0.981686
0.977556
0.973917
0.967639
0.950142
0.928664
0.91754
0.915552
0.920493
0.941506
0.967094
0.984184
0.998611
1.0136
1.03265
1.05435
1.07711
1.09982
1.11931
1.13902
1.14928
1.14909
1.14516
1.13437
1.1142
1.09139
1.06534
1.04503
1.02235
1.00715
0.992529
0.983942
0.975107
0.972202
0.968198
0.967725
0.965116
0.965222
0.968381
0.982326
0.980712
0.975468
0.973241
0.971791
0.963081
0.941669
0.920815
0.916811
0.925081
0.938636
0.953567
0.970775
0.988624
1.00788
1.02977
1.0528
1.07786
1.10113
1.12375
1.14137
1.15513
1.16039
1.15751
1.14821
1.12916
1.10738
1.08267
1.06262
1.04168
1.02754
1.01644
1.00772
1.00214
0.999228
0.993929
0.992288
0.989226
0.988007
0.986518
0.981799
0.980393
0.976981
0.97726
0.97449
0.968182
0.960574
0.953364
0.954784
0.966327
0.982807
0.996942
1.00807
1.01629
1.02385
1.03892
1.0561
1.07882
1.10132
1.11976
1.13903
1.152
1.15341
1.14975
1.13997
1.1217
1.10254
1.07747
1.05748
1.03681
1.01992
1.00477
0.992619
0.982616
0.975185
0.971031
0.970599
0.970021
0.968962
0.972203
0.981579
0.980339
0.978484
0.977432
0.977351
0.978966
0.979942
0.974945
0.967024
0.964173
0.965119
0.970347
0.983248
0.999033
1.01669
1.03698
1.05737
1.08077
1.10317
1.12388
1.14151
1.15243
1.15996
1.1595
1.15142
1.13258
1.11277
1.08842
1.06759
1.04651
1.03134
1.01906
1.00981
1.00453
0.999081
0.996122
0.993545
0.988977
0.987224
0.984223
0.981455
0.980394
0.978657
0.978955
0.982191
0.98439
0.983957
0.978743
0.977779
0.9835
0.996501
1.01327
1.02448
1.03173
1.03784
1.04828
1.06291
1.08176
1.10352
1.12239
1.13906
1.15381
1.15927
1.15572
1.14678
1.12893
1.11052
1.08741
1.06656
1.04722
1.03004
1.01441
1.00164
0.989641
0.980788
0.974971
0.973944
0.972336
0.972337
0.975343
0.981474
0.980507
0.979292
0.981555
0.986535
0.989094
0.989242
0.987663
0.987696
0.988513
0.988464
0.98976
0.993937
1.0068
1.02361
1.04314
1.06327
1.08539
1.10602
1.12543
1.14392
1.15319
1.16005
1.16247
1.15558
1.13839
1.11896
1.0961
1.07397
1.05339
1.03691
1.02321
1.01337
1.00681
1.0009
0.997196
0.993701
0.989702
0.98711
0.983186
0.981627
0.980894
0.980532
0.984556
0.989771
0.991569
0.99178
0.991568
0.993075
0.99693
1.00294
1.01461
1.02868
1.0377
1.04581
1.05697
1.07136
1.08846
1.1076
1.12618
1.14174
1.15637
1.16452
1.16098
1.15405
1.13836
1.12
1.09838
1.07645
1.05643
1.03851
1.02249
1.0093
0.996809
0.986744
0.979561
0.977274
0.974744
0.975392
0.977731
0.981971
0.981525
0.982029
0.987331
0.992107
0.99332
0.993347
0.994475
0.998345
1.0029
1.00625
1.00885
1.0115
1.01832
1.03133
1.04933
1.06848
1.08976
1.11024
1.12857
1.14699
1.15656
1.1626
1.16616
1.16092
1.14618
1.12674
1.10583
1.08269
1.06218
1.04289
1.02879
1.01729
1.00934
1.00293
0.998915
0.994363
0.989988
0.986937
0.982824
0.982382
0.982254
0.98382
0.98997
0.993771
0.994369
0.995606
0.996793
0.998106
1.00205
1.00936
1.01974
1.03211
1.04076
1.04968
1.0621
1.07727
1.09422
1.11293
1.13146
1.14618
1.15948
1.17014
1.16816
1.16215
1.14812
1.12981
1.11009
1.08714
1.06572
1.04668
1.02986
1.01606
1.00361
0.992712
0.985165
0.98044
0.977529
0.978293
0.979397
0.982834
0.983091
0.986051
0.992182
0.994883
0.995489
0.996243
0.996775
0.999034
1.00522
1.01484
1.02214
1.02854
1.03474
1.0431
1.05784
1.07485
1.09432
1.11505
1.13314
1.15159
1.16207
1.16783
1.17167
1.16814
1.15559
1.13637
1.11666
1.09341
1.0729
1.05265
1.03503
1.02207
1.01307
1.00528
1.00081
0.994931
0.990416
0.987485
0.982455
0.983278
0.984078
0.988654
0.993765
0.995512
0.996096
0.996523
0.996736
0.999111
1.00533
1.0145
1.02375
1.03636
1.04715
1.05624
1.06845
1.08372
1.1
1.11873
1.13757
1.153
1.1646
1.17662
1.17736
1.17145
1.15903
1.14233
1.12193
1.09845
1.07613
1.05652
1.03811
1.0233
1.01039
0.9986
0.990113
0.984615
0.98154
0.980308
0.979986
0.983891
0.985476
0.990894
0.994495
0.995626
0.996251
0.996037
0.995997
0.998103
1.0037
1.01691
1.02859
1.03946
1.04876
1.0565
1.069
1.08479
1.1016
1.12161
1.13946
1.15774
1.17005
1.17542
1.17996
1.17756
1.16688
1.14845
1.12952
1.10658
1.08397
1.06334
1.04379
1.0276
1.01757
1.00835
1.00245
0.996386
0.991318
0.987902
0.981708
0.984486
0.987409
0.99233
0.994633
0.995638
0.996023
0.995219
0.994975
0.997113
1.00327
1.01688
1.02764
1.03998
1.05401
1.06512
1.07688
1.09204
1.10821
1.12553
1.1448
1.16138
1.17227
1.18404
1.18711
1.18241
1.17272
1.15544
1.13525
1.11278
1.08899
1.06838
1.04868
1.03196
1.01795
1.00519
0.995062
0.988646
0.985197
0.982319
0.980254
0.985107
0.988707
0.992464
0.994026
0.99509
0.99498
0.993597
0.99335
0.995471
1.00097
1.0136
1.02842
1.04409
1.05944
1.06979
1.08138
1.09548
1.11133
1.12917
1.14713
1.16513
1.17934
1.18517
1.18984
1.18853
1.17962
1.16385
1.14419
1.12127
1.09726
1.07502
1.05474
1.03624
1.02339
1.01253
1.00452
0.998046
0.992646
0.988217
0.981222
0.985443
0.98911
0.99214
0.993527
0.994451
0.993874
0.992494
0.992847
0.994877
0.999862
1.01196
1.02755
1.04357
1.06058
1.07506
1.08864
1.1049
1.12054
1.13598
1.15379
1.17054
1.18281
1.1914
1.19701
1.19541
1.18682
1.17178
1.1518
1.12973
1.10513
1.08184
1.06048
1.04254
1.02727
1.013
1.00138
0.992659
0.988184
0.984365
0.981364
0.986265
0.990105
0.992477
0.993536
0.993667
0.992689
0.991864
0.992949
0.995055
0.999855
1.01109
1.02531
1.04235
1.06309
1.08018
1.09402
1.1111
1.12688
1.14299
1.15895
1.17481
1.18987
1.19622
1.20147
1.20227
1.19406
1.18039
1.16143
1.13887
1.11485
1.09005
1.06777
1.04776
1.03211
1.01823
1.00892
1.00057
0.993855
0.988435
0.981958
0.986821
0.990295
0.991775
0.992152
0.990559
0.990242
0.989126
0.991158
0.994974
0.998705
1.00843
1.02311
1.04073
1.06199
1.08222
1.09871
1.11636
1.13579
1.15196
1.16736
1.18323
1.19702
1.20539
1.21118
1.21172
1.20413
1.19138
1.17195
1.14961
1.12577
1.1002
1.07607
1.0544
1.03767
1.02173
1.00874
0.997198
0.990698
0.985841
0.981989
0.988515
0.991695
0.992099
0.991099
0.987564
0.986863
0.986277
0.988011
0.993508
0.997247
1.00538
1.02059
1.0374
1.05759
1.08163
1.10334
1.1233
1.14211
1.16091
1.17607
1.19
1.20448
1.21432
1.21836
1.21967
1.21419
1.20224
1.18394
1.16126
1.13715
1.11132
1.08653
1.0623
1.04399
1.02611
1.01419
1.00307
0.99597
0.987948
0.983024
0.987875
0.990132
0.989897
0.988227
0.984377
0.982865
0.983156
0.98507
0.991361
0.996676
1.00291
1.0162
1.03414
1.05365
1.07824
1.10318
1.12582
1.14746
1.16878
1.18668
1.20128
1.21369
1.22422
1.22901
1.22978
1.22486
1.21409
1.19685
1.17408
1.14944
1.12352
1.09839
1.07185
1.05145
1.03251
1.01818
1.00308
0.994833
0.986561
0.98279
0.988941
0.990149
0.989226
0.986831
0.982986
0.980374
0.980994
0.983441
0.988883
0.996033
1.00203
1.01234
1.0306
1.04998
1.07271
1.09897
1.12625
1.15062
1.17447
1.19599
1.21275
1.22525
1.2359
1.24137
1.24166
1.23663
1.22662
1.21099
1.1886
1.16374
1.13654
1.11153
1.08362
1.06128
1.03855
1.02362
1.00855
0.999882
0.989285
0.983832
0.985666
0.986014
0.98422
0.9823
0.979752
0.977398
0.978163
0.981708
0.986457
0.993504
1.00245
1.01084
1.0265
1.04664
1.06864
1.09337
1.12248
1.15054
1.17669
1.20115
1.22249
1.23814
1.24915
1.25574
1.25709
1.25186
1.24103
1.22662
1.20521
1.18064
1.15135
1.12581
1.09718
1.0729
1.04829
1.03116
1.01371
1.00241
0.991446
0.985021
0.985194
0.984964
0.982303
0.980559
0.979515
0.977732
0.978141
0.981513
0.985972
0.991501
1.00142
1.01231
1.02541
1.04296
1.06589
1.08865
1.11669
1.14706
1.1754
1.20245
1.22735
1.24722
1.26192
1.27102
1.27346
1.27015
1.25902
1.24427
1.22263
1.1999
1.16934
1.14189
1.1114
1.08725
1.06139
1.04065
1.02028
1.00818
0.995128
0.987745
0.98016
0.979411
0.976973
0.97419
0.975193
0.975285
0.975862
0.979676
0.984446
0.990476
0.999565
1.01198
1.02751
1.04286
1.06354
1.0874
1.11269
1.14191
1.17162
1.19908
1.22574
1.25032
1.26904
1.28336
1.2901
1.29035
1.27997
1.26641
1.24341
1.22088
1.19051
1.16174
1.12928
1.10145
1.07457
1.05315
1.03088
1.01491
0.999049
0.989357
0.979089
0.977754
0.976459
0.973253
0.9734
0.976179
0.978144
0.981186
0.98667
0.992679
1.00133
1.01244
1.0285
1.04722
1.06578
1.08815
1.11353
1.13983
1.167
1.19509
1.22044
1.24655
1.26903
1.28869
1.30017
1.30809
1.30211
1.29159
1.26924
1.24604
1.21516
1.18486
1.15126
1.12124
1.09082
1.06699
1.04238
1.02489
1.00749
0.994223
0.972832
0.971
0.970219
0.968881
0.968203
0.969564
0.975103
0.978927
0.985097
0.992539
1.00246
1.01489
1.02955
1.04951
1.0711
1.0937
1.11727
1.14413
1.16817
1.19458
1.21823
1.2431
1.26366
1.28725
1.30202
1.31703
1.31935
1.31713
1.29843
1.27613
1.2449
1.21458
1.17761
1.1457
1.11105
1.08549
1.05864
1.03789
1.01844
1.00158
0.971962
0.970953
0.968809
0.968954
0.970194
0.969722
0.974115
0.98094
0.988576
0.997151
1.00708
1.02183
1.03665
1.05596
1.07595
1.10177
1.1248
1.15214
1.17534
1.20189
1.22178
1.24672
1.26363
1.28599
1.30003
1.31856
1.32555
1.33314
1.32504
1.31085
1.27992
1.25018
1.21071
1.17716
1.13849
1.10719
1.07793
1.05261
1.0327
1.01303
0.963075
0.964367
0.962497
0.961592
0.964216
0.966787
0.969585
0.975466
0.983155
0.996475
1.00692
1.02392
1.04035
1.06427
1.08324
1.11039
1.13287
1.1632
1.18461
1.21341
1.23165
1.25664
1.27171
1.29404
1.30494
1.32282
1.3302
1.34136
1.33896
1.33736
1.31698
1.29173
1.25289
1.2147
1.17584
1.13794
1.10468
1.07351
1.05056
1.02747
0.962152
0.962307
0.962449
0.962717
0.964532
0.968214
0.973026
0.980733
0.987165
1.00097
1.01225
1.03331
1.04786
1.07489
1.09391
1.12434
1.1444
1.17626
1.19633
1.22538
1.24269
1.26904
1.28356
1.30671
1.31951
1.33764
1.34421
1.35534
1.35344
1.35411
1.3415
1.32655
1.2999
1.26432
1.22325
1.17926
1.14222
1.10599
1.07704
1.04737
0.952297
0.952253
0.95222
0.953234
0.955391
0.961565
0.965778
0.976783
0.983897
1.00221
1.01213
1.03572
1.05047
1.08041
1.0992
1.13314
1.15421
1.18695
1.2065
1.23718
1.25315
1.27978
1.29386
1.31983
1.33216
1.3563
1.36542
1.38129
1.38129
1.38164
1.37077
1.3561
1.33454
1.30678
1.27468
1.23597
1.19532
1.14882
1.11635
1.07776
0.951748
0.953142
0.952503
0.955608
0.956896
0.965133
0.968935
0.983075
0.990436
1.01046
1.02263
1.04913
1.06473
1.0952
1.11514
1.14859
1.16968
1.20132
1.22001
1.24826
1.26431
1.29043
1.30398
1.32892
1.34335
1.36857
1.38326
1.40448
1.41424
1.4221
1.4166
1.40448
1.38266
1.35201
1.32141
1.28212
1.2514
1.20677
1.17747
1.12805
0.935985
0.939776
0.938088
0.943972
0.944551
0.956137
0.960831
0.977131
0.986763
1.00916
1.02362
1.05165
1.07071
1.10212
1.12533
1.15815
1.18229
1.2121
1.23224
1.25803
1.2751
1.29734
1.31396
1.33522
1.35386
1.37668
1.39813
1.42079
1.44041
1.45427
1.46494
1.45901
1.45241
1.42304
1.3978
1.34938
1.31558
1.26393
1.23124
1.18818
0.934308
0.940942
0.939367
0.946808
0.949877
0.962374
0.970476
0.988199
1.00116
1.024
1.04226
1.06878
1.09433
1.12124
1.15051
1.17672
1.2068
1.2287
1.25637
1.27192
1.29569
1.30902
1.33025
1.3438
1.3673
1.3841
1.41584
1.43441
1.46971
1.48418
1.51162
1.51271
1.52236
1.50155
1.49047
1.44809
1.42031
1.36364
1.32852
1.2719
0.914297
0.922013
0.922642
0.931105
0.93732
0.950594
0.964209
0.982331
1.00329
1.02376
1.05172
1.07426
1.10861
1.13152
1.16841
1.18914
1.22453
1.24069
1.27184
1.28156
1.30946
1.3167
1.34102
1.35191
1.37779
1.39188
1.42835
1.44367
1.49252
1.50715
1.55995
1.56219
1.59977
1.58321
1.59611
1.55824
1.54814
1.49283
1.46541
1.39912
0.919405
0.923446
0.932917
0.937754
0.953881
0.965271
0.987756
1.00429
1.03149
1.05305
1.08388
1.10802
1.14327
1.16794
1.20339
1.22606
1.25773
1.27638
1.30139
1.3157
1.33523
1.34547
1.36297
1.37296
1.39019
1.40457
1.43005
1.44849
1.49085
1.51135
1.56638
1.58538
1.63744
1.64157
1.6735
1.66301
1.66204
1.63962
1.60658
1.58174
0.893559
0.903354
0.913796
0.925764
0.940989
0.963922
0.983157
1.01466
1.03758
1.07395
1.09933
1.13667
1.16468
1.20018
1.22779
1.25971
1.28244
1.31086
1.32593
1.34572
1.35636
1.36607
1.37376
1.38194
1.38715
1.39576
1.40225
1.4166
1.43192
1.46211
1.48536
1.52935
1.54185
1.58401
1.57416
1.61569
1.59165
1.63581
1.59277
1.6431
0.899303
0.920851
0.938367
0.965239
0.989162
1.01677
1.04386
1.07466
1.10741
1.14004
1.17685
1.20845
1.24545
1.27477
1.30539
1.33097
1.34877
1.36497
1.36839
1.37484
1.37089
1.37317
1.37126
1.37306
1.37227
1.36786
1.35807
1.34216
1.3353
1.31877
1.31648
1.29686
1.26212
1.20594
1.15556
1.13947
1.12283
1.14879
1.13118
1.1874
0.885461
0.909413
0.932209
0.960653
0.990935
1.02793
1.06411
1.10502
1.14388
1.18289
1.22111
1.25468
1.28885
1.31586
1.34005
1.35859
1.3678
1.3755
1.36949
1.36677
1.35318
1.34406
1.33395
1.32917
1.32681
1.31172
1.2827
1.22082
1.14814
1.0449
0.960163
0.767475
0.577002
0.484431
0.515276
0.552501
0.587042
0.61639
0.633354
0.623842
0.97394
1.02285
1.06868
1.11287
1.15202
1.19133
1.22754
1.26358
1.29467
1.32324
1.34628
1.3647
1.37851
1.39022
1.39694
1.39856
1.39241
1.37966
1.36158
1.33333
1.30747
1.26745
1.24329
1.19606
1.16633
1.10722
1.00248
0.909813
0.750396
0.550668
0.214981
0.0903574
0.116125
0.207253
0.274435
0.314137
0.356064
0.410897
0.486776
0.533437
1.10167
1.13687
1.16922
1.20427
1.2372
1.26593
1.28908
1.30597
1.31705
1.325
1.32532
1.32748
1.32285
1.31674
1.29861
1.27584
1.24121
1.19893
1.14669
1.08337
1.01292
0.925595
0.839135
0.733466
0.667182
0.47392
0.0693193
0.261326
0.292443
0.249944
0.167746
0.180395
0.210443
0.245794
0.297651
0.342783
0.387233
0.425792
0.468945
0.51445
0.976994
0.979757
0.986839
0.982396
0.982595
0.978244
0.983783
0.984442
0.988345
0.991292
0.994135
0.996853
0.999266
1.00135
1.00293
1.00421
1.00549
1.00634
1.00676
1.00738
1.00808
1.00833
1.00818
1.00808
1.00777
1.00744
1.00728
1.00708
1.00698
1.00685
1.0067
1.00652
1.00629
1.00613
1.00589
1.00566
1.00511
1.00484
1.00422
1.00975
0.978307
0.979699
0.985829
0.98244
0.981407
0.977723
0.982668
0.984141
0.987504
0.990693
0.993659
0.996481
0.999111
1.00121
1.00269
1.00409
1.00543
1.00627
1.00668
1.00733
1.00819
1.00839
1.00822
1.00808
1.00786
1.00759
1.0074
1.00717
1.00707
1.00695
1.00683
1.00671
1.00651
1.0064
1.00622
1.00604
1.00564
1.00488
1.00339
1.00303
0.978967
0.979298
0.984547
0.982692
0.980559
0.977306
0.981437
0.98389
0.9871
0.990507
0.993732
0.996743
0.999483
1.00165
1.00326
1.00463
1.00584
1.00671
1.00705
1.00787
1.00865
1.00867
1.00841
1.00823
1.00804
1.0077
1.00751
1.0074
1.00728
1.00712
1.00701
1.00685
1.00673
1.00666
1.00643
1.00625
1.00601
1.00586
1.00586
1.00797
0.977862
0.978621
0.983397
0.982564
0.97907
0.976602
0.980237
0.983154
0.986239
0.989869
0.993301
0.996471
0.999251
1.00155
1.00334
1.00467
1.00606
1.00715
1.00769
1.00825
1.00879
1.00869
1.00847
1.00829
1.00809
1.00785
1.00774
1.0077
1.00757
1.00742
1.0073
1.00719
1.0071
1.00699
1.0068
1.00653
1.00617
1.0057
1.00482
1.00366
0.978701
0.978382
0.98199
0.982115
0.977691
0.97571
0.978859
0.982448
0.98585
0.989775
0.993409
0.996751
0.999581
1.00202
1.00398
1.00533
1.00653
1.00788
1.00867
1.00876
1.00888
1.00889
1.00882
1.00845
1.00819
1.00805
1.00806
1.00805
1.00789
1.00782
1.00771
1.00747
1.00735
1.00719
1.00706
1.00684
1.00665
1.00656
1.00649
1.00715
0.977872
0.977355
0.980805
0.981134
0.976402
0.974612
0.977482
0.981277
0.984917
0.989148
0.992939
0.996386
0.999231
1.00198
1.00425
1.00549
1.00662
1.00822
1.00912
1.00907
1.00917
1.00912
1.00883
1.00849
1.00828
1.00827
1.00843
1.00842
1.00832
1.00829
1.00812
1.00787
1.00773
1.00745
1.00731
1.00705
1.00681
1.00653
1.00594
1.00515
0.978456
0.977126
0.979236
0.979788
0.97465
0.973293
0.975918
0.980298
0.984321
0.989018
0.993009
0.996477
0.999337
1.00241
1.00493
1.00622
1.00732
1.00864
1.0095
1.00981
1.00978
1.00959
1.0091
1.00868
1.00846
1.00848
1.00859
1.00854
1.00854
1.00862
1.00838
1.00809
1.00794
1.00767
1.00756
1.00738
1.00723
1.00716
1.00698
1.00701
0.977818
0.975842
0.977629
0.978108
0.973322
0.971668
0.974191
0.978872
0.983277
0.988331
0.992556
0.99596
0.998855
1.00217
1.00508
1.00664
1.00759
1.00887
1.00981
1.01007
1.00987
1.00951
1.00908
1.00887
1.00881
1.00891
1.00902
1.00893
1.00899
1.00903
1.00871
1.00844
1.00824
1.00794
1.00776
1.00759
1.00742
1.00723
1.00687
1.00643
0.978179
0.975537
0.975996
0.97616
0.970979
0.969822
0.972285
0.977573
0.982516
0.988282
0.992696
0.996042
0.998991
1.00237
1.00559
1.00733
1.00811
1.00925
1.0102
1.01019
1.00993
1.00949
1.00921
1.00914
1.00918
1.00929
1.00926
1.0092
1.00934
1.00942
1.00908
1.00879
1.0086
1.00831
1.00811
1.00795
1.00781
1.0077
1.00751
1.00726
0.977707
0.973881
0.973826
0.97385
0.969168
0.967832
0.970131
0.97583
0.981366
0.98755
0.992256
0.995522
0.998569
1.00201
1.00564
1.00767
1.00856
1.0097
1.01032
1.01019
1.00979
1.00952
1.00932
1.00935
1.00949
1.0096
1.00967
1.00978
1.00992
1.00983
1.00948
1.00915
1.00902
1.00871
1.00847
1.00827
1.00805
1.00789
1.00767
1.00736
0.977932
0.973524
0.97189
0.971276
0.966329
0.965306
0.967671
0.974027
0.980478
0.98743
0.992339
0.995805
0.998989
1.00233
1.00592
1.00823
1.00934
1.01006
1.01032
1.01013
1.00988
1.00987
1.00979
1.00989
1.00998
1.00989
1.00981
1.01003
1.01018
1.01004
1.00985
1.00958
1.00945
1.00914
1.00893
1.00872
1.00847
1.00828
1.00808
1.00779
0.97759
0.971349
0.969053
0.968111
0.963768
0.96251
0.964941
0.9717
0.979304
0.986676
0.991837
0.995431
0.998825
1.00231
1.00597
1.00857
1.00967
1.01009
1.01025
1.01028
1.01018
1.01031
1.01047
1.01058
1.0107
1.01045
1.01025
1.01052
1.01054
1.01025
1.01005
1.00983
1.00984
1.00952
1.00935
1.00912
1.00885
1.00862
1.00831
1.00817
0.977618
0.971235
0.966504
0.96463
0.960294
0.959073
0.961646
0.9692
0.978274
0.986455
0.99192
0.995763
0.999482
1.00292
1.0065
1.0091
1.00968
1.00994
1.01025
1.01051
1.01065
1.01088
1.0111
1.01141
1.01153
1.01121
1.01093
1.01105
1.01096
1.01048
1.01038
1.01017
1.01017
1.00989
1.00976
1.00952
1.00924
1.00896
1.00861
1.00847
0.977141
0.969056
0.962825
0.960616
0.956587
0.954883
0.957824
0.966159
0.976689
0.985668
0.991582
0.99547
0.999637
1.00328
1.00699
1.00898
1.0095
1.00979
1.01043
1.01103
1.01124
1.01142
1.01174
1.01215
1.01225
1.01206
1.01174
1.01181
1.01153
1.01095
1.01079
1.01061
1.01058
1.01037
1.0102
1.01002
1.00976
1.0095
1.00903
1.00882
0.97718
0.969231
0.960022
0.956239
0.951883
0.949675
0.953015
0.962419
0.975074
0.985553
0.991977
0.995711
1.00022
1.00433
1.00744
1.00874
1.00946
1.00986
1.01062
1.01159
1.01201
1.01221
1.01256
1.01278
1.01287
1.0128
1.01255
1.01248
1.01212
1.01158
1.01148
1.01118
1.01097
1.01085
1.01061
1.01036
1.01002
1.00979
1.00944
1.00934
0.976589
0.966338
0.955997
0.95121
0.946367
0.943304
0.94735
0.957636
0.972451
0.985132
0.992233
0.995665
1.00043
1.00501
1.00765
1.00864
1.00951
1.01016
1.01094
1.01229
1.01295
1.01312
1.01362
1.01383
1.01376
1.01356
1.01329
1.01322
1.01289
1.01232
1.01222
1.01186
1.01162
1.01159
1.0112
1.01092
1.01049
1.01018
1.00984
1.00974
0.97565
0.966513
0.953539
0.945586
0.939628
0.935832
0.93995
0.951436
0.969469
0.985122
0.993157
0.996411
1.00128
1.00591
1.00806
1.00882
1.00979
1.01087
1.01184
1.01308
1.01387
1.01416
1.01466
1.015
1.01486
1.01446
1.01408
1.01385
1.01348
1.01303
1.01294
1.01254
1.01212
1.01214
1.01172
1.01143
1.01101
1.01065
1.01031
1.01023
0.974838
0.962938
0.949467
0.9392
0.932063
0.926971
0.930607
0.943157
0.964735
0.984179
0.994076
0.997576
1.0022
1.00662
1.00876
1.00923
1.01044
1.01194
1.01277
1.0141
1.01501
1.01546
1.01571
1.01597
1.01585
1.01559
1.01523
1.01471
1.01443
1.01398
1.01385
1.01357
1.01319
1.01307
1.01262
1.0122
1.01172
1.01129
1.01094
1.01083
0.973195
0.962298
0.946899
0.93235
0.923574
0.916929
0.918912
0.932319
0.957949
0.982524
0.995678
0.99998
1.00377
1.0079
1.00981
1.01042
1.01185
1.0134
1.01405
1.01534
1.01604
1.01658
1.01662
1.01667
1.01659
1.01645
1.01634
1.01559
1.01539
1.01491
1.01481
1.01443
1.01424
1.01398
1.01352
1.01307
1.01247
1.01206
1.01162
1.01151
0.973157
0.958678
0.94234
0.924969
0.91446
0.905499
0.90446
0.917677
0.946848
0.979497
0.997301
1.00286
1.00544
1.00935
1.01121
1.01254
1.01378
1.01495
1.01563
1.01675
1.01731
1.01775
1.01773
1.01754
1.01739
1.01713
1.01748
1.0166
1.01658
1.01594
1.01596
1.01543
1.01526
1.01486
1.01428
1.01387
1.01316
1.01283
1.01231
1.01223
0.972215
0.956342
0.938408
0.917651
0.905074
0.893119
0.886942
0.898218
0.93185
0.975525
0.998242
1.0058
1.00854
1.01176
1.01358
1.01512
1.01588
1.01653
1.01766
1.01865
1.01901
1.01938
1.01895
1.01872
1.01833
1.01791
1.01808
1.01721
1.01732
1.01658
1.01665
1.01617
1.01598
1.01562
1.01509
1.01466
1.01406
1.01368
1.01314
1.01308
0.97378
0.953594
0.933163
0.910551
0.895999
0.880166
0.866603
0.872905
0.911408
0.969652
0.998698
1.00761
1.01209
1.01531
1.01667
1.01792
1.01864
1.01853
1.02021
1.02055
1.0207
1.0212
1.02043
1.02048
1.02001
1.01973
1.01954
1.01855
1.01858
1.01775
1.01779
1.01742
1.0173
1.01686
1.01646
1.01582
1.0153
1.01482
1.01419
1.01409
0.97372
0.951787
0.928642
0.904029
0.887712
0.868128
0.843787
0.841977
0.884837
0.960173
0.99818
1.00906
1.01417
1.0189
1.01983
1.02084
1.02189
1.02138
1.02313
1.02265
1.0226
1.02293
1.02189
1.02196
1.02133
1.02117
1.02079
1.02012
1.0201
1.01941
1.0195
1.0191
1.01908
1.01847
1.01804
1.0172
1.01657
1.01599
1.01532
1.01519
0.975093
0.952987
0.926068
0.89827
0.880398
0.857941
0.820991
0.80579
0.84971
0.943659
0.994138
1.00907
1.01462
1.02028
1.02323
1.02414
1.02534
1.02475
1.02622
1.02508
1.02506
1.02501
1.02394
1.02394
1.0231
1.02315
1.02239
1.02215
1.02165
1.02117
1.02098
1.02051
1.02031
1.0196
1.01907
1.01821
1.01766
1.01711
1.01654
1.01641
0.977338
0.956037
0.926029
0.893576
0.873579
0.850316
0.801273
0.7666
0.805536
0.917231
0.985187
1.00576
1.01389
1.02011
1.02515
1.02731
1.02877
1.02814
1.02946
1.02815
1.02824
1.02724
1.02618
1.02593
1.02488
1.02493
1.02386
1.02374
1.02273
1.02243
1.02191
1.02142
1.02114
1.02042
1.01992
1.01931
1.0187
1.01835
1.01769
1.01764
0.983173
0.961644
0.928872
0.891212
0.86762
0.844954
0.787489
0.728111
0.751827
0.87556
0.967392
0.997371
1.00988
1.01814
1.02565
1.02915
1.03117
1.03114
1.0325
1.03145
1.03156
1.03017
1.02935
1.02885
1.02756
1.02726
1.02593
1.02557
1.02437
1.02413
1.02367
1.02321
1.02297
1.02225
1.02173
1.02114
1.02031
1.01988
1.01913
1.01906
0.992567
0.969023
0.934609
0.893147
0.865056
0.841193
0.780738
0.694367
0.690308
0.814779
0.937581
0.982482
1.00095
1.01361
1.02428
1.02874
1.03182
1.03297
1.03424
1.0336
1.03394
1.03312
1.03266
1.03213
1.03097
1.03063
1.02934
1.02888
1.02792
1.02762
1.02703
1.02655
1.0259
1.02509
1.02419
1.02347
1.02247
1.02188
1.02107
1.02088
1.00683
0.980443
0.94516
0.902194
0.869896
0.8404
0.777571
0.667201
0.624443
0.732395
0.889443
0.958439
0.986185
1.00424
1.01963
1.02616
1.03074
1.03315
1.03489
1.03479
1.03574
1.03588
1.03588
1.03564
1.03502
1.03459
1.03361
1.03301
1.03244
1.03185
1.03119
1.03025
1.02929
1.02826
1.02718
1.02642
1.02529
1.02461
1.0237
1.02337
1.02664
0.998422
0.962633
0.921702
0.886772
0.846379
0.773265
0.646414
0.558274
0.631647
0.813766
0.920155
0.962657
0.988542
1.01161
1.02128
1.02817
1.03223
1.03539
1.03608
1.03723
1.03772
1.03817
1.03818
1.03802
1.03733
1.03713
1.03618
1.03617
1.03501
1.03464
1.03344
1.03281
1.0317
1.03075
1.0298
1.02874
1.02774
1.02687
1.02639
1.05622
1.02493
0.990816
0.954813
0.917213
0.859939
0.766107
0.627065
0.4939
0.519149
0.703754
0.858707
0.924542
0.962131
0.996732
1.01216
1.0233
1.03099
1.03552
1.03733
1.03903
1.03955
1.04056
1.04045
1.04124
1.04013
1.0406
1.03896
1.03926
1.03782
1.03813
1.03699
1.03674
1.03544
1.03454
1.03343
1.03228
1.03121
1.03026
1.02973
1.09926
1.06191
1.03681
1.00784
0.958475
0.876491
0.753431
0.597965
0.430385
0.394575
0.562953
0.76504
0.865686
0.919248
0.968827
0.994585
1.01195
1.02531
1.03296
1.037
1.04083
1.0423
1.04452
1.04437
1.04602
1.04449
1.04543
1.04366
1.04464
1.04278
1.04345
1.04156
1.04096
1.03953
1.0381
1.03739
1.03562
1.03513
1.03377
1.03369
1.15927
1.1247
1.12013
1.08981
1.00377
0.88427
0.725766
0.5463
0.358385
0.262064
0.401547
0.628547
0.779511
0.855452
0.921898
0.963697
0.990101
1.01109
1.02521
1.0329
1.04054
1.04355
1.04772
1.04774
1.05008
1.04894
1.05057
1.04888
1.05024
1.04785
1.04856
1.04612
1.04562
1.04402
1.04249
1.04188
1.03987
1.03963
1.0377
1.03815
1.24231
1.249
1.24031
1.15451
1.0262
0.859923
0.664888
0.460419
0.26185
0.117755
0.211207
0.46606
0.659682
0.770049
0.855637
0.91559
0.955175
0.985417
1.00899
1.02086
1.0344
1.03928
1.04617
1.04761
1.05157
1.05106
1.05374
1.05231
1.05424
1.05248
1.0534
1.0516
1.05138
1.05047
1.04935
1.04896
1.04701
1.0466
1.04491
1.04518
1.39549
1.37175
1.28123
1.15571
0.975891
0.766328
0.546075
0.335234
0.152032
0.0784183
0.0736765
0.309404
0.520709
0.659136
0.768598
0.846829
0.905537
0.946609
0.98208
0.999613
1.02196
1.03012
1.04216
1.04587
1.05323
1.05405
1.05862
1.058
1.0607
1.05995
1.06074
1.0606
1.05995
1.0605
1.05906
1.05931
1.05688
1.05637
1.05497
1.05493
1.53175
1.40825
1.27372
1.08349
0.845168
0.592021
0.35592
0.203286
0.202926
0.311321
0.293694
0.212005
0.347525
0.513871
0.658345
0.756311
0.837249
0.892376
0.942773
0.969898
1.00134
1.01612
1.03595
1.04251
1.05606
1.05862
1.06645
1.06717
1.07103
1.07243
1.0733
1.07498
1.07352
1.07518
1.07308
1.07414
1.07181
1.07036
1.06797
1.06719
1.55117
1.3432
1.11275
0.843888
0.544308
0.292292
0.200611
0.316407
0.424415
0.513782
0.486624
0.353866
0.375118
0.421831
0.560802
0.657116
0.74789
0.821832
0.88584
0.925352
0.9667
0.988229
1.01831
1.02828
1.04958
1.05491
1.06812
1.07136
1.07776
1.08167
1.08379
1.08827
1.08798
1.09132
1.08924
1.09052
1.08973
1.08713
1.08562
1.08245
1.08272
0.850672
0.614153
0.375903
0.211471
0.32594
0.530043
0.677632
0.793972
0.839636
0.818321
0.61852
0.480511
0.421851
0.450658
0.562344
0.637238
0.737344
0.808815
0.857377
0.908943
0.933962
0.971846
0.988489
1.01585
1.03146
1.04947
1.0622
1.07162
1.08172
1.08572
1.09452
1.09649
1.10452
1.10705
1.11027
1.11257
1.11314
1.11581
1.11329
0.570799
0.614804
0.619925
0.699723
0.75376
0.837005
0.885078
0.974709
1.00495
1.01745
0.995209
0.851827
0.615423
0.428223
0.476442
0.519329
0.528093
0.597081
0.674311
0.73477
0.811222
0.856339
0.915759
0.95141
0.978057
1.00726
1.02053
1.04162
1.05008
1.06866
1.07487
1.08721
1.09094
1.09763
1.10098
1.10408
1.10937
1.11204
1.1212
1.12758
0.54548
0.615208
0.618185
0.70022
0.737172
0.820786
0.869636
0.932739
0.940551
0.961814
0.928072
0.844683
0.749304
0.637138
0.535474
0.322708
0.312568
0.390147
0.500833
0.615167
0.727711
0.793749
0.830754
0.887333
0.911509
0.959799
0.9847
1.01453
1.03645
1.05926
1.08176
1.10072
1.12233
1.13757
1.15771
1.16865
1.18455
1.19032
1.19668
1.19828
0.571385
0.635683
0.688322
0.731914
0.765168
0.790952
0.806274
0.800891
0.785176
0.774085
0.733051
0.700217
0.637138
0.585569
0.577012
0.550351
0.533286
0.515266
0.52548
0.59647
0.698391
0.463602
0.321554
0.513486
0.551847
0.591691
0.628352
0.659835
0.713674
0.74554
0.807528
0.840208
0.90327
0.933665
0.990473
1.01783
1.07275
1.10965
1.17568
1.22343
1.01497
1.01431
1.01633
1.01659
1.01761
1.01786
1.01792
1.01848
1.01815
1.01874
1.01829
1.01891
1.01843
1.01885
1.01853
1.01869
1.01847
1.01837
1.01806
1.01774
1.01722
1.0165
1.01545
1.01391
1.01165
1.00834
1.00353
0.997052
0.989482
0.981905
0.976192
0.975914
0.984606
0.996237
1.00245
1.00327
1.00347
1.00378
1.00432
1.00525
0.998245
0.999294
0.997997
0.997799
0.997734
0.997333
0.99782
0.997281
0.9978
0.997464
0.997712
0.997736
0.997731
0.997886
0.997845
0.997957
0.99791
0.998014
0.998084
0.998222
0.998448
0.998882
0.999591
1.00077
1.00267
1.00547
1.00919
1.01382
1.01919
1.02454
1.02616
1.02512
1.0207
1.01357
1.00824
1.00677
1.0062
1.00611
1.0058
1.00564
1.01084
1.01202
1.01417
1.01505
1.01581
1.01684
1.01655
1.01742
1.01693
1.01769
1.01698
1.01772
1.017
1.01747
1.01697
1.01705
1.01664
1.01636
1.01576
1.01508
1.01414
1.01293
1.01136
1.00936
1.00695
1.00411
1.00075
0.997301
0.995308
0.995991
0.997348
0.999411
1.00326
1.00506
1.00539
1.00539
1.00483
1.00489
1.00551
1.00584
1.00141
1.0019
1.00116
1.00069
1.00048
1.00007
1.00021
0.999939
0.999899
1.00016
0.999764
1.0003
0.999918
1.00043
1.00024
1.00058
1.00053
1.00097
1.00137
1.00196
1.00273
1.00382
1.00511
1.00678
1.00888
1.01128
1.01367
1.01583
1.01832
1.02013
1.02035
1.01873
1.01642
1.0147
1.01259
1.01009
1.00847
1.00771
1.00693
1.00656
1.00856
1.0105
1.01193
1.01355
1.01387
1.01486
1.01483
1.01545
1.01525
1.01576
1.01529
1.01572
1.01529
1.01535
1.01498
1.01492
1.01454
1.01405
1.01331
1.01249
1.01139
1.01012
1.00866
1.00701
1.00531
1.00351
1.00161
1.00026
1.00043
1.00151
1.00186
1.00262
1.00521
1.0065
1.00684
1.00685
1.00658
1.00671
1.00693
1.00698
1.00423
1.00365
1.0036
1.00333
1.00313
1.00308
1.00294
1.00298
1.00282
1.00299
1.00278
1.00299
1.0028
1.0031
1.00309
1.00341
1.00347
1.00392
1.00451
1.00525
1.0061
1.00715
1.00829
1.00962
1.01096
1.0122
1.01311
1.01384
1.01512
1.01574
1.0153
1.01408
1.01358
1.01316
1.01184
1.01018
1.0088
1.00823
1.00767
1.00741
1.00758
1.00946
1.0103
1.01178
1.01226
1.01292
1.01317
1.01368
1.0136
1.01395
1.01379
1.01398
1.01364
1.0137
1.01343
1.01332
1.01287
1.01233
1.01156
1.01072
1.00974
1.00868
1.00755
1.00637
1.00524
1.00416
1.00315
1.00275
1.00347
1.00424
1.00417
1.00462
1.0065
1.00745
1.00779
1.00783
1.0079
1.0079
1.00773
1.00768
1.00618
1.00546
1.00517
1.00521
1.00551
1.00552
1.00542
1.00555
1.00543
1.0055
1.00552
1.00561
1.00564
1.0057
1.00572
1.00584
1.00603
1.00652
1.00703
1.00763
1.00832
1.00909
1.00983
1.01064
1.01145
1.01196
1.01219
1.01267
1.01307
1.01307
1.01242
1.01171
1.01137
1.01116
1.01026
1.0091
1.00857
1.00823
1.00795
1.00784
1.00746
1.00902
1.00961
1.01062
1.01097
1.01162
1.01181
1.01222
1.01226
1.01253
1.01248
1.01263
1.01254
1.01255
1.01236
1.0122
1.01179
1.01128
1.01063
1.00995
1.0092
1.00838
1.00758
1.00692
1.00644
1.00597
1.00562
1.00589
1.00662
1.00687
1.00664
1.00713
1.00801
1.00839
1.00856
1.00867
1.0086
1.00838
1.00812
1.00802
1.00731
1.00717
1.00704
1.00704
1.0072
1.00751
1.00775
1.00787