/*--------------------------------*- C++ -*----------------------------------*\
  =========                 |
  \\      /  F ield         | OpenFOAM: The Open Source CFD Toolbox
   \\    /   O peration     | Website:  https://openfoam.org
    \\  /    A nd           | Version:  11
     \\/     M anipulation  |
\*---------------------------------------------------------------------------*/
FoamFile
{
    format      ascii;
    class       surfaceScalarField;
    location    "2.5";
    object      phi;
}
// * * * * * * * * * * * * * * * * * * * * * * * * * * * * * * * * * * * * * //

dimensions      [0 3 -1 0 0 0 0];

internalField   nonuniform List<scalar> 
18960
(
0.0481054
0.000707842
-0.0488132
0.0475433
0.000562058
0.0471171
0.000426194
0.0463623
0.000754831
0.0445212
0.00184107
0.0419932
0.002528
0.040006
0.00198726
0.0393193
0.000686686
0.0395353
-0.000216058
0.0405397
-0.00100441
0.0423335
-0.00179372
0.0440601
-0.00172663
0.0452798
-0.00121974
0.046232
-0.000952181
0.0470959
-0.000863832
0.0479866
-0.000890752
0.0489282
-0.000941631
0.0498551
-0.00092691
0.0507542
-0.00089901
0.0514673
-0.000713117
0.0520631
-0.000595817
0.0522285
-0.000165391
0.0520218
0.00020669
0.051526
0.000495839
0.050752
0.000773933
0.0497592
0.000992836
0.0486958
0.00106338
0.0477422
0.000953623
0.0470394
0.000702796
0.0466378
0.000401603
0.0465104
0.000127349
0.0466669
-0.000156424
0.0469386
-0.000271767
0.0472857
-0.00034703
0.0477519
-0.000466241
0.0481801
-0.000428185
0.0488298
-0.000649701
0.0497234
-0.000893639
0.0507081
-0.000984706
-0.000340756
0.0510489
0.0484252
0.000946688
-0.048664
0.0480797
0.000907502
0.047552
0.000953905
0.0468657
0.00144117
0.0460623
0.00264449
0.0450191
0.00357121
0.044025
0.00298135
0.0435333
0.00117843
0.0435377
-0.000220556
0.0439248
-0.00139147
0.0443207
-0.00218967
0.0445162
-0.00192211
0.0447914
-0.00149492
0.0453801
-0.00154089
0.0462861
-0.00176986
0.0474402
-0.00204486
0.0487
-0.00220137
0.0499677
-0.00219459
0.0511952
-0.00212651
0.052239
-0.00175696
0.0530245
-0.00138125
0.0534925
-0.000633487
0.0535693
0.000129948
0.0534375
0.000627622
0.0529917
0.00121969
0.0522866
0.001698
0.0514147
0.00193525
0.0505243
0.00184401
0.0496128
0.00161427
0.0487118
0.00130267
0.0478431
0.000995988
0.0471705
0.0005162
0.046605
0.000293798
0.0463126
-5.4631e-05
0.0460147
-0.000168386
0.0458731
-0.000286611
0.0455288
-0.000305355
0.0451606
-0.000525455
0.0449036
-0.000727754
-0.00114782
0.0457107
0.0482855
0.0013331
-0.0486719
0.0477672
0.00142577
0.0471465
0.00157457
0.0464349
0.00215279
0.0453912
0.00368818
0.0443495
0.00461295
0.0435265
0.00380429
0.0433604
0.00134458
0.0438809
-0.000741081
0.0446974
-0.0022079
0.0456431
-0.00313543
0.0466027
-0.00288171
0.0474021
-0.00229433
0.0480742
-0.00221299
0.0487309
-0.00242649
0.0494052
-0.0027192
0.0501489
-0.00294506
0.0509382
-0.00298386
0.0517164
-0.0029047
0.0524015
-0.00244206
0.0529195
-0.00189929
0.0531851
-0.000899125
0.0531715
0.000143548
0.0527973
0.00100184
0.0522182
0.00179876
0.0514377
0.0024785
0.0505344
0.00283857
0.0497323
0.00264616
0.0490473
0.00229922
0.0486082
0.00174178
0.0483972
0.00120698
0.0483819
0.000531534
0.0485153
0.000160368
0.0487974
-0.000336749
0.0491204
-0.000491357
0.0495753
-0.000741479
0.0503593
-0.00108936
0.0509246
-0.0010908
0.0515857
-0.00138881
-0.000934877
0.0513727
0.0481948
0.0017832
-0.0486449
0.0477254
0.00189516
0.0471988
0.0021012
0.0464546
0.00289702
0.0456484
0.00449434
0.0453063
0.00495507
0.0452055
0.00390508
0.0455349
0.00101516
0.0461648
-0.00137098
0.0467192
-0.00276228
0.0468069
-0.00322317
0.0465237
-0.00259854
0.0463711
-0.00214165
0.0465529
-0.00239482
0.0471205
-0.00299413
0.0479894
-0.00358808
0.0490707
-0.0040264
0.0502337
-0.00414683
0.0513024
-0.00397341
0.0522535
-0.00339311
0.0530499
-0.00269574
0.0536361
-0.00148529
0.0537525
2.71239e-05
0.0537022
0.00105214
0.0533756
0.00212541
0.0528614
0.00299262
0.0521086
0.00359145
0.0512665
0.00348821
0.0503864
0.00317928
0.0494935
0.00263469
0.0485737
0.00212681
0.0477728
0.00133246
0.0470466
0.000886547
0.046503
0.000206832
0.0461391
-0.000127413
0.0458043
-0.000406732
0.0455875
-0.000872529
0.0454999
-0.0010032
0.0453426
-0.00123153
-0.00171245
0.0461202
0.0481088
0.00224538
-0.048571
0.0476515
0.00235243
0.0471081
0.00264465
0.0463346
0.00367053
0.0459068
0.00492218
0.0459265
0.00493534
0.0460236
0.00380795
0.0462436
0.000795218
0.0463382
-0.00146559
0.0463464
-0.00277055
0.0464818
-0.00335858
0.0470261
-0.00314281
0.0477595
-0.00287505
0.048447
-0.00308228
0.0490988
-0.00364592
0.0497161
-0.00420536
0.0503607
-0.00467103
0.0510702
-0.00485631
0.0517468
-0.00465008
0.0523588
-0.00400508
0.0528601
-0.00319702
0.0531466
-0.00177177
0.0532962
-0.000122469
0.0530652
0.00128308
0.0526642
0.00252644
0.0521046
0.00355225
0.0514028
0.00429318
0.0506777
0.00421333
0.0499949
0.00386205
0.0494844
0.00314525
0.0491778
0.00243335
0.0490022
0.00150811
0.0490644
0.000824311
0.0492284
4.28493e-05
0.0494784
-0.00037742
0.0498916
-0.000819947
0.0504388
-0.00141975
0.0509589
-0.00152328
0.0514216
-0.00169419
-0.00144517
0.0511543
0.048031
0.00270034
-0.048486
0.0475688
0.00281468
0.047002
0.00321137
0.0463754
0.00429721
0.0461545
0.00514309
0.0461971
0.0048927
0.0464942
0.00351085
0.0470078
0.000281615
0.0474541
-0.00191194
0.0478278
-0.00314418
0.0480564
-0.00358723
0.0479931
-0.00307948
0.0477735
-0.00265547
0.0478273
-0.00313606
0.0481565
-0.00397508
0.0487839
-0.00483284
0.0496049
-0.00549196
0.0505516
-0.00580304
0.051502
-0.00560045
0.052338
-0.0048411
0.0530538
-0.00391278
0.0537071
-0.00242509
0.0539534
-0.000368817
0.0540314
0.00120513
0.0537252
0.00283262
0.0533101
0.00396733
0.0526665
0.00493682
0.0518933
0.00498653
0.0510772
0.00467813
0.0502637
0.00395877
0.0494163
0.00328071
0.04857
0.00235444
0.047724
0.00167025
0.047067
0.000699899
0.0465842
0.000105351
0.0461919
-0.000427658
0.0458948
-0.00112258
0.0457965
-0.00142497
0.0457874
-0.0016851
-0.00222969
0.0465719
0.0479472
0.00314646
-0.0483933
0.047495
0.00326693
0.0469559
0.00375048
0.0464903
0.00476274
0.0464532
0.00518019
0.0465649
0.004781
0.0470972
0.00297856
0.0475854
-0.000206551
0.0477676
-0.00209413
0.0476565
-0.00303312
0.0474768
-0.00340748
0.0475449
-0.00314762
0.0479721
-0.00308265
0.0486542
-0.00381823
0.0493446
-0.00466547
0.0499883
-0.0054765
0.0506193
-0.00612296
0.0512569
-0.00644067
0.0518339
-0.00617743
0.0524328
-0.00544
0.0529198
-0.0043998
0.0532044
-0.00270971
0.0534514
-0.00061576
0.0533934
0.00126314
0.0531732
0.00305277
0.0528053
0.00433529
0.0522858
0.00545629
0.0516696
0.00560274
0.050971
0.00537669
0.0503721
0.00455772
0.0499645
0.00368826
0.0497224
0.0025966
0.0496774
0.00171516
0.0497657
0.000611649
0.049893
-2.19411e-05
0.0501436
-0.000678247
0.0504602
-0.00143923
0.0509084
-0.00187311
0.0512419
-0.00201865
-0.00191254
0.0509248
0.047881
0.00358505
-0.0483196
0.0474399
0.00370803
0.0469679
0.00422244
0.0466715
0.00505917
0.0466799
0.00517182
0.0468769
0.004584
0.0475361
0.00231929
0.0480772
-0.000747599
0.0483879
-0.00240489
0.0484971
-0.00314227
0.0485088
-0.00341922
0.0485722
-0.00321098
0.0486132
-0.00312366
0.048726
-0.00393106
0.0490626
-0.00500199
0.0495845
-0.00599845
0.0502519
-0.00679033
0.0510061
-0.00719485
0.0517575
-0.00692887
0.0524934
-0.00617591
0.0531181
-0.00502453
0.0537814
-0.00337298
0.0541177
-0.000952112
0.0543111
0.00106977
0.0541571
0.00320683
0.0538336
0.00465873
0.0533307
0.00595917
0.0526461
0.00628733
0.051908
0.00611487
0.0511288
0.00533687
0.0503519
0.00446518
0.049501
0.00344752
0.0486418
0.0025743
0.0478143
0.00143916
0.0471957
0.000596701
0.0467834
-0.000265958
0.0464021
-0.0010579
0.0462493
-0.00172035
0.046327
-0.00209634
-0.00266353
0.047078
0.0478306
0.00400137
-0.048247
0.0474333
0.00410538
0.0470381
0.00461763
0.0468556
0.00524169
0.0469079
0.0051195
0.0472018
0.00429014
0.0479905
0.00153053
0.0485368
-0.00129386
0.0487236
-0.00259176
0.0486207
-0.00303932
0.0484135
-0.00321203
0.048342
-0.00313951
0.0485304
-0.00331206
0.0490283
-0.00442893
0.0496325
-0.00560616
0.0502637
-0.00662972
0.0508638
-0.00739037
0.0514675
-0.00779859
0.0520133
-0.00747467
0.0525492
-0.00671182
0.0530439
-0.00551922
0.0533774
-0.00370647
0.05368
-0.00125475
0.0537678
0.000982029
0.0537185
0.00325613
0.0535297
0.00484756
0.053172
0.00631678
0.0526733
0.00678611
0.0520402
0.00674793
0.0513388
0.00603829
0.0507916
0.00501241
0.0504918
0.00374732
0.0503427
0.00272338
0.0503447
0.00143717
0.0504248
0.000516564
0.0504585
-0.000299662
0.0505615
-0.00116088
0.0508127
-0.00197161
0.0510251
-0.00230868
-0.00235776
0.0507193
0.0478111
0.00436848
-0.0481782
0.0474775
0.00443901
0.0471319
0.00496317
0.0470328
0.00534085
0.04714
0.00501227
0.0476483
0.00378186
0.0484742
0.00070461
0.0487879
-0.00160762
0.0488303
-0.00263411
0.0488448
-0.00305384
0.048912
-0.00327915
0.0490597
-0.00328726
0.0492358
-0.00348813
0.0494117
-0.00460481
0.0497484
-0.0059429
0.0502328
-0.00711416
0.0508012
-0.0079587
0.0514193
-0.0084167
0.0520631
-0.00811849
0.0526929
-0.00734163
0.0532387
-0.00606501
0.0538601
-0.00432788
0.0543197
-0.00171436
0.0546127
0.000689016
0.0545939
0.00327492
0.0543849
0.00505661
0.0540537
0.00664794
0.0534939
0.00734594
0.0528393
0.00740255
0.0521001
0.0067775
0.0513563
0.00575611
0.050552
0.00455169
0.0497308
0.00354458
0.0488647
0.0023033
0.0480801
0.00130107
0.0475905
0.000189966
0.0471273
-0.000697638
0.0469268
-0.00177108
0.0469644
-0.00234635
-0.00301962
0.0476263
0.0478342
0.00467991
-0.0481456
0.0475282
0.00474494
0.0472694
0.00522205
0.0472598
0.00535038
0.0474167
0.00485539
0.0481042
0.00309434
0.0487928
1.60506e-05
0.0490389
-0.0018537
0.049119
-0.00271421
0.0491128
-0.00304772
0.049077
-0.00324332
0.0491403
-0.00335051
0.0493417
-0.00368959
0.0496847
-0.00494779
0.0501306
-0.00638882
0.0506369
-0.00762043
0.0511491
-0.00847091
0.0517144
-0.00898202
0.0522326
-0.00863665
0.0527645
-0.00787359
0.0532301
-0.00653053
0.0536396
-0.00473736
0.0539814
-0.00205618
0.0541926
0.000477747
0.0543046
0.003163
0.0542598
0.00510142
0.054071
0.00683674
0.0536984
0.00771852
0.053168
0.00793293
0.0525234
0.00742215
0.0518399
0.00643957
0.0513504
0.00504119
0.0510784
0.00381662
0.0509863
0.00239539
0.0510442
0.0012431
0.0509431
0.000291091
0.0508524
-0.000606967
0.0508623
-0.00178095
0.0509318
-0.0024158
-0.00269038
0.0506025
0.0478912
0.00494419
-0.0481555
0.047622
0.00501422
0.0474253
0.00541868
0.0474805
0.00529517
0.0477824
0.00455352
0.0485795
0.00229722
0.0490956
-0.00050005
0.0492331
-0.0019912
0.0492187
-0.00269976
0.0492127
-0.00304176
0.0492818
-0.00331238
0.0495215
-0.00359023
0.0498565
-0.0040246
0.0501344
-0.00522573
0.0504535
-0.0067079
0.0508675
-0.0080344
0.0513168
-0.00892018
0.0518377
-0.00950292
0.0523878
-0.00918673
0.0529646
-0.00845043
0.0534412
-0.00700715
0.0540285
-0.00532465
0.054576
-0.00260368
0.054929
0.000124793
0.0550698
0.00302213
0.0550124
0.00515886
0.0548341
0.00701505
0.0544122
0.00814041
0.0538338
0.00851128
0.0532268
0.00802918
0.0525314
0.00713493
0.0517766
0.00579602
0.0509595
0.00463368
0.0500554
0.0032995
0.0492028
0.00209575
0.0485781
0.000915768
0.0481237
-0.000152507
0.0478181
-0.00147544
0.0477002
-0.00229786
-0.00322591
0.0482357
0.0479779
0.00517172
-0.0482055
0.0477124
0.00527974
0.0476214
0.00550973
0.0477397
0.00517682
0.0481981
0.0040951
0.048983
0.00151238
0.0493135
-0.000830571
0.0493042
-0.00198191
0.0492552
-0.00265079
0.0493675
-0.00315402
0.0495448
-0.00348964
0.0497919
-0.00383737
0.0501012
-0.00433396
0.0504379
-0.00556234
0.0508019
-0.0070719
0.0512228
-0.00845538
0.0516158
-0.00931312
0.0520819
-0.00996909
0.0525583
-0.00966304
0.0530618
-0.00895397
0.0535353
-0.00748065
0.0539741
-0.00576345
0.0543491
-0.00297863
0.0547171
-0.00024324
0.0549359
0.00280334
0.0550324
0.00506232
0.0549859
0.00706159
0.054751
0.00837528
0.0543127
0.00894955
0.0537732
0.00856874
0.0530814
0.00782673
0.0524277
0.00644973
0.0519997
0.00506161
0.0517689
0.00353036
0.051708
0.00215662
0.051649
0.000974824
0.0513657
0.00013074
0.0511843
-0.00129397
0.0510361
-0.00214967
-0.00282236
0.0506325
0.0480693
0.0053821
-0.0482797
0.0478445
0.00550454
0.0478432
0.0055111
0.0480352
0.00498475
0.0486915
0.00343882
0.0493279
0.000876046
0.0494742
-0.000976882
0.0494125
-0.00192027
0.0494049
-0.00264313
0.0495017
-0.00325082
0.0496811
-0.00366909
0.0499961
-0.00415239
0.0504403
-0.00477807
0.0508543
-0.0059764
0.0511866
-0.00740416
0.0515305
-0.00879928
0.0518988
-0.00968141
0.0522852
-0.0103556
0.0527585
-0.0101363
0.0532892
-0.0094847
0.0537362
-0.00792769
0.0542559
-0.0062831
0.0548626
-0.00358533
0.0552871
-0.000667749
0.0556212
0.00246925
0.055688
0.00499551
0.0556491
0.00710042
0.0554733
0.00855116
0.055054
0.0093688
0.0544812
0.00914153
0.0538723
0.0084356
0.0531569
0.00716516
0.0523778
0.00584069
0.051485
0.00442315
0.0505695
0.00307215
0.0498202
0.00172413
0.04931
0.000640941
0.0488981
-0.000882109
0.0486259
-0.00187743
-0.00314179
0.0489453
0.048145
0.00561267
-0.0483756
0.0479985
0.00565108
0.0480774
0.00543215
0.048414
0.00464815
0.0491549
0.00269795
0.0495457
0.000485245
0.0495562
-0.00098739
0.0494639
-0.001828
0.0494092
-0.00258839
0.0495305
-0.00337217
0.049831
-0.00396958
0.0502903
-0.00461167
0.0507769
-0.00526465
0.0512149
-0.00641438
0.0515757
-0.00776497
0.0518912
-0.00911484
0.0521917
-0.0099819
0.0525536
-0.0107175
0.0529412
-0.0105238
0.053417
-0.00996051
0.0538768
-0.00838749
0.0543517
-0.00675797
0.054756
-0.00398964
0.0551963
-0.00110812
0.055584
0.00208155
0.0558446
0.00473495
0.0559254
0.00701957
0.0558501
0.00862652
0.0555431
0.00967579
0.0551105
0.0095741
0.0545475
0.00899864
0.0538541
0.00785855
0.0532049
0.00648985
0.0528086
0.00481945
0.0525506
0.00333017
0.0524148
0.00185995
0.0521786
0.000877107
0.0518387
-0.000542177
0.0514221
-0.00146084
-0.00272976
0.0510101
0.0482125
0.00581784
-0.0484177
0.0481712
0.00569238
0.0483611
0.00524228
0.0489173
0.00409194
0.0495439
0.0020714
0.0497262
0.000302926
0.0496718
-0.000932966
0.0495567
-0.00171298
0.0495314
-0.00256307
0.0496949
-0.00353563
0.0500029
-0.00427765
0.0504906
-0.00509932
0.051049
-0.00582303
0.0515989
-0.00696432
0.0520011
-0.00816711
0.0523595
-0.00947323
0.0526613
-0.0102837
0.0529359
-0.0109921
0.0532656
-0.0108535
0.0537068
-0.0104017
0.0541268
-0.00880747
0.0545646
-0.00719578
0.0551163
-0.00454138
0.0556815
-0.00167331
0.0561661
0.00159692
0.0564631
0.00443804
0.0565898
0.00689282
0.0566164
0.00859989
0.0564144
0.0098778
0.0559399
0.0100487
0.0553107
0.0096278
0.054689
0.00848023
0.0540035
0.00717538
0.0531726
0.00565032
0.0522646
0.00423817
0.0514066
0.00271794
0.050706
0.00157769
0.0502853
-0.000121448
0.0498801
-0.0010556
-0.00268044
0.0498307
0.0484063
0.00593303
-0.0485215
0.0484893
0.00560943
0.0488115
0.00492003
0.0494186
0.00348485
0.0498341
0.00165595
0.0499107
0.000226256
0.0498001
-0.00082234
0.0497227
-0.00163559
0.0497193
-0.00255961
0.0498669
-0.00368324
0.050204
-0.00461476
0.0506999
-0.00559524
0.0513205
-0.00644359
0.0519046
-0.00754848
0.0523368
-0.00859933
0.0527192
-0.00985556
0.053048
-0.0106125
0.0533325
-0.0112766
0.0535903
-0.0111113
0.0539259
-0.0107374
0.0543036
-0.00918515
0.0547349
-0.00762708
0.0551625
-0.00496893
0.0557167
-0.00222754
0.0562271
0.00108656
0.0566633
0.00400182
0.0569379
0.00661819
0.057078
0.00845982
0.0569894
0.00996635
0.0566551
0.010383
0.0561741
0.0101088
0.0555617
0.00909264
0.0548373
0.00789979
0.0542254
0.00626217
0.0537468
0.00471678
0.0534843
0.00298047
0.0531628
0.00189917
0.0527607
0.000280609
0.0522697
-0.000564571
-0.0022201
0.0518094
0.0486617
0.00593556
-0.0486642
0.048855
0.00541613
0.0493027
0.00447231
0.0497946
0.00299296
0.0500131
0.00143743
0.0499563
0.000283112
0.0498631
-0.000729209
0.049847
-0.00161944
0.0498576
-0.00257018
0.0500329
-0.00385856
0.0503943
-0.00497621
0.0508804
-0.00608127
0.0514837
-0.00704688
0.0521556
-0.00822045
0.0526811
-0.00912482
0.0530957
-0.0102702
0.0534721
-0.0109889
0.0537816
-0.0115861
0.0540098
-0.0113395
0.0543207
-0.0110483
0.0546875
-0.00955194
0.0550686
-0.00800819
0.055603
-0.00550328
0.0561897
-0.0028143
0.056805
0.000471324
0.0573362
0.00347063
0.057659
0.00629532
0.0578521
0.00826674
0.0578857
0.00993281
0.0576663
0.0106024
0.0571284
0.0106467
0.0564651
0.00975599
0.0557963
0.00856858
0.0550757
0.0069828
0.0541983
0.00559413
0.0533396
0.00383919
0.0524613
0.00277745
0.0518729
0.000869057
0.0514135
-0.000105208
-0.00199986
0.0511933
0.0491331
0.00586294
-0.0490605
0.0494021
0.00514712
0.0498174
0.00405705
0.0500831
0.00272726
0.0500885
0.00143198
0.0500165
0.000355139
0.0499023
-0.000614999
0.0499308
-0.00164797
0.050034
-0.00267336
0.0502236
-0.00404817
0.0505559
-0.00530852
0.0510297
-0.00655511
0.0516219
-0.00763902
0.0522979
-0.00889654
0.0529442
-0.00977107
0.0534747
-0.0108006
0.0538508
-0.011365
0.0542158
-0.011951
0.0544588
-0.0115826
0.0546679
-0.0112574
0.0549765
-0.00986057
0.0553641
-0.00839574
0.0558204
-0.00595961
0.0563815
-0.00337535
0.0570457
-0.000192943
0.0576831
0.0028332
0.0581561
0.00582241
0.0584606
0.00796224
0.0586102
0.00978313
0.058519
0.0106936
0.0581481
0.0110176
0.0576084
0.0102957
0.0568728
0.00930418
0.0561128
0.00774282
0.0553704
0.00633653
0.0548959
0.00431372
0.0545017
0.00317164
0.0540389
0.00133181
0.0533976
0.000536095
-0.00147775
0.0528755
0.049444
0.00570508
-0.0492861
0.049764
0.00482713
0.0500807
0.00374028
0.0502003
0.00260772
0.0501414
0.00149082
0.0500693
0.000427288
0.0499705
-0.000516258
0.0500649
-0.00174228
0.0502422
-0.0028507
0.0504362
-0.00424214
0.0507154
-0.00558777
0.0512125
-0.00705219
0.0517502
-0.00817675
0.0524034
-0.0095497
0.0530685
-0.0104362
0.0537155
-0.0114477
0.0541523
-0.0118019
0.0545928
-0.0123915
0.0549114
-0.0119011
0.0551686
-0.0115146
0.0554349
-0.0101268
0.0557872
-0.00874808
0.0562433
-0.0064157
0.0568548
-0.00398684
0.0575186
-0.000856761
0.0582719
0.00207989
0.0588545
0.00523984
0.0592557
0.00756098
0.0594706
0.00956831
0.0595352
0.010629
0.0593021
0.0112507
0.058772
0.0108258
0.0580211
0.0100551
0.0573385
0.00842542
0.0564975
0.0071775
0.0556051
0.00520611
0.0546991
0.00407768
0.0539627
0.00206821
0.0533295
0.00116926
-0.00102443
0.0528762
0.0500501
0.00554815
-0.0498932
0.0502801
0.00459711
0.050435
0.00358541
0.0504323
0.00261044
0.0503221
0.00160101
0.0502069
0.000542432
0.0501689
-0.000478243
0.0502744
-0.00184779
0.0504832
-0.00305942
0.0507184
-0.00447736
0.0509612
-0.00583061
0.0513922
-0.00748314
0.0518947
-0.00867927
0.052484
-0.0101391
0.0531073
-0.0110594
0.0538138
-0.0121542
0.0543649
-0.012353
0.0548536
-0.0128802
0.0552881
-0.0123356
0.05563
-0.0118565
0.0559306
-0.0104274
0.0562581
-0.0090756
0.056706
-0.00686356
0.057255
-0.00453592
0.0579259
-0.00152764
0.0587051
0.00130074
0.0594648
0.00448015
0.0600321
0.00699369
0.0603486
0.00925179
0.060503
0.0104745
0.060423
0.0113307
0.0600948
0.011154
0.0594379
0.010712
0.0586559
0.00920736
0.05778
0.00805337
0.0569996
0.00598653
0.0563418
0.00473549
0.0557908
0.00261917
0.0551407
0.00181938
-0.000366506
0.0544828
0.0502137
0.0054015
-0.0500671
0.050375
0.00443586
0.0504602
0.00350012
0.0504662
0.00260446
0.0503868
0.00168038
0.0503432
0.000586045
0.0503707
-0.000505689
0.0505154
-0.00199253
0.050729
-0.003273
0.0510292
-0.00477755
0.0512715
-0.00607291
0.051606
-0.00781766
0.0520716
-0.00914482
0.0526235
-0.010691
0.053151
-0.0115869
0.0537899
-0.0127931
0.0544014
-0.0129644
0.054958
-0.0134369
0.0554866
-0.0128642
0.055952
-0.0123219
0.0563974
-0.0108728
0.0567934
-0.00947157
0.0572542
-0.00732432
0.0578648
-0.00514659
0.0585612
-0.00222405
0.0593363
0.000525667
0.0601589
0.00365759
0.060891
0.00626158
0.0613688
0.00877394
0.0616129
0.0102305
0.061632
0.0113116
0.06148
0.0113061
0.0609709
0.011221
0.0602275
0.00995076
0.0593505
0.00893044
0.058502
0.00683505
0.0575594
0.00567808
0.0567
0.00347854
0.0558957
0.00262368
0.000322952
0.0552062
0.0507708
0.00532617
-0.0506955
0.0508321
0.00437458
0.0508332
0.00349904
0.0507964
0.00264117
0.0507496
0.00172719
0.0507262
0.000609486
0.0507579
-0.000537421
0.0508855
-0.00212011
0.0510573
-0.00344484
0.0513587
-0.00507895
0.0516656
-0.00637974
0.0519861
-0.00813821
0.0523077
-0.00946635
0.0527908
-0.0111741
0.0532417
-0.0120377
0.0537582
-0.0133097
0.054362
-0.0135682
0.0549364
-0.0140114
0.0555067
-0.0134344
0.0560731
-0.0128883
0.0566529
-0.0114527
0.0572396
-0.0100583
0.0578269
-0.00791165
0.0584808
-0.00580042
0.0592342
-0.00297749
0.0600835
-0.000323639
0.0609341
0.002807
0.0617484
0.00544725
0.0624178
0.00810461
0.0628466
0.00980166
0.0629382
0.0112199
0.0628449
0.0113994
0.0625313
0.0115346
0.0620259
0.0104561
0.0612031
0.00975327
0.0602031
0.00783504
0.0592543
0.00662684
0.0584429
0.00428995
0.0576822
0.0033844
0.00109178
0.0569134
0.0507618
0.00526963
-0.0507052
0.0508133
0.00432307
0.0507987
0.00351363
0.0508252
0.00261461
0.0508662
0.0016862
0.0509633
0.000512402
0.0510555
-0.000629577
0.0512208
-0.00228547
0.0514306
-0.00365459
0.0517389
-0.00538723
0.0520316
-0.00667245
0.0524078
-0.00851449
0.0527036
-0.0097621
0.0530419
-0.0115125
0.0534393
-0.0124351
0.0538574
-0.0137279
0.0542979
-0.0140087
0.0548121
-0.0145255
0.0553464
-0.0139688
0.0559126
-0.0134545
0.056591
-0.0121311
0.0573465
-0.0108138
0.0581263
-0.00869145
0.0590205
-0.00669457
0.0599386
-0.00389559
0.0608937
-0.00127882
0.0618641
0.00183669
0.0627844
0.00452686
0.0635421
0.00734694
0.0641556
0.00918818
0.0644456
0.0109299
0.0644962
0.0113489
0.0642523
0.0117785
0.0637912
0.0109173
0.0631748
0.0103696
0.0623819
0.008628
0.0613279
0.00768079
0.0602998
0.00531805
0.0592435
0.00444075
0.00199731
0.058338
0.0513287
0.00526981
-0.0513289
0.0513441
0.00430762
0.0512864
0.00357136
0.0513079
0.00259312
0.0513917
0.00160241
0.0515667
0.000337401
0.0516616
-0.000724445
0.0518392
-0.00246309
0.0520325
-0.00384792
0.0523202
-0.00567491
0.0525436
-0.0068958
0.052877
-0.00884795
0.0532001
-0.0100851
0.053518
-0.0118304
0.053791
-0.0127081
0.0540874
-0.0140243
0.0544209
-0.0143422
0.0547447
-0.0148494
0.0551346
-0.0143586
0.0556596
-0.0139796
0.0562595
-0.0127309
0.0570923
-0.0116466
0.0580636
-0.00966277
0.0591567
-0.00778767
0.0603703
-0.00510913
0.0616521
-0.00256066
0.0628338
0.000654999
0.0639584
0.00340223
0.0648718
0.00643356
0.0656258
0.0084342
0.0660797
0.0104761
0.0662565
0.011172
0.0661765
0.0118586
0.0658579
0.0112359
0.065296
0.0109315
0.0646009
0.00932309
0.0636613
0.0086204
0.0626549
0.00632445
0.0615317
0.00556394
0.00304666
0.0604824
0.0512771
0.00525324
-0.0512606
0.051332
0.00425276
0.0513877
0.0035157
0.0514929
0.00248787
0.0515789
0.00151643
0.0518223
9.40234e-05
0.0520333
-0.000935483
0.0522912
-0.00272099
0.0525084
-0.00406508
0.0528417
-0.00600825
0.053114
-0.00716815
0.0534175
-0.00915139
0.0537004
-0.010368
0.0540304
-0.0121605
0.0543205
-0.0129982
0.0545255
-0.0142292
0.054724
-0.0145407
0.0549301
-0.0150555
0.0551671
-0.0145956
0.0555286
-0.014341
0.0560119
-0.0132143
0.0566797
-0.0123144
0.0576088
-0.0105918
0.0588505
-0.00902945
0.0602767
-0.00653532
0.0619081
-0.004192
0.0635501
-0.000987074
0.0651108
0.0018416
0.0663417
0.0052026
0.06732
0.00745591
0.0680134
0.00978271
0.0683592
0.0108261
0.068376
0.0118418
0.0681945
0.0114174
0.0676951
0.0114308
0.0671283
0.00988991
0.0663376
0.00941111
0.0653992
0.0072628
0.0642703
0.00669281
0.00428129
0.0630357
0.0520441
0.00523439
-0.0520253
0.0520694
0.00422746
0.0521299
0.00345524
0.0522588
0.00235896
0.0523516
0.00142359
0.0525506
-0.000104909
0.052814
-0.00119888
0.0531488
-0.00305585
0.0533566
-0.00427291
0.0536722
-0.00632385
0.0539666
-0.00746248
0.0542453
-0.00943015
0.0544776
-0.0106003
0.0546887
-0.0123716
0.054919
-0.0132284
0.0551157
-0.014426
0.0552311
-0.0146561
0.0553546
-0.015179
0.0555048
-0.0147458
0.0557214
-0.0145577
0.0560455
-0.0135383
0.0565829
-0.0128518
0.0572977
-0.0113065
0.0583909
-0.0101227
0.059796
-0.00794035
0.0616024
-0.00599843
0.0635823
-0.00296692
0.0657146
-0.000290741
0.0676294
0.00328782
0.0691438
0.00594144
0.070147
0.00877959
0.070806
0.0101671
0.0709714
0.0116764
0.0709352
0.0114536
0.0705603
0.0118057
0.0699876
0.0104627
0.0692533
0.0101453
0.0683837
0.00813242
0.0674414
0.00763517
0.00554909
0.0661736
0.05208
0.00513533
-0.051981
0.0522238
0.00408363
0.0523548
0.00332432
0.0525608
0.00215288
0.0527938
0.00119062
0.0530526
-0.000363646
0.0533226
-0.00146896
0.0536076
-0.0033408
0.0539248
-0.00459007
0.0542583
-0.00665742
0.0546243
-0.00782847
0.0549419
-0.0097477
0.0552357
-0.0108942
0.0554402
-0.0125761
0.0555867
-0.0133749
0.0557215
-0.0145607
0.0558185
-0.0147531
0.05589
-0.0152505
0.0559711
-0.0148269
0.0561486
-0.0147351
0.0563698
-0.0137595
0.0568041
-0.0132862
0.0574004
-0.0119029
0.0583054
-0.0110277
0.0594843
-0.00911922
0.0611454
-0.00765958
0.0631577
-0.00497923
0.0655166
-0.00264958
0.0679709
0.000833531
0.0703874
0.00352494
0.0722379
0.00692906
0.0735467
0.00885826
0.0741135
0.0111096
0.0742232
0.0113439
0.0739652
0.0120637
0.0734289
0.0109989
0.0727624
0.0108119
0.0718728
0.00902195
0.0710319
0.00847614
0.00677458
0.0698064
0.0531145
0.00506562
-0.0530448
0.0532643
0.00393384
0.0534463
0.00314229
0.0536449
0.00195427
0.0538701
0.000965443
0.0541579
-0.000651496
0.0544811
-0.00179213
0.0547612
-0.00362086
0.0550729
-0.00490182
0.0553208
-0.00690527
0.0556916
-0.00819926
0.0559909
-0.0100471
0.0562225
-0.0111257
0.0563943
-0.0127479
0.0564987
-0.0134794
0.0565426
-0.0146046
0.05652
-0.0147306
0.0565341
-0.0152646
0.0565002
-0.014793
0.0565919
-0.0148268
0.0567519
-0.0139195
0.0571252
-0.0136595
0.0576401
-0.0124177
0.058543
-0.0119306
0.0596814
-0.0102576
0.0612244
-0.00920258
0.0630214
-0.00677625
0.0653126
-0.00494073
0.0677988
-0.00165266
0.0705677
0.000755969
0.0731772
0.00431958
0.0755472
0.00648826
0.0772894
0.00936741
0.078176
0.0104573
0.0783503
0.0118894
0.0778642
0.0114851
0.0772085
0.0114675
0.0761819
0.0100486
0.0752432
0.00941477
0.00789583
0.074122
0.0532803
0.00490382
-0.0531185
0.0535005
0.00371371
0.0537602
0.00288253
0.054054
0.00166049
0.0544034
0.000616082
0.0547387
-0.000986854
0.0551654
-0.00221884
0.055528
-0.00398338
0.0559237
-0.00529758
0.0562185
-0.00720005
0.0565406
-0.00852136
0.0568157
-0.0103221
0.0569972
-0.0113072
0.0571393
-0.01289
0.0571794
-0.0135195
0.0572091
-0.0146342
0.0571456
-0.0146671
0.0570695
-0.0151885
0.0569928
-0.0147163
0.0569998
-0.0148339
0.0570628
-0.0139824
0.0573359
-0.0139326
0.0578385
-0.0129203
0.0586698
-0.012762
0.059797
-0.0113848
0.0614193
-0.0108249
0.0633025
-0.00865945
0.0655928
-0.007231
0.0681601
-0.00421999
0.0709068
-0.00199071
0.0737549
0.00147149
0.0764505
0.00379265
0.0790378
0.00678013
0.0810919
0.0084032
0.0826315
0.0103498
0.0832328
0.0108838
0.083022
0.0116783
0.082149
0.0109216
0.0809945
0.0105693
0.00940631
0.079484
0.0548731
0.00470589
-0.0546752
0.055082
0.00350481
0.0553635
0.00260105
0.0556097
0.00141434
0.0559884
0.000237293
0.0563108
-0.00130925
0.0567094
-0.00261744
0.0570952
-0.00436918
0.0574685
-0.00567086
0.0578016
-0.00753315
0.0580278
-0.0087475
0.0582695
-0.0105639
0.0583764
-0.0114141
0.0583978
-0.0129115
0.0582994
-0.013421
0.0581817
-0.0145166
0.0579675
-0.0144529
0.0577617
-0.0149826
0.0575442
-0.0144989
0.0573906
-0.0146802
0.0573837
-0.0139756
0.0575166
-0.0140655
0.0579098
-0.0133135
0.0585929
-0.0134451
0.0596946
-0.0124864
0.0611731
-0.0123035
0.0632067
-0.010693
0.0656552
-0.00967951
0.0686017
-0.0071665
0.0716886
-0.00507758
0.0750168
-0.00185673
0.0780641
0.000745381
0.0809364
0.00390782
0.0833959
0.00594372
0.0855584
0.00818726
0.0872032
0.00923903
0.0885287
0.0103528
0.0887759
0.0106745
0.088643
0.0107022
0.0107981
0.0872512
0.0551825
0.00435367
-0.0548303
0.0555289
0.00315839
0.0559787
0.0021513
0.0564098
0.000983166
0.0568142
-0.000167025
0.0572903
-0.00178543
0.0577191
-0.00304625
0.0582036
-0.00485366
0.0585797
-0.00604691
0.0589382
-0.00789171
0.0591721
-0.00898135
0.0593313
-0.0107231
0.0593968
-0.0114796
0.0593377
-0.0128523
0.059207
-0.0132904
0.0589099
-0.0142195
0.0586808
-0.0142238
0.0582839
-0.0145857
0.0580333
-0.0142483
0.0576698
-0.0143167
0.05761
-0.0139158
0.0574897
-0.0139452
0.0579206
-0.0137443
0.0582677
-0.0137923
0.0593914
-0.0136101
0.0605659
-0.013478
0.0626575
-0.0127846
0.0649659
-0.011988
0.0682155
-0.010416
0.0716447
-0.00850681
0.0757128
-0.00592485
0.0796215
-0.00316333
0.0836485
-0.000119119
0.0868635
0.00272872
0.0898947
0.00515605
0.0917688
0.00736489
0.093616
0.00850567
0.0944136
0.00987686
0.0952696
0.00984615
0.0110218
0.0950458
0.0574094
0.00407608
-0.0571319
0.0577408
0.00282702
0.0580871
0.00180499
0.0585743
0.000496004
0.0590197
-0.000612463
0.0594833
-0.00224898
0.059955
-0.00351801
0.0603675
-0.00526615
0.060773
-0.0064524
0.0610153
-0.00813399
0.0612403
-0.00920641
0.0611852
-0.0106679
0.0612191
-0.0115136
0.0609342
-0.0125674
0.0607213
-0.0130774
0.0601831
-0.0136814
0.0598071
-0.0138477
0.0592038
-0.0139825
0.0588699
-0.0139144
0.0582491
-0.0136958
0.0581358
-0.0138025
0.0577546
-0.013564
0.0579994
-0.0139892
0.0580545
-0.0138473
0.0589709
-0.0145265
0.0597834
-0.0142905
0.0617704
-0.0147717
0.0637726
-0.0139902
0.0671443
-0.0137877
0.0705543
-0.0119169
0.0752555
-0.010626
0.0797738
-0.00768163
0.085095
-0.00544034
0.0897351
-0.00191139
0.0944934
0.00039773
0.0980877
0.00377066
0.10128
0.00531343
0.10317
0.00798634
0.10454
0.00847688
0.0108638
0.104698
0.0586073
0.00347813
-0.0580094
0.059163
0.00227133
0.0597628
0.00120522
0.06019
6.87535e-05
0.0608382
-0.00126064
0.0613399
-0.00275071
0.0619127
-0.00409074
0.0622159
-0.00556942
0.0626592
-0.00689572
0.0627693
-0.00824409
0.0629557
-0.00939275
0.0627605
-0.0104727
0.0626823
-0.0114354
0.0622394
-0.0121245
0.0618845
-0.0127226
0.0612149
-0.0130117
0.0606377
-0.0132705
0.0598599
-0.0132047
0.0592957
-0.0133502
0.0586574
-0.0130576
0.0582976
-0.0134427
0.0579087
-0.013175
0.0578998
-0.0139804
0.0579556
-0.0139031
0.0583805
-0.0149514
0.0590275
-0.0149374
0.060357
-0.0161012
0.0621247
-0.0157579
0.0649172
-0.0165803
0.0683875
-0.0153871
0.072943
-0.0151815
0.0780455
-0.0127842
0.0840495
-0.0114443
0.0901601
-0.00802205
0.0966342
-0.0060763
0.102565
-0.00216023
0.108343
-0.000464226
0.112663
0.00366613
0.116507
0.00463241
0.00905155
0.11832
0.0616107
0.00303568
-0.0611682
0.0619809
0.00190112
0.0627562