/*--------------------------------*- C++ -*----------------------------------*\
  =========                 |
  \\      /  F ield         | OpenFOAM: The Open Source CFD Toolbox
   \\    /   O peration     | Website:  https://openfoam.org
    \\  /    A nd           | Version:  10
     \\/     M anipulation  |
\*---------------------------------------------------------------------------*/
FoamFile
{
    format      ascii;
    class       volScalarField;
    location    "0.699746";
    object      p;
}
// * * * * * * * * * * * * * * * * * * * * * * * * * * * * * * * * * * * * * //

dimensions      [1 -1 -2 0 0 0 0];

internalField   nonuniform List<scalar> 
16320
(
0.990509
0.997561
1.00384
1.0079
1.00908
1.00718
1.00189
0.99204
0.97869
0.962561
0.94388
0.924309
0.90411
0.883836
0.864271
0.845495
0.828419
0.813461
0.801009
0.790906
0.783263
0.77789
0.774601
0.772956
0.772108
0.771867
0.771782
0.769549
0.767137
0.762369
0.755178
0.746183
0.737372
0.974784
0.979025
0.983496
0.987403
0.989566
0.989095
0.985965
0.97911
0.968188
0.954658
0.938387
0.920552
0.90198
0.88265
0.864593
0.846138
0.829257
0.814336
0.801721
0.791468
0.783484
0.7781
0.774747
0.773053
0.772361
0.77218
0.77225
0.770262
0.767924
0.763396
0.756118
0.747391
0.739129
0.962185
0.962474
0.964127
0.96646
0.968349
0.968631
0.966964
0.962508
0.954507
0.943254
0.929624
0.913925
0.89727
0.879601
0.863512
0.84564
0.829254
0.814722
0.802219
0.792104
0.784261
0.778876
0.775559
0.773861
0.773308
0.77329
0.772678
0.771615
0.769045
0.764574
0.757805
0.749169
0.740712
0.950909
0.94816
0.946571
0.946366
0.946729
0.946967
0.94605
0.943352
0.937791
0.929071
0.918095
0.904853
0.890363
0.874827
0.860116
0.843799
0.828266
0.814591
0.802577
0.792777
0.78535
0.780201
0.777036
0.775416
0.774836
0.774557
0.77426
0.773112
0.770473
0.765852
0.759109
0.752134
0.742066
0.942862
0.935665
0.930124
0.926828
0.924993
0.92424
0.923607
0.921984
0.918493
0.912357
0.903597
0.893284
0.881195
0.868005
0.85493
0.840525
0.826319
0.813775
0.802392
0.793481
0.786643
0.78185
0.778879
0.777262
0.776814
0.77665
0.776214
0.774847
0.77197
0.766767
0.760919
0.755201
0.743965
0.93607
0.925191
0.915886
0.908702
0.903911
0.901271
0.899986
0.898688
0.896532
0.89274
0.886886
0.878883
0.869512
0.859033
0.847772
0.835583
0.823143
0.812079
0.801952
0.794009
0.787944
0.783678
0.78107
0.779734
0.779186
0.779015
0.778354
0.776626
0.773791
0.769807
0.764809
0.756578
0.746181
0.929625
0.914856
0.901421
0.890567
0.88263
0.877609
0.874958
0.873669
0.872806
0.870737
0.867479
0.862287
0.85559
0.847901
0.838651
0.8299
0.819274
0.809675
0.801383
0.794206
0.789134
0.785548
0.783351
0.782299
0.781926
0.781481
0.780684
0.779332
0.776645
0.773154
0.767115
0.758919
0.748889
0.921216
0.902531
0.886284
0.872365
0.861557
0.854141
0.849869
0.848059
0.847708
0.847682
0.846247
0.844188
0.840584
0.835177
0.829269
0.823309
0.814942
0.807017
0.800266
0.794348
0.790284
0.787458
0.785783
0.785029
0.784626
0.784319
0.783995
0.782406
0.780088
0.77591
0.769773
0.761796
0.752016
0.911504
0.890541
0.870911
0.853816
0.840292
0.830786
0.825094
0.822698
0.822724
0.823867
0.825987
0.825361
0.825583
0.823847
0.820085
0.816032
0.810108
0.804059
0.798938
0.794461
0.791459
0.789535
0.788543
0.788065
0.787837
0.788179
0.787282
0.78606
0.783348
0.779037
0.773018
0.765107
0.756157
0.89834
0.875327
0.853203
0.833878
0.818454
0.807476
0.800879
0.798226
0.798481
0.800584
0.804755
0.807417
0.810299
0.811319
0.810212
0.807808
0.805268
0.801063
0.797624
0.794869
0.792909
0.791949
0.791699
0.792016
0.792496
0.791997
0.791363
0.790093
0.787202
0.782887
0.776666
0.769454
0.759381
0.881896
0.857024
0.833242
0.812606
0.796143
0.784454
0.777442
0.774736
0.775435
0.778509
0.78432
0.790332
0.794309
0.798407
0.800046
0.800045
0.800034
0.798272
0.796712
0.795647
0.795057
0.795058
0.795569
0.796247
0.796846
0.796825
0.796382
0.794764
0.791729
0.787411
0.78123
0.772957
0.763822
0.862363
0.836701
0.813097
0.791582
0.774516
0.762246
0.755248
0.752698
0.753862
0.758141
0.765482
0.773573
0.779717
0.786433
0.790858
0.793393
0.795391
0.795994
0.796484
0.797061
0.797953
0.799103
0.800478
0.80172
0.802594
0.802803
0.802159
0.800431
0.797283
0.792316
0.785688
0.777617
0.768341
0.841526
0.816597
0.791005
0.769618
0.752909
0.741542
0.73506
0.733084
0.734832
0.740205
0.748678
0.758682
0.767362
0.776328
0.783155
0.787997
0.79179
0.794921
0.797164
0.799429
0.801829
0.804288
0.806549
0.808362
0.809556
0.809946
0.809189
0.806904
0.802953
0.797807
0.790672
0.782462
0.77328
0.821092
0.795368
0.771864
0.750985
0.734277
0.722898
0.717053
0.71576
0.718421
0.725124
0.734861
0.746546
0.757685
0.768593
0.77739
0.784285
0.789954
0.794925
0.798826
0.802822
0.806843
0.810463
0.813581
0.815985
0.817413
0.81753
0.816501
0.813674
0.809339
0.803483
0.796454
0.787429
0.778208
0.801255
0.776943
0.754054
0.733656
0.717286
0.70625
0.700757
0.700943
0.705227
0.713467
0.72465
0.737949
0.751182
0.763562
0.77387
0.78246
0.789745
0.796006
0.801781
0.807234
0.812132
0.8166
0.82035
0.823157
0.824932
0.825204
0.82451
0.820893
0.816373
0.810371
0.801854
0.793644
0.783139
0.785429
0.760995
0.737959
0.717942
0.70228
0.692275
0.688476
0.689972
0.695983
0.705896
0.71863
0.733362
0.747923
0.761297
0.772699
0.782492
0.790806
0.798332
0.805308
0.811781
0.817695
0.822974
0.827331
0.83067
0.832823
0.833037
0.831764
0.828672
0.823802
0.816398
0.808939
0.7988
0.787783
0.773621
0.749338
0.72641
0.706481
0.69143
0.682679
0.68022
0.68298
0.691148
0.703045
0.717276
0.733181
0.748452
0.761894
0.773567
0.783873
0.793166
0.801468
0.809035
0.816072
0.822557
0.82835
0.833228
0.837025
0.839313
0.84019
0.839263
0.835901
0.830778
0.82416
0.815101
0.804781
0.793648
0.768289
0.744414
0.722177
0.702264
0.687337
0.678849
0.677031
0.681822
0.6917
0.70479
0.71977
0.735918
0.751444
0.764688
0.776486
0.787126
0.796607
0.805106
0.81278
0.819921
0.826587
0.832697
0.837682
0.842034
0.844917
0.84623
0.845368
0.843171
0.838525
0.830895
0.822084
0.811589
0.798189
0.766973
0.743842
0.722698
0.703825
0.689914
0.683117
0.682147
0.687503
0.697976
0.711728
0.727252
0.743245
0.758519
0.7712
0.782442
0.792339
0.801028
0.808992
0.816469
0.823394
0.829913
0.835928
0.841358
0.846012
0.849188
0.850735
0.851524
0.849616
0.845135
0.838325
0.829286
0.816727
0.805097
0.769157
0.74829
0.729035
0.711845
0.699774
0.694924
0.69469
0.700899
0.711818
0.725677
0.741026
0.756511
0.769477
0.780719
0.79064
0.799174
0.80669
0.813722
0.820574
0.826725
0.832913
0.838734
0.844113
0.848827
0.852622
0.856044
0.856793
0.855962
0.852353
0.844322
0.834964
0.824185
0.811598
0.774017
0.756139
0.739649
0.724725
0.714923
0.711672
0.712299
0.71894
0.72979
0.742907
0.756918
0.770649
0.782104
0.791953
0.800472
0.807511
0.813679
0.819332
0.824818
0.83042
0.835993
0.84139
0.846326
0.851864
0.856534
0.85992
0.862245
0.862428
0.857496
0.851707
0.842564
0.830963
0.817481
0.782214
0.765763
0.751502
0.740788
0.733247
0.731193
0.732787
0.739661
0.750003
0.762061
0.774654
0.785914
0.795771
0.804121
0.811197
0.816748
0.821317
0.825677
0.829998
0.834517
0.839209
0.84444
0.850257
0.85539
0.860748
0.865312
0.866977
0.866672
0.864651
0.858848
0.849193
0.83725
0.822711
0.792504
0.776001
0.764194
0.756207
0.752792
0.751744
0.754099
0.760801
0.769771
0.780281
0.791068
0.800859
0.809254
0.816169
0.8217
0.826168
0.829627
0.832716
0.835817
0.838978
0.844211
0.848898
0.854398
0.860388
0.866403
0.869574
0.872972
0.87377
0.871461
0.865343
0.855776
0.843582
0.827307
0.800986
0.788106
0.777295
0.772028
0.770171
0.770291
0.773461
0.779599
0.787652
0.796809
0.806014
0.814652
0.821938
0.827699
0.832137
0.835481
0.8379
0.84004
0.843084
0.846476
0.850116
0.855037
0.860992
0.865821
0.870906
0.876187
0.879465
0.880266
0.877949
0.87336
0.863505
0.848604
0.830004
0.80939
0.798736
0.790616
0.787718
0.786746
0.787636
0.790901
0.796502
0.803541
0.811521
0.819524
0.827
0.833284
0.838068
0.841671
0.844443
0.846996
0.849149
0.851158
0.854124
0.857933
0.861897
0.866973
0.8731
0.878526
0.883309
0.886348
0.888617
0.8875
0.881539
0.869886
0.852647
0.830664
0.816958
0.809143
0.804339
0.802182
0.801492
0.802801
0.806325
0.811438
0.817531
0.82444
0.831411
0.837997
0.843776
0.848293
0.851588
0.853899
0.855574
0.857553
0.859936
0.862552
0.865748
0.870413
0.875594
0.881306
0.886428
0.892054
0.896942
0.898866
0.897454
0.890461
0.876286
0.855143
0.829152
0.823419
0.81841
0.815508
0.814472
0.814735
0.816665
0.81998
0.824523
0.830111
0.836266
0.842439
0.848081
0.852841
0.856686
0.859694
0.862127
0.863949
0.86563
0.867772
0.870923
0.874846
0.879632
0.884685
0.891219
0.898213
0.904127
0.909371
0.911952
0.909809
0.900356
0.882104
0.856004
0.825182
0.828493
0.824933
0.824241
0.824165
0.82539
0.827716
0.831093
0.835333
0.840361
0.845805
0.851199
0.85617
0.860455
0.863843
0.866364
0.868314
0.870308
0.872779
0.875625
0.879311
0.883685
0.889631
0.896726
0.904149
0.912337
0.919958
0.925849
0.928244
0.924373
0.911059
0.887202
0.854925
0.818285
0.831536
0.829632
0.829515
0.830983
0.833027
0.835754
0.83913
0.843157
0.84772
0.852549
0.857227
0.861494
0.865128
0.868192
0.870838
0.873242
0.875648
0.878571
0.882192
0.887183
0.893423
0.900947
0.91007
0.920055
0.930383
0.9398
0.946274
0.947882
0.940984
0.92236
0.891551
0.851828
0.806963
0.831838
0.832202
0.832182
0.835011
0.83768
0.840616
0.843884
0.847754
0.85207
0.856459
0.860664
0.864495
0.867856
0.870774
0.87343
0.876122
0.879116
0.882976
0.888086
0.89458
0.902973
0.913185
0.925179
0.938377
0.951667
0.96323
0.97058
0.97141
0.960536
0.935325
0.895512
0.844393
0.79084
0.829467
0.831099
0.833234
0.835733
0.839378
0.842434
0.84572
0.849516
0.853603
0.857648
0.861524
0.865067
0.868322
0.871302
0.874198
0.877412
0.88136
0.886308
0.892823
0.901361
0.912149
0.92535
0.940668
0.957483
0.97468
0.989692
0.999051
0.999447
0.984871
0.951136
0.898518
0.835698
0.774846
0.825637
0.828179
0.831082
0.83424
0.838078
0.84147
0.845229
0.849064
0.852962
0.856868
0.860666
0.864094
0.867411
0.870558
0.873807
0.877593
0.882269
0.888369
0.896412
0.906837
0.919876
0.935695
0.954397
0.975415
0.997129
1.01707
1.02995
1.03238
1.01514
0.97131
0.90338
0.825482
0.757068
0.821269
0.823637
0.827
0.830468
0.834428
0.838929
0.842841
0.846719
0.85064
0.85456
0.858442
0.86193
0.865415
0.868816
0.872388
0.876883
0.88218
0.889163
0.898341
0.910056
0.924693
0.942747
0.964078
0.988812
1.0158
1.04172
1.06167
1.06976
1.05388
1.0013
0.916354
0.822065
0.743634
0.816556
0.818936
0.821696
0.825645
0.829604
0.834032
0.838779
0.842576
0.847237
0.851355
0.855433
0.85906
0.862807
0.866452
0.870468
0.875347
0.88109
0.888531
0.898145
0.910403
0.925698
0.944827
0.968268
0.995622
1.02711
1.06023
1.09062
1.10918
1.10124
1.04343
0.938164
0.821998
0.731086
0.812377
0.814227
0.817119
0.819867
0.824038
0.828668
0.833293
0.838255
0.84309
0.847625
0.85183
0.855658
0.859634
0.863327
0.868069
0.872897
0.878819
0.886413
0.895997
0.908117
0.923483
0.942472
0.965779
0.9942
1.0286
1.06811
1.11082
1.14724
1.16015
1.11104
0.986833
0.84028
0.730444
0.808457
0.810137
0.812969
0.815565
0.818209
0.823713
0.827977
0.833016
0.83834
0.843498
0.84752
0.851686
0.855918
0.859689
0.864563
0.869238
0.875095
0.882236
0.891358
0.90292
0.917076
0.934997
0.957358
0.985127
1.02014
1.06378
1.11628
1.16676
1.19819
1.16722
1.04598
0.88303
0.746762
0.806081
0.807407
0.809617
0.812005
0.814609
0.818775
0.823262
0.828032
0.833582
0.839148
0.84283
0.847226
0.851588
0.855364
0.859997
0.864322
0.869606
0.876102
0.884053
0.893769
0.906023
0.921721
0.941518
0.967736
1.00089
1.04316
1.09501
1.14603
1.17964
1.16897
1.08297
0.945216
0.800323
0.805408
0.806313
0.807911
0.809916
0.812159
0.815247
0.819331
0.823816
0.829169
0.834615
0.838235
0.842623
0.846806
0.850507
0.854614
0.85852
0.863139
0.868615
0.874563
0.882531
0.892532
0.905769
0.921758
0.940971
0.969682
1.00555
1.04758
1.08679
1.11056
1.10524
1.06217
0.978351
0.866538
0.806262
0.806819
0.807974
0.809516
0.811345
0.813442
0.816959
0.820745
0.825437
0.830384
0.833882
0.838055
0.841703
0.845505
0.848732
0.852188
0.856051
0.860178
0.864972
0.871274
0.879303
0.888612
0.9007
0.91672
0.939621
0.967081
0.997308
1.02439
1.04508
1.04691
1.02512
0.969967
0.887858
0.808923
0.8092
0.809977
0.810929
0.812143
0.813416
0.816079
0.81906
0.822639
0.826896
0.8302
0.83375
0.836789
0.840279
0.842875
0.845766
0.849128
0.851773
0.855657
0.860565
0.866592
0.873958
0.88356
0.896954
0.914486
0.935086
0.959547
0.983764
1.00074
1.00545
0.992337
0.953002
0.892126
0.813309
0.813384
0.813711
0.814148
0.814698
0.815378
0.817013
0.819292
0.821631
0.824602
0.827187
0.829952
0.832338
0.835008
0.837003
0.839308
0.841984
0.84405
0.847272
0.851178
0.856095
0.862298
0.870296
0.881301
0.895716
0.915195
0.936192
0.955564
0.968889
0.97332
0.962439
0.931503
0.883744
0.819244
0.819075
0.818982
0.818866
0.818712
0.818785
0.819162
0.820036
0.821503
0.823125
0.824755
0.826391
0.828313
0.82983
0.831248
0.833023
0.834726
0.836656
0.839404
0.842757
0.847108
0.852614
0.859999
0.870433
0.884127
0.900578
0.917552
0.932487
0.94322
0.943689
0.931176
0.90423
0.866366
0.826287
0.826015
0.825503
0.824793
0.823963
0.822858
0.822085
0.821785
0.82192
0.822261
0.822904
0.823504
0.824105
0.824587
0.825273
0.826354
0.827239
0.828984
0.831354
0.83451
0.838622
0.844223
0.851635
0.860706
0.873486
0.886561
0.899689
0.9113
0.916108
0.912604
0.898016
0.874136
0.844582
0.834255
0.833966
0.833036
0.83149
0.830017
0.827624
0.825783
0.824344
0.823243
0.82238
0.821306
0.82054
0.819687
0.819051
0.818812
0.818974
0.819541
0.820712
0.822634
0.825592
0.829747
0.835669
0.84249
0.850688
0.860342
0.870565
0.881624
0.886869
0.88621
0.87797
0.863948
0.844042
0.822186
0.842714
0.842579
0.841318
0.839162
0.836205
0.833787
0.830706
0.827984
0.825005
0.822103
0.819598
0.817362
0.815
0.813135
0.811893
0.811326
0.811313
0.811864
0.813124
0.815448
0.819065
0.824438
0.830458
0.836698
0.846096
0.853492
0.857264
0.857419
0.852623
0.842935
0.828861
0.81297
0.798184
0.851427
0.851383
0.849815
0.847156
0.843352
0.83913
0.834691
0.830689
0.826181
0.821817
0.817627
0.813653
0.809773
0.807044
0.804853
0.803427
0.802712
0.802564
0.802672
0.803352
0.80506
0.809127
0.816787
0.822257
0.824884
0.828209
0.82724
0.823933
0.816355
0.805318
0.792593
0.781474
0.773681
0.859998
0.859844
0.857968
0.854509
0.850146
0.845057
0.839064
0.833169
0.827714
0.821454
0.815434
0.809792
0.804847
0.799958
0.795342
0.791784
0.790781
0.789914
0.790608
0.791758
0.793527
0.794588
0.794767
0.796345
0.796686
0.795463
0.792657
0.786256
0.776699
0.765351
0.755651
0.750356
0.749262
0.869388
0.867339
0.865149
0.860982
0.855775
0.849988
0.843508
0.836385
0.828448
0.820831
0.812982
0.805151
0.798142
0.791719
0.78669
0.782671
0.778592
0.775876
0.773535
0.771912
0.770418
0.769223
0.769039
0.766556
0.764499
0.760346
0.753969
0.744746
0.734195
0.72481
0.719913
0.719785
0.724871
0.876775
0.873226
0.870799
0.866219
0.860264
0.85314
0.845894
0.837369
0.828804
0.819815
0.810446
0.800288
0.79038
0.781635
0.773827
0.767101
0.761318
0.75655
0.752644
0.74968
0.747164
0.742354
0.736969
0.733757
0.728524
0.7214
0.712387
0.702289
0.692632
0.686989
0.686073
0.690687
0.700746
0.881071
0.879055
0.874526
0.869531
0.862924
0.85506
0.845927
0.836558
0.827087
0.816175
0.80491
0.793975
0.782345
0.772393
0.763071
0.754352
0.746381
0.739001
0.731947
0.725159
0.718438
0.71234
0.70559
0.699061
0.691485
0.68217
0.671859
0.662309
0.65562
0.653153
0.655482
0.663448
0.676868
0.884322
0.882299
0.875861
0.870475
0.863257
0.854621
0.844819
0.833972
0.821545
0.809068
0.797155
0.786498
0.772914
0.76013
0.748642
0.737736
0.727652
0.718234
0.709086
0.699639
0.69039
0.682723
0.675023
0.666087
0.656621
0.647091
0.637862
0.630405
0.62617
0.625669
0.629691
0.638921
0.653677
0.885887
0.882744
0.877751
0.869596
0.861357
0.851741
0.840943
0.829124
0.816443
0.803056
0.788144
0.772538
0.758823
0.744027
0.730401
0.717731
0.70593
0.695055
0.685106
0.676072
0.667458
0.658247
0.649007
0.639598
0.630266
0.621448
0.613543
0.607805
0.605115
0.605581
0.610116
0.619049
0.632982
0.886043
0.881933
0.875859
0.867952
0.857632
0.8469
0.835178
0.822431
0.808974
0.795045
0.780326
0.765088
0.749979
0.734749
0.720124
0.706271
0.693241
0.681064
0.669712
0.659023
0.648721
0.638672
0.628947
0.61955
0.610673
0.602638
0.596026
0.591628
0.589985
0.59122
0.595753
0.603807
0.615793
0.884613
0.87975
0.872637
0.863891
0.852465
0.840552
0.827641
0.814553
0.800351
0.785613
0.770466
0.755065
0.739607
0.724183
0.709145
0.69467
0.680887
0.66787
0.65563
0.644111
0.633219
0.622882
0.613101
0.603955
0.595633
0.588467
0.582906
0.579503
0.578589
0.580297
0.584855
0.592442
0.603398
0.881902
0.876749
0.868522
0.858605
0.847564
0.834888
0.820951
0.805575
0.790801
0.775888
0.760368
0.744676
0.728883
0.71322
0.697851
0.683052
0.668937
0.655579
0.643005
0.631195
0.620145
0.6098
0.600222
0.591527
0.58389
0.577654
0.573076
0.570499
0.570191
0.572212
0.576693
0.583823
0.593846
0.87809
0.871938
0.863935
0.852817
0.840488
0.826995
0.812621
0.798201
0.781672
0.766061
0.750212
0.73397
0.718013
0.702341
0.687006
0.672295
0.65823
0.644787
0.632032
0.620067
0.608936
0.598847
0.589731
0.581695
0.574928
0.56961
0.565946
0.564171
0.564315
0.566579
0.571012
0.577727
0.587012
0.873203
0.866751
0.857575
0.846671
0.833287
0.819017
0.804543
0.789823
0.774545
0.757262
0.741707
0.726093
0.709987
0.693372
0.677766
0.663038
0.648978
0.635447
0.62269
0.610899
0.60017
0.590479
0.581843
0.574404
0.568323
0.563751
0.560883
0.559832
0.560579
0.563185
0.567607
0.573928
0.582528
0.867416
0.860688
0.851337
0.839358
0.826197
0.812026
0.796812
0.781287
0.766013
0.750697
0.733434
0.717596
0.701664
0.686514
0.67143
0.656519
0.642066
0.628022
0.615374
0.603818
0.593336
0.583893
0.575757
0.568943
0.563622
0.559931
0.557881
0.557607
0.558902
0.561796
0.566117
0.571977
0.579774
0.860727
0.853965
0.844839
0.832826
0.819099
0.805084
0.789874
0.77352
0.757728
0.742125
0.726433
0.709986
0.694328
0.679016
0.664142
0.649636
0.635723
0.62293
0.610547
0.599034
0.588578
0.579453
0.57172
0.565595
0.561057
0.558245
0.556855
0.557211
0.55884
0.561856
0.566086
0.571504
0.578421
0.853441
0.846499
0.837591
0.826181
0.813053
0.798952
0.783564
0.767187
0.750868
0.734912
0.719224
0.703527
0.688077
0.673043
0.658439
0.644224
0.630568
0.617683
0.605627
0.594561
0.584665
0.576167
0.569278
0.563858
0.559905
0.558061
0.557138
0.557558
0.559457
0.562479
0.566412
0.571358
0.577285
0.845729
0.838965
0.830102
0.819698
0.807352
0.793391
0.778198
0.761984
0.745211
0.728853
0.713338
0.698
0.682921
0.668235
0.653874
0.639984
0.626576
0.613923
0.602139
0.591365
0.581967
0.574024
0.567694
0.562973
0.559481
0.557508
0.556976
0.557639
0.559731
0.562751
0.566573
0.571243
0.576342
0.837626
0.831386
0.82293
0.813093
0.801537
0.787792
0.772872
0.757209
0.740354
0.723739
0.708093
0.693138
0.678358
0.663886
0.649839
0.636204
0.623118
0.610696
0.599234
0.588842
0.579813
0.572212
0.566461
0.561773
0.558497
0.556798
0.556649
0.557361
0.559374
0.562156
0.565685
0.570068
0.5745
0.829003
0.823635
0.816021
0.806592
0.795347
0.781926
0.767124
0.751494
0.735464
0.719141
0.703223
0.688376
0.673889
0.659577
0.645725
0.632331
0.61947
0.607348
0.596183
0.586232
0.577549
0.570378
0.564584
0.560104
0.557034
0.555603
0.555537
0.556339
0.55785
0.560446
0.563893
0.568273
0.570968
0.819644
0.815571
0.808927
0.799965
0.788951
0.775941
0.761331
0.745729
0.729812
0.714193
0.69855
0.683388
0.669092
0.655113
0.641361
0.628125
0.615473
0.603646
0.59275
0.583162
0.574879
0.56779
0.562091
0.557732
0.554744
0.55301
0.553733
0.553476
0.554406
0.556612
0.559538
0.563002
0.566706
0.808757
0.806303
0.800901
0.792617
0.782043
0.76942
0.755058
0.739663
0.723784
0.708314
0.693104
0.6782
0.663772
0.649887
0.636481
0.623525
0.61088
0.599345
0.588752
0.579446
0.57146
0.564579
0.559126
0.554813
0.551382
0.551385
0.549783
0.549398
0.550049
0.551595
0.553578
0.555768
0.558985
0.795572
0.794955
0.79105
0.783886
0.773941
0.761861
0.747886
0.732808
0.717206
0.701679
0.686639
0.672039
0.657728
0.64398
0.630742
0.618058
0.60586
0.594559
0.584416
0.57558
0.567896
0.561616
0.556431
0.552252
0.550681
0.548105
0.546134
0.545543
0.545909
0.54667
0.54782
0.548827
0.550737
0.779257
0.780876
0.778682
0.77308
0.76412
0.752712
0.739407
0.724841
0.709598
0.694338
0.679463
0.665013
0.651051
0.637561
0.624635
0.612338
0.600749
0.590087
0.58062
0.572475
0.56566
0.560001
0.55533
0.552494
0.549115
0.546026
0.544218
0.542474
0.542526
0.542027
0.542999
0.543217
0.544469
0.759221
0.763251
0.763036
0.759323
0.751888
0.741515
0.729147
0.715376
0.700853
0.686162
0.671671
0.6577
0.644346
0.631436
0.619094
0.607466
0.596804
0.587075
0.578661
0.571616
0.56577
0.560688
0.556378
0.554042
0.549735
0.546408
0.543624
0.541856
0.540701
0.539212
0.539791
0.540014
0.54118
0.73636
0.742417
0.744324
0.742396
0.736945
0.727995
0.716887
0.704308
0.690928
0.677282
0.663833
0.650749
0.638372
0.626321
0.614913
0.604273
0.594776
0.5866
0.579352
0.573189
0.568082
0.563768
0.559723
0.557471
0.553228
0.549827
0.545394
0.543208
0.541094
0.539089
0.538229
0.539158
0.540014
0.712436
0.719391
0.72295
0.722666
0.719148
0.712096
0.702556
0.691563
0.679761
0.667691
0.655773
0.644275
0.633299
0.62289
0.612843
0.603854
0.595822
0.588602
0.582539
0.577604
0.573624
0.570244
0.566668
0.564475
0.559653
0.555922
0.55073
0.547288
0.54418
0.541485
0.539732
0.540472
0.541618
0.689785
0.696106
0.700309
0.701394
0.69934
0.694256
0.686502
0.677356
0.667509
0.657409
0.647504
0.638029
0.629081
0.620749
0.612717
0.60551
0.598953
0.59339
0.588913
0.585449
0.58277
0.580223
0.577368
0.574237
0.569557
0.564642
0.558849
0.55404
0.550023
0.54658
0.54408
0.544568
0.545394
0.670693
0.674869
0.678549
0.679854
0.678709
0.675206
0.669296
0.66217
0.654423
0.646585
0.639018
0.631908
0.62535
0.619338
0.614187
0.608949
0.604607
0.601126
0.598323
0.596149
0.594263
0.592136
0.589255
0.584994
0.579904
0.57417
0.56817
0.562354
0.557934
0.553887
0.550832
0.551217
0.551534
0.656663
0.657814
0.659355
0.660004
0.659214
0.656622
0.652101
0.6467
0.64096
0.635437
0.630317
0.625745
0.621718
0.618256
0.615357
0.61307
0.611021
0.609467
0.608134
0.606801
0.605135
0.602727
0.599106
0.594762
0.589032
0.583036
0.57714
0.571495
0.567019
0.562815
0.559411
0.559507
0.559637
0.647905
0.645463
0.644208
0.643488
0.642129
0.639712
0.636111
0.63192
0.627795
0.624329
0.62152
0.619274
0.617671
0.616586
0.615924
0.615862
0.615897
0.61585
0.615536
0.614647
0.612946
0.610206
0.606229
0.601679
0.59619
0.59062
0.585255
0.580547
0.576351
0.572679
0.56991
0.568439
0.569054
0.643644
0.638366
0.634304
0.631309
0.628625
0.625741
0.622284
0.618684
0.615631
0.613688
0.612747
0.612486
0.61281
0.613679
0.614872
0.616131
0.617485
0.618491
0.618845
0.618304
0.616806
0.61414
0.610438
0.606077
0.601318
0.59661
0.592415
0.588766
0.585378
0.581929
0.580511
0.579225
0.579904
0.64238
0.635266
0.629014
0.623546
0.619046
0.615091
0.61119
0.607591
0.605013
0.60396
0.604233
0.605338
0.607071
0.60925
0.611785
0.614174
0.616152
0.617609
0.618342
0.618164
0.617153
0.61509
0.612
0.608307
0.604343
0.600701
0.597833
0.59539
0.592569
0.591929
0.590573
0.590365
0.591117
0.643536
0.634809
0.626403
0.619174
0.612857
0.607677
0.602967
0.598912
0.596327
0.595576
0.596407
0.598159
0.60057
0.603424
0.606519
0.609623
0.612337
0.614394
0.615636
0.615987
0.61551
0.613986
0.611482
0.608324
0.605083
0.602412
0.600925
0.5992
0.598849
0.59908
0.599757
0.600432
0.600131
0.647189
0.636197
0.626462
0.617935
0.610276
0.603554
0.597809
0.592799
0.589658
0.588632
0.589349
0.591076
0.593532
0.596754
0.599991
0.603222
0.606244
0.608672
0.610416
0.611411
0.611575
0.610899
0.609102
0.606451
0.603535
0.601364
0.601143
0.600579
0.601386
0.603758
0.605888
0.606116
0.607637
0.65196
0.640244
0.629295
0.619367
0.61047
0.602387
0.595317
0.589234
0.585009
0.583036
0.582943
0.584204
0.586442
0.589423
0.592704
0.595942
0.599212
0.601807
0.603951
0.605433
0.606136
0.605842
0.60447
0.602013
0.599199
0.598013
0.596659
0.597206
0.599471
0.604023
0.606436
0.609625
0.611644
0.659087
0.646541
0.63456
0.623485
0.613451
0.604169
0.595625
0.588003
0.582193
0.578532
0.577298
0.577697
0.57935
0.581933
0.585062
0.588416
0.591663
0.594187
0.596721
0.598278
0.599379
0.598953
0.597935
0.596128
0.592681
0.589211
0.588387
0.589093
0.591386
0.597079
0.603059
0.608125
0.611623
0.668429
0.655124
0.642345
0.630439
0.619212
0.608663
0.598541
0.58909
0.581044
0.575187
0.572371
0.571669
0.572435
0.574458
0.57734
0.580686
0.584005
0.586689
0.588773
0.590099
0.59188
0.591577
0.589097
0.584734
0.580092
0.576995
0.576237
0.577185
0.580042
0.586005
0.593687
0.600765
0.606284
0.678851
0.665703
0.652201
0.639558
0.627342
0.615381
0.603498
0.591857
0.581306
0.57293
0.568226
0.566311
0.565987
0.567183
0.569612
0.573092
0.57721
0.580466
0.582004
0.581542
0.579572
0.577949
0.575115
0.571865
0.56846
0.565649
0.564652
0.565653
0.568457
0.573897
0.581717
0.589936
0.597343
0.690273
0.677532
0.663692
0.650204
0.637108
0.623609
0.609408
0.595165
0.581812
0.570944
0.564765
0.562051
0.561289
0.561769
0.563172
0.565118
0.5676
0.569093
0.568045
0.566522
0.566897
0.566315
0.562981
0.559253
0.556136
0.553957
0.552961
0.553443
0.555554
0.560314
0.568042
0.577155
0.585861
0.702946
0.691368
0.677896
0.664278
0.649956
0.634038
0.61662
0.598473
0.581476
0.567575
0.558928
0.554259
0.552098
0.551205
0.551077
0.551818
0.553784
0.556111
0.558547
0.557642
0.555397
0.554447
0.55234
0.549625
0.546536
0.543778
0.541973
0.541618
0.543009
0.546807
0.553703
0.562851
0.572357
0.715796
0.7045
0.691405
0.677827
0.662609
0.64442
0.623684
0.601264
0.580057
0.563031
0.552303
0.546694
0.544202
0.543465
0.544222
0.545727
0.546626
0.547585
0.548205
0.547776
0.545867
0.544374
0.542258
0.539226
0.535829
0.532534
0.529898
0.528563
0.529153
0.531968
0.537947
0.546867
0.557178
0.727655
0.715699
0.702685
0.688952
0.672297
0.652188
0.628953
0.60371
0.580077
0.561063
0.54844
0.541492
0.538071
0.536684
0.536417
0.537258
0.538272
0.538869
0.539007
0.537713
0.535843
0.534009
0.531913
0.52899
0.525425
0.521638
0.518272
0.516037
0.515665
0.517675
0.52265
0.531134
0.541199
0.737115
0.72475
0.710858
0.696112
0.678539
0.657233
0.632153
0.605734
0.580866
0.56049
0.546252
0.537729
0.533441
0.531259
0.529915
0.529999
0.529564
0.529624
0.529693
0.528968
0.52688
0.524417
0.52176
0.5191
0.515663
0.511816
0.508125
0.505204
0.503819
0.504601
0.50808
0.515307
0.525917
0.742716
0.730192
0.716276
0.700727
0.682467
0.660718
0.63517
0.608258
0.582384
0.560702
0.54503
0.53408
0.528628
0.525121
0.523271
0.523415
0.52304
0.522565
0.521582
0.5201
0.518405
0.516118
0.513396
0.510602
0.507329
0.503519
0.499631
0.496224
0.493958
0.493545
0.495358
0.500488
0.509513
0.746547
0.734052
0.720062
0.703974
0.68546
0.663479
0.638
0.610641
0.584116
0.561101
0.543632
0.53193
0.525574
0.521657
0.518609
0.517118
0.516141
0.51534
0.514327
0.513195
0.511572
0.509489
0.506799
0.503793
0.500522
0.496697
0.492636
0.488818
0.485833
0.48431
0.484682
0.487683
0.49413
0.749425
0.737049
0.722801
0.706711
0.688086
0.666243
0.640906
0.613324
0.586142
0.562713
0.544214
0.531342
0.523343
0.518076
0.514649
0.512471
0.511149
0.510301
0.509225
0.507887
0.506549
0.504498
0.501818
0.498582
0.495037
0.491113
0.486806
0.4825
0.478875
0.476328
0.475629
0.47663
0.48032
0.751975
0.739882
0.725564
0.709295
0.690758
0.669124
0.644083
0.616552
0.589129
0.564955
0.545503
0.531909
0.522777
0.51677
0.512849
0.510256
0.508429
0.506888
0.505562
0.504507
0.502703
0.500625
0.497969
0.494691
0.49076
0.486575
0.481969
0.477383
0.472835
0.46908
0.46713
0.467253
0.469163
0.754977
0.743058
0.728601
0.71215
0.693467
0.672004
0.647271
0.62013
0.592499
0.56824
0.548722
0.534274
0.524109
0.517249
0.512659
0.509309
0.506951
0.50497
0.503605
0.501871
0.500069
0.497458
0.494955
0.491851
0.488144
0.483674
0.47915
0.474239
0.469392
0.464913
0.461292
0.45914
0.459296
0.758885
0.74696
0.732372
0.715601
0.696703
0.675267
0.650641
0.6244
0.597049
0.57278
0.552991
0.537897
0.52688
0.519127
0.513572
0.509735
0.506414
0.504223
0.501643
0.5001
0.498293
0.49628
0.49318
0.489629
0.485409
0.480714
0.475326
0.470083
0.464774
0.45948
0.454792
0.451393
0.449967
0.764199
0.752237
0.737455
0.720207
0.7008
0.679108
0.654846
0.629154
0.602294
0.578207
0.558182
0.542477
0.530592
0.522006
0.515493
0.510586
0.506868
0.503806
0.501673
0.499454
0.496374
0.493759
0.490793
0.487169
0.483017
0.478182
0.472718
0.466699
0.460812
0.454829
0.449086
0.44454
0.441714
0.771604
0.759525
0.744379
0.726563
0.706388
0.684236
0.660195
0.634502
0.608392
0.584408
0.564072
0.547751
0.535063
0.52549
0.518164
0.512625
0.508097
0.504307
0.501125
0.497841
0.494865
0.491779
0.488542
0.484849
0.480679
0.476018
0.470909
0.465101
0.458687
0.451875
0.444656
0.438465
0.43419
0.781652
0.769476
0.753736
0.735237
0.714223
0.691232
0.666727
0.641168
0.6155
0.591521
0.57074
0.553637
0.540096
0.529577
0.521316
0.514716
0.509338
0.50476
0.500759
0.497027
0.493369
0.489944
0.486404
0.482896
0.479057
0.474975
0.470213
0.464632
0.458194
0.450905
0.442657
0.43447
0.425476
0.795254
0.782439
0.765972
0.746598
0.724812
0.700806
0.675416
0.649569
0.623961
0.599837
0.578406
0.560374
0.545798
0.534269
0.525089
0.517536
0.511135
0.505707
0.500898
0.49663
0.492595
0.488838
0.485447
0.4821
0.478665
0.474587
0.470034
0.465211
0.459262
0.452329
0.443423
0.434238
0.4197
0.724129
0.709582
0.695201
0.681748
0.669697
0.659041
0.649319
0.641861
0.725669
0.711263
0.696934
0.683512
0.671338
0.660271
0.649963
0.642344
0.727331
0.713237
0.699046
0.685824
0.673547
0.662259
0.651614
0.643749
0.729181
0.715574
0.701675
0.688747
0.676316
0.664948
0.654203
0.645778
0.731517
0.718275
0.705117
0.691861
0.679777
0.668239
0.65729
0.648592
0.734276
0.721398
0.708745
0.695709
0.68351
0.6721
0.661849
0.651233
0.737311
0.725583
0.712093
0.699965
0.687742
0.676306
0.665906
0.654812
0.74141
0.728736
0.716616
0.704062
0.692071
0.681448
0.669729
0.658953
0.744601
0.73311
0.72081
0.70866
0.69732
0.685474
0.674072
0.663622
0.748954
0.737425
0.7253
0.713102
0.701961
0.689898
0.678785
0.668892
0.753348
0.741654
0.730128
0.717373
0.706717
0.694481
0.683681
0.674695
0.757839
0.745764
0.73532
0.722293
0.71022
0.699177
0.688851
0.680397
0.761622
0.751286
0.738879
0.726074
0.715081
0.703389
0.694462
0.686707
0.766987
0.754794
0.742649