/*--------------------------------*- C++ -*----------------------------------*\
  =========                 |
  \\      /  F ield         | OpenFOAM: The Open Source CFD Toolbox
   \\    /   O peration     | Website:  https://openfoam.org
    \\  /    A nd           | Version:  10
     \\/     M anipulation  |
\*---------------------------------------------------------------------------*/
FoamFile
{
    format      ascii;
    class       volScalarField;
    location    "0.699746";
    object      rho;
}
// * * * * * * * * * * * * * * * * * * * * * * * * * * * * * * * * * * * * * //

dimensions      [1 -3 0 0 0 0 0];

internalField   nonuniform List<scalar> 
16320
(
0.987873
0.965987
0.942239
0.911026
0.879501
0.852329
0.837799
0.830484
0.828639
0.834042
0.82515
0.808166
0.792023
0.782623
0.782671
0.775692
0.764197
0.75202
0.740869
0.732264
0.726857
0.724341
0.722052
0.720363
0.717878
0.714051
0.701489
0.667673
0.63185
0.61209
0.604178
0.602625
0.62761
0.973309
0.949797
0.926523
0.907144
0.882977
0.856516
0.833383
0.820986
0.814705
0.817325
0.815582
0.803207
0.789422
0.782787
0.791849
0.788292
0.775036
0.760403
0.747171
0.736546
0.729014
0.724852
0.721685
0.719313
0.715592
0.710442
0.693361
0.65579
0.625839
0.611451
0.605429
0.607741
0.642692
0.943431
0.925928
0.908738
0.896107
0.879961
0.861913
0.840164
0.819332
0.808216
0.803313
0.804848
0.796962
0.785968
0.78203
0.805484
0.809882
0.79581
0.778541
0.75955
0.745134
0.735169
0.728788
0.724292
0.720573
0.716593
0.706939
0.679835
0.643418
0.621926
0.61178
0.608953
0.616694
0.66328
0.920053
0.908328
0.894215
0.885284
0.876023
0.866468
0.852451
0.829785
0.808059
0.797621
0.794097
0.790443
0.782019
0.779907
0.807528
0.831927
0.822336
0.80358
0.781058
0.763572
0.749278
0.738909
0.731703
0.726027
0.71777
0.698443
0.662505
0.635439
0.62017
0.615255
0.611803
0.6363
0.68987
0.911932
0.900235
0.891742
0.885059
0.878928
0.874815
0.867384
0.851012
0.82069
0.796882
0.787357
0.782182
0.776354
0.775379
0.80284
0.840191
0.84016
0.82384
0.799633
0.780718
0.766093
0.754178
0.744198
0.733888
0.716037
0.683576
0.652838
0.632799
0.623529
0.618218
0.629558
0.668012
0.721078
0.906684
0.894116
0.885518
0.880906
0.878518
0.8776
0.876042
0.870149
0.848515
0.807988
0.784203
0.775016
0.769037
0.767765
0.791218
0.838657
0.850662
0.839133
0.817209
0.794718
0.78007
0.76748
0.755761
0.738413
0.709402
0.676796
0.65163
0.63654
0.630299
0.635979
0.659103
0.712156
0.753945
0.89448
0.881119
0.871817
0.866048
0.863805
0.864034
0.8687
0.8697
0.865148
0.837692
0.789402
0.768417
0.761026
0.758226
0.773572
0.82963
0.854252
0.848697
0.833251
0.807087
0.790561
0.778209
0.764373
0.740227
0.707724
0.677825
0.657166
0.649331
0.651241
0.668605
0.713796
0.756772
0.780584
0.865422
0.857883
0.851323
0.847789
0.844589
0.843388
0.849686
0.85855
0.860001
0.853274
0.813121
0.767963
0.753382
0.749399
0.757818
0.810517
0.852282
0.855139
0.844754
0.822961
0.801193
0.787138
0.770184
0.742558
0.710741
0.68654
0.676997
0.678692
0.693819
0.728803
0.766212
0.789857
0.793215
0.850211
0.844558
0.834784
0.826261
0.822252
0.820807
0.826155
0.840306
0.849513
0.849751
0.835503
0.781223
0.7499
0.743505
0.745973
0.784789
0.841207
0.858414
0.852924
0.83879
0.817885
0.79806
0.777185
0.748655
0.724433
0.715632
0.717584
0.729092
0.754654
0.782603
0.80086
0.803308
0.79466
0.843768
0.831625
0.816267
0.802479
0.794709
0.793683
0.800974
0.817709
0.834846
0.840245
0.837807
0.799353
0.751208
0.737952
0.738581
0.758765
0.823974
0.853273
0.857441
0.85108
0.837658
0.818135
0.792602
0.771809
0.764242
0.764599
0.770028
0.785423
0.802516
0.812572
0.811983
0.804149
0.786619
0.832115
0.811065
0.783408
0.762759
0.751894
0.754627
0.770541
0.793135
0.816723
0.829018
0.832498
0.812027
0.754348
0.733059
0.732472
0.74337
0.797815
0.844195
0.856177
0.855581
0.851209
0.839833
0.82331
0.812491
0.809315
0.809945
0.813666
0.820519
0.822784
0.819752
0.811408
0.794403
0.77665
0.804085
0.767416
0.720122
0.691807
0.685592
0.698202
0.729718
0.76516
0.797078
0.816586
0.824275
0.815442
0.761385
0.729939
0.72752
0.73498
0.767798
0.828678
0.852107
0.856452
0.85539
0.850483
0.843075
0.837802
0.835285
0.83405
0.833178
0.831349
0.827028
0.818065
0.802464
0.779772
0.757028
0.753691
0.693176
0.640226
0.618251
0.6133
0.629739
0.680348
0.734755
0.777836
0.804381
0.815666
0.813779
0.765087
0.7274
0.722595
0.729323
0.750687
0.799534
0.839944
0.853738
0.856399
0.855257
0.850356
0.84715
0.844654
0.841956
0.838365
0.832423
0.8231
0.805369
0.774833
0.747336
0.735376
0.685902
0.632226
0.60405
0.588163
0.581881
0.590928
0.634786
0.705956
0.76119
0.794115
0.808855
0.811671
0.769701
0.725269
0.719178
0.725931
0.741895
0.776611
0.811994
0.837202
0.848721
0.852748
0.852679
0.850022
0.846354
0.841301
0.83467
0.823403
0.800321
0.764656
0.740547
0.73267
0.742463
0.641
0.609511
0.587218
0.573178
0.567704
0.57555
0.611352
0.689766
0.750296
0.787515
0.803898
0.808625
0.769326
0.722945
0.715674
0.723873
0.738545
0.764728
0.787678
0.810101
0.827037
0.83577
0.838586
0.837097
0.83451
0.829712
0.816396
0.786371
0.752897
0.736449
0.73334
0.751727
0.778787
0.624763
0.595983
0.579936
0.571678
0.569668
0.577746
0.610511
0.68802
0.747881
0.785182
0.80356
0.809724
0.765363
0.719445
0.713514
0.722313
0.736629
0.757384
0.777727
0.796551
0.808746
0.814178
0.817669
0.819258
0.815317
0.796643
0.766752
0.743048
0.734487
0.73734
0.76188
0.784079
0.785202
0.615173
0.59485
0.588853
0.595026
0.598153
0.604398
0.631501
0.700242
0.755545
0.788653
0.806122
0.808852
0.760171
0.715063
0.711168
0.720717
0.736521
0.756706
0.774401
0.785057
0.791764
0.797163
0.799701
0.792555
0.771239
0.748621
0.73565
0.733914
0.744654
0.772295
0.78746
0.784237
0.764615
0.617061
0.602465
0.61043
0.636762
0.654191
0.657552
0.671291
0.72985
0.768108
0.790853
0.807933
0.80445
0.748607
0.7086
0.709888
0.720925
0.737213
0.75436
0.764168
0.771411
0.777683
0.778486
0.766924
0.748634
0.734011
0.730244
0.734621
0.753827
0.781825
0.790996
0.784304
0.757356
0.694207
0.621427
0.609419
0.622122
0.660522
0.690371
0.703421
0.717966
0.752486
0.776574
0.796089
0.80988
0.798709
0.734047
0.706329
0.709074
0.719347
0.733227
0.744881
0.753948
0.759684
0.756569
0.742087
0.728427
0.722824
0.72588
0.735935
0.762241
0.787193
0.792275
0.783135
0.745197
0.671074
0.617633
0.627733
0.615018
0.630689
0.674531
0.708863
0.725529
0.742569
0.766516
0.786457
0.802835
0.80844
0.777002
0.713892
0.699633
0.70372
0.71316
0.727824
0.738286
0.741229
0.732769
0.720605
0.713671
0.715141
0.722315
0.738063
0.768342
0.786838
0.789736
0.775603
0.721384
0.643966
0.598879
0.582307
0.636104
0.62128
0.628716
0.671889
0.712356
0.730316
0.748009
0.765638
0.781002
0.793366
0.779339
0.729727
0.699895
0.698046
0.704329
0.713018
0.722454
0.720836
0.711673
0.704534
0.70434
0.709932
0.720292
0.743146
0.769338
0.781529
0.782671
0.758293
0.688293
0.620244
0.586544
0.575344
0.575718
0.649421
0.628661
0.622219
0.636196
0.686416
0.71947
0.742378
0.75411
0.768728
0.772686
0.745683
0.708666
0.698914
0.699684
0.703194
0.705169
0.702629
0.696772
0.694645
0.698961
0.707521
0.723604
0.749154
0.76604
0.773308
0.769375
0.730026
0.657193
0.606804
0.584401
0.577761
0.579448
0.591204
0.68586
0.644134
0.630751
0.627169
0.641665
0.6776
0.702181
0.720323
0.729674
0.721898
0.6985
0.689398
0.688178
0.689851
0.689696
0.689755
0.68998
0.692381
0.69823
0.709585
0.732241
0.752732
0.761238
0.764062
0.747877
0.69449
0.638039
0.606228
0.593165
0.590055
0.596424
0.620737
0.648125
0.712838
0.681923
0.649928
0.637795
0.63604
0.639013
0.652959
0.663427
0.672797
0.67517
0.672278
0.674633
0.678672
0.682573
0.686765
0.691251
0.696192
0.704156
0.721566
0.741409
0.752451
0.757081
0.751055
0.718679
0.669906
0.635433
0.617594
0.610018
0.612426
0.635953
0.667118
0.686683
0.698326
0.72742
0.714984
0.694028
0.66626
0.653549
0.647714
0.649856
0.65401
0.66051
0.666611
0.672221
0.678812
0.685036
0.691089
0.698113
0.707425
0.721427
0.736175
0.745254
0.750722
0.75082
0.732117
0.695747
0.665908
0.647541
0.636412
0.635137
0.651224
0.681187
0.70458
0.720997
0.729878
0.732841
0.733991
0.728522
0.722209
0.713395
0.701258
0.689094
0.677375
0.678963
0.679049
0.684247
0.689974
0.697546
0.708169
0.718542
0.730243
0.739097
0.743773
0.746598
0.746805
0.738343
0.713926
0.689321
0.675303
0.666634
0.663167
0.672613
0.697622
0.7191
0.736266
0.747508
0.752056
0.749637
0.742251
0.733036
0.729646
0.7317
0.730676
0.726508
0.724918
0.726559
0.721921
0.723691
0.724778
0.729292
0.733945
0.739029
0.742563
0.745259
0.746136
0.744829
0.736589
0.719418
0.705877
0.696626
0.690989
0.689282
0.698958
0.718152
0.734199
0.74848
0.758511
0.765294
0.766525
0.762164
0.75323
0.748164
0.733956
0.728937
0.726327
0.730137
0.733163
0.735563
0.735523
0.738049
0.738405
0.738574
0.741048
0.742629
0.743685
0.743067
0.738987
0.73048
0.722044
0.712249
0.707871
0.707121
0.708045
0.717352
0.733405
0.746943
0.756553
0.763838
0.77045
0.775324
0.777404
0.773941
0.764094
0.760767
0.776408
0.766395
0.730092
0.726995
0.723666
0.724536
0.725447
0.726698
0.727541
0.729889
0.732401
0.73143
0.729754
0.727049
0.721898
0.717453
0.715156
0.713998
0.713878
0.715732
0.72599
0.741339
0.753573
0.762511
0.768702
0.774752
0.780584
0.785971
0.788318
0.785121
0.772693
0.77432
0.797695
0.865464
0.797606
0.774161
0.73254
0.728569
0.724641
0.725849
0.72427
0.723362
0.722608
0.72232
0.720822
0.718307
0.716823
0.715693
0.715908
0.716862
0.718761
0.724661
0.740351
0.753861
0.76358
0.76969
0.776736
0.783319
0.789612
0.794468
0.795812
0.791802
0.780925
0.785284
0.806977
0.847672
0.879944
0.801927
0.797927
0.780305
0.74277
0.73141
0.729152
0.729008
0.728677
0.726545
0.724322
0.72143
0.718188
0.717239
0.717837
0.719577
0.723146
0.731879
0.74846
0.759492
0.768644
0.772631
0.779306
0.786743
0.792778
0.797478
0.797104
0.791544
0.785434
0.788916
0.802568
0.821499
0.837863
0.849228
0.789269
0.797441
0.800372
0.787377
0.754069
0.736687
0.7341
0.734838
0.733891
0.730135
0.724363
0.719805
0.720033
0.722249
0.726536
0.738707
0.754835
0.76405
0.771683
0.773154
0.777322
0.783051
0.78732
0.789084
0.785606
0.781495
0.783576
0.790357
0.803334
0.814334
0.812357
0.79367
0.775135
0.743449
0.770637
0.791878
0.801225
0.799628
0.768731
0.743652
0.738777
0.738711
0.736142
0.727184
0.721158
0.722158
0.725645
0.737149
0.756295
0.766075
0.772386
0.773555
0.773337
0.77414
0.774152
0.768533
0.761963
0.761466
0.772505
0.788711
0.809507
0.827772
0.831803
0.809146
0.768473
0.733149
0.715579
0.717874
0.73825
0.785581
0.807032
0.810113
0.787622
0.752711
0.741377
0.737951
0.730168
0.722166
0.723443
0.730272
0.749238
0.765722
0.77271
0.775614
0.770498
0.764724
0.756516
0.743393
0.735985
0.74348
0.76155
0.785625
0.815917
0.852993
0.88768
0.892741
0.855916
0.792253
0.741963
0.698144
0.694233
0.697496
0.720214
0.780861
0.81101
0.81559
0.795672
0.759548
0.73894
0.728873
0.723112
0.725419
0.736309
0.759631
0.770525
0.775544
0.771443
0.759669
0.741639
0.726509
0.720834
0.728795
0.746055
0.773021
0.822165
0.905512
1.02375
1.10712
1.13412
1.06806
0.963129
0.85684
0.684798
0.679097
0.679552
0.690843
0.733034
0.79763
0.819031
0.821094
0.79837
0.755875
0.729262
0.724016
0.727175
0.742665
0.765044
0.772765
0.773259
0.76055
0.737096
0.719772
0.71159
0.716378
0.730687
0.764991
0.83892
1.00013
1.15504
1.26632
1.34114
1.34325
1.26516
1.13354
1.00379
0.672109
0.668247
0.669801
0.679795
0.712216
0.778137
0.814415
0.822879
0.813465
0.775177
0.734895
0.727561
0.731545
0.749847
0.766628
0.771473
0.765687
0.742685
0.719297
0.707024
0.706354
0.718291
0.753962
0.856409
1.02363
1.15726
1.25249
1.31976
1.35778
1.35149
1.28081
1.17361
1.06495
0.668188
0.663369
0.665229
0.676746
0.710011
0.772283
0.807669
0.81693
0.809764
0.773222
0.736453
0.731028
0.735307
0.752516
0.76552
0.768436
0.756968
0.729604
0.708326
0.702483
0.710265
0.742981
0.83286
0.964816
1.08173
1.15047
1.20157
1.21623
1.18003
1.12511
1.08107
1.04021
0.998174
0.667464
0.662827
0.664194
0.674636
0.7049
0.760907
0.793843
0.803237
0.799215
0.76554
0.735363
0.732865
0.737936
0.75617
0.765173
0.765181
0.748557
0.717476
0.705207
0.708139
0.729119
0.785073
0.878679
0.97359
1.0436
1.0891
1.0811
1.01715
0.976493
0.969506
0.973372
0.966123
0.939257
0.669564
0.664885
0.665588
0.673226
0.694938
0.733035
0.758535
0.767322
0.768533
0.747996
0.732892
0.73333
0.741592
0.759159
0.764496
0.761889
0.739325
0.714703
0.711678
0.720471
0.748086
0.802792
0.869448
0.941866
0.984058
0.970232
0.918604
0.897193
0.901571
0.917866
0.940696
0.947354
0.936422
0.675283
0.670981
0.671187
0.676987
0.692415
0.71413
0.728614
0.735476
0.73831
0.735345
0.732995
0.73677
0.754612
0.765485
0.767575
0.758821
0.733924
0.719511
0.720798
0.728797
0.75207
0.795775
0.848361
0.884825
0.886029
0.860027
0.847231
0.85558
0.875733
0.912166
0.959341
0.969375
0.947539
0.684797
0.680311
0.680092
0.685013
0.697719
0.713016
0.720973
0.725955
0.732223
0.735251
0.737321
0.747715
0.763497
0.767905
0.76762
0.757268
0.73286
0.723707
0.724362
0.730707
0.747998
0.78398
0.809382
0.820463
0.817012
0.812188
0.822257
0.843637
0.895224
0.958944
0.971609
0.957291
0.924608
0.695693
0.691739
0.692291
0.699394
0.710622
0.719932
0.724505
0.728563
0.735716
0.743597
0.755169
0.769838
0.775239
0.776467
0.773547
0.758377
0.735917
0.728575
0.728992
0.732759
0.743567
0.765228
0.776356
0.780982
0.785829
0.796524
0.820097
0.888131
0.951815
0.961137
0.936668
0.894557
0.855831
0.705441
0.701141
0.703699
0.71729
0.733161
0.738239
0.73944
0.742501
0.753435
0.774739
0.786019
0.790126
0.790449
0.787603
0.778669
0.760377
0.739477
0.730226
0.728394
0.729882
0.736922
0.7507
0.759072
0.765168
0.777528
0.810016
0.896114
0.941644
0.932383
0.895447
0.864471
0.838891
0.81403
0.716808
0.711096
0.714728
0.734577
0.763751
0.781857
0.786928
0.789556
0.798014
0.800934
0.801753
0.80063
0.798174
0.792016
0.778969
0.759256
0.738713
0.728687
0.723865
0.725766
0.730174
0.741853
0.752694
0.772113
0.836076
0.900007
0.915223
0.889993
0.860427
0.84106
0.825027
0.809327
0.793599
0.728102
0.718763
0.721119
0.741563
0.777584
0.814877
0.841499
0.853416
0.852482
0.846228
0.835541
0.822089
0.808831
0.796201
0.779198
0.758215
0.739948
0.727453
0.725273
0.72484
0.731627
0.751411
0.797411
0.852113
0.87796
0.873777
0.852207
0.829444
0.81915
0.812491
0.802491
0.792136
0.782151
0.743305
0.725469
0.725026
0.743469
0.781015
0.822561
0.857373
0.884201
0.894839
0.891731
0.882493
0.867118
0.846292
0.819745
0.79181
0.768324
0.751462
0.746924
0.750518
0.767151
0.792208
0.823104
0.842883
0.846574
0.836474
0.813053
0.801636
0.79638
0.795619
0.790374
0.783436
0.778946
0.775409
0.770543
0.731239
0.725725
0.736877
0.772786
0.819023
0.857699
0.886211
0.903094
0.908179
0.904163
0.895373
0.881449
0.862439
0.838519
0.820568
0.812705
0.809554
0.811501
0.81658
0.819003
0.818482
0.814574
0.797685
0.77774
0.767639
0.765775
0.76126
0.760056
0.756697
0.755712
0.756974
0.761855
0.812688
0.741626
0.726045
0.72676
0.750168
0.794772
0.839821
0.872511
0.894001
0.902575
0.902133
0.893779
0.883677
0.868566
0.853274
0.839385
0.829586
0.820175
0.811244
0.803326
0.7936
0.780265
0.758913
0.739264
0.726375
0.718059
0.714017
0.713618
0.712943
0.717881
0.721815
0.728484
0.739347
0.859131
0.771964
0.728345
0.719434
0.725571
0.752111
0.792743
0.831341
0.857891
0.873594
0.878541
0.879497
0.865245
0.854763
0.839171
0.824488
0.811834
0.797812
0.781994
0.764187
0.741763
0.717435
0.694601
0.674786
0.660154
0.648552
0.639475
0.635612
0.642171
0.653173
0.673608
0.693164
0.711268
0.893536
0.828485
0.741782
0.716598
0.709174
0.714157
0.732366
0.757219
0.780345
0.800312
0.818401
0.82054
0.823382
0.807169
0.79539
0.780787
0.763973
0.742737
0.718063
0.690875
0.660966
0.632373
0.608924
0.587096
0.56713
0.550845
0.539959
0.538496
0.545295
0.565978
0.592636
0.63025
0.667333
0.910765
0.877638
0.790482
0.72194
0.702742
0.693273
0.690619
0.695059
0.700501
0.703167
0.70805
0.715075
0.713828
0.709306
0.697769
0.683737
0.664381
0.639873
0.612747
0.585934
0.560123
0.535799
0.513801
0.493119
0.475588
0.462574
0.454107
0.451837
0.456296
0.468778
0.494492
0.53534
0.590615
0.914097
0.90691
0.853679
0.753969
0.704856
0.686678
0.672507
0.660324
0.652616
0.642619
0.630827
0.621674
0.612629
0.602152
0.590645
0.577729
0.561677
0.543367
0.52418
0.505124
0.486759
0.469609
0.454331
0.440821
0.430595
0.423304
0.419276
0.418986
0.422263
0.429154
0.440859
0.459872
0.492803
0.905451
0.913381
0.896274
0.82357
0.72718
0.689623
0.668905
0.646904
0.630023
0.614507
0.594829
0.575275
0.558774
0.542366
0.527382
0.514219
0.500793
0.486399
0.472431
0.458783
0.446059
0.434618
0.424478
0.416237
0.410017
0.406264
0.404895
0.406224
0.409987
0.416134
0.425227
0.437359
0.453975
0.886636
0.904564
0.908249
0.878603
0.790385
0.712999
0.681276
0.645214
0.621474
0.602672
0.581583
0.558333
0.537005
0.517488
0.499805
0.484793
0.47211
0.459488
0.448125
0.437504
0.428084
0.419824
0.412548
0.406599
0.40217
0.399739
0.399197
0.400532
0.405241
0.41152
0.419745
0.430127
0.442917
0.876889
0.877074
0.900316
0.899555
0.855949
0.759424
0.710473
0.669391
0.62346
0.597561
0.575896
0.553335
0.529798
0.508885
0.490184
0.473997
0.460791
0.448537
0.437855
0.42828
0.420198
0.41328
0.407661
0.40413
0.402195
0.40258
0.405551
0.410781
0.41722
0.42358
0.430035
0.436529
0.444138
0.874723
0.860066
0.866467
0.891862
0.886508
0.826703
0.73615
0.711827
0.659437
0.606683
0.577592
0.559603
0.535648
0.51077
0.489849
0.471875
0.457249
0.444311
0.433421
0.424163
0.417286
0.41286
0.410749
0.410789
0.412941
0.416532
0.422457
0.430662
0.441532
0.453682
0.464528
0.471447
0.47442
0.890104
0.85558
0.84049
0.854465
0.880372
0.869229
0.800231
0.728583
0.705949
0.65552
0.596616
0.56617
0.548322
0.530333
0.508581
0.487052
0.467387
0.451457
0.438267
0.428095
0.421495
0.417493
0.415808
0.416154
0.418862
0.423065
0.43014
0.444815
0.469225
0.495427
0.515596
0.527291
0.533192
0.891792
0.871131
0.833788
0.81897
0.842431
0.867775
0.848736
0.773837
0.724941
0.700171
0.654504
0.590506
0.557669
0.541618
0.527104
0.511504
0.495907
0.480761
0.464393
0.452278
0.443839
0.437883
0.43488
0.434673
0.435387
0.441291
0.458526
0.501339
0.547057
0.578867
0.59488
0.602951
0.607669
0.879113
0.872535
0.847794
0.810967
0.800501
0.831516
0.853045
0.824541
0.756517
0.722669
0.696844
0.651881
0.58902
0.554422
0.536915
0.524759
0.513989
0.503038
0.491794
0.479806
0.469548
0.462586
0.458238
0.457082
0.467345
0.505801
0.560937
0.6012
0.620107
0.631796
0.639912
0.645428
0.648786
0.858819
0.858264
0.849136
0.822314
0.791337
0.784693
0.82113
0.836591
0.802932
0.738432
0.719398
0.694738
0.652002
0.592892
0.55712
0.538963
0.526318
0.516946
0.506964
0.497363
0.489724
0.484412
0.485417
0.505937
0.553975
0.600568
0.625909
0.633022
0.639321
0.651512
0.662527
0.6679
0.668636
0.827649
0.834191
0.834585
0.820452
0.795887
0.771829
0.768085
0.814828
0.815626
0.78064
0.730474
0.71434
0.692517
0.654311
0.602322
0.568347
0.548208
0.535397
0.525893
0.518617
0.514986
0.519463
0.543658
0.582384
0.612814
0.624031
0.626179
0.630877
0.655553
0.704899
0.729193
0.728192
0.703419
0.79636
0.802168
0.808526
0.806056
0.792584
0.770754
0.753229
0.759739
0.801567
0.789968
0.75708
0.724305
0.70916
0.689282
0.657232
0.6158
0.586108
0.56682
0.557166
0.552277
0.55518
0.573474
0.599649
0.616645
0.620561
0.622743
0.635893
0.703941
0.817314
0.881719
0.896533
0.879359
0.802274
0.767906
0.772142
0.775365
0.781183
0.775991
0.766245
0.749726
0.736759
0.751557
0.779741
0.764148
0.738629
0.717515
0.702946
0.68559
0.660525
0.630577
0.608544
0.598265
0.593903
0.600278
0.615125
0.623217
0.622665
0.623705
0.649418
0.775119
0.902395
0.951605
0.963509
0.964614
0.953747
0.91613
0.743948
0.742792
0.745631
0.749133
0.748028
0.749324
0.741874
0.727485
0.719214
0.742614
0.755263
0.742026
0.722488
0.707197
0.695759
0.682968
0.664227
0.645029
0.634157
0.628443
0.630773
0.632551
0.627931
0.625034
0.646248
0.782303
0.913645
0.958848
0.964346
0.963702
0.96135
0.954625
0.939167
0.726108
0.720059
0.720096
0.722847
0.722718
0.720379
0.724159
0.71803
0.707076
0.704429
0.730403
0.733575
0.722326
0.707455
0.695128
0.687708
0.678397
0.665441
0.654788
0.648061
0.64357
0.636327
0.629282
0.63718
0.738469
0.877009
0.927839
0.93135
0.920438
0.916325
0.923531
0.928528
0.925551
0.709997
0.70243
0.702581
0.705044
0.706173
0.703443
0.698824
0.702319
0.696066
0.687382
0.68884
0.714579
0.713674
0.704057
0.692098
0.683693
0.678839
0.671886
0.664226
0.655669
0.646867
0.637066
0.635426
0.6866
0.820446
0.887551
0.888829
0.838123
0.796893
0.798141
0.832212
0.867593
0.882436
0.69218
0.68532
0.686766
0.690105
0.692361
0.690163
0.6841
0.681082
0.680536
0.674102
0.668297
0.67639
0.698316
0.696007
0.687276
0.678581
0.674012
0.669327
0.664276
0.657844
0.650554
0.644518
0.658849
0.748902
0.841804
0.858797
0.802443
0.712471
0.68574
0.689652
0.736293
0.796836
0.830305
0.672828
0.669018
0.671953
0.676407
0.680351
0.678728
0.673207
0.666798
0.663751
0.660823
0.654381
0.652283
0.669009
0.683714
0.681241
0.674185
0.668707
0.666707
0.663639
0.658516
0.65286
0.653186
0.680131
0.773361
0.834075
0.817455
0.742603
0.674052
0.652715
0.651098
0.672002
0.736656
0.78659
0.653983
0.653777
0.6588
0.665724
0.669996
0.669724
0.664243
0.656411
0.650653
0.647664
0.643598
0.638393
0.641034
0.664464
0.672328
0.670981
0.666337
0.662463
0.661757
0.658902
0.656856
0.659103
0.687858
0.77826
0.80892
0.793802
0.737611
0.670388
0.643968
0.638513
0.645552
0.691971
0.752742
0.635817
0.638779
0.645758
0.652491
0.655728
0.657271
0.655914
0.648615
0.641056
0.635784
0.632823
0.628912
0.626908
0.634148
0.661009
0.66654
0.665562
0.662067
0.660255
0.658689
0.658816
0.665275
0.69371
0.767696
0.778939
0.765806
0.729219
0.670285
0.640659
0.63254
0.636227
0.677402
0.734775
0.621732
0.625751
0.631022
0.634145
0.636968
0.639654
0.642095
0.640157
0.633742
0.627001
0.622698
0.620426
0.618272
0.620306
0.635012
0.658592
0.665303
0.665659
0.6646
0.662982
0.662647
0.665487
0.68792
0.731505
0.735833
0.724631
0.701702
0.660725
0.637533
0.631575
0.637953
0.68265
0.735561
0.610959
0.612573
0.614252
0.614954
0.616535
0.620374
0.62508
0.628149
0.625913
0.620695
0.615604
0.612843
0.611671
0.612427
0.618958
0.63994
0.660242
0.667571
0.668247
0.667828
0.667188
0.667436
0.674557
0.695336
0.695956
0.687179
0.673047
0.649031
0.638939
0.63673
0.648907
0.700732
0.745868
0.603527
0.601426
0.595311
0.588087
0.588731
0.594623
0.606959
0.613776
0.615731
0.614132
0.610685
0.607253
0.606288
0.607006
0.610636
0.621323
0.645952
0.664009
0.671169
0.671682
0.670834
0.669552
0.669964
0.67611
0.674469
0.667731
0.658215
0.648937
0.645095
0.649505
0.680375
0.738418
0.761935
0.597669
0.586669
0.565344
0.553594
0.554917
0.566162
0.585322
0.59854
0.604337
0.606378
0.605497
0.603019
0.601508
0.602576
0.605188
0.611147
0.624332
0.650005
0.664385
0.670868
0.671301
0.669487
0.668596
0.668952
0.666185
0.661708
0.657681
0.654919
0.657587
0.676566
0.737294
0.768976
0.773411
0.587154
0.563168
0.528064
0.518912
0.522972
0.542394
0.566855
0.584173
0.592742
0.597239
0.598148
0.597643
0.59619
0.596843
0.599922
0.60424
0.611624
0.626017
0.649846
0.662333
0.66721
0.668743
0.667726
0.666509
0.665565
0.663835
0.663141
0.666452
0.684509
0.744147
0.780464
0.787038
0.77918
0.570176
0.525335
0.501494
0.495671
0.498486
0.52052
0.549294
0.572382
0.58311
0.588762
0.590742
0.590778
0.590482
0.591291
0.593323
0.597594
0.603164
0.611252
0.626601
0.647615
0.658938
0.662172
0.664682
0.666932
0.667445
0.66798
0.674111
0.697195
0.759202
0.794028
0.800542
0.792507
0.749779
0.539002
0.505602
0.494406
0.489452
0.488266
0.497173
0.526826
0.560627
0.575713
0.580734
0.583217
0.583595
0.584419
0.585727
0.587005
0.589813
0.594251
0.600772
0.61101
0.626248
0.640253
0.653319
0.662736
0.667942
0.670358
0.680728
0.720658
0.780506
0.805414
0.809456
0.798397
0.747217
0.694116
0.518739
0.504009
0.495986
0.490552
0.486738
0.487419
0.50167
0.5418
0.56558
0.572134
0.574746
0.576169
0.577513
0.578801
0.579741
0.582347
0.587085
0.591195
0.598653
0.615273
0.634835
0.652097
0.663097
0.671863
0.697346
0.761117
0.80202
0.809637
0.806099
0.78359
0.719377
0.677291
0.657751
0.51914
0.509959
0.505199
0.497866
0.490631
0.488176
0.495003
0.513948
0.545787
0.559104
0.56383
0.566508
0.56842
0.568151
0.5678
0.570744
0.577055
0.584512
0.594458
0.615593
0.641177
0.660112
0.694519
0.758057
0.802836
0.806367
0.79785
0.772947
0.71651
0.659289
0.632928
0.623829
0.623029
0.526851
0.529366
0.528422
0.516911
0.503752
0.496331
0.498163
0.505747
0.516434
0.528208
0.535862
0.540686
0.546131
0.549974
0.557744
0.5653
0.574866
0.589296
0.610999
0.647263
0.708202
0.774627
0.806674
0.799247
0.77564
0.73399
0.666985
0.604132
0.569276
0.557928
0.5549
0.557653
0.559478
0.547174
0.572424
0.576233
0.559344
0.536585
0.522562
0.516428
0.51628
0.51846
0.52306
0.529701
0.536259
0.544918
0.555489
0.572395
0.596011
0.634535
0.692265
0.748714
0.780055
0.784744
0.76178
0.713893
0.644462
0.57302
0.517885
0.487344
0.472561
0.462387
0.455067
0.449964
0.451378
0.457965
0.586382
0.644773
0.65869
0.642882
0.607642
0.582418
0.566015
0.561217
0.564084
0.570254
0.587724
0.613943
0.648088
0.684716
0.722603
0.754917
0.772519
0.778376
0.761686
0.687792
0.56513
0.515309
0.466097
0.439542
0.426533
0.418933
0.412228
0.406078
0.401739
0.398682
0.395321
0.391555
0.386954
0.636533
0.711244
0.7411
0.744272
0.736667
0.724981
0.719006
0.720845
0.728778
0.736375
0.743814
0.746232
0.746639
0.746053
0.736988
0.71031
0.661333
0.590472
0.512313
0.437044
0.409235
0.403033
0.39995
0.398827
0.397923
0.396263
0.394492
0.392138
0.390067
0.387696
0.383736
0.377661
0.369501
0.681716
0.748903
0.776177
0.78418
0.788455
0.788454
0.783426
0.765715
0.741326
0.720305
0.697253
0.665688
0.626823
0.582583
0.535223
0.488061
0.447024
0.41791
0.401641
0.392621
0.388051
0.388806
0.391028
0.396057
0.400036
0.402174
0.403363
0.403259
0.40289
0.401106
0.395337
0.381085
0.368443
0.70894
0.766019
0.785031
0.784743
0.769617
0.744494
0.708914
0.664485
0.61465
0.565051
0.528198
0.498154
0.47415
0.45086
0.430519
0.414486
0.401777
0.394202
0.392418
0.393738
0.399131
0.407564
0.414711
0.41723
0.416392
0.414123
0.411725
0.41008
0.409452
0.410281
0.411592
0.405447
0.386262
0.715513
0.732467
0.72218
0.702525
0.671359
0.63162
0.588046
0.553351
0.526817
0.504178
0.481281
0.460502
0.442714
0.425911
0.415006
0.412853
0.417498
0.42715
0.435368
0.437498
0.433783
0.428702
0.425225
0.421253
0.417355
0.413296
0.409619
0.406817
0.405588
0.406949
0.411222
0.417512
0.418683
0.666444
0.662393
0.648431
0.625584
0.601196
0.580282
0.559313
0.539763
0.517206
0.496501
0.475268
0.460478
0.455911
0.46041
0.473175
0.486937
0.489888
0.484364
0.470967
0.456367
0.44398
0.432878
0.427143
0.42302
0.419784
0.415555
0.410542
0.405328
0.401821
0.40113
0.404286
0.412578
0.427045
0.634725
0.628813
0.614444
0.597957
0.582017
0.570688
0.558574
0.543088
0.528385
0.518538
0.516712
0.522153
0.531589
0.537258
0.535719
0.529071
0.514712
0.494791
0.47477
0.460035
0.448351
0.442865
0.440535
0.438697
0.436187
0.430515
0.42218
0.412018
0.402905
0.397226
0.396436
0.401663
0.416921
0.614074
0.610354
0.598288
0.584843
0.576404
0.573981
0.572831
0.571549
0.570661
0.572727
0.571336
0.567382
0.562473
0.556805
0.547272
0.532687
0.513443
0.491207
0.472675
0.463926
0.462471
0.465162
0.466929
0.466876
0.465154
0.45761
0.445802
0.430022
0.413626
0.399779
0.389714
0.386434
0.393493
0.595917
0.598437
0.589046
0.57773
0.574996
0.581382
0.593986
0.605375
0.605395
0.597628
0.584783
0.574885
0.566053
0.557825
0.544787
0.526769
0.504436
0.484575
0.474576
0.473498
0.479546
0.489629
0.497071
0.500109
0.499684
0.490658
0.477996
0.459921
0.437955
0.417074
0.394603
0.378489
0.372211
0.580607
0.588811
0.583103
0.573131
0.572437
0.583897
0.602848
0.6192
0.616057
0.601182
0.586266
0.572303
0.561299
0.547868
0.531597
0.511819
0.495248
0.485363
0.484391
0.493158
0.508455
0.522576
0.529096
0.531572
0.528937
0.517492
0.500962
0.483565
0.458241
0.435614
0.403842
0.378132
0.363867
0.573013
0.575623
0.57794
0.569284
0.566054
0.577216
0.598572
0.618342
0.610433
0.592737
0.573962
0.558655
0.543759
0.530017
0.517933
0.506911
0.497622
0.495963
0.506536
0.529708
0.548985
0.551923
0.553819
0.550538
0.542778
0.528777
0.509657
0.487974
0.461833
0.435894
0.400527
0.373035
0.358125
0.572043
0.564613
0.569484
0.567026
0.55867
0.563217
0.579763
0.598174
0.590923
0.571752
0.552462
0.535765
0.522679
0.515912
0.51382
0.511146
0.509461
0.515215
0.533745
0.56217
0.562698
0.566606
0.562576
0.558789
0.548084
0.533441
0.511487
0.489109
0.460715
0.431887
0.394193
0.364579
0.351205
0.577455
0.562578
0.558165
0.561591
0.554425
0.548131
0.554188
0.566748
0.56268
0.545251
0.527218
0.512959
0.505648
0.507294
0.514184
0.517847
0.522689
0.53091
0.54757
0.565456
0.574017
0.569075
0.568056
0.562191
0.552029
0.537001
0.51549
0.490855
0.46192
0.430088
0.390724
0.358931
0.345535
0.600508
0.567071
0.553946
0.552519
0.552368
0.541944
0.535
0.536857
0.536684
0.524631
0.510258
0.498882
0.494578
0.499673
0.510937
0.520741
0.528134
0.536396
0.547947
0.568991
0.576689
0.577364
0.573336
0.569892
0.561244
0.546586
0.524698
0.499834
0.470649
0.437057
0.399125
0.361859
0.345396
0.644689
0.583158
0.557682
0.545969
0.545064
0.541874
0.529928
0.520414
0.516441
0.513281
0.503829
0.494429
0.488121
0.488682
0.498736
0.517105
0.530597
0.538707
0.548751
0.56719
0.580401
0.583031
0.581771
0.578292
0.572631
0.561197
0.542051
0.5169
0.488841
0.456384
0.421269
0.377933
0.350355
0.681488
0.71579
0.725254
0.719879
0.711413
0.704997
0.710245
0.738928
0.695409
0.726422
0.732422
0.724496
0.713238
0.704924
0.702936
0.726309
0.712538
0.738207
0.739775
0.728616
0.715695
0.704862
0.700434
0.719561
0.732587
0.750461
0.746401
0.732183
0.717236
0.705875
0.70105
0.71831
0.753764
0.76123
0.750879
0.733705
0.718782
0.708111
0.70753
0.731498
0.771912
0.767364
0.752308
0.733243
0.72019
0.713358
0.725192
0.754681
0.78146
0.768946
0.748686
0.73291
0.722183
0.724862
0.748154
0.772257
0.782982
0.763313
0.744958
0.732434
0.728703
0.743782
0.766874
0.787144
0.776126
0.756973
0.743826
0.735893
0.740987
0.7609
0.783427
0.80153
0.768186
0.754492
0.743497
0.737903
0.748512
0.774381
0.799874
0.81468
0.761154
0.748314
0.738793
0.740572
0.7742
0.800983
0.807222
0.798992
0.742259
0.73405
0.752614
0.786982
0.796688
0.786293
0.763281
0.728271
0.735823
0.766768
0.788985
0.785169
0.767262