/*--------------------------------*- C++ -*----------------------------------*\
  =========                 |
  \\      /  F ield         | OpenFOAM: The Open Source CFD Toolbox
   \\    /   O peration     | Website:  https://openfoam.org
    \\  /    A nd           | Version:  10
     \\/     M anipulation  |
\*---------------------------------------------------------------------------*/
FoamFile
{
    format      ascii;
    class       volScalarField;
    location    "0.699746";
    object      T;
}
// * * * * * * * * * * * * * * * * * * * * * * * * * * * * * * * * * * * * * //

dimensions      [0 0 0 1 0 0 0];

internalField   nonuniform List<scalar> 
16320
(
0.00349358
0.00359818
0.00371208
0.00385479
0.00399764
0.00411731
0.00416673
0.0041621
0.00411522
0.00402119
0.00398563
0.00398502
0.00397738
0.0039349
0.00384755
0.00379783
0.0037771
0.00376896
0.00376712
0.00376332
0.00375468
0.00374188
0.00373786
0.00373867
0.0037475
0.0037664
0.00383343
0.00401593
0.00423032
0.00433974
0.0043551
0.00431432
0.00409365
0.00348957
0.00359151
0.00369854
0.00379256
0.00390489
0.00402362
0.00412222
0.00415537
0.0041407
0.00406974
0.00400893
0.00399332
0.00398109
0.00392879
0.00380438
0.00373997
0.00372804
0.00373141
0.00373867
0.0037441
0.00374462
0.00374024
0.00374047
0.0037446
0.0037607
0.00378707
0.00388072
0.00409249
0.00427533
0.00435013
0.00435151
0.00428493
0.00400711
0.00355355
0.00362181
0.00369666
0.00375784
0.00383427
0.00391569
0.00401015
0.00409316
0.00411496
0.00409127
0.00402446
0.00399565
0.0039777
0.003919
0.0037353
0.00363812
0.00363071
0.00364621
0.00368003
0.00370392
0.00371696
0.00372375
0.00373092
0.00374196
0.00376005
0.00381131
0.00396013
0.00417851
0.00430851
0.0043545
0.00433598
0.00423276
0.00389104
0.00360114
0.00363708
0.00368829
0.0037247
0.00376551
0.00380799
0.00386686
0.00396116
0.00404368
0.00405851
0.00402836
0.00398861
0.00396701
0.00390835
0.00371119
0.00353401
0.00350942
0.00353203
0.00358028
0.00361755
0.00365203
0.003679
0.00370016
0.00372131
0.00376131
0.00386399
0.00407204
0.00423919
0.00432873
0.00433714
0.00432321
0.00411858
0.00374791
0.00360247
0.00362142
0.00363426
0.00364872
0.0036669
0.00368114
0.00371013
0.00377487
0.00389951
0.00398919
0.00399868
0.0039792
0.00395481
0.00390052
0.00371035
0.00348567
0.00342688
0.00344172
0.00349631
0.00354125
0.00357775
0.00361213
0.00364666
0.00369021
0.00378003
0.0039587
0.00414276
0.00426642
0.00431377
0.00432151
0.0042113
0.00393906
0.00359488
0.00359721
0.00360538
0.00360378
0.00359423
0.003585
0.00357826
0.00357952
0.00359856
0.00368146
0.00384976
0.00394052
0.00395125
0.00393951
0.00389848
0.00373333
0.00347152
0.00337157
0.00337195
0.00341924
0.00348118
0.00351946
0.00355782
0.00360097
0.00367926
0.00382704
0.00401053
0.00416189
0.00425109
0.00427751
0.00421748
0.00404309
0.00370163
0.00344841
0.00362119
0.0036177
0.0036026
0.00358293
0.00356022
0.00353903
0.00350939
0.00350018
0.00351513
0.00362173
0.0038289
0.00390993
0.00391724
0.00389637
0.00377741
0.00348542
0.00334162
0.00332408
0.00335103
0.00342868
0.003478
0.00351714
0.0035708
0.00368232
0.0038496
0.00401712
0.00413918
0.00418186
0.00415523
0.00402912
0.00374456
0.00349417
0.00334281
0.00370892
0.00366562
0.00362737
0.00358529
0.00355429
0.00352871
0.00348504
0.00344171
0.00343448
0.00346145
0.00362624
0.00383012
0.00388758
0.00388311
0.00381281
0.00353928
0.00333163
0.00328821
0.00330079
0.00336315
0.00343685
0.0034857
0.00355486
0.00368357
0.0038465
0.00398052
0.00403497
0.00401674
0.00391752
0.0037095
0.00350048
0.0033605
0.00330332
0.00373547
0.003674
0.00363508
0.00360048
0.00356073
0.00352665
0.00347981
0.00341128
0.00337441
0.00337815
0.0034446
0.00368114
0.00383594
0.00386079
0.00383045
0.003623
0.00335547
0.00326366
0.00326375
0.00330015
0.00337171
0.00344707
0.00353521
0.0036677
0.00378924
0.0038375
0.00382271
0.00375653
0.00361677
0.00346841
0.00336316
0.00331859
0.00331547
0.00370964
0.00366738
0.00364195
0.00362062
0.0035884
0.00354484
0.00348387
0.00340127
0.00333252
0.00331982
0.00334683
0.00351944
0.00375836
0.00383069
0.00382221
0.0037095
0.00340519
0.00327109
0.00324122
0.00325416
0.00329815
0.00337277
0.00348032
0.00357551
0.0036131
0.00360914
0.00358083
0.003505
0.0034178
0.003357
0.00333274
0.00333396
0.00336364
0.00369273
0.00368172
0.00370593
0.00371199
0.00368934
0.003622
0.00351549
0.00340346
0.00330814
0.003272
0.00328265
0.0033912
0.00366886
0.00379489
0.00380573
0.00374993
0.00349398
0.00329475
0.00324229
0.00324021
0.00325444
0.00329853
0.00336689
0.00341463
0.0034306
0.00342784
0.00341027
0.00337492
0.00335278
0.00334683
0.0033547
0.00339022
0.00342673
0.00373682
0.00379886
0.00393414
0.0039868
0.00393621
0.00380389
0.00360619
0.00342754
0.00329538
0.00323491
0.00323576
0.00330538
0.00356818
0.00375396
0.00378763
0.0037612
0.0036095
0.00334686
0.00325684
0.00324267
0.00325033
0.00327379
0.00330824
0.00333423
0.00334792
0.00335375
0.00335457
0.00335471
0.00335897
0.00337462
0.00341144
0.00347466
0.00353636
0.00389034
0.00410467
0.00430487
0.00433734
0.00427744
0.00410288
0.00376448
0.00347636
0.00329165
0.0032063
0.00319814
0.00324838
0.00349465
0.00371866
0.0037763
0.0037646
0.00367507
0.00346418
0.00330682
0.00326264
0.00326227
0.00327664
0.00330479
0.00332475
0.0033395
0.00335182
0.00336303
0.00337747
0.003399
0.00345157
0.00355551
0.00364805
0.00366388
0.00417104
0.00438339
0.00445227
0.00444885
0.00439683
0.00426242
0.00393584
0.00353268
0.00328851
0.00318158
0.00316554
0.00320472
0.0034299
0.00369242
0.00376631
0.00376437
0.00371
0.00356645
0.00342778
0.0033412
0.00331237
0.00331151
0.00332452
0.00334477
0.00336515
0.00338584
0.00340844
0.00344312
0.00352355
0.00366121
0.00374733
0.0037447
0.00365204
0.00435538
0.00444142
0.00447422
0.00445981
0.00440235
0.00427553
0.00399383
0.00354075
0.00327499
0.00315667
0.00314081
0.00317975
0.00340211
0.00368004
0.00376762
0.00376629
0.00372584
0.0036268
0.00354667
0.00347195
0.00342149
0.00340437
0.00340851
0.00342627
0.0034443
0.00346536
0.00351892
0.00363725
0.00377804
0.00383403
0.00380982
0.00367858
0.00350376
0.00438031
0.00444899
0.0044337
0.00437574
0.00429538
0.00417499
0.00392924
0.00349418
0.0032425
0.00313245
0.00311603
0.0031557
0.00340489
0.00368698
0.00377331
0.00377457
0.00374054
0.00367267
0.00360786
0.00355091
0.00352284
0.00352193
0.00352546
0.00353282
0.0035591
0.00364347
0.00377971
0.0038858
0.00390798
0.00385788
0.0036995
0.00354971
0.00349574
0.00438172
0.00438919
0.00429822
0.00413693
0.00402763
0.00393557
0.00375309
0.0033984
0.00318731
0.00310607
0.00310027
0.00315832
0.00343057
0.00371248
0.00379
0.00378961
0.00375226
0.0036904
0.00364012
0.00362194
0.0036198
0.0036206
0.00363036
0.00367979
0.00379183
0.00391047
0.00397503
0.00396847
0.00388727
0.00371828
0.00360659
0.00357556
0.00361659
0.00433821
0.00430523
0.00412213
0.00384271
0.00366083
0.00359714
0.00351408
0.003255
0.00313768
0.00310512
0.00310408
0.00318746
0.00349749
0.00376008
0.00381117
0.00380424
0.003765
0.00371868
0.00370594
0.0037034
0.0037034
0.00372692
0.00380576
0.00391899
0.00401075
0.00403771
0.00400956
0.00389725
0.00373698
0.00366004
0.00365213
0.00373379
0.00400618
0.00430035
0.00425283
0.00404758
0.00371271
0.00348198
0.00338371
0.00331046
0.00318339
0.00313164
0.00311506
0.0031288
0.00324233
0.00360045
0.00380429
0.00384481
0.00383784
0.00380648
0.00378418
0.00377322
0.00377649
0.00382207
0.00392489
0.00402447
0.0040781
0.00407618
0.00402781
0.00389241
0.00376059
0.00371676
0.00372984
0.00387746
0.00424053
0.00454184
0.00426927
0.00423932
0.00402761
0.00367703
0.00343961
0.00333731
0.00325963
0.00318602
0.00315361
0.00314942
0.00319374
0.0033924
0.00375558
0.00388811
0.00391465
0.00390453
0.00386184
0.0038403
0.00385726
0.00393105
0.00402732
0.00409487
0.00411266
0.00409455
0.0040251
0.003882
0.00379407
0.00377647
0.00382908
0.00407808
0.00451771
0.00479512
0.00485627
0.00423971
0.00424061
0.00409906
0.00375828
0.00349684
0.00339534
0.00331795
0.00327177
0.00325581
0.00326268
0.00338405
0.00367968
0.00389355
0.00395302
0.0039599
0.00394604
0.00392425
0.00396038
0.00403823
0.00410686
0.00413556
0.00412947
0.00409396
0.00399402
0.00387919
0.00383378
0.00383854
0.00396278
0.00434083
0.00478455
0.00500514
0.00503232
0.00494745
0.00419675
0.00424416
0.00420824
0.00405711
0.003722
0.00354106
0.00343927
0.00341753
0.00339941
0.00343638
0.00361966
0.00386409
0.00396714
0.00400436
0.00401944
0.0040356
0.00407286
0.00412889
0.00416321
0.00416003
0.0041328
0.00406614
0.00395451
0.00389069
0.00387827
0.00391876
0.00413793
0.0045949
0.00496486
0.00512059
0.0051212
0.00503448
0.00484869
0.00402606
0.00419759
0.00422143
0.00420117
0.00408771
0.00386554
0.0037419
0.00368008
0.00367576
0.00376608
0.00394604
0.00404762
0.0040973
0.00412229
0.00415116
0.00417337
0.00418948
0.00419049
0.00417087
0.00411965
0.00401708
0.00392943
0.00391069
0.00392355
0.00403649
0.00436269
0.00476724
0.00502198
0.00511901
0.00510986
0.00499942
0.00473515
0.00444756
0.00391515
0.00402683
0.0041671
0.00421761
0.00421907
0.0042001
0.00412731
0.00409442
0.0040791
0.00411202
0.00417741
0.00420745
0.00421981
0.0042251
0.00422183
0.00421129
0.0041935
0.00415667
0.00407107
0.00397805
0.00393653
0.00393511
0.00399431
0.00419766
0.00452972
0.00480442
0.00496168
0.00502789
0.00499493
0.00478501
0.00451
0.00430589
0.00414129
0.00387692
0.00389243
0.0039692
0.00411947
0.00419441
0.00423697
0.00424052
0.00424343
0.0042388
0.00424171
0.00424779
0.00424492
0.00423832
0.00422532
0.00420078
0.00415914
0.00409075
0.00401899
0.00397942
0.0039642
0.00398136
0.00410194
0.00434179
0.00456839
0.00472717
0.00483602
0.0048624
0.00475443
0.00453958
0.00435939
0.00420381
0.00407036
0.00394939
0.00387814
0.00386987
0.00388052
0.00391793
0.00398231
0.00405923
0.00414758
0.00416412
0.00419485
0.00419817
0.00419853
0.00418585
0.00415149
0.00411346
0.00406327
0.00402549
0.00400803
0.0040021
0.00401211
0.00407044
0.00422525
0.00439964
0.00451771
0.00460631
0.0046573
0.00462104
0.0044798
0.00435531
0.00424709
0.00415062
0.00405984
0.00397468
0.00389222
0.0039139
0.00390816
0.00388337
0.00388387
0.00390742
0.00392527
0.0039323
0.00397949
0.00399666
0.00402025
0.00402486
0.00402613
0.00402087
0.00401978
0.0040193
0.00402594
0.00404153
0.00409469
0.0042028
0.00429898
0.00437569
0.00443551
0.00447204
0.0044427
0.00435789
0.00429072
0.00423326
0.00418913
0.00414224
0.00409263
0.0040326
0.0039597
0.00384297
0.00393308
0.00394314
0.003954
0.003933
0.00392258
0.00392081
0.00393701
0.00394356
0.00396538
0.00399016
0.0040022
0.004017
0.00403137
0.00405061
0.00408486
0.00414174
0.00419975
0.00426959
0.00431001
0.00433274
0.00434861
0.00432108
0.00426019
0.00421761
0.00420175
0.00419644
0.00418707
0.00417151
0.00414299
0.00410159
0.00404566
0.00391553
0.00367222
0.00378044
0.00395933
0.00397564
0.00400099
0.00400602
0.00401409
0.00402336
0.00403799
0.00404678
0.00405588
0.00408354
0.00411329
0.00414601
0.00419039
0.0042292
0.00425449
0.00427313
0.00428812
0.00429464
0.00425791
0.00419908
0.0041657
0.00415855
0.00417032
0.00418421
0.00419498
0.00419493
0.00418954
0.00417599
0.00415918
0.00401181
0.00372074
0.00324876
0.00363382
0.00374552
0.00395823
0.00399333
0.00402781
0.0040352
0.00405972
0.00408346
0.00410853
0.00413134
0.00416025
0.0041934
0.00421842
0.00423928
0.00425094
0.00425837
0.00426163
0.00424549
0.00417957
0.00413468
0.00412035
0.00413387
0.00415017
0.004174
0.00419938
0.00422442
0.00424947
0.00427464
0.00428567
0.00415002
0.00386655
0.00347081
0.00313146
0.00360395
0.00362914
0.00372063
0.00392037
0.00399863
0.00402561
0.00404211
0.0040621
0.00409362
0.00412564
0.0041609
0.00419687
0.00421824
0.00422918
0.00423298
0.00422758
0.00419592
0.00412601
0.00409596
0.0040859
0.00411346
0.00413725
0.00416598
0.00420817
0.00425851
0.00432612
0.00439771
0.00443367
0.00434973
0.00412928
0.00381095
0.00347528
0.0031791
0.00364484
0.00361859
0.00361798
0.00369166
0.00387246
0.00397988
0.00401174
0.0040259
0.0040496
0.00408907
0.00413992
0.00418273
0.00419746
0.00419976
0.00419056
0.00413938
0.00407252
0.00405122
0.00404746
0.00408674
0.00412328
0.0041635
0.00422369
0.00430706
0.00442243
0.00453458
0.00457984
0.00455124
0.00440296
0.00415594
0.00387469
0.00362394
0.00340307
0.003849
0.00372392
0.00363882
0.00361145
0.00363593
0.00380246
0.00394903
0.00399337
0.00401223
0.00404478
0.00411321
0.00416443
0.00417548
0.00417175
0.00412352
0.00403984
0.00401236
0.00401108
0.00404636
0.00410028
0.0041619
0.0042431
0.00437083
0.00452162
0.00464806
0.00469853
0.00469014
0.00460445
0.00443601
0.0041943
0.00394594
0.00372728
0.00353411
0.00397596
0.0039748
0.00387812
0.00366198
0.00358174
0.00358716
0.00371059
0.00390027
0.0039818
0.00401973
0.00408203
0.00414477
0.0041555
0.00413403
0.00404806
0.00398311
0.00397299
0.00399154
0.00406152
0.00414804
0.00426349
0.00442841
0.00458395
0.00466594
0.0046993
0.00470219
0.00465736
0.00453075
0.00432254
0.00407241
0.0038191
0.00361511
0.00343321
0.00405439
0.00408652
0.00408185
0.00396639
0.00367695
0.00356015
0.00355991
0.00367076
0.00386752
0.00399677
0.00407207
0.00412295
0.00412894
0.00408535
0.00398167
0.00394721
0.00394827
0.00400356
0.00410957
0.00426642
0.00442896
0.00455562
0.00461728
0.00464319
0.00463628
0.00452657
0.00427429
0.00390458
0.00365119
0.00341338
0.00321929
0.00303986
0.00297031
0.00411347
0.00415662
0.00416836
0.00411333
0.00388914
0.00359823
0.00352235
0.00353488
0.00365872
0.00388819
0.0040493
0.00409869
0.00410116
0.00403332
0.00393753
0.00391927
0.00394316
0.00404176
0.00421349
0.00437087
0.00449045
0.0045476
0.00456517
0.00448694
0.00423696
0.00370604
0.00336737
0.00321035
0.00311291
0.00302769
0.00288067
0.00271426
0.00259211
0.00417881
0.00420987
0.0042116
0.00416193
0.00398521
0.00366625
0.00352214
0.00350611
0.00357046
0.00377182
0.00399603
0.00405736
0.00405604
0.00397459
0.00390865
0.00390364
0.00395717
0.00411021
0.00428237
0.00440459
0.00446921
0.00447109
0.00435104
0.00393722
0.00340687
0.00314076
0.00304619
0.00302564
0.00302716
0.00301373
0.00294609
0.00280622
0.00261848
0.00419982
0.00423509
0.00423162
0.00416992
0.00398557
0.00367813
0.00353459
0.00351366
0.00356778
0.00376094
0.00396584
0.00401618
0.00401263
0.003938
0.0038898
0.00389275
0.00397299
0.00414815
0.00430201
0.00437731
0.00437841
0.0042477
0.00385619
0.00339817
0.00312337
0.00304539
0.00303775
0.00311345
0.00327916
0.00342277
0.00342336
0.00327708
0.00302479
0.00420884
0.00424121
0.00423854
0.0041809
0.00401044
0.00372485
0.00358575
0.00356024
0.00359861
0.00377942
0.00395109
0.0039844
0.00397424
0.00389592
0.00386478
0.00388048
0.00398464
0.00417729
0.00427365
0.00428697
0.00420198
0.00394381
0.00357161
0.00328076
0.00313713
0.00309392
0.00321422
0.00350909
0.00372902
0.00376248
0.00366952
0.00349815
0.00329362
0.00420949
0.00424056
0.00424015
0.00419697
0.00407193
0.00386635
0.00374861
0.00371922
0.00372959
0.00385182
0.00394691
0.00396141
0.00393156
0.0038566
0.00384151
0.00386788
0.00400177
0.00415253
0.00418919
0.0041618
0.00403624
0.00379316
0.00354084
0.00331814
0.00323795
0.00335807
0.00363959
0.00382049
0.00386755
0.00381676
0.00367556
0.00350506
0.00331947
0.00419647
0.00422376
0.00422417
0.00419022
0.00409962
0.00397828
0.00390702
0.00388136
0.0038775
0.00390721
0.00393203
0.00392496
0.00384317
0.00380074
0.00379945
0.00385386
0.0039973
0.00408738
0.00409566
0.00406938
0.00396623
0.00377556
0.00357438
0.00347041
0.00352238
0.00370779
0.00385014
0.00389146
0.00385493
0.00371788
0.00349554
0.00334816
0.0032497
0.00416836
0.00419498
0.00419586
0.00416512
0.0040885
0.00400115
0.00395881
0.00393584
0.00390912
0.00390071
0.00389746
0.00385091
0.00378008
0.00376527
0.0037731
0.00383285
0.0039686
0.00402808
0.00403766
0.00401858
0.00394596
0.00378932
0.00370219
0.00369649
0.00377051
0.00386348
0.0038881
0.00385124
0.00367109
0.00342886
0.00333929
0.00329116
0.00326481
0.00413835
0.00416064
0.00415474
0.00410901
0.00404002
0.00398242
0.00395357
0.00393012
0.00389254
0.00385289
0.00379681
0.00372718
0.00370391
0.00370022
0.00371728
0.0037966
0.00391667
0.00396448
0.00397353
0.00396812
0.00392971
0.00384397
0.00382214
0.00383997
0.00387295
0.00387814
0.00382244
0.00357518
0.00335358
0.00330834
0.00334051
0.00340475
0.00343849
0.00412052
0.00414436
0.00412468
0.00403902
0.00394459
0.00390616
0.00389114
0.00386835
0.00380711
0.00369854
0.00364071
0.00361841
0.00361317
0.00362341
0.00366391
0.00375279
0.00386154
0.00391604
0.00393509
0.00394118
0.00392318
0.00387866
0.00386719
0.00387371
0.0038554
0.00374474
0.00342795
0.00328161
0.00331174
0.00341629
0.00348218
0.00350568
0.00351919
0.0040963
0.00412854
0.00410141
0.00398036
0.00381482
0.00371571
0.00367812
0.00365387
0.00360213
0.00357638
0.00356184
0.00355711
0.00355774
0.0035772
0.00363155
0.00372324
0.00382671
0.00388201
0.00391393
0.00391484
0.00390846
0.00387217
0.00384426
0.00377574
0.00352604
0.00330421
0.00326363
0.00335676
0.00345268
0.00349206
0.00350048
0.00349997
0.00350442
0.00407445
0.00412718
0.00410612
0.00398043
0.00377898
0.00358799
0.0034561
0.0033915
0.00337679
0.00338378
0.00340958
0.00344853
0.00348834
0.00353173
0.003599
0.00369205
0.00377983
0.00384404
0.00385612
0.0038617
0.003834
0.00375192
0.00356895
0.00336221
0.00327365
0.00330258
0.00338221
0.00346113
0.0034724
0.00345353
0.00344131
0.00343739
0.00344656
0.0040313
0.00412966
0.00412317
0.00400468
0.0037927
0.00357958
0.00340988
0.00328319
0.00322292
0.00320969
0.00321952
0.00325394
0.00331365
0.00340018
0.00349983
0.00359068
0.0036666
0.00368483
0.0036704
0.00359605
0.00349009
0.00336358
0.00328539
0.00327756
0.00331855
0.00340891
0.00344526
0.00343999
0.00340143
0.00337398
0.00336071
0.0033564
0.0033668
0.00393125
0.00413279
0.00415368
0.00407111
0.00385847
0.00361602
0.00342664
0.00328839
0.00319629
0.00314917
0.00313291
0.00313319
0.00315498
0.00319858
0.00326892
0.00332337
0.00333804
0.00333934
0.00332127
0.00329369
0.00327759
0.00327459
0.00328951
0.00334831
0.00342497
0.00345118
0.00343057
0.0034087
0.00336573
0.00333746
0.00331923
0.00331311
0.00331514
0.00375905
0.00410257
0.00417896
0.00415289
0.00399565
0.00374017
0.00350948
0.00334395
0.00323019
0.0031648
0.00313017
0.00311982
0.00311642
0.00313556
0.00315987
0.00318424
0.00319756
0.00321399
0.0032326
0.00325161
0.00328041
0.00331499
0.00338354
0.00345833
0.00349459
0.0035005
0.00347633
0.00342897
0.00338502
0.00333435
0.00331176
0.00330351
0.00330237
0.00357327
0.00396764
0.00418359
0.00421122
0.00414387
0.00396122
0.00371804
0.00350615
0.00335918
0.00325527
0.00319226
0.00314548
0.00315045
0.00314852
0.00316832
0.00318789
0.00320337
0.00322744
0.0032613
0.00330634
0.00337472
0.00345954
0.00353941
0.00360964
0.00364965
0.00366489
0.00366074
0.00363063
0.00355726
0.00348418
0.00339053
0.00333491
0.00331577
0.00344836
0.00371061
0.00411408
0.00423247
0.00424132
0.00416959
0.00401929
0.00383746
0.00366825
0.00352241
0.00339383
0.00333973
0.00327072
0.00328124
0.0032795
0.00329217
0.00331864
0.00336934
0.00344073
0.00352849
0.00363939
0.00376171
0.00386251
0.00395309
0.00403409
0.00409308
0.00411604
0.00407897
0.00400106
0.00385176
0.00370214
0.00353223
0.00341299
0.00338911
0.00350456
0.00386895
0.00419692
0.00427073
0.00428073
0.0042427
0.00415635
0.00406098
0.00397925
0.00387843
0.00376428
0.00370391
0.00365484
0.00364723
0.00365752
0.00370219
0.00378477
0.00389574
0.00402029
0.00415197
0.00428056
0.00440117
0.00451928
0.0046175
0.00468098
0.00470761
0.00468702
0.00462068
0.0045011
0.004299
0.00402911
0.00373423
0.00337735
0.00338832
0.00357481
0.00401103
0.0042395
0.00429727
0.00432709
0.00433966
0.00431908
0.00431074
0.00431002
0.00428807
0.00426545
0.00425154
0.0042481
0.00425953
0.00430042
0.00436726
0.00445166
0.00454587
0.00464363
0.00473866
0.00482343
0.00489697
0.00494144
0.00496042
0.00495312
0.00491997
0.00486824
0.0048001
0.00470848
0.00457483
0.00435387
0.0034041
0.003356
0.0033924
0.00365488
0.00408459
0.00424684
0.00431114
0.00438726
0.00442627
0.00445447
0.0045131
0.00457323
0.00461189
0.00465232
0.00468515
0.004707
0.0047373
0.00478424
0.00483542
0.00489178
0.00494625
0.00499357
0.00503257
0.00505566
0.00506164
0.00504694
0.00501614
0.00497055
0.00491716
0.00485883
0.00479226
0.00471977
0.00463112
0.00346569
0.00337715
0.00333189
0.00340498
0.00373635
0.00407993
0.00419863
0.00435027
0.00443361
0.00448572
0.0045554
0.00464716
0.00472926
0.00480217
0.00486492
0.00490921
0.00493691
0.00497124
0.00499953
0.00502685
0.00504752
0.00506097
0.00506934
0.005069
0.00505866
0.00503507
0.00500195
0.00496286
0.00490255
0.00484485
0.00478712
0.00472931
0.00467159
0.00348906
0.00346388
0.00334349
0.00330326
0.00342135
0.00379431
0.00398524
0.00415476
0.00436848
0.00446679
0.00453893
0.00462173
0.00472211
0.00480887
0.00488333
0.00494195
0.00497723
0.00500877
0.00502948
0.00504458
0.0050493
0.00504877
0.00504043
0.00501521
0.00498071
0.00492991
0.00486232
0.00478536
0.00471271
0.00466057
0.00462653
0.0046113
0.00460514
0.00347823
0.00351137
0.00344853
0.00330774
0.00327511
0.00345189
0.003808
0.00386606
0.00409248
0.00434909
0.0044743
0.00452091
0.00461833
0.00472993
0.00482094
0.00489582
0.00494528
0.00498317
0.00500583
0.00501824
0.00501134
0.00498328
0.00493564
0.00487206
0.00479536
0.00471578
0.00462598
0.00452935
0.00442374
0.00432527
0.00425745
0.00424169
0.00427826
0.00339547
0.00350509
0.00352926
0.00342268
0.00326988
0.00325499
0.0034694
0.00373633
0.00378074
0.00399018
0.00428332
0.00441618
0.00445869
0.0045104
0.00459996
0.00469662
0.00478649
0.004847
0.00489232
0.00491451
0.00490481
0.00487302
0.0048246
0.00476352
0.00468846
0.00461149
0.00451903
0.00436781
0.0041502
0.00395106
0.0038257
0.00377957
0.00378869
0.00336291
0.00341563
0.00353047
0.00354324
0.00338778
0.00323257
0.00324264
0.00348286
0.00364187
0.00369307
0.00386721
0.00418928
0.00433813
0.00436818
0.00439014
0.00442522
0.00446664
0.00451465
0.00458087
0.00461487
0.00462055
0.00461077
0.00458066
0.00453374
0.00448999
0.00440771
0.00423148
0.00387259
0.00355934
0.0033819
0.00331563
0.00330256
0.00331658
0.00338254
0.00338032
0.00344235
0.00354965
0.00353892
0.00334784
0.00320049
0.00324192
0.00345827
0.00354332
0.00359619
0.00376033
0.00407025
0.00422976
0.00427291
0.00427751
0.00427456
0.00427838
0.00429078
0.00431762
0.00433851
0.0043398
0.0043286
0.00429823
0.00417437
0.00384429
0.00346069
0.00323136
0.00314351
0.00310201
0.00308408
0.00308442
0.00310029
0.00343118
0.00340594
0.00340618
0.0034732
0.0035548
0.00352291
0.00330212
0.00317356
0.00323381
0.00343909
0.00345494
0.00350065
0.00364952
0.00392706
0.0040894
0.00413737
0.00414801
0.00413793
0.00413841
0.00414282
0.00414058
0.00412886
0.00407487
0.00387709
0.00351892
0.00323447
0.00310055
0.00306937
0.00305053
0.00300959
0.00297966
0.00298005
0.00300334
0.00352629
0.00347257
0.00343563
0.00345304
0.00350902
0.00355635
0.003506
0.0032379
0.00316273
0.00323032
0.00337753
0.00338087
0.00341305
0.00353528
0.00375916
0.00390028
0.00396039
0.00397433
0.0039702
0.00395609
0.00392289
0.0038381
0.00363043
0.00336098
0.00317546
0.00310889
0.00309739
0.00307826
0.00297309
0.00277871
0.002703
0.00272769
0.00284571
0.00362711
0.00357753
0.00351659
0.0034866
0.00349643
0.00353479
0.00354857
0.00344647
0.00319695
0.00317189
0.00323642
0.00331145
0.00331099
0.00333413
0.00342329
0.00357782
0.00368262
0.00373342
0.00372828
0.00369851
0.00362467
0.00346547
0.00328054
0.00316481
0.0031276
0.00310863
0.00304399
0.0027537
0.00237817
0.00221471
0.00219151
0.00225167
0.00247972
0.00371904
0.00368026
0.0036351
0.00356806
0.00354248
0.00352838
0.00353822
0.00352671
0.00338348
0.00319138
0.00318518
0.0032237
0.00324914
0.00324719
0.00325951
0.00331338
0.00340083
0.00345624
0.00345216
0.00342127
0.00333686
0.00321616
0.00314254
0.00312094
0.00309904
0.00296704
0.00248912
0.00213706
0.00202995
0.00201285
0.00202111
0.00205679
0.00215533
0.00378782
0.00378221
0.00374256
0.00368653
0.00364273
0.00357773
0.0035462
0.00354262
0.00350643
0.00332335
0.00319753
0.00318458
0.00320113
0.00320193
0.00318743
0.00318103
0.00320445
0.00323751
0.00323482
0.00321263
0.00315665
0.00310988
0.0031025
0.00309284
0.00297281
0.00245581
0.00209666
0.00199642
0.00198739
0.0019943
0.00200637
0.0020285
0.00207382
0.00381762
0.0038467
0.00382761
0.00377851
0.00373123
0.00368492
0.00359845
0.00355599
0.00353421
0.00347068
0.00327552
0.00319201
0.00317268
0.00317167
0.00316156
0.0031314
0.00311173
0.00311315
0.00310982
0.00309459
0.00307459
0.0030752
0.00308092
0.00301988
0.00259825
0.00217758
0.00205088
0.00204094
0.00206652
0.00207869
0.00206681
0.00205947
0.00207328
0.00382418
0.00387341
0.00386169
0.00382052
0.0037702
0.00372832
0.00368663
0.00359602
0.00355202
0.00351955
0.00343685
0.0032426
0.00317855
0.00315521
0.00314465
0.00312064
0.00308347
0.00306009
0.00304572
0.00304218
0.00304687
0.0030628
0.00304509
0.00280374
0.00233199
0.00214355
0.00213338
0.0022552
0.00237211
0.00236622
0.00227342
0.00218158
0.00214983
0.00382175
0.0038805
0.00387124
0.00383377
0.00378385
0.00374354
0.00371372
0.00365973
0.00358831
0.00354662
0.00350188
0.00338801
0.003215
0.00316104
0.00313863
0.00311914
0.00308516
0.00305612
0.00303522
0.00302758
0.0030302
0.0030311
0.00294238
0.0025777
0.00227539
0.00221687
0.00236047
0.00264991
0.00274733
0.00272423
0.0025544
0.00236129
0.002271
0.00381329
0.00386655
0.00385956
0.0038242
0.00377412
0.00373721
0.00371036
0.0036803
0.00362695
0.00357107
0.00353461
0.0034761
0.00332472
0.0031918
0.00314504
0.00312297
0.00309907
0.00306564
0.00304176
0.00303281
0.00303183
0.0030073
0.00286744
0.00251162
0.00231107
0.00234356
0.00255898
0.00280794
0.00288844
0.00288488
0.00279068
0.00255015
0.00239205
0.00379571
0.00383397
0.00382356
0.00378231
0.0037399
0.00370473
0.00368526
0.00367088
0.00364016
0.00359203
0.0035502
0.00351639
0.00344224
0.00326628
0.00317601
0.00313571
0.00311556
0.00309581
0.00306719
0.00305438
0.00304278
0.00301454
0.00287041
0.00252716
0.00241061
0.00244015
0.00260151
0.00284448
0.00294437
0.00295482
0.00291314
0.00272144
0.00250704
0.00378003
0.00379699
0.00377862
0.00374543
0.00371602
0.00368035
0.00364677
0.00363868
0.00362807
0.0036028
0.00356512
0.0035348
0.00349636
0.00341067
0.00322973
0.00316526
0.00313558
0.00312286
0.0031078
0.00309687
0.0030821
0.00303884
0.00289994
0.00260625
0.0025477
0.00256903
0.00267024
0.00288002
0.00299136
0.00301078
0.00297965
0.00280104
0.00258625
0.00375867
0.00375779
0.00374671
0.00373543
0.00371261
0.00367795
0.00363189
0.0036041
0.00359799
0.00359312
0.0035756
0.00354877
0.00352418
0.00347885
0.00337002
0.00322165
0.00316641
0.0031465
0.00313682
0.00313305
0.00312472
0.00310024
0.00298455
0.00278643
0.00274594
0.00276082
0.00282123
0.00296553
0.00304926
0.0030557
0.00300846
0.00281344
0.00261257
0.00374493
0.00374162
0.00374013
0.00373954
0.00372548
0.00368787
0.00363491
0.00358718
0.00356805
0.00356704
0.00356757
0.00355764
0.00354152
0.00351745
0.00346402
0.00333799
0.00322453
0.00318102
0.00317086
0.00316589
0.00316023
0.00314648
0.00309456
0.00298032
0.00294897
0.00295624
0.00298779
0.00306804
0.00309209
0.00307982
0.00300374
0.00278207
0.00261432
0.00374049
0.00373941
0.00377048
0.00381253
0.00380031
0.00374849
0.00365163
0.00358729
0.00355255
0.00354214
0.00354611
0.00355326
0.0035497
0.00353928
0.00351446
0.00345366
0.00332217
0.00323158
0.00319548
0.00318842
0.00318362
0.00317546
0.00315282
0.00310072
0.0030799
0.00308191
0.00309807
0.00311708
0.00311299
0.00307215
0.00291858
0.00268223
0.00260225
0.00375232
0.00379132
0.0039093
0.00397342
0.00394709
0.00385095
0.00370432
0.00360155
0.0035494
0.00352629
0.00352601
0.00353899
0.00354976
0.00354849
0.00354004
0.0035127
0.00344607
0.00331536
0.00324546
0.00321129
0.00320144
0.00319624
0.0031812
0.0031568
0.00314502
0.00314151
0.00313852
0.00313234
0.00310168
0.00299691
0.00274337
0.00262451
0.00261252
0.00381201
0.00393036
0.00415038
0.00418686
0.00412438
0.00395129
0.0037568
0.00362396
0.00355642
0.0035235
0.00351974
0.00352914
0.00354787
0.00355672
0.00355318
0.00354157
0.00351009
0.00343749
0.00331537
0.00325193
0.00322288
0.00320474
0.0031935
0.00318002
0.00316379
0.00315291
0.00314114
0.00311277
0.0030163
0.00277157
0.00263654
0.0026136
0.00264332
0.00393258
0.00421037
0.00435213
0.00435244
0.00428371
0.0040677
0.00382474
0.00364579
0.00356326
0.00352461
0.0035177
0.00352782
0.00354381
0.00355578
0.00356178
0.00355442
0.00353728
0.0035022
0.00342331
0.00331412
0.00325465
0.00323074
0.00320541
0.0031781
0.00315873
0.00314228
0.00310601
0.00299455
0.00274836
0.00262883
0.00261039
0.00263982
0.00278886
0.00418364
0.00438426
0.00441494
0.00439893
0.00435496
0.00422982
0.00395375
0.00368424
0.00356868
0.00353167
0.00352092
0.00352895
0.00353862
0.00354988
0.00356137
0.0035635
0.00355461
0.0035301
0.0034809
0.00340174
0.00332822
0.00325805
0.00320231
0.00316352
0.00313696
0.00307806
0.00290645
0.00268107
0.00260165
0.00259887
0.00264416
0.00282633
0.00305018
0.00437911
0.0044261
0.00442078
0.00439923
0.00437001
0.00430614
0.0041347
0.00378933
0.00360398
0.00355068
0.00353398
0.00353288
0.00353816
0.00354823
0.00356219
0.00356563
0.00355626
0.00354682
0.00351513
0.00342857
0.00332677
0.00323714
0.00317623
0.00312204
0.0029939
0.00273762
0.00259212
0.00257009
0.00259116
0.00268583
0.00293726
0.00313618
0.00324005
0.00442356
0.00441748
0.00437648
0.00436342
0.00435651
0.00431216
0.00419256
0.00398634
0.0037167
0.00360536
0.00356752
0.00355311
0.00355129
0.0035688
0.00359022
0.00359217
0.00357249
0.00354196
0.00349755
0.00338628
0.00325715
0.00316147
0.00299974
0.00274001
0.00257222
0.00254596
0.00256954
0.00265551
0.00287583
0.00315552
0.00331986
0.00339657
0.00342049
0.0044206
0.00431203
0.00423547
0.00424953
0.00428288
0.00427287
0.00418636
0.00405847
0.0039202
0.00379418
0.00372167
0.00368395
0.0036521
0.0036394
0.0036067
0.00357912
0.00353968
0.00346888
0.00335754
0.00317657
0.00291199
0.00266092
0.0025445
0.00254912
0.00260586
0.00273902
0.00301023
0.00332887
0.00355018
0.00365963
0.00372784
0.00375366
0.00377578
0.00432277
0.00405207
0.00394364
0.00398396
0.00407362
0.00410318
0.00407174
0.00399434
0.00390664
0.00381649
0.0037377
0.00367955
0.003619
0.00355764
0.00346735
0.0033503
0.00316951
0.00292158
0.00270847
0.00259758
0.00257332
0.00264347