/*--------------------------------*- C++ -*----------------------------------*\
  =========                 |
  \\      /  F ield         | OpenFOAM: The Open Source CFD Toolbox
   \\    /   O peration     | Website:  https://openfoam.org
    \\  /    A nd           | Version:  10
     \\/     M anipulation  |
\*---------------------------------------------------------------------------*/
FoamFile
{
    format      ascii;
    class       volVectorField;
    location    "0.699746";
    object      U;
}
// * * * * * * * * * * * * * * * * * * * * * * * * * * * * * * * * * * * * * //

dimensions      [0 1 -1 0 0 0 0];

internalField   nonuniform List<vector> 
16320
(
(0.281206 -0.267765 0)
(0.296376 -0.266566 0)
(0.308764 -0.265127 0)
(0.318052 -0.264026 0)
(0.324073 -0.264151 0)
(0.326961 -0.265504 0)
(0.327426 -0.267863 0)
(0.326419 -0.270677 0)
(0.326039 -0.273768 0)
(0.32814 -0.276122 0)
(0.332245 -0.274645 0)
(0.337898 -0.267363 0)
(0.344986 -0.253319 0)
(0.353949 -0.232334 0)
(0.36438 -0.205926 0)
(0.374903 -0.173848 0)
(0.385189 -0.136664 0)
(0.395254 -0.0947719 0)
(0.404707 -0.0491762 0)
(0.412373 -0.00110943 0)
(0.419107 0.0469427 0)
(0.424472 0.0927294 0)
(0.42812 0.135037 0)
(0.430111 0.172618 0)
(0.430425 0.204256 0)
(0.429765 0.228776 0)
(0.429683 0.244742 0)
(0.428395 0.250524 0)
(0.42639 0.24739 0)
(0.426331 0.235023 0)
(0.42577 0.213556 0)
(0.422077 0.184126 0)
(0.421044 0.150569 0)
(0.308441 -0.296053 0)
(0.326942 -0.291722 0)
(0.341342 -0.285645 0)
(0.351117 -0.278893 0)
(0.356152 -0.272134 0)
(0.356649 -0.26624 0)
(0.353052 -0.262023 0)
(0.346425 -0.259966 0)
(0.338002 -0.259 0)
(0.330403 -0.258723 0)
(0.325417 -0.256758 0)
(0.32227 -0.25015 0)
(0.320956 -0.236792 0)
(0.32193 -0.215507 0)
(0.325669 -0.189242 0)
(0.331286 -0.156906 0)
(0.337682 -0.119697 0)
(0.345157 -0.0776108 0)
(0.352994 -0.0315645 0)
(0.36032 0.0171051 0)
(0.368005 0.0655543 0)
(0.374942 0.111812 0)
(0.380949 0.154447 0)
(0.385911 0.192008 0)
(0.390134 0.222842 0)
(0.394655 0.245502 0)
(0.399573 0.259151 0)
(0.403531 0.262198 0)
(0.40773 0.257045 0)
(0.413226 0.242717 0)
(0.41745 0.219351 0)
(0.418591 0.189009 0)
(0.422242 0.157092 0)
(0.331519 -0.321466 0)
(0.35305 -0.314346 0)
(0.369495 -0.304011 0)
(0.380464 -0.291402 0)
(0.385727 -0.277415 0)
(0.385311 -0.263722 0)
(0.379577 -0.251598 0)
(0.369332 -0.242413 0)
(0.355636 -0.236482 0)
(0.340451 -0.232438 0)
(0.326509 -0.229406 0)
(0.314931 -0.223402 0)
(0.305524 -0.211349 0)
(0.298033 -0.191074 0)
(0.294755 -0.165451 0)
(0.295785 -0.134229 0)
(0.298206 -0.0982491 0)
(0.302737 -0.0574184 0)
(0.30838 -0.01214 0)
(0.315426 0.0358186 0)
(0.323512 0.083585 0)
(0.3316 0.12945 0)
(0.339442 0.171602 0)
(0.346971 0.208251 0)
(0.354745 0.237422 0)
(0.364074 0.257983 0)
(0.373436 0.268393 0)
(0.38222 0.269413 0)
(0.392076 0.262048 0)
(0.401975 0.245777 0)
(0.409866 0.221034 0)
(0.416096 0.190641 0)
(0.423726 0.160236 0)
(0.346663 -0.344384 0)
(0.370403 -0.333885 0)
(0.389196 -0.318787 0)
(0.40209 -0.300064 0)
(0.408494 -0.278955 0)
(0.408397 -0.25727 0)
(0.402261 -0.236855 0)
(0.390622 -0.219469 0)
(0.374252 -0.206707 0)
(0.35404 -0.198388 0)
(0.333088 -0.192879 0)
(0.314067 -0.187236 0)
(0.296948 -0.177045 0)
(0.281664 -0.159122 0)
(0.271843 -0.134768 0)
(0.268235 -0.105885 0)
(0.266944 -0.0724411 0)
(0.268334 -0.0342985 0)
(0.271564 0.0096463 0)
(0.27814 0.0555115 0)
(0.286205 0.10173 0)
(0.295026 0.146387 0)
(0.304329 0.187206 0)
(0.314171 0.221966 0)
(0.32571 0.248681 0)
(0.338605 0.266059 0)
(0.351561 0.27344 0)
(0.365142 0.272544 0)
(0.379322 0.262876 0)
(0.392669 0.245115 0)
(0.403544 0.220052 0)
(0.413847 0.189879 0)
(0.424606 0.160471 0)
(0.352068 -0.36348 0)
(0.378184 -0.349295 0)
(0.399056 -0.329571 0)
(0.413782 -0.30504 0)
(0.421864 -0.277112 0)
(0.423103 -0.247563 0)
(0.417871 -0.21864 0)
(0.406647 -0.192617 0)
(0.389833 -0.171627 0)
(0.367901 -0.157247 0)
(0.34256 -0.148306 0)
(0.317137 -0.142182 0)
(0.293532 -0.134138 0)
(0.271596 -0.119716 0)
(0.255933 -0.0983971 0)
(0.24809 -0.0732138 0)
(0.243381 -0.0433654 0)
(0.241703 -0.00843265 0)
(0.243631 0.0323423 0)
(0.248856 0.0755751 0)
(0.256509 0.119779 0)
(0.265654 0.16253 0)
(0.276115 0.201093 0)
(0.288208 0.232884 0)
(0.302309 0.256338 0)
(0.317967 0.270165 0)
(0.334539 0.275378 0)
(0.3517 0.272102 0)
(0.369217 0.260514 0)
(0.3852 0.241315 0)
(0.397472 0.214973 0)
(0.41109 0.188086 0)
(0.424735 0.158255 0)
(0.346904 -0.376847 0)
(0.374646 -0.359046 0)
(0.397804 -0.334864 0)
(0.414929 -0.304982 0)
(0.425238 -0.270759 0)
(0.428605 -0.234083 0)
(0.425213 -0.197307 0)
(0.415468 -0.163267 0)
(0.399939 -0.134264 0)
(0.378432 -0.111748 0)
(0.351742 -0.0979067 0)
(0.322483 -0.0901243 0)
(0.293369 -0.0837771 0)
(0.266099 -0.0734433 0)
(0.245287 -0.0565061 0)
(0.233344 -0.0365509 0)
(0.225188 -0.0102735 0)
(0.221073 0.021287 0)
(0.221992 0.0566735 0)
(0.226006 0.0965299 0)
(0.233206 0.137873 0)
(0.242633 0.177787 0)
(0.254076 0.213096 0)
(0.267992 0.241188 0)
(0.284275 0.260792 0)
(0.302329 0.271795 0)
(0.321458 0.274267 0)
(0.341084 0.26846 0)
(0.360295 0.25514 0)
(0.376481 0.233988 0)
(0.392854 0.209796 0)
(0.409449 0.184165 0)
(0.423455 0.153426 0)
(0.332126 -0.385994 0)
(0.36147 -0.363929 0)
(0.386547 -0.33521 0)
(0.40583 -0.300122 0)
(0.418472 -0.259999 0)
(0.424117 -0.21676 0)
(0.422912 -0.173057 0)
(0.415343 -0.131638 0)
(0.402706 -0.0955002 0)
(0.384204 -0.0660653 0)
(0.358388 -0.0446125 0)
(0.327746 -0.0340009 0)
(0.295152 -0.0288618 0)
(0.263474 -0.0223275 0)
(0.237378 -0.00994626 0)
(0.220804 0.00603437 0)
(0.210988 0.0273103 0)
(0.205718 0.0525179 0)
(0.205225 0.0825584 0)
(0.20843 0.118288 0)
(0.215075 0.155998 0)
(0.224845 0.192208 0)
(0.237374 0.223456 0)
(0.252738 0.247481 0)
(0.270653 0.263336 0)
(0.290218 0.270982 0)
(0.310689 0.270446 0)
(0.331649 0.262592 0)
(0.351146 0.247482 0)
(0.370231 0.227288 0)
(0.389127 0.20472 0)
(0.406315 0.177047 0)
(0.422758 0.145865 0)
(0.308826 -0.391794 0)
(0.338918 -0.366672 0)
(0.365346 -0.333607 0)
(0.386794 -0.293226 0)
(0.401788 -0.247235 0)
(0.409902 -0.197665 0)
(0.411294 -0.147272 0)
(0.406469 -0.0989591 0)
(0.396446 -0.0557504 0)
(0.382342 -0.0208526 0)
(0.360968 0.00731524 0)
(0.331434 0.0260709 0)
(0.298579 0.0330132 0)
(0.264666 0.0367841 0)
(0.233116 0.0445569 0)
(0.212165 0.0529555 0)
(0.201466 0.0659171 0)
(0.194708 0.084987 0)
(0.192606 0.10998 0)
(0.194752 0.140783 0)
(0.200892 0.174042 0)
(0.211087 0.205703 0)
(0.22464 0.232325 0)
(0.241105 0.251942 0)
(0.259751 0.263893 0)
(0.279976 0.268167 0)
(0.301498 0.265528 0)
(0.323028 0.255777 0)
(0.344184 0.240185 0)
(0.365079 0.220646 0)
(0.385056 0.196097 0)
(0.404453 0.167456 0)
(0.423587 0.135489 0)
(0.274815 -0.398897 0)
(0.306544 -0.370348 0)
(0.33544 -0.332053 0)
(0.359092 -0.285761 0)
(0.376071 -0.233576 0)
(0.386234 -0.177777 0)
(0.389913 -0.121154 0)
(0.387946 -0.0670388 0)
(0.381216 -0.0178887 0)
(0.369038 0.0251494 0)
(0.352468 0.0581356 0)
(0.328205 0.0841078 0)
(0.297322 0.0963906 0)
(0.265242 0.0986353 0)
(0.233291 0.0987481 0)
(0.209135 0.101094 0)
(0.195626 0.106648 0)
(0.186702 0.119372 0)
(0.182908 0.138649 0)
(0.183996 0.163608 0)
(0.18962 0.191746 0)
(0.200093 0.218206 0)
(0.214361 0.23973 0)
(0.231343 0.254696 0)
(0.250507 0.263113 0)
(0.271802 0.265101 0)
(0.29387 0.260063 0)
(0.316256 0.248634 0)
(0.338937 0.232285 0)
(0.361158 0.210851 0)
(0.383131 0.184858 0)
(0.404957 0.155106 0)
(0.426788 0.122944 0)
(0.235361 -0.409625 0)
(0.268766 -0.375974 0)
(0.299501 -0.33195 0)
(0.324658 -0.279273 0)
(0.343025 -0.220488 0)
(0.354513 -0.158229 0)
(0.359602 -0.0955276 0)
(0.359789 -0.0358392 0)
(0.353899 0.0203694 0)
(0.342621 0.0690133 0)
(0.32885 0.106296 0)
(0.309516 0.134051 0)
(0.283225 0.151079 0)
(0.255917 0.155369 0)
(0.227961 0.153664 0)
(0.204098 0.15136 0)
(0.188905 0.149568 0)
(0.179615 0.15519 0)
(0.174751 0.16797 0)
(0.175326 0.186457 0)
(0.180836 0.208578 0)
(0.191154 0.229693 0)
(0.20562 0.246354 0)
(0.223499 0.257298 0)
(0.244123 0.262367 0)
(0.265829 0.261211 0)
(0.288362 0.253298 0)
(0.31214 0.240166 0)
(0.336189 0.221724 0)
(0.360164 0.198345 0)
(0.384193 0.171203 0)
(0.408062 0.140781 0)
(0.430199 0.108475 0)
(0.192908 -0.421812 0)
(0.226959 -0.384034 0)
(0.258895 -0.33469 0)
(0.2852 -0.275023 0)
(0.304405 -0.208787 0)
(0.316459 -0.139472 0)
(0.322042 -0.0707083 0)
(0.323314 -0.00481305 0)
(0.318072 0.0573564 0)
(0.308234 0.110617 0)
(0.296741 0.15211 0)
(0.282287 0.181894 0)
(0.261475 0.203001 0)
(0.239034 0.20929 0)
(0.216384 0.206313 0)
(0.19491 0.199942 0)
(0.180359 0.19262 0)
(0.172005 0.191199 0)
(0.167323 0.197121 0)
(0.168138 0.208973 0)
(0.174261 0.224421 0)
(0.185059 0.239783 0)
(0.200097 0.251694 0)
(0.218719 0.258672 0)
(0.239876 0.259843 0)
(0.262382 0.25486 0)
(0.286315 0.244528 0)
(0.311459 0.228914 0)
(0.336774 0.208449 0)
(0.362467 0.183706 0)
(0.387627 0.155506 0)
(0.410689 0.125006 0)
(0.430972 0.0939844 0)
(0.145982 -0.436382 0)
(0.179784 -0.395026 0)
(0.213064 -0.338895 0)
(0.241137 -0.271364 0)
(0.261528 -0.197102 0)
(0.273811 -0.121051 0)
(0.279232 -0.0466642 0)
(0.278905 0.0255788 0)
(0.275329 0.091634 0)
(0.267451 0.148592 0)
(0.258522 0.193797 0)
(0.248887 0.226114 0)
(0.233383 0.24933 0)
(0.215375 0.257644 0)
(0.198444 0.253845 0)
(0.181559 0.244512 0)
(0.169784 0.233305 0)
(0.163446 0.225572 0)
(0.160268 0.224962 0)
(0.162179 0.230239 0)
(0.169481 0.238934 0)
(0.181418 0.24798 0)
(0.197454 0.254497 0)
(0.217001 0.256791 0)
(0.239057 0.253951 0)
(0.262833 0.245849 0)
(0.287946 0.233033 0)
(0.314129 0.215279 0)
(0.340461 0.193167 0)
(0.365914 0.167523 0)
(0.389681 0.139363 0)
(0.410578 0.110625 0)
(0.426867 0.0837471 0)
(0.0936959 -0.453686 0)
(0.127397 -0.407146 0)
(0.160552 -0.344747 0)
(0.188342 -0.269972 0)
(0.210106 -0.186363 0)
(0.224546 -0.102011 0)
(0.230916 -0.0227177 0)
(0.230054 0.0531161 0)
(0.22754 0.122637 0)
(0.221474 0.182876 0)
(0.215106 0.231221 0)
(0.209603 0.265638 0)
(0.199045 0.289575 0)
(0.186022 0.299334 0)
(0.17507 0.295281 0)
(0.164021 0.28368 0)
(0.156376 0.269314 0)
(0.15342 0.25642 0)
(0.153249 0.249986 0)
(0.157256 0.24911 0)
(0.166286 0.251383 0)
(0.179834 0.25412 0)
(0.197386 0.255105 0)
(0.21829 0.252658 0)
(0.24161 0.246052 0)
(0.266657 0.234994 0)
(0.29267 0.219529 0)
(0.318831 0.199968 0)
(0.344188 0.177054 0)
(0.368026 0.151821 0)
(0.388811 0.125648 0)
(0.404097 0.101069 0)
(0.410978 0.078884 0)
(0.0360305 -0.472098 0)
(0.0651488 -0.422735 0)
(0.093626 -0.357048 0)
(0.121305 -0.276519 0)
(0.145973 -0.183255 0)
(0.164469 -0.0874171 0)
(0.174141 0.000109691 0)
(0.175187 0.0787425 0)
(0.173976 0.150151 0)
(0.170065 0.212841 0)
(0.166695 0.263471 0)
(0.165018 0.299268 0)
(0.159118 0.323422 0)
(0.151657 0.333994 0)
(0.147028 0.329753 0)
(0.142274 0.316275 0)
(0.139861 0.299052 0)
(0.141505 0.282536 0)
(0.145558 0.270607 0)
(0.152703 0.263787 0)
(0.164132 0.260217 0)
(0.179906 0.257437 0)
(0.199429 0.253424 0)
(0.221955 0.246594 0)
(0.246479 0.236175 0)
(0.271901 0.222046 0)
(0.297488 0.204388 0)
(0.322708 0.184281 0)
(0.346026 0.161843 0)
(0.365299 0.138749 0)
(0.378713 0.116963 0)
(0.382651 0.0979699 0)
(0.37858 0.0840822 0)
(-0.0306592 -0.491108 0)
(-0.00753683 -0.442421 0)
(0.0171831 -0.373111 0)
(0.0428695 -0.287284 0)
(0.0680078 -0.186657 0)
(0.0915128 -0.0807483 0)
(0.107706 0.0165657 0)
(0.112159 0.0988295 0)
(0.113418 0.172486 0)
(0.112768 0.237636 0)
(0.113056 0.289871 0)
(0.115481 0.32623 0)
(0.114395 0.35042 0)
(0.113125 0.36141 0)
(0.115096 0.356743 0)
(0.116824 0.341631 0)
(0.120506 0.322204 0)
(0.127188 0.302747 0)
(0.135732 0.286197 0)
(0.147215 0.273925 0)
(0.162282 0.264857 0)
(0.180842 0.256885 0)
(0.20236 0.248144 0)
(0.225979 0.23732 0)
(0.250876 0.223752 0)
(0.2761 0.207795 0)
(0.300928 0.189651 0)
(0.323224 0.170062 0)
(0.340659 0.150164 0)
(0.351575 0.131847 0)
(0.353175 0.116597 0)
(0.348519 0.105194 0)
(0.342431 0.096369 0)
(-0.103338 -0.507059 0)
(-0.0867527 -0.457658 0)
(-0.0669835 -0.389133 0)
(-0.0455678 -0.301165 0)
(-0.0233619 -0.197827 0)
(0.00120793 -0.0849725 0)
(0.0278203 0.0267263 0)
(0.0397543 0.114164 0)
(0.0449054 0.190415 0)
(0.0492553 0.257197 0)
(0.0543853 0.309954 0)
(0.0618354 0.345933 0)
(0.0660002 0.370272 0)
(0.0714781 0.381366 0)
(0.0801531 0.376178 0)
(0.088629 0.359906 0)
(0.0986739 0.338639 0)
(0.110598 0.316559 0)
(0.124031 0.296702 0)
(0.140014 0.280219 0)
(0.158835 0.266443 0)
(0.180354 0.253814 0)
(0.203887 0.240947 0)
(0.228523 0.227112 0)
(0.253545 0.211761 0)
(0.277417 0.195037 0)
(0.298375 0.177741 0)
(0.314518 0.160926 0)
(0.323014 0.146014 0)
(0.323091 0.134281 0)
(0.318837 0.12516 0)
(0.313566 0.116586 0)
(0.308663 0.105173 0)
(-0.183234 -0.51741 0)
(-0.172092 -0.468112 0)
(-0.156969 -0.398828 0)
(-0.140536 -0.309799 0)
(-0.122221 -0.206139 0)
(-0.0980783 -0.0951588 0)
(-0.0677971 0.0174137 0)
(-0.0460328 0.11755 0)
(-0.0333069 0.199738 0)
(-0.0213424 0.268328 0)
(-0.00915108 0.322174 0)
(0.00525424 0.35924 0)
(0.0154933 0.383794 0)
(0.0283326 0.394523 0)
(0.0438571 0.38841 0)
(0.0585816 0.370986 0)
(0.0746492 0.348143 0)
(0.0921221 0.324191 0)
(0.110658 0.302088 0)
(0.131038 0.282704 0)
(0.153371 0.265679 0)
(0.177331 0.249931 0)
(0.202262 0.234471 0)
(0.226901 0.218624 0)
(0.25004 0.202506 0)
(0.270199 0.186663 0)
(0.285199 0.172521 0)
(0.292241 0.16025 0)
(0.292248 0.151065 0)
(0.289563 0.143683 0)
(0.286073 0.135255 0)
(0.2837 0.123484 0)
(0.284706 0.108009 0)
(-0.26591 -0.517864 0)
(-0.26095 -0.468437 0)
(-0.250588 -0.399832 0)
(-0.238503 -0.312687 0)
(-0.223372 -0.212355 0)
(-0.199353 -0.102329 0)
(-0.167822 0.0126518 0)
(-0.139654 0.11571 0)
(-0.116871 0.201561 0)
(-0.095594 0.271586 0)
(-0.0746337 0.325799 0)
(-0.0536472 0.363942 0)
(-0.0367994 0.38858 0)
(-0.0161683 0.399359 0)
(0.00649717 0.392448 0)
(0.027255 0.374328 0)
(0.0493826 0.351179 0)
(0.0723136 0.326425 0)
(0.0956134 0.302957 0)
(0.119808 0.281886 0)
(0.144814 0.263111 0)
(0.170144 0.24562 0)
(0.194689 0.228907 0)
(0.217405 0.212893 0)
(0.236963 0.198418 0)
(0.251112 0.185804 0)
(0.258024 0.1754 0)
(0.25983 0.167624 0)
(0.259836 0.160973 0)
(0.258946 0.152395 0)
(0.259642 0.140617 0)
(0.262539 0.124292 0)
(0.264124 0.103106 0)
(-0.346341 -0.509713 0)
(-0.347636 -0.461654 0)
(-0.342418 -0.394898 0)
(-0.334104 -0.311324 0)
(-0.321203 -0.215696 0)
(-0.297748 -0.109997 0)
(-0.265329 0.00152373 0)
(-0.230045 0.105172 0)
(-0.199225 0.193027 0)
(-0.169771 0.26433 0)
(-0.140702 0.318848 0)
(-0.113588 0.357387 0)
(-0.0894743 0.382977 0)
(-0.0604578 0.393507 0)
(-0.0316539 0.387623 0)
(-0.00400026 0.370553 0)
(0.0241231 0.347644 0)
(0.0511839 0.323255 0)
(0.0782496 0.299797 0)
(0.105261 0.278653 0)
(0.131351 0.259495 0)
(0.15603 0.242058 0)
(0.178625 0.226314 0)
(0.197734 0.212757 0)
(0.211603 0.200967 0)
(0.219723 0.191531 0)
(0.224792 0.184396 0)
(0.228628 0.177656 0)
(0.232147 0.168801 0)
(0.237518 0.157105 0)
(0.243429 0.139758 0)
(0.246137 0.118248 0)
(0.244865 0.0973534 0)
(-0.420849 -0.496028 0)
(-0.427869 -0.450287 0)
(-0.426252 -0.387278 0)
(-0.420168 -0.308914 0)
(-0.408203 -0.218637 0)
(-0.384784 -0.118861 0)
(-0.352297 -0.0137126 0)
(-0.313877 0.087177 0)
(-0.276827 0.174768 0)
(-0.240492 0.246959 0)
(-0.205436 0.302341 0)
(-0.17108 0.341684 0)
(-0.138274 0.367836 0)
(-0.102687 0.37856 0)
(-0.0681647 0.374316 0)
(-0.0350628 0.359601 0)
(-0.0021153 0.338149 0)
(0.0289264 0.315069 0)
(0.0581325 0.293546 0)
(0.0857211 0.273862 0)
(0.110965 0.256329 0)
(0.133583 0.241316 0)
(0.152536 0.22846 0)
(0.166689 0.21728 0)
(0.177132 0.208645 0)
(0.186444 0.201297 0)
(0.195192 0.193957 0)
(0.204731 0.184734 0)
(0.216378 0.172146 0)
(0.225742 0.153712 0)
(0.229869 0.132275 0)
(0.229595 0.113589 0)
(0.22247 0.0996535 0)
(-0.484258 -0.477301 0)
(-0.496005 -0.43328 0)
(-0.498135 -0.374777 0)
(-0.493129 -0.303231 0)
(-0.481438 -0.219447 0)
(-0.458934 -0.127311 0)
(-0.427179 -0.0310343 0)
(-0.387854 0.0644839 0)
(-0.346346 0.150274 0)
(-0.30483 0.222215 0)
(-0.264459 0.27816 0)
(-0.223944 0.319171 0)
(-0.183501 0.34513 0)
(-0.142112 0.356447 0)
(-0.102566 0.354228 0)
(-0.0650964 0.342202 0)
(-0.0295643 0.324155 0)
(0.00402561 0.303758 0)
(0.0336657 0.285328 0)
(0.0599127 0.269079 0)
(0.0828642 0.255348 0)
(0.102062 0.243202 0)
(0.117379 0.23307 0)
(0.131315 0.224742 0)
(0.145083 0.217334 0)
(0.159047 0.2093 0)
(0.175296 0.199686 0)
(0.192514 0.185353 0)
(0.20546 0.166207 0)
(0.212597 0.145335 0)
(0.213907 0.129909 0)
(0.206201 0.118753 0)
(0.191246 0.10946 0)
(-0.53393 -0.453343 0)
(-0.548066 -0.413061 0)
(-0.555821 -0.359647 0)
(-0.552376 -0.294327 0)
(-0.539968 -0.217685 0)
(-0.518097 -0.131819 0)
(-0.487221 -0.044602 0)
(-0.448784 0.0436524 0)
(-0.405327 0.1254 0)
(-0.360313 0.194821 0)
(-0.314976 0.249947 0)
(-0.269015 0.290962 0)
(-0.223279 0.317183 0)
(-0.177874 0.329467 0)
(-0.134874 0.329654 0)
(-0.0947156 0.32057 0)
(-0.058357 0.306323 0)
(-0.0257997 0.290775 0)
(0.00302628 0.277106 0)
(0.0276856 0.265187 0)
(0.0475997 0.254924 0)
(0.0653282 0.246366 0)
(0.0831448 0.238343 0)
(0.101209 0.230779 0)
(0.120777 0.222321 0)
(0.142995 0.211518 0)
(0.163592 0.195941 0)
(0.179177 0.177063 0)
(0.189865 0.158907 0)
(0.192704 0.146818 0)
(0.184933 0.137808 0)
(0.167965 0.130251 0)
(0.145712 0.123756 0)
(-0.568292 -0.424746 0)
(-0.583709 -0.390267 0)
(-0.595208 -0.342099 0)
(-0.596259 -0.283083 0)
(-0.584151 -0.213067 0)
(-0.562556 -0.134379 0)
(-0.533281 -0.0539497 0)
(-0.494888 0.0262156 0)
(-0.451007 0.101578 0)
(-0.40475 0.166868 0)
(-0.356263 0.220191 0)
(-0.306938 0.259746 0)
(-0.258114 0.285965 0)
(-0.210794 0.299475 0)
(-0.166561 0.302228 0)
(-0.126083 0.296922 0)
(-0.0902092 0.287389 0)
(-0.0590523 0.277067 0)
(-0.032617 0.267986 0)
(-0.0102186 0.260907 0)
(0.0122816 0.254452 0)
(0.0338578 0.247885 0)
(0.0558526 0.240084 0)
(0.0804154 0.231119 0)
(0.105858 0.21915 0)
(0.12804 0.2039 0)
(0.146387 0.186413 0)
(0.159626 0.172835 0)
(0.163173 0.163635 0)
(0.154247 0.156976 0)
(0.134648 0.153442 0)
(0.110449 0.150025 0)
(0.0843233 0.143197 0)
(-0.587503 -0.393584 0)
(-0.602713 -0.363293 0)
(-0.614864 -0.321473 0)
(-0.618901 -0.269113 0)
(-0.610689 -0.206439 0)
(-0.593473 -0.13772 0)
(-0.566911 -0.0651049 0)
(-0.530214 0.00823339 0)
(-0.486195 0.0776661 0)
(-0.439097 0.13879 0)
(-0.38971 0.189247 0)
(-0.339421 0.227359 0)
(-0.289689 0.253368 0)
(-0.242284 0.268277 0)
(-0.19846 0.273839 0)
(-0.158879 0.272665 0)
(-0.124472 0.268059 0)
(-0.0948951 0.263141 0)
(-0.0678868 0.258828 0)
(-0.0422312 0.25493 0)
(-0.0173866 0.250918 0)
(0.010548 0.244011 0)
(0.0376919 0.234267 0)
(0.0639844 0.221958 0)
(0.0875674 0.207764 0)
(0.107826 0.194771 0)
(0.121063 0.185789 0)
(0.123614 0.179718 0)
(0.11396 0.177916 0)
(0.0968076 0.177928 0)
(0.0751693 0.177426 0)
(0.0485768 0.173047 0)
(0.0192157 0.163219 0)
(-0.591417 -0.360896 0)
(-0.606741 -0.332533 0)
(-0.618296 -0.296193 0)
(-0.622083 -0.249248 0)
(-0.616991 -0.194953 0)
(-0.604365 -0.134872 0)
(-0.582219 -0.0716706 0)
(-0.549945 -0.00690489 0)
(-0.50921 0.0557621 0)
(-0.463855 0.111612 0)
(-0.415741 0.158243 0)
(-0.366545 0.194537 0)
(-0.318 0.22031 0)
(-0.272011 0.236831 0)
(-0.229706 0.245974 0)
(-0.19122 0.249804 0)
(-0.156275 0.250407 0)
(-0.124522 0.249735 0)
(-0.095221 0.248334 0)
(-0.0666167 0.245647 0)
(-0.0373809 0.240426 0)
(-0.00683743 0.231008 0)
(0.019642 0.219617 0)
(0.0438893 0.20849 0)
(0.0641417 0.200308 0)
(0.076332 0.195439 0)
(0.0777396 0.194761 0)
(0.0719129 0.197305 0)
(0.0595711 0.201023 0)
(0.0403797 0.203531 0)
(0.0144305 0.201112 0)
(-0.015859 0.193129 0)
(-0.0464416 0.179814 0)
(-0.582566 -0.327353 0)
(-0.597349 -0.300328 0)
(-0.60704 -0.265791 0)
(-0.610428 -0.223844 0)
(-0.607606 -0.177243 0)
(-0.598885 -0.126299 0)
(-0.581599 -0.0715542 0)
(-0.554564 -0.0160951 0)
(-0.519258 0.0384056 0)
(-0.478089 0.0882678 0)
(-0.433324 0.131015 0)
(-0.386822 0.165565 0)
(-0.340422 0.191559 0)
(-0.295622 0.209895 0)
(-0.253607 0.222077 0)
(-0.214901 0.229496 0)
(-0.179338 0.233487 0)
(-0.14591 0.234723 0)
(-0.113458 0.233153 0)
(-0.0823911 0.228902 0)
(-0.0535268 0.221832 0)
(-0.0250436 0.212422 0)
(-0.000176 0.205481 0)
(0.0181375 0.201901 0)
(0.0289053 0.202167 0)
(0.0331026 0.205916 0)
(0.0307604 0.21226 0)
(0.0217857 0.219669 0)
(0.00553229 0.22481 0)
(-0.0168132 0.226106 0)
(-0.0445273 0.221557 0)
(-0.0755799 0.210588 0)
(-0.106748 0.193027 0)
(-0.560546 -0.294643 0)
(-0.574905 -0.266917 0)
(-0.583997 -0.234538 0)
(-0.588203 -0.196918 0)
(-0.586973 -0.155698 0)
(-0.579383 -0.111139 0)
(-0.564952 -0.0638408 0)
(-0.543318 -0.0162354 0)
(-0.514156 0.0300107 0)
(-0.478288 0.0733488 0)
(-0.437897 0.111602 0)
(-0.395034 0.143638 0)
(-0.351541 0.168969 0)
(-0.308776 0.187838 0)
(-0.267753 0.200973 0)
(-0.228761 0.209175 0)
(-0.191924 0.213386 0)
(-0.157658 0.214116 0)
(-0.125681 0.211915 0)
(-0.0953983 0.20735 0)
(-0.0678123 0.202432 0)
(-0.0444528 0.199042 0)
(-0.0276119 0.199688 0)
(-0.0161632 0.204275 0)
(-0.00988096 0.211629 0)
(-0.0100462 0.221302 0)
(-0.0161667 0.231228 0)
(-0.0274895 0.239777 0)
(-0.044864 0.245476 0)
(-0.0682374 0.246146 0)
(-0.0974885 0.23946 0)
(-0.130786 0.22434 0)
(-0.165403 0.201991 0)
(-0.525934 -0.262845 0)
(-0.539721 -0.234905 0)
(-0.54991 -0.203718 0)
(-0.555018 -0.169746 0)
(-0.555414 -0.132859 0)
(-0.550131 -0.0937417 0)
(-0.538767 -0.0536482 0)
(-0.520826 -0.0133388 0)
(-0.496139 0.0260174 0)
(-0.465201 0.063254 0)
(-0.429434 0.0966559 0)
(-0.390497 0.125086 0)
(-0.350001 0.148072 0)
(-0.309418 0.165535 0)
(-0.269941 0.177844 0)
(-0.23235 0.185764 0)
(-0.19708 0.189797 0)
(-0.164084 0.190832 0)
(-0.133912 0.190655 0)
(-0.107663 0.190302 0)
(-0.0866644 0.191195 0)
(-0.0706847 0.194985 0)
(-0.0594001 0.202055 0)
(-0.0530044 0.211942 0)
(-0.0511356 0.223083 0)
(-0.053348 0.235203 0)
(-0.0598526 0.247451 0)
(-0.0710136 0.257695 0)
(-0.08802 0.263811 0)
(-0.112236 0.263107 0)
(-0.144613 0.253302 0)
(-0.18358 0.234252 0)
(-0.224471 0.208921 0)
(-0.483655 -0.234066 0)
(-0.492899 -0.204631 0)
(-0.503 -0.173415 0)
(-0.509471 -0.141599 0)
(-0.511834 -0.108604 0)
(-0.509306 -0.0748571 0)
(-0.501093 -0.0408975 0)
(-0.48665 -0.00746723 0)
(-0.465777 0.0249754 0)
(-0.439393 0.0556491 0)
(-0.408167 0.0835391 0)
(-0.373475 0.107673 0)
(-0.336884 0.127474 0)
(-0.299749 0.142864 0)
(-0.263187 0.154234 0)
(-0.228368 0.162459 0)
(-0.196521 0.168387 0)
(-0.168334 0.173049 0)
(-0.144833 0.177432 0)
(-0.126213 0.182903 0)
(-0.112166 0.189611 0)
(-0.102675 0.198352 0)
(-0.0968158 0.208687 0)
(-0.0933732 0.220426 0)
(-0.0920959 0.233655 0)
(-0.0929079 0.247624 0)
(-0.0969517 0.260947 0)
(-0.105663 0.271693 0)
(-0.121608 0.277296 0)
(-0.148112 0.275018 0)
(-0.187232 0.263388 0)
(-0.233247 0.242672 0)
(-0.280296 0.21428 0)
(-0.439936 -0.209711 0)
(-0.441233 -0.178361 0)
(-0.446476 -0.144564 0)
(-0.452357 -0.112349 0)
(-0.456033 -0.0819463 0)
(-0.456394 -0.0525939 0)
(-0.451847 -0.0244548 0)
(-0.441055 0.002299 0)
(-0.424331 0.0277196 0)
(-0.402476 0.0517261 0)
(-0.37593 0.0737735 0)
(-0.346004 0.093358 0)
(-0.314175 0.110118 0)
(-0.281931 0.12428 0)
(-0.250846 0.136278 0)
(-0.222447 0.146518 0)
(-0.198017 0.1558 0)
(-0.178228 0.165126 0)
(-0.163236 0.174879 0)
(-0.152873 0.185155 0)
(-0.145955 0.195444 0)
(-0.141224 0.206076 0)
(-0.137403 0.217616 0)
(-0.133421 0.229773 0)
(-0.129108 0.242557 0)
(-0.125359 0.255774 0)
(-0.124064 0.267906 0)
(-0.1283 0.277659 0)
(-0.143348 0.28329 0)
(-0.174097 0.282423 0)
(-0.218957 0.271737 0)
(-0.271392 0.249666 0)
(-0.323382 0.218145 0)
(-0.401686 -0.1929 0)
(-0.393399 -0.158063 0)
(-0.389048 -0.120913 0)
(-0.389221 -0.0851511 0)
(-0.391396 -0.0545907 0)
(-0.393136 -0.0284322 0)
(-0.391556 -0.00559799 0)
(-0.384361 0.0153706 0)
(-0.373002 0.0346814 0)
(-0.356774 0.0527233 0)
(-0.336224 0.0695084 0)
(-0.312697 0.0852724 0)
(-0.287771 0.0998674 0)
(-0.263138 0.113779 0)
(-0.240691 0.127334 0)
(-0.221896 0.140804 0)
(-0.207344 0.154527 0)
(-0.197127 0.168542 0)
(-0.190947 0.182229 0)
(-0.187441 0.195024 0)
(-0.185025 0.206942 0)
(-0.182124 0.218018 0)
(-0.177462 0.228356 0)
(-0.170096 0.237965 0)
(-0.159748 0.247186 0)
(-0.148416 0.255907 0)
(-0.139512 0.265071 0)
(-0.137762 0.273798 0)
(-0.150477 0.281923 0)
(-0.182886 0.285213 0)
(-0.233206 0.277344 0)
(-0.292642 0.254757 0)
(-0.350978 0.221096 0)
(-0.372636 -0.18481 0)
(-0.356392 -0.146222 0)
(-0.342095 -0.104676 0)
(-0.332383 -0.0646222 0)
(-0.32745 -0.0301972 0)
(-0.326352 -0.00384816 0)
(-0.32566 0.0166933 0)
(-0.323472 0.0328975 0)
(-0.318087 0.0471877 0)
(-0.308655 0.0600426 0)
(-0.295322 0.0723634 0)
(-0.279947 0.0852623 0)
(-0.264271 0.0988597 0)
(-0.249824 0.113725 0)
(-0.238283 0.129955 0)
(-0.230299 0.146888 0)
(-0.225664 0.164455 0)
(-0.223985 0.181662 0)
(-0.224319 0.19753 0)
(-0.225094 0.211575 0)
(-0.224638 0.223404 0)
(-0.221471 0.232648 0)
(-0.214109 0.239253 0)
(-0.201505 0.243401 0)
(-0.184082 0.245848 0)
(-0.163542 0.248396 0)
(-0.144963 0.25284 0)
(-0.134943 0.260467 0)
(-0.141974 0.270811 0)
(-0.173964 0.278135 0)
(-0.229198 0.273686 0)
(-0.297252 0.253211 0)
(-0.364037 0.220449 0)
(-0.35252 -0.181578 0)
(-0.332142 -0.14209 0)
(-0.311916 -0.0972504 0)
(-0.293849 -0.0523934 0)
(-0.280166 -0.0131261 0)
(-0.271335 0.0178198 0)
(-0.2687 0.0405431 0)
(-0.26903 0.0559355 0)
(-0.268322 0.066251 0)
(-0.265431 0.0748545 0)
(-0.260074 0.0838226 0)
(-0.254075 0.0949534 0)
(-0.249007 0.10856 0)
(-0.245517 0.125082 0)
(-0.244816 0.143771 0)
(-0.246247 0.163257 0)
(-0.249139 0.183352 0)
(-0.253408 0.20242 0)
(-0.257756 0.219331 0)
(-0.260748 0.233248 0)
(-0.260892 0.243418 0)
(-0.2565 0.249055 0)
(-0.24623 0.250151 0)
(-0.228848 0.247255 0)
(-0.203736 0.241608 0)
(-0.173875 0.235733 0)
(-0.145141 0.232498 0)
(-0.124856 0.235853 0)
(-0.125009 0.245045 0)
(-0.156982 0.2553 0)
(-0.220008 0.255477 0)
(-0.299442 0.239176 0)
(-0.374522 0.210869 0)
(-0.339971 -0.180156 0)
(-0.318858 -0.141157 0)
(-0.29651 -0.0947777 0)
(-0.275434 -0.046707 0)
(-0.257237 -0.00291634 0)
(-0.243359 0.0327953 0)
(-0.235221 0.059897 0)
(-0.23252 0.0785661 0)
(-0.232893 0.0894004 0)
(-0.233868 0.0965369 0)
(-0.235278 0.103968 0)
(-0.238296 0.114412 0)
(-0.243131 0.128591 0)
(-0.249195 0.146578 0)
(-0.256901 0.16646 0)
(-0.264667 0.187699 0)
(-0.272387 0.20911 0)
(-0.280233 0.228879 0)
(-0.286936 0.245823 0)
(-0.291069 0.258592 0)
(-0.291472 0.266106 0)
(-0.286517 0.267803 0)
(-0.273934 0.263269 0)
(-0.252565 0.252766 0)
(-0.223468 0.237216 0)
(-0.18968 0.219309 0)
(-0.156175 0.203205 0)
(-0.131027 0.195898 0)
(-0.126359 0.199271 0)
(-0.155818 0.210073 0)
(-0.223543 0.216642 0)
(-0.310355 0.208954 0)
(-0.390269 0.186313 0)
(-0.333118 -0.177047 0)
(-0.313354 -0.139869 0)
(-0.292001 -0.0938485 0)
(-0.270108 -0.043171 0)
(-0.251263 0.00524083 0)
(-0.23541 0.0439948 0)
(-0.223275 0.07493 0)
(-0.216866 0.097536 0)
(-0.215213 0.112432 0)
(-0.217724 0.121868 0)
(-0.223442 0.131097 0)
(-0.232876 0.14211 0)
(-0.244752 0.156974 0)
(-0.257606 0.175591 0)
(-0.27026 0.195702 0)
(-0.281339 0.217767 0)
(-0.291861 0.239426 0)
(-0.301613 0.259231 0)
(-0.309514 0.275474 0)
(-0.31462 0.286758 0)
(-0.31525 0.291962 0)
(-0.309826 0.289778 0)
(-0.297781 0.27957 0)
(-0.279828 0.261525 0)
(-0.257192 0.237155 0)
(-0.232071 0.212214 0)
(-0.205514 0.191513 0)
(-0.180834 0.178356 0)
(-0.169609 0.16912 0)
(-0.190999 0.165498 0)
(-0.252547 0.163431 0)
(-0.339034 0.157471 0)
(-0.417191 0.143836 0)
(-0.331707 -0.171491 0)
(-0.314401 -0.135698 0)
(-0.295264 -0.0905267 0)
(-0.274653 -0.039849 0)
(-0.256239 0.0111219 0)
(-0.240731 0.0552656 0)
(-0.226911 0.0882042 0)
(-0.217887 0.114763 0)
(-0.21471 0.134183 0)
(-0.21618 0.148387 0)
(-0.223478 0.161705 0)
(-0.236511 0.174751 0)
(-0.251599 0.190457 0)
(-0.267603 0.209145 0)
(-0.281991 0.229289 0)
(-0.294157 0.251357 0)
(-0.305728 0.272855 0)
(-0.316229 0.292453 0)
(-0.324786 0.308348 0)
(-0.329845 0.318864 0)
(-0.331032 0.322248 0)
(-0.327852 0.317217 0)
(-0.320227 0.303694 0)
(-0.308677 0.283335 0)
(-0.290939 0.259888 0)
(-0.266586 0.234866 0)
(-0.238483 0.210078 0)
(-0.210091 0.182308 0)
(-0.191007 0.150354 0)
(-0.19873 0.118455 0)
(-0.249062 0.0946151 0)
(-0.329142 0.0841315 0)
(-0.409548 0.0831034 0)
(-0.335083 -0.163157 0)
(-0.320881 -0.127791 0)
(-0.304868 -0.0837237 0)
(-0.28684 -0.0334099 0)
(-0.269301 0.0179402 0)
(-0.254933 0.0651177 0)
(-0.241559 0.101376 0)
(-0.230992 0.131324 0)
(-0.226561 0.155413 0)
(-0.226314 0.174942 0)
(-0.232885 0.192702 0)
(-0.24628 0.208776 0)
(-0.261265 0.225705 0)
(-0.276985 0.244378 0)
(-0.290665 0.264549 0)
(-0.30218 0.28632 0)
(-0.313345 0.307781 0)
(-0.323144 0.327592 0)
(-0.330603 0.344139 0)
(-0.335088 0.354413 0)
(-0.336374 0.35705 0)
(-0.333797 0.351275 0)
(-0.326211 0.338156 0)
(-0.311137 0.318341 0)
(-0.290498 0.292873 0)
(-0.265674 0.264151 0)
(-0.233875 0.23059 0)
(-0.199048 0.186236 0)
(-0.170189 0.128969 0)
(-0.163879 0.0626163 0)
(-0.191384 0.00528719 0)
(-0.256767 -0.0176589 0)
(-0.341898 -0.00847864 0)
(-0.342656 -0.151301 0)
(-0.332211 -0.116277 0)
(-0.319345 -0.0728074 0)
(-0.30411 -0.0230206 0)
(-0.288954 0.0283633 0)
(-0.276067 0.0757446 0)
(-0.263254 0.11505 0)
(-0.252154 0.148325 0)
(-0.24643 0.176808 0)
(-0.244118 0.201133 0)
(-0.24848 0.222832 0)
(-0.259556 0.241803 0)
(-0.271836 0.260228 0)
(-0.284791 0.279006 0)
(-0.29586 0.299414 0)
(-0.305178 0.320902 0)
(-0.314184 0.342501 0)
(-0.321221 0.363039 0)
(-0.326171 0.379866 0)
(-0.328169 0.389983 0)
(-0.326462 0.392544 0)
(-0.319079 0.387201 0)
(-0.30465 0.373468 0)
(-0.286678 0.352327 0)
(-0.263474 0.324754 0)
(-0.230665 0.292717 0)
(-0.186651 0.250467 0)
(-0.137333 0.189564 0)
(-0.089787 0.108152 0)
(-0.0570755 0.0138541 0)
(-0.0682451 -0.0578072 0)
(-0.12638 -0.0898201 0)
(-0.215067 -0.0853579 0)
(-0.353278 -0.135942 0)
(-0.346407 -0.100932 0)
(-0.336939 -0.0580603 0)
(-0.325048 -0.00937963 0)
(-0.312491 0.0410499 0)
(-0.300633 0.0883041 0)
(-0.288347 0.129891 0)
(-0.27692 0.166068 0)
(-0.269951 0.198215 0)
(-0.265642 0.226264 0)
(-0.266969 0.25083 0)
(-0.273886 0.272311 0)
(-0.281816 0.292267 0)
(-0.290262 0.31129 0)
(-0.297369 0.332048 0)
(-0.303345 0.353316 0)
(-0.308457 0.374937 0)
(-0.311435 0.396063 0)
(-0.311897 0.412105 0)
(-0.308788 0.421558 0)
(-0.300323 0.423377 0)
(-0.285927 0.4171 0)
(-0.266386 0.401461 0)
(-0.242501 0.377989 0)
(-0.210025 0.349331 0)
(-0.164027 0.312304 0)
(-0.107476 0.257641 0)
(-0.0408445 0.176258 0)
(0.022868 0.0786731 0)