/*--------------------------------*- C++ -*----------------------------------*\
  =========                 |
  \\      /  F ield         | OpenFOAM: The Open Source CFD Toolbox
   \\    /   O peration     | Website:  https://openfoam.org
    \\  /    A nd           | Version:  10
     \\/     M anipulation  |
\*---------------------------------------------------------------------------*/
FoamFile
{
    format      ascii;
    class       volScalarField;
    location    "0.996516";
    object      p;
}
// * * * * * * * * * * * * * * * * * * * * * * * * * * * * * * * * * * * * * //

dimensions      [1 -1 -2 0 0 0 0];

internalField   nonuniform List<scalar> 
15984
(
2.37706
2.38554
2.3941
2.40279
2.41147
2.4201
2.42861
2.43704
2.44536
2.45356
2.46164
2.46959
2.47741
2.48509
2.49264
2.50006
2.50734
2.51451
2.52154
2.52846
2.53526
2.54194
2.5485
2.55496
2.5613
2.56755
2.57369
2.57974
2.5857
2.59156
2.59734
2.60304
2.60866
2.61419
2.61965
2.62502
2.63031
2.6355
2.64061
2.64561
2.65051
2.65528
2.65993
2.66443
2.66878
2.67295
2.67692
2.68068
2.6842
2.68745
2.69042
2.69307
2.69538
2.69731
2.37985
2.38815
2.39681
2.40559
2.41432
2.42302
2.43163
2.44015
2.44856
2.45684
2.46498
2.47298
2.48083
2.48852
2.49606
2.50345
2.51068
2.51777
2.52472
2.53152
2.53819
2.54472
2.55112
2.55739
2.56355
2.56959
2.57552
2.58134
2.58706
2.59269
2.59823
2.60368
2.60905
2.61434
2.61954
2.62466
2.6297
2.63465
2.63951
2.64427
2.64893
2.65348
2.6579
2.66219
2.66632
2.67029
2.67408
2.67765
2.681
2.68409
2.68689
2.68939
2.69154
2.69333
2.38209
2.39044
2.39922
2.40795
2.41681
2.42561
2.43434
2.44297
2.45148
2.45987
2.4681
2.47617
2.48407
2.4918
2.49936
2.50674
2.51395
2.52099
2.52786
2.53457
2.54112
2.54752
2.55377
2.55988
2.56585
2.57169
2.57742
2.58302
2.58852
2.59391
2.5992
2.6044
2.60952
2.61454
2.61948
2.62434
2.62911
2.6338
2.6384
2.6429
2.6473
2.6516
2.65578
2.65983
2.66373
2.66748
2.67104
2.67441
2.67755
2.68045
2.68307
2.68538
2.68736
2.68898
2.38382
2.39229
2.40114
2.40996
2.41893
2.42785
2.43671
2.44548
2.45413
2.46264
2.47098
2.47915
2.48714
2.49493
2.50252
2.50992
2.51713
2.52414
2.53096
2.5376
2.54406
2.55034
2.55646
2.56242
2.56822
2.57388
2.5794
2.58479
2.59006
2.59522
2.60027
2.60522
2.61007
2.61483
2.6195
2.62408
2.62858
2.63298
2.6373
2.64153
2.64565
2.64968
2.65359
2.65737
2.66102
2.66451
2.66783
2.67096
2.67388
2.67655
2.67895
2.68105
2.68283
2.68424
2.38532
2.39379
2.40262
2.41158
2.42064
2.4297
2.43872
2.44766
2.45647
2.46513
2.47362
2.48191
2.49
2.49788
2.50554
2.51299
2.52021
2.52722
2.53402
2.54061
2.54699
2.55318
2.55918
2.565
2.57065
2.57614
2.58147
2.58666
2.59171
2.59663
2.60144
2.60614
2.61073
2.61522
2.61961
2.6239
2.62811
2.63223
2.63625
2.64018
2.64401
2.64773
2.65135
2.65484
2.6582
2.66142
2.66446
2.66732
2.66997
2.67239
2.67454
2.67639
2.67793
2.67911
2.38636
2.39482
2.40371
2.41281
2.42199
2.4312
2.44039
2.4495
2.45849
2.46733
2.47598
2.48443
2.49265
2.50065
2.5084
2.51592
2.52319
2.53023
2.53702
2.54358
2.54992
2.55603
2.56194
2.56764
2.57315
2.57847
2.58363
2.58862
2.59347
2.59817
2.60274
2.60718
2.61151
2.61572
2.61983
2.62383
2.62774
2.63155
2.63526
2.63887
2.64238
2.64579
2.64909
2.65226
2.65531
2.65821
2.66095
2.66351
2.66586
2.66798
2.66984
2.67141
2.67266
2.67356
2.38686
2.3954
2.40439
2.41359
2.42293
2.43231
2.44168
2.45099
2.46018
2.46922
2.47806
2.48669
2.49508
2.50322
2.5111
2.51871
2.52606
2.53315
2.53996
2.54652
2.55283
2.55889
2.56472
2.57032
2.57571
2.58089
2.58588
2.5907
2.59534
2.59982
2.60416
2.60835
2.61242
2.61636
2.62018
2.62388
2.62748
2.63097
2.63435
2.63763
2.64081
2.64388
2.64683
2.64966
2.65236
2.65492
2.65731
2.65953
2.66154
2.66333
2.66485
2.66609
2.66701
2.66759
2.38679
2.39547
2.40457
2.4139
2.4234
2.43297
2.44256
2.45209
2.46151
2.47077
2.47983
2.48867
2.49724
2.50555
2.51358
2.52132
2.52878
2.53594
2.54281
2.5494
2.5557
2.56174
2.56751
2.57304
2.57832
2.58338
2.58823
2.59287
2.59733
2.60161
2.60572
2.60967
2.61347
2.61714
2.62067
2.62407
2.62735
2.63051
2.63356
2.63649
2.63931
2.64202
2.6446
2.64706
2.64938
2.65156
2.65357
2.6554
2.65703
2.65844
2.65958
2.66044
2.66098
2.66118
2.3864
2.39506
2.40423
2.4137
2.42337
2.43316
2.44298
2.45276
2.46243
2.47193
2.48123
2.4903
2.4991
2.50761
2.51583
2.52373
2.53132
2.53859
2.54555
2.55219
2.55853
2.56457
2.57031
2.57578
2.58099
2.58594
2.59066
2.59515
2.59944
2.60352
2.60741
2.61113
2.61468
2.61808
2.62132
2.62442
2.62738
2.6302
2.6329
2.63547
2.63791
2.64023
2.64242
2.64447
2.64639
2.64815
2.64974
2.65115
2.65235
2.65332
2.65403
2.65445
2.65457
2.65435
2.38528
2.39405
2.40331
2.41295
2.42283
2.43285
2.44293
2.453
2.46297
2.47279
2.4824
2.49174
2.50081
2.50956
2.51798
2.52607
2.5338
2.54118
2.54822
2.55492
2.5613
2.56736
2.5731
2.57855
2.5837
2.58857
2.59318
2.59753
2.60166
2.60556
2.60925
2.61275
2.61605
2.61918
2.62214
2.62493
2.62757
2.63005
2.63239
2.63458
2.63664
2.63855
2.64032
2.64194
2.6434
2.64471
2.64584
2.64677
2.64749
2.64797
2.6482
2.64813
2.64779
2.64709
2.38352
2.39235
2.40173
2.41158
2.42171
2.43205
2.44247
2.45288
2.4632
2.47336
2.4833
2.49296
2.50231
2.51133
2.51999
2.52828
2.53619
2.54372
2.55087
2.55765
2.56406
2.57013
2.57587
2.58131
2.58643
2.59124
2.59576
2.60001
2.60399
2.60773
2.61123
2.61451
2.61758
2.62045
2.62313
2.62562
2.62793
2.63007
2.63205
2.63385
2.6355
2.63699
2.63831
2.63947
2.64045
2.64126
2.64188
2.64229
2.64247
2.64241
2.64212
2.64152
2.64064
2.63948
2.38104
2.39003
2.39947
2.40956
2.42005
2.43074
2.44152
2.45228
2.46295
2.47347
2.48375
2.49376
2.50344
2.51277
2.52171
2.53026
2.53839
2.54612
2.55343
2.56033
2.56683
2.57295
2.5787
2.5841
2.58918
2.59395
2.59841
2.60256
2.60642
2.61001
2.61334
2.61643
2.61927
2.62189
2.6243
2.6265
2.62849
2.63029
2.63189
2.6333
2.63453
2.63557
2.63642
2.63708
2.63756
2.63782
2.63788
2.63771
2.63733
2.63667
2.63579
2.63464
2.63323
2.63167
2.37777
2.38678
2.39659
2.40698
2.41776
2.42877
2.43991
2.45107
2.46214
2.47306
2.48375
2.49414
2.50419
2.51387
2.52313
2.53197
2.54036
2.54831
2.55582
2.56288
2.56951
2.57572
2.58152
2.58693
2.59198
2.5967
2.6011
2.60519
2.60895
2.61241
2.61558
2.61848
2.62112
2.62351
2.62565
2.62756
2.62924
2.63069
2.63193
2.63294
2.63373
2.6343
2.63467
2.63481
2.63473
2.63442
2.63387
2.63307
2.63206
2.63074
2.62929
2.62754
2.6257
2.62362
2.37356
2.38274
2.39286
2.40357
2.41469
2.42607
2.43761
2.4492
2.46073
2.4721
2.48323
2.49405
2.50452
2.51458
2.5242
2.53337
2.54207
2.55028
2.55802
2.56527
2.57206
2.57839
2.58429
2.58976
2.59482
2.5995
2.60384
2.60787
2.61155
2.61491
2.61795
2.62068
2.62313
2.62529
2.62719
2.62882
2.63019
2.63131
2.63217
2.63278
2.63313
2.63322
2.63307
2.63267
2.632
2.63106
2.62987
2.62838
2.62674
2.62465
2.62254
2.62046
2.61805
2.61522
2.36832
2.37764
2.38808
2.39921
2.41073
2.42256
2.43456
2.44662
2.45864
2.47051
2.48214
2.49345
2.50437
2.51486
2.52489
2.53443
2.54347
2.55199
2.55999
2.56748
2.57446
2.58095
2.58697
2.59252
2.59764
2.60234
2.60664
2.61059
2.61422
2.61749
2.62041
2.623
2.62527
2.62724
2.6289
2.63027
2.63135
2.63213
2.63263
2.63282
2.63273
2.63234
2.63165
2.63067
2.62938
2.62778
2.62593
2.62371
2.62144
2.61857
2.61565
2.61309
2.60845
2.60603
2.36167
2.37152
2.38234
2.39379
2.40585
2.41818
2.4307
2.44327
2.45584
2.46826
2.48045
2.49228
2.5037
2.51467
2.52515
2.53511
2.54453
2.55339
2.5617
2.56946
2.57667
2.58336
2.58953
2.59521
2.60041
2.60516
2.60947
2.61338
2.61693
2.62014
2.62297
2.62544
2.62755
2.62933
2.63078
2.6319
2.6327
2.63316
2.6333
2.63309
2.63255
2.63166
2.63042
2.62883
2.6269
2.62461
2.62211
2.61912
2.61626
2.61239
2.60782
2.60445
2.5956
2.59509
2.35417
2.36465
2.3756
2.3877
2.40001
2.41286
2.4259
2.43901
2.45222
2.4653
2.47812
2.49054
2.50249
2.51398
2.52493
2.53534
2.54519
2.55445
2.56311
2.57118
2.57867
2.58559
2.59195
2.59778
2.6031
2.60793
2.61229
2.6162
2.6197
2.62284
2.6256
2.62796
2.62994
2.63156
2.63281
2.63371
2.63424
2.6344
2.63419
2.63358
2.63258
2.63119
2.62938
2.62717
2.6246
2.6216
2.61849
2.61482
2.6111
2.60659
2.59882
2.59322
2.58932
2.58075
2.34664
2.35606
2.36798
2.38021
2.39312
2.40678
2.42027
2.43401
2.44782
2.46161
2.47518
2.48818
2.5007
2.51274
2.52422
2.53512
2.54542
2.55512
2.56418
2.5726
2.58041
2.5876
2.59419
2.60021
2.60568
2.61062
2.61505
2.619
2.62249
2.62557
2.62827
2.63056
2.63243
2.63391
2.63499
2.63568
2.63596
2.63584
2.63529
2.63429
2.63284
2.63093
2.62855
2.6257
2.62247
2.61878
2.61512
2.61037
2.60379
2.59758
2.59215
2.58489
2.57595
2.56679
2.33557
2.34735
2.35896
2.37181
2.38511
2.39972
2.41412
2.42838
2.44281
2.45738
2.47134
2.48515
2.49829
2.51094
2.52296
2.53438
2.54519
2.55535
2.56486
2.57368
2.58185
2.58936
2.59622
2.60247
2.60813
2.61321
2.61775
2.62176
2.62528
2.62833
2.63098
2.6332
2.63499
2.63635
2.63728
2.63778
2.63785
2.63746
2.63658
2.63519
2.6333
2.63087
2.62789
2.62443
2.62055
2.6161
2.61119
2.60444
2.59882
2.59111
2.58299
2.5732
2.56247
2.55132
2.3246
2.33689
2.34733
2.36095
2.37595
2.3926
2.40717
2.42274
2.43781
2.45257
2.46716
2.48139
2.49526
2.50845
2.5211
2.53308
2.54443
2.55511
2.5651
2.57438
2.58296
2.59082
2.59801
2.60453
2.61041
2.61568
2.62035
2.62445
2.62802
2.63108
2.63369
2.63586
2.63759
2.63885
2.63966
2.64
2.63986
2.63922
2.63803
2.63627
2.63391
2.63095
2.62741
2.62336
2.61862
2.61204
2.60539
2.59969
2.5921
2.58256
2.57194
2.56077
2.54927
2.53708
2.31564
2.32503
2.33861
2.34797
2.36382
2.38396
2.39843
2.41635
2.43208
2.4476
2.46257
2.4773
2.49162
2.50537
2.51861
2.53123
2.54311
2.55441
2.56488
2.57465
2.58368
2.59195
2.5995
2.60634
2.61249
2.61798
2.62282
2.62705
2.63069
2.63378
2.63637
2.63851
2.64018
2.64137
2.64208
2.64229
2.64197
2.64108
2.63958
2.63742
2.63461
2.63115
2.62709
2.62215
2.61553
2.61037
2.60222
2.59346
2.58345
2.57282
2.5615
2.54971
2.53766
2.52462
2.30497
2.31518
2.32665
2.33922
2.35451
2.37194
2.3925
2.40714
2.42597
2.44227
2.45797
2.47304
2.48773
2.50188
2.51575
2.52887
2.54138
2.55314
2.5642
2.57449
2.584
2.59272
2.60068
2.60788
2.61434
2.62009
2.62514
2.62952
2.63326
2.6364
2.63899
2.64109
2.64273
2.64386
2.64449
2.64457
2.64408
2.64295
2.64112
2.63858
2.63533
2.63142
2.62642
2.6195
2.61375
2.60577
2.59642
2.5862
2.57536
2.56402
2.55218
2.54019
2.52903
2.51414
2.29779
2.30623
2.316
2.32941
2.34502
2.36301
2.38128
2.39925
2.41824
2.43621
2.45285
2.46862
2.48357
2.49809
2.51227
2.52602
2.53908
2.55142
2.56304
2.57387
2.58389
2.5931
2.60151
2.60911
2.61593
2.62198
2.62727
2.63183
2.63569
2.63889
2.64148
2.64355
2.64515
2.64624
2.64679
2.64676
2.6461
2.6447
2.64253
2.6396
2.63597
2.63116
2.62393
2.61784
2.60966
2.60009
2.58991
2.57912
2.56779
2.5561
2.54425
2.53256
2.51708
2.50429
2.28741
2.29712
2.30843
2.32077
2.33621
2.35334
2.37197
2.39135
2.41058
2.42874
2.44696
2.46331
2.47882
2.49374
2.50854
2.52276
2.53634
2.54926
2.56142
2.5728
2.58336
2.59307
2.60196
2.61001
2.61722
2.6236
2.62917
2.63394
2.63794
2.6412
2.64378
2.64579
2.64733
2.64838
2.64887
2.64873
2.64788
2.64621
2.64367
2.64031
2.63575
2.62875
2.62231
2.61389
2.60443
2.59436
2.58362
2.57237
2.56083
2.54936
2.53808
2.52476
2.51153
2.49767
2.27932
2.28874
2.29781
2.31557
2.32937
2.3454
2.36345
2.38318
2.40309
2.4231
2.43949
2.45776
2.47403
2.48964
2.50467
2.51926
2.53331
2.5467
2.55938
2.57129
2.58238
2.59263
2.60201
2.61052
2.61815
2.6249
2.63078
2.63578
2.63992
2.64325
2.64582
2.64773
2.64913
2.65013
2.65059
2.65035
2.64928
2.64731
2.6443
2.63976
2.63288
2.62681
2.61846
2.60916
2.59923
2.58862
2.57756
2.56637
2.55558
2.54469
2.53256
2.51993
2.50649
2.49192
2.27323
2.28281
2.29361
2.30749
2.32315
2.3386
2.35641
2.37564
2.39586
2.41592
2.43305
2.45209
2.46907
2.485
2.50044
2.51544
2.52991
2.54377
2.55694
2.56936
2.58097
2.59174
2.60162
2.6106
2.61867
2.62581
2.632
2.63724
2.64152
2.6449
2.64744
2.64924
2.6505
2.65136
2.65179
2.6514
2.65011
2.64773
2.64362
2.63942
2.6316
2.62323
2.61404
2.60421
2.59369
2.58281
2.57206
2.56187
2.55206
2.54069
2.52849
2.51531
2.50142
2.48672
2.2707
2.27959
2.29016
2.30301
2.31744
2.33306
2.35045
2.36924
2.38885
2.40873
2.42758
2.44635
2.46394
2.4802
2.49602
2.51139
2.52623
2.54051
2.55412
2.56702
2.57912
2.59038
2.60075
2.6102
2.61869
2.6262
2.63272
2.63818
2.64258
2.64598
2.6484
2.65016
2.65131
2.65202
2.65225
2.65175
2.65014
2.6467
2.64391
2.63664
2.62809
2.61895
2.60919
2.59876
2.58796
2.57738
2.56799
2.55808
2.54735
2.5362
2.52387
2.51101
2.49723
2.48268
2.27156
2.27912
2.28811
2.3013
2.31456
2.32923
2.34569
2.36368
2.38258
2.40247
2.42143
2.44065
2.45855
2.47532
2.49141
2.50706
2.52227
2.53693
2.55095
2.56428
2.57683
2.58854
2.59936
2.60924
2.61814
2.62597
2.63271
2.63833
2.64283
2.64626
2.6487
2.65044
2.65157
2.6521
2.65206
2.65125
2.64866
2.64693
2.64059
2.63258
2.62368
2.61408
2.60375
2.59302
2.58241
2.57275
2.56427
2.55303
2.54311
2.53177
2.51985
2.50711
2.49372
2.47959
2.27593
2.28213
2.29043
2.30139
2.31308
2.3271
2.34286
2.35976
2.37767
2.39669
2.41588
2.43505
2.45298
2.47007
2.48657
2.50258
2.5181
2.5331
2.5475
2.56118
2.57412
2.58622
2.59742
2.60764
2.61679
2.62484
2.63176
2.63754
2.64229
2.64592
2.64848
2.65014
2.6513
2.65168
2.65117
2.64923
2.64861
2.64327
2.63614
2.62786
2.61864
2.60853
2.5979
2.58728
2.57753
2.5686
2.55912
2.54919
2.53846
2.52775
2.51609
2.50365
2.49056
2.47675
2.28259
2.2867
2.29331
2.30212
2.31287
2.32558
2.34013
2.35605
2.37333
2.39163
2.41032
2.42931
2.44744
2.46485
2.48162
2.4979
2.51372
2.52902
2.54371
2.55776
2.57098
2.58338
2.5948
2.60522
2.61448
2.62271
2.62995
2.63604
2.64138
2.64549
2.64789
2.64947
2.65053
2.65049
2.64844
2.64864
2.64447
2.63845
2.6311
2.62257
2.61288
2.60243
2.59177
2.58174
2.57362
2.56174
2.5538
2.54476
2.53392
2.52354
2.51176
2.49997
2.48736
2.47398
2.29047
2.29301
2.29802
2.30516
2.31442
2.32575
2.33903
2.35394
2.37018
2.38773
2.40614
2.42458
2.44239
2.45968
2.47657
2.49305
2.50913
2.52473
2.53974
2.55394
2.5674
2.57993
2.59152
2.60193
2.61147
2.61991
2.6277
2.63473
2.64056
2.64509
2.64663
2.64841
2.64916
2.64778
2.64654
2.64414
2.63933
2.6331
2.62552
2.61654
2.60648
2.59586
2.58536
2.57579
2.56675
2.55822
2.54881
2.5392
2.52889
2.51834
2.50727
2.49573
2.48344
2.47105
2.29803
2.29861
2.30157
2.30704
2.31484
2.32489
2.33691
2.35067
2.36595
2.38279
2.40065
2.41864
2.43656
2.45414
2.4713
2.48811
2.50439
2.52021
2.53537
2.54988
2.56328
2.57618
2.58737
2.5983
2.60773
2.61732
2.62561
2.63334
2.63968
2.64322
2.64484
2.64651
2.64657
2.64376
2.64265
2.63882
2.63352
2.6271
2.61912
2.60977
2.59949
2.58894
2.57888
2.56988
2.56201
2.55246
2.54197
2.53267
2.52307
2.51275
2.50232
2.49067
2.47939
2.46784
2.30677
2.30537
2.30688
2.31068
2.31743
2.32671
2.33791
2.35078
2.36494
2.38062
2.39743
2.41487
2.43249
2.44976
2.46648
2.48312
2.49946
2.51544
2.53105
2.54482
2.55971
2.5712
2.58281
2.59518
2.60591
2.61479
2.6239
2.63193
2.63825
2.63975
2.64223
2.64267
2.6405
2.64061
2.63753
2.63273
2.62695
2.62008
2.61179
2.60222
2.59189
2.58142
2.57181
2.56457
2.55609
2.54282
2.53441
2.52532
2.51639
2.50662
2.4957
2.48534
2.47471
2.46408
2.31476
2.31168
2.31176
2.31499
2.32015
2.32759
2.33733
2.34864
2.36084
2.37575
2.39189
2.40908
2.42676
2.44455
2.46189
2.47835
2.49448
2.51008
2.52625
2.54012
2.55531
2.5694
2.58238
2.59227
2.60272
2.61259
2.62175
2.63003
2.63518
2.63644
2.63741
2.63462
2.6373
2.63473
2.63091
2.62558
2.61922
2.6118
2.60325
2.59357
2.58325
2.57293
2.5635
2.55651
2.54865
2.53454
2.52546
2.5181
2.50933
2.49864
2.48918
2.47922
2.46927
2.45955
2.31855
2.31572
2.31543
2.31727
2.32085
2.32662
2.33571
2.34719
2.36159
2.37656
2.39267
2.40924
2.42594
2.4427
2.45982
2.47669
2.49315
2.5091
2.52323
2.53942
2.55121
2.56497
2.57792
2.58916
2.60001
2.60989
2.61837
2.62648
2.62794
2.6313
2.62997
2.62969
2.6298
2.62733
2.62274
2.61696
2.61019
2.60219
2.59335
2.58374
2.57359
2.5635
2.55401
2.54543
2.53713
2.53029
2.516
2.50938
2.49972
2.49142
2.48183
2.47283
2.46303
2.45426
2.32023
2.31698
2.31567
2.3164
2.31937
2.32541
2.33446
2.34484
2.35639
2.37037
2.38582
2.4022
2.41881
2.4357
2.45287
2.46989
2.48665
2.50288
2.51829
2.53365
2.54761
2.56117
2.57405
2.58593
2.59665
2.60579
2.61398
2.62019
2.62087
2.624
2.62223
2.62247
2.62195
2.61738
2.61248
2.60662
2.59964
2.59141
2.58214
2.57234
2.56241
2.55262
2.54335
2.5347
2.52624
2.51784
2.50772
2.49873
2.49173
2.48361
2.4742
2.46631
2.45606
2.44843
2.32242
2.31785
2.31614
2.31666
2.31927
2.32405
2.33027
2.33953
2.35166
2.36629
2.38095
2.39531
2.41105
2.42788
2.44526
2.46258
2.47985
2.49673
2.51309
2.52891
2.54368
2.55746
2.57039
2.58192
2.59161
2.60045
2.60781
2.60916
2.61274
2.60771
2.61972
2.61209
2.61058
2.60586
2.6005
2.59438
2.58722
2.57889
2.5695
2.55943
2.54919
2.53933
2.53014
2.52158
2.51333
2.50501
2.49669
2.48882
2.4814
2.47451
2.46548
2.45771
2.44968
2.44327
2.32615
2.32047
2.3178
2.31739
2.31907
2.3231
2.32964
2.33827
2.34855
2.3597
2.37319
2.38981
2.4064
2.42339
2.43962
2.45684
2.47418
2.49167
2.50871
2.52457
2.53928
2.55324
2.56555
2.57522
2.58378
2.59117
2.6021
2.60496
2.59955
2.59982
2.60635
2.60144
2.59758
2.59249
2.58662
2.58002
2.57253
2.56406
2.55462
2.54444
2.53393
2.52357
2.51381
2.50486
2.49662
2.48892
2.48177
2.47489
2.46801
2.46047
2.45335
2.44652
2.43998
2.43399
2.33196
2.32548
2.32143
2.32018
2.32155
2.32509
2.3299
2.33743
2.34704
2.35809
2.37079
2.38439
2.39984
2.41634
2.4344
2.45301
2.4706
2.48783
2.50509
2.5199
2.53503
2.54764
2.55813
2.5671
2.57652
2.588
2.5942
2.60159
2.58261
2.58688
2.5963
2.5889
2.58437
2.57782
2.57124
2.56405
2.5561
2.54728
2.5376
2.52723
2.51647
2.50572
2.49535
2.48552
2.47672
2.46886
2.46192
2.45562
2.44967
2.44404
2.43886
2.43402
2.42953
2.42548
2.34025
2.33291
2.32806
2.32552
2.32549
2.32774
2.33213
2.33895
2.34769
2.35781
2.3704
2.38396
2.3989
2.41509
2.43185
2.44851
2.4666
2.48294
2.49907
2.51465
2.52966
2.54119
2.55352
2.56311
2.57561
2.58177
2.5858
2.57966
2.58059
2.57778
2.58262
2.57532
2.56909
2.56203
2.5547
2.54691
2.53842
2.52914
2.51908
2.50841
2.49742
2.48644
2.47578
2.46574
2.45661
2.44854
2.44165
2.43558
2.43035
2.42591
2.42211
2.4189
2.41611
2.41363
2.35106
2.34273
2.33662
2.33373
2.33265
2.33377
2.33732
2.3434
2.3519
2.36034
2.3724
2.38546
2.39945
2.41461
2.43029
2.44701
2.463
2.479
2.49496
2.51038
2.5233
2.53487
2.5449
2.55674
2.56387
2.57359
2.57685
2.5723
2.57247
2.56829
2.56637
2.55971
2.55285
2.54532
2.5374
2.52899
2.51992
2.5101
2.49958
2.48854
2.47724
2.46602
2.45521
2.44514
2.43608
2.42824
2.42174
2.4165
2.41245
2.40941
2.40719
2.40558
2.40433
2.4033
2.3643
2.35414
2.34787
2.34425
2.34243
2.34245
2.345
2.35033
2.35837
2.36572
2.37669
2.38884
2.40074
2.41294
2.43097
2.4491
2.46355
2.47839
2.49137
2.50466
2.51859
2.5298
2.53737
2.54621
2.55798
2.56382
2.5657
2.56305
2.55853
2.5565
2.55063
2.54379
2.53624
2.52813
2.51956
2.51047
2.50074
2.4903
2.47923
2.46771
2.45603
2.44452
2.43355
2.42345
2.41451
2.40696
2.40102
2.3967
2.39412
2.39269
2.39235
2.39262
2.39311
2.39359
2.37752
2.36938
2.3609
2.35684
2.3548
2.35408
2.35586
2.36064
2.36809
2.37631
2.38686
2.39782
2.40954
2.42157
2.43273
2.44739
2.46491
2.47706
2.49125
2.50341
2.51209
2.52827
2.53533
2.54052
2.54425
2.55595
2.55221
2.55025
2.54641
2.5415
2.53557
2.52779
2.51948
2.51069
2.50139
2.49153
2.48101
2.46983
2.4581
2.446
2.43385
2.42201
2.41084
2.40073
2.39197
2.3848
2.37976
2.37668
2.37564
2.37609
2.37781
2.38015
2.38251
2.38452
2.39246
2.384
2.37546
2.37318
2.36891
2.36769
2.36935
2.3728
2.37851
2.38473
2.39411
2.40468
2.41348
2.4252
2.43787
2.45234
2.46912
2.48142
2.48757
2.50275
2.51518
2.52433
2.527
2.54314
2.53368
2.53939
2.54186
2.53721
2.53311
2.52758
2.52016
2.51178
2.50282
2.49324
2.48308
2.47231
2.46089
2.44883
2.43628
2.42347
2.41072
2.39841
2.38695
2.37674
2.36815
2.36165
2.3578
2.3563
2.3568
2.35942
2.36366
2.3687
2.37318
2.3768
2.40627
2.39956
2.39233
2.38713
2.38596
2.38301
2.38596
2.3877
2.39284
2.39783
2.40564
2.41742
2.42623
2.4346
2.44667
2.45348
2.46499
2.47973
2.49458
2.50341
2.5123
2.52662
2.52798
2.52954
2.53058
2.52905
2.53015
2.52514
2.5203
2.51358
2.50528
2.49626
2.48645
2.47597
2.46483
2.45301
2.44053
2.42744
2.41391
2.40021
2.38669
2.37377
2.36186
2.35147
2.34298
2.33754
2.33508
2.33489
2.33746
2.34271
2.34998
2.35835
2.36581
2.37088
2.41955
2.41322
2.40753
2.40373
2.40166
2.40055
2.39904
2.40111
2.40313
2.40658
2.41646
2.42262
2.4313
2.44135
2.45301
2.46512
2.47484
2.48517
2.49517
2.50517
2.51243
2.51606
2.52101
2.52045
2.52326
2.5202
2.51917
2.51392
2.50793
2.50019
2.49131
2.48133
2.47063
2.45912
2.44687
2.43387
2.42017
2.40587
2.39118
2.3764
2.3619
2.34818
2.3357
2.32497
2.31681
2.31248
2.31122
2.31279
2.31801
2.32628
2.33743
2.34974
2.36114
2.3676
2.43167
2.42594
2.42141
2.4185
2.41638
2.41513
2.41545
2.41736
2.42056
2.4242
2.43159
2.43761
2.44512
2.45295
2.46218
2.47096
2.48056
2.49177
2.50388
2.5144
2.5085
2.51048
2.51636
2.51607
2.51656
2.51401
2.50933
2.50363
2.49645
2.48787
2.47815
2.46734
2.45557
2.44298
2.42949
2.41517
2.40009
2.38442
2.36838
2.35233
2.33663
2.32202
2.3088
2.29797
2.29029
2.2868
2.28679
2.29069
2.29883
2.31085
2.32597
2.34335
2.35974
2.36784
2.4418
2.43699
2.43319
2.43111
2.43003
2.42756
2.42939
2.43086
2.43336
2.43721
2.44268
2.44845
2.45487
2.46224
2.47145
2.48423
2.49524
2.50206
2.5059
2.50702
2.51149
2.51041
2.51487
2.51289
2.51042
2.50672
2.50103
2.49437
2.48622
2.4768
2.46617
2.4544
2.44162
2.42776
2.41297
2.39722
2.38068
2.36349
2.34596
2.32852
2.31181
2.29609
2.28198
2.27062
2.2639
2.26161
2.26259
2.26926
2.2808
2.29707
2.31669
2.34
2.36312
2.37409
2.45429
2.4498
2.44609
2.44342
2.44234
2.44261
2.44334
2.44502
2.44857
2.45246
2.45801
2.4644
2.47156
2.47902
2.48509
2.49014
2.49801
2.5017
2.50725
2.50756
2.51113
2.51107
2.51104
2.50947
2.5056
2.50061
2.49411
2.48643
2.47741
2.46709
2.45556
2.44282
2.42892
2.41389
2.39775
2.38059
2.36248
2.34377
2.32472
2.3059
2.28792
2.27139
2.25709
2.24538
2.23964
2.238
2.24162
2.25173
2.26751
2.28807
2.31217
2.34065
2.37114
2.38757
2.46797
2.46386
2.46051
2.45778
2.4561
2.45588
2.45614
2.45745
2.45991
2.46296
2.46764
2.47316
2.47948
2.48638
2.49088
2.49556
2.50029
2.50484
2.50787
2.50998
2.51121
2.51069
2.50906
2.50593
2.50132
2.49546
2.48825
2.47977
2.46996
2.45884
2.44643
2.43273
2.41776
2.40155
2.3841
2.36561
2.34612
2.32591
2.30553
2.28575
2.26677
2.24971
2.23507
2.22442
2.21981
2.21968
2.22609
2.23933
2.25782
2.28046
2.30658
2.33606
2.36849
2.39481
2.48128
2.47739
2.47422
2.47176
2.47012
2.46963
2.46979
2.47042
2.47204
2.47479
2.47856
2.48286
2.4879
2.49322
2.49665
2.50065
2.50488
2.50775
2.51007
2.5111
2.51122
2.50989
2.50725
2.50325
2.49796
2.49142
2.48355
2.4744
2.46389
2.45204
2.43885
2.42429
2.40836
2.39104
2.37252
2.35274
2.33201
2.31062
2.28919
2.26846
2.24895
2.23154
2.21715
2.20763
2.20382
2.20528
2.21345
2.2274
2.24628
2.26949
2.29616
2.32502
2.3538
2.37641
2.49352
2.48982
2.48684
2.48442
2.48264
2.48175
2.48147
2.4818
2.48311
2.48517
2.48803
2.49145
2.49521
2.49882
2.50213
2.50529
2.50831
2.51055
2.5116
2.51188
2.51111
2.50901
2.50578
2.50117
2.49539
2.48829
2.47991
2.47022
2.45916
2.44672
2.43287
2.41756
2.4008
2.38261
2.36306
2.34227
2.32049
2.29824
2.27586
2.25443
2.23438
2.21698
2.20274
2.19364
2.19049
2.1924
2.2005
2.21403
2.23235
2.25465
2.2797
2.30551
2.32729
2.33768
2.5046
2.50105
2.49795
2.49568
2.49365
2.49229
2.49167
2.49159
2.49233
2.49369
2.49576
2.49817
2.50092
2.50367
2.50626
2.50876
2.51088
2.51222
2.51265
2.51225
2.51082
2.50825
2.50451
2.49955
2.49336
2.48595
2.47722
2.46717
2.45572
2.44282
2.42848
2.41259
2.39517
2.37627
2.35591
2.33431
2.31181
2.28878
2.2656
2.24353
2.22338
2.20571
2.1915
2.18242
2.17883
2.1805
2.18754
2.20026
2.21756
2.23842
2.26146
2.28462
2.30377
2.31538
2.51464
2.51112
2.50799
2.50537
2.50311
2.5014
2.50027
2.49977
2.49984
2.50057
2.50184
2.50347
2.50541
2.5074
2.50934
2.5111
2.51251
2.51315
2.51313
2.51223
2.51038
2.50747
2.50344
2.49826
2.49188
2.48427
2.47535
2.46508
2.4534
2.44025
2.42555
2.40928
2.39143
2.37199
2.35108
2.32889
2.30577
2.28219
2.25853
2.23606
2.2154
2.19741
2.18312
2.17311
2.16863
2.16922
2.17526
2.1867
2.20268
2.22201
2.24315
2.26451
2.28488
2.30846
2.69884
2.69993
2.70053
2.70064
2.70028
2.6994
2.69797
2.69603
2.69357
2.6906
2.68713
2.68317
2.67875
2.67389
2.66862
2.66296
2.65697
2.6507
2.64407
2.63727
2.69473
2.6957
2.6962
2.69619
2.69571
2.6947
2.69315
2.69111
2.68856
2.68551
2.68198
2.67798
2.67354
2.66867
2.66341
2.65779
2.65186
2.64565
2.63923
2.6326
2.69021
2.69102
2.69139
2.69128
2.69066
2.68949
2.68782
2.68566
2.68301
2.67988
2.67628
2.67223
2.66776
2.66288
2.65764
2.65207
2.64622
2.64013
2.63384
2.62743
2.68528
2.6859
2.68609
2.68584
2.68508
2.68375
2.68193
2.67963
2.67686
2.67364
2.66996
2.66586
2.66136
2.65648
2.65126
2.64575
2.63998
2.63401
2.62788
2.62165
2.67991
2.68031
2.68028
2.67984
2.67889
2.67742
2.67543
2.67297
2.67007
2.66673
2.66297
2.65881
2.65427
2.64939
2.6442
2.63875
2.63308
2.62725
2.62132
2.61532
2.67409
2.67422
2.67394
2.67323
2.67205
2.6704
2.66825
2.66563
2.66258
2.6591
2.65525
2.65101
2.64645
2.64157
2.63641
2.63103
2.62547
2.6198
2.61407
2.60835
2.6678
2.66762
2.66703
2.666
2.66453
2.66264
2.66031
2.65751
2.65429
2.65068
2.64672
2.64242
2.63782
2.63295
2.62783
2.62252
2.61708
2.61158
2.60608
2.60064
2.66102
2.66047
2.6595
2.65812
2.65633
2.65414
2.65156
2.64857
2.64517
2.64142
2.63735
2.63298
2.62835
2.62348
2.61842
2.61317
2.60786
2.60253
2.5973
2.59217
2.65376
2.65277
2.65138
2.64962
2.64744
2.6449
2.64203
2.63879
2.6352
2.63129
2.62711
2.62268
2.61803
2.61317
2.60811
2.60298
2.59778
2.59279
2.58764
2.58285
2.64604
2.64456
2.64269
2.64053
2.63793
2.63498
2.6318
2.62827
2.62446
2.62038
2.61612
2.61162
2.60694
2.6021
2.59711
2.592
2.58699
2.58261
2.5769
2.57279
2.63795
2.63602
2.63347
2.63093
2.62779
2.62443
2.62126
2.61707
2.61314
2.60889
2.6046
2.59995
2.59527
2.59045
2.58553
2.5801
2.57471
2.57258
2.56473
2.56291
2.6298
2.62738
2.62404
2.62076
2.61726
2.6132
2.60999
2.60597
2.60159
2.59736
2.59291
2.58816
2.58338
2.57876
2.5746
2.56826
2.56493
2.55744
2.55792
2.54138
2.62158
2.61906
2.61371
2.61001
2.60577
2.60165
2.59745
2.59289
2.58817
2.58333
2.5785
2.57301
2.56779
2.56289
2.55838
2.55346
2.54793
2.54364
2.54068
2.53374
2.61118
2.6086
2.60139
2.59659
2.59127
2.58677
2.58164
2.57548
2.56889
2.56225
2.55577
2.55058
2.54543
2.54058
2.53611
2.53247
2.5276
2.52623
2.52108
2.52043
2.59729
2.59284
2.58883
2.58207
2.575
2.5679
2.56051
2.55293
2.54551
2.53856
2.53219
2.5268
2.52193
2.51752
2.51362
2.51038
2.50747
2.50579
2.50361
2.50329
2.58744
2.57745
2.5701
2.56325
2.55479
2.54606
2.53764
2.52951
2.52184
2.51476
2.50833
2.50293
2.49823
2.49433
2.49121
2.48876
2.48705
2.48608
2.48544
2.48563
2.5704
2.56169
2.55236
2.54306
2.53333
2.52345
2.5145
2.50545
2.49731
2.48991
2.48332
2.47799
2.47357
2.47028
2.46805
2.46671
2.46574
2.46595
2.46663
2.46777
2.55611
2.54502
2.5338
2.52253
2.51133
2.50014
2.49088
2.48059
2.47185
2.46417
2.45778
2.45277
2.44922
2.44677
2.44538
2.44531
2.44521
2.44636
2.44832
2.45058
2.53971
2.52775
2.51562
2.50245
2.48996
2.47664
2.46841
2.45729
2.44761
2.43938
2.43331
2.42876
2.42581
2.42444
2.42437
2.42545
2.42687
2.42918
2.4322
2.43496
2.52467
2.51164
2.49985
2.48552
2.47156
2.45773
2.44513
2.4344
2.4251
2.4174
2.41165
2.40773
2.40571
2.40514
2.40628
2.40783
2.41067
2.41444
2.41748
2.4224
2.51256
2.49752
2.48136
2.46767
2.45389
2.44041
2.42742
2.41572
2.40576
2.39781
2.3921
2.38872
2.3874
2.38783
2.3899
2.39295
2.397
2.40158
2.40589
2.41113
2.49839
2.48445
2.46963
2.45496
2.44003
2.42526
2.41112
2.39833
2.38744
2.37891
2.37309
2.37005
2.3696
2.37117
2.37453
2.37896
2.38414
2.38991
2.39556
2.40107
2.49001
2.47533
2.45956
2.44353
2.42718
2.41112
2.39598
2.38239
2.3709
2.36199
2.35607
2.35321
2.35334
2.35585
2.36035
2.36597
2.37227
2.3787
2.38533
2.3921
2.48279
2.46706
2.45062
2.43341
2.41619
2.39934
2.38348
2.3693
2.35751
2.34848
2.34253
2.33983
2.34041
2.34346
2.34867
2.35482
2.36247
2.3699
2.37736
2.38463
2.47641
2.46017
2.44328
2.42569
2.40785
2.39046
2.37429
2.35967
2.34794
2.33904
2.33316
2.33036
2.33067
2.33403
2.33969
2.34636
2.35341
2.36112
2.36943
2.37829
2.47125
2.45512
2.4383
2.42033
2.40215
2.38467
2.36864
2.35497
2.34335
2.33433
2.32836
2.3253
2.32489
2.32752
2.33266
2.33933
2.34708
2.35582
2.3653
2.37544
2.46757
2.45166
2.43471
2.41735
2.39994
2.38293
2.36716
2.35389
2.34272
2.33412
2.32828
2.32504
2.32428
2.32652
2.33131
2.3378
2.34579
2.35501
2.36523
2.37654
2.46489
2.44933
2.43302
2.41654
2.39995
2.38388
2.36931
2.35652
2.34598
2.33786
2.33232
2.32947
2.32896
2.33095
2.3352
2.34169
2.3498
2.35953
2.37056
2.38302
2.46244
2.4475
2.43225
2.41706
2.40204
2.38724
2.37432
2.36157
2.35207
2.34436
2.33935
2.33713
2.33694
2.33891
2.34326
2.34995
2.35842
2.36834
2.37997
2.39309
2.46036
2.44648
2.43263
2.41886
2.40521
2.39206
2.3802
2.36903
2.36091
2.35292
2.34883
2.34738
2.34757
2.35002
2.35477
2.36189
2.37091
2.38161
2.39382
2.40742
2.45836
2.44558
2.43263
2.41999
2.40834
2.39741
2.3881
2.37665
2.37142
2.36321
2.36044
2.35973
2.36091
2.36368
2.36958
2.37701
2.38609
2.3966
2.40822
2.421
2.45614
2.4444
2.43295
2.42191
2.41135
2.40153
2.39199
2.38472
2.37852
2.37475
2.37074
2.37155
2.3744
2.37767
2.38449
2.39152
2.40037
2.41081
2.42274
2.4361
2.45343
2.44285
2.43245
2.42251
2.41356
2.4053
2.39775
2.39117
2.38684
2.38311
2.38139
2.3837
2.38607
2.39096
2.39708
2.40473
2.41393
2.42447
2.43625
2.44981
2.44999
2.44061
2.43156
2.42292
2.41491
2.40795
2.40179
2.39722
2.39365
2.39191
2.39177
2.39397
2.39767
2.40296
2.40971
2.41792
2.4273
2.43802
2.44991
2.46281
2.44594
2.43773
2.43004
2.42272
2.41597
2.41044
2.40554
2.40209
2.39994
2.39937
2.40057
2.40346
2.40793
2.41392
2.42131
2.43001
2.43987
2.45076
2.46257
2.47521
2.4414
2.43381
2.42815
2.42172
2.41658
2.41187
2.40839
2.40593
2.405
2.40556
2.4078
2.41161
2.41687
2.42359
2.43161
2.44078
2.4511
2.46225
2.47413
2.48663
2.43646
2.42981
2.42532
2.42022
2.41648
2.41226
2.41044
2.40839
2.4088
2.4098
2.4137
2.41851
2.42427
2.43184
2.44049
2.44987
2.46076
2.47214
2.48407
2.49641
2.42844
2.4233
2.41876
2.41497
2.41281
2.40978
2.40913
2.40866
2.40914
2.41184
2.41646
2.42229
2.42964
2.43662
2.44596
2.45622
2.46735
2.47908
2.49114
2.5032
2.42167
2.41799
2.41448
2.41191
2.41134
2.40928
2.41173
2.41123
2.41253
2.41579
2.42112
2.42726
2.43518
2.44431
2.45386
2.46496
2.47687
2.48951
2.50256
2.51567
2.4113
2.4091
2.40737
2.40627
2.40638
2.40715
2.40799
2.40999
2.41273
2.41811
2.42462
2.43156
2.44093
2.4511
2.46224
2.47416
2.48694
2.50034
2.51403
2.52782
2.40224