/*--------------------------------*- C++ -*----------------------------------*\
  =========                 |
  \\      /  F ield         | OpenFOAM: The Open Source CFD Toolbox
   \\    /   O peration     | Website:  https://openfoam.org
    \\  /    A nd           | Version:  10
     \\/     M anipulation  |
\*---------------------------------------------------------------------------*/
FoamFile
{
    format      ascii;
    class       volVectorField;
    location    "0.996516";
    object      U;
}
// * * * * * * * * * * * * * * * * * * * * * * * * * * * * * * * * * * * * * //

dimensions      [0 1 -1 0 0 0 0];

internalField   nonuniform List<vector> 
15984
(
(0.644195 -0.12706 0)
(0.629638 -0.126021 0)
(0.614811 -0.124833 0)
(0.599723 -0.123435 0)
(0.584606 -0.121909 0)
(0.569437 -0.1203 0)
(0.554184 -0.118634 0)
(0.539025 -0.116968 0)
(0.523916 -0.115327 0)
(0.508939 -0.113737 0)
(0.494132 -0.11222 0)
(0.479529 -0.110793 0)
(0.465166 -0.109468 0)
(0.451076 -0.108252 0)
(0.437294 -0.107148 0)
(0.423849 -0.106157 0)
(0.410774 -0.105276 0)
(0.398096 -0.104498 0)
(0.385843 -0.103816 0)
(0.37404 -0.103219 0)
(0.362713 -0.102695 0)
(0.351881 -0.102231 0)
(0.341565 -0.101812 0)
(0.331783 -0.101425 0)
(0.322551 -0.101053 0)
(0.313882 -0.100679 0)
(0.305787 -0.100288 0)
(0.298277 -0.0998624 0)
(0.291359 -0.0993838 0)
(0.285038 -0.098835 0)
(0.279321 -0.0981977 0)
(0.274208 -0.0974534 0)
(0.269703 -0.096583 0)
(0.265804 -0.0955676 0)
(0.262512 -0.0943873 0)
(0.259823 -0.0930225 0)
(0.257737 -0.0914534 0)
(0.256246 -0.0896596 0)
(0.255346 -0.0876204 0)
(0.25503 -0.085316 0)
(0.255288 -0.0827258 0)
(0.256114 -0.0798296 0)
(0.257496 -0.0766084 0)
(0.259421 -0.0730431 0)
(0.261877 -0.0691144 0)
(0.26485 -0.0648045 0)
(0.268323 -0.0600963 0)
(0.272279 -0.0549738 0)
(0.276699 -0.049422 0)
(0.281563 -0.0434281 0)
(0.286848 -0.0369809 0)
(0.29253 -0.0300721 0)
(0.298584 -0.022696 0)
(0.304984 -0.0148507 0)
(0.645284 -0.116381 0)
(0.631022 -0.11499 0)
(0.616262 -0.113542 0)
(0.601393 -0.11184 0)
(0.586377 -0.110064 0)
(0.571133 -0.108281 0)
(0.555889 -0.106474 0)
(0.540676 -0.104736 0)
(0.525519 -0.103061 0)
(0.510464 -0.101482 0)
(0.495556 -0.100021 0)
(0.480837 -0.0986947 0)
(0.466348 -0.097513 0)
(0.452127 -0.0964818 0)
(0.438211 -0.0956031 0)
(0.424636 -0.0948752 0)
(0.411433 -0.094293 0)
(0.398636 -0.0938484 0)
(0.386272 -0.0935308 0)
(0.374371 -0.0933274 0)
(0.362958 -0.0932241 0)
(0.352055 -0.0932054 0)
(0.341685 -0.0932551 0)
(0.331866 -0.0933561 0)
(0.322614 -0.0934906 0)
(0.313944 -0.0936405 0)
(0.305868 -0.0937867 0)
(0.298395 -0.0939105 0)
(0.291533 -0.0939923 0)
(0.285289 -0.0940128 0)
(0.279667 -0.0939521 0)
(0.274671 -0.0937903 0)
(0.270301 -0.093507 0)
(0.266559 -0.093082 0)
(0.263443 -0.0924935 0)
(0.260952 -0.09172 0)
(0.259082 -0.0907407 0)
(0.257829 -0.0895337 0)
(0.257187 -0.0880768 0)
(0.257149 -0.086348 0)
(0.257708 -0.0843246 0)
(0.258854 -0.0819853 0)
(0.260576 -0.0793088 0)
(0.262862 -0.0762727 0)
(0.265698 -0.072856 0)
(0.26907 -0.0690383 0)
(0.272959 -0.0647997 0)
(0.277348 -0.0601215 0)
(0.282216 -0.0549858 0)
(0.287541 -0.0493771 0)
(0.293296 -0.0432815 0)
(0.299457 -0.036688 0)
(0.305995 -0.0295887 0)
(0.312879 -0.0219796 0)
(0.646727 -0.105963 0)
(0.63263 -0.104225 0)
(0.618066 -0.102433 0)
(0.60327 -0.100324 0)
(0.588208 -0.0984118 0)
(0.573057 -0.0963461 0)
(0.557746 -0.0943861 0)
(0.54245 -0.0925045 0)
(0.52718 -0.0907531 0)
(0.511989 -0.0891534 0)
(0.496929 -0.0877225 0)
(0.482046 -0.0864744 0)
(0.467385 -0.0854177 0)
(0.45299 -0.0845564 0)
(0.4389 -0.0838907 0)
(0.425153 -0.0834166 0)
(0.411788 -0.083127 0)
(0.398836 -0.0830115 0)
(0.386331 -0.0830573 0)
(0.374301 -0.0832494 0)
(0.362775 -0.0835713 0)
(0.351776 -0.0840052 0)
(0.341329 -0.0845323 0)
(0.331453 -0.0851333 0)
(0.322164 -0.0857879 0)
(0.313477 -0.0864756 0)
(0.305405 -0.0871756 0)
(0.297957 -0.0878669 0)
(0.291141 -0.0885284 0)
(0.284965 -0.0891389 0)
(0.279432 -0.0896769 0)
(0.274547 -0.0901211 0)
(0.27031 -0.0904494 0)
(0.266722 -0.0906396 0)
(0.263783 -0.0906695 0)
(0.261491 -0.0905162 0)
(0.259842 -0.0901563 0)
(0.258831 -0.0895662 0)
(0.258455 -0.0887228 0)
(0.258706 -0.0876012 0)
(0.259575 -0.0861777 0)
(0.261053 -0.0844287 0)
(0.26313 -0.0823291 0)
(0.265794 -0.0798549 0)
(0.26903 -0.0769826 0)
(0.272822 -0.0736884 0)
(0.277152 -0.0699494 0)
(0.282001 -0.0657433 0)
(0.287347 -0.0610493 0)
(0.293164 -0.0558479 0)
(0.299426 -0.0501224 0)
(0.306103 -0.0438583 0)
(0.313164 -0.0370447 0)
(0.320574 -0.0296751 0)
(0.648584 -0.0958225 0)
(0.634626 -0.0937059 0)
(0.620215 -0.0913542 0)
(0.60544 -0.0890587 0)
(0.590384 -0.0866859 0)
(0.575188 -0.0844321 0)
(0.559761 -0.0822574 0)
(0.544341 -0.0802266 0)
(0.528903 -0.0783734 0)
(0.513528 -0.0767227 0)
(0.498267 -0.0752934 0)
(0.483171 -0.074099 0)
(0.468292 -0.0731469 0)
(0.453675 -0.0724397 0)
(0.439367 -0.0719754 0)
(0.425408 -0.0717475 0)
(0.411838 -0.0717462 0)
(0.398694 -0.0719585 0)
(0.386012 -0.0723692 0)
(0.373822 -0.0729609 0)
(0.362154 -0.0737147 0)
(0.351034 -0.0746104 0)
(0.340486 -0.0756264 0)
(0.33053 -0.0767405 0)
(0.321183 -0.0779301 0)
(0.312462 -0.0791721 0)
(0.304378 -0.0804436 0)
(0.296941 -0.0817216 0)
(0.290161 -0.0829831 0)
(0.284043 -0.0842053 0)
(0.278593 -0.0853651 0)
(0.273813 -0.0864394 0)
(0.269705 -0.0874048 0)
(0.26627 -0.0882375 0)
(0.263507 -0.0889136 0)
(0.261414 -0.0894089 0)
(0.259988 -0.089699 0)
(0.259225 -0.0897575 0)
(0.25912 -0.0895591 0)
(0.259667 -0.0890784 0)
(0.260856 -0.0882896 0)
(0.262679 -0.0871649 0)
(0.265126 -0.0856777 0)
(0.268184 -0.0838013 0)
(0.271838 -0.0815085 0)
(0.276072 -0.0787724 0)
(0.280868 -0.0755662 0)
(0.286205 -0.0718639 0)
(0.292059 -0.0676405 0)
(0.298404 -0.0628727 0)
(0.305211 -0.0575392 0)
(0.312446 -0.051622 0)
(0.320074 -0.0451064 0)
(0.328056 -0.0379823 0)
(0.650927 -0.0859122 0)
(0.637134 -0.0833402 0)
(0.622729 -0.0804646 0)
(0.607954 -0.0778213 0)
(0.59285 -0.0750295 0)
(0.577506 -0.0724988 0)
(0.56198 -0.0700603 0)
(0.546369 -0.0678406 0)
(0.530725 -0.0658513 0)
(0.515114 -0.0641214 0)
(0.499601 -0.0626706 0)
(0.484241 -0.0615104 0)
(0.46909 -0.0606472 0)
(0.454202 -0.0600821 0)
(0.439625 -0.0598107 0)
(0.425406 -0.0598246 0)
(0.411589 -0.0601108 0)
(0.398212 -0.0606537 0)
(0.385314 -0.0614349 0)
(0.372929 -0.0624341 0)
(0.361087 -0.0636296 0)
(0.349816 -0.0649983 0)
(0.339141 -0.0665159 0)
(0.329081 -0.0681578 0)
(0.319656 -0.0698985 0)
(0.310881 -0.0717128 0)
(0.302769 -0.0735752 0)
(0.29533 -0.0754607 0)
(0.288573 -0.0773442 0)
(0.282504 -0.0792013 0)
(0.277127 -0.0810068 0)
(0.272446 -0.0827363 0)
(0.268462 -0.0843649 0)
(0.265176 -0.0858673 0)
(0.262587 -0.0872184 0)
(0.260693 -0.0883924 0)
(0.259492 -0.0893622 0)
(0.25898 -0.0901013 0)
(0.259151 -0.0905818 0)
(0.259998 -0.0907773 0)
(0.261516 -0.0906581 0)
(0.263694 -0.0901948 0)
(0.266523 -0.0893581 0)
(0.26999 -0.0881177 0)
(0.274081 -0.0864431 0)
(0.278779 -0.0843034 0)
(0.284066 -0.0816671 0)
(0.289919 -0.0785042 0)
(0.296316 -0.074785 0)
(0.303226 -0.0704809 0)
(0.310618 -0.0655658 0)
(0.318456 -0.0600169 0)
(0.326699 -0.0538149 0)
(0.335303 -0.0469455 0)
(0.653807 -0.0762909 0)
(0.640089 -0.0730264 0)
(0.625748 -0.0697818 0)
(0.610906 -0.0665244 0)
(0.59574 -0.0633992 0)
(0.5802 -0.0604665 0)
(0.564468 -0.0577428 0)
(0.548604 -0.055286 0)
(0.53268 -0.053128 0)
(0.516768 -0.0512939 0)
(0.500938 -0.0498018 0)
(0.485254 -0.0486627 0)
(0.469777 -0.0478806 0)
(0.454564 -0.0474533 0)
(0.439669 -0.0473733 0)
(0.425142 -0.0476289 0)
(0.411031 -0.0482048 0)
(0.397379 -0.0490828 0)
(0.384226 -0.0502418 0)
(0.371609 -0.0516587 0)
(0.35956 -0.053308 0)
(0.348107 -0.0551629 0)
(0.337276 -0.057196 0)
(0.327088 -0.0593801 0)
(0.317562 -0.0616876 0)
(0.308713 -0.0640911 0)
(0.300556 -0.0665631 0)
(0.293099 -0.0690765 0)
(0.286352 -0.071604 0)
(0.280321 -0.0741189 0)
(0.275009 -0.0765946 0)
(0.270419 -0.0790047 0)
(0.266554 -0.0813229 0)
(0.263412 -0.0835226 0)
(0.260994 -0.0855773 0)
(0.259298 -0.0874597 0)
(0.258322 -0.0891411 0)
(0.258061 -0.0905936 0)
(0.258509 -0.091789 0)
(0.259662 -0.0926964 0)
(0.261514 -0.0932845 0)
(0.264056 -0.0935219 0)
(0.267278 -0.0933759 0)
(0.271167 -0.0928131 0)
(0.275712 -0.0917985 0)
(0.280895 -0.0902967 0)
(0.286698 -0.088272 0)
(0.293099 -0.085689 0)
(0.300071 -0.0825123 0)
(0.307586 -0.0787074 0)
(0.315607 -0.0742419 0)
(0.324094 -0.0690867 0)
(0.333 -0.0632167 0)
(0.342275 -0.0566131 0)
(0.657339 -0.0667815 0)
(0.643677 -0.0627785 0)
(0.629273 -0.0590301 0)
(0.614386 -0.0551779 0)
(0.598961 -0.0516219 0)
(0.58322 -0.0482843 0)
(0.567222 -0.04523 0)
(0.551047 -0.0425076 0)
(0.534782 -0.0401505 0)
(0.518506 -0.0381816 0)
(0.502296 -0.0366165 0)
(0.486225 -0.0354656 0)
(0.470362 -0.0347331 0)
(0.454768 -0.0344182 0)
(0.439502 -0.0345136 0)
(0.424618 -0.0350057 0)
(0.410166 -0.0358757 0)
(0.396192 -0.0371005 0)
(0.382741 -0.0386541 0)
(0.36985 -0.0405093 0)
(0.357555 -0.0426369 0)
(0.345887 -0.0450062 0)
(0.33487 -0.0475861 0)
(0.324527 -0.0503448 0)
(0.314877 -0.0532511 0)
(0.305935 -0.0562741 0)
(0.297714 -0.0593842 0)
(0.290225 -0.0625523 0)
(0.283475 -0.0657497 0)
(0.27747 -0.0689482 0)
(0.272214 -0.0721198 0)
(0.267709 -0.0752367 0)
(0.263954 -0.0782715 0)
(0.260952 -0.0811964 0)
(0.258701 -0.0839838 0)
(0.257199 -0.0866047 0)
(0.256444 -0.0890303 0)
(0.256432 -0.0912311 0)
(0.257158 -0.0931762 0)
(0.258619 -0.0948324 0)
(0.260809 -0.0961669 0)
(0.263719 -0.097146 0)
(0.267341 -0.0977341 0)
(0.271665 -0.0978931 0)
(0.27668 -0.0975836 0)
(0.282368 -0.0967659 0)
(0.288712 -0.0953994 0)
(0.295689 -0.0934423 0)
(0.303273 -0.0908519 0)
(0.311432 -0.0875862 0)
(0.320124 -0.0836055 0)
(0.329304 -0.078872 0)
(0.338914 -0.0733536 0)
(0.348893 -0.0670291 0)
(0.661593 -0.0572488 0)
(0.647882 -0.0526654 0)
(0.633386 -0.0481062 0)
(0.618351 -0.0437951 0)
(0.602673 -0.0396941 0)
(0.586637 -0.0358946 0)
(0.570295 -0.0324567 0)
(0.55374 -0.0294251 0)
(0.537068 -0.0268371 0)
(0.520372 -0.0247225 0)
(0.50373 -0.0231018 0)
(0.487218 -0.0219846 0)
(0.470905 -0.0213593 0)
(0.454858 -0.0212098 0)
(0.439145 -0.0215172 0)
(0.423829 -0.0222621 0)
(0.408967 -0.0234267 0)
(0.394613 -0.0249894 0)
(0.380811 -0.0269252 0)
(0.367601 -0.029206 0)
(0.35502 -0.0317996 0)
(0.343098 -0.034672 0)
(0.331864 -0.0377899 0)
(0.321341 -0.0411197 0)
(0.311549 -0.0446279 0)
(0.3025 -0.0482808 0)
(0.294206 -0.0520449 0)
(0.286675 -0.0558877 0)
(0.279914 -0.0597775 0)
(0.273927 -0.0636836 0)
(0.268718 -0.0675762 0)
(0.264288 -0.0714257 0)
(0.260638 -0.0752038 0)
(0.257768 -0.0788817 0)
(0.255677 -0.0824305 0)
(0.254363 -0.0858204 0)
(0.253825 -0.0890216 0)
(0.254058 -0.0920039 0)
(0.255059 -0.0947336 0)
(0.256826 -0.0971766 0)
(0.259353 -0.0992984 0)
(0.262633 -0.101063 0)
(0.266662 -0.10243 0)
(0.271431 -0.103358 0)
(0.276928 -0.103804 0)
(0.283139 -0.103722 0)
(0.290046 -0.103067 0)
(0.297629 -0.101785 0)
(0.305858 -0.0998313 0)
(0.314697 -0.0971475 0)
(0.324095 -0.0936875 0)
(0.333994 -0.0894008 0)
(0.344318 -0.0842479 0)
(0.35499 -0.0782091 0)
(0.666564 -0.0477476 0)
(0.652846 -0.0424791 0)
(0.638159 -0.0371184 0)
(0.622818 -0.0321796 0)
(0.60689 -0.0275045 0)
(0.590495 -0.0232168 0)
(0.573739 -0.0193903 0)
(0.55673 -0.0160708 0)
(0.539568 -0.013279 0)
(0.522351 -0.0110162 0)
(0.505169 -0.00927985 0)
(0.488115 -0.00807089 0)
(0.471274 -0.00741344 0)
(0.454717 -0.00731631 0)
(0.438513 -0.0077744 0)
(0.422726 -0.00876917 0)
(0.407417 -0.0102634 0)
(0.392643 -0.0122181 0)
(0.378451 -0.0145935 0)
(0.364884 -0.0173523 0)
(0.351982 -0.0204631 0)
(0.339778 -0.0238952 0)
(0.328301 -0.0276131 0)
(0.317572 -0.0315758 0)
(0.307609 -0.0357413 0)
(0.298426 -0.0400696 0)
(0.290034 -0.0445244 0)
(0.28244 -0.0490723 0)
(0.27565 -0.0536813 0)
(0.269667 -0.0583202 0)
(0.264494 -0.0629586 0)
(0.26013 -0.0675662 0)
(0.256576 -0.0721136 0)
(0.25383 -0.0765713 0)
(0.251891 -0.0809096 0)
(0.250759 -0.0850977 0)
(0.250429 -0.0891066 0)
(0.250899 -0.0929033 0)
(0.252169 -0.0964534 0)
(0.254237 -0.0997222 0)
(0.257096 -0.102673 0)
(0.260746 -0.105268 0)
(0.265184 -0.107462 0)
(0.270403 -0.109209 0)
(0.276392 -0.110464 0)
(0.28314 -0.111174 0)
(0.290632 -0.111285 0)
(0.298844 -0.110737 0)
(0.307744 -0.10947 0)
(0.317285 -0.107412 0)
(0.327395 -0.104499 0)
(0.337996 -0.100667 0)
(0.348974 -0.0958741 0)
(0.360242 -0.0900826 0)
(0.672401 -0.038207 0)
(0.658501 -0.0320991 0)
(0.643677 -0.025992 0)
(0.627962 -0.0203385 0)
(0.611647 -0.0150143 0)
(0.594788 -0.0102144 0)
(0.577522 -0.00591856 0)
(0.559972 -0.00213137 0)
(0.542237 0.00107103 0)
(0.524417 0.00362633 0)
(0.506621 0.00550117 0)
(0.488947 0.00669552 0)
(0.471492 0.00722695 0)
(0.454345 0.00712251 0)
(0.437582 0.00641099 0)
(0.42127 0.00512135 0)
(0.405472 0.00328038 0)
(0.390243 0.000916367 0)
(0.375637 -0.00193859 0)
(0.361699 -0.00524883 0)
(0.348459 -0.00894336 0)
(0.335941 -0.0129528 0)
(0.324179 -0.0172511 0)
(0.313204 -0.0218247 0)
(0.303036 -0.0266355 0)
(0.29369 -0.0316442 0)
(0.285176 -0.0368083 0)
(0.277499 -0.0420876 0)
(0.270664 -0.0474447 0)
(0.264671 -0.0528453 0)
(0.259521 -0.0582572 0)
(0.255212 -0.0636496 0)
(0.251743 -0.0689927 0)
(0.249111 -0.0742566 0)
(0.247315 -0.0794113 0)
(0.246352 -0.0844264 0)
(0.246219 -0.0892728 0)
(0.246918 -0.0939163 0)
(0.248447 -0.098322 0)
(0.250804 -0.102455 0)
(0.253989 -0.106279 0)
(0.258003 -0.10975 0)
(0.262847 -0.11282 0)
(0.268516 -0.115441 0)
(0.275001 -0.117563 0)
(0.282295 -0.119124 0)
(0.290382 -0.120064 0)
(0.299235 -0.120305 0)
(0.308812 -0.119773 0)
(0.319038 -0.118366 0)
(0.329808 -0.116005 0)
(0.340995 -0.112593 0)
(0.352445 -0.108067 0)
(0.364064 -0.102453 0)
(0.679101 -0.0286324 0)
(0.664976 -0.0215368 0)
(0.649843 -0.0145611 0)
(0.633759 -0.00811824 0)
(0.617036 -0.00215514 0)
(0.599605 0.00340904 0)
(0.581721 0.00826518 0)
(0.563501 0.0123863 0)
(0.545077 0.0157843 0)
(0.526575 0.0184587 0)
(0.50811 0.0204063 0)
(0.489778 0.0216243 0)
(0.47167 0.0221218 0)
(0.453875 0.0219103 0)
(0.436478 0.0210109 0)
(0.419556 0.0194533 0)
(0.40318 0.017274 0)
(0.387412 0.0145171 0)
(0.372303 0.0112303 0)
(0.3579 0.0074651 0)
(0.344247 0.00324202 0)
(0.331394 -0.00142026 0)
(0.319359 -0.00646483 0)
(0.308129 -0.0117477 0)
(0.297748 -0.0172617 0)
(0.288231 -0.0229905 0)
(0.279588 -0.028896 0)
(0.27182 -0.0349358 0)
(0.264928 -0.0410691 0)
(0.258913 -0.0472585 0)
(0.253774 -0.0534701 0)
(0.249509 -0.0596725 0)
(0.246114 -0.0658358 0)
(0.243584 -0.0719305 0)
(0.241919 -0.0779263 0)
(0.241112 -0.0837953 0)
(0.241162 -0.0895066 0)
(0.242074 -0.0950276 0)
(0.243848 -0.100324 0)
(0.24648 -0.10536 0)
(0.249975 -0.110099 0)
(0.254342 -0.114492 0)
(0.259584 -0.118489 0)
(0.265693 -0.12204 0)
(0.272671 -0.125089 0)
(0.280506 -0.127563 0)
(0.289186 -0.129393 0)
(0.29866 -0.130466 0)
(0.308868 -0.130704 0)
(0.319679 -0.129925 0)
(0.33093 -0.128053 0)
(0.342452 -0.124931 0)
(0.353956 -0.120544 0)
(0.365347 -0.114854 0)
(0.686668 -0.0189635 0)
(0.672331 -0.0106229 0)
(0.65688 -0.00284396 0)
(0.640144 0.00466468 0)
(0.622853 0.0113848 0)
(0.604872 0.017448 0)
(0.586259 0.022783 0)
(0.56734 0.027352 0)
(0.548191 0.0311197 0)
(0.528929 0.0340618 0)
(0.509679 0.0361638 0)
(0.490561 0.0374215 0)
(0.471683 0.0378486 0)
(0.453144 0.0374696 0)
(0.435036 0.0363166 0)
(0.417442 0.034428 0)
(0.400435 0.0318467 0)
(0.38408 0.0286206 0)
(0.368436 0.0248011 0)
(0.353551 0.0204415 0)
(0.339468 0.0156 0)
(0.326215 0.0103373 0)
(0.313815 0.00471024 0)
(0.302327 -0.00130518 0)
(0.291744 -0.00762394 0)
(0.28203 -0.0141112 0)
(0.273229 -0.020781 0)
(0.26535 -0.0276027 0)
(0.258391 -0.0345369 0)
(0.252348 -0.0415427 0)
(0.247216 -0.0485825 0)
(0.242988 -0.0556223 0)
(0.239657 -0.0626314 0)
(0.23722 -0.0695812 0)
(0.235671 -0.0764426 0)
(0.235004 -0.0831899 0)
(0.235223 -0.089793 0)
(0.236329 -0.0962206 0)
(0.238326 -0.10244 0)
(0.241212 -0.108419 0)
(0.244999 -0.114113 0)
(0.2497 -0.119472 0)
(0.255318 -0.124448 0)
(0.261848 -0.128986 0)
(0.269296 -0.13302 0)
(0.277647 -0.136467 0)
(0.286881 -0.139235 0)
(0.296889 -0.141145 0)
(0.307585 -0.142142 0)
(0.318731 -0.141832 0)
(0.330078 -0.140355 0)
(0.341366 -0.137116 0)
(0.352304 -0.132642 0)
(0.362394 -0.126418 0)
(0.695067 -0.00898619 0)
(0.680417 0.000626653 0)
(0.664393 0.00937686 0)
(0.64729 0.0177262 0)
(0.629242 0.0253687 0)
(0.61049 0.0321171 0)
(0.591158 0.0380695 0)
(0.571419 0.0431277 0)
(0.551415 0.0472515 0)
(0.531289 0.0504243 0)
(0.511175 0.052642 0)
(0.4912 0.0539162 0)
(0.471484 0.0542627 0)
(0.452134 0.0537086 0)
(0.433251 0.0522915 0)
(0.414921 0.0500558 0)
(0.397224 0.0470519 0)
(0.380229 0.0433347 0)
(0.363999 0.0389631 0)
(0.348583 0.0339976 0)
(0.334024 0.0284978 0)
(0.320356 0.0225245 0)
(0.307608 0.0161411 0)
(0.295792 0.0094122 0)
(0.284914 0.00238479 0)
(0.275055 -0.00497955 0)
(0.266104 -0.0124738 0)
(0.258109 -0.0201181 0)
(0.251073 -0.0278835 0)
(0.24499 -0.03573 0)
(0.239851 -0.0436182 0)
(0.235645 -0.0515138 0)
(0.232365 -0.0593862 0)
(0.230003 -0.0672079 0)
(0.228552 -0.0749535 0)
(0.228008 -0.0825982 0)
(0.228372 -0.0901149 0)
(0.229649 -0.0974743 0)
(0.231839 -0.104645 0)
(0.234948 -0.111601 0)
(0.238998 -0.118287 0)
(0.244 -0.124656 0)
(0.249953 -0.130659 0)
(0.256864 -0.136239 0)
(0.264737 -0.141314 0)
(0.273531 -0.145764 0)
(0.283219 -0.149488 0)
(0.293535 -0.152151 0)
(0.304432 -0.153812 0)
(0.31533 -0.15362 0)
(0.326172 -0.15234 0)
(0.336421 -0.148755 0)
(0.345749 -0.142829 0)
(0.353329 -0.136646 0)
(0.703731 0.00158699 0)
(0.6887 0.0121806 0)
(0.672159 0.0222878 0)
(0.654496 0.0314945 0)
(0.635753 0.0400357 0)
(0.616234 0.0475986 0)
(0.596075 0.0541719 0)
(0.57546 0.0597177 0)
(0.554551 0.0642069 0)
(0.5335 0.0676258 0)
(0.51246 0.0699631 0)
(0.491571 0.0712416 0)
(0.470955 0.0714873 0)
(0.450733 0.0707312 0)
(0.431013 0.0690153 0)
(0.41189 0.0663914 0)
(0.393451 0.0629193 0)
(0.375768 0.058663 0)
(0.358908 0.0536892 0)
(0.342923 0.0480665 0)
(0.327857 0.0418634 0)
(0.313745 0.0351475 0)
(0.300612 0.0279851 0)
(0.288475 0.0204372 0)
(0.277344 0.0125733 0)
(0.26719 0.00447673 0)
(0.258137 -0.00393325 0)
(0.250027 -0.0124365 0)
(0.242906 -0.0210583 0)
(0.236781 -0.029771 0)
(0.231634 -0.0385347 0)
(0.22745 -0.0473117 0)
(0.224213 -0.0560714 0)
(0.221914 -0.0647853 0)
(0.220544 -0.0734357 0)
(0.220098 -0.0819958 0)
(0.220579 -0.0904461 0)
(0.221994 -0.0987585 0)
(0.224337 -0.106908 0)
(0.227626 -0.114866 0)
(0.231892 -0.122575 0)
(0.237138 -0.129993 0)
(0.243363 -0.137069 0)
(0.250578 -0.143729 0)
(0.258793 -0.149882 0)
(0.267873 -0.155314 0)
(0.277785 -0.15993 0)
(0.287947 -0.163113 0)
(0.298497 -0.165184 0)
(0.308173 -0.164654 0)
(0.317156 -0.163104 0)
(0.326161 -0.159258 0)
(0.332 -0.148247 0)
(0.336178 -0.145902 0)
(0.711305 0.0120722 0)
(0.695886 0.0241546 0)
(0.678939 0.0354051 0)
(0.660737 0.0458413 0)
(0.64149 0.0552612 0)
(0.621198 0.0637392 0)
(0.600254 0.0710083 0)
(0.578812 0.0771009 0)
(0.557034 0.0819837 0)
(0.53508 0.0856656 0)
(0.513118 0.0881238 0)
(0.491314 0.0894052 0)
(0.469796 0.0895345 0)
(0.448687 0.0885532 0)
(0.428109 0.0865128 0)
(0.408169 0.0834668 0)
(0.388961 0.0794845 0)
(0.370566 0.074641 0)
(0.353051 0.0690132 0)
(0.336475 0.0626797 0)
(0.320882 0.0557184 0)
(0.306307 0.0482054 0)
(0.292775 0.0402144 0)
(0.2803 0.0318149 0)
(0.26889 0.0230739 0)
(0.25855 0.0140544 0)
(0.249231 0.0048479 0)
(0.241093 -0.00463665 0)
(0.233888 -0.0141488 0)
(0.227706 -0.0237419 0)
(0.222542 -0.0333926 0)
(0.21837 -0.0430596 0)
(0.215169 -0.0527107 0)
(0.212919 -0.0623232 0)
(0.21161 -0.0718817 0)
(0.211238 -0.0813669 0)
(0.211803 -0.0907598 0)
(0.213311 -0.100037 0)
(0.215752 -0.109185 0)
(0.219161 -0.118159 0)
(0.223566 -0.126908 0)
(0.228962 -0.135401 0)
(0.235364 -0.143582 0)
(0.242763 -0.151342 0)
(0.251154 -0.158556 0)
(0.260207 -0.164843 0)
(0.269891 -0.170123 0)
(0.279081 -0.173384 0)
(0.288276 -0.17526 0)
(0.295433 -0.173944 0)
(0.300671 -0.170409 0)
(0.31021 -0.166408 0)
(0.308761 -0.15545 0)
(0.306819 -0.146321 0)
(0.714695 0.0228992 0)
(0.699285 0.0361562 0)
(0.682285 0.0491181 0)
(0.663966 0.0605678 0)
(0.644402 0.0713225 0)
(0.623816 0.0806515 0)
(0.602301 0.0886586 0)
(0.580258 0.0953339 0)
(0.557817 0.100629 0)
(0.535139 0.104587 0)
(0.512414 0.107141 0)
(0.489829 0.10842 0)
(0.467503 0.108421 0)
(0.445587 0.107185 0)
(0.424206 0.104788 0)
(0.40348 0.101288 0)
(0.383523 0.096756 0)
(0.364427 0.0912791 0)
(0.346266 0.0849449 0)
(0.329101 0.0778458 0)
(0.312982 0.0700694 0)
(0.297944 0.0617031 0)
(0.284012 0.0528291 0)
(0.2712 0.0435252 0)
(0.259514 0.0338645 0)
(0.248952 0.0239153 0)
(0.239502 0.0137396 0)
(0.231103 0.00343499 0)
(0.223941 -0.00708162 0)
(0.217722 -0.0176016 0)
(0.212529 -0.0281564 0)
(0.20836 -0.0387271 0)
(0.205186 -0.049283 0)
(0.202976 -0.059805 0)
(0.201712 -0.070276 0)
(0.201385 -0.0806872 0)
(0.201995 -0.0910208 0)
(0.203528 -0.101263 0)
(0.205988 -0.111407 0)
(0.209425 -0.121387 0)
(0.213849 -0.131183 0)
(0.219257 -0.140766 0)
(0.225688 -0.150059 0)
(0.233071 -0.15889 0)
(0.241343 -0.167036 0)
(0.249789 -0.173853 0)
(0.258419 -0.179312 0)
(0.265486 -0.182043 0)
(0.271786 -0.18245 0)
(0.275958 -0.180754 0)
(0.276165 -0.173455 0)
(0.281253 -0.169925 0)
(0.283414 -0.168397 0)
(0.276074 -0.158145 0)
(0.707644 0.0310878 0)
(0.6937 0.0481253 0)
(0.677752 0.0626463 0)
(0.660083 0.0757141 0)
(0.641339 0.0874035 0)
(0.620783 0.0974327 0)
(0.599515 0.106305 0)
(0.577514 0.11365 0)
(0.554982 0.119461 0)
(0.532048 0.123935 0)
(0.508978 0.126595 0)
(0.485998 0.128053 0)
(0.46316 0.127999 0)
(0.440678 0.126524 0)
(0.418701 0.123769 0)
(0.397345 0.11979 0)
(0.376753 0.11468 0)
(0.357039 0.108534 0)
(0.338294 0.101448 0)
(0.32059 0.0935356 0)
(0.303983 0.0848908 0)
(0.288512 0.0756176 0)
(0.274204 0.0658074 0)
(0.261073 0.0555467 0)
(0.249125 0.0449161 0)
(0.238356 0.0339908 0)
(0.228757 0.0228407 0)
(0.220286 0.0115339 0)
(0.212961 0.000115253 0)
(0.206762 -0.0113663 0)
(0.201571 -0.022852 0)
(0.197419 -0.0343414 0)
(0.194274 -0.0458069 0)
(0.192092 -0.0572304 0)
(0.190844 -0.0686025 0)
(0.190513 -0.0799189 0)
(0.191088 -0.09117 0)
(0.192538 -0.102356 0)
(0.194898 -0.113453 0)
(0.198208 -0.124416 0)
(0.202465 -0.135256 0)
(0.207705 -0.145927 0)
(0.213963 -0.156302 0)
(0.220999 -0.166058 0)
(0.228602 -0.174781 0)
(0.235446 -0.181534 0)
(0.241629 -0.186103 0)
(0.245484 -0.187509 0)
(0.24661 -0.183841 0)
(0.248202 -0.182451 0)
(0.246657 -0.180626 0)
(0.244467 -0.175978 0)
(0.250042 -0.174513 0)
(0.258503 -0.168535 0)
(0.685082 0.0411856 0)
(0.675097 0.0577516 0)
(0.659679 0.0736707 0)
(0.643884 0.088705 0)
(0.626426 0.102199 0)
(0.607971 0.113725 0)
(0.588405 0.12366 0)
(0.567568 0.131822 0)
(0.54617 0.138379 0)
(0.523806 0.142835 0)
(0.501172 0.146441 0)
(0.478549 0.147788 0)
(0.455606 0.14788 0)
(0.432971 0.146224 0)
(0.410758 0.143242 0)
(0.389075 0.138832 0)
(0.368101 0.133136 0)
(0.347963 0.126309 0)
(0.328788 0.11844 0)
(0.310665 0.109683 0)
(0.29366 0.100127 0)
(0.27783 0.0899009 0)
(0.263203 0.0791061 0)
(0.2498 0.0678409 0)
(0.237628 0.0561943 0)
(0.226685 0.0442492 0)
(0.216961 0.0320825 0)
(0.208434 0.0197642 0)
(0.201018 0.00737968 0)
(0.194923 -0.00512525 0)
(0.189738 -0.0175377 0)
(0.185577 -0.0299226 0)
(0.182433 -0.0422751 0)
(0.180245 -0.0545745 0)
(0.178957 -0.0668128 0)
(0.178534 -0.0789895 0)
(0.178941 -0.0911017 0)
(0.180153 -0.10317 0)
(0.182217 -0.115149 0)
(0.185165 -0.127064 0)
(0.189032 -0.138926 0)
(0.193884 -0.150655 0)
(0.199677 -0.161979 0)
(0.205797 -0.172341 0)
(0.211714 -0.180767 0)
(0.215673 -0.18653 0)
(0.217686 -0.188142 0)
(0.218757 -0.187907 0)
(0.214841 -0.18666 0)
(0.210213 -0.185107 0)
(0.212045 -0.185656 0)
(0.2182 -0.18208 0)
(0.226875 -0.177144 0)
(0.23763 -0.17243 0)
(0.641107 0.0459676 0)
(0.633627 0.0622272 0)
(0.624525 0.0825747 0)
(0.612999 0.0988812 0)
(0.599131 0.113969 0)
(0.583103 0.12621 0)
(0.566099 0.138253 0)
(0.54787 0.14796 0)
(0.528154 0.155422 0)
(0.508203 0.161181 0)
(0.487261 0.165005 0)
(0.465392 0.167146 0)
(0.443536 0.167238 0)
(0.421416 0.165916 0)
(0.399565 0.162668 0)
(0.377912 0.157986 0)
(0.356908 0.151775 0)
(0.336659 0.144361 0)
(0.317304 0.135727 0)
(0.298965 0.126152 0)
(0.28172 0.115651 0)
(0.265662 0.104474 0)
(0.25082 0.0926651 0)
(0.237226 0.0803562 0)
(0.224895 0.067651 0)
(0.213833 0.0546431 0)
(0.204031 0.0414192 0)
(0.195469 0.028059 0)
(0.18809 0.0146346 0)
(0.181854 0.00122833 0)
(0.176806 -0.0121614 0)
(0.172699 -0.0254603 0)
(0.169566 -0.0386789 0)
(0.167335 -0.0518044 0)
(0.16592 -0.0648348 0)
(0.165263 -0.0777777 0)
(0.1653 -0.0906504 0)
(0.16603 -0.103479 0)
(0.16752 -0.116263 0)
(0.169827 -0.129082 0)
(0.173075 -0.141942 0)
(0.177287 -0.154675 0)
(0.182065 -0.166625 0)
(0.186392 -0.176743 0)
(0.189027 -0.183428 0)
(0.189098 -0.186095 0)
(0.185753 -0.185641 0)
(0.179716 -0.186968 0)
(0.177563 -0.189034 0)
(0.179501 -0.188264 0)
(0.185321 -0.18674 0)
(0.195223 -0.185866 0)
(0.207222 -0.185303 0)
(0.220865 -0.184407 0)
(0.595745 0.0472448 0)
(0.590299 0.0679868 0)
(0.583327 0.0869547 0)
(0.572135 0.106118 0)
(0.560558 0.123477 0)
(0.54859 0.134808 0)
(0.535758 0.150738 0)
(0.519329 0.160908 0)
(0.502702 0.170217 0)
(0.484851 0.177175 0)
(0.466068 0.181962 0)
(0.446476 0.185029 0)
(0.426067 0.185833 0)
(0.405287 0.184793 0)
(0.384169 0.181671 0)
(0.363272 0.176806 0)
(0.342701 0.170326 0)
(0.322712 0.162354 0)
(0.303475 0.153076 0)
(0.28516 0.142694 0)
(0.267889 0.131333 0)
(0.25179 0.119169 0)
(0.236836 0.10634 0)
(0.223156 0.0929763 0)
(0.210755 0.0791915 0)
(0.199647 0.065092 0)
(0.189831 0.0507783 0)
(0.181292 0.0363466 0)
(0.17399 0.021888 0)
(0.16779 0.00750722 0)
(0.162902 -0.00683934 0)
(0.158819 -0.0209891 0)
(0.155627 -0.0349872 0)
(0.153238 -0.0488299 0)
(0.151519 -0.0625154 0)
(0.150375 -0.0760675 0)
(0.14974 -0.089539 0)
(0.149654 -0.102981 0)
(0.150234 -0.116493 0)
(0.151647 -0.130196 0)
(0.154042 -0.144079 0)
(0.157204 -0.157615 0)
(0.160125 -0.169394 0)
(0.161263 -0.177507 0)
(0.159476 -0.180678 0)
(0.15377 -0.182088 0)
(0.145814 -0.184213 0)
(0.142717 -0.18642 0)
(0.146225 -0.187781 0)
(0.153263 -0.19006 0)
(0.162865 -0.192338 0)
(0.174664 -0.195712 0)
(0.18892 -0.198829 0)
(0.205292 -0.200342 0)
(0.561111 0.0522035 0)
(0.552243 0.073973 0)
(0.544106 0.0921972 0)
(0.536083 0.111982 0)
(0.521577 0.129828 0)
(0.511922 0.145966 0)
(0.501902 0.158854 0)
(0.485741 0.172831 0)
(0.471419 0.182396 0)
(0.455659 0.190398 0)
(0.43944 0.196594 0)
(0.421779 0.200559 0)
(0.40343 0.202554 0)
(0.384231 0.202127 0)
(0.364592 0.199444 0)
(0.344789 0.194888 0)
(0.325095 0.188345 0)
(0.305718 0.179969 0)
(0.286977 0.17019 0)
(0.268998 0.159057 0)
(0.251924 0.146913 0)
(0.235934 0.133815 0)
(0.22108 0.120001 0)
(0.207442 0.105596 0)
(0.195066 0.090729 0)
(0.183987 0.0755217 0)
(0.174223 0.060092 0)
(0.165767 0.0445585 0)
(0.158585 0.0290397 0)
(0.152545 0.0136476 0)
(0.147749 -0.00156631 0)
(0.143711 -0.0164643 0)
(0.140364 -0.0310969 0)
(0.137617 -0.0454697 0)
(0.135305 -0.0595935 0)
(0.133312 -0.0735332 0)
(0.131614 -0.0874003 0)
(0.130334 -0.10133 0)
(0.129723 -0.115545 0)
(0.130048 -0.13023 0)
(0.131324 -0.145092 0)
(0.132698 -0.158707 0)
(0.132514 -0.168449 0)
(0.128955 -0.172861 0)
(0.120253 -0.175861 0)
(0.111919 -0.178616 0)
(0.109692 -0.182235 0)
(0.113145 -0.185194 0)
(0.120021 -0.189925 0)
(0.129345 -0.196318 0)
(0.140938 -0.20352 0)
(0.154918 -0.210217 0)
(0.171417 -0.215221 0)
(0.189594 -0.217167 0)
(0.536782 0.0625252 0)
(0.523327 0.0817176 0)
(0.511837 0.102003 0)
(0.500116 0.119346 0)
(0.487461 0.135768 0)
(0.475229 0.154801 0)
(0.465388 0.16679 0)
(0.452355 0.181384 0)
(0.436897 0.193066 0)
(0.423311 0.202583 0)
(0.408547 0.209323 0)
(0.393187 0.21446 0)
(0.376693 0.217633 0)
(0.359191 0.218068 0)
(0.341229 0.216231 0)
(0.322925 0.211895 0)
(0.304135 0.205369 0)
(0.285697 0.196894 0)
(0.267684 0.186719 0)
(0.250276 0.175037 0)
(0.233669 0.162158 0)
(0.217999 0.14825 0)
(0.203375 0.133514 0)
(0.189896 0.118105 0)
(0.177638 0.102169 0)
(0.166662 0.085851 0)
(0.157004 0.06929 0)
(0.148674 0.0526335 0)
(0.141632 0.0360429 0)
(0.135761 0.0196806 0)
(0.130806 0.00375053 0)
(0.126878 -0.0117861 0)
(0.123227 -0.026827 0)
(0.119835 -0.0414355 0)
(0.116542 -0.0556922 0)
(0.113271 -0.0697566 0)
(0.110112 -0.0838399 0)
(0.107355 -0.0982227 0)
(0.105416 -0.113295 0)
(0.104568 -0.12911 0)
(0.104253 -0.144346 0)
(0.102678 -0.156 0)
(0.0976279 -0.161858 0)
(0.0866098 -0.166458 0)
(0.0786241 -0.170502 0)
(0.0772118 -0.174523 0)
(0.0803793 -0.179798 0)
(0.0867551 -0.187551 0)
(0.0953158 -0.197059 0)
(0.106045 -0.207123 0)
(0.119076 -0.21682 0)
(0.134326 -0.225263 0)
(0.151813 -0.229642 0)
(0.170892 -0.231384 0)
(0.506028 0.0730953 0)
(0.492672 0.0944052 0)
(0.479061 0.112859 0)
(0.464197 0.130775 0)
(0.450888 0.147094 0)
(0.438641 0.162756 0)
(0.427803 0.177383 0)
(0.417114 0.18899 0)
(0.403544 0.202478 0)
(0.388979 0.212828 0)
(0.37533 0.221103 0)
(0.361763 0.227091 0)
(0.346815 0.230917 0)
(0.330907 0.232475 0)
(0.314476 0.231402 0)
(0.297326 0.227489 0)
(0.280069 0.22128 0)
(0.262776 0.21284 0)
(0.24569 0.202448 0)
(0.229057 0.190387 0)
(0.213058 0.176926 0)
(0.197857 0.162308 0)
(0.183581 0.146731 0)
(0.17035 0.130388 0)
(0.158271 0.113432 0)
(0.147433 0.0960218 0)
(0.137894 0.0783277 0)
(0.12968 0.0605413 0)
(0.122751 0.0428901 0)
(0.116978 0.0256291 0)
(0.11199 0.00903458 0)
(0.107944 -0.00685062 0)
(0.103604 -0.0218723 0)
(0.0990859 -0.0362949 0)
(0.0943198 -0.0503491 0)
(0.0893514 -0.0643278 0)
(0.0844718 -0.0785739 0)
(0.080181 -0.0935973 0)
(0.0770496 -0.109859 0)
(0.0749379 -0.126503 0)
(0.0722653 -0.139786 0)
(0.0658868 -0.147502 0)
(0.0538264 -0.154051 0)
(0.0454857 -0.159514 0)
(0.0449726 -0.164387 0)
(0.0480142 -0.172013 0)
(0.0536274 -0.182353 0)
(0.0611574 -0.194423 0)
(0.0705948 -0.206723 0)
(0.0818417 -0.218608 0)
(0.0947029 -0.229322 0)
(0.110378 -0.236814 0)
(0.125079 -0.242215 0)
(0.134912 -0.245412 0)
(0.45597 0.0793834 0)
(0.444971 0.104539 0)
(0.43525 0.124585 0)
(0.423657 0.142266 0)
(0.409952 0.157779 0)
(0.397862 0.172885 0)
(0.387359 0.186764 0)
(0.378202 0.198561 0)
(0.367076 0.209827 0)
(0.353824 0.221244 0)
(0.3408 0.231155 0)
(0.327863 0.237999 0)
(0.314581 0.242575 0)
(0.300314 0.245093 0)
(0.285028 0.244784 0)
(0.269475 0.241772 0)
(0.25343 0.236007 0)
(0.237267 0.227736 0)
(0.221213 0.217302 0)
(0.205438 0.20498 0)
(0.190148 0.191091 0)
(0.175498 0.175877 0)
(0.161626 0.159584 0)