/*--------------------------------*- C++ -*----------------------------------*\
  =========                 |
  \\      /  F ield         | OpenFOAM: The Open Source CFD Toolbox
   \\    /   O peration     | Website:  https://openfoam.org
    \\  /    A nd           | Version:  10
     \\/     M anipulation  |
\*---------------------------------------------------------------------------*/
FoamFile
{
    format      ascii;
    class       volScalarField;
    location    "0.651548";
    object      rho;
}
// * * * * * * * * * * * * * * * * * * * * * * * * * * * * * * * * * * * * * //

dimensions      [1 -3 0 0 0 0 0];

internalField   nonuniform List<scalar> 
15708
(
0.994724
0.99505
0.995473
0.995929
0.996618
0.997198
0.997904
0.998675
0.999413
1.00029
1.0011
1.0021
1.00299
1.00405
1.00506
1.0061
1.0072
1.0083
1.00942
1.0106
1.01179
1.01298
1.01422
1.01548
1.01676
1.01804
1.01934
1.02066
1.02196
1.02326
1.02454
1.0258
1.02705
1.02824
1.02936
1.03044
1.03144
1.03236
1.03319
1.03394
1.03457
1.03511
1.03555
1.03586
1.03607
1.03617
1.03617
1.03607
1.03586
1.03555
1.03513
0.994633
0.994805
0.99513
0.995579
0.996051
0.996734
0.997323
0.997979
0.998801
0.999536
1.00043
1.00129
1.00226
1.00323
1.00425
1.00529
1.00635
1.00744
1.00857
1.00971
1.01088
1.01208
1.01331
1.01455
1.01582
1.0171
1.0184
1.0197
1.02101
1.02229
1.02357
1.02482
1.02608
1.02728
1.02843
1.02953
1.03055
1.0315
1.03237
1.03315
1.03383
1.03442
1.03491
1.03529
1.03555
1.03572
1.03579
1.03575
1.03561
1.03539
1.03503
0.994504
0.994623
0.994862
0.995237
0.995698
0.996178
0.996858
0.997434
0.998167
0.99891
0.999728
1.0006
1.0015
1.00247
1.00345
1.00447
1.00553
1.0066
1.00771
1.00885
1.01001
1.0112
1.01241
1.01364
1.01491
1.01618
1.01747
1.01877
1.02007
1.02136
1.02264
1.0239
1.02514
1.02637
1.02753
1.02864
1.02969
1.03066
1.03156
1.03238
1.0331
1.03374
1.03428
1.03472
1.03505
1.03528
1.0354
1.03545
1.03539
1.03526
1.03498
0.994293
0.994362
0.994529
0.994814
0.995206
0.995699
0.996225
0.996877
0.997538
0.998262
0.999055
0.999894
1.00078
1.00171
1.00269
1.0037
1.00474
1.00581
1.0069
1.00803
1.00919
1.01037
1.01157
1.01279
1.01404
1.0153
1.01658
1.01787
1.01916
1.02045
1.02172
1.02299
1.02423
1.02547
1.02665
1.02777
1.02884
1.02984
1.03077
1.03163
1.0324
1.03309
1.03368
1.03417
1.03457
1.03487
1.03506
1.03517
1.0352
1.03513
1.03496
0.994021
0.994034
0.994123
0.994345
0.99471
0.995181
0.995692
0.996258
0.996936
0.997602
0.998389
0.999198
1.00006
1.00099
1.00196
1.00294
1.00397
1.00503
1.00612
1.00724
1.00839
1.00957
1.01076
1.01198
1.01322
1.01448
1.01574
1.01702
1.01831
1.01958
1.02085
1.02211
1.02336
1.02459
1.02578
1.02692
1.02801
1.02904
1.03
1.0309
1.03172
1.03245
1.0331
1.03365
1.03411
1.03448
1.03475
1.03494
1.03503
1.03504
1.03496
0.993797
0.993747
0.993796
0.99401
0.994357
0.99476
0.995223
0.995781
0.996345
0.996989
0.99771
0.998525
0.999367
1.00028
1.00124
1.00221
1.00322
1.00428
1.00536
1.00647
1.00761
1.00879
1.00998
1.0112
1.01243
1.01368
1.01493
1.0162
1.01748
1.01875
1.02001
1.02127
1.02253
1.02375
1.02496
1.02611
1.02721
1.02827
1.02926
1.03019
1.03105
1.03183
1.03253
1.03315
1.03369
1.03413
1.03448
1.03474
1.0349
1.03499
1.03499
0.993464
0.993334
0.993336
0.993526
0.993804
0.994178
0.994615
0.995191
0.995719
0.996326
0.99706
0.997802
0.998667
0.999566
1.0005
1.00143
1.00242
1.00352
1.00468
1.00585
1.00704
1.00821
1.00939
1.01057
1.01175
1.01294
1.01416
1.0154
1.01666
1.01792
1.01919
1.02045
1.02171
1.02294
1.02415
1.02533
1.02645
1.02752
1.02856
1.02952
1.03042
1.03126
1.03201
1.03267
1.03328
1.03378
1.03421
1.03455
1.03481
1.03497
1.03506
0.992977
0.992814
0.992866
0.992971
0.99318
0.993539
0.99397
0.994486
0.995055
0.995728
0.996383
0.997154
0.997972
0.998848
0.999803
1.00077
1.0018
1.00292
1.00408
1.00524
1.00638
1.0075
1.00866
1.00985
1.01107
1.01227
1.01348
1.01468
1.01592
1.01715
1.01842
1.01969
1.02095
1.02219
1.02339
1.02457
1.02572
1.02681
1.02787
1.02887
1.02981
1.03068
1.0315
1.03224
1.0329
1.03348
1.03399
1.0344
1.03475
1.035
1.03517
0.992302
0.99237
0.992449
0.992545
0.992684
0.99297
0.993237
0.993622
0.994202
0.994886
0.995694
0.996554
0.997496
0.998425
0.999383
1.00036
1.00137
1.0024
1.00346
1.00456
1.00567
1.00683
1.00799
1.00917
1.01036
1.01156
1.01279
1.01402
1.01525
1.01649
1.01774
1.01899
1.02024
1.02147
1.02268
1.02385
1.02501
1.02614
1.02722
1.02826
1.02924
1.03016
1.03104
1.03182
1.03256
1.03321
1.0338
1.0343
1.03473
1.03507
1.03533
0.991747
0.991704
0.99165
0.991673
0.991811
0.992069
0.99251
0.993097
0.993788
0.994477
0.99544
0.996153
0.996956
0.997784
0.998719
0.999694
1.00074
1.00181
1.00289
1.00396
1.00509
1.00621
1.00737
1.00855
1.00975
1.01095
1.01215
1.01336
1.0146
1.01583
1.01708
1.01833
1.01956
1.02079
1.022
1.0232
1.02436
1.0255
1.02663
1.02769
1.02872
1.02968
1.03061
1.03146
1.03227
1.03299
1.03365
1.03423
1.03475
1.03518
1.03553
0.990762
0.99065
0.990628
0.990737
0.991041
0.991449
0.991913
0.99251
0.993054
0.993738
0.994463
0.995331
0.99621
0.997203
0.998218
0.999258
1.00027
1.00128
1.00234
1.0035
1.00468
1.00584
1.007
1.00816
1.00931
1.01048
1.01166
1.01284
1.01404
1.01525
1.01646
1.01769
1.01892
1.02013
1.02136
1.02256
1.02376
1.02491
1.02605
1.02716
1.02823
1.02924
1.03022
1.03114
1.03201
1.03281
1.03355
1.03422
1.03482
1.03533
1.03579
0.989956
0.989884
0.989859
0.989959
0.990187
0.990537
0.99103
0.991628
0.99228
0.993096
0.993897
0.994823
0.995721
0.996723
0.99771
0.998754
0.999815
1.00091
1.00199
1.00309
1.00422
1.00534
1.00648
1.00762
1.0088
1.00995
1.01112
1.0123
1.0135
1.0147
1.01592
1.01713
1.01836
1.01958
1.02079
1.02198
1.02317
1.02436
1.02553
1.02668
1.0278
1.02887
1.0299
1.03087
1.03182
1.03268
1.03351
1.03426
1.03495
1.03556
1.03609
0.988832
0.988866
0.988949
0.989192
0.989511
0.98991
0.99044
0.991012
0.991836
0.992548
0.993547
0.994358
0.995281
0.996223
0.997217
0.998271
0.999374
1.00047
1.00161
1.00272
1.00386
1.00496
1.00611
1.00726
1.00839
1.00953
1.01068
1.01185
1.01303
1.01423
1.01542
1.01661
1.01782
1.01903
1.02025
1.02148
1.02271
1.02391
1.02508
1.02624
1.02738
1.02851
1.0296
1.03066
1.03166
1.03264
1.03353
1.03439
1.03516
1.03586
1.0365
0.987626
0.987712
0.98785
0.988086
0.988526
0.989057
0.98966
0.990399
0.991076
0.991868
0.99267
0.99365
0.994623
0.995659
0.996747
0.997873
0.998991
1.00015
1.00128
1.00242
1.00355
1.00467
1.00581
1.00694
1.00807
1.00919
1.01032
1.01147
1.01262
1.0138
1.01498
1.01618
1.01736
1.01855
1.01978
1.02103
1.02226
1.02345
1.02464
1.02584
1.02705
1.02823
1.02939
1.03051
1.0316
1.03263
1.03362
1.03456
1.03543
1.03624
1.03697
0.986409
0.986476
0.986639
0.986989
0.987396
0.987995
0.988564
0.989283
0.990063
0.991008
0.991912
0.993008
0.994051
0.995211
0.996329
0.997465
0.998662
0.999843
1.00104
1.00222
1.00336
1.00449
1.0056
1.00669
1.00779
1.0089
1.01001
1.01114
1.01227
1.01342
1.01458
1.01574
1.01695
1.01813
1.01936
1.02059
1.02183
1.02309
1.02432
1.02554
1.02676
1.02798
1.02922
1.03041
1.03159
1.03271
1.0338
1.03482
1.03578
1.03668
1.03749
0.984865
0.985105
0.985342
0.98569
0.986137
0.986728
0.987425
0.988182
0.989256
0.990161
0.991452
0.992515
0.993642
0.994833
0.996045
0.997299
0.998537
0.999681
1.00082
1.00197
1.00311
1.00426
1.00539
1.0065
1.00761
1.0087
1.00981
1.0109
1.012
1.01313
1.01424
1.01542
1.01656
1.01777
1.01897
1.02022
1.02148
1.02273
1.02401
1.0253
1.02658
1.02786
1.02914
1.03041
1.03165
1.03286
1.03402
1.03516
1.03621
1.0372
1.03814
0.983277
0.98353
0.983866
0.984261
0.984844
0.985481
0.98642
0.987292
0.988322
0.989438
0.990538
0.991817
0.993021
0.994373
0.995683
0.996957
0.998216
0.999524
1.00076
1.00197
1.00313
1.00424
1.00533
1.0064
1.00746
1.00853
1.0096
1.01067
1.01174
1.01285
1.01394
1.01509
1.01622
1.01745
1.01863
1.01989
1.02116
1.02246
1.02376
1.0251
1.02644
1.02778
1.02913
1.03047
1.0318
1.0331
1.03435
1.03559
1.03672
1.03781
1.03883
0.981646
0.98162
0.981934
0.98247
0.983156
0.9841
0.985024
0.986103
0.987307
0.988647
0.989933
0.991249
0.992568
0.993918
0.995279
0.996608
0.997947
0.999288
1.00061
1.00189
1.0031
1.00423
1.00532
1.00638
1.00742
1.00845
1.00947
1.01051
1.01157
1.01261
1.01375
1.01478
1.01604
1.01709
1.01843
1.01956
1.02093
1.02218
1.0236
1.02498
1.02637
1.02779
1.02921
1.03063
1.03203
1.03341
1.03478
1.0361
1.03735
1.03852
1.0396
0.98176
0.980689
0.980494
0.980876
0.981598
0.982544
0.983584
0.984813
0.986083
0.987476
0.989074
0.990531
0.992088
0.993494
0.994969
0.996414
0.997822
0.999176
1.00049
1.00177
1.00301
1.00419
1.00533
1.00638
1.00744
1.00844
1.00943
1.01044
1.01142
1.01251
1.01344
1.01477
1.01554
1.01716
1.01792
1.01964
1.02047
1.02233
1.02327
1.02482
1.02631
1.02781
1.02932
1.03086
1.03236
1.03386
1.03528
1.03668
1.03804
1.03928
1.04052
0.985008
0.981496
0.979954
0.979618
0.980095
0.980905
0.982176
0.983356
0.985065
0.986455
0.988145
0.989732
0.991487
0.993103
0.994616
0.996152
0.997649
0.999149
1.00058
1.00192
1.00317
1.00433
1.00543
1.00649
1.00753
1.00851
1.00947
1.01043
1.01136
1.01233
1.01335
1.01432
1.01566
1.01649
1.01806
1.01899
1.02076
1.02169
1.02368
1.02466
1.0264
1.0279
1.02952
1.03116
1.03276
1.03437
1.03592
1.0374
1.03892
1.04026
1.04155
0.992878
0.985226
0.9813
0.979303
0.979152
0.97931
0.980855
0.981636
0.983615
0.985113
0.987009
0.988825
0.990681
0.992598
0.994369
0.996061
0.997652
0.999203
1.00068
1.0021
1.00338
1.00456
1.00563
1.00663
1.00762
1.00854
1.00948
1.01041
1.01139
1.0122
1.01342
1.01411
1.01554
1.01632
1.01795
1.01902
1.02024
1.02199
1.02306
1.0252
1.02631
1.02853
1.02985
1.03157
1.0333
1.03498
1.03666
1.03819
1.03981
1.04125
1.04262
1.00279
0.990727
0.98369
0.980691
0.978351
0.979485
0.978769
0.981102
0.981866
0.984091
0.98588
0.987932
0.989966
0.991975
0.993951
0.995856
0.997654
0.999334
1.00089
1.00235
1.00367
1.0049
1.00598
1.00698
1.00792
1.00878
1.00966
1.01052
1.01136
1.01228
1.01303
1.01433
1.01505
1.01657
1.01737
1.01911
1.02024
1.02174
1.02314
1.02497
1.02661
1.02848
1.03031
1.03211
1.03394
1.03574
1.03752
1.03918
1.04081
1.04235
1.04376
1.01214
0.995842
0.986607
0.981067
0.979321
0.977467
0.979399
0.978881
0.98143
0.982436
0.985141
0.986928
0.989139
0.991316
0.993483
0.995618
0.997651
0.999496
1.00114
1.00265
1.004
1.00526
1.00634
1.00734
1.00823
1.00905
1.00983
1.01068
1.0113
1.01237
1.01292
1.01418
1.01491
1.01639
1.01723
1.019
1.01997
1.0221
1.02299
1.0252
1.02691
1.02873
1.03065
1.03258
1.03458
1.0365
1.03839
1.04021
1.04188
1.04347
1.04494
1.00942
0.994844
0.985806
0.981438
0.9775
0.97866
0.976671
0.979433
0.979341
0.982254
0.983691
0.986223
0.988524
0.990808
0.993108
0.995327
0.997478
0.999497
1.00129
1.00282
1.00419
1.00549
1.00661
1.00761
1.00847
1.00921
1.00998
1.01073
1.0113
1.01228
1.01287
1.01403
1.01477
1.0162
1.01728
1.01851
1.02033
1.02151
1.02382
1.02528
1.02682
1.02944
1.03116
1.03311
1.03516
1.03717
1.03909
1.04094
1.04282
1.04447
1.04595
0.996692
0.987024
0.98139
0.978607
0.977029
0.97665
0.977633
0.978013
0.981227
0.981665
0.98476
0.986545
0.989135
0.99138
0.993553
0.995699
0.997844
0.999834
1.00156
1.00313
1.00434
1.00542
1.00641
1.00747
1.0083
1.00923
1.00997
1.01067
1.01134
1.0121
1.01282
1.01384
1.01461
1.016
1.01704
1.01884
1.01997
1.02222
1.02322
1.02619
1.02781
1.02962
1.03255
1.03435
1.03656
1.03863
1.0406
1.04236
1.04411
1.04583
1.04733
0.985423
0.985558
0.985408
0.985573
0.986126
0.988012
0.99054
0.993365
0.994234
0.996393
0.998306
0.999742
1.00134
1.00173
1.00146
1.00153
1.00192
1.00259
1.00343
1.0045
1.00556
1.00638
1.00704
1.00771
1.00848
1.00923
1.00995
1.0106
1.01128
1.01196
1.01269
1.01357
1.01455
1.01582
1.01724
1.01893
1.02072
1.0227
1.02531
1.02722
1.03006
1.03325
1.03436
1.03821
1.03979
1.04161
1.04336
1.0449
1.04643
1.04805
1.04927
1.11101
1.12324
1.14463
1.16045
1.1609
1.1633
1.16276
1.16247
1.15168
1.15399
1.1264
1.13301
1.1016
1.0852
1.06387
1.04375
1.02839
1.01875
1.01324
1.01019
1.00878
1.00846
1.00844
1.00859
1.00886
1.00945
1.00992
1.01042
1.01094
1.01165
1.01264
1.01354
1.0147
1.0168
1.01887
1.02048
1.02291
1.02801
1.0295
1.03693
1.04193
1.04464
1.04953
1.05034
1.05256
1.05213
1.05124
1.05021
1.05018
1.05094
1.05165
1.51382
1.54142
1.56691
1.58887
1.60483
1.62003
1.62722
1.62955
1.62914
1.61055
1.60897
1.54653
1.55483
1.46475
1.38732
1.28233
1.15909
1.08478
1.0463
1.02699
1.01751
1.01307
1.01106
1.0102
1.01001
1.01019
1.01042
1.01077
1.01132
1.01146
1.01312
1.0154
1.01738
1.01767
1.02023
1.03041
1.04567
1.06239
1.07909
1.09791
1.1116
1.11988
1.11538
1.12826
1.10743
1.08951
1.07401
1.06408
1.05938
1.05744
1.05571
1.56042
1.56248
1.57241
1.59362
1.62614
1.6539
1.68714
1.71343
1.73887
1.75665
1.76646
1.764
1.76595
1.72986
1.71487
1.61537
1.47444
1.28418
1.15555
1.08385
1.04669
1.02787
1.01851
1.01396
1.01206
1.01157
1.01147
1.0116
1.01193
1.01457
1.01698
1.01624
1.01853
1.05333
1.09765
1.15245
1.23082
1.29794
1.35125
1.39245
1.40884
1.40699
1.40788
1.36419
1.31586
1.21949
1.16063
1.11801
1.08739
1.06819
1.0586
1.1964
1.17955
1.18511
1.20173
1.23743
1.29833
1.37079
1.4684
1.56355
1.64339
1.71045
1.75519
1.77948
1.78884
1.78534
1.76683
1.66409
1.4665
1.26337
1.13911
1.07186
1.03851
1.02302
1.01631
1.01384
1.01313
1.0133
1.01329
1.01797
1.01606
1.0367
1.11903
1.23152
1.36346
1.48726
1.578
1.63289
1.66342
1.68708
1.69922
1.7043
1.7004
1.68582
1.63946
1.58455
1.47044
1.27769
1.15073
1.09157
1.06642
1.05831
1.04429
1.05773
1.06638
1.06921
1.06951
1.07787
1.09583
1.12811
1.20093
1.31225
1.45151
1.58998
1.70605
1.77302
1.78704
1.76557
1.67411
1.44574
1.24521
1.12698
1.0652
1.03556
1.02221
1.01682
1.01535
1.0153
1.0157
1.02705
1.08481
1.25791
1.43747
1.5993
1.6976
1.74177
1.75577
1.75607
1.75617
1.7639
1.77587
1.79466
1.81777
1.82549
1.8273
1.80718
1.72515
1.50938
1.26777
1.13383
1.07542
1.06281
1.07169
1.10802
1.14821
1.15561
1.13036
1.09038
1.06332
1.05681
1.06724
1.09252
1.14979
1.30463
1.53129
1.69469
1.76792
1.77581
1.74647
1.58139
1.34145
1.17142
1.08046
1.03933
1.02291
1.01797
1.01751
1.02067
1.05339
1.21235
1.46136
1.6534
1.76693
1.80257
1.80068
1.76728
1.72715
1.70522
1.6955
1.70269
1.7177
1.74939
1.78298
1.81975
1.87327
1.88457
1.85177
1.71645
1.4445
1.17721
1.08835
1.07873
1.1202
1.38408
1.25086
1.30486
1.31566
1.2968
1.21152
1.10581
1.07573
1.08243
1.12789
1.22928
1.45997
1.63855
1.72052
1.7461
1.70586
1.55732
1.30513
1.12905
1.05397
1.02774
1.02041
1.02203
1.04649
1.1603
1.39574
1.63495
1.80061
1.84946
1.84429
1.79756
1.68076
1.57526
1.4899
1.41905
1.39529
1.40516
1.44394
1.4952
1.58063
1.69351
1.82516
1.89743
1.89567
1.80612
1.57528
1.2165
1.11833
1.11542
1.23098
1.58991
1.85853
1.28275
1.34091
1.36083
1.36836
1.34423
1.29555
1.28834
1.31971
1.45685
1.54793
1.6172
1.64777
1.6572
1.55829
1.34676
1.15934
1.06413
1.03434
1.02739
1.03686
1.0943
1.27735
1.58854
1.80638
1.88215
1.88475
1.84201
1.71378
1.48252
1.30839
1.19108
1.14084
1.13686
1.16118
1.18749
1.22065
1.27344
1.36708
1.51731
1.71511
1.84589
1.89689
1.79951
1.58006
1.24675
1.16285
1.18028
1.43065
1.75776
1.87924
1.89649
1.21551
1.32579
1.34647
1.41068
1.41663
1.45853
1.47499
1.49377
1.5104
1.521
1.49467
1.40364
1.2241
1.12871
1.06351
1.04313
1.04379
1.06984
1.17087
1.45892
1.70248
1.85953
1.91931
1.89245
1.77563
1.55326
1.29297
1.13028
1.0636
1.05859
1.08645
1.14175
1.15446
1.16822
1.17913
1.21241
1.27695
1.37319
1.62622
1.77159
1.8283
1.73718
1.49922
1.25529
1.21598
1.26849
1.5743
1.84958
1.91047
1.87921
1.75231
1.044
1.08839
1.16267
1.19946
1.24018
1.26452
1.27452
1.25303
1.20092
1.15491
1.09325
1.05691
1.06196
1.06163
1.07929
1.14198
1.31213
1.60142
1.78382
1.88205
1.90493
1.85739
1.71611
1.46599
1.23308
1.0878
1.05402
1.0542
1.10458
1.19182
1.27587
1.30218
1.28737
1.24095
1.22821
1.25996
1.36717
1.61517
1.68261
1.73392
1.6948
1.44546
1.27725
1.28396
1.33969
1.65151
1.91766
1.94546
1.91699
1.8164
1.66414
1.00373
1.00942
1.01461
1.02016
1.02372
1.02477
1.02446
1.03068
1.04036
1.0501
1.06859
1.10582
1.17943
1.31101
1.54489
1.7638
1.8275
1.88271
1.89107
1.83709
1.67301
1.45575
1.21929
1.09012
1.05857
1.05708
1.08948
1.17112
1.28769
1.38539
1.41864
1.42198
1.40813
1.39409
1.3933
1.43969
1.57452
1.6031
1.66274
1.5483
1.34871
1.34946
1.30218
1.50138
1.85953
1.91637
1.99248
1.97355
1.9252
1.81647
1.74825
1.04013
1.0371
1.04094
1.04635
1.05797
1.07623
1.10521
1.15194
1.21532
1.31213
1.43748
1.60408
1.74125
1.8147
1.87136
1.88218
1.88596
1.81594
1.67923
1.49904
1.29274
1.12625
1.06498
1.05365
1.0577
1.08999
1.15964
1.26242
1.37724
1.43333
1.44999
1.4524
1.45876
1.46412
1.48394
1.52297
1.55345
1.54792
1.38695
1.36045
1.3131
1.34612
1.82463
1.8297
2.00058
2.00864
2.02924
2.0026
1.9609
1.96009
1.95614
1.27348
1.28727
1.31164
1.34646
1.3956
1.45838
1.53971
1.62678
1.72312
1.81397
1.84428
1.87604
1.88246
1.89528
1.87864
1.82032
1.71842
1.57541
1.42081
1.25101
1.11204
1.06348
1.05332
1.05404
1.07046
1.11131
1.18086
1.27336
1.35849
1.43696
1.42983
1.45536
1.45046
1.46048
1.46547
1.45822
1.41915
1.38313
1.36954
1.39185
1.61132
1.97226
1.86274
2.01496
2.05179
2.0556
2.0615
2.05485
2.05382
2.05553
2.05639
1.63274
1.66081
1.68476
1.71636
1.75454
1.79198
1.83082
1.86804
1.88137
1.89768
1.90371
1.90154
1.88925
1.84498
1.77734
1.68098
1.56423
1.42613
1.28208
1.1399
1.07845
1.05688
1.05648
1.06049
1.07633
1.11063
1.1575
1.21746
1.27438
1.31446
1.35136
1.35679
1.37553
1.37413
1.37573
1.37696
1.38808
1.41006
1.52724
1.75191
1.8857
1.99094
2.00493
2.06251
2.0756
2.07988
2.08359
2.08517
2.08776
2.09001
2.09169
1.81667
1.81324
1.84578
1.85269
1.87223
1.88471
1.89695
1.90636
1.91204
1.91374
1.90777
1.88533
1.84777
1.7927
1.71486
1.6173
1.49752
1.36411
1.22786
1.11767
1.0643
1.06873
1.0652
1.07141
1.08636
1.11735
1.15202
1.18807
1.22425
1.25849
1.28973
1.31347
1.33883
1.35879
1.38111
1.41333
1.54838
1.68398
1.81297
1.9768
1.98398
2.05052
2.05493
2.07939
2.08706
2.08936
2.09315
2.09571
2.09899
2.10056
2.10166
1.86243
1.87503
1.88033
1.89148
1.89936
1.9087
1.91515
1.92131
1.92179
1.91676
1.90288
1.87778
1.83785
1.78018
1.70141
1.60249
1.48347
1.35505
1.22865
1.13348
1.08775
1.08565
1.0856
1.08941
1.10785
1.13366
1.16903
1.20277
1.23829
1.27369
1.30885
1.34214
1.38191
1.43655
1.56097
1.7692
1.76818
1.94505
1.9484
2.03507
2.04288
2.06557
2.08164
2.08639
2.08927
2.09334
2.09599
2.09833
2.10058
2.10191
2.10277
1.8804
1.88544
1.89362
1.9014
1.90937
1.91663
1.92299
1.9258
1.92705
1.92236
1.91097
1.88983
1.85673
1.80731
1.74103
1.6549
1.55244
1.43986
1.326
1.2256
1.17426
1.13787
1.14691
1.14589
1.15908
1.19199
1.23099
1.26936
1.3139
1.36715
1.43452
1.52343
1.63239
1.75858
1.85031
1.92456
1.96859
2.00606
2.05215
2.05689
2.074
2.07869
2.0847
2.086
2.09089
2.09329
2.09631
2.09882
2.10093
2.10196
2.10292
1.88136
1.89076
1.89588
1.90464
1.9117
1.92012
1.92762
1.93191
1.93636
1.93351
1.93088
1.91669
1.89661
1.86151
1.81436
1.75122
1.67507
1.58999
1.50479
1.42903
1.37807
1.32883
1.33875
1.33253
1.34872
1.40496
1.46135
1.51175
1.58058
1.66043
1.74346
1.81908
1.89633
1.95537
1.99571
2.03814
2.03673
2.05487
2.07274
2.07191
2.07901
2.08145
2.08472
2.08772
2.09023
2.09356
2.09584
2.09795
2.09937
2.10006
2.10043
1.88386
1.88995
1.89757
1.90445
1.91473
1.91816
1.93202
1.93062
1.94564
1.94236
1.9482
1.93974
1.93237
1.91232
1.88533
1.84679
1.79928
1.74586
1.69075
1.64371
1.6062
1.59956
1.59323
1.60139
1.63784
1.69788
1.74321
1.78991
1.85019
1.9073
1.95809
1.99743
2.03231
2.05234
2.06269
2.07373
2.06993
2.07496
2.07893
2.07885
2.08114
2.0819
2.08491
2.0867
2.08933
2.09158
2.09363
2.09556
2.09633
2.09712
2.09683
1.88174
1.88847
1.89577
1.90396
1.91228
1.92141
1.92941
1.939
1.94497
1.95318
1.95637
1.9603
1.95761
1.95304
1.94108
1.92408
1.90117
1.87447
1.84694
1.82431
1.80663
1.80843
1.81345
1.82877
1.86911
1.91147
1.9398
1.97724
2.01419
2.04651
2.06933
2.08264
2.09645
2.09158
2.09221
2.0906
2.08425
2.08366
2.08184
2.08123
2.08108
2.0815
2.08313
2.08477
2.08685
2.08865
2.0905
2.09077
2.09297
2.0919
2.09276
1.8802
1.88693
1.89425
1.90256
1.91113
1.92029
1.92938
1.93877
1.94794
1.95663
1.96444
1.97092
1.97572
1.97811
1.97847
1.97543
1.96947
1.96151
1.95258
1.94562
1.94738
1.95197
1.96449
1.98178
2.01447
2.03772
2.05908
2.08285
2.10223
2.1175
2.12234
2.12293
2.11947
2.11305
2.10727
2.1003
2.09253
2.08897
2.08393
2.08153
2.08001
2.07938
2.07997
2.08035
2.08159
2.0828
2.08322
2.08553
2.08411
2.08621
2.08373
1.87837
1.88482
1.89225
1.90043
1.90906
1.91854
1.928
1.93842
1.94806
1.95834
1.96789
1.97707
1.9853
1.99296
1.99929
2.00482
2.0086
2.01214
2.01496
2.02059
2.0293
2.03993
2.05446
2.07228
2.09414
2.10931
2.12474
2.13683
2.14571
2.14968
2.14736
2.14357
2.13667
2.12777
2.11978
2.10672
2.09885
2.0915
2.08298
2.07918
2.07615
2.07464
2.07401
2.07439
2.07526
2.07611
2.07732
2.07769
2.07858
2.07849
2.07758
1.876
1.88244
1.88977
1.89804
1.9069
1.91616
1.92619
1.93657
1.94727
1.95816
1.96914
1.98023
1.99046
2.00158
2.01132
2.02176
2.03136
2.04142
2.05161
2.0627
2.07251
2.09056
2.10449
2.11998
2.13468
2.14659
2.15713
2.16366
2.16897
2.16964
2.16627
2.15986
2.1497
2.13958
2.12629
2.11564
2.09933
2.09008
2.08261
2.07488
2.07043
2.06727
2.06566
2.06471
2.06467
2.06456
2.06437
2.06414
2.06308
2.06248
2.05999
1.87364
1.88011
1.88725
1.89563
1.90455
1.91388
1.92407
1.93505
1.94645
1.9577
1.96713
1.98416
1.99043
2.00792
2.0169
2.03133
2.04275
2.0569
2.06989
2.08418
2.09858
2.11354
2.12813
2.14257
2.15596
2.16681
2.17609
2.18183
2.18532
2.18416
2.17901
2.17051
2.15974
2.14614
2.13052
2.11404
2.10258
2.085
2.07435
2.06467
2.0577
2.05374
2.05107
2.04967
2.04943
2.04884
2.04902
2.04798
2.04706
2.04521
2.04247
1.87178
1.87784
1.88497
1.89314
1.90204
1.91171
1.92184
1.93303
1.94433
1.95663
1.96914
1.98143
1.99487
2.00851
2.02171
2.03632
2.0501
2.065
2.07923
2.09522
2.11206
2.12571
2.14268
2.1567
2.16968
2.18057
2.18917
2.19371
2.19511
2.19265
2.18724
2.17788
2.16568
2.15058
2.13389
2.1179
2.09676
2.08344
2.06674
2.05747
2.05086
2.04746
2.04685
2.04803
2.05049
2.05266
2.05553
2.05713
2.05813
2.05739
2.05642
1.03471
1.03405
1.0335
1.03282
1.03209
1.03134
1.03055
1.02979
1.02904
1.02832
1.02763
1.02699
1.0264
1.0259
1.02543
1.02508
1.02475
1.02456
1.02441
1.02434
1.02436
1.02438
1.02449
1.02459
1.02471
1.02481
1.03472
1.03403
1.03376
1.03291
1.03237
1.03168
1.03095
1.03022
1.02949
1.02879
1.02811
1.02745
1.02686
1.0263
1.02582
1.02538
1.02502
1.02472
1.02452
1.02435
1.02429
1.02422
1.02424
1.02424
1.02429
1.02436
1.03474
1.03414
1.03394
1.03314
1.03267
1.03205
1.03138
1.03068
1.02999
1.0293
1.02864
1.02798
1.02737
1.02679
1.02626
1.02579
1.02537
1.02501
1.02472
1.02446
1.02434
1.02418
1.02412
1.02405
1.02404
1.02403
1.03476
1.03432
1.03411
1.03342
1.03304
1.03245
1.03184
1.0312
1.03054
1.02989
1.02922
1.02858
1.02795
1.02734
1.0268
1.02627
1.02581
1.02539
1.02503
1.02472
1.02447
1.02426
1.02414
1.02399
1.02394
1.02386
1.03481
1.03453
1.03429
1.03379
1.03342
1.03291
1.03235
1.03176
1.03115
1.03052
1.02988
1.02923
1.02861
1.02798
1.0274
1.02684
1.02634
1.02587
1.02543
1.02508
1.02473
1.02449
1.02426
1.02405
1.02395
1.0238
1.03491
1.03477
1.0345
1.03423
1.03385
1.03341
1.0329
1.03237
1.0318
1.0312
1.03059
1.02995
1.02933
1.02869
1.02809
1.02749
1.02695
1.02642
1.02595
1.02552
1.02512
1.0248
1.0245
1.02427
1.02407
1.02392
1.03507
1.035
1.03483
1.03467
1.03424
1.03395
1.03353
1.03303
1.0325
1.03194
1.03134
1.03073
1.03009
1.02946
1.02883
1.02821
1.02761
1.02706
1.02653
1.02606
1.02561
1.02523
1.02487
1.02458
1.02429
1.02411
1.03525
1.03528
1.03521
1.03504
1.03485
1.03455
1.03416
1.03373
1.03324
1.03273
1.03215
1.03155
1.03091
1.03028
1.02963
1.02899
1.02836
1.02777
1.02718
1.02668
1.02616
1.02575
1.02534
1.02501
1.0247
1.02445
1.03551
1.03562
1.03562
1.03556
1.03544
1.03515
1.0349
1.03449
1.03405
1.03355
1.03301
1.03243
1.0318
1.03116
1.03049
1.02982
1.02916
1.02852
1.02791
1.02733
1.0268
1.02631
1.02589
1.02549
1.0252
1.0249
1.03579
1.03597
1.03609
1.03609
1.03605
1.03585
1.03567
1.03531
1.0349
1.03443
1.03391
1.03335
1.03271
1.03206
1.03138
1.0307
1.03
1.02932
1.02867
1.02806
1.02749
1.02697
1.02652
1.02613
1.02578
1.02552
1.03614
1.03642
1.03661
1.0367
1.03672
1.03666
1.03644
1.03621
1.03583
1.0354
1.03489
1.03432
1.0337
1.03302
1.03231
1.0316
1.03087
1.03016
1.02946
1.02883
1.02822
1.02771
1.02721
1.02682
1.02644
1.0262
1.03655
1.03692
1.03719
1.03739
1.03745
1.03746
1.03736
1.03713
1.03681
1.03638
1.03588
1.03533
1.0347
1.034
1.03327
1.03253
1.03176
1.03102
1.0303
1.02962
1.029
1.02843
1.02799
1.02755
1.02728
1.02696
1.03704
1.0375
1.03785
1.03811
1.03828
1.03831
1.03828
1.0381
1.03784
1.03741
1.03693
1.03638
1.03571
1.03501
1.03423
1.03348
1.03264
1.03189
1.03113
1.03043
1.02977
1.02921
1.02875
1.02838
1.02803
1.02787
1.03763
1.03817
1.03861
1.03895
1.03918
1.03927
1.03926
1.03917
1.03885
1.03852
1.03802
1.03742
1.03676
1.03601
1.03523
1.03436
1.03356
1.03268
1.03193
1.03117
1.03054
1.02996
1.02952
1.02916
1.02892
1.02886
1.03824
1.03887
1.03941
1.03983
1.04014
1.0403
1.04032
1.04025
1.04003
1.03965
1.03915
1.03852
1.03788
1.03702
1.03621
1.03526
1.0344
1.03348
1.03265
1.0319
1.03121
1.03072
1.03022
1.02997
1.02982
1.02983
1.03897
1.0397
1.04028
1.04078
1.04111
1.04134
1.04139
1.04136
1.04119
1.04078
1.04032
1.03961
1.03894
1.03801
1.03713
1.03611
1.03516
1.03415
1.03333
1.03242
1.03191
1.03131
1.03089
1.03079
1.03074
1.03077
1.03975
1.04057
1.04125
1.04178
1.04219
1.04246
1.0426
1.04257
1.04241
1.04194
1.04145
1.04071
1.0399
1.03892
1.03795
1.03684
1.03583
1.03473
1.03386
1.03296
1.03238
1.03186
1.03151
1.03152
1.03151
1.03168
1.04061
1.04147
1.04222
1.04287
1.04332
1.04368
1.04383
1.04381
1.04366
1.04313
1.04265
1.04192
1.0408
1.03983
1.03866
1.03749
1.03633
1.03533
1.03441
1.03366
1.0331
1.03258
1.03254
1.03249
1.03264
1.03291
1.04158
1.04265
1.04336
1.0441
1.04456
1.04493
1.04505
1.04505
1.04484
1.04441
1.04357
1.04278
1.04175
1.04104
1.03931
1.03849
1.03737
1.03649
1.03616
1.03592
1.03565
1.03594
1.03615
1.03613
1.03653
1.03679
1.04266
1.04375
1.04458
1.04525
1.04579
1.04616
1.04631
1.04626
1.04605
1.0456
1.04457
1.04396
1.04351
1.04141
1.04161
1.04178
1.04223
1.04326
1.04699
1.04983
1.0529
1.05648
1.05773
1.05737
1.05837
1.0561
1.04383
1.04488
1.04587
1.04652
1.04702
1.0475
1.04756
1.04754
1.04723
1.04682
1.04549
1.04603
1.04689
1.0446
1.05128
1.06264
1.06064
1.08382
1.10686
1.12552
1.14887
1.16909
1.17002
1.1709
1.16208
1.14724
1.045
1.04618
1.04714
1.04799
1.04831
1.04875
1.04873
1.04873
1.04825
1.04835
1.04876
1.04772
1.06021
1.056
1.09372
1.1319
1.22082
1.30844
1.40713
1.47261
1.52493
1.56303
1.56794
1.55348
1.55532
1.51033
1.04626
1.04745
1.04849
1.0493
1.04976
1.04999
1.05012
1.0501
1.05027
1.05006
1.05768
1.05641
1.11021
1.18686
1.36237
1.52265
1.62924
1.68961
1.72146
1.74544
1.76195
1.77737
1.783
1.78307
1.77907
1.77224
1.04726
1.04852
1.04956
1.05037
1.05067
1.05078
1.05109
1.05182
1.05251
1.06962
1.08089
1.19223
1.44534
1.62581
1.72143
1.75864
1.75621
1.74913
1.73251
1.7175
1.71686
1.72138
1.73539
1.76226
1.78277
1.79532
1.04847
1.04939
1.05015
1.05067
1.05121
1.05183
1.05321
1.05532
1.08535
1.13369
1.43438
1.66183
1.77265
1.78014
1.76394
1.67817
1.538
1.42949
1.34985
1.32303
1.33267
1.35315
1.41303
1.52235
1.65596
1.74935
1.05
1.05076
1.05131
1.05208
1.05304
1.05555
1.05901
1.10161
1.26816
1.62443
1.80302
1.82535
1.7787
1.62672
1.3617
1.20985
1.16929
1.16446
1.16324
1.1679
1.18404
1.20382
1.23543
1.28845
1.42294
1.62976
1.05181
1.05226
1.05303
1.0543
1.05618
1.06434
1.13311
1.44857
1.78037
1.87468
1.83523
1.65307
1.29654
1.13895
1.11599
1.12032
1.14857
1.2183
1.2614
1.25307
1.22637
1.21941
1.24351
1.31532
1.49166
1.7046
1.05414
1.05415
1.05541
1.05792
1.0774
1.22769
1.67157
1.90538
1.91257
1.7662
1.36474
1.13147
1.08373
1.08778
1.13151
1.26857
1.41319
1.47531
1.48175
1.43391
1.35944
1.34372
1.4189
1.56768
1.68246
1.72517
1.05588
1.05659
1.06119
1.11073
1.45469
1.88599
1.97792
1.891
1.55439
1.17742
1.07722
1.06446
1.08379
1.14314
1.26937
1.43514
1.51324
1.52559
1.52618
1.5216
1.51982
1.53986
1.58088
1.61507
1.63035
1.57489
1.05862
1.07605
1.28619
1.73754
1.96205
1.93835
1.73907
1.3281
1.0953
1.06369
1.06351
1.07943
1.10579
1.13827
1.20195
1.31219
1.39773
1.45328
1.45295
1.46618
1.46668
1.46536
1.43844
1.3764
1.27437
1.14107
1.18363
1.51715
1.89507
1.95132
1.86076
1.57667
1.1899
1.08247
1.06342
1.06085
1.06342
1.07082
1.08005
1.09199
1.1101
1.13566
1.16356
1.18328
1.19943
1.198
1.19437
1.16649
1.1495
1.13126
1.13571
1.13651
1.76798
1.91289
1.90851
1.75933
1.42827
1.15038
1.07967
1.06452
1.06173
1.06135
1.0637
1.06683
1.06954
1.07402
1.08019
1.08709
1.09514
1.1041
1.11392
1.12315
1.13482
1.16106
1.16478
1.22721
1.31371
1.50496
1.9258
1.86016
1.66919
1.34246
1.13479
1.08431
1.06841
1.06676
1.06588
1.07062
1.07771
1.08605
1.09771
1.11307
1.13125
1.15284
1.17956
1.21381
1.25911
1.32153
1.39878
1.49017
1.61848
1.76379
1.88571
2.01279
1.7933
1.54485
1.29504
1.15473
1.09389
1.08602
1.0807
1.08839
1.10754
1.14111
1.19455
1.27477
1.37808
1.45005
1.53919
1.60539
1.6751
1.74018
1.79167
1.84531
1.89342
1.95227
1.99437
2.02917
2.06181
2.06584
1.53187
1.35609
1.21499
1.14079
1.14013
1.13916
1.19024
1.29327
1.42747
1.56055
1.68156
1.82448
1.82508
1.89616
1.96904
1.94945
2.00577
2.00005
2.0306
2.02865
2.05003
2.05136
2.06337
2.06801
2.07331
2.07691
1.52043
1.39208
1.33604
1.33708
1.41014
1.50793
1.65446
1.77954
1.87269
1.94515
1.99062
2.03872
2.02534
2.06106
2.05115
2.06437
2.05653
2.06128
2.05768
2.0604
2.06076
2.06263
2.06529
2.06809
2.07089
2.07406
1.70457
1.69409
1.73548
1.7608
1.82892
1.9011
1.97386
2.02062
2.05171
2.06848
2.07778
2.07909
2.07637
2.07526
2.07238
2.06576
2.0644
2.05889
2.05782
2.05699
2.05723
2.05898
2.06084
2.06386
2.06666
2.06966
1.95141
1.95843
1.97757
1.99881
2.02974
2.05701
2.07694
2.08612
2.09041
2.08961
2.08781
2.08232
2.07819
2.07219
2.0669
2.0627
2.05598
2.05486
2.05172
2.05182
2.05228
2.05391
2.05612
2.0589
2.06197
2.06506
2.05876
2.06483
2.07236
2.08074
2.08962
2.09484
2.09729
2.0956
2.09327
2.08862
2.08404
2.07786
2.07209
2.06541
2.06046
2.05239
2.05063
2.0452
2.04481
2.04445
2.04543
2.04741
2.05013
2.05334
2.05696
2.06044
2.0941
2.09615
2.09858
2.1
2.10101
2.09996
2.09785
2.09409
2.08966
2.08412
2.07815
2.07138
2.06463
2.05809
2.04973
2.04676
2.03927
2.03743
2.03581
2.03584
2.0372
2.0396
2.04281
2.0469
2.05125
2.05566
2.10316
2.10311
2.10329
2.10237
2.1007
2.09795
2.09436
2.08937
2.08399
2.07718
2.07043
2.06257
2.05526
2.04751
2.03923
2.0353
2.02746
2.02626
2.0246
2.02517
2.02727
2.0307
2.03498
2.04001
2.04527
2.05055
2.10311