/*--------------------------------*- C++ -*----------------------------------*\
  =========                 |
  \\      /  F ield         | OpenFOAM: The Open Source CFD Toolbox
   \\    /   O peration     | Website:  https://openfoam.org
    \\  /    A nd           | Version:  10
     \\/     M anipulation  |
\*---------------------------------------------------------------------------*/
FoamFile
{
    format      ascii;
    class       surfaceScalarField;
    location    "0.251614";
    object      phi;
}
// * * * * * * * * * * * * * * * * * * * * * * * * * * * * * * * * * * * * * //

dimensions      [1 0 -1 0 0 0 0];

internalField   nonuniform List<scalar> 
31108
(
0.000315179
-3.95614e-05
0.000311679
-3.23427e-05
0.000309028
-2.53538e-05
0.000307209
-1.88588e-05
0.000306156
-1.30582e-05
0.000305803
-8.08014e-06
0.000305926
-3.92732e-06
0.000306501
-7.68309e-07
0.000307409
1.43199e-06
0.000308484
2.71635e-06
0.000309626
3.13451e-06
0.00031076
2.73399e-06
0.000311786
1.71047e-06
0.000312687
6.00958e-08
0.000313448
-2.06164e-06
0.000314028
-4.52395e-06
0.000314441
-7.20555e-06
0.000314708
-9.96939e-06
0.000314845
-1.2685e-05
0.000314882
-1.52174e-05
0.000314827
-1.74362e-05
0.000314729
-1.92193e-05
0.000314598
-2.04551e-05
0.000314447
-2.10438e-05
0.000314279
-2.08905e-05
0.000314111
-1.99529e-05
0.000313938
-1.81517e-05
0.000313748
-1.54643e-05
0.000313487
-1.18619e-05
0.000313354
-7.46455e-06
0.00031341
-2.2006e-06
0.000313525
3.92999e-06
0.000313786
1.06724e-05
0.000314324
1.78676e-05
0.000315167
2.54029e-05
0.000316405
3.30738e-05
0.000318079
4.07091e-05
0.000320228
4.80989e-05
0.000322879
5.50555e-05
0.000326016
6.14082e-05
0.000329615
6.70038e-05
0.000333631
7.17179e-05
0.000338005
7.54518e-05
0.000342665
7.81275e-05
0.000347548
7.97037e-05
0.000352583
8.0152e-05
0.000357649
7.9482e-05
0.00036273
7.77359e-05
0.000367729
7.49871e-05
0.000372609
7.13199e-05
6.68647e-05
0.000377322
0.000321078
-4.04047e-05
0.000317315
-3.31997e-05
0.000314228
-2.61294e-05
0.00031184
-1.94663e-05
0.000310124
-1.34303e-05
0.00030901
-8.18414e-06
0.00030845
-3.81318e-06
0.000308266
-3.35454e-07
0.000308424
2.11831e-06
0.000308829
3.62702e-06
0.000309363
4.20808e-06
0.00030994
3.94319e-06
0.000310539
2.98349e-06
0.000311083
1.37397e-06
0.000311568
-7.35531e-07
0.000312001
-3.2239e-06
0.000312366
-5.93745e-06
0.000312689
-8.75307e-06
0.000312985
-1.15273e-05
0.000313281
-1.4126e-05
0.000313591
-1.64181e-05
0.000313936
-1.82838e-05
0.000314318
-1.96158e-05
0.000314753
-2.03173e-05
0.000315235
-2.02992e-05
0.000315747
-1.95149e-05
0.000316279
-1.78944e-05
0.000316814
-1.54094e-05
0.000317349
-1.20385e-05
0.000317833
-7.81418e-06
0.000318309
-2.78737e-06
0.00031895
2.98947e-06
0.000319676
9.5113e-06
0.000320472
1.66023e-05
0.000321419
2.40641e-05
0.000322607
3.169e-05
0.000324088
3.93558e-05
0.000325905
4.68344e-05
0.000328082
5.39272e-05
0.000330634
6.04479e-05
0.000333546
6.62225e-05
0.000336813
7.11019e-05
0.000340368
7.49802e-05
0.00034419
7.77525e-05
0.000348213
7.93871e-05
0.000352387
7.98331e-05
0.000356659
7.91282e-05
0.000360964
7.73029e-05
0.000365291
7.44392e-05
0.00036957
7.06564e-05
6.60795e-05
0.000373799
0.000326872
-4.12232e-05
0.000322925
-3.41337e-05
0.00031947
-2.70826e-05
0.00031656
-2.03422e-05
0.000314207
-1.41463e-05
0.000312385
-8.681e-06
0.000311032
-4.07215e-06
0.000310144
-3.89246e-07
0.000309533
2.36584e-06
0.000309214
4.10723e-06
0.000309103
4.89394e-06
0.000309105
4.81957e-06
0.000309214
3.97425e-06
0.000309375
2.46561e-06
0.000309586
4.26148e-07
0.000309841
-2.0063e-06
0.000310148
-4.6934e-06
0.000310516
-7.48839e-06
0.000310969
-1.02567e-05
0.000311521
-1.28623e-05
0.000312179
-1.51713e-05
0.000312957
-1.70686e-05
0.000313855
-1.84564e-05
0.000314863
-1.92341e-05
0.000315969
-1.93226e-05
0.000317144
-1.86714e-05
0.000318367
-1.72208e-05
0.000319605
-1.49391e-05
0.000320835
-1.18068e-05
0.000322017
-7.82927e-06
0.000323138
-3.03809e-06
0.000324188
2.48535e-06
0.000325284
8.6836e-06
0.000326397
1.55301e-05
0.000327538
2.28224e-05
0.000328735
3.03685e-05
0.000330073
3.79976e-05
0.000331577
4.5505e-05
0.0003333
5.26766e-05
0.000335282
5.93291e-05
0.000337504
6.52497e-05
0.000339982
7.02945e-05
0.000342711
7.43098e-05
0.000345649
7.72062e-05
0.000348776
7.89095e-05
0.000352065
7.94023e-05
0.000355495
7.8687e-05
0.000359029
7.68355e-05
0.000362655
7.39018e-05
0.000366361
7.00619e-05
6.54143e-05
0.000370133
0.000332499
-4.20027e-05
0.000328452
-3.51146e-05
0.0003247
-2.81738e-05
0.000321329
-2.14413e-05
0.000318383
-1.51598e-05
0.000315872
-9.53099e-06
0.000313774
-4.70683e-06
0.000312067
-7.86739e-07
0.000310743
2.16735e-06
0.000309675
4.20191e-06
0.000308875
5.23656e-06
0.000308276
5.39391e-06
0.000307864
4.73186e-06
0.000307625
3.38239e-06
0.000307541
1.48463e-06
0.000307598
-8.22134e-07
0.000307835
-3.41872e-06
0.000308243
-6.12445e-06
0.000308841
-8.82685e-06
0.000309637
-1.13775e-05
0.000310639
-1.36569e-05
0.000311837
-1.55397e-05
0.000313229
-1.6947e-05
0.000314793
-1.77718e-05
0.000316503
-1.79449e-05
0.000318321
-1.74101e-05
0.000320209
-1.61206e-05
0.000322125
-1.40379e-05
0.000324025
-1.11462e-05
0.000325863
-7.44009e-06
0.000327599
-2.93078e-06
0.000329204
2.32784e-06
0.000330683
8.22662e-06
0.000332126
1.47495e-05
0.000333465
2.17776e-05
0.000334721
2.91636e-05
0.000335956
3.66867e-05
0.000337195
4.41566e-05
0.000338509
5.13506e-05
0.000339918
5.80791e-05
0.000341461
6.41154e-05
0.000343162
6.92885e-05
0.000345007
7.34501e-05
0.00034704
7.64588e-05
0.000349251
7.82629e-05
0.000351627
7.88285e-05
0.000354207
7.81385e-05
0.00035694
7.62974e-05
0.000359868
7.3368e-05
0.000362999
6.95086e-05
6.48654e-05
0.000366316
0.000337898
-4.27385e-05
0.000333819
-3.61182e-05
0.000329858
-2.93658e-05
0.000326107
-2.27167e-05
0.000322626
-1.64139e-05
0.000319462
-1.06772e-05
0.000316638
-5.67396e-06
0.000314158
-1.5251e-06
0.00031202
1.69062e-06
0.000310234
3.94085e-06
0.000308738
5.28081e-06
0.000307526
5.71159e-06
0.000306579
5.30101e-06
0.000305896
4.19e-06
0.000305481
2.51293e-06
0.000305357
3.67362e-07
0.000305492
-2.04361e-06
0.000305927
-4.61147e-06
0.000306657
-7.18524e-06
0.000307686
-9.63673e-06
0.000309009
-1.18395e-05
0.000310606
-1.36679e-05
0.000312472
-1.50712e-05
0.000314573
-1.59232e-05
0.000316861
-1.61587e-05
0.00031929
-1.57273e-05
0.00032182
-1.4596e-05
0.000324389
-1.27098e-05
0.000326933
-1.0056e-05
0.000329396
-6.62598e-06
0.000331738
-2.42955e-06
0.0003339
2.50332e-06
0.000335844
8.11869e-06
0.000337615
1.43043e-05
0.000339186
2.1015e-05
0.000340542
2.81378e-05
0.000341722
3.54914e-05
0.000342739
4.28585e-05
0.000343665
5.00055e-05
0.000344562
5.67509e-05
0.000345399
6.2862e-05
0.000346314
6.81308e-05
0.000347311
7.24066e-05
0.000348382
7.55388e-05
0.000349664
7.74472e-05
0.000351111
7.80924e-05
0.00035277
7.74881e-05
0.000354733
7.56949e-05
0.000356961
7.28193e-05
0.000359525
6.90021e-05
6.44147e-05
0.00036242
0.000342986
-4.34344e-05
0.000338961
-3.71315e-05
0.000334876
-3.06246e-05
0.000330808
-2.41229e-05
0.000326861
-1.78607e-05
0.000323118
-1.2061e-05
0.000319603
-6.90355e-06
0.000316382
-2.53769e-06
0.000313482
9.41809e-07
0.000310921
3.48233e-06
0.000308724
5.10411e-06
0.000306904
5.82208e-06
0.000305382
5.7771e-06
0.00030426
4.94536e-06
0.000303508
3.53677e-06
0.000303148
1.66031e-06
0.00030319
-5.2918e-07
0.000303626
-2.88936e-06
0.000304472
-5.29551e-06
0.000305706
-7.59222e-06
0.00030733
-9.69149e-06
0.00030931
-1.14492e-05
0.000311625
-1.28184e-05
0.000314218
-1.3674e-05
0.000317056
-1.39748e-05
0.00032008
-1.36449e-05
0.000323215
-1.26573e-05
0.000326403
-1.09697e-05
0.000329578
-8.55828e-06
0.000332658
-5.41274e-06
0.000335577
-1.53398e-06
0.000338268
3.0705e-06
0.000340695
8.34107e-06
0.000342814
1.41998e-05
0.000344676
2.05607e-05
0.000346173
2.7364e-05
0.000347347
3.44769e-05
0.000348188
4.16696e-05
0.000348766
4.87215e-05
0.000349141
5.54207e-05
0.000349369
6.15394e-05
0.000349481
6.68814e-05
0.000349564
7.12407e-05
0.000349747
7.44787e-05
0.000350021
7.65059e-05
0.00035051
7.72453e-05
0.00035132
7.67474e-05
0.000352435
7.50526e-05
0.000353973
7.22741e-05
0.000355968
6.85563e-05
6.40599e-05
0.000358423
0.000347783
-4.4111e-05
0.000343889
-3.81649e-05
0.000339728
-3.19263e-05
0.000335429
-2.56101e-05
0.000331102
-1.94282e-05
0.000326817
-1.36006e-05
0.000322675
-8.32203e-06
0.000318752
-3.749e-06
0.000315115
1.80221e-10
0.000311813
2.8603e-06
0.000308896
4.81745e-06
0.000306404
5.89336e-06
0.000304376
6.1533e-06
0.000302774
5.74543e-06
0.000301663
4.63439e-06
0.000301048
3.10033e-06
0.000300969
1.19659e-06
0.000301394
-9.22898e-07
0.000302319
-3.09633e-06
0.000303752
-5.24229e-06
0.000305632
-7.18445e-06
0.000307978
-8.87421e-06
0.00031069
-1.01779e-05
0.000313757
-1.10523e-05
0.000317118
-1.13986e-05
0.000320692
-1.1182e-05
0.000324403
-1.03448e-05
0.000328199
-8.84973e-06
0.000331963
-6.67846e-06
0.000335639
-3.8242e-06
0.000339126
-2.63143e-07
0.000342361
3.99343e-06
0.000345252
8.90038e-06
0.00034777
1.44197e-05
0.000349908
2.0424e-05
0.000351605
2.69037e-05
0.000352821
3.3693e-05
0.000353531
4.06651e-05
0.00035381
4.75652e-05
0.000353713
5.41665e-05
0.000353271
6.02543e-05
0.000352633
6.56034e-05
0.000351879
7.00222e-05
0.00035107
7.33567e-05
0.000350377
7.54735e-05
0.00034993
7.635e-05
0.000349796
7.59713e-05
0.000350114
7.44065e-05
0.000350966
7.17676e-05
0.000352368
6.81808e-05
6.38356e-05
0.00035442
0.000352233
-4.47799e-05
0.000348508
-3.92039e-05
0.000344392
-3.32644e-05
0.000339961
-2.71394e-05
0.000335315
-2.10678e-05
0.000330585
-1.52273e-05
0.000325876
-9.83527e-06
0.000321295
-5.06048e-06
0.000316947
-1.03238e-06
0.000312919
2.169e-06
0.000309307
4.50038e-06
0.000306155
5.97998e-06
0.000303539
6.64224e-06
0.000301499
6.58844e-06
0.000299996
5.93605e-06
0.000299129
4.73238e-06
0.000298881
3.16578e-06
0.000299263
1.35664e-06
0.000300271
-6.00548e-07
0.000301829
-2.508e-06
0.000303966
-4.34025e-06
0.000306607
-5.91426e-06
0.000309719
-7.18532e-06
0.000313208
-8.06286e-06
0.000317056
-8.47259e-06
0.00032114
-8.36185e-06
0.000325399
-7.68576e-06
0.000329765
-6.40337e-06
0.00033412
-4.48469e-06
0.000338375
-1.91143e-06
0.000342422
1.33133e-06
0.000346185
5.23994e-06
0.000349556
9.78726e-06
0.000352486
1.49477e-05
0.000354887
2.06011e-05
0.000356826
2.67436e-05
0.000358103
3.32138e-05
0.000358741
3.99145e-05
0.000358762
4.6598e-05
0.000358203
5.30701e-05
0.000357205
5.90757e-05
0.00035582
6.44084e-05
0.000354158
6.88537e-05
0.000352418
7.22508e-05
0.000350774
7.44622e-05
0.000349357
7.54695e-05
0.000348311
7.52313e-05
0.000347826
7.38284e-05
0.000347933
7.13472e-05
0.00034879
6.793e-05
6.37382e-05
0.000350397
0.000356378
-4.54713e-05
0.000352864
-4.02464e-05
0.000348854
-3.46118e-05
0.000344373
-2.86996e-05
0.000339506
-2.27056e-05
0.000334413
-1.68639e-05
0.000329214
-1.13647e-05
0.000324034
-6.3745e-06
0.00031902
-2.04751e-06
0.000314313
1.51785e-06
0.000310001
4.26295e-06
0.000306195
6.18298e-06
0.000303004
7.29734e-06
0.000300452
7.67737e-06
0.000298595
7.45673e-06
0.000297425
6.63275e-06
0.000296978
5.47072e-06
0.00029729
3.9303e-06
0.000298289
2.28656e-06
0.000300002
5.48099e-07
0.00030231
-1.11532e-06
0.000305232
-2.59648e-06
0.000308692
-3.85277e-06
0.000312593
-4.74161e-06
0.000316886
-5.23393e-06
0.000321457
-5.24357e-06
0.00032624
-4.74225e-06
0.000331155
-3.684e-06
0.000336059
-2.02317e-06
0.000340868
2.64219e-07
0.000345481
3.18427e-06
0.000349754
6.7484e-06
0.000353627
1.09475e-05
0.000356967
1.575e-05
0.000359671
2.10779e-05
0.000361856
2.68672e-05
0.00036328
3.30372e-05
0.000363856
3.94239e-05
0.000363636
4.59111e-05
0.000362724
5.22125e-05
0.000361134
5.81209e-05
0.000358976
6.34031e-05
0.00035649
6.78421e-05
0.000353844
7.12895e-05
0.000351218
7.35997e-05
0.000348831
7.47172e-05
0.000346894
7.46405e-05
0.000345553
7.33976e-05
0.00034497
7.10928e-05
0.000345224
6.78504e-05
6.38083e-05
0.000346362
0.000360166
-4.62207e-05
0.000356997
-4.13506e-05
0.000353154
-3.59477e-05
0.00034868
-3.02186e-05
0.000343693
-2.43168e-05
0.000338317
-1.84429e-05
0.000332693
-1.28038e-05
0.000326987
-7.58098e-06
0.000321372
-2.93392e-06
0.000315993
1.02636e-06
0.000311028
4.2188e-06
0.000306586
6.61443e-06
0.000302797
8.21913e-06
0.000299744
9.08266e-06
0.00029745
9.27482e-06
0.000295966
8.94427e-06
0.000295302
8.07459e-06
0.000295477
6.93847e-06
0.000296464
5.51384e-06
0.00029822
3.98452e-06
0.000300717
2.47079e-06
0.000303859
1.04805e-06
0.000307608
-1.96272e-07
0.000311877
-1.12727e-06
0.000316579
-1.72704e-06
0.000321628
-1.89977e-06
0.000326915
-1.59467e-06
0.000332354
-7.69102e-07
0.000337803
6.2854e-07
0.000343175
2.60673e-06
0.000348316
5.20937e-06
0.000353148
8.44455e-06
0.000357493
1.2302e-05
0.000361248
1.67663e-05
0.00036436
2.17884e-05
0.000366762
2.72565e-05
0.000368316
3.31151e-05
0.000368899
3.92668e-05
0.000368504
4.55377e-05
0.000367185
5.16729e-05
0.000365053
5.74803e-05
0.000362212
6.26926e-05
0.000358892
6.71181e-05
0.000355341
7.06121e-05
0.000351727
7.30022e-05
0.000348394
7.42401e-05
0.000345541
7.43121e-05
0.000343363
7.32364e-05
0.000342052
7.10963e-05
0.00034169
6.80097e-05
6.41038e-05
0.000342353
0.0003637
-4.7105e-05
0.000360857
-4.24216e-05
0.000357282
-3.7297e-05
0.000352936
-3.17138e-05
0.000347921
-2.58266e-05
0.000342321
-1.98899e-05
0.000336369
-1.40661e-05
0.000330222
-8.5748e-06
0.000324027
-3.56453e-06
0.00031804
8.23453e-07
0.000312428
4.4958e-06
0.000307356
7.40045e-06
0.000302957
9.52278e-06
0.00029936
1.0886e-05
0.000296629
1.15442e-05
0.000294809
1.16412e-05
0.000293861
1.11451e-05
0.000293857
1.03237e-05
0.00029477
9.13844e-06
0.000296523
7.8099e-06
0.000299131
6.39463e-06
0.000302475
4.99446e-06
0.000306488
3.7483e-06
0.000311085
2.71223e-06
0.000316164
1.97377e-06
0.000321661
1.61316e-06
0.000327428
1.68863e-06
0.000333356
2.25081e-06
0.000339374
3.35156e-06
0.000345274
5.02427e-06
0.000350993
7.30511e-06
0.000356363
1.02122e-05
0.000361199
1.37517e-05
0.000365431
1.79041e-05
0.000368905
2.26338e-05
0.000371562
2.7836e-05
0.000373293
3.34645e-05
0.000373903
3.94191e-05
0.000373328
4.54952e-05
0.000371693
5.15152e-05
0.000369043
5.72187e-05
0.000365491
6.23976e-05
0.000361388
6.68213e-05
0.000356912
7.037e-05
0.000352339
7.28369e-05
0.00034805
7.42017e-05
0.000344281
7.44033e-05
0.000341254
7.34791e-05
0.000339178
7.14767e-05
0.000338192
6.85061e-05
6.46741e-05
0.000338339
0.000366976
-4.80705e-05
0.000364592
-4.3683e-05
0.000361342
-3.86544e-05
0.000357208
-3.31182e-05
0.000352205
-2.72122e-05
0.000346505
-2.11189e-05
0.000340301
-1.50646e-05
0.000333738
-9.23845e-06
0.000327048
-3.81552e-06
0.000320479
1.04655e-06
0.000314235
5.23498e-06
0.000308526
8.67478e-06
0.000303512
1.13302e-05
0.000299357
1.32044e-05
0.000296128
1.43397e-05
0.000293897
1.4803e-05
0.000292645
1.47294e-05
0.000292406
1.4142e-05
0.000293168
1.3199e-05
0.000294907
1.20006e-05
0.000297575
1.06223e-05
0.000301046
9.23227e-06
0.000305261
7.90339e-06
0.000310153
6.7252e-06
0.000315623
5.79615e-06
0.000321512
5.20035e-06
0.000327733
5.00274e-06
0.0003342
5.26421e-06
0.000340728
6.04313e-06
0.000347218
7.38805e-06
0.000353487
9.33822e-06
0.000359407
1.19257e-05
0.00036482
1.51641e-05
0.000369508
1.90422e-05
0.000373415
2.35326e-05
0.000376306
2.85239e-05
0.000378295
3.39973e-05
0.000378931
3.98054e-05
0.000378249
4.58024e-05
0.00037626
5.17538e-05
0.000373088
5.74423e-05
0.00036888
6.26298e-05
0.000363964
6.71065e-05
0.000358596
7.07222e-05
0.000353069
7.32968e-05
0.000347816
7.47697e-05
0.000343101
7.5097e-05
0.000339212
7.42799e-05
0.000336346
7.23725e-05
0.000334634
6.94453e-05
6.56105e-05
0.000334245
0.000370174
-4.93002e-05
0.000368211
-4.50323e-05
0.000365346
-4.00362e-05
0.000361514
-3.44794e-05
0.000356675
-2.84393e-05
0.000350932
-2.20932e-05
0.000344529
-1.56998e-05
0.000337627
-9.45669e-06
0.000330476
-3.55234e-06
0.000323358
1.84039e-06
0.000316493
6.58389e-06
0.000310128
1.05838e-05
0.000304483
1.37763e-05
0.000299711
1.6157e-05
0.000295944
1.77416e-05
0.000293238
1.85891e-05
0.000291634
1.88385e-05
0.000291107
1.84358e-05
0.000291674
1.76827e-05
0.00029331
1.65438e-05
0.000295964
1.51652e-05
0.000299518
1.37047e-05
0.00030393
1.22211e-05
0.000309077
1.08364e-05
0.000314857
9.65502e-06
0.000321154
8.76181e-06
0.000327845
8.2362e-06
0.0003348
8.14605e-06
0.000341889
8.56588e-06
0.000348954
9.55261e-06
0.000355824
1.11599e-05
0.000362359
1.34288e-05
0.000368332
1.6385e-05
0.000373567
2.00265e-05
0.000377912
2.43302e-05
0.000381157
2.92075e-05
0.000383359
3.46082e-05
0.0003841
4.03968e-05
0.000383283
4.64191e-05
0.000380978
5.24216e-05
0.00037732
5.82225e-05
0.000372457
6.34947e-05
0.000366697
6.81175e-05
0.00036041
7.18539e-05
0.000353933
7.45664e-05
0.000347682
7.61603e-05
0.000341995
7.6588e-05
0.000337166
7.58369e-05
0.000333451
7.39339e-05
0.000331016
7.09647e-05
6.70064e-05
0.000329953
0.000373287
-5.08447e-05
0.00037181
-4.65641e-05
0.000369478
-4.154e-05
0.000366025
-3.57853e-05
0.0003614
-2.94728e-05
0.000355695
-2.27568e-05
0.000349156
-1.58863e-05
0.000341973
-9.11593e-06
0.000334383
-2.6319e-06
0.000326702
3.36449e-06
0.000319214
8.70413e-06
0.000312175
1.32817e-05
0.000305857
1.70119e-05
0.000300425
1.98729e-05
0.000296047
2.18703e-05
0.000292833
2.30527e-05
0.000290774
2.34982e-05
0.000289875
2.33128e-05
0.000290208
2.2617e-05
0.000291673
2.14294e-05
0.000294243
1.99958e-05
0.000297841
1.83536e-05
0.000302396
1.66405e-05
0.000307776
1.49621e-05
0.000313842
1.34566e-05
0.000320534
1.21883e-05
0.000327671
1.12615e-05
0.000335147
1.07582e-05
0.000342815
1.0764e-05
0.000350488
1.13548e-05
0.000358018
1.25927e-05
0.000365194
1.45379e-05
0.000371812
1.72261e-05
0.000377638
2.06751e-05
0.00038251
2.48648e-05
0.000386136
2.97121e-05
0.00038862
3.51932e-05
0.000389509
4.11005e-05
0.000388565
4.72895e-05
0.000386007
5.35439e-05
0.000381796
5.95727e-05
0.000376218
6.51389e-05
0.000369671
7.00164e-05
0.000362396
7.39536e-05
0.000354911
7.68531e-05
0.00034762
7.86168e-05
0.000340878
7.90972e-05
0.00033506
7.8346e-05
0.000330428
7.63482e-05
0.000327155
7.32024e-05
6.89737e-05
0.000325379
0.000376389
-5.27878e-05
0.000375627
-4.84155e-05
0.000373827
-4.31943e-05
0.000370834
-3.70833e-05
0.000366526
-3.03148e-05
0.000360933
-2.30491e-05
0.000354291
-1.55389e-05
0.000346843
-8.09692e-06
0.000338821
-9.10634e-07
0.000330567
5.79807e-06
0.000322426
1.17664e-05
0.000314675
1.69409e-05
0.000307602
2.12038e-05
0.000301463
2.44994e-05
0.000296406
2.68498e-05
0.000292542
2.82776e-05
0.000289994
2.88756e-05
0.000288665
2.87532e-05
0.000288643
2.79694e-05
0.000289892
2.67056e-05
0.000292329
2.50616e-05
0.000295947
2.31382e-05
0.00030058
2.10805e-05
0.000306131
1.9034e-05
0.000312522
1.70854e-05
0.00031955
1.53554e-05
0.000327165
1.39422e-05
0.000335179
1.29513e-05
0.00034344
1.24714e-05
0.000351794
1.26103e-05
0.000360018
1.34403e-05
0.000367927
1.50422e-05
0.000375255
1.74734e-05
0.00038179
2.07703e-05
0.000387247
2.49245e-05
0.000391373
2.98732e-05
0.000394245
3.55632e-05
0.000395237
4.17747e-05
0.000394284
4.83924e-05
0.0003914
5.5084e-05
0.00038661
6.16134e-05
0.000380385
6.76252e-05
0.000372926
7.29382e-05
0.000364583
7.72473e-05
0.000356027
8.04305e-05
0.000347575
8.23263e-05
0.000339716
8.28583e-05
0.000332806
8.20253e-05
0.00032713
7.98188e-05
0.000322942
7.63334e-05
7.16524e-05
0.000320342
0.000379632
-5.52522e-05
0.000379671
-5.06982e-05
0.000378511
-4.50525e-05
0.000376124
-3.84475e-05
0.000372195
-3.09863e-05
0.000366801
-2.29496e-05
0.000360081
-1.45982e-05
0.000352338
-6.26499e-06
0.000343894
1.7788e-06
0.000335037
9.27304e-06
0.000326146
1.59799e-05
0.000317601
2.17663e-05
0.000309719
2.65304e-05
0.000302748
3.02147e-05
0.000296909
3.28213e-05
0.000292355
3.43942e-05
0.000289149
3.50054e-05
0.000287387
3.4807e-05
0.000286926
3.38262e-05
0.000287866
3.23307e-05
0.00029015
3.03272e-05
0.000293693
2.79968e-05
0.000298372
2.54968e-05
0.000304101
2.29416e-05
0.00031072
2.04438e-05
0.000318147
1.81351e-05
0.000326213
1.61363e-05
0.000334797
1.45541e-05
0.000343733
1.35082e-05
0.000352783
1.31126e-05
0.000361825
1.34795e-05
0.000370537
1.47063e-05
0.000378726
1.68805e-05
0.000386075
2.00635e-05
0.000392245
2.42652e-05
0.000397046
2.94666e-05
0.000400279
3.55111e-05
0.000401563
4.23107e-05
0.000400567
4.95781e-05
0.000397333
5.70448e-05
0.000392066
6.43574e-05
0.000384995
7.11254e-05
0.000376491
7.70865e-05
0.000367088
8.19519e-05
0.000357243
8.55035e-05
0.00034752
8.75946e-05
0.000338392
8.81442e-05
0.000330255
8.71263e-05
0.000323437
8.45626e-05
0.000318181
8.05485e-05
7.51868e-05
0.00031466
0.000383108
-5.84139e-05
0.000384126
-5.35404e-05
0.000383826
-4.72993e-05
0.000382103
-3.99407e-05
0.000378627
-3.15502e-05
0.000373474
-2.24063e-05
0.000366714
-1.29846e-05
0.000358659
-3.48399e-06
0.000349677
5.61281e-06
0.000340109
1.4055e-05
0.000330396
2.15477e-05
0.000320948
2.79776e-05
0.000312117
3.32135e-05
0.000304198
3.72003e-05
0.000297471
3.99493e-05
0.0002921
4.15123e-05
0.000288186
4.19889e-05
0.000285848
4.15202e-05
0.000284886
4.02281e-05
0.000285484
3.82839e-05
0.000287532
3.57713e-05
0.00029094
3.29068e-05
0.000295662
2.98069e-05
0.000301505
2.65891e-05
0.000308391
2.34169e-05
0.000316185
2.04058e-05
0.000324732
1.76885e-05
0.000333915
1.54007e-05
0.000343534
1.36714e-05
0.000353427
1.26423e-05
0.000363345
1.24636e-05
0.000373041
1.32552e-05
0.000382216
1.5157e-05
0.000390535
1.82557e-05
0.000397652
2.26033e-05
0.000403159
2.81583e-05
0.000407055
3.48707e-05
0.000408635
4.24942e-05
0.000407608
5.0823e-05
0.000404158
5.93832e-05
0.000398224
6.78402e-05
0.00039023
7.57447e-05
0.000380593
8.26931e-05
0.000369837
8.83072e-05
0.000358622
9.23986e-05
0.000347402
9.47339e-05
0.000336809
9.52551e-05
0.00032725
9.39317e-05
0.000319114
9.08242e-05
0.000312663
8.60475e-05
7.97517e-05
0.000308099
0.000386929
-6.24958e-05
0.000389163
-5.71484e-05
0.000389925
-5.01245e-05
0.000388959
-4.16553e-05
0.000386166
-3.20166e-05
0.000381174
-2.14923e-05
0.000374332
-1.05436e-05
0.000365936
3.67004e-07
0.000356287
1.08046e-05
0.00034591
2.03308e-05
0.000335205
2.87452e-05
0.000324657
3.58383e-05
0.000314697
4.14886e-05
0.000305724
4.56722e-05
0.000297959
4.84112e-05
0.000291643
4.97867e-05
0.00028693
4.99327e-05
0.000283835
4.89893e-05
0.000282397
4.71757e-05
0.000282574
4.45537e-05
0.000284314
4.14096e-05
0.000287585
3.78041e-05
0.000292265
3.39202e-05
0.000298225
2.99004e-05
0.000305373
2.58879e-05
0.000313519
2.20245e-05
0.000322567
1.84488e-05
0.000332404
1.53085e-05
0.000342789
1.27601e-05
0.000353585
1.09648e-05
0.000364552
1.01244e-05
0.000375356
1.03867e-05
0.00038575
1.19724e-05
0.000395258
1.49997e-05
0.000403459
1.95711e-05
0.000410079
2.57554e-05
0.000414657
3.32818e-05
0.000416777
4.21252e-05
0.000415857
5.18742e-05
0.000411979
6.21253e-05
0.000405398
7.21603e-05
0.000396331
8.1687e-05
0.000385362
8.99522e-05
0.000373059
9.6679e-05
0.000360082
0.000101418
0.000347183
0.000104092
0.000334842
0.000104519
0.000323627
0.000102749
0.000313954
9.88712e-05
0.000306151
9.30584e-05
8.55148e-05
0.000300389
0.000391225
-6.77865e-05
0.000394985
-6.1805e-05
0.000397089
-5.37322e-05
0.000397049
-4.38254e-05
0.000394903
-3.2508e-05
0.000390262
-2.0097e-05
0.000383305
-7.25345e-06
0.000374347
5.52886e-06
0.000363898
1.7541e-05
0.000352439
2.84308e-05
0.000340534
3.78726e-05
0.000328668
4.56424e-05
0.000317403
5.16488e-05
0.000307129
5.58839e-05
0.000298177
5.84113e-05
0.000290801
5.93798e-05
0.000285143
5.8944e-05
0.000281272
5.73018e-05
0.000279261
5.4669e-05
0.00027892
5.12218e-05
0.000280339
4.71649e-05
0.000283426
4.26298e-05
0.000288074
3.77836e-05
0.000294115
3.27826e-05
0.000301463
2.77646e-05
0.000310012
2.28619e-05
0.000319582
1.82738e-05
0.000330106
1.41021e-05
0.000341333
1.05619e-05
0.000353161
7.82881e-06
0.000365304
6.15388e-06
0.000377425
5.78756e-06
0.000389309
6.9091e-06
0.000400278
9.87492e-06
0.000410063
1.4825e-05
0.000417732
2.16776e-05
0.000423449
3.04825e-05
0.000426181
4.09322e-05
0.000425497
5.26789e-05
0.000421263
6.517e-05
0.00041388
7.74635e-05
0.00040363
8.9132e-05
0.000390981
9.92636e-05
0.000376784
0.000107356
0.00036177
0.000113053
0.000346699
0.000116062
0.000332277
0.000116338
0.00031912
0.000113915
0.000307695
0.000108989
0.000298302
0.000101806
9.26452e-05
0.000291214
0.000396149
-7.46609e-05
0.000401784
-6.78729e-05
0.000405452
-5.84469e-05
0.000406757
-4.66597e-05
0.000405348
-3.30885e-05
0.00040103
-1.83158e-05
0.000393813
-2.95002e-06
0.000384223
1.21203e-05
0.000372719
2.61826e-05
0.000359921
3.86913e-05
0.000346453
4.92915e-05
0.000332971
5.77609e-05
0.000320088
6.40262e-05
0.000308269
6.81214e-05
0.000297929
7.02008e-05
0.000289325
7.04652e-05
0.000282623
6.91541e-05
0.000277907
6.65169e-05
0.000275156
6.27901e-05
0.000274345
5.82437e-05
0.000275413
5.30258e-05
0.000278294
4.7344e-05
0.000282856
4.13428e-05
0.000288969
3.51591e-05
0.000296559
2.89262e-05
0.000305455
2.28416e-05
0.000315551
1.70104e-05
0.000326853
1.16137e-05
0.000338958
6.85945e-06
0.000351935
2.9534e-06
0.000365545
2.60427e-07
0.000379014
-9.9314e-07
0.000392762
-3.25351e-07
0.000405507
2.45545e-06
0.000417165
7.74174e-06
0.000426711
1.56308e-05
0.000433653
2.59611e-05
0.000437278
3.86176e-05
0.000437048
5.29235e-05
0.000432495
6.85689e-05
0.00042412
8.38213e-05
0.000412293
9.8383e-05
0.000397617
0.000110983
0.000381026
0.000120906
0.000363487
0.000127733
0.000345852
0.000131163
0.000328955
0.000131143
0.000313463
0.00012783
0.000299958
0.000121486
0.000288807
0.000112526
0.000101331
0.000280229
0.00040168
-8.35524e-05
0.000409611
-7.57878e-05
0.000415371
-6.46823e-05
0.000418282
-5.05201e-05
0.000417804
-3.39934e-05
0.000413799
-1.61369e-05
0.000406169
2.61396e-06
0.00039568
2.04129e-05
0.000382736
3.70537e-05
0.000368169
5.15225e-05
0.000352772
6.34411e-05
0.000337324
7.26191e-05
0.000322486
7.89984e-05
0.00030888
8.27138e-05
0.000296925
8.40231e-05
0.000286928
8.32289e-05
0.00027907
8.06859e-05
0.000273403
7.67008e-05
0.000269918
7.15781e-05
0.000268635
6.5599e-05
0.000269302
5.89909e-05
0.000271951
5.19108e-05
0.00027642
4.45277e-05
0.000282609
3.69572e-05
0.000290381
2.93385e-05
0.000299651
2.18324e-05
0.000310326
1.45631e-05
0.000322316
7.70063e-06
0.000335496
1.48878e-06
0.000349687
-3.84732e-06
0.000364732
-7.81956e-06
0.000380281
-1.0183e-05
0.000395882
-1.0329e-05
0.000410983
-7.80403e-06
0.000424808
-2.14276e-06
0.000436456
6.90307e-06
0.000445214
1.93051e-05
0.000449974
3.46564e-05
0.000450544
5.26219e-05
0.00044562
7.19471e-05
0.000436108
9.14561e-05
0.000422526
0.000109741
0.000405366
0.000125546
0.000385872
0.000137837
0.000365166
0.000146076
0.00034433
0.000149942
0.00032442
0.000149426
0.000306239
0.000144861
0.00029036
0.000136682
0.000277194
0.000125426
0.000111699
0.000266991
0.000407405
-9.48403e-05
0.000418128
-8.60078e-05
0.000426392
-7.29163e-05
0.000431321
-5.58496e-05
0.000432123
-3.5593e-05
0.000428664
-1.35954e-05
0.000420788
9.04479e-06
0.000408983
3.08554e-05
0.000394293
5.06117e-05
0.000377451
6.74498e-05
0.000359571
8.08898e-05
0.000341632
9.07392e-05
0.000324423
9.70375e-05
0.000308653
0.000100033
0.000294829
0.000100156
0.000283282
9.78624e-05
0.000274169
9.36464e-05
0.000267525
8.79078e-05
0.000263307
8.10321e-05
0.000261413
7.33025e-05
0.000261789
6.49944e-05
0.000264205
5.62965e-05
0.00026858
4.73052e-05
0.000274822
3.81305e-05
0.000282772
2.89144e-05
0.000292439
1.97811e-05
0.000303591
1.08408e-05
0.000316306
2.28138e-06
0.000330469
-5.67738e-06
0.000345946
-1.26341e-05
0.000362643
-1.83246e-05
0.000379987
-2.19879e-05
0.000397666
-2.31705e-05
0.000415092
-2.11156e-05
0.000431494
-1.52426e-05
0.000445876
-4.98073e-06
0.000456514
1.00208e-05
0.000463437
2.87232e-05
0.000464714
5.08533e-05
0.000459509
7.57477e-05
0.000449018
0.000100228
0.000433235
0.000123371
0.000413253
0.000143312
0.000390401
0.000158559
0.000365995
0.000168603
0.000341432
0.000172944
0.000317981
0.000171721
0.000296676
0.000165408
0.000278159
0.000154793
0.000262856
0.000140663
0.000123829
0.000250949
0.000411758
-0.000108647
0.000425399
-9.87554e-05
0.000436579
-8.35871e-05
0.000444143
-6.33518e-05
0.000447053
-3.86308e-05
0.000444233
-1.12184e-05
0.000436374
1.6456e-05
0.000423479
4.32032e-05
0.000406701
6.70496e-05
0.000387254
8.68556e-05
0.0003664
0.000102124
0.000345418
0.000112649
0.000325365
0.0001186
0.000307091
0.000120447
0.00029116
0.000118857
0.000277913
0.000114518
0.000267478
0.000108109
0.000259849
0.00010015
0.000254927
9.11169e-05
0.000252537
8.13118e-05
0.000252581
7.10248e-05
0.000254833
6.04232e-05
0.000259107
4.96375e-05
0.000265384
3.86519e-05
0.000273511
2.76422e-05
0.000283447
1.66747e-05
0.000295095
5.82847e-06
0.000308504
-4.69881e-06
0.000323609
-1.46017e-05
0.000340082
-2.34238e-05
0.00035788
-3.08217e-05
0.000376375
-3.59078e-05
0.000395629
-3.82685e-05
0.000414353
-3.68772e-05
0.000433307
-3.10249e-05
0.000450209
-1.99435e-05
0.00046388
-2.53447e-06
0.000472568
2.00879e-05
0.000476058
4.74819e-05
0.00047135
7.90206e-05
0.000459333
0.000110413
0.000441614
0.000139146
0.000418667
0.000164341
0.000392392
0.000183188
0.000364214
0.000195429
0.000335706
0.000200407
0.000308509
0.000198223
0.000283868
0.000189669
0.000262614
0.000175932
0.000245146
0.000158229
0.000137652
0.000231586
0.000411165
-0.000124453
0.000427166
-0.000113672
0.000441379
-9.71938e-05
0.000452478
-7.43761e-05
0.000458422
-4.48494e-05
0.000457607
-1.07409e-05
0.000450185
2.35929e-05
0.00043642
5.69683e-05
0.000417805
8.6075e-05
0.000395754
0.000109784
0.000371848
0.000127345
0.000347604
0.000138646
0.000324425
0.000144014
0.000303409
0.000144213
0.000285242
0.000140276
0.00027027
0.000133254
0.000258554
0.000124058
0.000250021
0.000113363
0.000244477
0.000101748
0.000241693
8.95246e-05
0.000241472
7.69959e-05
0.000243568
6.42621e-05
0.00024782
5.14616e-05
0.000254109
3.85246e-05
0.000262327
2.5534e-05
0.000272494
1.25326e-05
0.000284563
-4.18097e-07
0.000298351
-1.30071e-05
0.000313838
-2.48729e-05
0.000330478
-3.53756e-05
0.000348273
-4.42409e-05
0.000366377
-5.04019e-05
0.000385344
-5.36621e-05
0.000403755
-5.27007e-05
0.000423572
-4.79117e-05
0.000441256
-3.63016e-05
0.000458332
-1.80957e-05
0.000472273
7.75903e-06
0.000477683
4.2583e-05
0.000473781
8.30033e-05
0.000462592
0.000118994
0.000441083
0.000158565
0.000415426
0.000188216
0.000386191