/*--------------------------------*- C++ -*----------------------------------*\
  =========                 |
  \\      /  F ield         | OpenFOAM: The Open Source CFD Toolbox
   \\    /   O peration     | Website:  https://openfoam.org
    \\  /    A nd           | Version:  10
     \\/     M anipulation  |
\*---------------------------------------------------------------------------*/
FoamFile
{
    format      ascii;
    class       volScalarField;
    location    "0.701681";
    object      p;
}
// * * * * * * * * * * * * * * * * * * * * * * * * * * * * * * * * * * * * * //

dimensions      [1 -1 -2 0 0 0 0];

internalField   nonuniform List<scalar> 
15708
(
2.47191
2.47443
2.47705
2.47979
2.48258
2.48543
2.48833
2.49128
2.49427
2.49731
2.50038
2.50349
2.50662
2.50977
2.51292
2.51606
2.51918
2.52226
2.52529
2.52823
2.53107
2.53379
2.53638
2.53882
2.54107
2.54311
2.54493
2.54652
2.54786
2.54894
2.54977
2.55034
2.55064
2.5507
2.55053
2.55012
2.54949
2.54866
2.54765
2.54647
2.54516
2.54374
2.54224
2.54069
2.53913
2.53759
2.5361
2.5347
2.53344
2.53235
2.53145
2.47046
2.47281
2.47532
2.47794
2.48067
2.48347
2.48635
2.48929
2.49229
2.49535
2.49845
2.5016
2.50478
2.50798
2.5112
2.51441
2.5176
2.52075
2.52385
2.52687
2.52979
2.5326
2.53528
2.5378
2.54014
2.54227
2.54419
2.54587
2.54731
2.54851
2.54944
2.55012
2.55055
2.55073
2.55068
2.5504
2.5499
2.54921
2.54834
2.54731
2.54614
2.54486
2.54351
2.5421
2.54067
2.53926
2.53789
2.5366
2.53542
2.53441
2.53356
2.46863
2.47086
2.47324
2.4758
2.47846
2.48124
2.4841
2.48706
2.49008
2.49317
2.49632
2.49952
2.50276
2.50603
2.50932
2.5126
2.51587
2.5191
2.52228
2.52539
2.52841
2.53132
2.5341
2.53671
2.53914
2.54138
2.5434
2.54519
2.54675
2.54806
2.54912
2.54993
2.5505
2.55082
2.5509
2.55078
2.55044
2.54991
2.5492
2.54833
2.54733
2.54622
2.54503
2.54379
2.54251
2.54124
2.54001
2.53884
2.53776
2.53684
2.53605
2.46645
2.46856
2.47087
2.47335
2.47598
2.47873
2.48161
2.48458
2.48764
2.49078
2.49398
2.49725
2.50057
2.50391
2.50728
2.51065
2.51401
2.51733
2.52061
2.52382
2.52694
2.52995
2.53283
2.53554
2.53808
2.54042
2.54256
2.54447
2.54616
2.5476
2.54881
2.54977
2.55048
2.55096
2.55122
2.55126
2.5511
2.55075
2.55023
2.54955
2.54874
2.54783
2.54682
2.54576
2.54466
2.54355
2.54247
2.54144
2.54048
2.53965
2.53892
2.46391
2.46593
2.46817
2.47061
2.47321
2.47597
2.47886
2.48187
2.48498
2.48818
2.49145
2.4948
2.4982
2.50164
2.5051
2.50856
2.51202
2.51545
2.51883
2.52215
2.52538
2.5285
2.53147
2.5343
2.53695
2.53941
2.54167
2.54372
2.54554
2.54714
2.5485
2.54962
2.55051
2.55117
2.55161
2.55184
2.55188
2.55174
2.55143
2.55097
2.55037
2.54967
2.54887
2.54801
2.54711
2.54619
2.54528
2.5444
2.54357
2.54284
2.5422
2.46099
2.46295
2.46515
2.46756
2.47017
2.47294
2.47586
2.47892
2.48209
2.48537
2.48873
2.49217
2.49566
2.4992
2.50276
2.50634
2.50991
2.51346
2.51696
2.52039
2.52373
2.52695
2.53004
2.53298
2.53576
2.53835
2.54075
2.54294
2.54491
2.54667
2.5482
2.5495
2.55058
2.55144
2.55209
2.55254
2.55279
2.55287
2.5528
2.55257
2.55222
2.55175
2.55119
2.55056
2.54987
2.54916
2.54843
2.54772
2.54705
2.54642
2.54588
2.45771
2.45962
2.4618
2.46421
2.46684
2.46964
2.47262
2.47574
2.47899
2.48236
2.48582
2.48936
2.49296
2.49662
2.50031
2.50401
2.50771
2.51137
2.51499
2.51853
2.52198
2.52532
2.52853
2.5316
2.53451
2.53724
2.53978
2.54213
2.54427
2.5462
2.54791
2.54941
2.55069
2.55177
2.55265
2.55333
2.55383
2.55416
2.55434
2.55437
2.55428
2.55407
2.55377
2.55339
2.55294
2.55245
2.55194
2.55141
2.5509
2.55041
2.54997
2.45406
2.45595
2.45813
2.46056
2.46322
2.46608
2.46913
2.47233
2.47568
2.47915
2.48272
2.48639
2.49013
2.49392
2.49775
2.50158
2.5054
2.50919
2.51292
2.51658
2.52015
2.52362
2.52696
2.53016
2.53321
2.53608
2.53878
2.54129
2.54361
2.54572
2.54763
2.54934
2.55085
2.55216
2.55328
2.55422
2.55499
2.55559
2.55605
2.55637
2.55656
2.55663
2.55661
2.5565
2.55632
2.55608
2.55579
2.55547
2.55513
2.55479
2.55446
2.45002
2.45193
2.45413
2.45659
2.45932
2.46225
2.46539
2.46871
2.47218
2.47578
2.4795
2.48331
2.48719
2.49112
2.49508
2.49904
2.50298
2.5069
2.51076
2.51455
2.51825
2.52185
2.52533
2.52867
2.53186
2.53489
2.53775
2.54043
2.54293
2.54525
2.54737
2.5493
2.55105
2.55262
2.554
2.55522
2.55627
2.55717
2.55793
2.55855
2.55905
2.55944
2.55972
2.5599
2.56
2.56003
2.55999
2.55989
2.55974
2.55956
2.55936
2.44558
2.44752
2.44978
2.45234
2.45515
2.45821
2.46147
2.46493
2.46854
2.47229
2.47615
2.48011
2.48413
2.4882
2.49229
2.49639
2.50047
2.50453
2.50852
2.51245
2.51629
2.52003
2.52364
2.52713
2.53047
2.53367
2.5367
2.53956
2.54226
2.54478
2.54713
2.5493
2.5513
2.55313
2.5548
2.55632
2.55768
2.5589
2.55998
2.56094
2.56177
2.56248
2.56309
2.56359
2.56399
2.5643
2.56453
2.56467
2.56473
2.56473
2.56467
2.44077
2.44282
2.44519
2.44786
2.45081
2.45398
2.45739
2.46098
2.46474
2.46863
2.47264
2.47675
2.48093
2.48515
2.4894
2.49365
2.49788
2.50208
2.50622
2.51029
2.51428
2.51816
2.52192
2.52556
2.52906
2.53242
2.53563
2.53868
2.54158
2.54432
2.5469
2.54933
2.5516
2.55371
2.55569
2.55752
2.55921
2.56077
2.5622
2.56351
2.5647
2.56577
2.56672
2.56756
2.56829
2.56891
2.56941
2.56981
2.5701
2.57029
2.57038
2.43568
2.43784
2.44034
2.44313
2.4462
2.44952
2.45307
2.45681
2.46073
2.46479
2.46898
2.47326
2.4776
2.482
2.48641
2.49083
2.49522
2.49958
2.50387
2.5081
2.51223
2.51626
2.52017
2.52397
2.52763
2.53116
2.53455
2.5378
2.54091
2.54388
2.5467
2.54939
2.55194
2.55436
2.55665
2.55881
2.56085
2.56278
2.56458
2.56627
2.56783
2.56928
2.57061
2.57181
2.57288
2.57383
2.57463
2.57531
2.57584
2.57623
2.57649
2.43019
2.43248
2.43511
2.43806
2.44127
2.44477
2.4485
2.4524
2.45651
2.46078
2.46516
2.46964
2.47417
2.47876
2.48335
2.48795
2.49252
2.49704
2.5015
2.50587
2.51016
2.51434
2.51842
2.52237
2.5262
2.5299
2.53348
2.53693
2.54025
2.54345
2.54653
2.54949
2.55233
2.55507
2.55769
2.56021
2.56262
2.56492
2.56712
2.5692
2.57118
2.57303
2.57475
2.57633
2.57777
2.57906
2.58019
2.58115
2.58194
2.58255
2.58299
2.42421
2.42667
2.42949
2.43261
2.43604
2.43972
2.44367
2.4478
2.45213
2.4566
2.4612
2.46589
2.47065
2.47544
2.48024
2.48503
2.48978
2.49448
2.49911
2.50365
2.5081
2.51244
2.51667
2.52078
2.52478
2.52866
2.53243
2.53608
2.53962
2.54305
2.54639
2.54963
2.55277
2.55583
2.5588
2.56169
2.56449
2.5672
2.56981
2.57232
2.57472
2.57699
2.57913
2.58112
2.58295
2.58461
2.58608
2.58735
2.58841
2.58925
2.58987
2.41774
2.42042
2.42347
2.42681
2.43049
2.43441
2.43859
2.44297
2.44755
2.45227
2.45712
2.46205
2.46705
2.47206
2.47709
2.48209
2.48704
2.49193
2.49674
2.50145
2.50606
2.51056
2.51495
2.51923
2.52339
2.52745
2.5314
2.53525
2.53901
2.54269
2.54628
2.54981
2.55326
2.55666
2.55999
2.56326
2.56647
2.5696
2.57265
2.5756
2.57845
2.58117
2.58375
2.58617
2.58841
2.59045
2.59228
2.59388
2.59523
2.59632
2.59714
2.41085
2.41379
2.41708
2.42069
2.42461
2.42881
2.43324
2.43794
2.44278
2.4478
2.45292
2.45813
2.46338
2.46865
2.47392
2.47915
2.48432
2.48941
2.4944
2.4993
2.50408
2.50874
2.51329
2.51773
2.52205
2.52628
2.53041
2.53446
2.53844
2.54235
2.54621
2.55002
2.5538
2.55754
2.56124
2.56491
2.56854
2.57211
2.57562
2.57904
2.58236
2.58556
2.5886
2.59147
2.59414
2.59659
2.5988
2.60073
2.60239
2.60374
2.60478
2.40359
2.40678
2.41034
2.41423
2.41843
2.42294
2.42769
2.43267
2.43785
2.44317
2.44861
2.45412
2.45967
2.46523
2.47076
2.47624
2.48164
2.48695
2.49214
2.49722
2.50218
2.507
2.51171
2.5163
2.52078
2.52517
2.52948
2.53372
2.5379
2.54205
2.54617
2.55027
2.55437
2.55846
2.56255
2.56663
2.57069
2.57473
2.57871
2.58263
2.58644
2.59013
2.59367
2.59701
2.60014
2.60301
2.60561
2.60791
2.60988
2.61151
2.61278
2.39604
2.3995
2.40331
2.40748
2.41199
2.41681
2.42191
2.42724
2.43276
2.43844
2.44422
2.45007
2.45594
2.46181
2.46764
2.47339
2.47904
2.48458
2.48999
2.49526
2.50039
2.50537
2.51023
2.51497
2.5196
2.52414
2.52861
2.53303
2.53742
2.54179
2.54617
2.55056
2.55497
2.55942
2.5639
2.56841
2.57292
2.57743
2.58192
2.58635
2.59068
2.59489
2.59894
2.60278
2.60638
2.60971
2.61272
2.61539
2.6177
2.61962
2.62113
2.38833
2.392
2.39606
2.40049
2.4053
2.41047
2.41592
2.42163
2.42754
2.4336
2.43976
2.44599
2.45223
2.45844
2.46459
2.47064
2.47657
2.48235
2.48798
2.49344
2.49874
2.50389
2.50889
2.51376
2.51853
2.52321
2.52782
2.53241
2.53698
2.54157
2.54619
2.55086
2.55559
2.56042
2.56527
2.57023
2.5752
2.58022
2.58523
2.59019
2.59507
2.59982
2.6044
2.60877
2.61287
2.61666
2.62011
2.62318
2.62584
2.62806
2.62983
2.38043
2.38436
2.38865
2.39333
2.39844
2.40394
2.40977
2.41588
2.42221
2.4287
2.43528
2.44192
2.44855
2.45514
2.46164
2.46802
2.47424
2.48029
2.48615
2.49181
2.49728
2.50258
2.50771
2.5127
2.51758
2.52238
2.52712
2.53185
2.53659
2.54138
2.54623
2.55118
2.55622
2.5614
2.56667
2.57208
2.57752
2.58307
2.58861
2.59413
2.59958
2.60491
2.61005
2.61496
2.61958
2.62387
2.62777
2.63125
2.63428
2.63682
2.63886
2.37239
2.37654
2.38105
2.38601
2.39143
2.39726
2.40344
2.41003
2.41681
2.42378
2.43081
2.43788
2.44494
2.45195
2.45884
2.46558
2.47212
2.47845
2.48455
2.49041
2.49605
2.50148
2.50672
2.51181
2.51678
2.52167
2.52652
2.53137
2.53625
2.54122
2.54628
2.55151
2.55684
2.5624
2.56808
2.57393
2.57989
2.58595
2.59206
2.59818
2.60421
2.61014
2.61588
2.62136
2.62653
2.63132
2.6357
2.63961
2.64302
2.6459
2.64822
2.36424
2.36856
2.3733
2.37852
2.38426
2.39046
2.3971
2.404
2.41132
2.4188
2.42637
2.43392
2.44145
2.44891
2.45623
2.46336
2.47025
2.47688
2.48322
2.48928
2.49507
2.50062
2.50596
2.51112
2.51616
2.52111
2.52603
2.53096
2.53596
2.54109
2.54634
2.5518
2.55746
2.56334
2.56946
2.57576
2.58224
2.58886
2.59556
2.60229
2.60896
2.61551
2.62187
2.62795
2.63369
2.63903
2.6439
2.64826
2.65206
2.65529
2.6579
2.35604
2.36045
2.36537
2.37085
2.3769
2.38346
2.39039
2.39798
2.40577
2.41384
2.4219
2.43003
2.4381
2.44608
2.45387
2.46143
2.46869
2.47563
2.48222
2.48847
2.49441
2.50005
2.50545
2.51065
2.51572
2.52069
2.52564
2.53063
2.53571
2.54097
2.54637
2.55207
2.55801
2.56425
2.57077
2.57753
2.58456
2.59177
2.59907
2.60646
2.6138
2.62102
2.62802
2.63474
2.64109
2.64699
2.65237
2.65719
2.6614
2.66498
2.66789
2.34782
2.35226
2.35728
2.36299
2.36932
2.3763
2.3838
2.39169
2.40014
2.40873
2.41749
2.42621
2.4349
2.44345
2.45178
2.45981
2.46748
2.47475
2.4816
2.48804
2.49409
2.49981
2.50523
2.51044
2.51548
2.52044
2.52538
2.53037
2.53548
2.54082
2.54637
2.55226
2.55848
2.56506
2.57199
2.57926
2.58683
2.59463
2.60261
2.61069
2.61873
2.62665
2.63435
2.64175
2.64873
2.65521
2.66112
2.66641
2.67104
2.67497
2.67819
2.33973
2.34399
2.34904
2.35488
2.36157
2.36894
2.37698
2.38553
2.39446
2.40371
2.41307
2.42256
2.43192
2.44113
2.45004
2.45858
2.46669
2.4743
2.48139
2.48801
2.49416
2.4999
2.50532
2.51047
2.51545
2.52034
2.52522
2.53016
2.53528
2.54063
2.54629
2.55235
2.5588
2.56573
2.57307
2.58086
2.58899
2.59747
2.60612
2.61492
2.62374
2.63241
2.64085
2.64896
2.6566
2.66369
2.67015
2.67591
2.68094
2.68522
2.68873
2.33178
2.33562
2.34048
2.34638
2.35331
2.36117
2.36982
2.37903
2.38864
2.39858
2.40874
2.41897
2.42919
2.43917
2.44877
2.45789
2.46647
2.47441
2.48174
2.48848
2.49468
2.5004
2.50574
2.51079
2.51565
2.52042
2.52517
2.53001
2.53505
2.54038
2.5461
2.55227
2.55896
2.56619
2.57398
2.58229
2.59105
2.60019
2.60959
2.61917
2.62879
2.63829
2.64752
2.65638
2.66471
2.67243
2.67944
2.68567
2.69107
2.69566
2.69943
2.32427
2.32738
2.33184
2.33762
2.34485
2.35303
2.36216
2.37211
2.38232
2.3929
2.40391
2.41491
2.42612
2.43692
2.44734
2.45716
2.46636
2.47472
2.48241
2.48939
2.49565
2.5013
2.50651
2.51141
2.51609
2.52065
2.52521
2.52987
2.53477
2.54001
2.54572
2.55197
2.55884
2.5664
2.57463
2.5835
2.59293
2.6028
2.61299
2.62341
2.63391
2.64431
2.65443
2.66403
2.6731
2.68142
2.68896
2.69562
2.70133
2.70615
2.71011
2.31641
2.31887
2.3233
2.32916
2.33709
2.34605
2.35616
2.36684
2.3782
2.38933
2.40108
2.41305
2.42473
2.43656
2.44741
2.45783
2.46724
2.47558
2.48356
2.49071
2.49697
2.50253
2.50758
2.51227
2.51671
2.52101
2.52529
2.52969
2.53436
2.53945
2.54507
2.55136
2.55838
2.56628
2.57499
2.58451
2.59462
2.60529
2.61625
2.62747
2.63892
2.65025
2.6612
2.67166
2.68145
2.69042
2.69851
2.70558
2.71152
2.71647
2.72054
2.29626
2.29942
2.30401
2.31021
2.31842
2.32843
2.33999
2.35244
2.36542
2.37852
2.39204
2.40551
2.41916
2.43228
2.44494
2.45697
2.46801
2.47775
2.48606
2.49308
2.49904
2.50428
2.50903
2.51341
2.51751
2.52145
2.52537
2.5294
2.53374
2.53858
2.54405
2.55033
2.55756
2.56581
2.57484
2.58507
2.59579
2.60712
2.61887
2.63087
2.64354
2.65609
2.66806
2.67966
2.69017
2.69975
2.70831
2.7156
2.7217
2.72661
2.7306
2.28228
2.28245
2.28566
2.29182
2.30062
2.31186
2.32551
2.34002
2.35483
2.36976
2.38447
2.39948
2.41456
2.4293
2.44348
2.45687
2.46915
2.48018
2.48825
2.49563
2.50147
2.50639
2.51077
2.51474
2.51841
2.52189
2.52532
2.52887
2.5328
2.53732
2.54269
2.5486
2.55578
2.56442
2.57358
2.58518
2.59718
2.61001
2.62343
2.6372
2.65031
2.66337
2.67641
2.68873
2.70041
2.71097
2.71966
2.7267
2.73213
2.73658
2.74018
2.27054
2.27069
2.27382
2.27999
2.28934
2.30117
2.31457
2.32921
2.34457
2.3605
2.37716
2.39409
2.41088
2.42724
2.44276
2.45741
2.47078
2.48256
2.4911
2.49838
2.504
2.50862
2.51261
2.51611
2.51926
2.52219
2.52504
2.52791
2.53114
2.535
2.54025
2.54681
2.55449
2.56373
2.57451
2.58527
2.59837
2.61269
2.62773
2.64307
2.65818
2.67294
2.68708
2.70052
2.71285
2.72365
2.73161
2.73796
2.74236
2.74594
2.74885
2.2601
2.26006
2.26276
2.26958
2.27946
2.29272
2.30776
2.32346
2.33949
2.35564
2.37254
2.39032
2.40837
2.42599
2.44272
2.45839
2.47269
2.48454
2.49344
2.50045
2.50603
2.5105
2.51417
2.51717
2.51964
2.5218
2.52402
2.52643
2.52992
2.53386
2.53889
2.54367
2.55131
2.56117
2.57298
2.58619
2.60097
2.61693
2.63353
2.65034
2.66704
2.68317
2.69848
2.71294
2.72567
2.73636
2.74327
2.74808
2.75139
2.75394
2.75605
2.25053
2.2503
2.25401
2.26168
2.27132
2.28581
2.30209
2.31872
2.33552
2.35279
2.37063
2.38896
2.40757
2.42597
2.44339
2.45983
2.47411
2.48539
2.49457
2.50175
2.5073
2.51156
2.51485
2.5175
2.51992
2.522
2.52391
2.52608
2.52758
2.53073
2.53569
2.54121
2.55039
2.56096
2.5736
2.5883
2.60444
2.62195
2.64005
2.65783
2.67587
2.69324
2.70957
2.72517
2.73809
2.74676
2.75227
2.75619
2.75874
2.76162
2.76445
2.24366
2.24371
2.24809
2.25671
2.26742
2.28243
2.29956
2.31739
2.33495
2.35217
2.37001
2.38894
2.40818
2.42664
2.44365
2.45963
2.474
2.48566
2.49476
2.50196
2.50766
2.51208
2.51567
2.51784
2.51934
2.52073
2.5225
2.52414
2.52596
2.52832
2.53144
2.53705
2.54535
2.55686
2.5708
2.58714
2.60469
2.62378
2.64399
2.66447
2.68407
2.70283
2.72047
2.73632
2.74727
2.75462
2.75885
2.76318
2.76605
2.7688
2.77172
2.24116
2.23894
2.24447
2.25351
2.26445
2.27939
2.29667
2.31487
2.33332
2.3518
2.37012
2.38854
2.40747
2.42643
2.44391
2.45917
2.47261
2.48476
2.49513
2.50254
2.50801
2.51202
2.51517
2.51742
2.51885
2.51916
2.51846
2.51826
2.51899
2.52198
2.52727
2.53492
2.54441
2.55681
2.57181
2.58923
2.60761
2.62758
2.64837
2.67121
2.69267
2.71304
2.72999
2.74354
2.7535
2.76035
2.76643
2.76982
2.77311
2.77573
2.77752
2.23839
2.23935
2.24569
2.25332
2.26548
2.27906
2.29528
2.31289
2.33115
2.35018
2.36962
2.38808
2.40652
2.42441
2.4423
2.45931
2.47338
2.48475
2.49395
2.50126
2.50677
2.51133
2.51432
2.51531
2.51491
2.51429
2.51423
2.51532
2.51755
2.51953
2.52461
2.53286
2.54353
2.55734
2.57342
2.59177
2.61137
2.63356
2.65641
2.67931
2.70212
2.71896
2.73494
2.74763
2.75824
2.7672
2.77275
2.77645
2.77909
2.78077
2.78282
2.23935
2.24189
2.24795
2.25658
2.2678
2.2815
2.29697
2.31423
2.33149
2.34947
2.36873
2.38808
2.40741
2.42589
2.4419
2.45788
2.47087
2.48166
2.49096
2.49854
2.50408
2.50821
2.5107
2.51251
2.51335
2.51349
2.51352
2.51438
2.51749
2.52176
2.52815
2.53764
2.54883
2.56329
2.57995
2.59964
2.62129
2.6419
2.66901
2.69017
2.70824
2.72599
2.73587
2.75257
2.76464
2.77179
2.77797
2.78144
2.78415
2.78424
2.78623
2.2381
2.24163
2.24786
2.25659
2.26777
2.2811
2.29579
2.3124
2.33091
2.34935
2.36818
2.38603
2.40414
2.42239
2.43842
2.45341
2.46624
2.47705
2.48661
2.49452
2.50052
2.50553
2.50947
2.51199
2.5136
2.51483
2.5163
2.52022
2.5242
2.52965
2.53774
2.54834
2.56076
2.57634
2.59387
2.61165
2.63286
2.6544
2.67426
2.69714
2.71377
2.73141
2.74416
2.75363
2.76851
2.77623
2.78234
2.78531
2.78791
2.79175
2.79222
2.23498
2.23915
2.24585
2.255
2.26636
2.27976
2.29382
2.3107
2.32872
2.34643
2.36432
2.38229
2.40027
2.41772
2.43365
2.44828
2.46132
2.47252
2.48249
2.49151
2.49798
2.50404
2.50902
2.51306
2.5165
2.51969
2.52285
2.52881
2.53504
2.54236
2.55214
2.56374
2.57728
2.59293
2.6103
2.62989
2.64799
2.66578
2.68665
2.70342
2.72552
2.73531
2.74749
2.76088
2.77297
2.78121
2.78662
2.79231
2.79466
2.796
2.79697
2.22963
2.2345
2.24171
2.25069
2.262
2.27506
2.28986
2.3062
2.32349
2.34114
2.35917
2.37738
2.39537
2.41263
2.42881
2.44373
2.45745
2.46879
2.47894
2.48836
2.49598
2.50343
2.50987
2.5157
2.52125
2.52684
2.53264
2.54061
2.54865
2.55872
2.57003
2.58299
2.59727
2.61269
2.62864
2.6457
2.66291
2.6787
2.70032
2.71765
2.7321
2.74208
2.7556
2.7695
2.77905
2.78712
2.79283
2.79685
2.80005
2.80213
2.80323
2.2236
2.22909
2.23656
2.24603
2.25757
2.27074
2.28548
2.3015
2.31843
2.33599
2.35406
2.37233
2.39039
2.40777
2.42416
2.43972
2.45524
2.46477
2.47561
2.48557
2.49489
2.50367
2.51187
2.51969
2.52742
2.53539
2.5439
2.55358
2.56393
2.5756
2.58846
2.60242
2.61724
2.63261
2.64781
2.66249
2.67987
2.69624
2.71684
2.72689
2.74131
2.75389
2.76548
2.77711
2.78664
2.79349
2.79925
2.80356
2.80679
2.80913
2.81025
2.21832
2.22404
2.23163
2.24131
2.25285
2.26599
2.28057
2.29638
2.31316
2.33072
2.3488
2.36709
2.38522
2.40278
2.41946
2.43548
2.45154
2.46354
2.47271
2.48389
2.4946
2.50496
2.51497
2.52481
2.53475
2.54489
2.55565
2.56729
2.57968
2.59285
2.60677
2.62145
2.63639
2.65247
2.67158
2.68725
2.70215
2.7114
2.72806
2.74277
2.75493
2.76658
2.77703
2.78624
2.79446
2.80115
2.80676
2.81115
2.81449
2.81681
2.81782
2.21336
2.21914
2.22689
2.23655
2.24801
2.26105
2.27546
2.29113
2.30776
2.32523
2.34327
2.36156
2.37979
2.39759
2.4147
2.43102
2.44645
2.46054
2.47353
2.48296
2.49491
2.50691
2.51858
2.53016
2.54207
2.55445
2.56732
2.58079
2.59499
2.60989
2.62583
2.64316
2.66057
2.6775
2.69273
2.7078
2.72038
2.73312
2.74691
2.75837
2.76939
2.77932
2.78822
2.79624
2.80359
2.80994
2.81534
2.8197
2.82307
2.8253
2.82615
2.20902
2.21476
2.2225
2.23202
2.24327
2.25616
2.27045
2.28592
2.30232
2.3196
2.33753
2.35574
2.37402
2.39202
2.40956
2.42635
2.44216
2.45685
2.47061
2.4851
2.49613
2.50907
2.52269
2.53619
2.55014
2.56478
2.57996
2.59592
2.61281
2.63034
2.64799
2.66533
2.68347
2.70098
2.71706
2.73078
2.74281
2.75407
2.76525
2.77467
2.78375
2.79209
2.7998
2.80701
2.81374
2.81978
2.82497
2.82933
2.83267
2.83474
2.83541
2.20542
2.21102
2.21854
2.22786
2.23883
2.25155
2.26545
2.28113
2.29713
2.31403
2.33176
2.34985
2.36813
2.38628
2.40416
2.42149
2.43816
2.45452
2.46796
2.48426
2.49885
2.51348
2.52857
2.54401
2.56015
2.5769
2.59422
2.6124
2.63148
2.65107
2.67062
2.6897
2.70801
2.72492
2.74025
2.75324
2.76402
2.77395
2.78242
2.79025
2.79761
2.80461
2.81153
2.81803
2.82443
2.83032
2.83557
2.83999
2.8433
2.84527
2.84576
2.2027
2.20802
2.2153
2.22436
2.23509
2.2474
2.26111
2.27605
2.29195
2.30874
2.32623
2.3442
2.36243
2.38074
2.39892
2.4168
2.43436
2.45171
2.46783
2.48398
2.50168
2.51816
2.53521
2.55291
2.5713
2.59022
2.60979
2.63
2.65073
2.67157
2.6921
2.71189
2.73
2.74629
2.76069
2.77247
2.78219
2.79048
2.79755
2.80398
2.81015
2.81633
2.82264
2.82903
2.83533
2.84141
2.84698
2.85148
2.85511
2.85693
2.85731
2.20085
2.20582
2.21276
2.22149
2.23189
2.24383
2.25712
2.27171
2.28736
2.30392
2.32122
2.33908
2.35733
2.37579
2.39431
2.4128
2.4314
2.44899
2.46756
2.48577
2.50426
2.52285
2.54191
2.56159
2.58189
2.60255
2.62426
2.64588
2.66768
2.6894
2.71055
2.73006
2.74794
2.76379
2.7771
2.788
2.79674
2.80369
2.80962
2.81505
2.82048
2.82624
2.83245
2.83905
2.84584
2.85236
2.85852
2.86374
2.86775
2.86971
2.8699
2.19985
2.20441
2.21093
2.21928
2.2293
2.24086
2.25382
2.26806
2.28342
2.29975
2.31689
2.33469
2.35302
2.37169
2.39056
2.40963
2.42886
2.44817
2.46793
2.48713
2.50742
2.52784
2.54865
2.56999
2.59187
2.61405
2.63677
2.65954
2.68212
2.70413
2.72512
2.7445
2.76189
2.77693
2.78938
2.79925
2.80682
2.81287
2.81782
2.82246
2.82749
2.83328
2.83993
2.84728
2.85503
2.8627
2.86986
2.87608
2.88096
2.88334
2.88357
2.1997
2.20383
2.20987
2.21778
2.22739
2.23857
2.25119
2.26511
2.28019
2.29629
2.31332
2.33116
2.34963
2.36861
2.3878
2.40751
2.42756
2.4479
2.46865
2.48961
2.51107
2.53296
2.55523
2.57795
2.6011
2.62437
2.64784
2.67119
2.69406
2.71606
2.73667
2.75548
2.77206
2.78603
2.7972
2.80587
2.81236
2.8173
2.82129
2.82537
2.83035
2.83671
2.84443
2.85324
2.86268
2.8721
2.88088
2.88853
2.89467
2.89778
2.8981
2.20037
2.20404
2.2096
2.21706
2.22624
2.23703
2.2493
2.26292
2.27774
2.29366
2.31062
2.32851
2.3472
2.3666
2.38598
2.40635
2.42743
2.44858
2.47033
2.49254
2.51522
2.53834
2.56184
2.58566
2.60969
2.63378
2.65776
2.68132
2.70411
2.72575
2.74568
2.76348
2.77871
2.79121
2.80095
2.80795
2.81289
2.81643
2.81945
2.82295
2.82804
2.83522
2.84441
2.85525
2.86697
2.8787
2.88957
2.89903
2.9068
2.91157
2.91239
2.20183
2.20502
2.21008
2.21708
2.22584
2.23625
2.24818
2.26153
2.27617
2.29199
2.30892
2.32686
2.34568
2.36528
2.38543
2.40642
2.42805
2.4502
2.47293
2.49621
2.51997
2.54414
2.56861
2.59341
2.6181
2.64269
2.66692
2.6904
2.71277
2.73367
2.7526
2.76909
2.78275
2.79334
2.80093
2.80594
2.80902
2.81069
2.81216
2.81482
2.82008
2.82869
2.84035
2.85424
2.86947
2.88456
2.89809
2.90945
2.91877
2.92594
2.92862
2.53081
2.53043
2.53039
2.53065
2.53132
2.5324
2.53396
2.53599
2.53853
2.54156
2.5451
2.54915
2.55367
2.55866
2.56407
2.56987
2.57602
2.58247
2.58916
2.59604
2.60306
2.61015
2.61728
2.6244
2.63146
2.63843
2.53294
2.53256
2.53248
2.53268
2.53325
2.53419
2.53557
2.53738
2.53965
2.5424
2.54561
2.54931
2.55347
2.55808
2.56312
2.56856
2.57436
2.58048
2.58689
2.59353
2.60035
2.60732
2.61437
2.62147
2.62859
2.63567
2.53545
2.53508
2.53497
2.53512
2.53558
2.53638
2.53757
2.53916
2.54117
2.54361
2.5465
2.54984
2.55363
2.55786
2.56251
2.56757
2.57301
2.5788
2.5849
2.59128
2.5979
2.6047
2.61166
2.61872
2.62585
2.63302
2.53837
2.53801
2.53787
2.53796
2.53832
2.53898
2.53999
2.54135
2.54309
2.54523
2.54779
2.55076
2.55417
2.55801
2.56227
2.56693
2.572
2.57744
2.58322
2.58932
2.5957
2.60232
2.60915
2.61615
2.62328
2.63049
2.5417
2.54135
2.54119
2.54123
2.54148
2.54201
2.54283
2.54396
2.54544
2.54727
2.54949
2.5521
2.55511
2.55855
2.5624
2.56667
2.57134
2.57641
2.58186
2.58765
2.59378
2.60019
2.60687
2.61378
2.62087
2.62811
2.54543
2.54511
2.54493
2.54492
2.54508
2.54547
2.5461
2.54701
2.54821
2.54974
2.55161
2.55385
2.55647
2.55949
2.56293
2.56678
2.57105
2.57573
2.58082
2.5863
2.59214
2.59833
2.60484
2.61162
2.61865
2.62589
2.54959
2.5493
2.54911
2.54904
2.54912
2.54937
2.54981
2.55049
2.55142
2.55264
2.55416
2.55602
2.55824
2.56085
2.56386
2.56728
2.57113
2.57542
2.58013
2.58527
2.59081
2.59675
2.60306
2.6097
2.61664
2.62384
2.55416
2.55391
2.55372
2.55361
2.5536
2.55371
2.55398
2.55442
2.55508
2.55598
2.55715
2.55863
2.56044
2.56262
2.56519
2.56817
2.57159
2.57546
2.57978
2.58456
2.58979
2.59546
2.60155
2.60803
2.61485
2.62199
2.55915
2.55895
2.55877
2.55861
2.55852
2.5585
2.55858
2.5588
2.55918
2.55976
2.56058
2.56166
2.56305
2.56479
2.56691
2.56944
2.57242
2.57585
2.57977
2.58418
2.58908
2.59446
2.60032
2.60661
2.6133
2.62036
2.56456
2.56441
2.56424
2.56405
2.56388
2.56373
2.56363
2.56362
2.56372
2.56398
2.56443
2.56512
2.56609
2.56738
2.56903
2.57109
2.5736
2.57659
2.58009
2.58411
2.58867
2.59375
2.59936
2.60545
2.612
2.61896
2.57038
2.5703
2.57015
2.56993
2.56968
2.5694
2.56912
2.56888
2.5687
2.56864
2.56872
2.569
2.56952
2.57033
2.5715
2.57308
2.57511
2.57763
2.5807
2.58432
2.58852
2.59331
2.59865
2.60454
2.61094
2.61779
2.57661
2.5766
2.57648
2.57625
2.57592
2.57551
2.57505
2.57457
2.57412
2.57372
2.57342
2.57327
2.57333
2.57365
2.57432
2.57538
2.57692
2.57897
2.58158
2.5848
2.58863
2.5931
2.59819
2.60388
2.61012
2.61687
2.58324
2.58332
2.58324
2.583
2.58259
2.58205
2.58142
2.5807
2.57995
2.5792
2.57849
2.57789
2.57748
2.57732
2.57746
2.57799
2.57901
2.58055
2.5827
2.5855
2.58896
2.59312
2.59795
2.60344
2.60954
2.6162
2.59027
2.59044
2.5904
2.59016
2.58969
2.58903
2.58821
2.58726
2.58619
2.58506
2.58394
2.58288
2.58197
2.58127
2.58089
2.58089
2.58133
2.58235
2.584
2.58636
2.58946
2.59331
2.5979
2.60321
2.60918
2.61577
2.59769
2.59797
2.59797
2.59774
2.59722
2.59643
2.59542
2.59421
2.59282
2.59131
2.58975
2.58821
2.58676
2.5855
2.58453
2.58395
2.58386
2.5843
2.58543
2.58733
2.59006
2.59361
2.59797
2.60313
2.60901
2.61556
2.6055
2.60589
2.60595
2.60572
2.60516
2.60425
2.60304
2.60156
2.59984
2.59792
2.59592
2.59385
2.59182
2.58995
2.58835
2.58714
2.58644
2.58634
2.58691
2.58832
2.59065
2.59393
2.5981
2.60313
2.60897
2.61554
2.61368
2.61419
2.61433
2.61411
2.6135
2.61248
2.61106
2.6093
2.60724
2.60491
2.60239
2.59975
2.59711
2.59457
2.59228
2.59038
2.58901
2.5883
2.58837
2.58923
2.59116
2.59415
2.59817
2.60314
2.60901
2.61566
2.62222
2.62287
2.62309
2.62288
2.62224
2.62109
2.61947
2.61743
2.61501
2.61223
2.60916
2.60591
2.60257
2.59931
2.59625
2.59358
2.59147
2.59009
2.58958
2.58999
2.59145
2.59418
2.59808
2.60306
2.609
2.61582
2.63112
2.63192
2.63223
2.63205
2.63138
2.6301
2.62828
2.62595
2.62313
2.61989
2.61622
2.61227
2.60817
2.60407
2.60016
2.59664
2.59372
2.59161
2.59041
2.59037
2.59142
2.59389
2.59777
2.6028
2.60891
2.61604
2.64036
2.64133
2.64174
2.6416
2.64089
2.63951
2.63749
2.63485
2.63163
2.62785
2.62353
2.61879
2.61385
2.6088
2.60398
2.59951
2.59566
2.59274
2.59081
2.5902
2.59092
2.59314
2.597
2.60222
2.60855
2.61611
2.64995
2.65109
2.65162
2.65152
2.6508
2.64932
2.64709
2.64414
2.64048
2.63611
2.63108
2.62546
2.61962
2.6135
2.60771
2.60201
2.59754
2.59344
2.59068
2.58974
2.59028
2.59229
2.59616
2.60162
2.60834
2.61617
2.65988
2.6612
2.66186
2.66182
2.66109
2.65953
2.65709
2.65382
2.6497
2.64468
2.63888
2.63233
2.62549
2.61795
2.61136
2.60328
2.60002
2.59391
2.58982
2.58857
2.58912
2.59134
2.59558
2.60148
2.60843
2.61643
2.67012
2.67165
2.67244
2.67248
2.67176
2.6701
2.66747
2.66387
2.65926
2.65368
2.6469
2.63953
2.63164
2.62325
2.61344
2.60609
2.60033
2.59529
2.59158
2.58992
2.59028
2.59232
2.59655
2.60221
2.60928
2.61773
2.68067
2.68239
2.68333
2.68345
2.68275
2.681
2.67815
2.6742
2.66912
2.66296
2.65493
2.64727
2.63679
2.62687
2.61982
2.61171
2.60356
2.59676
2.59202
2.59012
2.59073
2.59328
2.59793
2.60383
2.61124
2.62005
2.69146
2.69337
2.69443
2.69462
2.69391
2.69206
2.68894
2.68457
2.67915
2.67267
2.663
2.65407
2.64596
2.63635
2.6262
2.61581
2.60668
2.59891
2.59321
2.5908
2.59171
2.59394
2.59926
2.60551
2.6131
2.62228
2.70237
2.70444
2.70559
2.70579
2.70503
2.70305
2.69957
2.6946
2.68913
2.68241
2.67421
2.66579
2.65617
2.64505
2.63315
2.62002
2.60724
2.59799
2.59243
2.59034
2.59081
2.59452
2.60017
2.60708
2.61509
2.62471
2.7132
2.71537
2.71654
2.71668
2.71583
2.71382
2.70995
2.70362
2.7006
2.69436
2.68634
2.67729
2.66569
2.65171
2.63714
2.62368
2.61039
2.59924
2.59224
2.59014
2.59102
2.59506
2.6012
2.60844
2.6167
2.62683
2.7237
2.72588
2.72699
2.72695
2.72573
2.72395
2.72049
2.71648
2.71231
2.70612
2.69726
2.6861
2.67318
2.65942
2.64434
2.62869
2.61411
2.60371
2.59612
2.59196
2.59277
2.59722
2.60373
2.61132
2.61986
2.63021
2.73369
2.73581
2.73677
2.73642
2.73425
2.73547
2.73351
2.73
2.72417
2.71552
2.7054
2.69463
2.68233
2.66736
2.65195
2.63668
2.62205
2.61049
2.6034
2.60003
2.60026
2.60368
2.60911
2.6167
2.62581
2.63515
2.74298
2.74494
2.74558
2.74652
2.74693
2.74659
2.74566
2.73924
2.73179
2.72383
2.71385
2.70253
2.68982
2.67566
2.6608
2.64681
2.63239
2.62096
2.61353
2.61008
2.61006
2.61288
2.61726
2.62323
2.63025
2.63835
2.75107
2.75306
2.75409
2.75622
2.75841
2.75877
2.75323
2.74778
2.73988
2.73079
2.72045
2.70892
2.69629
2.68274
2.66866
2.65508
2.64237
2.63215
2.6247
2.62038
2.619
2.62012
2.62365
2.62815
2.63325
2.63946
2.75835
2.76079
2.76387
2.76639
2.76717
2.76454
2.76012
2.75419
2.74644
2.7373
2.7269
2.71527
2.70273
2.68952
2.67599
2.66295
2.65106
2.64113
2.63355
2.62847
2.62591
2.62535
2.62758
2.63244
2.63831
2.64435
2.76676
2.76943
2.77157
2.77269
2.77225
2.7695
2.76513
2.75905
2.7512
2.74188
2.73144
2.71966
2.70718
2.69427
2.68093
2.66836
2.6569
2.64733
2.64003
2.63522
2.63333
2.63363
2.63486
2.63589
2.63861
2.64245
2.77431
2.77548
2.77691
2.77733
2.77562
2.77288
2.76838
2.76236
2.75445
2.74501
2.73484
2.72315
2.71086
2.69877
2.68527
2.67337
2.66266
2.65326
2.64566
2.64036
2.63767
2.637
2.6375
2.63863
2.64017
2.64206
2.77932
2.78057
2.78036
2.77957
2.77807
2.775
2.77107
2.76594
2.75861
2.7482
2.73696
2.72594
2.71264
2.70381
2.68796
2.67686
2.66813
2.65842
2.65214
2.64615
2.64318
2.6409
2.64018
2.64009
2.6405
2.64083
2.78336
2.7829
2.78217
2.78197
2.78203
2.77928
2.77425
2.76765
2.76005
2.75012
2.74033
2.72865
2.71587
2.70582
2.69237
2.68155
2.67119
2.66272
2.65524
2.64973
2.64557
2.64292
2.64118
2.64015
2.63937
2.63846
2.78706
2.78813
2.78817
2.78609
2.78525
2.78068
2.77638
2.76988
2.76195
2.75241
2.74207
2.73046
2.71843
2.70664
2.69457
2.6837
2.67325
2.66433
2.65672
2.65067
2.64625
2.64291
2.64046
2.63856
2.63685
2.63507
2.79182
2.7913
2.79092
2.78917
2.78851
2.78384
2.77853
2.77175
2.76347
2.75373
2.74299
2.73122
2.71897
2.70677
2.69473
2.68329
2.67279
2.66355
2.65569
2.64945
2.64456
2.6408
2.63778
2.63538
2.63323
2.63104
2.7973
2.79697
2.79601
2.79416
2.79169
2.78709
2.78103
2.77351
2.76453
2.75423
2.74288
2.73067
2.71802
2.70527
2.69264
2.68073
2.66975
2.66014
2.65205
2.64551
2.64043
2.63635
2.63325
2.63081
2.62861
2.62639
2.80366
2.80322
2.80179
2.79929
2.79562
2.79034
2.78349
2.7751
2.76525
2.75408
2.74186
2.72881
2.7153
2.70167
2.6883
2.67551
2.66387
2.65383
2.6454
2.63874
2.63343
2.62963
2.62682
2.62471
2.62294
2.62115
2.81049
2.80972
2.80778
2.80458
2.79998
2.7938
2.786
2.77657
2.7656
2.75328
2.73981
2.72552
2.71075
2.69587
2.6813
2.66739
2.65484
2.64419
2.63534
2.62844
2.62354
2.62019
2.61823
2.61698
2.61614
2.6153
2.81787
2.81669
2.81419
2.81026
2.80474
2.79756
2.78864
2.778
2.7657
2.75188
2.73681
2.72081
2.7043
2.6877
2.67146
2.65605
2.6422
2.63051
2.62119
2.61439
2.61009
2.60791
2.60723
2.60737
2.60807
2.60883
2.82594
2.82431
2.8212
2.8165
2.81009
2.80184
2.79169
2.77961
2.76568
2.75002
2.7329
2.71471
2.69587
2.67698
2.65852
2.6411
2.62533
2.61225
2.60235
2.59614
2.59287
2.59223