/*--------------------------------*- C++ -*----------------------------------*\
  =========                 |
  \\      /  F ield         | OpenFOAM: The Open Source CFD Toolbox
   \\    /   O peration     | Website:  https://openfoam.org
    \\  /    A nd           | Version:  10
     \\/     M anipulation  |
\*---------------------------------------------------------------------------*/
FoamFile
{
    format      ascii;
    class       surfaceScalarField;
    location    "0.701681";
    object      phi;
}
// * * * * * * * * * * * * * * * * * * * * * * * * * * * * * * * * * * * * * //

dimensions      [1 0 -1 0 0 0 0];

internalField   nonuniform List<scalar> 
31108
(
0.00041684
-9.56506e-05
0.000406951
-9.09472e-05
0.00039729
-8.61798e-05
0.000387953
-8.13229e-05
0.000378966
-7.64676e-05
0.000370294
-7.15898e-05
0.000361971
-6.67324e-05
0.000353995
-6.19046e-05
0.000346369
-5.71152e-05
0.000339087
-5.2374e-05
0.000332149
-4.76854e-05
0.000325564
-4.30555e-05
0.000319319
-3.84874e-05
0.000313427
-3.39832e-05
0.000307879
-2.95448e-05
0.000302669
-2.51711e-05
0.000297801
-2.08624e-05
0.000293273
-1.66184e-05
0.000289083
-1.2439e-05
0.000285236
-8.32506e-06
0.000281734
-4.27772e-06
0.000278572
-2.97975e-07
0.000275757
3.60879e-06
0.00027329
7.43805e-06
0.000271168
1.11871e-05
0.000269392
1.4849e-05
0.000267962
1.84163e-05
0.000266881
2.18809e-05
0.000266146
2.52347e-05
0.000265754
2.84681e-05
0.000265703
3.15712e-05
0.000265987
3.45344e-05
0.000266604
3.7348e-05
0.000267549
4.00027e-05
0.000268803
4.24889e-05
0.000270371
4.47913e-05
0.00027224
4.69068e-05
0.000274405
4.88209e-05
0.000276853
5.05205e-05
0.000279572
5.20058e-05
0.000282549
5.32584e-05
0.000285768
5.42767e-05
0.000289218
5.50506e-05
0.000292872
5.55754e-05
0.000296716
5.58463e-05
0.000300722
5.58592e-05
0.000304881
5.56136e-05
0.000309143
5.51174e-05
0.000313489
5.43612e-05
0.000317916
5.33824e-05
5.21499e-05
0.000322322
0.000421502
-8.54322e-05
0.000411589
-8.10323e-05
0.000401996
-7.6526e-05
0.000392669
-7.2023e-05
0.000383637
-6.74731e-05
0.000374969
-6.29479e-05
0.000366607
-5.84408e-05
0.000358593
-5.39677e-05
0.000350923
-4.95278e-05
0.000343589
-4.51359e-05
0.000336602
-4.07937e-05
0.000329958
-3.65048e-05
0.000323662
-3.22713e-05
0.000317711
-2.80951e-05
0.000312103
-2.39762e-05
0.000306839
-1.99146e-05
0.000301914
-1.59099e-05
0.000297326
-1.19614e-05
0.000293079
-8.06912e-06
0.000289173
-4.23422e-06
0.000285608
-4.59599e-07
0.000282382
3.25967e-06
0.000279499
6.91086e-06
0.000276958
1.04944e-05
0.000274758
1.40046e-05
0.000272901
1.74346e-05
0.000271383
2.07766e-05
0.000270207
2.40221e-05
0.000269368
2.71624e-05
0.000268864
3.0187e-05
0.000268692
3.30864e-05
0.000268843
3.5848e-05
0.00026932
3.84642e-05
0.000270112
4.09221e-05
0.000271216
4.32151e-05
0.00027261
4.53249e-05
0.0002743
4.72511e-05
0.000276274
4.89702e-05
0.000278518
5.04853e-05
0.000281027
5.1777e-05
0.000283782
5.28418e-05
0.000286773
5.36718e-05
0.000289984
5.42584e-05
0.000293398
5.46011e-05
0.000296996
5.46907e-05
0.000300753
5.45311e-05
0.000304663
5.41181e-05
0.000308676
5.34638e-05
0.000312796
5.25597e-05
0.000316995
5.14396e-05
5.00884e-05
0.000321193
0.000425683
-7.52819e-05
0.000415899
-7.11163e-05
0.000406287
-6.69252e-05
0.000397004
-6.26917e-05
0.000387997
-5.84917e-05
0.000379293
-5.42849e-05
0.000370916
-5.01321e-05
0.000362853
-4.59874e-05
0.000355136
-4.19031e-05
0.000347756
-3.78602e-05
0.000340717
-3.38648e-05
0.000334024
-2.99188e-05
0.000327673
-2.60226e-05
0.000321669
-2.21767e-05
0.00031601
-1.83812e-05
0.000310692
-1.46353e-05
0.000305716
-1.09383e-05
0.000301079
-7.2889e-06
0.00029678
-3.68726e-06
0.000292824
-1.38417e-07
0.000289202
3.3668e-06
0.000285921
6.81799e-06
0.000282977
1.02136e-05
0.000280369
1.35494e-05
0.000278099
1.68197e-05
0.000276164
2.00174e-05
0.000274564
2.31345e-05
0.000273298
2.6162e-05
0.000272362
2.90905e-05
0.000271751
3.19095e-05
0.000271462
3.46079e-05
0.000271487
3.71736e-05
0.000271825
3.9597e-05
0.000272469
4.18655e-05
0.000273413
4.39687e-05
0.000274642
4.58983e-05
0.000276153
4.76329e-05
0.000277933
4.9177e-05
0.00027998
5.05055e-05
0.000282279
5.16164e-05
0.000284817
5.25022e-05
0.000287581
5.31509e-05
0.000290561
5.35617e-05
0.000293741
5.37256e-05
0.000297101
5.3644e-05
0.000300623
5.33153e-05
0.000304298
5.27386e-05
0.000308082
5.19282e-05
0.000311977
5.0876e-05
0.000315967
4.96154e-05
4.81394e-05
0.000319982
0.000429643
-6.51455e-05
0.000419845
-6.12227e-05
0.000410295
-5.72885e-05
0.00040097
-5.33679e-05
0.000391948
-4.94582e-05
0.000383221
-4.55952e-05
0.000374797
-4.17625e-05
0.000366714
-3.7974e-05
0.000358962
-3.42368e-05
0.000351543
-3.05436e-05
0.000344463
-2.68965e-05
0.000337726
-2.32956e-05
0.000331333
-1.97401e-05
0.000325286
-1.62286e-05
0.000319584
-1.27609e-05
0.000314225
-9.33522e-06
0.000309208
-5.95036e-06
0.00030453
-2.60393e-06
0.000300194
6.99656e-07
0.000296191
3.96642e-06
0.000292525
7.1931e-06
0.000289196
1.03767e-05
0.0002862
1.35143e-05
0.000283534
1.6601e-05
0.0002812
1.96307e-05
0.000279196
2.25962e-05
0.000277518
2.54891e-05
0.000276165
2.83e-05
0.000275134
3.10188e-05
0.000274418
3.36348e-05
0.000274013
3.61356e-05
0.000273916
3.851e-05
0.000274116
4.07442e-05
0.000274615
4.28293e-05
0.000275401
4.47512e-05
0.000276469
4.6498e-05
0.000277797
4.80624e-05
0.000279391
4.94246e-05
0.000281236
5.05821e-05
0.000283326
5.15206e-05
0.000285651
5.22309e-05
0.000288194
5.27096e-05
0.000290949
5.29471e-05
0.000293895
5.29435e-05
0.000297028
5.2692e-05
0.00030032
5.22004e-05
0.000303769
5.14623e-05
0.000307338
5.04941e-05
0.000311022
4.92915e-05
0.000314817
4.78917e-05
4.62804e-05
0.000318653
0.00043328
-5.49885e-05
0.000423509
-5.12967e-05
0.000413937
-4.76228e-05
0.000404606
-4.39837e-05
0.000395545
-4.03877e-05
0.000386789
-3.68439e-05
0.000378348
-3.33532e-05
0.000370223
-2.99107e-05
0.000362431
-2.6522e-05
0.000354968
-2.3181e-05
0.000347846
-1.98853e-05
0.00034107
-1.66337e-05
0.000334638
-1.34233e-05
0.000328554
-1.02513e-05
0.00032282
-7.11628e-06
0.000317429
-4.01591e-06
0.000312378
-9.47371e-07
0.000307672
2.08687e-06
0.000303302
5.09457e-06
0.000299266
8.07195e-06
0.000295564
1.10183e-05
0.000292196
1.3932e-05
0.000289158
1.68094e-05
0.000286445
1.96457e-05
0.000284057
2.24344e-05
0.000281992
2.5168e-05
0.000280245
2.78378e-05
0.000278812
3.04338e-05
0.000277692
3.29456e-05
0.000276876
3.53615e-05
0.000276359
3.76689e-05
0.000276139
3.98553e-05
0.000276206
4.19068e-05
0.000276558
4.38134e-05
0.000277189
4.55597e-05
0.000278083
4.71343e-05
0.000279244
4.8525e-05
0.000280645
4.97217e-05
0.000282294
5.07088e-05
0.000284177
5.14819e-05
0.000286287
5.20256e-05
0.000288615
5.23386e-05
0.000291146
5.24113e-05
0.000293867
5.22423e-05
0.000296772
5.18292e-05
0.000299843
5.11734e-05
0.00030307
5.0278e-05
0.000306431
4.91517e-05
0.000309926
4.78011e-05
0.000313525
4.62449e-05
4.44943e-05
0.000317199
0.000436677
-4.47819e-05
0.00042689
-4.13068e-05
0.000417297
-3.78863e-05
0.00040793
-3.4532e-05
0.000398843
-3.1242e-05
0.000390051
-2.80227e-05
0.000381563
-2.48755e-05
0.0003734
-2.17811e-05
0.000365562
-1.87471e-05
0.000358053
-1.57635e-05
0.000350881
-1.28258e-05
0.000344059
-9.9293e-06
0.000337591
-7.07076e-06
0.000331475
-4.24449e-06
0.000325712
-1.44749e-06
0.000320299
1.31894e-06
0.00031523
4.06311e-06
0.000310498
6.78688e-06
0.000306104
9.49092e-06
0.000302045
1.21751e-05
0.000298317
1.4839e-05
0.000294918
1.74808e-05
0.000291846
2.00967e-05
0.000289096
2.26815e-05
0.000286664
2.52289e-05
0.000284547
2.77311e-05
0.000282739
3.01788e-05
0.000281235
3.25614e-05
0.000280032
3.48682e-05
0.000279123
3.7087e-05
0.000278501
3.92048e-05
0.000278161
4.12078e-05
0.000278101
4.30826e-05
0.000278309
4.48141e-05
0.000278785
4.63914e-05
0.000279516
4.78e-05
0.000280494
4.90258e-05
0.000281713
5.00578e-05
0.000283166
5.08871e-05
0.000284843
5.14967e-05
0.000286739
5.18832e-05
0.000288845
5.20351e-05
0.000291153
5.19488e-05
0.000293652
5.1619e-05
0.000296334
5.10452e-05
0.000299187
5.02297e-05
0.000302201
4.91754e-05
0.000305363
4.78912e-05
0.00030866
4.63861e-05
0.000312083
4.46754e-05
4.27793e-05
0.000315609
0.000439885
-3.44611e-05
0.000430031
-3.12087e-05
0.000420361
-2.8038e-05
0.000410907
-2.49726e-05
0.000401765
-2.19988e-05
0.000392893
-1.9117e-05
0.000384342
-1.63034e-05
0.000376142
-1.35716e-05
0.000368256
-1.09003e-05
0.000360709
-8.28507e-06
0.00035351
-5.71224e-06
0.000346657
-3.17976e-06
0.000340159
-6.80484e-07
0.000334024
1.78847e-06
0.00032825
4.23543e-06
0.000322821
6.66703e-06
0.000317727
9.08369e-06
0.000312977
1.14884e-05
0.000308578
1.38836e-05
0.000304523
1.62708e-05
0.000300802
1.86496e-05
0.000297404
2.10177e-05
0.000294321
2.3371e-05
0.000291547
2.57044e-05
0.000289076
2.80114e-05
0.000286904
3.02832e-05
0.000285028
3.25104e-05
0.000283449
3.46818e-05
0.000282161
3.67861e-05
0.000281159
3.88101e-05
0.000280435
4.07412e-05
0.000279983
4.25645e-05
0.000279797
4.4266e-05
0.00027987
4.58307e-05
0.000280193
4.72444e-05
0.000280762
4.8493e-05
0.000281566
4.95618e-05
0.000282598
5.04381e-05
0.000283854
5.11092e-05
0.00028533
5.15659e-05
0.000287012
5.17988e-05
0.000288901
5.1796e-05
0.000290987
5.1554e-05
0.000293261
5.10688e-05
0.000295719
5.03371e-05
0.000298352
4.93633e-05
0.000301154
4.81496e-05
0.000304114
4.67055e-05
0.000307222
4.50411e-05
0.000310474
4.31714e-05
4.11172e-05
0.00031385
0.000442695
-2.39808e-05
0.000432736
-2.09453e-05
0.000422992
-1.80449e-05
0.000413497
-1.52776e-05
0.000404271
-1.26321e-05
0.000395345
-1.00886e-05
0.00038675
-7.64536e-06
0.000378477
-5.27764e-06
0.000370546
-2.97943e-06
0.000362973
-7.42195e-07
0.000355749
1.45388e-06
0.000348887
3.60516e-06
0.000342382
5.73516e-06
0.00033623
7.84507e-06
0.000330438
9.94013e-06
0.000325003
1.2027e-05
0.000319913
1.41089e-05
0.000315173
1.61897e-05
0.000310783
1.82724e-05
0.000306736
2.03586e-05
0.000303015
2.24482e-05
0.000299606
2.45391e-05
0.0002965
2.66277e-05
0.0002937
2.87081e-05
0.000291204
3.07741e-05
0.000289004
3.28162e-05
0.000287089
3.48249e-05
0.000285454
3.6788e-05
0.000284094
3.86936e-05
0.000283004
4.05277e-05
0.000282183
4.2276e-05
0.000281622
4.39249e-05
0.000281316
4.54584e-05
0.000281256
4.68614e-05
0.000281432
4.81173e-05
0.00028184
4.92118e-05
0.00028247
5.01298e-05
0.000283317
5.08568e-05
0.000284376
5.138e-05
0.000285644
5.16885e-05
0.000287114
5.17711e-05
0.000288781
5.16185e-05
0.000290646
5.12263e-05
0.000292695
5.05882e-05
0.00029493
4.97031e-05
0.000297344
4.85711e-05
0.000299932
4.71975e-05
0.000302691
4.55905e-05
0.000305612
4.37623e-05
0.000308689
4.17278e-05
3.95052e-05
0.000311919
0.00044518
-1.32865e-05
0.00043511
-1.04938e-05
0.000425305
-7.8719e-06
0.000415718
-5.43115e-06
0.000406446
-3.10887e-06
0.000397472
-9.43742e-07
0.000388797
1.13692e-06
0.000380443
3.11129e-06
0.000372437
5.01675e-06
0.000364799
6.86102e-06
0.000357542
8.67131e-06
0.000350673
1.04331e-05
0.000344184
1.21865e-05
0.000338069
1.39247e-05
0.000332312
1.56574e-05
0.000326905
1.73913e-05
0.000321841
1.91321e-05
0.000317116
2.08842e-05
0.000312725
2.26504e-05
0.000308664
2.44323e-05
0.000304926
2.62295e-05
0.000301509
2.80408e-05
0.000298401
2.98625e-05
0.000295595
3.16893e-05
0.000293082
3.3514e-05
0.000290855
3.53269e-05
0.000288908
3.7118e-05
0.000287232
3.8875e-05
0.00028582
4.0585e-05
0.000284664
4.22335e-05
0.000283759
4.38054e-05
0.000283098
4.52853e-05
0.000282674
4.66565e-05
0.000282483
4.79026e-05
0.000282514
4.90079e-05
0.000282758
4.99541e-05
0.000283215
5.07287e-05
0.000283878
5.13128e-05
0.00028474
5.16955e-05
0.000285803
5.18615e-05
0.000287058
5.18027e-05
0.000288504
5.15057e-05
0.000290142
5.09671e-05
0.000291963
5.01781e-05
0.000293973
4.91399e-05
0.000296165
4.78509e-05
0.00029854
4.63178e-05
0.000301094
4.45461e-05
0.000303827
4.2548e-05
0.000306734
4.03407e-05
3.79415e-05
0.000309813
0.00044739
-2.34006e-06
0.000437211
1.90438e-07
0.000427236
2.49499e-06
0.000417558
4.61458e-06
0.000408147
6.5497e-06
0.000399072
8.35668e-06
0.000390286
1.00162e-05
0.000381916
1.16044e-05
0.000373911
1.30938e-05
0.000366273
1.45407e-05
0.000359049
1.59362e-05
0.000352198
1.73138e-05
0.00034572
1.86699e-05
0.000339591
2.00246e-05
0.000333814
2.13846e-05
0.000328397
2.27576e-05
0.000323338
2.41502e-05
0.000318636
2.55666e-05
0.000314279
2.70101e-05
0.000310248
2.84823e-05
0.000306536
2.99847e-05
0.000303133
3.15152e-05
0.000300035
3.30699e-05
0.000297234
3.46424e-05
0.00029472
3.62256e-05
0.000292483
3.78104e-05
0.000290514
3.93859e-05
0.000288802
4.09388e-05
0.000287343
4.24558e-05
0.000286127
4.39223e-05
0.000285147
4.53219e-05
0.000284396
4.66379e-05
0.000283867
4.78535e-05
0.000283549
4.89502e-05
0.000283439
4.99111e-05
0.000283531
5.07182e-05
0.000283816
5.13547e-05
0.000284294
5.18052e-05
0.000284962
5.20538e-05
0.000285817
5.20856e-05
0.000286857
5.18908e-05
0.00028808
5.14557e-05
0.000289489
5.07752e-05
0.000291081
4.98408e-05
0.000292859
4.86522e-05
0.000294825
4.72073e-05
0.000296981
4.55119e-05
0.000299327
4.35715e-05
0.000301866
4.1399e-05
0.000304601
3.90087e-05
3.64236e-05
0.000307527
0.000449345
8.87124e-06
0.000438936
1.11191e-05
0.000428778
1.31013e-05
0.000418888
1.48527e-05
0.00040938
1.64014e-05
0.000400179
1.77827e-05
0.000391397
1.90489e-05
0.000382994
2.01922e-05
0.000374959
2.12761e-05
0.000367315
2.22841e-05
0.000360044
2.32638e-05
0.000353172
2.42214e-05
0.000346683
2.51756e-05
0.000340577
2.61357e-05
0.000334852
2.71133e-05
0.0003295
2.81175e-05
0.000324509
2.91539e-05
0.000319855
3.02286e-05
0.000315527
3.13444e-05
0.00031153
3.25037e-05
0.000307862
3.37077e-05
0.000304509
3.49547e-05
0.000301453
3.62411e-05
0.000298679
3.75603e-05
0.000296177
3.89044e-05
0.000293937
4.02634e-05
0.000291951
4.16257e-05
0.00029021
4.29783e-05
0.000288707
4.43066e-05
0.000287432
4.5595e-05
0.000286376
4.68266e-05
0.000285535
4.79832e-05
0.000284899
4.90482e-05
0.000284461
5.00022e-05
0.000284214
5.08258e-05
0.000284154
5.15011e-05
0.000284276
5.20087e-05
0.000284575
5.23315e-05
0.000285049
5.24538e-05
0.000285697
5.23597e-05
0.000286521
5.20359e-05
0.000287518
5.14701e-05
0.000288695
5.06535e-05
0.000290053
4.95784e-05
0.000291597
4.82418e-05
0.000293333
4.66423e-05
0.000295264
4.47836e-05
0.000297398
4.26716e-05
0.000299739
4.03187e-05
0.000302289
3.77387e-05
3.49532e-05
0.000305059
0.000450707
2.03705e-05
0.000440136
2.23127e-05
0.000429826
2.3945e-05
0.000419826
2.52999e-05
0.000410178
2.64456e-05
0.000400897
2.73775e-05
0.00039202
2.82005e-05
0.00038354
2.88996e-05
0.000375472
2.95363e-05
0.000367827
3.00842e-05
0.000360572
3.06435e-05
0.000353735
3.11622e-05
0.000347287
3.17029e-05
0.000341234
3.22571e-05
0.000335562
3.28416e-05
0.000330261
3.3465e-05
0.000325317
3.41362e-05
0.000320726
3.48608e-05
0.000316469
3.56439e-05
0.000312535
3.64862e-05
0.000308916
3.73894e-05
0.000305601
3.83507e-05
0.000302576
3.93667e-05
0.000299828
4.0431e-05
0.000297348
4.15358e-05
0.000295123
4.26702e-05
0.000293139
4.3822e-05
0.000291389
4.49773e-05
0.00028986
4.61213e-05
0.000288545
4.72371e-05
0.000287433
4.83074e-05
0.000286517
4.93132e-05
0.000285789
5.02348e-05
0.000285242
5.10535e-05
0.000284868
5.17486e-05
0.00028466
5.22997e-05
0.000284614
5.26874e-05
0.000284731
5.28924e-05
0.00028501
5.28974e-05
0.000285453
5.26846e-05
0.000286061
5.22403e-05
0.000286835
5.15503e-05
0.000287779
5.06041e-05
0.000288897
4.93933e-05
0.000290202
4.79125e-05
0.000291698
4.61607e-05
0.000293398
4.41383e-05
0.00029531
4.18523e-05
0.000297444
3.93127e-05
0.000299808
3.6534e-05
3.35367e-05
0.000302412
0.000451166
3.21147e-05
0.000440492
3.37361e-05
0.000430072
3.49883e-05
0.000420062
3.59324e-05
0.000410326
3.66136e-05
0.000401056
3.71302e-05
0.000392166
3.74596e-05
0.000383682
3.76969e-05
0.000375591
3.78497e-05
0.000367945
3.79721e-05
0.000360741
3.80514e-05
0.000353936
3.8145e-05
0.00034754
3.82424e-05
0.000341532
3.83768e-05
0.000335901
3.85547e-05
0.000330647
3.87877e-05
0.000325763
3.90855e-05
0.000321237
3.94533e-05
0.000317054
3.98971e-05
0.0003132
4.04177e-05
0.000309658
4.10168e-05
0.000306408
4.16911e-05
0.000303441
4.24367e-05
0.000300744
4.32475e-05
0.000298304
4.41149e-05
0.000296104
4.50273e-05
0.000294133
4.59717e-05
0.000292381
4.69339e-05
0.000290838
4.78978e-05
0.000289494
4.88467e-05
0.000288337
4.97615e-05
0.000287354
5.06228e-05
0.00028654
5.14096e-05
0.000285887
5.2101e-05
0.00028539
5.26754e-05
0.000285042
5.31114e-05
0.000284841
5.3389e-05
0.000284786
5.34866e-05
0.000284875
5.33838e-05
0.000285109
5.30622e-05
0.000285491
5.25054e-05
0.00028603
5.16991e-05
0.000286734
5.06309e-05
0.00028761
4.92908e-05
0.000288669
4.76712e-05
0.000289924
4.57692e-05
0.000291385
4.35842e-05
0.00029307
4.11216e-05
0.000294989
3.83898e-05
0.000297157
3.54035e-05
3.21815e-05
0.000299588
0.000450571
4.3932e-05
0.000439906
4.52554e-05
0.000429529
4.61257e-05
0.000419441
4.66723e-05
0.000409771
4.68841e-05
0.000400454
4.6939e-05
0.000391593
4.6789e-05
0.000383154
4.65494e-05
0.000375132
4.62216e-05
0.000367543
4.58619e-05
0.000360355
4.54802e-05
0.000353591
4.51098e-05
0.000347242
4.47654e-05
0.000341298
4.44685e-05
0.000335752
4.42319e-05
0.000330598
4.40675e-05
0.000325816
4.39839e-05
0.000321396
4.39891e-05
0.000317315
4.40885e-05
0.000313556
4.42847e-05
0.000310103
4.45776e-05
0.000306937
4.49647e-05
0.000304046
4.54409e-05
0.000301416
4.59995e-05
0.000299033
4.66309e-05
0.000296878
4.7324e-05
0.000294938
4.80647e-05
0.000293199
4.88386e-05
0.000291653
4.96283e-05
0.000290289
5.04163e-05
0.000289093
5.11823e-05
0.000288058
5.19059e-05
0.00028717
5.25663e-05
0.000286419
5.31397e-05
0.000285802
5.36032e-05
0.000285319
5.39351e-05
0.000284968
5.41118e-05
0.00028474
5.41119e-05
0.000284634
5.39125e-05
0.000284655
5.34931e-05
0.000284815
5.2835e-05
0.000285122
5.19223e-05
0.000285585
5.07409e-05
0.000286212
4.92779e-05
0.00028702
4.75256e-05
0.000288021
4.54776e-05
0.000289233
4.31319e-05
0.000290675
4.04912e-05
0.000292365
3.75625e-05
0.000294325
3.43596e-05
3.08996e-05
0.000296572
0.000448242
5.54955e-05
0.000437803
5.65781e-05
0.00042766
5.71481e-05
0.000417724
5.7297e-05
0.000408181
5.71263e-05
0.000398991
5.66952e-05
0.000390221
5.61252e-05
0.000381849
5.53588e-05
0.000373905
5.45922e-05
0.000366408
5.37139e-05
0.000359307
5.28802e-05
0.000352649
5.20384e-05
0.000346407
5.12485e-05
0.000340587
5.05143e-05
0.000335172
4.98564e-05
0.000330141
4.92856e-05
0.00032548
4.88155e-05
0.000321178
4.84538e-05
0.000317222
4.82048e-05
0.00031359
4.80723e-05
0.000310257
4.80564e-05
0.000307205
4.81551e-05
0.000304414
4.8363e-05
0.000301865
4.86721e-05
0.000299546
4.90715e-05
0.000297443
4.95498e-05
0.000295543
5.00921e-05
0.000293835
5.06832e-05
0.0002923
5.13048e-05
0.000290928
5.19376e-05
0.000289707
5.25632e-05
0.000288624
5.3158e-05
0.000287671
5.37002e-05
0.000286834
5.41656e-05
0.000286113
5.45289e-05
0.000285501
5.47672e-05
0.000284995
5.48551e-05
0.000284598
5.47686e-05
0.000284307
5.44848e-05
0.000284124
5.398e-05
0.000284058
5.32336e-05
0.000284123
5.22256e-05
0.000284334
5.09411e-05
0.000284704
4.93655e-05
0.00028525
4.74876e-05
0.000285989
4.52989e-05
0.000286942
4.27945e-05
0.00028813
3.99763e-05
0.000289578
3.68476e-05
0.00029131
3.34194e-05
2.97088e-05
0.000293351
0.000443015
6.63035e-05
0.000433268
6.72859e-05
0.000423669
6.76666e-05
0.000414277
6.75385e-05
0.000405094
6.70474e-05
0.000396299
6.62207e-05
0.000387722
6.52214e-05
0.000379627
6.40537e-05
0.000371866
6.28031e-05
0.00036451
6.15028e-05
0.000357625
6.01803e-05
0.000351147
5.88922e-05
0.000345092
5.76441e-05
0.000339441
5.64706e-05
0.000334178
5.53874e-05
0.000329302
5.44099e-05
0.000324808
5.35508e-05
0.000320663
5.28199e-05
0.000316841
5.22223e-05
0.000313327
5.17619e-05
0.000310108
5.14388e-05
0.000307168
5.12507e-05
0.000304488
5.1192e-05
0.000302046
5.12537e-05
0.000299824
5.14254e-05
0.000297804
5.16935e-05
0.000295972
5.20429e-05
0.000294308
5.24581e-05
0.0002928
5.29182e-05
0.000291435
5.34064e-05
0.000290198
5.38978e-05
0.00028908
5.43736e-05
0.000288069
5.48052e-05
0.000287154
5.51748e-05
0.00028633
5.54487e-05
0.000285594
5.56062e-05
0.000284944
5.56167e-05
0.000284376
5.5459e-05
0.000283897
5.51025e-05
0.000283509
5.45264e-05
0.000283221
5.37048e-05
0.000283047
5.26155e-05
0.000283003
5.1241e-05
0.000283106
4.95643e-05
0.000283377
4.75705e-05
0.000283836
4.52498e-05
0.000284509
4.25925e-05
0.000285423
3.9597e-05
0.000286607
3.62657e-05
0.00028809
3.2606e-05
2.8632e-05
0.000289906
0.000434056
7.5725e-05
0.000425397
7.67916e-05
0.000416807
7.71597e-05
0.000408336
7.69272e-05
0.000399952
7.62459e-05
0.000391743
7.51883e-05
0.000383792
7.3871e-05
0.000376095
7.23601e-05
0.000368753
7.07142e-05
0.000361766
6.90113e-05
0.000355143
6.72685e-05
0.000348922
6.5551e-05
0.00034309
6.3873e-05
0.000337656
6.2272e-05
0.000332619
6.07716e-05
0.000327959
5.93922e-05
0.000323656
5.81456e-05
0.000319699
5.70463e-05
0.000316068
5.61026e-05
0.00031274
5.53194e-05
0.000309692
5.46963e-05
0.000306903
5.42291e-05
0.000304355
5.39105e-05
0.000302029
5.37322e-05
0.000299908
5.36817e-05
0.000297973
5.37457e-05
0.000296214
5.39087e-05
0.000294608
5.41532e-05
0.00029314
5.44598e-05
0.000291794
5.48095e-05
0.000290559
5.51772e-05
0.000289415
5.55437e-05
0.000288359
5.58778e-05
0.000287376
5.61614e-05
0.000286462
5.63606e-05
0.000285607
5.64489e-05
0.000284817
5.63984e-05
0.000284089
5.6182e-05
0.000283423
5.57673e-05
0.000282826
5.51384e-05
0.000282311
5.42571e-05
0.000281891
5.31022e-05
0.000281586
5.16519e-05
0.000281412
4.98883e-05
0.000281397
4.77917e-05
0.000281563
4.53483e-05
0.000281938
4.2546e-05
0.000282557
3.93796e-05
0.00028345
3.58457e-05
0.000284655
3.19486e-05
2.77003e-05
0.000286214
0.000420663
8.32722e-05
0.000413294
8.45699e-05
0.000406068
8.50885e-05
0.000398881
8.49501e-05
0.000391704
8.42659e-05
0.000384575
8.31403e-05
0.000377557
8.16699e-05
0.000370684
7.99462e-05
0.000364017
7.80397e-05
0.000357633
7.6013e-05
0.000351539
7.39374e-05
0.000345768
7.18489e-05
0.000340321
6.97945e-05
0.000335218
6.78087e-05
0.000330472
6.59222e-05
0.000326075
6.41614e-05
0.000322015
6.25462e-05
0.000318288
6.10932e-05
0.000314879
5.98135e-05
0.000311769
5.87139e-05
0.00030893
5.77972e-05
0.000306333
5.70584e-05
0.000303955
5.64909e-05
0.000301778
5.60828e-05
0.000299785
5.58211e-05
0.000297962
5.56916e-05
0.000296289
5.5677e-05
0.000294755
5.57606e-05
0.00029334
5.59224e-05
0.000292028
5.61447e-05
0.000290806
5.63946e-05
0.000289651
5.66691e-05
0.000288559
5.69115e-05
0.000287522
5.71253e-05
0.00028652
5.72562e-05
0.000285563
5.72998e-05
0.000284635
5.71898e-05
0.000283736
5.69459e-05
0.000282897
5.64802e-05
0.000282101
5.58132e-05
0.000281356
5.48935e-05
0.000280684
5.3693e-05
0.000280106
5.2185e-05
0.000279644
5.0353e-05
0.000279323
4.817e-05
0.000279169
4.56186e-05
0.000279222
4.26834e-05
0.000279518
3.93525e-05
0.000280094
3.56211e-05
0.000280991
3.14845e-05
2.6952e-05
0.00028225
0.00040308
8.8977e-05
0.000396792
9.03624e-05
0.00039105
9.10532e-05
0.000385468
9.11323e-05
0.000379874
9.06177e-05
0.000374237
8.9617e-05
0.000368563
8.81754e-05
0.000362899
8.64005e-05
0.000357256
8.44213e-05
0.000351752
8.2202e-05
0.000346428
7.99142e-05
0.000341321
7.75596e-05
0.000336471
7.52128e-05
0.000331881
7.29165e-05
0.000327574
7.07049e-05
0.000323565
6.86107e-05
0.000319859
6.66635e-05
0.000316445
6.48861e-05
0.00031331
6.32959e-05
0.000310445
6.19025e-05
0.00030783
6.0711e-05
0.000305446
5.97166e-05
0.000303268
5.89133e-05
0.000301271
5.8288e-05
0.000299441
5.78273e-05
0.000297753
5.7517e-05
0.0002962
5.73352e-05
0.000294751
5.7271e-05
0.00029342
5.72933e-05
0.000292137
5.73998e-05
0.000290955
5.75451e-05
0.000289802
5.77283e-05
0.000288688
5.79114e-05
0.000287605
5.8055e-05
0.000286523
5.81542e-05
0.000285458
5.81305e-05
0.000284406
5.80271e-05
0.000283376
5.77251e-05
0.000282309
5.72759e-05
0.000281295
5.65666e-05
0.00028032
5.5627e-05
0.000279394
5.43999e-05
0.000278543
5.28513e-05
0.000277784
5.09752e-05
0.000277148
4.87253e-05
0.000276667
4.60852e-05
0.000276369
4.3035e-05
0.000276307
3.95522e-05
0.000276518
3.56312e-05
0.000277057
3.12578e-05
2.64385e-05
0.000277976
0.00038368
9.28673e-05
0.000377253
9.4164e-05
0.000372393
9.50064e-05
0.000368281
9.52264e-05
0.000364418
9.50167e-05
0.000360524
9.41932e-05
0.000356475
9.30894e-05
0.000352413
9.13003e-05
0.000348193
8.94491e-05
0.000343909
8.72252e-05
0.000339654
8.4882e-05
0.000335455
8.24196e-05
0.000331395
7.99022e-05
0.000327509
7.73977e-05
0.000323805
7.49504e-05
0.000320311
7.26013e-05
0.00031705
7.03843e-05
0.00031404
6.83329e-05
0.000311277
6.64733e-05
0.000308746
6.48224e-05
0.000306428
6.33877e-05
0.000304301
6.2166e-05
0.00030235
6.11515e-05
0.000300553
6.03288e-05
0.000298902
5.96862e-05
0.000297371
5.92074e-05
0.000295951
5.88746e-05
0.000294616
5.86686e-05
0.000293356
5.85829e-05
0.000292165
5.85526e-05
0.000290982
5.86353e-05
0.000289867
5.87065e-05
0.000288737
5.88592e-05
0.000287628
5.89243e-05
0.000286467
5.90188e-05
0.000285329
5.89711e-05
0.000284132
5.88413e-05
0.000282946
5.85724e-05
0.000281758
5.80942e-05
0.000280496
5.7419e-05
0.000279277
5.64613e-05
0.000278067
5.5255e-05
0.000276927
5.36727e-05
0.000275855
5.17749e-05
0.000274879
4.94842e-05
0.000274042
4.67788e-05
0.000273369
4.36349e-05
0.000272913
4.002e-05
0.000272727
3.59222e-05
0.000272869
3.13218e-05
2.62135e-05
0.000273395
0.00036161
9.4433e-05
0.000355297
9.56477e-05
0.000351192
9.65232e-05
0.000348409
9.71097e-05
0.000346057
9.71191e-05
0.000344002
9.67919e-05
0.000341724
9.58234e-05
0.000339266
9.46356e-05
0.000336682
9.28184e-05
0.000333856
9.08771e-05
0.00033095
8.8565e-05
0.000327933
8.61618e-05
0.000324888
8.36307e-05
0.000321893
8.10495e-05
0.000318989
7.84798e-05
0.000316202
7.59736e-05
0.000313554
7.35723e-05
0.000311068
7.13211e-05
0.00030876
6.92538e-05
0.000306632
6.73983e-05
0.000304671
6.57661e-05
0.000302859
6.43584e-05
0.000301175
6.31685e-05
0.000299607
6.21793e-05
0.00029815
6.13798e-05
0.000296797
6.07491e-05
0.000295509
6.02795e-05
0.000294336
5.99391e-05
0.000293148
5.97358e-05
0.00029205
5.96285e-05
0.000290944
5.96047e-05
0.000289854
5.96542e-05
0.000288718
5.96929e-05
0.000287579
5.98048e-05
0.000286418
5.97958e-05
0.000285132
5.98398e-05
0.000283873
5.96542e-05
0.000282507
5.94435e-05
0.000281127
5.89635e-05
0.000279703
5.83394e-05
0.000278237
5.74006e-05
0.000276787
5.62147e-05
0.000275298
5.4693e-05
0.000273882
5.27862e-05
0.000272535
5.04846e-05
0.000271303
4.77389e-05
0.000270217
4.45261e-05
0.000269319
4.0805e-05
0.000268677
3.65518e-05
0.000268349
3.17394e-05
2.63496e-05
0.000268411
0.000336507
9.31408e-05
0.000330415
9.44096e-05
0.000327476
9.55316e-05
0.000325987
9.64507e-05
0.000325499
9.69773e-05
0.000325176
9.703e-05
0.000324726
9.68786e-05
0.000324108
9.57332e-05
0.000323146
9.45877e-05
0.000321993
9.27928e-05
0.000320494
9.08909e-05
0.000318831
8.86127e-05
0.000316992
8.62226e-05
0.000315056
8.37022e-05
0.000313082
8.11352e-05
0.00031112
7.85798e-05
0.000309214
7.60903e-05
0.000307387
7.37255e-05
0.000305656
7.15311e-05
0.000304025
6.95435e-05
0.000302492
6.77772e-05
0.000301052
6.62402e-05
0.000299687
6.49234e-05
0.000298393
6.38101e-05
0.000297165
6.28856e-05
0.000296002
6.2135e-05
0.000294891
6.15389e-05
0.00029383
6.1105e-05
0.000292818
6.07614e-05
0.000291783
6.06003e-05
0.000290788
6.0462e-05
0.000289711
6.04913e-05
0.000288657
6.04822e-05
0.000287462
6.05831e-05
0.000286267
6.0592e-05
0.000284953
6.06403e-05
0.000283553
6.05207e-05
0.000282054
6.03307e-05
0.000280471
5.99264e-05
0.000278836
5.93354e-05
0.000277106
5.84904e-05
0.00027537
5.73489e-05
0.00027361
5.58812e-05
0.000271832
5.40269e-05
0.000270081
5.17507e-05
0.000268406
4.90079e-05
0.000266851
4.57612e-05
0.000265452
4.19703e-05
0.000264275
3.75947e-05
0.000263397
3.25966e-05
2.69438e-05
0.000262884
0.00030624
8.77539e-05
0.0003027
8.95015e-05
0.000301559
9.13239e-05
0.000302126
9.29569e-05
0.000303149
9.42685e-05
0.00030489
9.51314e-05
0.000306169
9.53318e-05
0.000307241
9.53331e-05
0.000308085
9.43583e-05
0.000308472
9.32663e-05
0.000308576
9.15731e-05
0.000308255
8.97298e-05
0.000307674
8.75865e-05
0.000306882
8.52596e-05
0.000305943
8.28111e-05
0.000304922
8.03115e-05
0.000303872
7.78314e-05
0.00030282
7.54431e-05
0.000301773
7.32085e-05
0.000300737
7.11731e-05
0.000299712
6.93534e-05
0.000298702
6.77602e-05
0.000297704
6.638e-05
0.000296717
6.51941e-05
0.000295762
6.41821e-05
0.000294811
6.33355e-05
0.000293933
6.2622e-05
0.000293007
6.20977e-05
0.00029215
6.16534e-05
0.000291266
6.14164e-05
0.000290362
6.12047e-05
0.000289393
6.11867e-05
0.00028837
6.11651e-05
0.000287241
6.12662e-05
0.00028603
6.13113e-05
0.000284667
6.13739e-05
0.000283204
6.13595e-05
0.000281589
6.12338e-05
0.000279765
6.09656e-05
0.000277912
6.04531e-05
0.000275909
5.97209e-05
0.000273797
5.8721e-05
0.000271641
5.73296e-05
0.000269435
5.55673e-05
0.000267222
5.33633e-05
0.000265031
5.06684e-05
0.000262917
4.74331e-05
0.00026093
4.36125e-05
0.000259112
3.91601e-05
0.000257539
3.40215e-05
2.81425e-05
0.000256306
0.000267072
7.72039e-05
0.000268412
8.04916e-05
0.000271455
8.35451e-05
0.000275129
8.65856e-05
0.000279179
8.88457e-05
0.000282914
9.09307e-05
0.000286363
9.2039e-05
0.000289164
9.26729e-05
0.000291556
9.26716e-05
0.000293525
9.19721e-05
0.000294965
9.10196e-05
0.000296103
8.94412e-05
0.000296794
8.77253e-05
0.000297146
8.57072e-05
0.000297249
8.34913e-05
0.000297184
8.11387e-05
0.000297017
7.87386e-05
0.000296792
7.63952e-05
0.000296518
7.41944e-05
0.000296169
7.21901e-05
0.000295737
7.04007e-05
0.000295234
6.88356e-05
0.000294666
6.74659e-05
0.000294048
6.62696e-05
0.000293415
6.52138e-05
0.000292732
6.43012e-05
0.00029212
6.34936e-05
0.000291453
6.2866e-05
0.000290806
6.23316e-05
0.000290126
6.20021e-05
0.000289417
6.17436e-05
0.000288627
6.16891e-05
0.000287719
6.16725e-05
0.000286721
6.17958e-05
0.000285501
6.19257e-05
0.00028416
6.20682e-05
0.000282617
6.21734e-05
0.000280834
6.21921e-05
0.000278885
6.20589e-05
0.000276644
6.18024e-05
0.000274291
6.11992e-05
0.000271763
6.03891e-05
0.000269004
5.92213e-05
0.000266176
5.75931e-05
0.000263282
5.55196e-05
0.000260372
5.2922e-05
0.000257488
4.97456e-05
0.000254686
4.59388e-05
0.000252029
4.14593e-05
0.000249568
3.62363e-05
3.01871e-05
0.000247381
0.000223898
6.16131e-05
0.000231601
6.7201e-05
0.000239299