/*--------------------------------*- C++ -*----------------------------------*\
  =========                 |
  \\      /  F ield         | OpenFOAM: The Open Source CFD Toolbox
   \\    /   O peration     | Website:  https://openfoam.org
    \\  /    A nd           | Version:  10
     \\/     M anipulation  |
\*---------------------------------------------------------------------------*/
FoamFile
{
    format      ascii;
    class       volScalarField;
    location    "0.701681";
    object      rho;
}
// * * * * * * * * * * * * * * * * * * * * * * * * * * * * * * * * * * * * * //

dimensions      [1 -3 0 0 0 0 0];

internalField   nonuniform List<scalar> 
15708
(
0.990738
0.991351
0.992429
0.992962
0.993955
0.994816
0.995693
0.996652
0.997548
0.998542
0.99942
1.00039
1.00132
1.00225
1.00323
1.00417
1.00509
1.00602
1.0069
1.00774
1.00858
1.00936
1.0101
1.01079
1.01143
1.01201
1.01251
1.01296
1.01334
1.01366
1.01388
1.01406
1.01415
1.01419
1.01415
1.01404
1.01387
1.01364
1.01335
1.01302
1.01265
1.01223
1.0118
1.01136
1.0109
1.01046
1.01
1.00966
1.0092
1.00901
1.00861
0.990305
0.991261
0.991583
0.992735
0.99322
0.994178
0.995102
0.995959
0.996959
0.997867
0.998841
0.999781
1.00075
1.00172
1.00269
1.00366
1.00463
1.00556
1.00647
1.00736
1.0082
1.00901
1.00978
1.01049
1.01116
1.01176
1.0123
1.01277
1.01319
1.01352
1.0138
1.01398
1.01411
1.01418
1.01417
1.01412
1.01398
1.01381
1.01355
1.01327
1.01293
1.01257
1.01218
1.01178
1.01138
1.01096
1.01054
1.01023
1.00977
1.00964
1.00927
0.98986
0.990347
0.991298
0.991704
0.992879
0.993452
0.994562
0.995371
0.996311
0.997284
0.998233
0.999214
1.00018
1.00117
1.00216
1.00314
1.00412
1.00508
1.00601
1.00692
1.0078
1.00863
1.00943
1.01017
1.01086
1.01149
1.01206
1.01257
1.01302
1.0134
1.01371
1.01393
1.0141
1.01421
1.01425
1.01423
1.01415
1.01401
1.01382
1.01358
1.0133
1.01299
1.01263
1.0123
1.01192
1.01158
1.01118
1.01091
1.01047
1.01035
1.01002
0.989173
0.989802
0.990375
0.991263
0.991858
0.992881
0.993673
0.994614
0.995597
0.99658
0.997563
0.99856
0.999564
1.00057
1.00158
1.00259
1.00359
1.00458
1.00554
1.00648
1.00739
1.00825
1.00908
1.00985
1.01057
1.01123
1.01183
1.01237
1.01285
1.01327
1.01361
1.01389
1.01409
1.01424
1.01434
1.01438
1.01435
1.01426
1.01413
1.01393
1.01372
1.01346
1.01318
1.01288
1.01256
1.01226
1.01191
1.01168
1.01128
1.01117
1.01085
0.988391
0.988984
0.98965
0.990355
0.991144
0.991957
0.992926
0.993853
0.994852
0.995849
0.996847
0.997865
0.998895
0.999911
1.00096
1.002
1.00303
1.00404
1.00503
1.00601
1.00693
1.00783
1.00869
1.0095
1.01024
1.01094
1.01159
1.01216
1.01268
1.01314
1.01352
1.01385
1.0141
1.0143
1.01444
1.01454
1.01456
1.01454
1.01446
1.01434
1.01418
1.01399
1.01378
1.01354
1.01327
1.01303
1.01273
1.01252
1.01221
1.01209
1.0118
0.987553
0.988163
0.98882
0.989562
0.990312
0.991242
0.992149
0.993137
0.994142
0.995161
0.996148
0.997157
0.998188
0.99923
1.00029
1.00136
1.00243
1.00347
1.00449
1.00549
1.00645
1.00737
1.00825
1.00909
1.00988
1.01062
1.01131
1.01193
1.0125
1.013
1.01344
1.01381
1.01412
1.01437
1.01457
1.01473
1.01482
1.01486
1.01485
1.0148
1.01471
1.01458
1.01443
1.01426
1.01406
1.01387
1.01365
1.01347
1.01325
1.01308
1.01292
0.986787
0.987421
0.987999
0.988709
0.989353
0.990403
0.991147
0.992198
0.993245
0.994254
0.995306
0.996347
0.997399
0.998465
0.999565
1.00068
1.00176
1.00279
1.00383
1.00489
1.00594
1.00695
1.00792
1.00882
1.00966
1.01041
1.0111
1.01172
1.01231
1.01284
1.01332
1.01374
1.01412
1.01444
1.01471
1.01493
1.0151
1.01521
1.01527
1.0153
1.01529
1.01524
1.01517
1.01507
1.01494
1.0148
1.01465
1.0145
1.01435
1.01419
1.01409
0.98572
0.986239
0.986824
0.987589
0.98838
0.989255
0.990201
0.991222
0.99222
0.993297
0.994392
0.995483
0.996597
0.997699
0.998805
0.999941
1.00105
1.00214
1.00324
1.00435
1.00546
1.00652
1.00749
1.00839
1.00925
1.01006
1.01083
1.01151
1.01214
1.0127
1.01322
1.0137
1.01412
1.01453
1.01486
1.01516
1.01541
1.0156
1.01574
1.01585
1.01592
1.01595
1.01596
1.01594
1.01589
1.01582
1.01574
1.01564
1.01554
1.01544
1.01533
0.984403
0.984944
0.985572
0.986531
0.98723
0.988371
0.98929
0.990266
0.991227
0.992221
0.993287
0.994424
0.99563
0.996872
0.998126
0.999352
1.00054
1.0017
1.00281
1.0039
1.00494
1.00596
1.00696
1.0079
1.00881
1.00966
1.01046
1.01121
1.01191
1.01256
1.01314
1.01369
1.01419
1.01465
1.01507
1.01543
1.01574
1.01602
1.01625
1.01644
1.01661
1.01672
1.01683
1.01689
1.01692
1.01692
1.01691
1.01688
1.01684
1.01678
1.01671
0.983146
0.983611
0.984518
0.985151
0.98621
0.98696
0.988104
0.988796
0.990273
0.99109
0.992514
0.9937
0.995032
0.996281
0.997481
0.998634
0.999793
1.00094
1.00212
1.00325
1.00436
1.00541
1.00642
1.00739
1.00834
1.00924
1.0101
1.0109
1.01166
1.01237
1.01303
1.01366
1.01424
1.01478
1.01527
1.01572
1.01613
1.01648
1.01681
1.01709
1.01737
1.01757
1.01777
1.01791
1.01804
1.01812
1.01819
1.01822
1.01823
1.01822
1.0182
0.981958
0.982565
0.983143
0.983948
0.984594
0.985822
0.986534
0.987932
0.988982
0.990249
0.991447
0.992692
0.993943
0.995208
0.996474
0.997761
0.999044
1.00032
1.00149
1.00262
1.00375
1.00488
1.00598
1.00703
1.00803
1.00897
1.00986
1.0107
1.0115
1.01226
1.01297
1.01364
1.0143
1.0149
1.01548
1.01601
1.01651
1.01698
1.01742
1.0178
1.01816
1.01848
1.01876
1.01901
1.01922
1.0194
1.01955
1.01965
1.01973
1.01977
1.01978
0.98054
0.981194
0.981868
0.982655
0.98347
0.98447
0.985399
0.986591
0.987693
0.989029
0.99026
0.991616
0.992943
0.994298
0.995645
0.996992
0.998303
0.999589
1.00086
1.00206
1.00324
1.00437
1.00548
1.00653
1.00756
1.00855
1.00949
1.01039
1.01126
1.01208
1.01287
1.01363
1.01436
1.01506
1.01573
1.01637
1.01696
1.01751
1.01804
1.01854
1.01902
1.01945
1.01987
1.0202
1.02052
1.02078
1.021
1.02118
1.02133
1.02142
1.02148
0.978722
0.979363
0.980227
0.980907
0.982244
0.982844
0.984474
0.985183
0.986944
0.987725
0.989411
0.990698
0.992141
0.993551
0.994933
0.996241
0.997573
0.998861
1.00016
1.00141
1.00265
1.00383
1.00497
1.00607
1.00714
1.00817
1.00915
1.0101
1.01102
1.01191
1.01279
1.01363
1.01444
1.01523
1.01599
1.01672
1.01742
1.01811
1.01876
1.01938
1.01995
1.02049
1.02098
1.02145
1.02186
1.02224
1.02255
1.02282
1.02304
1.0232
1.0233
0.977
0.977685
0.978551
0.979478
0.980365
0.981684
0.982634
0.984137
0.985427
0.98687
0.988288
0.989696
0.991115
0.992547
0.993939
0.995356
0.996749
0.998128
0.999488
1.0008
1.00207
1.00329
1.00447
1.0056
1.00672
1.0078
1.00883
1.00984
1.01081
1.01178
1.01271
1.01364
1.01455
1.01543
1.01627
1.0171
1.01794
1.01875
1.01951
1.02023
1.02091
1.02157
1.0222
1.02278
1.02331
1.02379
1.0242
1.02456
1.02484
1.02507
1.02523
0.975298
0.97621
0.976743
0.978052
0.978675
0.980163
0.981137
0.982713
0.983888
0.985523
0.986921
0.988436
0.989938
0.991441
0.99298
0.994475
0.995938
0.997363
0.998765
1.00015
1.0015
1.00279
1.00403
1.00522
1.00634
1.00745
1.00851
1.00956
1.01061
1.01162
1.01265
1.01364
1.01464
1.01562
1.01658
1.01753
1.01847
1.01939
1.0203
1.02115
1.02197
1.02273
1.02347
1.02417
1.02482
1.02541
1.02594
1.0264
1.02677
1.02707
1.02728
0.973825
0.974297
0.975034
0.976017
0.977165
0.978165
0.979931
0.980686
0.982824
0.983762
0.985616
0.987194
0.988883
0.990545
0.992171
0.993717
0.995277
0.996818
0.998268
0.999645
1.00096
1.00224
1.0035
1.00472
1.00591
1.00707
1.00821
1.00933
1.01043
1.01153
1.0126
1.01369
1.01477
1.01584
1.01691
1.01797
1.01903
1.02008
1.0211
1.0221
1.02306
1.02397
1.02485
1.02567
1.02643
1.02715
1.02777
1.02831
1.02878
1.02915
1.02944
0.97347
0.972978
0.973435
0.974118
0.975459
0.97646
0.977994
0.979414
0.980949
0.982675
0.984315
0.986048
0.987768
0.98948
0.991183
0.992896
0.994523
0.996105
0.997632
0.999105
1.00051
1.00185
1.00313
1.00437
1.00556
1.00674
1.0079
1.00908
1.01021
1.0114
1.01253
1.01372
1.01486
1.01607
1.01723
1.01843
1.01959
1.0208
1.02196
1.02309
1.0242
1.02526
1.02627
1.02724
1.02812
1.02896
1.02969
1.03035
1.0309
1.03135
1.03169
0.975767
0.973122
0.972268
0.97246
0.973285
0.974473
0.975929
0.977593
0.97924
0.981095
0.982964
0.984887
0.98676
0.988568
0.990347
0.992097
0.993761
0.995373
0.996937
0.99847
0.999959
1.00138
1.00273
1.00401
1.00525
1.00645
1.00765
1.00882
1.01006
1.01122
1.01253
1.01368
1.01504
1.01622
1.01765
1.01883
1.02028
1.02148
1.02283
1.02416
1.02543
1.02664
1.02779
1.02889
1.02992
1.03086
1.0317
1.03246
1.03311
1.03366
1.03405
0.983959
0.976619
0.973033
0.97176
0.971779
0.972675
0.974023
0.975753
0.977571
0.979435
0.981489
0.98349
0.985562
0.987561
0.989473
0.991309
0.993084
0.994787
0.9964
0.997931
0.999424
1.00085
1.00225
1.00359
1.00488
1.00615
1.00737
1.00866
1.00981
1.01129
1.01225
1.01402
1.01489
1.01681
1.01766
1.01967
1.02054
1.02257
1.02365
1.02513
1.02656
1.02797
1.02929
1.03056
1.03174
1.03284
1.03383
1.03466
1.03544
1.03599
1.03652
1.00522
0.987874
0.977948
0.973296
0.971377
0.971547
0.972298
0.97384
0.976098
0.977933
0.980143
0.98228
0.984412
0.986585
0.988651
0.990585
0.992405
0.994138
0.995827
0.997445
0.999008
1.00048
1.0019
1.00325
1.00456
1.00589
1.00715
1.00848
1.0097
1.0111
1.01245
1.01364
1.01549
1.01655
1.0186
1.01958
1.02177
1.02275
1.02501
1.02619
1.02789
1.02934
1.03084
1.03229
1.03362
1.03485
1.03601
1.03694
1.03783
1.0385
1.03913
1.03399
1.00504
0.988888
0.978033
0.974495
0.970549
0.972908
0.97187
0.974599
0.976089
0.97853
0.980914
0.983172
0.985445
0.98767
0.989825
0.991814
0.993673
0.995404
0.997065
0.998665
1.00018
1.00164
1.00298
1.00431
1.0056
1.00696
1.00811
1.00984
1.01068
1.01268
1.01357
1.01573
1.01666
1.01895
1.0204
1.02192
1.02419
1.02539
1.0278
1.02891
1.03129
1.03253
1.03409
1.03561
1.03695
1.03826
1.03931
1.04027
1.04107
1.04171
1.06408
1.02543
0.999158
0.986637
0.975518
0.974866
0.970307
0.973061
0.972393
0.975371
0.976974
0.979536
0.982013
0.98444
0.986785
0.98904
0.99116
0.993162
0.995007
0.996751
0.998384
0.999939
1.00143
1.0028
1.00415
1.00544
1.00677
1.00803
1.00948
1.01097
1.0122
1.01421
1.01528
1.01763
1.01867
1.02123
1.02255
1.02484
1.0265
1.02865
1.03043
1.0324
1.03435
1.03611
1.03776
1.03922
1.04063
1.04183
1.04286
1.04371
1.04445
1.0846
1.03976
1.01151
0.991365
0.982688
0.972524
0.975194
0.969957
0.973518
0.973213
0.976441
0.978442
0.980914
0.983435
0.985891
0.988262
0.99052
0.992665
0.994634
0.996476
0.99815
0.999737
1.00123
1.00264
1.00398
1.00537
1.00652
1.00823
1.00907
1.01113
1.01202
1.0143
1.01533
1.01782
1.01903
1.02176
1.02308
1.026
1.02748
1.02968
1.03195
1.03386
1.03596
1.0379
1.03975
1.04146
1.04296
1.04436
1.04553
1.04646
1.0472
1.07227
1.03284
1.00594
0.991297
0.97851
0.977064
0.970294
0.973285
0.970476
0.973967
0.974515
0.977457
0.980143
0.982714
0.985216
0.987647
0.989949
0.992134
0.99422
0.996189
0.9979
0.999507
1.00101
1.00244
1.00378
1.00523
1.00621
1.00816
1.00887
1.01098
1.01192
1.01425
1.01546
1.01779
1.01977
1.02151
1.02442
1.02604
1.02894
1.03112
1.0329
1.036
1.03772
1.03979
1.04172
1.0435
1.04514
1.04651
1.04778
1.04885
1.04972
1.03586
1.01112
0.992476
0.982179
0.974692
0.971749
0.970536
0.969405
0.972798
0.97197
0.975932
0.976776
0.9796
0.982443
0.985044
0.987481
0.989767
0.992012
0.994015
0.995903
0.997566
0.999105
1.00039
1.0018
1.00313
1.00458
1.00583
1.00749
1.00859
1.01069
1.0117
1.01412
1.01541
1.01816
1.01967
1.0227
1.02434
1.0277
1.02925
1.03258
1.03492
1.03681
1.04
1.04194
1.04411
1.04604
1.04779
1.04923
1.05041
1.05142
1.05231
0.982865
0.978922
0.976711
0.975408
0.973266
0.97222
0.972343
0.973056
0.974993
0.976986
0.979291
0.981699
0.98427
0.987001
0.989088
0.990806
0.992331
0.99387
0.995303
0.996737
0.998109
0.999454
1.00064
1.00169
1.00274
1.00396
1.00527
1.0068
1.00822
1.01014
1.01159
1.01376
1.01548
1.01798
1.02015
1.02281
1.02554
1.02804
1.03142
1.03397
1.0365
1.04018
1.04207
1.04556
1.04726
1.04953
1.05142
1.05293
1.05401
1.05492
1.05577
1.05525
1.05352
1.04969
1.04851
1.0469
1.04293
1.03588
1.03931
1.03143
1.03485
1.02826
1.03256
1.02819
1.02662
1.02323
1.01856
1.01336
1.00865
1.00525
1.00317
1.00207
1.00178
1.00195
1.00245
1.00305
1.00388
1.00492
1.00624
1.00764
1.0093
1.01108
1.01329
1.01544
1.01795
1.0206
1.024
1.02666
1.02993
1.03335
1.03688
1.04071
1.04456
1.04866
1.05101
1.05481
1.05658
1.05805
1.05883
1.05906
1.05933
1.05992
1.44884
1.45566
1.45796
1.45944
1.45625
1.44907
1.43876
1.41854
1.41935
1.38171
1.38433
1.33666
1.3394
1.2991
1.25213
1.21258
1.13975
1.08616
1.05121
1.02961
1.01681
1.00976
1.00621
1.00468
1.00413
1.00437
1.00507
1.00613
1.00752
1.00914
1.0108
1.01316
1.01588
1.01907
1.02201
1.02537
1.02917
1.03504
1.0427
1.05051
1.05954
1.06856
1.07338
1.07803
1.08162
1.08237
1.07706
1.07206
1.06833
1.06634
1.06547
1.48112
1.49812
1.51798
1.53945
1.56597
1.58725
1.61181
1.63049
1.65196
1.6632
1.67216
1.66791
1.6658
1.63593
1.61972
1.56518
1.50088
1.35699
1.21953
1.12586
1.06974
1.03842
1.02161
1.01277
1.00817
1.00632
1.00593
1.00645
1.00771
1.00908
1.01155
1.01459
1.01721
1.01976
1.02603
1.03843
1.05773
1.08398
1.11115
1.14099
1.17109
1.18834
1.19844
1.20257
1.19814
1.16778
1.13376
1.11278
1.09946
1.08604
1.07465
1.12233
1.13584
1.16351
1.20854
1.27079
1.34979
1.43183
1.50843
1.57795
1.63179
1.67378
1.70554
1.73448
1.74387
1.74571
1.73908
1.6951
1.6128
1.42816
1.25797
1.14337
1.07575
1.03915
1.02041
1.01159
1.00784
1.00691
1.00731
1.00872
1.01117
1.01303
1.01612
1.03376
1.06769
1.12143
1.19405
1.27992
1.35846
1.42064
1.47005
1.49742
1.50726
1.51019
1.49341
1.46129
1.41551
1.31975
1.20619
1.1298
1.09185
1.07492
1.05607
1.06257
1.06306
1.06512
1.07463
1.09569
1.13156
1.1909
1.28132
1.3954
1.51396
1.60347
1.67943
1.73675
1.75931
1.76297
1.73379
1.62727
1.4178
1.24183
1.13028
1.06722
1.03418
1.0178
1.01027
1.00788
1.00757
1.00887
1.01183
1.02863
1.08384
1.17971
1.30259
1.4238
1.52908
1.59877
1.63929
1.66938
1.6932
1.71283
1.7314
1.7365
1.73295
1.71654
1.68859
1.58685
1.36147
1.20207
1.11689
1.08295
1.07794
1.20375
1.20237
1.16993
1.11187
1.06955
1.05519
1.05734
1.07547
1.11186
1.17703
1.31566
1.50898
1.65861
1.73944
1.75924
1.75702
1.69859
1.53562
1.3154
1.16331
1.0766
1.03417
1.01553
1.00898
1.00826
1.01104
1.0303
1.11211
1.27356
1.42782
1.56678
1.66242
1.70291
1.71689
1.7189
1.71478
1.72217
1.7342
1.75106
1.77621
1.8056
1.83087
1.8477
1.84578
1.76313
1.57148
1.30656
1.13775
1.09782
1.10625
1.22402
1.3137
1.31449
1.28408
1.19894
1.08884
1.05995
1.06236
1.08223
1.13616
1.23756
1.44649
1.61063
1.69631
1.7336
1.72318
1.65177
1.47612
1.23978
1.09936
1.0368
1.01571
1.01047
1.01646
1.04934
1.16484
1.35646
1.54154
1.69036
1.76024
1.77653
1.7676
1.71788
1.68067
1.65475
1.63801
1.64158
1.65709
1.68435
1.72007
1.75167
1.81821
1.89142
1.9049
1.85526
1.71329
1.38623
1.16928
1.13448
1.1733
1.45749
1.77241
1.32598
1.33955
1.33609
1.3075
1.24921
1.23929
1.25185
1.33057
1.45348
1.52846
1.5991
1.63007
1.64628
1.57276
1.42384
1.22567
1.08957
1.03712
1.02244
1.02491
1.06143
1.18975
1.44699
1.66456
1.79112
1.82912
1.82894
1.79714
1.68898
1.54977
1.44809
1.36393
1.32416
1.32013
1.33475
1.37391
1.42097
1.48784
1.59773
1.74717
1.86395
1.9169
1.88948
1.76077
1.41588
1.2194
1.19279
1.31324
1.63814
1.82833
1.86115
1.28847
1.35944
1.36019
1.4141
1.42701
1.44391
1.45394
1.46922
1.48206
1.47814
1.43682
1.34222
1.2115
1.1252
1.06297
1.0463
1.04675
1.08276
1.20314
1.47144
1.68042
1.82093
1.86384
1.83242
1.72603
1.54239
1.34774
1.19621
1.11014
1.08447
1.09088
1.13437
1.16928
1.19209
1.21419
1.25806
1.33374
1.45016
1.62255
1.80013
1.86185
1.87053
1.72011
1.40475
1.28824
1.28059
1.52003
1.77433
1.84506
1.8157
1.68494
1.07182
1.11743
1.16067
1.16912
1.20036
1.21084
1.20135
1.16419
1.13857
1.0991
1.07383
1.06228
1.06935
1.08072
1.12928
1.24678
1.46591
1.68371
1.7911
1.83199
1.82238
1.71907
1.52657
1.30551
1.14796
1.06934
1.04751
1.0471
1.09006
1.15393
1.19646
1.20364
1.19256
1.19625
1.21715
1.27109
1.35767
1.56605
1.74202
1.78218
1.82977
1.55923
1.39483
1.35157
1.37237
1.664
1.85234
1.88376
1.81068
1.64755
1.44155
1.01107
1.00962
1.00737
1.00874
1.01217
1.01764
1.02946
1.04596
1.06844
1.10479
1.15888
1.24976
1.39105
1.56302
1.69573
1.78599
1.79986
1.80742
1.74489
1.59551
1.38045
1.18677
1.07618
1.0488
1.04682
1.06691
1.13388
1.23704
1.32734
1.36092
1.36137
1.32941
1.2719
1.25627
1.27362
1.37708
1.58431
1.67645
1.73248
1.77979
1.47578
1.43446
1.39436
1.51029
1.82004
1.87942
1.92842
1.85936
1.74482
1.60056
1.44323
1.13555
1.14411
1.16371
1.1917
1.22862
1.27731
1.33948
1.41554
1.50535
1.60451
1.69904
1.75938
1.78787
1.79437
1.7992
1.75141
1.66055
1.50456
1.33314
1.15878
1.06688
1.04058
1.03948
1.05186
1.09751
1.17876
1.28766
1.38471
1.4204
1.43028
1.42962
1.41783
1.40969
1.4149
1.45887
1.55876
1.60654
1.64182
1.53647
1.44139
1.41373
1.42361
1.78989
1.81561
1.96403
1.97131
1.96515
1.88695
1.75319
1.7565
1.74851
1.52548
1.54702
1.57762
1.61665
1.66011
1.70769
1.75646
1.77535
1.79553
1.80179
1.80013
1.79617
1.76247
1.71083
1.60921
1.49049
1.35203
1.21357
1.09269
1.0494
1.03279
1.03598
1.04766
1.08279
1.14522
1.23589
1.3429
1.4015
1.43563
1.44142
1.44857
1.45503
1.46425
1.48619
1.51779
1.54365
1.53299
1.45924
1.47467
1.49491
1.6217
1.90151
1.90994
2.00053
2.0346
2.03018
2.00148
1.96333
1.97487
1.98279
1.99315
1.74821
1.75967
1.77481
1.79224
1.80027
1.80988
1.81341
1.81396
1.80554
1.78926
1.75438
1.7027
1.62833
1.53602
1.4332
1.31676
1.20111
1.09664
1.0426
1.03254
1.03665
1.04035
1.0607
1.09696
1.15178
1.222
1.29887
1.36614
1.4055
1.42523
1.43927
1.44736
1.45746
1.46737
1.47296
1.47156
1.47894
1.49753
1.55779
1.78906
1.91484
2.01713
2.02939
2.08002
2.08912
2.08782
2.08556
2.08555
2.09445
2.09906
2.10985
1.81058
1.81574
1.82037
1.82283
1.82548
1.82318
1.81781
1.80518
1.78366
1.74966
1.70118
1.63831
1.56031
1.46639
1.36127
1.25087
1.14318
1.06884
1.03835
1.03996
1.04291
1.05312
1.07239
1.1085
1.14964
1.19631
1.24004
1.28724
1.32568
1.3579
1.38343
1.40469
1.42865
1.44954
1.47591
1.50267
1.57285
1.68481
1.88047
2.01552
2.03111
2.08431
2.09942
2.11735
2.12936
2.13037
2.13486
2.13938
2.14494
2.14885
2.15488
1.82678
1.82874
1.82959
1.83275
1.8286
1.82649
1.81475
1.79947
1.77299
1.73734
1.68681
1.62205
1.54138
1.447
1.34314
1.23776
1.14129
1.07966
1.05405
1.0619
1.06204
1.0733
1.0927
1.12831
1.16714
1.20704
1.24915
1.28824
1.32615
1.35902
1.39097
1.42172
1.46006
1.50793
1.58912
1.72702
1.81188
2.00044
2.00971
2.0834
2.09724
2.11993
2.13545
2.14208
2.14782
2.15232
2.15678
2.16113
2.16492
2.1679
2.17098
1.8306
1.83009
1.8342
1.83243
1.83237
1.82751
1.82002
1.80644
1.78605
1.7541
1.71309
1.65659
1.58818
1.50593
1.41587
1.32203
1.23507
1.16114
1.13034
1.11141
1.11973
1.12385
1.14057
1.17209
1.21291
1.24812
1.28756
1.32894
1.37389
1.41961
1.47572
1.54972
1.6531
1.76181
1.87543
1.94421
2.01798
2.06632
2.1073
2.11662
2.13431
2.14211
2.14997
2.15458
2.16013
2.16451
2.16874
2.17205
2.17488
2.17692
2.1783
1.82738
1.83269
1.83154
1.8371
1.83581
1.83744
1.83248
1.82691
1.8136
1.79196
1.76562
1.72344
1.67657
1.614
1.54922
1.47763
1.4121
1.35414
1.31096
1.29298
1.2834
1.29399
1.3024
1.33472
1.38102
1.4143
1.45531
1.51861
1.58549
1.66009
1.7467
1.83312
1.90454
1.97252
2.02701
2.07378
2.09109
2.116
2.13297
2.13977
2.14876
2.15412
2.15939
2.16329
2.16825
2.17207
2.17566
2.17911
2.18165
2.1832
2.18405
1.82901
1.83001
1.83432
1.83624
1.83948
1.83849
1.84682
1.82994
1.84253
1.81932
1.81392
1.78353
1.76015
1.71866
1.68049
1.63428
1.59386
1.55744
1.53763
1.52328
1.53297
1.54105
1.5623
1.60569
1.64528
1.67877
1.72679
1.78793
1.84038
1.89539
1.95217
2.00017
2.04322
2.07492
2.09905
2.11944
2.12835
2.13992
2.14865
2.15331
2.15928
2.16225
2.16754
2.17076
2.17572
2.17874
2.18219
2.18495
2.18596
2.18757
2.18723
1.82665
1.82965
1.83262
1.83689
1.84076
1.84521
1.84755
1.85183
1.84918
1.85025
1.84234
1.83612
1.82042
1.80553
1.78278
1.76244
1.73989
1.72329
1.7194
1.71701
1.73045
1.74425
1.77072
1.80876
1.8376
1.86806
1.91129
1.95401
1.98706
2.02481
2.05618
2.08206
2.10127
2.11685
2.13049
2.14052
2.14732
2.15458
2.15935
2.16307
2.16638
2.17003
2.1733
2.17736
2.18051
2.18364
2.18627
2.1875
2.19111
2.19071
2.1911
1.82592
1.82868
1.83223
1.83648
1.84116
1.8463
1.8512
1.85612
1.86002
1.86289
1.86462
1.86424
1.86236
1.85785
1.85199
1.84468
1.83875
1.83702
1.83604
1.8499
1.86082
1.87795
1.90193
1.93001
1.95293
1.97807
2.01204
2.03709
2.06041
2.08048
2.09869
2.11366
2.1264
2.13702
2.1465
2.1529
2.15835
2.16321
2.16619
2.16816
2.17051
2.17299
2.17603
2.17788
2.18175
2.1836
2.18545
2.1893
2.18892
2.19064
2.18836
1.82508
1.82771
1.83132
1.8357
1.84091
1.84652
1.85239
1.85848
1.8643
1.87021
1.8751
1.88023
1.88395
1.88746
1.88986
1.89275
1.89585
1.90128
1.91149
1.92207
1.93834
1.95399
1.97408
1.99463
2.01377
2.03522
2.05409
2.07275
2.08897
2.10392
2.11747
2.12947
2.13928
2.14841
2.15561
2.16033
2.16383
2.16544
2.16654
2.1691
2.1703
2.17296
2.17551
2.17861
2.18177
2.18473
2.18788
2.18974
2.19161
2.19117
2.18972
1.82469
1.82715
1.8306
1.83494
1.84006
1.84603
1.85234
1.85905
1.86623
1.87343
1.88086
1.88816
1.89619
1.90336
1.91069
1.91891
1.92701
1.93732
1.94842
1.96276
1.97589
1.99357
2.00785
2.02597
2.04074
2.05881
2.07451
2.08978
2.10333
2.11621
2.12806
2.13878
2.14714
2.15505
2.15815
2.16235
2.16398
2.16537
2.1661
2.16632
2.16742
2.16886
2.17091
2.17333
2.17606
2.17847
2.1807
2.18279
2.18336
2.18292
2.17957
1.82476
1.82716
1.83033
1.83471
1.83974
1.8459
1.85237
1.85929
1.86666
1.87473
1.88353
1.89273
1.8968
1.91372
1.9171
1.93496
1.93774
1.95586
1.96503
1.98062
1.99403
2.00967
2.0242
2.04061
2.05497
2.0709
2.08558
2.09878
2.11191
2.12331
2.13391
2.14272
2.14865
2.15305
2.15553
2.15727
2.15704
2.15659
2.15454
2.15247
2.15219
2.15176
2.15306
2.15554
2.15848
2.16139
2.16399
2.16523
2.16612
2.16461
2.1615
1.82536
1.8274
1.83053
1.83458
1.83958
1.84548
1.85206
1.85936
1.86703
1.87546
1.88407
1.89371
1.90395
1.91332
1.92505
1.9355
1.94801
1.9611
1.97462
1.9893
2.00298
2.01751
2.0354
2.04693
2.06428
2.07759
2.09216
2.10454
2.11627
2.12569
2.13574
2.14173
2.14769
2.15009
2.15086
2.14956
2.14774
2.1448
2.14124
2.14071
2.14031
2.1435
2.14808
2.15423
2.16106
2.16783
2.17375
2.17693
2.17919
2.17928
2.17751
1.00852
1.00833
1.00835
1.00843
1.00862
1.00889
1.00932
1.00993
1.0106
1.01145
1.01246
1.01359
1.01487
1.01628
1.0178
1.01945
1.02118
1.02299
1.02489
1.0268
1.0288
1.03078
1.0328
1.0348
1.03681
1.03878
1.00915
1.00898
1.00898
1.00901
1.00916
1.00944
1.00985
1.01034
1.011
1.01173
1.01267
1.01368
1.01487
1.01619
1.01757
1.01914
1.02079
1.02249
1.02433
1.02617
1.02812
1.03008
1.03206
1.03408
1.03607
1.03807
1.00991
1.00975
1.00975
1.00977
1.00985
1.01009
1.01046
1.01087
1.0115
1.01212
1.01297
1.0139
1.01496
1.01616
1.01749
1.0189
1.02045
1.02209
1.02381
1.02561
1.02745
1.02939
1.03136
1.03335
1.03536
1.03739
1.01077
1.01061
1.01061
1.01061
1.01067
1.01088
1.01114
1.01156
1.01203
1.01264
1.01334
1.0142
1.01515
1.01623
1.01744
1.01876
1.02019
1.02173
1.02337
1.02508
1.02689
1.02875
1.03067
1.03266
1.03467
1.03671
1.01174
1.01158
1.01155
1.01154
1.01158
1.01175
1.01198
1.01232
1.0127
1.01325
1.01385
1.01458
1.01543
1.01641
1.01749
1.0187
1.02001
1.02146
1.02299
1.02463
1.02637
1.02816
1.03006
1.03201
1.034
1.03605
1.01275
1.01268
1.01261
1.01259
1.01264
1.01275
1.01292
1.01318
1.0135
1.01391
1.01445
1.01508
1.01581
1.01667
1.01764
1.01873
1.01994
1.02126
1.02269
1.02425
1.0259
1.02765
1.02948
1.0314
1.03337
1.03543
1.01392
1.01388
1.01378
1.01378
1.01378
1.01383
1.01394
1.01414
1.0144
1.01474
1.01516
1.01568
1.01631
1.01703
1.01789
1.01886
1.01993
1.02115
1.02249
1.02393
1.02551
1.02718
1.02897
1.03085
1.03282
1.03483
1.01525
1.01513
1.0151
1.01503
1.01501
1.01505
1.01511
1.01524
1.0154
1.01564
1.01597
1.01638
1.01688
1.01751
1.01822
1.01907
1.02004
1.02113
1.02234
1.02371
1.02519
1.0268
1.02852
1.03036
1.03229
1.03431
1.01665
1.01655
1.01652
1.01644
1.01642
1.01639
1.01638
1.01644
1.01654
1.01668
1.01689
1.0172
1.01759
1.01807
1.01868
1.0194
1.02023
1.02121
1.02233
1.02357
1.02496
1.02648
1.02815
1.02991
1.03182
1.03381
1.01815
1.01809
1.01802
1.01794
1.0179
1.01782
1.01777
1.01776
1.01779
1.01783
1.01795
1.01813
1.01839
1.01876
1.01923
1.01979
1.02054
1.02136
1.02239
1.0235
1.02481
1.02626
1.02782
1.02958
1.03142
1.03338
1.01977
1.01972
1.01966
1.01959
1.01948
1.01942
1.0193
1.01921
1.01915
1.01912
1.01914
1.01919
1.01933
1.01957
1.01988
1.02035
1.02089
1.02165
1.02248
1.02355
1.02471
1.02608
1.02761
1.02928
1.0311
1.03304
1.02149
1.02147
1.02142
1.02134
1.02122
1.02112
1.02092
1.02081
1.02066
1.02054
1.02043
1.02036
1.02036
1.02045
1.02063
1.02094
1.0214
1.02193
1.02275
1.02359
1.02476
1.02597
1.02747
1.02906
1.03085
1.03279
1.02335
1.02336
1.02332
1.02322
1.02309
1.02288
1.02276
1.02246
1.02225
1.02205
1.02181
1.02164
1.02149
1.02145
1.02148
1.02164
1.0219
1.0224
1.02296
1.02379
1.02482
1.02598
1.02735
1.02894
1.03067
1.03259
1.02533
1.02537
1.02536
1.02526
1.0251
1.02491
1.02459
1.02441
1.02396
1.02365
1.02333
1.023
1.02275
1.0225
1.02242
1.0224
1.02255
1.02283
1.02333
1.024
1.02492
1.02598
1.02731
1.02888
1.0305
1.03244
1.02742
1.02748
1.02746
1.02738
1.02721
1.02696
1.0267
1.02626
1.02589
1.0254
1.02499
1.02446
1.02408
1.02368
1.02344
1.02327
1.02323
1.02339
1.02367
1.02429
1.02501
1.02607
1.02731
1.0288
1.03042
1.03239
1.02961
1.02974
1.02973
1.02965
1.02946
1.02914
1.02883
1.02822
1.02793
1.02709
1.02675
1.02594
1.02551
1.02492
1.02451
1.02411
1.02397
1.02391
1.02408
1.0245
1.02512
1.0261
1.02734
1.02858
1.03056
1.03225
1.03192
1.03206
1.0321
1.03201
1.03181
1.03144
1.03108
1.03037
1.03003
1.02909
1.02848
1.0277
1.02696
1.02617
1.02554
1.02496
1.02461
1.02435
1.0244
1.02468
1.02523
1.02616
1.02718
1.02887
1.03033
1.03232
1.03434
1.0345
1.03451
1.03443
1.03422
1.03382
1.03343
1.03262
1.03222
1.03112
1.03036
1.02958
1.02829
1.0275
1.02656
1.02577
1.02524
1.02486
1.0248
1.02495
1.0255
1.02634
1.02782
1.02892
1.03087
1.03271
1.03678
1.03706
1.03712
1.03707
1.03683
1.03643
1.03578
1.03526
1.03416
1.03348
1.03207
1.03125
1.02968
1.02893
1.02739
1.02675
1.02633
1.02596
1.0258
1.02644
1.02747
1.02882
1.03036
1.03203
1.0343
1.0359
1.03947
1.03973
1.03983
1.03974
1.03946
1.03899
1.03828
1.03763
1.03636
1.03565
1.03393
1.0328
1.03179
1.02991
1.02935
1.02858
1.02954
1.02966
1.03199
1.03669
1.0406
1.04499
1.05017
1.05253
1.05443
1.05689
1.04222
1.04244
1.04255
1.0425
1.04216
1.04165
1.04085
1.04011
1.03868
1.0378
1.0358
1.03486
1.03444
1.03238
1.03445
1.03839
1.0425
1.05314
1.07027
1.09439
1.11004
1.13161
1.15312
1.15833
1.16036
1.15933
1.04491
1.04527
1.04529
1.04528
1.04499
1.0444
1.04355
1.04254
1.04095
1.03974
1.03871
1.03676
1.04034
1.0383
1.06337
1.06016
1.1286
1.19992
1.28013
1.36606
1.43329
1.48628
1.52719
1.53646
1.53871
1.52732
1.04774
1.04806
1.04816
1.0481
1.04782
1.04714
1.04618
1.04485
1.04364
1.04206
1.04283
1.04411
1.06601
1.07851
1.18953
1.35784
1.48782
1.57965
1.63656
1.67315
1.69951
1.72668
1.75207
1.76222
1.76468
1.76671
1.05025
1.05061
1.05071
1.05072
1.05036
1.04948
1.04833
1.0472
1.04592
1.05023
1.05342
1.10712
1.21481
1.44726
1.58593
1.65555
1.68977
1.69517
1.694
1.69286
1.69612
1.7068
1.71353
1.73077
1.75122
1.77307
1.05298
1.05326
1.05325
1.05292
1.05211
1.05139
1.05073
1.04983
1.05939
1.07713
1.1861
1.46067
1.63822
1.70702
1.69875
1.66496
1.57421
1.46906
1.38644
1.32673
1.32529
1.33022
1.36878
1.44345
1.57666
1.69224
1.05618
1.05629
1.056
1.05525
1.0549
1.05449
1.05501
1.0667
1.11981
1.36704
1.64027
1.74481
1.72728
1.64247
1.45069
1.25522
1.1857
1.17111
1.16531
1.16127
1.16366
1.17981
1.2128
1.25315
1.34191
1.53451
1.05974
1.05935
1.05853
1.05831
1.05812
1.05987
1.08009
1.19199
1.56403
1.77399
1.78034
1.675
1.40062
1.17539
1.13336
1.13401
1.15506
1.20896
1.24416
1.24063
1.21638
1.2043
1.22199
1.27282
1.40203
1.63323
1.06414
1.06248
1.06171
1.06177
1.06504
1.11071
1.36655
1.75705
1.86522
1.78604
1.47688
1.16107
1.09849
1.09881
1.14863
1.29837
1.43074
1.47786
1.46508
1.37187
1.29122
1.27923
1.35029
1.5049
1.64436
1.71483
1.06802
1.06529
1.06565
1.07613
1.19198
1.67553
1.93651
1.91123
1.63505
1.2062
1.08895
1.07335
1.09693
1.18449
1.34905
1.49234
1.52607
1.52355
1.51341
1.49726
1.4928
1.51753
1.57705
1.61402
1.62828
1.58763
1.06941
1.07237
1.13502
1.49519
1.88908
1.94658
1.79883
1.34018
1.09327
1.06933
1.07562
1.10479
1.15242
1.23052
1.35864
1.45613
1.4794
1.49148
1.49014
1.48985
1.48997
1.49311
1.47989
1.41394
1.29454
1.18546
1.11297
1.31209
1.75365
1.9258
1.86756
1.5566
1.15056
1.08052
1.07205
1.07472
1.08692
1.10374
1.12592
1.15835
1.19967
1.24186
1.27238
1.28027
1.28432
1.2816
1.25707
1.22364
1.19686
1.18573
1.18673
1.21667
1.58849
1.84112
1.8896
1.75758
1.38049
1.13169
1.0833
1.07536
1.07436
1.07906
1.08562
1.09181
1.10113
1.11256
1.12429
1.13696
1.14915
1.1605
1.17267
1.18584
1.20148
1.22045
1.24883
1.33724
1.48235
1.69717
1.87301
1.83001
1.66136
1.27098
1.12458
1.08812
1.08115
1.07935
1.08347
1.09276
1.10315
1.11658
1.13527
1.1562
1.17888
1.20601
1.23741
1.27686
1.32915
1.40331
1.49453
1.61011
1.75196
1.88634
1.96173
2.03747
1.76914
1.52477
1.21434
1.13256
1.09688
1.09403
1.09322
1.10932
1.13688
1.18171
1.24775
1.33958
1.42775
1.49693
1.58438
1.64087
1.71638
1.77416
1.83792
1.89452
1.94491
1.99874
2.03116
2.05431
2.071
2.07332
1.40976
1.21378
1.15514
1.12826
1.12296
1.14592
1.2065
1.32065
1.47227
1.60859
1.72041
1.84481
1.84027
1.91678
1.98499
1.97016
2.02903
2.02093
2.05569
2.05152
2.07124
2.07002
2.07752
2.0777
2.07942
2.07957
1.29573
1.23567
1.20611
1.22614
1.33244
1.47821
1.66427
1.78815
1.88794
1.9692
2.01348
2.0592
2.0497
2.08695
2.07665
2.09101
2.08247
2.08898
2.08255
2.0848
2.08133
2.08183
2.08048
2.0801
2.07954
2.0788
1.44101
1.43218
1.53791
1.62906
1.79782
1.89066
1.98761
2.04031
2.08137
2.1012
2.11021
2.11217
2.11127
2.11271
2.10486
2.10152
2.09788
2.09107
2.0894
2.08474
2.08395
2.08122
2.08058
2.07919
2.07811
2.07692
1.79117
1.82309
1.90568
1.96917
2.04364
2.083
2.11238
2.12619
2.13383
2.13364
2.13179
2.12592
2.1226
2.11506
2.1094
2.10438
2.09615
2.09365
2.08755
2.08577
2.08189
2.08102
2.07855
2.07742
2.07582
2.07426
2.01985
2.04702
2.08374
2.11101
2.13271
2.14229
2.1475
2.14699
2.14542
2.14013
2.13538
2.12821
2.12231
2.11445
2.10965
2.10024
2.09691
2.08919
2.08697
2.08198
2.08086
2.07751
2.07644
2.0746
2.07321
2.07156
2.12243
2.13491
2.14682
2.15451
2.15869
2.15815
2.15683
2.15266
2.14827
2.14183
2.13553
2.12798
2.12066
2.11264
2.10547
2.09947
2.09042
2.08737
2.08099
2.07934
2.07497
2.0744
2.072
2.07138
2.07007
2.069
2.15946
2.1637
2.16677
2.16699
2.16628
2.16297
2.15935
2.15396
2.14816
2.14089
2.13353
2.12502
2.11691
2.10817
2.10069
2.09435
2.08405
2.08159
2.07458