/*--------------------------------*- C++ -*----------------------------------*\
  =========                 |
  \\      /  F ield         | OpenFOAM: The Open Source CFD Toolbox
   \\    /   O peration     | Website:  https://openfoam.org
    \\  /    A nd           | Version:  10
     \\/     M anipulation  |
\*---------------------------------------------------------------------------*/
FoamFile
{
    format      ascii;
    class       volScalarField;
    location    "0.701681";
    object      T;
}
// * * * * * * * * * * * * * * * * * * * * * * * * * * * * * * * * * * * * * //

dimensions      [0 0 0 1 0 0 0];

internalField   nonuniform List<scalar> 
15708
(
0.00869338
0.00869686
0.00869661
0.00870153
0.00870262
0.00870508
0.00870756
0.00870949
0.00871212
0.00871404
0.0087171
0.00871945
0.00872227
0.00872508
0.00872756
0.00873031
0.00873307
0.00873573
0.00873852
0.00874138
0.00874398
0.00874661
0.00874912
0.00875155
0.00875374
0.00875576
0.00875769
0.00875929
0.00876063
0.00876161
0.00876247
0.00876293
0.00876315
0.00876305
0.00876279
0.00876229
0.00876162
0.00876077
0.00875976
0.00875861
0.00875726
0.00875604
0.00875456
0.00875304
0.0087517
0.00875014
0.00874905
0.00874711
0.00874671
0.00874466
0.00874495
0.00869205
0.00869193
0.00869794
0.00869702
0.00870236
0.00870381
0.00870579
0.00870858
0.00871034
0.00871309
0.00871543
0.0087182
0.00872085
0.00872352
0.00872623
0.00872895
0.00873163
0.00873444
0.00873726
0.00874004
0.00874279
0.00874553
0.00874812
0.00875062
0.00875291
0.00875504
0.00875695
0.00875869
0.00876001
0.00876125
0.00876209
0.00876285
0.00876322
0.00876321
0.00876307
0.00876259
0.00876206
0.00876123
0.00876043
0.0087593
0.00875821
0.00875693
0.00875563
0.00875425
0.00875286
0.00875156
0.0087505
0.00874873
0.00874867
0.0087463
0.00874658
0.00868954
0.00869311
0.00869313
0.00869856
0.0086976
0.00870234
0.00870264
0.00870592
0.00870827
0.00871057
0.00871329
0.0087159
0.00871873
0.00872155
0.00872436
0.00872719
0.00873004
0.00873292
0.00873582
0.00873873
0.00874154
0.00874436
0.00874702
0.00874962
0.00875206
0.00875428
0.00875631
0.00875811
0.00875954
0.00876081
0.00876173
0.0087626
0.00876311
0.00876328
0.0087632
0.00876294
0.00876246
0.00876185
0.00876106
0.00876016
0.00875915
0.00875799
0.00875699
0.00875558
0.00875449
0.00875309
0.00875227
0.00875058
0.00875066
0.0087485
0.0087487
0.00868789
0.0086898
0.00869289
0.0086938
0.00869785
0.00869854
0.00870169
0.00870386
0.00870598
0.00870837
0.00871099
0.00871369
0.00871649
0.00871941
0.00872232
0.00872524
0.00872819
0.00873115
0.00873413
0.00873709
0.00874003
0.00874295
0.00874567
0.00874838
0.00875093
0.00875329
0.00875544
0.00875736
0.00875902
0.00876034
0.00876155
0.00876242
0.00876314
0.00876349
0.00876347
0.00876332
0.00876303
0.00876256
0.00876196
0.00876133
0.00876035
0.00875946
0.0087584
0.00875739
0.00875634
0.00875515
0.00875444
0.00875289
0.00875303
0.00875107
0.00875135
0.00868579
0.0086877
0.00868975
0.00869214
0.00869438
0.00869694
0.00869859
0.00870102
0.00870317
0.00870565
0.0087084
0.0087112
0.00871407
0.00871719
0.00872014
0.00872308
0.00872617
0.0087293
0.00873237
0.00873544
0.00873856
0.00874152
0.00874439
0.00874716
0.00874982
0.00875227
0.00875449
0.00875656
0.00875833
0.00875982
0.00876121
0.00876224
0.00876319
0.00876373
0.00876397
0.00876396
0.00876389
0.00876356
0.00876322
0.00876261
0.008762
0.0087612
0.00876031
0.00875937
0.00875866
0.00875754
0.00875697
0.00875582
0.00875565
0.00875413
0.00875443
0.00868288
0.00868442
0.00868639
0.00868838
0.00869097
0.00869256
0.00869488
0.00869695
0.00869928
0.00870184
0.00870498
0.00870818
0.00871139
0.00871464
0.0087178
0.00872092
0.00872407
0.00872732
0.00873058
0.00873379
0.00873707
0.0087402
0.00874326
0.00874612
0.00874884
0.00875137
0.00875368
0.00875586
0.00875775
0.00875943
0.00876088
0.00876221
0.00876322
0.00876399
0.00876449
0.00876467
0.00876476
0.00876473
0.00876456
0.00876421
0.00876378
0.00876323
0.00876263
0.00876194
0.00876127
0.00876046
0.00875987
0.00875902
0.00875858
0.00875796
0.00875742
0.00867804
0.00867921
0.00868181
0.00868408
0.00868767
0.00868831
0.00869228
0.00869403
0.00869627
0.00869923
0.00870215
0.00870544
0.00870885
0.00871231
0.00871557
0.00871877
0.00872225
0.00872601
0.00872948
0.00873259
0.00873544
0.00873817
0.00874089
0.00874368
0.0087465
0.00874938
0.0087522
0.00875486
0.00875719
0.00875923
0.00876092
0.00876246
0.00876361
0.00876457
0.00876524
0.00876569
0.00876594
0.00876612
0.00876614
0.00876604
0.00876583
0.00876557
0.00876506
0.00876467
0.00876426
0.00876374
0.00876328
0.00876277
0.00876228
0.00876199
0.00876138
0.00867452
0.00867665
0.00867919
0.00868105
0.00868347
0.00868587
0.00868829
0.00869061
0.00869362
0.00869636
0.00869931
0.00870261
0.00870596
0.00870959
0.00871328
0.00871674
0.00872037
0.00872408
0.00872749
0.00873051
0.00873324
0.00873609
0.0087392
0.0087425
0.00874552
0.0087484
0.00875106
0.00875383
0.00875635
0.00875879
0.0087609
0.00876262
0.00876411
0.00876514
0.00876607
0.00876675
0.00876721
0.00876767
0.00876801
0.00876814
0.00876817
0.00876816
0.00876806
0.00876787
0.00876761
0.00876737
0.00876709
0.00876683
0.00876654
0.00876627
0.0087661
0.00867183
0.00867381
0.00867607
0.00867634
0.00867981
0.00868012
0.00868313
0.00868623
0.00869002
0.00869396
0.00869768
0.0087011
0.00870414
0.00870702
0.00870989
0.00871301
0.00871642
0.00871995
0.00872372
0.00872739
0.00873117
0.00873477
0.00873815
0.00874154
0.00874467
0.0087478
0.00875071
0.00875346
0.008756
0.00875838
0.00876061
0.00876253
0.00876423
0.00876566
0.00876677
0.00876784
0.00876875
0.00876944
0.00877004
0.00877053
0.00877076
0.00877114
0.00877121
0.00877134
0.00877137
0.00877141
0.00877138
0.0087713
0.00877121
0.00877107
0.00877096
0.00866716
0.00866996
0.00866998
0.00867346
0.00867407
0.00867827
0.00867971
0.00868584
0.00868559
0.0086916
0.0086927
0.00869619
0.00869863
0.00870194
0.00870578
0.00871003
0.00871418
0.00871829
0.00872191
0.00872571
0.00872945
0.00873328
0.00873704
0.00874064
0.00874401
0.00874721
0.00875022
0.00875317
0.0087559
0.0087584
0.00876076
0.00876279
0.00876463
0.00876627
0.00876776
0.00876908
0.00877021
0.00877137
0.00877221
0.00877307
0.00877357
0.0087743
0.00877464
0.00877515
0.00877542
0.00877577
0.00877594
0.00877617
0.00877628
0.00877635
0.00877636
0.0086606
0.0086625
0.00866583
0.0086682
0.00867292
0.00867334
0.00867914
0.0086795
0.00868352
0.00868612
0.00868973
0.00869324
0.00869693
0.00870066
0.00870446
0.00870808
0.00871166
0.00871522
0.00871941
0.00872375
0.00872777
0.00873141
0.00873485
0.0087383
0.00874176
0.00874523
0.00874858
0.00875182
0.00875494
0.00875779
0.00876049
0.00876302
0.00876518
0.00876723
0.00876902
0.00877072
0.00877215
0.00877349
0.00877463
0.00877579
0.00877671
0.00877765
0.00877849
0.00877921
0.00877987
0.00878047
0.00878091
0.00878141
0.00878166
0.00878203
0.00878223
0.00865502
0.00865695
0.00865985
0.00866283
0.00866652
0.00866947
0.00867384
0.00867657
0.0086807
0.00868331
0.00868724
0.00869039
0.00869403
0.00869758
0.00870127
0.00870495
0.00870886
0.00871283
0.00871674
0.00872095
0.00872509
0.00872922
0.00873316
0.00873715
0.00874093
0.00874456
0.00874809
0.0087515
0.00875473
0.00875781
0.00876065
0.00876332
0.0087658
0.00876804
0.00877012
0.00877206
0.00877395
0.00877579
0.00877736
0.00877888
0.00878006
0.00878132
0.00878227
0.00878347
0.00878442
0.00878538
0.00878622
0.00878696
0.00878755
0.00878806
0.00878846
0.00865156
0.00865406
0.00865578
0.00866024
0.00865984
0.00866699
0.00866582
0.0086734
0.00867243
0.00868063
0.00868123
0.00868571
0.00868901
0.00869276
0.00869679
0.00870143
0.00870577
0.00871032
0.00871454
0.00871891
0.008723
0.00872725
0.0087315
0.00873563
0.00873961
0.00874351
0.00874734
0.00875105
0.00875453
0.00875777
0.00876078
0.00876367
0.00876647
0.00876906
0.00877148
0.00877378
0.00877598
0.00877795
0.00877987
0.00878164
0.00878351
0.00878515
0.00878679
0.00878818
0.00878958
0.00879072
0.00879186
0.00879284
0.00879362
0.00879436
0.00879492
0.00864548
0.0086482
0.00865057
0.00865351
0.00865785
0.0086593
0.00866491
0.0086663
0.00867026
0.00867339
0.00867716
0.00868133
0.00868561
0.0086899
0.00869456
0.00869895
0.00870341
0.00870779
0.00871208
0.00871649
0.00872087
0.00872532
0.0087298
0.00873419
0.00873834
0.0087424
0.00874643
0.0087503
0.00875413
0.00875759
0.00876098
0.00876408
0.00876702
0.0087699
0.00877284
0.00877556
0.00877796
0.00878021
0.00878257
0.00878499
0.00878732
0.00878939
0.0087913
0.0087931
0.00879474
0.00879626
0.00879773
0.00879898
0.00880017
0.00880101
0.00880179
0.00863748
0.00863896
0.00864513
0.00864547
0.00865305
0.00865383
0.00866009
0.00866174
0.00866762
0.00866994
0.00867477
0.00867887
0.00868326
0.00868774
0.0086919
0.00869634
0.0087009
0.00870555
0.0087101
0.00871442
0.00871875
0.00872314
0.00872761
0.00873214
0.00873681
0.00874127
0.00874572
0.00874988
0.0087538
0.00875768
0.00876117
0.00876472
0.00876791
0.00877113
0.00877429
0.00877723
0.00878014
0.00878294
0.0087855
0.00878823
0.00879091
0.00879365
0.00879605
0.00879835
0.00880035
0.00880222
0.0088039
0.00880536
0.00880679
0.00880785
0.00880889
0.00862589
0.0086322
0.00863743
0.00864162
0.00864546
0.00865158
0.00865175
0.00866176
0.00866009
0.00866961
0.00867141
0.00867593
0.00867962
0.00868361
0.00868786
0.00869268
0.00869714
0.00870149
0.0087063
0.00871136
0.00871657
0.00872164
0.00872653
0.00873132
0.00873593
0.0087405
0.00874492
0.00874913
0.00875339
0.00875733
0.0087613
0.00876504
0.00876866
0.00877223
0.00877571
0.00877916
0.00878237
0.00878559
0.00878873
0.00879183
0.00879484
0.00879789
0.00880077
0.00880345
0.00880597
0.00880817
0.00881033
0.00881222
0.00881377
0.00881523
0.00881627
0.00860303
0.00861882
0.00862751
0.00863536
0.00863852
0.00864573
0.00864912
0.00865429
0.00865913
0.0086628
0.00866761
0.00867186
0.00867634
0.00868089
0.00868542
0.00868965
0.00869436
0.00869912
0.00870396
0.00870883
0.00871385
0.008719
0.00872425
0.0087294
0.00873454
0.00873951
0.00874438
0.00874877
0.00875339
0.00875744
0.00876182
0.00876559
0.00876987
0.00877347
0.00877743
0.00878103
0.00878492
0.00878832
0.00879192
0.00879554
0.00879901
0.00880245
0.00880576
0.00880881
0.00881186
0.00881435
0.00881694
0.00881905
0.00882099
0.0088227
0.00882407
0.00855584
0.00859146
0.00861268
0.00862591
0.00863474
0.00864146
0.00864676
0.00865105
0.00865613
0.00865993
0.00866396
0.00866773
0.00867203
0.00867685
0.00868177
0.00868665
0.00869193
0.00869724
0.0087025
0.00870752
0.00871242
0.00871739
0.00872256
0.00872785
0.00873319
0.00873851
0.00874348
0.00874864
0.00875304
0.00875805
0.00876179
0.00876695
0.00877033
0.00877543
0.00877845
0.00878365
0.00878661
0.00879167
0.00879533
0.00879896
0.00880286
0.00880678
0.00881056
0.00881419
0.00881753
0.00882078
0.00882379
0.0088263
0.00882852
0.00883025
0.008832
0.00845728
0.00853395
0.00857992
0.00860707
0.00862415
0.0086347
0.00864227
0.00864734
0.00865229
0.00865739
0.00866117
0.00866559
0.00866942
0.00867379
0.00867868
0.00868388
0.00868916
0.00869454
0.00870015
0.00870588
0.00871136
0.00871683
0.00872204
0.00872736
0.00873268
0.0087378
0.00874322
0.00874786
0.00875371
0.00875672
0.00876431
0.00876502
0.00877376
0.00877377
0.00878303
0.00878271
0.0087922
0.00879182
0.00879954
0.00880371
0.00880802
0.00881209
0.00881625
0.00882013
0.0088239
0.00882732
0.00883051
0.00883376
0.00883605
0.0088388
0.00884022
0.00825108
0.00840978
0.00851042
0.00856786
0.00860309
0.00862131
0.00863556
0.00864375
0.00864633
0.00865323
0.00865713
0.00866183
0.00866654
0.00867072
0.00867551
0.00868102
0.00868696
0.00869301
0.00869875
0.00870442
0.0087099
0.00871554
0.00872103
0.00872661
0.00873214
0.00873725
0.00874276
0.00874751
0.00875333
0.00875772
0.00876269
0.00876942
0.0087708
0.00877938
0.00877972
0.00878973
0.00878945
0.00879994
0.00879939
0.00880802
0.00881193
0.00881754
0.00882209
0.00882627
0.00883049
0.00883444
0.00883769
0.00884147
0.00884403
0.00884683
0.00884832
0.00799439
0.00823903
0.0083895
0.00850026
0.00855052
0.0086062
0.00860746
0.0086403
0.00864033
0.00865203
0.00865547
0.00865957
0.00866469
0.00866947
0.00867426
0.00867909
0.00868468
0.00869062
0.00869685
0.00870285
0.00870857
0.00871428
0.00871983
0.00872586
0.00873155
0.00873732
0.00874228
0.00874904
0.00875095
0.0087608
0.00876091
0.00877119
0.00877076
0.00878179
0.00878149
0.00878899
0.00879627
0.0087974
0.00880784
0.00880791
0.00881888
0.0088185
0.00882728
0.00883247
0.00883688
0.00884161
0.00884512
0.00884928
0.00885258
0.00885538
0.00885773
0.00774159
0.00804809
0.00827625
0.0083997
0.00851593
0.00854379
0.00860776
0.00860811
0.00864027
0.00864061
0.00865341
0.00865764
0.00866254
0.00866758
0.00867284
0.00867817
0.00868384
0.00868957
0.00869565
0.00870163
0.00870762
0.00871341
0.00871905
0.00872505
0.00873074
0.00873673
0.0087422
0.00874832
0.00875304
0.00875782
0.00876527
0.00876664
0.00877679
0.0087767
0.00878861
0.00878811
0.00879889
0.00880172
0.00881023
0.0088146
0.00882191
0.00882722
0.00883196
0.00883738
0.00884267
0.00884809
0.00885243
0.00885684
0.00886081
0.00886431
0.00886672
0.00756876
0.00790999
0.00814787
0.00833266
0.00842771
0.00853927
0.00854066
0.00861405
0.0086104
0.008642
0.00864221
0.00865349
0.00866035
0.00866639
0.00867235
0.00867819
0.00868396
0.00868954
0.00869542
0.00870121
0.00870734
0.00871319
0.00871895
0.00872478
0.00873068
0.00873588
0.00874309
0.00874545
0.00875572
0.008756
0.00876687
0.0087668
0.00877824
0.0087782
0.00878998
0.00878963
0.00880225
0.00880166
0.00881372
0.00881986
0.00882526
0.00883324
0.0088389
0.00884496
0.00885053
0.00885572
0.00886095
0.00886512
0.0088693
0.00887327
0.00887674
0.00762914
0.00793538
0.00816494
0.00830563
0.00843669
0.00847409
0.00856015
0.00856206
0.00861718
0.00861704
0.00864351
0.00864858
0.00865578
0.00866344
0.00867089
0.00867789
0.00868471
0.0086911
0.00869687
0.0087022
0.00870842
0.00871434
0.00872018
0.00872582
0.00873165
0.00873628
0.00874481
0.00874516
0.00875666
0.00875676
0.00876775
0.0087679
0.00877879
0.00878122
0.0087878
0.00879761
0.00879838
0.008811
0.0088132
0.00882183
0.00883375
0.00883393
0.00884521
0.00885235
0.00885929
0.00886583
0.00887163
0.00887762
0.00888229
0.00888625
0.00888962
0.00787008
0.00807733
0.00824678
0.00835394
0.00844206
0.00849402
0.00853351
0.00857421
0.00857628
0.00861676
0.0086152
0.00864158
0.00864997
0.0086576
0.00866626
0.00867501
0.0086835
0.00869058
0.00869794
0.00870459
0.00871157
0.00871819
0.00872588
0.00873146
0.00873723
0.00874153
0.00874757
0.00875024
0.0087584
0.00875862
0.00876938
0.00876928
0.0087803
0.0087803
0.00879239
0.00879283
0.00880641
0.00880642
0.00882237
0.00882368
0.0088334
0.0088464
0.00884756
0.00885823
0.0088653
0.00887255
0.00887924
0.0088862
0.00889289
0.00889852
0.00890259
0.00826622
0.00831319
0.00834936
0.00838158
0.00842485
0.00846207
0.008492
0.00851875
0.00853616
0.00855421
0.00857024
0.00858552
0.00859926
0.0086107
0.00862633
0.00864345
0.00866029
0.00867473
0.0086879
0.00869898
0.00870866
0.00871688
0.00872516
0.00873361
0.00874136
0.00874723
0.00875227
0.00875578
0.00876085
0.00876257
0.00876973
0.00877212
0.0087802
0.00878345
0.0087913
0.00879679
0.00880312
0.00881266
0.00881561
0.00882614
0.00883689
0.00883752
0.00885235
0.00885233
0.00886559
0.00887212
0.00887935
0.00888723
0.00889598
0.00890348
0.00890878
0.00767439
0.0076973
0.00774022
0.00776813
0.00780412
0.00786117
0.00794536
0.0079525
0.00804776
0.00805676
0.0081457
0.00814892
0.00822153
0.00827079
0.00833366
0.00840546
0.00848021
0.00854864
0.00860423
0.0086463
0.00867758
0.0086998
0.00871641
0.00872907
0.0087401
0.00874873
0.00875546
0.00876013
0.0087649
0.00876857
0.00877279
0.00877518
0.00878016
0.00878438
0.00878972
0.00879067
0.00879987
0.00880538
0.00881061
0.0088156
0.00881833
0.00882049
0.00881965
0.00883176
0.00882989
0.00884254
0.00885512
0.00887048
0.00888734
0.0089009
0.00890895
0.00557067
0.00555049
0.0055523
0.00556069
0.00559183
0.00564105
0.00570597
0.00581356
0.00583812
0.00602523
0.00604338
0.00629014
0.00630762
0.00653504
0.00681037
0.00706247
0.00754253
0.00794139
0.00823186
0.00842875
0.00855633
0.00863525
0.00868325
0.00871269
0.00873289
0.00874567
0.00875443
0.00876045
0.00876458
0.00876805
0.00877302
0.00877424
0.00877479
0.00877432
0.00877875
0.0087824
0.00878417
0.00877025
0.0087425
0.00871469
0.00867806
0.00864178
0.00863848
0.00863506
0.00863791
0.00866083
0.00872967
0.00879337
0.00884348
0.00887616
0.00889667
0.00540188
0.00534792
0.0052885
0.00522879
0.00515848
0.0051113
0.00505843
0.00502704
0.00498909
0.00498282
0.0049843
0.00502515
0.00506008
0.00518038
0.00525948
0.00546952
0.00572946
0.00636204
0.00710285
0.00771553
0.00813967
0.00840279
0.0085573
0.00864705
0.00870065
0.00873031
0.00874724
0.00875669
0.00876074
0.00876556
0.00876298
0.00875827
0.00876053
0.00876676
0.00874388
0.00867375
0.00855081
0.00838018
0.00821213
0.00803402
0.00786522
0.0077878
0.00775699
0.00776395
0.00782323
0.00805519
0.00832321
0.00850297
0.00862528
0.00874764
0.00885331
0.00708539
0.00700164
0.00684473
0.00660746
0.00630789
0.00596771
0.00565901
0.00540517
0.0051997
0.00506004
0.00496374
0.00490196
0.00485047
0.00485379
0.00487698
0.00492241
0.00507536
0.00535818
0.00607058
0.00691234
0.00762296
0.00811802
0.00841869
0.0085868
0.00867431
0.0087186
0.00873854
0.00874733
0.00874871
0.00874309
0.00874554
0.00873917
0.00861423
0.00836871
0.00799612
0.00754364
0.00707024
0.00669436
0.00643428
0.00625067
0.00616689
0.00615683
0.00617498
0.00627309
0.00643881
0.00667305
0.00718023
0.0078765
0.00842585
0.00873293
0.00888212
0.00749122
0.00744582
0.00745268
0.00745847
0.00742279
0.0073177
0.00712702
0.00681468
0.00637555
0.00589411
0.00547087
0.00520229
0.00500181
0.00486955
0.00483786
0.00485677
0.00496537
0.00531562
0.00612193
0.00700986
0.007719
0.00819023
0.00846531
0.00861353
0.00868857
0.00871931
0.00873186
0.0087305
0.0087161
0.00858683
0.00816628
0.00752201
0.00683297
0.00627387
0.00586647
0.00563422
0.00552279
0.00545314
0.00540735
0.00537662
0.00534935
0.00536326
0.00540268
0.0054816
0.00559777
0.00598039
0.00699078
0.00793617
0.00855511
0.0088348
0.0088853
0.00654194
0.00654935
0.00673896
0.00711226
0.00742579
0.00757065
0.00760484
0.00752747
0.00733138
0.00697328
0.00628325
0.00551933
0.00505933
0.00485952
0.00483794
0.00487515
0.00507219
0.00563734
0.00660475
0.00748924
0.0081105
0.00845824
0.00862612
0.00869249
0.00870724
0.00869075
0.0085358
0.00791538
0.00692156
0.00618331
0.00564609
0.00533131
0.00522019
0.00519768
0.00521557
0.00525492
0.00526228
0.00525785
0.00524022
0.005199
0.00514661
0.0051063
0.00508862
0.00512122
0.00538644
0.00606708
0.00731562
0.00841581
0.00873244
0.00867391
0.00784536
0.005969
0.0059648
0.00611614
0.00657278
0.00726819
0.00751399
0.00755031
0.00746525
0.00716237
0.00662415
0.00571033
0.00516803
0.00494523
0.00487584
0.00494056
0.00518882
0.00583996
0.00698497
0.00790626
0.00840747
0.00860101
0.00866034
0.00862051
0.00835928
0.00753763
0.0064782
0.00570471
0.00520693
0.0050032
0.0049635
0.00499834
0.00515421
0.00528735
0.00539244
0.00547442
0.0054937
0.00547626
0.00542383
0.00534785
0.00528675
0.00512784
0.00496137
0.00495614
0.00511802
0.00556842
0.00690397
0.00820133
0.008465
0.00819249
0.00660196
0.0054345
0.00589566
0.00583609
0.00586261
0.0060138
0.00632424
0.0064171
0.00640038
0.0060684
0.00559737
0.00536202
0.00516403
0.00510638
0.00509681
0.00537598
0.00597987
0.00699215
0.00791148
0.00835075
0.0085017
0.00850563
0.00823175
0.00735682
0.0060576
0.00527038
0.0049009
0.00480172
0.00480558
0.00489381
0.00521095
0.00568433
0.00609095
0.00648113
0.00669762
0.00674846
0.00671093
0.0065611
0.00638682
0.00614451
0.00576593
0.00531361
0.00501733
0.00491284
0.00501668
0.00541475
0.00676066
0.00787103
0.00805893
0.00733128
0.00588333
0.00527656
0.00518898
0.00606058
0.00573847
0.00574948
0.00555255
0.00552907
0.00550038
0.00550385
0.00548976
0.00548558
0.0055437
0.00574753
0.00620045
0.00692388
0.00751369
0.00801083
0.0081893
0.00823045
0.00799586
0.00722591
0.00592587
0.00520026
0.00480667
0.00470189
0.00478678
0.00508475
0.00569083
0.00651091
0.00733508
0.00790612
0.00810287
0.00807215
0.00778614
0.00758198
0.00747317
0.00738018
0.00717108
0.00681218
0.00631325
0.00568714
0.00517033
0.00503909
0.00505367
0.00552992
0.00680499
0.00744736
0.00751049
0.00634134
0.00543915
0.00523686
0.00532658
0.00574362
0.00727659
0.00698259
0.00674148
0.00671547
0.00657604
0.00655819
0.00665704
0.00692221
0.00713385
0.0074504
0.00768877
0.00783293
0.0078412
0.0078164
0.00753549
0.00687285
0.00587892
0.00514198
0.00485157
0.00475719
0.00479281
0.00509008
0.00573876
0.00671314
0.00763326
0.0081924
0.00836294
0.00836993
0.00804712
0.00760772
0.00735207
0.00733209
0.0074314
0.00744872
0.00736686
0.0071045
0.00670175
0.00585939
0.00531319
0.00523822
0.00514542
0.00607582
0.00683188
0.00708326
0.00700284
0.0057943
0.0052156
0.00513544
0.00534781
0.00588084
0.00672616
0.00771708
0.00773694
0.00777519
0.00779445
0.00780667
0.00781163
0.00777425
0.00770916
0.00760325
0.00740973
0.00712182
0.00665788
0.00603003
0.00540778
0.00501746
0.00479508
0.00478326
0.00478406
0.00497406
0.00545632
0.00632036
0.00736397
0.00812876
0.00834699
0.00836552
0.00820851
0.00772378
0.00708209
0.00660843
0.00645632
0.00647053
0.00665094
0.00698238
0.00710932
0.00705805
0.00657759
0.00576487
0.00549084
0.00536779
0.00526652
0.00639408
0.00662141
0.0068365
0.00635028
0.00529264
0.00513867
0.00501928
0.00521218
0.00555977
0.00606106
0.00672658
0.00686732
0.00682669
0.00673036
0.00659778
0.00643127
0.00622245
0.00597186
0.00569184
0.00539512
0.00510175
0.00485652
0.00472531
0.0046853
0.00470378
0.00472219
0.00488086
0.00517486
0.00573638
0.00649899
0.00750069
0.00816637
0.00838955
0.00841163
0.00832094
0.00797998
0.00743355
0.00680888
0.0063415
0.00619197
0.00616245
0.00618501
0.00626249
0.00632932
0.00634441
0.00619504
0.00583781
0.0057102
0.0056332
0.00606449
0.00651984
0.00668839
0.00668511
0.00534192
0.00528441
0.00491147
0.00490698
0.0049332
0.00514312
0.00554068
0.00553785
0.00556409
0.00510481
0.00504315
0.00496012
0.0048601
0.0047567
0.00465151
0.00455024
0.00453494
0.00451895
0.00453751
0.00457632
0.00462126
0.00474517
0.00492396
0.00526936
0.0057233
0.00634302
0.00709885
0.00791601
0.00827245
0.00842735
0.00842173
0.00834446
0.00808673
0.00765636
0.00710364
0.00654579
0.00628692
0.00615258
0.00614557
0.00613874
0.00613925
0.00613284
0.00607895
0.00599228
0.00593611
0.00601853
0.00636518
0.00634792
0.00630104
0.00585588
0.00501213
0.00501224
0.00480857
0.00474875
0.00477324
0.0048511
0.00495546
0.00493064
0.00491332
0.00488947
0.0044438
0.00442449
0.0044009
0.00437557
0.00437791
0.00437982
0.00439973
0.00442979
0.00448382
0.00455899
0.00468543
0.00486491
0.00512559
0.00547278
0.00590473
0.00646639
0.00712879
0.00784396
0.00828441
0.00839696
0.00838926
0.00838431
0.00824466
0.00799063
0.0076271
0.00720475
0.00679392
0.00647972
0.00631817
0.00625536
0.00622173
0.00621814
0.00620919
0.00620385
0.00621805
0.00626437
0.00627363
0.00623251
0.00603979
0.00529274
0.00497138
0.00473653
0.00473111
0.00463925
0.00463497
0.00465132
0.0046659
0.00467264
0.00465809
0.00465134
0.00462936
0.00427911
0.00427748
0.00428089
0.00429323
0.00430901
0.00433963
0.00438068
0.00444226
0.00452893
0.00465191
0.00482149
0.00504538
0.00533791
0.0057211
0.00620483
0.00679581
0.00748333
0.00803483
0.00830714
0.00832769
0.0083352
0.00828348
0.00816126
0.00792001
0.00766004
0.0073844
0.0071479
0.006912
0.0067388
0.00660885
0.00651928
0.00645523
0.0063831
0.00632803
0.00625087
0.00617358
0.00593661
0.00557597
0.00503399
0.00471405
0.0047026
0.00460361
0.0045897
0.00456997
0.00455979
0.00456884
0.00456862
0.00456599
0.00455941
0.0045549
0.00454398
0.00423108
0.00423744
0.00424995
0.00426101
0.00429267
0.0043227
0.00437866
0.00444646
0.00454584
0.00467434
0.00485169
0.00508469
0.00539178
0.00578575
0.0062764
0.00685588
0.00748437
0.00795033
0.00817385
0.00815008
0.00818413
0.00813189
0.00801951
0.00779676
0.00756702
0.00734615
0.00712858
0.00694369
0.00677777
0.00664761
0.00652979
0.00642454
0.00629147
0.00612891
0.0058577
0.00542158
0.00519629
0.00472261
0.00472971
0.00458704
0.00457696
0.00454711
0.00453112
0.00453207
0.00453329
0.00453466
0.00453432
0.00453227
0.00452971
0.00452723
0.00452241
0.0042128
0.00422499
0.00423023
0.00425272
0.00427463
0.00431086
0.00435619
0.00441915
0.00450205
0.00461875
0.00476602
0.00496705
0.00522099
0.00554732
0.00594227
0.00640708
0.00690174
0.00738347
0.00762466
0.00778415
0.00776343
0.00777217
0.00769393
0.00752143
0.00730256
0.00713109
0.00694746
0.00676646
0.0065811
0.00640571
0.00619979
0.00594272
0.00560775
0.00529523
0.00500272
0.00485273
0.00469707
0.00460866
0.00454183
0.00454071
0.00452107
0.00452074
0.00451866
0.00452196
0.00452219
0.00452325
0.00452311
0.00452322
0.00452272
0.00452206
0.00452057
0.00421197
0.00421068
0.00422804
0.0042333
0.00425765
0.0042783
0.00431705
0.00435972
0.00442322
0.00451024
0.00461291
0.00476261
0.00493375
0.00516388
0.00541926
0.00572139
0.00602592
0.00632164
0.00656642
0.00669681
0.00677673
0.00675611
0.0067489
0.00662072
0.00643397
0.00631865
0.00617693
0.00595608
0.00574193
0.00552072
0.00528215
0.00506611
0.00490931
0.00477106
0.00467043
0.00458814
0.00457023
0.00453495
0.00451713
0.00451813
0.00451394
0.00451621
0.00451761
0.0045211
0.00452155
0.0045233
0.00452414
0.00452396
0.00452401
0.00452412
0.00452341
0.00420136
0.00420971
0.00421411
0.0042274
0.00424073
0.00426711
0.00427409
0.00434337
0.00434396
0.00443172
0.00447899
0.00459066
0.0046878
0.00483777
0.00498474
0.00516261
0.00532999
0.00549124
0.00559242
0.0056824
0.00567965
0.00568293
0.00563929
0.00552041
0.00542176
0.00534835
0.00523458
0.00509101
0.00498205
0.00487346
0.00476659
0.00468545
0.00461796
0.00457579
0.00454863
0.00452624
0.00452493
0.00451663
0.00451203
0.00451493
0.00451431
0.0045194
0.0045195
0.00452323
0.00452315
0.00452631
0.00452753
0.00452887
0.00453205
0.00453185
0.00453333
0.00420158
0.00420485
0.00421187
0.00421927
0.00423069
0.00424375
0.00426423
0.00428248
0.00431857
0.0043477
0.00439942
0.00444844
0.0045217
0.00459433
0.00468847
0.00477794
0.00487504
0.00495705
0.00500096
0.00504068
0.00503718
0.00503024
0.00498858
0.00491778
0.00487547
0.00483124
0.00475766
0.00468969
0.00464803
0.00459724
0.00456189
0.00453829
0.00452684
0.00452034
0.00451495
0.00451297
0.00451445
0.00451262
0.00451407
0.00451668
0.00451969
0.00452201
0.00452532
0.00452711
0.00453064
0.00453384
0.00453725
0.00454189
0.00454017
0.00454391
0.00454371
0.00419974
0.00420287
0.00420793
0.00421476
0.00422372
0.0042345
0.0042483
0.00426442
0.0042848
0.00430919
0.00433751
0.00437178
0.00441034
0.00445566
0.00450459
0.00455738
0.00460731
0.00464501
0.00468274
0.00468195
0.0046891
0.00468081
0.00465672
0.00462451
0.00460645
0.00458427
0.00454449
0.00452557
0.00451123
0.00450408
0.00450012
0.0045004
0.00450272
0.00450621
0.00450791
0.00451215
0.00451485
0.00451592
0.00451923
0.00452385
0.00452769
0.00453175
0.00453537
0.00454206
0.00454486
0.00455139
0.00455736
0.00455766
0.00456483
0.00456437
0.00456943
0.00419977
0.00420241
0.00420653
0.00421233
0.00421939
0.00422839
0.00423936
0.00425218
0.00426762
0.00428453
0.00430521
0.00432645
0.00435182
0.00437818
0.00440743
0.00443578
0.00446388
0.00448652
0.00449857
0.00450861
0.00450725
0.00450756
0.00449841
0.00448934
0.00448454
0.00447525
0.00447266
0.00447068
0.00447363
0.00447828
0.00448416
0.00449062
0.00449834
0.00450362
0.0045087
0.00451477
0.00451966
0.00452604
0.0045317
0.0045338
0.00453936
0.0045431
0.00454842
0.00455369
0.00455947
0.00456554
0.00457037
0.00457638
0.00458024
0.00458495
0.00458835
0.00420037
0.00420261
0.00420619
0.00421126
0.00421772
0.00422519
0.00423454
0.00424534
0.00425715
0.00427073
0.00428543
0.00430176
0.00431748
0.00433596
0.00435433
0.00437146
0.00438933
0.00440256
0.00441459
0.00441955
0.00442803
0.00442702
0.00443418
0.00443358
0.00444103
0.00444143
0.00444725
0.00445367
0.00446286
0.00447193
0.00448078
0.00448894
0.00449838
0.00450446
0.00451601
0.00452122
0.00452828
0.00453331
0.0045382
0.00454431
0.00455
0.00455718
0.00456528
0.00457432
0.0045837
0.0045937
0.00460301
0.00461083
0.00461941
0.00462532
0.00463294
0.0042015
0.00420297
0.00420627
0.00421041
0.00421629
0.00422258
0.00423092
0.00424069
0.00425161
0.00426289
0.00427435
0.0042865
0.00431165
0.00430885
0.00433647
0.00433312
0.00436481
0.00436205
0.00438025
0.00438484
0.004395
0.00440088
0.00440974
0.00441495
0.00442485
0.00443133
0.00444019
0.00445139
0.00446131
0.00447287
0.00448321
0.00449371
0.004506
0.00451702
0.00452757
0.00453523
0.00454368
0.00455036
0.00455957
0.00456961
0.00457845
0.00459098
0.0046031
0.00461532
0.00462796
0.00464064
0.00465256
0.00466513
0.00467571
0.00468664
0.00469472
0.0042029
0.00420428
0.00420674
0.00421074
0.00421589
0.00422205
0.00422951
0.00423793
0.00424784
0.00425813
0.00426997
0.00428124
0.00429267
0.00430734
0.00431757
0.00433204
0.00434289
0.00435329
0.00436357
0.00437213
0.00438362
0.0043938
0.00439706
0.00441451
0.00441907
0.00443202
0.00444149
0.00445423
0.00446638
0.00448084
0.00449064
0.00450491
0.00451458
0.00452669
0.00453738
0.00454822
0.00455709
0.00456603
0.00457602
0.00458149
0.00459092
0.00459809
0.00460719
0.00461649
0.00462646
0.00463626
0.00464532
0.00465672
0.0046668
0.00467806
0.00468615
0.00874353
0.00874386
0.00874363
0.00874378
0.00874448
0.00874585
0.00874749
0.00874927
0.00875216
0.00875531
0.00875878
0.00876288
0.00876737
0.00877231
0.00877772
0.00878331
0.00878943
0.00879589
0.00880228
0.00880923
0.00881591
0.00882293
0.00882971
0.00883662
0.00884322
0.0088499
0.00874546
0.00874562
0.00874532
0.00874583
0.00874647
0.00874726
0.00874846
0.00875053
0.00875261
0.00875575
0.00875867
0.00876266
0.00876665
0.00877108
0.0087764
0.00878153
0.00878709
0.00879338
0.00879939
0.00880617
0.00881256
0.00881936
0.00882622
0.00883296
0.0088399
0.00884663
0.00874754
0.00874766
0.00874727
0.00874763
0.00874847
0.00874921
0.00875013
0.00875205
0.0087535
0.00875659
0.00875913
0.00876261
0.00876644
0.00877058
0.00877504
0.00878024
0.00878542
0.0087911
0.00879709
0.00880332
0.00880995
0.00881639
0.00882308
0.00882987
0.00883674
0.00884352
0.00875019
0.00875027
0.00874985
0.00875014
0.00875089
0.00875136
0.00875254
0.00875362
0.00875555
0.00875759
0.00876034