/*--------------------------------*- C++ -*----------------------------------*\
  =========                 |
  \\      /  F ield         | OpenFOAM: The Open Source CFD Toolbox
   \\    /   O peration     | Website:  https://openfoam.org
    \\  /    A nd           | Version:  10
     \\/     M anipulation  |
\*---------------------------------------------------------------------------*/
FoamFile
{
    format      ascii;
    class       volVectorField;
    location    "0.701681";
    object      U;
}
// * * * * * * * * * * * * * * * * * * * * * * * * * * * * * * * * * * * * * //

dimensions      [0 1 -1 0 0 0 0];

internalField   nonuniform List<vector> 
15708
(
(0.545089 -0.130212 0)
(0.531682 -0.123836 0)
(0.518615 -0.11739 0)
(0.505961 -0.110831 0)
(0.493726 -0.104268 0)
(0.481908 -0.0976709 0)
(0.470553 -0.0911141 0)
(0.459647 -0.084601 0)
(0.449206 -0.07815 0)
(0.439228 -0.0717741 0)
(0.429714 -0.065481 0)
(0.420661 -0.0592776 0)
(0.412067 -0.0531691 0)
(0.40393 -0.0471584 0)
(0.396248 -0.0412471 0)
(0.38902 -0.0354355 0)
(0.382244 -0.029723 0)
(0.375921 -0.0241091 0)
(0.37005 -0.0185934 0)
(0.364634 -0.0131759 0)
(0.359673 -0.00785763 0)
(0.35516 -0.00264679 0)
(0.351131 0.00247883 0)
(0.347543 0.00748079 0)
(0.344415 0.0123703 0)
(0.341753 0.0171416 0)
(0.339556 0.0217856 0)
(0.33782 0.0262935 0)
(0.336546 0.0306559 0)
(0.335732 0.0348628 0)
(0.335374 0.0389026 0)
(0.335466 0.0427658 0)
(0.336002 0.0464398 0)
(0.336972 0.0499154 0)
(0.338373 0.0531774 0)
(0.340191 0.0562165 0)
(0.342416 0.059018 0)
(0.345046 0.0615727 0)
(0.348058 0.0638627 0)
(0.351441 0.065882 0)
(0.355173 0.0676142 0)
(0.359238 0.0690504 0)
(0.363614 0.0701796 0)
(0.368274 0.0709932 0)
(0.373192 0.0714834 0)
(0.378338 0.0716444 0)
(0.383678 0.0714728 0)
(0.389176 0.0709692 0)
(0.394786 0.0701355 0)
(0.40048 0.0689883 0)
(0.406205 0.0675307 0)
(0.551183 -0.117004 0)
(0.537894 -0.111048 0)
(0.524925 -0.104996 0)
(0.512301 -0.0988794 0)
(0.50007 -0.0927489 0)
(0.488254 -0.0866243 0)
(0.47684 -0.0805161 0)
(0.465883 -0.0744748 0)
(0.455372 -0.0684765 0)
(0.445315 -0.0625548 0)
(0.435717 -0.0567099 0)
(0.426575 -0.0509467 0)
(0.417891 -0.0452688 0)
(0.409662 -0.0396786 0)
(0.401888 -0.0341772 0)
(0.394568 -0.0287644 0)
(0.387701 -0.0234397 0)
(0.381287 -0.0182025 0)
(0.375326 -0.0130523 0)
(0.369818 -0.00798968 0)
(0.364755 -0.00302326 0)
(0.360175 0.00187598 0)
(0.356027 0.00666282 0)
(0.352335 0.0113513 0)
(0.349103 0.0159385 0)
(0.346328 0.0204157 0)
(0.34401 0.0247734 0)
(0.342147 0.0290024 0)
(0.340735 0.0330924 0)
(0.339773 0.0370326 0)
(0.339257 0.0408112 0)
(0.33918 0.0444161 0)
(0.339535 0.0478359 0)
(0.340313 0.0510578 0)
(0.341505 0.0540717 0)
(0.343103 0.0568571 0)
(0.345096 0.0594136 0)
(0.347474 0.0617164 0)
(0.350223 0.0637581 0)
(0.353328 0.0655265 0)
(0.356772 0.0670099 0)
(0.360537 0.0681992 0)
(0.364599 0.0690832 0)
(0.36894 0.069656 0)
(0.373531 0.0699101 0)
(0.378346 0.0698426 0)
(0.383356 0.0694528 0)
(0.388526 0.068744 0)
(0.393822 0.0677212 0)
(0.399208 0.0664021 0)
(0.404642 0.0647876 0)
(0.55693 -0.103902 0)
(0.543742 -0.0983103 0)
(0.530818 -0.0926272 0)
(0.518225 -0.0869339 0)
(0.505986 -0.0812171 0)
(0.494138 -0.0755373 0)
(0.482691 -0.0698917 0)
(0.47167 -0.0642903 0)
(0.461102 -0.0587532 0)
(0.450964 -0.0532838 0)
(0.441286 -0.0478867 0)
(0.432062 -0.0425649 0)
(0.423294 -0.0373204 0)
(0.414982 -0.0321545 0)
(0.407126 -0.0270672 0)
(0.399724 -0.0220583 0)
(0.392776 -0.0171265 0)
(0.386281 -0.0122708 0)
(0.380238 -0.00749193 0)
(0.37464 -0.00279804 0)
(0.36952 0.00184603 0)
(0.364832 0.00639047 0)
(0.360594 0.0108507 0)
(0.356811 0.0152266 0)
(0.353481 0.01951 0)
(0.350601 0.0236919 0)
(0.348169 0.0277634 0)
(0.346182 0.0317144 0)
(0.344638 0.0355342 0)
(0.343533 0.039211 0)
(0.342861 0.0427323 0)
(0.342616 0.0460844 0)
(0.34279 0.0492561 0)
(0.343375 0.0522321 0)
(0.344359 0.0550018 0)
(0.345737 0.0575498 0)
(0.347495 0.0598627 0)
(0.349621 0.0619289 0)
(0.352107 0.0637322 0)
(0.354936 0.0652627 0)
(0.358092 0.0665101 0)
(0.361556 0.067462 0)
(0.365313 0.068113 0)
(0.369338 0.0684544 0)
(0.37361 0.0684823 0)
(0.378106 0.0681951 0)
(0.382798 0.0675938 0)
(0.387658 0.0666839 0)
(0.392652 0.0654736 0)
(0.397751 0.0639738 0)
(0.402921 0.0622043 0)
(0.562362 -0.0908621 0)
(0.549235 -0.0855818 0)
(0.536347 -0.0802779 0)
(0.523747 -0.0749543 0)
(0.511492 -0.0696689 0)
(0.499599 -0.0644018 0)
(0.488101 -0.0592062 0)
(0.477027 -0.0540456 0)
(0.466376 -0.0489676 0)
(0.456172 -0.0439509 0)
(0.446418 -0.0390033 0)
(0.437118 -0.0341259 0)
(0.428273 -0.0293191 0)
(0.419886 -0.0245823 0)
(0.411955 -0.0199148 0)
(0.404481 -0.0153155 0)
(0.397462 -0.0107826 0)
(0.390896 -0.00631857 0)
(0.384779 -0.00192273 0)
(0.379133 0.00243536 0)
(0.373919 0.00670558 0)
(0.369154 0.0109082 0)
(0.364841 0.0150433 0)
(0.360975 0.0191032 0)
(0.357554 0.0230802 0)
(0.354576 0.0269661 0)
(0.352036 0.0307515 0)
(0.349933 0.0344258 0)
(0.348261 0.0379776 0)
(0.347015 0.0413941 0)
(0.34619 0.0446622 0)
(0.34578 0.0477674 0)
(0.345775 0.0506962 0)
(0.346166 0.0534342 0)
(0.346944 0.055967 0)
(0.348098 0.0582833 0)
(0.34962 0.0603643 0)
(0.351496 0.0622005 0)
(0.353716 0.0637769 0)
(0.356269 0.0650802 0)
(0.359136 0.0660986 0)
(0.362304 0.0668254 0)
(0.365755 0.0672517 0)
(0.369469 0.06737 0)
(0.37343 0.0671798 0)
(0.377613 0.0666793 0)
(0.381997 0.06587 0)
(0.386557 0.0647597 0)
(0.391263 0.0633576 0)
(0.396091 0.0616814 0)
(0.401013 0.0597481 0)
(0.567511 -0.077803 0)
(0.554405 -0.0728315 0)
(0.541507 -0.0678678 0)
(0.528887 -0.0629338 0)
(0.516587 -0.0580399 0)
(0.504642 -0.0532124 0)
(0.493083 -0.0484392 0)
(0.481937 -0.0437405 0)
(0.471217 -0.0391106 0)
(0.460939 -0.0345497 0)
(0.45111 -0.0300571 0)
(0.441737 -0.0256305 0)
(0.432821 -0.0212678 0)
(0.424366 -0.0169667 0)
(0.41637 -0.0127256 0)
(0.408833 -0.00854409 0)
(0.40175 -0.00442494 0)
(0.395127 -0.000349062 0)
(0.388967 0.00368867 0)
(0.383243 0.00765473 0)
(0.377968 0.0115683 0)
(0.373143 0.0154302 0)
(0.368763 0.0192348 0)
(0.364824 0.0229755 0)
(0.361323 0.0266452 0)
(0.358255 0.0302351 0)
(0.355617 0.0337355 0)
(0.353404 0.037135 0)
(0.35161 0.0404212 0)
(0.350229 0.0435808 0)
(0.349255 0.0465997 0)
(0.34868 0.0494628 0)
(0.348497 0.0521544 0)
(0.348695 0.054661 0)
(0.349266 0.0569657 0)
(0.350199 0.0590543 0)
(0.351482 0.0609146 0)
(0.353107 0.0625282 0)
(0.355062 0.0638846 0)
(0.357334 0.0649696 0)
(0.359913 0.0657697 0)
(0.362784 0.0662795 0)
(0.36593 0.0664877 0)
(0.369337 0.0663924 0)
(0.372988 0.065989 0)
(0.376864 0.0652787 0)
(0.380945 0.0642647 0)
(0.385213 0.0629542 0)
(0.389644 0.0613591 0)
(0.394215 0.0594988 0)
(0.398897 0.0573907 0)
(0.572408 -0.0646841 0)
(0.559262 -0.0600059 0)
(0.546323 -0.0553767 0)
(0.533648 -0.0508121 0)
(0.521283 -0.0463238 0)
(0.509266 -0.0419131 0)
(0.497634 -0.0375955 0)
(0.486411 -0.0333398 0)
(0.475613 -0.0291698 0)
(0.465259 -0.0250708 0)
(0.455358 -0.0210387 0)
(0.445915 -0.0170695 0)
(0.436935 -0.0131583 0)
(0.428418 -0.00930333 0)
(0.420363 -0.00550444 0)
(0.41277 -0.00175251 0)
(0.405648 0.00197649 0)
(0.398979 0.00565886 0)
(0.392758 0.00928937 0)
(0.386989 0.0128815 0)
(0.381669 0.0164372 0)
(0.376793 0.0199526 0)
(0.372358 0.0234228 0)
(0.368357 0.0268418 0)
(0.364786 0.0302026 0)
(0.361639 0.0334962 0)
(0.358912 0.0367122 0)
(0.356597 0.0398384 0)
(0.354688 0.0428619 0)
(0.353178 0.0457683 0)
(0.352059 0.0485425 0)
(0.351325 0.0511687 0)
(0.350966 0.0536299 0)
(0.350973 0.0559104 0)
(0.351336 0.0579946 0)
(0.352046 0.0598653 0)
(0.353093 0.061508 0)
(0.354464 0.0629095 0)
(0.356153 0.0640529 0)
(0.358147 0.0649265 0)
(0.360434 0.0655173 0)
(0.363006 0.0658168 0)
(0.365847 0.0658158 0)
(0.368946 0.0655109 0)
(0.372287 0.0648995 0)
(0.375858 0.0639824 0)
(0.379641 0.062765 0)
(0.383621 0.0612545 0)
(0.38778 0.0594651 0)
(0.392098 0.0574123 0)
(0.396556 0.05512 0)
(0.577041 -0.0514436 0)
(0.563818 -0.0470531 0)
(0.550793 -0.0427527 0)
(0.53803 -0.0385631 0)
(0.525575 -0.0344815 0)
(0.513456 -0.0305032 0)
(0.50174 -0.0266248 0)
(0.490437 -0.0228382 0)
(0.47955 -0.0191359 0)
(0.469119 -0.0155086 0)
(0.459145 -0.0119484 0)
(0.449636 -0.00845169 0)
(0.440593 -0.00501239 0)
(0.432022 -0.00161345 0)
(0.423926 0.00176129 0)
(0.4163 0.00510401 0)
(0.409129 0.00839768 0)
(0.40242 0.0116585 0)
(0.396168 0.0148956 0)
(0.390371 0.0181107 0)
(0.38502 0.0213018 0)
(0.38011 0.0244658 0)
(0.375633 0.0275989 0)
(0.371584 0.0306954 0)
(0.367955 0.0337477 0)
(0.364739 0.0367464 0)
(0.36193 0.0396799 0)
(0.35952 0.0425354 0)
(0.357502 0.0452991 0)
(0.355869 0.0479557 0)
(0.354612 0.0504893 0)
(0.353722 0.052883 0)
(0.35319 0.0551193 0)
(0.353009 0.05718 0)
(0.353167 0.05905 0)
(0.353654 0.0607107 0)
(0.354463 0.0621458 0)
(0.355582 0.0633399 0)
(0.357003 0.0642796 0)
(0.358714 0.0649483 0)
(0.36071 0.0653369 0)
(0.362981 0.0654328 0)
(0.365513 0.0652288 0)
(0.368301 0.0647203 0)
(0.371333 0.0639044 0)
(0.374597 0.0627834 0)
(0.378082 0.0613623 0)
(0.381776 0.0596502 0)
(0.385665 0.057661 0)
(0.389735 0.0554121 0)
(0.393974 0.0529276 0)
(0.581413 -0.0380067 0)
(0.568058 -0.0339016 0)
(0.554904 -0.0299401 0)
(0.542009 -0.026133 0)
(0.529434 -0.0224737 0)
(0.517213 -0.0189319 0)
(0.505387 -0.015515 0)
(0.493982 -0.0122078 0)
(0.483014 -0.0089933 0)
(0.472505 -0.00586376 0)
(0.462462 -0.00279303 0)
(0.452895 0.000232859 0)
(0.443811 0.00322634 0)
(0.435202 0.00617807 0)
(0.427064 0.00908549 0)
(0.4194 0.0119628 0)
(0.412206 0.0148219 0)
(0.405478 0.0176689 0)
(0.39921 0.0205066 0)
(0.393394 0.0233355 0)
(0.388023 0.0261554 0)
(0.383087 0.0289646 0)
(0.37858 0.0317591 0)
(0.374492 0.0345328 0)
(0.370816 0.037277 0)
(0.367543 0.0399811 0)
(0.364665 0.0426335 0)
(0.362172 0.0452206 0)
(0.360056 0.0477276 0)
(0.358308 0.0501383 0)
(0.35692 0.0524356 0)
(0.355881 0.0546019 0)
(0.355183 0.0566189 0)
(0.354816 0.0584676 0)
(0.354771 0.0601296 0)
(0.355038 0.0615877 0)
(0.355608 0.0628234 0)
(0.356473 0.0638198 0)
(0.357624 0.0645615 0)
(0.359053 0.0650343 0)
(0.360754 0.0652265 0)
(0.362719 0.0651246 0)
(0.364942 0.0647229 0)
(0.367416 0.0640159 0)
(0.370133 0.0629992 0)
(0.373088 0.0616762 0)
(0.376272 0.0600511 0)
(0.379678 0.0581348 0)
(0.383297 0.0559407 0)
(0.38712 0.0534879 0)
(0.391136 0.0508 0)
(0.585498 -0.024303 0)
(0.571957 -0.0204953 0)
(0.558625 -0.0168941 0)
(0.545565 -0.0135066 0)
(0.532851 -0.010277 0)
(0.520496 -0.00722927 0)
(0.50855 -0.00429666 0)
(0.497051 -0.0014808 0)
(0.485989 0.00125391 0)
(0.475407 0.00390381 0)
(0.4653 0.00651053 0)
(0.455675 0.00902977 0)
(0.446542 0.0115187 0)
(0.437895 0.0139709 0)
(0.429738 0.0164043 0)
(0.422064 0.0188299 0)
(0.414866 0.021254 0)
(0.408136 0.0236808 0)
(0.401865 0.026113 0)
(0.396045 0.0285521 0)
(0.390666 0.0309985 0)
(0.38572 0.0334505 0)
(0.381196 0.0359038 0)
(0.377084 0.0383521 0)
(0.373375 0.0407863 0)
(0.370058 0.0431958 0)
(0.367122 0.045568 0)
(0.364558 0.0478887 0)
(0.362356 0.0501421 0)
(0.360504 0.052311 0)
(0.358993 0.0543771 0)
(0.357813 0.0563219 0)
(0.356954 0.0581258 0)
(0.356407 0.059769 0)
(0.356162 0.0612312 0)
(0.35621 0.0624938 0)
(0.356542 0.063538 0)
(0.357151 0.0643451 0)
(0.358032 0.0648986 0)
(0.359176 0.0651829 0)
(0.360579 0.0651849 0)
(0.362236 0.0648927 0)
(0.364145 0.0642988 0)
(0.3663 0.0633952 0)
(0.3687 0.0621815 0)
(0.37134 0.0606573 0)
(0.374219 0.0588286 0)
(0.377333 0.056705 0)
(0.380678 0.0543007 0)
(0.38425 0.051636 0)
(0.388043 0.0487333 0)
(0.589256 -0.0102915 0)
(0.575482 -0.0068374 0)
(0.56192 -0.00362907 0)
(0.548683 -0.000648301 0)
(0.535795 0.0021408 0)
(0.523296 0.00474329 0)
(0.511228 0.00719084 0)
(0.499602 0.00951169 0)
(0.488441 0.0116982 0)
(0.47779 0.0138169 0)
(0.467621 0.0158626 0)
(0.457945 0.017862 0)
(0.448792 0.0198361 0)
(0.440124 0.0217975 0)
(0.431957 0.0237568 0)
(0.42428 0.0257221 0)
(0.417086 0.0276998 0)
(0.410364 0.0296951 0)
(0.404106 0.0317122 0)
(0.398299 0.0337541 0)
(0.392932 0.0358214 0)
(0.387994 0.037912 0)
(0.383473 0.0400213 0)
(0.379356 0.0421422 0)
(0.37563 0.0442659 0)
(0.372284 0.0463813 0)
(0.369307 0.0484751 0)
(0.366685 0.0505319 0)
(0.364407 0.0525352 0)
(0.362461 0.054467 0)
(0.360838 0.0563079 0)
(0.359525 0.0580378 0)
(0.358512 0.0596354 0)
(0.35779 0.0610802 0)
(0.357349 0.0623509 0)
(0.357181 0.0634266 0)
(0.357278 0.0642873 0)
(0.357632 0.064914 0)
(0.358241 0.0652874 0)
(0.359098 0.0653917 0)
(0.3602 0.0652123 0)
(0.361546 0.0647367 0)
(0.363136 0.0639557 0)
(0.364967 0.0628615 0)
(0.367043 0.0614528 0)
(0.369364 0.0597285 0)
(0.371931 0.0576952 0)
(0.374747 0.0553608 0)
(0.377813 0.0527403 0)
(0.381129 0.0498535 0)
(0.384695 0.0467252 0)
(0.592599 0.0041232 0)
(0.578556 0.00727636 0)
(0.56476 0.0100949 0)
(0.551297 0.0126294 0)
(0.538213 0.0148904 0)
(0.525529 0.0169508 0)
(0.513327 0.0188269 0)
(0.501591 0.0205764 0)
(0.490345 0.0222134 0)
(0.479626 0.0237813 0)
(0.469397 0.0252756 0)
(0.459695 0.0267566 0)
(0.450514 0.0282095 0)
(0.441845 0.0296659 0)
(0.433684 0.0311341 0)
(0.426024 0.0326233 0)
(0.418854 0.0341414 0)
(0.412163 0.0356953 0)
(0.405937 0.0372903 0)
(0.400164 0.0389292 0)
(0.394829 0.0406122 0)
(0.389919 0.0423373 0)
(0.385419 0.0440998 0)
(0.381314 0.0458926 0)
(0.37759 0.0477064 0)
(0.374232 0.0495293 0)
(0.371227 0.0513473 0)
(0.36856 0.053144 0)
(0.36622 0.0549018 0)
(0.364192 0.0566016 0)
(0.362465 0.0582229 0)
(0.361028 0.0597441 0)
(0.359868 0.061143 0)
(0.358978 0.0623975 0)
(0.358346 0.0634851 0)
(0.357965 0.064383 0)
(0.357829 0.0650693 0)
(0.35793 0.065524 0)
(0.358266 0.0657269 0)
(0.358834 0.0656603 0)
(0.359633 0.0653079 0)
(0.360664 0.0646565 0)
(0.361929 0.063695 0)
(0.363432 0.062416 0)
(0.365178 0.0608156 0)
(0.367172 0.0588934 0)
(0.36942 0.0566537 0)
(0.371931 0.0541054 0)
(0.374709 0.0512624 0)
(0.377762 0.0481437 0)
(0.381095 0.0447759 0)
(0.59535 0.0190505 0)
(0.581017 0.0217672 0)
(0.566964 0.0241037 0)
(0.553279 0.0261047 0)
(0.540001 0.0278364 0)
(0.527174 0.0293104 0)
(0.514834 0.0306505 0)
(0.502993 0.0318017 0)
(0.491666 0.0328938 0)
(0.480876 0.0338536 0)
(0.47062 0.0348178 0)
(0.460899 0.0357242 0)
(0.451716 0.0366483 0)
(0.443059 0.0375768 0)
(0.434924 0.0385325 0)
(0.427299 0.0395282 0)
(0.420172 0.0405731 0)
(0.413528 0.0416749 0)
(0.407354 0.0428386 0)
(0.401632 0.0440671 0)
(0.396348 0.0453606 0)
(0.391484 0.046717 0)
(0.387023 0.0481316 0)
(0.382947 0.0495969 0)
(0.379241 0.0511023 0)
(0.375888 0.0526349 0)
(0.372871 0.0541797 0)
(0.370176 0.05572 0)
(0.367788 0.0572367 0)
(0.365692 0.0587096 0)
(0.363875 0.0601169 0)
(0.362325 0.061436 0)
(0.36103 0.0626439 0)
(0.35998 0.0637164 0)
(0.359164 0.0646294 0)
(0.358576 0.0653589 0)
(0.358209 0.0658815 0)
(0.358059 0.0661742 0)
(0.358123 0.0662164 0)
(0.358401 0.0659882 0)
(0.358894 0.0654723 0)
(0.359606 0.0646536 0)
(0.360542 0.0635198 0)
(0.36171 0.0620618 0)
(0.363118 0.0602744 0)
(0.364777 0.0581562 0)
(0.366698 0.0557103 0)
(0.368893 0.0529446 0)
(0.371374 0.0498725 0)
(0.374154 0.0465128 0)
(0.377243 0.0428908 0)
(0.597146 0.0342556 0)
(0.582594 0.0365556 0)
(0.568339 0.0384084 0)
(0.554485 0.0398795 0)
(0.541041 0.0410325 0)
(0.528095 0.0419449 0)
(0.515662 0.0426431 0)
(0.50375 0.0432199 0)
(0.492355 0.0436693 0)
(0.481538 0.0440665 0)
(0.47127 0.0444182 0)
(0.461537 0.0447585 0)
(0.452382 0.0451109 0)
(0.443745 0.0454947 0)
(0.435652 0.0459256 0)
(0.428079 0.0464168 0)
(0.421014 0.0469785 0)
(0.414439 0.0476189 0)
(0.408337 0.0483434 0)
(0.402691 0.0491554 0)
(0.39748 0.050055 0)
(0.392684 0.0510398 0)
(0.388283 0.0521045 0)
(0.384259 0.0532409 0)
(0.380591 0.0544378 0)
(0.377262 0.0556816 0)
(0.374252 0.0569565 0)
(0.371545 0.0582444 0)
(0.369125 0.0595253 0)
(0.366975 0.0607778 0)
(0.365081 0.0619789 0)
(0.36343 0.0631049 0)
(0.362009 0.0641308 0)
(0.360807 0.0650309 0)
(0.359815 0.0657794 0)
(0.359026 0.0663511 0)
(0.358433 0.0667204 0)
(0.358033 0.0668628 0)
(0.357826 0.0667552 0)
(0.357813 0.0663766 0)
(0.357997 0.0657076 0)
(0.358386 0.0647313 0)
(0.358987 0.0634336 0)
(0.359813 0.061804 0)
(0.360875 0.0598351 0)
(0.36219 0.0575241 0)
(0.363773 0.0548726 0)
(0.365641 0.0518871 0)
(0.367813 0.0485798 0)
(0.370307 0.0449686 0)
(0.37314 0.0410781 0)
(0.597389 0.0497994 0)
(0.582831 0.0516824 0)
(0.568539 0.0530246 0)
(0.554627 0.0539496 0)
(0.541152 0.0544775 0)
(0.528143 0.054796 0)
(0.51567 0.0548439 0)
(0.503728 0.0547832 0)
(0.492327 0.0545849 0)
(0.48151 0.0543702 0)
(0.471243 0.0540828 0)
(0.461549 0.0538361 0)
(0.452424 0.0535969 0)
(0.443852 0.0534172 0)
(0.435827 0.0533066 0)
(0.428335 0.053278 0)
(0.421359 0.0533433 0)
(0.414881 0.0535113 0)
(0.40888 0.0537883 0)
(0.403334 0.0541775 0)
(0.39822 0.0546788 0)
(0.393517 0.0552894 0)
(0.389201 0.0560034 0)
(0.38525 0.0568116 0)
(0.381642 0.0577021 0)
(0.378356 0.0586605 0)
(0.375373 0.0596696 0)
(0.372672 0.0607103 0)
(0.370236 0.0617615 0)
(0.368048 0.0628007 0)
(0.366092 0.0638033 0)
(0.364353 0.0647445 0)
(0.362817 0.0655977 0)
(0.361474 0.066336 0)
(0.360313 0.0669314 0)
(0.359328 0.0673566 0)
(0.358513 0.0675843 0)
(0.357867 0.0675886 0)
(0.35739 0.0673441 0)
(0.357084 0.0668275 0)
(0.356958 0.0660172 0)
(0.357018 0.0648943 0)
(0.357279 0.0634428 0)
(0.357755 0.0616499 0)
(0.358463 0.0595063 0)
(0.359422 0.0570072 0)
(0.360654 0.0541518 0)
(0.362181 0.0509448 0)
(0.364028 0.0473966 0)
(0.36622 0.0435239 0)
(0.368781 0.0393498 0)
(0.595106 0.0653627 0)
(0.580904 0.0668592 0)
(0.566902 0.0677337 0)
(0.553188 0.0680916 0)
(0.539874 0.0680484 0)
(0.526999 0.0676976 0)
(0.514602 0.0671443 0)
(0.502743 0.0663799 0)
(0.491413 0.0655815 0)
(0.480658 0.0646696 0)
(0.470465 0.0637967 0)
(0.460851 0.0629107 0)
(0.451813 0.0620843 0)
(0.443339 0.0613239 0)
(0.435422 0.0606535 0)
(0.428047 0.06009 0)
(0.421194 0.0596463 0)
(0.414844 0.0593317 0)
(0.408973 0.0591527 0)
(0.403556 0.0591128 0)
(0.398569 0.0592122 0)
(0.393984 0.0594474 0)
(0.389778 0.0598111 0)
(0.385924 0.0602934 0)
(0.382398 0.0608807 0)
(0.379177 0.0615576 0)
(0.376239 0.0623061 0)
(0.373564 0.0631056 0)
(0.37113 0.0639341 0)
(0.36892 0.0647675 0)
(0.366916 0.0655808 0)
(0.365102 0.0663472 0)
(0.363464 0.0670384 0)
(0.36199 0.0676262 0)
(0.360669 0.0680806 0)
(0.359496 0.0683722 0)
(0.358465 0.0684719 0)
(0.357575 0.0683517 0)
(0.356829 0.067984 0)
(0.356231 0.0673433 0)
(0.35579 0.0664053 0)
(0.355518 0.0651485 0)
(0.355432 0.0635551 0)
(0.355549 0.0616093 0)
(0.355891 0.0592998 0)
(0.356482 0.0566188 0)
(0.357347 0.0535628 0)
(0.358517 0.0501346 0)
(0.36002 0.0463413 0)
(0.361889 0.0421975 0)
(0.364155 0.037725 0)
(0.588731 0.0803603 0)
(0.575587 0.0816185 0)
(0.562414 0.0821379 0)
(0.54938 0.0820205 0)
(0.536594 0.0814667 0)
(0.524146 0.0805149 0)
(0.512068 0.079348 0)
(0.500487 0.0779761 0)
(0.489384 0.0765094 0)
(0.478823 0.0749833 0)
(0.46882 0.0734482 0)
(0.459349 0.0719436 0)
(0.450478 0.0705019 0)
(0.442157 0.0691509 0)
(0.434401 0.0679135 0)
(0.427188 0.0668082 0)
(0.420501 0.0658488 0)
(0.414315 0.0650464 0)
(0.408608 0.0644085 0)
(0.403353 0.0639384 0)
(0.39852 0.0636357 0)
(0.394082 0.063496 0)
(0.39001 0.0635114 0)
(0.386278 0.0636705 0)
(0.382858 0.0639592 0)
(0.379726 0.0643603 0)
(0.376856 0.0648544 0)
(0.374226 0.0654199 0)
(0.371814 0.0660338 0)
(0.369599 0.0666705 0)
(0.367564 0.0673041 0)
(0.36569 0.0679065 0)
(0.363963 0.0684469 0)
(0.362369 0.0688969 0)
(0.360898 0.069223 0)
(0.359543 0.0693952 0)
(0.358301 0.0693812 0)
(0.357172 0.0691518 0)
(0.356158 0.0686758 0)
(0.355267 0.067927 0)
(0.354509 0.0668772 0)
(0.3539 0.0655021 0)
(0.353459 0.0637809 0)
(0.353207 0.0616953 0)
(0.35317 0.059231 0)
(0.353376 0.0563764 0)
(0.353858 0.0531254 0)
(0.354648 0.049477 0)
(0.355783 0.0454357 0)
(0.357303 0.041013 0)
(0.359246 0.0362277 0)
(0.576473 0.0938944 0)
(0.565276 0.0952254 0)
(0.55372 0.0956176 0)
(0.542031 0.0952508 0)
(0.530336 0.0943039 0)
(0.518778 0.09292 0)
(0.507453 0.09121 0)
(0.496444 0.0893089 0)
(0.485836 0.0872282 0)
(0.475675 0.0851191 0)
(0.466005 0.0829464 0)
(0.456857 0.0808396 0)
(0.44825 0.078789 0)
(0.440187 0.0768498 0)
(0.432668 0.0750441 0)
(0.425684 0.0733932 0)
(0.419219 0.071915 0)
(0.41325 0.0706226 0)
(0.407754 0.0695247 0)
(0.402701 0.0686247 0)
(0.398062 0.0679216 0)
(0.393806 0.0674101 0)
(0.389902 0.0670814 0)
(0.386321 0.0669229 0)
(0.383034 0.0669191 0)
(0.380013 0.0670515 0)
(0.377233 0.0672993 0)
(0.374669 0.0676398 0)
(0.372297 0.0680483 0)
(0.370097 0.0685 0)
(0.368047 0.0689638 0)
(0.366128 0.0694151 0)
(0.364325 0.0698179 0)
(0.362623 0.0701442 0)
(0.361011 0.0703568 0)
(0.359484 0.0704244 0)
(0.358037 0.070313 0)
(0.356672 0.0699909 0)
(0.355392 0.0694235 0)
(0.354208 0.0685835 0)
(0.353129 0.0674383 0)
(0.352177 0.0659623 0)
(0.351371 0.0641306 0)
(0.350739 0.0619219 0)
(0.350309 0.0593171 0)
(0.350113 0.0563015 0)
(0.350188 0.0528648 0)
(0.350573 0.0490013 0)
(0.351312 0.0447116 0)
(0.35245 0.0400031 0)
(0.354034 0.0348918 0)
(0.55672 0.104942 0)
(0.548405 0.106743 0)
(0.539321 0.107365 0)
(0.529747 0.107042 0)
(0.519857 0.105986 0)
(0.509808 0.104369 0)
(0.499748 0.102326 0)
(0.489808 0.0999864 0)
(0.480088 0.0974526 0)
(0.470674 0.0947971 0)
(0.461638 0.0921022 0)
(0.45303 0.089423 0)
(0.444889 0.0868105 0)
(0.437237 0.0843098 0)
(0.430085 0.0819539 0)
(0.423434 0.0797712 0)
(0.417276 0.0777842 0)
(0.411595 0.076009 0)
(0.40637 0.0744566 0)
(0.401573 0.0731325 0)
(0.397175 0.0720363 0)
(0.393142 0.0711622 0)
(0.389443 0.0704997 0)
(0.386046 0.0700339 0)
(0.382921 0.0697473 0)
(0.380039 0.0696202 0)
(0.377374 0.0696306 0)
(0.374899 0.0697551 0)
(0.37259 0.0699692 0)
(0.370422 0.0702446 0)
(0.368376 0.0705512 0)
(0.366429 0.070864 0)
(0.364565 0.0711359 0)
(0.362768 0.071359 0)
(0.361026 0.0714691 0)
(0.359334 0.0714592 0)
(0.357689 0.0712582 0)
(0.35609 0.0708747 0)
(0.354547 0.0702246 0)
(0.353069 0.0693261 0)
(0.351666 0.0681062 0)
(0.350365 0.066547 0)
(0.349187 0.0646219 0)
(0.348161 0.0623082 0)
(0.347319 0.0595802 0)
(0.346699 0.0564185 0)
(0.346341 0.0528082 0)
(0.346291 0.0487386 0)
(0.346598 0.0442046 0)
(0.347315 0.0392079 0)
(0.348497 0.0337592 0)
(0.528651 0.11263 0)
(0.523927 0.115297 0)
(0.518082 0.116531 0)
(0.511406 0.116613 0)
(0.504057 0.115775 0)
(0.496219 0.114208 0)
(0.488072 0.112081 0)
(0.479776 0.109537 0)
(0.471459 0.106712 0)
(0.463238 0.103679 0)
(0.455217 0.100574 0)
(0.447472 0.097437 0)
(0.44007 0.0943433 0)
(0.433055 0.0913483 0)
(0.426455 0.0884954 0)
(0.420291 0.0858218 0)
(0.414566 0.0833572 0)
(0.409277 0.0811245 0)
(0.404409 0.0791392 0)
(0.399939 0.0774094 0)
(0.395839 0.0759362 0)
(0.392079 0.0747139 0)
(0.388627 0.0737309 0)
(0.385451 0.0729714 0)
(0.382521 0.0724162 0)
(0.379807 0.0720434 0)
(0.377283 0.0718298 0)
(0.374923 0.0717505 0)
(0.372698 0.071782 0)
(0.370584 0.0718927 0)
(0.368561 0.0720591 0)
(0.366599 0.0722435 0)
(0.364693 0.0724194 0)
(0.362819 0.0725293 0)
(0.360959 0.0725818 0)
(0.35911 0.0724746 0)
(0.357275 0.0722453 0)
(0.355451 0.0717801 0)
(0.353645 0.0711098 0)
(0.351881 0.0701401 0)
(0.350135 0.0688836 0)
(0.348473 0.0672687 0)
(0.346913 0.0652727 0)
(0.345481 0.0628768 0)
(0.34421 0.0600464 0)
(0.343142 0.056759 0)
(0.342324 0.0529927 0)
(0.341803 0.04873 0)
(0.341636 0.0439598 0)
(0.341883 0.038676 0)
(0.34261 0.0328829 0)
(0.493188 0.116446 0)
(0.492333 0.120275 0)
(0.490179 0.122461 0)
(0.486928 0.123276 0)
(0.482693 0.122967 0)
(0.477648 0.121775 0)
(0.471981 0.119884 0)
(0.465883 0.117321 0)
(0.459472 0.114497 0)
(0.452926 0.111307 0)
(0.44636 0.107981 0)
(0.43984 0.104546 0)
(0.433498 0.101107 0)
(0.427392 0.0977311 0)
(0.421575 0.0944763 0)
(0.41609 0.091389 0)
(0.41096 0.0885087 0)
(0.406198 0.0858677 0)
(0.401799 0.0834896 0)
(0.39775 0.0813884 0)
(0.394028 0.0795679 0)
(0.390605 0.0780239 0)
(0.387453 0.076744 0)
(0.384541 0.0757117 0)
(0.381842 0.0749062 0)
(0.379327 0.0743048 0)
(0.37697 0.0738828 0)
(0.374748 0.073617 0)
(0.37263 0.07348 0)
(0.370593 0.0734315 0)
(0.368614 0.0734778 0)
(0.366667 0.0735369 0)
(0.364719 0.0736404 0)
(0.362785 0.0736634 0)
(0.360814 0.0736661 0)
(0.358826 0.0735015 0)
(0.356813 0.0732406 0)
(0.35476 0.0727521 0)
(0.352707 0.0720424 0)
(0.350631 0.0710588 0)
(0.348577 0.0697597 0)
(0.346531 0.0681337 0)
(0.344573 0.0660827 0)
(0.342719 0.0636494 0)
(0.340995 0.0607456 0)
(0.339453 0.0573573 0)
(0.33814 0.0534579 0)
(0.337108 0.0490214 0)
(0.33642 0.0440294 0)
(0.336141 0.0384667 0)
(0.336348 0.0323288 0)
(0.452479 0.116694 0)
(0.455324 0.121641 0)
(0.456878 0.12486 0)
(0.457221 0.126604 0)
(0.456407 0.127073 0)
(0.454546 0.126541 0)
(0.451659 0.125045 0)
(0.448183 0.123003 0)
(0.444174 0.120269 0)
(0.439637 0.11727 0)
(0.434884 0.113879 0)
(0.429932 0.11038 0)
(0.424965 0.106778 0)
(0.420051 0.103177 0)
(0.415266 0.0996516 0)
(0.410675 0.0962618 0)
(0.406327 0.0930595 0)
(0.402251 0.090089 0)
(0.398458 0.0873852 0)
(0.394944 0.0849704 0)
(0.391694 0.0828537 0)
(0.388685 0.0810328 0)
(0.385894 0.0794957 0)
(0.383295 0.078224 0)
(0.380866 0.0771952 0)
(0.378583 0.0763859 0)
(0.376425 0.0757733 0)
(0.374366 0.0753342 0)
(0.372369 0.0750382 0)
(0.370438 0.0748652 0)
(0.368525 0.0747819 0)
(0.36661 0.0747642 0)
(0.364664 0.0747427 0)
(0.362674 0.0747668 0)
(0.36062 0.0746608 0)
(0.358493 0.0745499 0)
(0.356323 0.0742118 0)
(0.354038 0.0737764 0)
(0.351724 0.0730433 0)
(0.349369 0.0720835 0)
(0.34697 0.0707842 0)
(0.344556 0.0691481 0)
(0.342187 0.0671157 0)
(0.339904 0.0646453 0)
(0.337685 0.061701 0)
(0.335634 0.0582456 0)
(0.333786 0.0542446 0)
(0.332195 0.0496629 0)
(0.330927 0.044472 0)
(0.330056 0.0386464 0)
(0.329663 0.0321691 0)
(0.409022 0.113649 0)
(0.415163 0.119515 0)
(0.420182 0.123763 0)
(0.42402 0.126509 0)
(0.426587 0.127968 0)
(0.427862 0.128232 0)
(0.428118 0.127613 0)
(0.427376 0.125994 0)
(0.425808 0.123879 0)
(0.423634 0.121112 0)
(0.42089 0.11804 0)
(0.417822 0.114622 0)
(0.414446 0.111084 0)
(0.410953 0.107445 0)
(0.407418 0.103809 0)
(0.403924 0.100252 0)
(0.400541 0.0968421 0)
(0.397317 0.0936407 0)
(0.394277 0.0906988 0)
(0.391425 0.0880492 0)
(0.388752 0.0857072 0)
(0.386243 0.0836728 0)
(0.383881 0.0819332 0)
(0.38165 0.0804683 0)
(0.379533 0.0792541 0)
(0.377517 0.0782672 0)
(0.375587 0.0774873 0)
(0.373718 0.0768927 0)
(0.371891 0.0764426 0)
(0.370084 0.0761666 0)
(0.368268 0.075957 0)
(0.366391 0.0758822 0)
(0.364482 0.0757896 0)
(0.362466 0.075775 0)
(0.36035 0.0756559 0)
(0.35813 0.0755426 0)
(0.355778 0.0752325 0)
(0.353323 0.0748005 0)
(0.350726 0.0741264 0)
(0.348072 0.0731978 0)
(0.345324 0.0719587 0)
(0.342529 0.0703452 0)
(0.339727 0.0683655 0)
(0.336946 0.0659005 0)
(0.334226 0.0629561 0)
(0.33162 0.0594735 0)
(0.32918 0.0554092 0)
(0.326965 0.0507194 0)
(0.325041 0.0453629 0)
(0.323485 0.0393013 0)
(0.32239 0.0325021 0)
(0.364071 0.108151 0)
(0.373401 0.114457 0)
(0.381752 0.119462 0)
(0.388893 0.123165 0)
(0.394682 0.125631 0)
(0.399167 0.126947 0)
(0.402115 0.127102 0)
(0.404127 0.12648 0)
(0.405228 0.124917 0)
(0.405286 0.122822 0)
(0.404751 0.120135 0)
(0.403557 0.117122 0)
(0.401985 0.113809 0)
(0.400032 0.110317 0)
(0.39789 0.10675 0)
(0.395641 0.103188 0)
(0.393374 0.0997118 0)
(0.391155 0.0964026 0)
(0.389014 0.0933302 0)
(0.386955 0.0905416 0)
(0.384973 0.0880616 0)
(0.383057 0.0858931 0)
(0.381197 0.0840202 0)
(0.37939 0.0824186 0)
(0.377631 0.0810631 0)
(0.375923 0.0799298 0)
(0.374259 0.0790044 0)
(0.372611 0.0782679 0)
(0.370992 0.0776924 0)
(0.369358 0.0773004 0)
(0.367684 0.0770068 0)
(0.36593 0.0768459 0)
(0.364072 0.0767492 0)
(0.362089 0.076684 0)
(0.359951 0.076616 0)
(0.357648 0.0764798 0)
(0.35516 0.0762658 0)
(0.352503 0.0758522 0)
(0.349666 0.0752922 0)
(0.346699 0.0744196 0)
(0.343562 0.0732783 0)
(0.34033 0.0717745 0)
(0.337027 0.0698361 0)
(0.333692 0.0674706 0)
(0.330363 0.0645761 0)
(0.327102 0.061114 0)
(0.323963 0.0570339 0)
(0.321005 0.052285 0)
(0.318296 0.0468128 0)
(0.315911 0.0405605 0)
(0.313945 0.0334747 0)
(0.317955 0.100218 0)
(0.330851 0.106782 0)
(0.34264 0.112428 0)
(0.353059 0.117016 0)
(0.361896 0.120516 0)
(0.369038 0.122843 0)
(0.374915 0.124024 0)
(0.379381 0.124437 0)
(0.382646 0.123669 0)
(0.385036 0.122231 0)
(0.386457 0.120214 0)
(0.387245 0.117646 0)
(0.387308 0.114779 0)
(0.386946 0.111593 0)
(0.386232 0.108239 0)
(0.385277 0.104811 0)
(0.384194 0.101408 0)
(0.383068 0.0981352 0)
(0.381932 0.0950775 0)
(0.380786 0.0922883 0)
(0.379614 0.089798 0)
(0.378401 0.0876086 0)
(0.377139 0.0856999 0)
(0.375838 0.084039 0)
(0.374511 0.082597 0)
(0.373183 0.0813549 0)
(0.37186 0.0803001 0)
(0.370528 0.0794269 0)
(0.369209 0.0787504 0)
(0.367842 0.0782317 0)
(0.366403 0.0778678 0)
(0.364864 0.077642 0)
(0.363175 0.0775238 0)
(0.361299 0.0774697 0)
(0.359202 0.0774361 0)
(0.356886 0.0773734 0)
(0.35428 0.0772356 0)
(0.351446 0.0769641 0)
(0.348316 0.0765158 0)
(0.34494 0.0758295 0)
(0.341358 0.0748085 0)
(0.337521 0.0734876 0)
(0.33356 0.0717356 0)
(0.329494 0.0694726 0)
(0.325332 0.0667022 0)
(0.321196 0.0633233 0)
(0.317134 0.0592863 0)
(0.313208 0.0545346 0)
(0.309481 0.0490076 0)
(0.30602 0.0426281 0)
(0.302915 0.0353131 0)
(0.27116 0.0878487 0)
(0.288005 0.0952236 0)
(0.303325 0.102011 0)
(0.316846 0.107943 0)
(0.328433 0.112755 0)
(0.338207 0.116399 0)
(0.346253 0.118971 0)
(0.352823 0.120193 0)
(0.358007 0.120602 0)
(0.362208 0.120013 0)
(0.365386 0.118765 0)
(0.36765 0.116897 0)
(0.369264 0.114528 0)
(0.370163 0.111733 0)
(0.370693 0.108668 0)
(0.370927 0.10541 0)
(0.37101 0.102086 0)
(0.371037 0.0988626 0)
(0.371017 0.0958611 0)
(0.370931 0.0931514 0)
(0.370746 0.0907646 0)
(0.370426 0.0886822 0)
(0.369954 0.0868521 0)
(0.369346 0.0852211 0)
(0.368641 0.0837522 0)
(0.367882 0.0824355 0)
(0.3671 0.0812709 0)
(0.366307 0.080272 0)
(0.365497 0.0794712 0)
(0.364612 0.0788313 0)
(0.363648 0.0784001 0)
(0.362532 0.078129 0)
(0.361199 0.0780201 0)
(0.3596 0.0780029 0)
(0.357677 0.0780782 0)
(0.355393 0.0781498 0)
(0.352698 0.0781928 0)
(0.349591 0.0781578 0)
(0.34604 0.0779258 0)
(0.342063 0.0775011 0)
(0.337689 0.0767833 0)
(0.33299 0.0756919 0)
(0.327931 0.0741981 0)
(0.322688 0.0721853 0)
(0.317329 0.0695716 0)
(0.311898 0.0663606 0)
(0.306523 0.0624233 0)
(0.301267 0.0577333 0)
(0.296178 0.0522337 0)
(0.291299 0.0458202 0)
(0.286706 0.0383663 0)
(0.226297 0.0690288 0)
(0.247029 0.0775901 0)
(0.265388 0.086007 0)
(0.281199 0.0937352 0)
(0.294575 0.100418 0)
(0.305784 0.10593 0)
(0.315089 0.110187 0)
(0.322757 0.11291 0)
(0.3291 0.114546 0)