/*--------------------------------*- C++ -*----------------------------------*\
  =========                 |
  \\      /  F ield         | OpenFOAM: The Open Source CFD Toolbox
   \\    /   O peration     | Website:  https://openfoam.org
    \\  /    A nd           | Version:  10
     \\/     M anipulation  |
\*---------------------------------------------------------------------------*/
FoamFile
{
    format      ascii;
    class       surfaceScalarField;
    location    "0.550758";
    object      phi;
}
// * * * * * * * * * * * * * * * * * * * * * * * * * * * * * * * * * * * * * //

dimensions      [1 0 -1 0 0 0 0];

internalField   nonuniform List<scalar> 
32368
(
-8.20879e-05
4.29593e-05
-8.32717e-05
3.64422e-05
-8.33344e-05
3.19093e-05
-7.95401e-05
2.7015e-05
-7.11748e-05
2.06017e-05
-5.96092e-05
1.2959e-05
-4.65118e-05
6.20134e-06
-3.43567e-05
1.16624e-06
-2.39142e-05
-1.69272e-06
-1.49391e-05
-2.59442e-06
-6.69111e-06
-1.64203e-06
-3.9098e-07
6.61451e-07
4.38963e-06
4.33036e-06
8.3828e-06
1.00921e-05
1.19077e-05
1.87042e-05
1.90861e-05
3.16973e-05
2.90781e-05
6.06995e-05
3.08237e-05
0.000101016
2.67302e-05
0.000117036
1.6907e-05
0.000114773
6.76924e-06
9.13776e-05
5.11455e-07
5.95424e-05
-3.53776e-06
3.77313e-05
-5.96371e-06
2.77221e-05
-7.7991e-06
2.4674e-05
-9.20946e-06
2.38267e-05
-1.03032e-05
2.38063e-05
-1.13832e-05
2.44642e-05
-1.25135e-05
2.518e-05
-1.37446e-05
2.59642e-05
-1.52475e-05
2.66992e-05
-1.71223e-05
2.77247e-05
-1.91624e-05
2.90148e-05
-2.1175e-05
3.05817e-05
-2.27439e-05
3.24521e-05
-2.3492e-05
3.44628e-05
-2.31417e-05
3.65318e-05
-2.15661e-05
3.85146e-05
-1.87766e-05
4.02735e-05
-1.49186e-05
4.16931e-05
-1.02587e-05
4.2666e-05
-5.12003e-06
4.30729e-05
2.13867e-07
4.2917e-05
5.45495e-06
4.23488e-05
1.033e-05
4.13631e-05
1.45846e-05
4.03873e-05
1.82072e-05
4.0095e-05
2.19485e-05
4.19202e-05
2.54694e-05
4.53628e-05
2.87401e-05
4.91689e-05
3.16819e-05
5.31363e-05
3.40305e-05
5.57913e-05
3.57557e-05
5.6444e-05
3.67801e-05
5.51758e-05
3.68474e-05
5.15038e-05
3.61518e-05
4.60953e-05
3.51103e-05
4.08084e-05
3.42573e-05
3.7361e-05
3.2199e-05
3.29872e-05
2.99e-05
2.5627e-05
2.71344e-05
1.3464e-05
2.49336e-05
-8.06148e-07
2.6011e-05
-1.2214e-05
2.8814e-05
-2.23687e-05
4.02766e-05
-3.36303e-05
5.2735e-05
-4.99283e-05
6.16823e-05
-6.54433e-05
6.59558e-05
-7.79802e-05
6.4814e-05
-8.50774e-05
5.79099e-05
-8.58873e-05
4.50746e-05
-8.14377e-05
2.74649e-05
-6.95838e-05
1.19945e-05
-4.53132e-05
4.99144e-06
-1.77107e-05
2.36498e-06
-7.02379e-06
1.13597e-06
-1.05078e-05
4.81852e-07
-1.86241e-05
-5.26191e-07
-5.46706e-05
-1.73028e-06
-0.000109918
3.36871e-06
-0.000163072
1.44072e-05
-0.000190573
2.72074e-05
-0.000185732
4.01819e-05
-0.000164092
5.39168e-05
-0.000135218
6.48904e-05
-9.826e-05
7.19218e-05
-4.89615e-05
7.95809e-05
-8.82917e-06
9.3218e-05
2.61291e-05
0.000104447
6.10302e-05
0.000105265
9.25517e-05
0.000104046
0.000116401
9.9964e-05
0.000132719
8.90741e-05
0.000143222
7.10357e-05
0.000146836
4.46791e-05
0.000149504
1.23125e-05
0.000152069
-1.79562e-05
0.000140266
-2.94198e-05
0.000115106
-3.27888e-05
6.18996e-05
-3.85522e-05
1.24276e-05
-3.75649e-05
-4.47792e-05
-2.97016e-05
-8.23018e-05
-2.42293e-05
-9.98976e-05
-1.67594e-05
-0.000117458
-4.80463e-06
-0.000131298
1.9678e-05
-0.000176972
4.98305e-05
-0.0002124
7.61474e-05
-0.000216988
9.14952e-05
-0.000204684
9.10907e-05
-0.000186346
7.32478e-05
-0.000165417
3.93772e-05
-0.000134756
-9.73299e-05
1.48946e-05
-8.8848e-05
5.99651e-05
-9.27224e-05
5.35332e-05
-9.50074e-05
4.87786e-05
-9.28112e-05
4.23074e-05
-8.56273e-05
3.35121e-05
-7.4921e-05
2.2976e-05
-6.23711e-05
1.33027e-05
-4.90203e-05
5.45677e-06
-3.66798e-05
6.70505e-07
-2.57963e-05
-1.25872e-06
-1.65534e-05
-8.75524e-07
-9.55293e-06
1.38907e-06
-4.45318e-06
5.1876e-06
-1.34958e-08
1.08926e-05
3.74323e-06
2.00575e-05
7.1515e-06
3.28927e-05
1.39501e-05
5.55599e-05
1.78861e-05
9.87706e-05
1.58991e-05
0.000128998
9.9551e-06
0.000130539
2.46907e-06
0.000109691
-3.27438e-06
7.56534e-05
-6.92579e-06
4.9477e-05
-9.60151e-06
3.4835e-05
-1.19665e-05
2.96574e-05
-1.36749e-05
2.74365e-05
-1.48902e-05
2.64795e-05
-1.58099e-05
2.63074e-05
-1.6613e-05
2.64779e-05
-1.75159e-05
2.65348e-05
-1.8514e-05
2.67901e-05
-1.97479e-05
2.69911e-05
-2.11771e-05
2.75565e-05
-2.25958e-05
2.84293e-05
-2.37709e-05
2.95699e-05
-2.43329e-05
3.09975e-05
-2.39946e-05
3.25124e-05
-2.25468e-05
3.40156e-05
-1.99788e-05
3.5375e-05
-1.64245e-05
3.65062e-05
-1.21111e-05
3.73247e-05
-7.32537e-06
3.77636e-05
-2.33599e-06
3.7801e-05
2.61032e-06
3.75449e-05
7.19352e-06
3.72348e-05
1.13342e-05
3.74617e-05
1.49947e-05
3.88721e-05
1.87237e-05
4.25581e-05
2.21358e-05
4.68967e-05
2.53153e-05
5.10042e-05
2.81667e-05
5.49443e-05
3.04364e-05
5.70448e-05
3.20669e-05
5.70503e-05
3.2945e-05
5.48962e-05
3.29895e-05
5.06646e-05
3.2431e-05
4.58264e-05
3.19042e-05
4.23102e-05
3.0489e-05
3.89891e-05
2.8273e-05
3.31103e-05
2.66262e-05
2.36124e-05
2.3758e-05
8.10067e-06
2.36733e-05
-4.55446e-06
2.5624e-05
-1.55355e-05
2.96242e-05
-2.49749e-05
4.19239e-05
-3.6774e-05
5.40593e-05
-5.23307e-05
6.33726e-05
-6.72173e-05
6.90658e-05
-7.94883e-05
7.03266e-05
-8.68787e-05
6.6479e-05
-8.72683e-05
5.68322e-05
-8.30655e-05
4.06901e-05
-7.2211e-05
2.13902e-05
-5.0617e-05
9.61134e-06
-2.15605e-05
6.18269e-06
-7.68783e-06
5.31832e-06
-1.12578e-05
5.8875e-06
-1.87524e-05
7.98718e-06
-4.84992e-05
1.12123e-05
-9.98604e-05
1.96667e-05
-0.000153619
3.16476e-05
-0.00018393
4.3902e-05
-0.000183041
5.60967e-05
-0.000162651
6.90117e-05
-0.000134256
7.97862e-05
-9.67528e-05
8.35601e-05
-4.89325e-05
8.57325e-05
-2.08456e-06
9.63853e-05
3.39944e-05
0.000109533
6.50031e-05
0.000115024
9.65388e-05
0.000111616
0.000120034
0.000106946
0.000137187
9.83739e-05
0.000147996
8.29342e-05
0.000153614
5.97353e-05
0.000157864
3.00453e-05
0.000162926
-7.00283e-07
0.000157724
-1.85646e-05
0.000137251
-2.34467e-05
9.28759e-05
-2.79245e-05
3.41652e-05
-3.09159e-05
-3.06702e-05
-2.64217e-05
-8.52884e-05
-1.998e-05
-0.000105343
-1.35343e-05
-0.000117344
-2.97786e-06
-0.000126657
1.83578e-05
-0.000161935
4.85015e-05
-0.000207011
7.51628e-05
-0.000219417
9.13375e-05
-0.000208576
9.4318e-05
-0.000188805
8.17923e-05
-0.000167517
4.9722e-05
-0.000139905
-9.94151e-05
2.24084e-05
-9.41317e-05
7.78374e-05
-9.99881e-05
7.16776e-05
-0.000104016
6.66124e-05
-0.000103653
5.87537e-05
-9.85249e-05
4.78491e-05
-9.05125e-05
3.50447e-05
-8.07244e-05
2.30594e-05
-6.85072e-05
1.25854e-05
-5.40895e-05
4.89819e-06
-3.93564e-05
9.86628e-07
-2.7495e-05
7.25133e-07
-1.87035e-05
2.56483e-06
-1.33464e-05
6.49402e-06
-9.10082e-06
1.2212e-05
-4.9259e-06
2.12394e-05
-1.7364e-06
3.47606e-05
9.07872e-07
5.59416e-05
2.7152e-06
9.44303e-05
2.55875e-06
0.000134875
-7.64569e-07
0.000142883
-5.22625e-06
0.000124788
-9.086e-06
9.1786e-05
-1.19911e-05
6.33036e-05
-1.44869e-05
4.51953e-05
-1.68205e-05
3.58424e-05
-1.84773e-05
3.14111e-05
-1.94337e-05
2.89844e-05
-2.00459e-05
2.79757e-05
-2.05623e-05
2.74878e-05
-2.09694e-05
2.71208e-05
-2.15065e-05
2.66e-05
-2.20407e-05
2.63766e-05
-2.2834e-05
2.62633e-05
-2.37181e-05
2.6598e-05
-2.4504e-05
2.72399e-05
-2.49018e-05
2.81317e-05
-2.45264e-05
2.91637e-05
-2.31926e-05
3.02055e-05
-2.08354e-05
3.11837e-05
-1.75587e-05
3.20328e-05
-1.35642e-05
3.26816e-05
-9.13506e-06
3.3115e-05
-4.57597e-06
3.33653e-05
-8.72395e-08
3.35162e-05
4.1739e-06
3.40169e-05
8.12013e-06
3.54303e-05
1.18047e-05
3.87197e-05
1.52741e-05
4.35498e-05
1.8578e-05
4.83227e-05
2.17113e-05
5.24941e-05
2.45669e-05
5.60844e-05
2.69012e-05
5.75181e-05
2.85649e-05
5.68527e-05
2.94015e-05
5.40686e-05
2.94875e-05
4.98267e-05
2.92927e-05
4.62634e-05
2.84945e-05
4.3694e-05
2.65248e-05
3.9142e-05
2.4811e-05
3.16394e-05
2.34773e-05
1.83256e-05
2.16884e-05
2.25977e-06
2.29568e-05
-8.83801e-06
2.52638e-05
-1.91466e-05
3.10799e-05
-2.83803e-05
4.38083e-05
-4.09111e-05
5.52117e-05
-5.62955e-05
6.49468e-05
-7.07454e-05
7.21221e-05
-8.31768e-05
7.5591e-05
-9.15983e-05
7.49948e-05
-9.27449e-05
6.80239e-05
-8.73636e-05
5.31524e-05
-7.57016e-05
3.17522e-05
-5.42216e-05
1.49746e-05
-2.62485e-05
9.98368e-06
-9.6217e-06
9.11337e-06
-1.28679e-05
1.00452e-05
-1.9717e-05
1.58782e-05
-4.37481e-05
2.50796e-05
-9.28215e-05
3.70624e-05
-0.000148672
4.8315e-05
-0.000181377
5.92313e-05
-0.000182172
7.01122e-05
-0.000162863
8.19547e-05
-0.000134654
9.08493e-05
-9.57751e-05
9.3995e-05
-4.86616e-05
9.17938e-05
9.05792e-07
9.62756e-05
3.6476e-05
0.000112017
6.85967e-05
0.000119477
9.836e-05
0.00011981
0.000122764
0.00011359
0.000141181
0.000105012
0.000152717
9.16605e-05
0.000158354
7.13233e-05
0.000163999
4.42918e-05
0.00016951
1.62601e-05
0.000170677
-1.98901e-06
0.000155233
-9.36949e-06
0.000118999
-1.22749e-05
5.76303e-05
-1.78003e-05
-1.33638e-05
-1.99038e-05
-8.13756e-05
-1.54396e-05
-0.000115915
-1.04906e-05
-0.000117158
-5.97716e-07
-0.000125331
1.80795e-05
-0.000150565
4.70386e-05
-0.000196238
7.44689e-05
-0.000216279
9.16542e-05
-0.000209158
9.6431e-05
-0.000190211
8.73649e-05
-0.0001695
5.75507e-05
-0.000145202
-0.000106951
2.79483e-05
-9.69746e-05
9.54932e-05
-0.000103699
8.96857e-05
-0.000108889
8.37392e-05
-0.000110278
7.48582e-05
-0.000107457
6.22426e-05
-0.000102594
4.7796e-05
-9.64385e-05
3.4288e-05
-8.7513e-05
2.20743e-05
-7.47774e-05
1.2183e-05
-5.8307e-05
5.59274e-06
-4.13391e-05
3.26692e-06
-2.86216e-05
4.37773e-06
-2.22632e-05
8.18531e-06
-1.81364e-05
1.4247e-05
-1.43265e-05
2.29922e-05
-1.13638e-05
3.67056e-05
-1.02563e-05
5.85054e-05
-1.169e-05
9.41053e-05
-1.32406e-05
0.00013456
-1.41911e-05
0.000149891
-1.56533e-05
0.000136837
-1.78069e-05
0.00010772
-2.01735e-05
8.00273e-05
-2.21727e-05
5.87949e-05
-2.28424e-05
4.41885e-05
-2.34019e-05
3.51734e-05
-2.3887e-05
3.09555e-05
-2.42194e-05
2.92982e-05
-2.43969e-05
2.82985e-05
-2.43966e-05
2.72696e-05
-2.4251e-05
2.62953e-05
-2.43299e-05
2.54692e-05
-2.44243e-05
2.5064e-05
-2.486e-05
2.49336e-05
-2.52822e-05
2.52154e-05
-2.54486e-05
2.56266e-05
-2.50058e-05
2.61891e-05
-2.37076e-05
2.67926e-05
-2.14922e-05
2.74223e-05
-1.84376e-05
2.80372e-05
-1.47424e-05
2.85873e-05
-1.06543e-05
2.90882e-05
-6.51098e-06
2.96777e-05
-2.50264e-06
3.03665e-05
1.34159e-06
3.1558e-05
4.74849e-06
3.40541e-05
8.15862e-06
3.85231e-05
1.15929e-05
4.4128e-05
1.49296e-05
4.92489e-05
1.81313e-05
5.34602e-05
2.10975e-05
5.65496e-05
2.3563e-05
5.73933e-05
2.53549e-05
5.6146e-05
2.62907e-05
5.31724e-05
2.65023e-05
4.96502e-05
2.62523e-05
4.73538e-05
2.47808e-05
4.40228e-05
2.28353e-05
3.78463e-05
2.20358e-05
2.75562e-05
2.05156e-05
1.01266e-05
2.06827e-05
-3.0203e-06
2.27216e-05
-1.33442e-05
2.5213e-05
-2.27834e-05
3.34587e-05
-3.23077e-05
4.50784e-05
-4.66932e-05
5.65235e-05
-6.19046e-05
6.72626e-05
-7.61497e-05
7.60929e-05
-8.90716e-05
8.11359e-05
-9.71162e-05
8.20182e-05
-9.72231e-05
7.7065e-05
-9.05002e-05
6.2039e-05
-7.71069e-05
3.9158e-05
-5.58565e-05
1.94277e-05
-2.97562e-05
1.3174e-05
-1.29326e-05
1.25346e-05
-1.55965e-05
1.39135e-05
-2.19199e-05
2.42896e-05
-4.22799e-05
3.92434e-05
-9.27653e-05
5.40635e-05
-0.000150529
6.48892e-05
-0.000183076
7.29878e-05
-0.000183473
8.1735e-05
-0.000164848
9.18918e-05
-0.000136371
9.81571e-05
-9.51922e-05
9.92662e-05
-4.79209e-05
9.46198e-05
1.39633e-06
9.5952e-05
3.84186e-05
0.000108522
6.77248e-05
0.000120563
9.74974e-05
0.000122967
0.000123162
0.000120064
0.000142881
0.000111211
0.000157147
9.80881e-05
0.000162894
7.94417e-05
0.00016777
5.49536e-05
0.00017299
2.93733e-05
0.000177433
1.16671e-05
0.000167377
6.65273e-06
0.000134713
6.13744e-06
7.71441e-05
1.29444e-06
4.87735e-06
-4.96844e-06
-6.89874e-05
-9.06821e-06
-0.000119542
-5.64309e-06
-0.000121464
1.50708e-06
-0.000125459
1.84875e-05
-0.000142953
4.61484e-05
-0.000185236
7.39975e-05
-0.000209397
9.20791e-05
-0.000205723
9.77987e-05
-0.000188333
9.06272e-05
-0.000168237
6.35182e-05
-0.000146903
-0.000112445
3.21211e-05
-9.70589e-05
0.000112191
-0.00010393
0.000106483
-0.000109923
9.96436e-05
-0.000112879
8.98525e-05
-0.000112046
7.58792e-05
-0.000110058
6.02302e-05
-0.000107276
4.57721e-05
-0.000102001
3.26194e-05
-9.32032e-05
2.17779e-05
-7.9583e-05
1.36329e-05
-6.01179e-05
8.59079e-06
-4.0502e-05
7.38745e-06
-3.1863e-05
9.72985e-06
-2.7789e-05
1.65318e-05
-2.44637e-05
2.54254e-05
-2.20827e-05
3.91627e-05
-2.21799e-05
6.17405e-05
-2.66877e-05
9.78624e-05
-2.86332e-05
0.000136109
-2.90471e-05
0.000152482
-2.90199e-05
0.00014658
-2.95997e-05
0.000123036
-3.06117e-05
9.72563e-05
-3.05894e-05
7.25727e-05
-2.8385e-05
5.10287e-05
-2.78878e-05
3.78889e-05
-2.8225e-05
3.25993e-05
-2.84625e-05
3.04088e-05
-2.83063e-05
2.87212e-05
-2.78089e-05
2.71485e-05
-2.71724e-05
2.55527e-05
-2.64719e-05
2.44211e-05
-2.60909e-05
2.35364e-05
-2.58262e-05
2.32937e-05
-2.5989e-05
2.32794e-05
-2.58358e-05
2.34275e-05
-2.53957e-05
2.36318e-05
-2.41312e-05
2.38566e-05
-2.20679e-05
2.42337e-05
-1.92528e-05
2.47111e-05
-1.58892e-05
2.52991e-05
-1.21814e-05
2.60247e-05
-8.37932e-06
2.71438e-05
-4.80708e-06
2.86146e-05
-1.58634e-06
3.06256e-05
1.4068e-06
3.4194e-05
4.51538e-06
3.91984e-05
7.85687e-06
4.46484e-05
1.13018e-05
4.97289e-05
1.46722e-05
5.38962e-05
1.78283e-05
5.65202e-05
2.05002e-05
5.69428e-05
2.24469e-05
5.53912e-05
2.35673e-05
5.25948e-05
2.37983e-05
5.02165e-05
2.29882e-05
4.7946e-05
2.10858e-05
4.32358e-05
1.96765e-05
3.52456e-05
1.95774e-05
2.01209e-05
1.88557e-05
2.55078e-06
2.02186e-05
-8.12773e-06
2.26064e-05
-1.7875e-05
2.55994e-05
-2.64689e-05
3.45651e-05
-3.73392e-05
4.54412e-05
-5.22989e-05
5.71658e-05
-6.71891e-05
6.88841e-05
-8.10008e-05
7.90639e-05
-9.32293e-05
8.42093e-05
-9.99091e-05
8.53439e-05
-9.92746e-05
8.15979e-05
-9.22006e-05
6.75064e-05
-7.7292e-05
4.40936e-05
-5.62152e-05
2.28958e-05
-3.25717e-05
1.60068e-05
-1.71564e-05
1.57993e-05
-1.94257e-05
1.77932e-05
-2.55534e-05
3.20159e-05
-4.52168e-05
5.47109e-05
-9.90415e-05
7.2929e-05
-0.00015893
8.09009e-05
-0.000189438
8.47402e-05
-0.000187664
9.09057e-05
-0.000168499
9.89018e-05
-0.000139439
0.0001007
-9.45426e-05
9.90479e-05
-4.63399e-05
9.46777e-05
4.39758e-07
9.54615e-05
3.70834e-05
0.000101452
6.48496e-05
0.000117481
9.29934e-05
0.000123105
0.00012175
0.000122679
0.000142844
0.000117103
0.000159113
0.000103118
0.000167983
8.4741e-05
0.00017151
6.11869e-05
0.000175553
3.73873e-05
0.00017859
2.07195e-05
0.00017284
1.78704e-05
0.000143697
2.05199e-05
9.04392e-05
1.95124e-05
2.00923e-05
1.22812e-05
-5.25589e-05
4.02184e-06
-0.000111842
-1.40909e-07
-0.000126488
4.04913e-06
-0.000124677
1.86551e-05
-0.000136505
4.63608e-05
-0.000175908
7.41287e-05
-0.000200964
9.25257e-05
-0.0001992
9.85371e-05
-0.000182775
9.28433e-05
-0.000163026
6.8847e-05
-0.000143754
-0.000113977
3.70962e-05
-9.47042e-05
0.000127175
-0.000101177
0.000121075
-0.000107611
0.000113931
-0.000111853
0.000103418
-0.000113099
8.85431e-05
-0.000113809
7.1865e-05
-0.000113587
5.67749e-05
-0.000111207
4.32102e-05
-0.000106759
3.23019e-05
-9.8443e-05
2.37113e-05
-8.1764e-05
1.74048e-05
-5.73373e-05
1.32083e-05
-4.23715e-05
1.19442e-05
-3.81276e-05
1.87879e-05
-3.55982e-05
2.79592e-05
-3.44241e-05
4.19607e-05
-3.61599e-05
6.60012e-05
-4.28412e-05
0.000102794
-4.53909e-05
0.00013946
-4.5146e-05
0.000155977
-4.4781e-05
0.00015549
-4.4218e-05
0.00013775
-4.28822e-05
0.000112403
-3.88421e-05
8.31287e-05
-3.30164e-05
5.52869e-05
-3.22089e-05
3.99984e-05
-3.25745e-05
3.41628e-05
-3.25929e-05
3.11994e-05
-3.20758e-05
2.87391e-05
-3.10294e-05
2.64784e-05
-2.96028e-05
2.43133e-05
-2.8053e-05
2.26772e-05
-2.67903e-05
2.16765e-05
-2.63132e-05
2.16326e-05
-2.6041e-05
2.18935e-05
-2.64113e-05
2.20703e-05
-2.59899e-05
2.21231e-05
-2.48388e-05
2.19587e-05
-2.28141e-05
2.21295e-05
-2.01852e-05
2.2596e-05
-1.71289e-05
2.33434e-05
-1.3973e-05
2.45288e-05
-1.07714e-05
2.61832e-05
-7.48579e-06
2.85589e-05
-4.36979e-06
3.18048e-05
-1.33635e-06
3.6329e-05
1.51895e-06
4.14537e-05
4.66654e-06
4.62123e-05
8.05286e-06
5.06553e-05
1.15293e-05
5.43349e-05
1.48605e-05
5.64556e-05
1.77145e-05
5.65681e-05
1.97976e-05
5.49583e-05
2.0989e-05
5.25858e-05
2.1028e-05
5.09799e-05
1.97755e-05
4.7873e-05
1.79058e-05
4.17887e-05
1.745e-05
3.03112e-05
1.7323e-05
1.04907e-05
1.80661e-05
-3.37353e-06
2.0016e-05
-1.28131e-05
2.21508e-05
-2.19198e-05
2.63888e-05
-3.03319e-05
3.49497e-05
-4.24627e-05
4.54947e-05
-5.73836e-05
5.80598e-05
-7.14591e-05
7.07145e-05
-8.43608e-05
8.11286e-05
-9.61933e-05
8.60985e-05
-0.000101757
8.67261e-05
-9.9733e-05
8.26568e-05
-9.16548e-05
6.9243e-05
-7.54402e-05
4.69137e-05
-5.47235e-05
2.58791e-05
-3.45802e-05
1.87956e-05
-2.16066e-05
1.88014e-05
-2.37284e-05
2.11093e-05
-2.98812e-05
4.14871e-05
-5.32289e-05
7.14993e-05
-0.000112284
9.03039e-05
-0.000168364
9.50068e-05
-0.000195097
9.4802e-05
-0.000192319
9.80605e-05
-0.000172864
0.000102998
-0.000143141
9.85357e-05
-9.37264e-05
9.45992e-05
-4.48495e-05
9.18422e-05
-1.36297e-06
9.22578e-05
3.44495e-05
9.43359e-05
6.28434e-05
0.000108069
8.64206e-05
0.000121007
0.000115911
0.000122665
0.000141878
0.000119617
0.000159388
0.000108053
0.000171646
8.82298e-05
0.000176375
6.38161e-05
0.000178207
3.95772e-05
0.000178364
2.49431e-05
0.000171501
2.36175e-05
0.000146346
2.97394e-05
9.81231e-05
2.99071e-05
3.3435e-05
2.53522e-05
-3.70049e-05
1.54979e-05
-9.82148e-05
6.79113e-06
-0.000127299
7.65957e-06
-0.000122549
1.89575e-05
-0.00013189
4.72984e-05
-0.000166332
7.47882e-05
-0.000192929
9.28321e-05
-0.00019151
9.88572e-05
-0.000174978
9.41789e-05
-0.000155023
7.27388e-05
-0.000136134
-0.000109496
4.19449e-05
-8.97403e-05
0.000141505
-9.53236e-05
0.000133081
-0.000102211
0.000126017
-0.000107765
0.000115345
-0.000111219
9.98139e-05
-0.000114283
8.26536e-05
-0.000116217
6.70347e-05
-0.000115833
5.31174e-05
-0.00011549
4.28313e-05
-0.000113266
3.46159e-05
-0.000102516
2.84009e-05
-7.91201e-05
2.25551e-05
-5.5358e-05
1.75347e-05
-4.92863e-05
2.056e-05
-4.74879e-05
3.0148e-05
-4.82837e-05
4.39466e-05
-5.33384e-05
7.01345e-05
-6.10872e-05
0.000109335
-6.35656e-05
0.000142715
-6.29285e-05
0.000159148
-6.27458e-05
0.000161972
-6.05179e-05
0.000148356
-5.4851e-05
0.00012143
-4.55388e-05
8.83586e-05
-3.75148e-05
5.71295e-05
-3.64651e-05
4.16322e-05
-3.66013e-05
3.53301e-05
-3.62906e-05
3.15716e-05
-3.50936e-05
2.80362e-05
-3.31059e-05
2.49513e-05
-3.05256e-05
2.2139e-05
-2.8264e-05
2.05276e-05
-2.70459e-05
2.05387e-05
-2.69407e-05
2.16931e-05
-2.87756e-05
2.41439e-05
-2.96636e-05
2.50237e-05
-2.92563e-05
2.46427e-05
-2.70667e-05
2.36952e-05
-2.40434e-05
2.36598e-05
-2.06154e-05
2.37737e-05
-1.7447e-05
2.43118e-05
-1.45027e-05
2.54034e-05
-1.17975e-05
2.68418e-05
-9.38443e-06
2.89884e-05
-6.84084e-06
3.23565e-05
-3.99097e-06
3.75825e-05
-8.39034e-07
4.33349e-05
2.2132e-06
4.84112e-05
5.48615e-06
5.24127e-05
8.90102e-06
5.5377e-05
1.2266e-05
5.68199e-05
1.52047e-05
5.66021e-05
1.73558e-05
5.50285e-05
1.84947e-05
5.31992e-05
1.83769e-05
5.16063e-05
1.69749e-05
4.74498e-05
1.55362e-05
3.98338e-05
1.57494e-05
2.26072e-05
1.62213e-05
2.5479e-06
1.7714e-05
-8.40263e-06
1.99249e-05
-1.7188e-05
2.18975e-05
-2.53342e-05
2.70352e-05
-3.39891e-05
3.46048e-05
-4.74031e-05
4.43594e-05
-6.10174e-05
5.72443e-05
-7.16475e-05
7.08077e-05
-8.58841e-05
8.16024e-05
-9.80486e-05
8.58458e-05
-0.000101565
8.58243e-05
-9.77954e-05
7.93119e-05
-8.70147e-05
6.52216e-05
-6.94155e-05
4.59027e-05
-5.05499e-05
2.734e-05
-3.51339e-05
2.10476e-05
-2.52806e-05
2.14243e-05
-2.81508e-05
2.51471e-05
-3.52606e-05
5.22747e-05
-6.56002e-05
8.52658e-05
-0.000122707
0.000103348
-0.000173209
0.000106143
-0.000199638
0.000103667
-0.000197962
0.000103848
-0.000178269
0.000104722
-0.000146686
9.43767e-05
-9.2531e-05
8.98363e-05
-4.44658e-05
8.80214e-05
-4.06213e-06
8.87822e-05
3.09535e-05
9.09218e-05
5.99632e-05
9.77423e-05
8.24107e-05
0.00011384
0.000108031
0.00012031
0.000137808
0.000118585
0.000159096
0.00011058
0.000172759
8.99442e-05
0.00018163
6.27204e-05
0.000182636
3.68944e-05
0.000178196
2.24368e-05
0.000168554
2.17044e-05
0.000142512
2.92194e-05
9.85885e-05
3.31079e-05
4.06391e-05
3.14179e-05
-2.32958e-05
2.5157e-05
-8.51069e-05
1.36433e-05
-0.000121564
1.18266e-05
-0.000119082
1.98379e-05
-0.000128476
4.78481e-05
-0.000157037
7.54003e-05
-0.000186208
9.28463e-05
-0.000184327
9.84752e-05
-0.000166804
9.3762e-05
-0.000146373
7.3254e-05
-0.000126631
-9.99412e-05
4.45603e-05
-8.35436e-05
0.000162177
-8.68739e-05
0.000143405
-9.36857e-05
0.000135717
-0.000100727
0.000125339
-0.000106722
0.000109899
-0.000112193
9.30044e-05
-0.000115823
7.64807e-05
-0.00011646
6.12939e-05
-0.000119762
5.17773e-05
-0.000123147
4.51123e-05
-0.000120433
3.95028e-05
-0.000102836
3.50965e-05
-7.26078e-05
2.83665e-05
-6.0929e-05
2.22019e-05
-5.923e-05
3.14508e-05
-6.20531e-05
4.45102e-05
-7.21879e-05
7.07386e-05
-8.14273e-05
0.000111459
-8.25284e-05
0.000142979
-8.08898e-05
0.000159502
-7.97978e-05
0.000164102
-7.46878e-05
0.00015268
-6.43085e-05
0.000124656
-5.08903e-05
8.89503e-05
-4.14265e-05
5.69593e-05
-4.01841e-05
4.2391e-05
-4.00231e-05
3.59652e-05
-3.88585e-05
3.10876e-05
-3.67072e-05
2.64082e-05
-3.40276e-05
2.28575e-05
-3.22976e-05
2.09583e-05
-3.32323e-05
2.22898e-05
-3.95387e-05
2.93635e-05
-4.95804e-05
3.99213e-05
-5.63678e-05
4.40391e-05
-5.89194e-05
4.25503e-05
-5.46933e-05
3.86619e-05
-4.6703e-05
3.55111e-05
-3.65245e-05
3.49007e-05
-2.58073e-05
3.48949e-05
-1.78586e-05
3.59132e-05
-1.3089e-05
3.61333e-05
-1.06192e-05
3.45539e-05
-9.22061e-06
3.37379e-05
-7.79252e-06
3.50053e-05
-5.86346e-06
3.87896e-05
-3.12368e-06
4.40996e-05
5.67373e-08
4.97037e-05
3.37754e-06
5.3959e-05
6.74096e-06
5.67482e-05
1.00239e-05
5.77026e-05
1.29283e-05
5.71263e-05
1.51018e-05
5.55989e-05
1.62178e-05
5.42375e-05
1.61529e-05
5.19978e-05
1.49913e-05
4.70434e-05
1.4194e-05
3.66915e-05
1.46161e-05
1.4113e-05
1.5848e-05
-3.16527e-06
1.757e-05
-1.25338e-05
1.96115e-05
-2.09735e-05
2.1938e-05
-2.81811e-05
2.77487e-05
-3.78537e-05
3.46798e-05
-5.23965e-05
4.31484e-05
-6.39128e-05
5.55679e-05
-7.51373e-05
7.05016e-05
-9.07643e-05
8.06139e-05
-0.000100992
8.34038e-05
-0.000100511
8.17358e-05
-9.43522e-05
7.02443e-05
-7.8685e-05
5.7268e-05
-6.0448e-05
4.28516e-05
-4.57717e-05
2.78663e-05
-3.53413e-05
2.26225e-05
-2.80425e-05
2.34637e-05
-3.23287e-05
2.9975e-05
-4.15428e-05
6.15094e-05
-7.57089e-05
9.37735e-05
-0.000127734
0.00011281
-0.000176253
0.000116291
-0.00020335
0.000112717
-0.000203628
0.000110024
-0.00018357
0.000105846
-0.000149831
9.05384e-05
-9.18274e-05
8.59887e-05
-4.46403e-05
8.52271e-05
-7.42966e-06
8.59146e-05
2.71593e-05
8.78756e-05
5.70368e-05
9.08573e-05
8.06717e-05
0.000103477
0.000102609
0.000114053
0.000131004
0.000114781
0.000156635
0.000108728
0.000172715
8.98481e-05
0.000185226
5.83984e-05
0.000189744
2.98641e-05
0.000180775
1.37785e-05
0.00016649
1.35925e-05
0.000138275
2.185e-05
9.61407e-05
2.90195e-05
4.36176e-05
3.18855e-05
-1.3055e-05
3.04099e-05
-7.43769e-05
1.92071e-05
-0.00011377
1.57672e-05
-0.000114269
2.11473e-05
-0.00012443
4.85711e-05
-0.000148397
7.59987e-05
-0.000180377
9.22882e-05
-0.000177601
9.71788e-05
-0.000158632
9.18431e-05
-0.000137477
7.11955e-05
-0.000116794
-8.93867e-05
4.48769e-05
-7.89797e-05
0.000188058
-7.66118e-05
0.000155995
-8.22771e-05
0.000143819
-9.04285e-05
0.000133346
-9.91916e-05
0.000119044
-0.000107904
0.000102795
-0.000113317
8.61887e-05
-0.00011299
6.91824e-05
-0.000118917
5.70087e-05
-0.000127592
5.15554e-05
-0.000132657
4.83205e-05
-0.000124831
4.54851e-05
-9.75038e-05
3.97007e-05
-7.24431e-05
2.98519e-05
-7.04873e-05
3.20243e-05
-7.40669e-05
4.37474e-05
-8.79608e-05
6.76927e-05
-9.9029e-05
0.000108528
-0.000100116
0.000139476
-9.78681e-05
0.000156266
-9.53526e-05
0.00016244
-8.6979e-05
0.000152227
-7.22254e-05
0.000123067
-5.29429e-05
8.44879e-05
-4.44154e-05
5.43803e-05
-4.33829e-05
4.25567e-05
-4.24769e-05
3.57703e-05
-4.0786e-05
2.99693e-05
-3.96652e-05
2.55587e-05
-4.07815e-05
2.41675e-05
-5.16791e-05
3.19229e-05
-7.67403e-05
4.80669e-05
-0.000109328
6.69962e-05
-0.000131367
7.32155e-05
-0.000137851
6.24525e-05
-0.000129309
4.77466e-05
-0.00011117
3.67734e-05
-8.7812e-05
3.11838e-05
-6.16754e-05
3.18004e-05
-3.86629e-05
3.9151e-05
-2.15563e-05
4.77415e-05
-1.19114e-05
5.41875e-05
-9.13445e-06
5.4244e-05
-7.72411e-06
4.92336e-05
-7.54469e-06
4.47949e-05
-6.94299e-06
4.326e-05
-4.99921e-06
4.57202e-05
-1.99644e-06
5.01419e-05
1.19022e-06
5.44646e-05
4.62325e-06
5.74599e-05
7.91529e-06
5.85268e-05
1.07976e-05
5.78877e-05
1.30217e-05
5.6521e-05
1.43022e-05
5.52418e-05
1.45516e-05
5.22879e-05
1.39921e-05
4.67138e-05
1.38312e-05
3.24065e-05
1.44678e-05
7.12881e-06
1.58466e-05
-7.5695e-06
1.75558e-05
-1.59987e-05
1.90602e-05
-2.38024e-05
2.20855e-05
-3.03039e-05
2.81692e-05
-4.20233e-05
3.46178e-05
-5.66502e-05
4.1798e-05
-6.84412e-05
5.53259e-05
-8.24041e-05
7.01931e-05
-9.90362e-05
7.92586e-05
-0.00010533
8.11307e-05
-0.00010024
7.58734e-05
-9.06459e-05
5.92744e-05
-6.90606e-05
4.97747e-05
-5.18695e-05
4.02025e-05
-4.13951e-05
2.84072e-05
-3.50891e-05
2.3844e-05
-2.99732e-05
2.45765e-05
-3.55192e-05
3.44586e-05
-4.68522e-05
6.64119e-05
-8.13419e-05
9.83014e-05
-0.000128889
0.000120627
-0.000175248
0.000126949
-0.000203761
0.000122852
-0.000207355
0.000117722
-0.000187611
0.000108247
-0.000152145
8.82886e-05
-9.17171e-05
8.30971e-05
-4.52988e-05
8.30993e-05
-1.07585e-05
8.37584e-05
2.34703e-05
8.50757e-05
5.43239e-05
8.6596e-05
7.96246e-05
9.33748e-05
0.000100125
0.000105153
0.000126316
0.000108172
0.000153673
0.000102834
0.000172384
8.55171e-05
0.000186606
5.15169e-05
0.000195401
1.88866e-05
0.000185942
2.39253e-06
0.000165872
2.96251e-06
0.000134355
1.18593e-05
9.32464e-05
2.17153e-05
4.55907e-05
2.85332e-05
-6.35382e-06
3.18347e-05
-6.70533e-05
2.25816e-05
-0.000106757
1.84506e-05
-0.00010887
2.22888e-05
-0.000119289
4.87255e-05
-0.000139786
7.62506e-05
-0.000174498
9.10729e-05
-0.000170696
9.51112e-05
-0.000150136
8.85919e-05
-0.00012873
6.68556e-05
-0.000106926
-8.06018e-05
4.37779e-05
-7.67004e-05
0.000210833
-6.58399e-05
0.000178227
-6.86063e-05
0.000151901
-7.67331e-05
0.000140083
-8.79972e-05
0.000127347
-0.000100421
0.000112156
-0.000109433
9.62826e-05
-0.000109079
7.85342e-05
-0.000113207
6.03637e-05
-0.000125067
5.40813e-05
-0.000138297
5.0642e-05
-0.000141323
5.18558e-05
-0.000124318
5.17886e-05
-8.94087e-05
4.33258e-05
-8.00922e-05
3.17286e-05
-8.25231e-05
4.11541e-05
-9.8317e-05
5.7952e-05
-0.000113649
9.63873e-05
-0.000115585
0.000129243
-0.000112398
0.000147784
-0.000108004
0.000155603
-9.53863e-05
0.000145697
-7.40202e-05
0.00011317
-5.26681e-05
7.42947e-05
-4.72746e-05
5.16712e-05
-4.62242e-05
4.21865e-05
-4.50919e-05
3.52787e-05
-4.55896e-05
3.047e-05
-5.35659e-05
3.20595e-05
-8.25098e-05
4.67165e-05
-0.000139594
7.36119e-05
-0.000194788
9.69019e-05
-0.000225062
9.39881e-05
-0.00022183
7.11701e-05
-0.000202417
4.03531e-05
-0.000169608
1.37153e-05
-0.0001319
3.03645e-06
-9.65254e-05
7.56569e-07
-6.9103e-05
5.32126e-06
-4.15922e-05
1.82821e-05
-2.10854e-05
3.86002e-05
-9.95337e-06
5.87254e-05
-6.20711e-06
7.19008e-05
-6.13679e-06
6.91332e-05
-6.98333e-06
6.17825e-05
-7.14613e-06
5.50416e-05
-6.59077e-06
5.15066e-05
-4.47635e-06
5.18797e-05
-1.38956e-06
5.44709e-05
2.09336e-06
5.71851e-05
5.58325e-06
5.8534e-05
8.64455e-06
5.8338e-05
1.109e-05
5.72865e-05
1.27979e-05
5.58515e-05
1.36726e-05
5.24747e-05
1.38352e-05
4.59979e-05
1.432e-05
2.76448e-05
1.48712e-05
1.82671e-06
1.62424e-05
-1.10207e-05
1.78889e-05
-1.89385e-05
1.9053e-05
-2.57576e-05
2.24632e-05
-3.23982e-05
2.77691e-05
-4.56649e-05
3.292e-05
-5.99461e-05
4.0428e-05
-7.30882e-05
5.47946e-05
-9.03966e-05
7.06434e-05
-0.000104645
7.94338e-05
-0.000109052
8.20713e-05
-0.000101475
7.46682e-05
-9.023e-05
5.12972e-05
-6.73639e-05
4.35483e-05
-4.57618e-05
3.68633e-05
-3.77237e-05
2.77941e-05
-3.38023e-05
2.45245e-05
-3.09422e-05
2.49523e-05
-3.73959e-05
3.84395e-05
-4.9893e-05
6.71904e-05
-8.41093e-05
9.83216e-05
-0.000123446
0.000124586
-0.000166723
0.000136926
-0.00019897
0.00013384
-0.000207235
0.000126643
-0.000189182
0.000111933
-0.000153206
8.77179e-05
-9.17479e-05
8.16347e-05
-4.65997e-05
8.1931e-05
-1.38431e-05
8.27301e-05
1.98346e-05
8.28881e-05
5.2079e-05
8.30724e-05
7.93066e-05
8.59976e-05
0.000100406
9.60468e-05
0.000124419
9.98342e-05
0.000152256
9.43192e-05
0.000172822
7.59785e-05
0.000187529
4.0272e-05
0.000199458
4.91655e-06
0.000192331
-1.0154e-05
0.000165344
-8.35512e-06
0.000131732
8.05688e-07
9.21527e-05
1.28881e-05
4.64223e-05
2.33155e-05
-3.11133e-06
3.06275e-05
-6.33277e-05
2.39588e-05
-0.000100458
2.01625e-05
-0.000103327
2.30075e-05
-0.000114158
4.81889e-05
-0.000131327
7.57149e-05
-0.000167942
8.89018e-05
-0.000163133
9.18447e-05
-0.000141311
8.37949e-05
-0.000120126
6.12472e-05
-9.72469e-05
-7.3326e-05
4.16474e-05
-7.20466e-05
0.000224407
-5.88117e-05
0.000202233
-5.31765e-05
0.000171802
-5.99978e-05
0.000147377
-7.23976e-05
0.000134376
-8.84997e-05
0.000120667
-0.000103675
0.000106738
-0.000106965
8.93507e-05
-0.000106981
6.46967e-05
-0.000119021
5.33148e-05
-0.00013658
4.7382e-05
-0.000149407
5.24722e-05
-0.000146607
5.5614e-05
-0.000117405
5.5298e-05
-8.8116e-05
4.14809e-05
-8.7663e-05
3.73025e-05
-9.61064e-05
4.84762e-05
-0.000118231
7.22205e-05
-0.00012399
0.000107316
-0.000120563
0.000129131
-0.000114122
0.000139011
-9.5919e-05
0.000129365
-6.74362e-05
9.53496e-05
-5.22514e-05
6.4106e-05
-5.01355e-05
5.0682e-05
-4.94561e-05
4.22223e-05
-5.14946e-05
3.66949e-05
-6.66028e-05
4.10149e-05
-0.00011936
6.22223e-05
-0.000206832
9.63031e-05
-0.000277481
0.000118842
-0.000295562
0.000114161
-0.000272551
8.07606e-05
-0.000230063
3.53409e-05
-0.000162672
6.63236e-06
-9.5471e-05
-7.27111e-06
-6.16798e-05
-1.16587e-05
-4.49258e-05
-1.17868e-05
-3.13004e-05
-9.1821e-06
-2.80119e-05
-9.99176e-07
-1.70181e-05
1.8116e-05
-9.21776e-06
5.24171e-05
-6.3075e-06
7.58986e-05
-6.31474e-06
8.17204e-05
-7.16078e-06
7.72705e-05
-8.05741e-06
6.95823e-05
-8.13479e-06
6.20466e-05
-7.05561e-06
5.69498e-05
-4.46456e-06
5.54851e-05
-9.42985e-07
5.6435e-05
2.8121e-06
5.76103e-05
6.28833e-06
5.79156e-05
9.22296e-06
5.73464e-05
1.15857e-05
5.58921e-05
1.33074e-05
5.23245e-05
1.44247e-05
4.45623e-05
1.52771e-05
2.26091e-05
1.57781e-05
-2.27699e-06
1.70843e-05
-1.38228e-05
1.83806e-05
-2.11356e-05
1.93492e-05
-2.67779e-05
2.29998e-05
-3.38844e-05
2.6458e-05
-4.74721e-05
2.96848e-05
-6.11358e-05
3.75664e-05
-7.44607e-05
5.32873e-05