/*--------------------------------*- C++ -*----------------------------------*\
  =========                 |
  \\      /  F ield         | OpenFOAM: The Open Source CFD Toolbox
   \\    /   O peration     | Website:  https://openfoam.org
    \\  /    A nd           | Version:  10
     \\/     M anipulation  |
\*---------------------------------------------------------------------------*/
FoamFile
{
    format      ascii;
    class       volScalarField;
    location    "0.550758";
    object      rho;
}
// * * * * * * * * * * * * * * * * * * * * * * * * * * * * * * * * * * * * * //

dimensions      [1 -3 0 0 0 0 0];

internalField   nonuniform List<scalar> 
16320
(
0.338279
0.339134
0.350172
0.358182
0.357889
0.342814
0.32385
0.295456
0.275518
0.257783
0.23832
0.211346
0.196508
0.194456
0.201426
0.229641
0.345092
0.463853
0.478298
0.44462
0.35021
0.258175
0.198544
0.17587
0.171371
0.170093
0.169204
0.169336
0.1686
0.168239
0.16583
0.164602
0.16152
0.158594
0.155081
0.151711
0.148548
0.145971
0.143888
0.142182
0.140792
0.139615
0.138721
0.138362
0.138544
0.139449
0.141272
0.146925
0.159426
0.174626
0.192281
0.209792
0.225178
0.239395
0.24951
0.254303
0.259229
0.273126
0.290564
0.293841
0.280844
0.239935
0.2256
0.229662
0.278828
0.38083
0.461992
0.514891
0.545029
0.562147
0.571777
0.533166
0.392259
0.229833
0.157848
0.144275
0.163595
0.296224
0.52601
0.761391
0.904718
0.945611
0.941647
0.923372
0.878915
0.784939
0.764494
0.838938
0.866965
0.79906
0.7156
0.697817
0.687223
0.680138
0.717475
0.804568
0.857835
0.811289
0.620749
0.581932
0.546397
0.427545
0.353488
0.33711
0.366088
0.578391
0.793476
0.925597
0.98741
0.993311
0.959148
0.851626
0.70502
0.366927
0.371144
0.387535
0.397589
0.397932
0.383005
0.364609
0.338192
0.308566
0.278171
0.244941
0.214197
0.197114
0.192732
0.195696
0.209923
0.273356
0.415068
0.471729
0.452885
0.378943
0.284246
0.217071
0.181498
0.173126
0.170621
0.169377
0.16848
0.168028
0.166334
0.165675
0.162849
0.160945
0.15728
0.154021
0.150374
0.147275
0.144597
0.142423
0.140777
0.139643
0.138961
0.138749
0.138994
0.139751
0.141781
0.145826
0.157064
0.172264
0.188385
0.206628
0.223209
0.237307
0.249047
0.256319
0.261058
0.271311
0.290538
0.299568
0.296534
0.263547
0.224554
0.216954
0.225855
0.289088
0.385398
0.462285
0.515118
0.545758
0.561676
0.575312
0.557503
0.44938
0.267268
0.164644
0.147614
0.162114
0.272525
0.489522
0.72894
0.890408
0.94497
0.941462
0.919824
0.878407
0.793051
0.705811
0.720009
0.820831
0.80181
0.735163
0.689301
0.67209
0.662303
0.686066
0.758453
0.826483
0.840214
0.722103
0.657279
0.607988
0.495008
0.368245
0.326657
0.318105
0.4819
0.73002
0.883686
0.94924
0.952573
0.919012
0.80613
0.609247
0.392215
0.398584
0.417869
0.429123
0.430242
0.419455
0.409318
0.391622
0.36118
0.317024
0.264273
0.223916
0.201462
0.19618
0.19695
0.20556
0.244407
0.357095
0.457969
0.452455
0.392452
0.307472
0.2367
0.193598
0.17777
0.172494
0.170076
0.168437
0.167115
0.166323
0.164341
0.162982
0.159606
0.157318
0.153408
0.150458
0.147278
0.144688
0.142581
0.141061
0.140075
0.139581
0.139557
0.140098
0.141951
0.146821
0.155659
0.170034
0.186152
0.202489
0.220392
0.23568
0.248535
0.257665
0.263304
0.271244
0.289664
0.303786
0.30532
0.291414
0.239881
0.213313
0.210623
0.227345
0.308705
0.398692
0.469926
0.522278
0.558308
0.576936
0.589333
0.581058
0.491512
0.311852
0.175912
0.15041
0.15937
0.248752
0.456539
0.708623
0.88446
0.946014
0.940429
0.913649
0.868681
0.795795
0.6639
0.642767
0.7285
0.771892
0.744923
0.699159
0.663289
0.647077
0.661988
0.716756
0.79571
0.844983
0.820055
0.73318
0.669504
0.584916
0.421835
0.319786
0.295238
0.40542
0.648633
0.82758
0.909682
0.920063
0.89175
0.792236
0.590718
0.413388
0.419733
0.437179
0.449065
0.450902
0.444742
0.44279
0.435668
0.413751
0.371147
0.308475
0.243289
0.210239
0.202231
0.201453
0.208652
0.240446
0.32053
0.425346
0.448185
0.40216
0.330194
0.266439
0.221006
0.192905
0.176903
0.170713
0.16855
0.167119
0.165798
0.164481
0.162049
0.160346
0.156807
0.154573
0.150984
0.148296
0.145563
0.143409
0.141845
0.140861
0.140476
0.140762
0.141967
0.145101
0.151564
0.165387
0.182941
0.199951
0.216475
0.233502
0.247401
0.258712
0.266844
0.273279
0.288534
0.306145
0.312349
0.308354
0.271425
0.220231
0.206884
0.20887
0.241529
0.3337
0.419379
0.486203
0.544129
0.585198
0.601124
0.60759
0.590646
0.50263
0.330722
0.184178
0.150647
0.15589
0.228365
0.436828
0.695437
0.8816
0.950488
0.943185
0.906642
0.853422
0.780328
0.645876
0.603496
0.62016
0.719897
0.721444
0.702943
0.671281
0.638392
0.643309
0.683996
0.764016
0.830717
0.856987
0.817658
0.732715
0.644758
0.504874
0.328863
0.281126
0.357753
0.57727
0.766871
0.864449
0.887137
0.867752
0.785605
0.595857
0.430328
0.435012
0.448815
0.460992
0.462437
0.45889
0.463555
0.463334
0.450854
0.419434
0.363506
0.280309
0.222498
0.210994
0.209704
0.214641
0.245483
0.317774
0.402605
0.433543
0.408768
0.352251
0.297946
0.249103
0.207986
0.178589
0.171009
0.168589
0.167105
0.16601
0.164278
0.162993
0.160311
0.158423
0.154975
0.152614
0.149207
0.146832
0.144692
0.143313
0.142612
0.142807
0.144098
0.146467
0.151002
0.159173
0.174689
0.19343
0.211819
0.229087
0.245197
0.25845
0.268939
0.27748
0.288754
0.306876
0.318164
0.318548
0.30191
0.242467
0.209483
0.204162
0.211316
0.266416
0.358718
0.433251
0.498266
0.559956
0.599912
0.610771
0.611644
0.587536
0.498012
0.331748
0.185828
0.149261
0.152714
0.21751
0.429252
0.702895
0.890439
0.9538
0.941972
0.898462
0.827475
0.746174
0.627994
0.564346
0.555096
0.634324
0.68876
0.684823
0.675363
0.643565
0.632092
0.657658
0.724239
0.81072
0.852955
0.845519
0.770101
0.676201
0.560365
0.365961
0.275461
0.322987
0.52022
0.710166
0.817668
0.848719
0.83572
0.772838
0.602518
0.446658
0.445781
0.456365
0.466588
0.468396
0.467818
0.475729
0.477941
0.470616
0.453466
0.416119
0.333582
0.243249
0.220451
0.218794
0.225731
0.256395
0.325906
0.402006
0.427561
0.417525
0.376734
0.328672
0.273846
0.211959
0.178824
0.171133
0.168584
0.167093
0.166474
0.165185
0.164038
0.161688
0.160175
0.15802
0.15489
0.153542
0.150857
0.149269
0.148046
0.147887
0.149324
0.154323
0.160826
0.168542
0.179019
0.191798
0.206836
0.223708
0.2409
0.256463
0.269433
0.280096
0.290195
0.306182
0.321735
0.32626
0.320591
0.277637
0.220129
0.20416
0.203619
0.222189
0.30123
0.373242
0.437967
0.50222
0.567564
0.60728
0.615254
0.609692
0.574227
0.479483
0.322879
0.183875
0.146927
0.149864
0.217538
0.453149
0.725416
0.891094
0.946892
0.933665
0.887351
0.790666
0.684854
0.597692
0.531337
0.513777
0.534592
0.636146
0.663173
0.662003
0.65282
0.63042
0.643059
0.695434
0.779887
0.840061
0.841943
0.782843
0.68837
0.589579
0.41323
0.275481
0.299285
0.476404
0.665864
0.775438
0.809511
0.799816
0.745573
0.594537
0.462392
0.451398
0.46001
0.469084
0.470928
0.47307
0.482715
0.484705
0.477857
0.474088
0.455282
0.389805
0.282196
0.232179
0.227413
0.237072
0.275241
0.346392
0.409438
0.432341
0.432208
0.402975
0.35149
0.281666
0.21047
0.178214
0.170843
0.168722
0.167581
0.1679
0.167471
0.167114
0.16744
0.169014
0.170362
0.173421
0.1741
0.172537
0.16961
0.166255
0.163498
0.163252
0.165829
0.173246
0.185808
0.200676
0.213778
0.226553
0.239932
0.254539
0.268725
0.28145
0.292677
0.304684
0.322289
0.332304
0.332403
0.311037
0.246114
0.208861
0.202262
0.205841
0.250403
0.321393
0.371407
0.413934
0.486699
0.565829
0.608302
0.610486
0.591067
0.532622
0.433059
0.294722
0.175113
0.142999
0.148198
0.243032
0.486799
0.72027
0.869232
0.926299
0.917707
0.870368
0.747063
0.633899
0.564972
0.505818
0.485906
0.485779
0.55453
0.628479
0.644643
0.646233
0.639183
0.638395
0.675918
0.745452
0.80224
0.814606
0.765225
0.688714
0.604987
0.441516
0.278822
0.285061
0.439402
0.634337
0.742778
0.772792
0.761779
0.702923
0.550442
0.495032
0.457759
0.460389
0.468617
0.472084
0.478722
0.488372
0.485659
0.478345
0.482161
0.48026
0.441454
0.339281
0.249693
0.236313
0.245359
0.292939
0.374769
0.423923
0.439641
0.439634
0.413412
0.354709
0.280357
0.204483
0.176399
0.171156
0.169752
0.169429
0.17189
0.174543
0.181652
0.197643
0.231646
0.274665
0.299271
0.312606
0.30944
0.300392
0.275981
0.242241
0.213723
0.195353
0.191516
0.197205
0.212337
0.228309
0.244858
0.258519
0.271106
0.283028
0.294727
0.30603
0.319996
0.335181
0.340003
0.334129
0.28716
0.224731
0.204108
0.202468
0.213108
0.280302
0.330431
0.343856
0.387183
0.485323
0.57209
0.60353
0.595672
0.544109
0.455785
0.372482
0.262038
0.162791
0.139217
0.150298
0.276626
0.493223
0.701329
0.841996
0.902078
0.899086
0.850582
0.702089
0.591989
0.542028
0.489393
0.468464
0.460313
0.490409
0.572862
0.619945
0.630682
0.642522
0.644336
0.664538
0.717462
0.756304
0.759566
0.715959
0.669084
0.612864
0.457311
0.281386
0.276455
0.412137
0.613128
0.718686
0.743821
0.728839
0.659774
0.500382
0.561795
0.473107
0.461834
0.467187
0.472854
0.484735
0.496081
0.483228
0.467567
0.477321
0.487879
0.480728
0.406636
0.285147
0.24706
0.25027
0.299536
0.385643
0.431078
0.444331
0.443251
0.415673
0.35268
0.270045
0.192961
0.175193
0.172419
0.171778
0.174987
0.185791
0.207981
0.277009
0.410361
0.534258
0.613122
0.661231
0.668946
0.657569
0.624931
0.552555
0.472951
0.38565
0.305786
0.255328
0.227254
0.225318
0.237549
0.25525
0.272394
0.28664
0.298146
0.308573
0.319543
0.334115
0.344449
0.345973
0.328111
0.263416
0.214529
0.203525
0.204572
0.228403
0.299004
0.321333
0.33434
0.389758
0.504455
0.587639
0.602127
0.578063
0.467957
0.37813
0.320935
0.236713
0.15297
0.136229
0.156139
0.293302
0.486209
0.67541
0.812045
0.878881
0.880415
0.831102
0.666913
0.554504
0.520378
0.479209
0.456857
0.444631
0.453826
0.520082
0.58191
0.608915
0.631866
0.658625
0.669484
0.700858
0.721476
0.712134
0.677405
0.656226
0.618966
0.465321
0.282001
0.268619
0.390097
0.602319
0.703967
0.72181
0.700043
0.616622
0.456353
0.652042
0.522217
0.470126
0.46626
0.474827
0.491388
0.504705
0.489528
0.451843
0.455494
0.479838
0.495329
0.465952
0.351081
0.261149
0.253376
0.290746
0.381417
0.430443
0.442863
0.441046
0.410501
0.338552
0.243061
0.184988
0.176094
0.174903
0.178464
0.194571
0.244971
0.427693
0.660426
0.850305
0.962375
0.978585
0.948054
0.881598
0.783375
0.726187
0.695225
0.62495
0.547775
0.454145
0.361013
0.299808
0.263201
0.25436
0.264567
0.281152
0.297468
0.310851
0.321478
0.33254
0.344835
0.351647
0.350204
0.319429
0.246954
0.210571
0.205135
0.208933
0.254446
0.305818
0.313282
0.33611
0.426382
0.538647
0.604099
0.60591
0.566317
0.420269
0.316873
0.274254
0.207401
0.142831
0.134071
0.162892
0.296814
0.460188
0.629065
0.770572
0.853429
0.860068
0.809195
0.634795
0.527215
0.50126
0.47574
0.450863
0.435518
0.435401
0.481795
0.547657
0.586421
0.617861
0.66142
0.68231
0.693841
0.696451
0.677974
0.65782
0.654186
0.625281
0.467201
0.278502
0.262327
0.371788
0.596482
0.695773
0.704867
0.674868
0.576298
0.439281
0.749295
0.615443
0.507291
0.473444
0.477645
0.497313
0.522276
0.512987
0.450244
0.436659
0.452778
0.492561
0.499484
0.433109
0.298183
0.256552
0.265904
0.339794
0.404394
0.423
0.421744
0.387111
0.300455
0.205163
0.181876
0.178711
0.181222
0.202609
0.293871
0.570118
0.882389
1.07497
1.10804
1.04406
0.859186
0.569909
0.406237
0.364578
0.36346
0.431094
0.537666
0.552973
0.515386
0.447204
0.376539
0.325877
0.294931
0.284601
0.291314
0.306138
0.320081
0.332201
0.342888
0.353169
0.357557
0.352247
0.311154
0.23803
0.210622
0.208011
0.217859
0.277058
0.301975
0.309716
0.343528
0.445818
0.547758
0.609783
0.609845
0.566522
0.416273
0.282998
0.239591
0.177962
0.134707
0.132317
0.170078
0.28884
0.406272
0.560205
0.717741
0.822505
0.837031
0.786657
0.60805
0.508147
0.489374
0.475245
0.450596
0.432647
0.427029
0.459483
0.522247
0.567587
0.604474
0.66421
0.700399
0.696246
0.680839
0.661266
0.653814
0.660486
0.629312
0.451122
0.273735
0.259258
0.358064
0.594602
0.692346
0.692514
0.652535
0.536549
0.4357
0.830278
0.729852
0.604428
0.509729
0.489215
0.503863
0.533399
0.537198
0.471761
0.422382
0.426157
0.465786
0.504414
0.494536
0.383187
0.267822
0.252811
0.27622
0.337049
0.363618
0.365102
0.328632
0.242276
0.192589
0.184402
0.184859
0.205391
0.309533
0.623105
0.960278
1.09151
1.06189
0.867203
0.50327
0.261555
0.219265
0.209663
0.205411
0.20785
0.226991
0.315397
0.469422
0.509005
0.471216
0.427376
0.382409
0.346483
0.322542
0.313134
0.317217
0.329178
0.3408
0.351608
0.360196
0.362985
0.352809
0.304021
0.234877
0.212954
0.212176
0.234316
0.289126
0.297635
0.304872
0.342531
0.413517
0.496933
0.583945
0.604428
0.568561
0.429589
0.276781
0.216786
0.152654
0.130217
0.131178
0.175263
0.254741
0.332051
0.479054
0.658979
0.79031
0.811652
0.761426
0.577826
0.488913
0.479878
0.480719
0.456047
0.432856
0.423978
0.450201
0.509454
0.557174
0.599281
0.669263
0.71918
0.701337
0.674175
0.657308
0.659858
0.671014
0.628593
0.418826
0.269312
0.259176
0.348946
0.597685
0.697053
0.689117
0.631121
0.515049
0.439829
0.876919
0.832159
0.725636
0.614357
0.538981
0.52831
0.558608
0.577451
0.528283
0.427824
0.410563
0.425978
0.489774
0.517197
0.474777
0.331955
0.252003
0.247398
0.268002
0.285826
0.287485
0.26453
0.209753
0.191234
0.189214
0.202664
0.285218
0.582598
0.93728
1.0759
1.04213
0.785697
0.389886
0.25593
0.239247
0.237875
0.23047
0.219304
0.215524
0.221
0.25453
0.36529
0.462787
0.471437
0.444772
0.420773
0.391982
0.365887
0.347539
0.338879
0.340698
0.349913
0.359712
0.366593
0.36791
0.353399
0.297561
0.234595
0.2167
0.219168
0.25796
0.289164
0.290103
0.291489
0.301795
0.314512
0.378826
0.513678
0.586982
0.568212
0.456348
0.289957
0.195326
0.1423
0.129092
0.13151
0.176378
0.211854
0.261618
0.422976
0.625904
0.764186
0.785511
0.733016
0.550823
0.470113
0.473
0.49365
0.471104
0.440002
0.425881
0.447975
0.506526
0.555164
0.60443
0.68368
0.737011
0.703706
0.672455
0.661804
0.673076
0.68889
0.621276
0.387575
0.266308
0.260305
0.343059
0.603328
0.705571
0.687458
0.601531
0.5077
0.459129
0.909791
0.891546
0.833924
0.73881
0.646715
0.589745
0.590982
0.626372
0.602397
0.492917
0.411374
0.406463
0.447298
0.517087
0.527247
0.435266
0.289655
0.240291
0.237431
0.242033
0.242252
0.226341
0.200778
0.194927
0.200725
0.25395
0.486129
0.852044
1.07685
1.07658
0.888422
0.506882
0.372064
0.352716
0.352655
0.330175
0.264397
0.237839
0.232496
0.234821
0.250959
0.309452
0.406529
0.451579
0.452807
0.438793
0.424278
0.403649
0.382986
0.367789
0.360843
0.362678
0.369323
0.373974
0.372838
0.355705
0.291527
0.2349
0.222476
0.231876
0.275072
0.285192
0.279521
0.272308
0.264339
0.264627
0.288749
0.422818
0.556938
0.565147
0.489609
0.320525
0.190256
0.140383
0.129668
0.133194
0.160044
0.172855
0.232438
0.407985
0.618566
0.749438
0.760952
0.699089
0.520638
0.461024
0.473936
0.510258
0.490688
0.457122
0.437518
0.451939
0.509841
0.560418
0.620179
0.704858
0.74948
0.703822
0.67832
0.674912
0.69369
0.71152
0.601007
0.351251
0.262497
0.262951
0.342966
0.612696
0.716012
0.686012
0.579577
0.511724
0.477908
0.92236
0.92129
0.893444
0.838586
0.764437
0.689614
0.649855
0.659377
0.659461
0.588956
0.463171
0.400772
0.409745
0.487075
0.538665
0.517951
0.386122
0.261279
0.230065
0.22405
0.220635
0.211057
0.20292
0.202431
0.231797
0.366063
0.702064
1.03107
1.1285
1.06662
0.781803
0.553176
0.509703
0.513281
0.481178
0.38374
0.266909
0.239795
0.236108
0.242728
0.267836
0.311899
0.378779
0.427033
0.451039
0.452427
0.442111
0.429507
0.413438
0.396773
0.385042
0.380634
0.381646
0.382904
0.378784
0.355439
0.282915
0.236624
0.232871
0.25133
0.282507
0.279706
0.267915
0.257534
0.253249
0.252228
0.26273
0.351158
0.514467
0.560102
0.51355
0.358503
0.199941
0.142304
0.131909
0.134703
0.142983
0.156878
0.226473
0.408573
0.622238
0.738527
0.73757
0.656326
0.491162
0.457073
0.488783
0.53167
0.511877
0.477876
0.458281
0.467423
0.520357
0.574827
0.645637
0.728269
0.757881
0.709222
0.69447
0.697162
0.727093
0.735007
0.550355
0.305034
0.263571
0.267433
0.348044
0.624674
0.726652
0.682222
0.569152
0.52039
0.495691
0.846222
0.930742
0.91781
0.888693
0.846143
0.788861
0.73527
0.712683
0.720833
0.692571
0.583363
0.423889
0.394885
0.430558
0.529366
0.555639
0.485762
0.337802
0.24069
0.221829
0.215024
0.209872
0.20747
0.219207
0.283645
0.503464
0.886459
1.14845
1.18958
1.09496
0.818651
0.728458
0.70957
0.67004
0.58422
0.408909
0.265847
0.234936
0.233127
0.245428
0.280865
0.335741
0.386234
0.420493
0.444249
0.459464
0.458261
0.446792
0.432301
0.418124
0.405695
0.397542
0.393684
0.392489
0.383189
0.345192
0.270479
0.242141
0.245148
0.269434
0.277574
0.271046
0.258374
0.250543
0.247484
0.246686
0.254052
0.312451
0.473398
0.553443
0.52802
0.403749
0.226153
0.150172
0.135782
0.136232
0.140076
0.153016
0.232507
0.427066
0.641094
0.730322
0.714528
0.601274
0.469956
0.45857
0.514944
0.561787
0.537521
0.503128
0.485568
0.499553
0.543825
0.601232
0.677394
0.752064
0.764219
0.724898
0.717902
0.740545
0.765941
0.730926
0.451145
0.283228
0.267667
0.274376
0.357156
0.638754
0.736018
0.671621
0.562408
0.530007
0.514031
0.630252
0.866786
0.925452
0.908007
0.882186
0.850696
0.811659
0.775588
0.779011
0.768018
0.685523
0.49305
0.391427
0.395414
0.481238
0.559686
0.554353
0.433937
0.290371
0.228987
0.217464
0.214267
0.217033
0.248326
0.349204
0.643437
1.03147
1.23142
1.25326
1.14713
0.992544
0.968004
0.936969
0.837665
0.674096
0.445057
0.278292
0.226788
0.223119
0.234174
0.276434
0.342245
0.390235
0.422064
0.443995
0.459943
0.468706
0.461233
0.447982
0.433764
0.420727
0.411237
0.405564
0.399627
0.378639
0.316266
0.263492
0.255128
0.261478
0.277895
0.274973
0.263246
0.253888
0.249977
0.247884
0.246701
0.249046
0.277331
0.416651
0.534449
0.53073
0.445049
0.268744
0.163969
0.141601
0.138832
0.14068
0.153911
0.250684
0.466901
0.67146
0.722434
0.685847
0.539864
0.460127
0.468647
0.557037
0.589056
0.565006
0.535602
0.522107
0.538872
0.578038
0.636154
0.711425
0.774169
0.771878
0.751814
0.755817
0.789227
0.797987
0.653919
0.343952
0.280287
0.275728
0.286221
0.371892
0.652701
0.742205
0.656438
0.560158
0.539038
0.534031
0.447203
0.68066
0.879346
0.914637
0.896104
0.873523
0.851831
0.825162
0.817287
0.80345
0.739971
0.55306
0.398086
0.379802
0.421406
0.54124
0.580643
0.521719
0.375208
0.254604
0.228794
0.225486
0.235609
0.280617
0.416077
0.752921
1.12741
1.29819
1.32334
1.27584
1.22669
1.20991
1.14709
0.995118
0.770684
0.506884
0.311534
0.228696
0.220821
0.224641
0.243846
0.29585
0.364743
0.40783
0.436018
0.453978
0.466531
0.467925
0.457747
0.444843
0.432153
0.421495
0.412287
0.394414
0.346418
0.291149
0.266928
0.266045
0.274102
0.274917
0.268075
0.259098
0.255172
0.253097
0.251242
0.249782
0.249758
0.260475
0.351208
0.499531
0.529495
0.477522
0.323209
0.185763
0.149884
0.143604
0.144229
0.159752
0.287563
0.523988
0.695365
0.709395
0.640824
0.485682
0.457166
0.507714
0.60853
0.61948
0.598211
0.574879
0.565412
0.579263
0.614924
0.673467
0.745007
0.79652
0.786634
0.787721
0.812052
0.83229
0.781378
0.502465
0.302531
0.283835
0.289279
0.302596
0.389082
0.662891
0.742783
0.640235
0.559899
0.547985
0.551126
0.373929
0.494402
0.735996
0.880337
0.90075
0.883635
0.864371
0.845812
0.828872
0.806082
0.744395
0.558678
0.40055
0.368309
0.3869
0.489073
0.581863
0.579241
0.463853
0.315232
0.255735
0.248256
0.25661
0.309799
0.470288
0.824873
1.18987
1.35818
1.39354
1.38639
1.35679
1.33804
1.26566
1.10037
0.866414
0.590866
0.369608
0.246981
0.226011
0.227225
0.235745
0.255396
0.285607
0.338868
0.387873
0.423022
0.441679
0.453094
0.453108
0.443744
0.432064
0.417756
0.398121
0.356573
0.311117
0.28291
0.274588
0.274555
0.27675
0.272263
0.264774
0.26165
0.259608
0.258358
0.256712
0.254432
0.253142
0.25661
0.302748
0.454139
0.522767
0.495338
0.376815
0.21905
0.160765
0.149041
0.149257
0.171722
0.339585
0.582435
0.707377
0.69024
0.569775
0.456615
0.461965
0.570116
0.645545
0.646259
0.633839
0.616431
0.603689
0.617534
0.65528
0.712694
0.778065
0.811689
0.821111
0.839184
0.861054
0.839238
0.63984
0.348744
0.298884
0.296197
0.308903
0.319324
0.402907
0.666077
0.738721
0.636263
0.564073
0.558181
0.565858
0.348934
0.413881
0.587788
0.768488
0.865752
0.888272
0.87083
0.851414
0.829304
0.792434
0.688856
0.483729
0.376504
0.355587
0.369741
0.43557
0.567107
0.603872
0.53975
0.394292
0.289962
0.272746
0.277414
0.329938
0.490015
0.839027
1.2077
1.38939
1.43204
1.43265
1.40988
1.38218
1.31237
1.16685
0.957825
0.697389
0.477013
0.334836
0.281423
0.268638
0.268655
0.26574
0.27113
0.279227
0.299666
0.323361
0.361398
0.388846
0.401999
0.406898
0.397853
0.374739
0.34345
0.313323
0.292673
0.281578
0.278661
0.277633
0.274971
0.270924
0.268835
0.26783
0.269137
0.270112
0.268516
0.263568
0.258852
0.258186
0.278297
0.401653
0.506458
0.499971
0.419998
0.261065
0.174759
0.155616
0.156234
0.194009
0.404618
0.639751
0.707068
0.658756
0.500087
0.445668
0.487651
0.623552
0.668182
0.666455
0.660117
0.649153
0.641449
0.659785
0.696902
0.750991
0.804332
0.834987
0.863605
0.891168
0.877721
0.733813
0.416609
0.316101
0.308265
0.325507
0.332496
0.337875
0.411988
0.657392
0.733687
0.642467
0.571284
0.568527
0.579324
0.348424
0.401366
0.53358
0.692746
0.802926
0.878788
0.870992
0.848202
0.813347
0.733189
0.546362
0.384568
0.341968
0.344212
0.359971
0.404505
0.539894
0.609787
0.593104
0.477016
0.337071
0.298883
0.297363
0.339792
0.486254
0.820524
1.19223
1.37038
1.41825
1.41593
1.3845
1.35779
1.3099
1.21333
1.08228
0.90418
0.740573
0.634552
0.592408
0.585335
0.572645
0.539285
0.466961
0.381044
0.316346
0.295497
0.293335
0.300011
0.313219
0.320642
0.322058
0.310908
0.298319
0.288394
0.282199
0.279805
0.279485
0.278721
0.277958
0.278373
0.281313
0.289607
0.295221
0.292848
0.28585
0.273566
0.265182
0.262346
0.271815
0.359166
0.485429
0.50208
0.449536
0.306197
0.192119
0.163867
0.165706
0.237813
0.488345
0.686556
0.698233
0.605712
0.452358
0.442549
0.535646
0.6554
0.681908
0.681207
0.681203
0.67572
0.674917
0.697892
0.732577
0.780849
0.828648
0.871546
0.911232
0.901486
0.780069
0.468306
0.332795
0.323433
0.344374
0.358855
0.353864
0.353993
0.412905
0.636739
0.736297
0.670353
0.58268
0.577706
0.59266
0.355481
0.410638
0.538334
0.683588
0.787298
0.860454
0.846202
0.809204
0.72752
0.560663
0.376716
0.321333
0.319381
0.334963
0.354719
0.390475
0.511883
0.60723
0.621254
0.54451
0.402456
0.328834
0.319679
0.347069
0.472339
0.791438
1.14201
1.34913
1.37699
1.36642
1.3214
1.28418
1.24474
1.19807
1.14622
1.09442
1.04464
1.02998
1.05531
1.11923
1.16999
1.20665
1.15531
1.00734
0.781744
0.539268
0.359068
0.303671
0.291662
0.289565
0.289458
0.286715
0.283782
0.282459
0.282522
0.283486
0.28529
0.28897
0.297168
0.311802
0.326129
0.326359
0.318097
0.306858
0.294153
0.278662
0.269664
0.266204
0.27199
0.334281
0.466201
0.503282
0.468299
0.348916
0.214335
0.173413
0.178503
0.298502
0.572994
0.712917
0.68823
0.534434
0.431821
0.448876
0.593036
0.678501
0.688088
0.686636
0.689024
0.687357
0.69599
0.722383
0.75922
0.805805
0.855748
0.907186
0.908371
0.798234
0.499444
0.348889
0.337742
0.369717
0.398037
0.391799
0.373435
0.369024
0.406963
0.597268
0.739493
0.718879
0.602251
0.586681
0.607359
0.371292
0.438673
0.562867
0.685937
0.766641
0.808065
0.76632
0.674598
0.5143
0.355179
0.3045
0.296887
0.307356
0.330261
0.356555
0.391315
0.495391
0.602385
0.632818
0.592714
0.47346
0.36118
0.339259
0.351627
0.444877
0.714038
1.11554
1.29341
1.33992
1.31047
1.22285
1.12325
1.08721
1.06691
1.10922
1.17161
1.25467
1.34079
1.419
1.49161
1.55461
1.61017
1.61619
1.53771
1.3765
1.14523
0.844318
0.55277
0.370653
0.31558
0.298755
0.292722
0.290818
0.292158
0.295945
0.302769
0.319071
0.342393
0.363996
0.361716
0.353642
0.339304
0.323605
0.308655
0.295143
0.281653
0.273549
0.269882
0.274724
0.327596
0.451758
0.500939
0.477751
0.382398
0.238955
0.183819
0.196437
0.381013
0.648998
0.726296
0.664488
0.47768
0.417787
0.474962
0.634532
0.690117
0.690353
0.686074
0.687397
0.691603
0.706173
0.73512
0.773617
0.823797
0.876844
0.893123
0.792626
0.50733
0.36051
0.34944
0.400747
0.452246
0.454819
0.42353
0.392569
0.384651
0.403129
0.529415
0.724421
0.755009
0.644963
0.601066
0.618467
0.386883
0.466241
0.573917
0.663883
0.703749
0.676019
0.578958
0.435531
0.329843
0.29315
0.286134
0.289941
0.304188
0.337564
0.371415
0.408116
0.493533
0.595909
0.635314
0.621545
0.53918
0.409527
0.363246
0.360601
0.416048
0.611992
0.97734
1.26178
1.28797
1.25712
1.13261
0.93917
0.869598
0.856477
0.91741
1.07523
1.25959
1.42204
1.54642
1.62898
1.68964
1.73924
1.73111
1.64364
1.48727
1.31391
1.11717
0.902619
0.683301
0.5168
0.419215
0.373545
0.358474
0.363081
0.377522
0.400088
0.41216
0.405054
0.392364
0.370975
0.34692
0.33153
0.320285
0.310168
0.298742
0.286352
0.278954
0.275214
0.280121
0.330841
0.441543
0.495419
0.48123
0.409481
0.267411
0.196383
0.222761
0.473028
0.700167
0.727295
0.633967
0.44264
0.405306
0.49849
0.654534
0.694163
0.690395
0.68416
0.68448
0.692505
0.711785
0.743112
0.784629
0.830452
0.854149
0.764834
0.493183
0.361258
0.354225
0.420254
0.500471
0.518455
0.512276
0.464314
0.418702
0.401817
0.400002
0.461306
0.666673
0.766596
0.731294
0.632625
0.626444
0.391577
0.464687
0.535752
0.564115
0.549168
0.465861
0.370768
0.3099
0.287992
0.284111
0.285696
0.294031
0.319552
0.363294
0.394689
0.431531
0.507437
0.591142
0.632427
0.634308
0.583439
0.466212
0.384813
0.37156
0.396445
0.512568
0.809369
1.12032
1.23669
1.20279
1.10152
0.896479
0.731512
0.693661
0.70045
0.785094
0.988884
1.27765
1.51648
1.65736
1.73629
1.78344
1.77105
1.64433
1.41449
1.1982
1.08182
0.969119
0.831571
0.713841
0.618336
0.549141
0.515255
0.497215
0.480942
0.462826
0.433439
0.394329
0.365001
0.353287
0.345185
0.340593
0.336508
0.329925
0.318755
0.3043
0.293441
0.288055
0.291739
0.339327
0.434236
0.492127
0.483962
0.429646
0.296874
0.210536
0.257367
0.549535
0.726728
0.726889
0.619943
0.425195
0.388332
0.508022
0.662756
0.6935
0.689019
0.682195
0.68288
0.69469
0.715641
0.744206
0.776152
0.79504
0.711697
0.459822
0.349891
0.348607
0.418394
0.514406
0.542971
0.546352
0.540939
0.518219
0.471454
0.425812
0.412041
0.428269
0.5463
0.744708
0.781341
0.703526
0.643813
0.380796
0.414006
0.423193
0.411674
0.384791
0.335916
0.301571
0.290127
0.287153
0.292171
0.306554
0.324574
0.358552
0.395637
0.422518
0.457909
0.525765
0.592352
0.626118
0.63603
0.609375
0.525077
0.419732
0.388326
0.389785
0.446979
0.620537
0.929619
1.12432
1.13629
1.06478
0.896701
0.722873
0.611975
0.575416
0.579659
0.626736
0.781835
1.12028
1.49152
1.69905
1.77939
1.78317
1.60525
1.24727
0.983078
0.908555
0.889433
0.837578
0.757182
0.684014
0.618109
0.570846
0.527517
0.480704
0.425506
0.380934
0.364246
0.366891
0.379809
0.396118
0.403646
0.401297
0.39188
0.374932
0.350469
0.329096
0.316082
0.313943
0.348384
0.427268
0.486209
0.484944
0.444661
0.327489
0.225433
0.293423
0.596056
0.737774
0.727548
0.615222
0.419445
0.363719
0.489789
0.657197
0.69015
0.687099
0.682204
0.683209
0.694058
0.709162
0.725292
0.726198
0.638978
0.415577
0.330688
0.336102
0.406481
0.510474
0.542457
0.549077
0.549189
0.545367
0.536301
0.517146
0.475762
0.42987
0.418332
0.454349
0.640882
0.782101
0.783728
0.696364
0.347688
0.351848
0.348598
0.334441
0.318086
0.301394
0.295522
0.295164
0.304176
0.316168
0.332494
0.356002
0.396014
0.43046
0.453013
0.483511
0.540975
0.592758
0.618565
0.629
0.619674
0.566335
0.459732
0.404026
0.392345
0.414304
0.500535
0.695431
0.939641
1.02556
0.997002
0.887393
0.738441
0.625625
0.549437
0.503761
0.499817
0.522442
0.636573
1.02119
1.49236
1.70302
1.71492
1.43216
0.916639
0.777478
0.773916
0.793672
0.795265
0.74019
0.669708
0.600448
0.539043
0.464852
0.386877
0.369252
0.381102
0.422916
0.472006
0.493581
0.497081
0.48966
0.476523
0.46382
0.448514
0.427688
0.404934
0.379915
0.362736
0.369926
0.426374
0.479797
0.483892
0.45598
0.361706
0.242509
0.318113
0.620698
0.741238
0.728153
0.628583
0.425234
0.341756
0.426072
0.628623
0.679393
0.681439
0.676931
0.676105
0.682356
0.687222
0.66372
0.559268
0.363506
0.303863
0.317155
0.393145
0.496283
0.532506
0.54139
0.540999
0.539432
0.537672
0.533683
0.526175
0.512053
0.476804
0.435982
0.42924
0.488662
0.707673
0.797766
0.784449
0.32568
0.324289
0.316921
0.309682
0.303534
0.301037
0.303068
0.308488
0.315184
0.32575
0.341826
0.368297
0.419584
0.458787
0.479043
0.505974
0.553168
0.592018
0.611272
0.616377
0.619269
0.588123
0.5042
0.423462
0.403277
0.404649
0.440805
0.539134
0.706163
0.838581
0.858587
0.824698
0.735947
0.642769
0.567542
0.512127
0.46808
0.460846
0.484543
0.644668
1.15413
1.53327
1.58164
1.19096
0.675376
0.618295
0.636766
0.66956
0.677942
0.642014
0.569469
0.482242
0.39861
0.371916
0.375313
0.427482
0.499964
0.529255
0.540998
0.546239
0.546071
0.539388
0.523967
0.508611
0.496285
0.48536
0.480133
0.488472
0.470917
0.445025
0.445933
0.481863
0.488187
0.467326
0.388652
0.259943
0.330031
0.62872
0.737385
0.729844
0.659969
0.468138
0.335829
0.340529
0.549744
0.646833
0.664356
0.664271
0.661294
0.655079
0.624373
0.507463
0.330188
0.276591
0.288195
0.353998
0.46529
0.512099
0.527803
0.524398
0.513218
0.508354
0.50643
0.512313
0.518087
0.515922
0.503385
0.474048
0.440724
0.438916
0.518996
0.751292
0.80568
0.316022
0.312373
0.307942
0.305662
0.305395
0.307767
0.310708
0.314498
0.318525
0.32389
0.335794
0.367215
0.428475
0.4737
0.499368
0.524705
0.561579
0.590595
0.60363
0.605009
0.614331
0.605215
0.545204
0.445666
0.415198
0.406081
0.417742
0.462441
0.549364
0.654709
0.699754
0.692365
0.664897
0.62796
0.57756
0.530452
0.484381
0.449999
0.448745
0.514381
0.907847
1.37395
1.46553
1.07648
0.565695
0.503969
0.492145
0.486322
0.464506
0.446796
0.406724
0.38578
0.382543
0.403239
0.485749
0.535217
0.546915
0.551162
0.553955
0.557766
0.559762
0.55999
0.555095
0.541265
0.525394
0.517602
0.519358
0.548724
0.566641
0.556369
0.529828
0.511893
0.500735
0.480453
0.411535
0.27733
0.331942
0.619829
0.726099
0.725721
0.692329
0.558474
0.349294
0.298935
0.390077
0.560138
0.611918
0.625826
0.617945
0.586589
0.493065
0.328695
0.259788
0.260418
0.297532
0.406125
0.477922
0.505831
0.50383
0.4774
0.44939
0.440823
0.438967
0.452754
0.479466
0.49993
0.504837
0.49669
0.472981
0.443344
0.44512
0.547887
0.770813
0.31172
0.308768
0.307074
0.30779
0.309774
0.311902
0.313283
0.315317
0.31831
0.322637
0.32814
0.342443
0.401444
0.479338
0.510562
0.537381
0.56578
0.589475
0.59676
0.589221
0.603129
0.615924
0.576233
0.485476
0.424332
0.413313
0.413876
0.431263
0.47218
0.531218
0.575623
0.582832
0.568683
0.555838
0.546676
0.530659
0.499055