/*--------------------------------*- C++ -*----------------------------------*\
  =========                 |
  \\      /  F ield         | OpenFOAM: The Open Source CFD Toolbox
   \\    /   O peration     | Website:  https://openfoam.org
    \\  /    A nd           | Version:  10
     \\/     M anipulation  |
\*---------------------------------------------------------------------------*/
FoamFile
{
    format      ascii;
    class       volScalarField;
    location    "0.550758";
    object      T;
}
// * * * * * * * * * * * * * * * * * * * * * * * * * * * * * * * * * * * * * //

dimensions      [0 0 0 1 0 0 0];

internalField   nonuniform List<scalar> 
16320
(
0.00463959
0.0046887
0.00461534
0.00459461
0.00469368
0.00500739
0.00541939
0.00607764
0.00666899
0.00729596
0.00807125
0.0092795
0.0101552
0.0104294
0.0102185
0.00909132
0.00613876
0.00464666
0.0045858
0.00499864
0.00639654
0.0087077
0.0113346
0.0127969
0.0131207
0.013191
0.0132166
0.013141
0.0131023
0.0129924
0.0129875
0.0128284
0.012751
0.0126103
0.0124896
0.0123638
0.0122595
0.0121667
0.0121
0.0120646
0.0120527
0.012058
0.0120621
0.0120386
0.0119815
0.0118686
0.0116887
0.0112231
0.0103355
0.00944046
0.00859003
0.00789764
0.00738644
0.00697654
0.00671998
0.0066148
0.0065048
0.00618497
0.00582279
0.00576421
0.00603593
0.00705349
0.00748574
0.00732643
0.00601865
0.00439184
0.00362234
0.00327321
0.00315152
0.00316417
0.00326626
0.003688
0.00520491
0.00901003
0.013147
0.0143852
0.0126777
0.0069839
0.00392513
0.00268156
0.00221068
0.00205883
0.00200977
0.00199316
0.00203568
0.002216
0.00220844
0.00195695
0.00184167
0.00195009
0.00214371
0.00218849
0.00224339
0.00232895
0.00232493
0.00223205
0.00224778
0.00253483
0.00336908
0.0036466
0.00391862
0.00503954
0.00612263
0.00644435
0.0059399
0.00377652
0.00275645
0.00236136
0.0022001
0.00214883
0.00215105
0.0022925
0.00261781
0.00434017
0.0043594
0.00425352
0.00422763
0.00431689
0.00458748
0.00492957
0.0054374
0.00610042
0.00692473
0.00803578
0.00935764
0.0103245
0.0106965
0.0106625
0.0100535
0.00781065
0.00521168
0.00465579
0.00491216
0.00591833
0.00791968
0.0103812
0.0124143
0.0130026
0.0131646
0.0132164
0.0132225
0.0131659
0.0131701
0.013045
0.0130355
0.0128942
0.0128419
0.0127244
0.0126343
0.0125247
0.0124302
0.0123557
0.0122987
0.0122505
0.0122037
0.0121446
0.0120678
0.0119657
0.0117704
0.0114303
0.0106146
0.00968906
0.00888318
0.00813009
0.00756098
0.00714613
0.00683988
0.00667045
0.00656689
0.00632844
0.00591695
0.00574389
0.00580688
0.00652988
0.00765066
0.00789031
0.00754467
0.0058749
0.00438563
0.00365002
0.00328673
0.00314114
0.00313243
0.00318536
0.003449
0.00445604
0.0076325
0.0124407
0.013895
0.012655
0.00752688
0.00419641
0.00280563
0.00225843
0.00206876
0.00200787
0.00198623
0.00201059
0.00215341
0.00234416
0.0022239
0.00189853
0.0018932
0.0020243
0.00214839
0.00222306
0.00231575
0.00235324
0.00229337
0.0022648
0.00236657
0.00283802
0.00315315
0.00343347
0.00424019
0.00573232
0.00648359
0.00666083
0.00440902
0.00291176
0.00240131
0.00222277
0.00218446
0.00220554
0.00241485
0.00305353
0.00411127
0.00412105
0.00401403
0.00399296
0.00407656
0.00428211
0.0044935
0.00480905
0.00533855
0.00622143
0.00761492
0.00914016
0.0102931
0.0106831
0.0107429
0.0103825
0.00881158
0.00609182
0.00481035
0.00492393
0.0057255
0.00733546
0.00953894
0.0116591
0.0126836
0.0130433
0.0131838
0.0132461
0.0132592
0.0131964
0.0131868
0.0130762
0.0130736
0.0129323
0.0128871
0.0127495
0.012647
0.0125364
0.0124426
0.0123601
0.012287
0.012216
0.0121384
0.0120389
0.0118544
0.0114523
0.0108057
0.00990661
0.00907856
0.00838576
0.00774901
0.00729116
0.00695463
0.00674162
0.00662172
0.00644221
0.00604299
0.00576735
0.00574135
0.00601746
0.00729734
0.00818306
0.00824948
0.00760039
0.00557548
0.00429119
0.00362666
0.0032642
0.00307363
0.00302904
0.00305957
0.00323753
0.00398761
0.00643005
0.01147
0.0134548
0.012716
0.00816672
0.00447035
0.00288657
0.00228178
0.00207246
0.0020077
0.00198678
0.00200994
0.00211179
0.002441
0.00243633
0.00209326
0.00191856
0.00194737
0.00205854
0.00218798
0.00230018
0.00236571
0.00235627
0.00229415
0.00229322
0.0024512
0.00277203
0.00304535
0.00349609
0.00487893
0.00646144
0.00701245
0.0051137
0.00319323
0.00249515
0.00225672
0.00220531
0.00223039
0.00244157
0.00316786
0.00393975
0.00396121
0.00389142
0.00387852
0.00396169
0.00412049
0.00424478
0.00442313
0.0047712
0.00543845
0.00666991
0.0085897
0.0100513
0.0105391
0.0106553
0.0103536
0.00904158
0.00683272
0.00520137
0.00498602
0.00560039
0.00684906
0.0084978
0.0102396
0.0117182
0.0127494
0.0131662
0.0132672
0.0132874
0.0132687
0.0132096
0.0131945
0.0130687
0.0130432
0.012871
0.0127917
0.0126454
0.0125386
0.0124374
0.0123474
0.0122654
0.0121808
0.0120778
0.0119287
0.0116509
0.0111558
0.0102435
0.00929496
0.00855103
0.00795274
0.00742978
0.0070671
0.00680593
0.00663641
0.00650668
0.00618061
0.00583534
0.00572487
0.00580124
0.00658542
0.00809792
0.00858361
0.00845607
0.00727286
0.00523283
0.00413842
0.00354983
0.00316339
0.00294992
0.00290329
0.00293734
0.00312668
0.00381548
0.0059435
0.0107649
0.0132259
0.0128132
0.00878194
0.00461805
0.00291832
0.00228347
0.00206331
0.001997
0.00198987
0.00202462
0.00212367
0.00246759
0.00255111
0.00240304
0.00201628
0.00196526
0.00199831
0.0021071
0.00226889
0.00236791
0.0024062
0.00233974
0.00229728
0.00230998
0.00245319
0.00273916
0.00311004
0.00398568
0.00615094
0.00720721
0.00568043
0.00351153
0.00263232
0.00232004
0.0022372
0.00225273
0.00244167
0.00314456
0.00380999
0.00385472
0.003829
0.00382583
0.00392065
0.00406226
0.00413385
0.00424849
0.00447801
0.00492325
0.00578706
0.00761442
0.00967962
0.0102791
0.0103944
0.0101999
0.00895674
0.00695228
0.00553307
0.00517724
0.00553135
0.0064463
0.00763099
0.00912143
0.0109111
0.0126735
0.0131883
0.0133061
0.013328
0.0132898
0.0132658
0.0131608
0.01312
0.0129645
0.0128943
0.0127117
0.0126181
0.0124712
0.0123584
0.012244
0.0121332
0.0119998
0.0118185
0.0115895
0.0112316
0.0106699
0.00975929
0.00886507
0.00815769
0.00761071
0.00717963
0.00687634
0.00666444
0.00650398
0.00628201
0.00593292
0.00573594
0.00573583
0.00605306
0.00752209
0.0086763
0.00885653
0.00850522
0.00671145
0.00495262
0.00407253
0.00351628
0.0031132
0.00290368
0.00286674
0.00290492
0.00310159
0.0037768
0.00580437
0.0104685
0.0131177
0.0128595
0.00906667
0.0046227
0.0028448
0.00223472
0.00204112
0.00198843
0.00199427
0.00206665
0.00219385
0.00250307
0.00268662
0.00263721
0.00224982
0.00201999
0.00200932
0.0020493
0.00219818
0.00235344
0.00245108
0.00243124
0.00233337
0.00230985
0.00236092
0.00259177
0.00294292
0.0035502
0.00544662
0.00725573
0.00619704
0.00384245
0.00279643
0.00240949
0.00229822
0.00230643
0.00246256
0.00310983
0.00368035
0.00377827
0.00378791
0.00381157
0.00391219
0.00403762
0.00409368
0.00419714
0.00437941
0.00465308
0.0051684
0.00653902
0.00901967
0.0100152
0.0101265
0.0098426
0.008689
0.00685618
0.00559596
0.00529056
0.00544844
0.00606064
0.00695475
0.00834144
0.0107628
0.0127179
0.013238
0.0133619
0.0133814
0.0133026
0.013242
0.0131269
0.0130587
0.0128711
0.0126877
0.0125532
0.0122778
0.0121412
0.0119738
0.0118427
0.011691
0.0114708
0.0110389
0.0105681
0.0100874
0.00952322
0.008935
0.00835178
0.00779726
0.00732069
0.00695649
0.00669661
0.00650728
0.00633395
0.00604269
0.00577856
0.00571516
0.005824
0.00672083
0.00845505
0.00907388
0.0090465
0.00824155
0.00604945
0.00485194
0.0041051
0.00355098
0.00311918
0.0029021
0.0028678
0.00291674
0.00315045
0.0038622
0.00584947
0.0103804
0.0130819
0.0128594
0.00889419
0.00428585
0.00269438
0.00218749
0.00202435
0.00198521
0.00200226
0.00214144
0.00236716
0.00260244
0.00281957
0.00281278
0.00262502
0.00215822
0.00204029
0.0020526
0.00212375
0.00231134
0.00246705
0.00250934
0.00242313
0.00234881
0.00237515
0.00255293
0.00289116
0.00336684
0.00479871
0.00720749
0.00663696
0.00416907
0.00295654
0.00251405
0.0023844
0.00238987
0.00253932
0.00314982
0.00355134
0.00373493
0.00376657
0.00380613
0.00391447
0.00402862
0.00408509
0.00420464
0.00439246
0.00453892
0.00482133
0.00570641
0.00793771
0.00967963
0.00990795
0.00951848
0.00820876
0.00653662
0.00555377
0.00528187
0.00530496
0.00570631
0.00654749
0.00816396
0.0109045
0.0128365
0.0133331
0.0134203
0.0134089
0.0132539
0.0131244
0.0129459
0.0126655
0.0122429
0.0117933
0.0112115
0.0108038
0.0105773
0.010492
0.0104991
0.0105349
0.0104608
0.010253
0.00980163
0.00915604
0.00851615
0.00804884
0.00767588
0.00733169
0.00700018
0.00672003
0.00650047
0.00632593
0.00613855
0.00585097
0.00570889
0.00572755
0.00612899
0.00773421
0.00908278
0.00933225
0.00911701
0.00745705
0.00577888
0.00497196
0.00442999
0.00372981
0.00317909
0.00293733
0.00291982
0.0030252
0.00338838
0.00423065
0.0063047
0.0107122
0.0131966
0.0127494
0.00780771
0.00389512
0.00263448
0.00217785
0.00202147
0.00198942
0.00202132
0.00224647
0.00253925
0.00273297
0.00293587
0.0029449
0.00285333
0.0024477
0.0021225
0.00207372
0.00210765
0.00224047
0.00245695
0.00257763
0.00254531
0.00247322
0.00247059
0.00262885
0.0029051
0.00329273
0.00449123
0.0071123
0.00695265
0.00451169
0.00309264
0.00261221
0.00248642
0.00250065
0.00268816
0.00340488
0.00331683
0.00367788
0.00375978
0.00380902
0.00391049
0.0039987
0.0040716
0.00424851
0.00445365
0.00453965
0.00465527
0.00514134
0.0067382
0.00914797
0.00969379
0.00934601
0.00782712
0.00613567
0.00544045
0.00525744
0.00526723
0.00561248
0.00654419
0.00826922
0.0113019
0.0130557
0.0133929
0.0134198
0.013342
0.0130233
0.0126675
0.0119806
0.0107894
0.00897596
0.0073374
0.00649765
0.00600278
0.00587516
0.00589902
0.00629639
0.00707306
0.00794858
0.00866529
0.00884802
0.00862684
0.00806351
0.00756607
0.00714185
0.00685745
0.00663519
0.00645227
0.00628804
0.00613854
0.00594027
0.00572631
0.00568436
0.00580721
0.00676195
0.00862797
0.00946291
0.00949281
0.00896972
0.0067901
0.00572878
0.00546753
0.00481465
0.00380577
0.0031975
0.00300329
0.00302696
0.0033093
0.00396482
0.00488986
0.00700875
0.0113641
0.0133333
0.0123397
0.00673014
0.00375467
0.00262713
0.00218176
0.00202238
0.00199489
0.00204732
0.00237289
0.00270638
0.00283717
0.00301715
0.00303231
0.0029836
0.00273315
0.00229927
0.00212428
0.00212564
0.00219745
0.00241815
0.00263271
0.0026696
0.00265307
0.00267708
0.00283803
0.00301664
0.00327485
0.00436217
0.007074
0.00718308
0.00481506
0.00319767
0.00269624
0.00258052
0.00261344
0.00286751
0.00375662
0.00292337
0.00354398
0.00373444
0.0038057
0.00389249
0.00394706
0.00402399
0.00430834
0.00460213
0.00464488
0.00464774
0.00479269
0.00570445
0.00815257
0.00941814
0.0093088
0.00777359
0.00605658
0.00542655
0.00526952
0.00528609
0.00564175
0.00664691
0.00867314
0.0120678
0.0132443
0.0133902
0.0133526
0.0130054
0.0121326
0.0107116
0.00792378
0.00523304
0.00389815
0.00327022
0.0029065
0.00275835
0.00271586
0.00278951
0.00310082
0.0035808
0.00436554
0.0055019
0.0066169
0.00747859
0.00761307
0.007302
0.00688822
0.00655923
0.00633442
0.00619161
0.00607979
0.00595959
0.00577508
0.00566253
0.00568042
0.00601412
0.00749639
0.0091907
0.00965214
0.00955903
0.00852308
0.00648226
0.00599846
0.00572413
0.004866
0.00372141
0.00316117
0.0030516
0.00315376
0.00387266
0.00479679
0.00566407
0.00770805
0.0119772
0.0134542
0.0117036
0.00624037
0.00373335
0.00266328
0.00220505
0.00202831
0.00200239
0.00207518
0.00248387
0.00288159
0.00294876
0.00307101
0.00309212
0.00306337
0.00291677
0.00250553
0.00223148
0.00216979
0.00220805
0.00235905
0.00263962
0.00277324
0.00282023
0.00289103
0.00303409
0.00310747
0.00327441
0.00432573
0.00711421
0.00743988
0.0051138
0.00326802
0.00276149
0.00266833
0.00273143
0.00308085
0.00414074
0.00251582
0.00321369
0.00364881
0.00378483
0.00384676
0.00387029
0.00394526
0.00426421
0.00478555
0.00490029
0.00476437
0.00469069
0.00504509
0.00673244
0.00900378
0.00932042
0.00812057
0.00621907
0.00551619
0.00536159
0.00538242
0.00578326
0.00700384
0.00972828
0.0127036
0.013288
0.0133042
0.0129485
0.0117774
0.00927286
0.00525597
0.00333922
0.00252702
0.00214361
0.00200342
0.00196277
0.00201074
0.0021953
0.0023302
0.00240558
0.00265711
0.00302805
0.00367278
0.00465776
0.00566574
0.00653187
0.00685357
0.00669283
0.00640807
0.00616571
0.00600571
0.00590783
0.0058029
0.00567492
0.00562877
0.00569762
0.0062733
0.00812097
0.00951046
0.009731
0.00951454
0.00778463
0.00644847
0.0062596
0.00579326
0.00453417
0.00355261
0.00312564
0.00307351
0.00325074
0.00432914
0.00574815
0.00663053
0.00876985
0.0127604
0.0135705
0.0111316
0.00608311
0.00388642
0.0028145
0.00228075
0.00205079
0.00201949
0.00211232
0.00259855
0.00302745
0.00306029
0.00308878
0.00312028
0.00310501
0.00300957
0.00267248
0.0023403
0.00222544
0.00224179
0.00235903
0.00263478
0.00285451
0.00297061
0.00307875
0.00315976
0.0031541
0.00328007
0.00435778
0.00728706
0.0076942
0.00541419
0.00332763
0.0028152
0.00275239
0.00285252
0.00331561
0.00433013
0.00219614
0.00272246
0.00337382
0.00369927
0.00377962
0.00377767
0.00377551
0.00405196
0.00479692
0.00510816
0.00504239
0.00474435
0.00472441
0.00548733
0.00798667
0.00930556
0.00899777
0.00703315
0.00594207
0.00568815
0.00569992
0.00620937
0.00799515
0.0116279
0.013048
0.0132136
0.0129507
0.0114966
0.00785999
0.00401776
0.00255662
0.00204706
0.0019171
0.00191614
0.00218434
0.00315578
0.00429881
0.00469534
0.00460944
0.00380374
0.00304029
0.00295793
0.00320495
0.00374407
0.00451354
0.00529717
0.00595366
0.00627998
0.00625135
0.00606295
0.0059078
0.00579388
0.00570543
0.00561892
0.00561433
0.00574589
0.00653487
0.00855197
0.00965312
0.00974656
0.00927194
0.00726808
0.00663737
0.00643663
0.00576571
0.0044103
0.00355269
0.00314727
0.00309683
0.003286
0.00440575
0.00645143
0.00760087
0.0102211
0.0134978
0.0136956
0.0106215
0.00620291
0.00436522
0.0031333
0.00242104
0.00209867
0.00204937
0.00215553
0.00270367
0.00314161
0.00313659
0.00309172
0.00311256
0.00310642
0.00304143
0.00277087
0.00242669
0.00228006
0.0022931
0.00237879
0.00262743
0.00291793
0.00308756
0.00319799
0.00322145
0.00316625
0.00330455
0.00457534
0.00751996
0.00788648
0.00568971
0.00337786
0.00285936
0.00283051
0.00297732
0.00358812
0.0043974
0.00200027
0.00229797
0.00281767
0.00340512
0.00363821
0.00366396
0.00362976
0.00380722
0.00455443
0.00524198
0.00533388
0.0049708
0.00466975
0.00482254
0.00628237
0.00894025
0.00955588
0.00874124
0.00719077
0.00667501
0.00663927
0.00737733
0.00999842
0.0124972
0.0129957
0.0128942
0.0115256
0.00757047
0.00373912
0.00240409
0.00206619
0.00204345
0.00237312
0.00386209
0.00703672
0.00817918
0.00830282
0.00827168
0.00802033
0.00724308
0.00512991
0.0034606
0.00323275
0.00355238
0.00399254
0.00455127
0.0051254
0.00561807
0.00590281
0.00594211
0.00583541
0.00573672
0.00565026
0.00559315
0.0056133
0.00582248
0.00678867
0.00879893
0.009694
0.00970321
0.00876016
0.00707477
0.00683952
0.00664345
0.00588434
0.00484466
0.00399281
0.00334506
0.00317119
0.00331352
0.00431114
0.006626
0.00842992
0.0119427
0.0139568
0.0137902
0.0102999
0.00701285
0.00531882
0.00364951
0.00262081
0.00216198
0.00209051
0.00221051
0.0028344
0.00326567
0.0032061
0.00306021
0.00307092
0.00308979
0.00304034
0.00280346
0.00247061
0.00232029
0.00233574
0.00242428
0.00264509
0.00296919
0.00317027
0.00326563
0.00324339
0.00316195
0.00335994
0.00500724
0.00776716
0.00801059
0.00592374
0.00341059
0.00287878
0.00288113
0.00311059
0.00377513
0.00439019
0.00193467
0.00202708
0.00233602
0.00279729
0.00325617
0.00342189
0.00337995
0.00345279
0.00399489
0.00509101
0.00546677
0.0053741
0.0047727
0.00457524
0.00507106
0.00731298
0.00961465
0.00987254
0.00913391
0.00859084
0.00853417
0.00927143
0.0116298
0.012697
0.0127815
0.0118697
0.00833225
0.00406092
0.00251467
0.00214744
0.00214367
0.00272315
0.00523161
0.00759684
0.00775855
0.00752015
0.00752258
0.00772255
0.00772064
0.00743369
0.0064026
0.00444405
0.00356622
0.00357345
0.00387806
0.00419932
0.00461301
0.00505138
0.00542983
0.00567858
0.00575205
0.0056961
0.00562565
0.0055929
0.00563249
0.0059092
0.00704888
0.00895284
0.00967889
0.00954183
0.00808471
0.00718125
0.00712216
0.00705204
0.00677662
0.0064585
0.00532541
0.00387088
0.00331746
0.00336105
0.0041029
0.00634762
0.00938129
0.012844
0.0140987
0.0137674
0.0102426
0.0084364
0.00674639
0.00412369
0.00274754
0.00221746
0.00213811
0.0022782
0.00295931
0.00339459
0.00326101
0.00298682
0.00297397
0.00303106
0.00301308
0.0028072
0.00248703
0.00234728
0.00237295
0.00247577
0.00268652
0.00303003
0.00323545
0.00329861
0.00323361
0.00313443
0.00346056
0.00551313
0.00799359
0.00811323
0.00612562
0.0034354
0.00288882
0.00292826
0.00329989
0.00386879
0.00423801
0.00193703
0.00192154
0.00203473
0.00229949
0.00266317
0.00298859
0.0030919
0.00307161
0.00338582
0.00435445
0.00535377
0.00556098
0.00513392
0.00456742
0.00454031
0.00558579
0.0084661
0.0102358
0.0104091
0.0102352
0.010219
0.0109268
0.012238
0.012561
0.0121495
0.00951851
0.00492283
0.00280896
0.00221505
0.00214811
0.00253471
0.00426586
0.00552897
0.00551863
0.00522585
0.00535204
0.00649137
0.00709604
0.00715603
0.00701227
0.00653609
0.00530652
0.00411111
0.00379365
0.00389148
0.00412651
0.00437657
0.00470668
0.00506457
0.00537434
0.0055718
0.00562885
0.0056045
0.00559984
0.00567061
0.00598475
0.00732741
0.00910013
0.00958906
0.00917107
0.00770689
0.00739554
0.00750211
0.00765635
0.00783806
0.00777285
0.00705347
0.00478571
0.00355799
0.00341987
0.00387003
0.00577844
0.00968545
0.0130771
0.0140823
0.0136354
0.0113079
0.0103622
0.00761516
0.00428239
0.00277748
0.0022473
0.00218767
0.00236803
0.00311186
0.00345731
0.00326243
0.00289861
0.00286007
0.00291911
0.00293648
0.00279159
0.00249076
0.00237383
0.00241687
0.00253732
0.00274691
0.00309961
0.00326972
0.00329423
0.00319465
0.00309498
0.00364831
0.00620982
0.00826029
0.00817633
0.00622978
0.00344356
0.0028952
0.0029779
0.00346723
0.00387669
0.00410239
0.00199092
0.00191223
0.00191289
0.00201061
0.00220948
0.0024858
0.00271294
0.00279295
0.00295583
0.00351129
0.004683
0.00554263
0.00556383
0.00477919
0.00441778
0.00469683
0.00638196
0.00947487
0.0108342
0.0111457
0.011308
0.0117972
0.0122092
0.012198
0.0106007
0.0066116
0.00344977
0.0023562
0.00212381
0.00220038
0.00295221
0.00396824
0.00406801
0.00379122
0.00377955
0.00457032
0.00636664
0.00703309
0.00707674
0.0068472
0.00620176
0.0053703
0.0045181
0.00412858
0.00403082
0.00413833
0.00434752
0.00458006
0.00485487
0.0051478
0.00538633
0.00552177
0.00557209
0.00560893
0.00571527
0.00612461
0.00770679
0.00920959
0.00933146
0.00861679
0.007634
0.0076671
0.00795021
0.00821748
0.00829966
0.00827248
0.0078761
0.00584124
0.00391256
0.00350173
0.00374156
0.00522998
0.009251
0.0129651
0.0139051
0.0135273
0.0126707
0.0114502
0.00786027
0.00429545
0.00276429
0.00227207
0.00224472
0.00249523
0.00327958
0.00347759
0.0031701
0.00279172
0.00275299
0.00280556
0.00282125
0.00272581
0.0024855
0.00240528
0.00247088
0.00260001
0.00281751
0.0031481
0.00326088
0.00325265
0.00310804
0.00306317
0.00406768
0.00730446
0.00838473
0.00819136
0.00625232
0.00344198
0.00290326
0.00303926
0.00357535
0.00384982
0.00398391
0.00224007
0.00195071
0.00189434
0.00190051
0.00196808
0.00211748
0.00231266
0.00246896
0.00256983
0.00285186
0.00361839
0.00515918
0.00570655
0.00534954
0.0045023
0.00436908
0.0051039
0.00742567
0.0104123
0.0113461
0.0116985
0.0119464
0.0120349
0.0113515
0.00871032
0.00481365
0.00275834
0.00213065
0.00202617
0.00218657
0.00284885
0.00310338
0.00296738
0.00287565
0.00309383
0.00427153
0.00639712
0.00721285
0.00724439
0.00687204
0.00603695
0.00512552
0.00457446
0.00434038
0.00424914
0.00423588
0.00436347
0.0045796
0.00482424
0.00506781
0.00529333
0.00546305
0.00556926
0.00563043
0.00580281
0.00646553
0.00825132
0.00919131
0.00904266
0.00819744
0.00791437
0.00805229
0.00838429
0.00858129
0.00861985
0.00857898
0.00826414
0.00665781
0.00432462
0.00360556
0.00369404
0.00470583
0.00822812
0.0123646
0.0135902
0.0134452
0.0129903
0.0117914
0.00771011
0.00413168
0.00268853
0.00229381
0.0023119
0.00269195
0.00342147
0.00345129
0.00301514
0.00265395
0.00264108
0.00269047
0.0026974
0.00260232
0.00245816
0.00243853
0.00252081
0.00265668
0.0028898
0.00315779
0.00322513
0.00312802
0.00301361
0.00315256
0.00507031
0.0080286
0.00841674
0.00813385
0.00620057
0.00342834
0.00291657
0.00313158
0.00366323
0.00381699
0.00387002
0.00305493
0.00214573
0.0019206
0.00187781
0.00188392
0.00193104
0.00203486
0.00217656
0.0022614
0.00244274
0.00295282
0.00436716
0.00566672
0.00580497
0.00490131
0.00434768
0.00448821
0.00581413
0.00874417
0.0110873
0.0116599
0.0117991
0.0115984
0.0100872
0.00707409
0.00378906
0.00237539
0.00198481
0.00193569
0.0021167
0.0023828
0.00238064
0.00229291
0.0023081
0.00268755
0.00392883
0.00619405
0.0075238
0.00766846
0.00734233
0.00627914
0.00518361
0.00468572
0.00448961
0.00441834
0.0044004
0.00443653
0.00461117
0.00483569
0.00506834
0.00528739
0.00546153
0.00558073
0.00569751
0.00603932
0.00723547
0.00866858
0.00891712
0.00866209
0.00811421
0.0081496
0.00844718
0.00868692
0.00874743
0.00874429
0.00870875
0.00854946
0.00759183
0.00500967
0.0038074
0.00372914
0.00433328
0.00698338
0.0114121
0.0131275
0.0132863
0.0130115
0.0117841
0.00720516
0.00380432
0.00257326
0.00232129
0.00240758
0.00298929
0.00348411
0.00336505
0.00279056
0.00254465
0.00253875
0.0025692
0.00256679
0.00249428
0.00243398
0.00246925
0.00256658
0.00271047
0.00295543
0.00312687
0.00313563
0.00300369
0.0029631
0.00360738
0.00679453
0.00826962
0.00832288
0.00793598
0.0060548
0.00341398
0.00294014
0.00324637
0.00372248
0.00379238
0.00376023
0.00433677
0.00277128
0.00206124
0.00189563
0.00186447
0.00187335
0.00190835
0.00198855
0.00206507
0.00221724
0.00260641
0.00378001
0.00547973
0.0059849
0.00556759
0.00450579
0.00429732
0.00487634
0.00684338
0.0100509
0.0111814
0.0113095
0.0107668
0.0089836
0.00594274
0.0032493
0.00216939
0.00187115
0.00182804
0.00189854
0.00195105
0.00192828
0.00190101
0.00197983
0.00238415
0.00349609
0.00561327
0.00753377
0.0078546
0.00778427
0.00729477
0.00617178
0.00518834
0.00481555
0.00466561
0.00462038
0.00461411
0.00470159
0.00489179
0.0051051
0.00531386
0.00549583
0.00565613
0.00594011
0.00677632
0.00805661
0.0087566
0.00874605
0.00845206
0.00837902
0.00853164
0.00875223
0.00880643
0.00879537
0.00877415
0.00873833
0.00865128
0.00820593
0.00602871
0.00414946
0.00379776
0.00410989
0.00589749
0.0101441
0.0125059
0.0129498
0.0127757
0.0114084
0.006329
0.00341183
0.00248835
0.00237252
0.00257799
0.00332967
0.00350084
0.00311792
0.0025545
0.00243668
0.0024389
0.00245936
0.00246099
0.00243831
0.00244407
0.00250553
0.00260842
0.0027584
0.00298601
0.00306338
0.00298647
0.00291305
0.00310494
0.00480269
0.00787376
0.00831352
0.00806941
0.00762716
0.00587567
0.00341338
0.0029803
0.00336767
0.00376742
0.00377605
0.00368413
0.0051939
0.00384206
0.00249697
0.00200224
0.00187995
0.00185858
0.00187052
0.00190999
0.00197919
0.00211805
0.00246811
0.00359539
0.00533872
0.00608859
0.00604682
0.00494734
0.00431123
0.00442094
0.00557078
0.00821912
0.0100986
0.0103615
0.00996349
0.00819102
0.00527623
0.0029662
0.0020426
0.00177064
0.0017213
0.00173291
0.00175725
0.00174343
0.00173534
0.00182573
0.00215415
0.00304052
0.00479042
0.00705079
0.00776667
0.00782795
0.00769393
0.00730935
0.00679555
0.00597434
0.00542217
0.00512744
0.00501979
0.00499547
0.00507697
0.00525395
0.00545495
0.00569015
0.00600894
0.00673078
0.00771939
0.00847471
0.00870201
0.00866645
0.00855839
0.00864444
0.00881775
0.00884338
0.00882622
0.00877641
0.00873658
0.00871823
0.00866702
0.00845456
0.00708436
0.00464444
0.00392086
0.00403471
0.00515213
0.00867692
0.0117716
0.0125992
0.0124486
0.0106828
0.00539779
0.00308167
0.00245511
0.00245657
0.00289492
0.00356518
0.00346969
0.00279534
0.00242779
0.00237597
0.00237159
0.00239336
0.00243471
0.00244258
0.00246863
0.00253835
0.00264203
0.00281677
0.00294658
0.00294345
0.00287651
0.00294418
0.0038588
0.00703079
0.00811513
0.00808902
0.00766642
0.00732878
0.00575145
0.00344272
0.00302974
0.00342494
0.00378717
0.00375719
0.00363286
0.00556416
0.00460074
0.00315147
0.00232049
0.00198101
0.00186996
0.00186382
0.00188667
0.00194944
0.00209804
0.00257153
0.00398351
0.00550957
0.00619454
0.00626462
0.0055223
0.00442863
0.00426252
0.00483314
0.00664757
0.0089789
0.00951013
0.00928744
0.0077405
0.00509436
0.00291031
0.00198901
0.00170131
0.00164367
0.00164278
0.00166434
0.00166797
0.00166808
0.00173995
0.00198051
0.00260437
0.00372772
0.00527668
0.00627704
0.00669297
0.00685744
0.00717578
0.00730705
0.00736607
0.00713177
0.00685135
0.00630768
0.00596794
0.00584969
0.00584913
0.00604382
0.00646852
0.00709699
0.00780436
0.00836333
0.00868266
0.00875257
0.00875436
0.00879661
0.00887035
0.00886645
0.00881557
0.00868087
0.00854936
0.00849713
0.00855141
0.00860431
0.0085186
0.00778908
0.00535096
0.00413102
0.00406162
0.00470516
0.00735976
0.0109483
0.0122025
0.0120214
0.00957587
0.00454125
0.00280464
0.00246294
0.00258636
0.00331848
0.00367241
0.00331788
0.00257134
0.0023748
0.00235884
0.00236347
0.00239411
0.00244273
0.00245632
0.00249288
0.00256249
0.0026777
0.00281855
0.00286662
0.00282085
0.00286841
0.00343299
0.00602393
0.00786751
0.00797462
0.00745345
0.00720438
0.00700585
0.0056954
0.00352636
0.00307508
0.00343273
0.00378999
0.00373764
0.00359645
0.00557282
0.00475403
0.00348984
0.00260118
0.00216351
0.00191206
0.0018817
0.00190319
0.00198483
0.00224432
0.00316281
0.00482718
0.00585832
0.00625415
0.00634257
0.00590484
0.00463103
0.00423741
0.00442873
0.00553827
0.00779748
0.00874637
0.00872935
0.00756071
0.00515995
0.00297049
0.00199385
0.00168762
0.00161252
0.00160874
0.00164084
0.00165027
0.0016468
0.0016733
0.00177284
0.00203199
0.0024188
0.00279733
0.00298808
0.0030597
0.00320058
0.00352004
0.00426958
0.00549198
0.00689593
0.00761752
0.00785421
0.00783222
0.00761653
0.00752005
0.00755683
0.00789181
0.008268
0.00859431
0.00880313
0.00888505
0.00888909
0.0088928
0.00887885
0.00881046
0.00864449
0.00831347
0.00806727
0.00803995
0.00813026
0.00838083
0.00853005
0.00850443
0.00809489
0.00606346
0.00437817
0.0041013
0.00446713
0.00636272
0.0100738
0.0117217
0.0114551
0.00791884
0.00378847
0.002622
0.00250846
0.00282335
0.00369708
0.00371471
0.00304929
0.0024632
0.00235298
0.00235201
0.0023607
0.00240197
0.00245216
0.00246541
0.00250905
0.00258046
0.00268423
0.00275946
0.00275231
0.00281358
0.00325938
0.00543588
0.00759596
0.007753
0.00719754
0.00681914
0.00682684
0.00674486
0.0057248
0.00366508
0.00309738
0.00332804
0.0037614
0.0037279
0.00356663
0.00546731
0.00466047
0.00347839
0.00265892
0.00223206
0.001979
0.00196249
0.00201971
0.002239
0.00295078
0.00453368
0.00561039
0.006062
0.00624907
0.00631943
0.00605064
0.00483013
0.00425446
0.00424221
0.0048729
0.00659494
0.00800577
0.00817365
0.00744566
0.00535919
0.00308044
0.00206983
0.00169259
0.00161935
0.00161321
0.00165931
0.00168628
0.00169303
0.00169152
0.00169332
0.00171498
0.00175353
0.00176182
0.00171629
0.0016439
0.00161665
0.00162301
0.00176244
0.00210335
0.00281866
0.0042226
0.00651125
0.00783159
0.0082511
0.00839519
0.00847373
0.00862519
0.00877323
0.00886981
0.00890941
0.00890474
0.00885736
0.00873592
0.00846263
0.00802098
0.00762036
0.0075491
0.00765076
0.00782419
0.00804459
0.00836427
0.00851542
0.00849876
0.00819975
0.00658561
0.00461794
0.00415134
0.00435407
0.00568642
0.00911426
0.0111973
0.0107463
0.00639819
0.00325908
0.00254065
0.00256431
0.0032067
0.00390168
0.00368862
0.00276649
0.00238751
0.00234217
0.00235122
0.00236638
0.00241509
0.00245092
0.0024634
0.00249954
0.00256284
0.00263776
0.00267127
0.00275975
0.00317469
0.0050997
0.00728167
0.00750448
0.00679995
0.00625091
0.00627426
0.00649894
0.00649912
0.00582983
0.00392267
0.00310827
0.00313023
0.00367744
0.00371862
0.00353205
0.00524354
0.0043781
0.00335211
0.00267943
0.00232368
0.00214322
0.0022088
0.00246922
0.00321992
0.00470083
0.00558031
0.0059449
0.00610614
0.00614053
0.00614013
0.00593669
0.00493151
0.00426341
0.00416515
0.00449225
0.00563824
0.00732319
0.0077407
0.00738281
0.00573601
0.00344659
0.00213916
0.00175941
0.00163961
0.00164037
0.00173939
0.00186298
0.00189527
0.00189193
0.00178036
0.00164677
0.00151749
0.00141388
0.00133484
0.00129139
0.00127662
0.00127534
0.00131596
0.00142895
0.00164388
0.00202184
0.0027919
0.00432647
0.00653817
0.00775396
0.00825744
0.00849923
0.0086311
0.00866377
0.00861206
0.00845706
0.00804548
0.00750675
0.00706325
0.00708064
0.00718779
0.00741768
0.00767755
0.00792858
0.00815585
0.00840609
0.00851521
0.00849264
0.00821565
0.00679004
0.00482061
0.00422706
0.00432745
0.00526969
0.00826462
0.0106746
0.00986906
0.00507993
0.00290444
0.00251421
0.00267088
0.00360556
0.00404736
0.00350946
0.00258521
0.00234396
0.00232652
0.00234443
0.002366
0.00240125
0.0024244
0.00243412
0.00246472
0.00251237
0.0025716
0.00269321
0.00312647
0.00495134
0.00700082
0.00725378
0.00630127
0.00555483
0.0054731
0.00581175
0.0061907
0.00624136
0.00588848
0.00442537
0.00318528
0.00299978
0.00346067
0.00366803
0.00351696
0.00504716
0.00414115
0.00331104
0.0028025
0.00257256
0.00261358
0.00298238
0.00389734
0.00511345
0.00573734
0.00592942
0.00600247
0.00600346
0.00580953
0.00572398
0.00557511
0.00486787
0.00425903
0.00412982
0.00427845
0.00494715
0.00649007
0.00725106
0.00722712
0.00616584
0.00405627
0.00247258
0.00182976
0.00171039
0.00169643
0.00185435
0.00220439
0.00235387
0.0023666
0.00219549
0.0018664
0.00158449
0.00140013
0.00129462
0.00124824
0.00123522
0.00123615
0.00127742
0.00137911
0.00155636
0.00178803
0.00212948
0.00266643
0.00355738
0.00474738
0.00591141
0.00670999
0.00706207
0.00704376
0.00683341
0.00649867
0.00634806
0.00647697
0.00669164
0.00705076
0.00747848
0.00773703
0.0079009
0.00802981
0.0081911
0.00839121
0.00846036
0.00842578
0.00814317
0.00679238
0.00498162
0.00432356
0.00434678
0.00498417
0.00746667
0.0100889
0.00879809
0.00413656
0.00271251
0.00252641
0.0028085
0.003902
0.00417708
0.00335304
0.00250023
0.00231719
0.00230642
0.00232557
0.00234683
0.00236562
0.00237276
0.00237705
0.00240266
0.00246886
0.00261137
0.00308686
0.00491783
0.00681426
0.00704652
0.00596819
0.0050194
0.00482833
0.00484826
0.00529051
0.00579395
0.00595968
0.00591561
0.00506577
0.00346201
0.00296635
0.00306807
0.00351383
0.00351095
0.00500779
0.0041815
0.00357846
0.00333258
0.00334351
0.00385249
0.00475571
0.00560202
0.0059377
0.00597154
0.00595038