/*--------------------------------*- C++ -*----------------------------------*\
  =========                 |
  \\      /  F ield         | OpenFOAM: The Open Source CFD Toolbox
   \\    /   O peration     | Website:  https://openfoam.org
    \\  /    A nd           | Version:  10
     \\/     M anipulation  |
\*---------------------------------------------------------------------------*/
FoamFile
{
    format      ascii;
    class       volVectorField;
    location    "0.550758";
    object      U;
}
// * * * * * * * * * * * * * * * * * * * * * * * * * * * * * * * * * * * * * //

dimensions      [0 1 -1 0 0 0 0];

internalField   nonuniform List<vector> 
16320
(
(-0.306862 0.136148 0)
(-0.311815 0.112791 0)
(-0.305873 0.0945267 0)
(-0.292285 0.0777284 0)
(-0.272418 0.0582489 0)
(-0.246915 0.03646 0)
(-0.216176 0.0158224 0)
(-0.181245 -0.00151048 0)
(-0.141078 -0.0123866 0)
(-0.0996965 -0.0166247 0)
(-0.0581313 -0.0106936 0)
(-0.0223003 0.00353005 0)
(0.0103549 0.0259615 0)
(0.0420443 0.0636298 0)
(0.0644101 0.112822 0)
(0.0763554 0.169616 0)
(0.0892717 0.226755 0)
(0.0885236 0.267894 0)
(0.0825677 0.292142 0)
(0.0712525 0.306544 0)
(0.0477048 0.303634 0)
(0.0179859 0.266514 0)
(-0.0112386 0.215315 0)
(-0.0300272 0.180208 0)
(-0.0502143 0.167104 0)
(-0.0633009 0.165867 0)
(-0.0725596 0.169434 0)
(-0.0814297 0.176633 0)
(-0.0901787 0.185125 0)
(-0.100459 0.19461 0)
(-0.111774 0.204998 0)
(-0.127411 0.218755 0)
(-0.145156 0.235728 0)
(-0.164979 0.256822 0)
(-0.18353 0.281207 0)
(-0.197423 0.307717 0)
(-0.202993 0.334555 0)
(-0.197804 0.360088 0)
(-0.180818 0.382905 0)
(-0.152691 0.401594 0)
(-0.115124 0.414915 0)
(-0.0706584 0.421557 0)
(-0.0231104 0.421335 0)
(0.0273869 0.414975 0)
(0.0749729 0.402159 0)
(0.116614 0.385982 0)
(0.151168 0.370952 0)
(0.176516 0.361189 0)
(0.192372 0.356854 0)
(0.200244 0.352523 0)
(0.202614 0.346064 0)
(0.201907 0.334838 0)
(0.199295 0.317503 0)
(0.195295 0.294292 0)
(0.190479 0.265506 0)
(0.184502 0.232746 0)
(0.174892 0.199218 0)
(0.161691 0.169233 0)
(0.14767 0.142937 0)
(0.136608 0.112385 0)
(0.131976 0.0707519 0)
(0.132286 0.00624899 0)
(0.141592 -0.0602725 0)
(0.148109 -0.118524 0)
(0.15622 -0.148826 0)
(0.162656 -0.164889 0)
(0.163909 -0.179944 0)
(0.162541 -0.192927 0)
(0.155815 -0.19969 0)
(0.141449 -0.195997 0)
(0.121649 -0.182174 0)
(0.101997 -0.164028 0)
(0.0758493 -0.136872 0)
(0.0421558 -0.0897822 0)
(0.0250854 -0.0573074 0)
(0.0147969 -0.0930134 0)
(0.00234515 -0.14833 0)
(0.00213391 -0.249409 0)
(-0.00490512 -0.281965 0)
(-0.00155495 -0.283541 0)
(0.0110722 -0.273752 0)
(0.0270415 -0.252883 0)
(0.0449228 -0.223976 0)
(0.0641924 -0.188341 0)
(0.0854857 -0.14354 0)
(0.109374 -0.0821685 0)
(0.125888 -0.0240596 0)
(0.132624 0.02879 0)
(0.144062 0.0850659 0)
(0.164212 0.14719 0)
(0.182463 0.202557 0)
(0.188812 0.239222 0)
(0.181735 0.260256 0)
(0.155417 0.266705 0)
(0.104493 0.25479 0)
(0.0458535 0.227269 0)
(-0.00866706 0.192051 0)
(-0.0365086 0.162006 0)
(-0.065775 0.107935 0)
(-0.0805072 0.00763641 0)
(-0.0906432 -0.109364 0)
(-0.0978453 -0.234258 0)
(-0.0973075 -0.359985 0)
(-0.078228 -0.443924 0)
(-0.0414512 -0.466235 0)
(0.0204264 -0.40458 0)
(0.0642382 -0.34239 0)
(0.0928736 -0.295935 0)
(0.112372 -0.261761 0)
(0.122543 -0.237917 0)
(0.115628 -0.218905 0)
(0.0888129 -0.198453 0)
(0.0496084 -0.171305 0)
(-0.301869 0.181966 0)
(-0.312859 0.158356 0)
(-0.312724 0.136751 0)
(-0.304288 0.114631 0)
(-0.289834 0.0893915 0)
(-0.269814 0.0617426 0)
(-0.244622 0.0353512 0)
(-0.215841 0.0132146 0)
(-0.183966 -0.0027234 0)
(-0.150168 -0.0105946 0)
(-0.115795 -0.00900862 0)
(-0.0797482 0.00422107 0)
(-0.0457265 0.0297409 0)
(-0.0161031 0.0692355 0)
(0.0142795 0.128279 0)
(0.0316611 0.194776 0)
(0.0461045 0.257007 0)
(0.0533331 0.304409 0)
(0.0494707 0.332293 0)
(0.0421512 0.347593 0)
(0.0232524 0.345821 0)
(-0.00040999 0.310249 0)
(-0.026737 0.263101 0)
(-0.0511339 0.221362 0)
(-0.0769233 0.198912 0)
(-0.0951822 0.190314 0)
(-0.106967 0.188982 0)
(-0.115683 0.191787 0)
(-0.123494 0.196075 0)
(-0.130826 0.200612 0)
(-0.140414 0.20635 0)
(-0.150803 0.213637 0)
(-0.164844 0.22456 0)
(-0.179842 0.238865 0)
(-0.195114 0.256867 0)
(-0.206908 0.277274 0)
(-0.212121 0.29877 0)
(-0.207729 0.319604 0)
(-0.192342 0.338302 0)
(-0.166325 0.353619 0)
(-0.131222 0.364521 0)
(-0.0893906 0.370147 0)
(-0.0443648 0.370242 0)
(0.00184957 0.365823 0)
(0.0475882 0.357116 0)
(0.0865201 0.347011 0)
(0.118051 0.340409 0)
(0.140082 0.340705 0)
(0.154324 0.34149 0)
(0.162782 0.339973 0)
(0.167328 0.335193 0)
(0.169431 0.324228 0)
(0.169678 0.306729 0)
(0.168429 0.283431 0)
(0.165824 0.255116 0)
(0.160365 0.224382 0)
(0.150593 0.19492 0)
(0.138394 0.169396 0)
(0.126052 0.142373 0)
(0.120468 0.10894 0)
(0.119889 0.0559923 0)
(0.127812 -0.0135213 0)
(0.144136 -0.0806734 0)
(0.151537 -0.134254 0)
(0.158723 -0.155352 0)
(0.164583 -0.168869 0)
(0.167002 -0.18276 0)
(0.168409 -0.194752 0)
(0.166039 -0.200461 0)
(0.156971 -0.196371 0)
(0.141661 -0.18154 0)
(0.124786 -0.160981 0)
(0.105542 -0.136112 0)
(0.0728053 -0.0917782 0)
(0.0501792 -0.0550977 0)
(0.0458883 -0.094179 0)
(0.03144 -0.147649 0)
(0.0272523 -0.241567 0)
(0.0230353 -0.273149 0)
(0.0252395 -0.275997 0)
(0.0352358 -0.26687 0)
(0.0493123 -0.24819 0)
(0.0662687 -0.221 0)
(0.0855441 -0.186645 0)
(0.106853 -0.141764 0)
(0.129279 -0.078652 0)
(0.150383 -0.0101505 0)
(0.16012 0.0498433 0)
(0.16349 0.0963572 0)
(0.17687 0.150234 0)
(0.193867 0.205356 0)
(0.202392 0.248979 0)
(0.200261 0.276896 0)
(0.180875 0.29005 0)
(0.135634 0.285361 0)
(0.0760409 0.263252 0)
(0.0201644 0.228442 0)
(-0.0152304 0.192661 0)
(-0.0404482 0.142737 0)
(-0.0519251 0.0484506 0)
(-0.0633434 -0.0742014 0)
(-0.0722445 -0.207314 0)
(-0.076365 -0.347965 0)
(-0.0699687 -0.462558 0)
(-0.0402444 -0.506604 0)
(0.0242524 -0.442435 0)
(0.0662822 -0.370239 0)
(0.0962654 -0.318325 0)
(0.11658 -0.279586 0)
(0.129646 -0.252175 0)
(0.128919 -0.231381 0)
(0.111476 -0.215798 0)
(0.0771404 -0.197962 0)
(-0.296586 0.227111 0)
(-0.31159 0.203635 0)
(-0.315652 0.179368 0)
(-0.311943 0.152706 0)
(-0.302843 0.122524 0)
(-0.288556 0.0897698 0)
(-0.269313 0.0580112 0)
(-0.246769 0.0303903 0)
(-0.222145 0.00963678 0)
(-0.19587 -0.00203844 0)
(-0.168099 -0.00308677 0)
(-0.135991 0.00881135 0)
(-0.102464 0.035292 0)
(-0.0753757 0.0732783 0)
(-0.0452744 0.132233 0)
(-0.0176116 0.210424 0)
(-0.00157417 0.285548 0)
(0.00936077 0.33815 0)
(0.0094255 0.369902 0)
(0.00513795 0.385612 0)
(-0.00806992 0.383128 0)
(-0.025352 0.35169 0)
(-0.0502298 0.308085 0)
(-0.0789913 0.266189 0)
(-0.108075 0.235585 0)
(-0.128869 0.217871 0)
(-0.141039 0.208332 0)
(-0.149082 0.205637 0)
(-0.154841 0.20578 0)
(-0.160428 0.206185 0)
(-0.165396 0.206892 0)
(-0.172728 0.209403 0)
(-0.180731 0.214436 0)
(-0.191958 0.223424 0)
(-0.20292 0.235573 0)
(-0.212619 0.250632 0)
(-0.216748 0.266865 0)
(-0.212706 0.283013 0)
(-0.198707 0.297682 0)
(-0.174861 0.309828 0)
(-0.142468 0.318617 0)
(-0.103797 0.323534 0)
(-0.0620213 0.324421 0)
(-0.0203484 0.321895 0)
(0.0209278 0.317933 0)
(0.0570508 0.31498 0)
(0.0852244 0.316502 0)
(0.104952 0.322652 0)
(0.118838 0.326639 0)
(0.128983 0.326838 0)
(0.13614 0.322641 0)
(0.141103 0.311423 0)
(0.144129 0.293685 0)
(0.145191 0.27038 0)
(0.143777 0.243159 0)
(0.137902 0.215435 0)
(0.128108 0.190596 0)
(0.116707 0.165846 0)
(0.107832 0.137079 0)
(0.107102 0.0970767 0)
(0.112736 0.0301082 0)
(0.129201 -0.0389444 0)
(0.145845 -0.105111 0)
(0.153052 -0.150167 0)
(0.158244 -0.161189 0)
(0.163042 -0.173599 0)
(0.166977 -0.186851 0)
(0.17117 -0.19783 0)
(0.172516 -0.2032 0)
(0.16848 -0.199485 0)
(0.158403 -0.184887 0)
(0.144438 -0.162759 0)
(0.128637 -0.138095 0)
(0.100638 -0.101709 0)
(0.0732124 -0.0636206 0)
(0.0748276 -0.102991 0)
(0.0601872 -0.153095 0)
(0.0544619 -0.234967 0)
(0.0542068 -0.267137 0)
(0.0549825 -0.271254 0)
(0.0605058 -0.262685 0)
(0.0702719 -0.245392 0)
(0.0852478 -0.220052 0)
(0.104309 -0.187371 0)
(0.125366 -0.14153 0)
(0.145814 -0.0787179 0)
(0.172093 2.28015e-05 0)
(0.184306 0.0681716 0)
(0.184825 0.113916 0)
(0.192488 0.159951 0)
(0.204582 0.209662 0)
(0.213263 0.254923 0)
(0.21383 0.288674 0)
(0.200081 0.308266 0)
(0.161513 0.310654 0)
(0.102673 0.294907 0)
(0.0458128 0.26269 0)
(0.00775061 0.22164 0)
(-0.0112041 0.171032 0)
(-0.0211323 0.0870507 0)
(-0.0294646 -0.0380687 0)
(-0.0412092 -0.180089 0)
(-0.0483362 -0.32706 0)
(-0.0552982 -0.468817 0)
(-0.0346411 -0.543521 0)
(0.0305764 -0.482137 0)
(0.0715106 -0.396094 0)
(0.101315 -0.338332 0)
(0.121553 -0.295404 0)
(0.135445 -0.264742 0)
(0.137861 -0.242822 0)
(0.126403 -0.231257 0)
(0.0965805 -0.222967 0)
(-0.288666 0.270319 0)
(-0.306111 0.247818 0)
(-0.313914 0.221517 0)
(-0.314582 0.191284 0)
(-0.310374 0.156965 0)
(-0.301513 0.119978 0)
(-0.288104 0.0837458 0)
(-0.272049 0.0517508 0)
(-0.254475 0.0267941 0)
(-0.235186 0.0111203 0)
(-0.213437 0.0064043 0)
(-0.186477 0.0150224 0)
(-0.154629 0.0430318 0)
(-0.129409 0.0826759 0)
(-0.105078 0.138318 0)
(-0.0740923 0.218263 0)
(-0.0516158 0.30368 0)
(-0.040753 0.367018 0)
(-0.037796 0.402171 0)
(-0.038271 0.419112 0)
(-0.0452706 0.416621 0)
(-0.0594058 0.388985 0)
(-0.0842733 0.349467 0)
(-0.115535 0.308466 0)
(-0.144091 0.271293 0)
(-0.161631 0.243295 0)
(-0.173842 0.224564 0)
(-0.181792 0.217066 0)
(-0.186067 0.213378 0)
(-0.18833 0.209379 0)
(-0.190256 0.205697 0)
(-0.192183 0.203603 0)
(-0.196776 0.204491 0)
(-0.20222 0.208734 0)
(-0.210462 0.216585 0)
(-0.216899 0.226752 0)
(-0.219943 0.238397 0)
(-0.215636 0.249888 0)
(-0.202613 0.260643 0)
(-0.180609 0.269703 0)
(-0.150702 0.276437 0)
(-0.114989 0.280618 0)
(-0.0765507 0.282655 0)
(-0.0384468 0.282918 0)
(-0.00349113 0.283767 0)
(0.0287996 0.288239 0)
(0.0532986 0.296565 0)
(0.0722722 0.306432 0)
(0.0873659 0.312321 0)
(0.0995433 0.313313 0)
(0.109287 0.308957 0)
(0.116883 0.297238 0)
(0.122257 0.279219 0)
(0.12494 0.256385 0)
(0.123452 0.231146 0)
(0.117122 0.207333 0)
(0.10763 0.184407 0)
(0.0974798 0.15855 0)
(0.0939166 0.126173 0)
(0.097305 0.0722013 0)
(0.110485 -0.0011066 0)
(0.132998 -0.0680697 0)
(0.145212 -0.129443 0)
(0.151088 -0.160804 0)
(0.154281 -0.168444 0)
(0.158567 -0.180863 0)
(0.165235 -0.193608 0)
(0.171683 -0.203209 0)
(0.175618 -0.207548 0)
(0.175415 -0.203569 0)
(0.17039 -0.189213 0)
(0.16003 -0.166429 0)
(0.145599 -0.14079 0)
(0.120349 -0.110575 0)
(0.0924509 -0.0797785 0)
(0.100234 -0.120341 0)
(0.0919988 -0.168914 0)
(0.0877821 -0.236623 0)
(0.0889769 -0.268711 0)
(0.0861446 -0.271951 0)
(0.0860902 -0.262454 0)
(0.0904836 -0.245049 0)
(0.10196 -0.221485 0)
(0.120029 -0.190424 0)
(0.140322 -0.143271 0)
(0.158768 -0.0800803 0)
(0.183717 0.00302417 0)
(0.200394 0.078614 0)
(0.206548 0.134517 0)
(0.208458 0.173551 0)
(0.215598 0.217377 0)
(0.222159 0.259991 0)
(0.224271 0.295926 0)
(0.214328 0.32094 0)
(0.181207 0.329772 0)
(0.125161 0.319911 0)
(0.0672994 0.291463 0)
(0.0271233 0.248183 0)
(0.0116103 0.191901 0)
(0.0112667 0.112092 0)
(0.00786442 -0.00304149 0)
(-0.0043548 -0.147101 0)
(-0.0131684 -0.300975 0)
(-0.0307191 -0.459495 0)
(-0.0226764 -0.572423 0)
(0.0364449 -0.519782 0)
(0.0789592 -0.421344 0)
(0.107852 -0.35576 0)
(0.127965 -0.308271 0)
(0.141439 -0.274441 0)
(0.144653 -0.250669 0)
(0.135706 -0.239775 0)
(0.108442 -0.237596 0)
(-0.276701 0.310145 0)
(-0.295882 0.289782 0)
(-0.306777 0.262035 0)
(-0.311596 0.229096 0)
(-0.312044 0.191357 0)
(-0.308282 0.150868 0)
(-0.300084 0.11106 0)
(-0.290117 0.0761435 0)
(-0.279578 0.0488051 0)
(-0.267729 0.0298858 0)
(-0.252459 0.0205934 0)
(-0.230373 0.0241263 0)
(-0.20312 0.048519 0)
(-0.180865 0.0933053 0)
(-0.161931 0.147149 0)
(-0.133924 0.22419 0)
(-0.106199 0.312639 0)
(-0.0947493 0.385807 0)
(-0.0894625 0.426064 0)
(-0.0856094 0.445218 0)
(-0.0893335 0.443896 0)
(-0.101738 0.420252 0)
(-0.124607 0.384712 0)
(-0.152716 0.34342 0)
(-0.17568 0.300228 0)
(-0.190948 0.262933 0)
(-0.206179 0.237724 0)
(-0.214827 0.22653 0)
(-0.217289 0.21833 0)
(-0.216923 0.209884 0)
(-0.214245 0.201492 0)
(-0.212168 0.195782 0)
(-0.21048 0.193289 0)
(-0.212352 0.194866 0)
(-0.215451 0.199998 0)
(-0.220215 0.206368 0)
(-0.221277 0.213011 0)
(-0.217245 0.219771 0)
(-0.204831 0.226269 0)
(-0.18452 0.232257 0)
(-0.15696 0.237242 0)
(-0.123964 0.241036 0)
(-0.0887838 0.244143 0)
(-0.0544066 0.247329 0)
(-0.0244533 0.252223 0)
(0.00152579 0.263837 0)
(0.0241991 0.278187 0)
(0.0438338 0.290703 0)
(0.0603871 0.297927 0)
(0.0745423 0.299452 0)
(0.086537 0.294687 0)
(0.0963051 0.282588 0)
(0.103353 0.264566 0)
(0.106788 0.242808 0)
(0.105011 0.220501 0)
(0.0984121 0.199392 0)
(0.0891151 0.17625 0)
(0.0816592 0.148252 0)
(0.0830191 0.107326 0)
(0.0932463 0.0359241 0)
(0.113689 -0.0338356 0)
(0.135073 -0.0980329 0)
(0.141956 -0.150686 0)
(0.142841 -0.167433 0)
(0.146512 -0.177611 0)
(0.154462 -0.191272 0)
(0.164267 -0.202524 0)
(0.172373 -0.209178 0)
(0.177597 -0.210913 0)
(0.179565 -0.206364 0)
(0.177681 -0.191938 0)
(0.170564 -0.169629 0)
(0.158529 -0.145035 0)
(0.135781 -0.121111 0)
(0.110679 -0.104011 0)
(0.126091 -0.14952 0)
(0.12431 -0.19742 0)
(0.121197 -0.252946 0)
(0.124036 -0.279732 0)
(0.118316 -0.27927 0)
(0.111886 -0.267523 0)
(0.109472 -0.248796 0)
(0.116348 -0.226052 0)
(0.132915 -0.195977 0)
(0.151923 -0.147272 0)
(0.167905 -0.0827589 0)
(0.189306 0.00211583 0)
(0.211319 0.0850205 0)
(0.222183 0.149879 0)
(0.222875 0.190353 0)
(0.226761 0.227554 0)
(0.23004 0.266544 0)
(0.232276 0.301495 0)
(0.224792 0.328945 0)
(0.195127 0.343106 0)
(0.142156 0.338494 0)
(0.0823075 0.313443 0)
(0.0407669 0.2692 0)
(0.0253385 0.20923 0)
(0.0300851 0.1295 0)
(0.0362257 0.022493 0)
(0.0291492 -0.108232 0)
(0.0238336 -0.26035 0)
(0.00216432 -0.432835 0)
(-0.0028645 -0.587086 0)
(0.0434905 -0.551354 0)
(0.0866972 -0.44432 0)
(0.115971 -0.36999 0)
(0.135678 -0.317908 0)
(0.148378 -0.281166 0)
(0.151702 -0.255058 0)
(0.144169 -0.24258 0)
(0.120271 -0.243162 0)
(-0.260985 0.344397 0)
(-0.280764 0.32817 0)
(-0.294051 0.299793 0)
(-0.30283 0.26496 0)
(-0.307678 0.224479 0)
(-0.308912 0.180777 0)
(-0.305776 0.138181 0)
(-0.301327 0.101773 0)
(-0.297418 0.073841 0)
(-0.293051 0.0531832 0)
(-0.284824 0.0405056 0)
(-0.26917 0.0386225 0)
(-0.247947 0.0532066 0)
(-0.229798 0.101801 0)
(-0.216703 0.156589 0)
(-0.193948 0.229931 0)
(-0.165442 0.316864 0)
(-0.151122 0.392337 0)
(-0.143622 0.439131 0)
(-0.136217 0.46118 0)
(-0.137233 0.462931 0)
(-0.148153 0.444253 0)
(-0.167397 0.413019 0)
(-0.189841 0.372102 0)
(-0.205842 0.324181 0)
(-0.220307 0.279422 0)
(-0.239177 0.249842 0)
(-0.247612 0.233981 0)
(-0.247783 0.220407 0)
(-0.2434 0.206513 0)
(-0.23531 0.194086 0)
(-0.226012 0.185169 0)
(-0.21778 0.180584 0)
(-0.213947 0.180005 0)
(-0.214971 0.181504 0)
(-0.217854 0.182512 0)
(-0.220753 0.183548 0)
(-0.215959 0.185594 0)
(-0.204287 0.189632 0)
(-0.18509 0.195368 0)
(-0.160077 0.201762 0)
(-0.130615 0.208147 0)
(-0.0992907 0.214374 0)
(-0.0686115 0.222092 0)
(-0.0412644 0.231814 0)
(-0.0191112 0.247148 0)
(0.00209376 0.264329 0)
(0.021342 0.276649 0)
(0.038484 0.284119 0)
(0.053938 0.285813 0)
(0.067498 0.280706 0)
(0.0787619 0.268502 0)
(0.0867828 0.250981 0)
(0.0903543 0.230871 0)
(0.0884461 0.211471 0)
(0.0820862 0.191225 0)
(0.0738071 0.167069 0)
(0.070618 0.134391 0)
(0.0761825 0.075977 0)
(0.0937369 -0.00207096 0)
(0.117779 -0.0657609 0)
(0.133083 -0.126076 0)
(0.134232 -0.163202 0)
(0.132762 -0.171181 0)
(0.140688 -0.188521 0)
(0.154349 -0.204381 0)
(0.166706 -0.212267 0)
(0.174723 -0.21455 0)
(0.17889 -0.213264 0)
(0.181288 -0.207809 0)
(0.181575 -0.194083 0)
(0.176796 -0.172863 0)
(0.167514 -0.150796 0)
(0.148768 -0.135378 0)
(0.130756 -0.136477 0)
(0.153099 -0.188506 0)
(0.151753 -0.236536 0)
(0.151716 -0.280934 0)
(0.15598 -0.296915 0)
(0.14716 -0.291435 0)
(0.135921 -0.277588 0)
(0.127781 -0.25731 0)
(0.129626 -0.233985 0)
(0.143681 -0.203845 0)
(0.160839 -0.153052 0)
(0.175437 -0.0855881 0)
(0.192878 -0.000478335 0)
(0.215819 0.0862521 0)
(0.23116 0.158397 0)
(0.235914 0.207736 0)
(0.236998 0.240519 0)
(0.237526 0.275306 0)
(0.237961 0.308 0)
(0.232142 0.335107 0)
(0.204396 0.352287 0)
(0.15247 0.351586 0)
(0.0906218 0.328154 0)
(0.0468936 0.283488 0)
(0.0322391 0.223185 0)
(0.0403791 0.145024 0)
(0.0523771 0.0468717 0)
(0.0486646 -0.0794807 0)
(0.0523954 -0.220582 0)
(0.0353611 -0.393532 0)
(0.0219694 -0.578262 0)
(0.0514295 -0.573625 0)
(0.0938207 -0.4607 0)
(0.124574 -0.379275 0)
(0.143739 -0.323505 0)
(0.155675 -0.284383 0)
(0.159126 -0.255922 0)
(0.152929 -0.241842 0)
(0.132154 -0.244361 0)
(-0.24204 0.370359 0)
(-0.260583 0.361401 0)
(-0.275593 0.334259 0)
(-0.287945 0.29825 0)
(-0.297572 0.255443 0)
(-0.303748 0.208737 0)
(-0.305408 0.164214 0)
(-0.305971 0.127545 0)
(-0.308697 0.100623 0)
(-0.311842 0.0792246 0)
(-0.311485 0.0650601 0)
(-0.303347 0.0589382 0)
(-0.287045 0.0648436 0)
(-0.274707 0.106338 0)
(-0.270054 0.164319 0)
(-0.251989 0.233942 0)
(-0.226474 0.318196 0)
(-0.209601 0.391114 0)
(-0.197903 0.441216 0)
(-0.187746 0.467832 0)
(-0.18659 0.473843 0)
(-0.195513 0.460642 0)
(-0.210332 0.433666 0)
(-0.226199 0.394132 0)
(-0.236897 0.344235 0)
(-0.251981 0.294064 0)
(-0.271759 0.260459 0)
(-0.277752 0.238941 0)
(-0.273005 0.218253 0)
(-0.261117 0.197852 0)
(-0.243246 0.17902 0)
(-0.224288 0.163139 0)
(-0.210669 0.151398 0)
(-0.206106 0.143623 0)
(-0.209764 0.142265 0)
(-0.217797 0.140319 0)
(-0.217723 0.136735 0)
(-0.208902 0.134301 0)
(-0.19298 0.13743 0)
(-0.173058 0.145392 0)
(-0.150352 0.158759 0)
(-0.126046 0.174715 0)
(-0.100145 0.190209 0)
(-0.0750175 0.204332 0)
(-0.0524856 0.218806 0)
(-0.0333215 0.236311 0)
(-0.0137605 0.254309 0)
(0.00508548 0.266018 0)
(0.0221736 0.272651 0)
(0.0377552 0.27369 0)
(0.0518728 0.268096 0)
(0.063806 0.256046 0)
(0.0721975 0.239492 0)
(0.0757324 0.221403 0)
(0.0742688 0.204008 0)
(0.0686491 0.18377 0)
(0.062763 0.157929 0)
(0.0634063 0.113863 0)
(0.07508 0.0354318 0)
(0.0982471 -0.036793 0)
(0.119908 -0.0956088 0)
(0.127129 -0.148789 0)
(0.123715 -0.164014 0)
(0.125942 -0.178436 0)
(0.139779 -0.203839 0)
(0.158187 -0.21922 0)
(0.170657 -0.221963 0)
(0.176292 -0.219083 0)
(0.178911 -0.214617 0)
(0.18142 -0.208041 0)
(0.182971 -0.195586 0)
(0.179471 -0.177006 0)
(0.173062 -0.157488 0)
(0.159627 -0.151715 0)
(0.152647 -0.17226 0)
(0.17957 -0.233062 0)
(0.173329 -0.282852 0)
(0.174428 -0.310955 0)
(0.180838 -0.314004 0)
(0.172005 -0.305357 0)
(0.158365 -0.290855 0)
(0.146041 -0.269726 0)
(0.143058 -0.244865 0)
(0.153643 -0.213245 0)
(0.168455 -0.160066 0)
(0.180293 -0.089923 0)
(0.195293 -0.00518766 0)
(0.217611 0.0836552 0)
(0.235893 0.161967 0)
(0.243398 0.21992 0)
(0.244736 0.25541 0)
(0.243954 0.286422 0)
(0.241809 0.31656 0)
(0.235622 0.342035 0)
(0.209081 0.359416 0)
(0.155601 0.360866 0)
(0.0906342 0.33773 0)
(0.0447149 0.292836 0)
(0.0294354 0.231944 0)
(0.0386072 0.15578 0)
(0.0534554 0.0621804 0)
(0.0553062 -0.0542209 0)
(0.0673986 -0.189177 0)
(0.0598852 -0.356709 0)
(0.0484152 -0.555858 0)
(0.0616212 -0.584793 0)
(0.100369 -0.469954 0)
(0.132145 -0.382847 0)
(0.150743 -0.324583 0)
(0.162255 -0.28374 0)
(0.165988 -0.253678 0)
(0.161345 -0.239615 0)
(0.14471 -0.244456 0)
(-0.219759 0.387603 0)
(-0.233825 0.386616 0)
(-0.250775 0.364377 0)
(-0.266389 0.328301 0)
(-0.281059 0.283528 0)
(-0.292113 0.234274 0)
(-0.298792 0.187822 0)
(-0.303976 0.151222 0)
(-0.313338 0.127126 0)
(-0.324499 0.10603 0)
(-0.332855 0.0913544 0)
(-0.33259 0.0844514 0)
(-0.321139 0.0855898 0)
(-0.314411 0.106318 0)
(-0.318415 0.167002 0)
(-0.305439 0.233215 0)
(-0.282976 0.312942 0)
(-0.266002 0.383479 0)
(-0.250588 0.435028 0)
(-0.237909 0.466482 0)
(-0.235239 0.477498 0)
(-0.2418 0.470094 0)
(-0.251954 0.447292 0)
(-0.26129 0.40929 0)
(-0.268062 0.360117 0)
(-0.283444 0.305441 0)
(-0.300501 0.267992 0)
(-0.299534 0.238314 0)
(-0.285071 0.207075 0)
(-0.262855 0.175951 0)
(-0.238605 0.147167 0)
(-0.224602 0.125007 0)
(-0.229593 0.120995 0)
(-0.244417 0.126146 0)
(-0.252693 0.120733 0)
(-0.247701 0.110002 0)
(-0.233995 0.0991879 0)
(-0.209113 0.0938551 0)
(-0.18063 0.0961694 0)
(-0.150464 0.105807 0)
(-0.120677 0.125456 0)
(-0.0961175 0.151537 0)
(-0.0786591 0.178611 0)
(-0.066371 0.19554 0)
(-0.0544509 0.211289 0)
(-0.0411155 0.227814 0)
(-0.0247569 0.24502 0)
(-0.00688514 0.257398 0)
(0.0100623 0.263486 0)
(0.0252992 0.263871 0)
(0.0391667 0.257726 0)
(0.0510766 0.245915 0)
(0.0594794 0.230574 0)
(0.0633157 0.214635 0)
(0.0629416 0.198125 0)
(0.0589721 0.177794 0)
(0.0566633 0.148007 0)
(0.0605861 0.0845889 0)
(0.0781616 -0.00235343 0)
(0.102317 -0.0666972 0)
(0.11877 -0.122028 0)
(0.119565 -0.162239 0)
(0.115496 -0.164416 0)
(0.125621 -0.193054 0)
(0.145322 -0.226989 0)
(0.161582 -0.238403 0)
(0.169491 -0.231542 0)
(0.173432 -0.222173 0)
(0.176184 -0.214174 0)
(0.180391 -0.206804 0)
(0.182955 -0.197092 0)
(0.179856 -0.182365 0)
(0.177637 -0.164998 0)
(0.170524 -0.170282 0)
(0.175805 -0.208536 0)
(0.200749 -0.279429 0)
(0.190358 -0.329071 0)
(0.192832 -0.333192 0)
(0.200322 -0.328238 0)
(0.192767 -0.321067 0)
(0.179382 -0.306965 0)
(0.165113 -0.284842 0)
(0.158308 -0.25765 0)
(0.164961 -0.223254 0)
(0.176704 -0.167791 0)
(0.184885 -0.096028 0)
(0.197093 -0.0131056 0)
(0.217775 0.0768332 0)
(0.236553 0.160428 0)
(0.246164 0.226387 0)
(0.249155 0.270355 0)
(0.247453 0.299213 0)
(0.243293 0.327095 0)
(0.235205 0.350899 0)
(0.208421 0.367191 0)
(0.152185 0.368925 0)
(0.0818789 0.345197 0)
(0.0329905 0.299047 0)
(0.0169286 0.237006 0)
(0.0269162 0.162604 0)
(0.0440389 0.0734692 0)
(0.0523695 -0.0342095 0)
(0.0711879 -0.162188 0)
(0.0723473 -0.325348 0)
(0.0707242 -0.530436 0)
(0.0735682 -0.586871 0)
(0.106452 -0.473966 0)
(0.138149 -0.382218 0)
(0.155857 -0.322345 0)
(0.166544 -0.280249 0)
(0.170504 -0.249523 0)
(0.167271 -0.23661 0)
(0.154099 -0.242469 0)
(-0.194121 0.395346 0)
(-0.202179 0.399647 0)
(-0.218523 0.387851 0)
(-0.236464 0.354854 0)
(-0.256218 0.309048 0)
(-0.273894 0.257359 0)
(-0.286762 0.209064 0)
(-0.295489 0.172278 0)
(-0.311265 0.150178 0)
(-0.332023 0.131493 0)
(-0.348431 0.116565 0)
(-0.355227 0.109018 0)
(-0.353671 0.107029 0)
(-0.348756 0.112566 0)
(-0.354499 0.163887 0)
(-0.354338 0.227789 0)
(-0.334877 0.302523 0)
(-0.317108 0.371465 0)
(-0.299426 0.423479 0)
(-0.285363 0.458492 0)
(-0.281474 0.475021 0)
(-0.285568 0.473425 0)
(-0.291526 0.455045 0)
(-0.292557 0.419171 0)
(-0.295395 0.368166 0)
(-0.313171 0.311062 0)
(-0.321583 0.267949 0)
(-0.310482 0.227484 0)
(-0.288874 0.184943 0)
(-0.26817 0.145647 0)
(-0.263755 0.122998 0)
(-0.277672 0.125086 0)
(-0.291356 0.130056 0)
(-0.293321 0.123754 0)
(-0.281513 0.106649 0)
(-0.259007 0.0894053 0)
(-0.228891 0.0779341 0)
(-0.193987 0.0711667 0)
(-0.159188 0.0725125 0)
(-0.123566 0.0856232 0)
(-0.088017 0.109647 0)
(-0.0569828 0.14372 0)
(-0.0415522 0.182129 0)
(-0.0421613 0.204379 0)
(-0.0432905 0.217898 0)
(-0.0426997 0.227055 0)
(-0.0326366 0.238615 0)
(-0.0175171 0.249255 0)
(-0.00107475 0.255025 0)
(0.0144723 0.255311 0)
(0.0281828 0.249289 0)
(0.0399532 0.238051 0)
(0.0484818 0.224108 0)
(0.0532468 0.20999 0)
(0.0545652 0.193758 0)
(0.0533696 0.173364 0)
(0.0545401 0.135499 0)
(0.062748 0.0520595 0)
(0.0837727 -0.0332858 0)
(0.104569 -0.0909802 0)
(0.114497 -0.141973 0)
(0.111375 -0.163601 0)
(0.111812 -0.171471 0)
(0.128049 -0.215633 0)
(0.14507 -0.252564 0)
(0.156392 -0.256105 0)
(0.162774 -0.240271 0)
(0.167408 -0.224689 0)
(0.172448 -0.212836 0)
(0.180126 -0.204386 0)
(0.184497 -0.198534 0)
(0.180749 -0.187971 0)
(0.182691 -0.172971 0)
(0.182205 -0.190113 0)
(0.197901 -0.242681 0)
(0.214358 -0.320158 0)
(0.204129 -0.363135 0)
(0.209084 -0.348081 0)
(0.215517 -0.342672 0)
(0.211087 -0.337853 0)
(0.200517 -0.323773 0)
(0.185978 -0.299843 0)
(0.176231 -0.270275 0)
(0.178928 -0.233055 0)
(0.186358 -0.176147 0)
(0.190915 -0.103128 0)
(0.200368 -0.0218553 0)
(0.217792 0.068098 0)
(0.235356 0.156306 0)
(0.246046 0.230362 0)
(0.248699 0.282904 0)
(0.246164 0.313845 0)
(0.2417 0.340019 0)
(0.231133 0.362128 0)
(0.201557 0.37657 0)
(0.141989 0.376418 0)
(0.0655988 0.351216 0)
(0.0131613 0.303274 0)
(-0.00216974 0.240761 0)
(0.00869433 0.16803 0)
(0.0291703 0.0828988 0)
(0.0429089 -0.0178027 0)
(0.0677713 -0.142647 0)
(0.0753167 -0.300129 0)
(0.0842237 -0.506579 0)
(0.0845506 -0.581117 0)
(0.111348 -0.4728 0)
(0.141419 -0.377273 0)
(0.158434 -0.316831 0)
(0.168213 -0.274171 0)
(0.172532 -0.243919 0)
(0.17017 -0.232934 0)
(0.158168 -0.236837 0)
(-0.167139 0.390951 0)
(-0.167595 0.401001 0)
(-0.178483 0.398391 0)
(-0.197802 0.375822 0)
(-0.221117 0.33254 0)
(-0.246368 0.279386 0)
(-0.26869 0.229349 0)
(-0.282967 0.190889 0)
(-0.303348 0.166449 0)
(-0.332051 0.150221 0)
(-0.358611 0.135329 0)
(-0.37395 0.128097 0)
(-0.378085 0.127385 0)
(-0.373072 0.130264 0)
(-0.379956 0.152276 0)
(-0.392914 0.215414 0)
(-0.380628 0.284354 0)
(-0.36423 0.357679 0)
(-0.346159 0.409183 0)
(-0.329884 0.446633 0)
(-0.323706 0.468309 0)
(-0.324597 0.471818 0)
(-0.324947 0.456588 0)
(-0.318783 0.424569 0)
(-0.321441 0.365978 0)
(-0.337906 0.309119 0)
(-0.335036 0.259621 0)
(-0.31819 0.210313 0)
(-0.305581 0.166427 0)
(-0.309025 0.139723 0)
(-0.323888 0.140185 0)
(-0.329271 0.138054 0)
(-0.320088 0.121521 0)
(-0.304136 0.0963567 0)
(-0.280938 0.0656564 0)
(-0.254286 0.0360412 0)
(-0.225813 0.0182202 0)
(-0.19227 0.0167051 0)
(-0.151518 0.0274294 0)
(-0.10865 0.0550413 0)
(-0.0686967 0.0926395 0)
(-0.0348317 0.136234 0)
(-0.0193875 0.18541 0)
(-0.0210986 0.215785 0)
(-0.0274644 0.231966 0)
(-0.0356435 0.237704 0)
(-0.036273 0.239935 0)
(-0.027718 0.243337 0)
(-0.0131418 0.24661 0)
(0.0027183 0.246399 0)
(0.0171929 0.241198 0)
(0.0294825 0.231364 0)
(0.0388543 0.219191 0)
(0.0451889 0.206328 0)
(0.0490011 0.190576 0)
(0.0510921 0.169533 0)
(0.0556823 0.120598 0)
(0.0684153 0.0224523 0)
(0.0898548 -0.0579189 0)
(0.107202 -0.110475 0)
(0.110143 -0.154015 0)
(0.1038 -0.157645 0)
(0.109901 -0.184099 0)
(0.124583 -0.238201 0)
(0.134652 -0.271591 0)
(0.142502 -0.263806 0)
(0.153072 -0.244498 0)
(0.163143 -0.227372 0)
(0.172254 -0.21251 0)
(0.18489 -0.203522 0)
(0.190435 -0.202809 0)
(0.182239 -0.193238 0)
(0.187925 -0.18196 0)
(0.194348 -0.211115 0)
(0.217029 -0.272255 0)
(0.221831 -0.349697 0)
(0.214889 -0.379817 0)
(0.224519 -0.361451 0)
(0.229599 -0.357332 0)
(0.228844 -0.353008 0)
(0.222423 -0.338251 0)
(0.208805 -0.31246 0)
(0.196752 -0.28114 0)
(0.196212 -0.242007 0)
(0.198692 -0.18458 0)
(0.198188 -0.110895 0)
(0.204959 -0.0308934 0)
(0.218108 0.0585611 0)
(0.23339 0.150981 0)
(0.24316 0.232961 0)
(0.244515 0.29318 0)
(0.24091 0.329835 0)
(0.235584 0.355409 0)
(0.222245 0.375494 0)
(0.187564 0.386926 0)
(0.122234 0.383477 0)
(0.0421238 0.355583 0)
(-0.0131669 0.304921 0)
(-0.0256168 0.243434 0)
(-0.0117951 0.173562 0)
(0.013432 0.088431 0)
(0.0292592 -0.00714413 0)
(0.0606448 -0.130996 0)
(0.0720201 -0.283681 0)
(0.0907466 -0.486624 0)
(0.0936135 -0.568766 0)
(0.114532 -0.466328 0)
(0.141708 -0.36765 0)
(0.15804 -0.307396 0)
(0.16683 -0.265032 0)
(0.171298 -0.236696 0)
(0.168903 -0.22823 0)
(0.153296 -0.224333 0)
(-0.137352 0.375709 0)
(-0.134198 0.391144 0)
(-0.135549 0.396065 0)
(-0.149423 0.384764 0)
(-0.175142 0.351416 0)
(-0.207008 0.300277 0)
(-0.23929 0.248503 0)
(-0.263919 0.20697 0)
(-0.288641 0.17515 0)
(-0.324162 0.158273 0)
(-0.362007 0.141827 0)
(-0.384938 0.140084 0)
(-0.394005 0.141406 0)
(-0.395534 0.146063 0)
(-0.397725 0.148639 0)
(-0.414823 0.193224 0)
(-0.417883 0.254317 0)
(-0.405932 0.32922 0)
(-0.391609 0.390833 0)
(-0.371695 0.433777 0)
(-0.361829 0.460741 0)
(-0.358883 0.468035 0)
(-0.350101 0.453926 0)
(-0.34031 0.419117 0)
(-0.349775 0.358287 0)
(-0.356338 0.301137 0)
(-0.346666 0.247278 0)
(-0.337742 0.202201 0)
(-0.349133 0.167607 0)
(-0.362406 0.158069 0)
(-0.362515 0.151316 0)
(-0.352299 0.134085 0)
(-0.336393 0.103713 0)
(-0.324349 0.0667299 0)
(-0.315325 0.034404 0)
(-0.291539 0.0113232 0)
(-0.247378 -0.00485563 0)
(-0.194114 -0.00873671 0)
(-0.131705 0.00324238 0)
(-0.0762052 0.0328796 0)
(-0.045803 0.0788047 0)
(-0.0291068 0.135885 0)
(-0.0157603 0.188913 0)
(-0.0173582 0.223486 0)
(-0.0219513 0.243984 0)
(-0.0301083 0.250849 0)
(-0.0365862 0.247591 0)
(-0.0358528 0.241805 0)
(-0.026019 0.238512 0)
(-0.0107119 0.23636 0)
(0.00498006 0.23179 0)
(0.0188032 0.224082 0)
(0.0298914 0.214055 0)
(0.0384704 0.202543 0)
(0.0453156 0.187475 0)
(0.0510825 0.164637 0)
(0.0592502 0.103602 0)
(0.0757557 -0.00234246 0)
(0.0967141 -0.0767987 0)
(0.109909 -0.125064 0)
(0.106051 -0.15534 0)
(0.0994895 -0.153107 0)
(0.108336 -0.197579 0)
(0.11463 -0.252172 0)
(0.119774 -0.276762 0)
(0.132042 -0.266852 0)
(0.149226 -0.251014 0)
(0.164835 -0.233518 0)
(0.177607 -0.215207 0)
(0.193517 -0.204952 0)
(0.20304 -0.208549 0)
(0.191573 -0.197736 0)
(0.193115 -0.192262 0)
(0.206985 -0.231877 0)
(0.233654 -0.295425 0)
(0.227015 -0.367703 0)
(0.221879 -0.385802 0)
(0.239149 -0.373995 0)
(0.246672 -0.371906 0)
(0.248381 -0.365826 0)
(0.245322 -0.348518 0)
(0.23289 -0.321345 0)
(0.219288 -0.289091 0)
(0.216417 -0.249603 0)
(0.213777 -0.192988 0)
(0.206656 -0.11897 0)
(0.209864 -0.0398346 0)
(0.219271 0.048685 0)
(0.231376 0.144666 0)
(0.23835 0.234529 0)
(0.237382 0.302682 0)
(0.232027 0.34519 0)
(0.224807 0.371438 0)
(0.207503 0.389594 0)
(0.165982 0.397224 0)
(0.0929207 0.388768 0)
(0.0102226 0.357137 0)
(-0.0436612 0.304 0)
(-0.049272 0.244932 0)
(-0.0327028 0.17655 0)
(-0.00320548 0.0937432 0)
(0.0159048 -0.00546805 0)
(0.0519372 -0.126356 0)
(0.0662224 -0.276696 0)
(0.0935566 -0.469935 0)
(0.100135 -0.551232 0)
(0.115607 -0.454734 0)
(0.1389 -0.353897 0)
(0.154466 -0.294399 0)
(0.161956 -0.252929 0)
(0.165754 -0.227314 0)
(0.162757 -0.220585 0)
(0.141922 -0.205461 0)
(-0.105224 0.35216 0)
(-0.100307 0.370618 0)
(-0.0963572 0.382785 0)
(-0.0993756 0.380423 0)
(-0.119405 0.358652 0)
(-0.155325 0.316928 0)
(-0.196799 0.268709 0)
(-0.236173 0.226113 0)
(-0.267488 0.186547 0)
(-0.310078 0.157237 0)
(-0.3553 0.13599 0)
(-0.389627 0.134411 0)
(-0.405295 0.14537 0)
(-0.407214 0.15571 0)
(-0.406787 0.160538 0)
(-0.421593 0.171103 0)
(-0.444992 0.224487 0)
(-0.440717 0.28554 0)
(-0.426185 0.357955 0)
(-0.408126 0.409205 0)
(-0.39596 0.442787 0)
(-0.389184 0.45583 0)
(-0.373679 0.446067 0)
(-0.364912 0.406418 0)
(-0.374358 0.350148 0)
(-0.371438 0.293681 0)
(-0.361345 0.246997 0)
(-0.376755 0.204718 0)