/*--------------------------------*- C++ -*----------------------------------*\
  =========                 |
  \\      /  F ield         | OpenFOAM: The Open Source CFD Toolbox
   \\    /   O peration     | Website:  https://openfoam.org
    \\  /    A nd           | Version:  10
     \\/     M anipulation  |
\*---------------------------------------------------------------------------*/
FoamFile
{
    format      ascii;
    class       surfaceScalarField;
    location    "0.699165";
    object      phi;
}
// * * * * * * * * * * * * * * * * * * * * * * * * * * * * * * * * * * * * * //

dimensions      [1 0 -1 0 0 0 0];

internalField   nonuniform List<scalar> 
32368
(
-5.05187e-05
-9.89532e-06
-3.58481e-05
-1.27313e-05
-2.14685e-05
-1.30356e-05
-8.79296e-06
-1.06711e-05
2.35878e-07
-5.01039e-06
5.94135e-06
1.30873e-06
7.85944e-06
7.11111e-06
8.5215e-06
1.09529e-05
8.82514e-06
1.59135e-05
7.82304e-06
2.53515e-05
4.60514e-06
3.8837e-05
-6.14398e-06
5.81825e-05
-2.87893e-05
9.35103e-05
-4.36952e-05
0.000120728
-4.93467e-05
0.000125224
-4.5653e-05
0.000112066
-3.66846e-05
8.54583e-05
-2.85594e-05
6.01024e-05
-2.56451e-05
4.2998e-05
-2.45406e-05
3.50799e-05
-2.31287e-05
3.00287e-05
-2.11334e-05
2.7055e-05
-1.88199e-05
2.56088e-05
-1.64002e-05
2.51783e-05
-1.39242e-05
2.53144e-05
-1.13645e-05
2.57898e-05
-8.64327e-06
2.65385e-05
-5.6824e-06
2.755e-05
-2.3915e-06
2.88064e-05
1.34788e-06
3.03848e-05
5.50873e-06
3.23666e-05
1.00736e-05
3.495e-05
1.50496e-05
3.81879e-05
2.07738e-05
4.22211e-05
2.74374e-05
4.73656e-05
3.55988e-05
5.42097e-05
4.58489e-05
6.32931e-05
5.92682e-05
7.58207e-05
7.66274e-05
9.32552e-05
9.78006e-05
0.00011597
0.000123046
0.000145465
0.000152671
0.000183646
0.000187504
0.000233538
0.000228388
0.000299521
0.000272994
0.000381282
0.000314289
0.000464626
0.000353395
0.000521694
0.000386073
0.000547469
0.000386731
0.000530054
0.000359369
0.000459789
0.000262165
0.00031968
0.000177898
0.00016903
0.000115487
7.57222e-05
8.56863e-05
3.02255e-05
7.44468e-05
1.18192e-05
6.84116e-05
3.88099e-06
7.15731e-05
2.76401e-06
7.26543e-05
5.71315e-06
7.2145e-05
6.95923e-06
7.1804e-05
7.78285e-06
6.90507e-05
5.78316e-06
6.53942e-05
-1.12668e-06
5.43396e-05
-1.10089e-05
4.86508e-05
-2.03299e-05
4.70942e-05
-2.89783e-05
5.30373e-05
-3.89977e-05
6.47563e-05
-4.97003e-05
7.49544e-05
-6.13877e-05
8.42055e-05
-7.48013e-05
8.9715e-05
-8.80491e-05
8.88442e-05
-9.84294e-05
8.02568e-05
-0.000103055
6.61918e-05
-0.000103046
4.78509e-05
-0.000102161
2.73851e-05
-9.80659e-05
7.51694e-06
-8.76689e-05
-4.54911e-06
-6.91015e-05
-1.02404e-05
-6.03136e-05
-1.51761e-05
-6.32274e-05
-2.0471e-05
-7.05786e-05
-2.96202e-05
-9.29174e-05
-3.50352e-05
-0.000137532
-2.8858e-05
-0.00018068
-5.99486e-06
-0.00021509
2.72359e-05
-0.000233642
6.44837e-05
-0.000232219
0.000101146
-0.000215189
0.000131033
-0.000183808
0.00016297
-0.000141577
0.00019212
-9.76956e-05
0.00020644
-5.82698e-05
0.000204676
-2.35776e-05
0.000188848
3.96827e-07
0.000173955
1.33047e-05
0.000162158
2.02217e-05
0.000138525
9.85282e-06
8.86527e-05
-9.11533e-06
4.49442e-05
-2.18406e-05
1.88494e-05
-3.51792e-05
-5.29103e-06
-6.19874e-05
-2.93693e-05
-9.80244e-05
-4.35622e-05
-0.000129857
-4.29663e-05
-0.000137909
-4.03604e-05
-0.000122439
-4.13298e-05
-0.000117461
-4.35815e-05
-0.000117285
-5.6435e-05
-0.000138374
-6.33972e-05
-0.000169026
-6.49332e-05
-0.000168543
-6.35719e-05
-0.000154439
-6.26879e-05
-0.000136103
-6.07984e-05
-0.000118839
-9.40071e-05
-5.01333e-05
-6.4961e-05
-3.11081e-06
-5.36987e-05
-1.0536e-05
-4.06456e-05
-1.57403e-05
-2.7144e-05
-1.74986e-05
-1.54994e-05
-1.35405e-05
-7.85615e-06
-6.24013e-06
-3.88455e-06
8.21782e-07
-2.59129e-06
5.86484e-06
-2.30922e-06
1.07845e-05
-2.97537e-06
2.00041e-05
-5.81292e-06
3.35511e-05
-1.38565e-05
5.13661e-05
-3.45457e-05
8.03738e-05
-5.20043e-05
0.000109608
-6.00818e-05
0.000118506
-5.78106e-05
0.000111674
-4.75042e-05
8.87998e-05
-3.67285e-05
6.21868e-05
-3.06537e-05
4.20699e-05
-2.88943e-05
3.21362e-05
-2.75641e-05
2.61616e-05
-2.59788e-05
2.26888e-05
-2.41093e-05
2.1071e-05
-2.21343e-05
2.05952e-05
-2.0107e-05
2.07347e-05
-1.802e-05
2.11896e-05
-1.58121e-05
2.18352e-05
-1.33712e-05
2.26292e-05
-1.06484e-05
2.35709e-05
-7.59568e-06
2.47603e-05
-4.17788e-06
2.62795e-05
-2.45029e-07
2.8244e-05
4.21451e-06
3.07699e-05
9.12847e-06
3.40789e-05
1.45486e-05
3.83935e-05
2.08834e-05
4.37674e-05
2.84799e-05
5.0855e-05
3.79697e-05
6.03795e-05
4.98066e-05
7.3256e-05
6.4322e-05
8.99154e-05
8.23215e-05
0.000111512
0.000104339
0.000140368
0.000131841
0.000178815
0.000166125
0.000230153
0.000205696
0.000293651
0.000244591
0.00035816
0.000277421
0.000402635
0.000305604
0.000416987
0.000327182
0.000418531
0.000301081
0.0003608
0.00022851
0.000245547
0.000145999
0.000135859
9.6374e-05
6.05259e-05
7.71392e-05
3.15351e-05
6.9692e-05
1.87585e-05
6.83767e-05
1.29739e-05
7.22626e-05
1.65314e-05
7.20231e-05
1.76826e-05
7.23194e-05
1.82375e-05
7.1473e-05
1.84753e-05
6.86481e-05
1.3546e-05
6.23245e-05
4.6414e-06
5.10998e-05
-7.48898e-06
4.7586e-05
-1.70101e-05
4.77719e-05
-2.65797e-05
5.67079e-05
-3.65911e-05
6.52122e-05
-4.66593e-05
7.39671e-05
-5.69587e-05
8.32141e-05
-7.01024e-05
8.95952e-05
-8.40316e-05
8.93202e-05
-9.52315e-05
8.08613e-05
-0.000100659
6.65124e-05
-0.000101332
4.76377e-05
-0.000101063
2.77808e-05
-9.7017e-05
1.03356e-05
-8.60506e-05
-9.90152e-07
-6.78221e-05
-7.10943e-06
-5.63189e-05
-1.22584e-05
-5.88547e-05
-1.73502e-05
-6.62316e-05
-2.49617e-05
-8.40086e-05
-2.99274e-05
-0.000123355
-2.48904e-05
-0.000160944
-4.37861e-06
-0.000193043
2.7216e-05
-0.00021497
6.3843e-05
-0.00021729
0.000102318
-0.000205021
0.000134122
-0.000177684
0.000161161
-0.000134478
0.000191207
-9.04388e-05
0.000214037
-5.0824e-05
0.000223061
-1.5075e-05
0.000211924
1.02205e-05
0.000197726
2.76257e-05
0.000185638
3.45019e-05
0.000169126
2.99069e-05
0.000134037
1.31575e-05
8.12912e-05
-8.78527e-06
5.09841e-05
-2.15359e-05
2.49785e-05
-4.43747e-05
-3.38606e-06
-8.56945e-05
-2.83182e-05
-0.000126609
-3.82036e-05
-0.000150359
-3.46151e-05
-0.000143818
-3.53921e-05
-0.000120201
-3.60808e-05
-0.000117817
-4.6496e-05
-0.00012687
-5.47657e-05
-0.000161529
-5.80117e-05
-0.000165444
-5.76478e-05
-0.00015203
-5.72396e-05
-0.000132153
-5.67755e-05
-0.000113553
-8.78221e-05
-4.74216e-05
-7.01608e-05
5.42654e-06
-6.3194e-05
-5.45001e-06
-5.50825e-05
-1.48491e-05
-4.57054e-05
-2.09887e-05
-3.53895e-05
-2.08411e-05
-2.6108e-05
-1.50153e-05
-1.99099e-05
-7.09453e-06
-1.79479e-05
-8.62251e-07
-1.72056e-05
4.1664e-06
-1.73519e-05
1.43175e-05
-1.92888e-05
2.82704e-05
-2.68284e-05
4.54123e-05
-4.64532e-05
7.1667e-05
-6.31833e-05
9.88948e-05
-7.04806e-05
0.000108898
-6.90088e-05
0.000106936
-5.77498e-05
8.76298e-05
-4.44898e-05
6.14066e-05
-3.54265e-05
4.0083e-05
-3.28043e-05
2.88406e-05
-3.14955e-05
2.23528e-05
-3.0225e-05
1.85873e-05
-2.87571e-05
1.68678e-05
-2.71726e-05
1.63636e-05
-2.55385e-05
1.65137e-05
-2.38468e-05
1.69686e-05
-2.20496e-05
1.75521e-05
-2.00624e-05
1.81935e-05
-1.78295e-05
1.89058e-05
-1.53016e-05
1.97643e-05
-1.24339e-05
2.08695e-05
-9.20079e-06
2.23517e-05
-5.58519e-06
2.42896e-05
-1.45264e-06
2.67972e-05
3.26859e-06
3.00821e-05
8.38878e-06
3.45205e-05
1.41825e-05
4.0107e-05
2.10093e-05
4.73332e-05
2.92707e-05
5.67527e-05
3.92787e-05
6.88213e-05
5.15309e-05
8.43829e-05
6.73456e-05
0.000104894
8.75511e-05
0.000132851
0.000113236
0.000169372
0.000142956
0.000212883
0.000172062
0.000254882
0.000196013
0.000282636
0.00021642
0.000290792
0.000240901
0.000278972
0.000205117
0.000233269
0.000158101
0.000159659
9.97966e-05
8.49405e-05
7.64267e-05
4.96061e-05
6.87856e-05
3.38553e-05
6.51686e-05
2.53463e-05
6.92133e-05
2.66633e-05
7.0875e-05
2.88194e-05
7.11643e-05
2.89128e-05
7.18957e-05
2.96617e-05
7.05757e-05
2.75532e-05
6.77408e-05
2.00758e-05
5.69611e-05
8.40285e-06
4.85715e-05
-4.47344e-06
4.64118e-05
-1.37623e-05
5.02882e-05
-2.41901e-05
5.87046e-05
-3.38009e-05
6.42797e-05
-4.21336e-05
7.13176e-05
-5.15978e-05
8.06499e-05
-6.52756e-05
8.78163e-05
-8.00622e-05
8.81298e-05
-9.18625e-05
7.9757e-05
-9.76476e-05
6.51643e-05
-9.89651e-05
4.60453e-05
-9.91715e-05
2.63314e-05
-9.48746e-05
1.0371e-05
-8.31052e-05
5.43196e-07
-6.35199e-05
-4.94032e-06
-5.14546e-05
-9.81551e-06
-5.4058e-05
-1.4242e-05
-6.16426e-05
-1.98466e-05
-7.60646e-05
-2.33463e-05
-0.00010814
-1.95385e-05
-0.000137582
-1.82697e-06
-0.000166445
2.68279e-05
-0.000191171
6.20306e-05
-0.000198533
9.96282e-05
-0.000190633
0.000134443
-0.000166796
0.000157798
-0.000127044
0.00018376
-8.29502e-05
0.000212224
-3.96386e-05
0.000228709
-5.55032e-06
0.000228545
2.40172e-05
0.000215329
4.17977e-05
0.0002032
5.06018e-05
0.000190172
4.99977e-05
0.000167161
3.58943e-05
0.00012247
1.3301e-05
8.49453e-05
-6.91391e-06
5.95507e-05
-2.95793e-05
3.25472e-05
-6.63852e-05
1.31159e-06
-0.000111479
-2.32625e-05
-0.000145378
-2.87582e-05
-0.000157827
-2.79371e-05
-0.000129068
-2.95766e-05
-0.000118409
-3.64794e-05
-0.000117838
-4.57925e-05
-0.000152017
-4.99633e-05
-0.000161998
-5.0693e-05
-0.000149022
-5.0968e-05
-0.00012758
-5.14273e-05
-0.000107415
-7.99784e-05
-4.45452e-05
-7.07815e-05
1.36231e-05
-6.73236e-05
-3.6243e-07
-6.41677e-05
-1.30005e-05
-5.99215e-05
-2.30191e-05
-5.33209e-05
-2.70246e-05
-4.49266e-05
-2.39611e-05
-3.77671e-05
-1.61782e-05
-3.5705e-05
-9.14107e-06
-3.54531e-05
-3.28178e-06
-3.53927e-05
6.60671e-06
-3.65202e-05
2.18576e-05
-4.31915e-05
3.98279e-05
-6.24383e-05
6.32627e-05
-7.64427e-05
8.74389e-05
-8.09131e-05
9.75651e-05
-7.93735e-05
9.733e-05
-6.64379e-05
8.21478e-05
-5.05962e-05
5.80045e-05
-3.94732e-05
3.70983e-05
-3.63523e-05
2.54014e-05
-3.49872e-05
1.86525e-05
-3.38608e-05
1.47226e-05
-3.26641e-05
1.28963e-05
-3.13473e-05
1.24082e-05
-2.99974e-05
1.26059e-05
-2.86316e-05
1.31235e-05
-2.71926e-05
1.37075e-05
-2.55926e-05
1.42633e-05
-2.37438e-05
1.47985e-05
-2.15956e-05
1.53967e-05
-1.91436e-05
1.61883e-05
-1.63637e-05
1.72899e-05
-1.32573e-05
1.87796e-05
-9.84221e-06
2.07572e-05
-6.12441e-06
2.33785e-05
-1.90055e-06
2.67897e-05
2.82737e-06
3.11081e-05
7.90263e-06
3.68346e-05
1.3686e-05
4.38508e-05
2.04806e-05
5.25488e-05
2.87238e-05
6.34933e-05
3.8996e-05
7.78048e-05
5.25641e-05
9.63595e-05
6.91867e-05
0.000120034
8.78958e-05
0.000146197
0.000106173
0.000169726
0.000122092
0.000184167
0.000137053
0.000187237
0.000138281
0.000175653
0.000125909
0.000141929
9.14534e-05
9.60258e-05
7.13415e-05
6.32289e-05
6.423e-05
4.68057e-05
6.12895e-05
3.8107e-05
6.38922e-05
3.62403e-05
6.78453e-05
3.96189e-05
6.87563e-05
3.98848e-05
7.02283e-05
4.01059e-05
7.08323e-05
4.03372e-05
6.92455e-05
3.46368e-05
6.38631e-05
2.50945e-05
5.15549e-05
9.7177e-06
4.6936e-05
-1.47131e-06
4.59584e-05
-1.11156e-05
5.31853e-05
-2.07769e-05
5.836e-05
-3.00849e-05
6.14168e-05
-3.7575e-05
6.803e-05
-4.69318e-05
7.79602e-05
-6.13774e-05
8.53507e-05
-7.69211e-05
8.5308e-05
-8.87614e-05
7.63895e-05
-9.4044e-05
6.14288e-05
-9.55431e-05
4.21763e-05
-9.53086e-05
2.35737e-05
-8.92951e-05
9.36542e-06
-7.6429e-05
7.38212e-07
-5.78809e-05
-3.82228e-06
-4.66416e-05
-7.94677e-06
-4.92637e-05
-1.16856e-05
-5.65812e-05
-1.55176e-05
-6.80144e-05
-1.78237e-05
-9.08304e-05
-1.43725e-05
-0.000112468
-2.6788e-08
-0.00013784
2.59598e-05
-0.000165402
5.91734e-05
-0.000177825
9.50472e-05
-0.00017401
0.000129652
-0.000153029
0.000150898
-0.000116734
0.000173054
-7.29445e-05
0.000198947
-3.11909e-05
0.000225409
6.05687e-06
0.000234127
3.68442e-05
0.000227331
5.7175e-05
0.000215056
6.80178e-05
0.000203632
6.92138e-05
0.000186435
5.86477e-05
0.000157347
3.81788e-05
0.00012055
1.26865e-05
9.38953e-05
-1.29827e-05
6.77224e-05
-4.85857e-05
3.60938e-05
-9.2681e-05
5.09929e-06
-0.000131599
-1.62956e-05
-0.000155443
-1.98288e-05
-0.000140357
-2.23455e-05
-0.000117686
-2.6689e-05
-0.000112392
-3.654e-05
-0.000140644
-4.15155e-05
-0.000158275
-4.32161e-05
-0.0001458
-4.44866e-05
-0.000122942
-4.56584e-05
-0.00010067
-7.02227e-05
-4.06571e-05
-7.04655e-05
2.01002e-05
-7.00599e-05
2.69288e-06
-7.1391e-05
-1.22854e-05
-7.24986e-05
-2.55019e-05
-7.02702e-05
-3.36604e-05
-6.3734e-05
-3.36918e-05
-5.63524e-05
-2.64287e-05
-5.52398e-05
-1.89667e-05
-5.54713e-05
-1.27752e-05
-5.59534e-05
-2.23367e-06
-5.74905e-05
1.33596e-05
-6.36825e-05
3.20583e-05
-8.0494e-05
5.43029e-05
-9.02166e-05
7.47719e-05
-9.13824e-05
8.4838e-05
-8.79379e-05
8.57877e-05
-7.35819e-05
7.41846e-05
-5.61589e-05
5.27941e-05
-4.3812e-05
3.36998e-05
-3.9761e-05
2.20216e-05
-3.79993e-05
1.5162e-05
-3.67375e-05
1.10842e-05
-3.55876e-05
9.15695e-06
-3.44907e-05
8.66828e-06
-3.3397e-05
9.00227e-06
-3.23152e-05
9.63245e-06
-3.1158e-05
1.02608e-05
-2.98331e-05
1.07732e-05
-2.82626e-05
1.11812e-05
-2.64068e-05
1.15963e-05
-2.42178e-05
1.21421e-05
-2.16942e-05
1.29581e-05
-1.88866e-05
1.41634e-05
-1.58604e-05
1.58475e-05
-1.26382e-05
1.80825e-05
-9.20748e-06
2.09435e-05
-5.56899e-06
2.45156e-05
-1.5331e-06
2.90064e-05
2.78436e-06
3.45147e-05
7.48798e-06
4.11084e-05
1.28911e-05
4.90121e-05
1.94292e-05
5.88879e-05
2.73589e-05
7.10437e-05
3.70997e-05
8.51692e-05
4.77705e-05
0.000100023
5.85736e-05
0.000112479
6.89352e-05
0.000119753
7.74349e-05
0.000120673
7.84698e-05
0.00011161
7.06079e-05
9.20563e-05
6.13938e-05
7.07262e-05
5.69118e-05
5.67793e-05
5.54803e-05
4.86968e-05
5.72593e-05
4.56974e-05
6.28596e-05
4.9436e-05
6.51117e-05
5.06186e-05
6.67681e-05
5.03812e-05
6.89074e-05
5.11493e-05
6.89974e-05
4.8643e-05
6.71866e-05
4.03236e-05
5.74544e-05
2.68545e-05
4.78878e-05
1.07195e-05
4.53707e-05
1.07427e-06
4.75168e-05
-8.66133e-06
5.50215e-05
-1.74396e-05
5.74363e-05
-2.58891e-05
5.9395e-05
-3.34051e-05
6.59744e-05
-4.33751e-05
7.59204e-05
-5.77422e-05
8.28517e-05
-7.36092e-05
8.1746e-05
-8.54522e-05
7.19757e-05
-9.01983e-05
5.60764e-05
-9.1436e-05
3.5852e-05
-8.92925e-05
1.79643e-05
-7.96612e-05
6.40775e-06
-6.55973e-05
7.67355e-08
-4.92782e-05
-3.51669e-06
-4.13447e-05
-6.91871e-06
-4.43431e-05
-9.74539e-06
-5.1263e-05
-1.21419e-05
-5.9712e-05
-1.30235e-05
-7.31401e-05
-1.04824e-05
-8.78137e-05
7.56487e-07
-0.000110953
2.41037e-05
-0.000141371
5.5867e-05
-0.000159831
8.94951e-05
-0.000159445
0.000121343
-0.00014046
0.000139806
-0.000106827
0.000159654
-6.34055e-05
0.000181308
-2.34196e-05
0.000212877
1.67246e-05
0.000230513
4.85578e-05
0.000232586
7.34855e-05
0.000222311
8.5073e-05
0.000211034
8.79327e-05
0.000196951
8.07793e-05
0.000176609
6.24661e-05
0.000148895
3.6994e-05
0.000123279
8.56618e-06
9.79346e-05
-2.89563e-05
6.64877e-05
-7.3033e-05
3.21687e-05
-0.000113715
5.98526e-06
-0.000144792
-1.03622e-05
-0.000142275
-1.49163e-05
-0.000115849
-1.75318e-05
-0.000109092
-2.685e-05
-0.000129096
-3.27392e-05
-0.000153819
-3.56753e-05
-0.000142168
-3.82266e-05
-0.000118258
-4.00265e-05
-9.3315e-05
-5.90211e-05
-3.65232e-05
-6.95431e-05
2.31663e-05
-7.2298e-05
3.33042e-06
-7.73083e-05
-1.4059e-05
-8.33574e-05
-2.95539e-05
-8.6343e-05
-4.10304e-05
-8.23121e-05
-4.41593e-05
-7.47767e-05
-3.78062e-05
-7.51307e-05
-3.02884e-05
-7.67239e-05
-2.39784e-05
-7.81922e-05
-1.31664e-05
-8.07554e-05
2.30226e-06
-8.6902e-05
2.10127e-05
-9.93508e-05
4.15945e-05
-0.000103029
6.00398e-05
-0.000101137
7.03686e-05
-9.48057e-05
7.24897e-05
-7.91056e-05
6.35897e-05
-6.0665e-05
4.61337e-05
-4.81558e-05
2.95437e-05
-4.33721e-05
1.84049e-05
-4.06975e-05
1.16163e-05
-3.86689e-05
7.52243e-06
-3.74374e-05
5.51314e-06
-3.65331e-05
5.17636e-06
-3.57181e-05
5.71407e-06
-3.49301e-05
6.50092e-06
-3.40538e-05
7.18073e-06
-3.29759e-05
7.64952e-06
-3.16225e-05
7.95374e-06
-2.99241e-05
8.19847e-06
-2.78405e-05
8.51699e-06
-2.53892e-05
9.108e-06
-2.26697e-05
1.01464e-05
-1.97836e-05
1.17215e-05
-1.67932e-05
1.38343e-05
-1.37369e-05
1.65132e-05
-1.06264e-05
1.97666e-05
-7.42647e-06
2.36958e-05
-4.10326e-06
2.83401e-05
-5.67781e-07
3.36523e-05
3.14687e-06
3.98901e-05
7.31363e-06
4.70789e-05
1.21406e-05
5.53121e-05
1.77508e-05
6.41444e-05
2.4211e-05
7.27244e-05
3.11106e-05
7.97428e-05
3.8257e-05
8.39562e-05
4.40112e-05
8.44152e-05
4.62215e-05
7.93873e-05
4.67314e-05
7.08207e-05
4.69501e-05
6.25464e-05
4.74981e-05
5.65021e-05
4.98207e-05
5.42439e-05
5.60864e-05
5.787e-05
5.99828e-05
6.03734e-05
6.21756e-05
6.03447e-05
6.51245e-05
6.05949e-05
6.72005e-05
6.07758e-05
6.70636e-05
5.428e-05
6.27195e-05
4.36897e-05
5.07628e-05
2.52183e-05
4.57982e-05
1.23217e-05
4.45249e-05
3.53977e-06
5.00704e-05
-5.749e-06
5.52482e-05
-1.40356e-05
5.61341e-05
-2.21014e-05
5.79237e-05
-2.99344e-05
6.41346e-05
-3.94803e-05
7.27288e-05
-5.23783e-05
7.88863e-05
-6.73987e-05
7.77138e-05
-7.99782e-05
6.80358e-05
-8.5874e-05
5.19451e-05
-8.68831e-05
3.15117e-05
-8.38273e-05
1.36173e-05
-7.48683e-05
3.1392e-06
-6.10724e-05
-1.51317e-06
-4.54057e-05
-3.85162e-06
-3.85744e-05
-6.26967e-06
-4.11084e-05
-8.43273e-06
-4.68454e-05
-9.64282e-06
-5.18963e-05
-9.57983e-06
-5.70077e-05
-7.96473e-06
-6.64435e-05
1.15574e-06
-8.91626e-05
2.24733e-05
-0.000121964
5.30708e-05
-0.000145965
8.46624e-05
-0.000148742
0.000113873
-0.000130685
0.000130654
-9.93599e-05
0.000145456
-5.56545e-05
0.000163118
-1.62117e-05
0.000190222
2.25162e-05
0.000220991
5.84034e-05
0.000230093
8.74026e-05
0.0002257
0.000103009
0.00021412
0.000106532
0.00020152
0.000100674
0.000186251
8.61604e-05
0.000165781
6.19172e-05
0.000143819
3.21959e-05
0.000119491
-6.29571e-06
8.90083e-05
-5.14626e-05
5.5204e-05
-9.41272e-05
2.67878e-05
-0.000129172
4.57283e-06
-0.00013743
-6.35636e-06
-0.000111782
-1.00944e-05
-0.000105646
-1.75954e-05
-0.000118928
-2.40582e-05
-0.000148928
-2.8469e-05
-0.00013784
-3.24892e-05
-0.000113042
-3.5039e-05
-8.51885e-05
-4.81766e-05
-3.30237e-05
-6.93223e-05
2.29053e-05
-7.45468e-05
7.9152e-07
-8.20752e-05
-1.83493e-05
-9.13763e-05
-3.51426e-05
-9.84458e-05
-4.86312e-05
-9.77179e-05
-5.416e-05
-9.08048e-05
-4.94469e-05
-9.26732e-05
-4.20745e-05
-9.59397e-05
-3.54937e-05
-0.000100769
-2.52279e-05
-0.000105705
-1.12078e-05
-0.000108813
6.20673e-06
-0.000113565
2.60972e-05
-0.000111895
4.36498e-05
-0.000107382
5.46428e-05
-9.85683e-05
5.80833e-05
-8.23733e-05
5.1994e-05
-6.44329e-05
3.85968e-05
-5.21536e-05
2.47537e-05
-4.63033e-05
1.45942e-05
-4.19141e-05
7.77906e-06
-3.93418e-05
3.64919e-06
-3.8182e-05
1.92003e-06
-3.75019e-05
1.92243e-06
-3.70048e-05
2.78461e-06
-3.65582e-05
3.73736e-06
-3.59624e-05
4.42625e-06
-3.51094e-05
4.83016e-06
-3.38997e-05
4.98614e-06
-3.22872e-05
5.03789e-06
-3.02296e-05
5.1095e-06
-2.77031e-05
5.41873e-06
-2.48791e-05
6.32519e-06
-2.19162e-05
7.89809e-06
-1.89595e-05
1.01141e-05
-1.60487e-05
1.2902e-05
-1.31768e-05
1.61908e-05
-1.03514e-05
2.00114e-05
-7.61502e-06
2.44085e-05
-4.90652e-06
2.92061e-05
-2.08908e-06
3.45069e-05
8.90597e-07
4.02924e-05
4.17963e-06
4.64963e-05
7.96292e-06
5.27347e-05
1.2441e-05
5.84454e-05
1.74796e-05
6.3142e-05
2.29229e-05
6.63165e-05
2.78088e-05
6.74255e-05
3.18099e-05
6.6218e-05
3.53691e-05
6.36688e-05
3.79711e-05
6.08904e-05
4.17315e-05
6.08507e-05
4.82135e-05
6.46004e-05
5.33797e-05
6.83292e-05
5.66732e-05
6.93148e-05
5.9885e-05
6.93512e-05
6.34292e-05
7.00913e-05
6.50414e-05
6.73305e-05
6.47474e-05
5.81402e-05
5.57315e-05
4.25404e-05
4.67645e-05
2.38874e-05
4.45584e-05
1.37266e-05
4.51837e-05
5.15031e-06
5.22191e-05
-2.83667e-06
5.51514e-05
-1.11075e-05
5.56834e-05
-1.89463e-05
5.71321e-05
-2.66236e-05
6.07288e-05
-3.47831e-05
6.61316e-05
-4.4205e-05
7.16931e-05
-5.65958e-05
7.266e-05
-7.02208e-05
6.50428e-05
-7.95971e-05
5.09306e-05
-8.17079e-05
3.22367e-05
-7.95821e-05
1.4804e-05
-7.19391e-05
3.87843e-06
-5.87987e-05
-8.86954e-07
-4.37977e-05
-3.05679e-06
-3.69778e-05
-4.85482e-06
-3.90154e-05
-6.45006e-06
-4.42536e-05
-7.18563e-06
-4.81915e-05
-7.56136e-06
-4.93443e-05
-5.68332e-06
-5.23902e-05
2.57094e-06
-7.64061e-05
2.2518e-05
-0.000111311
5.22048e-05
-0.000137778
8.17694e-05
-0.000141782
0.000107743
-0.000123327
0.000124588
-9.20846e-05
0.000134052
-4.99919e-05
0.000148931
-1.07732e-05
0.000167778
2.69717e-05
0.000202634
6.55644e-05
0.000221056
9.88501e-05
0.000222822
0.000119101
0.000213714
0.000124571
0.000201946
0.000120563
0.000189076
0.000107458
0.000174339
8.51565e-05
0.000155909
5.51852e-05
0.000134041
1.64847e-05
0.000104451
-2.85869e-05
7.17396e-05
-7.34781e-05
4.41846e-05
-0.000112431
1.73133e-05
-0.000126611
2.46709e-06
-0.000106389
-3.61167e-06
-0.000100735
-8.87573e-06
-0.000109723
-1.57385e-05
-0.000143421
-2.18484e-05
-0.00013255
-2.75247e-05
-0.000106831
-3.12825e-05
-7.61555e-05
-3.90446e-05
-3.11775e-05
-7.02752e-05
1.99718e-05
-7.72661e-05
-4.37445e-06
-8.60926e-05
-2.42599e-05
-9.72972e-05
-4.11304e-05
-0.000107162
-5.53396e-05
-0.000109476
-6.25686e-05
-0.000102821
-6.00053e-05
-0.00010428
-5.28344e-05
-0.000108451
-4.58393e-05
-0.000115774
-3.66924e-05
-0.000125218
-2.48695e-05
-0.000125879
-9.02164e-06
-0.00012276
1.02041e-05
-0.000117215
2.76767e-05
-0.000110748
3.9402e-05
-0.000100274
4.40985e-05
-8.45407e-05
4.06585e-05
-6.78482e-05
3.08048e-05
-5.54213e-05
1.93206e-05
-4.7198e-05
9.82027e-06
-4.11121e-05
3.4587e-06
-3.85718e-05
-4.20722e-07
-3.75015e-05
-1.61591e-06
-3.70534e-05
-1.03193e-06
-3.69122e-05
2.59276e-07
-3.68722e-05
1.42078e-06
-3.66484e-05
2.07612e-06
-3.61663e-05
2.41402e-06
-3.52679e-05
2.42351e-06
-3.39327e-05
2.2887e-06
-3.22571e-05
2.236e-06
-2.97088e-05
1.97031e-06
-2.67892e-05
2.75113e-06
-2.35895e-05
4.25355e-06
-2.04473e-05
6.63387e-06
-1.73998e-05
9.54611e-06
-1.44257e-05
1.29123e-05
-1.1585e-05
1.69128e-05
-8.99724e-06
2.15273e-05
-6.58314e-06
2.63757e-05
-4.27451e-06
3.14618e-05
-1.92013e-06
3.66363e-05
6.10976e-07
4.19317e-05
3.52328e-06
4.70284e-05
7.03325e-06
5.16607e-05
1.11475e-05
5.56565e-05
1.56813e-05
5.87517e-05
2.02792e-05
6.07195e-05
2.45878e-05
6.14767e-05
2.84078e-05
6.18861e-05
3.33083e-05
6.4601e-05
4.00536e-05
6.96162e-05
4.57965e-05
7.40522e-05
5.02129e-05
7.65478e-05
5.38864e-05
7.7047e-05
5.8135e-05
7.76301e-05
6.15095e-05
7.76101e-05
6.31359e-05
7.09133e-05
6.04058e-05
5.91448e-05
4.95713e-05
3.87731e-05
4.49942e-05
2.36753e-05
4.42053e-05
1.49465e-05
4.71842e-05
6.51033e-06
5.38976e-05
-5.33072e-07
5.57161e-05
-8.88016e-06
5.57593e-05
-1.67482e-05
5.53329e-05
-2.35944e-05
5.47466e-05
-2.95156e-05
5.56036e-05
-3.51199e-05
5.9916e-05
-4.2305e-05
6.46481e-05
-5.57004e-05
6.18179e-05
-6.87331e-05
5.08329e-05
-7.49665e-05
3.56573e-05
-7.40534e-05
1.96101e-05
-6.89622e-05
7.44296e-06
-5.85808e-05
1.48517e-06
-4.45963e-05
-9.57469e-07
-3.73005e-05
-2.47183e-06
-3.84544e-05
-3.66141e-06
-4.25921e-05
-4.31281e-06
-4.61935e-05
-4.01476e-06
-4.71676e-05
-2.29261e-06
-4.86391e-05
6.5738e-06
-7.33847e-05
2.7179e-05
-0.000110708
5.51037e-05
-0.000137067
8.18297e-05
-0.000138378
0.000103905
-0.000117839
0.000118313
-8.54187e-05
0.000125159
-4.46744e-05
0.000137367
-5.93325e-06
0.000150563
3.21098e-05
0.000179855
6.97185e-05
0.000207907
0.000105885
0.000215172
0.00013251
0.000210398
0.000142513
0.00019869
0.000139015
0.000186882
0.00012597
0.00017592
0.000105698
0.000160742
7.6537e-05
0.000141516
3.78075e-05
0.000111802
-7.53372e-06
8.28876e-05
-5.47684e-05
5.75246e-05
-9.5555e-05
2.88407e-05
-0.000113534
1.01474e-05
-9.82748e-05
2.27677e-06
-9.44775e-05
-2.05674e-06
-0.000101755
-8.4074e-06
-0.000137536
-1.63809e-05
-0.000126127
-2.3771e-05
-9.94518e-05
-2.88414e-05
-6.64325e-05
-3.1718e-05
-3.0515e-05
-7.15662e-05
1.54977e-05
-8.04428e-05
-1.02325e-05
-8.94625e-05
-3.02875e-05
-0.000101223
-4.62444e-05
-0.000112333
-6.00619e-05
-0.000117442
-6.85333e-05
-0.000111938
-6.85072e-05
-0.000110431
-6.2102e-05
-0.000114577
-5.41062e-05
-0.000121846
-4.58853e-05
-0.000133585
-3.63896e-05
-0.000133593
-2.27144e-05
-0.000128409
-4.65882e-06
-0.0001216
1.25069e-05
-0.000113124
2.49365e-05
-0.00010143
3.084e-05
-8.61672e-05
2.95142e-05
-7.00493e-05
2.22901e-05
-5.6395e-05
1.27066e-05
-4.53817e-05
4.02416e-06
-3.87687e-05
-1.67998e-06
-3.61826e-05
-4.79415e-06
-3.53496e-05
-4.97728e-06
-3.54453e-05
-3.45849e-06
-3.62223e-05
-1.5042e-06
-3.7677e-05
2.32333e-07
-3.92754e-05
8.24605e-07
-4.10022e-05
1.01936e-06
-4.27655e-05
5.51003e-07
-4.48802e-05
-1.00839e-06
-4.60365e-05
-3.97376e-06
-4.26976e-05
-5.23419e-06
-3.75016e-05
-4.45655e-06
-3.05559e-05
-1.35613e-06
-2.47509e-05
4.17767e-06
-1.9988e-05
8.24848e-06
-1.5893e-05
1.15984e-05
-1.26247e-05
1.55265e-05
-9.96612e-06
1.9674e-05
-7.3944e-06
2.40231e-05
-5.02629e-06
2.91012e-05
-2.8477e-06
3.43407e-05
-7.08912e-07
3.95029e-05
1.62873e-06
4.4262e-05
4.52015e-06
4.84243e-05
8.03961e-06
5.21224e-05
1.193e-05
5.52341e-05
1.579e-05
5.7907e-05
1.97698e-05
6.12572e-05
2.55149e-05
6.64614e-05
3.20284e-05
7.2534e-05
3.79886e-05
7.76362e-05
4.31593e-05
8.1681e-05
4.74651e-05
8.31178e-05
5.1993e-05
8.38977e-05
5.66291e-05
8.45754e-05
5.95186e-05
8.21777e-05
6.1123e-05
7.26562e-05
5.48441e-05
5.68532e-05
4.63701e-05
3.54738e-05
4.4461e-05
2.34501e-05
4.47392e-05
1.55523e-05
4.9727e-05
7.65716e-06
5.51477e-05
5.46828e-07
5.66998e-05
-7.59112e-06
5.59489e-05
-1.51816e-05
5.28213e-05
-2.11889e-05
4.94205e-05
-2.62839e-05
4.64384e-05
-3.09025e-05
4.51801e-05
-3.51173e-05
5.22089e-05
-4.08613e-05
5.5175e-05
-5.46339e-05
4.9594e-05
-6.56689e-05
3.90823e-05
-6.83541e-05
2.71355e-05
-6.57621e-05
1.45633e-05
-6.01296e-05
6.28673e-06
-4.96387e-05
2.91957e-06
-4.0863e-05
1.1876e-06
-4.02492e-05
1.75878e-07
-4.25812e-05
-9.12206e-08
-4.54131e-05
4.56643e-07
-4.64189e-05
3.67503e-06
-4.8848e-05
1.45659e-05
-7.40229e-05
3.617e-05
-0.000113811
6.25248e-05
-0.000139349
8.52304e-05
-0.000136615
0.000103139
-0.00011329
0.000113274
-7.88267e-05
0.000118706
-3.93397e-05
0.0001287
-1.20858e-06
0.000139386
3.67396e-05
0.000157156
7.28151e-05
0.000190081
0.000110928
0.000203849
0.000144195
0.000202813
0.000157958
0.000192438
0.000155982
0.000181279
0.00014314
0.000171732
0.000123114
0.000159486
9.41852e-05
0.000141969
5.55017e-05
0.000113301
8.47097e-06
8.99182e-05
-3.80764e-05
6.73643e-05
-7.97131e-05
3.75113e-05
-9.90793e-05
1.69738e-05
-8.87216e-05
7.97938e-06
-8.77995e-05
3.45809e-06
-9.43182e-05
-2.59417e-06
-0.000130462
-1.2467e-05
-0.000118635
-2.16704e-05
-9.06506e-05
-2.79057e-05
-5.64857e-05
-2.61715e-05
-3.14635e-05
-7.18721e-05
1.10842e-05
-8.28496e-05
-1.49285e-05
-9.1663e-05
-3.51106e-05
-0.000102844
-4.98415e-05
-0.00011447
-6.26215e-05
-0.000122234
-7.19044e-05
-0.000120662
-7.4879e-05
-0.000113573
-6.9271e-05
-0.000116716
-6.08123e-05
-0.000122918
-5.2758e-05
-0.000135317
-4.52457e-05
-0.000137102
-3.41292e-05
-0.000132
-1.8577e-05
-0.000124399
-2.25716e-06
-0.000114328
1.0834e-05
-0.000101658
1.78622e-05
-8.61634e-05
1.82268e-05
-6.95852e-05
1.29075e-05
-5.42933e-05
4.84807e-06
-4.14922e-05
-2.61446e-06
-3.54339e-05
-7.54669e-06
-3.34977e-05
-9.16747e-06
-3.37248e-05
-7.69071e-06
-3.57985e-05
-5.03882e-06
-3.98642e-05
-2.64589e-06
-4.73948e-05
-7.85657e-07
-6.09431e-05
-2.39086e-06
-8.51066e-05
-6.80184e-06
-0.000110092
-1.37394e-05
-0.000123085
-1.92253e-05
-0.000122669
-2.37622e-05
-0.000110649
-2.46653e-05
-9.57628e-05
-2.09465e-05
-8.04751e-05
-1.40338e-05
-6.2311e-05
-1.85421e-06
-4.33357e-05
8.4145e-06
-2.77116e-05
1.8433e-05
-1.57037e-05
2.67256e-05
-8.0698e-06
3.12912e-05
-6.21297e-06
3.04664e-05
-4.46528e-06
3.0133e-05
-2.82479e-06
3.36985e-05
-1.11962e-06
3.80918e-05
7.10309e-07
4.2594e-05
2.90166e-06
4.68066e-05
5.78596e-06
5.17075e-05
9.3541e-06
5.73574e-05
1.38347e-05
6.3105e-05
1.9276e-05
6.8862e-05
2.50239e-05
7.44931e-05
3.0665e-05
7.99017e-05
3.60746e-05
8.44933e-05
4.09625e-05
8.74978e-05
4.56609e-05
8.86375e-05
5.07575e-05
8.95401e-05
5.51149e-05
8.92774e-05
5.81054e-05
8.38546e-05
5.86398e-05
7.17622e-05
5.0333e-05
5.2507e-05
4.54529e-05
3.37036e-05
4.50017e-05
2.30836e-05
4.62183e-05
1.54238e-05
5.25419e-05
8.15637e-06
5.68494e-05
7.22268e-07
5.74406e-05
-7.1781e-06
5.57991e-05
-1.42706e-05
5.17653e-05
-2.02671e-05
4.84218e-05
-2.52805e-05
4.51611e-05
-2.97657e-05
4.17565e-05
-3.35123e-05
4.06978e-05
-3.68827e-05
4.62443e-05
-4.25782e-05
4.65455e-05
-5.53916e-05
4.06347e-05
-6.25116e-05
3.30365e-05
-6.22864e-05
2.51241e-05
-5.93312e-05
1.51511e-05
-5.615e-05
9.07651e-06
-4.84244e-05
6.23153e-06
-4.47859e-05
4.93705e-06
-4.46195e-05
4.78605e-06
-4.63967e-05
5.90978e-06
-4.79486e-05
1.00544e-05
-5.08726e-05
2.41912e-05
-7.88505e-05
4.75478e-05
-0.000120407
7.18187e-05
-0.000142477
9.01855e-05
-0.000134368
0.000103875
-0.000108026
0.000109109
-7.19844e-05
0.000114053
-3.35019e-05
0.000121246
4.09594e-06
0.000129845
4.18185e-05
0.000140612
7.77815e-05
0.000170032
0.000114736
0.000189312
0.000152817
0.000191527
0.00017112
0.000183665
0.000171137
0.000172641
0.000158308
0.000162914
0.000137095
0.000151492
0.000107021
0.00013517
6.82286e-05
0.000111238
2.08998e-05
9.31059e-05
-2.4611e-05
7.34935e-05
-6.59791e-05
4.2621e-05
-8.51882e-05
2.2014e-05
-7.90837e-05
1.24795e-05
-8.08131e-05
8.32954e-06
-8.77414e-05
1.53601e-06
-0.000122164
-1.02739e-05
-0.00011006
-2.14237e-05
-8.01948e-05
-2.89114e-05
-4.67717e-05
-2.10166e-05
-3.42385e-05
-6.96423e-05
8.71387e-06
-8.29459e-05
-1.70557e-05
-9.25992e-05
-3.76807e-05
-0.000102217
-5.21926e-05
-0.000113755
-6.30073e-05
-0.000123558
-7.25065e-05
-0.000126329
-7.74917e-05
-0.00011788
-7.52519e-05
-0.000114734
-6.75256e-05
-0.000118017
-5.74884e-05
-0.000128899
-5.03703e-05
-0.000136407
-4.20842e-05
-0.000132491
-3.0987e-05
-0.000124817
-1.63716e-05
-0.000114032
-3.28179e-06
-0.000100272
4.81073e-06
-8.41203e-05
6.5163e-06
-6.65213e-05
2.59387e-06
-4.94257e-05
-4.30904e-06
-3.68746e-05
-9.42977e-06
-3.29539e-05
-1.32442e-05
-3.31257e-05
-1.26541e-05
-3.74575e-05
-9.66536e-06
-4.92837e-05
-5.93676e-06
-7.55028e-05
-5.07521e-06
-0.000126431
-8.25609e-06
-0.00017199
-1.1401e-05
-0.000193679
-1.58632e-05
-0.000191573
-2.25324e-05
-0.000178412
-2.61389e-05
-0.000154701
-2.65354e-05
-0.000116366
-2.39516e-05
-8.11662e-05
-1.9931e-05
-6.07552e-05
-1.5158e-05
-4.48294e-05
-7.84203e-06
-3.65919e-05
2.79752e-06
-2.72892e-05
1.46387e-05
-2.0236e-05
2.99823e-05
-1.40879e-05
4.32227e-05
-5.85632e-06
5.33583e-05
-2.25347e-06
5.08432e-05
-1.81299e-06
4.31378e-05
-9.47529e-07
4.08848e-05
4.04051e-07
4.37371e-05
2.14802e-06
4.83905e-05
5.28854e-06
5.53267e-05
9.29671e-06
6.25135e-05
1.40059e-05
6.95405e-05
1.91535e-05
7.59653e-05
2.42958e-05
8.14932e-05
2.94854e-05
8.61058e-05
3.46257e-05
8.97276e-05
3.95536e-05
9.17327e-05
4.46799e-05
9.28448e-05
4.98189e-05
9.32644e-05
5.36798e-05
9.13205e-05
5.68893e-05