/*--------------------------------*- C++ -*----------------------------------*\
  =========                 |
  \\      /  F ield         | OpenFOAM: The Open Source CFD Toolbox
   \\    /   O peration     | Website:  https://openfoam.org
    \\  /    A nd           | Version:  10
     \\/     M anipulation  |
\*---------------------------------------------------------------------------*/
FoamFile
{
    format      ascii;
    class       volScalarField;
    location    "0.699165";
    object      T;
}
// * * * * * * * * * * * * * * * * * * * * * * * * * * * * * * * * * * * * * //

dimensions      [0 0 0 1 0 0 0];

internalField   nonuniform List<scalar> 
16320
(
0.005411
0.00580422
0.00634753
0.00699
0.00799417
0.00933584
0.0105129
0.0109671
0.011058
0.0109242
0.0101955
0.00805297
0.00529117
0.00445592
0.00455131
0.00525478
0.00692833
0.00948755
0.0118378
0.0126193
0.0128053
0.0128412
0.0128283
0.0127684
0.0126686
0.012528
0.0123429
0.0121228
0.011851
0.011533
0.0111486
0.0107066
0.0101899
0.00955035
0.00886037
0.00806114
0.00721839
0.00631445
0.00537822
0.00454622
0.00383505
0.00324361
0.00274853
0.00232965
0.00199933
0.00178559
0.0016951
0.00163341
0.0017155
0.00182985
0.00245584
0.0034761
0.00561995
0.00857093
0.0104428
0.0106576
0.00981829
0.00824975
0.00756511
0.00679093
0.0062726
0.00627866
0.00685822
0.00809828
0.00824353
0.00766298
0.00603907
0.00495605
0.00414141
0.0035675
0.00319919
0.00303912
0.0030331
0.00309141
0.00335965
0.00432329
0.00719869
0.0107687
0.0118755
0.0110791
0.00754427
0.00443223
0.00309836
0.00248704
0.00226193
0.00217978
0.00217034
0.00224096
0.00226643
0.00220765
0.00219969
0.0022344
0.00236585
0.00243689
0.00234589
0.00228789
0.00250458
0.00345088
0.00379522
0.0035794
0.00339716
0.00358314
0.00460722
0.00615033
0.00669989
0.00653539
0.00452767
0.0030071
0.00251369
0.00233811
0.00229718
0.00233659
0.00266652
0.00492527
0.00517634
0.00555798
0.00611506
0.00713177
0.0085433
0.0100305
0.0106653
0.0108363
0.0108462
0.0104784
0.00913777
0.00640179
0.00486339
0.00461435
0.00500018
0.00624661
0.00848605
0.0111714
0.0124259
0.0127805
0.0128574
0.0128613
0.0128222
0.0127422
0.012629
0.0124764
0.0122942
0.0120962
0.0118512
0.0115528
0.0111899
0.0107508
0.0102336
0.00963116
0.0089345
0.00817198
0.00731885
0.00641898
0.00557321
0.00479377
0.00408735
0.00345597
0.00289804
0.00244691
0.00214338
0.00200003
0.00196226
0.00193235
0.00220769
0.00250468
0.00410073
0.0067893
0.00970569
0.010726
0.0104452
0.00892321
0.00790904
0.00722411
0.00645855
0.0062078
0.00637883
0.0074827
0.00841229
0.00831765
0.00716635
0.00585796
0.004974
0.00420462
0.00359835
0.00320734
0.00303881
0.00303151
0.00308584
0.00332253
0.00411569
0.00649899
0.0102084
0.0117796
0.0113633
0.00842142
0.00499407
0.00342348
0.00265542
0.00233756
0.00222911
0.00218787
0.00222841
0.0023434
0.00232219
0.00224193
0.00223926
0.00230208
0.00242146
0.00241363
0.00232746
0.00237823
0.00287798
0.00344466
0.00331347
0.00304171
0.00306417
0.00358785
0.00516711
0.0067067
0.00688651
0.0054179
0.00336439
0.00270721
0.00246603
0.00240056
0.00241419
0.0026938
0.00474019
0.00493858
0.00521956
0.00563338
0.00640796
0.00761225
0.00911151
0.00996771
0.010232
0.0103239
0.0102293
0.00918833
0.00691871
0.00519091
0.00479891
0.0049518
0.00588673
0.0078634
0.0105973
0.0122657
0.0127518
0.0128637
0.0128807
0.0128609
0.0128044
0.0127228
0.0126196
0.0124998
0.0123669
0.0121933
0.0119726
0.0117045
0.0113763
0.0109734
0.010483
0.00990499
0.00923821
0.0084695
0.00763508
0.00679997
0.0059815
0.0051835
0.0044159
0.00371252
0.00314006
0.00276099
0.00258553
0.00254811
0.00263574
0.00265936
0.0037704
0.00551804
0.00883896
0.0106517
0.0107506
0.00973185
0.00826702
0.00758167
0.0068302
0.00624023
0.00620197
0.00667982
0.00814225
0.00859525
0.00815193
0.00668885
0.00579786
0.0051266
0.00434951
0.00367908
0.00324781
0.00306621
0.00305748
0.00311153
0.00333824
0.00408434
0.00630745
0.0100127
0.011771
0.0115291
0.00903527
0.00562079
0.00386273
0.00290006
0.00245643
0.00229552
0.00223895
0.00224905
0.00238382
0.00243339
0.00235317
0.00227324
0.00228593
0.0023786
0.0024328
0.0023816
0.0023649
0.00251115
0.00302796
0.00309531
0.00287863
0.002817
0.0031362
0.00403101
0.00633354
0.00706935
0.00617089
0.00375258
0.00288809
0.00260625
0.00252672
0.00253015
0.0027937
0.00466466
0.00485852
0.00508662
0.00542472
0.00604099
0.00700407
0.00837319
0.00922393
0.00947262
0.00955023
0.00953439
0.00885505
0.00687559
0.00535612
0.00497364
0.00500774
0.00577025
0.00759035
0.0103838
0.0121649
0.0126929
0.0128491
0.0128847
0.0128869
0.0128619
0.0128161
0.0127523
0.012674
0.0125872
0.0124845
0.012357
0.0121901
0.0119807
0.0117129
0.0113767
0.0109448
0.0104209
0.00978827
0.00906726
0.00829929
0.00749445
0.00664554
0.00577565
0.0049594
0.00430466
0.0038858
0.00370529
0.00370072
0.00383323
0.00444908
0.00576014
0.0084981
0.0105421
0.0109535
0.0103672
0.00875152
0.00787478
0.00721293
0.00643979
0.00614897
0.00628511
0.00735083
0.00862866
0.00868133
0.0077641
0.00646752
0.00597294
0.00539984
0.00449485
0.0037512
0.00330525
0.00313663
0.00313752
0.00320585
0.00345819
0.0041907
0.00632142
0.0099816
0.0118125
0.0117302
0.00972124
0.0064688
0.00449077
0.00327247
0.0026396
0.002396
0.00230741
0.00231297
0.00243752
0.00256142
0.00252972
0.00236883
0.00231221
0.00234025
0.00242503
0.00241788
0.00237794
0.00240671
0.00262332
0.00274398
0.00267319
0.00266501
0.00289342
0.00347109
0.00547489
0.00709071
0.0068745
0.00423541
0.00304811
0.00272901
0.00265178
0.00266827
0.00297024
0.00462574
0.00482325
0.00503892
0.0053232
0.0057748
0.0065534
0.00774541
0.00849692
0.00868212
0.00872349
0.00865368
0.00804208
0.0065809
0.00538345
0.00510372
0.00513688
0.00577922
0.00747818
0.0100874
0.0118866
0.0125355
0.012763
0.0128742
0.0129078
0.0129091
0.0128864
0.0128537
0.0128173
0.0127769
0.0127257
0.0126614
0.0125793
0.0124721
0.0123321
0.0121372
0.0118744
0.0115279
0.011082
0.0105403
0.00992323
0.00922978
0.00842967
0.00758042
0.00677275
0.00613481
0.00574269
0.00560185
0.0056583
0.00602376
0.00708709
0.00893204
0.0106043
0.0110964
0.0107362
0.00927942
0.00813601
0.00749473
0.00677487
0.00619308
0.00614508
0.00658955
0.00815186
0.0088973
0.00862508
0.00727775
0.00643938
0.00614164
0.00554292
0.00456389
0.00378622
0.00335698
0.00323486
0.0032533
0.0033806
0.00377214
0.00462508
0.00674711
0.0101687
0.0120106
0.0120569
0.0105618
0.00772917
0.00548007
0.00385249
0.0029277
0.0025436
0.00240711
0.00241514
0.00254798
0.00271752
0.00270708
0.00254646
0.00235757
0.00234293
0.00239297
0.00243461
0.00241017
0.00239824
0.00244145
0.00248849
0.00247287
0.00251768
0.00276681
0.00322975
0.0045978
0.00707097
0.00721412
0.00480127
0.00318976
0.0028281
0.00276035
0.0028182
0.00323836
0.0046001
0.00480789
0.0050376
0.00527972
0.00556581
0.00611927
0.00716447
0.00778863
0.00789813
0.00789137
0.00768545
0.007114
0.00608149
0.00535868
0.00518813
0.00524928
0.00585688
0.00745061
0.00980942
0.0114354
0.0121123
0.0125936
0.012879
0.0129484
0.0129561
0.0129454
0.0129239
0.0128984
0.0128723
0.0128488
0.0128231
0.0127899
0.0127504
0.0126893
0.0126069
0.012489
0.0123136
0.0120675
0.0117397
0.0113382
0.0108482
0.0102392
0.00957811
0.00895878
0.00847274
0.00818759
0.00812771
0.00828412
0.00885363
0.00993094
0.0109297
0.0112306
0.0109321
0.0097039
0.00837381
0.00768826
0.00707571
0.00636028
0.00609165
0.00623078
0.00730358
0.00877245
0.00901348
0.00841321
0.00703695
0.00660333
0.00631127
0.00564246
0.00470049
0.00391793
0.00347773
0.00335331
0.00338193
0.00357901
0.00407955
0.0051127
0.00742761
0.0105083
0.0122361
0.012512
0.0117227
0.00963881
0.00700271
0.00472552
0.00335563
0.0027451
0.0025244
0.0025237
0.00262733
0.00288177
0.00290911
0.00281427
0.00248973
0.00236536
0.00237311
0.00242924
0.00243676
0.00240788
0.0023987
0.00238595
0.00238754
0.00245215
0.00271186
0.003112
0.00416701
0.00681448
0.00738591
0.0052909
0.00330769
0.00290083
0.00284502
0.00296777
0.00357305
0.00457054
0.00478552
0.00504382
0.00526424
0.00544163
0.00582302
0.0066577
0.00718828
0.00725607
0.0071132
0.00670286
0.00626183
0.00574906
0.0053989
0.00533135
0.00543316
0.00603449
0.00744106
0.00946404
0.0109588
0.011714
0.0126301
0.0129326
0.0129828
0.0129839
0.0129631
0.0129312
0.0129026
0.0128821
0.0128655
0.0128495
0.0128296
0.0128103
0.0127852
0.0127627
0.0127274
0.0126717
0.0125851
0.0124473
0.0122526
0.0119861
0.0116357
0.0112461
0.0108859
0.0106312
0.0104956
0.0104995
0.010659
0.0110388
0.0113883
0.011394
0.0110208
0.00993408
0.00860211
0.00781644
0.00726296
0.00662547
0.00611285
0.00608654
0.00655923
0.00816951
0.0090881
0.00902146
0.0079961
0.00705609
0.00675126
0.00643816
0.00586735
0.00513349
0.00436648
0.00378967
0.00353496
0.00352672
0.0036773
0.00413554
0.00520248
0.00756286
0.0105441
0.0122712
0.0126826
0.0125642
0.0116925
0.00923729
0.00589663
0.00390458
0.00300012
0.00266152
0.00263459
0.00270776
0.00298448
0.00307645
0.00303123
0.00272412
0.00242599
0.00238287
0.00241454
0.00245329
0.00243919
0.00239989
0.00236343
0.00236511
0.0024331
0.00269814
0.00307531
0.00398201
0.00644359
0.00744446
0.0057207
0.00339467
0.0029553
0.00292282
0.00312543
0.00388691
0.0045151
0.00473473
0.00502788
0.00523072
0.00533379
0.00558039
0.00623046
0.00679563
0.00687867
0.00667875
0.00609299
0.00568059
0.00553224
0.00547268
0.0054699
0.00562344
0.00619156
0.00737281
0.00900061
0.0104684
0.0118016
0.0127119
0.0129401
0.0129717
0.0129669
0.0129352
0.0128856
0.0128255
0.012767
0.0127272
0.0126778
0.0126378
0.0126273
0.0126254
0.0126502
0.0126718
0.0126763
0.0126717
0.0126541
0.0126103
0.0125278
0.0123862
0.0122135
0.0120437
0.0119053
0.0118378
0.0118039
0.0117939
0.0117477
0.0115577
0.0110525
0.00995565
0.00877622
0.0079059
0.0073741
0.00683575
0.00625454
0.00601655
0.00616287
0.00721767
0.00877074
0.009192
0.00891656
0.00773049
0.0070829
0.00689344
0.00667952
0.00646014
0.00614864
0.00545988
0.00452843
0.00392234
0.00374131
0.00378501
0.00410908
0.00506732
0.00733086
0.0102237
0.0120471
0.0126851
0.0127581
0.012404
0.0106707
0.00667976
0.00422248
0.00318445
0.00279608
0.00274897
0.0028135
0.00307394
0.00320733
0.00319251
0.00300435
0.00255182
0.00240728
0.00241032
0.00245717
0.00246906
0.00243012
0.00237213
0.00237499
0.00247589
0.00280058
0.00308465
0.003897
0.00628148
0.00743717
0.00606059
0.00345487
0.00298533
0.00299497
0.00330221
0.00416458
0.0044281
0.00462215
0.00493858
0.00515066
0.00524061
0.0053942
0.00586164
0.00651505
0.00667766
0.00653459
0.00591203
0.00552762
0.00545444
0.00545138
0.00550559
0.00571116
0.00623023
0.0072243
0.0086377
0.0102875
0.0119787
0.0127014
0.0128604
0.0128763
0.0128385
0.0127138
0.0124527
0.012068
0.0115577
0.0108135
0.00981823
0.00936278
0.00934001
0.00973714
0.0103369
0.0110287
0.0116264
0.0121142
0.0124467
0.0125697
0.0125968
0.0125799
0.0125274
0.0124435
0.012306
0.0121354
0.011996
0.011845
0.0115848
0.0109839
0.00989406
0.00882992
0.00796782
0.00742643
0.00695615
0.00643395
0.00602283
0.00599412
0.00640995
0.0079273
0.00903172
0.00917998
0.00874243
0.00767105
0.00718098
0.00703335
0.00711268
0.00738327
0.00747906
0.00726451
0.00612935
0.00478716
0.00416157
0.00401625
0.00411639
0.00467614
0.00650226
0.00930406
0.011316
0.0123836
0.0127166
0.0124983
0.0110208
0.00698898
0.00434889
0.00325829
0.00288782
0.00283984
0.00291195
0.00314599
0.00329484
0.00329677
0.00320168
0.00276718
0.00246273
0.00242008
0.00245374
0.00249535
0.00247653
0.00241529
0.00242831
0.00259248
0.00289682
0.00313046
0.00388133
0.00622456
0.00739086
0.00621316
0.00350284
0.00300417
0.00307234
0.00350838
0.00437953
0.00431407
0.00445694
0.00476183
0.0050344
0.0051401
0.00522529
0.00551307
0.00620746
0.00655123
0.00652627
0.00595638
0.00548165
0.00538494
0.00538325
0.00547978
0.00571504
0.00621319
0.00711862
0.00849756
0.0103542
0.0120126
0.0125233
0.0125901
0.01247
0.0120064
0.0109851
0.00913638
0.00666981
0.0046326
0.00373571
0.00336448
0.00325209
0.00325252
0.00331973
0.00358015
0.00409683
0.00496241
0.0063167
0.00854757
0.0110512
0.0121102
0.012438
0.0124976
0.0124415
0.0122716
0.0119243
0.0115356
0.0111204
0.010484
0.00958558
0.0087098
0.00798532
0.00739888
0.00699891
0.00656042
0.00612531
0.00591794
0.0060165
0.0067833
0.00837686
0.00908233
0.00908147
0.00853127
0.0075879
0.00731797
0.00735169
0.00763095
0.00792461
0.00801307
0.00798494
0.00763091
0.00623303
0.00487509
0.00434808
0.0042672
0.00448976
0.00538686
0.00770968
0.00996989
0.0115923
0.0122773
0.0122049
0.0110351
0.00708416
0.00437925
0.0032811
0.0029461
0.00291232
0.00300807
0.00320571
0.00335138
0.00337059
0.00332209
0.00298833
0.00255124
0.00244019
0.00245495
0.00251675
0.00251856
0.00251339
0.00254971
0.00276468
0.00298081
0.00318275
0.00397513
0.00630764
0.00735443
0.00625355
0.00352185
0.00301967
0.00315724
0.00371014
0.00447158
0.00417642
0.00426591
0.00449987
0.00485131
0.00501052
0.00508672
0.00524941
0.00575586
0.00647242
0.00664558
0.00635873
0.00561741
0.00537924
0.00535176
0.0054309
0.00569044
0.0061875
0.00707095
0.00849752
0.010596
0.0118117
0.0120095
0.0116905
0.0104228
0.00793427
0.00492581
0.00331535
0.00272786
0.0025508
0.00252796
0.00260551
0.00287073
0.0033668
0.00360783
0.00363233
0.00362119
0.00377062
0.00402339
0.00447606
0.00562174
0.00827343
0.0109724
0.0119503
0.01211
0.0118575
0.0110333
0.0101798
0.0094655
0.00887079
0.00834347
0.00781829
0.0073264
0.00694208
0.00659994
0.0062229
0.00592536
0.00586948
0.0060803
0.00707835
0.00849099
0.00898718
0.00892558
0.00833443
0.00768648
0.00757454
0.00764454
0.00790706
0.00808946
0.00815207
0.00815694
0.00807615
0.00752449
0.00590403
0.00481795
0.00448634
0.00449937
0.00485552
0.00609468
0.00832415
0.0104007
0.0114611
0.0113793
0.0103108
0.00655822
0.00412596
0.00323509
0.00299387
0.00298867
0.00311884
0.0032612
0.00337819
0.00341026
0.00338648
0.00316331
0.00265165
0.00246837
0.00246463
0.00252606
0.00257159
0.0026002
0.0026891
0.0029336
0.00305277
0.00323406
0.00411691
0.00647388
0.00730062
0.00616647
0.00347355
0.00304175
0.00327183
0.00390653
0.0045144
0.00400963
0.00406684
0.00419548
0.00451307
0.00482074
0.00495035
0.00504545
0.00531212
0.006058
0.00675454
0.00687534
0.00629416
0.00558818
0.00544107
0.00544575
0.00566993
0.00620558
0.00715702
0.00883541
0.0107782
0.0112918
0.0109455
0.00906736
0.00579277
0.00355183
0.00275413
0.00255884
0.00255406
0.0027938
0.00353315
0.0046589
0.00600006
0.00686301
0.00714034
0.00719606
0.00671119
0.00562867
0.00467757
0.00430732
0.00423388
0.004818
0.00675975
0.00940353
0.0105819
0.0105375
0.00980033
0.00905187
0.00839648
0.00786929
0.00744839
0.00711035
0.00680894
0.00655036
0.00625614
0.00597479
0.00581233
0.00582848
0.00611129
0.00720037
0.00844469
0.00877177
0.0086841
0.00817484
0.00779342
0.00776417
0.00784236
0.00803309
0.00813839
0.0081833
0.00819231
0.00816632
0.00797427
0.00698658
0.00542892
0.00473912
0.00459503
0.00472307
0.00529171
0.00686782
0.00917041
0.0104052
0.0103524
0.00902768
0.00542108
0.00366793
0.00314106
0.00304055
0.00307375
0.0032264
0.00329619
0.00337593
0.00341316
0.00340279
0.00326222
0.00277688
0.00250924
0.00248108
0.00253658
0.00260912
0.00267334
0.00285837
0.00304284
0.00310234
0.00329374
0.00444333
0.00672321
0.00721876
0.0058952
0.00340252
0.00306989
0.00339717
0.00400562
0.00452649
0.00380529
0.00386175
0.00388991
0.00405395
0.00445708
0.00476041
0.0048999
0.00502722
0.00537091
0.00632186
0.00713083
0.0072847
0.00654165
0.00587452
0.00575411
0.00582554
0.00636123
0.0075468
0.00957868
0.0106433
0.0105675
0.00878998
0.00535467
0.00336598
0.00275478
0.00265067
0.00275924
0.00335419
0.00459951
0.00587116
0.00642232
0.00677189
0.00704933
0.00721893
0.00737124
0.00743796
0.00741986
0.00682633
0.00550262
0.0043812
0.00401372
0.00462559
0.00639314
0.00795864
0.00871038
0.00862521
0.00819235
0.00766972
0.00723926
0.00688625
0.00660887
0.00639171
0.00620615
0.00599445
0.00580645
0.00574577
0.00579786
0.00612398
0.0072259
0.00827479
0.00851628
0.00843265
0.00809435
0.00793003
0.0079303
0.00797948
0.00808153
0.00814666
0.00817105
0.00817901
0.00816795
0.00807989
0.00765297
0.00619428
0.00508506
0.00473349
0.00473254
0.00500033
0.00593936
0.00814201
0.00943205
0.00926279
0.00738949
0.00433157
0.00334569
0.00310889
0.00310548
0.00319158
0.00327921
0.00330118
0.00333602
0.00339642
0.00339518
0.00327748
0.00282247
0.00253667
0.00250047
0.00255132
0.00263744
0.00278157
0.00302012
0.00309902
0.00312666
0.00339654
0.00493957
0.00684566
0.0070935
0.0055892
0.00330518
0.00311165
0.00352229
0.00404818
0.00451254
0.00349151
0.00362968
0.00362648
0.00364425
0.0038688
0.00436075
0.00470545
0.00489358
0.00505636
0.00543319
0.00655318
0.00770949
0.00799531
0.00745593
0.00677738
0.00666725
0.00698933
0.00839073
0.0100917
0.0103789
0.0092531
0.00598343
0.00358901
0.00285758
0.0027367
0.00285154
0.00347454
0.00458753
0.00513045
0.00540006
0.00602568
0.00674387
0.00692129
0.00685144
0.00660919
0.00657252
0.00675094
0.00683242
0.00612146
0.00456868
0.00385826
0.00393815
0.00494706
0.00625337
0.00714148
0.007465
0.00737411
0.00711099
0.00680896
0.00653421
0.00631396
0.00614047
0.00597908
0.00582432
0.00571183
0.00570187
0.00577565
0.00613823
0.0072257
0.00808389
0.00827729
0.00823577
0.00808371
0.00800936
0.00800828
0.00803682
0.00806542
0.00805879
0.00803102
0.00803137
0.00805084
0.00804956
0.00788097
0.00700262
0.00555588
0.00493126
0.00480849
0.00493864
0.00555267
0.0074778
0.00858243
0.00821526
0.00564697
0.00364703
0.003216
0.00314705
0.00320262
0.00325767
0.00326823
0.0032492
0.00326106
0.00333702
0.00336894
0.00326047
0.00281601
0.00254823
0.0025206
0.00256889
0.00270058
0.0029237
0.00311348
0.00312155
0.00315374
0.00364338
0.0056489
0.00691144
0.00691041
0.00514716
0.00320939
0.0031715
0.0036505
0.00406869
0.00453532
0.00283746
0.00333725
0.00339662
0.00336852
0.0033754
0.00362688
0.00422045
0.00470258
0.00493246
0.00509081
0.0054476
0.0066799
0.00846503
0.00901262
0.00910565
0.00874996
0.00876415
0.00958914
0.0102408
0.00984936
0.00741194
0.00423683
0.00304481
0.00279272
0.00280719
0.00317328
0.00393948
0.00436787
0.0046149
0.00550008
0.00663049
0.00685189
0.00674064
0.00612341
0.00539617
0.00516221
0.00518504
0.00541085
0.00542826
0.0043503
0.0038297
0.00381808
0.00440688
0.00531759
0.00604151
0.00637537
0.00650784
0.00648633
0.00638381
0.00624326
0.00609997
0.00596026
0.00581991
0.0057201
0.00566859
0.00567511
0.00577852
0.00620971
0.00731223
0.00799355
0.00814807
0.00814182
0.00809112
0.00804189
0.00802825
0.00800199
0.0079368
0.00782372
0.00776476
0.0077667
0.00782284
0.00793139
0.00789541
0.00750257
0.00613008
0.00518109
0.00491987
0.00495655
0.00544493
0.00716014
0.00786474
0.00712046
0.00429395
0.00333461
0.00318582
0.00323176
0.00327939
0.00326543
0.00322092
0.00313372
0.00315359
0.00326403
0.00332274
0.00321081
0.002784
0.00255602
0.00254367
0.00260119
0.0028012
0.00305025
0.00313803
0.00311504
0.00321808
0.00419104
0.00629573
0.00686397
0.00669359
0.00468619
0.00314093
0.00326317
0.00376445
0.00403923
0.00448219
0.0023275
0.00271703
0.00303526
0.00307183
0.00304987
0.00305464
0.00336298
0.0041859
0.00476693
0.0050057
0.00512421
0.00540911
0.00672538
0.00921771
0.0100244
0.0102974
0.0103578
0.0104096
0.0102347
0.00891476
0.00563524
0.00344752
0.00282194
0.00272626
0.0028207
0.00323296
0.00368998
0.00389331
0.00453547
0.00608936
0.00674934
0.00678373
0.00640766
0.00567971
0.00504759
0.00467623
0.00451593
0.00444356
0.00441108
0.00407778
0.00388672
0.00387771
0.00427992
0.00486334
0.00531725
0.00557488
0.00574001
0.00585704
0.00590777
0.0058982
0.00585455
0.00578971
0.00571411
0.00564471
0.00562824
0.00566958
0.00584572
0.00653367
0.00758246
0.00803928
0.008134
0.00812704
0.00807801
0.00799557
0.00789964
0.00774282
0.00756864
0.0074392
0.00740541
0.00741655
0.00756652
0.00780779
0.00784621
0.00766529
0.00666549
0.00544164
0.00502527
0.00500656
0.00544468
0.00702462
0.00718637
0.00579118
0.0035687
0.00321558
0.00324686
0.0033211
0.00329225
0.00319168
0.00297435
0.0029726
0.00303073
0.00323483
0.00326427
0.00307389
0.0026971
0.00256335
0.00256958
0.0026692
0.00294025
0.00312136
0.00310841
0.00308434
0.00343037
0.00521369
0.00654517
0.00667177
0.00636538
0.00423461
0.00311567
0.00339908
0.00380116
0.00398932
0.00438715
0.00215767
0.00227902
0.00254998
0.00273218
0.00275362
0.00274382
0.00278528
0.0032081
0.00437863
0.00494746
0.00509923
0.00513319
0.00535917
0.00695563
0.00980973
0.0105753
0.010699
0.0106057
0.0099009
0.00772136
0.00444902
0.00302217
0.00266614
0.00262809
0.00274529
0.00304144
0.00324664
0.00354092
0.00465409
0.00625827
0.00662752
0.00656264
0.0060988
0.00550248
0.00509494
0.00486952
0.00465434
0.00444666
0.00427013
0.00418333
0.00412462
0.00411882
0.00428394
0.00465935
0.00489003
0.00507384
0.00523589
0.00538062
0.005514
0.00559281
0.00562755
0.00562347
0.00559938
0.00559028
0.00562094
0.00572906
0.00618809
0.00728541
0.00794892
0.00813172
0.00813279
0.00806454
0.00790584
0.00768828
0.00744545
0.00721074
0.0070595
0.00700833
0.00702603
0.00714957
0.00746054
0.00773492
0.00781353
0.007698
0.0069122
0.00556274
0.00506202
0.00503164
0.00552577
0.00682762
0.00653721
0.00428842
0.00325508
0.00319858
0.00335898
0.00334064
0.00320634
0.00284119
0.00276074
0.00282246
0.0030171
0.0032093
0.00314175
0.00284869
0.00263453
0.0025804
0.00261714
0.00281464
0.00305974
0.00312021
0.00304306
0.00313503
0.00418166
0.006059
0.00645067
0.00639022
0.00599285
0.00382729
0.00312187
0.003525
0.0037954
0.00392427
0.00428148
0.00213926
0.00213796
0.00222352
0.00238616
0.00248005
0.00248486
0.00249317
0.00264958
0.00333175
0.00481116
0.00529432
0.00524007
0.00507102
0.00541568
0.00766982
0.0102239
0.0106618
0.0105117
0.00931378
0.00648523
0.00374948
0.00276994
0.00254046
0.00251557
0.00256294
0.00267934
0.00279219
0.00328986
0.00464639
0.00587059
0.0060217
0.0058165
0.0053543
0.0050935
0.00501033
0.00500353
0.00501357
0.00491563
0.00468734
0.00446511
0.00437886
0.00435772
0.00438571
0.004605
0.00474664
0.00487612
0.00502006
0.00515688
0.00528123
0.00539044
0.00546944
0.00552153
0.00556074
0.00559856
0.00570655
0.00614174
0.00721267
0.00793849
0.00813192
0.00811682
0.00798181
0.00767359
0.00734394
0.00702326
0.00676233
0.00664191
0.00664391
0.0066787
0.00679347
0.00706563
0.00741756
0.0076947
0.00778577
0.00768558
0.00694397
0.00556627
0.00505733
0.00503734
0.00572365
0.00652389
0.00572831
0.00351874
0.00313756
0.00329051
0.00342654
0.00330041
0.00284571
0.00261648
0.00264697
0.00281429
0.00302298
0.00311757
0.00292746
0.00270992
0.00262213
0.00261869
0.00272957
0.00297851
0.00309114
0.00302364
0.0030142
0.0035836
0.00553947
0.00625045
0.00616228
0.00608206
0.00565206
0.00349663
0.00315239
0.00359418
0.00377186
0.00385573
0.004159
0.00221183
0.00212501
0.00211966
0.00216681
0.00224142
0.00229116
0.00229902
0.00237311
0.00274853
0.00401421
0.00548162
0.00564623
0.00513908
0.00499386
0.00581071
0.00902252
0.0102801
0.0102627
0.00880059
0.00568257
0.00334211
0.00255721
0.00235334
0.00230547
0.00229564
0.00231618
0.0024616
0.00296818
0.003993
0.00440986
0.0042645
0.00363579
0.00324168
0.00315446
0.00319159
0.00351795
0.00416462
0.0048574
0.00518096
0.00526507
0.00502051
0.00474362
0.00466932
0.00467956
0.00476748
0.00487173
0.0049986
0.00512333
0.00524438
0.00535681
0.0054538
0.00553086
0.00561389
0.00579406
0.00636477
0.00742437
0.00801113
0.00811187
0.0080327
0.0077316
0.00726155
0.0068448
0.00653072
0.0063301
0.00629955
0.00631605
0.0063628
0.00646434
0.00665469
0.00691636
0.0072659
0.00758101
0.00770042
0.00760588
0.00684627
0.00549154
0.00502262
0.00503888
0.00587778
0.00613699
0.0046735
0.00314689
0.00311504
0.0035351
0.00343694
0.00296098
0.00257523
0.00254256
0.00264416
0.0028222
0.00297315
0.00293032
0.00276132
0.00267191
0.00263676
0.00271029
0.00289596
0.00303609
0.00301791
0.00294137
0.00326127
0.00504831
0.00604177
0.00593008
0.0058421
0.00592032
0.00517796
0.00336054
0.00318476
0.00361708
0.00374079
0.00379318
0.00403496
0.00254901
0.00217613
0.00211215
0.00209721
0.00211401
0.0021374
0.00216266
0.00221599
0.00249914
0.00353332
0.00553285
0.00599623
0.00563965
0.00493408
0.00506421
0.0069866
0.00959496
0.00985224
0.00835298
0.00511166
0.00307779
0.00237638
0.00215473
0.00207767
0.00205222
0.00205588
0.00215776
0.00248967
0.00275214
0.00274862
0.00247823
0.00209354
0.00183331
0.00173335
0.00171153
0.00174382
0.00190883
0.00227349
0.00297371
0.0041652
0.00532837
0.00582306
0.00588152
0.00548988
0.00519715
0.00512902
0.00516063
0.00524232
0.00534864
0.00545852
0.00561975
0.00581863
0.00619771
0.00696851
0.0077947
0.00807871
0.00804567
0.00775879
0.00716738
0.00670002
0.00635675
0.00614095
0.00602403
0.0059705
0.00594236
0.00593526
0.00595925
0.0060219
0.00616153
0.00645706
0.00688627
0.00729963
0.00748375
0.00739974
0.006614
0.00535775
0.00496647
0.00505308
0.00592594
0.00572171
0.00375349
0.00299402
0.00316636
0.00364616
0.0032753
0.00259202
0.00249879
0.00254257
0.0026681
0.00279159
0.00285543
0.00278068
0.00270239
0.00267646
0.00270257
0.00283915
0.00296416
0.00297309
0.00289219
0.00307703
0.00458527
0.00592314
0.0056167
0.00541113
0.00563657
0.00578792
0.00480069
0.00332808
0.00319787
0.00361768
0.00371186
0.00373574
0.00392293
0.00344277
0.00238958
0.00214277
0.00209503
0.00207886
0.00207662
0.0020892
0.00215319
0.0024109
0.00336112
0.00553555
0.00619373
0.00606532
0.00510552
0.0048109
0.00572851
0.0085306
0.00928295
0.00803725
0.004742
0.00286058
0.00220171
0.00197147
0.00188118
0.0018461
0.00183949
0.00187383
0.00196529
0.00198595
0.00192595
0.00178987
0.00163753
0.00149817
0.00139877
0.00136025
0.00134979
0.00135796
0.00141683
0.00154744
0.00180368
0.00227852
0.00311698
0.00466635
0.00622683
0.00674147
0.0066231
0.00641476
0.00628239
0.00629424
0.00639994
0.0067375
0.00727756
0.00780277
0.00805999
0.00804799
0.00773922
0.00697474
0.00649884
0.00625717
0.00606317
0.00591124
0.00575162
0.00554574
0.00534558
0.00521332
0.00516429
0.00516341
0.00522056
0.00540162
0.00575105
0.00625734
0.00679725
0.00708609
0.0070272
0.00625714
0.00518615
0.0049102
0.00511722
0.00586697
0.00521802
0.00329182
0.00294989
0.00341567
0.00365954
0.00277596
0.00248943
0.00249338
0.00256196
0.00267073
0.00273657
0.0027608
0.00271636
0.00270328
0.00271337
0.00279766
0.00288309
0.00291691
0.00286395
0.00299132
0.00430774
0.00589163
0.00535138
0.00488701
0.00515893
0.00555481
0.00553732
0.00465116
0.00331626
0.00315936
0.00356371
0.00368348
0.00369367
0.00382639
0.00439697
0.00294629
0.00227591
0.00211895
0.00207995
0.00207158
0.0020779
0.0021456
0.0024377
0.0037256
0.00581503
0.00626941
0.0062106
0.00555089
0.00474498
0.00508013
0.00729305
0.00864546
0.00790077
0.00478066
0.00277277
0.00207653
0.00184235
0.00175523
0.00172165
0.0017118
0.00171385
0.00172537
0.00172111
0.00168991
0.00164173
0.001579
0.00148133
0.00138755
0.00133109
0.00130401
0.00129622
0.0013067
0.00135174
0.00144225
0.00161793
0.00189648
0.00225017
0.00281337
0.00412529
0.00621731
0.00719567
0.00758063
0.00774891
0.00785048
0.00796643
0.00800316
0.00791567
0.00750613
0.00669287
0.00614951
0.00603176
0.00597898
0.00589362
0.00570308
0.00535259
0.00498916
0.00473443
0.00458324
0.00451331
0.00449369
0.0045005
0.00454675
0.00469507
0.00497367
0.00544311
0.00606442
0.00648274
0.00648133
0.00584321
0.00503706
0.00487516
0.00521316
0.00566224
0.0045195
0.00309038
0.00295634
0.00356773
0.00344951
0.00258148
0.00247784
0.00250529
0.00258309
0.00265621
0.00269614
0.00270982
0.00270901
0.00271856
0.00275901
0.00281122
0.00284175
0.00283899
0.00297213
0.00431885
0.00605562
0.00513714
0.0045697
0.0046119
0.00505712
0.0053326
0.00535163
0.00464225
0.00335887
0.00311448
0.00342355
0.00365094
0.0036566
0.00373439
0.00462145
0.00347717
0.00257371
0.0022236
0.0021038
0.00207808
0.00209273
0.00223222
0.00292942
0.00506204
0.00606642
0.00628239
0.00623833
0.0057616
0.00478349
0.00477544
0.00628698
0.0080903
0.0078288
0.00502185
0.00280483
0.00202988
0.00176939
0.00168763
0.00166398
0.00166056
0.00167488
0.00172232
0.00174655
0.00176352
0.00179431
0.0018084
0.00175859
0.00168188
0.00158115
0.0014297
0.0013559
0.001336
0.00134992
0.00142335
0.00158041
0.00184086
0.00207558
0.00224245
0.00245849
0.00291091
0.00422657
0.00571799
0.00654028
0.00676222
0.00667593
0.00638224
0.00589089
0.00558891
0.00562666
0.00574498
0.00580679
0.00572951
0.00539712
0.00493363
0.00466279
0.0045077
0.00440309
0.00432038
0.00426308
0.00423604
0.00423214
0.00424615
0.00427776
0.00435226
0.00459459
0.00515503
0.00570207
0.00582429
0.00544143
0.00491563
0.00484048
0.0052433
0.00542164
0.00400146
0.00301947
0.00302835
0.0035918
0.00316725
0.0025287
0.00247916
0.00252404
0.00259268
0.00264592
0.00268206
0.00269779
0.00270696
0.00272416
0.00275274
0.00278479
0.00281882
0.00296657
0.00426469
0.00607747
0.00493598
0.00444992
0.00442152
0.00450634
0.00474521
0.00511814
0.00520096
0.00483202
0.00354044
0.0030999
0.00326695
0.00360259
0.00361943
0.0036387
0.00440185
0.00341397
0.00261184
0.0022753
0.00215149
0.00213173
0.00222633
0.00275185
0.0045865
0.00586868
0.0061569
0.00625995
0.0062064
0.00582935
0.00490421
0.00461291
0.00549951
0.00752901
0.00773129
0.00547946
0.00293658
0.00204482
0.00175156
0.0016639
0.001647
0.00165341
0.0016954
0.00180342
0.0019859
0.00227999
0.00261857
0.00285599
0.00294823
0.00291662
0.00258752
0.0020779
0.0016672
0.00150181
0.00146203
0.00149911
0.00171563
0.00224059
0.00252066
0.00254379
0.00246438
0.0025198
0.00277232
0.00324896
0.00386286
0.00431033
0.00454267
0.00472701
0.00494638
0.00526632
0.00559268
0.00570001
0.00554697
0.00509244
0.00472147
0.00456994
0.00446982
0.00438968
0.00430644
0.00422926
0.00416188
0.00412096
0.00410657
0.00410406
0.00408039
0.00403486
0.00405634
0.00426795
0.00481932
0.00514399
0.00505968
0.0048147
0.00482014
0.00522696
0.00522422
0.00371764
0.00299315
0.00309853
0.00359232
0.00305863
0.0025132
0.00248598
0.00253873
0.00259654
0.00264021
0.00266722
0.00267451
0.00268917
0.00270027
0.00273741
0.00280078
0.00299679
0.00414485
0.00577141
0.00496241
0.00438635
0.00437274
0.00440535
0.00448202
0.0045938
0.0048461
0.00503341
0.00493281
0.00400637
0.00312854
0.00306499
0.0034672
0.00357099
0.00356914
0.00384847
0.00315562
0.00257834
0.00236513
0.00231266
0.00239525
0.00300248
0.00481793
0.00589509
0.00607737
0.00610408
0.00608682
0.00601782
0.00577269