/*--------------------------------*- C++ -*----------------------------------*\
  =========                 |
  \\      /  F ield         | OpenFOAM: The Open Source CFD Toolbox
   \\    /   O peration     | Website:  https://openfoam.org
    \\  /    A nd           | Version:  10
     \\/     M anipulation  |
\*---------------------------------------------------------------------------*/
FoamFile
{
    format      ascii;
    class       volScalarField;
    location    "1.000237";
    object      p;
}
// * * * * * * * * * * * * * * * * * * * * * * * * * * * * * * * * * * * * * //

dimensions      [1 -1 -2 0 0 0 0];

internalField   nonuniform List<scalar> 
16320
(
0.624672
0.623597
0.622941
0.622885
0.622815
0.623089
0.624096
0.624169
0.62421
0.623615
0.621635
0.620359
0.618827
0.616886
0.614471
0.611587
0.608169
0.604222
0.599849
0.595256
0.590447
0.585568
0.580447
0.575288
0.570209
0.565187
0.560258
0.555538
0.55087
0.546056
0.540994
0.535196
0.532579
0.527229
0.527469
0.528102
0.531374
0.533713
0.539633
0.543476
0.549005
0.551774
0.5557
0.557016
0.557886
0.557591
0.556982
0.556407
0.55572
0.554525
0.554504
0.556181
0.554381
0.557358
0.5628
0.567874
0.57484
0.586313
0.597499
0.610906
0.627093
0.644767
0.658414
0.669233
0.677501
0.683399
0.688068
0.692128
0.695617
0.69874
0.701361
0.703479
0.704782
0.70521
0.70477
0.703306
0.700678
0.696739
0.691792
0.686944
0.679479
0.671547
0.663581
0.65642
0.649983
0.643894
0.638595
0.634922
0.631246
0.627628
0.624822
0.621
0.61787
0.615012
0.613056
0.611723
0.611593
0.612464
0.614732
0.618447
0.623373
0.628046
0.634901
0.642501
0.651698
0.661307
0.666258
0.673556
0.680669
0.686132
0.691229
0.695509
0.699991
0.621942
0.62077
0.620234
0.620288
0.620678
0.620991
0.622137
0.622463
0.622616
0.622567
0.621575
0.619847
0.618454
0.616725
0.614562
0.611861
0.608623
0.604943
0.600972
0.596524
0.591435
0.586057
0.580667
0.575595
0.570794
0.565865
0.560939
0.556142
0.551754
0.547562
0.543878
0.540772
0.538367
0.536756
0.536235
0.537527
0.539569
0.542869
0.546365
0.55032
0.553299
0.555714
0.557562
0.558209
0.558109
0.55758
0.556688
0.555946
0.555178
0.554488
0.554155
0.55438
0.554671
0.555583
0.557715
0.562711
0.570683
0.580582
0.594046
0.610726
0.629143
0.645966
0.663132
0.675127
0.684084
0.690448
0.694882
0.698658
0.701819
0.704694
0.707179
0.708987
0.710094
0.710252
0.709467
0.707594
0.704652
0.700567
0.695307
0.689376
0.683271
0.675476
0.667176
0.658927
0.651713
0.645075
0.639016
0.634284
0.630266
0.626161
0.623121
0.619639
0.615984
0.612828
0.610258
0.608893
0.608592
0.609478
0.611901
0.615782
0.620977
0.626572
0.633577
0.641056
0.649748
0.65744
0.66373
0.670166
0.676683
0.681639
0.686454
0.690633
0.695159
0.619564
0.618472
0.617754
0.617967
0.618618
0.619336
0.619763
0.621415
0.621539
0.621516
0.621103
0.619758
0.618353
0.616743
0.61478
0.612365
0.609473
0.605955
0.601939
0.597467
0.592653
0.587968
0.582801
0.577712
0.572089
0.566094
0.56103
0.556475
0.55239
0.548233
0.544667
0.541811
0.540022
0.53912
0.539262
0.540377
0.542502
0.545382
0.548424
0.551358
0.553898
0.555865
0.557116
0.557486
0.557232
0.556568
0.555647
0.554861
0.553794
0.552725
0.552073
0.551912
0.552314
0.553434
0.555716
0.559665
0.565133
0.574953
0.58985
0.608371
0.629146
0.646295
0.666835
0.680796
0.690698
0.697599
0.702146
0.705606
0.708447
0.711055
0.713329
0.71499
0.715809
0.715619
0.714412
0.71213
0.70867
0.704201
0.698753
0.692426
0.685593
0.678068
0.669663
0.661369
0.653353
0.646137
0.639432
0.634106
0.629354
0.624819
0.62062
0.618473
0.614035
0.610469
0.607771
0.606117
0.60566
0.606534
0.609037
0.613067
0.618458
0.624682
0.631866
0.639356
0.647782
0.65464
0.66048
0.666147
0.672296
0.676873
0.681488
0.68569
0.689554
0.617571
0.616568
0.615789
0.616122
0.616929
0.617946
0.618714
0.620043
0.621002
0.621175
0.620741
0.619629
0.6184
0.616956
0.615132
0.612857
0.610066
0.606833
0.60303
0.598706
0.593802
0.588754
0.583539
0.578295
0.572839
0.568133
0.563254
0.558078
0.55255
0.54803
0.54472
0.542617
0.54107
0.540245
0.540283
0.541222
0.543065
0.545611
0.548373
0.550927
0.553189
0.554877
0.555904
0.556138
0.555753
0.55497
0.5537
0.552932
0.55163
0.54962
0.549667
0.548381
0.548622
0.549278
0.551313
0.555044
0.560907
0.569997
0.58382
0.603755
0.626467
0.648966
0.666952
0.685652
0.69738
0.704981
0.709865
0.713066
0.715647
0.717985
0.720014
0.721413
0.721921
0.721335
0.719669
0.71692
0.712864
0.707904
0.702003
0.695445
0.688364
0.680981
0.672222
0.663257
0.654661
0.646832
0.639699
0.633691
0.628407
0.623606
0.619124
0.615737
0.611575
0.607911
0.605051
0.603314
0.602681
0.603593
0.60619
0.610374
0.615796
0.622313
0.629585
0.637032
0.6451
0.651359
0.657062
0.661575
0.667456
0.67177
0.676188
0.680238
0.683822
0.61593
0.614921
0.614679
0.614874
0.615801
0.61709
0.618081
0.619808
0.620959
0.621311
0.621035
0.620136
0.618513
0.617345
0.615629
0.613415
0.610733
0.607467
0.603727
0.599778
0.595138
0.590106
0.584824
0.579095
0.573522
0.568343
0.563163
0.558368
0.554251
0.550494
0.547181
0.544157
0.541877
0.540281
0.540035
0.540724
0.542222
0.54453
0.546952
0.549242
0.551254
0.552748
0.553483
0.553501
0.553079
0.552379
0.551538
0.549378
0.548065
0.545803
0.545634
0.545678
0.544538
0.544647
0.546096
0.54938
0.555545
0.564613
0.578557
0.597843
0.622188
0.64925
0.66716
0.690391
0.704336
0.712938
0.718096
0.721133
0.723546
0.725597
0.727316
0.728369
0.728465
0.727422
0.725265
0.721942
0.717273
0.711767
0.705294
0.698378
0.69093
0.683568
0.674386
0.664919
0.655731
0.647198
0.639645
0.633043
0.627178
0.622052
0.617093
0.612674
0.608525
0.604901
0.602055
0.600237
0.599667
0.600817
0.603463
0.607657
0.613124
0.619616
0.626766
0.634085
0.641758
0.647648
0.653269
0.656304
0.662276
0.66642
0.670623
0.674442
0.677829
0.614922
0.614006
0.614027
0.614075
0.615198
0.616851
0.618205
0.620088
0.621355
0.621888
0.621717
0.620825
0.619447
0.617545
0.616164
0.614055
0.61138
0.608215
0.604485
0.599996
0.595377
0.590776
0.585644
0.580146
0.574587
0.569252
0.563673
0.55851
0.554082
0.550244
0.546935
0.544175
0.542397
0.541691
0.541819
0.542604
0.544211
0.546231
0.548519
0.550693
0.552497
0.553698
0.554345
0.554347
0.553772
0.552514
0.550709
0.54919
0.546595
0.547261
0.545595
0.543205
0.540696
0.539598
0.540422
0.543317
0.549347
0.559179
0.57358
0.59242
0.61769
0.647276
0.668036
0.694986
0.71162
0.721777
0.7268
0.730048
0.732292
0.733965
0.735238
0.735837
0.735413
0.733791
0.731263
0.727073
0.721841
0.715671
0.708748
0.701354
0.69354
0.685627
0.676051
0.666112
0.656396
0.647332
0.639183
0.63192
0.625449
0.6197
0.614209
0.60935
0.605125
0.601587
0.598878
0.597189
0.596771
0.597936
0.600685
0.604891
0.610377
0.61675
0.623591
0.630673
0.637875
0.643303
0.64841
0.651244
0.656969
0.660857
0.664814
0.668354
0.671478
0.614335
0.613596
0.613535
0.614182
0.615417
0.617337
0.619079
0.620985
0.622191
0.622751
0.622725
0.62191
0.620511
0.618057
0.616809
0.614728
0.612037
0.608814
0.605071
0.600788
0.59605
0.590634
0.585059
0.579603
0.574422
0.569332
0.56407
0.558985
0.554569
0.550695
0.547009
0.544046
0.542057
0.54106
0.541017
0.541614
0.542941
0.544719
0.54672
0.548664
0.550309
0.551383
0.5518
0.551535
0.550634
0.549072
0.546936
0.545054
0.543112
0.542122
0.540114
0.536806
0.538261
0.535026
0.536063
0.538581
0.543751
0.553733
0.568701
0.587935
0.614199
0.644329
0.669898
0.698543
0.718867
0.731408
0.73627
0.739821
0.741865
0.74304
0.743833
0.74374
0.74262
0.740328
0.737408
0.732396
0.726517
0.719619
0.712346
0.704475
0.696295
0.687422
0.677314
0.666904
0.656673
0.647026
0.63813
0.630048
0.622768
0.616284
0.610489
0.605507
0.601381
0.598047
0.595573
0.594077
0.593875
0.595118
0.597912
0.602098
0.607507
0.613682
0.620194
0.626873
0.633538
0.638462
0.643171
0.645997
0.651455
0.655104
0.658804
0.661999
0.664435
0.613965
0.613539
0.613813
0.614698
0.61619
0.618159
0.620145
0.622033
0.623264
0.623823
0.623742
0.622851
0.621448
0.618962
0.617555
0.615424
0.612666
0.609343
0.605484
0.601115
0.596282
0.591008
0.585511
0.579919
0.574027
0.568077
0.562776
0.558041
0.554235
0.55041
0.546985
0.544087
0.542164
0.541072
0.540626
0.540603
0.541226
0.542566
0.544236
0.545877
0.547333
0.548149
0.548266
0.547733
0.546553
0.544818
0.54259
0.540347
0.538034
0.535806
0.53346
0.531821
0.530851
0.529839
0.532936
0.534292
0.539195
0.549287
0.564571
0.584696
0.611326
0.642703
0.673568
0.701204
0.725482
0.740864
0.746473
0.749895
0.75186
0.752633
0.75262
0.751834
0.74976
0.747109
0.743468
0.737714
0.731062
0.723696
0.715988
0.707787
0.69911
0.689019
0.678282
0.667271
0.656374
0.645905
0.635989
0.627151
0.619157
0.61212
0.606234
0.60139
0.597547
0.59448
0.592232
0.591009
0.590967
0.592375
0.595228
0.599313
0.604548
0.610417
0.616541
0.622698
0.628732
0.633219
0.637644
0.640978
0.645835
0.649272
0.652703
0.655645
0.657811
0.613493
0.613476
0.614149
0.615455
0.617181
0.619341
0.621439
0.623265
0.624437
0.624943
0.624729
0.623685
0.62198
0.619829
0.618353
0.616122
0.613259
0.609811
0.605785
0.601217
0.596227
0.590888
0.585326
0.579645
0.573876
0.568232
0.562996
0.558089
0.553065
0.548834
0.545436
0.542832
0.541452
0.540244
0.539433
0.53933
0.539843
0.541073
0.542522
0.543833
0.544469
0.544667
0.544425
0.543652
0.542366
0.540498
0.538062
0.535499
0.532778
0.53007
0.527478
0.525411
0.524243
0.524078
0.525282
0.527823
0.533894
0.54468
0.561189
0.582645
0.610568
0.643057
0.674738
0.707548
0.732847
0.751357
0.755349
0.759782
0.761936
0.762024
0.76128
0.759607
0.756818
0.754089
0.748885
0.74273
0.735345
0.727843
0.719809
0.711297
0.701339
0.690468
0.678873
0.667021
0.65497
0.643445
0.632864
0.623148
0.614681
0.607553
0.601848
0.597313
0.593762
0.591008
0.589074
0.5881
0.588259
0.589824
0.59256
0.596577
0.601535
0.607043
0.612748
0.618245
0.623591
0.627687
0.631478
0.636054
0.640177
0.643484
0.646649
0.649051
0.651276
0.612866
0.613235
0.614308
0.616029
0.618193
0.620471
0.622622
0.624378
0.62537
0.625646
0.625227
0.62413
0.622335
0.620897
0.619161
0.616786
0.613799
0.610197
0.605985
0.601221
0.596048
0.590573
0.584914
0.579147
0.573405
0.567869
0.562665
0.55777
0.553129
0.548982
0.545403
0.542398
0.53951
0.537677
0.536686
0.536564
0.537317
0.538605
0.53958
0.540291
0.540863
0.541237
0.541123
0.54044
0.539051
0.536461
0.533507
0.530649
0.527712
0.524753
0.521983
0.51963
0.518295
0.518392
0.519514
0.522566
0.529313
0.541431
0.559094
0.582254
0.611127
0.644555
0.679651
0.712754
0.740789
0.760478
0.763702
0.768977
0.771166
0.770747
0.769056
0.766578
0.763508
0.760127
0.753978
0.74704
0.739422
0.731726
0.723554
0.7141
0.703239
0.691368
0.678744
0.665726
0.65276
0.640189
0.628684
0.61853
0.609987
0.603042
0.597631
0.593488
0.590299
0.587836
0.58623
0.58558
0.585924
0.587467
0.590156
0.593947
0.598508
0.603574
0.608794
0.613535
0.61837
0.622438
0.625445
0.630625
0.634448
0.637758
0.640752
0.6433
0.645049
0.611764
0.612651
0.614021
0.616073
0.618513
0.620917
0.623029
0.624698
0.625727
0.626125
0.625775
0.624807
0.622914
0.621659
0.619855
0.617397
0.614291
0.61051
0.606041
0.601007
0.595653
0.590135
0.584452
0.578735
0.573029
0.567503
0.562237
0.557221
0.552554
0.548313
0.544557
0.541414
0.538894
0.537105
0.53598
0.535418
0.534891
0.534571
0.534755
0.535106
0.535606
0.536777
0.53686
0.536247
0.534648
0.532613
0.530332
0.527415
0.523728
0.520349
0.517395
0.514917
0.513544
0.513732
0.515045
0.518636
0.526443
0.540068
0.559032
0.583109
0.613182
0.647859
0.685087
0.719967
0.749792
0.768202
0.77077
0.775754
0.77875
0.777908
0.775592
0.772248
0.770033
0.764273
0.757831
0.750208
0.742965
0.735279
0.726593
0.716089
0.704284
0.691276
0.677564
0.663294
0.64921
0.636225
0.624453
0.614211
0.605735
0.598996
0.594002
0.590199
0.587435
0.585369
0.584082
0.583605
0.584032
0.585495
0.588066
0.591426
0.595431
0.600091
0.604548
0.608566
0.612873
0.616538
0.620733
0.625273
0.628774
0.632135
0.635187
0.637842
0.639269
0.610448
0.611572
0.613403
0.61559
0.618413
0.620883
0.623134
0.624861
0.625897
0.626259
0.625994
0.625232
0.623509
0.62232
0.620484
0.617985
0.614739
0.610732
0.605908
0.600499
0.595013
0.589558
0.583901
0.578154
0.572238
0.566487
0.560961
0.555621
0.550813
0.546444
0.542442
0.539588
0.537385
0.535665
0.534429
0.533697
0.533239
0.533011
0.53303
0.533123
0.53299
0.531972
0.531116
0.529939
0.528655
0.528425
0.526964
0.524232
0.521453
0.518246
0.514819
0.51205
0.510601
0.510858
0.512486
0.516871
0.52612
0.540554
0.560213
0.585722
0.617894
0.654002
0.692222
0.727422
0.754154
0.769392
0.772976
0.781421
0.783973
0.782645
0.780051
0.77674
0.773781
0.767007
0.759944
0.752636
0.745547
0.737719
0.728176
0.717025
0.704239
0.690111
0.674999
0.659804
0.645562
0.632061
0.620041
0.610035
0.601937
0.595614
0.591852
0.588171
0.58557
0.583849
0.582819
0.582455
0.582754
0.584062
0.586236
0.589009
0.592309
0.596111
0.600391
0.603686
0.607541
0.611033
0.615855
0.620178
0.623289
0.626689
0.629837
0.632571
0.633959
0.608329
0.610063
0.612349
0.614889
0.617727
0.620417
0.622828
0.624543
0.62567
0.62615
0.625995
0.625295
0.624251
0.623027
0.621221
0.618744
0.615408
0.611552
0.606579
0.601224
0.595713
0.590602
0.585562
0.580161
0.574371
0.56839
0.562138
0.55583
0.549953
0.54458
0.539687
0.536943
0.534975
0.533191
0.532008
0.531486
0.531073
0.530814
0.530726
0.53068
0.530491
0.529985
0.529292
0.528348
0.527081
0.524474
0.521954
0.520894
0.519866
0.517153
0.51429
0.512058
0.510578
0.510816
0.512651
0.517537
0.527369
0.542483
0.563576
0.591244
0.625347
0.661894
0.699308
0.731067
0.755688
0.772089
0.774202
0.784053
0.785899
0.784587
0.782084
0.780189
0.77423
0.767788
0.760197
0.753571
0.746671
0.738328
0.728545
0.716515
0.702767
0.687676
0.671787
0.656585
0.641552
0.628116
0.616591
0.60711
0.599675
0.594187
0.590146
0.587163
0.584932
0.583392
0.582489
0.58203
0.582112
0.583056
0.584681
0.586875
0.58946
0.592635
0.595907
0.599172
0.602545
0.606248
0.610928
0.615357
0.618148
0.62154
0.624655
0.627418
0.628943
0.605323
0.607638
0.610462
0.613602
0.616793
0.619831
0.622254
0.62403
0.625154
0.62572
0.625762
0.625328
0.624679
0.623637
0.62206
0.619857
0.61724
0.612316
0.607199
0.602029
0.596926
0.591896
0.586311
0.580288
0.573994
0.567416
0.560623
0.553969
0.548023
0.543372
0.540734
0.536978
0.533682
0.530439
0.529408
0.529002
0.528476
0.528432
0.528304
0.528197
0.528
0.527672
0.527196
0.526528
0.525587
0.524194
0.522541
0.520207
0.517338
0.516686
0.51526
0.513437
0.512217
0.51238
0.514248
0.519821
0.530778
0.547289
0.570452
0.599529
0.633677
0.669844
0.702831
0.734157
0.762249
0.771705
0.774667
0.783882
0.784913
0.783998
0.783299
0.779094
0.772825
0.765929
0.759228
0.752916
0.745622
0.737276
0.727054
0.714099
0.699848
0.684442
0.668704
0.652681
0.638035
0.625217
0.614364
0.605673
0.598982
0.593885
0.590216
0.587423
0.585324
0.5839
0.5829
0.582184
0.58199
0.582414
0.583417
0.584944
0.586851
0.589441
0.592107
0.594898
0.597843
0.602066
0.606081
0.610099
0.613266
0.616608
0.619614
0.622328
0.624124
0.601632
0.604382
0.607709
0.611525
0.615284
0.618583
0.621364
0.623545
0.624455
0.625043
0.625397
0.625344
0.625004
0.624324
0.623259
0.622127
0.61827
0.614633
0.610243
0.605376
0.599987
0.594374
0.587946
0.580982
0.573969
0.566754
0.559515
0.552492
0.546271
0.54135
0.537698
0.53414
0.531312
0.530329
0.528659
0.527187
0.526139
0.526046
0.525877
0.525957
0.52588
0.525704
0.525421
0.525002
0.524413
0.523625
0.522655
0.521279
0.519453
0.517202
0.515745
0.515769
0.515325
0.515764
0.518668
0.525366
0.537734
0.555873
0.580336
0.609738
0.643165
0.675282
0.708148
0.743078
0.756842
0.760639
0.775183
0.780187
0.780986
0.780475
0.780904
0.775408
0.769065
0.761785
0.755717
0.749451
0.742301
0.734198
0.723385
0.709755
0.695799
0.680959
0.664753
0.649375
0.635399
0.623181
0.613162
0.605293
0.599132
0.59464
0.591219
0.588712
0.586696
0.585101
0.583765
0.582756
0.582194
0.582048
0.582381
0.583213
0.584499
0.586344
0.588548
0.590971
0.593703
0.597912
0.60183
0.605881
0.608846
0.612058
0.614893
0.617467
0.619572
0.596657
0.599474
0.603848
0.608311
0.612906
0.616733
0.619916
0.622278
0.624106
0.624853
0.625107
0.625351
0.625302
0.625134
0.624846
0.623224
0.620919
0.617813
0.613828
0.609187
0.604438
0.598765
0.591539
0.583596
0.575651
0.567548
0.559586
0.551813
0.544819
0.539142
0.534605
0.530931
0.528306
0.526912
0.525699
0.524874
0.524886
0.524269
0.523783
0.523896
0.524041
0.5242
0.524236
0.524109
0.523913
0.523584
0.523065
0.522403
0.521635
0.520598
0.519516
0.518725
0.518795
0.521567
0.525689
0.534049
0.547882
0.566518
0.590608
0.619881
0.64925
0.680976
0.717956
0.73269
0.742431
0.761018
0.769887
0.773512
0.774327
0.776144
0.77341
0.768182
0.76175
0.755431
0.749415
0.743223
0.736697
0.728691
0.717167
0.704393
0.690672
0.675726
0.660655
0.64636
0.633213
0.622208
0.612822
0.605539
0.599928
0.595952
0.593001
0.590554
0.588415
0.586603
0.585033
0.583617
0.582468
0.58176
0.581522
0.58169
0.58249
0.58368
0.585365
0.587542
0.590886
0.593845
0.597655
0.60149
0.604731
0.607746
0.610489
0.612956
0.615017
0.592627
0.594689
0.598697
0.603984
0.609431
0.614602
0.618341
0.621012
0.622776
0.623938
0.624653
0.625037
0.625321
0.625784
0.625524
0.624784
0.623147
0.620546
0.617076
0.612731
0.60641
0.600229
0.593567
0.586005
0.577276
0.567834
0.558697
0.550449
0.543246
0.537044
0.532049
0.528232
0.525544
0.523797
0.52268
0.522143
0.522076
0.522116
0.522562
0.522473
0.522765
0.523141
0.523536
0.523827
0.524031
0.524098
0.524119
0.524088
0.524035
0.524031
0.524179
0.52417
0.525734
0.528411
0.534737
0.54411
0.558355
0.578417
0.601749
0.62712
0.655254
0.689851
0.707289
0.718894
0.741302
0.754086
0.760557
0.764568
0.767678
0.76656
0.763378
0.758324
0.752087
0.746173
0.740294
0.734463
0.728119
0.719951
0.709425
0.697398
0.684496
0.67048
0.656817
0.643829
0.631469
0.62116
0.61265
0.605998
0.6011
0.597202
0.594486
0.592128
0.590029
0.588067
0.586165
0.584289
0.582601
0.581518
0.580867
0.580397
0.580638
0.581415
0.582656
0.584205
0.586956
0.589899
0.593668
0.597379
0.60069
0.603542
0.606147
0.608481
0.610374
0.588955
0.590921
0.594183
0.5989
0.604706
0.610836
0.616293
0.619664
0.621576
0.622866
0.62379
0.624472
0.625019
0.625737
0.626178
0.62584
0.624706
0.622502
0.618854
0.614445
0.609979
0.603955
0.596554
0.58774
0.578077
0.567921
0.557974
0.548821
0.541054
0.534599
0.529534
0.525731
0.523041
0.521253
0.520061
0.519551
0.519537
0.519895
0.520579
0.521398
0.522
0.522619
0.52332
0.524032
0.524662
0.525252
0.525852
0.526422
0.527022
0.527761
0.528846
0.530416
0.533029
0.537038
0.543064
0.553705
0.568278
0.586993
0.608306
0.631962
0.663296
0.680669
0.694112
0.71834
0.733691
0.742698
0.748909
0.752822
0.756393
0.754183
0.750731
0.745853
0.740029
0.73428
0.728792
0.72322
0.717056
0.709308
0.699775
0.689432
0.677479
0.664851
0.652546
0.640556
0.629535
0.619853
0.611955
0.605786
0.601412
0.597847
0.595286
0.593046
0.590908
0.588764
0.586554
0.584512
0.582706
0.58131
0.580127
0.579348
0.579083
0.579268
0.579917
0.581237
0.583477
0.586322
0.589923
0.593473
0.596738
0.599433
0.601893
0.604013
0.605742
0.586908
0.588307
0.590995
0.595339
0.599795
0.606494
0.612576
0.618011
0.620215
0.621556
0.622609
0.62362
0.62446
0.625398
0.626355
0.626336
0.625635
0.623671
0.621032
0.617582
0.613184
0.607027
0.598867
0.588872
0.578486
0.567186
0.556119
0.546352
0.538424
0.531742
0.526697
0.523051
0.520362
0.518674
0.517897
0.517579
0.517776
0.518266
0.519218
0.520277
0.521319
0.522517
0.52363
0.524728
0.525878
0.526977
0.528081
0.52919
0.53039
0.531789
0.533594
0.536036
0.53948
0.544456
0.551651
0.561565
0.576774
0.593281
0.612378
0.638165
0.654929
0.668523
0.692958
0.71063
0.721226
0.729647
0.735325
0.740562
0.741069
0.739299
0.735849
0.731201
0.725735
0.720287
0.715267
0.709994
0.704128
0.697222
0.688785
0.680308
0.669825
0.658798
0.647661
0.636888
0.626769
0.617846
0.610474
0.604926
0.600751
0.597575
0.595099
0.592912
0.590754
0.58864
0.586634
0.584731
0.582635
0.581007
0.57958
0.578442
0.577742
0.577477
0.577585
0.578832
0.580479
0.583158
0.586455
0.589807
0.593068
0.595446
0.597719
0.599629
0.601207
0.583608
0.585788
0.588962
0.592441
0.596605
0.602224
0.608649
0.614674
0.618615
0.619663
0.621093
0.6223
0.623327
0.624509
0.625948
0.626321
0.626181
0.624881
0.622726
0.619685
0.615888
0.61121
0.603676
0.592629
0.579686
0.567277
0.555313
0.54435
0.534992
0.52785
0.523619
0.520432
0.517779
0.51645
0.51597
0.515859
0.516266
0.517105
0.518385
0.519866
0.521174
0.522873
0.524418
0.526007
0.527609
0.529167
0.530703
0.53228
0.533961
0.535893
0.538249
0.541227
0.545133
0.550474
0.557845
0.567658
0.578885
0.594511
0.611672
0.632151
0.645165
0.668515
0.685566
0.6971
0.706936
0.715141
0.721882
0.724295
0.724572
0.722875
0.719253
0.714657
0.709686
0.704874
0.700296
0.695433
0.69006
0.684068
0.677068
0.670422
0.661659
0.652108
0.642473
0.632629
0.623371
0.615182
0.608448
0.603255
0.599336
0.596383
0.59406
0.592072
0.590175
0.588233
0.586363
0.584548
0.582611
0.580797
0.579179
0.577792
0.576789
0.576168
0.575912
0.576722
0.578028
0.58037
0.5833
0.586364
0.589234
0.591716
0.593702
0.59541
0.596821
0.580443
0.582941
0.58614
0.589797
0.593888
0.598872
0.604509
0.610818
0.615511
0.617409
0.618925
0.620381
0.621607
0.622871
0.624743
0.625603
0.625981
0.625304
0.623126
0.621273
0.618358
0.613662
0.604974
0.592799
0.579714
0.565906
0.552911
0.541514
0.532655
0.52702
0.52165
0.517698
0.514905
0.514252
0.513891
0.514224
0.514829
0.516036
0.517711
0.519701
0.521737
0.523792
0.525808
0.527753
0.52982
0.531785
0.53369
0.535621
0.537661
0.539965
0.542665
0.545926
0.550004
0.555302
0.562342
0.571546
0.582693
0.595013
0.610991
0.625236
0.644497
0.659899
0.671869
0.682457
0.691906
0.699579
0.704892
0.706631
0.706614
0.704652
0.70103
0.696808
0.692579
0.688503
0.684373
0.68016
0.675575
0.670533
0.664775
0.659927
0.652994
0.645006
0.636715
0.627912
0.619539
0.612083
0.60592
0.601113
0.597492
0.594767
0.592645
0.590903
0.589373
0.587645
0.585975
0.584272
0.582464
0.580637
0.578976
0.577484
0.576289
0.575342
0.57479
0.575168
0.576102
0.578009
0.580497
0.583121
0.585699
0.588091
0.589835
0.591376
0.592605
0.577232
0.579883
0.583011
0.5867
0.590739
0.595285
0.60039
0.606069
0.610791
0.613808
0.6158
0.617579
0.619168
0.620463
0.622529
0.623865
0.624742
0.624546
0.622755
0.621184
0.617989
0.614775
0.605275
0.592172
0.578062
0.562826
0.548875
0.537215
0.528689
0.523155
0.518561
0.515798
0.514542
0.512965
0.51209
0.513076
0.513846
0.515521
0.517613
0.520076
0.522772
0.525409
0.527433
0.529975
0.532443
0.534755
0.536985
0.539205
0.541503
0.544018
0.546869
0.550204
0.554244
0.559323
0.565878
0.574356
0.584703
0.596394
0.609644
0.623125
0.635983
0.64748
0.658103
0.667818
0.675481
0.682297
0.685987
0.687755
0.687435
0.68522
0.681917
0.678164
0.67466
0.671438
0.668077
0.66472
0.66111
0.657207
0.652422
0.649028
0.643937
0.637504
0.630531
0.622747
0.615385
0.608713
0.603137
0.598759
0.595467
0.593004
0.591161
0.589743
0.588442
0.587025
0.585542
0.58402
0.582281
0.580707
0.579073
0.57756
0.576222
0.575012
0.57418
0.574207
0.574719
0.576114
0.57806
0.58023
0.582414
0.584484
0.586251
0.587538
0.588556
0.573088
0.575772
0.579237
0.582938
0.586794
0.590933
0.595593
0.601097
0.605149
0.609017
0.611657
0.613842
0.615752
0.617071
0.619129
0.620982
0.622188
0.622431
0.621179
0.619847
0.616329
0.613647
0.603586
0.589479
0.574388
0.558856
0.544672
0.532868
0.52412
0.518352
0.514831
0.513054
0.5123
0.511812
0.512119
0.512645
0.513685
0.51605
0.518365
0.521292
0.5245
0.527659
0.530611
0.53254
0.535544
0.538087
0.540627
0.543074
0.545511
0.548126
0.550975
0.55422
0.558048
0.562739
0.568611
0.575924
0.584595
0.594409
0.604801
0.61526
0.625556
0.635513
0.644712
0.652812
0.66046
0.664115
0.66691
0.668037
0.667193
0.665197
0.662366
0.658971
0.656164
0.65393
0.651787
0.64937
0.64683
0.64408
0.640884
0.637221
0.634312
0.629638
0.623789
0.617432
0.611103
0.605261
0.600326
0.596413
0.59352
0.5914
0.589875
0.588711
0.587502
0.586324
0.585223
0.583717
0.582423
0.581007
0.579468
0.577965
0.576532
0.575143
0.574023
0.573885
0.573887
0.574731
0.57609
0.577727
0.579436
0.581107
0.582689
0.58373
0.584593
0.56981
0.571737
0.574929
0.578478
0.581974
0.585794
0.590122
0.595099
0.598641
0.603077
0.606493
0.60914
0.611354
0.613051
0.614242
0.616974
0.618644
0.61966
0.618347
0.616831
0.612965
0.609943
0.599636
0.586224
0.571935
0.557088
0.544262
0.533043
0.524542
0.517476
0.513333
0.51117
0.510616
0.510809
0.511746
0.513139
0.515292
0.517259
0.520204
0.523638
0.527134
0.530479
0.5337
0.536873
0.539284
0.541824
0.544692
0.547246
0.549755
0.552376
0.555119
0.558099
0.561545
0.565667
0.570634
0.576546
0.583338
0.590917
0.599118
0.607597
0.615978
0.623921
0.631116
0.636928
0.642152
0.645175
0.647209
0.647403
0.646454
0.644653
0.642425
0.640036
0.637293
0.636142
0.635199
0.634235
0.632817
0.631223
0.629194
0.626258
0.624545
0.621351
0.616925
0.611934
0.606773
0.601881
0.597663
0.594272
0.591872
0.590117
0.588865
0.587782
0.586798
0.58585
0.584954
0.583849
0.582792
0.581475
0.580069
0.578602
0.577119
0.575641
0.574281
0.574059
0.573634
0.573837
0.574609
0.575661
0.576826
0.577952
0.579081
0.579993
0.580629
0.566476
0.567963
0.5704
0.573405
0.576648
0.580357
0.584378
0.588043
0.592739
0.596863
0.600567
0.603539
0.605909
0.607673
0.608516
0.611774
0.613705
0.614781
0.614014
0.6124
0.608242
0.60403
0.593757
0.580925
0.56791
0.553603
0.542753
0.532881
0.524852
0.519105
0.515775
0.512854
0.511996
0.511571
0.51268
0.514549
0.517089
0.519994
0.523469
0.526822
0.530131
0.534191
0.537538
0.540788
0.543887
0.547102
0.549295
0.55156
0.554267
0.556815
0.559227
0.561842
0.564917
0.568363
0.572361
0.576956
0.582193
0.587908
0.593557
0.600089
0.606631
0.612537
0.617696
0.62287
0.624528
0.626145
0.626954
0.626397
0.62501
0.623212
0.62144
0.620055
0.619068
0.618024
0.617998
0.618557
0.618935
0.618599
0.617703
0.616223
0.614247
0.612798
0.610068
0.606424
0.602639
0.598754
0.595317
0.592547
0.590601
0.588962
0.588261
0.587304
0.586508
0.58584
0.584908
0.58417
0.583239
0.582058
0.580771
0.579375
0.577926
0.576542
0.575266
0.574094
0.573599
0.57341
0.57358
0.574036
0.574629
0.575146
0.575687
0.576211
0.576562
0.560611
0.562182
0.564694
0.568334
0.571487
0.573403
0.577581
0.582112
0.586255
0.590162
0.593937
0.597097
0.599562
0.601306
0.603076
0.605055
0.607593
0.608849
0.608393
0.606599
0.60223
0.596784
0.586088
0.573582
0.561161
0.548237
0.539295
0.531436
0.52474
0.519708
0.517456
0.516329
0.515394
0.514932
0.516207
0.517767
0.520518
0.523849
0.527623
0.531691
0.536154
0.539697
0.543092
0.54621
0.549443
0.552454
0.554974
0.557691
0.559646
0.561592
0.563297
0.56559
0.567999
0.57062
0.573471
0.576646
0.58013
0.584434
0.589612
0.593917
0.598026
0.601473
0.604279
0.606503
0.607121
0.60727
0.606647
0.605041
0.602952
0.600941
0.599356
0.598401
0.598178
0.598348
0.599417
0.601303
0.603656
0.60558
0.606331
0.606225
0.605381
0.604149
0.603236
0.601163
0.598838
0.596167
0.593506
0.591363
0.589664
0.588746
0.587888
0.587184
0.586662
0.586436
0.584796
0.584483
0.583734
0.582676
0.581476
0.58016
0.578765
0.577402
0.576134
0.574841
0.573644
0.573311
0.573046
0.572853
0.572827
0.572851
0.572714
0.572648
0.572574
0.55547
0.556839
0.557672
0.560627
0.564362
0.568451
0.572118
0.57603
0.579821
0.583512
0.587036
0.590112
0.592609
0.594634
0.596363
0.597502
0.600324
0.601693
0.601341
0.599382
0.594914
0.588263
0.578588
0.567616
0.558018
0.548247
0.54074
0.533864
0.528249
0.523986
0.52041
0.518746
0.518263
0.519798
0.5206
0.523355
0.525664
0.529286
0.533336
0.537681
0.542122
0.546162
0.549894
0.553394
0.556298
0.559302
0.561694
0.563758
0.565388
0.56695
0.56884
0.570334
0.571823
0.573486
0.575412
0.577591
0.579981
0.582365
0.584505
0.586753
0.588756
0.590522
0.592104
0.591401
0.590343
0.588932
0.586697
0.584081
0.581641
0.57951
0.577859
0.576871
0.576668
0.577528
0.579516
0.582494
0.58642
0.590741
0.594138
0.596152
0.596787
0.596709
0.596552
0.596467
0.59552
0.594137
0.592432
0.591032
0.589005
0.588727
0.588065
0.587504
0.587114
0.586963
0.585414
0.585084
0.584383
0.583372
0.582198
0.580906
0.579542
0.578179
0.576847
0.575535
0.574214
0.573008
0.572879
0.572123
0.571388
0.570938
0.570348
0.569575
0.568957
0.54763
0.550422
0.553822
0.556791
0.559587
0.563154
0.566338
0.569409
0.57253
0.575771
0.579178
0.582454
0.585103
0.587127
0.588208
0.589819
0.59089
0.593201
0.592906
0.590834
0.586453
0.579803
0.5714
0.562196
0.554383
0.547099
0.540946
0.53524
0.530226
0.526757
0.524605
0.523712
0.523317
0.52338
0.527252
0.529363
0.532686
0.536052
0.540483
0.545288
0.549934
0.554395
0.558385
0.561876
0.564941
0.56711
0.569335
0.57091
0.571957
0.572735
0.573478
0.574068
0.57465
0.575309
0.576088
0.576988
0.577971
0.578606
0.579273
0.58017
0.580438
0.580201
0.57954
0.577248
0.574518
0.571598
0.568069
0.565028
0.562569
0.560491
0.558707
0.557526
0.557196
0.558361
0.561065
0.564347
0.568888
0.574379
0.580162
0.585098
0.58828
0.590047
0.591062
0.592022
0.59289
0.592781
0.591963
0.590654
0.58966
0.589172
0.588735
0.58825
0.587857
0.587666
0.586339
0.585977
0.585228
0.584194
0.582994
0.581679
0.580262
0.578825
0.577396
0.576005
0.574687
0.573421
0.572126
0.571148
0.570377
0.569415
0.568301
0.567163
0.565929
0.544642
0.546274
0.549308
0.551958
0.554574
0.556935
0.559554
0.562316
0.565133
0.568111
0.571397
0.574757
0.577527
0.579527
0.580164
0.58065
0.582002
0.58324
0.583372
0.581472
0.577674
0.571904
0.564727
0.557212
0.551224
0.54578
0.540687
0.535889
0.531865
0.52873
0.527406
0.527184
0.528135
0.529742
0.531561
0.537144
0.540402
0.544581
0.549221
0.554225
0.559752
0.564205
0.568269
0.571754
0.574382
0.576353
0.577462
0.578503
0.578824
0.578735
0.57843
0.577969
0.577439
0.576925
0.576452
0.576028
0.57555
0.575012
0.574582
0.573337
0.572266
0.570655
0.568191
0.564113
0.559983
0.55593
0.551748
0.54853
0.546178
0.54405
0.542133
0.540781
0.540392
0.541295
0.544019
0.548502
0.553167
0.55905
0.565648
0.572514
0.578791
0.583106
0.586365
0.588581
0.590619
0.592179
0.592266
0.591569
0.590838
0.589938
0.589708
0.589439
0.589014
0.588522
0.587842
0.587006
0.586228
0.585157
0.583879
0.582532
0.580995
0.579434
0.577858
0.57629
0.574779
0.573357
0.571954
0.57035
0.568879
0.568188
0.566767
0.565148
0.563467
0.540718
0.54217
0.543614
0.545616
0.547887
0.550193
0.552623
0.555126
0.557829
0.560806
0.564041
0.567401
0.570282
0.572311
0.57319
0.573311
0.572661
0.57385
0.573547
0.572009