/*--------------------------------*- C++ -*----------------------------------*\
  =========                 |
  \\      /  F ield         | OpenFOAM: The Open Source CFD Toolbox
   \\    /   O peration     | Website:  https://openfoam.org
    \\  /    A nd           | Version:  10
     \\/     M anipulation  |
\*---------------------------------------------------------------------------*/
FoamFile
{
    format      ascii;
    class       volScalarField;
    location    "1.000237";
    object      rho;
}
// * * * * * * * * * * * * * * * * * * * * * * * * * * * * * * * * * * * * * //

dimensions      [1 -3 0 0 0 0 0];

internalField   nonuniform List<scalar> 
16320
(
0.286312
0.26138
0.235404
0.228463
0.246749
0.355288
0.44304
0.441094
0.376017
0.265539
0.193674
0.182601
0.183149
0.186409
0.194694
0.20174
0.204913
0.206303
0.205358
0.203026
0.19944
0.195908
0.193119
0.190707
0.189389
0.189443
0.192933
0.202528
0.219807
0.242369
0.267363
0.29146
0.317225
0.346449
0.363833
0.380372
0.379333
0.394469
0.397351
0.40235
0.393697
0.391582
0.374142
0.362288
0.34791
0.332863
0.323742
0.318784
0.320413
0.320899
0.347833
0.409194
0.537543
0.71783
0.853413
0.934235
0.961413
0.980257
0.952374
0.870539
0.664262
0.546557
0.510365
0.476861
0.426523
0.381209
0.355622
0.344841
0.323444
0.303727
0.291488
0.284541
0.282613
0.282606
0.283529
0.285184
0.286998
0.290569
0.303265
0.340492
0.388024
0.415484
0.418527
0.410711
0.399575
0.377022
0.328382
0.282896
0.276991
0.297869
0.373834
0.484936
0.595355
0.670238
0.747135
0.830009
0.889239
0.916749
0.925028
0.927075
0.913172
0.8596
0.859842
0.87262
0.807079
0.5331
0.458278
0.598893
0.595463
0.552389
0.572771
0.66454
0.780744
0.294625
0.265027
0.23836
0.227113
0.228474
0.272117
0.397795
0.443153
0.429321
0.354116
0.251349
0.192708
0.183914
0.184116
0.18767
0.196497
0.202704
0.206007
0.207963
0.207461
0.204288
0.199677
0.195334
0.191664
0.188967
0.186848
0.185811
0.186405
0.190097
0.197441
0.205581
0.214472
0.225068
0.234789
0.24329
0.252737
0.255522
0.262377
0.266191
0.270519
0.270788
0.271217
0.268272
0.265169
0.262379
0.258027
0.256335
0.255614
0.258483
0.266816
0.28278
0.31812
0.390959
0.515588
0.685996
0.851907
0.939099
0.974612
0.985425
0.961233
0.832546
0.637945
0.554178
0.513682
0.470702
0.420076
0.384103
0.362978
0.337189
0.311933
0.294147
0.285763
0.283909
0.284137
0.285186
0.28711
0.288475
0.289981
0.293115
0.304536
0.337273
0.378455
0.404473
0.41041
0.405205
0.394286
0.366171
0.324778
0.305495
0.308725
0.357765
0.460137
0.559115
0.633748
0.67954
0.75258
0.833002
0.887216
0.911029
0.91884
0.918251
0.887975
0.881037
0.882226
0.822988
0.555873
0.453242
0.585921
0.590118
0.538591
0.550736
0.629154
0.757189
0.313026
0.274337
0.239971
0.227774
0.226199
0.241748
0.321877
0.426715
0.442122
0.411433
0.326938
0.234144
0.190003
0.184252
0.184365
0.188155
0.19792
0.204508
0.208598
0.211759
0.213279
0.212069
0.208547
0.203029
0.196495
0.191202
0.187623
0.186016
0.185471
0.186054
0.187409
0.18942
0.192662
0.195533
0.198993
0.202676
0.205931
0.208806
0.211394
0.215142
0.217141
0.219806
0.222733
0.224752
0.226762
0.230582
0.231469
0.236367
0.238507
0.250219
0.266982
0.294843
0.347358
0.434823
0.568014
0.728183
0.87666
0.959418
0.991693
1.00497
0.952553
0.782349
0.624291
0.557964
0.52155
0.468007
0.420754
0.387391
0.354766
0.322182
0.298949
0.288289
0.285879
0.286027
0.287361
0.291546
0.293453
0.292945
0.293665
0.297328
0.310849
0.346806
0.382295
0.402392
0.404721
0.397993
0.380517
0.359199
0.344262
0.341925
0.362685
0.452732
0.546912
0.619526
0.655905
0.695045
0.771492
0.845999
0.889917
0.907063
0.9124
0.898388
0.893412
0.889279
0.825575
0.562529
0.450252
0.573006
0.583502
0.529685
0.538199
0.598416
0.719782
0.335457
0.291317
0.245843
0.231422
0.228845
0.237664
0.286715
0.38876
0.439233
0.435873
0.383151
0.2936
0.214072
0.186665
0.182475
0.183442
0.187762
0.198265
0.206208
0.211503
0.214846
0.217102
0.217629
0.216435
0.213438
0.20856
0.202136
0.195289
0.190298
0.188126
0.187435
0.187312
0.187827
0.188443
0.189733
0.19144
0.19358
0.196263
0.197887
0.200982
0.204176
0.208015
0.213321
0.217483
0.221338
0.226866
0.231294
0.232405
0.241757
0.243881
0.272153
0.29303
0.339498
0.414519
0.524326
0.666384
0.817812
0.937836
0.995876
1.02688
1.02546
0.930401
0.730869
0.621151
0.583058
0.529815
0.469661
0.41964
0.37636
0.334726
0.305851
0.29195
0.288493
0.288495
0.291148
0.299451
0.303828
0.301832
0.298788
0.298439
0.305889
0.337138
0.374625
0.396411
0.402719
0.398584
0.387179
0.377398
0.376521
0.381667
0.401521
0.466996
0.546252
0.612935
0.649492
0.669343
0.719116
0.800957
0.863533
0.893351
0.90252
0.898756
0.895982
0.888327
0.822828
0.561301
0.450383
0.565327
0.576033
0.521791
0.529934
0.583005
0.683917
0.357598
0.325176
0.269603
0.244447
0.239164
0.242797
0.287785
0.384121
0.434582
0.4417
0.412764
0.338524
0.252044
0.196325
0.182635
0.180313
0.18129
0.185396
0.195058
0.204757
0.211565
0.21602
0.218089
0.219116
0.218999
0.217655
0.215176
0.211731
0.20749
0.202899
0.19872
0.195779
0.194024
0.193159
0.193555
0.193894
0.19612
0.198438
0.200524
0.20286
0.207225
0.21153
0.218385
0.224223
0.229343
0.237296
0.245532
0.249105
0.253458
0.262621
0.266188
0.307543
0.341379
0.41368
0.517192
0.647918
0.793043
0.924925
1.00487
1.04637
1.07197
1.03615
0.864554
0.716572
0.667798
0.613362
0.533048
0.461763
0.400824
0.349092
0.313935
0.296686
0.292195
0.292432
0.297432
0.310648
0.317223
0.314828
0.308827
0.305108
0.308023
0.336014
0.374412
0.396147
0.402976
0.400513
0.396137
0.395034
0.400495
0.424571
0.477885
0.524282
0.570867
0.614384
0.645524
0.659887
0.68589
0.759584
0.836358
0.878782
0.892512
0.89436
0.893784
0.884001
0.808302
0.54289
0.450002
0.560123
0.567041
0.511921
0.519732
0.565228
0.647236
0.374908
0.365086
0.332488
0.283584
0.267734
0.265308
0.301448
0.391323
0.434786
0.441668
0.420042
0.355166
0.270232
0.204433
0.182708
0.177261
0.17615
0.176692
0.179702
0.186361
0.195242
0.204492
0.210846
0.215166
0.217283
0.217581
0.216779
0.215646
0.21439
0.212742
0.211393
0.210371
0.209927
0.210202
0.210424
0.21229
0.214033
0.218112
0.222159
0.226366
0.233446
0.239761
0.252093
0.264444
0.274259
0.286534
0.30032
0.316419
0.321157
0.330401
0.331939
0.328676
0.371014
0.421254
0.515606
0.642152
0.783603
0.918936
1.01644
1.07028
1.10915
1.11458
1.00146
0.840996
0.784429
0.724484
0.614801
0.512633
0.428076
0.363811
0.321917
0.302161
0.297809
0.298875
0.308425
0.325766
0.331534
0.327596
0.319355
0.315155
0.317185
0.342687
0.37935
0.399633
0.407084
0.408866
0.413716
0.423973
0.444404
0.501629
0.553306
0.583241
0.606177
0.625574
0.640786
0.650919
0.669845
0.729371
0.814281
0.865237
0.882481
0.887645
0.888647
0.872257
0.771536
0.500566
0.448524
0.557888
0.556845
0.503492
0.509125
0.54205
0.599974
0.381978
0.383679
0.378252
0.357251
0.337692
0.333396
0.352867
0.414788
0.435383
0.438976
0.418801
0.355534
0.272187
0.205401
0.182264
0.174332
0.17146
0.170793
0.170931
0.17277
0.176371
0.181529
0.187902
0.195915
0.203309
0.20828
0.211144
0.212634
0.213208
0.212718
0.213044
0.213316
0.215046
0.217569
0.219977
0.224752
0.229669
0.236573
0.244157
0.253211
0.265518
0.276561
0.29292
0.310916
0.327787
0.345327
0.362773
0.389719
0.400588
0.418215
0.431105
0.430136
0.437982
0.465454
0.538025
0.651127
0.783204
0.919708
1.03164
1.10089
1.14932
1.18049
1.12034
0.990838
0.927928
0.85642
0.713496
0.567847
0.455563
0.375791
0.327988
0.308279
0.305301
0.308525
0.326719
0.345217
0.346592
0.335577
0.326891
0.325423
0.334654
0.368466
0.397736
0.414385
0.423967
0.437954
0.455274
0.480847
0.53786
0.577743
0.599852
0.610583
0.619768
0.628764
0.635827
0.642574
0.658973
0.712614
0.80305
0.85672
0.873882
0.880594
0.881196
0.849706
0.715963
0.458863
0.449572
0.563576
0.544859
0.493555
0.49675
0.515463
0.548369
0.38138
0.390058
0.39324
0.394965
0.395072
0.394368
0.405326
0.426754
0.432936
0.431608
0.409321
0.348448
0.26867
0.203734
0.179955
0.171856
0.168692
0.167119
0.166342
0.166038
0.166592
0.168201
0.170183
0.17369
0.178078
0.18355
0.189692
0.196305
0.201732
0.204823
0.208015
0.210092
0.213282
0.216803
0.220001
0.225844
0.232285
0.24075
0.250596
0.263242
0.279189
0.294973
0.315658
0.338505
0.363061
0.38788
0.412751
0.448287
0.470665
0.497857
0.52088
0.529103
0.535287
0.556732
0.603646
0.687728
0.80409
0.937326
1.05629
1.13723
1.19418
1.24059
1.23011
1.13488
1.09144
0.996885
0.82032
0.622116
0.47695
0.383976
0.332607
0.315459
0.314623
0.323526
0.353719
0.366093
0.358038
0.340084
0.33533
0.339715
0.369429
0.408765
0.431205
0.448298
0.470353
0.49937
0.537607
0.592838
0.618801
0.62588
0.624987
0.622441
0.624022
0.626861
0.629345
0.635165
0.65089
0.709253
0.802213
0.851053
0.865626
0.872197
0.868086
0.812755
0.646574
0.42904
0.454075
0.573159
0.530744
0.482555
0.482383
0.484906
0.493802
0.360565
0.381785
0.391552
0.397362
0.404834
0.411519
0.416835
0.422573
0.42381
0.413766
0.383507
0.323882
0.252112
0.195352
0.177327
0.171135
0.168046
0.166132
0.164417
0.163136
0.162123
0.161655
0.161712
0.162512
0.163921
0.166
0.168685
0.172242
0.177544
0.18201
0.188684
0.194494
0.201225
0.2074
0.212918
0.220488
0.228384
0.237893
0.248686
0.262165
0.279005
0.296563
0.319352
0.344714
0.374433
0.405541
0.438653
0.482669
0.517654
0.557793
0.594428
0.615832
0.627345
0.648814
0.691529
0.761193
0.858773
0.978407
1.09355
1.18115
1.24415
1.30305
1.31826
1.29742
1.24372
1.14253
0.916206
0.660816
0.488785
0.384984
0.335564
0.323874
0.326495
0.350729
0.383985
0.383999
0.363801
0.348007
0.349342
0.371019
0.423649
0.45696
0.481255
0.513821
0.557049
0.607393
0.649794
0.664831
0.661726
0.65055
0.637457
0.628073
0.624508
0.622108
0.621723
0.625951
0.645759
0.718427
0.80855
0.849007
0.8595
0.863538
0.842332
0.751389
0.552877
0.410288
0.471763
0.574383
0.514696
0.468765
0.461744
0.448787
0.442565
0.33764
0.350948
0.368392
0.376632
0.384583
0.3952
0.400432
0.402464
0.396149
0.372204
0.331505
0.28048
0.226516
0.190653
0.177488
0.171684
0.168568
0.166476
0.164424
0.162551
0.16107
0.159727
0.15866
0.158028
0.157668
0.157782
0.158313
0.159153
0.161557
0.162806
0.16688
0.170071
0.175994
0.182983
0.190222
0.200372
0.211262
0.223181
0.236275
0.251871
0.270324
0.289786
0.313918
0.340575
0.371727
0.404702
0.442098
0.490621
0.536432
0.588484
0.640827
0.678851
0.703274
0.732273
0.777002
0.839423
0.924642
1.03199
1.14099
1.23124
1.30038
1.3659
1.41666
1.4212
1.39068
1.2499
0.974735
0.672611
0.48309
0.378407
0.338344
0.333785
0.345157
0.391269
0.409095
0.395068
0.365424
0.363918
0.381271
0.438288
0.477752
0.518024
0.560682
0.621098
0.672934
0.702067
0.710374
0.700345
0.687236
0.671888
0.652771
0.635611
0.625546
0.617211
0.612555
0.618751
0.65218
0.747288
0.823847
0.845508
0.851815
0.847834
0.789051
0.666927
0.464162
0.402346
0.499909
0.570653
0.496086
0.456016
0.444748
0.413685
0.387197
0.330011
0.329964
0.339927
0.352087
0.356131
0.358225
0.356418
0.349295
0.339448
0.321663
0.290637
0.253729
0.221225
0.192079
0.179821
0.174358
0.171286
0.168782
0.166068
0.16363
0.161604
0.159989
0.158642
0.157721
0.156952
0.156472
0.156208
0.155954
0.156488
0.15625
0.157243
0.158083
0.160246
0.163958
0.167234
0.173643
0.182024
0.192035
0.205582
0.222148
0.242507
0.265163
0.291541
0.320837
0.355808
0.393351
0.435423
0.486617
0.535631
0.594219
0.656423
0.711857
0.753415
0.796742
0.848042
0.913578
0.991659
1.09236
1.19696
1.28638
1.35988
1.43268
1.49522
1.52927
1.47381
1.31388
0.975832
0.652198
0.459324
0.367832
0.34346
0.346578
0.385382
0.431178
0.427925
0.398704
0.382709
0.393877
0.445176
0.501221
0.542647
0.612658
0.671911
0.71872
0.74302
0.748882
0.739866
0.725725
0.710668
0.690843
0.663988
0.639197
0.622096
0.607911
0.607674
0.624015
0.680801
0.787682
0.828728
0.839602
0.839402
0.811211
0.714192
0.576874
0.416894
0.403985
0.532366
0.563002
0.473991
0.44158
0.427933
0.385364
0.338936
0.3303
0.321078
0.319426
0.321872
0.335416
0.341125
0.341953
0.333333
0.315366
0.295961
0.275544
0.251255
0.223648
0.199436
0.188517
0.183746
0.179953
0.177039
0.1746
0.173881
0.171692
0.169217
0.168036
0.167829
0.166207
0.164541
0.163005
0.161031
0.159156
0.157262
0.15669
0.156319
0.156438
0.15741
0.158168
0.160338
0.164707
0.169456
0.177274
0.189055
0.202962
0.222006
0.247967
0.275386
0.311524
0.355756
0.406874
0.467413
0.526175
0.589977
0.655612
0.717595
0.775453
0.836386
0.900995
0.975088
1.05426
1.15207
1.25389
1.34113
1.41858
1.49546
1.56234
1.57993
1.52168
1.28032
0.931707
0.596039
0.424182
0.360111
0.352314
0.371566
0.444302
0.459857
0.438721
0.40073
0.407758
0.451683
0.51167
0.55357
0.64596
0.709844
0.743097
0.771123
0.778847
0.767699
0.750007
0.73193
0.712736
0.688076
0.658706
0.628755
0.610138
0.605394
0.613524
0.653825
0.757474
0.810408
0.82524
0.828918
0.812398
0.728303
0.63705
0.472097
0.398732
0.432569
0.556781
0.54658
0.453036
0.427486
0.413208
0.368892
0.309114
0.402799
0.34026
0.314748
0.305856
0.303851
0.305559
0.315107
0.319814
0.315313
0.300458
0.279706
0.255941
0.233054
0.217227
0.210443
0.204903
0.204431
0.225386
0.254772
0.270692
0.263627
0.259209
0.263831
0.26257
0.256011
0.244684
0.232068
0.215999
0.196366
0.179069
0.168541
0.162527
0.159239
0.157895
0.157309
0.157555
0.158606
0.160208
0.163333
0.169787
0.177928
0.189609
0.20743
0.232494
0.259782
0.293068
0.34237
0.414239
0.490682
0.570759
0.646623
0.71636
0.778701
0.851463
0.931732
1.01672
1.10324
1.20379
1.30291
1.38736
1.46761
1.54386
1.59443
1.60839
1.47449
1.25041
0.801524
0.516112
0.391295
0.359641
0.367297
0.435175
0.488781
0.482844
0.438891
0.432673
0.462074
0.506703
0.554328
0.660149
0.73446
0.760312
0.784187
0.804131
0.790042
0.767816
0.745003
0.722761
0.69892
0.668545
0.633199
0.613677
0.609068
0.612965
0.645222
0.738853
0.792623
0.811124
0.817334
0.804559
0.753716
0.637663
0.528983
0.416845
0.394651
0.476651
0.563293
0.524195
0.432156
0.410777
0.397359
0.357409
0.297878
0.546099
0.468802
0.400179
0.346221
0.309188
0.288024
0.27564
0.274511
0.279787
0.284163
0.277433
0.262261
0.245639
0.237507
0.234197
0.248384
0.326897
0.408921
0.443947
0.451088
0.443846
0.429842
0.419509
0.396942
0.376192
0.352591
0.329369
0.3076
0.279827
0.254499
0.230656
0.207758
0.187406
0.171773
0.163273
0.159462
0.158336
0.158556
0.159275
0.1613
0.165281
0.171112
0.182259
0.199255
0.224305
0.249983
0.283989
0.335358
0.411637
0.514622
0.617868
0.69985
0.778007
0.854518
0.943705
1.03689
1.13449
1.23964
1.33863
1.42139
1.49992
1.56733
1.61093
1.56707
1.46894
1.03456
0.64686
0.44226
0.371452
0.36783
0.412599
0.50748
0.522934
0.495078
0.452522
0.471079
0.508746
0.538363
0.649995
0.743084
0.775901
0.792035
0.823043
0.811665
0.784355
0.750365
0.719121
0.691341
0.664356
0.63514
0.62116
0.616886
0.621536
0.652892
0.736519
0.781714
0.79841
0.803715
0.793885
0.748542
0.652113
0.568623
0.432485
0.405077
0.412608
0.526556
0.560989
0.501525
0.408754
0.387536
0.375052
0.341514
0.292603
0.643953
0.628657
0.549822
0.467221
0.412752
0.365645
0.329564
0.295873
0.254475
0.239924
0.240519
0.243067
0.242109
0.245807
0.266228
0.357984
0.489838
0.556645
0.570955
0.563936
0.536148
0.497399
0.462406
0.426382
0.399372
0.375074
0.355474
0.340176
0.320599
0.303337
0.287776
0.270213
0.249602
0.226822
0.200336
0.177151
0.164965
0.160289
0.159077
0.159703
0.160911
0.163385
0.168805
0.178565
0.196621
0.219851
0.247617
0.285713
0.339566
0.422622
0.536079
0.660441
0.754921
0.852336
0.949863
1.04936
1.15531
1.26716
1.36654
1.44629
1.52118
1.57685
1.58268
1.57218
1.20973
0.804078
0.511155
0.392104
0.368707
0.390361
0.500016
0.557181
0.549295
0.495609
0.495489
0.51578
0.529024
0.604275
0.732667
0.777615
0.798486
0.83412
0.830085
0.80324
0.755587
0.713106
0.684342
0.662366
0.643213
0.634866
0.631618
0.642021
0.682449
0.747189
0.776132
0.787161
0.790204
0.777702
0.732917
0.646589
0.561899
0.458588
0.41396
0.407858
0.462742
0.550053
0.555777
0.482179
0.383037
0.352295
0.337648
0.311756
0.291088
0.686586
0.722918
0.724359
0.661659
0.536985
0.425097
0.387896
0.359026
0.329104
0.281917
0.23552
0.227192
0.231228
0.253464
0.322704
0.476908
0.585536
0.615127
0.610279
0.580883
0.535837
0.481037
0.43638
0.402336
0.382039
0.369079
0.357161
0.345534
0.330639
0.318857
0.310481
0.302346
0.29014
0.274574
0.253631
0.228523
0.19967
0.176329
0.164322
0.16052
0.160537
0.161347
0.163597
0.168375
0.178382
0.19729
0.221537
0.253348
0.295352
0.358913
0.448337
0.561092
0.702184
0.827587
0.95107
1.05835
1.17515
1.28736
1.38425
1.45928
1.5212
1.54586
1.58714
1.30242
0.945227
0.585116
0.421939
0.371968
0.378112
0.465737
0.571013
0.59318
0.563373
0.527647
0.530336
0.531415
0.553086
0.68353
0.764021
0.7935
0.835378
0.84418
0.823775
0.778431
0.732474
0.70052
0.67579
0.663043
0.656792
0.659317
0.680168
0.723611
0.757857
0.771743
0.7763
0.775989
0.756187
0.707294
0.62382
0.544791
0.463246
0.422367
0.417585
0.433064
0.515909
0.559185
0.544841
0.458692
0.367603
0.332959
0.312116
0.303547
0.300319
0.656066
0.720694
0.798159
0.815329
0.780719
0.647272
0.451867
0.384504
0.362317
0.340591
0.277551
0.232974
0.233077
0.270586
0.40594
0.557286
0.620463
0.625654
0.606348
0.550477
0.46276
0.405984
0.381732
0.375351
0.375713
0.370873
0.362791
0.355826
0.347066
0.335239
0.321348
0.311968
0.305264
0.296629
0.284198
0.267853
0.244797
0.216442
0.187971
0.167212
0.161527
0.161425
0.162411
0.164712
0.169751
0.180924
0.202448
0.229673
0.264873
0.316844
0.389482
0.480594
0.601614
0.766187
0.918092
1.06024
1.18047
1.30129
1.38307
1.44306
1.46865
1.53055
1.31445
1.03895
0.643458
0.455362
0.378058
0.371351
0.426443
0.555435
0.616692
0.616194
0.574692
0.560867
0.54321
0.53826
0.597171
0.709816
0.776003
0.81661
0.850842
0.841368
0.810904
0.765461
0.729575
0.711789
0.701561
0.69776
0.706527
0.729356
0.752916
0.762333
0.76583
0.765413
0.757296
0.726093
0.669564
0.588956
0.517298
0.451826
0.430266
0.427342
0.435085
0.478942
0.547322
0.562533
0.530659
0.440442
0.35909
0.323696
0.311238
0.308933
0.313038
0.676628
0.70474
0.76433
0.859099
0.889726
0.860927
0.70313
0.444192
0.375014
0.357688
0.331364
0.259753
0.24383
0.30397
0.47956
0.599036
0.628377
0.620209
0.563322
0.448831
0.394185
0.379079
0.376857
0.382411
0.389408
0.388223
0.382024
0.375929
0.368397
0.35539
0.340112
0.32416
0.311941
0.304257
0.294828
0.282956
0.267359
0.245534
0.219447
0.186989
0.167557
0.162467
0.16268
0.163944
0.166636
0.172775
0.187675
0.210734
0.241104
0.285076
0.344651
0.420718
0.521425
0.66161
0.847866
1.00516
1.15239
1.2502
1.32782
1.34879
1.41524
1.2455
1.04738
0.662461
0.479516
0.387818
0.366363
0.394527
0.51917
0.60682
0.633998
0.624808
0.606622
0.569204
0.545125
0.552288
0.618397
0.711954
0.782495
0.83387
0.850329
0.835549
0.801083
0.773649
0.760163
0.7503
0.745089
0.748819
0.757819
0.759123
0.758372
0.75626
0.748888
0.725011
0.683643
0.617085
0.547027
0.484603
0.44722
0.436649
0.435094
0.439541
0.460622
0.522665
0.560977
0.563281
0.519477
0.433341
0.357842
0.32538
0.317477
0.318317
0.319862
0.779093
0.746555
0.768957
0.829046
0.910468
0.949509
0.893836
0.6608
0.401706
0.36406
0.35269
0.301449
0.274514
0.346094
0.536396
0.623101
0.63236
0.596422
0.490802
0.406222
0.389169
0.389077
0.412706
0.446663
0.458411
0.453599
0.439518
0.414866
0.38965
0.369061
0.352203
0.339251
0.330281
0.323166
0.316561
0.309193
0.299622
0.283074
0.25668
0.221475
0.181591
0.166957
0.16403
0.164419
0.165933
0.169522
0.178138
0.1958
0.221174
0.257491
0.305191
0.3669
0.449317
0.56493
0.716798
0.905308
1.04677
1.14685
1.16862
1.22596
1.10365
0.957751
0.64812
0.480559
0.398455
0.363198
0.372718
0.47258
0.578325
0.625786
0.638435
0.639089
0.618187
0.568726
0.55119
0.565072
0.615776
0.703868
0.780028
0.835388
0.845869
0.832069
0.802962
0.783726
0.77132
0.762899
0.759069
0.757594
0.753513
0.748757
0.737882
0.716242
0.680921
0.62892
0.568682
0.510185
0.46275
0.444799
0.438551
0.436908
0.438397
0.449695
0.489524
0.549858
0.568074
0.562939
0.515743
0.435893
0.371123
0.335873
0.323898
0.32173
0.321497
0.814676
0.825535
0.824602
0.842174
0.897152
0.964449
0.979426
0.844598
0.49622
0.368941
0.360214
0.334201
0.3041
0.37685
0.573136
0.641893
0.639994
0.579898
0.45454
0.409416
0.408725
0.48883
0.644357
0.715437
0.718677
0.701098
0.650939
0.557686
0.462451
0.406207
0.375538
0.358205
0.351755
0.351684
0.353192
0.352739
0.348166
0.33479
0.307967
0.268705
0.217808
0.176511
0.166393
0.165409
0.166509
0.168625
0.173659
0.185171
0.205274
0.233459
0.269863
0.317906
0.382977
0.473008
0.590087
0.728947
0.854896
0.907486
0.93764
0.896933
0.793903
0.591161
0.458288
0.40153
0.361929
0.359003
0.424216
0.539728
0.603587
0.635025
0.646859
0.643537
0.615809
0.57186
0.560519
0.567926
0.603276
0.682873
0.769844
0.82983
0.842742
0.831132
0.804565
0.782816
0.77028
0.760347
0.751659
0.742746
0.7285
0.706794
0.675195
0.632791
0.581806
0.527767
0.476906
0.452712
0.443029
0.43875
0.436784
0.436389
0.441559
0.463183
0.518065
0.563765
0.573823
0.564773
0.51826
0.449744
0.395293
0.352684
0.3285
0.323755
0.322543
0.801859
0.834352
0.86347
0.877658
0.906154
0.968038
0.991549
0.924269
0.615796
0.386525
0.362523
0.356027
0.328856
0.392612
0.594494
0.657747
0.649498
0.573056
0.456903
0.429292
0.492486
0.746508
0.960929
1.03368
1.03376
1.00895
0.949518
0.838463
0.711626
0.591453
0.494033
0.426131
0.390151
0.379068
0.378906
0.385259
0.387441
0.381224
0.35845
0.31987
0.263357
0.200089
0.170714
0.16687
0.167393
0.169226
0.172757
0.180644
0.195431
0.215891
0.242428
0.278461
0.327498
0.392783
0.473931
0.55933
0.621032
0.644511
0.644768
0.597473
0.50547
0.428897
0.390587
0.362164
0.350394
0.380049
0.497502
0.57198
0.621499
0.642702
0.644665
0.638964
0.621252
0.584795
0.566254
0.56238
0.578613
0.63604
0.740714
0.818285
0.836904
0.828843
0.804678
0.779065
0.764367
0.751364
0.73306
0.712536
0.683755
0.645537
0.599898
0.548112
0.494484
0.458783
0.445202
0.438924
0.43481
0.43078
0.42889
0.430858
0.443568
0.476081
0.536103
0.573471
0.581039
0.571757
0.529312
0.468635
0.421409
0.379187
0.338223
0.329141
0.326913
0.736416
0.817734
0.865053
0.897153
0.927571
0.97727
0.992601
0.944255
0.691736
0.42607
0.364552
0.365487
0.347831
0.391183
0.599804
0.673687
0.661659
0.574121
0.472086
0.469199
0.594254
0.935677
1.16619
1.22905
1.22381
1.19578
1.15529
1.08727
0.999657
0.896939
0.780597
0.663849
0.555402
0.472502
0.425641
0.410279
0.405865
0.403749
0.388036
0.356129
0.303807
0.23288
0.180135
0.169924
0.169033
0.170486
0.173901
0.181224
0.192823
0.207182
0.225993
0.251804
0.286421
0.32994
0.379726
0.423823
0.449456
0.457665
0.450446
0.420975
0.390222
0.371612
0.361681
0.344265
0.351063
0.447441
0.536218
0.595741
0.628683
0.640355
0.643786
0.642221
0.633143
0.603987
0.568982
0.559393
0.56154
0.593044
0.677881
0.79049
0.828302
0.827283
0.809613
0.776684
0.75751
0.740682
0.712113
0.679459
0.639018
0.587263
0.531333
0.477666
0.448435
0.437119
0.431299
0.42461
0.41499
0.411391
0.41183
0.421607
0.446066
0.486822
0.545126
0.581253
0.588595
0.58195
0.54689
0.492267
0.449393
0.417001
0.365432
0.343884
0.338877
0.613247
0.763307
0.856345
0.901463
0.943681
0.982989
0.982809
0.901644
0.633134
0.435008
0.371948
0.365726
0.361239
0.385123
0.595893
0.698465
0.686249
0.590645
0.511318
0.516197
0.660003
1.02712
1.23838
1.27529
1.25796
1.22626
1.19259
1.15824
1.12198
1.07974
1.01421
0.922376
0.810896
0.692201
0.581917
0.489448
0.435427
0.415832
0.398694
0.370429
0.32554
0.265993
0.210065
0.180262
0.17377
0.173465
0.176144
0.183235
0.19441
0.206432
0.220309
0.238014
0.260682
0.287547
0.315726
0.337811
0.350578
0.356812
0.357187
0.353854
0.353651
0.353112
0.341404
0.337215
0.389691
0.494743
0.558441
0.606446
0.633324
0.648891
0.652749
0.650908
0.642519
0.624288
0.5884
0.563783
0.557329
0.567688
0.60601
0.726638
0.80867
0.822726
0.815264
0.785683
0.751748
0.732215
0.696787
0.650411
0.598061
0.534971
0.475775
0.442821
0.429809
0.422413
0.410049
0.3906
0.383031
0.381888
0.388027
0.40723
0.439621
0.47985
0.534966
0.582228
0.594441
0.59294
0.568507
0.520559
0.478511
0.459208
0.418476
0.380098
0.368448
0.60215
0.75795
0.857282
0.920854
0.962179
0.971837
0.936103
0.757125
0.511066
0.421745
0.381288
0.365046
0.368962
0.376419
0.581331
0.731883
0.727623
0.647366
0.581657
0.584043
0.722733
1.06796
1.2405
1.26003
1.23401
1.18166
1.14594
1.11973
1.10356
1.08912
1.06562
1.02418
0.961738
0.872349
0.759647
0.638507
0.529748
0.452201
0.415195
0.382165
0.335832
0.283307
0.241464
0.214771
0.192955
0.183878
0.18318
0.188156
0.1975
0.208677
0.221434
0.234914
0.249661
0.266115
0.282694
0.296033
0.306542
0.316343
0.326207
0.336299
0.343426
0.342069
0.33003
0.341794
0.441012
0.516715
0.574376
0.620864
0.655572
0.673515
0.678907
0.674367
0.665918
0.657698
0.638989
0.592605
0.562936
0.55482
0.571825
0.627185
0.759949
0.81011
0.812856
0.798726
0.757309
0.719796
0.683868
0.620586
0.555419
0.487588
0.442669
0.425994
0.416627
0.399943
0.368768
0.348208
0.344176
0.345335
0.356438
0.381688
0.41812
0.456539
0.506093
0.572943
0.60008
0.604712
0.5952
0.560725
0.5164
0.495163
0.476668
0.441625
0.417357
0.679717
0.814794
0.890448
0.927443
0.93963
0.899693
0.734263
0.519434
0.431461
0.405217
0.384862
0.364801
0.369597
0.37224
0.541739
0.754853
0.78347
0.730347
0.678911
0.678311
0.804125
1.09414
1.21088
1.20558
1.12918
0.999935
0.948803
0.926674
0.934745
0.985157
1.00825
1.00233
0.974179
0.923273
0.847513
0.747134
0.637734
0.543019
0.472769
0.418405
0.359697
0.303416
0.263849
0.250366
0.240002
0.222188
0.207115
0.203247
0.207123
0.214588
0.224878
0.236935
0.24924
0.261276
0.273059
0.283943
0.295131
0.307758
0.321306
0.333589
0.337962
0.32795
0.324111
0.378262
0.469172
0.529051
0.588954
0.661196
0.716232
0.741554
0.744927
0.73665
0.724303
0.71356
0.704711
0.678414
0.60944
0.568748
0.556581
0.575635
0.643479
0.768694
0.80305
0.800563
0.771365
0.71438
0.661044
0.590357
0.508597
0.450153
0.426907
0.416693
0.402075
0.36979
0.322686
0.303719
0.300717
0.30303
0.316173
0.343993
0.381122
0.415351
0.456175
0.529611
0.590122
0.609029
0.611547
0.598288
0.561668
0.528326
0.51755
0.504815
0.480254
0.783009
0.832568
0.864487
0.849249
0.751036
0.58237
0.455889
0.419468
0.414272
0.406733
0.395011
0.367932
0.368662
0.369652
0.47876
0.751302
0.849221
0.821897
0.790739
0.792532
0.897081
1.09773
1.15104
1.09863
0.896145
0.687259
0.631866
0.614261
0.624273
0.691522
0.78616
0.865558
0.899579
0.895556
0.855568
0.785038
0.698471
0.612886
0.548404
0.501702
0.437264
0.366053
0.315954
0.284111
0.274809
0.270076
0.257768
0.244825
0.236613
0.234556
0.237285
0.244253
0.253496
0.263778
0.274362
0.284587
0.296161
0.310386
0.326232
0.335244
0.331704
0.318858
0.328184
0.41193
0.484823
0.536009
0.627293
0.71635
0.762772
0.785602
0.798386
0.804621
0.805331
0.800725
0.793952
0.784198
0.750089
0.648768
0.579209
0.56002
0.578391
0.64712
0.765381
0.790569
0.781222
0.725373
0.646373
0.563443
0.471139
0.432335
0.418957
0.410105
0.3882
0.340801
0.282302
0.264399
0.26192
0.263929
0.274731
0.296727
0.326967
0.360052
0.398649
0.452229
0.530167
0.593269
0.615041
0.618528
0.607067
0.575846
0.548671
0.54198
0.53769
0.696743
0.686232
0.623983
0.51811
0.442048
0.416407
0.418665
0.433622
0.444769
0.443117
0.431087
0.384956
0.370711
0.369983
0.425949
0.726419
0.896129
0.915025
0.899639
0.90572
0.980149
1.07492
1.07595
0.941574
0.672308
0.50766
0.465674
0.449973
0.446009
0.462711
0.508558
0.589343
0.705435
0.784467
0.803342
0.781898
0.720565
0.649446
0.590032
0.557747
0.523336
0.468171
0.410204
0.34773
0.308448
0.300521
0.298675
0.291204
0.281834
0.274842
0.271238
0.270428
0.272554
0.278168
0.28652
0.297263
0.31064
0.324593
0.333228
0.332324
0.32028
0.313517
0.351294
0.432604
0.485283
0.551315
0.665337
0.733862
0.761244
0.776635
0.791026
0.805207
0.818298
0.829691
0.840157
0.849492
0.851814
0.821779
0.715425
0.601439
0.566346
0.572289
0.639976
0.755032
0.777454
0.752624
0.660621
0.554245
0.455499
0.423643
0.414564
0.407832
0.385414
0.33036
0.265924
0.249309
0.247156
0.248144
0.254167
0.26466
0.277518
0.295455
0.327824
0.377049
0.435089
0.50798
0.586392
0.619787
0.627842
0.623198
0.602044
0.572752
0.561137
0.450872
0.438675
0.432077
0.433441
0.436699
0.439673
0.446849
0.466404
0.477879
0.474302
0.458359
0.410622
0.3745
0.371583
0.394845
0.664552
0.892372
0.992809
0.99319
0.996008
1.0329
1.0571
0.979962
0.783622
0.551247
0.446608
0.415748
0.398275
0.38668
0.384785
0.395094
0.423858
0.4816
0.585275
0.689858
0.725886
0.717941
0.668867
0.611809
0.575562
0.560902
0.539955
0.505052
0.444225
0.376029
0.333587
0.322182
0.321004
0.317723
0.312037
0.306961
0.304507
0.304299
0.30694
0.312075
0.319228
0.327229
0.332975
0.333111
0.326183
0.31123
0.314017
0.372575
0.441347
0.47849
0.56525
0.673044
0.725795
0.738996
0.746838
0.757502
0.77425
0.79306
0.810773
0.82788
0.84667
0.867542
0.883881
0.878335
0.805816
0.644641
0.570866
0.561642
0.620014
0.740851
0.767211
0.717784
0.585294
0.460328
0.415212
0.408736
0.407114
0.39594
0.347345
0.27009
0.245607
0.242388
0.242936
0.247653
0.254471
0.25952
0.263869
0.275212
0.298069
0.33606
0.394817
0.472708
0.556827
0.616469
0.637425
0.640269
0.629839
0.607208
0.430919
0.439564
0.450739
0.458858
0.458676
0.459674
0.46383
0.479038
0.496615
0.492123
0.474152
0.427199
0.379797
0.373138
0.381243
0.551907
0.862286
1.01162
1.06369
1.0608
1.06584
1.04856
0.94505
0.718358
0.501154
0.429664
0.406523
0.391938
0.373716
0.362182
0.360421
0.366653
0.386427
0.430754
0.517787
0.62854
0.673776
0.672742
0.632159
0.583671
0.56673
0.560129
0.550467
0.521166
0.465804
0.403319
0.355552
0.339844
0.336667
0.334465
0.331451
0.328594
0.326911
0.326994
0.329133
0.331951
0.334127
0.333684
0.329445
0.314721
0.306578
0.323366
0.388993
0.438159
0.471636
0.573056
0.673224
0.709412
0.712747
0.703494
0.696813
0.702298
0.726395
0.755462
0.783844
0.813518
0.843468
0.874601
0.901563
0.915477
0.874672
0.723428
0.585652
0.551233
0.589615
0.721767
0.765006
0.683225
0.516254
0.412247
0.395408
0.400753
0.405482
0.37882
0.295308
0.248037
0.241248
0.240903
0.245031
0.251694
0.254652
0.255782
0.258252
0.264071
0.275671
0.299525
0.344291
0.4144
0.506298
0.592465
0.637929
0.652025
0.651613
0.474294
0.483706
0.488445
0.482002
0.472045
0.467577
0.467539
0.481099
0.505097
0.500949
0.483105
0.439975
0.38429
0.375404
0.376245
0.448478
0.786989
0.990187
1.08443
1.10553
1.09522
1.05164
0.93932
0.713819
0.497294
0.428395
0.407454
0.395428
0.379328
0.362055
0.35419
0.352765
0.355953
0.369965
0.406081
0.483406
0.594262
0.643013
0.644099
0.607028