/*--------------------------------*- C++ -*----------------------------------*\
  =========                 |
  \\      /  F ield         | OpenFOAM: The Open Source CFD Toolbox
   \\    /   O peration     | Website:  https://openfoam.org
    \\  /    A nd           | Version:  10
     \\/     M anipulation  |
\*---------------------------------------------------------------------------*/
FoamFile
{
    format      ascii;
    class       volScalarField;
    location    "1.000237";
    object      T;
}
// * * * * * * * * * * * * * * * * * * * * * * * * * * * * * * * * * * * * * //

dimensions      [0 0 0 1 0 0 0];

internalField   nonuniform List<scalar> 
16320
(
0.00760197
0.00831277
0.00922036
0.00949961
0.00879462
0.00611059
0.0049082
0.00493043
0.00578412
0.00818282
0.0111835
0.0118373
0.0117727
0.0115306
0.0109967
0.0105628
0.0103411
0.0102048
0.0101776
0.0102156
0.0103153
0.0104145
0.0104725
0.0105107
0.0104904
0.0103951
0.010118
0.00955749
0.00873215
0.00785006
0.00705026
0.00639805
0.00584965
0.00530242
0.00505137
0.00483752
0.00488083
0.00471421
0.00473192
0.00470641
0.00485879
0.00490968
0.0051751
0.00535707
0.00558718
0.00583666
0.00599454
0.00608149
0.00604309
0.00602098
0.00555453
0.00473588
0.00359343
0.00270537
0.00229778
0.00211792
0.00208329
0.00208403
0.00218596
0.00244512
0.00328932
0.00411038
0.00449502
0.0048899
0.00553453
0.00624633
0.0067415
0.0069933
0.0074935
0.0080158
0.00838367
0.00861432
0.00868912
0.00869462
0.00866091
0.00859277
0.00850654
0.00835479
0.00794816
0.00702957
0.00610142
0.00563166
0.00552439
0.00556877
0.00566784
0.00595061
0.0067758
0.00782
0.00794049
0.00734161
0.00582359
0.00446191
0.00361606
0.00319719
0.002859
0.00256795
0.00239639
0.00232779
0.0023155
0.00232435
0.00237854
0.00254571
0.00257277
0.00256544
0.00281348
0.00432224
0.00506556
0.00391867
0.00398286
0.0043279
0.00420489
0.00364667
0.0031239
0.00735519
0.0081612
0.00906643
0.00951622
0.00946551
0.00795139
0.0054493
0.00489411
0.00505304
0.00612568
0.0086165
0.0112073
0.0117167
0.0116711
0.01141
0.0108495
0.0104617
0.0102317
0.0100689
0.0100186
0.0100874
0.0102264
0.0103577
0.0104638
0.0105247
0.0105521
0.0105186
0.0103954
0.0101131
0.00966297
0.00921794
0.00878531
0.00833449
0.00796549
0.00767972
0.00741044
0.00735754
0.00720914
0.00715159
0.00708812
0.00711942
0.00713917
0.00724155
0.00733479
0.00741146
0.00752932
0.00756689
0.00757811
0.00748367
0.00724091
0.00682804
0.00607199
0.00494331
0.00375457
0.00283273
0.00230148
0.00211737
0.00207561
0.00210044
0.00221377
0.00263302
0.0035281
0.00416931
0.00457936
0.00506381
0.00572687
0.00630343
0.00670653
0.00725212
0.00787142
0.00837681
0.00864463
0.00871465
0.0087096
0.00866798
0.00858716
0.008511
0.0084177
0.00826517
0.00788735
0.00705872
0.00621883
0.00574732
0.00559415
0.00560396
0.0057005
0.00608054
0.00680473
0.00718843
0.00706688
0.00606861
0.00469208
0.00383869
0.00336927
0.00312905
0.00281905
0.00254562
0.00239355
0.00234025
0.00233508
0.00235629
0.00245858
0.00250564
0.0025318
0.00275084
0.00412092
0.00510241
0.00398527
0.0039954
0.00440971
0.00434292
0.00382476
0.00319885
0.00689635
0.00785505
0.00896956
0.00945311
0.00952899
0.00892642
0.00670888
0.00507409
0.00489824
0.00526341
0.00661929
0.00922258
0.0113394
0.0116629
0.0116187
0.0113399
0.0107295
0.0103239
0.0100544
0.00983072
0.009682
0.00966031
0.00973711
0.00991442
0.0101444
0.010316
0.0104187
0.0104234
0.0103773
0.0102669
0.0101264
0.00996633
0.0097663
0.00960683
0.00944224
0.00928985
0.00917898
0.00910066
0.00903936
0.00892942
0.00888794
0.00881139
0.00871517
0.00864258
0.00856208
0.0084102
0.00836412
0.00817921
0.00809024
0.00769667
0.00720491
0.00652217
0.00554016
0.00443473
0.00340885
0.00267794
0.00224612
0.00208804
0.00207242
0.00210926
0.00230132
0.00287835
0.00372173
0.00425132
0.0046143
0.00519358
0.00581451
0.00634638
0.00695793
0.00768982
0.00831394
0.00864145
0.00872428
0.00871742
0.00866234
0.00851072
0.00841432
0.00837577
0.00829059
0.0081143
0.00768478
0.00681242
0.0061034
0.00572675
0.00562479
0.0056567
0.00585509
0.00615093
0.00636972
0.00636704
0.00596224
0.00475985
0.00391192
0.00343335
0.00322859
0.00303849
0.00273534
0.00249804
0.00238456
0.00235497
0.00236178
0.00242275
0.00246426
0.00250507
0.00273393
0.00405482
0.00511114
0.00405065
0.0040145
0.00445249
0.00441194
0.00399244
0.00333796
0.00641452
0.00737445
0.00872748
0.00927632
0.00939307
0.00905946
0.00751888
0.00555718
0.0049262
0.00496557
0.00564487
0.00735342
0.0100652
0.0115161
0.0117457
0.0116406
0.011321
0.0106644
0.0101894
0.00986303
0.00963005
0.00944897
0.0093426
0.00930973
0.00935136
0.00949143
0.009709
0.00995707
0.010117
0.0101501
0.010126
0.0100935
0.0100371
0.00998908
0.00992183
0.00985047
0.00977474
0.0096863
0.00965546
0.00955105
0.00944025
0.00929426
0.00907986
0.00890989
0.00874861
0.00852343
0.0083411
0.00828972
0.00795029
0.00785232
0.00703721
0.00652055
0.00563055
0.00461701
0.00366362
0.00290213
0.00238974
0.00211767
0.00204262
0.0020486
0.00212859
0.00243033
0.00317957
0.0038461
0.00416746
0.00463625
0.00526629
0.00592061
0.00662536
0.00747378
0.00820248
0.00860972
0.00871903
0.00871189
0.00861258
0.00834178
0.0081751
0.0081719
0.00818635
0.00811934
0.00784093
0.00703788
0.00625216
0.00582974
0.00566406
0.00565439
0.00575676
0.00585048
0.0058152
0.00569297
0.00537259
0.00459406
0.00390095
0.00345573
0.00324588
0.00314057
0.00292013
0.00262572
0.00244593
0.00238061
0.00237735
0.00241258
0.00244832
0.00249863
0.00273169
0.00404333
0.00508321
0.0040775
0.00403729
0.00448578
0.0044459
0.00406539
0.0034838
0.00600136
0.00658893
0.00794397
0.00876426
0.00897135
0.00885564
0.00748327
0.00562217
0.00497858
0.00490112
0.00524238
0.0063828
0.00855038
0.0109563
0.0117449
0.0118534
0.0117379
0.0114166
0.0107843
0.0102062
0.00980138
0.00951808
0.00934342
0.00920851
0.00912477
0.00909822
0.00911913
0.00918862
0.0093073
0.00945339
0.00959408
0.0096844
0.00973104
0.00974584
0.00972147
0.00971683
0.00963316
0.00956117
0.0095038
0.0094337
0.00926882
0.00910478
0.00883072
0.00860107
0.00840264
0.00811075
0.00782677
0.00768428
0.00753426
0.00724136
0.00714212
0.00618223
0.00555783
0.00458738
0.00367901
0.00295438
0.00244082
0.00212695
0.00200609
0.00199076
0.00202233
0.00218325
0.00268876
0.00335698
0.00367493
0.00404994
0.00469386
0.0054414
0.00628964
0.00724219
0.0080723
0.00855399
0.00868659
0.00866713
0.00849615
0.00809744
0.00787833
0.00787731
0.00795737
0.00797537
0.00781565
0.00708824
0.00627585
0.00584825
0.00566971
0.00563034
0.0056261
0.00558358
0.00545642
0.00510493
0.00449926
0.00407172
0.00371413
0.0034305
0.00324966
0.00316933
0.00304628
0.00275601
0.00251404
0.0024093
0.00239358
0.00241393
0.00244336
0.00249924
0.00276638
0.00415662
0.00505814
0.00408259
0.00406948
0.00453585
0.00449586
0.00415753
0.00364898
0.0057149
0.00585992
0.00643465
0.00754491
0.00800619
0.0081011
0.00714554
0.00552118
0.00497941
0.00490603
0.0051572
0.00609048
0.00798695
0.0105252
0.0117504
0.01207
0.0120932
0.0119937
0.0117205
0.0112178
0.0106251
0.0100661
0.00967792
0.00939457
0.00921393
0.00911586
0.00905992
0.00902411
0.009005
0.00901192
0.00901484
0.00901293
0.00900251
0.00897902
0.00897165
0.00890567
0.00885931
0.00872593
0.00860283
0.0084764
0.00824627
0.00804652
0.00766183
0.00730402
0.00703534
0.00671864
0.00638928
0.00604748
0.0059301
0.00577121
0.00572699
0.00575851
0.00507781
0.00446313
0.00365198
0.00294801
0.00244267
0.00212021
0.00196619
0.00192862
0.00194041
0.00202345
0.00232425
0.00287936
0.00316088
0.00347127
0.00411903
0.00496202
0.00596043
0.00702931
0.00795789
0.00848512
0.00860414
0.00855455
0.00826111
0.00777653
0.00758626
0.00761183
0.00773271
0.00775403
0.00761855
0.00697114
0.00620944
0.00580764
0.00561818
0.00551645
0.00538315
0.00519324
0.00490374
0.0043044
0.00386781
0.00364027
0.00347824
0.00335068
0.00325641
0.00319668
0.00310418
0.00285641
0.00257031
0.00243588
0.00240994
0.00242094
0.00244503
0.00251927
0.00288067
0.00447783
0.00503706
0.00406733
0.00411078
0.00457329
0.00454977
0.00429617
0.00389954
0.00560377
0.00557223
0.0056516
0.00599015
0.00634984
0.00645173
0.00611292
0.00521637
0.00497927
0.00494297
0.00518087
0.00609481
0.00794321
0.0104843
0.0117913
0.0122863
0.0124374
0.0124202
0.0123339
0.0121162
0.0117752
0.0113367
0.0108488
0.0103081
0.0098444
0.00952428
0.00930826
0.00915971
0.00906289
0.0090203
0.0089462
0.0088864
0.00878268
0.00866489
0.00856937
0.00839654
0.00823691
0.00802272
0.00780205
0.00754982
0.00722148
0.00694666
0.00656366
0.00618078
0.00585308
0.00554003
0.0052531
0.00487306
0.00472395
0.0045166
0.00436532
0.00434836
0.00428204
0.00400508
0.00347158
0.00288203
0.00241902
0.0020978
0.00192075
0.00186079
0.00186201
0.00190178
0.00208339
0.00245643
0.00269928
0.00297568
0.0035955
0.00453951
0.00567401
0.00688937
0.00790191
0.00840603
0.00847525
0.0083608
0.00786407
0.00739209
0.00730367
0.00747179
0.0075928
0.00754279
0.00724955
0.00650039
0.00593347
0.00560755
0.00539674
0.00514763
0.00488371
0.00456542
0.00403433
0.00371672
0.00354607
0.00345532
0.00338092
0.00331407
0.0032637
0.00322132
0.00314009
0.0029098
0.00259423
0.00244874
0.00242221
0.00242818
0.00245227
0.00257054
0.00308316
0.00484803
0.00498472
0.00399385
0.00416595
0.00462475
0.00462096
0.0044748
0.00422176
0.00560918
0.00548058
0.00543866
0.00542272
0.0054344
0.00546151
0.00533093
0.00507866
0.00501605
0.005036
0.00530951
0.00622817
0.00805935
0.0105856
0.0119571
0.0124774
0.0126545
0.0127043
0.0126828
0.0126143
0.0124713
0.0122427
0.0119876
0.0116334
0.0112315
0.0107837
0.0103371
0.00990487
0.00957266
0.00936313
0.0091621
0.00902347
0.00885707
0.0086957
0.0085622
0.00834034
0.00811841
0.00785235
0.00756706
0.00722526
0.00683074
0.00647485
0.00605186
0.00563791
0.00524525
0.00489405
0.00458034
0.00419982
0.00398301
0.00374988
0.00356844
0.00350219
0.00345541
0.00331598
0.00307615
0.00270692
0.00233644
0.00204185
0.00186229
0.00179142
0.00178369
0.00180508
0.00190788
0.00215283
0.00231601
0.00258945
0.00317063
0.00419994
0.0054926
0.00682956
0.00788421
0.00830409
0.0083032
0.00804617
0.00732349
0.00702118
0.00711442
0.00741453
0.00743956
0.00725942
0.00659369
0.00587315
0.00548075
0.00518619
0.0048623
0.00450672
0.00412191
0.00368596
0.00348629
0.00340768
0.00337974
0.00336645
0.00333646
0.0033043
0.00327882
0.00324206
0.00316351
0.00291011
0.00258528
0.00245364
0.00243341
0.00243852
0.00247464
0.00266951
0.00338814
0.00514244
0.00489288
0.00389656
0.00423985
0.00468806
0.00471452
0.00471113
0.00464154
0.00592844
0.00559877
0.00546511
0.00539665
0.00531189
0.00524389
0.00519456
0.00513908
0.00513372
0.00526259
0.00567586
0.00670954
0.00859603
0.0110552
0.01215
0.0125442
0.0127154
0.0127896
0.0128377
0.0128409
0.0128139
0.0127359
0.0126116
0.0124277
0.0121983
0.011927
0.011629
0.0112896
0.0108538
0.0105065
0.0100722
0.00972463
0.00937543
0.00907603
0.0088275
0.00852284
0.00823601
0.00792479
0.00760116
0.00722779
0.00679948
0.00639923
0.00593995
0.00549511
0.00504698
0.0046438
0.0042739
0.00386565
0.00358609
0.00331111
0.00309186
0.0029727
0.00291165
0.00281442
0.00264665
0.00241606
0.00216616
0.00193971
0.00178807
0.00171874
0.00170992
0.0017195
0.0017834
0.00190016
0.00205307
0.00229137
0.00287255
0.0040061
0.00543143
0.00689668
0.00790465
0.00817198
0.00807661
0.00749144
0.0067954
0.0067393
0.00704274
0.00728725
0.00717927
0.00667988
0.00576814
0.00526477
0.00491504
0.00452316
0.00409677
0.0036911
0.00339351
0.00326583
0.00323657
0.003254
0.00328965
0.00331365
0.00331275
0.0033101
0.00330131
0.00327359
0.00317404
0.00286058
0.00255352
0.00244833
0.00243853
0.00244936
0.00253461
0.00286688
0.00392994
0.0053305
0.00466389
0.00385839
0.00433374
0.00478296
0.00487957
0.00503909
0.00512746
0.00632448
0.00608833
0.00581019
0.00569899
0.00560077
0.00547039
0.00541763
0.00540548
0.00550038
0.00585682
0.00657145
0.00775332
0.0095728
0.0113472
0.0121548
0.0125175
0.0126871
0.0127712
0.0128413
0.0128872
0.0128938
0.0128828
0.0128451
0.0127694
0.0126716
0.0125402
0.0123836
0.0122111
0.0119293
0.011749
0.0113874
0.0111122
0.0106811
0.0102382
0.00983046
0.00933037
0.00886182
0.00840866
0.00795704
0.00747417
0.00697133
0.00650765
0.00600612
0.00552903
0.00505265
0.00461866
0.00420471
0.00376856
0.00342765
0.00310695
0.00283811
0.00266707
0.00256783
0.0024666
0.00232964
0.00216908
0.00199459
0.00182802
0.00170732
0.00164772
0.00163748
0.0016442
0.00167161
0.00174743
0.00185601
0.00211995
0.00272993
0.00398348
0.00556203
0.00709687
0.00791978
0.00800209
0.00770745
0.006769
0.00642169
0.00658849
0.00705033
0.00700582
0.00661229
0.00567693
0.00512878
0.00465022
0.00421797
0.00373465
0.00337983
0.00317719
0.00308361
0.00307725
0.00309263
0.00312727
0.00318997
0.00325338
0.00328797
0.00331846
0.00333455
0.0032975
0.00313031
0.00273911
0.00249594
0.00244762
0.00244815
0.00248047
0.00268831
0.00320534
0.00464187
0.00539027
0.00435925
0.00385046
0.00445608
0.00487292
0.00501985
0.00541823
0.00580464
0.00645905
0.00646934
0.00629378
0.00609672
0.00605136
0.00603936
0.00609064
0.0062315
0.00642281
0.00678224
0.00750207
0.00858004
0.00981085
0.0112768
0.0120106
0.0123378
0.0124959
0.0126032
0.0127154
0.0127977
0.0128427
0.0128521
0.0128364
0.0127851
0.0127211
0.012637
0.012541
0.0124493
0.0123029
0.0122271
0.0120667
0.0119333
0.0117174
0.0114141
0.011167
0.0107436
0.0102388
0.00969925
0.00906323
0.00839289
0.00769546
0.00705333
0.00641616
0.00582363
0.00523559
0.00471786
0.00424376
0.00377641
0.00340686
0.00305114
0.00274633
0.00252033
0.00237497
0.00224664
0.00211613
0.00197802
0.00184971
0.00172265
0.00162731
0.00157941
0.00157109
0.0015756
0.00159645
0.00164037
0.00177261
0.00203721
0.0027521
0.00414437
0.00590735
0.00736872
0.00786811
0.00776373
0.00696196
0.00617599
0.00617048
0.00655608
0.00676415
0.00650438
0.00568688
0.00497797
0.00452214
0.0039314
0.0035136
0.00321559
0.00304438
0.00296013
0.00294077
0.0029489
0.00296982
0.00302106
0.00311703
0.0032172
0.00329015
0.00335508
0.00334902
0.00325865
0.00298903
0.00258992
0.00247245
0.00245437
0.00247158
0.00257749
0.00294937
0.00367571
0.00512222
0.00531751
0.00406264
0.00386967
0.00462208
0.00498786
0.00517177
0.00576707
0.00657173
0.00643952
0.00663669
0.00669097
0.0066638
0.00642406
0.00634176
0.00634935
0.00653159
0.00691515
0.00737282
0.00791577
0.00867044
0.00971387
0.0108724
0.0114682
0.0117186
0.0119027
0.0120197
0.0120914
0.012033
0.0120751
0.0121394
0.0121074
0.0120031
0.0119962
0.0119958
0.0119907
0.0120222
0.0120585
0.012107
0.0120622
0.0120272
0.011969
0.011857
0.0117729
0.0115977
0.0112804
0.0109595
0.0104766
0.00982547
0.00914994
0.00834908
0.00746293
0.00670499
0.00591283
0.00517542
0.00451269
0.00390784
0.00345302
0.00306066
0.00273603
0.00248626
0.00229425
0.00212817
0.00198186
0.00184694
0.00173881
0.00163483
0.0015567
0.00152172
0.00151766
0.00152376
0.00154377
0.00160422
0.00172684
0.00209383
0.00289068
0.00456798
0.00643967
0.00757255
0.0077145
0.00728373
0.00606812
0.00581153
0.00603542
0.00654406
0.0063707
0.00569078
0.00495861
0.00451311
0.00379864
0.00338742
0.00316498
0.0029813
0.00288802
0.00286868
0.00288051
0.00290402
0.00294263
0.00301608
0.00313065
0.00325939
0.00334399
0.00336029
0.00330991
0.00310395
0.0026806
0.00251113
0.00247518
0.00247585
0.00254035
0.00285186
0.00328379
0.00445548
0.00530895
0.00492179
0.00385397
0.00395346
0.0047937
0.00510791
0.00531096
0.00597481
0.00714589
0.00526216
0.00624709
0.00677875
0.00700477
0.00708354
0.0070746
0.0068869
0.00680422
0.0069138
0.0072612
0.00779798
0.00851254
0.00933289
0.00999326
0.0102855
0.0105214
0.0104889
0.00945411
0.00829563
0.00773882
0.00787339
0.00793887
0.00773322
0.00769871
0.00781714
0.00809384
0.00843999
0.0089661
0.0097583
0.0105963
0.0111571
0.0115111
0.0117057
0.011766
0.0117836
0.0117537
0.0116667
0.0115444
0.0113217
0.0108904
0.0103883
0.00973907
0.00889073
0.00791811
0.0070694
0.00623549
0.00531191
0.00438139
0.00369152
0.00315704
0.00277122
0.00249058
0.00228457
0.00209032
0.0019171
0.0017736
0.00166555
0.00157018
0.00150713
0.00148488
0.00148465
0.0014938
0.00152819
0.00158373
0.00178572
0.00215144
0.00336552
0.00529317
0.00699804
0.00760126
0.00741908
0.00624669
0.00551912
0.0055405
0.00603508
0.00606845
0.00563029
0.00507703
0.00457935
0.00378179
0.00333393
0.00315142
0.00298487
0.00284497
0.00282941
0.00285034
0.00288372
0.00292675
0.00298953
0.00309675
0.00324738
0.00333375
0.00334622
0.00331618
0.00314552
0.00274474
0.0025589
0.00250459
0.00249249
0.00254157
0.00272497
0.00323825
0.00392509
0.00500831
0.00531973
0.00443164
0.00377894
0.00409023
0.00498386
0.00527202
0.00547736
0.00611653
0.00735677
0.00386215
0.00451617
0.00531519
0.00617514
0.00695073
0.00749823
0.00786575
0.00792063
0.00778527
0.00767231
0.00785897
0.00830782
0.00886082
0.00914891
0.00925476
0.00869525
0.00657897
0.00521735
0.00476556
0.00465018
0.004686
0.0047979
0.00486969
0.00509367
0.00531632
0.00560718
0.00593064
0.006275
0.00682375
0.00743918
0.00816834
0.00900562
0.00992232
0.0107595
0.0112977
0.0115589
0.0116295
0.0116124
0.0115571
0.0114098
0.0111307
0.0107448
0.0100785
0.00920718
0.0081643
0.00730626
0.0064111
0.00540482
0.00437899
0.00349826
0.00290566
0.00255621
0.00229395
0.00208922
0.00189867
0.00174677
0.00163014
0.00153828
0.00148481
0.00146965
0.00147202
0.00148911
0.00152016
0.00163235
0.00180804
0.00259901
0.00417272
0.00617571
0.00736263
0.00742645
0.00661475
0.00534916
0.0051493
0.0053905
0.00584583
0.00556887
0.0051066
0.00477165
0.00389736
0.00334838
0.00314276
0.00301097
0.0028309
0.00280181
0.0028343
0.00290317
0.00297672
0.00305253
0.00314143
0.00325796
0.00331071
0.00331787
0.00328128
0.0031161
0.00275756
0.00259493
0.00253982
0.0025249
0.00256056
0.00272277
0.00313558
0.00361185
0.00477027
0.00511705
0.00504851
0.00398395
0.00376435
0.0042386
0.00522759
0.00554385
0.00575629
0.00634929
0.00743201
0.00325529
0.00334974
0.00385112
0.00456043
0.00519398
0.00589458
0.00656931
0.00734305
0.00855009
0.00907718
0.00905984
0.00896412
0.00899468
0.00884973
0.00815697
0.00605521
0.00439784
0.00384726
0.00372405
0.00374033
0.00389915
0.00416359
0.00443024
0.00474764
0.00500754
0.00526492
0.00548426
0.00565895
0.00593691
0.00621823
0.00651025
0.00688753
0.00741677
0.00814657
0.00919454
0.010369
0.0111128
0.0114349
0.0115184
0.011475
0.0113871
0.011211
0.0108452
0.0102442
0.00929303
0.0082986
0.00735441
0.00635703
0.00533011
0.00426405
0.00335213
0.00272104
0.00237845
0.00210841
0.00190258
0.00174442
0.00162175
0.00152847
0.00147969
0.00146893
0.00147318
0.00149214
0.001559
0.00164682
0.00217988
0.00329606
0.00528403
0.00693284
0.00738032
0.00696637
0.00544161
0.00484895
0.00487833
0.00535559
0.00531422
0.00506283
0.00488899
0.00423343
0.00344015
0.00318022
0.0030362
0.0028445
0.0027903
0.00281685
0.00293006
0.00304491
0.00312188
0.00318406
0.0032455
0.00326351
0.00326143
0.00319498
0.00299541
0.00272844
0.00262069
0.00257951
0.0025671
0.00260771
0.00276864
0.00314277
0.00362443
0.00445496
0.00495378
0.0050486
0.00447038
0.00378745
0.003773
0.00437818
0.00553836
0.00605341
0.00634526
0.006901
0.0074162
0.00302792
0.00288932
0.00290461
0.00320335
0.00397691
0.00505502
0.0055684
0.0060391
0.00660753
0.00772273
0.00924783
0.00959058
0.00942243
0.00859351
0.00674657
0.00455327
0.00369484
0.0034995
0.00350455
0.00365406
0.00393037
0.00433702
0.00472316
0.00505402
0.00525007
0.00535793
0.00545905
0.00556435
0.00574132
0.00589144
0.00599945
0.00611854
0.00634442
0.00668642
0.00722186
0.00800274
0.00915937
0.0103596
0.0111063
0.0113718
0.0113738
0.0113201
0.0111651
0.0108457
0.0102334
0.00924689
0.00822665
0.00718461
0.00615377
0.00505391
0.00403746
0.0032212
0.0025743
0.00219589
0.00192589
0.00175818
0.00162446
0.0015333
0.00148661
0.00148007
0.00148709
0.00153489
0.00157614
0.00196012
0.00273674
0.00453176
0.00635757
0.00724561
0.00713539
0.00580651
0.0047193
0.00451223
0.00471119
0.00498844
0.00492363
0.00487303
0.00464099
0.0037145
0.00327061
0.00309301
0.00288073
0.00278901
0.00279434
0.00289313
0.00301212
0.00309478
0.00315964
0.00318211
0.00318262
0.00314942
0.00303776
0.0028436
0.00270527
0.00264841
0.00262582
0.00262051
0.00268384
0.00286588
0.00324804
0.00372028
0.00438117
0.00481502
0.00488423
0.00472717
0.00399066
0.00370025
0.00382203
0.004569
0.00573187
0.00635983
0.00681516
0.00703586
0.0071354
0.00314737
0.0028751
0.00261356
0.00258111
0.00271984
0.00330842
0.00476795
0.00562747
0.00598905
0.00638295
0.00784171
0.00934786
0.00934799
0.0080581
0.00536903
0.0039063
0.00349936
0.00345584
0.00354593
0.00387833
0.00456588
0.00515136
0.00541783
0.00543974
0.00535354
0.00533471
0.0053658
0.00539006
0.00545379
0.00558174
0.00576887
0.00589968
0.00599857
0.00615267
0.0064081
0.00679215
0.00743092
0.00840504
0.00968636
0.010887
0.0112765
0.0112917
0.0112317
0.0110809
0.0107562
0.0100932
0.00902048
0.00795076
0.00689345
0.00576269
0.00468928
0.00380021
0.00304482
0.00240298
0.0020294
0.00178812
0.00164805
0.00154875
0.00151595
0.00151419
0.00155455
0.00157045
0.00187486
0.00241093
0.00401411
0.00577003
0.0070095
0.00717373
0.00627238
0.00480869
0.00431305
0.00428797
0.00455981
0.00463547
0.00474844
0.00475435
0.00424833
0.00353404
0.00318535
0.00297564
0.00280308
0.0027766
0.00282221
0.00293063
0.00301575
0.00304065
0.00304271
0.00302607
0.00296437
0.00285296
0.00275112
0.00270636
0.00268445
0.00267698
0.00269692
0.00280381
0.00303175
0.00344028
0.00391246
0.00447577
0.004702
0.00474051
0.00466608
0.00425008
0.0037366
0.00365379
0.003898
0.0047258
0.00582856
0.00649658
0.00678577
0.00686273
0.00679381
0.00303282
0.00292156
0.00270865
0.00242899
0.00236811
0.00247214
0.00305397
0.00486072
0.00577512
0.00606742
0.00655915
0.00837656
0.00893141
0.00717257
0.00454955
0.00364019
0.00346393
0.00349717
0.00382777
0.00476995
0.00539173
0.00555123
0.00551552
0.00535511
0.00517243
0.00509707
0.00508906
0.00508673
0.00511726
0.00524126
0.00542482
0.00565091
0.0058422
0.00596929
0.00614611
0.00639768
0.00677074
0.00737767
0.00826553
0.00971556
0.0108548
0.0112081
0.0112085
0.0111372
0.0109705
0.0105926
0.00976275
0.00870391
0.0076162
0.00645045
0.00534643
0.00439278
0.00356183
0.00282824
0.00223171
0.00191936
0.0017182
0.00163594
0.00159623
0.00163253
0.00163302
0.00190417
0.00230908
0.00377819
0.00533118
0.00667265
0.00712248
0.00664859
0.00507635
0.00433043
0.00412582
0.0041593
0.00425055
0.00449477
0.00465824
0.00456267
0.00404017
0.00347134
0.00311595
0.00288076
0.00277602
0.00277246
0.00283823
0.00288487
0.00288554
0.00287851
0.00286171
0.00281875
0.00276516
0.00274405
0.002735
0.00273232
0.00274927
0.0028295
0.00298946
0.00330037
0.00371155
0.00417961
0.00451976
0.00462297
0.00463737
0.00459192
0.00438667
0.00387476
0.00362404
0.00362681
0.00395679
0.00477183
0.0058104
0.00641895
0.00660572
0.00661151
0.0065984
0.00262479
0.00274572
0.00267791
0.00250207
0.00229537
0.00222557
0.0023879
0.00325867
0.00537957
0.0059487
0.00615086
0.0072081
0.00792601
0.00629617
0.00406864
0.00350238
0.00344724
0.00364347
0.00440881
0.00529718
0.00548992
0.00543608
0.00505596
0.00459362
0.00439695
0.0043568
0.00440864
0.00458859
0.00481464
0.00502015
0.00521054
0.00537201
0.00548954
0.0055922
0.00570034
0.00583259
0.00602119
0.00637921
0.00704809
0.00818511
0.0100028
0.0109046
0.0111228
0.0111198
0.0110425
0.0108313
0.010329
0.00941703
0.00835557
0.007196
0.0060919
0.0050905
0.00418346
0.00335801
0.00268152
0.00216131
0.00191986
0.00180246
0.00182583
0.00181372
0.00206765
0.00243208
0.00372533
0.00515241
0.00630675
0.00699975
0.00687406
0.00546009
0.00446479
0.00411631
0.00401593
0.00398648
0.00409046
0.00441282
0.00452148
0.00437789
0.00398422
0.00345139
0.00307672
0.00283747
0.00275913
0.00275872
0.00281039
0.00283147
0.00283131
0.0028218
0.0028022
0.00278214
0.00277791
0.00278077
0.00281007
0.00288432
0.0030229
0.00326113
0.00359428
0.0039934
0.00438697
0.00455126
0.00460476
0.004613
0.00459177
0.00447435
0.00411108
0.00366788
0.00356037
0.00360943
0.00396201
0.00471459
0.00556801
0.00617705
0.00642987
0.0064939
0.00651569
0.00249603
0.0024724
0.00248861
0.00245108
0.00231705
0.00217567
0.00216526
0.00253576
0.0043437
0.00585212
0.00600772
0.00648793
0.00714189
0.00577409
0.00380535
0.00339976
0.00340909
0.00375457
0.00477352
0.00527376
0.0052503
0.00435659
0.00326431
0.00288619
0.00281043
0.00281923
0.00297243
0.00340097
0.00403084
0.00452769
0.00485819
0.00506227
0.00512883
0.0051167
0.00509011
0.00509555
0.00516656
0.00538171
0.00586492
0.00674108
0.00833723
0.0103214
0.0109814
0.0110801
0.0110405
0.0109341
0.010648
0.0100157
0.00906337
0.00799802
0.0069495
0.0059319
0.00495957
0.00405492
0.00329391
0.00271334
0.00235935
0.00228262
0.00227299
0.0024557
0.00283151
0.00394021
0.00521225
0.0060491
0.00680567
0.00694078
0.00592916
0.00467578
0.00418269
0.00396631
0.00387424
0.00386935
0.00401545
0.00429473
0.00435317
0.00426655
0.00398551
0.00349039
0.00306439
0.00281496
0.0027356
0.00273378
0.00278233
0.00281581
0.00281976
0.00281907
0.00282043
0.00282992
0.00286652
0.00293999
0.0030656
0.00326008
0.0035344
0.00388348
0.00428398
0.00449896
0.00458206
0.00461234
0.0046202
0.0046133
0.00455137
0.00433422
0.00387334
0.00356437
0.00350982
0.00358051
0.00392155
0.00454272
0.00519377
0.00584577
0.0062972
0.00640788
0.00644719
0.00252218
0.00243438
0.0023652
0.00234148
0.00228358
0.00215554
0.00212424
0.00230265
0.00348267
0.00556556
0.00594862
0.0060714
0.00658604
0.00552776
0.00366158
0.00331401
0.00335813
0.00380196
0.00475188
0.00504248
0.00437482
0.00286424
0.00219361
0.00199819
0.00195392
0.00195429
0.00202892
0.00225029
0.002608
0.0031047
0.00367907
0.00423299
0.00459842
0.00472686
0.00472556
0.00465065
0.0046299
0.00471644
0.00503238
0.00566102
0.00690272
0.00912116
0.0107318
0.0110196
0.0110282
0.0109492
0.0107639
0.0103311
0.00958582
0.00871456
0.00779944
0.00683098
0.00585155
0.00492596
0.00413428
0.00356039
0.00326919
0.0032167
0.00330176
0.0036462
0.00444262
0.00536091
0.00599351
0.00656574
0.00688026
0.00641373
0.00493676
0.00430453
0.00396146
0.00382014
0.00378893
0.00379971
0.00388432
0.0041022
0.0042111
0.004214
0.00406817
0.00367324
0.00312707
0.00280999
0.00271861
0.00271148
0.002757
0.00280827
0.00282411
0.0028384
0.00287998
0.00293943
0.00304471
0.00321026
0.00344216
0.0037563
0.0041529
0.00446294
0.00458602
0.00463809
0.00466748
0.00469638
0.00470358
0.00467003
0.00452683
0.00421075
0.00373572
0.0034946
0.00345468
0.00352239
0.00382122
0.00433549
0.00484266
0.00540387
0.00607632
0.0062603
0.00631607
0.00273112
0.00247083
0.00234827
0.00227858
0.00221903
0.00212239
0.00210752
0.00223638
0.00307657
0.00501956
0.00588565
0.00588756
0.00620231
0.00552649
0.0036163
0.00322661
0.00328988
0.00379031
0.00459632
0.00461294
0.00362345
0.00228931
0.00180841
0.00167878
0.00164579
0.00163997
0.00165538
0.00172158
0.00184274
0.00203227
0.00231466
0.00270723
0.00322795
0.00378266
0.00419195
0.00435729
0.00441128
0.00444886
0.00464779
0.0050883
0.00599553
0.00786103
0.010202
0.0108671
0.0109753
0.010929
0.010759
0.010367
0.00978488
0.00914906
0.00843144
0.00761334
0.00674234
0.00590666
0.00519238
0.00472184
0.00453275
0.00454046
0.00471571
0.00515742
0.00567869
0.00607086
0.0063399
0.00675895
0.00670413
0.00531314
0.00445747
0.00402244
0.0038099
0.0037284
0.00369066
0.00367929
0.00371277
0.0038734
0.00409111
0.00414033
0.00410211
0.00386126
0.00335343
0.00286076
0.00270875
0.00268499
0.00271358
0.00279371
0.00283056
0.00286349
0.00295108
0.00307046
0.00324682
0.00351835
0.00387661
0.00430182
0.00457213
0.00467919
0.00473036
0.00479238
0.00488887
0.00491831
0.00489925
0.00477313
0.00450096
0.00411548
0.00366999
0.00344205
0.00340215
0.00344934
0.00368287
0.00410689
0.00451564
0.00488371
0.00558974
0.00595302
0.00605145
0.00325612
0.00262824
0.00235679
0.00225314
0.00216658
0.00209461
0.00211152
0.00232286
0.00333028
0.00487805
0.00572981
0.0058481
0.00593917
0.00558277
0.00362015
0.00309776
0.00315903
0.00367179
0.00423291
0.00418392
0.00325373
0.00208167
0.00169825
0.00161054
0.00159094
0.00158793
0.00159133
0.00160301
0.00162764
0.00167271
0.00176868
0.00193807
0.00220127
0.00257628
0.00306637
0.00364942
0.00411051
0.00432402
0.00453012
0.00490331
0.00561378
0.00691191
0.00880107
0.0102935
0.0107383
0.0108082
0.0106941
0.0103268
0.00977685
0.00925162
0.00871391
0.00811322
0.00745888
0.00681885
0.00627507
0.00594026
0.00581011
0.00580443
0.00589971
0.00605827
0.00616319
0.00627084
0.00657977
0.00674522
0.00590528
0.00467711
0.00416105
0.00383815
0.00367062
0.00357184
0.00353562
0.00352745
0.00355828
0.00364972
0.00385964
0.00401323
0.00404383
0.00395316
0.0036848
0.00305553
0.00273304
0.00266655
0.00266596
0.00273814
0.00283241
0.00288017
0.00300193
0.00319502
0.00345783
0.00385181
0.00431989
0.00463221
0.00476263
0.00483632
0.00497279
0.00520696
0.00529808
0.00530102
0.00520333
0.0049451
0.0045694
0.00417623
0.00373867
0.00343436
0.00336381
0.00337728
0.00353076
0.00386693
0.00421917
0.00440921
0.00485155
0.00535094
0.00552831
0.00329715
0.00262827
0.00233671
0.00218882
0.00210747
0.00210023
0.0021965
0.00273864
0.00408135
0.00498238
0.00554226
0.0058141
0.00577331
0.00567465
0.00368154
0.00293724
0.00296243
0.00333517
0.00370407
0.00367989
0.0029551
0.00198998
0.00168424
0.00162105
0.00161489
0.00164266
0.00165485
0.00165868
0.00165615
0.00165549
0.00167847
0.00173902
0.00184991
0.00204024
0.00234723
0.00280017
0.0033892
0.00398557
0.00436551
0.00477414
0.00546907
0.00652415
0.00770121
0.00870982
0.00973812
0.010267
0.0103606
0.0101339
0.00969873
0.00922302
0.00873487
0.00827781
0.00783697
0.00740637
0.00703323
0.0067859
0.00663047
0.00650853
0.00639931
0.00629511
0.00624952
0.0063552
0.006663
0.00649292
0.00507343
0.00435051
0.00392611
0.00363323
0.00343582
0.00333497
0.00329706
0.00330691
0.00333451
0.00337009
0.00346362
0.00372905
0.00391681
0.00396411
0.00383385
0.00347913
0.00286347
0.00267243
0.00264443
0.00266944
0.00279169
0.0029135
0.00304507
0.00333654
0.00371297
0.00421695
0.004635
0.00480758
0.00490744
0.00510391
0.00552692
0.00584219
0.00589993
0.00586684
0.00567034
0.00528185
0.00480926
0.00439327
0.00395374
0.00349108
0.00333073
0.00330639
0.00336375
0.00357709
0.003892
0.00406684
0.00423289
0.00457597
0.00484735
0.0029038
0.00242877
0.00223195
0.00215421
0.0021383
0.00224758
0.00277304