/*--------------------------------*- C++ -*----------------------------------*\
  =========                 |
  \\      /  F ield         | OpenFOAM: The Open Source CFD Toolbox
   \\    /   O peration     | Website:  https://openfoam.org
    \\  /    A nd           | Version:  10
     \\/     M anipulation  |
\*---------------------------------------------------------------------------*/
FoamFile
{
    format      ascii;
    class       volScalarField;
    location    "0.499568";
    object      p;
}
// * * * * * * * * * * * * * * * * * * * * * * * * * * * * * * * * * * * * * //

dimensions      [1 -1 -2 0 0 0 0];

internalField   nonuniform List<scalar> 
16320
(
0.670256
0.682216
0.693871
0.704076
0.712223
0.718356
0.721762
0.722192
0.719638
0.713239
0.703823
0.693043
0.681515
0.670291
0.658874
0.648282
0.63853
0.628384
0.618747
0.591876
0.549973
0.51411
0.49344
0.484087
0.482032
0.480519
0.480128
0.484115
0.48623
0.489104
0.4921
0.495384
0.498764
0.502133
0.505319
0.508201
0.510659
0.512571
0.513818
0.51431
0.514119
0.513129
0.511388
0.509009
0.506004
0.502527
0.498675
0.494719
0.490739
0.486519
0.482569
0.478963
0.475824
0.473319
0.471444
0.47066
0.470719
0.471866
0.474254
0.477492
0.480449
0.483798
0.486708
0.490989
0.496133
0.504199
0.512764
0.519209
0.52299
0.523357
0.521663
0.517431
0.51702
0.516092
0.515887
0.515642
0.514984
0.517602
0.524839
0.545478
0.587026
0.646098
0.69571
0.703903
0.690298
0.671327
0.651422
0.637543
0.625804
0.615324
0.602407
0.586538
0.5707
0.556944
0.547983
0.544288
0.547891
0.558119
0.575284
0.598286
0.623169
0.643531
0.651374
0.649427
0.631041
0.586016
0.516284
0.452868
0.418191
0.403884
0.399911
0.402493
0.40841
0.646278
0.657728
0.668311
0.677643
0.684818
0.690271
0.693367
0.693166
0.689786
0.683223
0.674637
0.665323
0.655779
0.646472
0.63888
0.631219
0.626313
0.622676
0.620637
0.617403
0.597424
0.560169
0.526804
0.506546
0.496974
0.494072
0.492605
0.492314
0.493654
0.495182
0.497455
0.500409
0.503754
0.507228
0.510584
0.513638
0.516207
0.518202
0.519416
0.519834
0.519487
0.5183
0.516348
0.513717
0.510481
0.506781
0.50266
0.498273
0.494111
0.48975
0.485861
0.482456
0.479657
0.477602
0.476509
0.476323
0.477292
0.47958
0.483033
0.486169
0.489625
0.492574
0.495468
0.499939
0.505203
0.512571
0.519689
0.524931
0.527639
0.527284
0.52516
0.520252
0.519463
0.518381
0.517733
0.516598
0.515754
0.517189
0.520782
0.532236
0.558559
0.60112
0.646259
0.669995
0.663917
0.649943
0.632397
0.619763
0.608252
0.597896
0.585696
0.571582
0.558266
0.545886
0.535454
0.532588
0.534364
0.543668
0.558599
0.584476
0.615541
0.643436
0.656769
0.658603
0.647452
0.61538
0.553376
0.483835
0.436032
0.41261
0.403503
0.401691
0.405262
0.62074
0.631745
0.641423
0.649539
0.655485
0.659682
0.661017
0.659302
0.65497
0.649156
0.642746
0.636237
0.629912
0.623719
0.618252
0.614526
0.6121
0.612818
0.617055
0.62559
0.626739
0.607233
0.571552
0.539756
0.520264
0.511004
0.506722
0.502609
0.502213
0.50217
0.503295
0.50557
0.508672
0.512156
0.51566
0.518898
0.521675
0.523822
0.525099
0.525518
0.525104
0.523806
0.521684
0.518841
0.515451
0.511614
0.50724
0.502594
0.498054
0.493642
0.489765
0.486553
0.484118
0.482583
0.482112
0.482777
0.484752
0.488056
0.492227
0.495338
0.498583
0.501179
0.504132
0.508815
0.513898
0.520208
0.525993
0.529894
0.531263
0.530629
0.528211
0.523812
0.520849
0.520176
0.519341
0.517787
0.517486
0.516325
0.516745
0.52171
0.535632
0.562652
0.598285
0.62616
0.632668
0.62378
0.611329
0.600336
0.589015
0.578938
0.56773
0.555256
0.543104
0.531954
0.522302
0.5184
0.519412
0.525854
0.541415
0.568162
0.605633
0.640737
0.663312
0.666263
0.661347
0.639967
0.58925
0.519735
0.461289
0.427261
0.410823
0.405058
0.405169
0.595158
0.605475
0.614022
0.620371
0.624589
0.626623
0.625274
0.620709
0.614514
0.609646
0.607317
0.605921
0.604373
0.601724
0.599505
0.598446
0.5985
0.601335
0.609141
0.623634
0.641111
0.644042
0.621855
0.585539
0.554963
0.536286
0.52562
0.516646
0.512994
0.510306
0.509672
0.510734
0.513323
0.516679
0.520285
0.52377
0.526861
0.5293
0.53077
0.531278
0.530932
0.529633
0.527356
0.524273
0.520701
0.516923
0.512514
0.507675
0.50293
0.498329
0.49444
0.491402
0.489328
0.488343
0.488574
0.490118
0.493168
0.497314
0.50127
0.504806
0.507473
0.509868
0.512266
0.517011
0.521595
0.526799
0.531112
0.533631
0.533971
0.533004
0.530509
0.526769
0.522448
0.522005
0.52097
0.519423
0.518653
0.515872
0.513861
0.513661
0.518459
0.53217
0.556118
0.58184
0.596148
0.594269
0.587537
0.578902
0.569545
0.560468
0.551033
0.539677
0.527686
0.517736
0.509767
0.503598
0.505404
0.510659
0.524085
0.550895
0.594065
0.637241
0.670709
0.675099
0.674687
0.660726
0.621798
0.556971
0.49306
0.448321
0.423095
0.411476
0.407623
0.570174
0.579563
0.586656
0.591055
0.593224
0.59234
0.587877
0.580531
0.573176
0.569648
0.570315
0.574705
0.579635
0.581456
0.58249
0.583708
0.586014
0.590478
0.599935
0.617925
0.643414
0.663039
0.662425
0.634881
0.598041
0.569617
0.551598
0.535358
0.525838
0.519665
0.516522
0.515727
0.517454
0.520612
0.524228
0.528088
0.531445
0.534296
0.536196
0.537017
0.537021
0.536192
0.534538
0.531976
0.528451
0.523847
0.519014
0.51382
0.508953
0.504106
0.500126
0.497203
0.495451
0.494983
0.495849
0.498206
0.501974
0.506623
0.51038
0.513588
0.51605
0.518344
0.520787
0.524056
0.528298
0.532295
0.53511
0.536414
0.53628
0.534972
0.53249
0.529268
0.525783
0.524285
0.52292
0.520995
0.5199
0.516207
0.512211
0.50752
0.505523
0.509495
0.521554
0.541217
0.558188
0.563091
0.561332
0.556235
0.549728
0.542345
0.534288
0.525066
0.514258
0.505114
0.498306
0.493101
0.49436
0.498645
0.510256
0.536424
0.581524
0.634385
0.676654
0.687035
0.689207
0.679594
0.650297
0.592488
0.527898
0.475144
0.440536
0.421581
0.412914
0.545776
0.554333
0.559992
0.562819
0.562859
0.559303
0.552305
0.543415
0.536538
0.534215
0.53708
0.544894
0.555374
0.563882
0.567603
0.571044
0.57506
0.580659
0.590773
0.610067
0.638644
0.665967
0.680013
0.670422
0.639331
0.606359
0.579649
0.558448
0.542651
0.530497
0.523158
0.520406
0.520718
0.523523
0.526535
0.530341
0.534455
0.538195
0.540992
0.542488
0.543006
0.542694
0.541545
0.539341
0.536157
0.531959
0.527028
0.521651
0.516245
0.51122
0.507097
0.50419
0.502647
0.502593
0.504013
0.507072
0.511419
0.5158
0.519479
0.522022
0.524147
0.526269
0.528565
0.531152
0.534477
0.537082
0.538641
0.538865
0.537815
0.536138
0.533787
0.531007
0.528202
0.526445
0.52492
0.522808
0.521047
0.517386
0.511402
0.502763
0.494749
0.491284
0.495209
0.507031
0.522795
0.532046
0.534722
0.533424
0.529853
0.524818
0.517958
0.511055
0.502684
0.494358
0.489562
0.486347
0.486218
0.490954
0.502043
0.526212
0.571499
0.631566
0.682233
0.703081
0.70484
0.697449
0.674697
0.624115
0.562426
0.505242
0.462468
0.435575
0.421429
0.52141
0.530705
0.535031
0.536719
0.535182
0.530103
0.521887
0.51276
0.506946
0.505605
0.509894
0.519392
0.532841
0.546701
0.555773
0.560516
0.566179
0.572875
0.582663
0.601762
0.629314
0.658847
0.677514
0.680593
0.663173
0.63594
0.606949
0.58343
0.5611
0.541641
0.530268
0.524283
0.522093
0.523115
0.526651
0.533379
0.538888
0.543994
0.54764
0.549778
0.550618
0.550533
0.549461
0.548055
0.545376
0.54139
0.536733
0.531134
0.52537
0.520025
0.515633
0.512588
0.511115
0.511312
0.513129
0.516616
0.520969
0.525013
0.528035
0.53016
0.532017
0.533664
0.535855
0.538023
0.540125
0.541249
0.541587
0.540841
0.539102
0.537353
0.534977
0.532713
0.530682
0.52878
0.527273
0.525086
0.523419
0.518853
0.510508
0.498503
0.48622
0.476954
0.474327
0.479758
0.491443
0.502879
0.509152
0.511262
0.510133
0.507304
0.503511
0.498124
0.492367
0.48698
0.483193
0.4826
0.483643
0.487941
0.498179
0.520546
0.565431
0.63067
0.691048
0.717487
0.719788
0.713987
0.695514
0.651013
0.593592
0.535955
0.487234
0.453025
0.433317
0.498902
0.50782
0.512247
0.513694
0.51173
0.506211
0.497934
0.489309
0.484357
0.483393
0.488155
0.498292
0.512879
0.529945
0.545158
0.551597
0.558923
0.566953
0.575542
0.592904
0.616378
0.642974
0.664812
0.672387
0.666491
0.650707
0.628683
0.605829
0.57921
0.553789
0.535449
0.526153
0.521941
0.525144
0.528755
0.533353
0.540911
0.547396
0.552277
0.555925
0.55847
0.559797
0.559519
0.558377
0.55593
0.552158
0.547967
0.542382
0.536425
0.530754
0.525971
0.52263
0.521028
0.521235
0.523093
0.526483
0.530746
0.534077
0.536447
0.538201
0.539759
0.541118
0.542672
0.544456
0.54547
0.54534
0.544375
0.542806
0.540762
0.538883
0.536357
0.534708
0.533274
0.53134
0.529922
0.527679
0.525888
0.520095
0.51083
0.496359
0.480357
0.465861
0.457545
0.458192
0.464813
0.476161
0.484757
0.489679
0.491075
0.490434
0.489178
0.48645
0.483411
0.481046
0.479956
0.481018
0.48342
0.48763
0.497247
0.518684
0.5628
0.631548
0.700261
0.731123
0.734201
0.729265
0.712988
0.672974
0.619816
0.564583
0.513219
0.473498
0.448545
0.478064
0.486206
0.492539
0.494409
0.49297
0.48778
0.480194
0.472262
0.467813
0.466866
0.471235
0.48051
0.495443
0.513144
0.531641
0.545358
0.552729
0.56233
0.572265
0.583438
0.602328
0.625673
0.646107
0.657205
0.659699
0.652394
0.640852
0.621828
0.595059
0.565029
0.542329
0.527464
0.52276
0.521866
0.530031
0.537965
0.546443
0.55462
0.56061
0.566124
0.570666
0.573027
0.572028
0.571792
0.569363
0.565838
0.560854
0.555577
0.549421
0.543527
0.538311
0.5345
0.532516
0.53244
0.534053
0.537063
0.540565
0.543282
0.544992
0.546282
0.547397
0.548472
0.549644
0.55071
0.550384
0.549903
0.547841
0.545299
0.543086
0.540746
0.538499
0.537098
0.535962
0.534081
0.532754
0.530371
0.529073
0.523083
0.510736
0.494364
0.475515
0.457154
0.444384
0.440055
0.443382
0.452422
0.461774
0.468572
0.472453
0.474209
0.475197
0.475096
0.475655
0.477002
0.478916
0.480458
0.48335
0.487479
0.496732
0.517655
0.561085
0.633377
0.709241
0.744492
0.748253
0.742937
0.727324
0.690113
0.640853
0.589581
0.538689
0.496362
0.467135
0.459377
0.467014
0.475346
0.479818
0.47909
0.474634
0.467603
0.460262
0.455884
0.454821
0.458306
0.466534
0.479731
0.497472
0.517206
0.535562
0.548778
0.557859
0.568893
0.58097
0.596373
0.613534
0.630246
0.645107
0.651606
0.651364
0.646072
0.632545
0.608921
0.576916
0.548401
0.525363
0.523101
0.527002
0.540218
0.553032
0.563792
0.571837
0.581334
0.584776
0.586394
0.587735
0.588546
0.588027
0.585578
0.581512
0.576373
0.570788
0.564387
0.558439
0.55278
0.548331
0.545668
0.544917
0.545889
0.548192
0.550836
0.552755
0.553879
0.554731
0.555302
0.556226
0.557084
0.557448
0.556324
0.554832
0.551668
0.548415
0.545773
0.543061
0.541515
0.540099
0.538987
0.537179
0.535789
0.533242
0.532234
0.524438
0.511059
0.493559
0.471917
0.450413
0.43402
0.42535
0.426197
0.432179
0.44089
0.448594
0.454226
0.458112
0.461364
0.464158
0.468212
0.472491
0.476545
0.478948
0.482025
0.486074
0.495049
0.515865
0.559391
0.635798
0.717749
0.756509
0.759346
0.753894
0.738734
0.703016
0.657163
0.610376
0.562313
0.519988
0.487264
0.444871
0.451401
0.461119
0.468427
0.469544
0.465995
0.459465
0.452288
0.447259
0.445965
0.4485
0.455618
0.466585
0.48302
0.502479
0.523295
0.541725
0.552966
0.564092
0.577067
0.591204
0.606893
0.622079
0.635584
0.643874
0.647999
0.64758
0.640351
0.623063
0.590247
0.548176
0.530116
0.529885
0.548554
0.569392
0.583608
0.597823
0.618537
0.620947
0.622801
0.613392
0.606881
0.604657
0.603373
0.602612
0.599875
0.595157
0.589156
0.582596
0.575619
0.56943
0.564207
0.560591
0.558756
0.558763
0.560116
0.561782
0.562846
0.563372
0.563726
0.563998
0.564523
0.565189
0.564916
0.563579
0.560799
0.5568
0.552635
0.549364
0.546638
0.544754
0.5435
0.542444
0.540716
0.539085
0.536747
0.535214
0.52608
0.512729
0.493948
0.469788
0.445484
0.425983
0.413679
0.412424
0.415502
0.422245
0.429918
0.436671
0.442236
0.447657
0.453092
0.459904
0.46617
0.471519
0.475138
0.477372
0.481563
0.490693
0.51218
0.557467
0.638341
0.725893
0.765751
0.767054
0.760902
0.746571
0.712461
0.669549
0.627197
0.58343
0.543282
0.509467
0.436066
0.440811
0.450996
0.459972
0.464203
0.46123
0.455063
0.447649
0.441629
0.439662
0.441182
0.44695
0.45662
0.469582
0.48801
0.50848
0.529454
0.54644
0.558091
0.5711
0.585139
0.59976
0.614078
0.627154
0.637186
0.644586
0.648584
0.648317
0.636281
0.592299
0.55434
0.540279
0.550586
0.573788
0.593603
0.609175
0.616295
0.612979
0.615049
0.616239
0.615454
0.611546
0.614967
0.616258
0.61812
0.618427
0.615808
0.610379
0.603278
0.595682
0.588272
0.582123
0.577278
0.574257
0.573069
0.573178
0.573714
0.573786
0.573571
0.573341
0.573339
0.573795
0.573972
0.573215
0.571954
0.568442
0.563543
0.558353
0.554069
0.550614
0.548168
0.547166
0.546252
0.544566
0.542608
0.540683
0.537952
0.528558
0.515069
0.49523
0.469014
0.442157
0.419918
0.405052
0.401494
0.402063
0.406228
0.412664
0.419741
0.426765
0.433536
0.440801
0.449145
0.456381
0.462127
0.46622
0.467574
0.472018
0.482176
0.505565
0.554616
0.641498
0.733431
0.771225
0.770788
0.764068
0.750521
0.719122
0.678852
0.640967
0.602775
0.566416
0.532463
0.432212
0.436123
0.44545
0.455703
0.461273
0.46019
0.454154
0.446246
0.439035
0.435147
0.435816
0.440615
0.448797
0.459379
0.474693
0.493628
0.514645
0.53497
0.551488
0.564007
0.577819
0.592361
0.606523
0.619875
0.631136
0.641039
0.649932
0.655219
0.647526
0.604098
0.566414
0.553325
0.558209
0.586476
0.598728
0.606849
0.612022
0.61674
0.618565
0.618789
0.618632
0.617878
0.618232
0.625372
0.631915
0.635268
0.635929
0.632623
0.626035
0.617869
0.609628
0.601885
0.595785
0.591421
0.588824
0.587656
0.586828
0.585795
0.584714
0.583799
0.583597
0.583706
0.583479
0.582637
0.581356
0.577905
0.572401
0.565867
0.560267
0.555624
0.552524
0.551369
0.550174
0.54848
0.546255
0.54445
0.540388
0.531247
0.518062
0.497646
0.469262
0.440186
0.415441
0.398859
0.3933
0.391443
0.393159
0.397385
0.403722
0.411189
0.419053
0.427304
0.435878
0.442968
0.448431
0.452388
0.454314
0.46001
0.47207
0.498105
0.551555
0.64502
0.739225
0.77337
0.771721
0.764832
0.751797
0.723569
0.68662
0.652721
0.620516
0.588853
0.555554
0.433086
0.436175
0.444216
0.454636
0.461548
0.461726
0.455739
0.447176
0.438412
0.432732
0.432657
0.436552
0.443458
0.452506
0.463519
0.480577
0.499319
0.520312
0.540519
0.556316
0.569821
0.584159
0.598328
0.612317
0.62508
0.637603
0.651353
0.662959
0.660236
0.620666
0.572966
0.552776
0.55902
0.581471
0.590358
0.590581
0.608873
0.616911
0.622207
0.621324
0.624176
0.625004
0.625651
0.632893
0.642879
0.650819
0.654477
0.653517
0.648784
0.640945
0.632034
0.623411
0.615886
0.61002
0.605857
0.603395
0.601153
0.599053
0.596984
0.595689
0.594938
0.594634
0.593818
0.592706
0.59095
0.588022
0.58285
0.575142
0.567896
0.56148
0.557245
0.555836
0.554372
0.552357
0.549984
0.547909
0.543187
0.534533
0.522306
0.500458
0.470196
0.439132
0.412105
0.394687
0.387433
0.383534
0.382725
0.384425
0.388915
0.395742
0.403746
0.412012
0.420156
0.426659
0.431771
0.436015
0.439292
0.446731
0.461033
0.489592
0.547836
0.647822
0.741544
0.771572
0.76955
0.762961
0.75079
0.726161
0.693199
0.663624
0.6373
0.610265
0.579462
0.437887
0.439176
0.446129
0.456169
0.464165
0.466204
0.460564
0.451426
0.441124
0.434281
0.431492
0.434653
0.440684
0.448201
0.457292
0.470212
0.486067
0.504942
0.526285
0.545571
0.561353
0.576053
0.590357
0.6049
0.619438
0.633754
0.651017
0.669057
0.67602
0.63519
0.574416
0.549358
0.552623
0.561775
0.562919
0.583998
0.600331
0.613969
0.622982
0.623534
0.631295
0.633928
0.636915
0.642223
0.653868
0.663541
0.669708
0.672341
0.669145
0.662695
0.654274
0.645256
0.636892
0.62963
0.623974
0.620098
0.61661
0.613339
0.610808
0.608817
0.607661
0.60632
0.604804
0.603055
0.600875
0.597739
0.594233
0.585998
0.576754
0.56875
0.562407
0.560608
0.558669
0.556293
0.553754
0.551173
0.545733
0.536333
0.526729
0.503693
0.471214
0.438554
0.409903
0.392722
0.38355
0.378118
0.374041
0.373217
0.375522
0.380971
0.388395
0.395721
0.402987
0.409101
0.414322
0.419549
0.424927
0.43446
0.451056
0.482475
0.544719
0.648718
0.738153
0.765119
0.763868
0.758694
0.748019
0.72755
0.699042
0.673972
0.653201
0.63143
0.603767
0.445659
0.447456
0.452294
0.461262
0.470069
0.473002
0.467753
0.457875
0.447212
0.438636
0.4336
0.434901
0.440147
0.446635
0.454239
0.463411
0.476
0.491866
0.511427
0.532229
0.550796
0.566836
0.582513
0.597871
0.613401
0.629648
0.649975
0.673336
0.700888
0.654347
0.578681
0.547294
0.537473
0.534916
0.547643
0.568273
0.585528
0.610423
0.62319
0.633577
0.639283
0.644446
0.649552
0.655167
0.666263
0.676817
0.683918
0.687691
0.687181
0.682779
0.675392
0.666754
0.657998
0.650173
0.644182
0.638166
0.633044
0.628599
0.625456
0.622771
0.620677
0.61837
0.616065
0.613818
0.61127
0.608295
0.605026
0.597334
0.586959
0.577337
0.568373
0.565276
0.563013
0.560288
0.557395
0.554306
0.549036
0.540918
0.530679
0.50579
0.471748
0.437994
0.408883
0.392324
0.381609
0.374583
0.367526
0.363946
0.364271
0.368114
0.374075
0.380498
0.387056
0.393199
0.399063
0.405663
0.413824
0.425289
0.443763
0.478137
0.543699
0.648707
0.727591
0.75381
0.755116
0.752831
0.744419
0.728743
0.704473
0.68373
0.667888
0.650637
0.627182
0.457495
0.457819
0.463466
0.470692
0.478377
0.480663
0.475883
0.466533
0.455753
0.446327
0.440841
0.439429
0.442683
0.447647
0.453449
0.459998
0.469033
0.481683
0.498323
0.518769
0.538609
0.556652
0.5736
0.590201
0.60772
0.62617
0.648958
0.676468
0.722594
0.687585
0.596643
0.551779
0.533345
0.525618
0.539131
0.555156
0.577422
0.60998
0.631649
0.64336
0.64618
0.656878
0.665391
0.671631
0.681528
0.690932
0.69776
0.701429
0.702283
0.69952
0.69407
0.686903
0.679043
0.67114
0.662967
0.656221
0.649728
0.644852
0.640766
0.637416
0.634012
0.630784
0.627818
0.624768
0.621822
0.618815
0.61557
0.609186
0.598231
0.587121
0.575904
0.570165
0.567445
0.564322
0.560961
0.557068
0.55085
0.545077
0.533928
0.507128
0.471911
0.437385
0.408837
0.393343
0.381378
0.372427
0.362683
0.356797
0.355462
0.357935
0.36258
0.368226
0.374607
0.381192
0.388325
0.396694
0.407343
0.421102
0.441294
0.476611
0.543006
0.64389
0.710305
0.737998
0.745466
0.746522
0.74078
0.730623
0.710203
0.693168
0.681074
0.667753
0.64904
0.469636
0.471016
0.473704
0.481027
0.487297
0.488938
0.484727
0.476477
0.466187
0.456524
0.449883
0.447244
0.448573
0.451177
0.454797
0.459147
0.465067
0.474502
0.487889
0.506195
0.526892
0.546222
0.565172
0.583343
0.602999
0.623824
0.648667
0.678602
0.737622
0.749273
0.639277
0.576188
0.544682
0.537104
0.543339
0.557115
0.580543
0.614866
0.642532
0.655999
0.655014
0.671096
0.681371
0.688726
0.699358
0.707196
0.712761
0.7156
0.716128
0.714385
0.710758
0.705691
0.697568
0.689539
0.681805
0.674196
0.66745
0.661517
0.656442
0.651643
0.6472
0.642956
0.639039
0.635397
0.632012
0.628747
0.624998
0.621136
0.609966
0.597034
0.584144
0.575116
0.571916
0.568334
0.564433
0.560008
0.554194
0.548943
0.53634
0.50767
0.472036
0.437295
0.411598
0.395936
0.383769
0.371172
0.359885
0.352676
0.350249
0.351729
0.35525
0.360467
0.367024
0.374562
0.383315
0.393448
0.40594
0.421073
0.442563
0.478128
0.543013
0.631984
0.689048
0.721154
0.735846
0.740591
0.737846
0.733258
0.716304
0.702325
0.692868
0.682634
0.668314
0.482876
0.484334
0.487143
0.491564
0.496224
0.498067
0.494674
0.487699
0.478417
0.469263
0.462343
0.458284
0.457021
0.456925
0.458075
0.460385
0.463779
0.470028
0.480328
0.495778
0.516049
0.536595
0.557312
0.577761
0.599608
0.6231
0.649725
0.680885
0.757359
0.811789
0.727771
0.632088
0.585722
0.568679
0.564743
0.573652
0.594579
0.627602
0.655231
0.668453
0.672171
0.686553
0.697122
0.706165
0.714069
0.720161
0.724352
0.727007
0.727828
0.727064
0.723997
0.719378
0.714259
0.707026
0.699056
0.691251
0.68403
0.677535
0.671263
0.665361
0.659825
0.654615
0.649828
0.645509
0.641581
0.637916
0.634197
0.630702
0.620843
0.607293
0.592761
0.58042
0.576277
0.572226
0.567812
0.562988
0.557065
0.552521
0.537938
0.507613
0.472464
0.438805
0.416795
0.400786
0.388875
0.372462
0.360433
0.352797
0.349572
0.34985
0.352656
0.357749
0.364846
0.373409
0.383449
0.394447
0.407711
0.424025
0.446643
0.482943
0.54309
0.612915
0.667862
0.705551
0.726955
0.735704
0.736355
0.736073
0.722196
0.71093
0.703082
0.694941
0.684157
0.497393
0.498356
0.500729
0.504586
0.508208
0.509457
0.506915
0.501087
0.492699
0.484193
0.476208
0.471421
0.466964
0.464143
0.462945
0.463128
0.464382
0.467926
0.47532
0.488007
0.506667
0.528201
0.550406
0.573541
0.597539
0.623746
0.652748
0.684954
0.75838
0.839636
0.820905
0.729105
0.661369
0.62717
0.613995
0.613084
0.62655
0.652007
0.672711
0.685245
0.693797
0.699587
0.709685
0.719934
0.728824
0.735122
0.738804
0.740682
0.741152
0.74008
0.737898
0.733941
0.728727
0.722056
0.714665
0.707102
0.699494
0.691996
0.684875
0.678056
0.671588
0.665413
0.6598
0.654796
0.650307
0.646187
0.642206
0.638403
0.630587
0.617188
0.602162
0.587319
0.580229
0.575884
0.571148
0.565943
0.55971
0.555617
0.538851
0.507837
0.473854
0.442584
0.424245
0.408759
0.395459
0.377722
0.364939
0.356031
0.351714
0.35119
0.353597
0.358595
0.36604
0.375163
0.38593
0.398772
0.413201
0.430995
0.454164
0.488778
0.536303
0.59314
0.64683
0.690587
0.718906
0.732343
0.737152
0.738386
0.728241
0.719262
0.711947
0.705089
0.696346
0.513055
0.513898
0.515923
0.519469
0.522536
0.523996
0.521811
0.516876
0.509209
0.498965
0.491866
0.48415
0.477304
0.47232
0.468901
0.467122
0.466447
0.467924
0.472684
0.482782
0.499471
0.521266
0.544772
0.570164
0.596636
0.625315
0.655619
0.688085
0.744435
0.834459
0.847767
0.794472
0.727354
0.688001
0.670361
0.666067
0.66574
0.683045
0.69358
0.70202
0.707456
0.712059
0.720328
0.731597
0.739655
0.744285
0.748925
0.75208
0.753077
0.75233
0.750065
0.746359
0.741572
0.735579
0.728646
0.721
0.713071
0.705069
0.697111
0.689421
0.682187
0.674897
0.668636
0.663016
0.65792
0.653331
0.648777
0.643867
0.639013
0.62596
0.610924
0.594965
0.584146
0.579372
0.574297
0.568666
0.562284
0.558035
0.538968
0.508016
0.476066
0.449136
0.433798
0.421093
0.403051
0.387419
0.374098
0.363731
0.357705
0.355949
0.357614
0.362437
0.370599
0.380608
0.393044
0.407238
0.422589
0.43997
0.461295
0.490624
0.52809
0.574409
0.626701
0.676011
0.711184
0.729812
0.738443
0.739309
0.735394
0.727264
0.719327
0.713281
0.705526
0.5294
0.530574
0.533104
0.536816
0.539781
0.541089
0.538582
0.533588
0.52371
0.515343
0.505675
0.496105
0.487692
0.48098
0.475928
0.472218
0.469723
0.469372
0.47236
0.48008
0.494704
0.516024
0.540516
0.567487
0.596288
0.626803
0.658461
0.69173
0.726479
0.811685
0.837205
0.805802
0.761402
0.727124
0.711505
0.707893
0.710895
0.71907
0.721158
0.727503
0.730859
0.73366
0.739022
0.746987
0.756651
0.762737
0.765241
0.761884
0.76296
0.762781
0.761271
0.758351
0.754273
0.748626
0.741585
0.73358
0.724997
0.716167
0.707417
0.698935
0.690525
0.683358
0.676624
0.67036
0.664676
0.659449
0.654418
0.649264
0.644218
0.632334
0.617649
0.60206
0.588251
0.582594
0.577125
0.571185
0.565122
0.559393
0.538334
0.508424
0.47932
0.458223
0.445889
0.433828
0.417744
0.401615
0.387677
0.376393
0.369213
0.366334
0.366957
0.37144
0.381004
0.392034
0.404844
0.418852
0.433917
0.450858
0.470241
0.490747
0.518559
0.558083
0.60848
0.661579
0.703316
0.727
0.739453
0.742634
0.74304
0.734231
0.725544
0.720274
0.712436
0.54571
0.547397
0.551146
0.55509
0.557708
0.558079
0.552415
0.546142
0.53828
0.528331
0.517829
0.507653
0.498475
0.490332
0.483554
0.478386
0.474416
0.472449
0.473889
0.47992
0.492467
0.512654
0.537799
0.565571
0.595757
0.627012
0.658565
0.690037
0.717493
0.769398
0.808585
0.799818
0.775151
0.749892
0.73979
0.735359
0.738753
0.750025
0.753493
0.758085
0.764116
0.77036
0.778926
0.789291
0.793703
0.791813
0.787159
0.786329
0.782485
0.778097
0.772927
0.770854
0.767462
0.76162
0.753987
0.745131
0.735634
0.726223
0.716704
0.707671
0.699319
0.691197
0.683696
0.676747
0.670422
0.664609
0.659055
0.653549
0.647816
0.637006
0.622761
0.607272
0.592292
0.585417
0.579519
0.573308
0.567725
0.560783
0.536917
0.509679
0.485025
0.469693
0.460097
0.449143
0.435664
0.420562
0.406575
0.394528
0.386275
0.38279
0.38317
0.387704
0.396298
0.407151
0.419728
0.433043
0.44685
0.459684
0.473641
0.487933
0.510514
0.544636
0.592068
0.647165
0.694633
0.723209
0.740254
0.747719
0.749849
0.740623
0.732334
0.725742
0.717834
0.56123
0.563348
0.566979
0.56957
0.57042
0.569193
0.563833
0.557697
0.549329
0.539769
0.529329
0.519014
0.509271
0.500019
0.492081
0.485819
0.480723
0.477504
0.477685
0.481906
0.492834
0.511808
0.536804
0.56477
0.595074
0.626558
0.65721
0.686469
0.711734
0.7326
0.771333
0.781472
0.770842
0.758298
0.750369
0.749769
0.755639
0.760918
0.775707
0.778974
0.781529
0.789954
0.802389
0.823484
0.837313
0.839259
0.831326
0.820663
0.810343
0.802849
0.800223
0.794265
0.786901
0.778442
0.768955
0.758577
0.747177
0.735991
0.725706
0.71625
0.706766
0.697926
0.689625
0.681985
0.675108
0.66883
0.662841
0.656903
0.650372
0.640306
0.626581
0.61204
0.5977
0.587785
0.581517
0.575259
0.570449
0.561499
0.535635
0.512888
0.49429
0.482807
0.474993
0.466836
0.456438
0.443982
0.4313
0.419171
0.409777
0.405336
0.405043
0.408946
0.416509
0.426539
0.437971
0.449618
0.458789
0.46704
0.474519
0.486279
0.504816
0.533792
0.577269
0.631891
0.684165
0.718638
0.740544
0.753193
0.75581
0.750889
0.73976
0.729594
0.722448
0.574819
0.575964
0.577908
0.579867
0.579995
0.57782
0.572052
0.566321
0.558774
0.549682
0.539837
0.529708
0.519657
0.510224
0.501789
0.494893
0.488942
0.484826
0.484028
0.487033
0.495898
0.51318
0.537508
0.564986
0.594478
0.62514
0.655183
0.681697
0.704107
0.721527
0.734198
0.75206
0.759061
0.758258
0.754867
0.75855
0.762659
0.771344
0.775245
0.784564
0.787211
0.793577
0.808723
0.840914
0.873485
0.889517
0.885605
0.876065
0.858697
0.843659
0.832359
0.821184
0.809241
0.796856
0.784079
0.771123
0.758098
0.745725
0.733899
0.722893
0.712215
0.702766
0.694025
0.686061
0.678851
0.672251
0.665926
0.659594
0.652527
0.642676
0.629436
0.615551
0.601908
0.590289
0.583337
0.577408
0.573272
0.558687
0.536867
0.518974
0.504764
0.495998
0.490801
0.485293
0.478647
0.470102
0.460396
0.449722
0.440023
0.43455
0.43302
0.435816
0.441812
0.449893
0.458192
0.464775
0.467653
0.470618
0.476636
0.486561
0.502806
0.527696
0.565512
0.61605
0.669466
0.712184
0.739068
0.756465
0.763376
0.762135
0.748322
0.736815
0.727322
0.585562
0.58539
0.586254
0.586626
0.585871
0.583394
0.578893
0.57348
0.566805
0.558558
0.549426
0.539958
0.530346
0.521253
0.512885
0.505781
0.499464
0.494817
0.493321
0.495585
0.502867
0.517961
0.540616
0.566882
0.594605
0.622981
0.650646
0.6754
0.696969
0.714127
0.727299
0.738586
0.743721
0.755169
0.760937
0.76347
0.769237
0.775071
0.782308
0.784702
0.790251
0.796843
0.815151
0.851356
0.893137
0.919239
0.931583
0.924106
0.910949
0.892218
0.871937
0.853163
0.834847
0.817068
0.800387
0.783763
0.767983
0.753802
0.740825
0.728047
0.716698
0.70661
0.697403
0.689178
0.681706
0.675043
0.668526
0.661901
0.654567
0.644673
0.631861
0.618507
0.605571
0.593039
0.585097
0.57995
0.574445
0.558338
0.540674
0.526231
0.515577
0.509036
0.506364
0.503534
0.500083
0.495533
0.489744
0.482006
0.473438
0.46715
0.464363
0.465618
0.468024
0.471494
0.474861
0.473293
0.473521
0.475294
0.480421
0.489606
0.50324
0.523831
0.554879
0.599483
0.652772
0.701242
0.735436
0.75755
0.768632
0.769251
0.759455
0.745238
0.733789
0.594823
0.592987
0.59204
0.591244
0.590004
0.587674
0.583988
0.579158
0.57325
0.566516
0.558655
0.549992
0.541347
0.533094
0.525375
0.518598
0.512449
0.507787
0.505901
0.507815
0.514035
0.527188
0.547395
0.571324
0.596087
0.621501
0.646316
0.669665
0.689677
0.706324
0.720576
0.733996
0.74523
0.753165
0.763357
0.771977
0.775433
0.780401
0.78626
0.791399
0.793231
0.803474
0.831319
0.866393
0.90667
0.928139
0.940721
0.945954
0.940092
0.926737
0.907358
0.884608
0.860893
0.836756
0.814129
0.793862
0.775647
0.759343
0.744683
0.731309
0.719594
0.709389
0.700264
0.692028
0.683838
0.67737
0.670805
0.6638
0.656261
0.646512
0.634195
0.621183
0.608626
0.595889
0.586401
0.583062
0.574712
0.561215
0.545719
0.534038
0.526085
0.521636
0.520555
0.520174
0.518824
0.516826
0.514021
0.509027
0.502128
0.495363
0.490993
0.489462
0.48597
0.486974
0.482923
0.480585
0.48049
0.481644
0.485611
0.4932
0.504845
0.522139
0.54761
0.584514
0.632015
0.683807
0.72662
0.754527
0.770568
0.776125
0.768416
0.757687
0.743061
0.602563
0.598848
0.59637
0.594529
0.592781
0.590509
0.587404
0.583436
0.578701
0.57327
0.567239
0.560169
0.552333
0.545223
0.538675
0.532854
0.527574
0.523538
0.521838
0.523647
0.528883
0.539703
0.557088
0.577998
0.599551
0.621197
0.642539
0.66298
0.681592
0.698524
0.713422
0.728337
0.744104
0.757941
0.768865
0.775931
0.783049
0.786435
0.790712
0.795802
0.801381
0.809417
0.843683
0.883946
0.918338
0.926071
0.938783
0.945152
0.945386
0.937503
0.922298
0.90151
0.87743
0.851896
0.826286
0.802816
0.781286
0.762258
0.745816
0.732129
0.720749
0.710906
0.702339
0.69459
0.687222
0.679731
0.67284
0.66546
0.657473
0.648353
0.636586
0.623809
0.611277
0.598477
0.587849
0.58592
0.57723
0.564752
0.551127
0.541499
0.53562
0.533085
0.53257
0.533902
0.534177
0.532725
0.530543
0.52641
0.520182
0.513192
0.506152
0.500892
0.499092
0.494099
0.490196
0.488708
0.487187
0.487555
0.490417
0.496773
0.507121
0.522202
0.543463
0.573091
0.612621
0.66053
0.708087
0.745259
0.766807
0.777819
0.780244
0.771515
0.757335
0.609441
0.603863
0.599811
0.59683
0.59438
0.591925
0.589125
0.585867
0.582117
0.578057
0.573561
0.568594
0.562604
0.556514
0.551701
0.547553
0.543982
0.541314
0.540648
0.54263
0.547264
0.556501
0.570117
0.587181
0.604742
0.622185
0.639594
0.656687
0.673481
0.689504
0.705089
0.721569
0.739904
0.757972
0.772693
0.782503
0.787602
0.792201
0.794939
0.799383
0.806575
0.813972
0.85028
0.892721
0.919897
0.921519
0.932291
0.937677
0.939585
0.936582
0.926653
0.910094
0.887785
0.862359
0.835372
0.808237
0.783982
0.763255
0.74637
0.732552
0.720548
0.710982
0.703184
0.696165
0.689538
0.682896
0.67646
0.668501
0.659556
0.649778
0.638921
0.626643
0.614236
0.601967
0.590421
0.588582
0.580519
0.568574
0.556695
0.548657
0.54392
0.542249
0.542324
0.543795
0.54431
0.543323
0.540174
0.535155
0.528241
0.518891
0.512013
0.508392
0.503728
0.499479
0.496981
0.494388
0.492557
0.492192
0.494313
0.500024
0.50975
0.523385
0.541517
0.565195
0.596766
0.636568
0.681388
0.724691
0.756697
0.773135
0.780556
0.779472
0.769509
0.6158
0.608328
0.602582
0.598234
0.594817
0.591893
0.589143
0.586379
0.583465
0.580488
0.577539
0.5746
0.572218
0.566705
0.563542
0.561649
0.560478
0.559952
0.560957
0.563507
0.568076