/*--------------------------------*- C++ -*----------------------------------*\
  =========                 |
  \\      /  F ield         | OpenFOAM: The Open Source CFD Toolbox
   \\    /   O peration     | Website:  https://openfoam.org
    \\  /    A nd           | Version:  10
     \\/     M anipulation  |
\*---------------------------------------------------------------------------*/
FoamFile
{
    format      ascii;
    class       volScalarField;
    location    "0.499568";
    object      rho;
}
// * * * * * * * * * * * * * * * * * * * * * * * * * * * * * * * * * * * * * //

dimensions      [1 -3 0 0 0 0 0];

internalField   nonuniform List<scalar> 
16320
(
0.61882
0.487252
0.485096
0.513819
0.523248
0.508167
0.477033
0.426596
0.376825
0.332238
0.285943
0.239542
0.214931
0.207111
0.207615
0.227587
0.284978
0.388687
0.455954
0.436045
0.374807
0.306078
0.24494
0.198262
0.163605
0.14888
0.138377
0.14043
0.138405
0.139066
0.139299
0.140011
0.140617
0.141399
0.141998
0.142456
0.142585
0.142767
0.143035
0.143158
0.143335
0.14356
0.143996
0.145003
0.148132
0.1551
0.168407
0.188496
0.206397
0.222226
0.236588
0.245506
0.251716
0.255145
0.258471
0.269338
0.286919
0.294909
0.29363
0.269993
0.225235
0.21868
0.228298
0.287105
0.404521
0.511075
0.568318
0.582457
0.580628
0.547049
0.441549
0.276573
0.194485
0.151049
0.128112
0.12578
0.140667
0.264108
0.495466
0.731332
0.915375
1.04102
1.11298
1.118
1.05137
0.962508
1.00719
1.0987
1.08988
0.942221
0.87202
0.843243
0.792475
0.769421
0.80999
0.850712
0.835791
0.731021
0.569936
0.542969
0.505384
0.415037
0.376033
0.40372
0.506357
0.660263
0.758939
0.783333
0.786064
0.782359
0.77871
0.758649
0.691882
0.615573
0.506568
0.508873
0.54141
0.550781
0.539887
0.514995
0.478502
0.426713
0.369058
0.306576
0.254158
0.218667
0.205911
0.201823
0.208537
0.239069
0.307005
0.399239
0.437413
0.409108
0.348833
0.286155
0.236031
0.196149
0.170218
0.154294
0.145064
0.141086
0.139833
0.140199
0.140722
0.141527
0.14208
0.14273
0.143
0.143362
0.143823
0.144148
0.144435
0.144718
0.145042
0.1456
0.147152
0.151162
0.160437
0.178268
0.198528
0.21605
0.2313
0.244118
0.252199
0.25772
0.26119
0.268404
0.284813
0.297575
0.299809
0.292005
0.247549
0.213689
0.212169
0.224606
0.292071
0.40974
0.501547
0.553825
0.575315
0.577737
0.559235
0.482182
0.326658
0.206362
0.151683
0.127936
0.126588
0.157251
0.313485
0.52711
0.735615
0.892591
0.995361
1.06493
1.09266
1.04017
0.916415
0.87279
0.963412
1.04617
0.990659
0.869791
0.83096
0.777881
0.750954
0.756618
0.823218
0.832715
0.801728
0.681724
0.632065
0.578688
0.448794
0.374357
0.37392
0.468461
0.662159
0.783761
0.802635
0.785617
0.765623
0.751368
0.707787
0.604896
0.629546
0.51956
0.52075
0.547206
0.554385
0.54453
0.528511
0.509364
0.478368
0.426688
0.351686
0.282733
0.229789
0.208448
0.202607
0.202685
0.221554
0.266655
0.343555
0.413018
0.424458
0.39321
0.34096
0.285969
0.241733
0.206436
0.173766
0.149134
0.142605
0.141402
0.141042
0.141544
0.142125
0.142884
0.143514
0.144166
0.144808
0.145371
0.145755
0.146144
0.14654
0.147045
0.148041
0.150286
0.155469
0.166463
0.187511
0.208076
0.225692
0.240474
0.251764
0.259404
0.264981
0.271141
0.282245
0.29809
0.304261
0.303128
0.280427
0.225403
0.205724
0.207156
0.224297
0.307528
0.418144
0.500009
0.554523
0.579614
0.583504
0.573565
0.520087
0.385052
0.230491
0.155455
0.128537
0.129356
0.180184
0.334943
0.536751
0.730964
0.869233
0.951731
1.00919
1.04353
1.01632
0.887113
0.767935
0.809311
0.94956
0.953101
0.886679
0.82877
0.764844
0.729711
0.721322
0.770339
0.82168
0.825316
0.784224
0.698911
0.641072
0.519105
0.381797
0.354524
0.423628
0.631135
0.803518
0.835431
0.803974
0.765357
0.736417
0.666061
0.537334
0.653174
0.528908
0.523032
0.537192
0.541893
0.531314
0.519085
0.508474
0.492729
0.464432
0.414867
0.334
0.257185
0.214181
0.203331
0.20216
0.214957
0.250948
0.312826
0.389842
0.434105
0.428871
0.398377
0.348055
0.290971
0.233995
0.181874
0.150428
0.145829
0.142249
0.142195
0.142426
0.14318
0.14396
0.144861
0.145724
0.146559
0.147457
0.148216
0.149047
0.149943
0.151435
0.153867
0.157856
0.164969
0.1793
0.19885
0.218341
0.235541
0.249799
0.260278
0.267937
0.274156
0.282875
0.296752
0.307657
0.309405
0.301116
0.256337
0.210302
0.201265
0.205279
0.231256
0.328775
0.429682
0.507648
0.562021
0.59282
0.601568
0.596627
0.559375
0.441732
0.270104
0.164028
0.130547
0.133661
0.188585
0.340621
0.53866
0.727455
0.853189
0.918938
0.960389
0.987397
0.962494
0.859573
0.70888
0.708621
0.794821
0.896843
0.876435
0.835837
0.761811
0.710331
0.692593
0.703987
0.781988
0.811283
0.812019
0.760548
0.704326
0.605898
0.419457
0.350018
0.387368
0.575128
0.80293
0.865291
0.832104
0.779244
0.736472
0.650826
0.511989
0.6902
0.535207
0.518919
0.522915
0.524238
0.510836
0.500272
0.491735
0.48102
0.463743
0.444088
0.399249
0.31118
0.229978
0.205425
0.201902
0.209911
0.245313
0.304919
0.382267
0.435724
0.453429
0.438145
0.3937
0.322492
0.247188
0.184647
0.157547
0.145604
0.144377
0.143351
0.143755
0.144413
0.145522
0.146273
0.148635
0.150004
0.151888
0.153917
0.15569
0.157745
0.161137
0.167856
0.177811
0.190128
0.205456
0.219551
0.234221
0.24861
0.261063
0.270457
0.278105
0.285235
0.295295
0.309109
0.314285
0.312698
0.287628
0.230683
0.201507
0.19948
0.206498
0.245755
0.348038
0.443783
0.52079
0.58103
0.622979
0.634624
0.626994
0.582234
0.4676
0.302346
0.173789
0.133595
0.135635
0.189748
0.341465
0.541536
0.733934
0.848316
0.897302
0.919127
0.931193
0.899368
0.810081
0.667042
0.6318
0.659792
0.799896
0.836951
0.816797
0.777607
0.704716
0.671203
0.667488
0.722334
0.777472
0.78827
0.773624
0.727326
0.669676
0.496889
0.354273
0.362271
0.520256
0.774584
0.879585
0.858494
0.798172
0.742927
0.647136
0.503279
0.734765
0.548409
0.511197
0.507593
0.503644
0.490315
0.480739
0.472478
0.460412
0.445695
0.441232
0.430277
0.381038
0.275967
0.212678
0.201486
0.204597
0.23549
0.299729
0.379355
0.435669
0.462168
0.459918
0.423691
0.345964
0.260221
0.190095
0.154168
0.15009
0.145804
0.145145
0.144798
0.1463
0.147689
0.153542
0.154681
0.162153
0.168236
0.173736
0.176537
0.178223
0.180155
0.183744
0.192452
0.207853
0.226631
0.242167
0.255356
0.266089
0.275531
0.283191
0.289969
0.297485
0.30801
0.318561
0.319887
0.310709
0.26334
0.213046
0.197033
0.198824
0.210025
0.271611
0.367504
0.454581
0.531688
0.597748
0.642708
0.65117
0.638874
0.587952
0.472871
0.313454
0.177539
0.134997
0.136316
0.184326
0.342183
0.560566
0.757019
0.851864
0.88277
0.887469
0.877281
0.819085
0.726492
0.627119
0.579596
0.58861
0.667315
0.7722
0.785898
0.76598
0.717391
0.661652
0.647073
0.658768
0.718839
0.741199
0.746488
0.726154
0.697693
0.574623
0.367714
0.345015
0.482058
0.736
0.87566
0.874577
0.81478
0.75047
0.648085
0.503078
0.76815
0.594658
0.503938
0.492128
0.483541
0.473094
0.464751
0.45664
0.439666
0.424913
0.424841
0.431433
0.422952
0.352916
0.241496
0.202557
0.199634
0.218031
0.286151
0.370181
0.426848
0.455505
0.457958
0.427996
0.348107
0.251474
0.174743
0.160049
0.151887
0.148467
0.147309
0.149704
0.151327
0.161263
0.17219
0.206109
0.233043
0.250602
0.25782
0.258177
0.248889
0.237234
0.225256
0.220323
0.22495
0.239264
0.256224
0.272553
0.283963
0.291779
0.297475
0.303118
0.310272
0.320186
0.326024
0.324524
0.300396
0.240188
0.202989
0.195361
0.199726
0.218834
0.304768
0.378314
0.451258
0.528795
0.600613
0.647762
0.654731
0.63897
0.574977
0.458395
0.311716
0.17779
0.135561
0.135593
0.183346
0.361098
0.605494
0.794801
0.860428
0.870026
0.858635
0.828542
0.731062
0.64933
0.583523
0.544496
0.547326
0.58075
0.690058
0.742715
0.743621
0.7212
0.664926
0.629941
0.630002
0.652622
0.66857
0.683507
0.69568
0.702495
0.623506
0.395539
0.333802
0.451053
0.699911
0.860577
0.876291
0.81933
0.748296
0.632437
0.482065
0.811393
0.661709
0.517936
0.48119
0.468826
0.461387
0.456498
0.44835
0.422035
0.401379
0.403162
0.418772
0.433766
0.414073
0.312885
0.214588
0.196759
0.201577
0.244292
0.333394
0.395332
0.426579
0.435267
0.404752
0.31822
0.212474
0.172949
0.163029
0.155599
0.153493
0.153757
0.158117
0.17767
0.223652
0.314431
0.366326
0.423169
0.449503
0.460073
0.459255
0.436116
0.39159
0.341955
0.300617
0.270871
0.26166
0.269655
0.283771
0.296893
0.306319
0.311835
0.31631
0.322706
0.330674
0.33255
0.326505
0.288057
0.224516
0.198196
0.195732
0.202367
0.238402
0.324459
0.368345
0.421943
0.498528
0.588999
0.64404
0.647393
0.615256
0.521112
0.41609
0.294308
0.17114
0.134638
0.134941
0.190115
0.41039
0.673341
0.823337
0.861941
0.855086
0.830934
0.776552
0.644934
0.590654
0.550278
0.518528
0.519305
0.536616
0.619417
0.694165
0.715434
0.708838
0.679294
0.629661
0.60734
0.611822
0.62003
0.633505
0.658136
0.69393
0.654183
0.42774
0.32837
0.422056
0.672618
0.84118
0.868146
0.813662
0.736985
0.602322
0.446223
0.844408
0.728654
0.584716
0.48435
0.462532
0.454481
0.454629
0.448556
0.415844
0.374344
0.368989
0.393096
0.42566
0.441171
0.391995
0.270546
0.200116
0.193412
0.205854
0.258644
0.323207
0.359094
0.371912
0.340085
0.249463
0.188605
0.172304
0.165743
0.161219
0.161197
0.169255
0.20373
0.307685
0.448836
0.56962
0.684774
0.758168
0.793591
0.80458
0.772371
0.710391
0.621953
0.520753
0.430352
0.364471
0.320513
0.298425
0.299388
0.307746
0.317286
0.324136
0.328799
0.334148
0.338979
0.339147
0.326094
0.275459
0.21588
0.197022
0.197551
0.206629
0.262397
0.328849
0.348332
0.381344
0.483863
0.58945
0.636698
0.631061
0.564485
0.439014
0.36876
0.273614
0.163403
0.132506
0.135251
0.217808
0.483009
0.707222
0.829202
0.856298
0.840469
0.806038
0.722438
0.57333
0.53859
0.521488
0.498112
0.497371
0.509836
0.572217
0.653567
0.689369
0.694424
0.683044
0.636961
0.59764
0.586009
0.58604
0.598072
0.632669
0.687788
0.676555
0.454391
0.328332
0.395071
0.655699
0.825309
0.85459
0.803452
0.715691
0.561298
0.40367
0.852629
0.792503
0.663647
0.531634
0.468012
0.457379
0.457601
0.456147
0.421365
0.360726
0.343905
0.351019
0.406451
0.440221
0.441563
0.355958
0.236377
0.193359
0.192241
0.208518
0.246288
0.271103
0.282132
0.259754
0.203309
0.181468
0.174824
0.171282
0.172841
0.187875
0.238371
0.386615
0.584423
0.795162
0.934688
1.03159
1.06959
1.06558
0.969311
0.882764
0.786587
0.704064
0.623056
0.530503
0.460172
0.40221
0.358241
0.3314
0.324644
0.328705
0.3345
0.339749
0.34404
0.346749
0.345141
0.326864
0.265317
0.211672
0.19837
0.200461
0.21532
0.287231
0.323293
0.33261
0.369929
0.492462
0.602919
0.633612
0.612286
0.497728
0.36038
0.319119
0.249848
0.154857
0.129499
0.13688
0.269
0.519258
0.715247
0.828441
0.849803
0.828066
0.780468
0.665588
0.516187
0.497684
0.498163
0.484761
0.48046
0.492249
0.543687
0.625097
0.668232
0.679331
0.67764
0.644871
0.596118
0.571853
0.567826
0.580422
0.622097
0.688755
0.693298
0.469037
0.327207
0.37292
0.640511
0.817545
0.841935
0.79149
0.687501
0.524552
0.382465
0.842079
0.83416
0.748428
0.621344
0.508187
0.470801
0.473271
0.47287
0.441326
0.370017
0.330475
0.327452
0.356315
0.429215
0.45758
0.42505
0.316759
0.213279
0.190584
0.192024
0.204232
0.217274
0.224288
0.212581
0.188495
0.1807
0.177463
0.179101
0.203457
0.265392
0.434721
0.700298
0.936466
1.09959
1.17805
1.19075
1.06484
0.861688
0.609938
0.550864
0.580373
0.627494
0.625606
0.565558
0.513947
0.46942
0.424295
0.38386
0.35652
0.345662
0.346246
0.349908
0.353313
0.354374
0.349518
0.325059
0.258672
0.210913
0.201218
0.204524
0.234444
0.30072
0.312967
0.325938
0.396426
0.537546
0.621717
0.636572
0.603145
0.460979
0.297515
0.273042
0.223437
0.145066
0.127728
0.143887
0.309362
0.529127
0.711996
0.822682
0.84319
0.816893
0.75697
0.608492
0.478989
0.46629
0.480412
0.48301
0.472236
0.480549
0.526073
0.605854
0.650663
0.666035
0.669096
0.647283
0.593027
0.564055
0.559065
0.573181
0.619016
0.692482
0.702473
0.473246
0.322213
0.352066
0.61904
0.811355
0.827359
0.776743
0.659165
0.49499
0.38274
0.825239
0.846135
0.814932
0.721849
0.600941
0.516442
0.498327
0.493892
0.470438
0.389644
0.325127
0.312914
0.317711
0.390106
0.452449
0.4606
0.399961
0.277709
0.202077
0.189644
0.191051
0.195403
0.198115
0.193859
0.185056
0.182777
0.186553
0.20854
0.276
0.433302
0.739897
1.00653
1.14005
1.19775
1.08577
0.774981
0.417008
0.252545
0.236646
0.238363
0.274348
0.393353
0.537299
0.560638
0.532626
0.504976
0.472996
0.435612
0.399864
0.373634
0.361941
0.361542
0.362984
0.362171
0.35507
0.324483
0.253234
0.212267
0.204958
0.211408
0.259908
0.301859
0.306052
0.326848
0.427853
0.556067
0.627742
0.639888
0.60326
0.451198
0.259693
0.236425
0.196453
0.135475
0.127534
0.157053
0.328188
0.522338
0.684854
0.807134
0.835254
0.805998
0.73238
0.555452
0.443328
0.442833
0.472984
0.481254
0.474252
0.479203
0.51492
0.591062
0.63553
0.652219
0.656635
0.640463
0.586202
0.554397
0.550255
0.56751
0.619301
0.699891
0.702734
0.453803
0.313888
0.333812
0.59074
0.806469
0.815249
0.763103
0.638038
0.485534
0.400378
0.805703
0.840402
0.84923
0.806893
0.709934
0.600241
0.551509
0.543127
0.516899
0.436464
0.341527
0.305983
0.301868
0.332296
0.436674
0.467466
0.45113
0.362306
0.249188
0.197565
0.189185
0.189507
0.189747
0.18776
0.18524
0.187705
0.205836
0.261641
0.389659
0.702311
1.02412
1.14815
1.16622
1.01316
0.642534
0.329911
0.24055
0.234208
0.232632
0.230776
0.237058
0.278151
0.393418
0.505408
0.533475
0.520223
0.499346
0.471091
0.438566
0.408201
0.386618
0.376518
0.374444
0.370924
0.359362
0.324614
0.246919
0.214656
0.210107
0.227633
0.280763
0.294429
0.298472
0.322066
0.400871
0.500046
0.597102
0.638772
0.609532
0.454659
0.25161
0.214836
0.16989
0.129569
0.128215
0.170727
0.33215
0.475947
0.628544
0.781272
0.825242
0.794599
0.705442
0.507211
0.411808
0.421116
0.477859
0.487902
0.48112
0.485897
0.516197
0.580742
0.619594
0.635258
0.640148
0.626285
0.57825
0.5471
0.545174
0.568225
0.627857
0.713866
0.690727
0.424298
0.308936
0.320899
0.556506
0.800605
0.813689
0.749618
0.617802
0.494291
0.435725
0.760318
0.832465
0.85651
0.856249
0.806747
0.708741
0.621704
0.597707
0.568548
0.494003
0.388892
0.308586
0.295362
0.305091
0.394526
0.460622
0.468363
0.428431
0.31974
0.229478
0.196216
0.188796
0.187494
0.186852
0.188924
0.203518
0.246998
0.337171
0.565565
0.971997
1.17163
1.17996
1.08533
0.800046
0.494966
0.337484
0.332215
0.341403
0.317374
0.265215
0.257206
0.262587
0.316389
0.421702
0.493766
0.520895
0.513295
0.49149
0.463997
0.435871
0.412262
0.396487
0.386993
0.380239
0.363815
0.319009
0.240851
0.218661
0.219436
0.254252
0.288533
0.286359
0.286622
0.296999
0.320606
0.392352
0.530002
0.627634
0.619399
0.483601
0.257457
0.198328
0.149296
0.127872
0.131072
0.177662
0.317449
0.393877
0.56458
0.755356
0.814338
0.780566
0.673193
0.4632
0.386639
0.408898
0.487319
0.497628
0.491563
0.497749
0.528682
0.578376
0.60549
0.618269
0.622921
0.61151
0.569005
0.545494
0.546654
0.577249
0.640445
0.726847
0.667266
0.398617
0.303387
0.312143
0.517542
0.791923
0.817987
0.741802
0.603018
0.520734
0.476962
0.652952
0.802581
0.855568
0.872493
0.864113
0.808728
0.720316
0.65427
0.620077
0.555448
0.447319
0.332335
0.293719
0.294617
0.347784
0.442766
0.467895
0.461658
0.392992
0.276725
0.222095
0.197427
0.189833
0.190751
0.201203
0.228433
0.285118
0.402277
0.751315
1.1699
1.23263
1.18324
1.02501
0.743377
0.54227
0.536861
0.576585
0.579866
0.455039
0.307672
0.27848
0.278394
0.306992
0.393186
0.464476
0.502204
0.513787
0.504355
0.480365
0.454315
0.430537
0.412202
0.399584
0.388002
0.363066
0.297304
0.238851
0.225129
0.240448
0.273199
0.287286
0.275519
0.27196
0.273015
0.279749
0.3079
0.446534
0.598716
0.623686
0.521415
0.278157
0.18378
0.141617
0.128334
0.135465
0.181013
0.272097
0.317245
0.538899
0.747976
0.80438
0.76271
0.634027
0.424268
0.375725
0.41898
0.504048
0.507845
0.501556
0.512478
0.541786
0.57399
0.59196
0.601964
0.605658
0.595879
0.56048
0.546139
0.554608
0.593715
0.661651
0.737247
0.621361
0.363916
0.297045
0.307165
0.477302
0.778274
0.823786
0.742241
0.604563
0.548279
0.515127
0.491735
0.72274
0.841568
0.879488
0.888046
0.869729
0.812122
0.739287
0.697365
0.631867
0.514957
0.368613
0.298592
0.290625
0.31542
0.411369
0.461616
0.470362
0.441494
0.338963
0.254391
0.221398
0.204048
0.203748
0.218354
0.253541
0.323409
0.489702
0.960764
1.32242
1.28185
1.19856
1.001
0.782487
0.758667
0.804249
0.83652
0.76599
0.545741
0.337691
0.281334
0.280807
0.309855
0.389505
0.458517
0.493144
0.50835
0.508718
0.491502
0.467469
0.444173
0.425105
0.409452
0.390366
0.347193
0.273698
0.242465
0.239944
0.26268
0.280481
0.275779
0.264659
0.260683
0.259359
0.262416
0.279878
0.385832
0.562144
0.625719
0.559387
0.331963
0.175691
0.139646
0.130762
0.138418
0.177024
0.221249
0.2942
0.536671
0.748778
0.795787
0.740887
0.586498
0.392596
0.371859
0.443691
0.527779
0.523488
0.515717
0.530118
0.549098
0.56655
0.578389
0.586862
0.590721
0.582328
0.556583
0.550508
0.568178
0.614064
0.684076
0.725218
0.527222
0.325702
0.292539
0.303789
0.440078
0.760306
0.829192
0.74153
0.612469
0.572351
0.550306
0.390497
0.570168
0.786906
0.878256
0.902075
0.897289
0.866971
0.811804
0.763302
0.690829
0.566947
0.394341
0.306105
0.287204
0.298276
0.373338
0.448452
0.467377
0.46359
0.403
0.293687
0.246727
0.224406
0.220111
0.234199
0.275903
0.355269
0.560038
1.09377
1.42116
1.32217
1.2246
1.04923
0.98051
1.00957
1.05431
1.05935
0.91179
0.63334
0.371759
0.272735
0.268881
0.293761
0.371034
0.441825
0.479072
0.495821
0.501102
0.493423
0.473564
0.451749
0.431382
0.409792
0.372641
0.308109
0.266508
0.250884
0.261315
0.274348
0.279299
0.265755
0.257684
0.254213
0.252577
0.254127
0.266909
0.339838
0.520668
0.615946
0.582873
0.386068
0.183525
0.140977
0.133976
0.140367
0.163124
0.186534
0.290081
0.546618
0.753806
0.785474
0.714897
0.529028
0.378631
0.377335
0.486271
0.544517
0.533307
0.535929
0.543931
0.549901
0.55816
0.567479
0.575852
0.581519
0.574575
0.558226
0.563279
0.59206
0.636499
0.694608
0.661112
0.416632
0.306021
0.290067
0.301449
0.409736
0.739188
0.833965
0.740783
0.618699
0.589225
0.583432
0.341
0.450657
0.657246
0.832615
0.903252
0.911744
0.893382
0.854926
0.803164
0.723653
0.590814
0.40674
0.310916
0.286403
0.290738
0.34141
0.428433
0.462219
0.469044
0.442734
0.343609
0.276018
0.246853
0.237356
0.248523
0.291056
0.372192
0.580408
1.13569
1.54258
1.40948
1.28348
1.17104
1.14876
1.19075
1.23168
1.21672
1.04097
0.730128
0.429036
0.273174
0.260091
0.268422
0.314611
0.391566
0.436526
0.461173
0.472718
0.474243
0.46283
0.443634
0.418033
0.38048
0.328074
0.288444
0.269749
0.266035
0.272984
0.278352
0.269237
0.259279
0.255268
0.252897
0.251499
0.25174
0.259043
0.296006
0.465084
0.595575
0.593436
0.446019
0.208358
0.146098
0.138209
0.142163
0.153966
0.176441
0.29699
0.576482
0.763886
0.774742
0.679826
0.473208
0.375115
0.407639
0.534422
0.559868
0.548071
0.549953
0.550682
0.545297
0.552481
0.562111
0.572152
0.578824
0.570916
0.567801
0.586729
0.618369
0.657588
0.674522
0.539994
0.33736
0.294086
0.291141
0.303914
0.388607
0.712818
0.835381
0.74093
0.62113
0.600432
0.610316
0.321487
0.392269
0.555852
0.732554
0.862123
0.918319
0.90856
0.876473
0.823738
0.736091
0.577403
0.382768
0.303158
0.283941
0.28599
0.322845
0.408907
0.455946
0.467125
0.461591
0.398404
0.305671
0.270032
0.255539
0.262456
0.297956
0.374251
0.576135
1.15286
1.64844
1.57624
1.38382
1.26669
1.23771
1.27469
1.30906
1.29993
1.14066
0.829372
0.510607
0.301236
0.260273
0.259182
0.269901
0.302598
0.344732
0.376651
0.400388
0.411554
0.412218
0.397892
0.36551
0.331495
0.303606
0.285581
0.275671
0.274949
0.277854
0.272276
0.262934
0.258725
0.256734
0.255172
0.253902
0.25328
0.255762
0.274263
0.396993
0.559083
0.598024
0.504348
0.262046
0.156147
0.143408
0.144176
0.151392
0.175014
0.324133
0.613913
0.769275
0.759199
0.632233
0.429227
0.377721
0.461996
0.564769
0.569593
0.559084
0.55818
0.552748
0.544909
0.554738
0.565815
0.575759
0.579497
0.575885
0.58971
0.61477
0.643284
0.660535
0.590373
0.38923
0.29757
0.286865
0.295613
0.309474
0.37337
0.679889
0.832227
0.745715
0.624094
0.609696
0.631754
0.320203
0.376022
0.512814
0.680959
0.812652
0.914223
0.914602
0.88659
0.824084
0.698996
0.48242
0.338411
0.292115
0.281965
0.28379
0.314249
0.397097
0.449798
0.465154
0.467828
0.435916
0.345404
0.294786
0.275335
0.277574
0.302994
0.37258
0.556129
1.10433
1.64919
1.70165
1.52748
1.39861
1.33764
1.36132
1.37736
1.36245
1.21414
0.919079
0.608478
0.379915
0.287776
0.271433
0.272264
0.27811
0.290187
0.302752
0.316589
0.328322
0.33311
0.330001
0.316107
0.301448
0.29023
0.283171
0.279756
0.2784
0.274014
0.267533
0.26408
0.262209
0.261093
0.25972
0.258075
0.256483
0.256646
0.265954
0.336807
0.5109
0.585393
0.540655
0.335822
0.173999
0.149449
0.146713
0.15166
0.176193
0.354448
0.649986
0.771481
0.737735
0.572444
0.404875
0.390438
0.513939
0.583317
0.578519
0.567209
0.562602
0.555277
0.551541
0.561902
0.571024
0.579626
0.583997
0.596468
0.618563
0.641659
0.653558
0.60483
0.429302
0.297909
0.279951
0.289106
0.30617
0.319722
0.363543
0.633833
0.823175
0.764379
0.631308
0.61877
0.648191
0.329253
0.385753
0.515257
0.675171
0.799871
0.897113
0.893635
0.853488
0.749248
0.550739
0.37042
0.305341
0.286591
0.282813
0.285182
0.315446
0.395572
0.446058
0.463283
0.469003
0.456859
0.386593
0.322558
0.296411
0.293757
0.31169
0.365074
0.504549
0.971266
1.56336
1.70734
1.58848
1.43648
1.36354
1.3742
1.40078
1.3967
1.32661
1.1431
0.918879
0.718755
0.571983
0.488681
0.436523
0.359343
0.314294
0.302257
0.300146
0.30054
0.300658
0.299026
0.2943
0.289113
0.285192
0.282419
0.280249
0.277758
0.27435
0.271418
0.269752
0.269825
0.269959
0.269003
0.266525
0.261944
0.259664
0.263607
0.297393
0.459274
0.564619
0.554801
0.408
0.207145
0.155938
0.149766
0.153148
0.182989
0.396436
0.686435
0.76614
0.709362
0.511427
0.400105
0.413615
0.550527
0.599553
0.590966
0.577756
0.570268
0.561501
0.55949
0.568965
0.579354
0.590389
0.604897
0.626115
0.644081
0.651349
0.609294
0.450857
0.293167
0.267931
0.275285
0.300944
0.322967
0.33357
0.359484
0.564206
0.815266
0.803364
0.646271
0.627481
0.660589
0.34168
0.403285
0.534075
0.67942
0.782642
0.842523
0.810203
0.718541
0.545916
0.383432
0.31517
0.293342
0.287966
0.286801
0.292222
0.323222
0.3991
0.445686
0.46291
0.468826
0.466684
0.423733
0.347201
0.317546
0.31011
0.322128
0.360128
0.453148
0.776324
1.38149
1.6225
1.55982
1.33065
1.20102
1.19017
1.24705
1.35814
1.42322
1.42893
1.39271
1.33743
1.31386
1.3001
1.23342
1.06755
0.783808
0.529102
0.37148
0.322162
0.307573
0.301057
0.295923
0.292147
0.289608
0.287646
0.285853
0.283998
0.282708
0.283925
0.289148
0.295775
0.297343
0.292979
0.283997
0.271954
0.264002
0.264814
0.284378
0.40686
0.537811
0.55908
0.462873
0.256491
0.168322
0.154325
0.15575
0.196988
0.452336
0.720004
0.756404
0.67291
0.466322
0.401237
0.441902
0.581907
0.620133
0.608126
0.59275
0.58259
0.574189
0.573556
0.584878
0.60142
0.617084
0.633429
0.647723
0.652206
0.610428
0.452746
0.286721
0.255669
0.260104
0.288442
0.325821
0.34488
0.349344
0.364704
0.48337
0.788415
0.85326
0.68925
0.640712
0.667457
0.356081
0.42454
0.549706
0.659422
0.718634
0.708255
0.61724
0.48338
0.373827
0.318919
0.299209
0.293406
0.294784
0.301067
0.309237
0.343725
0.408519
0.449237
0.463903
0.46875
0.471392
0.450048
0.379226
0.337778
0.326671
0.333568
0.358472
0.417272
0.603753
1.0824
1.44932
1.47024
1.29444
1.01364
0.928469
0.944609
1.09067
1.36368
1.57458
1.72444
1.84942
1.91445
1.94899
1.94907
1.83069
1.56944
1.21198
0.848803
0.561609
0.413612
0.349138
0.32386
0.313634
0.309119
0.307902
0.309742
0.316715
0.330506
0.342346
0.344527
0.336118
0.32066
0.304424
0.289708
0.276724
0.267744
0.267195
0.281851
0.370328
0.508482
0.55229
0.494416
0.311953
0.186194
0.160171
0.159452
0.222096
0.512624
0.739466
0.745599
0.631162
0.439096
0.406839
0.473425
0.613694
0.645467
0.632727
0.615619
0.603381
0.598091
0.602522
0.615201
0.628992
0.642654
0.654706
0.653488
0.600824
0.435597
0.279341
0.246036
0.252809
0.279272
0.329752
0.359723
0.370391
0.365798
0.373918
0.436308
0.710089
0.85924
0.782338
0.669456
0.672953
0.366894
0.436675
0.526919
0.566957
0.570927
0.498897
0.416101
0.35338
0.318076
0.304759
0.299895
0.299507
0.315277
0.328662
0.338175
0.374153
0.427838
0.456986
0.466119
0.469834
0.473868
0.465462
0.411164
0.360675
0.343495
0.345073
0.360213
0.397724
0.493111
0.770481
1.16026
1.29225
1.21728
1.00055
0.799264
0.745362
0.778002
0.990886
1.41119
1.73187
1.94648
2.06876
2.1202
2.12598
1.98743
1.75855
1.46501
1.17467
0.907384
0.707748
0.577477
0.485041
0.43947
0.419141
0.413553
0.415044
0.413826
0.401252
0.38189
0.359629
0.335431
0.314142
0.298031
0.285709
0.276076
0.269844
0.26962
0.283143
0.349592
0.482025
0.534179
0.507828
0.369885
0.215202
0.16641
0.164416
0.256572
0.572246
0.747647
0.734833
0.593367
0.429866
0.41158
0.497101
0.640687
0.674804
0.664316
0.647158
0.633899
0.631475
0.637392
0.647715
0.658153
0.664995
0.653405
0.583195
0.406612
0.268362
0.241337
0.251225
0.290001
0.351663
0.381784
0.401775
0.397138
0.384483
0.386832
0.415391
0.578962
0.843882
0.873517
0.728599
0.687885
0.369543
0.417071
0.437331
0.437805
0.419082
0.372
0.33666
0.316809
0.310001
0.307629
0.309362
0.320332
0.349175
0.364358
0.373298
0.406103
0.449813
0.468894
0.470922
0.47275
0.47599
0.474281
0.436792
0.377753
0.358022
0.356427
0.366552
0.389323
0.436657
0.56717
0.814963
1.00634
1.0508
0.963934
0.796462
0.67369
0.62746
0.65611
0.872039
1.37452
1.80203
2.03247
2.12115
2.14707
2.00898
1.71069
1.41316
1.21295
1.02984
0.886124
0.7698
0.668119
0.601256
0.551782
0.511634
0.475088
0.438817
0.403226
0.363195
0.329308
0.308986
0.299224
0.292306
0.285264
0.277542
0.273613
0.273805
0.287525
0.342307
0.459606
0.51693
0.511717
0.415694
0.254704
0.176932
0.17135
0.29909
0.622063
0.752024
0.728014
0.579256
0.423709
0.411526
0.512265
0.664567
0.704968
0.69976
0.685343
0.672879
0.672706
0.676888
0.681761
0.678037
0.647756
0.550935
0.367005
0.254132
0.24
0.256186
0.319428
0.380549
0.411144
0.43565
0.447829
0.435944
0.414333
0.404247
0.412526
0.480172
0.750852
0.883983
0.844484
0.73179
0.354879
0.367323
0.370104
0.360818
0.345766
0.327237
0.317581
0.314836
0.31592
0.323073
0.333661
0.357861
0.391625
0.405528
0.413053
0.440394
0.473073
0.482988
0.478323
0.475747
0.48005
0.484159
0.462707
0.400024
0.371178
0.365978
0.372019
0.386617
0.412853
0.470988
0.590328
0.720278
0.792855
0.840022
0.777888
0.677038
0.589791
0.549609
0.566902
0.778781
1.34955
1.86326
2.08405
2.15263
1.98206
1.5484
1.19863
1.0705
1.02316
0.932806
0.827875
0.727194
0.647856
0.576568
0.515338
0.454352
0.387746
0.34075
0.322598
0.317651
0.316742
0.315633
0.310887
0.300159
0.289616
0.28335
0.281975
0.294168
0.342186
0.442357
0.500682
0.511083
0.449572
0.297785
0.191997
0.180414
0.342723
0.65223
0.754002
0.728312
0.584436
0.416504
0.399757
0.506466
0.676096
0.729152
0.732574
0.723539
0.713917
0.711466
0.708716
0.688913
0.627237
0.499119
0.323316
0.244432
0.241966
0.271097
0.352114
0.397461
0.421055
0.438437
0.459214
0.481193
0.492137
0.470594
0.431909
0.425003
0.446363
0.575859
0.842372
0.896427
0.828964
0.338579
0.34002
0.33595
0.328498
0.322743
0.318952
0.319523
0.323618
0.33365
0.348408
0.367781
0.395959
0.436744
0.451332
0.453968
0.474108
0.497024
0.499408
0.488659
0.481818
0.487894
0.494112
0.482131
0.418558
0.381778
0.373694
0.377027
0.387024
0.403573
0.431428
0.485299
0.558615
0.599807
0.645426
0.688067
0.661516
0.595018
0.530789
0.499662
0.528277
0.795931
1.50918
2.01797
2.1284
1.78449
1.1748
0.940634
0.908331
0.903539
0.881431
0.80462
0.702892
0.606644
0.507241
0.415483
0.370425
0.351778
0.346297
0.360226
0.370751
0.372028
0.369112
0.360802
0.347029
0.326694
0.311718
0.302916
0.306893
0.344474
0.429255
0.485636
0.502044
0.471125
0.350583
0.217239
0.191727
0.369776
0.669311
0.75703
0.735205
0.608286
0.419528
0.37865
0.461454
0.657827
0.732947
0.748362
0.745338
0.736278
0.721572
0.686725
0.585595
0.425086
0.285635
0.245859
0.252716
0.315401
0.379316
0.407355
0.421492
0.432083
0.44497
0.46222
0.485165
0.510292
0.524971
0.50225
0.453683
0.444842
0.480065
0.683842
0.88747
0.902408
0.3299
0.327508
0.322526
0.319978
0.319679
0.321498
0.326185
0.333439
0.344825
0.362001
0.386939
0.422962
0.470411
0.492993
0.493688
0.506863
0.521227
0.518923
0.503756
0.490005
0.496874
0.509435
0.510773
0.458835
0.395201
0.380136
0.380526
0.387732
0.398894
0.414019
0.439531
0.481588
0.507484
0.530843
0.56275
0.593428
0.581436
0.535868
0.484757
0.466634
0.540408
1.05974
1.85407
2.07706
1.48838
0.821018
0.720452
0.709099
0.703471
0.663373
0.594022
0.519003
0.443262
0.403667
0.385807
0.382307
0.406341
0.432192
0.439364
0.437632
0.429843
0.419583
0.412502
0.406759
0.395977
0.380574
0.3704
0.358214
0.370538
0.426923
0.480241
0.499997
0.484004
0.399104
0.250584
0.205211
0.384715
0.678001
0.75787
0.743685
0.642516
0.445551
0.361017
0.388073
0.578171
0.692339
0.723844
0.726381
0.708133
0.654684
0.538337
0.364783
0.268497
0.249793
0.262808
0.338128
0.39457
0.412911
0.420092
0.426629
0.43368
0.443538
0.45818
0.477715
0.501727
0.528907
0.546945
0.523184
0.467387
0.460466
0.516077
0.769569
0.907638
0.327062
0.322825
0.320046
0.319981
0.321606
0.325787
0.329776
0.336148
0.344832
0.357665
0.381725
0.428015
0.489671
0.518814
0.529156
0.537167
0.543809
0.539889
0.522322
0.498696
0.504704
0.535143
0.539376
0.508209
0.41979
0.388688
0.383611
0.388064
0.395578
0.406231
0.418993
0.440483
0.461349
0.47691
0.495487
0.5226
0.535104
0.526188
0.483497
0.448808
0.469452
0.768966
1.66135
1.99149
1.26164
0.687249
0.605775
0.563062
0.498914
0.465703
0.447458
0.432098
0.418816
0.419684
0.445396
0.498541
0.522141
0.525486
0.521357
0.513587
0.492791
0.470181
0.449923
0.44157
0.439208
0.438598
0.453615
0.477307
0.477008
0.47606
0.491533
0.506165
0.493972
0.436068
0.286519
0.221437
0.389645
0.676674
0.757913
0.753237
0.685682
0.507489
0.358113
0.337088
0.427475
0.573448
0.625361
0.636561
0.592877
0.485054
0.338813
0.261367
0.249098
0.262986
0.33616
0.395728
0.416494
0.419528
0.419348
0.419295
0.419307
0.424036
0.435701
0.454516
0.480386
0.510709
0.539306
0.559948
0.534225
0.477612
0.475559
0.554777
0.815353
0.326611
0.32265
0.320973
0.32146
0.324237
0.326672
0.32906
0.332488
0.336696
0.343706
0.355612
0.386604
0.474951
0.532303
0.550409
0.561448
0.565287
0.561803
0.543447
0.504183
0.507311
0.550849
0.584551
0.570211
0.482332
0.406616
0.389245
0.388488
0.393238
0.400058
0.409264
0.420712
0.434354
0.446661
0.458162
0.474787
0.488506
0.490199
0.472837
0.4384
0.442354
0.63242
1.49285
1.91316