/*--------------------------------*- C++ -*----------------------------------*\
  =========                 |
  \\      /  F ield         | OpenFOAM: The Open Source CFD Toolbox
   \\    /   O peration     | Website:  https://openfoam.org
    \\  /    A nd           | Version:  10
     \\/     M anipulation  |
\*---------------------------------------------------------------------------*/
FoamFile
{
    format      ascii;
    class       volScalarField;
    location    "0.499568";
    object      T;
}
// * * * * * * * * * * * * * * * * * * * * * * * * * * * * * * * * * * * * * //

dimensions      [0 0 0 1 0 0 0];

internalField   nonuniform List<scalar> 
16320
(
0.0037739
0.00487846
0.00498384
0.00477444
0.00474266
0.00492547
0.0052718
0.00589861
0.00665409
0.00747997
0.00857625
0.0100807
0.0110482
0.0112765
0.0110575
0.009925
0.007807
0.00563299
0.00472831
0.00472948
0.00511267
0.00585245
0.00701921
0.00850742
0.0102658
0.0112457
0.0120895
0.0120117
0.0122406
0.0122544
0.0123089
0.012328
0.0123587
0.0123733
0.0123993
0.01243
0.0124788
0.0125095
0.0125164
0.0125176
0.0124976
0.0124539
0.0123741
0.012231
0.011902
0.0112891
0.0103174
0.00914471
0.00828439
0.00762813
0.00710692
0.00679758
0.00658641
0.0064637
0.00635523
0.00608869
0.00571632
0.00557499
0.00562762
0.00616207
0.00743234
0.00770848
0.00742816
0.00595862
0.00427337
0.00343741
0.0031437
0.00310594
0.0031384
0.00333339
0.00411648
0.00651863
0.00926266
0.0119048
0.0140307
0.0142841
0.012756
0.00682853
0.00369085
0.00259882
0.00223446
0.00216248
0.00217799
0.00219375
0.00228768
0.00243021
0.00225355
0.00202184
0.00200066
0.00227544
0.00240701
0.00242358
0.0025092
0.0025221
0.00235723
0.00222926
0.00228408
0.00266018
0.00351698
0.00383927
0.00429634
0.00540253
0.00603557
0.00560484
0.00434225
0.00309248
0.00237026
0.00201437
0.00185366
0.00179872
0.00178937
0.00184855
0.00205673
0.00365808
0.00452399
0.00457598
0.00436102
0.00433222
0.00445482
0.00469109
0.00504739
0.00563239
0.00645033
0.00766737
0.00912101
0.0104493
0.0109392
0.0110297
0.0105466
0.00912812
0.00706692
0.0054165
0.00491803
0.00508814
0.00559519
0.00641449
0.00747764
0.008828
0.0101134
0.0111241
0.0118249
0.0121914
0.0123386
0.0123629
0.0123902
0.0124021
0.0124389
0.0124643
0.0125151
0.012546
0.0125541
0.0125552
0.0125403
0.0125074
0.0124509
0.0123565
0.0121639
0.0117666
0.011006
0.00982459
0.00874499
0.00796866
0.00737755
0.00693469
0.00666544
0.0064848
0.00637124
0.00618581
0.00582715
0.00558858
0.00557353
0.00576367
0.0068429
0.00798352
0.00808915
0.00768616
0.00596406
0.00429607
0.00356087
0.00326953
0.00317915
0.00318215
0.00328521
0.00379485
0.00554925
0.00877078
0.0119077
0.0141002
0.0142192
0.0114278
0.00574839
0.00344245
0.00252097
0.00218037
0.00210424
0.00211447
0.0021365
0.00222395
0.00247114
0.00252461
0.00224144
0.00202579
0.00210288
0.00234623
0.00239669
0.00250059
0.00253281
0.00246581
0.00225419
0.00223591
0.00236276
0.002855
0.00322195
0.00370618
0.00499543
0.00611281
0.00613703
0.00481557
0.00323814
0.00246009
0.00210036
0.00193384
0.00187775
0.00187114
0.00197744
0.00233437
0.00343555
0.00423663
0.00429169
0.00413589
0.0041197
0.00422111
0.00435786
0.00450993
0.00477061
0.00530094
0.00636793
0.00784073
0.00955137
0.0104257
0.0106323
0.0105641
0.00962625
0.00800746
0.00625809
0.00527758
0.00514477
0.00538077
0.00584071
0.00657647
0.00749899
0.00862489
0.0101606
0.0117427
0.0122706
0.012374
0.0124334
0.0124453
0.0124704
0.0124892
0.0125194
0.012541
0.0125523
0.0125551
0.0125525
0.0125291
0.0124854
0.0124118
0.0122783
0.012029
0.011552
0.0107088
0.00942542
0.00841606
0.00768908
0.00715249
0.0067781
0.00653532
0.00636575
0.00620142
0.00595163
0.00564303
0.0055512
0.00560993
0.00611589
0.00765695
0.00844437
0.00842963
0.00783131
0.00576486
0.00428218
0.00362504
0.00330502
0.0031854
0.00317234
0.00322346
0.00353871
0.00473991
0.00787358
0.011659
0.0140779
0.0139469
0.0100068
0.00537113
0.00335442
0.00248684
0.00214706
0.00205987
0.00206561
0.0020907
0.002169
0.00245
0.00277373
0.0025846
0.00216131
0.00211644
0.00223095
0.00233439
0.00247414
0.00254002
0.00252294
0.00234475
0.00220254
0.00222003
0.00240549
0.00283246
0.00329167
0.0043007
0.0060534
0.00654809
0.0054395
0.00353304
0.00255516
0.00216763
0.00199915
0.0019451
0.00194377
0.00211893
0.00262728
0.00317481
0.00398869
0.00409043
0.0040238
0.00401601
0.00410931
0.00419707
0.00425337
0.00434547
0.00457372
0.00510059
0.00632096
0.00818792
0.00978881
0.0102731
0.0103144
0.00970122
0.00834924
0.00678468
0.00557385
0.00514579
0.00523241
0.00543887
0.00586169
0.0066455
0.00798552
0.0100696
0.0119668
0.0122569
0.0124995
0.0124888
0.0124945
0.0124918
0.0125053
0.0125142
0.0125235
0.0125256
0.0125069
0.0124774
0.0124197
0.0123375
0.012186
0.0119419
0.011572
0.0109976
0.0100452
0.00898037
0.0081015
0.00743967
0.00695088
0.00661897
0.00639025
0.00621895
0.00601513
0.00573655
0.0055507
0.00555369
0.00575455
0.00681358
0.00836364
0.00878534
0.00865423
0.0077182
0.00547917
0.00422961
0.00361573
0.00329266
0.00313641
0.00309276
0.00311273
0.00330448
0.00415504
0.00673947
0.0110885
0.0139046
0.0135403
0.00958259
0.00527697
0.00332388
0.00246028
0.00211731
0.0020178
0.00201759
0.00205318
0.00215809
0.00240887
0.00288786
0.00284646
0.00249674
0.00217745
0.00219065
0.00224971
0.00241347
0.00253958
0.00256453
0.00249249
0.00225192
0.00219317
0.0022488
0.00252381
0.00293883
0.00366453
0.00557136
0.00672034
0.00606866
0.00400287
0.00269827
0.00224277
0.0020646
0.00200461
0.00200168
0.00220289
0.00277404
0.00287837
0.00377305
0.00393911
0.00393832
0.00394279
0.00404021
0.00409444
0.00411347
0.00415183
0.00427999
0.00447465
0.00501552
0.00649018
0.00880934
0.0098798
0.0100733
0.00972719
0.00838682
0.0068554
0.00563225
0.00514509
0.005095
0.00526784
0.00561876
0.0064614
0.00802914
0.0104087
0.0118399
0.0125832
0.0125412
0.0125546
0.0125
0.0124847
0.0124652
0.0124873
0.0123794
0.0123444
0.0122567
0.0121381
0.0120182
0.0118618
0.0115941
0.0110957
0.0104243
0.00968441
0.00888383
0.00823679
0.00764362
0.00713301
0.00672807
0.0064431
0.00622928
0.00605219
0.00584046
0.00558922
0.00552332
0.00559332
0.00613718
0.0077089
0.00888053
0.00901375
0.00874611
0.00738365
0.00524645
0.00414785
0.00356126
0.00320892
0.00300013
0.00294435
0.00297291
0.00318661
0.0039438
0.00605922
0.0105114
0.0136382
0.0133837
0.00954677
0.00526734
0.00329561
0.00240941
0.00207633
0.0019784
0.00197714
0.0020251
0.0021625
0.00242194
0.00293211
0.00306755
0.00290305
0.00236241
0.00222428
0.00223982
0.00230428
0.00249741
0.00258676
0.00257398
0.00238462
0.00223471
0.00225542
0.00241597
0.00278582
0.00330067
0.00474483
0.00675702
0.00662874
0.00455142
0.00292521
0.00234702
0.00214253
0.00207416
0.00206609
0.00226986
0.00285867
0.00258809
0.00352192
0.00381687
0.00386338
0.00389395
0.00397453
0.00400298
0.00400741
0.00406039
0.00417631
0.00424117
0.00441243
0.00507846
0.00711943
0.009299
0.00987502
0.00979327
0.00859136
0.00686762
0.00560332
0.00510759
0.00502072
0.0051517
0.00551331
0.00643887
0.00811897
0.0106245
0.0126212
0.0125974
0.0126773
0.0125587
0.0125226
0.0124014
0.012351
0.0119485
0.0119462
0.0114842
0.0111464
0.0108496
0.010707
0.0106158
0.010496
0.0102692
0.00976463
0.00898772
0.0081785
0.00758287
0.00711784
0.00675995
0.00646474
0.00623916
0.00605839
0.00588725
0.00568546
0.00551268
0.00552315
0.00573505
0.00682461
0.00849588
0.00923129
0.0091854
0.00873071
0.00678055
0.00503582
0.00409668
0.00351964
0.00313975
0.00292133
0.00287775
0.00292398
0.0031633
0.00391265
0.00587137
0.0103317
0.0135482
0.0133632
0.00984925
0.0052683
0.0031787
0.00231404
0.00202362
0.00193909
0.00194424
0.00201377
0.0022239
0.00255172
0.00297093
0.00320672
0.00313647
0.00274026
0.00233711
0.00226577
0.00228661
0.00240104
0.00257805
0.00261882
0.00257165
0.0023797
0.00236004
0.00245613
0.00274221
0.00315405
0.00413679
0.00666207
0.00711814
0.00504112
0.00319407
0.00248338
0.00224069
0.00216059
0.00214715
0.00234178
0.00291879
0.00236509
0.00310957
0.00369927
0.0038
0.0038564
0.00390415
0.00391264
0.0039125
0.00401747
0.00414596
0.00418184
0.00419465
0.00438956
0.0053975
0.00801864
0.0096417
0.00988174
0.00915493
0.00709473
0.00566401
0.00513697
0.00503971
0.00515474
0.00554066
0.00663787
0.00881124
0.0121023
0.0127013
0.0128717
0.0127115
0.0125424
0.0122024
0.0120212
0.0113026
0.0106569
0.00901681
0.00805704
0.00756352
0.00740105
0.00741966
0.00770831
0.00808573
0.00849911
0.0086672
0.00844741
0.00788402
0.00729882
0.00678994
0.00644639
0.00620989
0.00603954
0.00589211
0.00573971
0.00556414
0.00548392
0.00554671
0.00604271
0.0076161
0.00906369
0.00945547
0.00928122
0.00849702
0.00612621
0.00495522
0.00417046
0.00356635
0.00314187
0.00290916
0.00286894
0.00293017
0.00324189
0.00404918
0.00593183
0.0103629
0.0135524
0.0134929
0.00994702
0.00500649
0.00293769
0.00218536
0.00196894
0.00191011
0.00192479
0.00201754
0.00234225
0.00269843
0.00304021
0.00327162
0.00324751
0.00304364
0.00254237
0.00233684
0.00230702
0.00235271
0.00253198
0.00266933
0.00267484
0.00260507
0.00259629
0.00265356
0.00283194
0.00312804
0.00386173
0.00632032
0.00751327
0.00551539
0.0034624
0.00263581
0.00236023
0.00227921
0.00226871
0.00249585
0.00313195
0.00214239
0.00267397
0.00344602
0.00371965
0.00380315
0.00382279
0.00380056
0.00380259
0.0039988
0.00419623
0.00421883
0.00414591
0.00411977
0.00445931
0.00607088
0.00895634
0.00989764
0.00979987
0.00820883
0.00619641
0.0054325
0.00525179
0.00532177
0.00578821
0.00729762
0.0106707
0.0126657
0.0129479
0.0129701
0.012571
0.0121338
0.0115944
0.0102358
0.00818124
0.00585927
0.00507296
0.00445375
0.00424309
0.00418258
0.00421771
0.00446181
0.00498096
0.00570111
0.00647185
0.00715108
0.00735259
0.00708042
0.00665965
0.00629541
0.00603716
0.00587693
0.00575699
0.0056256
0.00549222
0.0054807
0.00561834
0.00641981
0.00828838
0.00943076
0.00958069
0.00929339
0.00790855
0.00582763
0.00515018
0.00450433
0.00381147
0.00322031
0.00293661
0.00291039
0.00305178
0.00358622
0.00447758
0.00631339
0.0108177
0.0137138
0.0136251
0.0096381
0.00441571
0.00264335
0.00210055
0.00194178
0.00189828
0.00191859
0.00205585
0.00251117
0.00280889
0.00306942
0.00329043
0.00329488
0.00318443
0.00275168
0.00244168
0.0023543
0.00236458
0.00246183
0.00266175
0.00277336
0.00277702
0.0027943
0.00285277
0.00297956
0.00317107
0.0037297
0.00595559
0.0077905
0.00602046
0.00369341
0.00278755
0.00248762
0.00241768
0.00242638
0.00273907
0.00350241
0.00197264
0.00232495
0.00293501
0.00355665
0.00371358
0.00373958
0.00368022
0.00366843
0.00391972
0.00434546
0.00444978
0.00425911
0.00405551
0.00405272
0.00472554
0.00702353
0.00962376
0.0101303
0.00968617
0.0078597
0.0064933
0.0060709
0.00605311
0.00673328
0.00921411
0.0120524
0.0129591
0.0130722
0.0128605
0.0122132
0.0111644
0.00902093
0.00591983
0.00405121
0.00324213
0.00273729
0.00251127
0.00243508
0.00242776
0.00255387
0.00279897
0.0032102
0.00382736
0.00462944
0.00544302
0.00615122
0.00654829
0.00646581
0.00622052
0.00596877
0.00578656
0.00566411
0.00555274
0.00547283
0.00548668
0.00573847
0.00683762
0.00876853
0.00963803
0.00963499
0.00923048
0.007283
0.00582369
0.00550862
0.00502879
0.00395984
0.00323833
0.00298411
0.00299855
0.00333776
0.00427386
0.00507486
0.0068251
0.0113883
0.0140089
0.0136632
0.00846361
0.00377337
0.00251626
0.00207731
0.00193488
0.0018952
0.00192095
0.00212236
0.00269455
0.00292685
0.00308531
0.00327766
0.00330973
0.00324081
0.00289352
0.00253283
0.00240411
0.00239337
0.00244301
0.00262819
0.00281797
0.00289845
0.00295331
0.00301579
0.00309005
0.00320865
0.00365262
0.00570879
0.00794052
0.00655225
0.00386489
0.00291351
0.00261285
0.0025568
0.00262257
0.00308119
0.00403209
0.00187725
0.00205325
0.00249567
0.00314469
0.00356677
0.00361573
0.00356044
0.00351572
0.00376973
0.00439316
0.00464335
0.00463091
0.00411248
0.00393742
0.00408118
0.00524234
0.0080892
0.0100525
0.010311
0.00970786
0.00843703
0.00788531
0.00778343
0.00865333
0.0111671
0.0125065
0.0128764
0.0128675
0.0122752
0.0106993
0.00801602
0.00473473
0.00311869
0.00230925
0.0020138
0.00186792
0.00183661
0.00186982
0.00208966
0.00230812
0.00259751
0.0029086
0.0032913
0.0038621
0.00443383
0.00503756
0.00560586
0.00600117
0.00605737
0.00591948
0.00575798
0.0056234
0.0055263
0.00547556
0.00551089
0.00584359
0.00723386
0.00909877
0.00972866
0.00964196
0.00898585
0.00674736
0.00600398
0.00583959
0.00523991
0.00392558
0.00318811
0.00301578
0.00310579
0.00380164
0.00523557
0.00589703
0.00751651
0.0120865
0.0144159
0.0135737
0.00689389
0.00351904
0.0024896
0.00207583
0.00193491
0.00189522
0.00193762
0.00222666
0.00287685
0.00302569
0.0030837
0.00322433
0.00329403
0.00324265
0.00295671
0.00258721
0.00244135
0.00242341
0.0024503
0.00258779
0.00281742
0.00296163
0.00303771
0.00309675
0.00313308
0.00321639
0.00360717
0.0056198
0.00808596
0.00704383
0.0040186
0.00299618
0.00271962
0.00268699
0.00284983
0.00345397
0.00443902
0.00184075
0.0018855
0.00214673
0.00262678
0.00321934
0.00344872
0.00338264
0.00333263
0.00353113
0.00419945
0.00472866
0.00484804
0.00456259
0.00392106
0.00382618
0.00428964
0.00595888
0.00903367
0.0103128
0.0104709
0.0100862
0.00973234
0.00966394
0.0104175
0.0119019
0.0124948
0.0127145
0.0124576
0.0106702
0.00774925
0.00439363
0.00263756
0.00197153
0.00173821
0.00168408
0.00170771
0.00195615
0.00250109
0.00354718
0.00393929
0.00368252
0.00336983
0.00336762
0.00371726
0.00408538
0.00445259
0.00488739
0.00534775
0.00569374
0.00580226
0.00573019
0.00561822
0.0055284
0.00549382
0.00557022
0.00600385
0.00756714
0.00929823
0.00975535
0.0096037
0.0083821
0.00654084
0.0062923
0.00603896
0.00495344
0.00363501
0.00312047
0.00302485
0.0031736
0.00413174
0.00637977
0.00693559
0.0084589
0.0129873
0.0147057
0.0129976
0.00602802
0.00346422
0.00250914
0.00209201
0.00194129
0.00190012
0.00196077
0.00236877
0.00300008
0.00310478
0.00306242
0.00310129
0.00322188
0.00320649
0.00296492
0.00260575
0.00246278
0.00243872
0.00245542
0.00255764
0.00280476
0.00297472
0.00305817
0.00311347
0.00313784
0.00321187
0.00360046
0.00563785
0.00829464
0.00753042
0.0042021
0.00305959
0.0028197
0.00281346
0.00308396
0.00382422
0.00463795
0.00184114
0.00181521
0.00192826
0.00222023
0.00269147
0.00311179
0.00318178
0.00315806
0.00327091
0.00393156
0.00472801
0.00497677
0.00500768
0.00419413
0.00375814
0.00384648
0.00461237
0.00685593
0.00962283
0.0104927
0.0106715
0.0106945
0.0107999
0.0112721
0.0119971
0.0122878
0.0121138
0.0108321
0.00803256
0.00476281
0.00261047
0.00187027
0.00168273
0.00166916
0.0019049
0.00273883
0.00514942
0.00845708
0.00905575
0.00900791
0.00781642
0.00541701
0.00398795
0.00382996
0.00404356
0.00426709
0.0045363
0.00488217
0.00525677
0.00555497
0.00566311
0.00561009
0.0055413
0.00552468
0.0056235
0.00615476
0.00789383
0.0094185
0.00975072
0.00944942
0.00768609
0.00662319
0.00653446
0.00611062
0.00465779
0.00356183
0.00312795
0.00304032
0.00320017
0.004252
0.00735473
0.00806381
0.00968831
0.0140057
0.0148243
0.0119953
0.00571129
0.00352578
0.00262048
0.00213784
0.00195651
0.00191142
0.00199775
0.00254085
0.0031555
0.0031635
0.00299252
0.00298769
0.00308379
0.00310301
0.00293359
0.00259851
0.00246243
0.00243808
0.00245217
0.00253636
0.00277918
0.00296655
0.00305321
0.00310397
0.00312036
0.00319359
0.00363649
0.00592144
0.00855606
0.00797526
0.0044267
0.00310691
0.00290134
0.00292662
0.00329172
0.00406471
0.00463375
0.00186911
0.00180816
0.00182763
0.00196779
0.00226388
0.00267132
0.00286923
0.00286277
0.00295942
0.00347377
0.00444623
0.00501737
0.0051802
0.00481681
0.00378765
0.00367928
0.00397485
0.00514478
0.0077112
0.00994689
0.0106419
0.0108912
0.0111374
0.0115031
0.0118714
0.0118993
0.0110017
0.00872561
0.0057901
0.00299704
0.00192708
0.00167917
0.00166775
0.00201692
0.00324674
0.00640912
0.00886495
0.0091752
0.00926465
0.00934257
0.00909268
0.00773993
0.00547534
0.00431132
0.00412723
0.00425482
0.00443733
0.00467901
0.00497368
0.00527396
0.00549411
0.00556983
0.00554392
0.00555554
0.00570909
0.00630767
0.00828076
0.0095086
0.00969656
0.00893599
0.00724249
0.00690761
0.00681139
0.00630329
0.00505303
0.0040268
0.00334015
0.00308661
0.00320267
0.00425804
0.00765134
0.00894231
0.0112836
0.0147494
0.0148447
0.0111114
0.00566873
0.00388913
0.00287184
0.00221938
0.00198129
0.0019302
0.00205193
0.00273996
0.00332769
0.00323878
0.0028667
0.00283787
0.00292377
0.00294857
0.00282858
0.0025637
0.00245116
0.00242961
0.00244078
0.00251683
0.0027375
0.00292964
0.00301707
0.00305432
0.00306085
0.00314826
0.00372893
0.00635083
0.00870373
0.00830445
0.00470701
0.00314902
0.00294017
0.0030339
0.0034996
0.00415086
0.0044425
0.00198469
0.00182561
0.00180707
0.00185002
0.00199339
0.00226992
0.00255415
0.00260678
0.00268676
0.00305214
0.0038764
0.00492917
0.00523133
0.00516783
0.0040936
0.00363523
0.00371458
0.00423153
0.00589018
0.00844685
0.0101186
0.0107808
0.011119
0.011418
0.0115282
0.010916
0.00918836
0.00685095
0.00406753
0.00222488
0.00170393
0.00163228
0.00179465
0.00253237
0.00415579
0.00609734
0.00638589
0.00629605
0.0068309
0.00816272
0.00845552
0.00829323
0.00689009
0.00522924
0.00453651
0.00435335
0.00444264
0.00463293
0.00487191
0.00512361
0.00534173
0.00547847
0.00554512
0.00558986
0.00580234
0.00659042
0.00869663
0.00954568
0.00947913
0.00816336
0.00718441
0.00723525
0.00721868
0.00695342
0.00642233
0.00522194
0.00383172
0.00319288
0.00319457
0.0040454
0.00754147
0.00976511
0.012938
0.0150507
0.0146202
0.0107455
0.00596196
0.00472855
0.00322339
0.0023085
0.00201182
0.00196019
0.00213296
0.00296892
0.00349144
0.00326815
0.00273645
0.00269166
0.0027567
0.00277023
0.00266089
0.00248207
0.00241778
0.00240446
0.00241509
0.00248434
0.00269
0.00285345
0.00293855
0.00295518
0.00298045
0.00310546
0.00387214
0.00674426
0.00883801
0.00851653
0.0050546
0.00319495
0.00295274
0.00311708
0.00368237
0.00408334
0.00423307
0.00233666
0.00190662
0.00181685
0.0018217
0.00187161
0.00200857
0.00222782
0.00240405
0.00247873
0.00272421
0.00336101
0.00455703
0.00522768
0.00530065
0.0045814
0.00370027
0.00361961
0.00381096
0.00466607
0.00686937
0.00880667
0.0101665
0.0108357
0.0110492
0.010727
0.00966663
0.00795575
0.00579498
0.0031351
0.00189177
0.0016237
0.0016177
0.00187851
0.0026331
0.00361696
0.00379021
0.00362778
0.0036892
0.00477024
0.00706132
0.00789865
0.00793403
0.00722885
0.00569117
0.00490502
0.00460364
0.00454167
0.0046448
0.00485359
0.00508242
0.00529497
0.00545426
0.00555357
0.00565412
0.00598817
0.00726731
0.0089949
0.00949256
0.0088511
0.00776464
0.00736989
0.0076677
0.0077486
0.00769634
0.00748393
0.00676418
0.00463678
0.00341027
0.00322209
0.00380059
0.00704491
0.0106286
0.0137452
0.0151034
0.0142431
0.0106094
0.00698829
0.00589052
0.0034056
0.00234635
0.00204113
0.00200345
0.00225262
0.00322522
0.00355685
0.00314447
0.0025856
0.00256061
0.00260874
0.00259018
0.00249781
0.00240214
0.00237199
0.00236796
0.00238355
0.00245323
0.00264161
0.00277179
0.00283373
0.00283146
0.00286852
0.00306589
0.00413919
0.00732558
0.00896006
0.00860614
0.00546052
0.0032572
0.00295667
0.00316381
0.00376461
0.00401271
0.00408385
0.00315781
0.00215716
0.0018726
0.00182739
0.00184434
0.00189493
0.00200682
0.00215798
0.00223443
0.00241876
0.00293382
0.00411087
0.00513611
0.00535468
0.00501775
0.00392508
0.00359286
0.00364358
0.0040362
0.00547092
0.00754403
0.00892067
0.00994688
0.0102242
0.00978805
0.00865293
0.00700259
0.00479086
0.00254183
0.00172406
0.00157295
0.00159101
0.00187083
0.00238189
0.00251513
0.00246196
0.00243885
0.00277665
0.00397876
0.00653723
0.00791744
0.00799635
0.00730414
0.00586075
0.00506295
0.00478202
0.00468765
0.00471009
0.00487147
0.00508911
0.00529807
0.00546492
0.00559932
0.00580324
0.00646475
0.00812411
0.00909703
0.00912802
0.00829629
0.0077364
0.00784185
0.00814096
0.00823433
0.00824618
0.00811628
0.00757285
0.00546373
0.0037024
0.00326845
0.00359609
0.00596564
0.0112105
0.0140476
0.0149295
0.0140309
0.0109102
0.00864637
0.00640624
0.00344538
0.00235359
0.00206551
0.00205982
0.0024291
0.00348187
0.00357565
0.00294158
0.00242633
0.00242239
0.00246108
0.00241949
0.00237369
0.00234006
0.00233167
0.00233448
0.00235382
0.00242723
0.0025906
0.00269175
0.00272132
0.00271302
0.00276929
0.00311669
0.00480848
0.00806408
0.00899381
0.00863455
0.00589389
0.00333964
0.00296022
0.0032127
0.00379956
0.00396087
0.00397103
0.00408209
0.00279772
0.00205215
0.00186737
0.00184774
0.00186648
0.00191254
0.00200237
0.0020804
0.00225111
0.00270928
0.00388268
0.0050389
0.00543074
0.00529693
0.00429306
0.00364419
0.00359094
0.00374533
0.00448521
0.00639004
0.00786105
0.00890613
0.0093427
0.00904132
0.00790768
0.00636462
0.00420866
0.00230188
0.00168577
0.00157232
0.00156994
0.00177114
0.00186781
0.00186068
0.00183467
0.00189919
0.00233096
0.00347498
0.00602985
0.00825517
0.00851214
0.00789218
0.00630711
0.00537461
0.00502515
0.00490338
0.00487721
0.00495915
0.00514678
0.00535328
0.00554814
0.00577362
0.00627534
0.00749725
0.00857933
0.00902344
0.00859825
0.00813788
0.00795185
0.00831247
0.00852919
0.00860496
0.00861862
0.0085257
0.00807814
0.00631131
0.00407664
0.00338408
0.00350968
0.00519758
0.0108248
0.0140246
0.0146762
0.0139246
0.0118988
0.0102894
0.00654715
0.0034034
0.00234408
0.00209335
0.00213174
0.00269268
0.00361968
0.00352161
0.00266856
0.00232076
0.00233108
0.002311
0.00229284
0.00229738
0.00229863
0.00230006
0.00230647
0.00232672
0.00240559
0.00254252
0.00260482
0.00259703
0.00260904
0.00272382
0.00339352
0.00594028
0.00840267
0.00895455
0.00862865
0.00629939
0.00344391
0.00296721
0.00326032
0.00383556
0.00394865
0.0038761
0.00479867
0.0036417
0.00251126
0.00201298
0.00187974
0.00186851
0.00189049
0.0019419
0.00202241
0.0021981
0.00265315
0.00383125
0.00502694
0.00548887
0.00545043
0.00468587
0.00378222
0.00357688
0.00362428
0.00398372
0.00534282
0.00689519
0.00797732
0.00856321
0.00845403
0.00746791
0.00607252
0.00407376
0.00226303
0.00169241
0.00158031
0.00156419
0.00162064
0.00162908
0.00158988
0.00157601
0.00166249
0.00205805
0.00306626
0.0053275
0.00835459
0.00899029
0.00884464
0.00762758
0.00622312
0.00564474
0.00538509
0.00527451
0.00526143
0.00537805
0.00558226
0.00588191
0.00638805
0.00732321
0.00823593
0.00870845
0.00874166
0.00844342
0.00821705
0.00843313
0.0086973
0.00877603
0.00880437
0.00880283
0.00874757
0.00845703
0.00735685
0.00465339
0.00356848
0.00350541
0.00456331
0.00961744
0.0136396
0.0143279
0.0138338
0.0126731
0.010944
0.00644019
0.00324167
0.00231562
0.00212291
0.00224125
0.00303065
0.00367768
0.00328025
0.00241994
0.00223971
0.00224209
0.00221904
0.00222547
0.00226994
0.00227333
0.00227503
0.00228101
0.0023074
0.0024012
0.00249103
0.00250054
0.00249368
0.0025334
0.00280497
0.00407785
0.00711655
0.00854412
0.0088064
0.00849066
0.00661561
0.0035842
0.00298763
0.00330274
0.00388671
0.0039613
0.0038154
0.00523344
0.00430205
0.0030536
0.00233805
0.0020055
0.00188977
0.00189705
0.00193878
0.00202363
0.00222125
0.00278997
0.00417169
0.00525268
0.00560701
0.00558085
0.00496868
0.00395184
0.0035919
0.00358277
0.00374235
0.00451316
0.00611655
0.00719112
0.00787779
0.00796023
0.00728653
0.00604896
0.00411778
0.00228896
0.00171586
0.00160874
0.00159152
0.00161115
0.00160089
0.00154369
0.00152688
0.00159369
0.00191709
0.0027527
0.0045614
0.00777476
0.00919092
0.00937168
0.00911623
0.00822221
0.00727884
0.00670077
0.00632661
0.00616192
0.00614553
0.00633995
0.0068576
0.00750747
0.00811408
0.00852897
0.00873693
0.00866835
0.0084963
0.00859007
0.00881707
0.00888595
0.00888417
0.00887317
0.00885831
0.00882601
0.00869043
0.00805695
0.00553548
0.00386919
0.00353829
0.00409509
0.00771754
0.0128591
0.013903
0.0137222
0.0129572
0.0110904
0.00593936
0.00305309
0.00229914
0.00216834
0.00241829
0.00338337
0.00369705
0.00293282
0.00229787
0.00220482
0.00219868
0.00218211
0.00220531
0.00225497
0.00224701
0.00224672
0.00225974
0.00230553
0.00238653
0.00240895
0.00240322
0.0024192
0.0025475
0.00320523
0.00548666
0.00782008
0.00856968
0.00856837
0.00828311
0.00687166
0.00377222
0.00302362
0.00332176
0.00392527
0.00397145
0.00377331
0.00541238
0.00461785
0.00340218
0.00258183
0.00217897
0.00194164
0.00193115
0.00196927
0.00208317
0.00241356
0.00343942
0.00485376
0.00556986
0.00573549
0.00568389
0.00513501
0.00407467
0.00362471
0.00356044
0.00363457
0.0040498
0.00532826
0.00650564
0.00725799
0.00750069
0.0071728
0.00610436
0.00429141
0.00239277
0.00177392
0.00168088
0.00166314
0.00164763
0.00163365
0.00157151
0.00155091
0.00160232
0.00187111
0.00255029
0.00392387
0.00636298
0.00847034
0.00910998
0.00921334
0.00913102
0.00882664
0.00850268
0.00815172
0.00786539
0.00774114
0.00779103
0.00808986
0.00842299
0.00866846
0.00879362
0.00880676
0.00875445
0.00879924
0.00891966
0.00894633
0.00892422
0.00887993
0.0088516
0.00884045
0.00883433
0.00877279
0.0084136
0.00660432
0.00430054
0.00367353
0.00388067
0.00609366
0.0116189
0.0134263
0.0135642
0.0130021
0.0110685
0.00546182
0.00288854
0.00229358
0.00223799
0.00269387
0.00365099
0.00364779
0.00268105
0.00225622
0.00219794
0.00218705
0.00217822
0.00220367
0.0022338
0.0022236
0.00223351
0.00225521
0.00230257
0.00232944
0.00232751
0.00234036
0.00242126
0.00281574
0.00435273
0.00693724
0.00805047
0.00832292
0.0081813
0.00798096
0.00706505
0.00405904
0.00308245
0.00327863
0.00392934
0.00397035
0.00374314
0.00542935
0.00464175
0.0034888
0.00268077
0.0022762
0.00203514
0.00203454
0.0021101
0.00236801
0.00315674
0.00462665
0.0055247
0.00580291
0.00581904
0.00572892
0.00515963
0.00410857
0.00365509
0.00355499
0.00358665
0.00380927
0.00469807
0.00588466
0.00670223
0.00707678
0.00699021
0.00625726
0.00475174
0.00267056
0.00185978
0.0017301
0.00174266
0.00176425
0.00175806
0.0016997
0.00165677
0.00166079
0.00179399
0.0021141
0.00266198
0.00342951
0.00433757
0.00513592
0.00583954
0.0071719
0.0082512
0.00863328
0.00873062
0.00873075
0.00871865
0.00873984
0.00883631
0.00893715
0.00898681
0.00898953
0.00896408
0.008945
0.00895451
0.00894907
0.00890498
0.00880918
0.00871072
0.00866057
0.00866763
0.00875144
0.00876668
0.00857536
0.00754361
0.00484787
0.00386283
0.00383675
0.00508096
0.00982566
0.0129455
0.0133609
0.0129378
0.0107064
0.00490459
0.00273576
0.00231038
0.00233837
0.0030599
0.0037777
0.00354728
0.00255091
0.00225147
0.00220565
0.00219356
0.00218555
0.00220878
0.00222708
0.00221953
0.00222882
0.00224623
0.00226399
0.00226625
0.00228608
0.00235355
0.00263795
0.00379161
0.00627635
0.00746987
0.00793216
0.00782677
0.00767251
0.00762322
0.00715735
0.00456564
0.00314293
0.00315423
0.00387816
0.00396072
0.00372131
0.00539856
0.00458402
0.00347796
0.00275297
0.00240308
0.0022377
0.00231618
0.00258743
0.00334256
0.00468297
0.00559037
0.00589269
0.00590089
0.00584331
0.00567469
0.00509045
0.00410085
0.00366947
0.00355542
0.00356793
0.00369349
0.00424318
0.00542427
0.00622677
0.00669968
0.00677979
0.00637069
0.00531875
0.00326057
0.00204716
0.00179788
0.00179998
0.00199372
0.00210947
0.00208296
0.00197787
0.00182379
0.00176041
0.00175846
0.00182007
0.00190404
0.00194562
0.0019806
0.00211015
0.00246957
0.00339062
0.00503933
0.00714608
0.00825165
0.00864102
0.00881059
0.00892905
0.00899584
0.00900676
0.00898289
0.00894168
0.00889478
0.00882654
0.00868133
0.00842229
0.00813452
0.00800764
0.00804681
0.00822448
0.00851586
0.00870336
0.00861049
0.00795498
0.00551698
0.00409666
0.0038493
0.00453202
0.00799107
0.0120597
0.0130301
0.012778
0.00999577
0.00430893
0.00260514
0.00234199
0.00248189
0.00342378
0.00387204
0.00342062
0.00250133
0.00225652
0.00222121
0.0022125
0.00220814
0.00222298
0.00222922
0.00221278
0.00220732
0.00221357
0.00222691
0.00225313
0.00231812
0.00257347
0.00361893
0.00596365
0.00706697
0.00747593
0.00735025
0.00707484
0.00710554
0.00725096
0.00706453
0.00535315
0.00328376
0.00299823
0.00366776
0.00391696
0.00371909
0.00533983
0.00449259
0.00349341
0.00293301
0.00270404
0.00274549
0.00311835
0.00393669
0.00501709
0.00577218
0.00603012
0.00602854
0.00589187
0.00567467
0.00544839
0.00484933
0.00404633
0.00366432
0.00355929
0.00356731
0.00364007
0.00396899
0.00494124
0.00583405
0.00635438
0.00654945
0.00640114
0.00576192
0.00414068
0.00247673
0.00194391
0.00189547
0.0020865
0.00257767
0.00277623
0.00271245
0.00236005
0.00191636
0.00166735
0.00153174
0.00143959
0.00140205
0.00139252
0.00141099
0.00151062
0.00175789
0.00226298
0.00322783
0.00485463
0.00655472
0.00771357
0.00829333
0.00852606
0.00858472
0.00853228
0.00838199
0.00809294
0.00765604
0.00729439
0.00715685
0.00724932
0.00751055
0.00782524
0.00813917
0.00844141
0.00864889
0.00859424
0.00807928
0.00609508
0.00436498
0.00392888
0.00427962
0.00661547
0.010955
0.0126066
0.0125277
0.00890659
0.00381162
0.0025299
0.0023818
0.00267755
0.00372708
0.0039404
0.00330558
0.00247351
0.00227023
0.00223892
0.00223295
0.00223058
0.00223001
0.00221581
0.00219582
0.00219528
0.00220746
0.00223375
0.00230891
0.00259137
0.00367695
0.00590785
0.00690995
0.00703605
0.00679506
0.00625602
0.00626846
0.00653444
0.00688868
0.00689793
0.00597116
0.00367938
0.00300329
0.00326158
0.00377723
0.00371666
0.00532984
0.00449503
0.00374919
0.00350035
0.00348119
0.00397524
0.00472134
0.00549883
0.00601749
0.00617115
0.00614994
0.00603789
0.00562821
0.00530091
0.00507002
0.00452417
0.00391498
0.00364073
0.00357074
0.00357381
0.00362374
0.00383122
0.00454899
0.00545594
0.00603621
0.0063265
0.0063571
0.00601385
0.00502907
0.00331298
0.00231633
0.00210707
0.00220642
0.00264068
0.00327114
0.00350489
0.00338414
0.00267564
0.00191525
0.00156719
0.00139897
0.00133047
0.00131862
0.00134962
0.00146795
0.00166286
0.00197717
0.00243423
0.00311166
0.00395247
0.00482825
0.00570559
0.00623885
0.00647112
0.00647863
0.00636825
0.006291
0.006391
0.00662119
0.00693942
0.00734152
0.00774099
0.00806242
0.00831697
0.00852038
0.0086361
0.00856588
0.00808367
0.00648209
0.00462842
0.00408699
0.0041993
0.00563028
0.00951669
0.0121758
0.0121909
0.00774678
0.00341885
0.00249624
0.00243191
0.0029025
0.0039134
0.00402112
0.00327215
0.00248228
0.00229246
0.00226214
0.00225681
0.00225238
0.00223652
0.00221416
0.00219986
0.00220501
0.00223488
0.00233548
0.00268623
0.00393139
0.00606382
0.00685083
0.0067443
0.00606523
0.00528882
0.00526835
0.00547991
0.00600251
0.00651248
0.00667026
0.00631777
0.00454859
0.00310033
0.00295076
0.00348905
0.00365935
0.00541977
0.0048117
0.00460429
0.00461489
0.00482212