/*--------------------------------*- C++ -*----------------------------------*\
  =========                 |
  \\      /  F ield         | OpenFOAM: The Open Source CFD Toolbox
   \\    /   O peration     | Website:  https://openfoam.org
    \\  /    A nd           | Version:  10
     \\/     M anipulation  |
\*---------------------------------------------------------------------------*/
FoamFile
{
    format      ascii;
    class       surfaceScalarField;
    location    "0.298862";
    object      phi;
}
// * * * * * * * * * * * * * * * * * * * * * * * * * * * * * * * * * * * * * //

dimensions      [1 0 -1 0 0 0 0];

internalField   nonuniform List<scalar> 
32368
(
-2.77324e-05
6.55907e-05
-2.09441e-05
8.09537e-05
-2.54364e-06
0.000110449
2.28503e-05
0.000138205
4.89336e-05
0.00015481
7.42972e-05
0.000161632
9.8811e-05
0.000161568
0.000122773
0.000159247
0.00014853
0.000157374
0.000177208
0.000155866
0.000209606
0.000154322
0.000243995
0.000152799
0.000278782
0.00015009
0.000313247
0.000145898
0.000346566
0.000139018
0.000378265
0.000129055
0.000407029
0.000115913
0.000430104
9.903e-05
0.000443884
7.78907e-05
0.000443161
5.23161e-05
0.000424858
2.42917e-05
0.000396214
-7.04943e-06
0.00036127
-3.96348e-05
0.000325183
-7.2066e-05
0.000290437
-9.35107e-05
0.000254424
-0.000106187
0.000230629
-0.000107798
0.000206377
-9.47973e-05
0.000179252
-7.65179e-05
0.000154014
-5.76421e-05
0.000131031
-3.97228e-05
0.000109352
-2.20495e-05
-4.96424e-06
8.40311e-05
-1.30893e-05
8.58574e-05
-4.39172e-06
0.000122594
9.904e-06
0.000131161
3.28026e-05
0.000147736
5.8007e-05
0.000161289
8.38907e-05
0.000167457
0.000109293
0.000167876
0.000135407
0.000165665
0.000161967
0.000162386
0.000189495
0.000158826
0.000218859
0.000154461
0.000250647
0.000149951
0.00028451
0.000144539
0.00031877
0.000137847
0.000351872
0.000128965
0.000382171
0.000117772
0.000408206
0.000103605
0.00042759
8.65124e-05
0.000437385
6.63368e-05
0.000437867
4.26727e-05
0.000430612
1.64063e-05
0.000413777
-1.22476e-05
0.000392716
-4.50469e-05
0.000368339
-7.66802e-05
0.000345527
-0.000100009
0.000331824
-0.000110766
0.000304006
-0.000110801
0.000263137
-9.2853e-05
0.000219381
-6.81958e-05
0.000180737
-4.33379e-05
0.000148504
-2.00796e-05
0.000120456
2.01833e-06
2.1665e-05
8.89353e-05
-2.24985e-05
7.87549e-05
2.9499e-06
0.000140747
2.47564e-05
0.000167146
4.31692e-05
0.000168849
6.57197e-05
0.000172935
9.08053e-05
0.000174833
0.000117351
0.000173855
0.000144834
0.000170535
0.000173452
0.000165961
0.000202924
0.000161299
0.000233124
0.000155941
0.000263794
0.000149817
0.000294933
0.000142357
0.000325878
0.000133807
0.000355716
0.000123327
0.000383155
0.000110984
0.000406823
9.6508e-05
0.000425971
7.95971e-05
0.000436158
5.97629e-05
0.000442313
3.77116e-05
0.000439384
1.271e-05
0.000432016
-1.65336e-05
0.000420255
-4.9842e-05
0.000411312
-8.11698e-05
0.000410544
-9.81319e-05
0.000400115
-0.000109264
0.000363858
-0.00010379
0.000309927
-8.19516e-05
0.000253448
-5.43449e-05
0.000203538
-2.60557e-05
0.000162591
1.22172e-06
0.000126358
2.69308e-05
4.57368e-05
9.21086e-05
-5.95679e-05
6.03688e-05
-1.84716e-05
0.000134361
1.76449e-05
0.000178427
4.53597e-05
0.000188532
6.81247e-05
0.000187691
9.24616e-05
0.000183592
0.00011971
0.000178245
0.000148934
0.000173107
0.000179467
0.000167235
0.000211068
0.000161376
0.000242826
0.000154954
0.000274231
0.000147617
0.000305261
0.000139114
0.000335596
0.000129858
0.00036396
0.00011907
0.000389979
0.000106458
0.000412392
9.22468e-05
0.000429298
7.56117e-05
0.000438358
5.65398e-05
0.000444768
3.4564e-05
0.000449371
9.5804e-06
0.00044847
-2.06416e-05
0.000450431
-5.30284e-05
0.000461885
-7.77182e-05
0.000464795
-9.63784e-05
0.000448768
-0.000101982
0.000404343
-8.95892e-05
0.000343733
-6.6878e-05
0.000280607
-3.86324e-05
0.00022357
-8.19175e-06
0.000176221
2.22304e-05
0.000134822
4.93622e-05
6.69776e-05
9.90237e-05
-0.000122103
4.11899e-05
-7.35437e-05
0.000113411
-2.33413e-05
0.000163044
1.68044e-05
0.000181355
5.13309e-05
0.000182132
8.16337e-05
0.000181276
0.000113035
0.000175059
0.000145657
0.000168657
0.000179279
0.000162198
0.000213488
0.000156182
0.000247211
0.000149975
0.000279635
0.000142793
0.000310691
0.000134383
0.000340273
0.000125062
0.000367152
0.000114566
0.000391216
0.00010251
0.000411936
8.9188e-05
0.000426019
7.30924e-05
0.000438363
5.52999e-05
0.000450686
3.45484e-05
0.000463339
7.63171e-06
0.000471931
-2.43309e-05
0.000488081
-5.51306e-05
0.000497997
-7.6889e-05
0.000496945
-9.32916e-05
0.000477091
-9.37677e-05
0.00043009
-7.60032e-05
0.000367518
-5.17025e-05
0.000302096
-2.26901e-05
0.000239794
1.01274e-05
0.000187708
4.18709e-05
0.000140925
6.87308e-05
8.41904e-05
0.000105201
-0.000202442
1.79955e-05
-0.000150086
7.06961e-05
-9.0757e-05
0.000115146
-3.3767e-05
0.000142457
1.40987e-05
0.000155402
5.64652e-05
0.000160365
9.58027e-05
0.000159143
0.0001345
0.000154416
0.000172671
0.000149269
0.000210218
0.000144037
0.000246385
0.000138642
0.000280505
0.000132551
0.000312116
0.000125277
0.000340885
0.000116916
0.000366689
0.000107522
0.000389943
9.7045e-05
0.000410191
8.49117e-05
0.000426654
7.05368e-05
0.000443535
5.31161e-05
0.00046363
3.21265e-05
0.00047765
2.47212e-06
0.000492313
-3.02625e-05
0.00050998
-5.83058e-05
0.00051858
-7.71088e-05
0.000514977
-8.9676e-05
0.00049018
-8.27121e-05
0.000441805
-6.24412e-05
0.000380449
-3.74125e-05
0.000314541
-7.17241e-06
0.000249632
2.74602e-05
0.000194202
5.9659e-05
0.000143657
8.45524e-05
9.66776e-05
0.0001094
-0.000244044
-4.6272e-06
-0.000200385
2.69678e-05
-0.000141636
6.1823e-05
-8.04206e-05
9.16524e-05
-2.19252e-05
0.00011194
3.18081e-05
0.000123763
8.11875e-05
0.000128627
0.000127122
0.000129088
0.000170313
0.00012785
0.000211128
0.000125351
0.000249639
0.000122058
0.000285309
0.000118083
0.00031732
0.00011338
0.000345698
0.000107357
0.000371115
0.000100398
0.000395258
9.17722e-05
0.000416212
8.11737e-05
0.000437482
6.78127e-05
0.000459323
4.98406e-05
0.0004806
2.41234e-05
0.000496292
-7.88419e-06
0.000514023
-3.96975e-05
0.000527019
-6.21537e-05
0.000533933
-8.16185e-05
0.000522944
-8.51909e-05
0.000489152
-6.93175e-05
0.000441472
-5.0199e-05
0.000383352
-2.45492e-05
0.000317588
8.03234e-06
0.000252013
4.3411e-05
0.000194331
7.5539e-05
0.000142022
9.50178e-05
0.000104115
0.000111011
-0.000239181
-2.85412e-05
-0.000199839
-9.34589e-06
-0.000144337
1.57058e-05
-8.40523e-05
4.25845e-05
-2.37647e-05
6.46963e-05
3.38554e-05
8.08915e-05
8.78205e-05
9.11745e-05
0.000137943
9.80286e-05
0.00018423
0.00010197
0.000227158
0.000103666
0.000266944
0.000104258
0.000303837
0.000103653
0.000337642
0.000102025
0.00036893
9.88797e-05
0.000397188
9.44424e-05
0.000424624
8.63633e-05
0.000446779
7.59699e-05
0.000468821
6.05006e-05
0.000491446
3.8878e-05
0.000508714
8.09993e-06
0.000522203
-2.43348e-05
0.000532469
-4.98469e-05
0.000539466
-6.92115e-05
0.000534216
-8.10794e-05
0.000509021
-7.48727e-05
0.000475008
-6.04162e-05
0.000429895
-3.94411e-05
0.000374463
-1.19415e-05
0.000310446
2.26678e-05
0.000246391
5.80903e-05
0.000187296
8.74717e-05
0.000137255
9.90484e-05
0.000105701
0.000110492
-0.000157198
-6.42067e-05
-0.000119186
-4.70781e-05
-7.30485e-05
-2.36736e-05
-2.91951e-05
4.46168e-06
1.90987e-05
2.25775e-05
6.7505e-05
3.92449e-05
0.000114597
5.22266e-05
0.000159892
6.24024e-05
0.000203227
7.00237e-05
0.000243723
7.57992e-05
0.000280923
8.00858e-05
0.000314773
8.25624e-05
0.000345894
8.36724e-05
0.000374879
8.32261e-05
0.000400766
8.05219e-05
0.000423207
7.29364e-05
0.000446134
6.22879e-05
0.000467352
4.44805e-05
0.000490181
1.76905e-05
0.000506413
-1.33929e-05
0.000519158
-3.89066e-05
0.000526007
-5.72182e-05
0.000527552
-7.22124e-05
0.000514343
-7.36503e-05
0.000487438
-6.3911e-05
0.000452122
-4.88032e-05
0.000409475
-2.71687e-05
0.000356292
2.38563e-06
0.0002954
3.75854e-05
0.000233697
7.04932e-05
0.000173785
9.10642e-05
0.000130478
9.60836e-05
9.95837e-05
0.000108592
-6.17739e-05
-9.82591e-05
-3.51176e-05
-7.99525e-05
-6.68123e-06
-5.69181e-05
2.87287e-05
-3.18745e-05
6.49611e-05
-1.16016e-05
0.000100574
7.90515e-06
0.000137151
1.95909e-05
0.000173706
3.11283e-05
0.000209486
4.07197e-05
0.000243651
4.84328e-05
0.000275113
5.44709e-05
0.000303564
5.87664e-05
0.00032944
6.12463e-05
0.000352348
6.147e-05
0.000372406
5.79952e-05
0.000390306
5.09983e-05
0.000411332
3.90785e-05
0.000433586
1.9981e-05
0.000452363
-4.40281e-06
0.000471762
-2.75411e-05
0.000487784
-4.26076e-05
0.000499528
-5.73462e-05
0.000497668
-6.31897e-05
0.000483582
-5.92393e-05
0.000458996
-4.97979e-05
0.000425504
-3.38969e-05
0.000383473
-1.06288e-05
0.00033203
1.97264e-05
0.000274508
5.19134e-05
0.00021337
7.78659e-05
0.000157759
8.48878e-05
0.000123275
8.65775e-05
8.53511e-05
0.000106452
4.04807e-06
-0.000133219
2.1685e-05
-0.000119113
4.24802e-05
-9.89974e-05
6.82243e-05
-7.53382e-05
9.64926e-05
-5.21219e-05
0.000127452
-3.04452e-05
0.000158177
-1.14289e-05
0.000188767
5.9488e-06
0.000218226
1.84371e-05
0.000246148
2.85154e-05
0.000272082
3.65543e-05
0.000295337
4.23883e-05
0.000315714
4.56347e-05
0.000332268
4.58876e-05
0.000342626
4.23269e-05
0.000350726
3.51845e-05
0.000357638
2.11987e-05
0.000364752
1.66278e-06
0.000379877
-1.74385e-05
0.000403211
-2.83179e-05
0.000428643
-3.757e-05
0.000447879
-4.46605e-05
0.000454534
-4.48457e-05
0.000448217
-4.13709e-05
0.000427671
-3.13686e-05
0.000395712
-1.42108e-05
0.000354844
9.69385e-06
0.000305152
3.76321e-05
0.000248381
6.31972e-05
0.000189058
7.28855e-05
0.000142949
7.22144e-05
0.000115948
6.47154e-05
5.4137e-05
0.000103536
4.69273e-05
-0.000167645
6.484e-05
-0.000160101
8.28602e-05
-0.000146403
0.000102521
-0.000126784
0.000124569
-0.000103539
0.000148574
-7.88112e-05
0.000173761
-5.4643e-05
0.000199252
-3.20525e-05
0.000224475
-1.18444e-05
0.000248731
5.17838e-06
0.00027096
1.83103e-05
0.000290691
2.67094e-05
0.000307474
3.16121e-05
0.000320321
3.22188e-05
0.000325694
3.00274e-05
0.000328847
2.11709e-05
0.000330755
4.78664e-06
0.000332612
-1.21992e-05
0.000335845
-2.2774e-05
0.000343116
-2.79056e-05
0.000365562
-2.67495e-05
0.000390446
-2.61609e-05
0.000408919
-2.50169e-05
0.000412289
-2.04531e-05
0.000394938
-8.58115e-06
0.000364641
8.97527e-06
0.000324869
3.15361e-05
0.000275397
5.23849e-05
0.000218045
6.24563e-05
0.000164842
5.90227e-05
0.000127503
4.40011e-05
0.000105495
2.11507e-05
-2.75996e-06
9.62378e-05
7.35877e-05
-0.00019828
9.22579e-05
-0.000197054
0.000108962
-0.00018928
0.000125018
-0.000174714
0.000141283
-0.000154977
0.000158891
-0.000132044
0.000177956
-0.000107195
0.00019756
-8.11801e-05
0.000217741
-5.60762e-05
0.00023731
-3.31457e-05
0.000256007
-1.34394e-05
0.000273004
1.90696e-06
0.00028615
1.26025e-05
0.000293619
1.75312e-05
0.000298843
1.42171e-05
0.00030212
4.84293e-06
0.000302253
-9.4113e-06
0.000301639
-1.8891e-05
0.000304816
-2.29131e-05
0.000304081
-2.18754e-05
0.000310721
-1.61412e-05
0.000338773
-9.20231e-06
0.000366754
-5.32675e-06
0.000377042
2.20208e-06
0.000361009
1.66072e-05
0.000333567
3.23797e-05
0.000293313
4.85777e-05
0.000240303
5.70964e-05
0.000184278
5.01298e-05
0.000137036
2.83185e-05
0.000105536
-6.69496e-06
8.86749e-05
-4.51541e-05
-7.61394e-05
8.49694e-05
8.6554e-05
-0.000223742
0.000103885
-0.000224662
0.000118576
-0.000218951
0.000131732
-0.000207229
0.000144821
-0.000190815
0.000157865
-0.000171324
0.000172298
-0.000149474
0.00018782
-0.000126624
0.000203674
-0.000102039
0.000219094
-7.76835e-05
0.00023393
-5.46561e-05
0.000247852
-3.46281e-05
0.000258686
-1.88483e-05
0.000265371
-9.16483e-06
0.000266433
-7.55612e-06
0.000264589
-1.25658e-05
0.000265254
-1.93809e-05
0.000267438
-2.16612e-05
0.000268528
-1.95569e-05
0.000267903
-1.26737e-05
0.000272252
-3.9895e-06
0.000298336
5.16954e-06
0.000330061
1.4133e-05
0.000341441
2.68367e-05
0.000327479
3.95378e-05
0.00030054
5.13902e-05
0.000255987
5.59327e-05
0.000199377
4.6619e-05
0.000144
2.06702e-05
0.000102224
-2.00394e-05
8.00165e-05
-6.8423e-05
7.26884e-05
-0.000112654
-0.000138692
7.31624e-05
9.01531e-05
-0.000244418
0.000105206
-0.000244951
0.000118063
-0.000238983
0.000129761
-0.000226997
0.000141135
-0.00021093
0.000152751
-0.000192299
0.000164034
-0.000172652
0.000174466
-0.000152199
0.000186087
-0.000131216
0.000197589
-0.000110112
0.00020871
-8.93759e-05
0.000218591
-6.98234e-05
0.000225656
-5.27758e-05
0.000227924
-4.02552e-05
0.000224552
-3.37215e-05
0.000221858
-3.10907e-05
0.000224372
-2.89444e-05
0.000230734
-2.3318e-05
0.000232971
-1.46288e-05
0.000235093
-3.64716e-06
0.000240966
8.16733e-06
0.000265364
2.02408e-05
0.000298056
3.36392e-05
0.000308934
4.80801e-05
0.00029349
5.67659e-05
0.000264507
6.13458e-05
0.000209339
4.73532e-05
0.00014841
1.66611e-05
9.72634e-05
-2.08693e-05
7.11651e-05
-7.18937e-05
6.4603e-05
-0.000130514
6.63486e-05
-0.000172509
-0.000184253
6.8652e-05
8.82829e-05
-0.000263566
0.000101856
-0.00026318
0.000114004
-0.000255352
0.000125335
-0.000240998
0.000136089
-0.000222803
0.000146392
-0.000202781
0.00015596
-0.000182446
0.000163997
-0.000162312
0.000170368
-0.000142054
0.00017779
-0.000123658
0.000185389
-0.000106722
0.000191696
-9.0658e-05
0.000194705
-7.65636e-05
0.000193062
-6.51173e-05
0.000187143
-5.6945e-05
0.000183874
-4.76629e-05
0.000188935
-3.78961e-05
0.000195967
-2.40729e-05
0.000201327
-1.01729e-05
0.000205643
4.6306e-06
0.00021291
2.02048e-05
0.000236184
3.4127e-05
0.000268631
5.06993e-05
0.000273104
6.38412e-05
0.000255772
6.69491e-05
0.000218008
5.26284e-05
0.000150195
1.60626e-05
9.15922e-05
-2.08781e-05
6.03676e-05
-6.22399e-05
5.60786e-05
-0.000127076
6.28277e-05
-0.000189474
6.70123e-05
-0.000219725
-0.000217188
6.90843e-05
8.29266e-05
-0.000284344
9.61673e-05
-0.000282015
0.000108766
-0.00027089
0.000120755
-0.000252857
0.000132065
-0.000231459
0.000141586
-0.000208732
0.000149782
-0.000185781
0.000155266
-0.000163364
0.000158728
-0.000142732
0.000163174
-0.000125593
0.000167284
-0.000110585
0.000170224
-9.72002e-05
0.000170058
-8.60165e-05
0.000165825
-7.75277e-05
0.000158455
-6.98477e-05
0.000155185
-5.79031e-05
0.000160004
-4.25588e-05
0.000165814
-2.35134e-05
0.000173797
-5.06726e-06
0.000180496
1.2408e-05
0.000188485
3.12612e-05
0.00021157
4.67726e-05
0.000237957
6.4873e-05
0.000237067
6.96177e-05
0.000213269
5.8146e-05
0.000150624
1.97372e-05
8.41406e-05
-2.08443e-05
4.66106e-05
-5.2846e-05
4.29098e-05
-0.000105599
5.62167e-05
-0.000183698
6.6885e-05
-0.000239844
6.92989e-05
-0.000253538
-0.000238013
6.96499e-05
7.47844e-05
-0.000307491
8.92647e-05
-0.00030158
0.000103605
-0.000285557
0.000116783
-0.000262216
0.000127922
-0.000235715
0.000136775
-0.000208318
0.000142647
-0.000181753
0.000146177
-0.000157937
0.00014863
-0.000137909
0.000151072
-0.000121724
0.000152584
-0.000107558
0.000152847
-9.55078e-05
0.000150608
-8.63249e-05
0.000144812
-7.97105e-05
0.000137413
-7.23104e-05
0.0001338
-5.97639e-05
0.000137115
-4.18294e-05
0.000142278
-2.03787e-05
0.000150379
5.69251e-07
0.000157834
2.0422e-05
0.000166304
3.96204e-05
0.000189747
5.53823e-05
0.000207993
6.78871e-05
0.000195302
5.90657e-05
0.000146079
2.37695e-05
7.37119e-05
-1.76131e-05
3.08371e-05
-4.61415e-05
2.23381e-05
-7.98262e-05
4.12621e-05
-0.000156694
6.1029e-05
-0.000235492
6.75729e-05
-0.000273372
6.69623e-05
-0.000270528
-0.00024313
6.51365e-05
6.46245e-05
-0.0003303
8.16692e-05
-0.000316724
9.83211e-05
-0.000292931
0.000111841
-0.000262556
0.000122207
-0.000231192
0.000129293
-0.000200702
0.000133397
-0.00017309
0.000136185
-0.000149792
0.000137585
-0.000130451
0.000138846
-0.000114935
0.000139125
-0.000101428
0.000138235
-9.01847e-05
0.000134986
-8.20915e-05
0.000128833
-7.59559e-05
0.000122128
-6.81071e-05
0.000118592
-5.55198e-05
0.000119892
-3.64769e-05
0.000123684
-1.48752e-05
0.000130585
6.19711e-06
0.000137033
2.68293e-05
0.000143732
4.3202e-05
0.000163609
5.41892e-05
0.000164707
5.44777e-05
0.000126342
2.73011e-05
5.81048e-05
-1.07767e-05
1.2787e-05
-3.84043e-05
-2.09585e-06
-5.64868e-05
1.62307e-05
-0.000112077
4.59859e-05
-0.00020191
6.15048e-05
-0.000267178
6.14283e-05
-0.000284238
5.68753e-05
-0.00026522
-0.000234504
5.47364e-05
5.45195e-05
-0.000341657
7.47506e-05
-0.000319669
9.18893e-05
-0.000289675
0.0001048
-0.00025505
0.000114146
-0.000221776
0.000119837
-0.000190785
0.000123207
-0.000163584
0.00012521
-0.000140838
0.000126134
-0.000122509
0.000126782
-0.000107469
0.00012629
-9.4571e-05
0.000124425
-8.37344e-05
0.000120363
-7.60319e-05
0.000114365
-6.94817e-05
0.000108652
-6.09475e-05
0.000105184
-4.78387e-05
0.000104521
-2.8938e-05
0.000107109
-8.6594e-06
0.000110805
1.12375e-05
0.000114466
2.83382e-05
0.000117472
3.65426e-05
0.000122435
3.99107e-05
9.28833e-05
2.10993e-05
3.20238e-05
-5.16358e-06
-6.48826e-06
-2.59251e-05
-2.38188e-05
-3.39969e-05
-1.41398e-05
-6.47921e-05
2.12826e-05
-0.000144723
4.81225e-05
-0.00023492
5.47517e-05
-0.000278666
5.0439e-05
-0.000279863
4.41974e-05
-0.000259651
-0.000235786
3.78118e-05
4.5333e-05
-0.00034177
6.65972e-05
-0.000314937
8.31561e-05
-0.000281217
9.52113e-05
-0.000244751
0.000103504
-0.000210822
0.000108382
-0.00018047
0.000111256
-0.000154215
0.000113068
-0.000132829
0.000113564
-0.000115286
0.000113767
-0.000100743
0.000112778
-8.803e-05
0.000110221
-7.73262e-05
0.000105876
-6.99151e-05
0.000100638
-6.27865e-05
9.54492e-05
-5.32552e-05
9.12509e-05
-3.94625e-05
8.91571e-05
-2.24963e-05
8.9499e-05
-5.27413e-06
8.80368e-05
1.16875e-05
8.50014e-05
2.07508e-05
7.58937e-05
1.85507e-05
4.96596e-05
1.01996e-05
-5.00281e-06
-5.00779e-06
-4.34977e-05
-1.00669e-05
-4.97868e-05
-9.35917e-06
-4.32191e-05
-2.45305e-05
-1.29206e-05
-8.05157e-05
2.58094e-05
-0.000174826
4.30962e-05
-0.00024837
4.32761e-05
-0.000274456
3.59701e-05
-0.000268122
2.75829e-05
-0.00025566
-0.000233399
2.09109e-05
3.52717e-05
-0.000337583
5.51789e-05
-0.000306007
7.07675e-05
-0.000269471
8.19716e-05
-0.00023478
8.92174e-05
-0.00020189
9.38296e-05
-0.000172459
9.68893e-05
-0.000148347
9.89078e-05
-0.000128328
9.95274e-05
-0.000111443
9.94923e-05
-9.69849e-05
9.8219e-05
-8.42116e-05
9.59026e-05
-7.39155e-05
9.20389e-05
-6.66467e-05
8.69909e-05
-5.87709e-05
8.12167e-05
-4.8457e-05
7.55343e-05
-3.50999e-05
7.08596e-05
-1.99683e-05
6.46489e-05
-6.28509e-06
5.50813e-05
3.57512e-06
3.75702e-05
2.81417e-06
1.77989e-06
-3.64857e-06
-5.1143e-05
-7.01739e-06
-9.13559e-05
-7.21497e-07
-8.71798e-05
1.58656e-05
-7.25137e-05
1.05249e-05
-4.77878e-05
-2.26583e-05
-8.53209e-06
-9.84929e-05
2.48009e-05
-0.00019284
3.44689e-05
-0.000247087
3.03404e-05
-0.000260593
2.25938e-05
-0.000255704
1.47134e-05
-0.000245944
-0.000225845
1.00544e-05
2.16235e-05
-0.000328366
4.00456e-05
-0.000295784
5.39101e-05
-0.000261884
6.40979e-05
-0.000228271
7.11848e-05
-0.000198268
7.66388e-05
-0.000172569
8.05795e-05
-0.00015062
8.3336e-05
-0.000131666
8.4561e-05
-0.000114901
8.44843e-05
-9.95051e-05
8.36335e-05
-8.597e-05
8.15176e-05
-7.59418e-05
7.75646e-05
-6.78965e-05
7.15272e-05
-5.82031e-05
6.33945e-05
-4.61943e-05
5.39552e-05
-3.29665e-05
4.23696e-05
-2.11365e-05
2.57399e-05
-1.22109e-05
-1.01384e-06
-8.62129e-06
-4.47442e-05
-1.04022e-05
-9.75567e-05
-9.43159e-06
-0.000136769
5.11811e-06
-0.000133144
3.45246e-05
-0.000106735
4.49686e-05
-8.3501e-05
2.57566e-05
-4.59504e-05
-2.82447e-05
-5.34258e-06
-0.000115439
1.91619e-05
-0.000195243
2.56331e-05
-0.000236226
2.1411e-05
-0.000243698
1.48542e-05
-0.000240208
1.02753e-05
-0.000229544
-0.000212063
9.93607e-06
2.88279e-06
-0.000319986
1.93968e-05
-0.000290198
3.16785e-05
-0.000258493
4.12236e-05
-0.000230316
4.89586e-05
-0.000206453
5.5647e-05
-0.000185773
6.11663e-05
-0.00016557
6.52862e-05
-0.000146217
6.77267e-05
-0.000127344
6.80961e-05
-0.000109509
6.66996e-05
-9.29276e-05
6.32534e-05
-7.98425e-05
5.69695e-05
-6.78668e-05
4.74482e-05
-5.59552e-05
3.46365e-05
-4.45284e-05
1.75936e-05
-3.32566e-05
-7.21001e-06
-2.42133e-05
-3.97033e-05
-1.86778e-05
-8.18428e-05
-1.66882e-05
-0.000139197
-1.03032e-05
-0.000178051
1.10963e-05
-0.000178864
4.80345e-05
-0.000148493
7.29411e-05
-0.000119114
6.54999e-05
-8.44895e-05
3.06466e-05
-4.25435e-05
-3.63699e-05
-4.67407e-06
-0.000123309
1.38584e-05
-0.000189831
1.92529e-05
-0.000219355
1.82047e-05
-0.000225188
1.53112e-05
-0.00021855
1.56146e-05
-0.000203681
-0.000186102
1.99919e-05
-2.00721e-05
-0.000314146
-7.41931e-06
-0.000288013
2.90171e-06
-0.000264976
1.10561e-05
-0.000245907
1.83699e-05
-0.000226658
2.5883e-05
-0.00020426
3.29285e-05
-0.000179982
3.83858e-05
-0.000156063
4.14318e-05
-0.000133425
4.15639e-05
-0.000111373
3.89156e-05
-9.2167e-05
3.29155e-05
-7.74743e-05
2.29359e-05
-6.48786e-05
8.07472e-06
-5.29843e-05
-1.50183e-05
-4.17891e-05
-4.22599e-05
-3.17617e-05
-7.58458e-05
-2.55434e-05
-0.000117928
-1.9466e-05
-0.0001734
-9.29031e-06
-0.000214747
1.71029e-05
-0.000223474
5.81225e-05
-0.00019366
9.19161e-05
-0.000155503
9.59439e-05
-0.000122947
7.78328e-05
-8.20549e-05
2.90088e-05
-3.79956e-05
-4.58801e-05
-5.41053e-06
-0.000125561
1.08719e-05
-0.000180539
1.8251e-05
-0.000201262
2.07401e-05
-0.000208048
2.16146e-05
-0.000198023
2.50426e-05
-0.000178941
-0.00016196
3.20075e-05
-4.88123e-05
-0.000312287
-4.07893e-05
-0.000293565
-3.6611e-05
-0.000279614
-3.1455e-05
-0.000261154
-2.29383e-05
-0.000234601
-1.37693e-05
-0.000207012
-6.10852e-06
-0.000180558
-3.40211e-07
-0.000156108
2.78565e-06
-0.000133228
2.67509e-06
-0.000110028
-1.46282e-06
-9.01049e-05
-1.05776e-05
-7.45471e-05
-2.59267e-05
-6.08077e-05
-4.79575e-05
-4.83651e-05
-7.63447e-05
-3.76969e-05
-0.000110885
-3.03519e-05
-0.000153527
-2.22282e-05
-0.000205935
-6.34852e-06
-0.000247651
2.20599e-05
-0.000262301
6.25259e-05
-0.00024008
0.000101128
-0.00019561
0.000117337
-0.000160422
0.000110138
-0.000122272
8.08728e-05
-7.73796e-05
2.15045e-05
-3.41459e-05
-5.36896e-05
-5.06143e-06
-0.00012566
1.18502e-05
-0.000171676
2.0457e-05
-0.000198388
2.51138e-05
-0.00020802
2.85499e-05
-0.000197349
3.28184e-05
-0.000177465
-0.000161031
3.80538e-05
-8.54966e-05
-0.000314614
-8.49144e-05
-0.000302656
-8.30027e-05
-0.000286534
-7.62127e-05
-0.000259375
-6.77159e-05
-0.000231975
-5.94541e-05
-0.000205905
-5.26365e-05
-0.000180842
-4.82239e-05
-0.000157177
-4.57819e-05
-0.000134489
-4.66096e-05
-0.000111704
-5.25548e-05
-9.14536e-05
-6.50179e-05
-7.43006e-05
-8.41962e-05
-5.96559e-05
-0.000110009
-4.69964e-05
-0.000143347
-3.71676e-05
-0.000185369
-2.48417e-05
-0.000234067
-3.38105e-06
-0.000273527
2.5966e-05
-0.000294505
6.42445e-05
-0.000281159
0.00010411
-0.0002379
0.000127263
-0.000196929
0.000128598
-0.00015958
0.000116646
-0.000117881
7.73878e-05
-7.04331e-05
1.21411e-05
-3.01595e-05
-6.12487e-05
-3.85679e-06
-0.000126508
1.08813e-05
-0.000170556
2.07744e-05
-0.000200632
2.67506e-05
-0.00021044
3.02864e-05
-0.000197614
3.30531e-05
-0.000176475
-0.00016172
3.57257e-05
-0.000128724
-0.00031755
-0.000131921
-0.000305394
-0.000128815
-0.000280915
-0.000123228
-0.000252988
-0.000116843
-0.000227418
-0.000110513
-0.000203594
-0.000105091
-0.000180763
-0.000102256
-0.00015901
-0.000101577
-0.000136796
-0.0001051
-0.000114117
-0.000113435
-9.34699e-05
-0.000127923
-7.4191e-05
-0.000149559
-5.89436e-05
-0.000178413
-4.38918e-05
-0.000215907
-2.62262e-05
-0.000258424
-2.99877e-06
-0.00029786
2.59474e-05
-0.000321843
6.23266e-05
-0.000317041
0.000101278
-0.000277037
0.000127726
-0.000233389
0.000135007
-0.000196339
0.000136393
-0.000154707
0.000115383
-0.000108573
6.84097e-05
-6.19822e-05
8.01311e-07
-2.55751e-05
-6.89478e-05
-2.81255e-06
-0.000128935
1.04203e-05
-0.000172067
1.96571e-05
-0.000205082
2.49622e-05
-0.000214965
2.78383e-05
-0.000198528
2.78731e-05
-0.00017769
-0.000171832
2.88833e-05
-0.000173394
-0.000317627
-0.000176222
-0.000298811
-0.000173516
-0.000269165
-0.000169058
-0.00024072
-0.000163631
-0.000214833
-0.000159576
-0.000193651
-0.000156291
-0.000175422
-0.000156118
-0.000157333
-0.000157553
-0.000137278
-0.000162661
-0.000115911
-0.00017171
-9.4943e-05
-0.000187408
-7.45399e-05
-0.000212629
-5.45308e-05
-0.00024547
-3.35452e-05
-0.00028342
-8.77878e-06
-0.000320171
1.99968e-05
-0.00034518
5.43397e-05
-0.000346862
9.08856e-05
-0.000314632
0.000119592
-0.000268244
0.000134444
-0.000232561
0.000141638
-0.000191176
0.000136194
-0.000144603
0.000107047
-9.56349e-05
5.54826e-05
-5.14298e-05
-1.10916e-05
-1.91683e-05
-7.626e-05
-4.37576e-07
-0.000131148
1.01834e-05
-0.000173749
1.76324e-05
-0.000210375
2.23379e-05
-0.000215473
2.17815e-05
-0.000197056
1.90166e-05
-0.000182117
-0.000188136
1.36918e-05
-0.000214321
-0.000312115
-0.000214497
-0.000284096
-0.000211498
-0.000252886
-0.000205112
-0.00022211
-0.00019756
-0.00019359
-0.000195423
-0.000174292
-0.000195448
-0.000161253
-0.000197019
-0.000147715
-0.000199735
-0.000132271
-0.000207248
-0.000114275
-0.000221437
-9.43856e-05
-0.000242976
-7.2627e-05
-0.000272006
-4.86904e-05
-0.000306843
-2.24799e-05
-0.00034019
6.85047e-06
-0.000365266
3.97762e-05
-0.00036983
7.39585e-05
-0.000343849
0.000102663
-0.000301766
0.000122437
-0.000266748
0.000136098
-0.000226777
0.000140392
-0.000179332
0.000128002
-0.000128076
9.25232e-05
-7.85558e-05
3.99773e-05
-3.75059e-05
-2.31628e-05
-1.02959e-05
-8.23936e-05
3.14307e-06
-0.000131528
1.04627e-05
-0.000174717
1.63418e-05
-0.000210287
1.65429e-05
-0.000208789
1.1686e-05
-0.00019158
3.55323e-06
-0.000184946
-0.000182547
-5.15974e-06
-0.000247384
-0.000299807
-0.000244583
-0.000267452
-0.000240138
-0.000234281
-0.000227137
-0.000199755
-0.000212843
-0.000168474
-0.000209618
-0.000148709
-0.000212499
-0.000139345
-0.000217832
-0.00012999
-0.000227251
-0.000119451
-0.000242738
-0.000106576
-0.000264375
-8.92709e-05
-0.000292187
-6.75363e-05
-0.000323746
-4.18453e-05
-0.000354552
-1.2666e-05
-0.000376536
1.87932e-05
-0.000381251
5.01221e-05
-0.000364045
7.91083e-05
-0.000332033
0.00010258
-0.000299881
0.000120302
-0.00026145
0.000131247
-0.000214306
0.000130855
-0.000160506
0.000111844
-0.000106121
7.34971e-05
-5.71839e-05
2.27439e-05
-2.07526e-05
-3.42304e-05
-3.10644e-07
-8.49899e-05
9.11819e-06
-0.000130135
1.28487e-05
-0.000171747
1.26984e-05
-0.000202897
7.74238e-06
-0.000195838
-1.90353e-06
-0.000182171
-1.62322e-05
-0.000184034
-0.000166017
-1.89329e-05
-0.000274218
-0.000286834
-0.0002717
-0.000251331
-0.000262035
-0.000215958
-0.000240156
-0.000180224
-0.000217385
-0.000146853
-0.000214344
-0.000129854
-0.000218145
-0.000123716
-0.000227643
-0.000116901
-0.000241594
-0.000108528
-0.000262523
-9.7286e-05
-0.000288625
-8.15404e-05
-0.000318626
-6.09435e-05
-0.000347774
-3.56745e-05
-0.000369646
-7.68137e-06
-0.000380897
2.24577e-05
-0.000378268
5.09314e-05
-0.000360946
7.67622e-05
-0.000331348
9.75793e-05
-0.000295448
0.000112139
-0.000249621
0.000119223
-0.00019516
0.000113033
-0.000135888
8.85778e-05
-8.06104e-05
5.17838e-05
-3.42644e-05
5.1406e-06
-3.9006e-06
-4.24487e-05
1.06622e-05
-8.45599e-05
1.49263e-05
-0.000125977
1.28517e-05
-0.000163491
6.59855e-06
-0.000187655
-4.02328e-06
-0.000177804
-1.99477e-05
-0.000170517
-3.10858e-05
-0.00016758
-0.000152085
-2.69458e-05
-0.000297926
-0.000272449
-0.00029345
-0.000234535
-0.000281887
-0.00019737
-0.000258243
-0.000161588
-0.000230594
-0.000131559
-0.000226691
-0.000114533
-0.000234733
-0.000109424
-0.000247253
-0.000104902
-0.00026426
-9.83891e-05
-0.000285688
-8.91139e-05
-0.000311181
-7.55196e-05
-0.000337625
-5.70436e-05
-0.000361838
-3.35976e-05
-0.000380442
-6.94738e-06
-0.000388161
2.04669e-05
-0.000382605
4.62899e-05
-0.000361129
6.90342e-05
-0.000328436
8.62743e-05
-0.000284927
9.66608e-05
-0.000230967
9.91835e-05
-0.000169665
8.72462e-05
-0.000108294
6.1998e-05
-5.27337e-05
2.77452e-05
-1.0928e-05
-1.0985e-05
1.10916e-05
-4.6141e-05
1.86963e-05
-8.1841e-05
1.65121e-05
-0.000117707
8.98448e-06
-0.000149997
-2.40319e-06
-0.000164807
-1.93041e-05
-0.000157994
-3.99634e-05
-0.000160952
-4.37052e-05
-0.000151327
-0.000142987
-3.05022e-05
-0.000317893
-0.000258198
-0.000310469
-0.000218594
-0.000296559
-0.000179224
-0.000268601
-0.00014301
-0.000240685
-0.000113712
-0.000238318
-9.85322e-05
-0.000248227
-9.38016e-05
-0.000263302
-9.02255e-05
-0.000282318
-8.5637e-05
-0.000305577
-7.88597e-05
-0.000330763
-6.85061e-05
-0.000355676
-5.33741e-05
-0.000377339
-3.34079e-05
-0.00039263
-9.94725e-06
-0.000395858
1.42372e-05
-0.000384419
3.66757e-05
-0.000358358
5.4967e-05
-0.000319818
6.73002e-05
-0.000268336
7.44447e-05
-0.00020701
7.04521e-05
-0.000139469
5.43e-05
-7.56687e-05
3.06804e-05
-2.46718e-05
3.89904e-06
7.12362e-06
-2.16084e-05
2.07257e-05
-4.73887e-05
2.09414e-05
-7.51711e-05
1.25772e-05
-0.000105153
5.89076e-07
-0.000131059
-1.62401e-05
-0.000136863
-4.10624e-05
-0.000139807
-5.9422e-05
-0.000146354
-5.53051e-05
-0.000141734
-0.000137125
-3.55756e-05
-0.000332039
-0.000243402
-0.000322508
-0.000203507
-0.000308132
-0.000161758
-0.000279233
-0.000124658
-0.000248661
-9.59782e-05
-0.000243593
-8.04594e-05
-0.000255169
-7.50265e-05
-0.000272364
-7.23969e-05
-0.000294116
-6.98457e-05
-0.0003187
-6.56003e-05
-0.000344697
-5.87057e-05
-0.000368867
-4.78161e-05
-0.000388031
-3.30567e-05
-0.000399082
-1.50438e-05
-0.000397819
4.0989e-06
-0.000381362
2.13375e-05
-0.000349569
3.38389e-05
-0.000303621
4.17914e-05
-0.000243675
4.19043e-05
-0.000172864
2.99063e-05
-0.000102149
1.44641e-05
-4.51342e-05
5.97223e-07
-5.2386e-06
-1.40654e-05
1.57912e-05
-2.76808e-05
2.09738e-05
-4.48444e-05
1.49504e-05
-6.61761e-05
1.7469e-06
-9.02034e-05
-1.38252e-05
-0.00010775
-3.80441e-05
-0.000114135
-6.96243e-05
-0.000126203
-7.94106e-05
-0.000130723
-6.41143e-05
-0.000136162
-0.000135268
-4.74253e-05
-0.00034046
-0.000227959
-0.000329593
-0.000189112
-0.000315474
-0.000145281
-0.00028778
-0.000105987
-0.000255387
-7.65346e-05
-0.000244395
-6.07128e-05
-0.000256293
-5.43257e-05
-0.00027504
-5.24562e-05
-0.000298462
-5.12724e-05
-0.00032481
-4.92271e-05
-0.00035123
-4.56334e-05
-0.000374141
-3.9491e-05
-0.000391025
-3.09172e-05
-0.000398507
-2.01593e-05
-0.000392409
-8.76042e-06
-0.000370388
3.90616e-07
-0.000331965
6.17397e-06
-0.000275241
5.25635e-06
-0.00020528
-2.37469e-06
-0.000134585
-1.51115e-05
-7.47709e-05
-2.17792e-05
-3.06095e-05
-2.38888e-05
-3.97858e-06
-2.73681e-05
9.052e-06
-3.36914e-05
8.47758e-06
-4.3337e-05
-2.07378e-06
-5.77223e-05
-1.72786e-05
-7.48665e-05
-3.80985e-05
-8.30013e-05
-6.98731e-05
-9.11845e-05
-0.000103332
-0.000111655