/*--------------------------------*- C++ -*----------------------------------*\
  =========                 |
  \\      /  F ield         | OpenFOAM: The Open Source CFD Toolbox
   \\    /   O peration     | Website:  https://openfoam.org
    \\  /    A nd           | Version:  10
     \\/     M anipulation  |
\*---------------------------------------------------------------------------*/
FoamFile
{
    format      ascii;
    class       volScalarField;
    location    "0.298862";
    object      T;
}
// * * * * * * * * * * * * * * * * * * * * * * * * * * * * * * * * * * * * * //

dimensions      [0 0 0 1 0 0 0];

internalField   nonuniform List<scalar> 
16320
(
0.00301006
0.00362879
0.00377387
0.00388039
0.00392622
0.00391847
0.00388422
0.00381304
0.00372369
0.00359926
0.00345349
0.00330717
0.00319475
0.00312344
0.00307899
0.0030537
0.00303466
0.00303583
0.00304854
0.00308555
0.0031697
0.00334165
0.00350118
0.00364672
0.00367333
0.00363479
0.00345712
0.00306584
0.00278435
0.0026244
0.00254957
0.00254866
0.00263247
0.00270393
0.00311773
0.00367345
0.00381724
0.00386574
0.00385647
0.00383728
0.00379452
0.00373534
0.00367685
0.00361879
0.00353684
0.00345206
0.00337037
0.00330841
0.00326768
0.00325418
0.00326332
0.00330255
0.00338298
0.00344683
0.00358853
0.00370218
0.00372408
0.00368553
0.00350916
0.00314485
0.00285026
0.00267573
0.00257464
0.00252777
0.00253933
0.00265407
0.00274582
0.00275112
0.0031764
0.00365349
0.00378159
0.00380522
0.00379214
0.00376498
0.00372678
0.00367884
0.00363748
0.00359609
0.00356013
0.00351901
0.00349092
0.00346439
0.00346112
0.00346739
0.00349182
0.00353823
0.00357944
0.00368438
0.00371144
0.00367262
0.00349075
0.00318454
0.00292175
0.00272918
0.00262046
0.00255308
0.00252074
0.00254736
0.00269963
0.00278841
0.00270871
0.00281034
0.00319015
0.00352394
0.00367528
0.0037199
0.00371189
0.00369562
0.0036632
0.00362887
0.00359444
0.00357077
0.00353961
0.00351816
0.00350181
0.00349053
0.00349661
0.00352296
0.00354361
0.0035829
0.00360643
0.00356547
0.00341427
0.00315234
0.00296232
0.00279004
0.00266404
0.00259157
0.00254275
0.00251963
0.00255436
0.00271364
0.00272929
0.00271486
0.00279455
0.00312005
0.00342119
0.00356944
0.00363949
0.00365855
0.00365082
0.00362617
0.00359209
0.003562
0.0035434
0.00351929
0.00349843
0.00348988
0.0034738
0.00347825
0.00348532
0.00346607
0.0034442
0.00339762
0.00329636
0.00311657
0.00295462
0.00282787
0.00271321
0.00263186
0.00257724
0.0025314
0.00251455
0.0025626
0.002739
0.00282009
0.00288876
0.00298555
0.00323168
0.00346514
0.00358191
0.00364088
0.00365216
0.00364458
0.00362127
0.00358666
0.00355194
0.00352713
0.00350732
0.00349138
0.00347575
0.00345599
0.00343314
0.0034045
0.00332845
0.00329147
0.00323365
0.00311269
0.00297235
0.00285006
0.00274655
0.00266701
0.00261011
0.00256706
0.00252662
0.00251763
0.00257991
0.00277291
0.00343892
0.0034613
0.00349002
0.00355377
0.00361758
0.00364655
0.00366155
0.00365479
0.00363668
0.00361071
0.00357592
0.00353455
0.00349961
0.00347411
0.0034515
0.00342223
0.00337331
0.00332923
0.00325716
0.00317842
0.00314237
0.00307009
0.00295949
0.00284545
0.00275198
0.00267699
0.00262307
0.00258393
0.00254535
0.00251812
0.00252337
0.00261656
0.0028287
0.00354855
0.00357384
0.00360892
0.00362608
0.00364379
0.00364755
0.00363819
0.00361366
0.00357865
0.00354085
0.00349605
0.00344142
0.00337808
0.0033184
0.00324642
0.00319763
0.0030989
0.00306013
0.00297979
0.00294998
0.00292449
0.00287733
0.00281112
0.0027285
0.00266357
0.00261793
0.00258361
0.00255574
0.00253051
0.00252226
0.00254587
0.00269053
0.00289321
0.00345877
0.00356471
0.00367042
0.0037278
0.00374868
0.00374825
0.00373384
0.00370496
0.00366239
0.00361371
0.00355907
0.00350518
0.00343491
0.00336239
0.00327273
0.00321644
0.00312003
0.00305462
0.00298348
0.00293211
0.00289022
0.0028272
0.0027659
0.00268061
0.00261433
0.00257988
0.00255358
0.00253438
0.0025297
0.00253901
0.00260875
0.0028157
0.00296962
0.003622
0.0038459
0.00400905
0.00409717
0.00411331
0.00410365
0.00408649
0.00405623
0.0040139
0.00396043
0.00389624
0.00384131
0.00377455
0.00370248
0.0036361
0.00355827
0.00345627
0.00334272
0.00326406
0.00316545
0.00304814
0.00291311
0.00278572
0.00266765
0.00258698
0.00254386
0.00252628
0.00252981
0.00254341
0.00259264
0.00275784
0.00296674
0.0030553
0.00394243
0.00405833
0.00414609
0.00420306
0.00422594
0.00422234
0.00420363
0.00417226
0.0041377
0.0041013
0.00406114
0.00402237
0.00398548
0.0039524
0.00394029
0.00394198
0.00394311
0.003933
0.00387267
0.00369432
0.00341329
0.00313329
0.00288198
0.00269065
0.00257223
0.00252083
0.00252164
0.00253892
0.00259213
0.00273206
0.00297373
0.00311667
0.00315834
0.00399112
0.00405313
0.00408008
0.00409665
0.00410467
0.00410339
0.00409388
0.00407946
0.00406158
0.00403584
0.00400717
0.00397659
0.0039599
0.00394245
0.00395468
0.00398469
0.00402964
0.00410196
0.0040832
0.00401925
0.00379405
0.00337384
0.00300483
0.00272688
0.00256281
0.00252359
0.0025333
0.00258411
0.00271724
0.00298011
0.00319735
0.00329112
0.00329753
0.00392421
0.00390914
0.00388608
0.00388634
0.0038988
0.00391842
0.00394084
0.00396023
0.00397538
0.00398253
0.00398171
0.00397394
0.00396077
0.00396082
0.00397389
0.00400696
0.00404613
0.00412756
0.00411407
0.00407483
0.00395304
0.00360346
0.00312335
0.00274867
0.00257202
0.00254511
0.00257607
0.0026897
0.00295272
0.003261
0.00344608
0.0034816
0.00342986
0.00380866
0.00375414
0.00371466
0.00369249
0.0036965
0.00371169
0.00373867
0.00376973
0.0038112
0.00384426
0.00388368
0.00390673
0.00392419
0.00396116
0.00399067
0.00407093
0.00407747
0.00411606
0.00410968
0.00408262
0.00398568
0.00371862
0.00316781
0.00275969
0.00259315
0.0025901
0.00266606
0.00288594
0.00325675
0.00356771
0.00367357
0.00356718
0.00347327
0.00369955
0.00363442
0.00356857
0.00352343
0.00350056
0.00350322
0.0035191
0.00355209
0.00360421
0.0036634
0.00372899
0.00378676
0.00385203
0.00391177
0.00400025
0.00408089
0.00409918
0.00409573
0.00408431
0.00405799
0.00397096
0.00372795
0.00316227
0.00275133
0.00262853
0.00265397
0.00282525
0.00319097
0.00360121
0.00383002
0.00374918
0.00355832
0.00347993
0.00358496
0.00349046
0.00340341
0.00334618
0.00332282
0.0033245
0.00333953
0.00337028
0.0034348
0.00350851
0.00358116
0.00366016
0.00374604
0.00386447
0.00395622
0.00407542
0.0040591
0.00404937
0.00403377
0.00400984
0.00393005
0.00369838
0.00313524
0.0027582
0.00269534
0.00277282
0.00309257
0.00356352
0.00390289
0.0039418
0.00371965
0.00357471
0.00352013
0.00341798
0.00329858
0.0032051
0.00315677
0.00313857
0.00313824
0.00317088
0.00321735
0.00331509
0.00340155
0.00347301
0.00355784
0.00366371
0.00379598
0.00390871
0.00401768
0.00398889
0.00399312
0.00397395
0.0039386
0.00385881
0.00362084
0.00306906
0.00277948
0.00279162
0.00297
0.00346935
0.0039027
0.00408403
0.00395322
0.00370954
0.00363795
0.00362284
0.00319326
0.00306323
0.00298159
0.00295126
0.00295794
0.00299931
0.00305544
0.00315223
0.00324341
0.00332745
0.00340708
0.00349997
0.00361695
0.00375682
0.00386363
0.00394523
0.00391895
0.00392119
0.00390281
0.0038565
0.00377628
0.00351705
0.00299321
0.00284296
0.00292874
0.00329098
0.00385154
0.00414136
0.00414516
0.00391546
0.00377899
0.00377371
0.00383066
0.00292931
0.00283826
0.00281253
0.00282576
0.00287073
0.00293765
0.00303311
0.00311891
0.00321411
0.0032973
0.00337863
0.00347108
0.00357996
0.00370194
0.00379278
0.00383533
0.00382417
0.00383103
0.00382047
0.00378483
0.0037086
0.00340411
0.00297183
0.0029719
0.00314265
0.00368995
0.00412433
0.00425534
0.00412969
0.00389714
0.00388015
0.00402002
0.00424094
0.00275941
0.00273004
0.0027415
0.00279242
0.00285236
0.002931
0.00301761
0.00310898
0.0031907
0.00326479
0.00333984
0.00343053
0.00353329
0.00364041
0.00371222
0.00371668
0.00373709
0.00374787
0.00374225
0.00372055
0.00365149
0.00329659
0.00303794
0.00310672
0.00344462
0.00404212
0.00427237
0.00426117
0.00403011
0.00392299
0.0040436
0.0043606
0.00447352
0.00269037
0.0027014
0.00273172
0.00279225
0.00285434
0.00292929
0.00301178
0.00308474
0.00314674
0.00321755
0.0032797
0.00336746
0.00346371
0.00354877
0.00358266
0.00360099
0.00365492
0.00367124
0.0036791
0.00367816
0.00360847
0.00323424
0.00314805
0.00326702
0.00381486
0.00423715
0.00431475
0.0041777
0.00397501
0.00400367
0.00429816
0.0044699
0.00449821
0.00267999
0.00270268
0.00275876
0.00280967
0.00286474
0.00292391
0.00297823
0.00301684
0.00305947
0.00310977
0.00316958
0.00324925
0.00332061
0.00337405
0.00341879
0.00346714
0.00356872
0.00361613
0.00365655
0.00367654
0.00352186
0.00321986
0.00322989
0.00352174
0.00412205
0.00430394
0.00426937
0.00404333
0.0039673
0.00414128
0.00443982
0.00448952
0.00448152
0.00269777
0.00274351
0.00277921
0.00281225
0.00284039
0.00284452
0.00283691
0.00283631
0.00284788
0.00288572
0.00294366
0.00300099
0.00305864
0.00312427
0.0032156
0.0033572
0.00351278
0.00360324
0.00366817
0.00364101
0.00330655
0.00320864
0.00331395
0.00387954
0.00424739
0.00429772
0.00413924
0.00399828
0.00401527
0.00429853
0.00450808
0.0045357
0.00451509
0.00273449
0.00275485
0.00276558
0.0027428
0.00268208
0.00259013
0.00251364
0.00246644
0.00246262
0.00249178
0.00255761
0.00264599
0.00277691
0.00294099
0.00312834
0.00334437
0.00351265
0.00361029
0.00362395
0.00338685
0.00320144
0.00320631
0.00356442
0.00413126
0.00426124
0.00421265
0.00403484
0.00399946
0.00414957
0.00445694
0.00468266
0.00481199
0.00482875
0.00273733
0.00272266
0.00265128
0.00250475
0.0023389
0.00222493
0.00216969
0.00215209
0.00217113
0.00224086
0.0023568
0.00251704
0.00271091
0.00292972
0.00317396
0.00338853
0.00351576
0.00354625
0.00337997
0.00315414
0.00312124
0.00333184
0.00395668
0.00419611
0.00422823
0.00408838
0.00402056
0.0040755
0.00440957
0.00476252
0.00512422
0.00549443
0.00564963
0.00269641
0.00259297
0.00239654
0.00221974
0.0021157
0.00207357
0.00206079
0.0020664
0.00210196
0.00219889
0.00233648
0.00252605
0.0027448
0.00299911
0.00322887
0.00336543
0.00338768
0.00324586
0.0030807
0.00305152
0.00318389
0.00367962
0.00409951
0.00417998
0.00414468
0.00404846
0.00405908
0.00426036
0.00463265
0.00492694
0.00534174
0.00583832
0.00602134
0.00258487
0.00238895
0.0022083
0.00210204
0.00207097
0.00205253
0.00204919
0.00205884
0.00209831
0.00219901
0.00233768
0.00252804
0.00274213
0.00293249
0.00304198
0.00306436
0.00300986
0.0029659
0.00296668
0.00308095
0.00344312
0.00397413
0.00412142
0.004145
0.00408076
0.00407217
0.00415611
0.00441588
0.00467452
0.00493665
0.00536002
0.00586588
0.00600782
0.00244809
0.00224682
0.0021271
0.00209344
0.00206959
0.00206642
0.00206809
0.00208096
0.00211443
0.00218425
0.0022659
0.00238272
0.00250203
0.00262851
0.00272607
0.00279408
0.00283597
0.00288309
0.00300355
0.00330588
0.00385848
0.00405433
0.00410336
0.00409153
0.00407474
0.0040986
0.00419988
0.00444191
0.00464154
0.00484956
0.00529646
0.00571948
0.00557546
0.00232513
0.00217034
0.0021263
0.00211376
0.00213706
0.00214687
0.00214927
0.00214849
0.00215468
0.00219212
0.00225993
0.00236954
0.00245363
0.00255587
0.00264423
0.0027286
0.00281448
0.00295103
0.00321324
0.00373801
0.00397817
0.00405612
0.00407696
0.00406318
0.00406865
0.00409677
0.00420871
0.00440812
0.00452376
0.00475134
0.00514734
0.00529236
0.00465099
0.0022463
0.00216774
0.00214948
0.00220032
0.00228877
0.00232854
0.0023325
0.00232099
0.0023164
0.0023394
0.00237064
0.00241529
0.00249982
0.00257145
0.00267061
0.00278239
0.00293761
0.00321172
0.00367926
0.00392137
0.00401297
0.00404422
0.00405108
0.00404744
0.00404347
0.00406128
0.00418956
0.00431843
0.004441
0.00472414
0.00495291
0.00470684
0.00390045
0.00222355
0.00217493
0.00220048
0.00232227
0.0025272
0.00266489
0.00268922
0.00268572
0.00265442
0.0026236
0.00260666
0.00260056
0.00264424
0.00272468
0.00285666
0.00304904
0.00333588
0.0036717
0.00388998
0.0039782
0.00401206
0.0040247
0.0040282
0.0040221
0.00401173
0.00403868
0.00414996
0.00425746
0.00442416
0.00472276
0.00471618
0.00408319
0.00368045
0.00221257
0.00218124
0.00222669
0.00242755
0.0027837
0.00298397
0.00309313
0.00310115
0.00310537
0.00307457
0.00304054
0.00303093
0.00305384
0.00315918
0.00330576
0.00350376
0.00368653
0.00387441
0.0039621
0.00399411
0.00400419
0.0040069
0.00399568
0.00397781
0.00397578
0.00403309
0.00413273
0.00424537
0.00445313
0.0047453
0.00444378
0.00377465
0.00365057
0.00221014
0.00218099
0.00223494
0.00245591
0.00286173
0.00317762
0.00323547
0.00328423
0.00329621
0.00331736
0.00333436
0.00336617
0.0034338
0.00351422
0.00362726
0.00374759
0.00386243
0.00394711
0.00397515
0.00398094
0.00398184
0.00395781
0.00394226
0.00394592
0.00397105
0.00404424
0.00413716
0.00427721
0.00460688
0.00475448
0.00415269
0.00370617
0.00372225
0.00221341
0.00218347
0.00223637
0.00246244
0.00288978
0.00322102
0.00333988
0.00337769
0.00342733
0.00345772
0.00350633
0.00356141
0.00363516
0.00370116
0.00378182
0.00386587
0.00392737
0.00394772
0.00395075
0.00394167
0.00392542
0.0039213
0.00393316
0.00396786
0.00401221
0.00409344
0.00420231
0.00442647
0.004913
0.00469557
0.00390575
0.00372443
0.00398248
0.00223675
0.0021945
0.00223177
0.0024382
0.00286708
0.00327238
0.00340869
0.00347755
0.0035136
0.00356622
0.00361568
0.00367877
0.00374376
0.00380783
0.00386221
0.00391137
0.00393433
0.00393951
0.00393885
0.00394098
0.00394855
0.00398779
0.00404273
0.00408169
0.00413995
0.00422045
0.00436776
0.00472795
0.00510237
0.00448999
0.00384668
0.00386003
0.00428194
0.00228441
0.00221789
0.00223123
0.00239703
0.00279658
0.00327581
0.00347679
0.00355416
0.00360568
0.00365691
0.00370792
0.00376977
0.00383311
0.00388084
0.00391919
0.00395141
0.00397344
0.00399188
0.00403202
0.00410272
0.00413575
0.00415274
0.00416058
0.00417587
0.00422025
0.004301
0.00452847
0.0050011
0.00510137
0.00418726
0.00386513
0.00411732
0.00441929
0.00236304
0.00225852
0.00225177
0.0023718
0.00272487
0.00324798
0.00351311
0.00361551
0.00367131
0.00372349
0.00376659
0.00382449
0.00389389
0.00394995
0.00400537
0.00409051
0.00416654
0.00419926
0.00419326
0.00412253
0.00402756
0.00399644
0.00400032
0.00404821
0.00414933
0.00430782
0.0046506
0.00507721
0.00485806
0.004043
0.00397668
0.00436936
0.00446429
0.00248083
0.00231488
0.00228449
0.00235967
0.00266784
0.00320256
0.00352495
0.00364343
0.00370206
0.0037522
0.00379864
0.00387091
0.00397871
0.00409831
0.00424325
0.00429635
0.0042529
0.00401716
0.0036782
0.00349756
0.00344331
0.00343773
0.00348444
0.00360173
0.00382575
0.00419213
0.00478469
0.00502465
0.00440816
0.00402989
0.00420147
0.00447747
0.00444993
0.0026146
0.00240088
0.00232725
0.00235556
0.00260013
0.00312812
0.00352448
0.00366304
0.00372833
0.00378441
0.00385455
0.0039713
0.00417526
0.00434419
0.00438175
0.00423566
0.0037725
0.00342298
0.00331438
0.00328838
0.00328591
0.00329551
0.003367
0.00350422
0.00378768
0.00435424
0.00480014
0.00467102
0.00413316
0.00408595
0.00442192
0.00450472
0.00435841
0.00271985
0.00253586
0.00237702
0.00235976
0.00252023
0.0030049
0.00351063
0.00368913
0.0037699
0.00384699
0.00396938
0.00418274
0.00437932
0.00441402
0.00424991
0.00371855
0.00339228
0.00330564
0.00328682
0.00328792
0.00330799
0.00334854
0.00347433
0.00369624
0.00416772
0.00455704
0.0045779
0.00420294
0.00407286
0.00426253
0.00448279
0.00448328
0.00421555
0.00277649
0.00269411
0.00246293
0.00237494
0.00243311
0.00279241
0.00344006
0.00372288
0.00383786
0.00394556
0.00411153
0.00431551
0.0043865
0.00429809
0.00385646
0.00344221
0.00333782
0.00332401
0.00335053
0.00343762
0.00349117
0.00362252
0.00384374
0.0041798
0.00441298
0.00442742
0.00419307
0.00405291
0.00412796
0.00441733
0.00447684
0.00439563
0.00407734
0.00279774
0.00278827
0.00264477
0.00242984
0.00239507
0.00257116
0.00319017
0.00371601
0.0038939
0.00401531
0.00418292
0.00430597
0.00431453
0.0040856
0.00358257
0.00339722
0.00337696
0.00342602
0.00355123
0.00366338
0.00385884
0.00415866
0.00433377
0.00437818
0.00433022
0.00413471
0.00401625
0.00403824
0.0043032
0.0044342
0.00442797
0.00424937
0.00394012
0.00279622
0.00282341
0.00279012
0.00257426
0.00240791
0.00242847
0.00280408
0.00359251
0.00391456
0.00405853
0.00420451
0.00427281
0.00422477
0.00387908
0.00350244
0.00342795
0.00346713
0.00359848
0.0037997
0.0040518
0.00442885
0.00450948
0.00446862
0.00429468
0.00407257
0.00396659
0.00397133
0.00416377
0.00437565
0.00440135
0.00432143
0.00409205
0.00383296
0.00273411
0.00282985
0.00284768
0.0027807
0.00249265
0.00237348
0.00250184
0.00318072
0.00386727
0.00408187
0.00420433
0.00424455
0.00414258
0.003745
0.003503
0.00348397
0.0035797
0.00374479
0.003968
0.00438318
0.0045944
0.00458641
0.00436812
0.00404199
0.00390383
0.00389279
0.00401297
0.00427164
0.0043513
0.00433869
0.00420997
0.00401059
0.00379199
0.00265495
0.00277357
0.00286158
0.00287385
0.00274036
0.00240455
0.0023424
0.00268842
0.00363365
0.00405932
0.00419496
0.00422035
0.00407686
0.00368821
0.00353881
0.00355303
0.00367438
0.00380254
0.00405663
0.00445171
0.00456295
0.00447211
0.00411234
0.00387159
0.00382331
0.00386685
0.00408265
0.00426721
0.00429362
0.00425911
0.00414626
0.00398833
0.00378777
0.00260628
0.00268066
0.00281086
0.00289817
0.00290284
0.00267006
0.00232781
0.00237068
0.00308811
0.00392063
0.00416727
0.00419782
0.00402769
0.00368421
0.00359205
0.00362943
0.00371803
0.00380829
0.00406939
0.0043705
0.00441427
0.00423478
0.00390645
0.00377637
0.00376611
0.00386504
0.0041094
0.00421669
0.00422338
0.0041963
0.00413135
0.00403166
0.00390144
0.00257427
0.00262842
0.00270667
0.00284962
0.00294267
0.00294487
0.00255048
0.00224349
0.00256294
0.00347152
0.00408319
0.00415986
0.00400311
0.0037112
0.00365108
0.00369157
0.00371542
0.00374346
0.00392797
0.00417521
0.00420978
0.00402901
0.00377911
0.00370725
0.00371883
0.00385791
0.00408533
0.00416227
0.00416574
0.00416398
0.00415434
0.00412357
0.00403715
0.00255261
0.00259497
0.00265611
0.00274829
0.0029043
0.00301395
0.00297995
0.00237988
0.00225842
0.00289491
0.00382989
0.00409118
0.00399701
0.00376364
0.00372619
0.00374365
0.00369484
0.00362837
0.00368284
0.00385923
0.00391995
0.00383769
0.00368041
0.00363661
0.00366516
0.00381941
0.0040273
0.00409348
0.00410824
0.00413657
0.00418219
0.00419546
0.0041733
0.00253698
0.00256948
0.00262198
0.00269889
0.00280606
0.00300194
0.00310161
0.00286667
0.0021813
0.00244718
0.00328996
0.00395554
0.00398454
0.00382926
0.00380672
0.00382543
0.00370458
0.00357095
0.00357586
0.00368209
0.00373691
0.00369244
0.00359535
0.00356487
0.00359517
0.00374325
0.00393687
0.00400551
0.00402787
0.00407501
0.00418275
0.0042623
0.0042867
0.00252641
0.00255277
0.0025972
0.00266451
0.00275764
0.00290589
0.00310641
0.00308751
0.00224238
0.00224038
0.00277929
0.00369337
0.00393776
0.00388062
0.00386499
0.00388077
0.00370768
0.00346804
0.00343711
0.00347128
0.0035431
0.00354366
0.003504
0.00348576
0.00350523
0.003626
0.00380825
0.00388156
0.00390757
0.00396933
0.0041203
0.0042885
0.00436063
0.00252098
0.00254296
0.00258098
0.00263831
0.00272628
0.00285495
0.00304951
0.00320839
0.0025792
0.00220074
0.00243401
0.00327819
0.00385483
0.00389822
0.0039034
0.00393031
0.00375928
0.00341751
0.00332274
0.00331185
0.00334844
0.00340512
0.00340765
0.00340811
0.00343467
0.00352273
0.0036673
0.00375314
0.00378468
0.00384923
0.00400581
0.00419184
0.00434605
0.00251631
0.00253698
0.00257118
0.00262011
0.00270206
0.00282637
0.003019
0.0032257
0.0029823
0.00225584
0.00227192
0.00284869
0.00370748
0.0039081
0.00395599
0.0039874
0.0038439
0.00341754
0.00325251
0.00320522
0.00319872
0.00324779
0.00327941
0.00328624
0.00331837
0.00341524
0.00356778
0.0036812
0.00373077
0.003802
0.0039571
0.00412507
0.00426287
0.00251449
0.00253438
0.00256686
0.00261207
0.00268959
0.00280742
0.00299489
0.0032563
0.00328017
0.00249237
0.00221892
0.00250986
0.00344289
0.00389798
0.00398697
0.00401429
0.0039118
0.00345009
0.00318317
0.00310379
0.00308056
0.00309035
0.00316412
0.00322167
0.00324587
0.0033084
0.0034604
0.00364522
0.00373029
0.00379727
0.00393845
0.00411841
0.00424091
0.00251328
0.0025319
0.00256236
0.00260823
0.00268344
0.00279753
0.00298258
0.00327013
0.00341816
0.0028961
0.00224528
0.00233092
0.00307983
0.00383817
0.00398297
0.00402283
0.00396258
0.00356728
0.00317079
0.00302776
0.00296191
0.00295184
0.00298955
0.00308888
0.00317486
0.00324736
0.00335491
0.00354604
0.00373675
0.00386091
0.00400483
0.00418295
0.00426504
0.00251413
0.00253102
0.00256042
0.00260666
0.00268194
0.00279356
0.0029776
0.00326828
0.00350046
0.00322922
0.00237549
0.00224471
0.00270665
0.00368497
0.00395849
0.00400064
0.00396545
0.00367681
0.00329403
0.00306929
0.00292197
0.00287626
0.00287424
0.0029325
0.0030486
0.00316701
0.00327978
0.00344001
0.00367797
0.00391564
0.00416744
0.00429016
0.00439961
0.002516
0.00253191
0.00255972
0.00260484
0.00268001
0.00278909
0.00297338
0.00324741
0.00359476
0.00348101
0.00270086
0.00223861
0.00243374
0.00340991
0.00389189
0.00392029
0.00389356
0.00368503
0.00341721
0.00320306
0.0029906
0.00283667
0.00280227
0.00280197
0.00286298
0.00298704
0.00315058
0.00332238
0.00355239
0.0038513
0.00416228
0.00434545
0.00452218
0.00251925
0.00253526
0.00256198
0.00260384
0.00267838
0.00278415
0.00296715
0.0032175
0.00361585
0.0036127
0.00309326
0.00230464
0.00228984
0.00303213
0.00378564
0.00380684
0.00370306
0.00359291
0.00348107
0.00332333
0.00319314
0.00296738
0.00280647
0.00275711
0.00275008
0.00278585
0.00288973
0.00306188
0.0032953
0.0036503
0.00405608
0.00430582
0.00451237
0.00252632
0.00254081
0.00256635
0.00260607
0.00267605
0.0027766
0.00295685
0.00318448
0.00356899
0.00376196
0.00348175
0.00250411
0.00223629
0.00261366
0.00356181
0.00374149
0.00361686
0.00346026
0.00340813
0.00335521
0.00329066
0.00323487
0.00305666
0.00286322
0.00276084
0.00273343
0.00273934
0.00280286
0.00293265
0.00318009
0.00363387
0.00412495
0.00443076
0.00253881
0.00254993
0.00257257
0.00261235
0.00267811
0.00277066
0.00294157
0.00316154
0.00341432
0.00387425
0.00376638
0.00290993
0.0022491
0.0023194
0.00310709
0.00369401
0.00360636
0.00342963
0.00330219
0.00325415
0.00324111
0.0032816
0.00329375
0.00321243
0.00305821
0.00287649
0.00276481
0.00274035
0.00275398
0.00283738
0.00303581
0.00347336
0.00413951
0.00255567
0.00256457
0.00258337
0.0026189
0.00268366
0.00277128
0.00292893
0.00313466
0.0033253
0.00384734
0.00393083
0.00341092
0.00235365
0.00220635
0.00265125
0.00356941
0.00361689
0.00345857
0.00329836
0.00315046
0.00310474
0.00310652
0.00323754
0.00333794
0.00334582
0.00329536
0.00315034
0.00292071
0.00277863
0.00274117
0.0027883
0.00294655
0.00333935
0.00257359
0.00258289
0.0026004
0.00263257
0.00269184
0.00277534
0.00292545
0.00310698
0.00328438
0.00364019
0.00399308
0.00382011
0.00266813
0.00219904
0.00234759
0.0031293
0.00361489
0.00352613
0.00337611
0.00318138
0.00300316
0.00292656
0.00293815
0.0030907
0.0033455
0.00343811
0.00345011
0.00341797
0.00324738
0.0029119
0.00275212
0.00278118
0.00291725
0.00259247
0.00260479
0.00262458
0.0026592
0.00271601
0.00279314
0.00292663
0.00308862
0.00324611
0.00344643
0.00396384
0.00398873
0.0032253
0.00224407
0.00216966
0.00260314
0.00348813
0.00356206
0.00348369
0.00331613
0.00306921
0.00283414
0.0027246
0.00271918
0.00284802
0.00321448
0.00345925
0.0035241
0.00354069
0.00352096
0.002942
0.0027887
0.002813
0.00261486
0.0026317
0.0026558
0.00269406
0.00274895
0.00282848
0.00294969
0.00308492
0.00320105
0.00335402
0.0038656
0.00407302
0.00368456
0.00241781
0.00213045
0.0023043
0.00298775
0.00352499
0.00353138
0.00344576
0.00325534
0.00293204
0.00264715
0.00251121
0.00249203
0.00260546
0.00304369
0.00342304
0.00354224
0.00357854
0.00354742
0.00293144
0.00282178
0.00263706
0.00265927
0.00268845
0.002732
0.00279002
0.00287554
0.00298413
0.00309077
0.00318485
0.0032969
0.00367499
0.00409898
0.00396063
0.00280684
0.00214906
0.00214384
0.00247496
0.00322324
0.0035053
0.00348528
0.00337922
0.00314259
0.00275698
0.00243537
0.00230798
0.00228979
0.00241922
0.00289631
0.0033663
0.00354636
0.00361462
0.00340478
0.00291629
0.0026539
0.00268483
0.00272359
0.00277681
0.00284003
0.00293345
0.00303389
0.00310857
0.00317751
0.0032725
0.00351007
0.00407302
0.00409845
0.00323832
0.00222373
0.0020622
0.00220704
0.00264091
0.00326508
0.00344804
0.00339911
0.00323833
0.00293286
0.00250225
0.00222327
0.00213134
0.00212334
0.00232335
0.0029001
0.00338272
0.00355087
0.00356815
0.00318583
0.00267168
0.00271212
0.00276208
0.00282317
0.00289819
0.00300025
0.00309096
0.00314418
0.0031792
0.00325811
0.00344468
0.00400395
0.00416334
0.00366475
0.00237796
0.00205877
0.00207821
0.0022828
0.00271361
0.00316894
0.00332367
0.00322993
0.00297469
0.00259354
0.00221752
0.00205031
0.00199987
0.00206212
0.00237704
0.00306084
0.00344064
0.00357793
0.00347012
0.00268833
0.00273776
0.00280072
0.00287117
0.00296087
0.00307236
0.00315114
0.00318483
0.00320791
0.00326004
0.00341237
0.00394586
0.00419068
0.00393542
0.00267641
0.00208764
0.00201337
0.00210923
0.00233769
0.00264102
0.00296507
0.00307413
0.00289845
0.00257239
0.00221014
0.00201048
0.00194761
0.00195692
0.00213765
0.0026383
0.00322345
0.00353786
0.00353671
0.00270531
0.00276352
0.00283817
0.00292063
0.00302675
0.00314695
0.00321415
0.00323464
0.00324862
0.003283
0.00339724
0.00386997
0.00422964
0.00411773
0.00312695
0.00219953
0.00201379
0.00202417
0.00214136
0.00232161
0.00252533
0.00268452
0.00262258
0.00241612
0.0021595
0.00199315
0.0019242
0.00193331
0.00203962
0.00237932
0.00296559
0.00343669
0.00352861
0.00272435
0.00278863
0.00287341
0.00296988
0.00309276
0.00321298
0.00327583
0.00329333
0.00329893
0.00332148
0.00341432
0.00374559
0.00424634
0.00422647
0.00363309
0.00246076
0.002053
0.00199203
0.00203513
0.00214756
0.00227359
0.00239096
0.00237885
0.00226183
0.0021018
0.00198737
0.00192639
0.00194014
0.00202326
0.00227301
0.00279527
0.00330673
0.00349788
0.00274466
0.00281644
0.00290881
0.00302194
0.00315181
0.00326923
0.00333686
0.00335786
0.00335513
0.00336408
0.00343812
0.00371681
0.00426222
0.00428794
0.00393138
0.00290367
0.0021919
0.00200192
0.00198191
0.00203393
0.0021327
0.00222444
0.00224037
0.00217535
0.00208814
0.00200045
0.00195924
0.00199438
0.0020748
0.0022589
0.00271016
0.0032024
0.00346148
0.00276753
0.0028465
0.00294803
0.00307311
0.00321017
0.0033179
0.0033892
0.00341919
0.00341741
0.00340581
0.00346218
0.00373479
0.00427477
0.00433394
0.00409594
0.00331598
0.00248373
0.00206604
0.0019809
0.00198795
0.00205581
0.0021527
0.00219455
0.00216959
0.00210438
0.00205986
0.00207398
0.00212192
0.00217903
0.00234122
0.0028158
0.00320633
0.00344216
0.0027929
0.00288045
0.00299649
0.00312698
0.00325508
0.00335218
0.00342233
0.00346588
0.00346957
0.00345199
0.00349151
0.00375953
0.00430367
0.00437498
0.00418281
0.00360341
0.00283175
0.00226541
0.0020386
0.00200842
0.00206578
0.00215802
0.00220998
0.00222116
0.00222751
0.0022478
0.00223323
0.00224
0.00231647
0.00259552
0.00311604
0.00330566
0.00343991
0.00281969
0.00291799
0.00305204
0.00318982
0.0033011
0.00338504
0.00344605
0.00349221
0.00350692
0.00349193
0.00351742
0.00376609
0.00434079
0.00440655
0.00422258
0.00378528
0.0031668
0.00263977
0.00227852
0.00215299
0.00218431
0.00228754
0.00242476
0.00253105
0.00249976
0.0024145
0.0023819
0.0024565
0.0027437
0.00319613
0.00339104
0.00340802
0.0034186
0.00284479
0.00296013
0.00311471
0.00325138
0.0033533
0.00342275
0.00346941
0.00350728
0.00352829
0.00352375
0.00353596
0.00376368
0.00436947
0.00443524
0.00425308
0.00392321
0.00347607
0.00307186
0.00275872
0.0026116
0.00266681
0.0029039
0.00300469
0.00275077
0.00265435
0.00263696
0.00279716
0.00315239
0.00342261
0.00345118
0.00343334
0.00336661
0.00330738
0.00286662
0.00300441
0.00317371
0.00330735
0.00339782
0.00345925
0.0034943
0.00351591
0.00353517
0.00353986
0.00355099
0.0037591
0.00438198
0.0044649
0.00428431
0.00403997
0.0037429
0.00346753
0.00335715
0.0033844
0.00347494
0.00344245
0.00308052
0.00296168
0.00303069
0.00337811
0.00352125
0.003528
0.0034299
0.00336675
0.00330775
0.00322597
0.00319253
0.00289211
0.00305104
0.00322049
0.00334481
0.00343012
0.00348934
0.0035154
0.00352234
0.00352975
0.00353811
0.00355662
0.00375283
0.00438676
0.00449861
0.00433764
0.00416864
0.00398097
0.00389571
0.00389563
0.00392705
0.0037874
0.00343816
0.00332233
0.0034855
0.00359598
0.00360396
0.00345551
0.00339941
0.00336121
0.00336281
0.00335202
0.00329133
0.00321435
0.0029263
0.00309938
0.00325674
0.00336827
0.00345289
0.00350235
0.00352288
0.00352416
0.00351934
0.00352639
0.00356008
0.00376765
0.00441099
0.00453816
0.00440937
0.0042937
0.00423376
0.00422245
0.00421769
0.00407293
0.00374606
0.00361492
0.00361623
0.00362238
0.00352947
0.0035124
0.00357201
0.00367847
0.00370078
0.00367495
0.0036664
0.00360985
0.00337645
0.00297528
0.00315429
0.00329678
0.00339491
0.00346417
0.00350512
0.00352361
0.00352072
0.00350129
0.00350978
0.00355792
0.00379921
0.00446378
0.00457683
0.00447669
0.00442206
0.00439933
0.00438364
0.00428104
0.00403615
0.00377343
0.00367491
0.00360294
0.00358094
0.00364389
0.00383074
0.00386756
0.00380802
0.00374033
0.00373755
0.00378783
0.00395173
0.00382988
0.00303663
0.00322069
0.00334504
0.00342056
0.00346776
0.00350273
0.00351861
0.00351386
0.00349091
0.00350173
0.00356101
0.00384073
0.00450905
0.00461013
0.00453968
0.00449893
0.00447508
0.00440867
0.00423818
0.00394756
0.00373204
0.00364072
0.00362548
0.00375239
0.00391029
0.0039258
0.00381433
0.00371063
0.00368461
0.00368418
0.00372632
0.00396496
0.00423195
0.00311642
0.00329511
0.00339099
0.00344351
0.00346614
0.00348953
0.00350494
0.00350111
0.00348324
0.00349964
0.00357378
0.00389659
0.0045481
0.00463899
0.00458248
0.00453704
0.00448546
0.00437183
0.00412805
0.00379513
0.00365663
0.00363904
0.00373888
0.00382834
0.00379397
0.00360662
0.0035576
0.0035648
0.0036287
0.00365984
0.00368805
0.00383516
0.00432223
0.00320305
0.00337188
0.0034418
0.0034632
0.00345843
0.00347459
0.0034997
0.00349965
0.00348819
0.00350841
0.00360213
0.00398763
0.004583
0.00466334
0.00460908
0.00453958
0.0044573
0.00427651
0.0039219
0.00368939
0.00364353
0.00368991
0.00377149
0.00373711
0.00348809
0.0033856
0.00336483
0.00336213
0.00341885
0.00359395
0.00368605
0.00375607
0.00397826
0.00328711
0.00344189
0.00348783
0.00347906
0.00344338
0.00346305
0.00350714
0.00351341
0.0035017
0.0035337
0.00366391
0.00409606
0.00462398
0.00467944
0.00460798
0.00452261
0.00437899
0.00408079
0.00375996
0.00366419
0.00366793