/*--------------------------------*- C++ -*----------------------------------*\
  =========                 |
  \\      /  F ield         | OpenFOAM: The Open Source CFD Toolbox
   \\    /   O peration     | Website:  https://openfoam.org
    \\  /    A nd           | Version:  10
     \\/     M anipulation  |
\*---------------------------------------------------------------------------*/
FoamFile
{
    format      ascii;
    class       volVectorField;
    location    "0.298862";
    object      U;
}
// * * * * * * * * * * * * * * * * * * * * * * * * * * * * * * * * * * * * * //

dimensions      [0 1 -1 0 0 0 0];

internalField   nonuniform List<vector> 
16320
(
(-0.0345861 0.0682224 0)
(-0.050443 0.114311 0)
(-0.0275861 0.186216 0)
(0.0169594 0.248072 0)
(0.0660415 0.280555 0)
(0.114149 0.291436 0)
(0.159284 0.288621 0)
(0.201598 0.280931 0)
(0.241604 0.272987 0)
(0.282569 0.265172 0)
(0.325969 0.257659 0)
(0.370864 0.250289 0)
(0.417051 0.241763 0)
(0.465503 0.231782 0)
(0.516426 0.219945 0)
(0.568881 0.20563 0)
(0.621626 0.187494 0)
(0.672557 0.16438 0)
(0.716514 0.134501 0)
(0.745516 0.0960202 0)
(0.752187 0.0481226 0)
(0.732402 -0.00893166 0)
(0.685692 -0.0688788 0)
(0.624619 -0.126229 0)
(0.55425 -0.165991 0)
(0.485852 -0.191247 0)
(0.434105 -0.191448 0)
(0.385377 -0.165071 0)
(0.336519 -0.135537 0)
(0.292069 -0.109303 0)
(0.254561 -0.0854698 0)
(0.222961 -0.06218 0)
(0.19281 -0.0370467 0)
(-0.0229936 0.103953 0)
(-0.0134411 0.149995 0)
(-0.00289908 0.197694 0)
(0.0332863 0.250726 0)
(0.0806121 0.283289 0)
(0.128097 0.295806 0)
(0.174737 0.295915 0)
(0.220887 0.290206 0)
(0.265687 0.283243 0)
(0.311449 0.275752 0)
(0.36022 0.267534 0)
(0.411093 0.258607 0)
(0.463552 0.24876 0)
(0.517879 0.237537 0)
(0.573949 0.224073 0)
(0.63132 0.20755 0)
(0.688893 0.186915 0)
(0.74385 0.16085 0)
(0.789955 0.127289 0)
(0.820584 0.0844724 0)
(0.827921 0.0341974 0)
(0.803924 -0.0214342 0)
(0.74972 -0.0802446 0)
(0.683184 -0.134633 0)
(0.610483 -0.170733 0)
(0.540013 -0.183978 0)
(0.490791 -0.176324 0)
(0.444598 -0.14994 0)
(0.38909 -0.117875 0)
(0.334054 -0.0848982 0)
(0.28627 -0.0529105 0)
(0.247602 -0.0204856 0)
(0.210457 0.0146428 0)
(-0.0481589 0.113804 0)
(-0.01205 0.176265 0)
(0.0167764 0.218456 0)
(0.0500976 0.258777 0)
(0.0924852 0.288761 0)
(0.138142 0.301946 0)
(0.18564 0.303595 0)
(0.23468 0.299171 0)
(0.284239 0.292344 0)
(0.335476 0.284983 0)
(0.390019 0.276915 0)
(0.447263 0.267884 0)
(0.50623 0.257562 0)
(0.566659 0.244999 0)
(0.62821 0.229552 0)
(0.690035 0.210435 0)
(0.750414 0.186956 0)
(0.805784 0.157778 0)
(0.849152 0.121272 0)
(0.87458 0.0776369 0)
(0.874216 0.0274895 0)
(0.838395 -0.0281241 0)
(0.773947 -0.0861929 0)
(0.704108 -0.133082 0)
(0.636103 -0.156548 0)
(0.574165 -0.161711 0)
(0.531556 -0.15077 0)
(0.490337 -0.126789 0)
(0.433425 -0.0941462 0)
(0.370984 -0.0564044 0)
(0.314282 -0.0163886 0)
(0.267335 0.0267326 0)
(0.221787 0.0664827 0)
(-0.101849 0.0929683 0)
(-0.0523489 0.178506 0)
(-0.000188823 0.232831 0)
(0.0419543 0.269204 0)
(0.0872147 0.294955 0)
(0.134184 0.306395 0)
(0.184196 0.307568 0)
(0.237089 0.303217 0)
(0.291823 0.29649 0)
(0.348762 0.289067 0)
(0.408689 0.280744 0)
(0.470945 0.271069 0)
(0.534471 0.259778 0)
(0.598648 0.246125 0)
(0.662714 0.229451 0)
(0.725531 0.208961 0)
(0.784682 0.184035 0)
(0.835321 0.153367 0)
(0.871663 0.11549 0)
(0.888074 0.0711058 0)
(0.875056 0.0210099 0)
(0.827079 -0.0341426 0)
(0.759411 -0.0863275 0)
(0.700144 -0.119686 0)
(0.645003 -0.136499 0)
(0.594246 -0.14045 0)
(0.561453 -0.127438 0)
(0.525107 -0.103167 0)
(0.469029 -0.0693021 0)
(0.40363 -0.0274312 0)
(0.341913 0.0194227 0)
(0.288447 0.0674865 0)
(0.238538 0.11161 0)
(-0.186964 0.0624952 0)
(-0.126646 0.163758 0)
(-0.0642431 0.231389 0)
(-0.0083557 0.275024 0)
(0.0526967 0.29865 0)
(0.107052 0.306537 0)
(0.164128 0.305095 0)
(0.224033 0.299738 0)
(0.285584 0.292656 0)
(0.348394 0.285148 0)
(0.413045 0.276741 0)
(0.479293 0.266795 0)
(0.546108 0.255134 0)
(0.612349 0.241261 0)
(0.676863 0.224547 0)
(0.738123 0.204149 0)
(0.792966 0.179253 0)
(0.836041 0.147767 0)
(0.862474 0.11054 0)
(0.867524 0.0667468 0)
(0.8434 0.016401 0)
(0.791523 -0.036955 0)
(0.735155 -0.0815465 0)
(0.689607 -0.107011 0)
(0.64526 -0.124836 0)
(0.609192 -0.126448 0)
(0.586585 -0.109135 0)
(0.553691 -0.0825209 0)
(0.498834 -0.0458398 0)
(0.432366 0.00128327 0)
(0.366234 0.0532464 0)
(0.308003 0.10685 0)
(0.254161 0.154348 0)
(-0.303967 0.0421406 0)
(-0.240245 0.136914 0)
(-0.166712 0.210474 0)
(-0.0938366 0.257939 0)
(-0.0179679 0.282174 0)
(0.0592575 0.292728 0)
(0.128223 0.29063 0)
(0.198134 0.284787 0)
(0.268434 0.277911 0)
(0.338735 0.270862 0)
(0.409282 0.263185 0)
(0.479919 0.254175 0)
(0.54991 0.243583 0)
(0.618049 0.230931 0)
(0.682767 0.215588 0)
(0.742093 0.196575 0)
(0.791419 0.172406 0)
(0.82746 0.141393 0)
(0.846218 0.104944 0)
(0.841254 0.0616621 0)
(0.8098 0.0100056 0)
(0.762069 -0.0420068 0)
(0.71916 -0.0800773 0)
(0.683538 -0.103227 0)
(0.648875 -0.118318 0)
(0.626117 -0.113611 0)
(0.609742 -0.0921449 0)
(0.57591 -0.0630166 0)
(0.520973 -0.0227675 0)
(0.453277 0.0285384 0)
(0.384844 0.0853948 0)
(0.323027 0.142699 0)
(0.266456 0.191628 0)
(-0.423498 0.0166418 0)
(-0.3546 0.0866125 0)
(-0.26462 0.15071 0)
(-0.172914 0.200444 0)
(-0.0835373 0.232119 0)
(0.00562081 0.249362 0)
(0.0984433 0.253395 0)
(0.177953 0.250643 0)
(0.257262 0.246776 0)
(0.334943 0.242168 0)
(0.410996 0.236644 0)
(0.485299 0.229853 0)
(0.557127 0.221581 0)
(0.625393 0.211332 0)
(0.68852 0.198523 0)
(0.743684 0.182245 0)
(0.786681 0.159637 0)
(0.815601 0.131301 0)
(0.826883 0.0951935 0)
(0.813557 0.050252 0)
(0.778523 -0.00155996 0)
(0.738976 -0.0485934 0)
(0.70792 -0.0806567 0)
(0.678748 -0.103109 0)
(0.653156 -0.112117 0)
(0.640198 -0.0991017 0)
(0.624602 -0.0762456 0)
(0.588701 -0.0450192 0)
(0.533483 -0.000283954 0)
(0.464512 0.0554453 0)
(0.395184 0.116452 0)
(0.331257 0.174102 0)
(0.274012 0.221949 0)
(-0.405803 -0.0231748 0)
(-0.345409 0.0170837 0)
(-0.265959 0.0653636 0)
(-0.177393 0.111992 0)
(-0.0885812 0.148353 0)
(0.00660372 0.174606 0)
(0.104668 0.18922 0)
(0.188294 0.195832 0)
(0.271431 0.19894 0)
(0.351869 0.199811 0)
(0.429194 0.199181 0)
(0.50308 0.196939 0)
(0.572666 0.192797 0)
(0.636937 0.186331 0)
(0.694513 0.176676 0)
(0.741652 0.162219 0)
(0.775962 0.140275 0)
(0.795484 0.112032 0)
(0.796005 0.0743157 0)
(0.775172 0.0269442 0)
(0.742623 -0.0221034 0)
(0.714372 -0.0607005 0)
(0.690956 -0.0871824 0)
(0.668792 -0.105374 0)
(0.655742 -0.104506 0)
(0.647525 -0.0872988 0)
(0.627316 -0.0632951 0)
(0.589708 -0.0282748 0)
(0.53411 0.0215043 0)
(0.465526 0.0816564 0)
(0.396414 0.145223 0)
(0.331516 0.198413 0)
(0.276732 0.241825 0)
(-0.267229 -0.0740584 0)
(-0.209457 -0.0450776 0)
(-0.14695 -0.00793872 0)
(-0.0851465 0.0328269 0)
(-0.0120711 0.0729008 0)
(0.0714567 0.105091 0)
(0.152275 0.127248 0)
(0.231945 0.144097 0)
(0.311369 0.155837 0)
(0.389137 0.164222 0)
(0.464164 0.170363 0)
(0.535429 0.174199 0)
(0.601603 0.175331 0)
(0.660869 0.173121 0)
(0.710813 0.166003 0)
(0.747647 0.150511 0)
(0.770996 0.126742 0)
(0.779022 0.0934745 0)
(0.767548 0.0492782 0)
(0.741034 -0.00103285 0)
(0.71466 -0.0437656 0)
(0.694505 -0.0737854 0)
(0.676083 -0.0951683 0)
(0.661935 -0.103215 0)
(0.654674 -0.094233 0)
(0.644412 -0.0768977 0)
(0.621093 -0.0502497 0)
(0.581289 -0.00965296 0)
(0.524251 0.0449663 0)
(0.457087 0.107331 0)
(0.388586 0.167444 0)
(0.323042 0.212003 0)
(0.27447 0.246369 0)
(-0.12636 -0.130396 0)
(-0.0833171 -0.0946318 0)
(-0.0379305 -0.0521788 0)
(0.0176173 -0.0123105 0)
(0.0817549 0.0202097 0)
(0.147818 0.0478405 0)
(0.216798 0.0719358 0)
(0.288501 0.092626 0)
(0.361816 0.109793 0)
(0.435125 0.124012 0)
(0.506781 0.135612 0)
(0.575498 0.144577 0)
(0.639357 0.150336 0)
(0.695272 0.151617 0)
(0.738118 0.145425 0)
(0.765882 0.128534 0)
(0.777851 0.101803 0)
(0.770812 0.0625377 0)
(0.747447 0.0127662 0)
(0.720828 -0.0322738 0)
(0.700259 -0.0627318 0)
(0.681578 -0.0844963 0)
(0.665917 -0.0964246 0)
(0.656768 -0.0939241 0)
(0.64875 -0.081533 0)
(0.633722 -0.0618206 0)
(0.606975 -0.0311127 0)
(0.563785 0.0146784 0)
(0.505378 0.0707554 0)
(0.440042 0.12991 0)
(0.371735 0.17818 0)
(0.307966 0.210648 0)
(0.267371 0.229586 0)
(-0.00640605 -0.209 0)
(0.0244162 -0.174425 0)
(0.0603562 -0.131844 0)
(0.104174 -0.0854358 0)
(0.155206 -0.0450571 0)
(0.211684 -0.0113023 0)
(0.272701 0.0184349 0)
(0.336704 0.0440374 0)
(0.402505 0.0654309 0)
(0.469059 0.0834426 0)
(0.535159 0.0984282 0)
(0.599344 0.110005 0)
(0.659216 0.117268 0)
(0.710176 0.118652 0)
(0.746978 0.111211 0)
(0.767923 0.0944974 0)
(0.769883 0.0646153 0)
(0.75056 0.0213772 0)
(0.722425 -0.0219934 0)
(0.701749 -0.0506165 0)
(0.683031 -0.069453 0)
(0.666158 -0.0828297 0)
(0.655813 -0.083655 0)
(0.647403 -0.0757197 0)
(0.635592 -0.0615159 0)
(0.616831 -0.0388985 0)
(0.58601 -0.00350336 0)
(0.538985 0.043343 0)
(0.480252 0.0959329 0)
(0.415104 0.1435 0)
(0.345642 0.172331 0)
(0.286541 0.182421 0)
(0.251278 0.175921 0)
(0.0790817 -0.312041 0)
(0.116422 -0.285743 0)
(0.151927 -0.245367 0)
(0.1884 -0.196622 0)
(0.228359 -0.146276 0)
(0.272771 -0.0971086 0)
(0.321623 -0.052437 0)
(0.374191 -0.0135436 0)
(0.429952 0.019685 0)
(0.488154 0.0468158 0)
(0.546502 0.0675464 0)
(0.602648 0.0823778 0)
(0.653891 0.0910817 0)
(0.695388 0.0909074 0)
(0.723062 0.0825944 0)
(0.733356 0.0638967 0)
(0.723364 0.0291835 0)
(0.700101 -0.0117888 0)
(0.681078 -0.0403973 0)
(0.666497 -0.0557663 0)
(0.65174 -0.0626697 0)
(0.643117 -0.0647768 0)
(0.638219 -0.0593386 0)
(0.629166 -0.049766 0)
(0.615736 -0.0332296 0)
(0.594078 -0.00699454 0)
(0.558745 0.0304459 0)
(0.508659 0.0730931 0)
(0.448226 0.114024 0)
(0.378238 0.137521 0)
(0.305275 0.134129 0)
(0.249209 0.107465 0)
(0.219094 0.0703492 0)
(0.142068 -0.410768 0)
(0.185992 -0.399558 0)
(0.224898 -0.373345 0)
(0.261065 -0.333418 0)
(0.297066 -0.283569 0)
(0.334526 -0.228009 0)
(0.374177 -0.170769 0)
(0.4162 -0.11423 0)
(0.460476 -0.0621529 0)
(0.506338 -0.0171146 0)
(0.552771 0.0193438 0)
(0.598222 0.0460897 0)
(0.637307 0.0621506 0)
(0.666436 0.0663258 0)
(0.681151 0.0573441 0)
(0.673072 0.0328144 0)
(0.650323 -0.00265408 0)
(0.633062 -0.0318002 0)
(0.624335 -0.0478628 0)
(0.6206 -0.0529275 0)
(0.615914 -0.0464571 0)
(0.612728 -0.0366558 0)
(0.610621 -0.0285636 0)
(0.602795 -0.0167218 0)
(0.588478 0.00396401 0)
(0.563925 0.0315604 0)
(0.525501 0.0644952 0)
(0.469681 0.0958061 0)
(0.399783 0.110835 0)
(0.317168 0.0955209 0)
(0.240942 0.0493246 0)
(0.190769 -0.0155934 0)
(0.16738 -0.0777142 0)
(0.179535 -0.497759 0)
(0.227757 -0.504427 0)
(0.271323 -0.496719 0)
(0.312284 -0.473515 0)
(0.351784 -0.435649 0)
(0.390473 -0.385845 0)
(0.428957 -0.326819 0)
(0.466488 -0.262858 0)
(0.502265 -0.197288 0)
(0.536891 -0.134554 0)
(0.569964 -0.0783253 0)
(0.600166 -0.0324775 0)
(0.623061 0.000495744 0)
(0.632196 0.0185445 0)
(0.62275 0.0152287 0)
(0.597509 -0.00623329 0)
(0.574497 -0.0300666 0)
(0.565212 -0.0444202 0)
(0.56555 -0.0472671 0)
(0.570224 -0.0395304 0)
(0.574878 -0.0244541 0)
(0.576897 -0.00576245 0)
(0.575346 0.00624244 0)
(0.568203 0.0234374 0)
(0.5527 0.0446296 0)
(0.52591 0.0682273 0)
(0.48173 0.08967 0)
(0.410281 0.0962537 0)
(0.320509 0.072118 0)
(0.228657 0.0151536 0)
(0.162145 -0.068957 0)
(0.133785 -0.149683 0)
(0.126174 -0.204329 0)
(0.197405 -0.573575 0)
(0.247283 -0.594198 0)
(0.293575 -0.600891 0)
(0.339463 -0.591903 0)
(0.385207 -0.567259 0)
(0.430562 -0.528261 0)
(0.473604 -0.476798 0)
(0.513004 -0.416418 0)
(0.54821 -0.349688 0)
(0.57758 -0.280211 0)
(0.600755 -0.211804 0)
(0.616447 -0.149352 0)
(0.619407 -0.0979246 0)
(0.603519 -0.0636728 0)
(0.568337 -0.0497228 0)
(0.528014 -0.0515714 0)
(0.503552 -0.0562787 0)
(0.501016 -0.0529364 0)
(0.509753 -0.0410056 0)
(0.521036 -0.0208446 0)
(0.53152 0.00309474 0)
(0.536247 0.0271832 0)
(0.534543 0.0450347 0)
(0.528365 0.0632976 0)
(0.511642 0.0799409 0)
(0.478563 0.0951447 0)
(0.415376 0.0922874 0)
(0.317966 0.0608851 0)
(0.215597 0.00440708 0)
(0.137816 -0.0805937 0)
(0.107493 -0.178649 0)
(0.10544 -0.250876 0)
(0.110254 -0.283922 0)
(0.201122 -0.642093 0)
(0.250977 -0.671651 0)
(0.299019 -0.685344 0)
(0.349212 -0.681924 0)
(0.400961 -0.662485 0)
(0.45265 -0.628915 0)
(0.501632 -0.584751 0)
(0.544838 -0.53072 0)
(0.581502 -0.470417 0)
(0.611433 -0.406204 0)
(0.632091 -0.339259 0)
(0.639354 -0.272632 0)
(0.626373 -0.211731 0)
(0.587017 -0.162299 0)
(0.528725 -0.128835 0)
(0.473742 -0.1052 0)
(0.447816 -0.0852413 0)
(0.448899 -0.0603657 0)
(0.46156 -0.0328166 0)
(0.475733 -0.000653944 0)
(0.487829 0.0321601 0)
(0.492594 0.0608538 0)
(0.491536 0.0810649 0)
(0.483743 0.0963498 0)
(0.460661 0.10541 0)
(0.408877 0.0983849 0)
(0.31391 0.0581216 0)
(0.201818 -6.05454e-05 0)
(0.117633 -0.0684007 0)
(0.0820218 -0.1696 0)
(0.0895373 -0.265941 0)
(0.100984 -0.323531 0)
(0.109533 -0.338072 0)
(0.19268 -0.707832 0)
(0.242516 -0.741613 0)
(0.293378 -0.756047 0)
(0.348678 -0.751085 0)
(0.406255 -0.729651 0)
(0.462545 -0.695392 0)
(0.515387 -0.651251 0)
(0.56185 -0.599973 0)
(0.599291 -0.542701 0)
(0.629173 -0.483993 0)
(0.64958 -0.423715 0)
(0.653282 -0.362545 0)
(0.63076 -0.302999 0)
(0.57661 -0.249024 0)
(0.503255 -0.201134 0)
(0.438715 -0.154791 0)
(0.409836 -0.110472 0)
(0.408338 -0.0651177 0)
(0.420762 -0.0228714 0)
(0.435293 0.01999 0)
(0.444442 0.0615847 0)
(0.446884 0.0927777 0)
(0.443603 0.111798 0)
(0.429178 0.118212 0)
(0.386805 0.107596 0)
(0.302872 0.0639187 0)
(0.187423 -0.0018593 0)
(0.0959042 -0.0585253 0)
(0.0557969 -0.135151 0)
(0.0681048 -0.25213 0)
(0.0924761 -0.337951 0)
(0.105356 -0.379361 0)
(0.112631 -0.380887 0)
(0.172954 -0.772931 0)
(0.224665 -0.806559 0)
(0.280597 -0.817081 0)
(0.342005 -0.80588 0)
(0.404543 -0.778007 0)
(0.465175 -0.738064 0)
(0.520641 -0.68898 0)
(0.568162 -0.635129 0)
(0.605308 -0.577955 0)
(0.632795 -0.520769 0)
(0.650652 -0.463816 0)
(0.650751 -0.407645 0)
(0.621795 -0.353006 0)
(0.559956 -0.300712 0)
(0.481807 -0.246437 0)
(0.415324 -0.186353 0)
(0.383005 -0.124396 0)
(0.37659 -0.0642396 0)
(0.385328 -0.00959302 0)
(0.39753 0.0407287 0)
(0.401579 0.0876726 0)
(0.396755 0.117403 0)
(0.384206 0.129285 0)
(0.349627 0.115981 0)
(0.276243 0.0711524 0)
(0.171137 0.00482985 0)
(0.0723656 -0.0533178 0)
(0.0265411 -0.102856 0)
(0.0355015 -0.206482 0)
(0.075932 -0.32341 0)
(0.0970957 -0.393326 0)
(0.105268 -0.421117 0)
(0.111296 -0.414003 0)
(0.143919 -0.835866 0)
(0.20086 -0.862474 0)
(0.264619 -0.863131 0)
(0.333142 -0.842489 0)
(0.400466 -0.806069 0)
(0.46363 -0.758511 0)
(0.519281 -0.704567 0)
(0.565023 -0.646934 0)
(0.598884 -0.588315 0)
(0.622872 -0.530329 0)
(0.636824 -0.47355 0)
(0.631891 -0.418911 0)
(0.597167 -0.367508 0)
(0.532977 -0.317041 0)
(0.457451 -0.26021 0)
(0.394996 -0.194404 0)
(0.360905 -0.123686 0)
(0.349133 -0.0551506 0)
(0.351535 0.00723878 0)
(0.35666 0.0620586 0)
(0.349605 0.105494 0)
(0.331787 0.125565 0)
(0.299322 0.11977 0)
(0.231231 0.077034 0)
(0.143472 0.014177 0)
(0.048153 -0.0443775 0)
(-0.0050513 -0.0775673 0)
(-0.00419523 -0.145238 0)
(0.0458319 -0.276818 0)
(0.0820123 -0.375583 0)
(0.093792 -0.429869 0)
(0.0979052 -0.448443 0)
(0.102611 -0.435595 0)
(0.1125 -0.883958 0)
(0.17985 -0.897727 0)
(0.250257 -0.886799 0)
(0.322327 -0.857194 0)
(0.391056 -0.813597 0)
(0.452989 -0.760934 0)
(0.50589 -0.703224 0)
(0.548326 -0.642727 0)
(0.578142 -0.581689 0)
(0.597765 -0.521889 0)
(0.607169 -0.463883 0)
(0.596535 -0.408952 0)
(0.556726 -0.358132 0)
(0.493036 -0.306983 0)
(0.423838 -0.248544 0)
(0.368426 -0.181561 0)
(0.333641 -0.108972 0)
(0.317428 -0.0390481 0)
(0.310139 0.023942 0)
(0.30191 0.074433 0)
(0.277344 0.104066 0)
(0.238881 0.106333 0)
(0.176302 0.0743884 0)
(0.0937378 0.0204776 0)
(0.0189764 -0.028733 0)
(-0.0384223 -0.0583057 0)
(-0.0440405 -0.089432 0)
(-0.00238298 -0.195572 0)
(0.0582487 -0.326826 0)
(0.077501 -0.405811 0)
(0.0839537 -0.451976 0)
(0.084891 -0.467926 0)
(0.0800265 -0.452918 0)
(0.087495 -0.911009 0)
(0.15917 -0.912491 0)
(0.231061 -0.8932 0)
(0.302045 -0.856458 0)
(0.368047 -0.807048 0)
(0.426179 -0.750237 0)
(0.474984 -0.688866 0)
(0.512959 -0.625612 0)
(0.538105 -0.562635 0)
(0.553359 -0.501023 0)
(0.55861 -0.441829 0)
(0.54293 -0.386464 0)
(0.50019 -0.33532 0)
(0.439924 -0.282294 0)
(0.379025 -0.223337 0)
(0.329611 -0.157937 0)
(0.294246 -0.0889246 0)
(0.272468 -0.0235772 0)
(0.24999 0.0336176 0)
(0.221547 0.0696119 0)
(0.171107 0.0742002 0)
(0.109203 0.0574622 0)
(0.0313559 0.0144305 0)
(-0.0282032 -0.0173989 0)
(-0.0729519 -0.0334115 0)
(-0.0810338 -0.0450976 0)
(-0.054839 -0.109337 0)
(0.0123606 -0.241159 0)
(0.0568844 -0.353686 0)
(0.0661008 -0.421119 0)
(0.0680896 -0.464634 0)
(0.0591914 -0.479696 0)
(0.046813 -0.46103 0)
(0.0614169 -0.924789 0)
(0.132082 -0.917088 0)
(0.199827 -0.889354 0)
(0.265948 -0.845442 0)
(0.325668 -0.790192 0)
(0.377105 -0.728602 0)
(0.419829 -0.664004 0)
(0.452296 -0.599058 0)
(0.473025 -0.535115 0)
(0.484863 -0.472769 0)
(0.487016 -0.41326 0)
(0.468458 -0.358343 0)
(0.427026 -0.307712 0)
(0.3734 -0.254364 0)
(0.319668 -0.196556 0)
(0.273677 -0.134739 0)
(0.236176 -0.0730303 0)
(0.200005 -0.0152727 0)
(0.1579 0.0254266 0)
(0.102507 0.0384847 0)
(0.0296204 0.0224095 0)
(-0.0399671 0.00084092 0)
(-0.0959147 -0.0151265 0)
(-0.111411 -0.00720992 0)
(-0.121939 -0.00367329 0)
(-0.0992544 -0.0350567 0)
(-0.0475384 -0.136912 0)
(0.0185268 -0.271861 0)
(0.0471569 -0.364527 0)
(0.0523445 -0.42639 0)
(0.0485526 -0.467652 0)
(0.0342092 -0.47772 0)
(0.0231351 -0.45458 0)
(0.0264552 -0.92906 0)
(0.0925785 -0.913504 0)
(0.151883 -0.876585 0)
(0.207523 -0.824433 0)
(0.257239 -0.762842 0)
(0.299681 -0.69682 0)
(0.334902 -0.630698 0)
(0.36164 -0.565601 0)
(0.379091 -0.502032 0)
(0.389468 -0.440087 0)
(0.391316 -0.381435 0)
(0.373566 -0.328743 0)
(0.336825 -0.280454 0)
(0.290986 -0.229267 0)
(0.242951 -0.174656 0)
(0.195733 -0.118944 0)
(0.146462 -0.0666068 0)
(0.0888969 -0.023368 0)
(0.0254266 -0.00273951 0)
(-0.0547592 -0.00699591 0)
(-0.117007 -0.0143608 0)
(-0.162585 -0.0139034 0)
(-0.167154 0.0120225 0)
(-0.164444 0.0362405 0)
(-0.14696 0.027037 0)
(-0.103813 -0.0399254 0)
(-0.0368252 -0.162774 0)
(0.0163491 -0.284953 0)
(0.0359743 -0.366616 0)
(0.0405589 -0.425343 0)
(0.0340379 -0.46251 0)
(0.0230342 -0.468491 0)
(0.0191502 -0.445307 0)
(-0.021031 -0.924706 0)
(0.0349385 -0.900159 0)
(0.0823864 -0.853321 0)
(0.124736 -0.792139 0)
(0.161887 -0.725641 0)
(0.19393 -0.659354 0)
(0.22194 -0.595496 0)
(0.244753 -0.532777 0)
(0.261536 -0.470722 0)
(0.272963 -0.410236 0)
(0.276598 -0.35362 0)
(0.261987 -0.303979 0)
(0.230176 -0.256696 0)
(0.188686 -0.208323 0)
(0.138814 -0.159718 0)
(0.0802359 -0.111638 0)
(0.00790171 -0.0652514 0)
(-0.0654996 -0.0366938 0)
(-0.138318 -0.0287302 0)
(-0.2014 -0.0290477 0)
(-0.234383 -0.00990158 0)
(-0.234954 0.027488 0)
(-0.213561 0.068092 0)
(-0.196287 0.079031 0)
(-0.157851 0.0415892 0)
(-0.0985852 -0.0525384 0)
(-0.0312057 -0.180278 0)
(0.0111722 -0.287348 0)
(0.0277303 -0.364902 0)
(0.0343731 -0.421305 0)
(0.0323715 -0.454546 0)
(0.0305544 -0.459354 0)
(0.0369744 -0.436947 0)
(-0.0821058 -0.910587 0)
(-0.0407167 -0.874442 0)
(-0.00644002 -0.817169 0)
(0.0207769 -0.752517 0)
(0.0448232 -0.688206 0)
(0.0693777 -0.625737 0)
(0.094759 -0.564265 0)
(0.117511 -0.503017 0)
(0.135211 -0.442174 0)
(0.14761 -0.383159 0)
(0.151541 -0.328423 0)
(0.136684 -0.281801 0)
(0.102081 -0.236138 0)
(0.0535035 -0.191142 0)
(-0.00894717 -0.145764 0)
(-0.0889636 -0.0963304 0)
(-0.165251 -0.0622491 0)
(-0.231885 -0.046881 0)
(-0.288087 -0.035138 0)
(-0.307439 -0.00281749 0)
(-0.304271 0.0428676 0)
(-0.27772 0.0917296 0)
(-0.252056 0.120811 0)
(-0.213591 0.108573 0)
(-0.159872 0.043716 0)
(-0.0907943 -0.0663322 0)
(-0.0294808 -0.188771 0)
(0.00597122 -0.287834 0)
(0.0260527 -0.361978 0)
(0.0377644 -0.417244 0)
(0.044754 -0.448287 0)
(0.0552377 -0.453674 0)
(0.0718931 -0.432792 0)
(-0.154532 -0.883362 0)
(-0.126914 -0.833322 0)
(-0.109977 -0.773657 0)
(-0.0960166 -0.711131 0)
(-0.0764561 -0.649749 0)
(-0.0526915 -0.590004 0)
(-0.0284213 -0.530812 0)
(-0.00942097 -0.472189 0)
(0.0039488 -0.41458 0)
(0.0110731 -0.357263 0)
(0.00849197 -0.302836 0)
(-0.0132274 -0.257497 0)
(-0.0577095 -0.212114 0)
(-0.119574 -0.164768 0)
(-0.196769 -0.115148 0)
(-0.266141 -0.0827526 0)
(-0.325494 -0.0616373 0)
(-0.367227 -0.0362035 0)
(-0.380956 0.00503535 0)
(-0.375027 0.0562769 0)
(-0.34881 0.110317 0)
(-0.314906 0.15096 0)
(-0.274039 0.159899 0)
(-0.220747 0.123049 0)
(-0.156137 0.0390341 0)
(-0.084501 -0.0794893 0)
(-0.0290456 -0.195347 0)
(0.00607467 -0.289926 0)
(0.0305695 -0.367468 0)
(0.0455624 -0.42491 0)
(0.060014 -0.45529 0)
(0.0785419 -0.461737 0)
(0.0965915 -0.442292 0)
(-0.234799 -0.843512 0)
(-0.22271 -0.78591 0)
(-0.215559 -0.725382 0)
(-0.203516 -0.664376 0)
(-0.187962 -0.605971 0)
(-0.170835 -0.550661 0)
(-0.155554 -0.496613 0)
(-0.145886 -0.443064 0)
(-0.139297 -0.388893 0)
(-0.138284 -0.33291 0)
(-0.150196 -0.277073 0)
(-0.17914 -0.227635 0)
(-0.231107 -0.17819 0)
(-0.289082 -0.132679 0)
(-0.34298 -0.0999198 0)
(-0.391508 -0.0696598 0)
(-0.42825 -0.0322943 0)
(-0.446172 0.0137968 0)
(-0.443032 0.0676627 0)
(-0.419141 0.123044 0)
(-0.383662 0.16949 0)
(-0.341426 0.194209 0)
(-0.283832 0.181978 0)
(-0.219474 0.123995 0)
(-0.14865 0.0269386 0)
(-0.0786495 -0.0920719 0)
(-0.0268496 -0.203143 0)
(0.00655399 -0.297877 0)
(0.0292259 -0.382458 0)
(0.0488355 -0.441068 0)
(0.0661185 -0.468911 0)
(0.0834837 -0.470378 0)
(0.0956031 -0.443365 0)
(-0.318794 -0.796327 0)
(-0.31547 -0.735421 0)
(-0.311243 -0.673768 0)
(-0.30426 -0.615767 0)
(-0.295532 -0.564072 0)
(-0.286185 -0.514672 0)
(-0.279996 -0.46537 0)
(-0.278785 -0.414713 0)
(-0.278051 -0.360598 0)
(-0.282436 -0.303961 0)
(-0.298512 -0.246657 0)
(-0.324592 -0.192469 0)
(-0.358543 -0.149859 0)
(-0.397794 -0.111973 0)
(-0.438983 -0.0735059 0)
(-0.476987 -0.0308313 0)
(-0.502599 0.0191617 0)
(-0.50536 0.0747478 0)
(-0.487396 0.129827 0)
(-0.455122 0.178761 0)
(-0.412884 0.212842 0)
(-0.351987 0.219779 0)
(-0.28188 0.188689 0)
(-0.210941 0.115329 0)
(-0.137077 0.0104685 0)
(-0.0700585 -0.106105 0)
(-0.0234821 -0.213558 0)
(0.00699011 -0.309514 0)
(0.0280888 -0.396004 0)
(0.0470397 -0.451847 0)
(0.0624835 -0.469994 0)
(0.0733703 -0.457158 0)
(0.0732201 -0.415135 0)
(-0.397076 -0.74528 0)
(-0.39744 -0.682103 0)
(-0.396138 -0.620386 0)
(-0.394234 -0.567339 0)
(-0.391291 -0.521878 0)
(-0.388262 -0.478321 0)
(-0.388798 -0.434509 0)
(-0.390751 -0.387108 0)
(-0.391344 -0.334868 0)
(-0.397201 -0.282047 0)
(-0.411764 -0.23149 0)
(-0.433213 -0.18359 0)
(-0.461578 -0.134931 0)
(-0.495528 -0.0863493 0)
(-0.528611 -0.0359731 0)
(-0.554234 0.0179908 0)
(-0.561587 0.0727987 0)
(-0.550605 0.127249 0)
(-0.524178 0.177653 0)
(-0.48417 0.218007 0)
(-0.423787 0.237864 0)
(-0.348205 0.22878 0)
(-0.270491 0.182188 0)
(-0.195232 0.0992657 0)
(-0.119836 -0.00898318 0)
(-0.0570856 -0.120691 0)
(-0.0160413 -0.223046 0)
(0.00912758 -0.317572 0)
(0.0259493 -0.405912 0)
(0.0425837 -0.452767 0)
(0.0523294 -0.455321 0)
(0.0506583 -0.424252 0)
(0.0329556 -0.370941 0)
(-0.464091 -0.692092 0)
(-0.46423 -0.625349 0)
(-0.464278 -0.564902 0)
(-0.467238 -0.516328 0)
(-0.468305 -0.477464 0)
(-0.4695 -0.441927 0)
(-0.472705 -0.405618 0)
(-0.473591 -0.364938 0)
(-0.473044 -0.319362 0)
(-0.478502 -0.270686 0)
(-0.493413 -0.217872 0)
(-0.517038 -0.163031 0)
(-0.547527 -0.108613 0)
(-0.577781 -0.0534223 0)
(-0.60225 0.00236077 0)
(-0.613785 0.057865 0)
(-0.609695 0.112258 0)
(-0.589773 0.16302 0)
(-0.552928 0.20745 0)
(-0.49503 0.2374 0)
(-0.418104 0.243733 0)
(-0.331717 0.221944 0)
(-0.24916 0.164449 0)
(-0.170347 0.0774737 0)
(-0.094005 -0.0290737 0)
(-0.0380225 -0.133244 0)
(-0.00410426 -0.228297 0)
(0.0134959 -0.320747 0)
(0.0255868 -0.405764 0)
(0.0361518 -0.440514 0)
(0.033908 -0.425507 0)
(0.0169619 -0.376198 0)
(-0.00577441 -0.320531 0)
(-0.515137 -0.636756 0)
(-0.513278 -0.566721 0)
(-0.515104 -0.507418 0)
(-0.519778 -0.463506 0)
(-0.523436 -0.43223 0)
(-0.528373 -0.404248 0)
(-0.534497 -0.377458 0)
(-0.537885 -0.343587 0)
(-0.541383 -0.304085 0)
(-0.551871 -0.258614 0)
(-0.570165 -0.205935 0)
(-0.594352 -0.148309 0)
(-0.622605 -0.0893402 0)
(-0.648467 -0.0302807 0)
(-0.666047 0.0274486 0)
(-0.669363 0.0826691 0)
(-0.654673 0.134937 0)
(-0.618119 0.181556 0)
(-0.561572 0.217784 0)
(-0.487012 0.235726 0)
(-0.396767 0.232746 0)
(-0.303722 0.201206 0)
(-0.217628 0.137467 0)
(-0.135511 0.0518783 0)
(-0.0609483 -0.0474399 0)
(-0.0142233 -0.140773 0)
(0.0101433 -0.228846 0)
(0.0207988 -0.314836 0)
(0.0258611 -0.394188 0)
(0.0243505 -0.416727 0)
(0.00927112 -0.382467 0)
(-0.0187593 -0.32429 0)
(-0.037244 -0.275582 0)
(-0.550379 -0.582036 0)
(-0.545915 -0.50978 0)
(-0.547 -0.45033 0)
(-0.552272 -0.409236 0)
(-0.556201 -0.383821 0)
(-0.566677 -0.366259 0)
(-0.581207 -0.348801 0)
(-0.591384 -0.32333 0)
(-0.604411 -0.290768 0)
(-0.622164 -0.249521 0)
(-0.645254 -0.198475 0)
(-0.672057 -0.141153 0)
(-0.698443 -0.0803283 0)
(-0.718107 -0.0194001 0)
(-0.724079 0.0391825 0)
(-0.711967 0.0940231 0)
(-0.678189 0.143237 0)
(-0.623542 0.18295 0)
(-0.55032 0.207745 0)
(-0.460997 0.217156 0)
(-0.361968 0.206574 0)
(-0.266405 0.167301 0)
(-0.177506 0.10326 0)
(-0.0938481 0.0227572 0)
(-0.0266117 -0.0625096 0)
(0.00953456 -0.143206 0)
(0.0244029 -0.223041 0)
(0.0272022 -0.301138 0)
(0.0216694 -0.374009 0)
(0.00641635 -0.381413 0)
(-0.0251193 -0.330136 0)
(-0.0497376 -0.278369 0)
(-0.0536058 -0.246718 0)
(-0.572358 -0.530455 0)
(-0.563579 -0.455805 0)
(-0.562494 -0.394757 0)
(-0.566031 -0.354086 0)
(-0.57237 -0.332198 0)
(-0.58876 -0.320575 0)
(-0.607337 -0.306195 0)
(-0.623226 -0.286262 0)
(-0.641678 -0.258535 0)
(-0.663714 -0.222951 0)
(-0.689453 -0.178713 0)
(-0.716437 -0.127338 0)
(-0.739807 -0.0707223 0)
(-0.752729 -0.0123515 0)
(-0.748456 0.0430514 0)
(-0.723187 0.0929496 0)
(-0.6751 0.134618 0)
(-0.606798 0.1649 0)
(-0.520879 0.181238 0)
(-0.421423 0.184266 0)
(-0.319074 0.16592 0)
(-0.22211 0.123689 0)
(-0.131777 0.0663382 0)
(-0.0480105 -0.00493532 0)
(0.00543504 -0.0726679 0)
(0.0293048 -0.141214 0)
(0.0332189 -0.212089 0)
(0.0264208 -0.283485 0)
(0.0109799 -0.345745 0)
(-0.0204555 -0.335359 0)
(-0.0598697 -0.279451 0)
(-0.0745495 -0.240766 0)
(-0.0633667 -0.229245 0)
(-0.583585 -0.483346 0)
(-0.570056 -0.406472 0)
(-0.565499 -0.342728 0)
(-0.567922 -0.299988 0)
(-0.573564 -0.279079 0)
(-0.591648 -0.269143 0)
(-0.616152 -0.257578 0)
(-0.635962 -0.24239 0)
(-0.656601 -0.221027 0)
(-0.67894 -0.192944 0)
(-0.70285 -0.1575 0)
(-0.725819 -0.114537 0)
(-0.743682 -0.0657905 0)
(-0.750301 -0.0145011 0)
(-0.739209 0.0345431 0)
(-0.705816 0.0770819 0)
(-0.649342 0.110434 0)
(-0.572405 0.132098 0)
(-0.477401 0.143111 0)
(-0.373095 0.139738 0)
(-0.270349 0.116998 0)
(-0.172046 0.078821 0)
(-0.0812217 0.0265773 0)
(-0.0080487 -0.027162 0)
(0.0286282 -0.0783268 0)
(0.0392793 -0.134606 0)
(0.0325671 -0.196852 0)
(0.0159948 -0.26093 0)
(-0.0110072 -0.307769 0)
(-0.0590693 -0.282224 0)
(-0.092602 -0.235008 0)
(-0.0943108 -0.216543 0)
(-0.0728137 -0.223048 0)
(-0.587169 -0.442687 0)
(-0.56783 -0.363483 0)
(-0.558243 -0.295683 0)
(-0.557858 -0.248413 0)
(-0.56319 -0.223982 0)
(-0.582068 -0.21578 0)
(-0.609157 -0.206282 0)
(-0.632561 -0.195078 0)
(-0.654384 -0.179463 0)
(-0.67633 -0.159117 0)
(-0.696837 -0.132859 0)
(-0.713992 -0.100308 0)
(-0.724727 -0.0623008 0)
(-0.724602 -0.0217109 0)
(-0.707903 0.0176338 0)
(-0.669754 0.0509848 0)
(-0.60864 0.0752152 0)
(-0.525198 0.0906596 0)
(-0.42587 0.0965682 0)
(-0.321469 0.0860241 0)
(-0.217506 0.0606786 0)
(-0.119826 0.0238954 0)
(-0.0381112 -0.0112493 0)
(0.0144302 -0.0395592 0)
(0.0358683 -0.0768786 0)
(0.035383 -0.122897 0)
(0.0177396 -0.176174 0)
(-0.00515092 -0.232176 0)
(-0.0492584 -0.259251 0)
(-0.108059 -0.228184 0)
(-0.125701 -0.200352 0)
(-0.112246 -0.20454 0)
(-0.0859563 -0.221828 0)
(-0.585758 -0.407964 0)
(-0.560104 -0.326356 0)
(-0.543703 -0.254366 0)
(-0.539172 -0.200629 0)
(-0.54264 -0.170643 0)
(-0.560308 -0.160536 0)
(-0.589487 -0.152263 0)
(-0.616631 -0.144894 0)
(-0.64006 -0.134975 0)
(-0.661804 -0.121725 0)
(-0.679699 -0.104513 0)
(-0.69152 -0.0830875 0)
(-0.695469 -0.0579386 0)
(-0.688711 -0.0304327 0)
(-0.667009 -0.00371433 0)
(-0.625802 0.0188785 0)
(-0.560745 0.0356179 0)
(-0.474091 0.0444713 0)
(-0.375939 0.0391689 0)
(-0.272397 0.0190022 0)
(-0.171617 -0.00516694 0)
(-0.0873311 -0.0195898 0)
(-0.0269233 -0.0293044 0)
(0.00869181 -0.047381 0)
(0.0206208 -0.0725917 0)
(0.0100316 -0.106861 0)
(-0.0145085 -0.151415 0)
(-0.0458749 -0.191697 0)
(-0.108143 -0.202432 0)
(-0.158292 -0.181769 0)
(-0.158908 -0.177716 0)
(-0.134339 -0.200701 0)
(-0.105739 -0.216503 0)
(-0.58169 -0.38033 0)
(-0.549796 -0.295215 0)
(-0.525096 -0.219376 0)
(-0.514234 -0.158348 0)
(-0.514672 -0.12121 0)
(-0.529347 -0.106322 0)
(-0.55949 -0.0984558 0)
(-0.590671 -0.0937145 0)
(-0.615948 -0.088193 0)
(-0.638699 -0.0815506 0)
(-0.655749 -0.0725679 0)
(-0.664766 -0.0617658 0)
(-0.664105 -0.0499594 0)
(-0.651918 -0.0373235 0)
(-0.625061 -0.0243925 0)
(-0.578063 -0.0135941 0)
(-0.508347 -0.01103 0)
(-0.42141 -0.0220111 0)
(-0.325756 -0.0445684 0)
(-0.232934 -0.0629152 0)
(-0.15466 -0.0659593 0)
(-0.0938916 -0.0625736 0)
(-0.0512029 -0.0612608 0)
(-0.0287496 -0.0629059 0)
(-0.0254448 -0.0710825 0)
(-0.0411375 -0.0899678 0)
(-0.0669257 -0.118501 0)
(-0.111935 -0.139614 0)
(-0.188589 -0.142807 0)
(-0.2099 -0.142247 0)
(-0.191318 -0.162752 0)
(-0.162514 -0.198624 0)
(-0.134621 -0.205551 0)
(-0.576349 -0.360324 0)
(-0.537838 -0.270563 0)
(-0.504837 -0.191323 0)
(-0.486007 -0.122822 0)
(-0.481525 -0.0772588 0)
(-0.492123 -0.0554439 0)
(-0.522459 -0.045322 0)
(-0.556596 -0.0408324 0)
(-0.585153 -0.0390272 0)
(-0.61071 -0.0386247 0)
(-0.62904 -0.0378991 0)
(-0.637694 -0.0373473 0)
(-0.634356 -0.0381171 0)
(-0.614956 -0.0397013 0)
(-0.57603 -0.0444047 0)
(-0.517884 -0.058205 0)
(-0.44425 -0.0837268 0)
(-0.362574 -0.11327 0)
(-0.286816 -0.13022 0)
(-0.221515 -0.132561 0)
(-0.166955 -0.121087 0)
(-0.126035 -0.105829 0)
(-0.100234 -0.089014 0)
(-0.0902134 -0.0746287 0)
(-0.0961938 -0.0667835 0)
(-0.114544 -0.0681178 0)
(-0.148202 -0.0722886 0)
(-0.209814 -0.0764234 0)
(-0.266761 -0.0910721 0)
(-0.261235 -0.109503 0)
(-0.23042 -0.151091 0)
(-0.200404 -0.193864 0)
(-0.173669 -0.189591 0)