/*--------------------------------*- C++ -*----------------------------------*\
  =========                 |
  \\      /  F ield         | OpenFOAM: The Open Source CFD Toolbox
   \\    /   O peration     | Website:  https://openfoam.org
    \\  /    A nd           | Version:  11
     \\/     M anipulation  |
\*---------------------------------------------------------------------------*/
FoamFile
{
    format      ascii;
    class       volScalarField;
    location    "10";
    object      mag(U);
}
// * * * * * * * * * * * * * * * * * * * * * * * * * * * * * * * * * * * * * //

dimensions      [0 1 -1 0 0 0 0];

internalField   nonuniform List<scalar> 
9600
(
0.967268
0.965073
0.961349
0.956193
0.951281
0.948722
0.94497
0.938707
0.935888
0.935089
0.932696
0.933041
0.935399
0.938915
0.944353
0.952446
0.963487
0.97963
0.988821
1.00223
1.01344
1.01332
1.009
0.997709
0.975149
0.951398
0.928292
0.908311
0.894943
0.891188
0.89458
0.898926
0.898826
0.892343
0.870188
0.824221
0.789578
0.768743
0.757682
0.75844
0.970347
0.96853
0.966868
0.964558
0.9626
0.960179
0.959087
0.958011
0.956543
0.956688
0.957598
0.959846
0.964505
0.971038
0.978075
0.989151
1.0022
1.01534
1.03269
1.04302
1.05536
1.05824
1.05607
1.04925
1.03384
1.01011
0.985823
0.966792
0.957154
0.955272
0.957349
0.968611
0.989079
0.999951
1.00147
0.995712
0.971741
0.935043
0.899645
0.857769
0.969154
0.967772
0.966001
0.964262
0.962101
0.959477
0.958393
0.957396
0.956652
0.95689
0.95808
0.96064
0.965182
0.971707
0.980605
0.989415
1.00404
1.01538
1.03337
1.04517
1.05532
1.0598
1.05797
1.05158
1.03827
1.01694
0.990775
0.967519
0.95419
0.951186
0.954016
0.966385
0.993954
1.01881
1.03194
1.03132
1.01724
0.973086
0.923572
0.873613
0.969087
0.967691
0.965581
0.963862
0.961816
0.959193
0.958242
0.957382
0.956576
0.956917
0.958396
0.961433
0.966007
0.972707
0.982062
0.991097
1.00475
1.01862
1.03373
1.04606
1.05667
1.06144
1.05962
1.05238
1.03923
1.02079
0.997493
0.974565
0.95698
0.947881
0.94768
0.955943
0.979205
1.01182
1.03786
1.04979
1.04556
1.02132
0.981245
0.907193
0.96851
0.967228
0.964932
0.963271
0.961111
0.958979
0.958194
0.95702
0.956722
0.957223
0.958922
0.962207
0.967131
0.973242
0.982879
0.994048
1.00523
1.02027
1.03414
1.04707
1.05717
1.06342
1.0624
1.05439
1.0398
1.02253
1.00168
0.978362
0.958226
0.946986
0.944271
0.949694
0.966951
1.00017
1.03502
1.05944
1.0633
1.05043
1.02129
0.942666
0.968132
0.967023
0.964483
0.962753
0.960965
0.958947
0.957991
0.956851
0.956685
0.957112
0.959197
0.962553
0.968395
0.973709
0.983419
0.99477
1.00698
1.02079
1.03534
1.04884
1.05846
1.06406
1.0642
1.05733
1.04305
1.02475
1.00471
0.983274
0.962665
0.947389
0.939291
0.943192
0.956868
0.9854
1.01977
1.05497
1.07712
1.07556
1.05752
0.989045
0.967344
0.966264
0.96376
0.961822
0.960388
0.958463
0.957436
0.956354
0.956497
0.957172
0.959837
0.962497
0.969212
0.974376
0.984892
0.995577
1.00855
1.02184
1.03679
1.05047
1.06003
1.06483
1.06645
1.06014
1.04712
1.02852
1.00756
0.98604
0.964
0.949354
0.938611
0.939632
0.948537
0.972471
1.00535
1.04296
1.07686
1.08677
1.07872
1.02629
0.966773
0.965681
0.963335
0.961285
0.960068
0.958157
0.95732
0.956112
0.95664
0.957313
0.960462
0.962985
0.969975
0.975354
0.985911
0.996115
1.00977
1.02332
1.03812
1.05139
1.06171
1.06672
1.06843
1.06296
1.05092
1.03349
1.01028
0.990498
0.966879
0.951253
0.935204
0.936614
0.941364
0.961904
0.991562
1.02528
1.06853
1.09161
1.09589
1.05819
0.96585
0.96477
0.962536
0.960494
0.959322
0.957573
0.956825
0.955647
0.956479
0.957163
0.960642
0.963177
0.970538
0.975901
0.987091
0.997358
1.01076
1.02479
1.03972
1.05262
1.06399
1.0693
1.07097
1.06608
1.05419
1.03947
1.01504
0.994989
0.9696
0.953412
0.934322
0.932134
0.934928
0.950671
0.977281
1.01217
1.05351
1.08622
1.10902
1.08
0.965211
0.964132
0.962038
0.959841
0.958747
0.957055
0.956546
0.955417
0.95657
0.957217
0.96102
0.963576
0.971358
0.976771
0.988051
0.998763
1.01189
1.02591
1.0414
1.05449
1.06563
1.07194
1.07309
1.07094
1.0576
1.04468
1.02061
1.00008
0.97288
0.956234
0.934578
0.927492
0.928678
0.938142
0.962532
0.996157
1.03826
1.07148
1.11674
1.09679
0.964246
0.963128
0.96118
0.958968
0.95796
0.956277
0.956144
0.955076
0.956493
0.957058
0.961162
0.963693
0.971773
0.977541
0.98884
0.999909
1.01333
1.02768
1.04291
1.05645
1.06739
1.07525
1.07537
1.07568
1.06248
1.04975
1.02603
1.0062
0.978132
0.959136
0.936674
0.923627
0.923489
0.926925
0.947163
0.975834
1.02244
1.05432
1.11433
1.10835
0.963423
0.962247
0.960599
0.958265
0.957339
0.955426
0.955696
0.954732
0.956541
0.957034
0.961459
0.963916
0.972341
0.978371
0.989704
1.00123
1.01441
1.02969
1.04446
1.05863
1.06909
1.07933
1.07834
1.07958
1.0673
1.05575
1.03223
1.01293
0.984397
0.962098
0.940273
0.919855
0.919122
0.914724
0.933639
0.954183
1.00368
1.03446
1.10168
1.11519
0.962427
0.961082
0.959664
0.957442
0.956665
0.954708
0.955204
0.954205
0.956466
0.956898
0.961677
0.964151
0.972597
0.979546
0.990056
1.00287
1.01552
1.03175
1.04569
1.06221
1.07074
1.0828
1.08212
1.08424
1.07239
1.06183
1.03961
1.01902
0.992435
0.966355
0.945566
0.919772
0.914835
0.903806
0.918869
0.931668
0.979875
1.01072
1.08154
1.11518
0.961428
0.96008
0.958692
0.95651
0.955874
0.953922
0.954679
0.953611
0.956282
0.956562
0.961683
0.964857
0.972284
0.980765
0.990697
1.0041
1.01728
1.03376
1.0473
1.06508
1.0735
1.08623
1.08548
1.08865
1.07927
1.06702
1.04801
1.02586
1.00044
0.972203
0.951083
0.921613
0.914186
0.894941
0.905335
0.91042
0.952408
0.982604
1.05075
1.10517
0.960248
0.958956
0.957645
0.955509
0.955033
0.953185
0.954257
0.953119
0.955955
0.957168
0.96024
0.966656
0.971935
0.981587
0.99225
1.00492
1.01903
1.03565
1.05062
1.06596
1.07921
1.08662
1.09344
1.09086
1.08634
1.07508
1.05423
1.03453
1.01048
0.978853
0.958207
0.925227
0.915106
0.890646
0.894316
0.891369
0.922927
0.952062
1.01055
1.08049
0.95907
0.957711
0.956412
0.954293
0.954026
0.952091
0.953189
0.95332
0.953633
0.958251
0.959702
0.966416
0.972806
0.981628
0.993359
1.00648
1.02064
1.03712
1.05409
1.06774
1.08328
1.09023
1.09734
1.09718
1.09081
1.08301
1.06368
1.04037
1.02087
0.987717
0.966943
0.930498
0.918029
0.889505
0.886339
0.877628
0.89428
0.920913
0.96534
1.04329
0.95791
0.956534
0.955336
0.953181
0.953142
0.951884
0.95117
0.953795
0.953472
0.957353
0.960713
0.965634
0.973854
0.982672
0.994042
1.00782
1.02356
1.03854
1.05731
1.07167
1.08539
1.09655
1.10082
1.10385
1.09828
1.08841
1.07588
1.04902
1.03088
0.996963
0.977096
0.9387
0.923316
0.892064
0.881663
0.868882
0.869793
0.893224
0.919337
0.998578
0.956493
0.954946
0.953685
0.952071
0.950511
0.951517
0.949626
0.952396
0.952755
0.956287
0.96074
0.965766
0.973344
0.983661
0.995378
1.00863
1.02595
1.04158
1.05892
1.07634
1.08802
1.10126
1.10664
1.10774
1.10756
1.0945
1.08564
1.05966
1.04275
1.00726
0.987631
0.948585
0.929691
0.898038
0.88
0.865755
0.851383
0.868691
0.875928
0.950386
0.955399
0.953954
0.951776
0.951441
0.949187
0.95046
0.948898
0.951025
0.953509
0.955066
0.96086
0.966485
0.973972
0.984976
0.997057
1.01114
1.02756
1.04599
1.0618
1.08027
1.09375
1.104
1.11439
1.11312
1.11585
1.1028
1.09636
1.07003
1.05536
1.01975
1.00001
0.961532
0.938139
0.907749
0.880698
0.866925
0.841101
0.850821
0.839397
0.900924
0.95326
0.952345
0.949757
0.949437
0.947103
0.948103
0.948366
0.948245
0.952458
0.954545
0.959512
0.966421
0.974322
0.985265
0.998806
1.01305
1.0302
1.04829
1.06644
1.08262
1.10028
1.10763
1.12038
1.11926
1.12397
1.11092
1.10738
1.08186
1.0683
1.0336
1.0124
0.976073
0.94797
0.921104
0.886085
0.871451
0.837174
0.839261
0.81329
0.856214
0.951584
0.950806
0.948279
0.948101
0.946697
0.945837
0.94827
0.947534
0.950894
0.954789
0.959471
0.965861
0.976581
0.985582
1.00114
1.01487
1.03445
1.05072
1.0721
1.08609
1.10603
1.11338
1.12765
1.12569
1.13326
1.12023
1.11847
1.09488
1.08205
1.05036
1.02672
0.993738
0.958941
0.936302
0.896479
0.880623
0.840941
0.835966
0.801283
0.823341
0.948762
0.947981
0.945179
0.944695
0.944391
0.943013
0.945306
0.946663
0.949004
0.952169
0.959744
0.964661
0.976612
0.986083
1.00352
1.01606
1.03846
1.05308
1.07727
1.09003
1.1122
1.11819
1.13499
1.13258
1.14204
1.13004
1.12975
1.10888
1.09501
1.06823
1.0415
1.01381
0.973213
0.951607
0.909559
0.892578
0.850934
0.840733
0.801487
0.804994
0.947012
0.946411
0.943525
0.942753
0.942282
0.942288
0.943136
0.944632
0.949586
0.95168
0.960356
0.964859
0.979132
0.987216
1.00655
1.01902
1.04318
1.05716
1.08324
1.0947
1.1185
1.1246
1.1423
1.14122
1.15094
1.14234
1.14049
1.12534
1.11001
1.08847
1.05746
1.03639
0.992837
0.970488
0.925879
0.90698
0.864919
0.851526
0.812312
0.801156
0.943329
0.942621
0.940571
0.938297
0.938866
0.938121
0.940892
0.940652
0.946858
0.948684
0.95942
0.963931
0.979286
0.988059
1.00875
1.0214
1.04704
1.06104
1.0879
1.1005
1.12398
1.13131
1.14878
1.14983
1.15876
1.15424
1.1514
1.14256
1.12332
1.11104
1.07629
1.058
1.01422
0.992303
0.9492
0.921704
0.883989
0.864186
0.827773
0.806319
0.942336
0.94002
0.938877
0.936819
0.937303
0.93635
0.939763
0.939437
0.946631
0.94801
0.959075
0.964352
0.980725
0.990372
1.01219
1.02575
1.05121
1.06778
1.09361
1.10769
1.13046
1.13992
1.15577
1.16086
1.16625
1.16934
1.16078
1.16112
1.14048
1.13225
1.10165
1.07836
1.05064
1.00752
0.980477
0.944439
0.906312
0.882706
0.847991
0.819034
0.937841
0.935977
0.933714
0.931857
0.93268
0.931408
0.935911
0.935715
0.943348
0.946538
0.957722
0.965409
0.981094
0.993216
1.01383
1.03121
1.05428
1.07437
1.09854
1.11603
1.13473
1.15003
1.1596
1.17362
1.17232
1.18244
1.17361
1.17508
1.16037
1.14804
1.13285
1.0978
1.07965
1.03914
1.00803
0.973227
0.932824
0.905353
0.876017
0.838961
0.934538
0.933827
0.931991
0.929719
0.931009
0.930222
0.933618
0.937072
0.942039
0.948529
0.958344
0.969762
0.983529
0.999742
1.01811
1.04034
1.06032
1.08475
1.10386
1.12824
1.14097
1.16227
1.16807
1.18473
1.1849
1.19365
1.19042
1.18793
1.18613
1.16521
1.15988
1.12988
1.10869
1.07493
1.03754
1.00901
0.968053
0.931414
0.906408
0.869575
0.928083
0.927948
0.924357
0.924857
0.923801
0.925883
0.927211
0.93239
0.937029
0.946381
0.9544
0.969734
0.982169
1.00361
1.0192
1.04577
1.06434
1.09296
1.10985
1.13594
1.14817
1.17053
1.17693
1.19247
1.19833
1.20096
1.21013
1.19951
1.20636
1.18885
1.18425
1.16247
1.13699
1.11519
1.07646
1.04124
1.0097
0.96574
0.938763
0.899836
0.924402
0.925577
0.922473
0.923202
0.921716
0.926501
0.926632
0.935087
0.937784
0.950977
0.957453
0.975962
0.98827
1.01075
1.02852
1.05441
1.07495
1.10183
1.12129
1.1445
1.16133
1.1761
1.19304
1.19737
1.2142
1.21163
1.22553
1.2176
1.22268
1.21821
1.20536
1.19893
1.17606
1.15333
1.12602
1.08603
1.05437
1.01008
0.984477
0.938968
0.912964
0.91503
0.910413
0.914008
0.911093
0.918593
0.918453
0.929023
0.934728
0.946452
0.959116
0.975288
0.993979
1.01373
1.03789
1.05891
1.0873
1.1083
1.13456
1.1503
1.17489
1.18344
1.20345
1.20805
1.2247
1.22625
1.23251
1.24048
1.23637
1.23946
1.2327
1.22663
1.21461
1.19412
1.17466
1.1357
1.11133
1.06164
1.03635
0.988783
0.909705
0.912474
0.908019
0.911381
0.911516
0.914904
0.923053
0.926552
0.941575
0.949269
0.967428
0.982867
1.00374
1.02438
1.05064
1.07264
1.10047
1.1232
1.14605
1.16562
1.18572
1.19951
1.21141
1.22801
1.2302
1.24558
1.24695
1.25825
1.25777
1.26178
1.26264
1.25591
1.25674
1.23465
1.22897
1.19183
1.17682
1.1269
1.10281
1.05112
0.899138
0.896305
0.89871
0.894377
0.902419
0.901735
0.913717
0.91908
0.933953
0.948003
0.964455
0.985195
1.00667
1.03235
1.0554
1.08372
1.1091
1.13345
1.1547
1.17953
1.18974
1.21103
1.22062
1.23352
1.24193
1.25214
1.26257
1.26493
1.27976
1.27489
1.29249
1.27959
1.29361
1.27398
1.27977
1.25174
1.24152
1.20362
1.18018
1.13092
0.897733
0.894641
0.897853
0.89687
0.902972
0.907972
0.918633
0.928816
0.943377
0.959982
0.980976
0.998714
1.02784
1.0504
1.07579
1.10565
1.13074
1.15135
1.18
1.19227
1.214
1.22249
1.24277
1.24312
1.26407
1.26203
1.28373
1.27935
1.30182
1.29478
1.31822
1.30975
1.3293
1.31774
1.3283
1.3119
1.31139
1.28565
1.27166
1.22993
0.87557
0.877348
0.880539
0.880596
0.891964
0.894571
0.914646
0.922868
0.945516
0.961745
0.98943
1.00649
1.04185
1.06034
1.09708
1.11471
1.1517
1.16331
1.19838
1.20312
1.23227
1.23377
1.25664
1.25657
1.27733
1.27613
1.29685
1.29543
1.31835
1.31572
1.3405
1.33625
1.3619
1.35651
1.37878
1.36929
1.38205
1.36445
1.3701
1.33593
0.869328
0.874049
0.87752
0.88337
0.89493
0.903763
0.925307
0.937614
0.964529
0.982587
1.01306
1.03526
1.0672
1.09317
1.12322
1.15028
1.17711
1.19806
1.22091
1.23491
1.25227
1.26177
1.27609
1.28197
1.2951
1.30139
1.31365
1.31911
1.33408
1.33715
1.35785
1.35959
1.38435
1.38552
1.41376
1.41515
1.43915
1.44189
1.45633
1.45557
0.843317
0.855044
0.85993
0.874747
0.882819
0.906912
0.920693
0.951714
0.968881
1.00619
1.02568
1.0642
1.08754
1.12545
1.14913
1.18107
1.2052
1.22677
1.24645
1.2625
1.27488
1.28597
1.29519
1.30442
1.30957
1.31993
1.32114
1.33213
1.33123
1.34308
1.34592
1.35945
1.36236
1.37714
1.38012
1.39844
1.39938
1.42154
1.41883
1.45613
0.840859
0.858074
0.874161
0.89524
0.918378
0.943147
0.969985
0.999968
1.02915
1.06223
1.09361
1.12825
1.16036
1.19292
1.22254
1.24772
1.27158
1.28679
1.30008
1.30573
1.31012
1.31128
1.31563
1.31695
1.32471
1.32775
1.32983
1.3262
1.31878
1.30388
1.29844
1.28593
1.27948
1.26084
1.24746
1.22194
1.19569
1.17204
1.12456
1.1539
0.817018
0.840105
0.859767
0.882635
0.908982
0.941695
0.976015
1.01523
1.05281
1.09316
1.13012
1.16793
1.2015
1.23286
1.26022
1.28076
1.29813
1.30633
1.31075
1.30903
1.30346
1.29944
1.29192
1.29561
1.30527
1.31301
1.31172
1.29204
1.25094
1.19451
1.13931
1.07606
1.01811
0.938882
0.846902
0.730049
0.626698
0.523118
0.446619
0.428629
0.888293
0.935371
0.978654
1.02454
1.06223
1.10344
1.14026
1.17782
1.21157
1.24223
1.26967
1.29178
1.3101
1.32319
1.33536
1.34139
1.34235
1.33677
1.3241
1.30658
1.28106
1.25634
1.22241
1.20506
1.16558
1.15142
1.10501
1.02528
0.952285
0.858392
0.727898
0.551839
0.348089
0.177379
0.0785662
0.0603514
0.0900604
0.126819
0.176211
0.255927
1.00801
1.04504
1.07889
1.11494
1.14948
1.18078
1.20804
1.2301
1.24645
1.258
1.2658
1.26669
1.26956
1.26363
1.25847
1.23848
1.21929
1.18308
1.14606
1.09316
1.03606
0.96591
0.886611
0.803794
0.714592
0.659295
0.459609
0.130352
0.362585
0.401939
0.370794
0.241343
0.212388
0.23744
0.254438
0.267279
0.295226
0.307649
0.335004
0.367127
0.856042
0.881121
0.896399
0.882805
0.848934
0.871151
0.968982
1.16165
1.16598
1.12085
1.11954
1.08487
1.05702
1.04884
1.04134
1.03726
1.03532
1.03272
1.03147
1.03014
1.02881
1.0278
1.02694
1.02594
1.02531
1.02431
1.02363
1.02267
1.02221
1.02175
1.02132
1.02106
1.02062
1.02046
1.02025
1.02027
1.02003
1.01937
1.0182
1.0124
0.885879
0.9077
0.930431
0.925815
0.888436
0.910821
0.973695
1.1209
1.11418
1.09014
1.09979
1.08458
1.05753
1.04997
1.04278
1.03809
1.03659
1.03386
1.0328
1.03126
1.03005
1.02888
1.02781
1.02702
1.02604
1.02532
1.02439
1.02354
1.02268
1.02235
1.02176
1.02159
1.02097
1.02069
1.02044
1.02057
1.02088
1.02116
1.0216
1.02393
0.906914
0.941052
0.961684
0.958441
0.916546
0.922717
0.968521
1.09003
1.08215
1.05069
1.06099
1.07239
1.05119
1.04617
1.04192
1.03748
1.03649
1.03406
1.03314
1.0318
1.03055
1.02966
1.0284
1.02778
1.02665
1.02608
1.02512
1.02447
1.02351
1.02307
1.02245
1.02218
1.02171
1.02119
1.02094
1.02072
1.02077
1.02061
1.02005
1.01728
0.940103
0.974063
1.00096
1.0017
0.939926
0.92783
0.952882
1.02992
1.0306
1.0147
1.03766
1.06256
1.04706
1.04484
1.04131
1.03744
1.03692
1.03458
1.03365
1.03256
1.03118
1.0303
1.02901
1.02839
1.0273
1.02668
1.02579
1.02506
1.02424
1.02361
1.02305
1.02256
1.02223
1.02167
1.02152
1.02125
1.02135
1.02142
1.02207
1.02396
0.968056
1.01221
1.0414
1.05156
0.970164
0.924238
0.928606
0.987237
0.999626
0.976133
1.00217
1.04509
1.03733
1.03889
1.03841
1.03564
1.03619
1.03441
1.03357
1.03282
1.03156
1.03072
1.02938
1.02879
1.02765
1.02703
1.02615
1.02539
1.02462
1.02386
1.02338
1.0228
1.02252
1.02196
1.02175
1.02132
1.02129
1.02105
1.02057
1.01916
1.00076
1.05215
1.08961
1.10079
0.999929
0.912782
0.897746
0.925672
0.949392
0.936219
0.983069
1.03096
1.03136
1.03466
1.03691
1.03446
1.03548
1.03438
1.03378
1.03333
1.03221
1.03142
1.03005
1.02936
1.02821
1.02738
1.0266
1.02564
1.02502
1.024
1.02363
1.02289
1.02269
1.02208
1.02193
1.02159
1.02154
1.02156
1.02185
1.02294
1.03102
1.08862
1.14669
1.16582
1.02172
0.89674
0.859005
0.883707
0.913451
0.904039
0.954084
1.01159
1.02193
1.02707
1.0346
1.03283
1.03476
1.03438
1.034
1.03373
1.0329
1.03214
1.03104
1.03026
1.02925
1.0283
1.02758
1.02649
1.02595
1.02481
1.0243
1.02335
1.02293
1.02235
1.02199
1.02169
1.02152
1.02134
1.02097
1.02017
1.05998
1.13304
1.21511
1.21641
1.01766
0.866636
0.811063
0.825582
0.863374
0.872878
0.937139
0.996823
1.0149
1.02092
1.0311
1.03136
1.03393
1.03419
1.034
1.0339
1.0334
1.0326
1.03171
1.03095
1.03019
1.02929
1.02863
1.02767
1.02704
1.02613
1.02544
1.02443
1.02365
1.02319
1.02271
1.02247
1.02208
1.02193
1.02191
1.02226
1.0897
1.18364
1.29566
1.2471
1.00079
0.819711
0.753417
0.780783
0.827678
0.84511
0.913372
0.980934
1.00417
1.01408
1.02568
1.02842
1.03173
1.03337
1.03362
1.03385
1.0337
1.03303
1.03207
1.03134
1.03062
1.02978
1.02913
1.02829
1.02765
1.02684
1.02626
1.02555
1.02473
1.02413
1.02339
1.02291
1.0224
1.02207
1.02171
1.02105
1.11841
1.24978
1.36299
1.24857
0.949945
0.745366
0.684554
0.720922
0.77865
0.822849
0.900857
0.970265
0.994732
1.00994
1.02057
1.02625
1.02956
1.03234
1.03315
1.03376
1.03388
1.03367
1.03271
1.03185
1.03111
1.03017
1.02946
1.02871
1.02803
1.02723
1.02665
1.02605
1.02537
1.02479
1.02418
1.02363
1.02315
1.0227
1.02247
1.0224
1.14897
1.31429
1.40149
1.23276
0.866392
0.649639
0.609157
0.670278
0.745043
0.803488
0.887871
0.957058
0.984684
1.00582
1.01616
1.02434
1.02783
1.03131
1.03263
1.03358
1.03395
1.03401
1.03356
1.0326
1.03179
1.03082
1.02983
1.02914
1.02827
1.02756
1.02691
1.02636
1.02572
1.02512
1.02453
1.02392
1.02351
1.02289
1.02249
1.02207
1.17448
1.36695
1.40262
1.20457
0.77011
0.560392
0.548574
0.623691
0.710266
0.797683
0.884606
0.947435
0.979027
1.00097
1.01249
1.02177
1.02673
1.03027
1.03216
1.03341
1.03403
1.03421
1.03425
1.03354
1.03283
1.032
1.03085
1.03011
1.02917
1.02824
1.02755
1.02687
1.02636
1.02564
1.02517
1.02446
1.0242
1.02357
1.02326
1.023
1.19237
1.37478
1.41057
1.23163
0.73299
0.541461
0.537456
0.616743
0.705584
0.800603
0.883293
0.939803
0.973206
0.995287
1.00915
1.01909
1.0255
1.02907
1.03164
1.03304
1.03401
1.0343
1.03467
1.03424
1.03388
1.03329
1.03234
1.03159
1.03084
1.02963
1.0289
1.02786
1.02729
1.02632
1.02593
1.02513
1.02473
1.02393
1.02358
1.02302
1.19123
1.34216
1.40681
1.30381
0.815733
0.640468
0.599343
0.650183
0.719824
0.819311
0.890027
0.937699
0.971419
0.992154
1.00726
1.01651
1.02404
1.02785
1.03118
1.03256
1.03395
1.03432
1.03496
1.03457
1.03436
1.034
1.03325
1.03238
1.03188
1.03081
1.03028
1.02918
1.02866
1.02769
1.02712
1.02629
1.02573
1.02492
1.02442
1.02401
1.15764
1.28815
1.39513
1.3635
0.990936
0.803505
0.708786
0.722427
0.761831
0.843135
0.896481
0.939755
0.972383
0.991649
1.00665
1.01453
1.02292
1.0268
1.03078
1.03203
1.03393
1.03427
1.03518
1.03493
1.03463
1.03434
1.0337
1.03279
1.03237
1.03135
1.03093
1.02981
1.02929
1.02844
1.02782
1.02695
1.02633
1.02549
1.02497
1.02445
1.09049
1.22274
1.34773
1.35142
1.09711
0.942064
0.816591
0.800285
0.810705
0.874591
0.908804
0.949486
0.976661
0.993958
1.00689
1.01457
1.02239
1.02606
1.03084
1.03177
1.03399
1.03411
1.03519
1.03504
1.03479
1.03446
1.03406
1.03309
1.03283
1.03192
1.03164
1.03073
1.03019
1.02939
1.02885
1.02793
1.02727
1.02644
1.02601
1.02531
1.00921
1.13333
1.2823
1.30677
1.12112
1.00702
0.896878
0.870453
0.866932
0.906777
0.924952
0.963332
0.982875
0.998995
1.00776
1.01741
1.02276
1.0263
1.03149
1.03206
1.03468
1.03457
1.03557
1.03574
1.03553
1.03515
1.03502
1.03415
1.03396
1.03295
1.03263
1.0317
1.03116
1.03048
1.02982
1.029
1.0282
1.02727
1.02684
1.02634
0.926937
1.02712
1.18907
1.22052
1.11735
1.02536
0.947182
0.92471
0.918472
0.942668
0.952349
0.981013
0.992308
1.0092
1.01091
1.02197
1.02508
1.0278
1.03286
1.03316
1.03586
1.03613
1.03673
1.03733
1.03718
1.03673
1.03653
1.03568
1.03533
1.03433
1.03374
1.03313
1.03218
1.03152
1.03074
1.02989
1.02935
1.02827
1.02776
1.02704
0.845312
0.918049
1.08135
1.11992
1.07554
1.01065
0.980509
0.971174
0.969086
0.980199
0.984661
0.999775
1.00546
1.02219
1.01653
1.0267
1.02807
1.0301
1.03387
1.03495
1.03637
1.03767
1.03721
1.03829
1.03794
1.03758
1.03715
1.03642
1.03592
1.03508
1.03422
1.03379
1.03273
1.03209
1.03123
1.03034
1.02991
1.02904
1.02862
1.02809
0.770534
0.811999
0.950692
1.00914
1.00787
0.984908
0.994551
1.0027
1.01404
1.01943
1.01939
1.023
1.02363
1.03465
1.02729
1.03221
1.03163
1.03337
1.03445
1.03696
1.03581
1.03834
1.03695
1.0384
1.03763
1.0379
1.03723
1.03694
1.03617
1.03583
1.0347
1.03442
1.03329
1.03276
1.0319
1.0309
1.03048
1.02956
1.0292
1.02861
0.715827
0.72336
0.840622
0.917118
0.929831
0.944349
0.989607
1.02199
1.05252
1.05635
1.05174
1.05034
1.04559
1.04915
1.04254
1.0408
1.03839
1.0389
1.0369
1.03953
1.03724
1.0393
1.03807
1.03934
1.03818
1.03912
1.03798
1.03841
1.03723
1.0374
1.03613
1.03596
1.03476
1.03428
1.03363
1.03262
1.03207
1.03106
1.03057
1.03007
0.702419
0.690879
0.744199
0.813714
0.836923
0.876216
0.957772
1.02381
1.07585
1.08887
1.08761
1.08022
1.07118
1.0677
1.06105
1.05386
1.04976
1.04694
1.04411
1.04417
1.04317
1.04254
1.0419
1.04251
1.04113
1.04212
1.04068
1.04122
1.04002
1.04007
1.03885
1.03849
1.03753
1.03651
1.0358
1.03456
1.03375
1.03246
1.03173
1.03117
0.72332
0.702175
0.70433
0.717866
0.728728
0.789401
0.900148
0.996143
1.07863
1.1132
1.11979
1.10676
1.09749
1.08703
1.07946
1.06872
1.06248
1.05634
1.0539
1.04987
1.05036
1.04692
1.04675
1.0458
1.04435
1.04457
1.04314
1.04298
1.0419
1.0414
1.04092
1.03989
1.03944
1.03817
1.03744
1.03631
1.03542
1.0345
1.03361
1.03321
0.754671
0.733464
0.706374
0.669426
0.640137
0.701335
0.812539
0.929244
1.05831
1.12416
1.14208
1.13192
1.1225
1.10493
1.09628
1.08337
1.07393
1.06638
1.0608
1.05558
1.05438
1.0509
1.04944
1.04779
1.04615
1.04511
1.04463
1.04318
1.04333
1.04168
1.04198
1.0405
1.04034
1.03896
1.03832
1.03717
1.03632
1.03554
1.03468
1.03425
0.78361
0.760467
0.730946
0.679716
0.626316
0.641039
0.706596
0.830781
1.01071
1.10864
1.15363
1.15832
1.14415
1.12518
1.11241
1.09972
1.08689
1.07873
1.06942
1.06417
1.05912
1.05696
1.0532
1.052
1.04916
1.04744
1.04685
1.04468
1.04486
1.04306
1.04313
1.04164
1.04147
1.0402
1.03974
1.03875
1.03808
1.0374
1.03661
1.03617
0.806555
0.788132
0.766067
0.716968
0.659049
0.642571
0.632314
0.715188
0.90781
1.07127
1.15195
1.17101
1.16539
1.14874
1.12984
1.11808
1.1053
1.09454
1.08464
1.07611
1.06986
1.06627
1.06138
1.05935
1.05593
1.05378
1.05217
1.04969
1.04868
1.04673
1.04576
1.04442
1.04344
1.04237
1.04162
1.04052
1.03982
1.03862
1.03789
1.03719
0.838724
0.81259
0.798635
0.76663
0.710076
0.678298
0.647362
0.634324
0.755201
0.985471
1.12429
1.17101
1.17999
1.16695
1.14609
1.13407
1.12302
1.11015
1.10058
1.08981
1.08277
1.07642
1.07203
1.06762
1.06499
1.06148
1.0597
1.05708
1.05482
1.05326
1.0507
1.04984
1.04774
1.04685
1.04546
1.04443
1.04341
1.04203
1.04125
1.04056
0.874595
0.8514
0.83579
0.815946
0.768907
0.731355
0.69438
0.654928
0.637878
0.814124
1.04968
1.15432
1.17534
1.17592
1.15584
1.14151
1.13368
1.12261
1.11217
1.10348
1.09344
1.08716
1.0808
1.07575
1.07284
1.06858
1.06653
1.06349
1.06116
1.05908
1.05643
1.05499
1.05258
1.05133
1.04936
1.04791
1.04631
1.04473
1.04348
1.04263
0.917817
0.902564
0.889586
0.869709
0.833136
0.79723
0.759495
0.706671
0.651405
0.630513
0.868243
1.08704
1.15858
1.16985
1.15701
1.1436
1.13692
1.12877
1.11976
1.11385
1.10306
1.09717
1.08837
1.08356
1.07827
1.075
1.0717
1.06962
1.06652
1.0649
1.0622
1.06081
1.05848
1.05682
1.05488
1.05302
1.05128
1.04981
1.04822
1.0477
0.967704
0.959204
0.963739
0.943681
0.910668
0.884114
0.843736
0.775743
0.690472
0.607096
0.599361
0.909755
1.0953
1.14579
1.14811
1.13804
1.13422
1.13053
1.12383
1.12048
1.1136
1.10687
1.10058
1.09188
1.08644
1.08089
1.077
1.07406
1.07081
1.06896
1.06633
1.06459
1.06213
1.06024
1.05803
1.05609
1.05387
1.05244
1.05055
1.04999
1.03206
1.02921
1.04417
1.03782
1.01838
1.00721
0.937084
0.835671
0.72105
0.601797
0.513252
0.585665
0.931134
1.07586
1.11741
1.11993
1.12518
1.12637
1.12414
1.12413
1.12139
1.11774
1.1149
1.1087
1.10325
1.0951
1.08914
1.08329
1.08036
1.07612
1.07435
1.07074
1.06932
1.06624
1.06487
1.0624
1.06053
1.05866
1.05665
1.05571
1.11065
1.12833
1.14593
1.13835
1.14693
1.07381
0.964077
0.840744
0.698851
0.577519
0.452607
0.384322
0.615593
0.924367
1.0354
1.07363
1.09453
1.11125
1.11276
1.11889
1.11978
1.11957
1.11922
1.11726
1.1156
1.11224
1.10742
1.10043
1.09378
1.08805
1.08419
1.0794
1.07685
1.07267
1.07092
1.06752
1.0656
1.06299
1.0615
1.06068
1.2287
1.24719
1.27311
1.27055
1.20871
1.08363
0.949273
0.792057
0.626633
0.489121
0.377546
0.293636
0.244926
0.638524
0.878813
0.974013
1.02379
1.06518
1.08134
1.09816
1.1052
1.11188
1.11473
1.11691
1.11699
1.11674
1.11677
1.1151
1.1125
1.10755
1.10279
1.09759
1.09305
1.08884
1.08449
1.08093
1.07668
1.07388
1.07109
1.07003
1.37004
1.38853
1.37979
1.31358
1.20032
1.02738
0.830261
0.634037
0.486494
0.350072
0.291843
0.21996
0.166503
0.222376
0.63505
0.806992
0.898376
0.977046
1.02067
1.05071
1.07399
1.08957
1.09833
1.10771
1.11156
1.1147
1.11665
1.11753
1.1181
1.11762
1.11648
1.11426
1.11036
1.1065
1.1024
1.0984
1.09424
1.09098
1.08799
1.08711
1.47154
1.45218
1.3707
1.22544
1.01871
0.798926
0.534648
0.313947
0.17842
0.208893
0.282267
0.337647
0.322833
0.204439
0.306219
0.577645
0.714173
0.836722
0.918437
0.970577
1.01548
1.04503
1.06733
1.08652
1.0966
1.10733
1.11262
1.11694
1.11942
1.1214
1.12193
1.12293
1.12229
1.1221
1.11932
1.11725
1.11382
1.11027
1.10587
1.10246
1.41206
1.28644
1.0405
0.864648
0.676143
0.475721
0.294537
0.224183
0.313874
0.442473
0.518022
0.548913
0.554916
0.468431
0.293427
0.409005
0.524762
0.664831
0.78088
0.856686
0.92325
0.972969
1.00753
1.04456
1.06128
1.08472
1.09472
1.10761
1.11284
1.11983
1.12166
1.12528
1.12546
1.12781
1.12655
1.12719
1.12645
1.12331
1.12316
1.12021
0.948161
0.674711
0.626204
0.611803
0.557559
0.528221
0.555689
0.606981
0.691769
0.785118
0.831911
0.85821
0.86027
0.786044
0.60814
0.460175
0.448498
0.523686
0.630367
0.709453
0.786138
0.850141
0.893465
0.93638
0.968164
1.00446
1.02773
1.0568
1.07194
1.09347
1.10061
1.11379
1.11757
1.12793
1.13099
1.13561
1.13783
1.13906
1.14248
1.14118
0.373248
0.503624
0.594647
0.601336
0.56471
0.610224
0.674786
0.751633
0.82019
0.904414
0.948061
0.972043
0.972951
0.880635
0.681023
0.562989
0.529593
0.511904
0.546898
0.607287
0.670527
0.734788
0.803383
0.851467
0.899758
0.933889
0.961852
0.990218
1.01084
1.03506
1.0497
1.06893
1.08129
1.09066
1.10322
1.10702
1.11837
1.12299
1.1334
1.14313
0.28497
0.271102
0.311751
0.411994
0.470915
0.529144
0.593065
0.651495
0.720412
0.785834
0.828414
0.85081
0.855307
0.819485
0.686548
0.526681
0.378015
0.381984
0.438527
0.532447
0.621943
0.721569
0.811837
0.845913
0.89923
0.93081
0.965548
0.990423
1.01694
1.03798
1.05908
1.08139
1.10264
1.1209
1.14342
1.15752
1.17456
1.17972
1.1874
1.18822
0.400629
0.430205
0.472636
0.513408
0.551799
0.583654
0.610625
0.633844
0.650705
0.659555
0.664688
0.66888
0.667168
0.666366
0.648637
0.614741
0.574379
0.547562
0.550341
0.560404
0.574246
0.607017
0.634946
0.161869
0.428373
0.544257
0.577498
0.626637
0.652848
0.698833
0.736085
0.780583
0.826067
0.86731
0.914398
0.947341
0.996574
1.03534
1.10252
1.15169
0.985732
0.996008
0.990437
0.995117
1.00021
1.00876
1.01625
1.01917
1.01973
1.01915
1.01844
1.01778
1.01787
1.01785
1.01791
1.01788
1.01783
1.01766
1.01759
1.01743
1.0173
1.01707
1.01687
1.01664
1.0164
1.01613
1.01586
1.01557
1.01526
1.01494
1.0146
1.01425
1.01386
1.01343
1.01299
1.01254
1.01211
1.01164
1.01108
1.0106
1.02969
1.03085
1.0306
1.02855
1.02461
1.02018
1.01839
1.01804
1.01831
1.01881
1.0194
1.01978
1.01984
1.01985
1.01979
1.01965
1.01945
1.01928
1.01912
1.01896
1.01876
1.01848
1.01816
1.01786
1.01757
1.01725
1.01692
1.01656
1.01616
1.01575
1.01538
1.01502
1.01459
1.01412
1.0136
1.01304
1.01254
1.01207
1.01163
1.01131
1.01215
1.01463
1.01504
1.01597
1.01664
1.01687
1.01768
1.01815
1.01898
1.0194
1.01973
1.01985
1.01988
1.01991
1.01992
1.01985
1.01968
1.01949
1.01931
1.01915
1.019
1.01878
1.01846
1.0181
1.01779
1.0175
1.0172
1.01687
1.01653
1.01616
1.01579
1.01541
1.01505
1.01461
1.01407
1.01355
1.01309
1.01276
1.01241
1.01213
1.02769
1.02741
1.0266
1.02521
1.02336
1.02136
1.02031
1.0201
1.02019
1.02037
1.02045
1.02046
1.02042
1.02031
1.02021
1.0201
1.01996
1.0198
1.01959
1.01938
1.01917
1.01892
1.01868
1.01842
1.01806
1.01771
1.01739
1.01706
1.01675
1.01639
1.01599
1.01561
1.01524
1.01476
1.01416
1.01366
1.01329
1.01292
1.01262
1.01233
1.0168
1.01782
1.01769
1.01808
1.01833
1.0188
1.01919
1.01939
1.01989
1.02
1.02021
1.02019
1.02021
1.02024
1.02024
1.02018
1.02
1.01985
1.01975
1.01954
1.01934
1.01906
1.01885
1.0186
1.01832
1.0179
1.01766
1.01736
1.01712
1.01669
1.01635
1.01601
1.01564
1.01517
1.01459
1.01418
1.01382
1.01352
1.01317
1.01287
1.02492
1.02443
1.02425
1.02366
1.02281
1.02216
1.02158
1.02132
1.02125
1.02131
1.02124
1.02101
1.02079
1.02067
1.02072
1.02062
1.02039
1.02004
1.01986
1.01967
1.01953
1.01928
1.019
1.01871
1.01836
1.01801
1.01769
1.01743
1.01718
1.01671
1.01636
1.01599
1.01557
1.01508
1.01456
1.01419
1.01385
1.01352
1.01321
1.01286
1.019
1.01929
1.01916
1.01947
1.0198
1.02008
1.02025
1.02043
1.02068
1.02082
1.02093
1.0208
1.02074
1.02077
1.02078
1.02069
1.02048
1.02032
1.02012
1.01994
1.01975
1.01956
1.01933
1.01905
1.0187
1.01836
1.0181
1.01788
1.0176
1.01725
1.01676
1.01644
1.016
1.01549
1.01505
1.01471
1.01436
1.01403
1.01368
1.01336
1.02315
1.02314
1.02301
1.02299
1.02271
1.02258
1.02222
1.02213
1.02196
1.02197
1.02166
1.02152
1.02132
1.02141
1.02127
1.02107
1.02071
1.0206
1.02039
1.02021
1.01991
1.01968
1.01942
1.01903
1.01868
1.01836
1.01811
1.01789
1.01765
1.01726
1.01683
1.01639
1.01601
1.01545
1.01503
1.01473
1.01437
1.014
1.01356
1.01325
1.02035
1.02056
1.0206
1.0209
1.02102
1.02124
1.02133
1.02154
1.02164
1.02172
1.02156
1.02151
1.02152
1.02163
1.0215
1.02135
1.0211
1.02093
1.02077
1.02059
1.02039
1.02022
1.01996
1.01961
1.01917
1.01891
1.01865
1.01845
1.01814
1.01778
1.01732
1.01693
1.0165
1.01605
1.01566
1.0153
1.01492
1.01444
1.01401