/*--------------------------------*- C++ -*----------------------------------*\
  =========                 |
  \\      /  F ield         | OpenFOAM: The Open Source CFD Toolbox
   \\    /   O peration     | Website:  https://openfoam.org
    \\  /    A nd           | Version:  11
     \\/     M anipulation  |
\*---------------------------------------------------------------------------*/
FoamFile
{
    format      ascii;
    class       volScalarField;
    location    "10";
    object      p;
}
// * * * * * * * * * * * * * * * * * * * * * * * * * * * * * * * * * * * * * //

dimensions      [0 2 -2 0 0 0 0];

internalField   nonuniform List<scalar> 
9600
(
0.0719563
0.073317
0.0753845
0.0779357
0.0807543
0.0836818
0.086562
0.0892584
0.0916556
0.0935865
0.0948427
0.0946577
0.0927792
0.0889205
0.0825821
0.07354
0.0617947
0.0471429
0.0302621
0.0123366
-0.00425631
-0.0182335
-0.0277592
-0.0311988
-0.029182
-0.0228131
-0.0133257
-0.0021016
0.009864
0.0225477
0.0336236
0.0420164
0.0476238
0.0499713
0.0496757
0.0480103
0.046495
0.0466301
0.0475701
0.049096
0.0726452
0.0744969
0.0769853
0.0797235
0.0825807
0.0854398
0.0881625
0.0906389
0.0928034
0.0944776
0.0951139
0.0944083
0.0919725
0.0877292
0.0811022
0.071841
0.0600219
0.0455117
0.0290737
0.0116948
-0.00422266
-0.0178254
-0.0275278
-0.0313984
-0.0301593
-0.0247175
-0.016234
-0.00594683
0.00555299
0.0173402
0.0293795
0.0388642
0.0456353
0.0495933
0.0501216
0.0482789
0.0463176
0.0457228
0.0460834
0.0466845
0.0732339
0.0752653
0.0778082
0.0804544
0.0831684
0.0858872
0.0884793
0.0908482
0.0928812
0.0944224
0.0949475
0.0941036
0.0916279
0.0872865
0.080626
0.0713762
0.0596074
0.0452146
0.0288945
0.01178
-0.00418571
-0.0174259
-0.0275069
-0.0317795
-0.0308021
-0.0255168
-0.0169058
-0.00653726
0.00460066
0.0167314
0.0283463
0.0376402
0.0443481
0.0489061
0.0507666
0.0490971
0.0466962
0.046554
0.0471933
0.0472629
0.0739501
0.0761793
0.0789165
0.081663
0.0844272
0.0871481
0.0896848
0.0919506
0.093812
0.0951137
0.0953293
0.0941377
0.0912283
0.0866052
0.0796751
0.0702496
0.058404
0.0440457
0.0278969
0.0110405
-0.00463232
-0.0177665
-0.0276966
-0.0323645
-0.0317715
-0.0271177
-0.01933
-0.00975312
0.00105845
0.0121702
0.0245633
0.0350472
0.0425302
0.0477521
0.0505123
0.049892
0.046703
0.0448524
0.0449915
0.044482
0.0747938
0.0771946
0.0800551
0.0828218
0.0855107
0.0880699
0.0904072
0.0924749
0.0941211
0.0951683
0.0951653
0.0937658
0.0907508
0.085994
0.0789817
0.0694959
0.0576653
0.0434028
0.0274061
0.0108328
-0.00472791
-0.0177517
-0.0277824
-0.03304
-0.0328893
-0.0286007
-0.0209587
-0.0113213
-0.00051602
0.0104618
0.0219322
0.0327812
0.0408604
0.0467199
0.0501143
0.0508024
0.0484415
0.0456383
0.0452345
0.0439847
0.0757476
0.0782805
0.0812257
0.0839799
0.0865876
0.0890421
0.0912821
0.0932469
0.0947549
0.0956641
0.0954438
0.0938121
0.0905245
0.0855372
0.0783179
0.0687201
0.056825
0.0425416
0.0266016
0.0101429
-0.00535034
-0.0183483
-0.0281693
-0.0338932
-0.0341529
-0.0302446
-0.0230865
-0.0140481
-0.00369657
0.00714727
0.0186043
0.0297429
0.0386834
0.0453122
0.0494162
0.0509426
0.0491076
0.0455395
0.0430867
0.0411563
0.0768074
0.0794355
0.0824142
0.0851327
0.0876771
0.0900387
0.0921632
0.0939729
0.0952955
0.0959535
0.0954862
0.093615
0.0901647
0.0850051
0.0776538
0.0679559
0.0559972
0.0417166
0.0258383
0.0095207
-0.00582981
-0.0187703
-0.0287069
-0.0347741
-0.0355623
-0.0321174
-0.0253085
-0.01645
-0.00608109
0.0047992
0.0158174
0.026749
0.0363404
0.043674
0.0485187
0.0509892
0.0500931
0.0473998
0.0433344
0.0408178
0.0779542
0.0806407
0.0836254
0.0863002
0.0887776
0.0910493
0.0930517
0.0946944
0.0958333
0.0963053
0.0956705
0.0935946
0.0899751
0.0846163
0.0770824
0.0672698
0.0552251
0.0409123
0.0250551
0.00882591
-0.00647325
-0.0195343
-0.0295258
-0.0358511
-0.03716
-0.0341272
-0.0276516
-0.0190532
-0.00916589
0.00166951
0.0124824
0.0235379
0.033595
0.0415842
0.0473762
0.0506038
0.0508343
0.0484688
0.0437327
0.0394111
0.0791718
0.0818877
0.0848628
0.0874812
0.0898877
0.0920743
0.0939548
0.0954299
0.0963928
0.0966823
0.0958601
0.0935996
0.0897959
0.08423
0.0765178
0.0665774
0.0544328
0.0400569
0.0241978
0.00799834
-0.00729546
-0.0204064
-0.0305134
-0.0371027
-0.0388963
-0.0363204
-0.0303076
-0.0218874
-0.0122594
-0.00136749
0.00936792
0.0202614
0.0306538
0.0390805
0.0459494
0.0500073
0.0513667
0.0492164
0.0455487
0.0392711
0.0804515
0.0831769
0.0861277
0.088685
0.0910182
0.0931202
0.0948774
0.096189
0.0969787
0.0970936
0.0960977
0.0936539
0.0896625
0.0838984
0.0760189
0.0659464
0.0536698
0.0392025
0.023298
0.00708767
-0.00819793
-0.0214025
-0.0316499
-0.0385059
-0.0408281
-0.0386765
-0.0331664
-0.0248603
-0.0154628
-0.00477386
0.0060176
0.0167046
0.0273449
0.0361994
0.0441483
0.0490925
0.0516321
0.0502943
0.0472804
0.0400007
0.0817901
0.0845056
0.0874229
0.0899166
0.0921744
0.0941823
0.0958203
0.0969883
0.0976073
0.097554
0.0963898
0.0937527
0.0895919
0.0836357
0.0755544
0.0653246
0.0528841
0.0383089
0.0223148
0.00605965
-0.00929276
-0.0226016
-0.033086
-0.0401151
-0.0430065
-0.0412245
-0.0362298
-0.0281813
-0.0189343
-0.00842829
0.00247837
0.0129849
0.0235645
0.0330868
0.0417722
0.0476934
0.0516043
0.0517336
0.0486155
0.0420097
0.0831874
0.0858721
0.0887511
0.0911842
0.0933627
0.0952724
0.0967995
0.0978367
0.0982905
0.098061
0.0967371
0.0939101
0.0895741
0.0834177
0.0751165
0.0647164
0.0520818
0.0373693
0.0212493
0.00494673
-0.0105201
-0.0239211
-0.0346236
-0.0419044
-0.0453317
-0.044008
-0.0395194
-0.031801
-0.0226063
-0.0123577
-0.00136327
0.00917428
0.0194961
0.0295988
0.0387684
0.0456645
0.0508071
0.0530186
0.0506745
0.0455208
0.084645
0.0872873
0.0901144
0.0924851
0.0945864
0.0964058
0.0978311
0.0987414
0.0990416
0.0986171
0.097178
0.0941359
0.0895964
0.0832516
0.0747119
0.0641165
0.0512449
0.0363866
0.0200929
0.00371177
-0.0119248
-0.0254249
-0.0364921
-0.0439323
-0.0479104
-0.0470689
-0.0429865
-0.0357578
-0.0266229
-0.0166022
-0.00554702
0.00508956
0.0153036
0.0255097
0.0351168
0.0429387
0.0490588
0.0534655
0.0529931
0.0503585
0.0861657
0.0887566
0.091523
0.0938315
0.0958602
0.0975984
0.0989214
0.0997075
0.0998858
0.099244
0.0976378
0.0944591
0.0896818
0.0831315
0.074331
0.0635048
0.0503614
0.0353388
0.0188331
0.00233771
-0.0134926
-0.0271038
-0.0384532
-0.0461857
-0.0506301
-0.0504234
-0.0467145
-0.0400259
-0.0310277
-0.0211692
-0.0100944
0.000720612
0.010915
0.0210363
0.0308653
0.0393786
0.0462426
0.0526465
0.0544862
0.0546514
0.0877497
0.0902813
0.0929838
0.0952339
0.0971953
0.0988585
0.10009
0.100755
0.100823
0.099957
0.0981871
0.0948515
0.0898176
0.0830439
0.0739562
0.0628794
0.0494387
0.034186
0.0174421
0.00081836
-0.0152152
-0.0289975
-0.0405951
-0.0487144
-0.0535229
-0.0540808
-0.0507725
-0.0446271
-0.0358319
-0.0260718
-0.015054
-0.00408476
0.00618116
0.0162533
0.0260484
0.0350512
0.042371
0.050205
0.0542489
0.0572602
0.0894074
0.0918695
0.0945095
0.096711
0.0986081
0.100214
0.101365
0.101874
0.101842
0.100793
0.0987829
0.0953463
0.0900071
0.0829745
0.0736065
0.0621981
0.0484454
0.0329457
0.0159216
-0.000899226
-0.0170897
-0.0311188
-0.0429116
-0.0514789
-0.056698
-0.0579761
-0.0551498
-0.0495771
-0.0410857
-0.0314132
-0.0204406
-0.00938411
0.00104667
0.0113318
0.0208757
0.0300669
0.0376244
0.0461706
0.0518897
0.0576623
0.0911482
0.0935299
0.0961064
0.0982887
0.100137
0.101655
0.102747
0.10316
0.102903
0.101781
0.0994848
0.0958668
0.0902623
0.0829087
0.0732558
0.0614718
0.0473515
0.0315584
0.0142951
-0.00283636
-0.0191486
-0.0334572
-0.0454646
-0.0544927
-0.060105
-0.0621404
-0.0599226
-0.0548831
-0.0468007
-0.0372705
-0.0263624
-0.0151857
-0.00454393
0.0058489
0.0152399
0.0244603
0.0322155
0.0407505
0.0475865
0.0555093
0.0929756
0.0952734
0.0977992
0.0999792
0.101798
0.103233
0.104231
0.104576
0.104128
0.102813
0.100292
0.0964566
0.0905752
0.0828327
0.0728567
0.0606925
0.0461681
0.0299663
0.0125036
-0.00494332
-0.0214406
-0.036023
-0.0482345
-0.0577729
-0.0637773
-0.0665635
-0.0650404
-0.0606138
-0.0530378
-0.0436887
-0.032882
-0.0215635
-0.0106935
-8.3122e-05
0.00950413
0.0184705
0.0264025
0.0344038
0.0416386
0.0505173
0.0949031
0.0971081
0.0996205
0.101802
0.103617
0.10499
0.105894
0.10611
0.105444
0.104014
0.101229
0.0970934
0.0909204
0.0827745
0.0724186
0.0597655
0.0448933
0.0281942
0.0104584
-0.00727588
-0.0239245
-0.0388449
-0.0512732
-0.061297
-0.0677314
-0.0712539
-0.0705388
-0.0667508
-0.0598004
-0.0507739
-0.0401017
-0.0286172
-0.0175109
-0.00663687
0.00308998
0.0120634
0.0201797
0.0274879
0.0345053
0.0425704
0.0969371
0.0990803
0.101632
0.103814
0.105634
0.106949
0.107658
0.107802
0.106983
0.105283
0.102274
0.0978125
0.0912918
0.0826474
0.0719367
0.0587133
0.04341
0.0262563
0.00820511
-0.00990887
-0.0266716
-0.0419347
-0.0545454
-0.0651985
-0.0720042
-0.0761774
-0.0764263
-0.0733942
-0.0671086
-0.0585164
-0.0481526
-0.0364647
-0.0250807
-0.0138916
-0.00382463
0.00524982
0.0135309
0.0204268
0.0270597
0.0330678
0.0991391
0.10125
0.103857
0.106048
0.107812
0.109076
0.10968
0.109609
0.108673
0.106733
0.103412
0.0985217
0.0916902
0.0824916
0.0712607
0.0575422
0.041702
0.0240182
0.00572632
-0.0128227
-0.0296845
-0.0453215
-0.0581363
-0.0691132
-0.0766258
-0.081377
-0.0826347
-0.0805624
-0.0750958
-0.0669495
-0.0570404
-0.0452948
-0.0335702
-0.0220286
-0.0113872
-0.00200432
0.00636334
0.0133166
0.0195695
0.0236996
0.101555
0.103665
0.106317
0.108554
0.110239
0.111385
0.111916
0.111676
0.110515
0.10827
0.104692
0.0992845
0.0919654
0.082336
0.0704396
0.0560903
0.0398009
0.0214541
0.00289952
-0.0160331
-0.0330218
-0.0489627
-0.0620499
-0.0732763
-0.0815267
-0.0868826
-0.0891891
-0.088183
-0.0837605
-0.0762015
-0.066868
-0.0552253
-0.0431171
-0.0311949
-0.0199058
-0.00997235
-0.00136187
0.00598887
0.0121109
0.0156623
0.10424
0.106363
0.109045
0.111304
0.112972
0.113983
0.114376
0.113923
0.11258
0.10996
0.105948
0.100134
0.0921789
0.0819395
0.0694958
0.0543462
0.0375268
0.0186044
-0.000315043
-0.0196087
-0.0367488
-0.0528538
-0.0663575
-0.0776952
-0.0867194
-0.0927728
-0.096029
-0.0961406
-0.0931579
-0.0864072
-0.0775484
-0.0664641
-0.0540649
-0.0415421
-0.0296657
-0.0189111
-0.00979416
-0.00210046
0.00431813
0.00837096
0.107252
0.109364
0.112127
0.114402
0.116001
0.116857
0.117113
0.116423
0.114741
0.111853
0.107291
0.10083
0.0923941
0.0813429
0.0682007
0.0523489
0.0348238
0.0153202
-0.00397486
-0.0235085
-0.0410011
-0.056969
-0.0710261
-0.0824734
-0.0920958
-0.098908
-0.103304
-0.104526
-0.102937
-0.0976357
-0.0894475
-0.0789511
-0.0665285
-0.0535735
-0.0409867
-0.0291819
-0.0193172
-0.0111335
-0.0041044
0.000582918
0.110674
0.112783
0.11556
0.117841
0.119404
0.120066
0.120094
0.119248
0.117118
0.113671
0.108748
0.101475
0.0923206
0.080544
0.0665066
0.049906
0.0315923
0.0115925
-0.00824355
-0.0277507
-0.0457919
-0.0614534
-0.0759537
-0.0876247
-0.0977649
-0.105279
-0.110808
-0.113311
-0.113204
-0.109732
-0.102527
-0.0930015
-0.0809656
-0.0673109
-0.0542379
-0.0414586
-0.0301766
-0.021345
-0.0136762
-0.00833008
0.114558
0.116663
0.119472
0.121683
0.123179
0.123686
0.123423
0.122222
0.119722
0.115613
0.110012
0.102039
0.0919274
0.0793859
0.0642998
0.0469644
0.0276764
0.00734469
-0.0132324
-0.0324793
-0.0510205
-0.0665135
-0.0811109
-0.0931035
-0.103654
-0.111847
-0.118574
-0.122553
-0.123679
-0.122412
-0.117182
-0.108405
-0.0974622
-0.083741
-0.0697362
-0.0561087
-0.0433058
-0.033198
-0.0248345
-0.0187268
0.118999
0.121031
0.123902
0.126043
0.127386
0.127752
0.127008
0.125386
0.122444
0.117663
0.111093
0.102384
0.0911158
0.0777131
0.0614903
0.043374
0.0229922
0.00238787
-0.0188483
-0.0380279
-0.0565663
-0.0721655
-0.0867054
-0.0988607
-0.109751
-0.118954
-0.126088
-0.131977
-0.134908
-0.135147
-0.132753
-0.125718
-0.116059
-0.103113
-0.0882518
-0.0738902
-0.059589
-0.0473981
-0.037994
-0.0311497
0.124094
0.126041
0.128905
0.130984
0.132076
0.132216
0.13104
0.128783
0.125093
0.119622
0.111964
0.102311
0.0897992
0.0752755
0.0579469
0.0388775
0.0174022
-0.00350689
-0.0251971
-0.044448
-0.0626749
-0.0786017
-0.0924785
-0.105349
-0.115839
-0.126028
-0.13418
-0.140772
-0.146256
-0.148502
-0.148595
-0.144563
-0.136761
-0.125607
-0.110843
-0.0954209
-0.0799502
-0.0656914
-0.0541377
-0.0460857
0.13002
0.131854
0.134577
0.13659
0.137393
0.13701
0.135431
0.132434
0.127673
0.121389
0.112471
0.10162
0.0877777
0.0719393
0.0532837
0.0331214
0.0109227
-0.0107928
-0.0321557
-0.0521546
-0.0693985
-0.0856193
-0.0990624
-0.111578
-0.122646
-0.132717
-0.142544
-0.149939
-0.156921
-0.162004
-0.164564
-0.164266
-0.159334
-0.150816
-0.138084
-0.122319
-0.105516
-0.0893677
-0.0751734
-0.0650784
0.136836
0.138553
0.141139
0.142914
0.143241
0.142294
0.13993
0.13605
0.130127
0.12257
0.11241
0.0998703
0.084701
0.0670307
0.0475482
0.0256409
0.00318092
-0.0194009
-0.0405741
-0.0606132
-0.0774379
-0.0928608
-0.106381
-0.118025
-0.129653
-0.139721
-0.149991
-0.159392
-0.167311
-0.175097
-0.180463
-0.183642
-0.183197
-0.178397
-0.168954
-0.155586
-0.138542
-0.12061
-0.10368
-0.0906369
0.144813
0.146297
0.148547
0.149883
0.149692
0.147972
0.144711
0.139682
0.132349
0.122913
0.111431
0.0969446
0.0801325
0.0606853
0.0398729
0.0165222
-0.00651571
-0.0294034
-0.050927
-0.0699627
-0.0866876
-0.101167
-0.113915
-0.125339
-0.135869
-0.146982
-0.156929
-0.167843
-0.177911
-0.188097
-0.195912
-0.202908
-0.206756
-0.207123
-0.202636
-0.193514
-0.179835
-0.162352
-0.143328
-0.12674
0.154061
0.155015
0.156827
0.157622
0.156485
0.153474
0.1488
0.142308
0.133392
0.121854
0.108393
0.0921264
0.0730668
0.0521629
0.0295581
0.00518117
-0.0186287
-0.0416699
-0.0628514
-0.0814448
-0.0968648
-0.110901
-0.122045
-0.132976
-0.142326
-0.153243
-0.163552
-0.174926
-0.186523
-0.198652
-0.210033
-0.220625
-0.229231
-0.234941
-0.237268
-0.234803
-0.227099
-0.214549
-0.197897
-0.179952
0.164773
0.165071
0.166258
0.166268
0.164222
0.1598
0.153103
0.144239
0.133103
0.11923
0.103183
0.0846371
0.063331
0.0404259
0.0163812
-0.00942694
-0.033456
-0.0566853
-0.077112
-0.0947455
-0.109271
-0.121679
-0.131858
-0.1408
-0.149553
-0.159311
-0.169625
-0.180921
-0.193399
-0.206804
-0.220975
-0.235152
-0.248703
-0.260342
-0.269602
-0.275355
-0.277241
-0.273887
-0.265397
-0.253473
0.176658
0.175787
0.175863
0.174037
0.170108
0.163619
0.154623
0.143389
0.129401
0.112662
0.0939509
0.0728107
0.0491317
0.0241204
-0.00149803
-0.0278265
-0.0524413
-0.0745251
-0.0943892
-0.110292
-0.123557
-0.134042
-0.142713
-0.149788
-0.157674
-0.165538
-0.175077
-0.185741
-0.198454
-0.2125
-0.228021
-0.24496
-0.262725
-0.280639
-0.298064
-0.313542
-0.325436
-0.334567
-0.340369
-0.341594
0.19207
0.189793
0.188301
0.184063
0.177334
0.167691
0.154808
0.139855
0.122138
0.10201
0.0797404
0.0559143
0.0295865
0.00276925
-0.0242894
-0.0509829
-0.0753109
-0.0961261
-0.114296
-0.128023
-0.138805
-0.147223
-0.154119
-0.159703
-0.165677
-0.172032
-0.17947
-0.188269
-0.199462
-0.212564
-0.228344
-0.246248
-0.26616
-0.287744
-0.311644
-0.336026
-0.361134
-0.385499
-0.407956
-0.428001
0.203424
0.197648
0.192543
0.185712
0.175789
0.162896
0.146609
0.127859
0.106454
0.0825236
0.0569268
0.0299248
0.00160099
-0.0271152
-0.0544362
-0.0806382
-0.103933
-0.122596
-0.137854
-0.148793
-0.156131
-0.161514
-0.166866
-0.171625
-0.176122
-0.180261
-0.184328
-0.189164
-0.195719
-0.205287
-0.219085
-0.236256
-0.255954
-0.277687
-0.302393
-0.329428
-0.358331
-0.388793
-0.421774
-0.456496
0.230703
0.220773
0.208047
0.192013
0.172855
0.15158
0.127759
0.101936
0.0746099
0.0455702
0.0154096
-0.0155856
-0.046506
-0.0767731
-0.104612
-0.129214
-0.149867
-0.164456
-0.173978
-0.178662
-0.180012
-0.180581
-0.182801
-0.188054
-0.195282
-0.203108
-0.206711
-0.205117
-0.20034
-0.197243
-0.202532
-0.216066
-0.233729
-0.25333
-0.274484
-0.297765
-0.322164
-0.345655
-0.368398
-0.390834
0.199951
0.182629
0.166081
0.148493
0.127769
0.103335
0.0755434
0.0452462
0.0130882
-0.0200871
-0.0538724
-0.0874322
-0.119913
-0.150586
-0.177984
-0.200104
-0.216147
-0.224508
-0.22542
-0.220426
-0.211273
-0.202716
-0.198076
-0.203488
-0.217797
-0.237666
-0.253364
-0.256191
-0.23823
-0.211284
-0.193518
-0.196057
-0.209706
-0.223345
-0.232293
-0.242504
-0.256322
-0.275357
-0.296462
-0.318122
0.268301
0.236513
0.201378
0.166937
0.132859
0.0978913
0.0611793
0.0236274
-0.0141945
-0.05142
-0.0868688
-0.119647
-0.148739
-0.17365
-0.193619
-0.207766
-0.214614
-0.214004
-0.205538
-0.190505
-0.170827
-0.149148
-0.131818
-0.125297
-0.136802
-0.172954
-0.238844
-0.30318
-0.301701
-0.254807
-0.202463
-0.178239
-0.181445
-0.196372
-0.201329
-0.20308
-0.206777
-0.21393
-0.226387
-0.246274
-0.0159631
-0.0475715
-0.084228
-0.13011
-0.17947
-0.227607
-0.274536
-0.319644
-0.360878
-0.393967
-0.417897
-0.436889
-0.453186
-0.465235
-0.470153
-0.466851
-0.454877
-0.433489
-0.403701
-0.365957
-0.322866
-0.275316
-0.228142
-0.188373
-0.166611
-0.173347
-0.213088
-0.232046
-0.2419
-0.250136
-0.2498
-0.247875
-0.245438
-0.244218
-0.243671
-0.242486
-0.241939
-0.241803
-0.244507
-0.251798
0.0537299
0.0455251
0.0239275
9.65701e-05
-0.0514912
-0.0958262
-0.134233
-0.133329
-0.0502805
-0.0120286
0.00351027
0.00545485
0.00360754
0.00246789
0.00105933
-0.000144197
-0.00058791
-0.00114359
-0.00138953
-0.00160026
-0.00150981
-0.00134667
-0.00120766
-0.000905187
-0.000726174
-0.000375191
-0.000152582
0.000188387
0.00040819
0.00065905
0.000838216
0.00100268
0.0011743
0.00137414
0.001619
0.00180227
0.0018584
0.00177651
0.000635959
-0.000922361
0.0526586
0.0449632
0.0215864
-0.00538439
-0.0544386
-0.0947336
-0.113082
-0.107462
-0.0358211
-0.00603174
0.00579165
0.00711919
0.00512561
0.00263486
0.00146933
8.55902e-05
-0.00060941
-0.00121327
-0.00157487
-0.00171164
-0.00171981
-0.00157462
-0.00136826
-0.00115775
-0.000870793
-0.000582088
-0.000277922
7.88669e-06
0.000287757
0.000496942
0.000715145
0.000873913
0.00110491
0.00133641
0.00160031
0.0017428
0.00184319
0.00190459
0.00233209
0.00318632
0.0511474
0.0436054
0.0192527
-0.0136327
-0.0621197
-0.0946358
-0.0960387
-0.0810028
-0.0251651
-0.000626132
0.00955203
0.00814331
0.00668151
0.00340816
0.0017876
0.000382024
-0.000667077
-0.0012475
-0.00173861
-0.00182456
-0.00193831
-0.00186279
-0.00165753
-0.00149926
-0.00118392
-0.000932195
-0.000605604
-0.00035422
-5.16234e-05
0.000147821
0.000395709
0.000602488
0.00088195
0.00115847
0.00139453
0.00155397
0.0016798
0.00170678
0.00160598
0.00103606
0.0500822
0.0411202
0.0149172
-0.0252907
-0.0738565
-0.0978594
-0.0842022
-0.0592757
-0.0155566
0.00488053
0.0130426
0.00986763
0.00833319
0.00455035
0.00241996
0.00083206
-0.000509269
-0.00118258
-0.00170588
-0.00188302
-0.00196822
-0.00195294
-0.0017887
-0.00163173
-0.00136238
-0.00111619
-0.000805417
-0.000549835
-0.000270377
-5.51835e-05
0.000189202
0.000419815
0.000679878
0.000960274
0.00116852
0.00138379
0.00159838
0.00186431
0.00235597
0.00319975
0.0483144
0.0377719
0.0087191
-0.040947
-0.0917184
-0.103907
-0.0771498
-0.0419775
-0.0073014
0.0100602
0.0155508
0.011735
0.0101054
0.00578048
0.00325134
0.00144485
-0.000122753
-0.000961128
-0.00155462
-0.00188427
-0.00197258
-0.00199098
-0.00181785
-0.00166725
-0.00138666
-0.00111809
-0.000798666
-0.000501228
-0.000224471
2.63327e-05
0.000238698
0.000442785
0.000669556
0.000930427
0.00113669
0.00134145
0.00149161
0.00163774
0.00170433
0.00142878
0.0462398
0.0336565
-0.000946103
-0.0620883
-0.115514
-0.11216
-0.0733779
-0.0300083
-0.000896315
0.0149878
0.0174841
0.0139786
0.0113457
0.00699492
0.00379305
0.00194492
0.000235148
-0.00082285
-0.00153085
-0.00197822
-0.00213836
-0.00218206
-0.00201943
-0.00186203
-0.00155219
-0.00124571
-0.000918392
-0.000551023
-0.000248719
7.35036e-05
0.000286012
0.000520471
0.000750909
0.00101609
0.00122378
0.00141409
0.00154133
0.00175012
0.00209948
0.00263495
0.0425505
0.0294078
-0.0151196
-0.0930774
-0.147879
-0.12767
-0.0723008
-0.0226501
0.00485375
0.0187923
0.0193035
0.0165221
0.0122061
0.00832278
0.00407724
0.00213049
0.000278238
-0.00088591
-0.00168301
-0.00216657
-0.00237962
-0.00244711
-0.00237582
-0.00222374
-0.00196209
-0.0016644
-0.00136027
-0.000960566
-0.000623756
-0.000247738
3.8071e-05
0.00037494
0.000683368
0.000975779
0.00119226
0.00136729
0.00152006
0.00164922
0.00166575
0.00153563
0.0374237
0.0242
-0.0358626
-0.135323
-0.196402
-0.147408
-0.0747795
-0.0174014
0.00966225
0.0222094
0.0215182
0.0190494
0.0132069
0.009564
0.00477
0.00243621
0.000408031
-0.000886919
-0.00176053
-0.00227425
-0.00258223
-0.00263404
-0.00264374
-0.00253277
-0.00235559
-0.00212483
-0.00185903
-0.00151218
-0.00117979
-0.000815977
-0.00044662
-6.24657e-05
0.000314263
0.000610566
0.000877282
0.00109873
0.00133949
0.00155944
0.0018433
0.00218503
0.0324589
0.0168915
-0.0668145
-0.187174
-0.261494
-0.172565
-0.0805863
-0.0140334
0.0136033
0.0253766
0.0240194
0.0209372
0.0144067
0.0103787
0.00605264
0.00312749
0.00099702
-0.000703668
-0.00171263
-0.00234214
-0.00273244
-0.0028069
-0.0027864
-0.00269067
-0.00252493
-0.00233078
-0.00208708
-0.00180849
-0.00152238
-0.00119189
-0.000845671
-0.000497778
-0.000138686
0.000161332
0.00048357
0.00078377
0.0010823
0.00130511
0.00145589
0.0015217
0.0276383
0.00724011
-0.102147
-0.259945
-0.335459
-0.201703
-0.0890803
-0.0130265
0.0171625
0.0279298
0.0259952
0.022004
0.0160228
0.0106515
0.00724494
0.00355686
0.00154261
-0.000476136
-0.00164377
-0.00241335
-0.00285908
-0.00304523
-0.00300414
-0.00288883
-0.00266124
-0.00241772
-0.00213431
-0.00185645
-0.00156502
-0.0012583
-0.00095625
-0.000658153
-0.00035476
-5.88399e-05
0.000257325
0.000575898
0.000877418
0.00114599
0.0015162
0.00190149
0.0262421
-0.00537834
-0.131412
-0.352781
-0.410311
-0.231041
-0.0989275
-0.0132278
0.0191648
0.0302971
0.0270567
0.0231853
0.0172544
0.0107994
0.00773561
0.00378859
0.00171351
-0.000383898
-0.00163883
-0.00255496
-0.00306806
-0.00334097
-0.00338382
-0.00326899
-0.00298583
-0.00268993
-0.00231666
-0.00197999
-0.00161674
-0.00130008
-0.000981856
-0.000698934
-0.000406719
-0.000129143
0.000176777
0.000489158
0.000766451
0.00104783
0.00131771
0.00148981
0.0296502
-0.0182556
-0.152633
-0.438873
-0.470077
-0.253377
-0.107292
-0.0151061
0.0200163
0.03208
0.0278832
0.0240923
0.017408
0.011714
0.00786462
0.00420209
0.00160722
-0.000438734
-0.00172111
-0.00276576
-0.00333229
-0.00366624
-0.00381063
-0.00379176
-0.00357231
-0.00329582
-0.00289469
-0.00251175
-0.00208121
-0.00168236
-0.00129785
-0.000961735
-0.000618882
-0.000285877
3.29501e-05
0.000323813
0.00058461
0.000892656
0.0012293
0.00155573
0.0364332
-0.0229577
-0.165003
-0.483176
-0.4866
-0.263167
-0.111333
-0.0175926
0.0194925
0.0325199
0.0286455
0.0242019
0.0175189
0.0128205
0.00793853
0.00456664
0.0015732
-0.000429529
-0.00185659
-0.00297533
-0.00358752
-0.00399157
-0.00421819
-0.00430037
-0.00422174
-0.00403601
-0.00373054
-0.0033528
-0.00290348
-0.00242118
-0.00198819
-0.00155772
-0.00113481
-0.000735959
-0.000391019
-7.13684e-05
0.000253166
0.000620797
0.000961336
0.00124045
0.0420603
-0.0155843
-0.163654
-0.447633
-0.44546
-0.253218
-0.108648
-0.0196308
0.018121
0.0306407
0.0285902
0.0241245
0.0175336
0.0131636
0.00776227
0.00487754
0.00159419
-0.000375335
-0.00199905
-0.00315704
-0.00384
-0.00434501
-0.00456942
-0.00466302
-0.00466806
-0.00455693
-0.00432547
-0.00397601
-0.00355887
-0.00309499
-0.00266191
-0.00219979
-0.00174718
-0.00132033
-0.000925764
-0.000528169
-9.42908e-05
0.000332676
0.000714018
0.000985698
0.0464161
-0.00139728
-0.145911
-0.361885
-0.356852
-0.2265
-0.0993142
-0.0201442
0.016099
0.0271623
0.0270265
0.0234278
0.0172106
0.0127042
0.00733676
0.00506117
0.0014425
-0.000378775
-0.00223047
-0.00338537
-0.00413861
-0.00467984
-0.00486303
-0.00492711
-0.00489873
-0.00475986
-0.0045217
-0.00419037
-0.00382085
-0.00344364
-0.00305606
-0.00263888
-0.00221434
-0.00178883
-0.00135591
-0.000901442
-0.000423236
3.38928e-05
0.000430595
0.000682226
0.0510944
0.0084495
-0.117197
-0.275101
-0.265403
-0.177495
-0.0827016
-0.0200367
0.0125209
0.0228225
0.0241902
0.0213218
0.0163383
0.0118307
0.00701187
0.00475693
0.00110241
-0.000665526
-0.00268218
-0.0037946
-0.00458858
-0.00504964
-0.0052437
-0.0052431
-0.00517828
-0.00498032
-0.00473784
-0.00442797
-0.00413155
-0.00381852
-0.00347992
-0.00309882
-0.00270995
-0.00229977
-0.00187355
-0.00137373
-0.000857693
-0.000375855
3.92445e-05
0.000291047
0.0543347
0.0149741
-0.0890761
-0.194901
-0.181727
-0.133063
-0.0699217
-0.0222967
0.00634728
0.0169566
0.0206659
0.0180573
0.0147065
0.0107259
0.00652604
0.00359049
0.000355569
-0.00150446
-0.00347814
-0.00454116
-0.00541425
-0.00579836
-0.00606914
-0.00603665
-0.00600204
-0.00575288
-0.00553724
-0.00522035
-0.00493459
-0.0045786
-0.00421663
-0.00383382
-0.0034529
-0.00301909
-0.00255356
-0.00200446
-0.00144215
-0.000911272
-0.000462883
-0.000195373
0.0542924
0.0163622
-0.0660274
-0.132095
-0.123682
-0.105229
-0.0657568
-0.0284914
-0.00219095
0.00969068
0.0153898
0.0140323
0.0126474
0.00878546
0.00544781
0.00194383
-0.000707786
-0.00261805
-0.00449956
-0.00558019
-0.00661283
-0.00699965
-0.00731955
-0.0073067
-0.00729003
-0.00697878
-0.00668685
-0.00625101
-0.00586487
-0.0053915
-0.00496086
-0.00453177
-0.00408002
-0.00358301
-0.00307137
-0.00248847
-0.00191562
-0.00138884
-0.000929256
-0.000629299
0.050837
0.00923612
-0.0528251
-0.0913399
-0.0957056
-0.0892822
-0.0668361
-0.0385505
-0.0137334
0.000861434
0.00868726
0.00932894
0.00964243
0.00611398
0.00428041
0.000550352
-0.00145325
-0.00350976
-0.00529882
-0.00651304
-0.00747883
-0.00795201
-0.00816716
-0.00822955
-0.00811208
-0.00772991
-0.00737244
-0.0068716
-0.00640879
-0.00587274
-0.00537772
-0.00489785
-0.00437101
-0.00383321
-0.00329837
-0.00272876
-0.00221118
-0.00172819
-0.0013021
-0.00103231
0.0427893
-0.00272723
-0.0484435
-0.06845
-0.0805727
-0.08227
-0.0708985
-0.0505182
-0.0273311
-0.0106671
6.75789e-05
0.00364997
0.00544339
0.00319882
0.00255924
-0.000820994
-0.00215893
-0.00437482
-0.00578515
-0.00705669
-0.00768176
-0.00835098
-0.00841397
-0.00861808
-0.00839519
-0.00815718
-0.00781571
-0.00738634
-0.00693853
-0.00641496
-0.00590896
-0.00540912
-0.00484085
-0.00428849
-0.00374732
-0.00320822
-0.00271656
-0.00224087
-0.00179733
-0.00153511
0.0310751
-0.0133937
-0.0458358
-0.0549451
-0.0685335
-0.0822921
-0.0792227
-0.0656196
-0.0435428
-0.0245826
-0.0107601
-0.00386937
-0.000259934
-0.000843398
-0.000905863
-0.00320455
-0.00420557
-0.0060387
-0.00695318
-0.0080991
-0.00857365
-0.00932116
-0.00932319
-0.00962128
-0.00937846
-0.00930631
-0.0089946
-0.00864441
-0.0082259
-0.00776207
-0.0072381
-0.00673311
-0.00610768
-0.00554354
-0.00497015
-0.00437267
-0.0037694
-0.00316831
-0.00260707
-0.00230976
0.0199429
-0.0187451
-0.0384409
-0.045188
-0.0601157
-0.0840595
-0.0903597
-0.0825566
-0.0621642
-0.0406185
-0.0237744
-0.0129801
-0.00771635
-0.0062065
-0.00597524
-0.00682772
-0.00777011
-0.00881753
-0.00988882
-0.0106041
-0.0112635
-0.0116777
-0.0117423
-0.0119127
-0.0116809
-0.0115444
-0.0111719
-0.0108589
-0.0103586
-0.00982846
-0.00922306
-0.00867969
-0.00801606
-0.0073523
-0.00659107
-0.0058448
-0.0050674
-0.00431579
-0.00367133
-0.00337259
0.0122727
-0.015895
-0.0337357
-0.0409273
-0.0559433
-0.0869178
-0.100162
-0.0979878
-0.0808265
-0.0578056
-0.0381052
-0.0227227
-0.0154404
-0.0114316
-0.0107791
-0.010295
-0.0112278
-0.0117748
-0.0131183
-0.0133525
-0.0142033
-0.0141642
-0.0143355
-0.0141439
-0.0138823
-0.0135063
-0.0130526
-0.0125549
-0.01197
-0.0114092
-0.0108109
-0.0101942
-0.00947806
-0.00872785
-0.00787852
-0.00704138
-0.00618846
-0.0054379
-0.00477941
-0.00439922
0.00304597
-0.0149697
-0.030705
-0.040408
-0.0590631
-0.0867486
-0.104727
-0.109684
-0.098977
-0.0743658
-0.0526772
-0.0331018
-0.0226176
-0.0163368
-0.0144569
-0.0131334
-0.0133292
-0.0138878
-0.0147763
-0.0152088
-0.0158486
-0.0157507
-0.015813
-0.015439
-0.0151205
-0.0145055
-0.0140803
-0.0134759
-0.0129281
-0.0123477
-0.011812
-0.0111306
-0.0104156
-0.00961261
-0.00878365
-0.00797425
-0.00718047
-0.00649798
-0.0058957
-0.00556872
-0.00636556
-0.0189105
-0.0317224
-0.0413456
-0.0613266
-0.084039
-0.103474
-0.116157
-0.115842
-0.0892996
-0.0656726
-0.0454439
-0.0309119
-0.0220258
-0.0185857
-0.0166882
-0.0158716
-0.0165776
-0.0168203
-0.0175913
-0.0177593
-0.0179723
-0.0177752
-0.0175204
-0.0169631
-0.0163396
-0.0158268
-0.0151197
-0.0145177
-0.0138254
-0.0131783
-0.0123732
-0.0116211
-0.0107653
-0.010012
-0.00924624
-0.00855186
-0.00784098
-0.0071123
-0.0067205
-0.0156142
-0.0241134
-0.0368009
-0.0449966
-0.0585347
-0.0804424
-0.0988453
-0.114941
-0.123887
-0.103357
-0.0782449
-0.0563806
-0.0398832
-0.029588
-0.0247973
-0.0222262
-0.0211125
-0.0212427
-0.0212524
-0.02167
-0.021822
-0.0220186
-0.0217803
-0.0215025
-0.0208026
-0.020243
-0.0194658
-0.0186708
-0.0177784
-0.016867
-0.0159044
-0.0149282
-0.0139916
-0.013042
-0.012216
-0.0113483
-0.0105655
-0.0096519
-0.00877187
-0.00830793
-0.0267568
-0.0317986
-0.0435545
-0.0530475
-0.0611011
-0.0745197
-0.0924839
-0.106154
-0.115887
-0.111383
-0.0882853
-0.0651314
-0.0469661
-0.0361281
-0.0307367
-0.0278646
-0.0265568
-0.0260363
-0.0261676
-0.0261184
-0.0265125
-0.0264364
-0.0265117
-0.0261344
-0.02569
-0.0250667
-0.0242501
-0.0233592
-0.0222588
-0.0211736
-0.0199487
-0.0188315
-0.0176682
-0.0165798
-0.0155024
-0.0144382
-0.0133571
-0.0121927
-0.011168
-0.0106031
-0.0412882
-0.0439873
-0.0540064
-0.0644215
-0.0713669
-0.0777674
-0.0841614
-0.0934703
-0.0980028
-0.100721
-0.0869764
-0.0682277
-0.049848
-0.0378074
-0.0325769
-0.0304098
-0.0291208
-0.0290441
-0.0290507
-0.0292315
-0.0294803
-0.0295619
-0.0297416
-0.0296139
-0.0294921
-0.0289687
-0.028368
-0.0275182
-0.0265487
-0.0254392
-0.0242266
-0.0230627
-0.021846
-0.0206594
-0.0193768
-0.0180832
-0.0166896
-0.0153116
-0.0141017
-0.0134679
-0.0598991
-0.0626265
-0.0725383
-0.0827452
-0.0896706
-0.0918883
-0.0900003
-0.0831642
-0.0799806
-0.0712528
-0.065393
-0.0536581
-0.0428669
-0.0338082
-0.0297886
-0.0292272
-0.0290871
-0.0298015
-0.0303287
-0.031123
-0.0312672
-0.0315747
-0.0315448
-0.0317317
-0.031553
-0.0313706
-0.0310265
-0.030498
-0.0297127
-0.0288005
-0.0278207
-0.026801
-0.0256203
-0.0243641
-0.0229788
-0.0215502
-0.0201077
-0.0187016
-0.0173574
-0.0166105
-0.0842278
-0.0888078
-0.102173
-0.115132
-0.124169
-0.125006
-0.114353
-0.0950232
-0.0699979
-0.0479529
-0.0291477
-0.0202675
-0.0189824
-0.0203188
-0.0207669
-0.0239456
-0.0270334
-0.0294948