/*--------------------------------*- C++ -*----------------------------------*\
  =========                 |
  \\      /  F ield         | OpenFOAM: The Open Source CFD Toolbox
   \\    /   O peration     | Website:  https://openfoam.org
    \\  /    A nd           | Version:  10
     \\/     M anipulation  |
\*---------------------------------------------------------------------------*/
FoamFile
{
    format      ascii;
    class       volScalarField;
    location    "0.400511";
    object      p;
}
// * * * * * * * * * * * * * * * * * * * * * * * * * * * * * * * * * * * * * //

dimensions      [1 -1 -2 0 0 0 0];

internalField   nonuniform List<scalar> 
15984
(
2.46108
2.45937
2.45748
2.45509
2.45199
2.44806
2.44326
2.43761
2.43121
2.42422
2.41685
2.40934
2.40196
2.395
2.38874
2.38345
2.37942
2.3769
2.37614
2.377
2.37982
2.38474
2.39188
2.40118
2.41247
2.42555
2.44011
2.4558
2.47221
2.48888
2.50535
2.52118
2.53599
2.54943
2.56126
2.57128
2.57941
2.58561
2.58992
2.59243
2.59329
2.59271
2.59084
2.58786
2.58394
2.57929
2.57411
2.56858
2.56288
2.55715
2.55155
2.5462
2.54122
2.5367
2.45607
2.45456
2.45299
2.45105
2.44851
2.44521
2.44107
2.43611
2.43038
2.42403
2.41725
2.41028
2.40338
2.39681
2.39086
2.38581
2.38192
2.37948
2.37867
2.3795
2.38211
2.38676
2.3936
2.40253
2.4134
2.42604
2.44018
2.45548
2.47157
2.48799
2.50432
2.52011
2.53499
2.54859
2.56066
2.57099
2.57947
2.58605
2.59075
2.59364
2.59484
2.59456
2.59299
2.59025
2.5865
2.58197
2.57684
2.57131
2.56552
2.55964
2.55381
2.54815
2.54277
2.53779
2.451
2.44965
2.44839
2.44688
2.4449
2.44223
2.43879
2.43455
2.42956
2.42393
2.41784
2.41149
2.40515
2.39908
2.39354
2.38883
2.38519
2.3829
2.38216
2.38293
2.38546
2.3899
2.39643
2.40495
2.41538
2.42751
2.44114
2.45594
2.47157
2.48762
2.50366
2.51929
2.53411
2.54778
2.56002
2.57061
2.57942
2.58638
2.59149
2.59479
2.5964
2.59648
2.59528
2.59283
2.58934
2.58501
2.58001
2.57452
2.5687
2.56269
2.55665
2.55069
2.54492
2.53945
2.4459
2.4447
2.44371
2.44264
2.44118
2.43916
2.43644
2.43297
2.42876
2.42392
2.41859
2.41296
2.40728
2.40179
2.39677
2.39248
2.38919
2.38714
2.38653
2.38735
2.38979
2.39406
2.40031
2.40845
2.41838
2.42997
2.443
2.45721
2.47227
2.48782
2.50345
2.51879
2.53344
2.54708
2.55941
2.57021
2.57931
2.58664
2.59217
2.59593
2.598
2.5985
2.5977
2.59564
2.59247
2.5884
2.58358
2.57819
2.57238
2.56629
2.56006
2.5538
2.54763
2.54165
2.44084
2.43975
2.43904
2.43834
2.43741
2.43603
2.43404
2.43136
2.428
2.42399
2.41951
2.41465
2.40973
2.4049
2.40049
2.39673
2.39387
2.39214
2.39176
2.39262
2.39507
2.39924
2.40522
2.41297
2.4224
2.43339
2.44577
2.45931
2.47371
2.48865
2.50377
2.5187
2.53308
2.54658
2.55892
2.56986
2.57922
2.5869
2.59285
2.59708
2.59964
2.60063
2.60026
2.59864
2.59587
2.59212
2.58754
2.5823
2.57654
2.5704
2.56398
2.55743
2.55084
2.54432
2.43589
2.43488
2.43439
2.43407
2.43364
2.43288
2.43163
2.42977
2.42726
2.42415
2.42054
2.41658
2.41246
2.40842
2.4047
2.40154
2.39919
2.39787
2.39774
2.39874
2.40127
2.40535
2.41109
2.41845
2.42738
2.43776
2.44945
2.46226
2.47593
2.49018
2.50468
2.5191
2.53311
2.54639
2.55865
2.56966
2.57923
2.58723
2.59358
2.59828
2.60135
2.60287
2.60297
2.60186
2.59952
2.59615
2.59186
2.58682
2.58115
2.57496
2.56839
2.56153
2.5545
2.5474
2.4311
2.43016
2.42986
2.42987
2.42991
2.42977
2.42926
2.42821
2.4266
2.42441
2.42173
2.4187
2.41548
2.41228
2.40932
2.40686
2.40509
2.40424
2.40443
2.40566
2.40828
2.41234
2.41787
2.42485
2.43328
2.44304
2.45402
2.46606
2.47895
2.49245
2.50626
2.52009
2.53364
2.5466
2.55871
2.56971
2.57942
2.58769
2.59442
2.59958
2.60317
2.60524
2.60586
2.60525
2.6034
2.60046
2.59651
2.5917
2.58615
2.57995
2.57322
2.56605
2.55855
2.55083
2.42653
2.42564
2.42554
2.42582
2.42631
2.42674
2.42692
2.42671
2.42602
2.42478
2.42308
2.42102
2.41875
2.41646
2.41435
2.41264
2.41153
2.41122
2.41173
2.41331
2.41606
2.42012
2.42548
2.43212
2.44005
2.44919
2.45946
2.47071
2.4828
2.4955
2.50857
2.52174
2.53475
2.54732
2.55918
2.57011
2.57989
2.58837
2.59544
2.60103
2.60513
2.60774
2.60892
2.60881
2.60751
2.60501
2.60144
2.59691
2.59149
2.5853
2.57841
2.57092
2.56292
2.55452
2.42227
2.42144
2.42147
2.42202
2.42291
2.42389
2.42476
2.42533
2.4255
2.42526
2.42458
2.42352
2.42225
2.42091
2.4197
2.41881
2.41841
2.41866
2.41963
2.42156
2.42454
2.42862
2.43381
2.44015
2.44762
2.45617
2.46574
2.47623
2.48749
2.49937
2.51166
2.52413
2.53654
2.54864
2.56019
2.57095
2.58073
2.58936
2.59671
2.60269
2.60726
2.61041
2.61216
2.61256
2.61178
2.60977
2.60662
2.60238
2.59712
2.59094
2.58389
2.57606
2.56752
2.55838
2.41839
2.41761
2.41779
2.41856
2.4198
2.42129
2.42279
2.42412
2.42517
2.42585
2.42617
2.42615
2.42593
2.42558
2.42531
2.42529
2.42562
2.42649
2.42803
2.43035
2.43356
2.43769
2.44278
2.44886
2.45591
2.46392
2.47283
2.48257
2.49303
2.50408
2.51557
2.5273
2.53907
2.55065
2.56181
2.57234
2.58204
2.59074
2.59831
2.60462
2.60962
2.61326
2.61555
2.6165
2.61621
2.61471
2.61198
2.60805
2.60298
2.59681
2.5896
2.58139
2.57226
2.5623
2.41497
2.41425
2.41451
2.41551
2.41706
2.419
2.42107
2.42312
2.42498
2.42659
2.42789
2.42891
2.42972
2.4304
2.43109
2.43194
2.43308
2.43465
2.43675
2.4395
2.44297
2.4472
2.45224
2.45811
2.46481
2.47233
2.48064
2.48968
2.49939
2.50965
2.52034
2.53132
2.5424
2.55341
2.56413
2.57436
2.58391
2.59261
2.6003
2.60687
2.61224
2.61633
2.61912
2.62059
2.62079
2.61978
2.61747
2.61387
2.60899
2.60284
2.59544
2.58682
2.57704
2.56616
2.41208
2.41142
2.41179
2.41295
2.41478
2.4171
2.41971
2.42239
2.42502
2.42748
2.42973
2.43176
2.43359
2.43529
2.43694
2.43871
2.44066
2.44297
2.44566
2.44887
2.45263
2.45702
2.46207
2.4678
2.47421
2.48132
2.48909
2.49751
2.50651
2.51603
2.52597
2.53621
2.5466
2.557
2.56723
2.57709
2.58641
2.59502
2.60276
2.60951
2.61517
2.61964
2.62288
2.62484
2.62551
2.62493
2.62306
2.61978
2.61508
2.60894
2.60133
2.59226
2.58175
2.56984
2.40978
2.40924
2.40968
2.41102
2.41306
2.41572
2.41876
2.422
2.4253
2.42856
2.43169
2.43467
2.43749
2.44019
2.44277
2.44547
2.44824
2.45127
2.45459
2.45828
2.46239
2.46699
2.4721
2.47776
2.48397
2.49075
2.49808
2.50596
2.51435
2.5232
2.53243
2.54196
2.55168
2.56145
2.57115
2.58059
2.58962
2.59805
2.60576
2.61259
2.61845
2.62322
2.62683
2.62923
2.63034
2.63015
2.62869
2.62572
2.62119
2.61503
2.60718
2.59761
2.58629
2.57323
2.4082
2.40776
2.40833
2.40979
2.41203
2.41493
2.41832
2.42202
2.4259
2.42984
2.43375
2.43761
2.44138
2.44495
2.44851
2.45205
2.45566
2.45942
2.46334
2.46754
2.47205
2.47691
2.48216
2.48783
2.49393
2.50049
2.50749
2.51494
2.52281
2.53108
2.53969
2.54857
2.55764
2.56679
2.57592
2.5849
2.59356
2.60175
2.60933
2.61615
2.62211
2.6271
2.631
2.63375
2.63525
2.63542
2.6343
2.63162
2.62722
2.62103
2.61292
2.6028
2.59059
2.57624
2.40738
2.40713
2.40778
2.40941
2.41176
2.41486
2.41849
2.42253
2.42685
2.43134
2.43594
2.44051
2.44511
2.4496
2.45394
2.45833
2.4627
2.46717
2.47171
2.47645
2.48139
2.48657
2.49203
2.49781
2.50392
2.51037
2.51718
2.52433
2.53181
2.53961
2.54768
2.55598
2.56445
2.57301
2.58156
2.59001
2.59826
2.60614
2.6135
2.62022
2.62619
2.63128
2.63539
2.6384
2.64022
2.64071
2.63985
2.63741
2.63312
2.62686
2.61847
2.60774
2.59461
2.57907
2.40745
2.4074
2.4082
2.40995
2.41241
2.41558
2.41937
2.4236
2.42822
2.43312
2.4382
2.44342
2.44862
2.45388
2.45901
2.46406
2.46918
2.47427
2.47942
2.48473
2.49014
2.4957
2.50147
2.50747
2.51372
2.52022
2.52698
2.53398
2.54122
2.54868
2.55633
2.56414
2.57206
2.58005
2.58804
2.59596
2.60373
2.61121
2.61828
2.6248
2.63067
2.63577
2.63998
2.64317
2.64522
2.64596
2.6453
2.64302
2.63882
2.63245
2.62374
2.61249
2.59869
2.58201
2.40847
2.40867
2.4097
2.41154
2.41403
2.41723
2.42103
2.42532
2.43008
2.43517
2.44059
2.4462
2.45191
2.45768
2.46338
2.4691
2.47478
2.48055
2.48617
2.49206
2.49799
2.50402
2.5102
2.51655
2.52308
2.5298
2.5367
2.54374
2.55091
2.55818
2.56553
2.57294
2.58039
2.58786
2.5953
2.60266
2.60991
2.61695
2.62364
2.62988
2.63556
2.64056
2.64477
2.64804
2.65022
2.65114
2.65062
2.64845
2.64426
2.63774
2.62875
2.61712
2.60291
2.5849
2.41056
2.41109
2.41236
2.41428
2.41676
2.41987
2.42358
2.42777
2.43245
2.43752
2.44299
2.44877
2.45475
2.46087
2.46696
2.47311
2.47927
2.4855
2.49178
2.49814
2.50461
2.51116
2.51786
2.52471
2.53173
2.53887
2.54612
2.55341
2.5607
2.56796
2.57516
2.58229
2.58935
2.59634
2.60325
2.61006
2.61676
2.62329
2.62954
2.63541
2.64081
2.64562
2.64972
2.65297
2.6552
2.65621
2.65577
2.65364
2.64942
2.64278
2.63367
2.62161
2.60584
2.5824
2.41376
2.41474
2.41628
2.41823
2.42063
2.42363
2.42708
2.43097
2.43532
2.44013
2.44541
2.45103
2.45705
2.46323
2.46941
2.47586
2.48231
2.48886
2.49574
2.50252
2.50958
2.51672
2.52406
2.5316
2.53931
2.54713
2.55498
2.56277
2.57041
2.57786
2.58507
2.59205
2.59881
2.60538
2.61179
2.61805
2.62417
2.63014
2.63589
2.64133
2.64635
2.65087
2.65477
2.65791
2.66011
2.66113
2.6607
2.65852
2.65424
2.64757
2.63798
2.62294
2.6063
2.58932
2.4182
2.41968
2.42146
2.42348
2.4258
2.42849
2.43158
2.43495
2.43877
2.44304
2.44775
2.45298
2.45858
2.46442
2.47063
2.47695
2.4836
2.49031
2.4975
2.5048
2.51232
2.52015
2.52829
2.53675
2.54544
2.55424
2.56299
2.57157
2.57983
2.58769
2.59509
2.60205
2.60861
2.61482
2.62077
2.62648
2.632
2.63738
2.64258
2.64751
2.65209
2.65625
2.65987
2.66282
2.66489
2.66586
2.66536
2.66316
2.65884
2.65208
2.64058
2.63142
2.61384
2.59188
2.42393
2.42595
2.428
2.43006
2.43225
2.43454
2.43706
2.43972
2.44278
2.44622
2.45008
2.45443
2.45917
2.46451
2.47022
2.47608
2.48251
2.48942
2.4967
2.50426
2.51223
2.52083
2.52994
2.53964
2.54969
2.55982
2.56983
2.57953
2.58872
2.59724
2.60502
2.61211
2.61856
2.62449
2.63
2.63519
2.64012
2.64487
2.64946
2.65383
2.65792
2.66165
2.66492
2.66761
2.66952
2.67035
2.66979
2.66753
2.66326
2.65575
2.64977
2.63579
2.61751
2.59441
2.43095
2.43358
2.43594
2.43797
2.43995
2.44174
2.44356
2.44533
2.44733
2.44963
2.45234
2.45535
2.4589
2.46318
2.46798
2.47318
2.47878
2.4856
2.49285
2.50046
2.50896
2.51847
2.52854
2.53968
2.5515
2.56339
2.57511
2.58635
2.59681
2.60627
2.61465
2.62201
2.62846
2.63417
2.63929
2.64397
2.64831
2.65242
2.65637
2.66015
2.66369
2.66694
2.66982
2.67221
2.67392
2.67465
2.67407
2.67196
2.66669
2.66381
2.65192
2.63814
2.61973
2.59626
2.43929
2.44255
2.44518
2.44717
2.44881
2.45002
2.45095
2.45165
2.45242
2.45333
2.45454
2.45578
2.45755
2.4609
2.46414
2.46809
2.47248
2.47878
2.48549
2.49239
2.50095
2.51164
2.5235
2.53726
2.55094
2.56468
2.57848
2.59171
2.60382
2.61452
2.62372
2.63151
2.63806
2.64362
2.64839
2.65259
2.65637
2.65984
2.66314
2.66631
2.66927
2.672
2.67446
2.67652
2.67799
2.67869
2.67838
2.67604
2.672
2.66531
2.65373
2.63934
2.62079
2.59734
2.44884
2.45272
2.45558
2.4575
2.45873
2.45926
2.45914
2.45862
2.4579
2.45729
2.45687
2.45595
2.45514
2.4584
2.46006
2.46227
2.46485
2.47017
2.47645
2.48177
2.49123
2.50136
2.51349
2.53138
2.54754
2.56358
2.57984
2.59539
2.60951
2.62174
2.63198
2.64034
2.64711
2.65258
2.65707
2.66083
2.66406
2.66693
2.66958
2.67212
2.6745
2.67671
2.67872
2.68042
2.6817
2.6824
2.68133
2.68015
2.67386
2.66513
2.65378
2.63907
2.62048
2.59735
2.45944
2.46391
2.46695
2.46872
2.4695
2.46924
2.46796
2.46602
2.46374
2.46205
2.45967
2.4566
2.45336
2.45489
2.45378
2.4542
2.45673
2.45975
2.46431
2.46958
2.48006
2.48822
2.50519
2.52381
2.54147
2.56052
2.57954
2.59756
2.61386
2.6278
2.6392
2.64826
2.65532
2.6608
2.66507
2.66845
2.6712
2.67351
2.67556
2.67746
2.67926
2.68096
2.68254
2.68398
2.68498
2.68468
2.68041
2.67973
2.67285
2.6639
2.65221
2.63735
2.61883
2.59609
2.47079
2.47576
2.47892
2.48056
2.48077
2.47963
2.47702
2.47371
2.46913
2.46831
2.46351
2.45459
2.45173
2.45089
2.45048
2.44936
2.44853
2.44836
2.44986
2.45343
2.4619
2.47313
2.4917
2.50914
2.53237
2.55591
2.57757
2.59829
2.61692
2.63263
2.64524
2.65504
2.66247
2.66802
2.67216
2.67524
2.67758
2.67939
2.68088
2.6822
2.68344
2.68466
2.68589
2.68695
2.687
2.68392
2.68368
2.67844
2.67109
2.66154
2.64951
2.63454
2.61619
2.59414
2.48243
2.48778
2.49098
2.49241
2.49213
2.49011
2.48634
2.48139
2.47428
2.47223
2.46284
2.45853
2.4543
2.45052
2.44634
2.44191
2.43811
2.43551
2.43506
2.43705
2.44394
2.45605
2.47586
2.49918
2.52029
2.54998
2.5749
2.59813
2.61892
2.63625
2.65
2.66052
2.66835
2.67405
2.67813
2.68102
2.68303
2.68444
2.68545
2.68625
2.68699
2.68772
2.68841
2.68848
2.68671
2.68745
2.68283
2.67641
2.66831
2.6583
2.64602
2.63105
2.61302
2.59169
2.4939
2.49945
2.50257
2.50369
2.50295
2.50038
2.49588
2.48731
2.48321
2.47734
2.46964
2.46278
2.45579
2.4484
2.44049
2.43249
2.42513
2.41976
2.41667
2.41697
2.42388
2.43698
2.4581
2.48539
2.51155
2.54438
2.5722
2.59762
2.62012
2.63874
2.65343
2.66458
2.6728
2.6787
2.68284
2.68564
2.68745
2.68856
2.68918
2.6895
2.6897
2.68986
2.68957
2.68764
2.68844
2.68582
2.68009
2.67317
2.66471
2.65445
2.64209
2.62726
2.60965
2.58909
2.5047
2.51024
2.5132
2.51436
2.51294
2.51079
2.50425
2.49643
2.49135
2.48401
2.47532
2.46563
2.45528
2.44447
2.43274
2.42123
2.40977
2.40172
2.39678
2.39668
2.40377
2.41782
2.44037
2.47272
2.50343
2.53857
2.56929
2.59678
2.62057
2.64011
2.65547
2.66712
2.67571
2.68186
2.68614
2.68892
2.69066
2.69162
2.69199
2.69186
2.69141
2.69051
2.6884
2.6904
2.6862
2.68195
2.67636
2.6693
2.66071
2.65039
2.63809
2.6235
2.60638
2.58661
2.51457
2.51994
2.52229
2.52141
2.51845
2.52301
2.51571
2.50699
2.49899
2.48964
2.47872
2.46641
2.45305
2.43876
2.42362
2.40868
2.3948
2.38422
2.37878
2.37907
2.38675
2.40221
2.42726
2.4635
2.49824
2.53436
2.56686
2.59581
2.62026
2.64024
2.65598
2.66801
2.67695
2.6834
2.68788
2.69081
2.69264
2.69363
2.69401
2.69388
2.69259
2.68942
2.69025
2.68759
2.68372
2.67884
2.67283
2.66551
2.65678
2.64647
2.63431
2.62001
2.60341
2.58442
2.52307
2.52857
2.53158
2.53652
2.5319
2.52682
2.52274
2.51503
2.50519
2.49356
2.48022
2.4654
2.4492
2.43188
2.41405
2.39676
2.38016
2.36839
2.36213
2.36232
2.37155
2.38968
2.41786
2.45831
2.49684
2.53394
2.56608
2.59475
2.61912
2.63914
2.65502
2.66729
2.67654
2.68332
2.68811
2.69133
2.69337
2.6946
2.69507
2.69389
2.6906
2.69091
2.68856
2.68514
2.68083
2.67549
2.66927
2.66185
2.65311
2.64287
2.63089
2.61694
2.60085
2.58257
2.53055
2.5357
2.53857
2.54067
2.54055
2.53711
2.52992
2.52033
2.50861
2.49501
2.47965
2.46263
2.4442
2.42505
2.40586
2.38653
2.36893
2.35661
2.35106
2.35004
2.36228
2.38572
2.41824
2.45757
2.49766
2.53312
2.56473
2.59284
2.61682
2.63661
2.65251
2.66501
2.67459
2.68176
2.6869
2.69043
2.6926
2.6936
2.69409
2.6918
2.69055
2.68881
2.68608
2.68247
2.67791
2.67233
2.66589
2.65844
2.64977
2.63967
2.62793
2.61433
2.59874
2.58112
2.53776
2.54292
2.54704
2.54873
2.54741
2.54213
2.53349
2.52253
2.50934
2.49414
2.47711
2.45854
2.43906
2.42026
2.40043
2.38197
2.36462
2.35034
2.34483
2.34868
2.3645
2.38879
2.42065
2.46188
2.49881
2.53236
2.56293
2.59006
2.61329
2.63262
2.64839
2.66101
2.67091
2.6785
2.68406
2.68772
2.68967
2.69013
2.69073
2.69001
2.68805
2.68601
2.68304
2.6793
2.67466
2.66904
2.66259
2.65525
2.64673
2.63686
2.62541
2.6122
2.59712
2.58009
2.5456
2.55138
2.55483
2.55527
2.5519
2.54474
2.53466
2.52219
2.50755
2.49104
2.47302
2.45401
2.43508
2.41648
2.39974
2.38228
2.36693
2.35616
2.35186
2.35792
2.37297
2.39547
2.43012
2.46552
2.49942
2.53146
2.56047
2.58628
2.60843
2.62712
2.64263
2.6553
2.66545
2.67331
2.67916
2.68302
2.68477
2.68615
2.68641
2.68595
2.68419
2.68218
2.67925
2.67556
2.67101
2.66555
2.65924
2.6521
2.64387
2.63431
2.62325
2.61049
2.59591
2.57947
2.55482
2.55912
2.56081
2.55915
2.55367
2.54492
2.53334
2.51938
2.50348
2.48617
2.46813
2.45032
2.43337
2.417
2.4021
2.38711
2.37411
2.36536
2.36317
2.36985
2.38564
2.41061
2.43923
2.46988
2.50076
2.53032
2.55732
2.58129
2.60216
2.62004
2.63515
2.64779
2.65815
2.66621
2.67223
2.67568
2.67806
2.68004
2.68051
2.68019
2.67901
2.67715
2.67451
2.67104
2.66679
2.66167
2.65566
2.64881
2.64098
2.63187
2.62128
2.60906
2.59508
2.57926
2.56375
2.56559
2.56485
2.56063
2.55304
2.54253
2.52937
2.51408
2.49731
2.47988
2.46297
2.44819
2.4311
2.41797
2.40556
2.39336
2.3836
2.37788
2.37802
2.38547
2.40045
2.42178
2.4472
2.4745
2.50192
2.52854
2.55301
2.57504
2.59448
2.61137
2.62588
2.63834
2.64905
2.65709
2.66129
2.66756
2.66891
2.672
2.67278
2.67302
2.6723
2.67087
2.66862
2.66559
2.66177
2.65714
2.65162
2.64518
2.63781
2.62927
2.61931
2.60775
2.59447
2.57935
2.57179
2.5707
2.56679
2.55986
2.55016
2.53777
2.52305
2.50664
2.48942
2.47243
2.45712
2.44463
2.43015
2.41881
2.40878
2.39928
2.39237
2.38947
2.39123
2.399
2.41269
2.43164
2.45391
2.47781
2.50212
2.52563
2.54756
2.56757
2.5854
2.60123
2.61503
2.62723
2.63812
2.64393
2.64906
2.65703
2.65912
2.66206
2.66356
2.66427
2.66409
2.66316
2.66145
2.65897
2.65574
2.65171
2.64682
2.64097
2.63414
2.62626
2.61707
2.60633
2.59389
2.57962
2.57901
2.57416
2.56691
2.55731
2.5453
2.53099
2.51483
2.49762
2.48038
2.46427
2.45069
2.44
2.42834
2.41897
2.41091
2.40399
2.39984
2.39885
2.40196
2.40991
2.42261
2.43922
2.45866
2.47955
2.50075
2.52139
2.541
2.55902
2.57531
2.58997
2.60313
2.61444
2.62187
2.63371
2.63887
2.64269
2.64751
2.65063
2.65273
2.65395
2.65432
2.65396
2.65287
2.65104
2.64848
2.64515
2.64099
2.63589
2.62977
2.62261
2.61429
2.60452
2.59309
2.57981
2.58523
2.57626
2.56563
2.5532
2.53883
2.52268
2.50533
2.48769
2.47085
2.45597
2.44378
2.43406
2.42589
2.41783
2.41167
2.40712
2.40502
2.4056
2.40967
2.41763
2.42922
2.44397
2.46098
2.47915
2.49767
2.516
2.53328
2.54958
2.56467
2.57848
2.58991
2.59484
2.61339
2.61968
2.62352
2.62971
2.63427
2.63783
2.64036
2.64212
2.64304
2.64326
2.64283
2.64169
2.63986
2.6373
2.63393
2.6297
2.62448
2.61816
2.61072
2.602
2.59174
2.57961
2.59042
2.57731
2.56324
2.54791
2.53124
2.51347
2.49524
2.47755
2.46145
2.44805
2.4384
2.42707
2.42086
2.41556
2.41118
2.40848
2.40782
2.40961
2.41433
2.42211
2.43278
2.44594
2.46082
2.47678
2.49312
2.50936
2.52499
2.53978
2.5538
2.56666
2.57591
2.57939
2.59846
2.6016
2.60918
2.61499
2.61984
2.62368
2.62667
2.62886
2.63037
2.63114
2.63133
2.6309
2.62982
2.62804
2.62552
2.62218
2.61795
2.6127
2.60627
2.59858
2.58946
2.57864
2.59501
2.57776
2.56013
2.54195
2.52316
2.50405
2.48528
2.46777
2.45254
2.44035
2.43164
2.42044
2.41598
2.41239
2.40945
2.4082
2.40855
2.41121
2.41626
2.42376
2.43363
2.44546
2.45876
2.47276
2.48726
2.50184
2.51597
2.52968
2.54311
2.55375
2.56044
2.56784
2.57962
2.58592
2.59331
2.5994
2.60442
2.60854
2.61185
2.61445
2.61643
2.61778
2.61854
2.61874
2.61839
2.61737
2.61568
2.61325
2.61002
2.60586
2.60062
2.59411
2.58614
2.57652
2.59927
2.57784
2.55677
2.5359
2.51524
2.49511
2.47613
2.459
2.4445
2.43353
2.42308
2.41571
2.41195
2.40861
2.4067
2.40631
2.40763
2.41083
2.41601
2.42319
2.43238
2.44307
2.45482
2.46742
2.48048
2.49362
2.50668
2.51949
2.53146
2.54061
2.54592
2.55429
2.56462
2.57032
2.57735
2.58335
2.58844
2.59272
2.59625
2.59919
2.60156
2.60336
2.60467
2.60542
2.60566
2.60536
2.60445
2.60287
2.60058
2.59748
2.59341
2.58818
2.58152
2.57314
2.60322
2.57777
2.55333
2.52991
2.50755
2.48656
2.46745
2.4509
2.43761
2.42896
2.41565
2.41031
2.40751
2.40453
2.40326
2.40365
2.40557
2.40908
2.41423
2.421
2.42939
2.43908
2.44989
2.46129
2.47326
2.48521
2.49705
2.509
2.52074
2.52384
2.53672
2.541
2.55032
2.55543
2.56169
2.56727
2.57224
2.57655
2.58028
2.58345
2.58608
2.58823
2.58992
2.59113
2.59188
2.59212
2.59188
2.59107
2.58963
2.58751
2.58451
2.58046
2.5751
2.56806
2.607
2.57781
2.55036
2.52471
2.50097
2.47939
2.46028
2.44381
2.43051
2.42201
2.41398
2.4069
2.40367
2.4001
2.39968
2.40065
2.40271
2.40637
2.41135
2.41777
2.42554
2.43445
2.44435
2.4547
2.46558
2.47699
2.487
2.49436
2.51079
2.5139
2.51921
2.52854
2.53471
2.5403
2.54606
2.5514
2.55622
2.56052
2.56434
2.56757
2.57042
2.57273
2.57466
2.57607
2.5772
2.57783
2.57809
2.5779
2.57721
2.57593
2.57391
2.57092
2.56669
2.56085
2.6105
2.57802
2.54798
2.52048
2.49561
2.47351
2.45432
2.4381
2.42549
2.41723
2.4096
2.40446
2.40087
2.39717
2.3965
2.39748
2.39983
2.40347
2.4082
2.41421
2.4213
2.42927
2.43803
2.44722
2.45749
2.47056
2.47874
2.48765
2.49433
2.49819
2.50924
2.51323
2.52013
2.52562
2.53109
2.53617
2.5408
2.54503
2.54881
2.55202
2.55485
2.55719
2.55909
2.5606
2.56177
2.56263
2.56321
2.56345
2.56336
2.5628
2.56163
2.55957
2.55635
2.55146
2.61348
2.57836
2.54624
2.51731
2.49163
2.46917
2.44995
2.43413
2.4222
2.41542
2.40142
2.40262
2.40073
2.39617
2.3944
2.39455
2.3974
2.40079
2.40487
2.41013
2.41636
2.42325
2.43237
2.443
2.4533
2.46175
2.4684
2.47437
2.48136
2.48596
2.49573
2.50035
2.50657
2.51192
2.51716
2.52201
2.52646
2.53053
2.53411
2.53719
2.53979
2.5419
2.54355
2.54486
2.54585
2.54664
2.54727
2.54779
2.54814
2.54821
2.54778
2.54655
2.54416
2.54005
2.6156
2.57849
2.54496
2.51513
2.48903
2.4665
2.44737
2.43169
2.41948
2.41035
2.40295
2.39984
2.40028
2.39638
2.3928
2.39287
2.39509
2.3978
2.40138
2.40653
2.41382
2.42144
2.42865
2.43598
2.44427
2.45061
2.45794
2.46317
2.46949
2.47643
2.48288
2.48869
2.49445
2.49976
2.50472
2.50939
2.51362
2.51739
2.52068
2.52337
2.52555
2.52712
2.52828
2.52906
2.52956
2.52996
2.53037
2.53089
2.53157
2.53228
2.53258
2.53216
2.5305
2.52701
2.61658
2.5783
2.54399
2.51383
2.48779
2.46557
2.44685
2.43142
2.41906
2.40943
2.40249
2.39914
2.39904
2.39798
2.39142
2.39199
2.39493
2.39814
2.40179
2.40573
2.41026
2.41555
2.42189
2.42845
2.43601
2.44082
2.44717
2.45504
2.46033
2.46734
2.47315
2.47892
2.4844
2.48951
2.49429
2.49871
2.50263
2.50599
2.50881
2.5109
2.5124
2.51318
2.51347
2.51335
2.51297
2.51262
2.51252
2.51281
2.51365
2.51504
2.51636
2.51681
2.51598
2.513
2.61644
2.57775
2.54303
2.51307
2.48755
2.46594
2.44789
2.43303
2.421
2.41147
2.40424
2.39973
2.3984
2.39639
2.3905
2.39204
2.39445
2.39644
2.39923
2.40249
2.40732
2.41097
2.41646
2.42126
2.42877
2.4342
2.4407
2.44763
2.45359
2.45999
2.46582
2.47143
2.47672
2.48166
2.48621
2.49029
2.49379
2.49669
2.4988
2.5001
2.50055
2.50028
2.49932
2.49787
2.49612
2.49447
2.49357
2.49342
2.49433
2.49653
2.49945
2.50122
2.50154
2.49914
2.61478
2.5763
2.54214
2.51274
2.48801
2.46748
2.4504
2.43634
2.42488
2.41567
2.40846
2.40327
2.40016
2.39678
2.39348
2.39421
2.39535
2.39668
2.3988
2.40101
2.40533
2.40852
2.41361
2.41866
2.42483
2.43067
2.43689
2.44324
2.44929
2.45538
2.46112
2.4666
2.47174
2.47647
2.48077
2.48447
2.4875
2.48973
2.49095
2.49121
2.49042
2.48864
2.48599
2.4827
2.47905
2.47557
2.47331
2.4726
2.47361
2.47685
2.48187
2.48658
2.4885
2.48721
2.61151
2.57383
2.54073
2.51259
2.48915
2.46988
2.45407
2.44114
2.4305
2.42181
2.41482
2.40935
2.40507
2.40159
2.39936
2.39876
2.39881
2.39949
2.40087
2.40312
2.40621
2.40975
2.41417
2.41899
2.42449
2.43004
2.43597
2.44203
2.44795
2.4538
2.45942
2.46477
2.46972
2.47425
2.47821
2.48151
2.48399
2.48532
2.48557
2.48456
2.48219
2.47848
2.47362
2.46785
2.46164
2.45555
2.45119
2.44967
2.45076
2.45559
2.46375
2.473
2.47822
2.47874
2.60666
2.57022
2.53863
2.51218
2.4905
2.47289
2.45861
2.44694
2.43739
2.42954
2.42305
2.41775
2.41339
2.40998
2.40759
2.4063
2.4057
2.40575
2.40663
2.4083
2.41084
2.41392
2.41782
2.42217
2.42718
2.43249
2.43811
2.44388
2.44964
2.45533
2.46079
2.46599
2.47079
2.47511
2.4788
2.48169
2.48341
2.48388
2.48298
2.48045
2.47616
2.47007
2.46239
2.45345
2.44383
2.43427
2.42708
2.42433
2.42557
2.43271
2.44543
2.4611
2.47223
2.47543
2.60024
2.56544
2.53571
2.51125
2.4916
2.47595
2.46347
2.45342
2.4452
2.43838
2.43266
2.42784
2.4238
2.42053
2.41809
2.41644
2.41541
2.41507
2.4155
2.41671
2.41868
2.42139
2.42477
2.42875
2.43333
2.43831
2.44361
2.44911
2.45465
2.46014
2.46544
2.47044
2.47499
2.479
2.48236
2.48464
2.48561
2.48531
2.48326
2.47908
2.47258
2.46371
2.45256
2.43968
2.42556
2.41127
2.39969
2.39482
2.39553
2.40503
2.42314
2.44689
2.46714
2.47555
2.59259
2.55959
2.53195
2.5097
2.49226
2.47875
2.46825
2.45998
2.45331
2.44778
2.4431
2.43909
2.4356
2.43265
2.43033
2.42859
2.42741
2.42688
2.42699
2.42782
2.42939
2.43169
2.43469
2.43836
2.44262
2.44736
2.45247
2.4578
2.46322
2.46861
2.4738
2.47867
2.48306
2.48687
2.48975
2.49132
2.49151
2.49001
2.48649
2.48062
2.47186
2.4598
2.44453
2.42653
2.40673
2.38627
2.36818
2.35955
2.35923
2.37199
2.39684
2.42856
2.46019
2.47962
2.53272
2.52934
2.52658
2.52446
2.52294
2.522
2.52157
2.5216
2.52198
2.52261
2.52338
2.52412
2.52475
2.52514
2.52516
2.52484
2.52405
2.52278
2.52096
2.51863
2.53327
2.52929
2.52588
2.52305
2.52077
2.51906
2.51785
2.51707
2.51666
2.51651
2.51654
2.5166
2.51658
2.51642
2.51599
2.51524
2.51412
2.51257
2.51058
2.50818
2.53437
2.52974
2.5256
2.52199
2.5189
2.51634
2.51426
2.51259
2.5113
2.51032
2.50955
2.50888
2.50822
2.50746
2.50654
2.50536
2.50391
2.50214
2.50002
2.49758
2.53595
2.53062
2.5257
2.52123
2.51724
2.51373
2.51069
2.50807
2.50584
2.50394
2.50231
2.50087
2.49952
2.49815
2.49673
2.49516
2.4934
2.49143
2.48923
2.48682
2.53797
2.53186
2.52608
2.52067
2.51568
2.51114
2.50705
2.50338
2.50012
2.49724
2.49471
2.49244
2.49037
2.48841
2.48649
2.48454
2.48252
2.4804
2.47817
2.47584
2.54034
2.5334
2.52667
2.52022
2.51413
2.50844
2.50318
2.49839
2.49402
2.4901
2.4866
2.48349
2.48069
2.47813
2.47573
2.47343
2.47119
2.46898
2.46678
2.46461
2.54299
2.53513
2.52735
2.51976
2.51244
2.50548
2.49896
2.49291
2.48736
2.48233
2.47784
2.47386
2.47033
2.46719
2.46435
2.46176
2.45937
2.45713
2.45504
2.4531
2.54583
2.53695
2.52802
2.51914
2.51046
2.5021
2.49417
2.48678
2.47996
2.47376
2.46823
2.46339
2.45916
2.45547
2.45226
2.44945
2.44698
2.44481
2.44292
2.4413
2.54874
2.53874
2.5285
2.5182
2.50799
2.49807
2.4886
2.47973
2.47155
2.46415
2.45758
2.45189
2.447
2.44285
2.43935
2.43641
2.43397
2.43197
2.43039
2.4292
2.55162
2.54034
2.52864
2.51671
2.50479
2.49313
2.48195
2.47146
2.46185
2.4532
2.44562
2.43913
2.43368
2.42917
2.4255
2.42257
2.42029
2.41859
2.41744
2.4168
2.5543
2.54158
2.52821
2.51443
2.50056
2.48691
2.47383
2.4616
2.45046
2.44057
2.43203
2.42486
2.41898
2.41427
2.4106
2.40784
2.40589
2.40466
2.40408
2.40412
2.55664
2.54225
2.52696
2.51106
2.49494
2.47904
2.46382
2.44966
2.43692
2.42582
2.41644
2.40875
2.40263
2.39794
2.39449
2.39213
2.39073
2.39016
2.39031
2.39113
2.5585
2.54217
2.52464
2.50625
2.48753
2.46907
2.45144
2.43515
2.42068
2.4085
2.39847
2.39048
2.38435
2.37996
2.37703
2.37537
2.37478
2.37508
2.37615
2.37804
2.55985
2.54136
2.52128
2.49998
2.47832
2.45694
2.43655
2.41771
2.40114
2.38807
2.37773
2.36971
2.3639
2.36016
2.35813
2.35749
2.358
2.35948
2.3618
2.36489
2.56089
2.54012
2.51745
2.49267
2.4674
2.4428
2.41956
2.39724
2.3781
2.36482
2.35427
2.34635
2.34107
2.33834
2.33766
2.33845
2.34053
2.34358
2.34735
2.35177
2.56162
2.53798
2.51239
2.48227
2.45208
2.42359
2.3974
2.37223
2.34998
2.33735
2.32794
2.32055
2.31607
2.31478
2.31579
2.31858
2.32265
2.32751
2.33292
2.33888
2.56068
2.53167
2.50221
2.47577
2.44573
2.41354
2.38091
2.35255
2.3259
2.30706
2.29875
2.29074
2.28875
2.29
2.29302
2.29837
2.30487
2.31172
2.31893
2.32647
2.55952
2.5353
2.50378
2.46928
2.43296
2.39407
2.35767
2.32486
2.2969
2.27871
2.26985
2.25419
2.25552
2.26372
2.27097
2.27929
2.28795
2.29691
2.3059
2.31495
2.5632
2.53365
2.49874
2.45883
2.41821
2.37814
2.34011
2.30488
2.27423
2.25166
2.23623
2.22916
2.23048
2.23658
2.24784
2.26145
2.27301
2.28377
2.29432
2.30467
2.5644
2.53146
2.49434
2.4531
2.41024
2.3678
2.32733
2.29036
2.25789
2.23212
2.21413
2.20701
2.21096
2.2191
2.22886
2.24701
2.26107
2.27329
2.28492
2.29609
2.56576
2.53127
2.49126
2.44779
2.40341
2.35986
2.31955
2.28172
2.24757
2.21911
2.20067
2.19198
2.19614
2.20839
2.22185
2.23776
2.2533
2.26628
2.27818
2.28946
2.56696
2.53208
2.49192
2.44783
2.40277
2.35883
2.31799
2.28032
2.24657
2.21903
2.19871
2.18844
2.19245
2.2054
2.21992
2.23547
2.25055
2.26311
2.27437
2.2849
2.56856
2.53379
2.4944
2.45045
2.40682
2.36285
2.32205
2.28543
2.25364
2.22786
2.20867
2.19946
2.20056
2.21199
2.22508
2.23923
2.25215
2.26336
2.27313
2.28196
2.56945
2.5373
2.49995
2.45941
2.41354
2.37008
2.32921
2.29552
2.26531
2.24058
2.2227
2.21616
2.21915
2.22408
2.23596
2.24723
2.25739
2.26592
2.27328
2.27985
2.56908
2.53785
2.50273
2.46465
2.42489
2.38463
2.34572
2.30753
2.2768
2.25378
2.2387
2.23288
2.23438
2.24063
2.24636
2.25659
2.26411
2.26925
2.27365
2.27699
2.56826
2.53869
2.50582
2.4701
2.43288
2.39613
2.36186
2.32865
2.30184
2.27961
2.26269
2.25242
2.24851
2.25143
2.25648
2.26054
2.26506
2.27082
2.27294
2.27206
2.567
2.53909
2.50841
2.47544
2.44131
2.40805
2.37541
2.34593
2.32041
2.29942
2.2831
2.27257
2.26801
2.26737
2.26897
2.27136
2.27339
2.27183
2.26794
2.26933
2.56559
2.53931
2.51067
2.48023
2.44912
2.41815
2.38841
2.36081
2.33653
2.31603
2.2998
2.28818
2.28083
2.27651
2.27394
2.27196
2.26943
2.2653
2.2605
2.25379
2.56423
2.53945
2.51265
2.48438
2.45542
2.42674
2.39914
2.37334
2.35031
2.33051
2.31427
2.30155
2.29184
2.28442
2.27829
2.27239
2.26582
2.25803
2.24933
2.23907
2.56309
2.53963
2.51432
2.48779
2.46081
2.43372
2.40764
2.38311
2.36087
2.34124
2.32447
2.31048
2.29896
2.28908
2.27975
2.27061
2.2612
2.25052
2.23864
2.22586
2.56217
2.53984
2.51584
2.49067
2.46512
2.43948
2.41466
2.39118
2.36954
2.34999
2.3327
2.31752
2.30401
2.29142
2.27933
2.26736
2.25509
2.24679
2.23292
2.21789
2.56153
2.54013
2.51717
2.49307
2.46868
2.44415
2.42028
2.39756
2.37642
2.35701
2.33914
2.32265
2.30717
2.29254
2.27889
2.26637
2.25581
2.24375
2.2236
2.21425
2.56118
2.54053
2.51843
2.49521
2.47159
2.44799
2.42477
2.40247
2.38156
2.36186
2.34335
2.32569
2.30899
2.29314
2.27822
2.26459
2.25383
2.23643
2.22879
2.22
2.56119
2.5412
2.51976
2.49725
2.47415
2.45097
2.42804
2.406
2.38479
2.36449
2.34511
2.32637
2.30848
2.29197
2.27655
2.26251
2.25117
2.23704
2.2336
2.22596
2.56159
2.5422
2.52129
2.4992
2.47635
2.45314
2.43009
2.40758
2.38565
2.36467
2.34439
2.32498
2.30628
2.28784
2.27092
2.25661
2.24745
2.23723
2.23583
2.23446
2.56237
2.54356
2.5231
2.50123
2.47834
2.45484
2.43113
2.40769
2.38454
2.36195
2.33986
2.31841
2.29779
2.27867
2.26149
2.2479
2.23784
2.23295
2.23149
2.24248
2.56341
2.54525
2.52521
2.50346
2.48032
2.45614
2.43136
2.40641
2.38141
2.35647
2.33214
2.3079
2.2852
2.264
2.24542
2.23423
2.22845
2.22602
2.22963
2.23962
2.56453
2.54714
2.52758
2.50594
2.48243
2.45736
2.43113
2.404
2.37634
2.34838
2.32055
2.29369
2.26789
2.24485
2.22627
2.21484
2.21047
2.21124
2.21813
2.23013
2.56542
2.54894
2.53002
2.50858
2.48469
2.45855
2.43044
2.40067
2.36956
2.33749
2.30586
2.27437
2.24607
2.22037
2.20184
2.19413
2.19098
2.194
2.20455
2.2207
2.56569
2.55033
2.53223
2.51115
2.48696
2.45968
2.42942
2.39644
2.36105
2.32402
2.28752
2.25102
2.21991
2.19191
2.17552
2.1678
2.1664
2.17305
2.18775
2.21032
2.5649