/*--------------------------------*- C++ -*----------------------------------*\
  =========                 |
  \\      /  F ield         | OpenFOAM: The Open Source CFD Toolbox
   \\    /   O peration     | Website:  https://openfoam.org
    \\  /    A nd           | Version:  10
     \\/     M anipulation  |
\*---------------------------------------------------------------------------*/
FoamFile
{
    format      ascii;
    class       surfaceScalarField;
    location    "0.400511";
    object      phi;
}
// * * * * * * * * * * * * * * * * * * * * * * * * * * * * * * * * * * * * * //

dimensions      [1 0 -1 0 0 0 0];

internalField   nonuniform List<scalar> 
31672
(
0.000478629
-3.32701e-05
0.000475035
-3.30085e-05
0.000471275
-3.27085e-05
0.000467454
-3.2394e-05
0.000463621
-3.20942e-05
0.000459846
-3.18094e-05
0.000456118
-3.15475e-05
0.000452465
-3.13068e-05
0.000448859
-3.10822e-05
0.000445282
-3.08651e-05
0.000441719
-3.06465e-05
0.000438101
-3.04091e-05
0.000434392
-3.01429e-05
0.000430549
-2.98334e-05
0.000426483
-2.947e-05
0.000422143
-2.90464e-05
0.000417486
-2.85513e-05
0.00041244
-2.79895e-05
0.000407008
-2.73403e-05
0.000401172
-2.66584e-05
0.000394916
-2.58477e-05
0.000388202
-2.5005e-05
0.000380955
-2.41081e-05
0.000373287
-2.31289e-05
0.000365213
-2.2117e-05
0.000356816
-2.10541e-05
0.000348214
-1.99809e-05
0.000339485
-1.89127e-05
0.000330786
-1.78872e-05
0.000322239
-1.69357e-05
0.000313988
-1.60985e-05
0.000306184
-1.54159e-05
0.000298937
-1.49256e-05
0.000292351
-1.46512e-05
0.00028651
-1.4623e-05
0.000281478
-1.48456e-05
0.000277274
-1.53305e-05
0.000273951
-1.60618e-05
0.000271473
-1.70314e-05
0.000269822
-1.82044e-05
0.000269013
-1.95458e-05
0.000268908
-2.10078e-05
0.000269525
-2.25536e-05
0.000270815
-2.41261e-05
0.000272706
-2.56466e-05
0.000275178
-2.70608e-05
0.000278134
-2.83216e-05
0.000281526
-2.93149e-05
0.00028531
-3.00013e-05
0.000289411
-3.0294e-05
0.000293781
-3.01299e-05
0.000298356
-2.94422e-05
0.000303082
-2.81772e-05
-2.62816e-05
0.000307858
0.000478119
-2.84016e-05
0.000474589
-2.79946e-05
0.000470893
-2.75574e-05
0.000467135
-2.71176e-05
0.000463363
-2.6707e-05
0.000459622
-2.63229e-05
0.000455959
-2.59837e-05
0.000452352
-2.56908e-05
0.0004488
-2.54389e-05
0.000445312
-2.5223e-05
0.000441829
-2.50363e-05
0.000438312
-2.48605e-05
0.000434716
-2.46888e-05
0.000430939
-2.45034e-05
0.000426979
-2.42955e-05
0.000422732
-2.40596e-05
0.000418159
-2.37811e-05
0.000413207
-2.34629e-05
0.000407787
-2.3099e-05
0.000402078
-2.26686e-05
0.000395866
-2.22236e-05
0.00038916
-2.17124e-05
0.00038196
-2.11485e-05
0.000374331
-2.05385e-05
0.000366253
-1.98809e-05
0.000357846
-1.91695e-05
0.000349202
-1.84394e-05
0.000340411
-1.76928e-05
0.000331617
-1.69604e-05
0.00032294
-1.62777e-05
0.000314537
-1.56804e-05
0.000306554
-1.52098e-05
0.000299084
-1.49038e-05
0.000292269
-1.47984e-05
0.000286187
-1.49199e-05
0.000280909
-1.52928e-05
0.000276492
-1.59219e-05
0.000272943
-1.68132e-05
0.000270298
-1.79474e-05
0.00026852
-1.93102e-05
0.000267585
-2.08604e-05
0.000267464
-2.25515e-05
0.000268091
-2.43552e-05
0.000269436
-2.61825e-05
0.000271471
-2.79898e-05
0.000274133
-2.9712e-05
0.000277345
-3.12688e-05
0.000281072
-3.25663e-05
0.000285251
-3.35463e-05
0.000289813
-3.41134e-05
0.000294692
-3.41955e-05
0.000299836
-3.37157e-05
0.000305145
-3.26101e-05
-3.08124e-05
0.000310559
0.000477747
-2.36457e-05
0.000474284
-2.31353e-05
0.000470639
-2.25985e-05
0.000466911
-2.20769e-05
0.000463183
-2.15682e-05
0.000459473
-2.11145e-05
0.000455837
-2.07151e-05
0.000452284
-2.03773e-05
0.00044879
-2.01016e-05
0.000445349
-1.98814e-05
0.000441945
-1.97149e-05
0.000438489
-1.95779e-05
0.000434968
-1.94802e-05
0.000431284
-1.93833e-05
0.000427387
-1.93021e-05
0.000423222
-1.9211e-05
0.00041871
-1.91095e-05
0.000413806
-1.89935e-05
0.000408481
-1.88464e-05
0.000402783
-1.86899e-05
0.000396605
-1.84793e-05
0.000389945
-1.82577e-05
0.000382781
-1.80178e-05
0.000375115
-1.77198e-05
0.000367074
-1.73838e-05
0.00035865
-1.70109e-05
0.000349975
-1.65966e-05
0.000341136
-1.61646e-05
0.000332246
-1.57287e-05
0.000323479
-1.53246e-05
0.000314925
-1.49852e-05
0.000306746
-1.47515e-05
0.000299088
-1.46664e-05
0.000292043
-1.47628e-05
0.000285725
-1.50828e-05
0.000280204
-1.56449e-05
0.000275549
-1.64724e-05
0.000271794
-1.75645e-05
0.000268942
-1.89214e-05
0.000267013
-2.05182e-05
0.000265959
-2.2331e-05
0.000265807
-2.43055e-05
0.000266417
-2.64087e-05
0.000267817
-2.85594e-05
0.000269976
-3.07053e-05
0.000272832
-3.27922e-05
0.000276316
-3.46962e-05
0.000280395
-3.63546e-05
0.00028498
-3.76798e-05
0.000290027
-3.85629e-05
0.000295467
-3.89331e-05
0.000301204
-3.86937e-05
0.000307169
-3.77643e-05
-3.60783e-05
0.000313268
0.000477493
-1.89958e-05
0.000474079
-1.84239e-05
0.000470462
-1.78395e-05
0.000466772
-1.72472e-05
0.000463069
-1.66959e-05
0.000459405
-1.61971e-05
0.000455791
-1.57567e-05
0.000452266
-1.53872e-05
0.000448824
-1.50916e-05
0.000445437
-1.48657e-05
0.000442073
-1.47137e-05
0.000438685
-1.45911e-05
0.000435218
-1.45486e-05
0.000431589
-1.45023e-05
0.00042776
-1.45114e-05
0.000423631
-1.45282e-05
0.000419187
-1.45566e-05
0.000414339
-1.45892e-05
0.000409016
-1.46298e-05
0.000403372
-1.46305e-05
0.000397208
-1.4662e-05
0.000390535
-1.46768e-05
0.000383369
-1.46895e-05
0.000375754
-1.46715e-05
0.000367669
-1.46232e-05
0.000359235
-1.45354e-05
0.000350537
-1.44282e-05
0.000341644
-1.42934e-05
0.000332689
-1.41552e-05
0.000323796
-1.40386e-05
0.000315111
-1.39783e-05
0.000306777
-1.40133e-05
0.000298906
-1.41827e-05
0.000291641
-1.45302e-05
0.000285083
-1.50923e-05
0.000279321
-1.58986e-05
0.00027442
-1.69738e-05
0.000270431
-1.83261e-05
0.000267379
-1.99559e-05
0.00026526
-2.18468e-05
0.000264094
-2.39753e-05
0.000263832
-2.62997e-05
0.00026444
-2.87478e-05
0.000265892
-3.12867e-05
0.000268171
-3.38444e-05
0.000271221
-3.63364e-05
0.000274983
-3.86561e-05
0.000279416
-4.0735e-05
0.000284441
-4.24582e-05
0.000290001
-4.37159e-05
0.000296052
-4.44204e-05
0.000302443
-4.44594e-05
0.000309133
-4.37314e-05
-4.2174e-05
0.000316004
0.000477313
-1.4447e-05
0.000473921
-1.38595e-05
0.000470365
-1.32518e-05
0.000466703
-1.26618e-05
0.000463022
-1.2093e-05
0.000459382
-1.15801e-05
0.000455807
-1.1126e-05
0.000452293
-1.07421e-05
0.000448918
-1.04343e-05
0.000445516
-1.0205e-05
0.000442258
-1.00321e-05
0.000438876
-9.96125e-06
0.000435483
-9.896e-06
0.000431928
-9.93204e-06
0.000428106
-9.96349e-06
0.000424061
-1.0046e-05
0.000419629
-1.01509e-05
0.000414798
-1.02828e-05
0.000409536
-1.04202e-05
0.000403852
-1.05778e-05
0.000397721
-1.07543e-05
0.000391035
-1.09514e-05
0.000383846
-1.11561e-05
0.000376197
-1.13733e-05
0.000368122
-1.15618e-05
0.000359658
-1.17271e-05
0.000350896
-1.18958e-05
0.000341948
-1.20449e-05
0.000332913
-1.22003e-05
0.000323909
-1.23813e-05
0.000315091
-1.26211e-05
0.000306577
-1.29562e-05
0.000298512
-1.34244e-05
0.000291027
-1.40667e-05
0.000284219
-1.49267e-05
0.000278198
-1.60339e-05
0.000273043
-1.74172e-05
0.000268801
-1.90905e-05
0.00026552
-2.10553e-05
0.000263216
-2.33027e-05
0.000261896
-2.58083e-05
0.000261534
-2.85332e-05
0.000262117
-3.14092e-05
0.000263611
-3.44039e-05
0.000265985
-3.74268e-05
0.000269216
-4.0381e-05
0.000273268
-4.31978e-05
0.000278056
-4.5764e-05
0.000283559
-4.79419e-05
0.000289699
-4.96489e-05
0.000296379
-5.07391e-05
0.000303525
-5.11027e-05
0.00031102
-5.06209e-05
-4.92016e-05
0.000318743
0.000477162
-9.98236e-06
0.000473816
-9.43116e-06
0.000470286
-8.86723e-06
0.000466675
-8.30528e-06
0.000463013
-7.77242e-06
0.000459401
-7.2757e-06
0.000455856
-6.84766e-06
0.000452395
-6.46982e-06
0.000449025
-6.17212e-06
0.000445715
-5.9358e-06
0.000442454
-5.77112e-06
0.000439161
-5.68231e-06
0.000435786
-5.6252e-06
0.000432256
-5.6478e-06
0.000428523
-5.69032e-06
0.000424477
-5.78764e-06
0.000420076
-5.91885e-06
0.00041528
-6.08558e-06
0.000409999
-6.27413e-06
0.000404342
-6.50786e-06
0.000398153
-6.76487e-06
0.000391466
-7.07303e-06
0.000384235
-7.41422e-06
0.00037653
-7.79466e-06
0.000368411
-8.1767e-06
0.000359902
-8.56005e-06
0.000351074
-8.96117e-06
0.000342041
-9.37938e-06
0.000332907
-9.82308e-06
0.000323791
-1.03099e-05
0.000314814
-1.08696e-05
0.00030613
-1.15387e-05
0.000297856
-1.23482e-05
0.000290133
-1.33396e-05
0.000283082
-1.45533e-05
0.00027679
-1.60255e-05
0.000271364
-1.77814e-05
0.000266862
-1.98416e-05
0.000263329
-2.221e-05
0.000260814
-2.48807e-05
0.000259311
-2.78313e-05
0.000258821
-3.1027e-05
0.00025938
-3.44047e-05
0.000260865
-3.79124e-05
0.000263329
-4.14639e-05
0.000266744
-4.49776e-05
0.000271082
-4.83612e-05
0.000276265
-5.14801e-05
0.000282266
-5.42034e-05
0.000289014
-5.64282e-05
0.000296407
-5.7976e-05
0.000304371
-5.87294e-05
0.000312776
-5.85408e-05
-5.72952e-05
0.00032147
0.000477007
-5.59726e-06
0.000473706
-5.13386e-06
0.000470213
-4.66848e-06
0.000466628
-4.19326e-06
0.000463028
-3.75249e-06
0.000459459
-3.32292e-06
0.000455951
-2.92486e-06
0.000452514
-2.59795e-06
0.000449189
-2.33121e-06
0.000445947
-2.11263e-06
0.000442703
-1.93469e-06
0.000439484
-1.82444e-06
0.000436153
-1.75034e-06
0.000432686
-1.72543e-06
0.000428992
-1.74384e-06
0.000424976
-1.79705e-06
0.000420609
-1.89282e-06
0.000415806
-2.02979e-06
0.000410544
-2.18108e-06
0.00040484
-2.41721e-06
0.000398624
-2.6982e-06
0.000391866
-3.04415e-06
0.000384599
-3.44894e-06
0.000376808
-3.90933e-06
0.000368593
-4.4301e-06
0.000360003
-4.98707e-06
0.000351073
-5.58889e-06
0.000341944
-6.2508e-06
0.000332676
-6.97327e-06
0.000323401
-7.77803e-06
0.000314271
-8.6791e-06
0.000305377
-9.71026e-06
0.000296893
-1.0909e-05
0.00028892
-1.23024e-05
0.000281597
-1.39336e-05
0.000275034
-1.58366e-05
0.000269308
-1.80366e-05
0.000264524
-2.05556e-05
0.000260732
-2.34001e-05
0.000257965
-2.65659e-05
0.000256265
-3.00344e-05
0.000255646
-3.37735e-05
0.000256087
-3.77286e-05
0.000257589
-4.18177e-05
0.000260123
-4.5993e-05
0.000263734
-5.01414e-05
0.000268342
-5.41731e-05
0.000273931
-5.7927e-05
0.000280463
-6.13061e-05
0.000287863
-6.41242e-05
0.000296065
-6.62254e-05
0.000304935
-6.74493e-05
0.000314372
-6.76244e-05
-6.65954e-05
0.000324185
0.000476814
-1.27663e-06
0.000473531
-9.62264e-07
0.000470069
-6.44431e-07
0.000466536
-3.34079e-07
0.000462979
-2.24231e-08
0.000459471
2.70663e-07
0.000456046
5.48387e-07
0.000452693
8.09281e-07
0.00044939
1.06326e-06
0.000446207
1.25888e-06
0.000443051
1.4069e-06
0.000439887
1.55737e-06
0.000436649
1.6777e-06
0.000433234
1.77433e-06
0.000429583
1.84312e-06
0.000425627
1.88429e-06
0.000421268
1.89229e-06
0.000416473
1.87577e-06
0.000411217
1.80951e-06
0.000405455
1.67848e-06
0.000399149
1.46436e-06
0.000392296
1.15744e-06
0.00038494
7.70197e-07
0.000377061
2.89721e-07
0.000368718
-2.82621e-07
0.000359988
-9.55554e-07
0.000350932
-1.73067e-06
0.000341634
-2.60473e-06
0.000332197
-3.60466e-06
0.000322747
-4.7261e-06
0.000313406
-5.99095e-06
0.000304293
-7.42223e-06
0.000295556
-9.05095e-06
0.000287319
-1.09056e-05
0.00027971
-1.3021e-05
0.000272845
-1.5424e-05
0.000266826
-1.8142e-05
0.000261736
-2.11966e-05
0.000257645
-2.45936e-05
0.000254617
-2.8333e-05
0.000252689
-3.23975e-05
0.000251884
-3.67562e-05
0.000252211
-4.13619e-05
0.000253702
-4.61289e-05
0.000256297
-5.101e-05
0.00026005
-5.58808e-05
0.000264936
-6.06429e-05
0.000270958
-6.51655e-05
0.000278058
-6.92866e-05
0.000286166
-7.28151e-05
0.000295223
-7.55824e-05
0.000305134
-7.73848e-05
0.000315723
-7.80157e-05
-7.72676e-05
0.000326804
0.000476534
2.99393e-06
0.000473279
3.10134e-06
0.000469835
3.18395e-06
0.00046636
3.27857e-06
0.000462877
3.37903e-06
0.000459429
3.49048e-06
0.00045606
3.60993e-06
0.000452796
3.74288e-06
0.000449652
3.88866e-06
0.000446562
4.05213e-06
0.000443492
4.23582e-06
0.00044042
4.41804e-06
0.000437267
4.59374e-06
0.000433933
4.79898e-06
0.000430357
5.00432e-06
0.00042644
5.20457e-06
0.000422098
5.40777e-06
0.00041732
5.58196e-06
0.000412033
5.69822e-06
0.00040621
5.74247e-06
0.000399816
5.69874e-06
0.000392868
5.54676e-06
0.000385346
5.27285e-06
0.00037731
4.86299e-06
0.000368814
4.29951e-06
0.000359891
3.57144e-06
0.000350618
2.67675e-06
0.000341116
1.60631e-06
0.00033147
3.50367e-07
0.000321786
-1.09529e-06
0.000312196
-2.74474e-06
0.000302826
-4.6105e-06
0.000293804
-6.72207e-06
0.00028527
-9.09379e-06
0.000277354
-1.17567e-05
0.000270164
-1.47342e-05
0.000263817
-1.80481e-05
0.000258403
-2.17179e-05
0.000253998
-2.57506e-05
0.000250674
-3.01437e-05
0.000248482
-3.4884e-05
0.000247472
-3.99458e-05
0.000247667
-4.52814e-05
0.000249072
-5.08272e-05
0.000251714
-5.64877e-05
0.000255607
-6.21909e-05
0.000260784
-6.78095e-05
0.000267227
-7.3205e-05
0.000274893
-7.81857e-05
0.000283782
-8.25732e-05
0.00029381
-8.61509e-05
0.000304852
-8.86639e-05
0.000316743
-8.98718e-05
-8.95183e-05
0.000329302
0.000476129
7.23548e-06
0.000472853
7.05045e-06
0.00046949
6.85727e-06
0.000466058
6.63213e-06
0.000462649
6.44604e-06
0.000459299
6.30065e-06
0.000456045
6.20023e-06
0.000452892
6.15065e-06
0.000449864
6.177e-06
0.000446901
6.25704e-06
0.000443984
6.42276e-06
0.000441078
6.64143e-06
0.000438028
6.93725e-06
0.000434819
7.28278e-06
0.000431325
7.67936e-06
0.000427461
8.12586e-06
0.000423191
8.58162e-06
0.00041843
9.02871e-06
0.000413114
9.43913e-06
0.000407212
9.78645e-06
0.000400709
1.00292e-05
0.000393601
1.01375e-05
0.000385908
1.00831e-05
0.000377659
9.83346e-06
0.000368913
9.36161e-06
0.000359734
8.6516e-06
0.0003502
7.68619e-06
0.000340413
6.4579e-06
0.000330472
4.95842e-06
0.000320493
3.18327e-06
0.000310593
1.12809e-06
0.000300911
-1.21108e-06
0.000291573
-3.85138e-06
0.000282704
-6.79828e-06
0.000274448
-1.00839e-05
0.00026691
-1.37114e-05
0.000260203
-1.76991e-05
0.000254438
-2.20666e-05
0.000249696
-2.68163e-05
0.000246049
-3.19489e-05
0.000243574
-3.74515e-05
0.000242318
-4.32996e-05
0.000242333
-4.94534e-05
0.000243638
-5.58579e-05
0.000246298
-6.24189e-05
0.000250308
-6.90627e-05
0.000255728
-7.56493e-05
0.000262578
-8.20383e-05
0.000270875
-8.80546e-05
0.00028058
-9.34651e-05
0.000291638
-9.8013e-05
0.000303941
-0.000101417
0.000317324
-0.00010337
-0.000103551
0.000331545
0.000475543
1.1478e-05
0.000472258
1.09331e-05
0.000468888
1.03353e-05
0.000465552
9.73893e-06
0.000462235
9.17271e-06
0.00045904
8.68255e-06
0.00045591
8.27276e-06
0.000452935
7.99858e-06
0.000450053
7.82518e-06
0.000447292
7.8169e-06
0.000444566
7.92691e-06
0.000441806
8.20261e-06
0.000438962
8.60453e-06
0.000435908
9.13648e-06
0.00043256
9.789e-06
0.000428831
1.0543e-05
0.000424634
1.13628e-05
0.000419887
1.22015e-05
0.000414536
1.30304e-05
0.000408546
1.38035e-05
0.000401889
1.44616e-05
0.000394589
1.49546e-05
0.000386662
1.5235e-05
0.000378131
1.52519e-05
0.00036907
1.49665e-05
0.000359551
1.43465e-05
0.00034966
1.33687e-05
0.000339504
1.20189e-05
0.000329191
1.02916e-05
0.00031884
8.18559e-06
0.00030857
5.70428e-06
0.000298515
2.85058e-06
0.000288805
-3.72136e-07
0.000279559
-3.9584e-06
0.000270917
-7.9325e-06
0.000262999
-1.22878e-05
0.00025591
-1.70331e-05
0.000249765
-2.21806e-05
0.000244657
-2.77329e-05
0.000240663
-3.36895e-05
0.000237862
-4.00385e-05
0.000236328
-4.67635e-05
0.000236125
-5.38258e-05
0.00023729
-6.11798e-05
0.000239918
-6.87486e-05
0.000243988
-7.64364e-05
0.000249635
-8.41325e-05
0.000256896
-9.16874e-05
0.000265811
-9.88993e-05
0.000276366
-0.00010552
0.000288529
-0.000111251
0.000302212
-0.000115762
0.000317215
-0.000118658
-0.000119538
0.000333285
0.000474665
1.57591e-05
0.000471356
1.47471e-05
0.000468034
1.368e-05
0.000464755
1.25775e-05
0.000461595
1.15431e-05
0.000458521
1.05993e-05
0.000455615
9.8184e-06
0.000452828
9.20327e-06
0.00045022
8.80392e-06
0.000447698
8.62125e-06
0.000445216
8.69162e-06
0.000442731
8.98743e-06
0.0004401
9.52345e-06
0.000437296
1.02751e-05
0.000434131
1.12645e-05
0.000430568
1.23971e-05
0.000426452
1.36864e-05
0.000421734
1.50647e-05
0.000416367
1.64361e-05
0.000410281
1.77833e-05
0.000403461
1.90015e-05
0.000395918
2.00239e-05
0.000387682
2.07739e-05
0.0003788
2.11809e-05
0.00036934
2.11853e-05
0.000359388
2.07392e-05
0.000349038
1.98104e-05
0.000338406
1.83776e-05
0.000327618
1.64377e-05
0.0003168
1.3994e-05
0.000306072
1.10612e-05
0.000295568
7.65457e-06
0.00028542
3.7932e-06
0.000275757
-5.07591e-07
0.000266694
-5.23397e-06
0.000258357
-1.04006e-05
0.000250861
-1.59827e-05
0.000244311
-2.19948e-05
0.000238808
-2.84322e-05
0.000234433
-3.52959e-05
0.000231277
-4.25746e-05
0.000229418
-5.02608e-05
0.000228945
-5.832e-05
0.000229926
-6.67271e-05
0.000232438
-7.54055e-05
0.000236557
-8.42596e-05
0.000242377
-9.32144e-05
0.00025
-0.000102095
0.000259503
-0.000110694
0.000270912
-0.000118739
0.000284216
-0.000125903
0.000299297
-0.000131735
0.000315979
-0.000135781
-0.000137523
0.000333939
0.000473445
2.00976e-05
0.000470118
1.8545e-05
0.000466789
1.68596e-05
0.000463632
1.51697e-05
0.000460583
1.3536e-05
0.000457729
1.20521e-05
0.000455055
1.07649e-05
0.000452584
9.7415e-06
0.000450266
9.01455e-06
0.000448056
8.628e-06
0.000445946
8.59754e-06
0.000443751
8.9107e-06
0.000441478
9.58796e-06
0.000438982
1.06278e-05
0.000436071
1.19735e-05
0.000432751
1.36219e-05
0.00042876
1.54974e-05
0.000424156
1.75187e-05
0.00041876
1.96386e-05
0.00041256
2.17179e-05
0.000405556
2.36675e-05
0.00039773
2.53843e-05
0.00038911
2.67597e-05
0.000379771
2.7697e-05
0.000369789
2.81082e-05
0.000359275
2.79302e-05
0.00034834
2.71151e-05
0.000337115
2.56393e-05
0.000325736
2.34989e-05
0.000314332
2.07062e-05
0.000303049
1.72897e-05
0.000292009
1.32825e-05
0.000281356
8.72012e-06
0.00027121
3.63905e-06
0.000261688
-1.9331e-06
0.000252904
-7.98105e-06
0.000244965
-1.44818e-05
0.000237983
-2.14416e-05
0.000232055
-2.8844e-05
0.00022727
-3.66933e-05
0.000223718
-4.49825e-05
0.000221495
-5.37077e-05
0.000220703
-6.28513e-05
0.000221423
-7.23983e-05
0.000223766
-8.22873e-05
0.000227843
-9.24545e-05
0.00023377
-0.0001028
0.00024168
-0.000113174
0.000251705
-0.000123362
0.00026391
-0.000133063
0.000278257
-0.000141871
0.000294595
-0.000149197
0.000312728
-0.000154496
-0.000157181
0.000332226
0.000471822
2.45693e-05
0.000468364
2.23163e-05
0.000465093
1.99335e-05
0.000462004
1.74874e-05
0.00045915
1.51455e-05
0.000456536
1.29736e-05
0.000454166
1.1086e-05
0.000452063
9.53419e-06
0.000450126
8.4e-06
0.000448398
7.7326e-06
0.000446648
7.52451e-06
0.000444988
7.88158e-06
0.000443124
8.67882e-06
0.000441011
1.00243e-05
0.000438523
1.18529e-05
0.000435451
1.40916e-05
0.000431733
1.67264e-05
0.000427207
1.95901e-05
0.000421814
2.25662e-05
0.000415532
2.55934e-05
0.00040827
2.8476e-05
0.000400089
3.10838e-05
0.00039101
3.32671e-05
0.000381096
3.48956e-05
0.000370469
3.58499e-05
0.000359255
3.60439e-05
0.000347593
3.54114e-05
0.000335636
3.39296e-05
0.000323519
3.15946e-05
0.000311416
2.8433e-05
0.000299463
2.44912e-05
0.000287801
1.9822e-05
0.000276557
1.44901e-05
0.000265859
8.54868e-06
0.000255818
2.05357e-06
0.000246541
-4.96364e-06
0.00023814
-1.24718e-05
0.000230699
-2.04527e-05
0.000224324
-2.88985e-05
0.000219098
-3.78049e-05
0.000215114
-4.71752e-05
0.000212478
-5.701e-05
0.000211306
-6.73146e-05
0.000211688
-7.80805e-05
0.000213777
-8.92783e-05
0.000217713
-0.00010087
0.000223629
-0.00011275
0.000231718
-0.000124789
0.000242126
-0.000136762
0.000254892
-0.000148255
0.000269984
-0.000158817
0.000286997
-0.000167571
0.000305977
-0.000174067
-0.000177818
0.000326128
0.000469615
2.91998e-05
0.000466073
2.61384e-05
0.000462763
2.28723e-05
0.000459814
1.95572e-05
0.000457157
1.63445e-05
0.000454841
1.33679e-05
0.000452875
1.07168e-05
0.000451182
8.52355e-06
0.000449803
6.87239e-06
0.000448529
5.80397e-06
0.000447497
5.41719e-06
0.000446266
5.6795e-06
0.000445022
6.72278e-06
0.000443506
8.38507e-06
0.000441414
1.07398e-05
0.000438897
1.37405e-05
0.000435435
1.72062e-05
0.000431166
2.10868e-05
0.000425755
2.52368e-05
0.000419324
2.94132e-05
0.000411793
3.34649e-05
0.000403152
3.71932e-05
0.000393493
4.03949e-05
0.000382907
4.29022e-05
0.000371499
4.45511e-05
0.000359413
4.5233e-05
0.000346832
4.48575e-05
0.000333951
4.34029e-05
0.000320945
4.0868e-05
0.000307984
3.73038e-05
0.000295228
3.27752e-05
0.000282828
2.73714e-05
0.000270915
2.11815e-05
0.00025961
1.42924e-05
0.000249011
6.77824e-06
0.000239208
-1.28574e-06
0.000230305
-9.8842e-06
0.000222383
-1.89666e-05
0.00021553
-2.85229e-05
0.000209834
-3.85511e-05
0.000205381
-4.90609e-05
0.000202286
-6.0063e-05
0.000200661
-7.15888e-05
0.000200625
-8.36402e-05
0.000202358
-9.62347e-05
0.000206023
-0.00010934
0.000211787
-0.000122887
0.000219842
-0.000136712
0.000230347
-0.000150557
0.000243185
-0.000163776
0.000258233
-0.000175935
0.000274955
-0.000185773
0.000293368
-0.000193499
-0.000197993
0.000312433
0.000466754
3.40649e-05
0.000463019
3.00313e-05
0.000459726
2.57124e-05
0.000456876
2.13711e-05
0.000454467
1.71248e-05
0.000452516
1.31707e-05
0.000450989
9.62173e-06
0.000449883
6.63583e-06
0.000449074
4.32102e-06
0.000448584
2.7842e-06
0.00044814
2.06458e-06
0.000447835
2.30023e-06
0.000447212
3.39151e-06
0.000446445
5.51273e-06
0.000445075
8.51475e-06
0.000443041
1.23274e-05
0.00044005
1.69136e-05
0.000435954
2.20373e-05
0.000430712
2.75504e-05
0.000424154
3.31771e-05
0.000416327
3.86557e-05
0.000407177
4.37845e-05
0.000396807
4.82632e-05
0.000385339
5.18709e-05
0.000372938
5.43915e-05
0.000359787
5.5686e-05
0.000346091
5.56423e-05
0.000332076
5.42401e-05
0.000317967
5.14871e-05
0.000303976
4.74648e-05
0.000290277
4.22673e-05
0.000277025
3.60302e-05
0.000264352
2.8877e-05
0.000252365
2.09348e-05
0.000241149
1.23072e-05
0.0002308
3.08645e-06
0.00022138
-6.6736e-06
0.000212966
-1.69296e-05
0.000205624
-2.76568e-05
0.000199431
-3.8856e-05
0.000194469
-5.05469e-05
0.000190857
-6.27551e-05
0.000188707
-7.55399e-05
0.000188161
-8.89264e-05
0.00018941
-0.000102972
0.000192641
-0.00011766
0.000198044
-0.000132946
0.000205734
-0.000148591
0.000215786
-0.000164137
0.000227858
-0.00017876
0.000241564
-0.000192058
0.00025635
-0.000202366
0.000272395
-0.000211757
-0.000218357
0.000289958
0.000463051
3.92299e-05
0.000459098
3.40245e-05
0.000455786
2.84962e-05
0.000453046
2.2915e-05
0.000450919
1.74678e-05
0.000449399
1.2346e-05
0.000448433
7.72319e-06
0.000447945
3.78828e-06
0.000448009
6.57472e-07
0.000448241
-1.50935e-06
0.000448871
-2.60096e-06
0.000449356
-2.56956e-06
0.000449787
-1.28544e-06
0.000449981
1.21055e-06
0.000449394
4.91926e-06
0.000448196
9.80765e-06
0.000445738
1.56052e-05
0.000442205
2.23029e-05
0.000436896
2.93965e-05
0.00043026
3.68205e-05
0.00042199
4.41169e-05
0.000412207
5.09702e-05
0.000401004
5.70291e-05
0.000388487
6.19944e-05
0.000374849
6.55953e-05
0.000360344
6.76439e-05
0.00034526
6.80087e-05
0.00032989
6.66653e-05
0.000314489
6.36505e-05
0.000299284
5.90804e-05
0.000284489
5.30983e-05
0.000270272
4.58973e-05
0.000256749
3.7648e-05
0.00024403
2.8525e-05
0.00023218
1.86685e-05
0.000221263
8.19206e-06
0.000211316
-2.80905e-06
0.000202386
-1.42912e-05
0.000194543
-2.62476e-05
0.000187834
-3.86482e-05
0.000182331
-5.15429e-05
0.000178148
-6.49732e-05
0.000175398
-7.90287e-05
0.000174233
-9.37697e-05
0.00017485
-0.000109281
0.000177449
-0.000125574
0.000182182
-0.000142563
0.000188997
-0.000159797
0.000197743
-0.000176579
0.000207628
-0.000191931
0.00021821
-0.000205726
0.000229757
-0.000217083
0.000244127
-0.000232401
-0.000253843
0.000267091
0.000458299
4.47631e-05
0.000454162
3.81635e-05
0.000450771
3.12113e-05
0.000448165
2.42138e-05
0.000446352
1.73488e-05
0.000445321
1.0862e-05
0.000445005
4.97746e-06
0.000445362
-1.15536e-07
0.000446275
-4.2127e-06
0.000447642
-7.16739e-06
0.000449268
-8.82108e-06
0.000451075
-9.01379e-06
0.000452755
-7.72069e-06
0.000454119
-4.78651e-06
0.000454701
-2.13455e-07
0.000454328
5.81324e-06
0.000452564
1.32412e-05
0.000449417
2.16554e-05
0.000444519
3.08226e-05
0.000437786
4.03896e-05
0.000429164
4.98829e-05
0.000418638
5.88678e-05
0.000406341
6.68835e-05
0.000392497
7.35178e-05
0.000377376
7.84307e-05
0.000361262
8.13861e-05
0.000344477
8.224e-05
0.000327406
8.09522e-05
0.000310408
7.75996e-05
0.000293762
7.23494e-05
0.000277697
6.54226e-05
0.000262387
5.70787e-05
0.000247942
4.75638e-05
0.000234445
3.71038e-05
0.000221935
2.58861e-05
0.00021044
1.40548e-05
0.000199976
1.72743e-06
0.000190576
-1.10586e-05
0.000182237
-2.42595e-05
0.000175011
-3.78777e-05
0.000168946
-5.19709e-05
0.000164147
-6.66086e-05
0.000160721
-8.19159e-05
0.000158822
-9.79885e-05
0.000158644
-0.000114933
0.00016035
-0.000132762
0.000163944
-0.000151186
0.000169159
-0.000169471
0.000175161
-0.000186713
0.000181282
-0.000201771
0.000187673
-0.00021727
0.000198138
-0.000237141
0.000225427
-0.000279707
-0.000346407
0.000261761
0.000452349
5.07213e-05
0.000447915
4.25037e-05
0.000444476
3.39236e-05
0.000442009
2.52289e-05
0.000440566
1.67381e-05
0.000440091
8.67725e-06
0.000440544
1.31019e-06
0.000441831
-5.14564e-06
0.000443915
-1.0442e-05
0.000446443
-1.43779e-05
0.00044953
-1.67008e-05
0.000452601
-1.73591e-05
0.000455813
-1.59691e-05
0.000458663
-1.26256e-05
0.000460537
-7.2272e-06
0.000461511
2.6316e-07
0.00046069
9.42167e-06
0.000458201
2.00162e-05
0.000453649
3.16226e-05
0.000446978
4.38035e-05
0.000437806
5.60172e-05
0.000426422
6.75899e-05
0.000412837
7.80171e-05
0.000397343
8.66983e-05
0.000380321
9.32099e-05
0.000362215
9.72514e-05
0.000343442
9.86594e-05
0.000324432
9.7395e-05
0.000305608
9.35814e-05
0.000287314
8.74636e-05
0.000269816
7.93703e-05
0.000253298
6.96578e-05
0.000237863
5.86624e-05
0.000223559
4.66777e-05
0.000210391
3.39457e-05
0.00019834
2.06438e-05
0.000187394
6.90269e-06
0.000177521
-7.21627e-06
0.000168704
-2.16778e-05
0.000160964
-3.65064e-05
0.000154323
-5.17672e-05
0.000148871
-6.75649e-05
0.000144697
-8.40666e-05
0.000141945
-0.000101399
0.000140778
-0.00011967
0.000141225
-0.000138777
0.000143099
-0.000158075
0.000145451
-0.00017669
0.000147279
-0.000193151
0.000148706
-0.000209521
0.000154403
-0.000236057
0.000175538
-0.000296482
0.000198328
-0.000368658
-0.000417517
0.000227613
0.000444907
5.7184e-05
0.000440162
4.71055e-05
0.000436626
3.65973e-05
0.000434363
2.59966e-05
0.000433328
1.56084e-05
0.000433499
5.73702e-06
0.000434833
-3.34946e-06
0.000437186
-1.13903e-05
0.000440429
-1.81095e-05
0.000444535
-2.32258e-05
0.00044901
-2.64874e-05
0.000453955
-2.75811e-05
0.000458787
-2.63105e-05
0.000463189
-2.25733e-05
0.000466946
-1.61908e-05
0.000469129
-7.18103e-06
0.000469718
4.12645e-06
0.0004676
1.72453e-05
0.000463466
3.16997e-05
0.000456659
4.70493e-05
0.000446964
6.25753e-05
0.00043462
7.72246e-05
0.000419688
9.0566e-05
0.000402517
0.000101706
0.000383498
0.000110135
0.000363105
0.000115502
0.000341929
0.000117568
0.000320576
0.000116286
0.000299592
0.000111843
0.000279415
0.000104606
0.000260355
9.50509e-05
0.000242581
8.36747e-05
0.000226154
7.09318e-05
0.00021108
5.72012e-05
0.000197313
4.27842e-05
0.000184785
2.78897e-05
0.000173434
1.26588e-05
0.000163149
-2.80078e-06
0.000153914
-1.85293e-05
0.000145702
-3.4532e-05
0.000138503
-5.08939e-05
0.000132378
-6.77679e-05
0.000127397
-8.53588e-05
0.000123675
-0.000103812
0.000121251
-0.000123165
0.000119965
-0.000142987
0.000119075
-0.000162487
0.000117296
-0.000180053
0.000113781
-0.000196806
0.000113921
-0.000226684
0.000122867
-0.000294651
0.000127606
-0.000371022
0.000134009
-0.000412664
-0.000438133
0.000141056
0.000435698
6.42033e-05
0.00043061
5.19525e-05
0.000426972
3.92325e-05
0.000424906
2.64639e-05
0.000424357
1.39356e-05
0.000425313
2.00513e-06
0.000427604
-9.05612e-06
0.000431192
-1.89391e-05
0.000435784
-2.72653e-05
0.000441369
-3.37653e-05
0.000447506
-3.8081e-05
0.000454105
-3.971e-05
0.000460273
-3.85659e-05
0.000466205
-3.42831e-05
0.000471429
-2.69957e-05
0.000474811
-1.63599e-05
0.000476647
-2.65856e-06
0.00047578
1.31909e-05
0.000472278
3.10215e-05
0.000465492
4.98889e-05
0.000455425
6.94112e-05
0.000441969
8.77834e-05
0.000425397
0.000104653
0.000406251
0.000118654
0.000385108
0.000129264
0.000362447
0.000136185
0.00033886
0.000139069
0.000315096
0.000137757
0.000291862
0.000132509
0.000269711
0.000123861
0.000249017
0.000112493
0.000229973
9.91009e-05
0.000212607
8.42982e-05
0.000196859
6.85698e-05
0.000182611
5.22824e-05
0.00016972
3.56791e-05
0.000158051
1.89119e-05
0.000147486
2.07442e-06
0.000137914
-1.48751e-05
0.000129282
-3.19813e-05
0.00012156
-4.93436e-05
0.000114767
-6.7176e-05
0.000108938
-8.56914e-05
0.000104088
-0.000105014
0.000100027
-0.000124913
9.62446e-05
-0.000144734
9.14475e-05
-0.000163165
8.3963e-05
-0.000179876
7.72577e-05
-0.000208016
7.05809e-05
-0.000278334
5.83974e-05
-0.000348333
4.57302e-05
-0.000386652
3.83544e-05
-0.000414874
-0.000439692
3.73167e-05
0.000424193
7.17302e-05
0.000418761
5.69985e-05
0.000415168
4.18132e-05
0.000413362
2.65957e-05
0.000413325
1.17028e-05
0.000415119
-2.58383e-06
0.000418434
-1.58436e-05
0.000423307
-2.77569e-05
0.000429295
-3.7858e-05
0.000436243
-4.57834e-05
0.000443645
-5.09883e-05
0.000451129
-5.29991e-05
0.000458197
-5.15869e-05
0.000464599
-4.69317e-05
0.000470372
-3.87714e-05
0.000474789
-2.64875e-05
0.000477186
-1.07284e-05
0.000477608
8.09147e-06
0.000474913
2.90101e-05
0.000468857
5.25308e-05
0.0004585
7.66967e-05
0.00044477
9.83757e-05
0.000426823
0.000119887
0.000406109
0.000137106
0.000383073
0.000150261
0.000358256
0.000159101
0.000332457
0.000162918
0.000306465
0.000161574
0.000281134
0.000155376
0.000257184
0.000145031
0.000235063
0.000131492
0.000214964
0.00011572
0.000196872
9.85326e-05
0.000180655
8.05554e-05
0.000166121
6.22228e-05
0.000153057
4.38114e-05
0.000141258
2.54751e-05
0.00013055
7.28106e-06
0.000120773
-1.08206e-05
0.000111822
-2.89194e-05
0.000103656
-4.71608e-05
9.62332e-05
-6.57795e-05
8.95076e-05
-8.49741e-05
8.32717e-05
-0.000104661
7.70635e-05
-0.000124294
6.96482e-05
-0.000142974
5.91103e-05
-0.00015946
4.69976e-05
-0.000184397
2.46224e-05
-0.000244965
-7.90727e-06
-0.00031273
-3.34819e-05
-0.000348441
-5.20675e-05
-0.000376705
-6.35883e-05
-0.000406662
-0.000434679
-6.92955e-05
0.000409824
7.95667e-05
0.000404248
6.20837e-05
0.000400781
4.41868e-05
0.000399412
2.62911e-05
0.000400035
8.77888e-06
0.000402707
-8.05359e-06
0.000407042
-2.3707e-05
0.000413039
-3.77098e-05
0.000419928
-4.93866e-05
0.000427527
-5.84374e-05
0.000434999
-6.4057e-05
0.000442109
-6.58364e-05
0.000447692
-6.32017e-05
0.000453786