/*--------------------------------*- C++ -*----------------------------------*\
  =========                 |
  \\      /  F ield         | OpenFOAM: The Open Source CFD Toolbox
   \\    /   O peration     | Website:  https://openfoam.org
    \\  /    A nd           | Version:  10
     \\/     M anipulation  |
\*---------------------------------------------------------------------------*/
FoamFile
{
    format      ascii;
    class       volScalarField;
    location    "0.400511";
    object      T;
}
// * * * * * * * * * * * * * * * * * * * * * * * * * * * * * * * * * * * * * //

dimensions      [0 0 0 1 0 0 0];

internalField   nonuniform List<scalar> 
15984
(
0.00867591
0.00867463
0.00867315
0.00867091
0.00866805
0.00866375
0.00865831
0.0086529
0.00864567
0.00863949
0.00863151
0.0086242
0.00861644
0.00860942
0.00860193
0.00859702
0.0085921
0.0085897
0.00858865
0.00858961
0.00859253
0.00859798
0.00860386
0.00861515
0.00862519
0.00863986
0.00865401
0.00866991
0.00868665
0.00870279
0.00871975
0.00873515
0.00874967
0.00876271
0.00877431
0.00878389
0.00879172
0.00879844
0.00880112
0.00880515
0.00880472
0.00880416
0.00880267
0.00879943
0.0087952
0.00879148
0.00878483
0.00878065
0.00877421
0.00876903
0.00876338
0.00875841
0.00875314
0.00874828
0.00867107
0.00867008
0.00866897
0.00866706
0.00866421
0.00866081
0.00865651
0.00865096
0.00864583
0.00863952
0.00863251
0.00862562
0.00861812
0.00861098
0.0086055
0.00859881
0.00859595
0.0085919
0.00859233
0.00859296
0.00859537
0.00859975
0.00860758
0.00861659
0.0086266
0.00864099
0.00865433
0.00867039
0.00868603
0.00870273
0.00871883
0.00873451
0.00874822
0.00876277
0.00877308
0.00878456
0.00879143
0.0087988
0.00880271
0.00880535
0.00880641
0.00880619
0.00880422
0.00880155
0.00879791
0.00879307
0.00878801
0.00878287
0.00877671
0.00877106
0.00876519
0.00875984
0.00875373
0.00874973
0.00866644
0.00866537
0.00866438
0.00866303
0.00866073
0.008658
0.00865454
0.0086501
0.00864504
0.00863987
0.00863361
0.00862685
0.00862079
0.00861342
0.00860842
0.00860257
0.00859912
0.00859637
0.00859611
0.00859665
0.00859908
0.00860407
0.0086101
0.00861901
0.00863051
0.00864114
0.00865687
0.00866998
0.00868732
0.00870214
0.00871831
0.00873374
0.00874852
0.00876104
0.00877379
0.00878301
0.00879279
0.00879798
0.00880404
0.00880611
0.00880822
0.00880747
0.00880655
0.00880354
0.00880054
0.00879567
0.00879115
0.00878547
0.00877913
0.00877424
0.00876715
0.0087619
0.00875578
0.00875086
0.00866144
0.00866043
0.00865975
0.00865896
0.00865749
0.00865497
0.0086521
0.00864891
0.00864444
0.00863985
0.00863421
0.00862897
0.00862239
0.00861717
0.00861143
0.00860691
0.00860382
0.00860056
0.00860106
0.00860172
0.00860406
0.00860823
0.00861523
0.00862343
0.00863246
0.00864606
0.00865793
0.00867282
0.00868729
0.00870317
0.00871828
0.00873362
0.00874717
0.00876153
0.0087723
0.00878379
0.00879136
0.00879956
0.0088033
0.00880803
0.00880915
0.00880981
0.00880823
0.00880667
0.00880293
0.00879892
0.00879411
0.00878854
0.00878255
0.00877706
0.00877067
0.00876365
0.00875934
0.00875159
0.00865606
0.00865571
0.00865524
0.00865457
0.00865366
0.00865194
0.00864992
0.00864699
0.00864462
0.00863853
0.00863786
0.00862813
0.00862778
0.00861849
0.00861608
0.00861144
0.00860807
0.00860696
0.00860609
0.00860767
0.00861007
0.00861332
0.0086207
0.00862832
0.00863791
0.0086488
0.00866148
0.00867526
0.00868909
0.00870418
0.00871893
0.00873326
0.00874766
0.00876044
0.00877231
0.00878312
0.00879188
0.00879917
0.0088049
0.00880861
0.00881094
0.0088113
0.00881094
0.00880931
0.00880549
0.00880261
0.00879752
0.00879175
0.00878749
0.00877982
0.00877428
0.00876735
0.0087612
0.00875458
0.00865136
0.00865084
0.00865064
0.00865027
0.00864959
0.00864895
0.00864736
0.00864566
0.00864301
0.00864014
0.0086366
0.00863229
0.00862838
0.00862409
0.00862043
0.00861626
0.00861484
0.00861256
0.00861317
0.00861401
0.00861667
0.00862124
0.00862621
0.00863464
0.00864351
0.00865361
0.00866579
0.00867844
0.00869215
0.00870582
0.00872005
0.0087342
0.00874737
0.00876078
0.00877202
0.0087828
0.00879206
0.00879929
0.0088055
0.00880978
0.00881201
0.00881384
0.00881305
0.00881202
0.00880889
0.00880583
0.00880167
0.00879607
0.00879116
0.00878396
0.00877833
0.00877118
0.00876462
0.0087574
0.00864694
0.00864606
0.00864598
0.00864613
0.00864594
0.0086456
0.0086451
0.00864346
0.00864284
0.00864035
0.00863739
0.00863575
0.00863079
0.00862932
0.00862445
0.00862294
0.00862049
0.00861987
0.00862017
0.00862133
0.00862433
0.00862822
0.00863405
0.00864091
0.00865022
0.00865967
0.00867072
0.0086832
0.00869458
0.00870911
0.00872175
0.00873533
0.00874859
0.00876039
0.00877285
0.00878242
0.00879234
0.0088001
0.0088062
0.00881075
0.00881428
0.00881538
0.00881574
0.00881485
0.00881248
0.00881013
0.00880515
0.00880119
0.00879502
0.00878942
0.00878242
0.00877516
0.0087685
0.00875987
0.00864233
0.00864184
0.00864177
0.00864201
0.00864247
0.00864262
0.00864255
0.00864246
0.00864166
0.00864151
0.00863881
0.00863795
0.00863503
0.00863238
0.00863065
0.00862839
0.00862732
0.00862718
0.00862756
0.00862945
0.00863243
0.00863667
0.00864266
0.00864849
0.00865758
0.00866635
0.0086767
0.0086877
0.00869951
0.00871227
0.00872441
0.00873739
0.00874979
0.00876163
0.00877314
0.00878333
0.00879274
0.0088003
0.00880717
0.00881209
0.00881572
0.00881757
0.00881877
0.00881775
0.00881668
0.00881373
0.0088103
0.00880585
0.00880001
0.00879393
0.00878752
0.00878021
0.00877183
0.00876416
0.00863849
0.00863746
0.00863779
0.00863828
0.00863901
0.00863956
0.00864049
0.00864096
0.00864125
0.00864118
0.00864057
0.00864012
0.00863838
0.00863702
0.008636
0.0086346
0.0086347
0.00863497
0.00863585
0.00863819
0.00864157
0.00864593
0.00865076
0.0086582
0.00866526
0.00867376
0.00868349
0.0086942
0.00870472
0.00871632
0.00872798
0.00873992
0.00875158
0.00876357
0.00877415
0.00878432
0.00879346
0.0088013
0.008808
0.0088136
0.00881757
0.00882041
0.00882127
0.00882171
0.0088205
0.00881816
0.00881527
0.00881047
0.00880559
0.00879992
0.00879243
0.00878501
0.00877631
0.00876844
0.00863424
0.00863411
0.00863374
0.00863453
0.00863567
0.00863684
0.00863834
0.0086394
0.008641
0.00864103
0.00864246
0.0086422
0.00864207
0.00864202
0.00864139
0.00864176
0.00864203
0.00864319
0.00864467
0.00864739
0.0086509
0.00865517
0.00866067
0.00866672
0.00867431
0.00868206
0.00869117
0.00870063
0.00871085
0.00872134
0.00873242
0.0087437
0.00875464
0.00876556
0.00877602
0.00878558
0.00879486
0.00880285
0.0088096
0.00881523
0.00881995
0.00882267
0.00882487
0.00882514
0.00882476
0.00882281
0.00882
0.00881665
0.00881132
0.0088052
0.00879848
0.0087903
0.0087815
0.00877168
0.00863071
0.00863029
0.00863076
0.00863136
0.00863274
0.00863469
0.00863531
0.00863901
0.00863957
0.00864313
0.00864301
0.00864539
0.00864596
0.00864672
0.00864764
0.00864855
0.0086497
0.00865128
0.00865376
0.00865676
0.00866061
0.00866556
0.00867045
0.00867672
0.00868369
0.00869123
0.00869962
0.00870853
0.00871781
0.00872757
0.00873748
0.00874795
0.00875821
0.00876837
0.00877853
0.00878773
0.00879666
0.00880478
0.0088115
0.0088174
0.00882215
0.00882576
0.0088281
0.00882929
0.00882881
0.00882792
0.00882566
0.00882202
0.00881754
0.00881129
0.00880465
0.00879602
0.00878627
0.00877634
0.00862827
0.00862766
0.00862791
0.00862865
0.00863054
0.00863153
0.00863513
0.00863657
0.00864103
0.00864183
0.0086457
0.00864736
0.00864949
0.0086519
0.00865257
0.00865597
0.00865621
0.00866032
0.00866292
0.00866659
0.00867065
0.00867581
0.00868107
0.00868728
0.0086937
0.00870097
0.00870844
0.00871701
0.00872546
0.00873459
0.00874349
0.00875334
0.00876262
0.00877248
0.00878161
0.00879065
0.0087993
0.00880695
0.00881402
0.0088196
0.008825
0.00882852
0.00883193
0.00883304
0.00883356
0.00883299
0.00883132
0.00882788
0.00882385
0.00881802
0.00881066
0.0088019
0.00879237
0.00878055
0.00862648
0.00862513
0.00862554
0.00862658
0.0086278
0.00863072
0.00863302
0.00863672
0.00863936
0.00864366
0.00864702
0.00864924
0.00865491
0.00865449
0.00866093
0.00866004
0.00866621
0.00866721
0.0086719
0.00867612
0.00868104
0.00868544
0.00869151
0.00869738
0.00870415
0.0087111
0.00871839
0.00872615
0.00873403
0.00874225
0.00875091
0.00875938
0.00876867
0.00877691
0.008786
0.00879419
0.0088025
0.00880992
0.00881694
0.00882258
0.00882809
0.00883218
0.00883583
0.00883721
0.00883852
0.00883818
0.00883728
0.00883415
0.00883064
0.00882482
0.00881707
0.0088091
0.00879884
0.00878717
0.0086243
0.00862382
0.00862413
0.00862469
0.0086271
0.00862891
0.00863267
0.00863624
0.00863965
0.00864503
0.00864671
0.00865526
0.00865343
0.0086641
0.00866174
0.00867003
0.00867122
0.00867589
0.00868163
0.00868509
0.00869096
0.00869651
0.00870215
0.00870841
0.00871535
0.00872197
0.0087291
0.00873592
0.00874318
0.00875103
0.00875826
0.00876656
0.0087742
0.00878286
0.00879052
0.00879888
0.00880616
0.00881359
0.0088202
0.00882605
0.00883149
0.00883614
0.00883976
0.00884175
0.00884382
0.00884381
0.00884286
0.00884089
0.00883703
0.00883187
0.008825
0.0088155
0.008812
0.00878723
0.00862419
0.00862281
0.00862336
0.0086244
0.0086257
0.00862893
0.00863211
0.00863551
0.00864121
0.00864355
0.00865252
0.0086513
0.00866425
0.00866149
0.00867329
0.008672
0.00868081
0.00868048
0.00868906
0.00869506
0.00870085
0.00870705
0.00871404
0.0087198
0.00872626
0.0087324
0.00873974
0.00874631
0.00875332
0.00875996
0.00876723
0.00877442
0.00878179
0.00878914
0.00879631
0.00880396
0.00881071
0.00881787
0.00882415
0.00883027
0.00883538
0.00884052
0.00884385
0.00884696
0.00884887
0.00884958
0.00884894
0.00884779
0.00884387
0.00884032
0.00883426
0.00882823
0.00881515
0.008775
0.00862383
0.0086233
0.00862378
0.00862433
0.0086268
0.00862874
0.00863252
0.00863689
0.00864065
0.00864768
0.00864986
0.00866008
0.0086592
0.00867345
0.00867032
0.00868397
0.00868074
0.00869333
0.00869596
0.00870387
0.00871024
0.0087165
0.00872397
0.00873022
0.00873742
0.0087431
0.00875012
0.00875625
0.00876353
0.00876976
0.00877657
0.00878292
0.00878983
0.00879619
0.00880307
0.00880995
0.00881621
0.00882268
0.00882853
0.00883449
0.00883968
0.00884521
0.00884843
0.00885226
0.0088539
0.00885562
0.00885521
0.00885514
0.00885221
0.00885248
0.00884324
0.00883493
0.00878574
0.00871803
0.0086245
0.0086246
0.00862519
0.00862583
0.00862804
0.00863037
0.00863353
0.00863788
0.00864392
0.00864553
0.00865672
0.00865459
0.00867103
0.00866806
0.00868194
0.00868104
0.00869316
0.00869159
0.00870511
0.00871028
0.0087197
0.0087276
0.00873487
0.00874094
0.0087482
0.00875481
0.00876234
0.00876845
0.00877477
0.00878021
0.00878675
0.0087921
0.00879832
0.00880421
0.00880999
0.00881616
0.00882193
0.00882799
0.00883354
0.00883945
0.00884444
0.00885024
0.00885359
0.00885749
0.00885963
0.00886186
0.00886206
0.00886313
0.00886482
0.00886221
0.00883879
0.0088108
0.00860545
0.00838294
0.00862697
0.00862695
0.00862747
0.00862839
0.00863072
0.00863263
0.00863606
0.00864002
0.00864426
0.00864954
0.00865446
0.00866271
0.0086654
0.00867472
0.00867843
0.00868762
0.00869439
0.00870434
0.00871013
0.00871924
0.00872643
0.0087345
0.00874287
0.00875083
0.00875799
0.00876442
0.00877151
0.00877909
0.00878599
0.00879192
0.00879787
0.00880309
0.0088084
0.00881359
0.00881869
0.00882396
0.00882923
0.00883425
0.00883925
0.00884491
0.00884974
0.00885553
0.00885895
0.00886288
0.00886584
0.00886809
0.0088697
0.00887638
0.00887484
0.00886434
0.00876201
0.00858434
0.00793639
0.00680092
0.00863071
0.00863085
0.00863131
0.00863253
0.00863385
0.00863649
0.00863937
0.00864266
0.00864668
0.00864856
0.00865864
0.00865843
0.00867446
0.00867071
0.00868812
0.00868648
0.00870247
0.00870259
0.00871966
0.0087201
0.00873205
0.00873981
0.00874876
0.00875803
0.00876785
0.00877648
0.00878349
0.00879011
0.00879605
0.0088015
0.00880674
0.00881172
0.00881646
0.00882119
0.00882576
0.00883052
0.00883551
0.00884022
0.00884514
0.00885052
0.00885543
0.00886126
0.00886451
0.00886879
0.00887249
0.00887502
0.00888252
0.00888771
0.00887361
0.00879395
0.00841983
0.00759266
0.00604892
0.00503266
0.00863582
0.00863594
0.00863654
0.0086376
0.00863918
0.00864106
0.00864347
0.00864573
0.00864894
0.00865456
0.00865516
0.00866736
0.0086645
0.0086812
0.00867854
0.00869512
0.00869219
0.00870894
0.00872316
0.00872993
0.00874069
0.00875023
0.00875896
0.00876741
0.00877463
0.00878301
0.00879173
0.00880002
0.00880746
0.00881397
0.0088192
0.00882324
0.00882701
0.00883098
0.00883472
0.00883892
0.00884313
0.00884741
0.00885198
0.0088568
0.0088615
0.00886697
0.00887033
0.00887496
0.008879
0.00888581
0.00889853
0.00888904
0.0087986
0.00839502
0.00724906
0.00548282
0.00480696
0.00454653
0.00864136
0.00864176
0.00864267
0.00864489
0.00864613
0.00864713
0.00864799
0.00864955
0.00865099
0.00865639
0.00865776
0.00866641
0.00866499
0.0086831
0.00867889
0.0086961
0.00869643
0.00871022
0.00871192
0.00873471
0.00873453
0.00875314
0.00876633
0.00877879
0.00878973
0.00879708
0.00880349
0.00881046
0.00881713
0.00882344
0.00882911
0.00883378
0.00883728
0.00884063
0.00884347
0.00884676
0.00885044
0.00885445
0.0088583
0.00886327
0.00886813
0.0088728
0.00887676
0.00888174
0.00888824
0.00890554
0.00890214
0.00883096
0.00841287
0.00705191
0.00528659
0.00464255
0.00447644
0.00445114
0.00864929
0.00865065
0.00865167
0.00865264
0.00865539
0.0086552
0.00865534
0.00865526
0.00865626
0.00865778
0.00866076
0.00866498
0.00866785
0.00867056
0.00867821
0.00867515
0.00868493
0.00868592
0.0087006
0.00870355
0.00871858
0.00873509
0.00876184
0.00877991
0.00879547
0.00880922
0.00881626
0.00882184
0.00882814
0.0088343
0.00883947
0.00884345
0.00884644
0.00884912
0.00885178
0.00885461
0.00885787
0.0088614
0.00886522
0.00886974
0.00887482
0.00887852
0.00888386
0.00888994
0.00890751
0.00891287
0.00886855
0.00850428
0.00709555
0.00518613
0.0045772
0.00446195
0.00444231
0.00444503
0.00865774
0.00865919
0.00866063
0.00866165
0.00866334
0.00866236
0.00866265
0.00866176
0.0086623
0.00866154
0.00866242
0.00866195
0.00865643
0.00864006
0.00861626
0.00858364
0.00853052
0.00847838
0.00845834
0.00849239
0.00855183
0.00859199
0.00864911
0.00872493
0.00878016
0.00880777
0.00882722
0.00883558
0.00883981
0.00884437
0.00884894
0.00885228
0.00885509
0.00885734
0.00885973
0.0088623
0.00886529
0.00886874
0.00887224
0.00887673
0.00888109
0.00888565
0.00889118
0.00890654
0.00891979
0.00889819
0.00863669
0.00733762
0.00521434
0.00456011
0.00445525
0.00443878
0.0044349
0.00444627
0.00867142
0.00867197
0.00867246
0.00867356
0.0086728
0.00867133
0.0086689
0.00866575
0.00866188
0.00865428
0.00864872
0.00861862
0.00862546
0.00844104
0.00819317
0.00801419
0.00756617
0.00712715
0.00708211
0.00721878
0.00730198
0.00786731
0.00833192
0.00858243
0.00869508
0.00877241
0.00881778
0.00884133
0.00885116
0.0088558
0.00885919
0.00886159
0.00886372
0.00886556
0.0088676
0.00886999
0.00887285
0.00887608
0.00887982
0.0088833
0.00888793
0.00889273
0.00890491
0.00892326
0.00891548
0.00875576
0.00770274
0.00541066
0.00457949
0.00445692
0.00443928
0.00443422
0.00443231
0.00443275
0.00868389
0.00868535
0.0086859
0.00868613
0.00868465
0.00868202
0.00867659
0.00866898
0.00866057
0.00862258
0.00854543
0.00850047
0.00800395
0.00736963
0.00637208
0.0056812
0.00521415
0.00494977
0.00493772
0.00508201
0.00512412
0.00569235
0.00655615
0.00770549
0.00842689
0.00871984
0.00880338
0.00883929
0.00885596
0.00886359
0.00886756
0.00886971
0.00887136
0.00887289
0.0088749
0.00887726
0.0088798
0.00888302
0.00888591
0.00889015
0.00889466
0.00890395
0.00892465
0.00892445
0.00883097
0.00806305
0.00579963
0.00464504
0.00446357
0.00444243
0.00443676
0.00443212
0.00442575
0.00441902
0.00869878
0.00869987
0.00869964
0.00869876
0.00869535
0.00868967
0.00868401
0.00864299
0.0086445
0.0083424
0.00831665
0.0068988
0.0057564
0.00506594
0.00470994
0.0045352
0.0044603
0.00444331
0.00444505
0.00450897
0.00453855
0.00478878
0.00501047
0.00616378
0.00766656
0.00844578
0.00875479
0.00883702
0.00886142
0.00887018
0.0088739
0.00887581
0.0088772
0.0088787
0.00888082
0.00888383
0.00888626
0.00888971
0.00889313
0.00889692
0.00890403
0.00892576
0.00892882
0.00886994
0.00834418
0.00637115
0.00478024
0.00447831
0.0044461
0.00443956
0.00443614
0.00443041
0.00442318
0.00441603
0.0087121
0.00871328
0.00871257
0.00870997
0.00870683
0.00869738
0.00867876
0.00849386
0.00839766
0.00716433
0.00563056
0.00492301
0.00457634
0.00443849
0.00439768
0.00439378
0.0044034
0.00444328
0.00447754
0.00453358
0.00456206
0.00462965
0.00472897
0.0053068
0.00665456
0.00804863
0.00864514
0.00881643
0.00886068
0.00887369
0.00887785
0.00887957
0.00888123
0.00888315
0.0088868
0.00888999
0.00889283
0.00889593
0.00889929
0.00890572
0.00892344
0.00893381
0.00888623
0.00850897
0.00696122
0.00499766
0.00450711
0.00445032
0.00444169
0.00443845
0.00443422
0.00442803
0.00442162
0.0044123
0.00872138
0.00872273
0.00872208
0.00871919
0.00870701
0.00869596
0.00839879
0.00795287
0.00594025
0.00497792
0.00455908
0.00441403
0.00437633
0.00437739
0.00438988
0.00443875
0.00449027
0.00465347
0.00491512
0.00491342
0.0048039
0.00471453
0.00475812
0.00504049
0.0060722
0.00765533
0.00849847
0.00878967
0.00885946
0.00887449
0.00887895
0.00888147
0.00888375
0.00888755
0.00889174
0.00889512
0.00889825
0.0089016
0.00890703
0.00892155
0.00893909
0.00889262
0.00853972
0.00723467
0.00524031
0.00454862
0.00445476
0.0044434
0.00443956
0.00443634
0.00443101
0.00442553
0.00441838
0.00440937
0.00872998
0.00873173
0.00873161
0.00872218
0.00869007
0.00835103
0.00706795
0.00527329
0.00461692
0.00441915
0.0043713
0.00436955
0.00438229
0.00441327
0.00451199
0.00459361
0.00484623
0.00530253
0.00574581
0.00573182
0.00548457
0.00497733
0.00486676
0.00509334
0.00615758
0.00773786
0.00853134
0.0087946
0.00886078
0.00887403
0.00887817
0.00888143
0.00888566
0.00889132
0.00889674
0.0089001
0.00890328
0.00890824
0.00892434
0.00894009
0.00889237
0.00849913
0.00687294
0.00500931
0.00452485
0.00445639
0.00444441
0.00444021
0.00443739
0.00443347
0.00442763
0.00442194
0.00441549
0.00440684
0.00873532
0.00873563
0.00873023
0.00867406
0.00810913
0.00591772
0.00470235
0.00442169
0.00437188
0.00436932
0.00437568
0.00439811
0.00444167
0.00453967
0.00473735
0.0050673
0.00571299
0.00671834
0.00698836
0.00687975
0.00628138
0.00531717
0.00497828
0.00516997
0.00627142
0.00783803
0.00860596
0.00882205
0.00886155
0.0088722
0.00887652
0.0088809
0.00888749
0.00889452
0.00889932
0.00890269
0.00890892
0.00892654
0.0089345
0.00885037
0.00827086
0.00652214
0.00496431
0.00454221
0.00446058
0.00444504
0.00444065
0.00443804
0.00443518
0.00443099
0.00442563
0.00442013
0.00441364
0.00440511
0.00873371
0.0087221
0.00841903
0.00633704
0.00483534
0.0044639
0.00438645
0.00437382
0.00437663
0.00438706
0.00441059
0.00446189
0.00457513
0.00481294
0.00528936
0.00627364
0.00738908
0.00773643
0.00770771
0.00720129
0.00605447
0.00526413
0.00513544
0.00561818
0.00703785
0.00830408
0.00872162
0.0088363
0.00885936
0.00886683
0.0088717
0.00887942
0.00888835
0.00889508
0.00890059
0.00891013
0.00892346
0.00891655
0.00876227
0.00803499
0.00623954
0.00493279
0.00456195
0.00446758
0.00444828
0.00444247
0.00444029
0.00443761
0.00443435
0.00442955
0.00442417
0.00441846
0.00441126
0.00440278
0.00762484
0.00675449
0.00543099
0.0045915
0.00441483
0.00438663
0.0043806
0.0043843
0.00439539
0.0044194
0.00447341
0.00459477
0.00485777
0.0054028
0.00656109
0.00777823
0.00800869
0.00793054
0.00727174
0.00634289
0.00556455
0.00529211
0.00541366
0.00642373
0.00798331
0.00858365
0.00878698
0.00883766
0.0088524
0.00885771
0.00886712
0.0088782
0.0088876
0.00889622
0.00890792
0.00891259
0.00887718
0.00860854
0.00766866
0.00580172
0.00485968
0.00457803
0.00446842
0.00445283
0.0044431
0.00444165
0.00443906
0.00443691
0.00443329
0.00442914
0.00442351
0.00441734
0.00441036
0.00440224
0.00513442
0.00480443
0.00450545
0.00440087
0.00438788
0.00438587
0.00439008
0.0044016
0.00442521
0.00447726
0.00459619
0.00485301
0.00539096
0.00650264
0.00788359
0.00822954
0.00801747
0.00724881
0.00635717
0.00588724
0.00565733
0.00571831
0.00646029
0.00778362
0.00847979
0.00872415
0.00881084
0.00883097
0.0088391
0.0088508
0.00886332
0.00887626
0.00888839
0.00889503
0.00889326
0.00881053
0.00837845
0.00707272
0.00547646
0.00476148
0.00457584
0.00447108
0.00445514
0.00444434
0.00444275
0.0044399
0.0044383
0.00443526
0.00443187
0.00442777
0.00442264
0.00441694
0.00441025
0.00440207
0.00450664
0.00443384
0.00439745
0.00438944
0.00439172
0.00439458
0.00440579
0.00442845
0.00447854
0.00458962
0.00482403
0.00530278
0.00625721
0.00776465
0.00831638
0.008251
0.00771083
0.00693864
0.00646696
0.00626191
0.00627851
0.00691402
0.00798906
0.00840933
0.00871231
0.00876738
0.00881071
0.00881773
0.00883018
0.00884412
0.00886051
0.00887402
0.00887973
0.00886388
0.0087191
0.00811531
0.00650864
0.0052456
0.00468862
0.00455375
0.00447395
0.00445638
0.00444531
0.00444345
0.00444038
0.00443892
0.00443645
0.00443358
0.00443018
0.00442605
0.00442108
0.00441529
0.00440909
0.00440154
0.00440236
0.00439364
0.00439125
0.00439356
0.0043983
0.00440851
0.0044305
0.00447773
0.0045787
0.00478295
0.00518037
0.0059354
0.00728691
0.00828093
0.00842115
0.0082688
0.00784436
0.00746493
0.00731419
0.0072929
0.00761375
0.0082637
0.00846133
0.00867932
0.00873975
0.00877964
0.00879628
0.00880616
0.00882215
0.00884096
0.00885512
0.00885847
0.00882353
0.00861861
0.00788059
0.00613136
0.00508906
0.00463283
0.00453364
0.00447169
0.00445652
0.00444586
0.00444378
0.0044404
0.00443937
0.00443735
0.00443488
0.00443223
0.00442908
0.00442541
0.00442072
0.00441497
0.00440859
0.00440116
0.0043931
0.00439322
0.00439545
0.00439942
0.00441025
0.0044304
0.00447496
0.00456576
0.00474132
0.00506462
0.00564172
0.00664578
0.00798211
0.00847076
0.00851809
0.00841576
0.00822463
0.00812854
0.00810474
0.00818473
0.00843065
0.00857612
0.00867616
0.00869915
0.00875822
0.00876865
0.00878155
0.00879686
0.00881939
0.00883249
0.00883412
0.00879393
0.00856845
0.00781296
0.00594102
0.00490095
0.0046542
0.00449566
0.00447752
0.00445218
0.00444808
0.0044415
0.00444045
0.00443857
0.00443741
0.0044353
0.0044329
0.00443031
0.00442742
0.00442401
0.00441986
0.00441476
0.00440863
0.00440153
0.00439507
0.00439683
0.00440074
0.0044106
0.00442867
0.00446956
0.00455096
0.00470372
0.00497101
0.0054182
0.00614628
0.00728931
0.00828596
0.00858154
0.00859534
0.00855277
0.00849541
0.00848027
0.00848659
0.0085675
0.00862936
0.00868516
0.00868631
0.00873782
0.00874317
0.00875659
0.00877493
0.00879759
0.00880775
0.0088115
0.00876188
0.00851483
0.00771308
0.00588423
0.00502417
0.00455479
0.00451718
0.0044595
0.00445596
0.00444281
0.00444146
0.00443778
0.00443698
0.004436
0.00443459
0.00443279
0.00443065
0.00442822
0.00442547
0.00442222
0.00441844
0.0044138
0.00440838
0.00440173
0.00439968
0.0044024
0.00440978
0.00442605
0.00446158
0.00453416
0.00466814
0.0048967
0.0052609
0.00581351
0.00662297
0.00772674
0.0084792
0.00862757
0.0086522
0.00863672
0.0086212
0.00861949
0.00863667
0.00866012
0.00868483
0.00868191
0.0087182
0.00871973
0.00873479
0.00874789
0.00877393
0.00877978
0.00877676
0.00872001
0.00849502
0.00774589
0.00615222
0.00511268
0.00455855
0.00451084
0.00445289
0.00444888
0.00443901
0.00443778
0.00443447
0.00443378
0.00443323
0.0044324
0.00443122
0.00442976
0.00442804
0.00442589
0.0044235
0.00442072
0.00441748
0.00441372
0.00440867
0.00440283
0.004405
0.00440969
0.00442244
0.0044509
0.00451339
0.0046297
0.00482972
0.00514489
0.00560727
0.0062459
0.00708333
0.00808758
0.00850745
0.0086682
0.00866576
0.00867403
0.00866888
0.00866755
0.00866929
0.00867926
0.00867668
0.00870137
0.00870169
0.0087204
0.00872281
0.00875466
0.00875673
0.00876032
0.0087195
0.00852782
0.00790624
0.00663754
0.00532413
0.00460888
0.00452708
0.00444726
0.0044439
0.00443368
0.00443263
0.00442951
0.00442894
0.00442865
0.0044286
0.00442805
0.00442714
0.00442608
0.00442474
0.00442308
0.00442115
0.00441861
0.00441623
0.00441296
0.00440875
0.00440374
0.00441153
0.00441849
0.00443838
0.00448645
0.00458089
0.00474945
0.0050226
0.0054274
0.00597647
0.00666436
0.00747425
0.00823649
0.00860716
0.00865165
0.00867068
0.00867761
0.0086737
0.00867213
0.00867339
0.00867344
0.00868479
0.00868855
0.00870011
0.00871019
0.00872737
0.00873853
0.00873114
0.00869061
0.00854016
0.0081252
0.0072214
0.0057749
0.00471196
0.0045855
0.00444363
0.00444063
0.00442693
0.00442644
0.00442354
0.004423
0.00442294
0.00442308
0.00442309
0.00442278
0.00442215
0.00442146
0.00442053
0.0044194
0.00441763
0.00441592
0.004414
0.00441134
0.00440775
0.00440317
0.0044178
0.00442731
0.00445827
0.00452542
0.00465482
0.00487928
0.00523338
0.00573531
0.00637137
0.00709566
0.00785977
0.00835024
0.00864816
0.00864178
0.0086706
0.00867694
0.00867435
0.00867081
0.00866961
0.00867101
0.00867585
0.00869074
0.008693
0.00870911
0.00871819
0.00871476
0.00868885
0.00860187
0.00832191
0.00761587
0.00638386
0.00495144
0.00469491
0.00444571
0.00444187
0.00441836
0.00441893
0.00441599
0.00441556
0.00441593
0.00441631
0.00441657
0.00441653
0.00441646
0.00441651
0.00441623
0.0044159
0.00441505
0.00441409
0.0044133
0.00441167
0.00440975
0.00440751
0.00440339
0.00442306
0.00443402
0.00447234
0.00455327
0.00470734
0.00497297
0.00539039
0.00598127
0.00671333
0.00747726
0.00808076
0.008562
0.00859048
0.00865625
0.0086576
0.00867584
0.00867007
0.00866725
0.00866649
0.0086656
0.00868035
0.00868025
0.00869564
0.00869978
0.00869804
0.00868323
0.00860899
0.00837941
0.00783634
0.00683493
0.00539127
0.00480797
0.0044381
0.00445052
0.00441148
0.00441125
0.0044077
0.00440715
0.00440802
0.00440832
0.00440835
0.00440934
0.00440946
0.00441005
0.00441022
0.00441046
0.00441042
0.00441017
0.00440981
0.00440951
0.00440832
0.00440763
0.00440509
0.00440266
0.00442592
0.00443514
0.00447622
0.00456341
0.00472892
0.00501416
0.00546194
0.00610288
0.00692197
0.00780753
0.00828262
0.00861194
0.00860259
0.0086281
0.00865122
0.00867072
0.00866634
0.00866703
0.00866379
0.00867042
0.00867024
0.0086798
0.00867931
0.00867318
0.00864499
0.00855635
0.00835514
0.00794769
0.00707409
0.00556968
0.00471187
0.00460041
0.00442845
0.00441788
0.00440135
0.00439862
0.00439824
0.00439914
0.0043996
0.00439971
0.00440118
0.00440192
0.00440221
0.00440305
0.00440317
0.00440406
0.00440422
0.00440459
0.00440499
0.00440518
0.0044052
0.00440507
0.00440342
0.0044023
0.00442507
0.00442807
0.00445927
0.00453673
0.00468968
0.0049698
0.00542994
0.00611075
0.00698908
0.00791753
0.00837496
0.00858406
0.00856013
0.00861663
0.00865722
0.00865839
0.00866632
0.00866156
0.00866098
0.00866026
0.00865795
0.00865202
0.00863276
0.00858649
0.00849344
0.00829396
0.00785725
0.00684995
0.00556435
0.00475471
0.00471276
0.00443559
0.00441186
0.00439759
0.00439007
0.00438922
0.00438938
0.0043908
0.00439099
0.00439261
0.00439272
0.00439431
0.00439419
0.00439607
0.00439591
0.00439731
0.00439729
0.00439859
0.00439945
0.00440018
0.00440135
0.00440145
0.00440111
0.00440062
0.0044238
0.00442345
0.00444263
0.00450229
0.00462064
0.00484402
0.00522527
0.00582515
0.00667458
0.00768059
0.00832661
0.00853375
0.00850216
0.0086029
0.00863545
0.00865199
0.00864612
0.00864739
0.00863375
0.00862244
0.00859536
0.00855045
0.00845863
0.00830053
0.00798384
0.00736859
0.0062547
0.00541333
0.00471344
0.00468631
0.00441051
0.0044295
0.00438739
0.00438511
0.00437998
0.00437963
0.00438176
0.0043827
0.00438314
0.00438478
0.00438549
0.0043861
0.00438747
0.00438806
0.00438902
0.00438981
0.00439034
0.00439178
0.0043931
0.00439469
0.00439681
0.0043976
0.00439842
0.00439848
0.00441586
0.00441521
0.00441687
0.0044488
0.00452354
0.00467239
0.00494277
0.00539106
0.00607194
0.00699313
0.00784754
0.00848471
0.00851298
0.00851019
0.00856238
0.00860249
0.00859245
0.00856624
0.00853732
0.00845787
0.00834748
0.00814247
0.00779353
0.00716207
0.00630949
0.00562508
0.00510297
0.00478509
0.00451916
0.00451752
0.00439484
0.00438886
0.00437372
0.00437267
0.00437116
0.0043733
0.0043743
0.00437421
0.00437618
0.00437706
0.00437803
0.00437861
0.00437985
0.00438018
0.00438134
0.00438182
0.00438307
0.00438476
0.00438665
0.00438924
0.00439174
0.00439377
0.00439594
0.00439606
0.00441051
0.00440733
0.00440316
0.00440895
0.00444357
0.00451836
0.00466536
0.00492749
0.00535869
0.00600146
0.00684074
0.00771537
0.00821383
0.00833521
0.00832251
0.0083612
0.00834119
0.00825814
0.00807287
0.0077736
0.00729088
0.00656629
0.00598313
0.00550205
0.00514118
0.00482719
0.00464248
0.00447159
0.00447349
0.00438657
0.00437848
0.00436537
0.00436444
0.00436348
0.0043652
0.00436626
0.00436628
0.0043683
0.00436843
0.00437023
0.00437034
0.00437207
0.00437227
0.00437321
0.00437368
0.00437443
0.00437569
0.00437779
0.00438009
0.00438341
0.00438675
0.0043899
0.00439167
0.00439454
0.00441567
0.00439985
0.0043928
0.00439006
0.00439684
0.00442533
0.00448441
0.00459434
0.00478228
0.00507936
0.00551265
0.00607203
0.00667429
0.00706215
0.00727411
0.00723807
0.00719683
0.00686554
0.00641057
0.00588051
0.00546341
0.00522136
0.00495266
0.00476538
0.00462232
0.00448733
0.00448094
0.00439932
0.00439763
0.00436274
0.00436115
0.00435645
0.00435623
0.00435799
0.00435885
0.00436038
0.00436104
0.0043626
0.00436265
0.00436451
0.00436454
0.00436549
0.00436538
0.00436569
0.00436586
0.00436648
0.00436787
0.00437058
0.00437413
0.00437795
0.00438188
0.00438715
0.00439191
0.00439737
0.00441362
0.00439974
0.00438341
0.0043794
0.00437644
0.00438143
0.00440047
0.00443868
0.00450675
0.00461431
0.00476943
0.00497026
0.00519328
0.00535617
0.00546569
0.00545635
0.00544884
0.00527933
0.00504524
0.00484542
0.00473236
0.00460036
0.00458784
0.00446078
0.00446285
0.00439546
0.00439669
0.00436251
0.0043617
0.00435089
0.00435018
0.00434975
0.00435128
0.00435276
0.00435354
0.00435524
0.00435649
0.00435651
0.00435784
0.00435793
0.00435815
0.00435842
0.00435849
0.00435847
0.00435867
0.00435968
0.00436186
0.00436527
0.00436689
0.0043738
0.00438131
0.00438955
0.00439907
0.00440262
0.00441313
0.0043976
0.00438208
0.00437172
0.00436549
0.00436362
0.00436545
0.00437472
0.00439397
0.00442477
0.00446985
0.00452692
0.00458841
0.00463827
0.00467776
0.00467367
0.00467314
0.00461539
0.00454477
0.00448482
0.00447256
0.00442346
0.00442522
0.00437992
0.00438179
0.00435719
0.00435689
0.00434641
0.0043455
0.00434411
0.0043452
0.00434596
0.00434808
0.00434913
0.00435075
0.00435161
0.00435197
0.00435292
0.00435417
0.00435421
0.00435458
0.00435443
0.00435297
0.00435241
0.00435236
0.00435365
0.0043564