/*--------------------------------*- C++ -*----------------------------------*\
  =========                 |
  \\      /  F ield         | OpenFOAM: The Open Source CFD Toolbox
   \\    /   O peration     | Website:  https://openfoam.org
    \\  /    A nd           | Version:  10
     \\/     M anipulation  |
\*---------------------------------------------------------------------------*/
FoamFile
{
    format      ascii;
    class       surfaceScalarField;
    location    "0.499568";
    object      phi;
}
// * * * * * * * * * * * * * * * * * * * * * * * * * * * * * * * * * * * * * //

dimensions      [1 0 -1 0 0 0 0];

internalField   nonuniform List<scalar> 
32368
(
-6.74046e-05
8.40345e-05
-5.97704e-05
5.27505e-05
-5.91566e-05
4.24678e-05
-5.46113e-05
3.92174e-05
-4.57597e-05
3.27846e-05
-3.44321e-05
2.21759e-05
-2.34161e-05
1.12779e-05
-1.46877e-05
3.62326e-06
-9.12298e-06
2.48504e-08
-5.91459e-06
-1.83967e-06
-3.91496e-06
-2.13699e-06
-2.13609e-06
-7.21924e-07
-5.10948e-07
1.41492e-06
4.29077e-06
5.27775e-06
1.07791e-05
1.51142e-05
1.8236e-05
3.0465e-05
2.62021e-05
5.19535e-05
2.78637e-05
8.63883e-05
1.4984e-05
0.000126106
-1.20042e-05
0.000150323
-4.01878e-05
0.00015739
-5.70529e-05
0.000150868
-6.21525e-05
0.000133003
-6.14006e-05
0.000112492
-5.91529e-05
9.27657e-05
-6.0917e-05
7.94196e-05
-6.20475e-05
7.03172e-05
-6.39086e-05
7.00215e-05
-6.56868e-05
6.89764e-05
-6.71362e-05
6.83719e-05
-6.77561e-05
6.71915e-05
-6.75192e-05
6.55477e-05
-6.6355e-05
6.3545e-05
-6.42403e-05
6.13869e-05
-6.11604e-05
5.92729e-05
-5.7168e-05
5.72623e-05
-5.24154e-05
5.55428e-05
-4.71996e-05
5.42297e-05
-4.15643e-05
5.33461e-05
-3.56916e-05
5.28132e-05
-2.97695e-05
5.26033e-05
-2.39731e-05
5.26779e-05
-1.8482e-05
5.30339e-05
-1.34201e-05
5.38446e-05
-8.94649e-06
5.56529e-05
-4.96401e-06
5.9476e-05
-1.22044e-06
6.65932e-05
2.86281e-06
7.56241e-05
7.1238e-06
8.31949e-05
1.16011e-05
8.8674e-05
1.60546e-05
9.20306e-05
2.02407e-05
9.18114e-05
2.4033e-05
8.93889e-05
2.73084e-05
8.52619e-05
3.02798e-05
8.1253e-05
3.36872e-05
7.96842e-05
3.62387e-05
7.84019e-05
3.73796e-05
7.44227e-05
3.74037e-05
6.7892e-05
3.31114e-05
5.24297e-05
3.12202e-05
3.50912e-05
3.31014e-05
2.32163e-05
3.9124e-05
9.92413e-06
5.91448e-05
-3.47866e-06
8.29398e-05
-2.23804e-05
0.000100718
-4.5583e-05
0.000107921
-6.64241e-05
0.000108229
-8.14139e-05
0.000103501
-9.05876e-05
8.84442e-05
-9.22114e-05
5.82584e-05
-8.4356e-05
3.2512e-05
-6.18337e-05
2.20985e-05
-4.67871e-05
1.74369e-05
-4.26877e-05
1.62083e-05
-4.46223e-05
1.63144e-05
-5.4063e-05
1.92321e-05
-6.61053e-05
3.22765e-05
-0.000110433
4.38095e-05
-0.000176399
4.2665e-05
-0.000240288
1.88986e-05
-0.000282476
-1.48652e-05
-0.000293872
-3.25418e-05
-0.000277695
-2.79656e-05
-0.000246577
-1.61673e-05
-0.000201229
-4.9111e-06
-0.000140072
7.95127e-06
-8.74333e-05
2.78e-05
-3.22023e-05
5.8211e-05
2.82407e-05
8.23689e-05
7.82139e-05
0.000108252
0.000109598
0.00012992
0.000128579
0.000141426
0.000127419
0.000148626
0.000116078
0.000162756
9.84687e-05
0.000164561
6.81203e-05
0.000150998
3.26451e-05
0.000106029
-7.81722e-07
7.04249e-05
-2.42142e-05
3.88915e-05
-5.64292e-05
8.74371e-06
-9.59258e-05
-1.38781e-05
-0.000125343
-2.44033e-05
-0.000153577
-3.1707e-05
-0.00017177
-4.68557e-05
-0.000190881
-7.95453e-05
-0.000204412
-0.000114583
-0.000184478
-0.000129453
-0.000146434
-0.000125766
-0.00011609
-0.000113035
-9.8375e-05
-9.65369e-05
-8.87069e-05
-7.45429e-05
-7.90585e-05
-6.30283e-05
-5.14749e-05
-6.5888e-05
9.45692e-05
-6.19227e-05
6.61439e-05
-6.34329e-05
5.78104e-05
-6.09706e-05
5.25181e-05
-5.50968e-05
4.21273e-05
-4.78264e-05
2.73867e-05
-4.10335e-05
1.25373e-05
-3.49034e-05
8.96829e-07
-2.90776e-05
-6.26973e-06
-2.38025e-05
-9.67522e-06
-1.95358e-05
-9.39068e-06
-1.56422e-05
-7.33579e-06
-1.30708e-05
-4.50486e-06
-1.00453e-05
-1.34543e-06
-3.85662e-06
5.00196e-06
4.20285e-06
1.79854e-05
1.15217e-05
3.8077e-05
1.69919e-05
6.61979e-05
1.41886e-05
0.000104424
-4.58055e-06
0.000137393
-3.16456e-05
0.000154254
-5.57838e-05
0.000155925
-6.84343e-05
0.000146085
-7.1463e-05
0.000128939
-7.02326e-05
0.000109739
-6.85991e-05
9.34876e-05
-6.82158e-05
8.0761e-05
-6.80662e-05
7.34196e-05
-7.00228e-05
7.0861e-05
-7.17304e-05
6.95125e-05
-7.26459e-05
6.77122e-05
-7.24819e-05
6.53225e-05
-7.11651e-05
6.25014e-05
-6.87186e-05
5.94713e-05
-6.5212e-05
5.65027e-05
-6.07596e-05
5.3743e-05
-5.56504e-05
5.14149e-05
-5.00019e-05
4.962e-05
-4.39473e-05
4.83889e-05
-3.7724e-05
4.77118e-05
-3.15062e-05
4.7534e-05
-2.54839e-05
4.78379e-05
-1.98681e-05
4.86765e-05
-1.48352e-05
5.0229e-05
-1.05092e-05
5.30049e-05
-6.80433e-06
5.81846e-05
-3.15948e-06
6.72361e-05
8.80022e-07
7.67545e-05
5.122e-06
8.47013e-05
9.58541e-06
9.04385e-05
1.39902e-05
9.35347e-05
1.81032e-05
9.33698e-05
2.17797e-05
9.11564e-05
2.5059e-05
8.7885e-05
2.84033e-05
8.55172e-05
3.15004e-05
8.49002e-05
3.33387e-05
8.21399e-05
3.42951e-05
7.70474e-05
3.29558e-05
6.72591e-05
2.87404e-05
4.68017e-05
2.86986e-05
3.23899e-05
3.138e-05
2.05558e-05
3.86071e-05
7.15469e-06
5.91353e-05
-5.95478e-06
8.12101e-05
-2.46711e-05
9.69331e-05
-4.64677e-05
0.000104101
-6.68162e-05
0.000104606
-8.19537e-05
0.000101274
-9.01607e-05
9.07007e-05
-9.17457e-05
6.5271e-05
-8.59253e-05
3.50948e-05
-6.78414e-05
2.14577e-05
-4.74999e-05
1.60176e-05
-4.21195e-05
1.44162e-05
-4.44017e-05
1.44576e-05
-5.47356e-05
1.92554e-05
-7.28936e-05
3.20471e-05
-0.000119545
4.48582e-05
-0.000178467
4.9005e-05
-0.000236144
3.66148e-05
-0.000273232
1.09678e-05
-0.00028225
-8.34614e-06
-0.000268667
-8.82415e-06
-0.000236976
-8.89496e-07
-0.000192381
1.01664e-05
-0.000126495
2.02617e-05
-6.50677e-05
3.95015e-05
-1.46079e-05
6.83195e-05
3.77807e-05
9.46092e-05
8.85752e-05
0.000116376
0.000122357
0.000138169
0.000142333
0.000151702
0.000143657
0.000159914
0.000135583
0.000170414
0.000119743
0.000175071
9.67418e-05
0.000164238
6.42876e-05
0.000131982
2.86577e-05
8.97871e-05
-3.66677e-06
5.22914e-05
-3.83397e-05
1.59328e-05
-8.5236e-05
-1.16873e-05
-0.000122716
-2.48103e-05
-0.000152
-3.0056e-05
-0.00016894
-4.04048e-05
-0.000190033
-6.55972e-05
-0.000220381
-9.66306e-05
-0.000212537
-0.000116857
-0.000172073
-0.000117731
-0.000131512
-0.000107377
-0.0001048
-9.21684e-05
-8.91519e-05
-6.95923e-05
-7.52934e-05
-5.51311e-05
-4.45174e-05
-6.32817e-05
0.000108604
-6.01826e-05
7.99183e-05
-6.08278e-05
7.12406e-05
-5.93116e-05
6.351e-05
-5.55931e-05
4.91463e-05
-5.19729e-05
3.07851e-05
-5.06511e-05
1.28108e-05
-5.08498e-05
-2.40981e-06
-4.95358e-05
-1.38717e-05
-4.44378e-05
-2.04732e-05
-3.66722e-05
-2.07237e-05
-2.91927e-05
-1.68606e-05
-2.36006e-05
-1.1618e-05
-2.07585e-05
-7.41236e-06
-1.64882e-05
-2.37646e-06
-9.75589e-06
7.79005e-06
-1.70513e-06
2.52421e-05
4.26471e-06
5.15954e-05
5.04861e-06
8.7083e-05
-5.00301e-06
0.000125149
-2.63633e-05
0.000148975
-5.28956e-05
0.000158
-7.39397e-05
0.000157471
-8.32085e-05
0.000145398
-8.45366e-05
0.000127305
-8.08006e-05
0.000106921
-7.38044e-05
8.73538e-05
-7.22783e-05
7.51038e-05
-7.45889e-05
7.27913e-05
-7.69552e-05
7.05893e-05
-7.81121e-05
6.81427e-05
-7.80226e-05
6.49577e-05
-7.65839e-05
6.12192e-05
-7.38669e-05
5.72773e-05
-6.99741e-05
5.3393e-05
-6.50918e-05
4.98476e-05
-5.9412e-05
4.6793e-05
-5.30903e-05
4.44417e-05
-4.63987e-05
4.28831e-05
-3.96128e-05
4.21531e-05
-3.28853e-05
4.21016e-05
-2.64798e-05
4.28129e-05
-2.0635e-05
4.43684e-05
-1.55885e-05
4.69631e-05
-1.13393e-05
5.105e-05
-7.79779e-06
5.78596e-05
-4.19918e-06
6.78114e-05
-2.31653e-07
7.7694e-05
3.97191e-06
8.60438e-05
8.37382e-06
9.21077e-05
1.2645e-05
9.518e-05
1.65967e-05
9.53156e-05
2.01547e-05
9.36059e-05
2.34335e-05
9.15956e-05
2.65864e-05
9.0584e-05
2.90741e-05
8.92763e-05
3.04033e-05
8.49183e-05
3.08876e-05
7.8161e-05
2.79352e-05
6.23637e-05
2.52327e-05
4.19388e-05
2.64289e-05
3.00649e-05
2.97021e-05
1.79926e-05
3.83609e-05
4.70355e-06
5.887e-05
-7.84928e-06
7.8779e-05
-2.68335e-05
9.29232e-05
-4.82419e-05
0.000100567
-6.80647e-05
0.000101885
-8.28946e-05
9.96594e-05
-9.0667e-05
9.23681e-05
-9.17498e-05
7.21039e-05
-8.62602e-05
4.06557e-05
-7.21839e-05
2.17156e-05
-4.97817e-05
1.48928e-05
-4.15325e-05
1.27714e-05
-4.3517e-05
1.24542e-05
-5.52385e-05
1.86415e-05
-7.54002e-05
3.0753e-05
-0.000120091
4.45866e-05
-0.000176492
5.32192e-05
-0.00023123
4.9663e-05
-0.000264652
3.28821e-05
-0.000271652
1.36641e-05
-0.000259084
7.63341e-06
-0.000230467
1.47645e-05
-0.000183198
2.2807e-05
-0.000117803
3.01135e-05
-4.82818e-05
4.72975e-05
-5.56666e-07
7.12192e-05
4.70305e-05
9.95409e-05
9.6253e-05
0.000122828
0.000132666
0.000142994
0.000156181
0.000156961
0.000159629
0.000167201
0.000153139
0.00017435
0.000138783
0.000184414
0.000122179
0.000179257
9.632e-05
0.000160236
6.24191e-05
0.000118649
2.40269e-05
7.49523e-05
-1.7311e-05
3.11213e-05
-6.95394e-05
-3.76787e-06
-0.000121594
-2.26119e-05
-0.000147773
-2.89812e-05
-0.000166683
-3.53772e-05
-0.000184671
-5.40982e-05
-0.00022162
-7.96041e-05
-0.000231981
-0.000101884
-0.000194936
-0.00010842
-0.000147471
-0.000101365
-0.000111249
-8.70698e-05
-8.85593e-05
-6.58025e-05
-6.94259e-05
-4.74924e-05
-4.05168e-05
-5.82031e-05
0.000125825
-5.41006e-05
9.31756e-05
-5.37644e-05
8.247e-05
-5.23451e-05
7.11025e-05
-5.022e-05
5.31549e-05
-4.91631e-05
3.14121e-05
-5.11941e-05
1.04355e-05
-5.60267e-05
-7.43111e-06
-6.05321e-05
-2.17151e-05
-6.1637e-05
-3.01052e-05
-5.55208e-05
-3.32415e-05
-4.42275e-05
-2.93813e-05
-3.34816e-05
-2.08962e-05
-2.88098e-05
-1.35688e-05
-2.58583e-05
-8.19229e-06
-2.13221e-05
1.8355e-07
-1.53751e-05
1.47449e-05
-9.92532e-06
3.93329e-05
-8.07276e-06
7.39123e-05
-1.49342e-05
0.000114587
-2.98861e-05
0.000143977
-5.30975e-05
0.000157837
-7.88024e-05
0.000162447
-9.48264e-05
0.000156001
-9.64717e-05
0.00013719
-8.7976e-05
0.00011226
-7.63427e-05
8.80698e-05
-7.60169e-05
7.71516e-05
-7.98213e-05
7.40554e-05
-8.25222e-05
7.16199e-05
-8.42479e-05
6.85332e-05
-8.43662e-05
6.44993e-05
-8.2858e-05
5.9774e-05
-7.98275e-05
5.47336e-05
-7.54507e-05
4.9864e-05
-6.99161e-05
4.54164e-05
-6.34491e-05
4.15897e-05
-5.63103e-05
3.87339e-05
-4.88513e-05
3.70105e-05
-4.13263e-05
3.63663e-05
-3.40962e-05
3.67596e-05
-2.72821e-05
3.82583e-05
-2.11078e-05
4.11613e-05
-1.58281e-05
4.55122e-05
-1.16427e-05
5.16188e-05
-7.81521e-06
6.03794e-05
-4.08111e-06
7.00119e-05
-1.47825e-07
7.95962e-05
3.91959e-06
8.79238e-05
8.07383e-06
9.41916e-05
1.20841e-05
9.73764e-05
1.57478e-05
9.79649e-05
1.90344e-05
9.69585e-05
2.20925e-05
9.59765e-05
2.47516e-05
9.56549e-05
2.64864e-05
9.27287e-05
2.74702e-05
8.73442e-05
2.6767e-05
7.66983e-05
2.33378e-05
5.52782e-05
2.24885e-05
3.88564e-05
2.42985e-05
2.83126e-05
2.8096e-05
1.61633e-05
3.86193e-05
3.39389e-06
5.75163e-05
-9.64956e-06
7.49014e-05
-2.86213e-05
8.83459e-05
-4.98697e-05
9.68101e-05
-6.98722e-05
9.97282e-05
-8.53935e-05
9.85237e-05
-9.32242e-05
9.34999e-05
-9.32283e-05
7.74772e-05
-8.52251e-05
4.79535e-05
-7.08705e-05
2.3334e-05
-5.21489e-05
1.44427e-05
-4.08793e-05
1.14945e-05
-4.21724e-05
1.07627e-05
-5.43568e-05
1.75111e-05
-7.36505e-05
2.97844e-05
-0.00011774
4.49605e-05
-0.000173577
5.66422e-05
-0.0002272
5.85588e-05
-0.000257445
4.90793e-05
-0.00026249
3.32257e-05
-0.000249803
2.24983e-05
-0.000222799
2.41357e-05
-0.000174541
3.06178e-05
-0.000109364
3.79097e-05
-3.81954e-05
5.12361e-05
8.49346e-06
7.26585e-05
5.4134e-05
0.000100134
0.000101474
0.000126364
0.000140849
0.00014736
0.00016684
0.000159703
0.000175167
0.000169124
0.000168133
0.000175237
0.000156214
0.000185874
0.000140306
0.000193159
0.000122239
0.000182159
9.26748e-05
0.000155149
5.29459e-05
0.000106784
6.80975e-06
5.51478e-05
-4.82682e-05
8.23366e-06
-0.000112147
-1.92053e-05
-0.000146609
-2.79222e-05
-0.000165742
-3.10058e-05
-0.000179474
-4.47214e-05
-0.000213071
-6.42651e-05
-0.000238736
-8.50258e-05
-0.000211043
-9.67643e-05
-0.000161473
-9.4133e-05
-0.000118735
-8.23185e-05
-8.89193e-05
-6.23376e-05
-6.46463e-05
-4.13192e-05
-3.92022e-05
-5.09773e-05
0.000145725
-4.51681e-05
0.000105775
-4.46846e-05
9.15898e-05
-4.38511e-05
7.63195e-05
-4.32883e-05
5.50836e-05
-4.40381e-05
3.01525e-05
-4.81908e-05
6.67935e-06
-5.4923e-05
-1.31659e-05
-6.21999e-05
-2.78883e-05
-6.78145e-05
-3.66815e-05
-6.83679e-05
-4.1986e-05
-6.0068e-05
-4.06977e-05
-4.53028e-05
-3.2098e-05
-3.50057e-05
-2.0639e-05
-3.24597e-05
-1.24016e-05
-2.99596e-05
-5.11437e-06
-2.7227e-05
7.21712e-06
-2.44837e-05
2.8697e-05
-2.48575e-05
6.3031e-05
-3.06381e-05
0.000104914
-4.25099e-05
0.000138019
-5.98797e-05
0.00015597
-8.23165e-05
0.000163471
-9.96232e-05
0.000159369
-0.000100921
0.000139071
-9.01908e-05
0.000111932
-7.96717e-05
8.79599e-05
-8.12054e-05
7.67067e-05
-8.48744e-05
7.45282e-05
-8.86594e-05
7.2593e-05
-9.08285e-05
6.89014e-05
-9.12987e-05
6.38844e-05
-8.96806e-05
5.80305e-05
-8.59932e-05
5.15462e-05
-8.12439e-05
4.61274e-05
-7.49557e-05
4.05357e-05
-6.76679e-05
3.6238e-05
-5.97407e-05
3.29712e-05
-5.13633e-05
3.12253e-05
-4.30658e-05
3.09695e-05
-3.51999e-05
3.20744e-05
-2.815e-05
3.46021e-05
-2.20082e-05
3.86513e-05
-1.63856e-05
4.47375e-05
-1.12784e-05
5.32287e-05
-6.86417e-06
6.36526e-05
-2.72192e-06
7.37832e-05
1.26502e-06
8.32694e-05
4.98232e-06
9.13165e-05
8.73624e-06
9.73183e-05
1.22998e-05
0.000100528
1.55122e-05
0.00010148
1.83501e-05
0.000101162
2.09211e-05
0.000100829
2.29301e-05
0.000100121
2.40258e-05
9.57372e-05
2.43958e-05
8.85789e-05
2.20157e-05
7.10774e-05
1.98051e-05
4.93855e-05
2.01263e-05
3.69266e-05
2.23446e-05
2.69512e-05
2.6562e-05
1.50048e-05
3.80698e-05
3.51042e-06
5.42181e-05
-1.0378e-05
7.01478e-05
-3.01499e-05
8.42047e-05
-5.22242e-05
9.45501e-05
-7.31204e-05
9.90421e-05
-8.88444e-05
9.79544e-05
-9.54565e-05
9.28838e-05
-9.3169e-05
7.80628e-05
-8.14149e-05
5.13605e-05
-6.42007e-05
2.57794e-05
-4.87786e-05
1.4672e-05
-3.78949e-05
1.09525e-05
-3.97519e-05
9.89567e-06
-5.20335e-05
1.68887e-05
-6.99688e-05
2.93838e-05
-0.000114466
4.64193e-05
-0.000172892
6.11733e-05
-0.000226684
6.58863e-05
-0.000252309
5.98678e-05
-0.000253428
4.786e-05
-0.000240734
3.5301e-05
-0.000214761
3.0878e-05
-0.000164308
3.31434e-05
-9.94587e-05
4.0703e-05
-3.32615e-05
5.16822e-05
1.37442e-05
7.0396e-05
5.66583e-05
9.86739e-05
0.000100802
0.000124788
0.000143911
0.0001486
0.00017345
0.000163886
0.000188049
0.000170024
0.000184368
0.000176668
0.000171016
0.000183482
0.000154348
0.000197538
0.000139037
0.000195867
0.000114656
0.000179461
7.67963e-05
0.000136675
2.96215e-05
8.23549e-05
-2.47125e-05
2.7007e-05
-9.13568e-05
-1.12718e-05
-0.000144337
-2.42231e-05
-0.000160666
-2.6425e-05
-0.000173732
-3.64081e-05
-0.000202563
-5.09833e-05
-0.000234831
-6.78459e-05
-0.000218469
-8.14473e-05
-0.000171771
-8.42475e-05
-0.00012493
-7.61411e-05
-8.99769e-05
-5.86689e-05
-6.11473e-05
-3.56847e-05
-3.76378e-05
-4.30364e-05
0.000163787
-3.52836e-05
0.000121146
-3.51942e-05
9.93176e-05
-3.54674e-05
8.05156e-05
-3.66197e-05
5.62964e-05
-3.94248e-05
2.87934e-05
-4.47253e-05
3.4512e-06
-5.21075e-05
-1.70903e-05
-5.95911e-05
-3.13323e-05
-6.60808e-05
-4.03641e-05
-7.04688e-05
-4.65825e-05
-6.94491e-05
-4.70351e-05
-5.84248e-05
-4.04608e-05
-4.23213e-05
-2.78206e-05
-3.66342e-05
-1.68736e-05
-3.58931e-05
-8.1168e-06
-3.56755e-05
2.52478e-06
-3.76937e-05
2.03165e-05
-4.22571e-05
5.26687e-05
-4.93321e-05
9.52362e-05
-5.89271e-05
0.000130858
-7.38669e-05
0.000153408
-9.06609e-05
0.000164251
-0.000102884
0.000161745
-0.000102099
0.000140419
-9.10979e-05
0.000110298
-7.98809e-05
8.29483e-05
-8.34845e-05
7.53274e-05
-8.97567e-05
7.59321e-05
-9.43951e-05
7.35636e-05
-9.68569e-05
6.88501e-05
-9.76598e-05
6.29926e-05
-9.57599e-05
5.58416e-05
-9.27727e-05
4.91921e-05
-8.70763e-05
4.19777e-05
-8.09375e-05
3.67298e-05
-7.39875e-05
3.25702e-05
-6.50577e-05
2.90201e-05
-5.47036e-05
2.73881e-05
-4.43035e-05
2.77873e-05
-3.46547e-05
2.96279e-05
-2.64221e-05
3.29987e-05
-1.96133e-05
3.75687e-05
-1.38861e-05
4.38692e-05
-8.89352e-06
5.29323e-05
-4.22748e-06
6.45581e-05
1.81384e-08
7.63896e-05
3.75059e-06
8.72892e-05
7.14604e-06
9.57266e-05
1.03359e-05
0.000101581
1.32518e-05
0.000104721
1.5817e-05
0.000105859
1.80425e-05
0.000106001
1.99109e-05
0.000105958
2.11662e-05
0.000104009
2.1732e-05
9.8708e-05
2.07622e-05
8.74265e-05
1.80126e-05
6.41137e-05
1.71057e-05
4.58713e-05
1.80455e-05
3.58872e-05
2.05186e-05
2.60066e-05
2.52237e-05
1.44638e-05
3.66181e-05
5.20631e-06
5.02121e-05
-1.00938e-05
6.53859e-05
-3.1083e-05
8.02323e-05
-5.35641e-05
9.17963e-05
-7.3868e-05
9.62128e-05
-8.82435e-05
9.46737e-05
-9.32536e-05
8.92663e-05
-8.96018e-05
7.47429e-05
-7.52137e-05
5.04156e-05
-5.57717e-05
2.65501e-05
-4.16062e-05
1.46614e-05
-3.32062e-05
1.08965e-05
-3.65452e-05
9.86433e-06
-4.91503e-05
1.66312e-05
-6.61873e-05
3.03794e-05
-0.000113737
4.93152e-05
-0.000177398
6.53432e-05
-0.000230096
7.17171e-05
-0.000249012
6.76795e-05
-0.000245728
5.73354e-05
-0.00023071
4.43483e-05
-0.00020432
3.42176e-05
-0.000149619
3.31578e-05
-8.87505e-05
4.01184e-05
-3.08453e-05
5.07464e-05
1.56531e-05
6.59879e-05
5.74343e-05
9.29164e-05
9.66027e-05
0.000120964
0.000140504
0.000145256
0.000175132
0.000165034
0.000194878
0.0001719
0.000197519
0.000176112
0.000184292
0.00018112
0.000166712
0.000190921
0.000147054
0.000200098
0.000125371
0.000191989
9.14084e-05
0.000159752
4.91966e-05
0.000106609
-2.36878e-06
4.93292e-05
-6.60966e-05
3.33793e-06
-0.00013328
-1.7319e-05
-0.000150241
-2.20094e-05
-0.000165646
-2.91993e-05
-0.000192388
-4.01749e-05
-0.000225583
-5.19791e-05
-0.000218092
-6.45907e-05
-0.000176638
-7.04933e-05
-0.000129501
-6.71315e-05
-9.05937e-05
-5.39302e-05
-5.77359e-05
-2.97439e-05
-3.61841e-05
-3.59414e-05
0.000178869
-2.59398e-05
0.000141687
-2.56882e-05
0.000107309
-2.80014e-05
8.53604e-05
-3.1112e-05
5.85195e-05
-3.5506e-05
2.90965e-05
-4.16381e-05
2.72692e-06
-4.87844e-05
-1.80873e-05
-5.51079e-05
-3.16338e-05
-6.12121e-05
-4.0978e-05
-6.63346e-05
-4.81549e-05
-6.93592e-05
-4.99554e-05
-6.62841e-05
-4.45587e-05
-5.3041e-05
-3.36913e-05
-3.98115e-05
-2.04853e-05
-3.85614e-05
-9.6544e-06
-3.99419e-05
4.45827e-07
-4.52554e-05
1.49188e-05
-5.56647e-05
4.14039e-05
-6.56735e-05
8.33399e-05
-7.47309e-05
0.000121543
-8.74085e-05
0.000147612
-0.000100607
0.000163456
-0.000105688
0.000163896
-9.80972e-05
0.0001364
-8.17916e-05
9.88929e-05
-7.73961e-05
7.81451e-05
-8.58271e-05
7.73143e-05
-9.26629e-05
7.66388e-05
-9.81141e-05
7.41331e-05
-0.000102241
6.9127e-05
-0.000102436
6.16669e-05
-0.000102305
5.466e-05
-0.000100648
4.82023e-05
-0.000104427
4.75355e-05
-0.000103754
4.18771e-05
-9.58713e-05
3.53582e-05
-8.16558e-05
3.00456e-05
-6.49638e-05
2.812e-05
-4.87275e-05
2.95254e-05
-3.42683e-05
3.33027e-05
-2.25001e-05
3.82923e-05
-1.39237e-05
4.37672e-05
-7.93465e-06
4.92681e-05
-3.58941e-06
5.61332e-05
5.74781e-07
6.63599e-05
4.19792e-06
7.81521e-05
7.41154e-06
9.00699e-05
1.02453e-05
9.96533e-05
1.26891e-05
0.000106183
1.47814e-05
0.000109541
1.65419e-05
0.000110804
1.80147e-05
0.00011118
1.90808e-05
0.000110956
1.96226e-05
0.000107608
1.92814e-05
0.000101182
1.7301e-05
8.4644e-05
1.5137e-05
5.87177e-05
1.49099e-05
4.4078e-05
1.61241e-05
3.5479e-05
1.87578e-05
2.57212e-05
2.4169e-05
1.53915e-05
3.49027e-05
7.59533e-06
4.6544e-05
-1.00642e-05
6.16805e-05
-3.18752e-05
7.7145e-05
-5.32014e-05
8.85365e-05
-7.20162e-05
9.17727e-05
-8.48686e-05
8.95006e-05
-8.83453e-05
8.30808e-05
-8.31103e-05
6.78088e-05
-6.57841e-05
4.65822e-05
-4.56915e-05
2.57887e-05
-3.35498e-05
1.44299e-05
-2.81028e-05
1.09882e-05
-3.32745e-05
1.02151e-05
-4.62707e-05
1.73779e-05
-6.4212e-05
3.32689e-05
-0.000119416
5.37522e-05
-0.000188534
6.93215e-05
-0.000235419
7.53503e-05
-0.000246002
7.27514e-05
-0.000237576
6.36719e-05
-0.000220784
4.94566e-05
-0.000191182
3.54234e-05
-0.000132754
3.2731e-05
-8.04241e-05
3.85478e-05
-3.00841e-05
4.93037e-05
1.50336e-05
6.32686e-05
5.63969e-05
8.4937e-05
9.32224e-05
0.000114865
0.000134605
0.000140119
0.00017269
0.000160791
0.000196625
0.000172755
0.000205841
0.000174189
0.000196924
0.000178299
0.000176619
0.000183966
0.000154507
0.000191132
0.000130749
0.000188139
9.9403e-05
0.000166737
6.21366e-05
0.000122235
1.78419e-05
6.68802e-05
-4.08258e-05
1.55897e-05
-0.000111624
-1.12318e-05
-0.000138745
-1.76135e-05
-0.000156754
-2.29823e-05
-0.000181121
-3.16381e-05
-0.000214595
-3.91155e-05
-0.000212104
-4.85304e-05
-0.00017581
-5.5664e-05
-0.000130531
-5.61266e-05
-8.98306e-05
-4.76084e-05
-5.31652e-05
-2.30495e-05
-3.42135e-05
-2.8828e-05
0.000192302
-1.82497e-05
0.000161746
-1.677e-05
0.000122308
-2.06456e-05
9.22599e-05
-2.60354e-05
6.32026e-05
-3.22931e-05
3.24701e-05
-3.90914e-05
5.2722e-06
-4.55782e-05
-1.60031e-05
-4.95912e-05
-2.97252e-05
-5.4856e-05
-3.87035e-05
-5.991e-05
-4.7044e-05
-6.40509e-05
-5.07999e-05
-6.53913e-05
-4.68069e-05
-6.03279e-05
-3.52211e-05
-4.53727e-05
-2.17202e-05
-3.84677e-05
-1.09779e-05
-4.01034e-05
-2.38579e-07
-4.37509e-05
1.15626e-05
-5.61952e-05
2.97003e-05
-7.08978e-05
6.38996e-05
-8.17846e-05
0.000102958
-9.26846e-05
0.000132512
-0.000101869
0.000150911
-9.9763e-05
0.000150805
-8.40663e-05
0.000120594
-7.11707e-05
8.81001e-05
-7.64408e-05
7.85006e-05
-8.49239e-05
7.9021e-05
-9.28364e-05
7.7833e-05
-0.000100368
7.50986e-05
-0.000103756
6.87956e-05
-0.000109181
6.44363e-05
-0.000123886
6.64128e-05
-0.000148913
6.86915e-05
-0.000161592
5.87368e-05
-0.000157559
4.49142e-05
-0.000140809
3.26628e-05
-0.000115387
2.4737e-05
-8.7574e-05
2.36796e-05
-5.98873e-05
2.77089e-05
-3.41905e-05
3.69361e-05
-1.53115e-05
4.89732e-05
-4.70258e-06
6.02929e-05
9.84673e-07
6.57129e-05
4.58594e-06
7.01342e-05
6.59417e-06
7.48766e-05
9.18807e-06
8.27297e-05
1.15996e-05
9.31918e-05
1.37374e-05
0.000102775
1.54119e-05
0.000110144
1.66193e-05
0.000114274
1.74889e-05
0.000115877
1.81189e-05
0.000116324
1.83694e-05
0.00011542
1.8259e-05
0.000111264
1.71036e-05
0.000102834
1.45185e-05
8.12728e-05
1.30084e-05
5.55575e-05
1.31648e-05
4.3517e-05
1.45155e-05
3.5526e-05
1.72451e-05
2.58816e-05
2.35778e-05
1.83041e-05
3.26165e-05
8.17007e-06
4.27918e-05
-1.11674e-05
5.67468e-05
-3.12357e-05
7.23098e-05
-5.05315e-05
8.32589e-05
-6.85785e-05
8.51958e-05
-7.90023e-05
8.14133e-05
-8.04048e-05
7.16382e-05
-7.28971e-05
5.61638e-05
-5.37888e-05
3.98827e-05
-3.51979e-05
2.35641e-05
-2.53258e-05
1.3935e-05
-2.3259e-05
1.11895e-05
-3.00918e-05
1.0609e-05
-4.37942e-05
1.94893e-05
-6.6156e-05
3.74697e-05
-0.000132522
5.76467e-05
-0.000197952
7.26336e-05
-0.000234114
7.78424e-05
-0.000239834
7.52595e-05
-0.000228656
6.72564e-05
-0.000210504
5.11321e-05
-0.000175786
3.67564e-05
-0.000116638
3.35954e-05
-7.38246e-05
3.81401e-05
-3.03991e-05
4.80567e-05
1.27417e-05
6.09909e-05
5.37032e-05
7.82905e-05
9.07274e-05
0.000106729
0.000129027
0.000132531
0.000168869
0.000153299
0.000195786
0.000169479
0.000208106
0.000172918
0.000205437
0.000173754
0.000185653
0.00017823
0.000160535
0.000182657
0.00013522
0.000180249
0.000105861
0.000164273
7.29086e-05
0.000128749
3.51599e-05
7.82393e-05
-1.73699e-05
2.75848e-05
-8.83866e-05
-3.74395e-06
-0.000126565
-1.26659e-05
-0.000146198
-1.77207e-05
-0.000167744
-2.52216e-05
-0.000203845
-3.00306e-05
-0.000203004
-3.57625e-05
-0.000170538
-4.25287e-05
-0.000127714
-4.57228e-05
-8.66694e-05
-4.12246e-05
-4.7477e-05
-1.65467e-05
-3.26697e-05
-2.18613e-05
0.00020071
-1.28778e-05
0.000179624
-1.01082e-05
0.000143145
-1.3593e-05
0.000102411
-2.04618e-05
7.10064e-05
-2.83418e-05
3.93958e-05
-3.64814e-05
1.16971e-05
-4.272e-05
-1.07938e-05
-4.46657e-05
-2.5777e-05
-4.73509e-05
-3.52172e-05
-5.15035e-05
-4.42495e-05
-5.66134e-05
-4.97338e-05
-5.86858e-05
-4.82874e-05
-5.87328e-05
-3.63736e-05
-5.1557e-05
-2.0904e-05
-3.9113e-05
-8.49394e-06
-3.7645e-05
1.30166e-07
-4.02125e-05
1.02088e-05
-4.61319e-05
2.36119e-05
-5.96517e-05
4.46364e-05
-7.32391e-05
7.48603e-05
-8.29576e-05
0.000101814
-8.8956e-05
0.000120755
-8.15777e-05
0.000120212
-6.67543e-05
9.75157e-05
-6.47525e-05
8.32777e-05
-7.2152e-05
8.12755e-05
-8.05446e-05
8.11093e-05
-8.93715e-05
7.97085e-05
-9.79042e-05
7.73377e-05
-0.000114112
7.82106e-05
-0.000151166
9.21814e-05
-0.000203493
9.79533e-05
-0.000241246
9.10394e-05
-0.000251149
6.17541e-05
-0.00024004
3.63048e-05
-0.000206493
1.73377e-05
-0.000163227
7.99e-06
-0.000114948
4.3495e-06
-6.7376e-05
1.19899e-05
-2.71593e-05
2.83004e-05
-1.34834e-06
5.3405e-05
1.15658e-05
7.67978e-05
1.52276e-05
8.79787e-05
1.51345e-05
9.33515e-05
1.46961e-05
9.48468e-05
1.49964e-05
9.59301e-05
1.57367e-05
9.99579e-05
1.70013e-05
0.000106953
1.79462e-05
0.000113691
1.83824e-05
0.00011835
1.84088e-05
0.000120602
1.81898e-05
0.000121045
1.77321e-05
0.000119438
1.69642e-05
0.000114857
1.5214e-05
0.000104245
1.24727e-05
7.81262e-05
1.14205e-05
5.40748e-05
1.1812e-05
4.37223e-05
1.32573e-05
3.58108e-05
1.61617e-05
2.66043e-05
2.28309e-05
2.14964e-05
3.08068e-05
7.21501e-06
3.93641e-05
-1.29927e-05
5.17246e-05
-3.07385e-05
6.72804e-05
-4.90361e-05
7.63829e-05
-6.45449e-05
7.59828e-05
-7.17725e-05
7.01995e-05
-7.07012e-05
5.58514e-05
-6.10931e-05
4.38853e-05
-4.186e-05
3.31041e-05
-2.5947e-05
2.09236e-05
-1.86688e-05
1.32803e-05
-1.95024e-05
1.13893e-05
-2.73496e-05
1.11332e-05
-4.15987e-05
2.23127e-05
-7.35129e-05
4.10055e-05
-0.000140871
6.07403e-05
-0.000196716
7.45595e-05
-0.000228876
7.88667e-05
-0.000232791
7.6138e-05
-0.000220031
6.81258e-05
-0.000199926
5.07032e-05
-0.000159848
3.77234e-05
-0.000102832
3.49444e-05
-6.81396e-05
3.82717e-05
-3.11691e-05
4.66359e-05
9.65978e-06
5.80541e-05
5.0155e-05
7.27156e-05
8.81971e-05
9.82104e-05
0.000124875
0.000123379
0.000164798
0.000143807
0.00019341
0.00016087
0.000207851
0.000169903
0.000209865
0.000169336
0.000193441
0.000171281
0.000166798
0.000173532
0.000140091
0.000171043
0.000112311
0.000159134
8.27974e-05
0.000130161
4.98096e-05
8.44908e-05
2.67941e-06
3.65692e-05
-6.76871e-05
3.37954e-06
-0.000112782
-7.90982e-06
-0.000134048
-1.39569e-05
-0.000153535
-2.12224e-05
-0.000193285
-2.47855e-05
-0.000192833
-2.73969e-05
-0.00016242
-3.29246e-05
-0.000121809
-3.70634e-05
-8.06402e-05
-3.53467e-05
-4.11389e-05
-1.08037e-05
-3.19809e-05
-1.53404e-05
0.00020357
-8.70921e-06
0.000194669
-6.12241e-06
0.000164055
-7.81843e-06
0.000123012
-1.41622e-05
8.21382e-05
-2.30553e-05
5.01662e-05
-3.23712e-05
2.18469e-05
-3.98194e-05
-1.43725e-06
-4.13459e-05
-1.98393e-05
-4.10778e-05
-3.1711e-05
-4.35007e-05
-4.11353e-05
-4.74513e-05
-4.7612e-05
-5.05496e-05
-4.88295e-05
-5.06316e-05
-3.91278e-05
-5.03163e-05
-1.97379e-05
-4.27441e-05
-5.08615e-06
-3.46995e-05
4.18997e-06
-3.59671e-05
1.02588e-05
-3.94145e-05
2.13216e-05
-4.63353e-05
3.62274e-05
-5.55006e-05
5.67845e-05
-6.25177e-05
7.71041e-05
-6.67865e-05
9.26904e-05
-6.21169e-05
9.62846e-05
-5.62148e-05
8.62925e-05
-6.03257e-05
8.40046e-05
-6.72307e-05
8.45835e-05
-7.4876e-05
8.3823e-05
-8.69492e-05
8.535e-05
-0.000112948
9.35174e-05
-0.000168588
0.000118695
-0.000257016
0.000140008
-0.000329549
0.000132733
-0.000364811
9.9041e-05
-0.000356353
5.5973e-05
-0.000316315
2.64511e-05
-0.000258378
2.01516e-06
-0.000187112
-1.15795e-05
-0.000116183
-1.80888e-05
-5.91774e-05
-8.42911e-06
-1.54273e-05
1.16837e-05
1.40504e-05
4.43766e-05
2.63781e-05
8.33526e-05
2.8808e-05
0.0001046
2.70412e-05
0.000115583
2.39726e-05
0.000118563
2.12373e-05
0.000116647
2.02235e-05
0.000114188
1.97028e-05
0.000114576
1.99077e-05
0.000118195
1.96835e-05
0.000122103
1.90248e-05
0.000124669
1.81154e-05
0.000125163
1.70727e-05
0.00012323
1.57628e-05
0.000118009
1.35829e-05
0.000105221
1.09803e-05
7.56799e-05
1.02247e-05
5.35638e-05
1.07747e-05
4.42741e-05
1.23215e-05
3.62132e-05
1.5493e-05
2.85312e-05
2.24233e-05
2.3328e-05
2.91597e-05
4.90718e-06
3.5884e-05
-1.46969e-05
4.7168e-05
-3.14911e-05
6.09578e-05
-4.83601e-05
6.72734e-05
-6.10596e-05
6.56137e-05
-6.57906e-05
5.803e-05
-6.25726e-05
4.0818e-05
-5.17912e-05
3.331e-05
-3.23763e-05
2.68176e-05
-1.83572e-05
1.83205e-05
-1.35693e-05
1.25384e-05
-1.673e-05
1.14189e-05
-2.52532e-05
1.25238e-05
-4.07347e-05
2.45017e-05
-8.05094e-05
4.31846e-05
-0.000139328
6.28789e-05
-0.00019211
7.58767e-05
-0.000223491
7.90018e-05
-0.000226057
7.57578e-05
-0.000212055
6.71259e-05
-0.000189375
4.84348e-05
-0.000143848
3.82212e-05
-9.20848e-05
3.61642e-05
-6.30299e-05
3.86774e-05
-3.15487e-05
4.53745e-05
6.48258e-06
5.48778e-05
4.66777e-05
6.74268e-05
8.52431e-05
9.00561e-05
0.000121593
0.000113405
0.000161382
0.000132638
0.000190701
0.000149459
0.00020645
0.00016241
0.000210812
0.000163624
0.000198687
0.000164461
0.000171999
0.000165768
0.000145378
0.000163856
0.000119406
0.000154074
9.27608e-05
0.000128809
6.29804e-05
8.55052e-05
1.86105e-05
4.08872e-05
-5.05834e-05
7.96952e-06
-9.75415e-05
-4.41784e-06
-0.000120649
-1.17319e-05
-0.00013931
-1.9783e-05
-0.000181547
-2.32843e-05
-0.00018185
-2.39001e-05
-0.000152045
-2.74135e-05
-0.000113329
-3.10543e-05
-7.23093e-05
-3.0136e-05
-3.46433e-05
-6.67464e-06
-3.21118e-05
-8.88381e-06
0.000202591
-3.96026e-06
0.000202942
-2.62057e-06
0.000183511
-4.21154e-06
0.000147317
-8.82638e-06
0.000102219
-1.65588e-05
6.41375e-05
-2.64951e-05
3.57938e-05
-3.53749e-05
1.18329e-05
-3.88367e-05
-1.05334e-05
-3.6885e-05
-2.71908e-05
-3.76317e-05
-3.7834e-05
-3.81832e-05
-4.63218e-05
-4.11857e-05
-4.76092e-05
-4.07972e-05
-4.24249e-05
-4.17818e-05
-2.09416e-05
-4.08686e-05
-1.85956e-06
-3.45641e-05
1.04968e-05
-3.05913e-05
1.43196e-05
-3.34879e-05
2.1058e-05
-3.71691e-05
3.28497e-05
-4.22835e-05
4.78237e-05
-4.69852e-05
6.36174e-05
-5.01157e-05
7.66871e-05
-4.95122e-05
8.301e-05
-5.08263e-05
8.30462e-05
-5.53811e-05
8.54934e-05
-6.15685e-05
8.75881e-05
-7.22639e-05
9.0402e-05
-9.73282e-05
0.000105183
-0.000159382
0.000139301
-0.000276842
0.000179797
-0.000395864
0.000190182
-0.000457713
0.000156051
-0.000461675
0.000108101
-0.000419275
6.17631e-05
-0.000340939
2.27151e-05
-0.00024785
8.26992e-07
-0.000146216
-6.8076e-06
-7.63166e-05
-1.30869e-05
-3.62521e-05
-1.15236e-05
-1.23315e-05
1.41032e-06
1.08719e-05
3.10593e-05
2.84648e-05
8.16204e-05
3.23656e-05
0.000114452
3.27352e-05
0.000130545
3.05611e-05
0.000137967
2.72564e-05
0.000137416
2.42104e-05
0.000132396
2.23508e-05
0.000127514
2.12311e-05
0.000125357
2.03413e-05
0.000126418
1.91558e-05
0.000128333
1.77891e-05
0.000128743
1.62037e-05
0.000126426
1.43084e-05
0.000120468
1.2062e-05
0.000105361
9.88365e-06
7.35694e-05
9.36579e-06
5.35851e-05
1.00364e-05
4.48726e-05