/*--------------------------------*- C++ -*----------------------------------*\
  =========                 |
  \\      /  F ield         | OpenFOAM: The Open Source CFD Toolbox
   \\    /   O peration     | Website:  https://openfoam.org
    \\  /    A nd           | Version:  10
     \\/     M anipulation  |
\*---------------------------------------------------------------------------*/
FoamFile
{
    format      ascii;
    class       volVectorField;
    location    "0.499568";
    object      U;
}
// * * * * * * * * * * * * * * * * * * * * * * * * * * * * * * * * * * * * * //

dimensions      [0 1 -1 0 0 0 0];

internalField   nonuniform List<vector> 
16320
(
(-0.174967 0.162836 0)
(-0.158342 0.121022 0)
(-0.154943 0.0927071 0)
(-0.14116 0.0815487 0)
(-0.124769 0.0685453 0)
(-0.102522 0.0495177 0)
(-0.0806582 0.0283024 0)
(-0.0576334 0.0139465 0)
(-0.0384542 0.00588627 0)
(-0.0280611 0.000660931 0)
(-0.0232087 -0.00120683 0)
(-0.0153775 0.00644366 0)
(-0.00850848 0.0203692 0)
(0.00617094 0.0558659 0)
(0.0473434 0.129646 0)
(0.0879907 0.209313 0)
(0.107605 0.270774 0)
(0.0987448 0.331969 0)
(0.0714712 0.388873 0)
(0.00885595 0.461383 0)
(-0.0952799 0.544346 0)
(-0.208011 0.616271 0)
(-0.308905 0.659986 0)
(-0.392164 0.673822 0)
(-0.454237 0.65992 0)
(-0.509693 0.643943 0)
(-0.554225 0.635111 0)
(-0.576751 0.628465 0)
(-0.5977 0.629617 0)
(-0.613528 0.625093 0)
(-0.621257 0.614984 0)
(-0.620522 0.600132 0)
(-0.611102 0.582414 0)
(-0.593129 0.563851 0)
(-0.566963 0.545987 0)
(-0.533296 0.52993 0)
(-0.492965 0.516439 0)
(-0.447123 0.505857 0)
(-0.397137 0.498485 0)
(-0.34499 0.493812 0)
(-0.292034 0.491126 0)
(-0.239069 0.490102 0)
(-0.187788 0.490096 0)
(-0.139014 0.4907 0)
(-0.093514 0.492271 0)
(-0.0527376 0.495416 0)
(-0.0194268 0.501265 0)
(0.00694416 0.508294 0)
(0.0317139 0.509969 0)
(0.0554507 0.505199 0)
(0.0764158 0.493694 0)
(0.0958282 0.474887 0)
(0.113675 0.450887 0)
(0.129836 0.423342 0)
(0.143233 0.394316 0)
(0.152464 0.366054 0)
(0.158383 0.340535 0)
(0.161201 0.316755 0)
(0.16574 0.293382 0)
(0.170123 0.261233 0)
(0.173704 0.207219 0)
(0.185053 0.143662 0)
(0.198092 0.0643568 0)
(0.215902 -0.00940028 0)
(0.230708 -0.0667261 0)
(0.237747 -0.112578 0)
(0.240724 -0.150091 0)
(0.239873 -0.17973 0)
(0.237056 -0.200954 0)
(0.235674 -0.216425 0)
(0.230766 -0.240019 0)
(0.205589 -0.27059 0)
(0.169176 -0.306899 0)
(0.156677 -0.362257 0)
(0.16326 -0.444781 0)
(0.163004 -0.547522 0)
(0.1297 -0.576031 0)
(0.108005 -0.495376 0)
(0.0984036 -0.444761 0)
(0.0785715 -0.420202 0)
(0.0456481 -0.399453 0)
(0.00302486 -0.367451 0)
(-0.031323 -0.326172 0)
(-0.0414679 -0.288697 0)
(-0.0316439 -0.250382 0)
(-0.0165892 -0.194118 0)
(0.000235305 -0.127015 0)
(0.0210146 -0.0474657 0)
(0.0475024 0.0254701 0)
(0.0862355 0.0954499 0)
(0.135321 0.151527 0)
(0.179226 0.184168 0)
(0.217598 0.192361 0)
(0.239571 0.176709 0)
(0.245547 0.134541 0)
(0.247579 0.0828713 0)
(0.25302 0.0298106 0)
(0.247801 -0.0165444 0)
(0.20114 -0.0619081 0)
(0.136504 -0.137621 0)
(0.0720212 -0.244319 0)
(-0.00676538 -0.391462 0)
(-0.0729533 -0.524412 0)
(-0.0883821 -0.544794 0)
(-0.0951177 -0.474722 0)
(-0.128578 -0.37422 0)
(-0.172859 -0.284733 0)
(-0.206512 -0.216793 0)
(-0.213309 -0.175496 0)
(-0.196484 -0.154519 0)
(-0.172282 -0.143472 0)
(-0.147708 -0.135642 0)
(-0.119196 -0.124024 0)
(-0.162941 0.182533 0)
(-0.152843 0.149887 0)
(-0.1569 0.126783 0)
(-0.148832 0.108708 0)
(-0.13715 0.0866954 0)
(-0.122805 0.0578301 0)
(-0.1116 0.0280605 0)
(-0.102905 0.00351963 0)
(-0.0960953 -0.0110743 0)
(-0.0920467 -0.0205251 0)
(-0.0891805 -0.0241963 0)
(-0.0868354 -0.0230636 0)
(-0.0820032 -0.0135328 0)
(-0.0748032 0.00753631 0)
(-0.047263 0.058859 0)
(0.00488893 0.149689 0)
(0.0487366 0.240678 0)
(0.0688446 0.310381 0)
(0.0622837 0.368846 0)
(0.0249492 0.425362 0)
(-0.0582382 0.494353 0)
(-0.167849 0.565897 0)
(-0.281006 0.621913 0)
(-0.377526 0.650695 0)
(-0.454253 0.65294 0)
(-0.512289 0.636734 0)
(-0.558324 0.631026 0)
(-0.59391 0.633301 0)
(-0.624221 0.63521 0)
(-0.649521 0.630105 0)
(-0.661448 0.616151 0)
(-0.662129 0.595637 0)
(-0.652093 0.571129 0)
(-0.631984 0.545279 0)
(-0.602649 0.520222 0)
(-0.565117 0.497466 0)
(-0.520663 0.478128 0)
(-0.47065 0.462857 0)
(-0.416737 0.452307 0)
(-0.361361 0.445946 0)
(-0.305759 0.443203 0)
(-0.250745 0.443632 0)
(-0.198028 0.446611 0)
(-0.148608 0.451593 0)
(-0.103294 0.458309 0)
(-0.0634317 0.467798 0)
(-0.0316616 0.480086 0)
(-0.00566411 0.491068 0)
(0.0185366 0.497165 0)
(0.0417629 0.495474 0)
(0.0632151 0.486441 0)
(0.0826965 0.469715 0)
(0.100193 0.447861 0)
(0.115658 0.422867 0)
(0.127986 0.396711 0)
(0.136335 0.371257 0)
(0.141446 0.346867 0)
(0.144913 0.323883 0)
(0.151729 0.299105 0)
(0.156101 0.256843 0)
(0.163694 0.201664 0)
(0.18001 0.132849 0)
(0.194729 0.048987 0)
(0.212738 -0.0207472 0)
(0.226643 -0.0734605 0)
(0.233568 -0.116851 0)
(0.236636 -0.152887 0)
(0.234973 -0.180866 0)
(0.230735 -0.199559 0)
(0.227691 -0.210252 0)
(0.225069 -0.225166 0)
(0.204378 -0.251017 0)
(0.163671 -0.289259 0)
(0.14509 -0.358333 0)
(0.149419 -0.447227 0)
(0.136158 -0.550908 0)
(0.107699 -0.560601 0)
(0.0985418 -0.479348 0)
(0.0945598 -0.434878 0)
(0.0847233 -0.413947 0)
(0.0643775 -0.396816 0)
(0.0327101 -0.368808 0)
(-0.000288257 -0.327848 0)
(-0.0167071 -0.283653 0)
(-0.00979984 -0.241977 0)
(0.00408603 -0.184108 0)
(0.0214237 -0.111086 0)
(0.0413427 -0.0330826 0)
(0.0681693 0.0384107 0)
(0.0982407 0.105546 0)
(0.145774 0.166985 0)
(0.193147 0.20611 0)
(0.236333 0.221324 0)
(0.265864 0.212697 0)
(0.274507 0.178774 0)
(0.273589 0.126624 0)
(0.270184 0.072557 0)
(0.260236 0.0204604 0)
(0.217828 -0.0221329 0)
(0.152651 -0.090411 0)
(0.0904996 -0.196934 0)
(0.0121635 -0.346759 0)
(-0.0744467 -0.525472 0)
(-0.0953483 -0.579385 0)
(-0.0888783 -0.519083 0)
(-0.108692 -0.415477 0)
(-0.141725 -0.326993 0)
(-0.176891 -0.254314 0)
(-0.196335 -0.200992 0)
(-0.191277 -0.169245 0)
(-0.173354 -0.151391 0)
(-0.152474 -0.140172 0)
(-0.125041 -0.12685 0)
(-0.150151 0.205352 0)
(-0.141939 0.180302 0)
(-0.147844 0.158922 0)
(-0.14301 0.135061 0)
(-0.134158 0.104962 0)
(-0.126055 0.0681567 0)
(-0.124102 0.0302021 0)
(-0.128318 -0.00414955 0)
(-0.136063 -0.0309386 0)
(-0.143366 -0.0489982 0)
(-0.146639 -0.0551801 0)
(-0.14652 -0.0543581 0)
(-0.142021 -0.0467312 0)
(-0.135632 -0.0327191 0)
(-0.122016 0.00254277 0)
(-0.0813797 0.0751089 0)
(-0.0245241 0.183473 0)
(0.0136543 0.279188 0)
(0.0281047 0.349681 0)
(0.0130353 0.403105 0)
(-0.0420945 0.456513 0)
(-0.135101 0.515497 0)
(-0.247234 0.573317 0)
(-0.35363 0.613114 0)
(-0.441706 0.629994 0)
(-0.508942 0.631727 0)
(-0.559215 0.631214 0)
(-0.607014 0.639898 0)
(-0.654772 0.642546 0)
(-0.688499 0.634965 0)
(-0.705831 0.616439 0)
(-0.708722 0.589648 0)
(-0.698524 0.557587 0)
(-0.676256 0.523793 0)
(-0.643275 0.490886 0)
(-0.601093 0.460877 0)
(-0.551375 0.435105 0)
(-0.495654 0.414927 0)
(-0.436152 0.401189 0)
(-0.375835 0.393371 0)
(-0.315887 0.390606 0)
(-0.257092 0.392492 0)
(-0.201599 0.39876 0)
(-0.150954 0.409029 0)
(-0.105928 0.422666 0)
(-0.067521 0.439612 0)
(-0.0372648 0.458563 0)
(-0.011543 0.474012 0)
(0.0116891 0.48374 0)
(0.0337544 0.485577 0)
(0.0547168 0.4792 0)
(0.0734258 0.464861 0)
(0.0898026 0.445464 0)
(0.103828 0.423212 0)
(0.114352 0.399642 0)
(0.12151 0.375583 0)
(0.125868 0.351967 0)
(0.130992 0.32919 0)
(0.137552 0.29964 0)
(0.142474 0.249652 0)
(0.155261 0.193772 0)
(0.173319 0.119057 0)
(0.188097 0.0325225 0)
(0.205208 -0.0297641 0)
(0.217679 -0.0791224 0)
(0.223933 -0.120722 0)
(0.226985 -0.15507 0)
(0.226247 -0.181141 0)
(0.222694 -0.197098 0)
(0.219418 -0.203625 0)
(0.21826 -0.20978 0)
(0.203921 -0.230196 0)
(0.165608 -0.265466 0)
(0.136503 -0.3439 0)
(0.134666 -0.439063 0)
(0.108241 -0.545265 0)
(0.0922 -0.535327 0)
(0.0929385 -0.462263 0)
(0.0919995 -0.424676 0)
(0.0893637 -0.407726 0)
(0.0791155 -0.393869 0)
(0.0576849 -0.370238 0)
(0.030183 -0.332874 0)
(0.0100354 -0.28598 0)
(0.0107663 -0.237471 0)
(0.0229866 -0.174952 0)
(0.0396854 -0.0926367 0)
(0.0626251 -0.0131381 0)
(0.086759 0.0535894 0)
(0.112646 0.120781 0)
(0.153863 0.18234 0)
(0.200441 0.227506 0)
(0.247105 0.251216 0)
(0.284246 0.250699 0)
(0.299134 0.225085 0)
(0.298712 0.178326 0)
(0.292002 0.124607 0)
(0.278441 0.0699528 0)
(0.2466 0.0173779 0)
(0.188169 -0.0470844 0)
(0.122584 -0.149521 0)
(0.0423333 -0.293664 0)
(-0.0607242 -0.498843 0)
(-0.100772 -0.602806 0)
(-0.0875137 -0.560506 0)
(-0.0946436 -0.449712 0)
(-0.116736 -0.35724 0)
(-0.145075 -0.282729 0)
(-0.171232 -0.221864 0)
(-0.178762 -0.180095 0)
(-0.170767 -0.154213 0)
(-0.155375 -0.139055 0)
(-0.131348 -0.123101 0)
(-0.133157 0.229207 0)
(-0.1244 0.209542 0)
(-0.131008 0.187499 0)
(-0.127808 0.158978 0)
(-0.121876 0.11992 0)
(-0.118452 0.0744157 0)
(-0.122728 0.028505 0)
(-0.13577 -0.0132838 0)
(-0.154694 -0.0482987 0)
(-0.172317 -0.0741376 0)
(-0.183979 -0.0885417 0)
(-0.189124 -0.0880628 0)
(-0.186476 -0.0787446 0)
(-0.179996 -0.0654417 0)
(-0.173964 -0.0395368 0)
(-0.150985 0.0186774 0)
(-0.100846 0.113668 0)
(-0.052298 0.229625 0)
(-0.02583 0.322581 0)
(-0.0270486 0.386268 0)
(-0.0575753 0.430824 0)
(-0.123223 0.473706 0)
(-0.221403 0.52254 0)
(-0.32811 0.566748 0)
(-0.42386 0.59674 0)
(-0.499401 0.612599 0)
(-0.558803 0.622526 0)
(-0.622953 0.642616 0)
(-0.687676 0.648171 0)
(-0.731601 0.638613 0)
(-0.754353 0.61554 0)
(-0.760394 0.581912 0)
(-0.750414 0.54149 0)
(-0.725599 0.49876 0)
(-0.688111 0.457313 0)
(-0.640059 0.419229 0)
(-0.58332 0.387204 0)
(-0.519696 0.361953 0)
(-0.452509 0.344647 0)
(-0.385732 0.335377 0)
(-0.320231 0.332947 0)
(-0.256615 0.337011 0)
(-0.197259 0.347289 0)
(-0.14473 0.363284 0)
(-0.100445 0.385007 0)
(-0.0644869 0.411572 0)
(-0.0352402 0.436935 0)
(-0.0105356 0.457305 0)
(0.0111719 0.470639 0)
(0.0314895 0.476143 0)
(0.0507702 0.47257 0)
(0.0677123 0.460901 0)
(0.0821223 0.444156 0)
(0.093964 0.424423 0)
(0.102469 0.402831 0)
(0.108021 0.379692 0)
(0.111804 0.356783 0)
(0.118435 0.33236 0)
(0.123559 0.294 0)
(0.130638 0.243423 0)
(0.146274 0.185162 0)
(0.163174 0.105866 0)
(0.178494 0.0209176 0)
(0.193368 -0.0350668 0)
(0.20228 -0.0826184 0)
(0.208698 -0.123253 0)
(0.213359 -0.15631 0)
(0.214496 -0.180649 0)
(0.212203 -0.194628 0)
(0.209511 -0.197554 0)
(0.208699 -0.195684 0)
(0.200901 -0.207236 0)
(0.170475 -0.24105 0)
(0.133272 -0.322243 0)
(0.121618 -0.421258 0)
(0.0906559 -0.528328 0)
(0.0841302 -0.508489 0)
(0.0888189 -0.44774 0)
(0.090623 -0.415671 0)
(0.0933126 -0.40086 0)
(0.0905937 -0.389276 0)
(0.0777444 -0.369825 0)
(0.0567587 -0.337456 0)
(0.0365943 -0.292834 0)
(0.0300595 -0.237685 0)
(0.0378713 -0.170112 0)
(0.0539012 -0.0776761 0)
(0.0798871 0.00751699 0)
(0.104918 0.0761129 0)
(0.127666 0.138468 0)
(0.162456 0.198287 0)
(0.205956 0.246983 0)
(0.252572 0.278397 0)
(0.294263 0.286905 0)
(0.317973 0.270149 0)
(0.321883 0.231558 0)
(0.316853 0.177406 0)
(0.306823 0.122077 0)
(0.284472 0.0612168 0)
(0.23558 -0.00765024 0)
(0.163886 -0.104952 0)
(0.0812789 -0.243149 0)
(-0.0232779 -0.439638 0)
(-0.102236 -0.610001 0)
(-0.0879796 -0.596601 0)
(-0.0838566 -0.479622 0)
(-0.0984837 -0.377157 0)
(-0.116141 -0.301803 0)
(-0.141672 -0.237576 0)
(-0.158229 -0.188224 0)
(-0.16066 -0.153788 0)
(-0.152393 -0.132013 0)
(-0.133433 -0.112209 0)
(-0.112845 0.251509 0)
(-0.102863 0.238467 0)
(-0.108867 0.213228 0)
(-0.108761 0.178218 0)
(-0.106567 0.130584 0)
(-0.107689 0.0759711 0)
(-0.116659 0.020974 0)
(-0.135858 -0.0276374 0)
(-0.159944 -0.0670163 0)
(-0.18173 -0.0940511 0)
(-0.198802 -0.112078 0)
(-0.20896 -0.116598 0)
(-0.212418 -0.106277 0)
(-0.209433 -0.0906869 0)
(-0.206386 -0.0683797 0)
(-0.20054 -0.0220402 0)
(-0.168909 0.0621463 0)
(-0.120892 0.17683 0)
(-0.0908952 0.286059 0)
(-0.0843035 0.363534 0)
(-0.0971391 0.410708 0)
(-0.138166 0.444274 0)
(-0.212905 0.480439 0)
(-0.307207 0.519222 0)
(-0.402373 0.554484 0)
(-0.487151 0.583177 0)
(-0.55371 0.61143 0)
(-0.634472 0.636044 0)
(-0.723076 0.64811 0)
(-0.775557 0.640548 0)
(-0.805221 0.613709 0)
(-0.814979 0.57271 0)
(-0.804928 0.523345 0)
(-0.776081 0.470176 0)
(-0.731861 0.421641 0)
(-0.675106 0.37441 0)
(-0.608608 0.331752 0)
(-0.53581 0.297521 0)
(-0.459706 0.275086 0)
(-0.385198 0.26621 0)
(-0.314192 0.268247 0)
(-0.246827 0.279527 0)
(-0.185481 0.298356 0)
(-0.13209 0.323542 0)
(-0.0872623 0.354097 0)
(-0.0526769 0.387438 0)
(-0.0254415 0.417401 0)
(-0.00291253 0.441973 0)
(0.0165285 0.459097 0)
(0.0344157 0.467896 0)
(0.0507872 0.467121 0)
(0.0650745 0.458279 0)
(0.0767954 0.444228 0)
(0.0859964 0.426714 0)
(0.092387 0.406545 0)
(0.0962113 0.384085 0)
(0.100247 0.361339 0)
(0.105809 0.331684 0)
(0.110024 0.286582 0)
(0.120737 0.238891 0)
(0.13566 0.17704 0)
(0.150302 0.095635 0)
(0.164105 0.0164281 0)
(0.175723 -0.0376676 0)
(0.183154 -0.0848456 0)
(0.191652 -0.12575 0)
(0.198725 -0.158303 0)
(0.201518 -0.180598 0)
(0.200202 -0.192208 0)
(0.198534 -0.191742 0)
(0.198021 -0.183389 0)
(0.193458 -0.183934 0)
(0.171088 -0.213941 0)
(0.137204 -0.292006 0)
(0.115627 -0.394217 0)
(0.0841278 -0.502955 0)
(0.0810459 -0.487482 0)
(0.0867031 -0.435292 0)
(0.0910922 -0.405512 0)
(0.0972035 -0.392249 0)
(0.0990034 -0.382502 0)
(0.0924718 -0.366275 0)
(0.0781871 -0.339835 0)
(0.0603632 -0.300168 0)
(0.0481711 -0.242889 0)
(0.0487553 -0.1685 0)
(0.061927 -0.0689744 0)
(0.0906547 0.0237164 0)
(0.11851 0.103627 0)
(0.143623 0.159279 0)
(0.172654 0.216377 0)
(0.211336 0.265943 0)
(0.255576 0.300951 0)
(0.298611 0.318214 0)
(0.329937 0.31063 0)
(0.340357 0.279053 0)
(0.3389 0.228215 0)
(0.333905 0.170119 0)
(0.319119 0.105363 0)
(0.281114 0.0310762 0)
(0.207671 -0.0628211 0)
(0.12409 -0.192119 0)
(0.0290435 -0.368244 0)
(-0.0913052 -0.591999 0)
(-0.0847464 -0.621257 0)
(-0.0732345 -0.504477 0)
(-0.0837708 -0.390284 0)
(-0.0931047 -0.313178 0)
(-0.11261 -0.248424 0)
(-0.132665 -0.194628 0)
(-0.142839 -0.153392 0)
(-0.142349 -0.124233 0)
(-0.130104 -0.0985031 0)
(-0.0929755 0.270818 0)
(-0.0806197 0.265442 0)
(-0.0834836 0.236703 0)
(-0.0891513 0.195048 0)
(-0.0908055 0.139258 0)
(-0.0973246 0.0750306 0)
(-0.111053 0.0116578 0)
(-0.133675 -0.0421636 0)
(-0.158918 -0.0834167 0)
(-0.181099 -0.111392 0)
(-0.199137 -0.12961 0)
(-0.210754 -0.133052 0)
(-0.217266 -0.123625 0)
(-0.220327 -0.105174 0)
(-0.222425 -0.0850892 0)
(-0.229682 -0.0469165 0)
(-0.221 0.0253582 0)
(-0.187084 0.13115 0)
(-0.157892 0.249184 0)
(-0.148263 0.338365 0)
(-0.151143 0.39248 0)
(-0.173306 0.42597 0)
(-0.227836 0.457884 0)
(-0.303517 0.490483 0)
(-0.385839 0.525418 0)
(-0.46391 0.561266 0)
(-0.543198 0.59653 0)
(-0.648376 0.6232 0)
(-0.746779 0.645823 0)
(-0.812321 0.641272 0)
(-0.850582 0.608655 0)
(-0.863519 0.560562 0)
(-0.851084 0.501227 0)
(-0.811303 0.434746 0)
(-0.755518 0.364216 0)
(-0.689186 0.29355 0)
(-0.611019 0.238581 0)
(-0.52479 0.200612 0)
(-0.436429 0.182308 0)
(-0.353986 0.180621 0)
(-0.281011 0.191733 0)
(-0.215198 0.213707 0)
(-0.156945 0.245081 0)
(-0.106655 0.283536 0)
(-0.0654551 0.32503 0)
(-0.0339306 0.365026 0)
(-0.00915761 0.400174 0)
(0.0105391 0.429121 0)
(0.0268514 0.449753 0)
(0.0412872 0.461308 0)
(0.054025 0.463283 0)
(0.0649709 0.457232 0)
(0.0734958 0.445711 0)
(0.0797798 0.430143 0)
(0.0838875 0.410835 0)
(0.0861874 0.389172 0)
(0.0899693 0.364475 0)
(0.0934184 0.327078 0)
(0.0986331 0.28214 0)
(0.110933 0.235285 0)
(0.124344 0.169739 0)
(0.135703 0.0876624 0)
(0.145771 0.0194918 0)
(0.156405 -0.0357336 0)
(0.166005 -0.0863386 0)
(0.177425 -0.128475 0)
(0.186465 -0.159022 0)
(0.190093 -0.178071 0)
(0.188999 -0.186959 0)
(0.187868 -0.183977 0)
(0.187337 -0.171283 0)
(0.18301 -0.162428 0)
(0.166205 -0.183138 0)
(0.139452 -0.255659 0)
(0.113534 -0.361352 0)
(0.0854146 -0.475519 0)
(0.0808946 -0.470484 0)
(0.0866548 -0.421464 0)
(0.0928647 -0.393584 0)
(0.100492 -0.382911 0)
(0.105356 -0.37497 0)
(0.102369 -0.360886 0)
(0.0931273 -0.339145 0)
(0.0793014 -0.305357 0)
(0.0637669 -0.247864 0)
(0.0568276 -0.167633 0)
(0.06691 -0.0665593 0)
(0.0957715 0.0330667 0)
(0.125823 0.123102 0)
(0.156445 0.183708 0)
(0.184147 0.235199 0)
(0.21692 0.283945 0)
(0.257901 0.320698 0)
(0.299556 0.342409 0)
(0.333545 0.342974 0)
(0.352359 0.317754 0)
(0.357598 0.272361 0)
(0.357344 0.21224 0)
(0.34905 0.14494 0)
(0.319492 0.0682869 0)
(0.249054 -0.0231242 0)
(0.161449 -0.141994 0)
(0.0756567 -0.304608 0)
(-0.0592458 -0.538297 0)
(-0.0770995 -0.628394 0)
(-0.0622807 -0.520846 0)
(-0.0705253 -0.398046 0)
(-0.0756699 -0.318724 0)
(-0.0867231 -0.254861 0)
(-0.105905 -0.199467 0)
(-0.121237 -0.153674 0)
(-0.127603 -0.118189 0)
(-0.122363 -0.0856209 0)
(-0.0750275 0.285247 0)
(-0.0603653 0.284822 0)
(-0.0575186 0.262989 0)
(-0.06901 0.212302 0)
(-0.0764762 0.148939 0)
(-0.0884056 0.075953 0)
(-0.105522 0.00687288 0)
(-0.129662 -0.0500666 0)
(-0.15401 -0.0929566 0)
(-0.175262 -0.124055 0)
(-0.192225 -0.143356 0)
(-0.202062 -0.14429 0)
(-0.207517 -0.129933 0)
(-0.214387 -0.109105 0)
(-0.22306 -0.0888761 0)
(-0.236117 -0.0559193 0)
(-0.250513 0.00622432 0)
(-0.238046 0.103661 0)
(-0.215501 0.219079 0)
(-0.206194 0.317439 0)
(-0.205696 0.382132 0)
(-0.21763 0.421649 0)
(-0.257165 0.455732 0)
(-0.314495 0.490051 0)
(-0.376087 0.521325 0)
(-0.442118 0.552232 0)
(-0.526011 0.581838 0)
(-0.647524 0.617483 0)
(-0.755819 0.642077 0)
(-0.831717 0.63681 0)
(-0.876147 0.599326 0)
(-0.883539 0.536005 0)
(-0.859704 0.45562 0)
(-0.809056 0.359148 0)
(-0.735064 0.272486 0)
(-0.643489 0.200123 0)
(-0.544122 0.148934 0)
(-0.448953 0.119069 0)
(-0.359245 0.107342 0)
(-0.281168 0.109645 0)
(-0.21445 0.125105 0)
(-0.155325 0.154502 0)
(-0.10373 0.198972 0)
(-0.0622652 0.248541 0)
(-0.0309706 0.297919 0)
(-0.00687735 0.345729 0)
(0.0129548 0.386056 0)
(0.0280796 0.41877 0)
(0.040389 0.442379 0)
(0.0508427 0.456534 0)
(0.0595521 0.461116 0)
(0.0666992 0.457674 0)
(0.0717584 0.448399 0)
(0.0750547 0.434413 0)
(0.0769437 0.415739 0)
(0.0777249 0.394782 0)
(0.0803435 0.366301 0)
(0.0827424 0.322993 0)
(0.0892808 0.280748 0)
(0.100039 0.232829 0)
(0.112235 0.164675 0)
(0.120573 0.0851242 0)
(0.129618 0.0279036 0)
(0.14187 -0.0330032 0)
(0.156674 -0.0891327 0)
(0.170557 -0.130908 0)
(0.179326 -0.157154 0)
(0.181132 -0.172361 0)
(0.178538 -0.178873 0)
(0.17678 -0.174731 0)
(0.175477 -0.160255 0)
(0.170693 -0.144388 0)
(0.158005 -0.154898 0)
(0.13732 -0.221484 0)
(0.11323 -0.329051 0)
(0.0887611 -0.449968 0)
(0.0819819 -0.452187 0)
(0.0877223 -0.403596 0)
(0.0942502 -0.381658 0)
(0.102559 -0.374811 0)
(0.109498 -0.368127 0)
(0.109261 -0.355211 0)
(0.103628 -0.336179 0)
(0.0928529 -0.306492 0)
(0.0762059 -0.249966 0)
(0.0647703 -0.167325 0)
(0.0718713 -0.0666637 0)
(0.099088 0.0366364 0)
(0.131176 0.132902 0)
(0.16329 0.205018 0)
(0.192642 0.253526 0)
(0.222572 0.29982 0)
(0.258436 0.337471 0)
(0.297582 0.360627 0)
(0.331731 0.366741 0)
(0.355313 0.34802 0)
(0.367791 0.306555 0)
(0.37268 0.247981 0)
(0.369386 0.179941 0)
(0.344855 0.103246 0)
(0.279698 0.0149945 0)
(0.18915 -0.0947681 0)
(0.111217 -0.246163 0)
(-0.0138793 -0.46359 0)
(-0.0671682 -0.617655 0)
(-0.0516996 -0.528489 0)
(-0.0584145 -0.400095 0)
(-0.0626846 -0.319201 0)
(-0.065738 -0.257091 0)
(-0.0811893 -0.202821 0)
(-0.0997589 -0.15442 0)
(-0.112496 -0.113906 0)
(-0.113725 -0.0736309 0)
(-0.0580591 0.293312 0)
(-0.0442495 0.29601 0)
(-0.0354939 0.283896 0)
(-0.0450349 0.236293 0)
(-0.0621177 0.162795 0)
(-0.0793338 0.0829528 0)
(-0.0999976 0.00979311 0)
(-0.123941 -0.0484969 0)
(-0.146092 -0.0931883 0)
(-0.166039 -0.130019 0)
(-0.181948 -0.15413 0)
(-0.189337 -0.15511 0)
(-0.190933 -0.134928 0)
(-0.195324 -0.106104 0)
(-0.205197 -0.0792629 0)
(-0.223119 -0.0530661 0)
(-0.249666 -0.000881443 0)
(-0.258824 0.0810567 0)
(-0.249341 0.189704 0)
(-0.244144 0.297972 0)
(-0.246339 0.377058 0)
(-0.255599 0.427997 0)
(-0.281885 0.466775 0)
(-0.322384 0.503057 0)
(-0.365901 0.529774 0)
(-0.417548 0.553738 0)
(-0.514691 0.582951 0)
(-0.635982 0.614874 0)
(-0.736099 0.637225 0)
(-0.814161 0.623803 0)
(-0.858871 0.57105 0)
(-0.855609 0.485373 0)
(-0.812724 0.372663 0)
(-0.727719 0.266931 0)
(-0.633598 0.182871 0)
(-0.542014 0.123352 0)
(-0.447612 0.0819795 0)
(-0.357876 0.0604973 0)
(-0.276227 0.0552744 0)
(-0.205084 0.062399 0)
(-0.14269 0.0842674 0)
(-0.0837566 0.12388 0)
(-0.0356145 0.18134 0)
(-0.00643189 0.236846 0)
(0.0136108 0.288456 0)
(0.0271067 0.335051 0)
(0.0374165 0.376706 0)
(0.0469213 0.411559 0)
(0.0548836 0.437039 0)
(0.0613358 0.453383 0)
(0.066059 0.46033 0)
(0.069356 0.459202 0)
(0.0709654 0.451864 0)
(0.0713868 0.439084 0)
(0.0713895 0.421218 0)
(0.0708475 0.400354 0)
(0.0719046 0.367705 0)
(0.0735714 0.321773 0)
(0.0806438 0.281012 0)
(0.0896878 0.231495 0)
(0.099484 0.162189 0)
(0.107878 0.0905716 0)
(0.118414 0.0329625 0)
(0.134464 -0.0354627 0)
(0.153457 -0.0949229 0)
(0.16672 -0.132897 0)
(0.172419 -0.15303 0)
(0.170684 -0.163934 0)
(0.166894 -0.168203 0)
(0.164239 -0.164682 0)
(0.160965 -0.150565 0)
(0.156208 -0.127542 0)
(0.147917 -0.129661 0)
(0.132746 -0.192619 0)
(0.114749 -0.300748 0)
(0.0908738 -0.42628 0)
(0.0827755 -0.426969 0)
(0.0867564 -0.384507 0)
(0.0932378 -0.370445 0)
(0.103917 -0.366832 0)
(0.113067 -0.360987 0)
(0.1143 -0.348658 0)
(0.111185 -0.331969 0)
(0.102076 -0.304008 0)
(0.0860922 -0.249336 0)
(0.0750852 -0.168644 0)
(0.0792963 -0.0707145 0)
(0.102568 0.0345481 0)
(0.134503 0.135659 0)
(0.165136 0.218163 0)
(0.195857 0.27006 0)
(0.224995 0.314093 0)
(0.256694 0.351055 0)
(0.292439 0.374667 0)
(0.325076 0.382189 0)
(0.350143 0.369199 0)
(0.368084 0.332235 0)
(0.378762 0.27741 0)
(0.378588 0.210912 0)
(0.356047 0.13573 0)
(0.294877 0.0525401 0)
(0.206334 -0.0507049 0)
(0.136322 -0.18982 0)
(0.0253971 -0.391693 0)
(-0.0521778 -0.589676 0)
(-0.0417281 -0.527838 0)
(-0.0477801 -0.396245 0)
(-0.053343 -0.314981 0)
(-0.0506897 -0.255109 0)
(-0.0615157 -0.20302 0)
(-0.0813275 -0.154012 0)
(-0.0985394 -0.109285 0)
(-0.105666 -0.0596777 0)
(-0.043151 0.298665 0)
(-0.0307847 0.301043 0)
(-0.0205193 0.294178 0)
(-0.0243591 0.259379 0)
(-0.0436354 0.186505 0)
(-0.0676925 0.0991753 0)
(-0.0920408 0.0215695 0)
(-0.116211 -0.0371551 0)
(-0.136815 -0.0842004 0)
(-0.155283 -0.127472 0)
(-0.169894 -0.159624 0)
(-0.175355 -0.166379 0)
(-0.171633 -0.143054 0)
(-0.169828 -0.103799 0)
(-0.177765 -0.0658367 0)
(-0.194293 -0.0384474 0)
(-0.223445 0.000426309 0)
(-0.253939 0.0689501 0)
(-0.258161 0.160205 0)
(-0.257403 0.268117 0)
(-0.265588 0.360961 0)
(-0.277379 0.427419 0)
(-0.295877 0.475408 0)
(-0.324331 0.511573 0)
(-0.356749 0.541313 0)
(-0.406763 0.564129 0)
(-0.497646 0.588501 0)
(-0.594425 0.616844 0)
(-0.679699 0.621644 0)
(-0.755111 0.591096 0)
(-0.788099 0.515943 0)
(-0.769678 0.409508 0)
(-0.710558 0.28931 0)
(-0.630959 0.197607 0)
(-0.543397 0.116853 0)
(-0.453197 0.0629279 0)
(-0.369213 0.03269 0)
(-0.29006 0.0198361 0)
(-0.220584 0.0190301 0)
(-0.156847 0.0309485 0)
(-0.0920005 0.0598626 0)
(-0.0264494 0.111136 0)
(0.0193429 0.17995 0)
(0.0392362 0.238288 0)
(0.0533552 0.292723 0)
(0.0595952 0.337898 0)
(0.062775 0.375975 0)
(0.0649192 0.408077 0)
(0.0677438 0.434202 0)
(0.0706295 0.451436 0)
(0.0719652 0.460243 0)
(0.0718545 0.461204 0)
(0.0703776 0.455529 0)
(0.0682765 0.443807 0)
(0.0666361 0.426987 0)
(0.0649498 0.4057 0)
(0.0648493 0.368587 0)
(0.0659571 0.322557 0)
(0.072661 0.282301 0)
(0.0809787 0.230668 0)
(0.0885305 0.160999 0)
(0.0973068 0.0982565 0)
(0.111099 0.0323983 0)
(0.132272 -0.042771 0)
(0.150077 -0.102216 0)
(0.158019 -0.131531 0)
(0.159733 -0.144455 0)
(0.155614 -0.151939 0)
(0.152438 -0.154441 0)
(0.148981 -0.15435 0)
(0.143188 -0.1415 0)
(0.141203 -0.109593 0)
(0.13702 -0.105096 0)
(0.125944 -0.168012 0)
(0.11655 -0.277205 0)
(0.0894488 -0.40333 0)
(0.0782907 -0.394984 0)
(0.0842297 -0.365149 0)
(0.0943375 -0.358889 0)
(0.106368 -0.357926 0)
(0.115737 -0.353018 0)
(0.117329 -0.341356 0)
(0.116385 -0.326367 0)
(0.108057 -0.299669 0)
(0.0936688 -0.246549 0)
(0.0861315 -0.169772 0)
(0.088003 -0.0760566 0)
(0.105943 0.0287317 0)
(0.134958 0.133505 0)
(0.163213 0.224025 0)
(0.194001 0.282199 0)
(0.222442 0.325743 0)
(0.250297 0.361366 0)
(0.281972 0.38448 0)
(0.313624 0.391859 0)
(0.339638 0.382569 0)
(0.360755 0.350637 0)
(0.376145 0.300208 0)
(0.378767 0.237116 0)
(0.357751 0.165478 0)
(0.298967 0.0865501 0)
(0.21449 -0.0114648 0)
(0.150607 -0.142728 0)
(0.0520967 -0.33228 0)
(-0.0314396 -0.545099 0)
(-0.0337377 -0.518219 0)
(-0.0402207 -0.387095 0)
(-0.0478042 -0.306335 0)
(-0.0415912 -0.249283 0)
(-0.0486728 -0.199067 0)
(-0.0673456 -0.150781 0)
(-0.0847948 -0.10321 0)
(-0.097413 -0.0436879 0)
(-0.0307912 0.303565 0)
(-0.0186983 0.303591 0)
(-0.0115256 0.29842 0)
(-0.0116064 0.274285 0)
(-0.0246062 0.213535 0)
(-0.0500235 0.127881 0)
(-0.0786713 0.0468653 0)
(-0.105555 -0.0176646 0)
(-0.125878 -0.0664615 0)
(-0.142913 -0.116723 0)
(-0.157202 -0.160182 0)
(-0.161318 -0.17608 0)
(-0.152342 -0.156584 0)
(-0.143929 -0.109267 0)
(-0.144111 -0.0570154 0)
(-0.159924 -0.0188352 0)
(-0.185437 0.0111676 0)
(-0.220277 0.0660227 0)
(-0.247543 0.145506 0)
(-0.257168 0.238502 0)
(-0.265722 0.334223 0)
(-0.278457 0.413908 0)
(-0.296304 0.473747 0)
(-0.318078 0.517009 0)
(-0.344806 0.554598 0)
(-0.393042 0.580899 0)
(-0.463081 0.605222 0)
(-0.5313 0.613812 0)
(-0.598237 0.593858 0)
(-0.660194 0.542545 0)
(-0.690229 0.455858 0)
(-0.682184 0.338069 0)
(-0.632589 0.233442 0)
(-0.564198 0.145123 0)
(-0.49075 0.0795091 0)
(-0.412985 0.0362835 0)
(-0.337429 0.0100481 0)
(-0.269838 -0.00684594 0)
(-0.205521 -0.0126816 0)
(-0.137823 0.00310499 0)
(-0.0661958 0.0403794 0)
(0.00320663 0.099187 0)
(0.0442527 0.172614 0)
(0.0662847 0.241554 0)
(0.0788823 0.301662 0)
(0.0818857 0.348143 0)
(0.080535 0.382892 0)
(0.0789129 0.410043 0)
(0.0777542 0.432872 0)
(0.076855 0.450111 0)
(0.0757778 0.459972 0)
(0.0731197 0.462752 0)
(0.0693023 0.458646 0)
(0.0651823 0.448258 0)
(0.0621995 0.432507 0)
(0.0593589 0.410829 0)
(0.0586397 0.36913 0)
(0.0596518 0.323823 0)
(0.0656268 0.283481 0)
(0.0737071 0.229441 0)
(0.0797251 0.161603 0)
(0.0894453 0.103017 0)
(0.106861 0.0263433 0)
(0.127136 -0.0532322 0)
(0.136812 -0.106602 0)
(0.139619 -0.124296 0)
(0.139831 -0.132387 0)
(0.136168 -0.138328 0)
(0.135436 -0.139455 0)
(0.132426 -0.144809 0)
(0.124022 -0.132631 0)
(0.126417 -0.0921025 0)
(0.126205 -0.084521 0)
(0.11978 -0.15026 0)
(0.117275 -0.259055 0)
(0.0858472 -0.381318 0)
(0.074098 -0.362045 0)
(0.0846751 -0.346425 0)
(0.0972077 -0.348399 0)
(0.10872 -0.350019 0)
(0.117512 -0.345538 0)
(0.11876 -0.333906 0)
(0.119185 -0.31968 0)
(0.112025 -0.294517 0)
(0.0996184 -0.241761 0)
(0.096073 -0.169809 0)
(0.0962103 -0.0810411 0)
(0.108692 0.0210647 0)
(0.133194 0.128328 0)
(0.15815 0.224691 0)
(0.186968 0.289024 0)
(0.213767 0.333327 0)
(0.238431 0.368224 0)
(0.266747 0.391099 0)
(0.29772 0.398692 0)
(0.324631 0.390845 0)
(0.347983 0.363682 0)
(0.367317 0.318221 0)
(0.373156 0.259797 0)
(0.354148 0.192796 0)
(0.297136 0.116757 0)
(0.213435 0.0219445 0)
(0.153803 -0.106461 0)
(0.0665188 -0.283146 0)
(-0.0115492 -0.494895 0)
(-0.028128 -0.499994 0)
(-0.0371767 -0.373907 0)
(-0.0467254 -0.293649 0)
(-0.0385356 -0.239444 0)
(-0.0427852 -0.190636 0)
(-0.0575819 -0.143349 0)
(-0.0713409 -0.0940196 0)
(-0.0884518 -0.029648 0)
(-0.0199843 0.3079 0)
(-0.00811683 0.306354 0)
(-0.00376337 0.299685 0)
(-0.00451592 0.282431 0)
(-0.0120352 0.236571 0)
(-0.0304085 0.161117 0)
(-0.0588198 0.0818588 0)
(-0.0870488 0.0131775 0)
(-0.111014 -0.0436149 0)
(-0.128048 -0.0990903 0)
(-0.143106 -0.154949 0)
(-0.146665 -0.184626 0)
(-0.136129 -0.172004 0)
(-0.118011 -0.123736 0)
(-0.112107 -0.0570511 0)
(-0.120086 -0.00665192 0)
(-0.141112 0.031216 0)
(-0.174064 0.0718368 0)
(-0.208971 0.139459 0)
(-0.233027 0.224691 0)
(-0.247515 0.317803 0)
(-0.262286 0.402392 0)
(-0.278858 0.469519 0)
(-0.298544 0.52365 0)
(-0.324015 0.566115 0)
(-0.365735 0.596639 0)
(-0.417717 0.615243 0)
(-0.464392 0.604534 0)
(-0.513157 0.568301 0)
(-0.574083 0.509694 0)
(-0.625217 0.402041 0)
(-0.628178 0.293193 0)
(-0.593868 0.199621 0)
(-0.541831 0.12229 0)
(-0.479231 0.0665867 0)
(-0.416015 0.0293989 0)
(-0.359825 0.00362613 0)
(-0.303101 -0.0111837 0)
(-0.232754 -0.024536 0)
(-0.136951 -0.0192051 0)
(-0.0486676 0.0254206 0)
(0.00387302 0.0988384 0)
(0.0460197 0.183477 0)
(0.0701554 0.253323 0)
(0.0828748 0.313594 0)
(0.0875322 0.359325 0)
(0.0875482 0.391643 0)
(0.0852441 0.415185 0)
(0.0825878 0.43357 0)
(0.0799082 0.448574 0)
(0.0766462 0.458789 0)
(0.0723562 0.46289 0)
(0.0671071 0.460375 0)
(0.06149 0.451273 0)
(0.0572312 0.436487 0)
(0.0533508 0.414156 0)
(0.0528741 0.368691 0)
(0.0544033 0.324477 0)
(0.0602132 0.283485 0)
(0.0667927 0.227632 0)
(0.0728582 0.165902 0)
(0.0833488 0.101366 0)
(0.100751 0.0162114 0)
(0.109638 -0.0612881 0)
(0.11011 -0.100779 0)
(0.112305 -0.112631 0)
(0.115757 -0.122459 0)
(0.116599 -0.127891 0)
(0.118237 -0.126883 0)
(0.118078 -0.134958 0)
(0.10807 -0.124567 0)
(0.11162 -0.0753448 0)
(0.115307 -0.068907 0)
(0.115536 -0.138353 0)
(0.11329 -0.244305 0)
(0.0812946 -0.357073 0)
(0.0740616 -0.332551 0)
(0.0880841 -0.331682 0)
(0.100474 -0.341354 0)
(0.110887 -0.343747 0)
(0.118718 -0.338674 0)
(0.119252 -0.326384 0)
(0.119997 -0.312194 0)
(0.11508 -0.288583 0)
(0.104389 -0.236368 0)
(0.103073 -0.167484 0)
(0.102458 -0.0837648 0)
(0.110281 0.0132459 0)
(0.128625 0.122249 0)
(0.149416 0.222285 0)
(0.17486 0.291563 0)
(0.199295 0.337656 0)
(0.221463 0.372953 0)
(0.247708 0.395931 0)
(0.278242 0.403863 0)
(0.306735 0.396868 0)
(0.332865 0.374542 0)
(0.355628 0.334269 0)
(0.364752 0.280398 0)
(0.347609 0.216988 0)
(0.291105 0.141712 0)
(0.206782 0.0465559 0)
(0.14987 -0.0792757 0)
(0.069085 -0.244566 0)
(0.00192999 -0.449157 0)
(-0.0240054 -0.478037 0)
(-0.0399422 -0.359616 0)
(-0.0502356 -0.278338 0)
(-0.0408133 -0.226351 0)
(-0.0422049 -0.178653 0)
(-0.0509028 -0.132265 0)
(-0.059665 -0.0817578 0)
(-0.0829848 -0.0162514 0)
(-0.0107708 0.310875 0)
(0.00124047 0.308823 0)
(0.00334685 0.301163 0)
(0.00163541 0.286177 0)
(-0.00377338 0.252665 0)
(-0.0160687 0.191004 0)
(-0.0374394 0.120195 0)
(-0.0614205 0.0565002 0)
(-0.0882115 -0.00868268 0)
(-0.10804 -0.0728323 0)
(-0.124235 -0.141122 0)
(-0.12928 -0.189045 0)
(-0.117721 -0.188179 0)
(-0.0958612 -0.144073 0)
(-0.0830042 -0.0651612 0)
(-0.0820691 -0.00370613 0)
(-0.0953791 0.0447409 0)