/*--------------------------------*- C++ -*----------------------------------*\
  =========                 |
  \\      /  F ield         | OpenFOAM: The Open Source CFD Toolbox
   \\    /   O peration     | Website:  https://openfoam.org
    \\  /    A nd           | Version:  10
     \\/     M anipulation  |
\*---------------------------------------------------------------------------*/
FoamFile
{
    format      ascii;
    class       volScalarField;
    location    "0.301433";
    object      p;
}
// * * * * * * * * * * * * * * * * * * * * * * * * * * * * * * * * * * * * * //

dimensions      [1 -1 -2 0 0 0 0];

internalField   nonuniform List<scalar> 
15984
(
2.62477
2.61262
2.59844
2.58288
2.56651
2.54983
2.53334
2.51752
2.50279
2.48953
2.4781
2.46873
2.46161
2.45684
2.45436
2.45399
2.45526
2.45804
2.46187
2.4661
2.47011
2.47336
2.47546
2.4761
2.47529
2.47286
2.46883
2.46344
2.45681
2.44925
2.44099
2.43233
2.42355
2.41493
2.40673
2.39919
2.39253
2.38698
2.38273
2.38001
2.37905
2.37986
2.38254
2.38749
2.39471
2.40437
2.41643
2.43087
2.44753
2.46618
2.48641
2.50774
2.52956
2.5512
2.63329
2.62002
2.60474
2.5881
2.57065
2.55287
2.53526
2.51828
2.50234
2.48782
2.47505
2.46432
2.4558
2.44964
2.44585
2.44431
2.44468
2.44664
2.44997
2.45411
2.45841
2.46228
2.46529
2.46708
2.46745
2.46643
2.46388
2.4599
2.45472
2.44849
2.44151
2.43401
2.42629
2.41862
2.41125
2.40443
2.39838
2.39331
2.38941
2.3869
2.38598
2.38667
2.38911
2.39358
2.40017
2.409
2.4201
2.43346
2.44901
2.46656
2.48578
2.50624
2.5274
2.54862
2.64
2.62577
2.60958
2.59204
2.57369
2.55501
2.53647
2.51851
2.50153
2.48589
2.47193
2.45993
2.45012
2.44262
2.43752
2.43475
2.43415
2.43522
2.43786
2.44169
2.44608
2.4504
2.45417
2.457
2.45862
2.45887
2.45783
2.45538
2.45168
2.44696
2.44137
2.43523
2.42875
2.42221
2.41587
2.40996
2.4047
2.40029
2.39693
2.39479
2.39407
2.39481
2.39709
2.40117
2.40724
2.41527
2.42539
2.4376
2.45188
2.4681
2.48602
2.50527
2.52539
2.54577
2.64495
2.62995
2.61302
2.59478
2.57572
2.55631
2.53702
2.51825
2.50038
2.48378
2.46876
2.4556
2.44458
2.43581
2.42942
2.42541
2.42368
2.42389
2.42571
2.42901
2.43326
2.43783
2.4422
2.44594
2.44872
2.45034
2.45064
2.4498
2.44769
2.44453
2.44052
2.43587
2.43082
2.42561
2.42048
2.41567
2.41138
2.40782
2.40516
2.40357
2.40321
2.40406
2.40636
2.41022
2.41574
2.42303
2.43218
2.44317
2.45606
2.47076
2.48713
2.50486
2.52355
2.5427
2.64824
2.63263
2.61514
2.59637
2.57678
2.55682
2.53694
2.51751
2.49891
2.48147
2.46552
2.45134
2.43917
2.42922
2.42159
2.41634
2.41343
2.41268
2.41363
2.41623
2.42013
2.42475
2.42954
2.43404
2.43786
2.44074
2.44252
2.44314
2.44269
2.44121
2.43888
2.43586
2.43239
2.42869
2.42495
2.42143
2.41831
2.41577
2.41397
2.41308
2.41322
2.41434
2.41675
2.42045
2.42556
2.43214
2.44029
2.45004
2.46145
2.47449
2.48907
2.50499
2.52194
2.53948
2.64991
2.63388
2.61602
2.59688
2.57693
2.55657
2.53623
2.51629
2.49708
2.47895
2.4622
2.4471
2.4339
2.42284
2.41403
2.40757
2.40346
2.40161
2.40174
2.4035
2.40684
2.41132
2.41636
2.42143
2.42615
2.4302
2.43337
2.43555
2.43673
2.43693
2.43641
2.43515
2.43339
2.43136
2.4292
2.42713
2.42535
2.424
2.42323
2.4232
2.4239
2.4255
2.4281
2.43172
2.43646
2.44237
2.44956
2.45804
2.46791
2.47917
2.4918
2.50568
2.52058
2.5362
2.65012
2.6338
2.61571
2.59635
2.57617
2.55556
2.53491
2.51458
2.4949
2.4762
2.45875
2.44285
2.42873
2.41662
2.40672
2.39909
2.3938
2.39082
2.39001
2.39093
2.39358
2.39773
2.40281
2.40829
2.41375
2.41884
2.42331
2.427
2.42984
2.43184
2.43309
2.43368
2.43377
2.43354
2.4331
2.43266
2.43237
2.43237
2.43275
2.43368
2.43516
2.43732
2.44018
2.4438
2.44822
2.45352
2.45976
2.46699
2.47528
2.4847
2.49526
2.50692
2.51956
2.53295
2.6489
2.63244
2.61423
2.5948
2.57452
2.55379
2.53295
2.51236
2.49233
2.47316
2.45514
2.43853
2.42359
2.41054
2.39959
2.39087
2.38444
2.38034
2.37848
2.37863
2.3805
2.38412
2.38908
2.3948
2.40083
2.40682
2.41249
2.41762
2.4221
2.42589
2.429
2.43151
2.43352
2.43518
2.4366
2.4379
2.43924
2.4407
2.4424
2.44441
2.44679
2.44956
2.45277
2.45644
2.46063
2.46536
2.47069
2.47668
2.48341
2.49096
2.49937
2.50869
2.51888
2.52982
2.64632
2.62983
2.61166
2.59226
2.57201
2.55125
2.53034
2.50959
2.48931
2.46978
2.45128
2.43408
2.41842
2.40452
2.39261
2.38287
2.37536
2.37016
2.36727
2.36659
2.3677
2.37069
2.37534
2.38114
2.38759
2.39435
2.40109
2.40757
2.41363
2.41917
2.42417
2.42864
2.43264
2.43627
2.43962
2.44278
2.44585
2.4489
2.45199
2.45519
2.45853
2.462
2.46563
2.46944
2.47344
2.47766
2.48214
2.48694
2.49214
2.49782
2.50407
2.51099
2.51861
2.52691
2.64247
2.62606
2.60801
2.58875
2.56862
2.54795
2.52705
2.50624
2.4858
2.466
2.44712
2.42941
2.41311
2.39847
2.3857
2.375
2.3665
2.36027
2.35639
2.35481
2.35524
2.35753
2.36174
2.36749
2.37424
2.38162
2.38931
2.39703
2.40459
2.41184
2.41869
2.42513
2.43116
2.43681
2.44215
2.44723
2.4521
2.45681
2.46138
2.46583
2.47019
2.47443
2.47854
2.48254
2.48641
2.49019
2.4939
2.49758
2.50131
2.50518
2.50929
2.51379
2.51877
2.52433
2.63741
2.62116
2.60331
2.58427
2.56435
2.54384
2.52304
2.50225
2.48173
2.46175
2.44256
2.42443
2.40759
2.3923
2.37876
2.3672
2.35779
2.35062
2.34581
2.34335
2.3431
2.34471
2.34844
2.35402
2.36096
2.36885
2.37736
2.38621
2.39517
2.40404
2.41271
2.42108
2.42912
2.43682
2.44417
2.4512
2.45791
2.46431
2.47039
2.47616
2.48158
2.48663
2.49128
2.49552
2.49935
2.50276
2.50577
2.50843
2.51079
2.51293
2.51498
2.51708
2.51942
2.52215
2.63122
2.61518
2.5976
2.57885
2.55919
2.53891
2.51828
2.49757
2.47704
2.45694
2.43753
2.41905
2.40175
2.38589
2.37168
2.35935
2.34912
2.34112
2.33545
2.33217
2.33124
2.33231
2.33551
2.34087
2.34793
2.35624
2.36546
2.37533
2.38557
2.39598
2.40638
2.41662
2.42663
2.43634
2.44569
2.45465
2.4632
2.4713
2.47891
2.486
2.49251
2.4984
2.50364
2.50819
2.51203
2.51516
2.51758
2.51933
2.52045
2.521
2.52107
2.52085
2.52058
2.52045
2.62397
2.60819
2.59093
2.5725
2.55315
2.53315
2.51273
2.49216
2.47167
2.45152
2.43193
2.41317
2.39549
2.37913
2.36434
2.35135
2.34039
2.33164
2.32522
2.32121
2.31965
2.32026
2.323
2.32813
2.33528
2.34395
2.35381
2.36459
2.37602
2.38786
2.39988
2.41191
2.42381
2.43545
2.44673
2.45759
2.46793
2.4777
2.48681
2.49521
2.50282
2.50958
2.51544
2.52035
2.52429
2.52724
2.52919
2.53016
2.53018
2.52932
2.52752
2.5251
2.52227
2.51923
2.61577
2.60026
2.58334
2.56525
2.54625
2.52655
2.50638
2.48598
2.46558
2.4454
2.4257
2.40671
2.38868
2.3719
2.35663
2.34306
2.33145
2.32203
2.31496
2.31035
2.30824
2.30855
2.31088
2.31584
2.3231
2.33213
2.34259
2.35421
2.36673
2.37988
2.39341
2.40711
2.42077
2.43424
2.44737
2.46002
2.47208
2.48345
2.49401
2.50368
2.51238
2.52001
2.52651
2.53185
2.53597
2.53885
2.54046
2.54081
2.53997
2.53778
2.5343
2.52981
2.5245
2.5186
2.60671
2.59149
2.5749
2.55717
2.53851
2.51912
2.49922
2.47901
2.45871
2.43854
2.41874
2.39956
2.38125
2.3641
2.34832
2.33433
2.32207
2.31213
2.3045
2.29942
2.29693
2.29696
2.29912
2.30405
2.31148
2.32089
2.33193
2.34435
2.35788
2.37224
2.38717
2.40239
2.41769
2.43285
2.44767
2.462
2.47566
2.48852
2.50045
2.51133
2.52107
2.52956
2.53675
2.54256
2.54695
2.54988
2.5513
2.55121
2.54968
2.54636
2.5414
2.53497
2.52727
2.51852
2.59693
2.58197
2.56571
2.54832
2.52999
2.51091
2.49126
2.47124
2.45104
2.43089
2.41101
2.39164
2.37304
2.35553
2.33939
2.3248
2.31217
2.30167
2.29367
2.28824
2.28553
2.28547
2.28763
2.29266
2.3004
2.31027
2.32194
2.33516
2.34965
2.36514
2.38133
2.39795
2.41471
2.43139
2.44774
2.46357
2.47868
2.4929
2.50609
2.5181
2.52883
2.53816
2.54603
2.55238
2.55713
2.56023
2.56162
2.56128
2.55924
2.55505
2.54882
2.54065
2.53061
2.51916
2.58657
2.57186
2.55589
2.53881
2.52078
2.50198
2.48255
2.46269
2.44259
2.42242
2.40243
2.38286
2.36398
2.34612
2.32945
2.31446
2.30133
2.2905
2.2822
2.27659
2.27382
2.27383
2.2762
2.28159
2.28984
2.30031
2.31268
2.32673
2.34218
2.35873
2.37607
2.39392
2.41198
2.42999
2.44768
2.46483
2.48121
2.49663
2.51093
2.52396
2.53561
2.54575
2.55432
2.56123
2.56643
2.56983
2.57135
2.57094
2.56861
2.56381
2.55657
2.54687
2.53479
2.52079
2.5758
2.5613
2.54558
2.52876
2.51099
2.49241
2.47316
2.45342
2.43335
2.41313
2.39298
2.37314
2.3539
2.33556
2.31849
2.30292
2.28939
2.27822
2.26976
2.26414
2.2615
2.26177
2.26462
2.2707
2.2797
2.29095
2.30417
2.31914
2.33555
2.35312
2.37152
2.39046
2.40964
2.42877
2.44759
2.46584
2.48329
2.49974
2.515
2.52893
2.54141
2.5523
2.56155
2.56907
2.57479
2.57862
2.58045
2.58013
2.57772
2.57256
2.5646
2.55376
2.54031
2.52392
2.5648
2.55049
2.53495
2.51833
2.50075
2.48232
2.46319
2.44349
2.42337
2.40301
2.38259
2.36237
2.34266
2.3238
2.30606
2.28998
2.27596
2.26449
2.25593
2.25045
2.2482
2.24894
2.25264
2.2598
2.26982
2.2821
2.29638
2.31239
2.32984
2.34839
2.36777
2.38766
2.40778
2.42784
2.44757
2.4667
2.48501
2.50228
2.51833
2.53302
2.54623
2.55782
2.56773
2.57588
2.5822
2.58656
2.58885
2.58883
2.58657
2.58126
2.57299
2.56137
2.54697
2.52853
2.55378
2.5396
2.5242
2.5077
2.49022
2.47188
2.45277
2.43303
2.41273
2.3921
2.37127
2.3505
2.33016
2.31047
2.29202
2.27519
2.26064
2.24885
2.24019
2.23501
2.2334
2.23493
2.23987
2.24861
2.26
2.27365
2.28925
2.30649
2.32504
2.34459
2.36487
2.38558
2.40647
2.42726
2.44768
2.46748
2.48644
2.50433
2.52099
2.53629
2.55011
2.56232
2.57286
2.58166
2.58863
2.59362
2.59652
2.59703
2.59504
2.58997
2.58165
2.56973
2.55302
2.52995
2.54296
2.52885
2.51351
2.49706
2.47959
2.46125
2.44204
2.42217
2.4015
2.38049
2.3591
2.33747
2.31635
2.29548
2.2759
2.25827
2.24301
2.23077
2.22197
2.21721
2.21652
2.21922
2.22608
2.23671
2.24996
2.2654
2.28266
2.30135
2.32112
2.3417
2.36283
2.38427
2.40577
2.42709
2.44799
2.46825
2.48763
2.50596
2.52305
2.53879
2.5531
2.56585
2.57696
2.5864
2.59406
2.59981
2.60345
2.60466
2.60318
2.59859
2.59041
2.57678
2.55841
2.54219
2.53248
2.51845
2.50311
2.48663
2.46909
2.4506
2.43119
2.41097
2.38986
2.36842
2.34616
2.32389
2.30144
2.27902
2.25779
2.23867
2.2225
2.20932
2.20042
2.19636
2.19677
2.2012
2.21067
2.22375
2.23942
2.25718
2.27649
2.29688
2.31802
2.33967
2.36161
2.38367
2.40564
2.42733
2.44852
2.46903
2.48866
2.50722
2.52457
2.54061
2.55526
2.56845
2.58009
2.59015
2.59853
2.60511
2.60962
2.61174
2.61092
2.60715
2.59888
2.58945
2.57372
2.55337
2.52254
2.50854
2.49315
2.47657
2.45888
2.44013
2.42043
2.39969
2.37826
2.35613
2.33332
2.31003
2.28674
2.26233
2.23915
2.21804
2.20087
2.18506
2.17455
2.17195
2.17365
2.18079
2.19319
2.20932
2.22812
2.24879
2.27058
2.29297
2.31564
2.33841
2.36115
2.38374
2.40605
2.42796
2.44928
2.46986
2.48954
2.50816
2.52562
2.54181
2.55668
2.5702
2.58229
2.59292
2.60204
2.6095
2.61504
2.61825
2.61854
2.61549
2.61196
2.60134
2.586
2.56494
2.51327
2.49923
2.48375
2.46702
2.44909
2.43006
2.40991
2.38896
2.36688
2.3449
2.3214
2.29629
2.27352
2.24623
2.2203
2.19603
2.17686
2.1578
2.14949
2.14519
2.14617
2.15781
2.1734
2.19324
2.21593
2.24013
2.26484
2.2895
2.31385
2.3378
2.36131
2.38437
2.40694
2.42892
2.45023
2.47073
2.49031
2.50885
2.52626
2.54245
2.55742
2.57115
2.58359
2.59474
2.60458
2.613
2.61976
2.62458
2.62549
2.62557
2.62114
2.6111
2.59625
2.57561
2.50468
2.49057
2.47498
2.45808
2.43989
2.4206
2.40019
2.37931
2.3571
2.33412
2.30973
2.28248
2.25519
2.22723
2.19872
2.17074
2.14583
2.12397
2.11188
2.1167
2.11354
2.13304
2.15094
2.17649
2.20361
2.23157
2.25938
2.28646
2.31257
2.33772
2.36198
2.38546
2.40819
2.43016
2.45133
2.47163
2.49099
2.50932
2.52655
2.54263
2.55757
2.57138
2.58405
2.59562
2.60612
2.61551
2.62378
2.63112
2.6299
2.63213
2.62758
2.61833
2.60411
2.58447
2.49669
2.4825
2.46682
2.4498
2.43142
2.41215
2.39159
2.3708
2.34767
2.32151
2.29412
2.26518
2.23493
2.20399
2.17304
2.14326
2.11575
2.09303
2.07869
2.07572
2.08419
2.10358
2.13001
2.16065
2.19182
2.22338
2.25434
2.28388
2.31175
2.33807
2.36305
2.38688
2.4097
2.43158
2.45254
2.47256
2.4916
2.50961
2.52656
2.54242
2.55722
2.57098
2.58374
2.59558
2.60661
2.61676
2.62534
2.62994
2.63588
2.63563
2.63129
2.62265
2.60939
2.59123
2.4891
2.47484
2.45919
2.44225
2.42381
2.40471
2.38422
2.36082
2.33457
2.30575
2.27538
2.24434
2.21272
2.18079
2.14903
2.11831
2.08949
2.06631
2.05074
2.04669
2.05917
2.08283
2.10759
2.14564
2.18075
2.21618
2.25022
2.28201
2.31147
2.33881
2.36439
2.38851
2.41136
2.4331
2.4538
2.47348
2.49214
2.50976
2.52635
2.5419
2.55645
2.57006
2.5828
2.59465
2.60591
2.61614
2.62317
2.63416
2.63703
2.63658
2.63256
2.62458
2.61237
2.59566
2.48158
2.46733
2.45203
2.43549
2.4172
2.39568
2.37436
2.34734
2.31767
2.28698
2.25574
2.22416
2.192
2.15925
2.12645
2.09488
2.06496
2.04209
2.02684
2.02383
2.0365
2.06311
2.09389
2.13516
2.17371
2.21161
2.24774
2.28117
2.31179
2.33994
2.36599
2.39029
2.41312
2.43468
2.45508
2.47439
2.49262
2.5098
2.52596
2.54114
2.55541
2.56877
2.58145
2.59302
2.60293
2.61332
2.62866
2.63278
2.63546
2.63559
2.63219
2.62501
2.61388
2.59874
2.47358
2.45926
2.44471
2.42929
2.41049
2.38627
2.3593
2.3297
2.29951
2.26875
2.23747
2.20553
2.17271
2.13926
2.10587
2.07414
2.04495
2.02326
2.00842
2.00865
2.02101
2.05137
2.08536
2.1286
2.16976
2.20962
2.24711
2.2815
2.31284
2.34149
2.3678
2.39217
2.41493
2.43628
2.45637
2.47527
2.49304
2.50973
2.52542
2.5402
2.55423
2.56718
2.57976
2.59208
2.60346
2.61448
2.62396
2.63038
2.63333
2.6337
2.63086
2.62445
2.61439
2.60066
2.4665
2.4505
2.43511
2.42315
2.40218
2.37127
2.34142
2.31209
2.28251
2.25207
2.22078
2.18861
2.15552
2.12193
2.08882
2.05779
2.03104
2.0106
1.99775
2.00066
2.01588
2.04847
2.08509
2.12795
2.17001
2.21064
2.24846
2.28314
2.31475
2.34351
2.36985
2.39417
2.41678
2.43789
2.45764
2.47611
2.49338
2.50953
2.52468
2.53907
2.55295
2.56566
2.57956
2.58881
2.60202
2.61364
2.62235
2.62845
2.63129
2.63162
2.62913
2.62338
2.61429
2.60184
2.45851
2.44818
2.4382
2.40653
2.37891
2.35298
2.32498
2.29625
2.26694
2.23696
2.20607
2.17416
2.14141
2.10848
2.07677
2.04812
2.02466
2.00532
1.99577
1.99982
2.01923
2.05306
2.09223
2.13461
2.17573
2.21507
2.25216
2.28637
2.31759
2.34606
2.37217
2.39627
2.41864
2.43946
2.45883
2.47687
2.4936
2.50913
2.52362
2.5376
2.55096
2.56224
2.57626
2.58983
2.60177
2.61217
2.62058
2.62649
2.62925
2.62951
2.62718
2.62201
2.61372
2.6023
2.44664
2.427
2.41152
2.3888
2.36338
2.33713
2.31007
2.28217
2.25349
2.22411
2.19394
2.16276
2.1312
2.10026
2.07128
2.04584
2.02534
2.00846
2.00284
2.00982
2.0317
2.06611
2.10461
2.14438
2.18396
2.22214
2.2579
2.29099
2.32133
2.34916
2.37479
2.3985
2.42051
2.44099
2.45999
2.47754
2.49368
2.50855
2.52253
2.53575
2.54925
2.56273
2.57713
2.59016
2.6015
2.6112
2.61905
2.62466
2.6273
2.62757
2.62525
2.62038
2.6127
2.60206
2.43001
2.41119
2.39228
2.37093
2.34733
2.32244
2.29664
2.26988
2.24228
2.21386
2.18469
2.15508
2.12577
2.09754
2.07221
2.05033
2.03314
2.02143
2.01966
2.03069
2.0538
2.08603
2.12169
2.15858
2.19554
2.23139
2.26528
2.2968
2.32594
2.35285
2.37778
2.40095
2.42253
2.44259
2.46113
2.47816
2.49366
2.50748
2.52067
2.53545
2.55034
2.56474
2.57847
2.59071
2.60144
2.61055
2.61786
2.62298
2.62537
2.62558
2.62326
2.61847
2.61113
2.60095
2.41139
2.39393
2.37535
2.35482
2.3326
2.30922
2.28485
2.25948
2.23322
2.20616
2.17862
2.15125
2.12452
2.09986
2.07924
2.06083
2.04853
2.04199
2.04375
2.05624
2.07834
2.1074
2.13998
2.17423
2.20859
2.24205
2.27385
2.30362
2.33133
2.35713
2.38119
2.40367
2.42469
2.44422
2.46217
2.47835
2.49274
2.50655
2.52248
2.53751
2.55268
2.56701
2.58006
2.59163
2.6017
2.61017
2.61689
2.6214
2.62339
2.62341
2.62101
2.61611
2.60879
2.59876
2.39389
2.37744
2.35965
2.34022
2.31952
2.29775
2.27492
2.25111
2.2264
2.20105
2.17566
2.15064
2.12704
2.10649
2.09064
2.07549
2.06747
2.06522
2.07004
2.08308
2.10365
2.12992
2.15963
2.19106
2.22281
2.25379
2.28337
2.31127
2.33744
2.36198
2.38502
2.40667
2.42696
2.4458
2.46276
2.47759
2.49182
2.50908
2.52512
2.54074
2.55571
2.56949
2.58191
2.59283
2.60222
2.60997
2.61595
2.61973
2.62122
2.62083
2.61816
2.61304
2.60542
2.59512
2.37736
2.36201
2.34527
2.32722
2.30816
2.28812
2.26694
2.24481
2.22186
2.19856
2.17529
2.15295
2.13267
2.11614
2.10436
2.09247
2.08823
2.08942
2.0965
2.10988
2.12919
2.15312
2.18019
2.20879
2.23786
2.26632
2.29367
2.31965
2.34421
2.3674
2.38931
2.40995
2.42931
2.44724
2.46304
2.47589
2.4947
2.51214
2.52866
2.54443
2.55903
2.57225
2.584
2.5942
2.60282
2.60976
2.61485
2.61771
2.6186
2.61758
2.61438
2.60878
2.60061
2.58964
2.36179
2.34763
2.33223
2.31585
2.29855
2.28026
2.26087
2.24056
2.21963
2.19831
2.17737
2.15779
2.14075
2.12782
2.11957
2.11054
2.1097
2.11353
2.12218
2.13586
2.1542
2.17627
2.20104
2.22703
2.25344
2.27944
2.3046
2.32869
2.35164
2.37346
2.39417
2.41363
2.43203
2.44879
2.46321
2.47653
2.49819
2.51597
2.5328
2.54842
2.56257
2.57516
2.58619
2.59558
2.60331
2.60931
2.61332
2.61515
2.61525
2.61335
2.60938
2.60296
2.59392
2.58187
2.34729
2.33446
2.32066
2.30606
2.29067
2.27415
2.2567
2.23843
2.21943
2.20026
2.18172
2.16481
2.15068
2.14075
2.1356
2.12903
2.13139
2.13705
2.14682
2.16063
2.17814
2.1986
2.22127
2.24514
2.2691
2.29289
2.31603
2.33834
2.35973
2.38021
2.39962
2.41811
2.43548
2.45068
2.46198
2.48358
2.50309
2.52068
2.53749
2.55275
2.5663
2.57816
2.58834
2.5968
2.60354
2.60841
2.61111
2.61193
2.61094
2.60796
2.6028
2.59524
2.58491
2.57133
2.33397
2.32262
2.31059
2.29787
2.28438
2.2698
2.25444
2.23816
2.22126
2.20432
2.18816
2.17376
2.16213
2.15442
2.15114
2.1492
2.15288
2.15951
2.17017
2.18397
2.20082
2.22007
2.24086
2.26264
2.28469
2.30653
2.32786
2.34853
2.36845
2.38762
2.40592
2.42338
2.43981
2.45418
2.46501
2.4897
2.50886
2.5264
2.54284
2.55746
2.57024
2.58122
2.59041
2.59782
2.6034
2.60686
2.60822
2.60786
2.60554
2.60114
2.59451
2.58537
2.57328
2.55765
2.32197
2.31225
2.30201
2.29129
2.27966
2.26725
2.25396
2.23981
2.22511
2.21042
2.1966
2.18451
2.17496
2.1692
2.16781
2.16997
2.1724
2.18116
2.19214
2.20601
2.22233
2.24041
2.25978
2.27983
2.30013
2.32026
2.33998
2.35915
2.37774
2.39569
2.41305
2.42946
2.44463
2.45734
2.47512
2.49649
2.51565
2.53314
2.5489
2.56263
2.57445
2.58438
2.59244
2.59866
2.60279
2.60468
2.60478
2.60293
2.59901
2.59289
2.58443
2.57327
2.55888
2.54061
2.31136
2.30334
2.29497
2.28621
2.27662
2.26637
2.25523
2.24331
2.23088
2.2185
2.20692
2.19695
2.18933
2.18533
2.18507
2.18845
2.19282
2.20162
2.21293
2.22687
2.24269
2.25976
2.27792
2.29661
2.31535
2.33399
2.35231
2.37017
2.38745
2.40429
2.42066
2.43631
2.45078
2.46323
2.48623
2.50623
2.52435
2.54109
2.55582
2.56846
2.57911
2.58781
2.59462
2.59939
2.6018
2.60229
2.60081
2.59724
2.59148
2.58334
2.57264
2.55904
2.54173
2.5202
2.30224
2.29596
2.28945
2.28271
2.27523
2.26713
2.25826
2.24862
2.23845
2.22825
2.2188
2.21086
2.20507
2.20252
2.20303
2.20692
2.21224
2.22154
2.23307
2.24677
2.262
2.27839
2.29556
2.3129
2.33033
2.34767
2.36473
2.38137
2.39741
2.41305
2.42898
2.44454
2.45762
2.47829
2.49882
2.51709
2.53498
2.5504
2.56385
2.57519
2.58447
2.59185
2.59718
2.60012
2.60099
2.59986
2.59658
2.59109
2.58324
2.57282
2.55951
2.54281
2.52208
2.49666
2.29462
2.29012
2.28546
2.28078
2.27538
2.26952
2.26297
2.25571
2.24786
2.23985
2.23232
2.22596
2.22145
2.21992
2.22129
2.22597
2.23153
2.24091
2.25243
2.26592
2.28076
2.29617
2.31245
2.32879
2.34515
2.3614
2.37736
2.39292
2.40751
2.42196
2.43996
2.45694
2.47129
2.49271
2.51379
2.53076
2.54719
2.56122
2.57322
2.5831
2.59093
2.59673
2.60022
2.60145
2.6007
2.5977
2.59247
2.58488
2.57474
2.56172
2.5454
2.52518
2.50043
2.4706
2.28854
2.28582
2.28306
2.28039
2.27715
2.27352
2.26927
2.26437
2.25886
2.25301
2.24735
2.24256
2.23918
2.23831
2.23969
2.24384
2.25213
2.25991
2.27198
2.28433
2.29884
2.31376
2.32903
2.34442
2.3598
2.37502
2.38998
2.40419
2.41868
2.43756
2.45483
2.47179
2.49185
2.51189
2.53013
2.54645
2.56116
2.57371
2.58416
2.5925
2.59874
2.60266
2.60423
2.60381
2.60115
2.59618
2.58886
2.57903
2.56641
2.55055
2.53089
2.50675
2.47751
2.44285
2.28396
2.28303
2.28218
2.28146
2.28034
2.27892
2.27701
2.27444
2.2713
2.26764
2.26378
2.26037
2.25814
2.258
2.26247
2.26073
2.26836
2.28051
2.29179
2.30347
2.31667
2.33083
2.34511
2.3593
2.37373
2.38834
2.40443
2.4235
2.43506
2.45436
2.47463
2.49301
2.51367
2.53193
2.54883
2.56376
2.5769
2.58788
2.59678
2.60353
2.60794
2.60984
2.60973
2.6073
2.60259
2.59558
2.58606
2.57389
2.55867
2.53984
2.51664
2.4883
2.45426
2.41455
2.28088
2.28168
2.28271
2.28388
2.28484
2.28557
2.28586
2.28565
2.28476
2.28332
2.28141
2.27959
2.27821
2.27797
2.2803
2.28644
2.28479
2.29704
2.31158
2.32223
2.33399
2.34682
2.36012
2.37353
2.38909
2.40603
2.42258
2.43932
2.45778
2.47846
2.49922
2.51749
2.53657
2.5534
2.56888
2.58249
2.5941
2.60356
2.61092
2.61597
2.61836
2.61862
2.61651
2.61199
2.60512
2.59591
2.58413
2.56955
2.55171
2.5299
2.50317
2.47062
2.43176
2.38706
2.27923
2.28168
2.28448
2.28747
2.2904
2.29315
2.29554
2.29748
2.29885
2.29962
2.29987
2.2997
2.29955
2.29964
2.30075
2.30387
2.31083
2.31247
2.32875
2.34052
2.35045
2.36296
2.37775
2.3932
2.40926
2.42627
2.44624
2.46411
2.48305
2.50495
2.52445
2.54267
2.55997
2.57568
2.58979
2.60199
2.61217
2.62021
2.62605
2.6292
2.62999
2.6284
2.62425
2.61758
2.60847
2.5969
2.58277
2.56575
2.54534
2.52074
2.49083
2.45451
2.41129
2.36207
2.27891
2.2829
2.28734
2.29202
2.29676
2.30134
2.30565
2.30955
2.31297
2.31587
2.3182
2.32006
2.3216
2.3229
2.32428
2.32659
2.33221
2.33762
2.35007
2.36285
2.373
2.38622
2.39977
2.41574
2.43454
2.45183
2.47208
2.4927
2.51166
2.53171
2.54993
2.56726
2.58324
2.59775
2.61053
2.6214
2.63025
2.637
2.64115
2.64269
2.64192
2.63843
2.63223
2.62335
2.61188
2.59785
2.58121
2.56168
2.53877
2.51174
2.47939
2.4403
2.39391
2.34122
2.27985
2.28521
2.29109
2.29729
2.3036
2.30982
2.31582
2.32147
2.3267
2.33147
2.33577
2.33956
2.34299
2.34608
2.34913
2.35281
2.35827
2.36599
2.37496
2.38509
2.39749
2.41172
2.42762
2.44286
2.46188
2.48073
2.5
2.51982
2.5385
2.55698
2.57427
2.59046
2.60525
2.61852
2.63007
2.63972
2.64737
2.65271
2.65522
2.65548
2.65302
2.64767
2.6394
2.62823
2.61424
2.59753
2.57819
2.55595
2.53057
2.50161
2.46798
2.42801
2.38063
2.32634
2.28201
2.28846
2.29557
2.30304
2.31067
2.31827
2.32571
2.33287
2.33966
2.34604
2.35199
2.35753
2.36268
2.36757
2.37249
2.37796
2.38442
2.39256
2.40207
2.4123
2.4249
2.43889
2.45575
2.47235
2.48993
2.50832
2.52678
2.5453
2.5632
2.58045
2.59664
2.61158
2.62518
2.6372
2.64751
2.65595
2.66239
2.66622
2.66746
2.66628
2.66216
2.65495
2.64453
2.6309
2.61416
2.59464
2.57217
2.54676
2.51865
2.48808
2.45472
2.4168
2.37184
2.31885
2.28545
2.29277
2.3007
2.30911
2.31775
2.32645
2.33505
2.34343
2.3515
2.35923
2.36657
2.37355
2.38023
2.38673
2.39331
2.40034
2.40812
2.41699
2.42725
2.43856
2.45157
2.46607
2.48223
2.49872
2.51603
2.53365
2.5513
2.56873
2.58556
2.60153
2.6164
2.63006
2.64234
2.65307
2.66213
2.66937
2.67445
2.67674
2.67683
2.67413
2.66831
2.65915
2.6464
2.63011
2.61042
2.58731
2.56075
2.53115
2.49925
2.46685
2.4353
2.40385
2.36765
2.32036
2.29014
2.29795
2.30648
2.3155
2.32483
2.33428
2.34369
2.35297
2.36202
2.3708
2.37926
2.38745
2.39542
2.40332
2.41134
2.41975
2.42879
2.43867
2.44974
2.46201
2.47559
2.4904
2.50626
2.52265
2.53947
2.55642
2.57319
2.58949
2.60503
2.61967
2.63321
2.64548
2.65637
2.66575
2.67351
2.67945
2.68296
2.68403
2.68271
2.67843
2.67082
2.65952
2.64434
2.62506
2.60155
2.57395
2.54267
2.5081
2.47146
2.43632
2.40896
2.38852
2.36929
2.33298
2.29611
2.30409
2.31287
2.3222
2.33189
2.34177
2.35169
2.36155
2.37127
2.3808
2.39013
2.39928
2.40832
2.41736
2.42655
2.43614
2.44631
2.45729
2.46931
2.4824
2.49656
2.51167
2.52749
2.54371
2.56006
2.57626
2.59204
2.6072
2.6215
2.63477
2.64687
2.65769
2.66714
2.67512
2.68153
2.68602
2.68798
2.68784
2.68497
2.67902
2.66957
2.65609
2.63801
2.61484
2.5864
2.5531
2.51538
2.47351
2.42838
2.38509
2.36086
2.35572
2.36186
2.35565
2.3035
2.31126
2.31988
2.32915
2.33887
2.34886
2.35899
2.36916
2.37927
2.38929
2.39922
2.40908
2.41893
2.42887
2.43907
2.44971
2.46093
2.47298
2.48593
2.4998
2.5145
2.52988
2.54569
2.56165
2.5775
2.59297
2.60782
2.62182
2.63483
2.64671
2.65737
2.66674
2.67474
2.68133
2.68632
2.6892
2.68995
2.68843
2.68413
2.67659
2.66515
2.64907
2.62748
2.59975
2.56538
2.52447
2.47745
2.42415
2.3653
2.31632
2.2961
2.31398
2.36634
2.40148
2.572
2.59134
2.60865
2.62351
2.63559
2.64472
2.65082
2.65404
2.65456
2.65305
2.64945
2.64405
2.63741
2.62982
2.62167
2.61334
2.60515
2.59742
2.59039
2.58427
2.56922
2.58856
2.60603
2.62115
2.63356
2.64304
2.64948
2.65298
2.65374
2.65237
2.6489
2.64368
2.63719
2.62975
2.62177
2.61366
2.60572
2.59826
2.59151
2.58568
2.56578
2.58475
2.60208
2.61722
2.62978
2.63949
2.64624
2.65007
2.65113
2.65004
2.64685
2.64197
2.63581
2.6287
2.62109
2.61337
2.60584
2.59881
2.59249
2.58707
2.56171
2.57995
2.5968
2.61171
2.62424
2.63407
2.64106
2.64524
2.6467
2.64594
2.64323
2.63885
2.63318
2.62662
2.61959
2.61244
2.60552
2.59906
2.59331
2.58842
2.55711
2.57424
2.59028
2.60467
2.61695
2.62678
2.63396
2.63848
2.64042
2.6401
2.638
2.63429
2.6293
2.62349
2.61722
2.61085
2.60469
2.59898
2.59394
2.58968
2.55209
2.56775
2.58262
2.59621
2.60801
2.61767
2.62496
2.6298
2.63224
2.63252
2.63115
2.62821
2.62414
2.61926
2.61395
2.60854
2.60333
2.59853
2.59433
2.59083
2.54677
2.56061
2.57401
2.58647
2.59754
2.60684
2.61411
2.61923
2.6222
2.62317
2.62258
2.62061
2.61765
2.61389
2.60974
2.60548
2.60138
2.59764
2.59441
2.59176
2.54129
2.55301
2.5646
2.57563
2.58569
2.59441
2.6015
2.60682
2.61027
2.61202
2.61232
2.6115
2.60972
2.60732
2.60452
2.60161
2.5988
2.59626
2.59412
2.59241
2.53581
2.54513
2.55459
2.56388
2.57263
2.5805
2.58721
2.59259
2.59655
2.59904
2.60039
2.60073
2.60039
2.59947
2.59821
2.59683
2.59548
2.59429
2.59335
2.59268
2.53047
2.53713
2.54417
2.55138
2.5585
2.56522
2.57132
2.5766
2.58092
2.58422
2.58668
2.58839
2.58956
2.59029
2.59075
2.59107
2.59134
2.59164
2.59201
2.59246
2.52537
2.52915
2.53348
2.53828
2.54346
2.54863
2.55386
2.55887
2.56344
2.56743
2.57112
2.5743
2.57719
2.57977
2.58211
2.58426
2.5863
2.5882
2.58999
2.59164
2.52062
2.5213
2.52263
2.52465
2.5275
2.53088
2.5348
2.53926
2.54387
2.54874
2.55353
2.55843
2.56321
2.5678
2.57219
2.57636
2.58028
2.58391
2.5872
2.5901
2.51627
2.51365
2.51171
2.5106
2.51064
2.51167
2.51401
2.51755
2.52217
2.52775
2.53398
2.54066
2.5475
2.55432
2.56096
2.56731
2.57325
2.5787
2.58355
2.58775
2.51238
2.50624
2.50065
2.49597
2.49265
2.49101
2.49131
2.49352
2.49794
2.50437
2.51215
2.52085
2.53
2.53927
2.54837
2.55708
2.56518
2.57253
2.579
2.58451
2.50894
2.499
2.48941
2.48058
2.47336
2.46841
2.46617
2.467
2.47084
2.47819
2.48786
2.49887
2.51062
2.52262
2.53443
2.54568
2.55607
2.56539
2.57351
2.58034
2.50611
2.49205
2.47831
2.46468
2.45288
2.44388
2.43829
2.43737
2.44085
2.44895
2.4609
2.4746
2.48932
2.50439
2.5192
2.53321
2.54601
2.55735
2.56711
2.57523
2.50436
2.48612
2.46797
2.44885
2.43159
2.4178
2.40807
2.40475
2.40794
2.41714
2.43124
2.44791
2.46609
2.48472
2.50287
2.51984
2.53515
2.54854
2.55989
2.56921
2.50371
2.48098
2.45745
2.4306
2.40643
2.38703
2.37327
2.36915
2.37114
2.38362
2.39939
2.41936
2.44154
2.46414
2.4859
2.50598
2.52384
2.53922
2.55204
2.56242
2.50171
2.47335
2.44391
2.41959
2.39331
2.36833
2.34907
2.33556
2.33441
2.34683
2.36388
2.38958
2.4166
2.44353
2.46903
2.49226
2.51259
2.52979
2.54385
2.55503
2.50756
2.48158
2.44871
2.41382
2.37858
2.34716
2.32001
2.30301
2.3035
2.30454
2.3241
2.35781
2.39248
2.42436
2.45357
2.47975
2.50224
2.52086
2.53578
2.54734
2.51659
2.48657
2.45051
2.40966
2.36914
2.33213
2.30109
2.27833
2.26912
2.27512
2.29626
2.32788
2.37126
2.40856
2.4411
2.46964
2.49371
2.51317
2.52833
2.53972
2.52649
2.4937
2.45599
2.41406
2.37132
2.33073
2.29594
2.26892
2.25435
2.25471
2.27573
2.31436
2.35647
2.39798
2.43314
2.46312
2.48786
2.50736
2.52201
2.53251
2.53775
2.50421
2.46448
2.42088
2.37617
2.33471
2.29753
2.27011
2.25383
2.25216
2.2697
2.30901
2.35185
2.3942
2.4303
2.46057
2.485
2.50369
2.51707
2.52589
2.54886
2.51593
2.47723
2.43432
2.38984
2.34781
2.31185
2.28443
2.26762
2.26529
2.28211
2.31581
2.35712
2.39655
2.43177
2.46138
2.48468
2.50188
2.51332
2.51974
2.55902
2.52779
2.49103
2.44986
2.40684
2.36594
2.33119
2.30565
2.29033
2.28731
2.30083
2.33015
2.36626
2.40317
2.43637
2.46428
2.48589
2.50129
2.51028
2.51349
2.56786
2.53926
2.50587
2.469
2.43042
2.39236
2.35696
2.32658
2.31162
2.30958
2.32182
2.34647
2.37765
2.40984
2.43999
2.46494
2.48501
2.49967
2.50718
2.5083
2.57439
2.54853
2.51862
2.4854
2.45036
2.41547
2.38256
2.35468
2.33881
2.33447
2.34136
2.35923
2.38424
2.41206
2.43891
2.46207
2.47989
2.49066
2.49372
2.49021
2.57955
2.55641
2.52958
2.49987
2.46814
2.43605
2.40496
2.37764
2.36013
2.35391
2.35632
2.36802
2.38633
2.40824
2.43055
2.45058
2.4665
2.47598
2.47887
2.47519
2.5833
2.56243
2.53828
2.51129
2.48228
2.45214
2.42275
2.39595
2.37634
2.36758
2.3661
2.37229
2.38501
2.40128
2.4185
2.43438
2.44712
2.45361
2.4541
2.44785
2.586
2.56687
2.54467
2.5197
2.49237
2.46358
2.43436
2.40727
2.38574
2.37392
2.37016
2.37241
2.38055
2.39241
2.40571
2.41838
2.42811
2.43224
2.4314
2.42376
2.5877
2.56995
2.54907
2.52522
2.49866
2.47004
2.44067
2.41272
2.38931
2.37497
2.36875
2.36782
2.37226
2.3807
2.391
2.40127
2.40929
2.4123
2.41091
2.40311
2.58834
2.57147
2.55136
2.52798
2.50151
2.4725
2.44222
2.41305
2.38801
2.37084
2.36219
2.35937
2.36103
2.36706
2.37542
2.3842
2.3913
2.39421
2.39334
2.38683
2.58773
2.57129
2.5514
2.52788
2.50076
2.47058
2.43881
2.40777
2.38121
2.36211
2.35158
2.34758
2.34746
2.35216
2.35967
2.36805
2.37546
2.37926
2.37949
2.3755
2.58565
2.56913
2.54884
2.52445
2.49596
2.46401
2.4303
2.39769
2.36948
2.34939
2.33777
2.33301
2.33244
2.33672
2.3444
2.35334
2.36169
2.36774
2.3705
2.37029
2.58168
2.56458
2.54329
2.51741
2.48693
2.45276
2.41699
2.38285
2.35402
2.33356
2.32163
2.31708
2.31669
2.3217
2.33032
2.34048
2.35066
2.35956
2.36638
2.36951
2.5754
2.55718
2.53431
2.50636
2.47348
2.43692
2.39927
2.36422
2.33519
2.316
2.30461
2.30085
2.30158
2.30811
2.31832
2.33064
2.34299
2.3551
2.36502
2.37185
2.56629
2.5464
2.5214
2.49093
2.45542
2.41664
2.37776
2.34261
2.31487
2.29756
2.28797
2.28542
2.28823
2.2969
2.30961
2.32427
2.33977
2.35452
2.36825
2.38005
2.55388
2.53176
2.50415
2.47088
2.43284
2.39239
2.35317
2.31928
2.29419
2.27937
2.27269
2.27192
2.27777
2.28961
2.30486
2.3222
2.34032
2.35791
2.37463
2.38982
2.53776
2.51286
2.48228
2.44616
2.406
2.36483
2.32657
2.29509
2.27464
2.26283
2.25923
2.26159
2.27102
2.28562
2.30357
2.32338
2.34403
2.36429
2.38398
2.4023
2.5177
2.48953
2.45576
2.41702
2.37549
2.3348
2.29895
2.27207
2.2559
2.24868
2.24806
2.25456
2.26758
2.28508
2.30552
2.32789
2.35089
2.37406
2.39619
2.41702
2.49371
2.4619