/*--------------------------------*- C++ -*----------------------------------*\
  =========                 |
  \\      /  F ield         | OpenFOAM: The Open Source CFD Toolbox
   \\    /   O peration     | Website:  https://openfoam.org
    \\  /    A nd           | Version:  10
     \\/     M anipulation  |
\*---------------------------------------------------------------------------*/
FoamFile
{
    format      ascii;
    class       surfaceScalarField;
    location    "0.301433";
    object      phi;
}
// * * * * * * * * * * * * * * * * * * * * * * * * * * * * * * * * * * * * * //

dimensions      [1 0 -1 0 0 0 0];

internalField   nonuniform List<scalar> 
31672
(
0.000389041
-5.35441e-05
0.000388269
-5.65976e-05
0.000387836
-5.90408e-05
0.000387597
-6.09175e-05
0.000387399
-6.22642e-05
0.000387167
-6.30499e-05
0.000386791
-6.33074e-05
0.000386123
-6.30087e-05
0.00038511
-6.21583e-05
0.000383613
-6.07658e-05
0.000381596
-5.88195e-05
0.000379016
-5.63338e-05
0.000375807
-5.33095e-05
0.000372017
-4.97677e-05
0.000367681
-4.5742e-05
0.000362822
-4.12945e-05
0.000357655
-3.65242e-05
0.000352257
-3.14704e-05
0.000346741
-2.62572e-05
0.000341357
-2.09909e-05
0.000336252
-1.58781e-05
0.000331597
-1.10264e-05
0.000327555
-6.57993e-06
0.000324174
-2.63707e-06
0.000321534
7.87493e-07
0.000319644
3.52129e-06
0.000318512
5.67347e-06
0.000318176
7.10536e-06
0.000318495
7.95728e-06
0.000319503
8.13561e-06
0.000321074
7.7658e-06
0.000323148
6.83027e-06
0.000325666
5.41915e-06
0.000328533
3.56449e-06
0.000331664
1.31916e-06
0.00033499
-1.26125e-06
0.000338424
-4.1226e-06
0.000341882
-7.21444e-06
0.000345291
-1.0463e-05
0.000348563
-1.38091e-05
0.000351616
-1.71711e-05
0.00035447
-2.04776e-05
0.00035701
-2.3666e-05
0.000359138
-2.66281e-05
0.000360834
-2.9262e-05
0.000362028
-3.15061e-05
0.000362717
-3.3234e-05
0.000362914
-3.44019e-05
0.000362594
-3.49122e-05
0.000361893
-3.47515e-05
0.00036078
-3.38976e-05
0.000359455
-3.23198e-05
0.000358024
-3.01055e-05
-2.72612e-05
0.000356604
0.000386554
-5.06763e-05
0.000386212
-5.3229e-05
0.000386176
-5.52178e-05
0.000386352
-5.67219e-05
0.000386582
-5.77823e-05
0.00038676
-5.83562e-05
0.000386816
-5.84755e-05
0.000386566
-5.81224e-05
0.000385953
-5.72702e-05
0.000384896
-5.59191e-05
0.000383298
-5.40746e-05
0.000381116
-5.17154e-05
0.000378327
-4.88508e-05
0.00037491
-4.54913e-05
0.000370885
-4.16476e-05
0.000366341
-3.73635e-05
0.000361355
-3.27416e-05
0.000356067
-2.78074e-05
0.000350581
-2.26671e-05
0.000345092
-1.74258e-05
0.00033979
-1.22496e-05
0.000334836
-7.28003e-06
0.000330407
-2.66805e-06
0.000326588
1.47637e-06
0.000323485
5.05616e-06
0.000321098
8.07405e-06
0.000319484
1.03067e-05
0.000318587
1.19741e-05
0.000318455
1.28813e-05
0.00031897
1.31489e-05
0.000320125
1.27367e-05
0.00032181
1.17446e-05
0.000323985
1.01638e-05
0.00032654
8.08043e-06
0.000329431
5.52754e-06
0.000332554
2.57633e-06
0.000335832
-7.32514e-07
0.000339202
-4.339e-06
0.000342565
-8.16352e-06
0.00034587
-1.21474e-05
0.000349037
-1.62038e-05
0.000352001
-2.02692e-05
0.000354774
-2.42287e-05
0.000357209
-2.80079e-05
0.000359255
-3.15167e-05
0.0003609
-3.46233e-05
0.000362104
-3.72348e-05
0.000362835
-3.92481e-05
0.000363125
-4.05693e-05
0.000363006
-4.11471e-05
0.000362503
-4.09237e-05
0.000361742
-3.98674e-05
0.00036085
-3.8016e-05
-3.53788e-05
0.000359942
0.000384436
-4.77567e-05
0.0003844
-4.98226e-05
0.000384712
-5.1403e-05
0.000385253
-5.25927e-05
0.000385856
-5.33836e-05
0.000386402
-5.37923e-05
0.000386827
-5.37902e-05
0.000386983
-5.33745e-05
0.000386729
-5.2525e-05
0.00038607
-5.12239e-05
0.000384887
-4.94658e-05
0.000383078
-4.72293e-05
0.000380676
-4.45097e-05
0.000377637
-4.1316e-05
0.000373953
-3.76459e-05
0.000369695
-3.35298e-05
0.000364931
-2.90215e-05
0.000359785
-2.42344e-05
0.000354382
-1.91749e-05
0.000348828
-1.3983e-05
0.00034337
-8.75666e-06
0.000338159
-3.70237e-06
0.000333366
1.06801e-06
0.000329123
5.40114e-06
0.000325515
9.16259e-06
0.000322665
1.23454e-05
0.000320464
1.48647e-05
0.00031905
1.66062e-05
0.000318358
1.76869e-05
0.000318389
1.79881e-05
0.000319049
1.76113e-05
0.00032031
1.65266e-05
0.00032207
1.48266e-05
0.000324287
1.25174e-05
0.000326864
9.66091e-06
0.000329741
6.34694e-06
0.000332814
2.59397e-06
0.000336027
-1.52433e-06
0.000339344
-5.93714e-06
0.000342609
-1.05616e-05
0.000345802
-1.53267e-05
0.000348938
-2.01063e-05
0.000351889
-2.49015e-05
0.000354595
-2.95119e-05
0.000357021
-3.38718e-05
0.0003591
-3.78636e-05
0.000360822
-4.13451e-05
0.000362148
-4.42268e-05
0.000363081
-4.63674e-05
0.000363626
-4.77064e-05
0.000363814
-4.81231e-05
0.000363764
-4.76157e-05
0.000363525
-4.61552e-05
-4.37321e-05
0.000363233
0.000382636
-4.48345e-05
0.000382879
-4.64292e-05
0.000383493
-4.76398e-05
0.000384317
-4.85572e-05
0.000385235
-4.91308e-05
0.000386134
-4.93877e-05
0.000386858
-4.92801e-05
0.000387351
-4.88115e-05
0.000387478
-4.79639e-05
0.000387165
-4.67086e-05
0.000386354
-4.50197e-05
0.000384937
-4.28942e-05
0.000382905
-4.03007e-05
0.000380237
-3.72435e-05
0.000376891
-3.3729e-05
0.000372926
-2.97603e-05
0.000368419
-2.53843e-05
0.000363418
-2.069e-05
0.000358118
-1.57293e-05
0.000352582
-1.05738e-05
0.000346995
-5.35605e-06
0.000341542
-2.11469e-07
0.000336431
4.67493e-06
0.00033177
9.1707e-06
0.000327663
1.31462e-05
0.000324238
1.65186e-05
0.000321518
1.91655e-05
0.000319546
2.11525e-05
0.000318281
2.22946e-05
0.000317739
2.27036e-05
0.000317871
2.23248e-05
0.000318617
2.11936e-05
0.00031994
1.93506e-05
0.000321733
1.68389e-05
0.000323954
1.36937e-05
0.000326509
1.00082e-05
0.000329325
5.81388e-06
0.000332366
1.17977e-06
0.000335528
-3.81418e-06
0.000338745
-9.08811e-06
0.000341973
-1.45538e-05
0.000345173
-2.01056e-05
0.000348317
-2.56822e-05
0.000351284
-3.11264e-05
0.000354049
-3.63638e-05
0.00035659
-4.12232e-05
0.000358839
-4.55965e-05
0.000360786
-4.93306e-05
0.000362427
-5.23101e-05
0.000363721
-5.44032e-05
0.000364709
-5.55025e-05
0.000365468
-5.55516e-05
0.000366011
-5.44884e-05
-5.23039e-05
0.00036646
0.000381103
-4.19131e-05
0.0003816
-4.31082e-05
0.000382472
-4.40083e-05
0.000383559
-4.46556e-05
0.00038473
-4.50447e-05
0.0003859
-4.51603e-05
0.000386912
-4.49857e-05
0.00038772
-4.44792e-05
0.000388203
-4.36284e-05
0.00038821
-4.24057e-05
0.000387737
-4.07763e-05
0.000386729
-3.87293e-05
0.000385033
-3.62365e-05
0.000382712
-3.32856e-05
0.000379734
-2.98872e-05
0.000376074
-2.60415e-05
0.000371816
-2.1776e-05
0.000367009
-1.71448e-05
0.000361831
-1.22728e-05
0.000356327
-7.16305e-06
0.000350654
-1.94714e-06
0.000345021
3.25048e-06
0.000339567
8.2391e-06
0.000334495
1.28789e-05
0.000329921
1.70271e-05
0.000325945
2.05712e-05
0.000322638
2.34168e-05
0.000320054
2.55053e-05
0.000318196
2.68006e-05
0.000317029
2.72753e-05
0.000316576
2.68809e-05
0.000316766
2.57191e-05
0.000317539
2.3738e-05
0.000318877
2.10137e-05
0.000320668
1.7589e-05
0.00032285
1.35298e-05
0.00032537
8.88952e-06
0.000328165
3.7412e-06
0.000331138
-1.83855e-06
0.000334246
-7.76841e-06
0.000337458
-1.39132e-05
0.000340744
-2.0259e-05
0.000344004
-2.66083e-05
0.000347219
-3.2908e-05
0.000350341
-3.90049e-05
0.000353321
-4.47353e-05
0.000356125
-4.9985e-05
0.00035876
-5.45847e-05
0.000361126
-5.83968e-05
0.000363247
-6.12523e-05
0.00036516
-6.305e-05
0.000366821
-6.36736e-05
0.000368299
-6.30259e-05
-6.11175e-05
0.000369664
0.000379858
-3.90248e-05
0.000380542
-3.98717e-05
0.000381588
-4.0504e-05
0.000382885
-4.09444e-05
0.000384296
-4.11783e-05
0.000385704
-4.11872e-05
0.000387017
-4.09491e-05
0.000388086
-4.04183e-05
0.000388872
-3.95612e-05
0.000389234
-3.83564e-05
0.000389107
-3.67665e-05
0.000388427
-3.47649e-05
0.000387116
-3.23365e-05
0.000385139
-2.94551e-05
0.000382497
-2.61252e-05
0.000379166
-2.23558e-05
0.000375158
-1.81621e-05
0.000370587
-1.3591e-05
0.000365485
-8.73483e-06
0.000360051
-3.67438e-06
0.000354331
1.54988e-06
0.000348513
6.76208e-06
0.000342785
1.18481e-05
0.000337315
1.65963e-05
0.000332257
2.08897e-05
0.000327737
2.45915e-05
0.000323807
2.75928e-05
0.000320574
2.98164e-05
0.000318068
3.11994e-05
0.000316239
3.16969e-05
0.000315152
3.13439e-05
0.000314715
3.00838e-05
0.000314921
2.79697e-05
0.000315699
2.50299e-05
0.000316992
2.13139e-05
0.000318765
1.68804e-05
0.00032091
1.17922e-05
0.000323394
6.12598e-06
0.000326143
-3.17311e-08
0.000329092
-6.60272e-06
0.000332272
-1.34917e-05
0.000335562
-2.0561e-05
0.000338947
-2.77315e-05
0.000342387
-3.48618e-05
0.000345837
-4.1803e-05
0.000349282
-4.84092e-05
0.000352663
-5.4547e-05
0.000355974
-5.99996e-05
0.000359169
-6.46547e-05
0.000362203
-6.82877e-05
0.000365101
-7.0796e-05
0.000367803
-7.20081e-05
0.00037039
-7.18181e-05
-7.01846e-05
0.000372782
0.000378851
-3.61756e-05
0.000379645
-3.67512e-05
0.000380847
-3.71736e-05
0.000382304
-3.74625e-05
0.000383906
-3.75772e-05
0.000385564
-3.7515e-05
0.00038712
-3.72237e-05
0.000388469
-3.66712e-05
0.000389544
-3.58114e-05
0.000390257
-3.4609e-05
0.000390446
-3.30302e-05
0.000390107
-3.1041e-05
0.000389187
-2.8629e-05
0.000387555
-2.57671e-05
0.000385243
-2.24514e-05
0.000382223
-1.86978e-05
0.000378501
-1.45238e-05
0.000374125
-9.96531e-06
0.000369172
-5.08902e-06
0.000363796
-3.30997e-08
0.000358029
5.18458e-06
0.000352065
1.04461e-05
0.000346068
1.55753e-05
0.000340204
2.04334e-05
0.000334671
2.48343e-05
0.000329557
2.86562e-05
0.00032502
3.17749e-05
0.000321114
3.40974e-05
0.000317883
3.5549e-05
0.000315373
3.6083e-05
0.000313565
3.56763e-05
0.000312455
3.43263e-05
0.000312011
3.20533e-05
0.00031217
2.88859e-05
0.000312922
2.4859e-05
0.000314182
2.00439e-05
0.000315917
1.44984e-05
0.000318034
8.3227e-06
0.00032051
1.56483e-06
0.000323309
-5.63501e-06
0.00032634
-1.32535e-05
0.000329621
-2.10805e-05
0.000333106
-2.90353e-05
0.000336739
-3.6995e-05
0.00034052
-4.4791e-05
0.000344427
-5.22827e-05
0.000348403
-5.92855e-05
0.00035245
-6.5619e-05
0.000356489
-7.11171e-05
0.000360529
-7.55553e-05
0.000364496
-7.8798e-05
0.000368389
-8.0609e-05
0.00037218
-8.09157e-05
-7.9576e-05
0.000375816
0.000378043
-3.34001e-05
0.000378901
-3.3771e-05
0.0003802
-3.40513e-05
0.000381804
-3.42369e-05
0.000383566
-3.42896e-05
0.000385436
-3.41839e-05
0.000387235
-3.38663e-05
0.000388866
-3.32974e-05
0.000390245
-3.24285e-05
0.000391266
-3.12147e-05
0.000391816
-2.96152e-05
0.000391847
-2.76031e-05
0.00039127
-2.5151e-05
0.000390008
-2.22481e-05
0.000388016
-1.88813e-05
0.00038531
-1.50726e-05
0.000381869
-1.08447e-05
0.000377698
-6.2342e-06
0.000372912
-1.30581e-06
0.000367527
3.8267e-06
0.00036178
9.06655e-06
0.000355645
1.43622e-05
0.000349365
1.95567e-05
0.00034315
2.44815e-05
0.000337103
2.8966e-05
0.000331425
3.28679e-05
0.000326237
3.6062e-05
0.000321609
3.84363e-05
0.00031765
3.99126e-05
0.000314371
4.04292e-05
0.000311817
3.99551e-05
0.000309973
3.84795e-05
0.000308804
3.60148e-05
0.000308312
3.25845e-05
0.000308439
2.8239e-05
0.000309125
2.30212e-05
0.000310366
1.70198e-05
0.000312069
1.02915e-05
0.000314223
2.9516e-06
0.000316789
-4.92738e-06
0.000319668
-1.31969e-05
0.000322884
-2.1778e-05
0.000326426
-3.05443e-05
0.000330255
-3.93305e-05
0.000334366
-4.7985e-05
0.000338715
-5.63538e-05
0.000343305
-6.42469e-05
0.000348098
-7.14764e-05
0.000353051
-7.78377e-05
0.000358168
-8.31238e-05
0.000363326
-8.71168e-05
0.000368514
-8.96009e-05
0.000373681
-9.04258e-05
-8.94292e-05
0.000378749
0.000377322
-3.07386e-05
0.000378251
-3.09694e-05
0.000379627
-3.1185e-05
0.000381317
-3.13195e-05
0.000383275
-3.13525e-05
0.000385306
-3.12449e-05
0.000387344
-3.09318e-05
0.000389273
-3.03567e-05
0.000390955
-2.9477e-05
0.000392304
-2.82328e-05
0.000393235
-2.65847e-05
0.000393625
-2.44999e-05
0.000393413
-2.19522e-05
0.000392535
-1.89335e-05
0.000390886
-1.54421e-05
0.0003885
-1.14893e-05
0.00038531
-7.12137e-06
0.00038136
-2.3757e-06
0.000376691
2.67755e-06
0.000371366
7.94116e-06
0.000365537
1.3274e-05
0.000359275
1.86215e-05
0.000352729
2.38855e-05
0.000346081
2.88706e-05
0.000339548
3.34046e-05
0.000333293
3.73471e-05
0.000327406
4.05584e-05
0.000322036
4.2933e-05
0.000317293
4.43727e-05
0.000313218
4.482e-05
0.000309849
4.42262e-05
0.000307212
4.25781e-05
0.000305283
3.98815e-05
0.000304051
3.61585e-05
0.000303496
3.14557e-05
0.000303571
2.58245e-05
0.000304245
1.93387e-05
0.000305472
1.2075e-05
0.00030723
4.13355e-06
0.000309465
-4.39022e-06
0.000312175
-1.33749e-05
0.000315341
-2.27118e-05
0.00031891
-3.22471e-05
0.000322899
-4.18617e-05
0.000327303
-5.13905e-05
0.000332113
-6.06545e-05
0.000337312
-6.94633e-05
0.000342891
-7.76122e-05
0.000348826
-8.48923e-05
0.000355041
-9.10634e-05
0.000361512
-9.58716e-05
0.00036816
-9.90926e-05
0.00037487
-0.000100495
-9.9897e-05
0.000381533
0.000376656
-2.81736e-05
0.000377597
-2.83891e-05
0.000379021
-2.85916e-05
0.000380829
-2.87608e-05
0.000382901
-2.88301e-05
0.000385168
-2.87553e-05
0.000387425
-2.84779e-05
0.000389645
-2.79196e-05
0.000391683
-2.70253e-05
0.000393392
-2.57383e-05
0.000394705
-2.40085e-05
0.000395502
-2.18005e-05
0.000395699
-1.90941e-05
0.000395195
-1.58776e-05
0.00039393
-1.21659e-05
0.000391837
-7.97343e-06
0.000388935
-3.3596e-06
0.000385175
1.62773e-06
0.000380596
6.89902e-06
0.000375319
1.23626e-05
0.000369369
1.78695e-05
0.000362953
2.3346e-05
0.000356111
2.86702e-05
0.000349051
3.37193e-05
0.000341989
3.82826e-05
0.000335076
4.22205e-05
0.000328483
4.53957e-05
0.000322354
4.76993e-05
0.000316772
4.90405e-05
0.000311851
4.93439e-05
0.000307626
4.85674e-05
0.000304127
4.66838e-05
0.000301372
4.37014e-05
0.000299362
3.96402e-05
0.000298064
3.45457e-05
0.000297463
2.84676e-05
0.000297529
2.14834e-05
0.000298223
1.36724e-05
0.000299533
5.1265e-06
0.000301433
-4.06067e-06
0.00030389
-1.37359e-05
0.000306906
-2.38194e-05
0.000310493
-3.41591e-05
0.000314629
-4.46128e-05
0.000319322
-5.50175e-05
0.000324568
-6.51951e-05
0.000330388
-7.49514e-05
0.000336761
-8.40823e-05
0.000343683
-9.23353e-05
0.000351121
-9.9476e-05
0.000358989
-0.000105198
0.000367207
-0.000109228
0.000375633
-0.000111304
-0.000111181
0.000384114
0.000375987
-2.57566e-05
0.000376867
-2.6021e-05
0.000378306
-2.63132e-05
0.000380222
-2.65909e-05
0.000382444
-2.67687e-05
0.000384912
-2.67907e-05
0.000387478
-2.65769e-05
0.000389993
-2.60602e-05
0.000392397
-2.51606e-05
0.000394538
-2.38158e-05
0.000396283
-2.19725e-05
0.000397543
-1.95908e-05
0.000398158
-1.6651e-05
0.000398075
-1.31504e-05
0.000397194
-9.10751e-06
0.00039544
-4.56081e-06
0.000392794
4.28182e-07
0.000389192
5.78262e-06
0.000384732
1.13866e-05
0.000379428
1.71596e-05
0.000373317
2.29402e-05
0.000366694
2.85924e-05
0.000359522
3.4056e-05
0.000352002
3.91586e-05
0.000344359
4.37359e-05
0.000336796
4.76255e-05
0.000329446
5.07079e-05
0.000322485
5.28694e-05
0.000316042
5.40305e-05
0.000310216
5.41088e-05
0.000305086
5.30702e-05
0.000300682
5.08798e-05
0.000297047
4.75474e-05
0.000294186
4.30916e-05
0.000292097
3.75542e-05
0.000290764
3.09932e-05
0.000290174
2.34841e-05
0.00029029
1.51042e-05
0.000291113
5.94603e-06
0.000292613
-3.89326e-06
0.000294784
-1.42716e-05
0.000297635
-2.5103e-05
0.000301169
-3.62429e-05
0.000305398
-4.75467e-05
0.000310338
-5.8856e-05
0.000316013
-6.99916e-05
0.000322444
-8.07559e-05
0.000329634
-9.09204e-05
0.000337571
-0.000100237
0.000346266
-0.000108463
0.00035564
-0.000115229
0.000365571
-0.000120189
0.000375929
-0.000123073
-0.000123539
0.000386465
0.000375164
-2.34534e-05
0.000376
-2.38908e-05
0.000377464
-2.43829e-05
0.000379461
-2.48569e-05
0.000381853
-2.52155e-05
0.000384563
-2.54058e-05
0.000387412
-2.53139e-05
0.000390322
-2.48666e-05
0.000393149
-2.39769e-05
0.000395756
-2.25697e-05
0.000397998
-2.05829e-05
0.000399739
-1.79744e-05
0.000400885
-1.47212e-05
0.000401261
-1.08345e-05
0.000400807
-6.3437e-06
0.000399389
-1.29443e-06
0.000396979
4.20801e-06
0.000393582
1.009e-05
0.000389147
1.61714e-05
0.000383761
2.2393e-05
0.000377526
2.85542e-05
0.000370563
3.44988e-05
0.000362987
4.01349e-05
0.000354935
4.53337e-05
0.000346656
4.99096e-05
0.000338347
5.37172e-05
0.0003302
5.66388e-05
0.000322374
5.85882e-05
0.000315013
5.94729e-05
0.000308246
5.92396e-05
0.000302155
5.78397e-05
0.000296811
5.52569e-05
0.00029225
5.14944e-05
0.000288502
4.65746e-05
0.000285574
4.05426e-05
0.000283467
3.3456e-05
0.000282166
2.5387e-05
0.000281656
1.6418e-05
0.000281937
6.64001e-06
0.000283008
-3.86847e-06
0.000284839
-1.49451e-05
0.000287474
-2.65278e-05
0.000290917
-3.84734e-05
0.000295196
-5.0646e-05
0.000300343
-6.28883e-05
0.000306397
-7.50286e-05
0.000313393
-8.68635e-05
0.000321376
-9.81637e-05
0.000330379
-0.000108686
0.000340392
-0.000118141
0.000351353
-0.00012608
0.000363106
-0.000132189
0.000375576
-0.000136043
-0.000137239
0.000388433
0.000374079
-2.12696e-05
0.000374868
-2.20146e-05
0.000376355
-2.28217e-05
0.000378435
-2.36028e-05
0.000381029
-2.42466e-05
0.000383988
-2.46725e-05
0.000387201
-2.47692e-05
0.00039056
-2.44452e-05
0.000393868
-2.35868e-05
0.000397041
-2.21208e-05
0.000399879
-1.99655e-05
0.000402228
-1.7077e-05
0.000403927
-1.34293e-05
0.000404871
-9.0478e-06
0.000404846
-3.97408e-06
0.00040385
1.75546e-06
0.000401702
7.93808e-06
0.000398402
1.45215e-05
0.000394015
2.13077e-05
0.000388454
2.81162e-05
0.000381953
3.4805e-05
0.000374591
4.11411e-05
0.000366537
4.70642e-05
0.000357849
5.2392e-05
0.000348846
5.69605e-05
0.000339726
6.06517e-05
0.000330696
6.33577e-05
0.000321939
6.50046e-05
0.000313613
6.55206e-05
0.000305853
6.48657e-05
0.000298763
6.29978e-05
0.000292435
5.99206e-05
0.000286913
5.56346e-05
0.00028224
5.01728e-05
0.000278443
4.3581e-05
0.000275516
3.59167e-05
0.000273471
2.7251e-05
0.000272302
1.76657e-05
0.000272007
7.24678e-06
0.000272576
-3.91733e-06
0.000274035
-1.5714e-05
0.000276396
-2.80488e-05
0.000279694
-4.08089e-05
0.000283964
-5.38687e-05
0.000289256
-6.70801e-05
0.000295635
-8.02816e-05
0.000303157
-9.32721e-05
0.000311892
-0.000105822
0.000321954
-0.000117733
0.000333246
-0.000128535
0.00034585
-0.000137899
0.000359611
-0.000145392
0.000374327
-0.000150453
-0.000152593
0.000389715
0.000372637
-1.91992e-05
0.000373347
-2.03924e-05
0.000374858
-2.1656e-05
0.000377064
-2.28648e-05
0.000379858
-2.39083e-05
0.000383159
-2.46791e-05
0.000386802
-2.50474e-05
0.000390658
-2.49041e-05
0.000394599
-2.41277e-05
0.000398412
-2.26143e-05
0.000401949
-2.02779e-05
0.000404971
-1.7056e-05
0.000407465
-1.29312e-05
0.000408874
-7.92004e-06
0.000409553
-2.05903e-06
0.000408915
4.47133e-06
0.000407031
1.15957e-05
0.000403873
1.9064e-05
0.000399292
2.67732e-05
0.000393672
3.44083e-05
0.000386733
4.17801e-05
0.000378887
4.86922e-05
0.000370181
5.49632e-05
0.000360763
6.0448e-05
0.000350914
6.50573e-05
0.00034089
6.85991e-05
0.000330894
7.10278e-05
0.000321124
7.2284e-05
0.000311764
7.23226e-05
0.000302948
7.11289e-05
0.000294818
6.86759e-05
0.000287471
6.49883e-05
0.000280957
6.00713e-05
0.000275345
5.39748e-05
0.000270648
4.6744e-05
0.00026689
3.84437e-05
0.000264077
2.91376e-05
0.000262212
1.89102e-05
0.000261302
7.83895e-06
0.000261345
-3.99755e-06
0.000262376
-1.65084e-05
0.000264399
-2.96019e-05
0.000267483
-4.31871e-05
0.000271669
-5.71521e-05
0.000277028
-7.13733e-05
0.00028364
-8.56975e-05
0.00029161
-9.99397e-05
0.000301038
-0.000113891
0.000312013
-0.000127296
0.000324621
-0.000139721
0.000338853
-0.000150763
0.00035457
-0.000159876
0.000371628
-0.000166374
-0.000169726
0.000389589
0.000370672
-1.72183e-05
0.000371316
-1.90322e-05
0.000372839
-2.09024e-05
0.000375196
-2.26927e-05
0.000378296
-2.42731e-05
0.000381953
-2.55039e-05
0.000386119
-2.62518e-05
0.000390615
-2.63832e-05
0.000395233
-2.57441e-05
0.000399873
-2.42242e-05
0.000404234
-2.17016e-05
0.000408221
-1.81057e-05
0.000411345
-1.34046e-05
0.00041378
-7.6216e-06
0.000414931
-8.83261e-07
0.000414709
6.82378e-06
0.000413165
1.50753e-05
0.000410024
2.38159e-05
0.00040554
3.26058e-05
0.000399504
4.12976e-05
0.000392097
4.95882e-05
0.000383495
5.72096e-05
0.000373999
6.39843e-05
0.000363677
6.97723e-05
0.000352837
7.43794e-05
0.000341754
7.77473e-05
0.000330676
7.98235e-05
0.000319798
8.05947e-05
0.000309327
8.00365e-05
0.000299431
7.81721e-05
0.000290233
7.50022e-05
0.000281834
7.0573e-05
0.000274315
6.49086e-05
0.000267739
5.80762e-05
0.000262136
5.012e-05
0.000257533
4.11167e-05
0.000253929
3.11232e-05
0.00025136
2.0221e-05
0.000249803
8.47997e-06
0.000249289
-4.03847e-06
0.00024984
-1.72602e-05
0.000251466
-3.11137e-05
0.000254261
-4.55282e-05
0.000258271
-6.04149e-05
0.000263588
-7.56802e-05
0.000270313
-9.11868e-05
0.000278597
-0.00010678
0.000288565
-0.000122259
0.000300359
-0.000137342
0.000314098
-0.00015161
0.000329831
-0.000164563
0.000347277
-0.000175507
0.00036637
-0.000183576
-0.00018829
0.000386458
0.000368046
-1.53069e-05
0.00036859
-1.79258e-05
0.000370185
-2.05846e-05
0.000372732
-2.31263e-05
0.000376135
-2.5396e-05
0.000380287
-2.72413e-05
0.000385061
-2.85075e-05
0.000390275
-2.90176e-05
0.000395812
-2.86187e-05
0.000401401
-2.71507e-05
0.000406815
-2.446e-05
0.000411739
-2.04547e-05
0.000416129
-1.50894e-05
0.000419143
-8.39052e-06
0.000421239
-3.73931e-07
0.000421648
8.55015e-06
0.00042037
1.83694e-05
0.000417412
2.85056e-05
0.000412573
3.88684e-05
0.000406089
4.89049e-05
0.000398041
5.83562e-05
0.000388566
6.69152e-05
0.000378063
7.43482e-05
0.000366603
8.04868e-05
0.000354563
8.51322e-05
0.000342271
8.8287e-05
0.000329977
8.99375e-05
0.00031789
9.01083e-05
0.000306236
8.882e-05
0.000295185
8.61354e-05
0.000284876
8.21002e-05
0.000275417
7.67857e-05
0.000266891
7.02488e-05
0.000259361
6.25646e-05
0.000252866
5.37926e-05
0.00024742
4.40136e-05
0.000243034
3.32815e-05
0.000239737
2.16733e-05
0.000237521
9.24285e-06
0.000236417
-3.96329e-06
0.000236435
-1.78908e-05
0.000237608
-3.24953e-05
0.000240019
-4.77357e-05
0.000243738
-6.3551e-05
0.000248873
-7.98819e-05
0.000255563
-9.66196e-05
0.000263984
-0.000113655
0.000274256
-0.00013076
0.000286611
-0.000147675
0.000301161
-0.000163913
0.000317874
-0.000178916
0.000336385
-0.000191554
0.000356518
-0.000201367
-0.000207325
0.000377711
0.000364546
-1.34288e-05
0.000365026
-1.70676e-05
0.000366683
-2.07133e-05
0.000369492
-2.42024e-05
0.000373288
-2.73488e-05
0.000378025
-2.99864e-05
0.000383517
-3.19293e-05
0.000389614
-3.29788e-05
0.000396205
-3.29448e-05
0.000402957
-3.16214e-05
0.000409589
-2.88131e-05
0.000415958
-2.43901e-05
0.000421316
-1.82582e-05
0.000425849
-1.04186e-05
0.000428689
-1.07946e-06
0.000429732
9.66441e-06
0.000428895
2.1223e-05
0.000425848
3.33671e-05
0.000420851
4.55445e-05
0.000413715
5.73225e-05
0.000404744
6.82541e-05
0.000394141
7.80097e-05
0.000382365
8.62853e-05
0.000369511
9.28577e-05
0.000356079
9.75444e-05
0.000342381
0.000100435
0.000328677
0.000101573
0.000315242
0.000101005
0.000302315
9.88241e-05
0.000290072
9.51477e-05
0.000278633
9.00824e-05
0.000268112
8.37248e-05
0.000258597
7.61752e-05
0.000250126
6.75195e-05
0.000242756
5.78344e-05
0.000236495
4.72026e-05
0.000231349
3.56817e-05
0.000227336
2.33331e-05
0.000224455
1.02e-05
0.000222734
-3.69235e-06
0.000222173
-1.83125e-05
0.000222826
-3.365e-05
0.000224757
-4.96995e-05
0.000228057
-6.64303e-05
0.000232845
-8.38279e-05
0.0002393
-0.000101817
0.000247593
-0.000120339
0.000257848
-0.000139107
0.000270303
-0.000157883
0.000284947
-0.000175968
0.000301577
-0.000192784
0.000319784
-0.000206814
0.000339412
-0.000218321
-0.00022522
0.00035952
0.000359981
-1.15585e-05
0.00036039
-1.64416e-05
0.000362227
-2.13081e-05
0.000365312
-2.59584e-05
0.000369588
-3.01881e-05
0.000374983
-3.38281e-05
0.000381323
-3.66465e-05
0.000388489
-3.84301e-05
0.000396292
-3.89286e-05
0.000404437
-3.78778e-05
0.000412672
-3.50546e-05
0.000420412
-3.02063e-05
0.000427589
-2.32504e-05
0.000433302
-1.41703e-05
0.000437319
-2.97546e-06
0.000439382
9.72988e-06
0.00043893
2.36183e-05
0.00043596
3.81679e-05
0.000430497
5.2729e-05
0.000422577
6.66771e-05
0.000412489
7.94855e-05
0.000400492
9.0748e-05
0.000387059
0.000100088
0.000372495
0.000107137
0.000357337
0.000111886
0.00034194
0.000114462
0.000326649
0.000114942
0.000311735
0.000113462
0.000297428
0.000110199
0.000283919
0.000105337
0.000271332
9.90499e-05
0.000259764
9.14787e-05
0.000249286
8.27607e-05
0.000239938
7.30034e-05
0.000231745
6.23043e-05
0.000224716
5.07416e-05
0.000218845
3.8381e-05
0.000214141
2.52617e-05
0.00021061
1.14195e-05
0.000208256
-3.15053e-06
0.000207083
-1.84412e-05
0.00020715
-3.44794e-05
0.0002085
-5.12984e-05
0.000211237
-6.89044e-05
0.00021549
-8.7337e-05
0.000221436
-0.000106533
0.00022925
-0.00012648
0.000238966
-0.00014683
0.000250724
-0.000167197
0.000264282
-0.000186684
0.000279302
-0.000204826
0.000295145
-0.000219399
0.000312077
-0.00023284
-0.000241934
0.000329647
0.000354135
-9.66293e-06
0.000354553
-1.60408e-05
0.000356529
-2.23715e-05
0.000359968
-2.84171e-05
0.000364799
-3.39664e-05
0.000370962
-3.88504e-05
0.00037831
-4.27725e-05
0.000386698
-4.55165e-05
0.000395851
-4.67454e-05
0.000405638
-4.614e-05
0.000415489
-4.3416e-05
0.000425165
-3.81738e-05
0.00043396
-3.04159e-05
0.00044146
-1.97928e-05
0.000447179
-6.76129e-06
0.000450176
8.59865e-06
0.000450367
2.52862e-05
0.000447535
4.28087e-05
0.000441576
6.03759e-05
0.000432643
7.70657e-05
0.000421118
9.22398e-05
0.000407369
0.000105421
0.00039198
0.000116063
0.000375444
0.000123596
0.00035823
0.000128466
0.000340833
0.000130618
0.000323702
0.00013025
0.000307151
0.000127632
0.000291398
0.000123051
0.000276602
0.000116779
0.000262872
0.000109056
0.000250287
0.000100083
0.000238897
9.00351e-05
0.000228721
7.90471e-05
0.000219768
6.72264e-05
0.00021204
5.46621e-05
0.000205507
4.14124e-05
0.000200161
2.75038e-05
0.000195996
1.29553e-05
0.000193016
-2.27689e-06
0.000191215
-1.82008e-05
0.000190633
-3.48873e-05
0.000191301
-5.24089e-05
0.000193336
-7.08094e-05
0.000196825
-9.01901e-05
0.000201916
-0.000110445
0.000208748
-0.000131619
0.000217149
-0.000153156
0.000227107
-0.000174498
0.000237889
-0.000194643
0.000249151
-0.000213138
0.000260779
-0.000228391
0.000274506
-0.000247248
-0.000273975
0.000299127
0.000346795
-7.72531e-06
0.000347212
-1.58448e-05
0.000349418
-2.39041e-05
0.00035325
-3.16057e-05
0.000358734
-3.87181e-05
0.000365765
-4.51271e-05
0.000374156
-5.03569e-05
0.000383797
-5.43455e-05
0.000394486
-5.64053e-05
0.000405859
-5.6462e-05
0.000417421
-5.38723e-05
0.000428656
-4.82858e-05
0.000439668
-3.98625e-05
0.00044893
-2.77427e-05
0.000456269
-1.24266e-05
0.00046103
5.58192e-06
0.000462078
2.57597e-05
0.000459694
4.69414e-05
0.000453452
6.82884e-05
0.000443535
8.85028e-05
0.000430444
0.000106663
0.000414659
0.000122251
0.000396958
0.000134279
0.000377919
0.000142709
0.000358285
0.000147637
0.000338636
0.00014921
0.000319459
0.000147751
0.000301114
0.000143701
0.000283828
0.000137501
0.000267735
0.000129535
0.000252911
0.000120127
0.000239395
0.000109542
0.000227206
9.799e-05
0.000216327
8.56372e-05
0.000206732
7.25981e-05
0.000198407
5.89637e-05
0.000191301
4.47858e-05
0.000185395
3.0075e-05
0.000180659
1.48283e-05
0.000177079
-1.02807e-06
0.000174647
-1.75314e-05
0.000173376
-3.47902e-05
0.000173266
-5.29116e-05
0.000174429
-7.19728e-05
0.000176896
-9.20912e-05
0.000180668
-0.000113147
0.000185798
-0.000135023
0.000191925
-0.000157062
0.000198407
-0.000178522
0.000204593
-0.000197874
0.000210222
-0.000217113
0.000219598
-0.000239562
0.000246469
-0.000288046
-0.000359487
0.000282367
0.000337652
-5.66386e-06
0.0003382
-1.59276e-05
0.00034064
-2.5919e-05
0.000344931
-3.55375e-05
0.000351176
-4.44828e-05
0.000358996
-5.26388e-05
0.000368433
-5.93738e-05
0.000379298
-6.46842e-05
0.000391013
-6.76117e-05
0.000403553
-6.83927e-05
0.000416117
-6.57483e-05
0.000429005
-6.03591e-05
0.000441508
-5.12451e-05
0.000452474
-3.76115e-05
0.000462102
-2.07108e-05
0.000468987
2.08623e-07
0.000471724
2.4308e-05
0.00047014
5.00601e-05
0.000463996
7.58511e-05
0.000453347
0.000100494
0.00043868
0.000122541
0.000421018
0.000141076
0.000401042
0.000154979
0.000379532
0.000164481
0.000357321
0.000169516
0.000335199
0.000170363
0.000313787
0.000167553
0.000293517
0.00016175
0.000274636
0.000153591
0.00025725
0.000143613
0.000241392
0.000132242
0.000227044
0.000119813
0.000214167
0.000106577
0.000202707
9.27215e-05
0.000192605
7.83752e-05
0.000183796
6.36186e-05
0.000176232
4.84806e-05
0.000169854
3.29645e-05
0.000164623
1.70332e-05
0.000160498
6.12878e-07
0.00015746
-1.64089e-05
0.000155482
-3.41354e-05
0.000154539
-5.27043e-05
0.00015466
-7.22259e-05
0.000155752
-9.27234e-05
0.000157668
-0.000114065
0.000160258
-0.000135845
0.000162666
-0.000157468
0.000164014
-0.000177425
0.000163937
-0.000196254
0.000166724
-0.000223308
0.000188071
-0.000285432
0.000205561
-0.000362312
-0.000410743
0.000225221
0.00032653
-3.58634e-06
0.000327173
-1.6184e-05
0.000329947
-2.83932e-05
0.000334746
-4.01955e-05
0.000341624
-5.11649e-05
0.000350254
-6.1199e-05
0.000360446
-6.94431e-05
0.000371802
-7.59577e-05
0.000383767
-7.94719e-05
0.000396296
-8.06791e-05
0.000408775
-7.79017e-05
0.000421539
-7.23395e-05
0.000434049
-6.31137e-05
0.000446914
-4.93384e-05
0.000459597
-3.17838e-05
0.0004696
-8.49695e-06
0.000475562
1.93746e-05
0.000475269
5.10851e-05
0.000469411
8.28417e-05
0.000458684
0.000112246
0.000442955
0.000139305
0.000423729
0.000161025
0.000401746
0.000177593
0.000377919
0.00018856
0.000353295
0.000193873
0.000328876
0.000193914
0.000305406
0.000189514
0.000283392
0.000181621
0.00026311
0.000171142
0.000244626
0.000158831
0.000227916
0.000145224
0.000212932
0.000130724
0.000199569
0.000115648
0.000187715
0.00010019
0.000177274
8.44576e-05
0.000168165
6.85259e-05
0.000160297
5.24171e-05
0.00015359
3.61087e-05
0.000147981
1.95329e-05
0.000143401
2.60981e-06
0.000139819
-1.48446e-05
0.000137147
-3.28989e-05
0.000135316
-5.17072e-05
0.000134168
-7.13328e-05
0.000133455
-9.16512e-05
0.000132885
-0.000112453
0.000131698
-0.000133201
0.000128942
-0.00015276
0.000123626
-0.000170805
0.000119809
-0.000197394
0.000128133
-0.000261303
0.000124605
-0.000337362
0.000116723
-0.000376996
-0.000405675
0.000108998
0.000313133
-1.53768e-06
0.000313894
-1.6655e-05
0.000317071
-3.13181e-05
0.000322341
-4.55119e-05
0.000329721
-5.85411e-05
0.000338748
-7.03854e-05
0.000348793
-7.96546e-05
0.000359399
-8.68535e-05
0.000369874
-9.00698e-05
0.000380442
-9.13182e-05
0.000390975
-8.78784e-05
0.000402117
-8.20569e-05
0.000416005
-7.53222e-05
0.000433782
-6.38321e-05