/*--------------------------------*- C++ -*----------------------------------*\
  =========                 |
  \\      /  F ield         | OpenFOAM: The Open Source CFD Toolbox
   \\    /   O peration     | Website:  https://openfoam.org
    \\  /    A nd           | Version:  10
     \\/     M anipulation  |
\*---------------------------------------------------------------------------*/
FoamFile
{
    format      ascii;
    class       volScalarField;
    location    "0.301433";
    object      T;
}
// * * * * * * * * * * * * * * * * * * * * * * * * * * * * * * * * * * * * * //

dimensions      [0 0 0 1 0 0 0];

internalField   nonuniform List<scalar> 
15984
(
0.00883709
0.00882558
0.00881157
0.00879687
0.00878019
0.00876497
0.00874743
0.00873205
0.00871701
0.00870292
0.00869203
0.00868211
0.00867494
0.00867087
0.00866781
0.00866787
0.0086694
0.00867256
0.00867556
0.00868113
0.00868369
0.00868864
0.00868947
0.00869035
0.00868884
0.00868691
0.00868179
0.00867676
0.00866919
0.0086618
0.00865275
0.00864408
0.00863511
0.00862612
0.00861767
0.00860991
0.00860283
0.00859691
0.00859282
0.00858955
0.00858917
0.00858994
0.00859155
0.00859762
0.00860437
0.00861446
0.008627
0.00864166
0.00865873
0.00867838
0.00869705
0.00872164
0.00874037
0.00876509
0.00884555
0.00883195
0.00881694
0.00880221
0.00878406
0.00876828
0.00874955
0.00873231
0.00871678
0.00870185
0.00868879
0.00867818
0.00866986
0.00866334
0.00865999
0.00865858
0.00865899
0.008661
0.00866486
0.00866888
0.00867324
0.00867714
0.00868046
0.00868133
0.00868232
0.00868012
0.00867805
0.00867319
0.0086675
0.00866161
0.00865357
0.00864666
0.00863817
0.00863018
0.00862321
0.0086152
0.00860961
0.0086037
0.00859992
0.00859731
0.00859582
0.00859694
0.00859897
0.00860375
0.0086101
0.00861983
0.00863016
0.0086443
0.00865995
0.00867795
0.00869697
0.00871866
0.00873948
0.00876113
0.00885203
0.00883719
0.00882293
0.00880587
0.00878787
0.00876997
0.00875177
0.00873268
0.00871567
0.008701
0.00868538
0.00867403
0.00866468
0.00865668
0.00865182
0.00864934
0.00864853
0.00864978
0.00865304
0.00865634
0.00866196
0.00866487
0.00867026
0.00867122
0.00867385
0.00867335
0.00867152
0.00866958
0.0086651
0.00866007
0.00865449
0.00864724
0.00864142
0.00863413
0.00862732
0.0086217
0.00861506
0.00861193
0.00860707
0.00860472
0.0086049
0.00860474
0.00860758
0.0086108
0.00861773
0.00862492
0.00863622
0.00864751
0.0086631
0.00867854
0.00869781
0.00871703
0.00873713
0.00875811
0.00885697
0.00884109
0.00882706
0.008808
0.00879107
0.00877054
0.00875244
0.008733
0.00871501
0.00869829
0.00868336
0.00866945
0.00865945
0.00864991
0.00864382
0.0086402
0.0086385
0.00863895
0.0086407
0.00864466
0.00864836
0.00865344
0.00865803
0.00866092
0.00866424
0.00866462
0.00866552
0.00866384
0.0086614
0.00865827
0.00865327
0.00864897
0.00864313
0.00863763
0.00863257
0.00862673
0.008623
0.00861899
0.00861565
0.00861399
0.00861351
0.00861459
0.00861625
0.00862031
0.00862558
0.00863355
0.00864176
0.00865412
0.0086665
0.00868142
0.00869844
0.00871669
0.00873474
0.00875551
0.00885985
0.00884444
0.00882878
0.00880987
0.00879172
0.00877138
0.00875181
0.008733
0.00871322
0.00869571
0.00868087
0.00866581
0.00865295
0.00864493
0.0086356
0.00863145
0.00862807
0.00862791
0.00862907
0.00863144
0.00863565
0.00864039
0.00864462
0.00865046
0.00865252
0.0086563
0.00865687
0.00865756
0.00865668
0.00865493
0.00865234
0.00864873
0.00864521
0.00864157
0.0086368
0.00863323
0.00862996
0.008627
0.00862434
0.00862412
0.00862364
0.00862479
0.0086268
0.00863051
0.00863582
0.00864194
0.00865064
0.00866059
0.00867116
0.00868598
0.00870012
0.00871606
0.00873386
0.00875143
0.00886129
0.0088461
0.00882863
0.00881125
0.00879085
0.00877225
0.00875075
0.00873157
0.00871239
0.00869356
0.00867741
0.00866167
0.00864887
0.00863749
0.00862946
0.00862192
0.00861864
0.00861679
0.00861704
0.00861896
0.0086228
0.00862683
0.0086323
0.00863686
0.00864217
0.00864518
0.00864814
0.00865047
0.00865056
0.0086512
0.00865005
0.0086484
0.00864637
0.0086438
0.00864156
0.00863943
0.00863658
0.00863577
0.0086339
0.00863404
0.0086346
0.00863553
0.00863825
0.00864212
0.00864646
0.00865274
0.00865921
0.00866907
0.00867785
0.00869001
0.00870298
0.00871639
0.00873311
0.00874577
0.00886158
0.00884543
0.00882908
0.00880983
0.0087916
0.00877061
0.00875022
0.00872969
0.00871077
0.00869114
0.00867329
0.00865885
0.00864351
0.00863133
0.00862194
0.00861394
0.00860888
0.00860582
0.00860544
0.00860663
0.00860872
0.00861429
0.00861783
0.00862414
0.00862941
0.00863385
0.00863922
0.00864111
0.00864496
0.0086456
0.00864712
0.00864717
0.00864685
0.00864672
0.00864583
0.00864482
0.0086443
0.00864349
0.00864425
0.00864423
0.00864555
0.00864774
0.00865053
0.00865386
0.00865849
0.00866373
0.00866982
0.00867755
0.00868497
0.00869596
0.00870541
0.00871897
0.00873033
0.00874532
0.00886098
0.00884365
0.00882852
0.00880805
0.00879018
0.00876917
0.00874826
0.0087279
0.00870783
0.00868823
0.00867012
0.00865392
0.00863821
0.00862551
0.00861417
0.00860664
0.00859898
0.00859574
0.0085937
0.00859398
0.00859628
0.00859925
0.0086054
0.0086106
0.00861594
0.00862309
0.00862731
0.00863292
0.00863684
0.00864023
0.00864349
0.00864494
0.00864696
0.00864838
0.00864908
0.00865046
0.00865115
0.00865215
0.0086535
0.00865504
0.00865756
0.00865983
0.00866317
0.00866679
0.0086711
0.00867522
0.00868131
0.00868663
0.00869416
0.00870176
0.00870955
0.00872044
0.00873043
0.00874181
0.00885712
0.00884315
0.00882387
0.00880721
0.00878687
0.00876618
0.00874638
0.00872475
0.00870469
0.00868488
0.00866662
0.00864855
0.00863396
0.00861906
0.00860761
0.00859798
0.00859013
0.00858575
0.00858219
0.00858205
0.00858327
0.00858637
0.00859113
0.00859667
0.00860404
0.00860966
0.00861612
0.0086229
0.00862883
0.00863372
0.00863866
0.00864268
0.00864592
0.00864977
0.00865227
0.00865529
0.00865762
0.00866074
0.00866314
0.00866601
0.00866928
0.00867257
0.0086761
0.00867984
0.00868358
0.00868805
0.00869233
0.00869765
0.00870245
0.00870827
0.00871541
0.00872209
0.00873
0.00873853
0.0088559
0.00883748
0.00882168
0.00880197
0.00878418
0.00876307
0.00874197
0.00872274
0.00870032
0.00868154
0.00866187
0.00864469
0.00862781
0.00861341
0.00860045
0.00858966
0.00858172
0.00857463
0.00857189
0.00856991
0.00857057
0.00857351
0.00857736
0.00858306
0.00859032
0.00859693
0.00860535
0.00861217
0.00861987
0.00862687
0.00863298
0.00863936
0.00864498
0.00865041
0.00865493
0.00865993
0.00866397
0.0086685
0.00867276
0.00867669
0.00868097
0.00868516
0.00868915
0.00869286
0.00869699
0.00870047
0.00870463
0.00870771
0.0087124
0.00871579
0.00872032
0.00872538
0.0087303
0.00873651
0.00884928
0.00883278
0.00881744
0.00879816
0.00877924
0.00875954
0.00873816
0.00871755
0.00869769
0.00867647
0.00865774
0.00863897
0.00862194
0.00860747
0.00859314
0.00858234
0.00857186
0.00856575
0.00856101
0.00855809
0.00855858
0.00856058
0.00856453
0.00856979
0.00857687
0.00858477
0.00859234
0.00860219
0.00861008
0.00861954
0.00862709
0.00863549
0.00864306
0.00865049
0.00865722
0.00866406
0.00867004
0.00867591
0.00868197
0.00868714
0.00869254
0.00869746
0.00870197
0.00870621
0.00870986
0.00871351
0.00871646
0.0087193
0.00872167
0.00872411
0.0087263
0.00872897
0.00873138
0.008734
0.00884402
0.0088266
0.0088121
0.00879217
0.00877467
0.0087533
0.00873342
0.00871289
0.00869193
0.00867173
0.00865193
0.00863372
0.00861656
0.00859981
0.00858683
0.00857298
0.00856466
0.00855538
0.0085506
0.00854746
0.0085467
0.008548
0.00855146
0.00855692
0.00856394
0.00857207
0.00858144
0.00859076
0.00860116
0.00861117
0.0086212
0.00863116
0.00864064
0.00865022
0.0086589
0.00866757
0.00867515
0.00868316
0.00869028
0.00869691
0.00870375
0.00870924
0.00871456
0.00871887
0.00872288
0.00872598
0.00872863
0.00873068
0.0087317
0.00873263
0.00873252
0.00873352
0.00873315
0.00873327
0.00883717
0.00882011
0.00880471
0.00878566
0.00876861
0.00874692
0.00872889
0.00870631
0.00868708
0.00866598
0.00864626
0.00862703
0.00860961
0.00859345
0.0085774
0.00856719
0.00855207
0.00854797
0.00853855
0.00853707
0.0085357
0.00853646
0.00853945
0.00854411
0.00855173
0.00855975
0.0085702
0.00858028
0.00859195
0.00860298
0.00861505
0.0086265
0.00863801
0.00864942
0.00866026
0.0086703
0.00868057
0.00868934
0.00869851
0.0087062
0.0087142
0.00872055
0.00872657
0.0087312
0.00873547
0.00873838
0.00874065
0.00874197
0.00874203
0.00874119
0.00874074
0.00873723
0.00873557
0.00873295
0.00882863
0.00881293
0.00879669
0.00877885
0.00876064
0.00874141
0.00872078
0.00870104
0.00867989
0.00865938
0.00863972
0.00862021
0.00860428
0.00858109
0.00857795
0.00854886
0.00855143
0.0085312
0.00853481
0.00852461
0.00852489
0.00852514
0.00852773
0.00853208
0.00853977
0.0085484
0.00855858
0.00857001
0.00858242
0.00859496
0.00860894
0.00862167
0.0086352
0.00864827
0.00866065
0.00867324
0.00868429
0.00869576
0.0087054
0.00871515
0.00872365
0.00873137
0.00873786
0.00874313
0.00874736
0.00875041
0.00875259
0.00875299
0.00875253
0.00875067
0.00874785
0.00874362
0.0087398
0.00873277
0.00882026
0.00880391
0.00878813
0.00877114
0.00875267
0.00873278
0.00871469
0.00869218
0.00867332
0.00865224
0.00863187
0.00861377
0.00859138
0.00858272
0.00855352
0.00855475
0.00853126
0.00853202
0.00851958
0.0085143
0.00851288
0.00851413
0.00851628
0.00852225
0.00852842
0.00853763
0.0085487
0.00856041
0.00857445
0.0085877
0.00860264
0.00861677
0.00863241
0.00864664
0.00866146
0.00867482
0.00868852
0.00870099
0.00871191
0.00872347
0.00873203
0.00874171
0.00874825
0.00875431
0.00875852
0.00876202
0.00876424
0.00876425
0.00876327
0.00876051
0.00875738
0.0087497
0.0087478
0.0087336
0.00880932
0.00879524
0.00877855
0.00876234
0.00874356
0.00872545
0.00870503
0.00868535
0.00866499
0.00864329
0.00862412
0.00860362
0.00858826
0.00856129
0.0085633
0.0085295
0.00853288
0.00851374
0.00851007
0.00850548
0.00850262
0.00850312
0.00850615
0.0085109
0.00851836
0.00852819
0.00853922
0.00855171
0.00856622
0.00858073
0.00859687
0.00861261
0.00862947
0.00864529
0.00866157
0.00867615
0.00869159
0.0087053
0.00871807
0.00873029
0.00874006
0.00875064
0.00875781
0.00876457
0.00876926
0.00877343
0.00877529
0.00877565
0.00877454
0.00877193
0.00876713
0.00876097
0.00875781
0.00873899
0.00880081
0.0087837
0.00877023
0.00875207
0.00873447
0.008716
0.00869529
0.00867657
0.00865585
0.00863402
0.00861505
0.00859576
0.00857211
0.00856502
0.0085334
0.00853579
0.00851137
0.00851016
0.00849861
0.00849392
0.00849293
0.00849347
0.00849684
0.00850124
0.00850971
0.00851894
0.0085307
0.00854419
0.00855934
0.00857483
0.00859135
0.0086088
0.0086264
0.00864372
0.00866167
0.00867749
0.00869422
0.00870902
0.0087234
0.00873636
0.00874741
0.00875868
0.00876647
0.00877408
0.00877945
0.00878444
0.00878571
0.00878783
0.00878641
0.00878495
0.00878051
0.00878055
0.00876308
0.00872913
0.00878816
0.0087754
0.00875902
0.00874122
0.00872467
0.00870514
0.008686
0.00866628
0.00864576
0.00862449
0.00860462
0.00858191
0.00856944
0.00853951
0.00853821
0.00851474
0.00850313
0.00849543
0.00848679
0.00848331
0.00848107
0.00848162
0.00848533
0.00849086
0.00850026
0.00851126
0.00852317
0.0085371
0.00855275
0.00856977
0.00858721
0.00860579
0.00862428
0.00864294
0.00866112
0.00867902
0.00869591
0.00871278
0.00872764
0.00874167
0.0087536
0.00876581
0.00877403
0.00878291
0.00878893
0.00879488
0.00879651
0.00880053
0.00880082
0.00880367
0.00879866
0.00878935
0.0087372
0.00866458
0.00877898
0.00876372
0.00874856
0.00873075
0.00871429
0.00869481
0.0086756
0.00865469
0.00863409
0.00861539
0.00858983
0.00857724
0.00854771
0.00854248
0.00851571
0.0085028
0.00849143
0.00848234
0.00847389
0.00847132
0.00847128
0.0084718
0.00847631
0.00848129
0.00849054
0.00850259
0.00851631
0.00853098
0.00854686
0.00856403
0.00858231
0.00860171
0.00862137
0.00864109
0.00866079
0.00867981
0.00869759
0.00871547
0.00873136
0.0087464
0.00875921
0.00877175
0.00878132
0.00879112
0.00879704
0.00880555
0.00880814
0.0088143
0.00882128
0.00882063
0.00879849
0.00877543
0.00855288
0.00835226
0.00876753
0.00875344
0.00873758
0.0087193
0.00870474
0.0086821
0.00866516
0.00864238
0.00862543
0.00859812
0.00858184
0.00855949
0.00854862
0.00851394
0.00851728
0.00848713
0.0084786
0.00847279
0.00846026
0.00845976
0.00845842
0.00846111
0.00846366
0.00847419
0.00848495
0.00849756
0.00851221
0.00852802
0.00854464
0.0085623
0.00858099
0.0086007
0.00862079
0.00864082
0.00866101
0.00868085
0.0086993
0.00871799
0.00873418
0.00875043
0.00876361
0.00877682
0.00878728
0.00879911
0.00880461
0.00881705
0.00882193
0.00883626
0.00883629
0.00882912
0.00873183
0.00858167
0.00791301
0.0067038
0.00876362
0.00874011
0.00872648
0.00870777
0.00869482
0.00866533
0.00866126
0.00862208
0.00862176
0.00857997
0.00857862
0.0085489
0.00851745
0.00850787
0.0084829
0.00846296
0.00844947
0.00844978
0.00844229
0.00844456
0.00844803
0.00845298
0.0084559
0.00846385
0.00847341
0.00848655
0.00850264
0.00852051
0.00853892
0.00855802
0.00857786
0.00859812
0.00861908
0.00863996
0.00866098
0.00868121
0.00870089
0.00871937
0.0087373
0.00875354
0.0087676
0.00878155
0.00879331
0.00880557
0.00881375
0.00882891
0.00884116
0.00885026
0.0088389
0.00878177
0.00844338
0.00765713
0.00597709
0.0049737
0.00875156
0.00873034
0.00871662
0.00869574
0.00868451
0.00865417
0.00864932
0.00861148
0.00861123
0.00856598
0.00856698
0.00850097
0.00850349
0.00844883
0.00839934
0.0083529
0.00834863
0.00834462
0.0083754
0.00839733
0.00841944
0.00843446
0.00845043
0.00846079
0.00847208
0.00848517
0.00850096
0.00851859
0.008537
0.00855583
0.00857615
0.00859735
0.00861882
0.00864014
0.00866145
0.00868198
0.00870209
0.00872111
0.00873941
0.0087559
0.00877093
0.00878513
0.00879929
0.00881065
0.00882764
0.00884358
0.00885762
0.00885218
0.00878868
0.00847662
0.00742192
0.0054746
0.00474826
0.00450045
0.00874017
0.0087187
0.00871055
0.00868109
0.00867851
0.00864112
0.00864155
0.00860097
0.00860024
0.00853124
0.00853429
0.00837796
0.00837024
0.00815268
0.007939
0.00777061
0.00776599
0.00785109
0.00799031
0.00814597
0.00829323
0.00839226
0.00842493
0.00844797
0.00846402
0.00848002
0.00849678
0.00851574
0.00853599
0.00855569
0.00857624
0.00859738
0.00861893
0.00864056
0.00866244
0.0086832
0.00870363
0.00872265
0.00874123
0.00875823
0.00877379
0.00878914
0.00880443
0.00882048
0.00884258
0.00885829
0.00885916
0.00881366
0.00852115
0.00736102
0.0053417
0.00460904
0.00444454
0.00441741
0.00873014
0.00871036
0.00869815
0.008673
0.00866568
0.00863606
0.00863228
0.008579
0.00857783
0.00839113
0.00840986
0.00795569
0.00744234
0.00693087
0.00627316
0.00586998
0.00592149
0.00597871
0.00638378
0.00723812
0.00785301
0.00814547
0.00835013
0.00843185
0.00846097
0.00847907
0.00849631
0.00851528
0.00853447
0.00855526
0.00857637
0.00859778
0.00861973
0.00864189
0.00866382
0.00868455
0.00870488
0.0087246
0.00874275
0.00875993
0.00877665
0.00879285
0.00881094
0.00883607
0.00885336
0.00886001
0.00882941
0.00860568
0.00751005
0.0053049
0.00455655
0.00443528
0.0044163
0.00441379
0.00872088
0.00870082
0.00868914
0.00866542
0.00865813
0.00862518
0.00861297
0.00850191
0.00842595
0.00796223
0.00726432
0.0062767
0.00537229
0.00487587
0.00459323
0.00448869
0.00449115
0.00463551
0.00467926
0.00527895
0.00625895
0.00755873
0.00810887
0.00831928
0.00841207
0.0084598
0.00849062
0.00851345
0.0085336
0.00855444
0.00857619
0.0085981
0.00862045
0.00864305
0.00866528
0.00868577
0.00870605
0.00872562
0.00874382
0.00876225
0.00877911
0.00879798
0.00882551
0.0088434
0.00885453
0.00883186
0.00867937
0.00780638
0.00540979
0.00455091
0.00443229
0.0044188
0.00441577
0.00441462
0.0087117
0.00869117
0.00868315
0.00865999
0.00864854
0.00858046
0.0085133
0.00812351
0.00744339
0.00615407
0.00513668
0.00461825
0.0043863
0.00428963
0.0042626
0.00426596
0.00427313
0.00432825
0.00433758
0.00460465
0.00484653
0.00639263
0.00763888
0.00823171
0.00841081
0.00846196
0.00849066
0.00851366
0.00853418
0.00855489
0.00857652
0.00859898
0.0086219
0.00864486
0.00866696
0.00868774
0.00870764
0.00872747
0.00874596
0.0087641
0.00878394
0.00881112
0.008832
0.00884417
0.00882376
0.0087154
0.00806567
0.00575893
0.00457134
0.00443487
0.00442289
0.00441997
0.00441594
0.00440827
0.00870214
0.00868486
0.00867799
0.00864594
0.00860244
0.00834436
0.00794632
0.00661314
0.00522662
0.00459631
0.00435311
0.0042645
0.00424059
0.00424036
0.00424683
0.00427942
0.0043941
0.00443065
0.00441447
0.00448847
0.004565
0.00538098
0.00690437
0.0079225
0.00831043
0.00844028
0.00848824
0.0085144
0.00853599
0.00855707
0.0085788
0.00860136
0.00862474
0.00864762
0.00866938
0.0086895
0.0087095
0.00872868
0.00874791
0.0087689
0.0087939
0.00882054
0.00882946
0.00880832
0.00871018
0.00824111
0.00622601
0.0046441
0.00443696
0.00442535
0.00442325
0.00442139
0.00441538
0.00440743
0.00869428
0.00868461
0.00865636
0.0085726
0.00825373
0.00747376
0.00559194
0.00471931
0.00437868
0.0042759
0.00424682
0.00423805
0.00424093
0.00426106
0.00430946
0.004434
0.00481208
0.00492318
0.00478218
0.00459405
0.00466746
0.00508311
0.00634965
0.00759094
0.00820305
0.00842059
0.00848657
0.00851498
0.00853649
0.00855788
0.0085801
0.00860369
0.00862731
0.00865032
0.00867135
0.00869137
0.00871109
0.00873091
0.00875234
0.00877753
0.00880693
0.00881408
0.00878781
0.00867467
0.00825298
0.00663217
0.00470708
0.00443956
0.00442596
0.00442418
0.00442315
0.00442061
0.00441698
0.00441079
0.0086911
0.00866334
0.00856435
0.00812457
0.00671339
0.00507211
0.00445141
0.00429376
0.00426175
0.00425072
0.00424424
0.00424862
0.00426913
0.00432673
0.00445948
0.004709
0.00547948
0.0057379
0.00549241
0.0049158
0.00481374
0.00518263
0.00640935
0.00763505
0.00821038
0.00842088
0.00848672
0.00851533
0.00853688
0.00855883
0.00858233
0.00860639
0.00863072
0.00865278
0.00867385
0.00869358
0.00871363
0.0087352
0.00876165
0.00879135
0.00879992
0.00876604
0.00859603
0.00808768
0.0060795
0.00463748
0.00445029
0.00442473
0.00442301
0.00442339
0.00442303
0.00442071
0.00441596
0.00441214
0.00866547
0.00854454
0.00801305
0.00597676
0.00461296
0.00431347
0.00428128
0.00426731
0.00425579
0.0042497
0.00425213
0.00426717
0.00431529
0.0044306
0.00467204
0.00514515
0.00631699
0.0066915
0.00629955
0.00531106
0.00503851
0.00531684
0.00649202
0.00766003
0.00822583
0.00842972
0.00848924
0.00851563
0.00853714
0.00856034
0.00858459
0.00861049
0.00863402
0.0086556
0.00867573
0.00869621
0.00871793
0.008745
0.00877504
0.00878554
0.00874825
0.0084546
0.00768413
0.00565872
0.00466942
0.00445724
0.00442311
0.00441984
0.00442006
0.00442088
0.00442113
0.00441928
0.00441532
0.00440977
0.00848512
0.00769485
0.00493886
0.00434228
0.00430042
0.00428742
0.00427531
0.00426139
0.00425385
0.00425297
0.0042613
0.0042973
0.00439015
0.00459472
0.00500331
0.00580842
0.00708429
0.00737623
0.00660828
0.00555901
0.00537035
0.00586405
0.00711044
0.00796417
0.00832056
0.0084492
0.00849197
0.00851536
0.00853823
0.00856214
0.00858824
0.0086143
0.00863747
0.008658
0.008679
0.00870043
0.0087272
0.00875944
0.00877238
0.00870574
0.00825281
0.00696729
0.00531033
0.00466793
0.00446223
0.00442349
0.00441857
0.00441865
0.00442084
0.00442166
0.0044215
0.00441836
0.00441473
0.00440918
0.00484249
0.00451839
0.00435022
0.00430241
0.00429184
0.00428171
0.00426704
0.00425735
0.0042555
0.00426022
0.0042819
0.00434755
0.00449539
0.00481198
0.00542008
0.00651913
0.00757045
0.00762856
0.00669703
0.00607064
0.00607011
0.00675375
0.00768904
0.00817715
0.0083865
0.00846314
0.00849281
0.00851659
0.00854078
0.00856766
0.00859372
0.00861803
0.00863984
0.00866083
0.00868323
0.00870945
0.00874397
0.00875481
0.00861616
0.00772297
0.00589145
0.00502609
0.0046195
0.00446236
0.00442284
0.00441632
0.00441594
0.00441819
0.0044202
0.00442102
0.00442114
0.00441886
0.00441593
0.0044102
0.00438413
0.00432639
0.00430466
0.00429627
0.00428447
0.00427213
0.0042611
0.00425675
0.00425788
0.00426807
0.00430534
0.00439814
0.00460633
0.00504625
0.0058818
0.00718332
0.00778536
0.0077169
0.00707641
0.00682292
0.00696219
0.00755237
0.00807332
0.00831744
0.00842441
0.00847056
0.00849535
0.00851801
0.00854562
0.00857223
0.00859847
0.00862237
0.0086433
0.008665
0.00869515
0.00872336
0.00871634
0.00840553
0.00703537
0.00539663
0.00480672
0.00455655
0.00445485
0.00442104
0.00441435
0.00441367
0.00441496
0.00441779
0.00441993
0.0044205
0.00442046
0.00441792
0.00441544
0.00441102
0.00432291
0.00430596
0.0042998
0.00428504
0.00427712
0.00426553
0.00425823
0.0042566
0.00426079
0.00427854
0.00433072
0.00445148
0.00471396
0.00525736
0.00630267
0.00760062
0.00796743
0.00791314
0.00760532
0.00750542
0.00768599
0.00804128
0.00828099
0.0083872
0.00845176
0.00847444
0.0084965
0.0085264
0.00855297
0.00857895
0.00860392
0.00862542
0.00864777
0.00867899
0.00869763
0.00867169
0.00826678
0.00663727
0.00512004
0.00467169
0.00450588
0.00444161
0.00441776
0.00441183
0.00441121
0.00441301
0.00441483
0.00441763
0.00441944
0.00441991
0.00441882
0.00441747
0.00441352
0.00440961
0.00430625
0.00430093
0.00428706
0.0042788
0.00426944
0.00426099
0.00425653
0.00425696
0.00426532
0.0042922
0.00436
0.00450622
0.00481135
0.00541772
0.00655913
0.00780022
0.00812291
0.00811475
0.00799763
0.00796538
0.00810012
0.00828223
0.00836963
0.00843555
0.0084523
0.00848037
0.00850768
0.00853595
0.00856121
0.00858601
0.00860863
0.00862996
0.00865909
0.00867535
0.00864352
0.00824456
0.00662248
0.00504775
0.0045997
0.00447159
0.00442896
0.00441309
0.0044088
0.00440824
0.00441051
0.0044126
0.00441497
0.00441757
0.00441866
0.00441907
0.00441741
0.00441622
0.00441231
0.00440836
0.0042996
0.00428751
0.00428142
0.00427147
0.00426391
0.00425761
0.00425594
0.00425907
0.00427289
0.00431012
0.00439393
0.00456277
0.00489589
0.00552655
0.00667504
0.00789083
0.00822868
0.00825393
0.00822579
0.00821872
0.00831263
0.0083763
0.00842293
0.00843445
0.00847586
0.00848929
0.00852386
0.00854438
0.00857046
0.00859301
0.00861417
0.00864001
0.00865839
0.00863893
0.00835778
0.00701235
0.00518801
0.00459469
0.00445381
0.00441881
0.00440943
0.00440676
0.00440645
0.00440824
0.00440995
0.00441264
0.00441528
0.00441675
0.00441754
0.00441767
0.00441597
0.00441363
0.00441019
0.00440522
0.00428858
0.0042804
0.00427374
0.00426584
0.00425897
0.0042557
0.0042559
0.00426298
0.00428413
0.00433421
0.00443577
0.00462824
0.00498502
0.00562337
0.00672885
0.0079109
0.00828498
0.00833634
0.00834242
0.00835584
0.00838234
0.00842426
0.00842396
0.00847558
0.00847544
0.00851341
0.0085313
0.00855573
0.00858091
0.00860094
0.00862409
0.00864608
0.00864457
0.00851419
0.00773107
0.00585084
0.00473021
0.00446202
0.00441361
0.00440555
0.00440412
0.00440442
0.00440559
0.00440769
0.00441018
0.00441281
0.00441479
0.00441568
0.00441616
0.00441605
0.00441315
0.00441174
0.00440653
0.00440133
0.00427975
0.00427328
0.00426724
0.00426053
0.00425569
0.00425416
0.00425681
0.00426837
0.00429799
0.00436137
0.00448048
0.00469221
0.00505725
0.00566991
0.00667777
0.00786859
0.0083011
0.00838856
0.00840379
0.00841569
0.00842704
0.0084365
0.00847216
0.00847087
0.00850195
0.00852782
0.00854762
0.00856995
0.00858993
0.00860862
0.00863593
0.00864344
0.00860586
0.00827631
0.00709178
0.00523925
0.00455715
0.00442095
0.00440257
0.00440102
0.00440252
0.00440452
0.00440577
0.00440805
0.00441056
0.00441275
0.00441376
0.00441426
0.00441445
0.00441266
0.00441155
0.00440653
0.00440357
0.00439614
0.00427208
0.00426663
0.00426144
0.00425575
0.00425327
0.00425319
0.00425901
0.00427681
0.0043171
0.00439692
0.00453886
0.00477682
0.00515872
0.00574978
0.00664716
0.00780972
0.0082697
0.00842041
0.0084282
0.0084509
0.00844965
0.00846976
0.0084679
0.00851175
0.00851877
0.00854454
0.00855658
0.00857777
0.00860185
0.00862534
0.00863761
0.00863195
0.00851893
0.0079627
0.00632515
0.00487604
0.00447063
0.00440618
0.00439901
0.00439933
0.00440287
0.00440425
0.00440584
0.00440823
0.0044106
0.00441166
0.00441246
0.00441289
0.00441136
0.0044096
0.00440693
0.004402
0.00439781
0.00438953
0.00426521
0.00426074
0.00425612
0.00425201
0.00425063
0.00425211
0.00426115
0.00428465
0.00433529
0.00443133
0.00459692
0.00486375
0.00526966
0.00585092
0.00665486
0.00767359
0.00833379
0.00838962
0.00845959
0.00846254
0.00848108
0.00847272
0.00851972
0.00851341
0.00853848
0.00855408
0.00857553
0.00859968
0.00861724
0.0086283
0.00862866
0.00857698
0.00828677
0.00730971
0.00546077
0.00461692
0.0044267
0.00439841
0.00439663
0.00440028
0.004403
0.00440418
0.00440676
0.00440917
0.00441016
0.0044108
0.00441105
0.00440984
0.0044084
0.00440485
0.00440293
0.00439503
0.00439076
0.0043806
0.00425917
0.00425534
0.00425156
0.00424881
0.00424796
0.0042509
0.00426215
0.00429003
0.00434942
0.00446126
0.00465199
0.00495178
0.00539421
0.00599618
0.00676518
0.00768925
0.00824818
0.0084287
0.00846259
0.00849367
0.00848987
0.00852816
0.00852133
0.00854257
0.00855758
0.00857756
0.00859382
0.00860614
0.00861125
0.00861358
0.0085878
0.00839792
0.00776035
0.00607434
0.00485436
0.00447864
0.00440574
0.00439666
0.00439721
0.00440154
0.00440312
0.00440505
0.00440758
0.0044088
0.00440947
0.00440954
0.00440812
0.00440678
0.00440502
0.0043999
0.00439703
0.00438784
0.0043833
0.00437039
0.00425392
0.00425059
0.00424787
0.00424575
0.00424524
0.00424895
0.0042616
0.00429173
0.00435518
0.0044756
0.00468541
0.00501895
0.00550246
0.00612925
0.00686211
0.00765333
0.00831176
0.00838634
0.00849305
0.00849847
0.00853138
0.00852278
0.00855666
0.00855606
0.00857876
0.00859129
0.00859636
0.00860228
0.0086003
0.00853457
0.00829754
0.0077019
0.00623025
0.00509936
0.00451281
0.00444291
0.00439778
0.00439736
0.0043993
0.00440361
0.00440426
0.00440764
0.00440845
0.00440902
0.00440891
0.00440845
0.00440597
0.00440464
0.00439946
0.00439547
0.00438969
0.00438037
0.00437272
0.00435958
0.00424925
0.00424708
0.00424509
0.00424299
0.00424263
0.00424624
0.00425838
0.0042883
0.00435294
0.00447664
0.00469357
0.00504544
0.00556238
0.00624695
0.00704263
0.0078216
0.00823597
0.00845207
0.00846722
0.00853528
0.00853537
0.00857169
0.00856828
0.00857966
0.00858277
0.00858374
0.00856985
0.00850161
0.00831446
0.00807048
0.00744087
0.00602652
0.00506361
0.00465104
0.00442643
0.00441445
0.00439867
0.00440043
0.0044033
0.00440527
0.0044073
0.00440912
0.0044096
0.00440976
0.00440917
0.00440691
0.00440409
0.00440158
0.00439469
0.00439086
0.00438063
0.00437341
0.00435995
0.00434721
0.0042458
0.00424463
0.00424351
0.0042414
0.00424075
0.00424298
0.0042507
0.00427035
0.00431512
0.00441213
0.00460369
0.00494337
0.00548166
0.00623333
0.00711289
0.00797464
0.00826286
0.00846462
0.00845608
0.00852026
0.00856018
0.00855946
0.00856879
0.00856804
0.00855525
0.00850712
0.00838638
0.0081392
0.00777895
0.00635738
0.00559115
0.00503198
0.00463193
0.00445542
0.0044115
0.00440461
0.00440133
0.00440504
0.00440684
0.00440898
0.00441079
0.00441127
0.00441155
0.00441102
0.00440922
0.00440577
0.00440317
0.00439782
0.0043916
0.00438421
0.00437434
0.00436269
0.00434938
0.00433217
0.00424339
0.00424302
0.00424279
0.00424156
0.00424125
0.00424301
0.00424855
0.00426201
0.00429258
0.00435812
0.00449133
0.0047451
0.00518839
0.00588541
0.00685132
0.00775408
0.00838444
0.00839093
0.00843014
0.00851868
0.00854454
0.00855219
0.00854351
0.00851027
0.00839153
0.00815417
0.00768451
0.00675455
0.00540621
0.00536428
0.00475638
0.00464336
0.00445057
0.00442301
0.00440621
0.00440597
0.00440583
0.00440995
0.0044127
0.00441338
0.00441446
0.00441467
0.00441391
0.00441257
0.0044099
0.0044055
0.00440236
0.00439522
0.00438824
0.00437876
0.00436754
0.00435331
0.00433754
0.00431879
0.00424156
0.00424253
0.00424289
0.00424276
0.00424306
0.00424478
0.00424869
0.00425772
0.00427591
0.0043131
0.00439058
0.00454514
0.00483287
0.00532256
0.00607749
0.00710436
0.00780602
0.00843537
0.00835084
0.00841484
0.00845402
0.00841568
0.00834727
0.00808629
0.00761177
0.0066996
0.005749
0.00518215
0.00487091
0.00470303
0.00451857
0.004464
0.00441672
0.00441243
0.00440892
0.00440935
0.00441282
0.00441663
0.00441781
0.00441892
0.00441925
0.00441891
0.0044167
0.00441464
0.00441113
0.00440565
0.00440178
0.00439256
0.00438528
0.00437354
0.00436076
0.00434444
0.00432714
0.00430377
0.00424069
0.00424259
0.00424417
0.00424497
0.00424632
0.00424858
0.00425185
0.00425804
0.00426934
0.0042898
0.00432945
0.00440634
0.00455379
0.0048173
0.00524675
0.00587628
0.00669447
0.00737058
0.00787121
0.00793976
0.00786386
0.00780442
0.00736784
0.00651159
0.00570776
0.00518427
0.00486808
0.00463014
0.00460366
0.00447464
0.0044437
0.00442037
0.00441346
0.00441288
0.00441238
0.0044176
0.00442034
0.00442337
0.00442414
0.00442457
0.00442462
0.00442318
0.00442047
0.00441741
0.00441318
0.00440656
0.00440182
0.00439106
0.00438319
0.00436843
0.0043561
0.00433564
0.00431738
0.00429299
0.0042404
0.00424324
0.00424585
0.00424745
0.00424984
0.00425299
0.00425649
0.00426157
0.00426885
0.004281
0.00430106
0.00433658
0.00440118
0.00451633
0.00470618
0.00498905
0.00535451
0.00573122
0.00615098
0.00610953
0.00617034
0.00598598
0.00551424
0.0050579
0.00479929
0.00459073
0.00458074
0.00447483
0.00446779
0.00442487
0.00441897
0.00441483
0.00441438
0.00441637
0.00442142
0.00442452
0.00442805
0.0044299
0.00443057
0.00443086
0.00443019
0.00442797
0.0044248
0.00442019
0.0044153
0.0044069
0.00440149
0.00438875
0.00437985
0.0043648
0.00434922
0.00433048
0.00430945
0.00428257
0.0042408
0.00424468
0.00424783
0.00425058
0.00425387
0.00425782
0.00426181
0.00426694
0.00427271
0.00428043
0.00429201
0.0043091
0.00433587
0.00438049
0.00445337
0.00456043
0.00470137
0.00485776
0.00493548
0.00497905
0.00497629
0.00489488
0.00470585
0.00452516
0.00451446
0.00445542
0.00445407
0.00442445
0.0044207
0.00441435
0.00441453
0.00441559
0.00442003
0.00442525
0.00442825
0.00443179
0.00443578
0.00443649
0.0044371
0.00443679
0.00443555
0.00443162
0.00442861
0.00442215
0.00441722
0.00440742
0.00440064
0.00438723
0.00437751
0.00436069
0.00434369
0.00432966
0.00429948
0.0042829
0.00424222
0.0042465
0.00425048
0.0042536
0.00425799
0.0042626
0.00426728
0.00427242
0.00427788
0.00428455
0.00429239
0.00430204
0.00431454
0.00433213
0.00435837
0.0043952
0.00444193
0.00449031
0.00451609
0.00452959
0.00452602
0.00449413
0.00444972
0.00442052
0.00442126
0.00441243
0.00441147
0.00440878
0.00441063
0.00441252
0.00441635
0.00442138
0.00442669
0.00443116
0.0044351
0.00443966
0.00444223
0.00444288
0.00444299
0.00444186
0.00443984
0.00443587
0.00443192
0.00442414
0.00441816
0.004407
0.0043987
0.00438475
0.00437257