/*--------------------------------*- C++ -*----------------------------------*\
  =========                 |
  \\      /  F ield         | OpenFOAM: The Open Source CFD Toolbox
   \\    /   O peration     | Website:  https://openfoam.org
    \\  /    A nd           | Version:  10
     \\/     M anipulation  |
\*---------------------------------------------------------------------------*/
FoamFile
{
    format      ascii;
    class       volVectorField;
    location    "0.301433";
    object      U;
}
// * * * * * * * * * * * * * * * * * * * * * * * * * * * * * * * * * * * * * //

dimensions      [0 1 -1 0 0 0 0];

internalField   nonuniform List<vector> 
15984
(
(0.481636 -0.0679138 0)
(0.481918 -0.0722953 0)
(0.483114 -0.0759094 0)
(0.484792 -0.0788451 0)
(0.486764 -0.0810818 0)
(0.48882 -0.0826044 0)
(0.490731 -0.0833937 0)
(0.492291 -0.0834284 0)
(0.493302 -0.0826968 0)
(0.493582 -0.0811851 0)
(0.492987 -0.0788906 0)
(0.491384 -0.0758073 0)
(0.488691 -0.0719471 0)
(0.484878 -0.0673436 0)
(0.479982 -0.0620554 0)
(0.474154 -0.0562144 0)
(0.467541 -0.0499063 0)
(0.460315 -0.0432446 0)
(0.452719 -0.0364082 0)
(0.44508 -0.0295789 0)
(0.437741 -0.0229878 0)
(0.430978 -0.0167961 0)
(0.42504 -0.011163 0)
(0.420057 -0.00618553 0)
(0.416194 -0.00191455 0)
(0.413523 0.00152178 0)
(0.412012 0.00418608 0)
(0.411671 0.00601521 0)
(0.412429 0.0070258 0)
(0.414183 0.00728998 0)
(0.416835 0.00684207 0)
(0.420278 0.00572399 0)
(0.424376 0.00400879 0)
(0.428985 0.00174917 0)
(0.433983 -0.000992093 0)
(0.439232 -0.00414468 0)
(0.444588 -0.00763932 0)
(0.44991 -0.0113962 0)
(0.455061 -0.0153349 0)
(0.459891 -0.01936 0)
(0.464302 -0.0233714 0)
(0.468182 -0.0272785 0)
(0.471369 -0.0309396 0)
(0.473777 -0.0342847 0)
(0.475296 -0.0371262 0)
(0.475845 -0.0394046 0)
(0.475411 -0.0409684 0)
(0.473984 -0.0417677 0)
(0.471635 -0.0417281 0)
(0.468451 -0.040828 0)
(0.46457 -0.0390964 0)
(0.460221 -0.0365473 0)
(0.455651 -0.0332703 0)
(0.451092 -0.0293667 0)
(0.477168 -0.064301 0)
(0.478114 -0.0679927 0)
(0.479949 -0.0710305 0)
(0.48228 -0.0734675 0)
(0.484903 -0.0753212 0)
(0.487622 -0.0765597 0)
(0.490212 -0.0771652 0)
(0.49247 -0.0771104 0)
(0.494198 -0.0763731 0)
(0.495208 -0.0749285 0)
(0.495349 -0.0727581 0)
(0.494492 -0.0698581 0)
(0.492533 -0.0662209 0)
(0.489421 -0.0618637 0)
(0.485163 -0.0568248 0)
(0.479859 -0.0511784 0)
(0.473671 -0.0450706 0)
(0.466751 -0.0385538 0)
(0.459302 -0.0318052 0)
(0.451609 -0.0249513 0)
(0.444002 -0.0182546 0)
(0.436809 -0.0118769 0)
(0.43029 -0.00600886 0)
(0.424658 -0.000773837 0)
(0.42003 0.00376158 0)
(0.416537 0.00748679 0)
(0.414218 0.010356 0)
(0.413022 0.0123803 0)
(0.412948 0.0135262 0)
(0.413928 0.0138413 0)
(0.415847 0.0133656 0)
(0.418604 0.012147 0)
(0.422079 0.0102215 0)
(0.426136 0.00766741 0)
(0.43065 0.00453955 0)
(0.435482 0.00091264 0)
(0.440507 -0.00315469 0)
(0.445585 -0.00757062 0)
(0.450582 -0.0122515 0)
(0.455358 -0.0171047 0)
(0.459822 -0.0220172 0)
(0.46386 -0.0268907 0)
(0.467321 -0.0315926 0)
(0.470145 -0.0359968 0)
(0.472195 -0.039975 0)
(0.473395 -0.0433811 0)
(0.47372 -0.0460817 0)
(0.473137 -0.047971 0)
(0.471687 -0.0489455 0)
(0.469409 -0.0489636 0)
(0.466444 -0.0480028 0)
(0.462961 -0.0460438 0)
(0.459159 -0.0431802 0)
(0.45529 -0.0394648 0)
(0.473429 -0.0606175 0)
(0.474914 -0.0636943 0)
(0.477308 -0.0661952 0)
(0.480185 -0.0681887 0)
(0.483366 -0.0696939 0)
(0.486662 -0.0706659 0)
(0.489844 -0.0710927 0)
(0.492711 -0.0709464 0)
(0.495078 -0.0702037 0)
(0.49676 -0.068823 0)
(0.497584 -0.0667745 0)
(0.497425 -0.0640392 0)
(0.496172 -0.0606086 0)
(0.49375 -0.0564808 0)
(0.490143 -0.0516793 0)
(0.485392 -0.0462526 0)
(0.479662 -0.0403125 0)
(0.473098 -0.0339665 0)
(0.465864 -0.0273017 0)
(0.458205 -0.0204862 0)
(0.450422 -0.0136986 0)
(0.442862 -0.0071736 0)
(0.43581 -0.00107771 0)
(0.429515 0.00442455 0)
(0.424159 0.00921055 0)
(0.419833 0.0132064 0)
(0.416622 0.0163189 0)
(0.414552 0.0185152 0)
(0.413587 0.0198391 0)
(0.413705 0.020244 0)
(0.41481 0.0197679 0)
(0.416793 0.0184557 0)
(0.419552 0.0163596 0)
(0.422961 0.0135211 0)
(0.426896 0.0100158 0)
(0.43123 0.00591438 0)
(0.435824 0.00128573 0)
(0.440572 -0.00379334 0)
(0.445329 -0.0092217 0)
(0.449972 -0.0149043 0)
(0.454411 -0.0207293 0)
(0.458549 -0.026563 0)
(0.462248 -0.0323167 0)
(0.465418 -0.0378016 0)
(0.467966 -0.042906 0)
(0.469819 -0.0474574 0)
(0.47092 -0.0513005 0)
(0.471236 -0.0543062 0)
(0.470767 -0.0563305 0)
(0.469528 -0.0573007 0)
(0.467624 -0.0571356 0)
(0.465186 -0.0558277 0)
(0.462369 -0.0534046 0)
(0.459409 -0.049909 0)
(0.47037 -0.0569546 0)
(0.472288 -0.0594277 0)
(0.475143 -0.061432 0)
(0.478478 -0.0630294 0)
(0.482136 -0.0642093 0)
(0.485927 -0.0649532 0)
(0.489625 -0.0652335 0)
(0.493027 -0.0650128 0)
(0.495959 -0.0642572 0)
(0.498246 -0.0629276 0)
(0.499716 -0.0609824 0)
(0.500219 -0.0583895 0)
(0.499641 -0.0551339 0)
(0.497894 -0.0512093 0)
(0.494937 -0.0466203 0)
(0.490782 -0.0414022 0)
(0.485529 -0.0356191 0)
(0.479351 -0.0294241 0)
(0.472394 -0.0228608 0)
(0.464848 -0.0160927 0)
(0.456978 -0.00926211 0)
(0.449114 -0.00260645 0)
(0.441596 0.00368649 0)
(0.43467 0.00942529 0)
(0.428544 0.0144753 0)
(0.42338 0.0187013 0)
(0.419254 0.022075 0)
(0.416261 0.024493 0)
(0.414384 0.0259578 0)
(0.413549 0.0264594 0)
(0.413741 0.0260055 0)
(0.41487 0.0246061 0)
(0.416818 0.022337 0)
(0.419473 0.0192284 0)
(0.42274 0.0153567 0)
(0.426471 0.0107808 0)
(0.430549 0.005585 0)
(0.434867 -0.000152619 0)
(0.439303 -0.0063328 0)
(0.443729 -0.0128456 0)
(0.448089 -0.0195729 0)
(0.452244 -0.0263697 0)
(0.456097 -0.0331676 0)
(0.459607 -0.0397337 0)
(0.462621 -0.0459567 0)
(0.465108 -0.0516543 0)
(0.467 -0.0566403 0)
(0.468251 -0.0607678 0)
(0.468848 -0.0638578 0)
(0.468766 -0.065807 0)
(0.468081 -0.0664757 0)
(0.466858 -0.0658535 0)
(0.465245 -0.0639001 0)
(0.463418 -0.0606545 0)
(0.467967 -0.0533028 0)
(0.470224 -0.0552194 0)
(0.473429 -0.0567786 0)
(0.477137 -0.0580285 0)
(0.481185 -0.0589361 0)
(0.485381 -0.0594929 0)
(0.489521 -0.0596511 0)
(0.493411 -0.0593649 0)
(0.49686 -0.0585882 0)
(0.499708 -0.0572856 0)
(0.501782 -0.0554141 0)
(0.502914 -0.0529358 0)
(0.502984 -0.0498195 0)
(0.501897 -0.0460544 0)
(0.499584 -0.0416406 0)
(0.496038 -0.0365954 0)
(0.4913 -0.0309699 0)
(0.485533 -0.0248688 0)
(0.47889 -0.0184192 0)
(0.471517 -0.0116843 0)
(0.46364 -0.00484847 0)
(0.45556 0.00192044 0)
(0.447602 0.00836736 0)
(0.440069 0.0143178 0)
(0.433202 0.0195952 0)
(0.427194 0.0240869 0)
(0.422166 0.0276718 0)
(0.418175 0.0303163 0)
(0.415277 0.0319134 0)
(0.413465 0.0325095 0)
(0.412658 0.0320432 0)
(0.412822 0.0305886 0)
(0.413873 0.028138 0)
(0.415688 0.0247586 0)
(0.418172 0.0205113 0)
(0.421208 0.0154632 0)
(0.424675 0.00969946 0)
(0.428468 0.00330215 0)
(0.432496 -0.00362368 0)
(0.436637 -0.0109743 0)
(0.440837 -0.0185835 0)
(0.444946 -0.0263844 0)
(0.448917 -0.0341807 0)
(0.452698 -0.0418236 0)
(0.456146 -0.0491714 0)
(0.459261 -0.0559894 0)
(0.461955 -0.0621198 0)
(0.464181 -0.0673595 0)
(0.465903 -0.0715269 0)
(0.46709 -0.0744594 0)
(0.467763 -0.0760117 0)
(0.467948 -0.0760995 0)
(0.467752 -0.0746571 0)
(0.467292 -0.0716982 0)
(0.466147 -0.0496971 0)
(0.468656 -0.0511526 0)
(0.472113 -0.0523396 0)
(0.476104 -0.0532865 0)
(0.480464 -0.0539668 0)
(0.485017 -0.0543491 0)
(0.489551 -0.0543872 0)
(0.493881 -0.0540321 0)
(0.497815 -0.0532306 0)
(0.501179 -0.0519375 0)
(0.503812 -0.0501113 0)
(0.50555 -0.0477075 0)
(0.506252 -0.0446876 0)
(0.505805 -0.0410306 0)
(0.504133 -0.0367368 0)
(0.501196 -0.0318153 0)
(0.497012 -0.0263043 0)
(0.49167 -0.0202753 0)
(0.48536 -0.013884 0)
(0.478212 -0.0071917 0)
(0.470382 -0.000337984 0)
(0.46214 0.00649074 0)
(0.453804 0.0130846 0)
(0.445709 0.0192082 0)
(0.438117 0.0247081 0)
(0.431248 0.0294143 0)
(0.425263 0.0332077 0)
(0.420265 0.0360073 0)
(0.416323 0.0377521 0)
(0.41341 0.0383983 0)
(0.411542 0.037926 0)
(0.410684 0.0363768 0)
(0.410711 0.0337398 0)
(0.411581 0.0300764 0)
(0.413196 0.0254481 0)
(0.415435 0.0199245 0)
(0.418194 0.0135849 0)
(0.421383 0.00652998 0)
(0.424907 -0.00113474 0)
(0.42869 -0.00929559 0)
(0.432639 -0.0178158 0)
(0.436648 -0.0265815 0)
(0.440696 -0.0353885 0)
(0.444687 -0.044116 0)
(0.448557 -0.0525538 0)
(0.452289 -0.0604857 0)
(0.455779 -0.0677485 0)
(0.45901 -0.0741031 0)
(0.461928 -0.079353 0)
(0.464469 -0.0832865 0)
(0.466633 -0.0857464 0)
(0.468409 -0.0865842 0)
(0.469841 -0.085696 0)
(0.470985 -0.0830697 0)
(0.464813 -0.0461877 0)
(0.467495 -0.0472562 0)
(0.471148 -0.0481367 0)
(0.47536 -0.0488261 0)
(0.479986 -0.0493098 0)
(0.484835 -0.0495413 0)
(0.489713 -0.0494765 0)
(0.494437 -0.0490601 0)
(0.49882 -0.0482329 0)
(0.502678 -0.0469369 0)
(0.50585 -0.0451231 0)
(0.508176 -0.042746 0)
(0.509493 -0.039768 0)
(0.509678 -0.0361588 0)
(0.508638 -0.0319137 0)
(0.506313 -0.0270455 0)
(0.50269 -0.021584 0)
(0.497812 -0.0155929 0)
(0.491839 -0.00918438 0)
(0.484927 -0.00251835 0)
(0.477193 0.00436232 0)
(0.468847 0.0112513 0)
(0.460179 0.017951 0)
(0.451542 0.0242341 0)
(0.443245 0.0298978 0)
(0.435516 0.0347851 0)
(0.428557 0.0387553 0)
(0.422499 0.0416912 0)
(0.417429 0.0435246 0)
(0.413388 0.0441823 0)
(0.410379 0.0436897 0)
(0.408374 0.0419929 0)
(0.407316 0.039143 0)
(0.40715 0.0351812 0)
(0.407792 0.0301516 0)
(0.409137 0.0241348 0)
(0.4111 0.0172109 0)
(0.413601 0.00949842 0)
(0.416548 0.0010894 0)
(0.419874 -0.00787218 0)
(0.423504 -0.0173033 0)
(0.427363 -0.0270127 0)
(0.431407 -0.0368373 0)
(0.435588 -0.0466142 0)
(0.439862 -0.0561235 0)
(0.444178 -0.0651752 0)
(0.448472 -0.0735642 0)
(0.45273 -0.0810265 0)
(0.456888 -0.0873695 0)
(0.460877 -0.0923293 0)
(0.464654 -0.095727 0)
(0.468189 -0.0973537 0)
(0.471462 -0.0970747 0)
(0.474457 -0.0948295 0)
(0.463912 -0.0427647 0)
(0.466697 -0.0435165 0)
(0.47048 -0.0441492 0)
(0.474853 -0.0446595 0)
(0.479686 -0.044999 0)
(0.484796 -0.0451349 0)
(0.489985 -0.0449988 0)
(0.495075 -0.0445306 0)
(0.499882 -0.0436702 0)
(0.504226 -0.04235 0)
(0.507932 -0.0405127 0)
(0.510832 -0.0381118 0)
(0.512762 -0.0351079 0)
(0.513582 -0.0314716 0)
(0.513172 -0.0271908 0)
(0.511458 -0.0222876 0)
(0.508398 -0.016791 0)
(0.504007 -0.0107601 0)
(0.498372 -0.00429047 0)
(0.491696 0.00244476 0)
(0.484079 0.0093585 0)
(0.475646 0.0163143 0)
(0.466689 0.0231051 0)
(0.457539 0.0295149 0)
(0.448531 0.03531 0)
(0.439942 0.0403314 0)
(0.431983 0.0444106 0)
(0.424825 0.0474336 0)
(0.418586 0.0493012 0)
(0.413334 0.0499476 0)
(0.409103 0.0493457 0)
(0.405887 0.0474812 0)
(0.403653 0.0443791 0)
(0.402355 0.040077 0)
(0.401931 0.0346215 0)
(0.402295 0.0280892 0)
(0.40338 0.0205742 0)
(0.405107 0.0121819 0)
(0.407402 0.00302151 0)
(0.4102 -0.00677511 0)
(0.41343 -0.0170728 0)
(0.417075 -0.0277148 0)
(0.421086 -0.0385284 0)
(0.425425 -0.0493337 0)
(0.430047 -0.0599168 0)
(0.434927 -0.0700834 0)
(0.440031 -0.0795877 0)
(0.445332 -0.0881819 0)
(0.450771 -0.0956308 0)
(0.456273 -0.101662 0)
(0.461782 -0.106037 0)
(0.46724 -0.108507 0)
(0.472549 -0.108909 0)
(0.477649 -0.10709 0)
(0.463348 -0.0394626 0)
(0.466188 -0.0399778 0)
(0.470022 -0.04046 0)
(0.474514 -0.0408519 0)
(0.479513 -0.0411123 0)
(0.48485 -0.0411923 0)
(0.490341 -0.04102 0)
(0.495787 -0.040519 0)
(0.501018 -0.0396181 0)
(0.505848 -0.038251 0)
(0.510095 -0.0363512 0)
(0.513579 -0.0338685 0)
(0.516134 -0.0307622 0)
(0.517593 -0.0270091 0)
(0.51782 -0.0225985 0)
(0.516713 -0.0175514 0)
(0.514217 -0.011912 0)
(0.510308 -0.00574033 0)
(0.505032 0.000866011 0)
(0.498558 0.00775752 0)
(0.49103 0.0147623 0)
(0.482541 0.0218051 0)
(0.473304 0.0286987 0)
(0.463645 0.0352018 0)
(0.45393 0.0410987 0)
(0.444458 0.0461908 0)
(0.435475 0.0503217 0)
(0.427178 0.0533604 0)
(0.419713 0.055194 0)
(0.413187 0.0557501 0)
(0.407661 0.0549871 0)
(0.403157 0.0528905 0)
(0.399666 0.0494763 0)
(0.397156 0.0447841 0)
(0.395581 0.0388656 0)
(0.394882 0.031792 0)
(0.395001 0.0236658 0)
(0.395874 0.0145797 0)
(0.397439 0.00466471 0)
(0.399652 -0.00595779 0)
(0.402458 -0.0171219 0)
(0.405826 -0.0286834 0)
(0.409735 -0.040467 0)
(0.414177 -0.0522921 0)
(0.419118 -0.0639498 0)
(0.424544 -0.0752219 0)
(0.43044 -0.0858628 0)
(0.436781 -0.0956157 0)
(0.443525 -0.104216 0)
(0.450606 -0.111373 0)
(0.457959 -0.116788 0)
(0.46548 -0.120186 0)
(0.473043 -0.121335 0)
(0.480516 -0.120027 0)
(0.463041 -0.0362851 0)
(0.465858 -0.0366899 0)
(0.469705 -0.0371035 0)
(0.474274 -0.037458 0)
(0.479415 -0.0377096 0)
(0.484962 -0.0377842 0)
(0.490739 -0.0376087 0)
(0.49656 -0.0370956 0)
(0.502225 -0.0361601 0)
(0.507565 -0.0347247 0)
(0.512379 -0.0327223 0)
(0.516481 -0.0300951 0)
(0.519679 -0.0268058 0)
(0.521799 -0.0228333 0)
(0.522679 -0.0181784 0)
(0.522189 -0.0128603 0)
(0.520249 -0.00694768 0)
(0.516813 -0.000508935 0)
(0.511894 0.00634846 0)
(0.505596 0.0134845 0)
(0.498109 0.0206868 0)
(0.48954 0.0278759 0)
(0.480017 0.0348708 0)
(0.469839 0.0414712 0)
(0.459388 0.0474196 0)
(0.449002 0.0525292 0)
(0.438954 0.056636 0)
(0.429471 0.0595979 0)
(0.420729 0.0613105 0)
(0.412868 0.0616931 0)
(0.405978 0.0606945 0)
(0.400112 0.0582968 0)
(0.395287 0.0545098 0)
(0.391494 0.0493683 0)
(0.388701 0.0429308 0)
(0.386869 0.0352791 0)
(0.385952 0.0265064 0)
(0.385901 0.0167205 0)
(0.386675 0.00604546 0)
(0.388243 -0.00537867 0)
(0.390551 -0.0174123 0)
(0.393596 -0.029902 0)
(0.397369 -0.0426583 0)
(0.401865 -0.0555038 0)
(0.407075 -0.0682378 0)
(0.413005 -0.0806301 0)
(0.419664 -0.0924378 0)
(0.427036 -0.10339 0)
(0.4351 -0.113206 0)
(0.443811 -0.121566 0)
(0.453095 -0.128128 0)
(0.462831 -0.13256 0)
(0.472849 -0.134561 0)
(0.482957 -0.133872 0)
(0.462863 -0.0332788 0)
(0.465601 -0.0336833 0)
(0.469432 -0.0341236 0)
(0.474042 -0.0345425 0)
(0.47931 -0.0348619 0)
(0.485075 -0.0349993 0)
(0.491149 -0.0348644 0)
(0.497358 -0.0343624 0)
(0.503507 -0.0333966 0)
(0.509394 -0.0318781 0)
(0.514826 -0.0297307 0)
(0.51959 -0.0268949 0)
(0.523483 -0.0233308 0)
(0.526306 -0.0190242 0)
(0.527871 -0.0139887 0)
(0.528015 -0.00825615 0)
(0.526624 -0.00191402 0)
(0.523653 0.00495144 0)
(0.519056 0.0122058 0)
(0.512907 0.0197078 0)
(0.505406 0.0272405 0)
(0.496682 0.034654 0)
(0.486825 0.0418094 0)
(0.476085 0.0485021 0)
(0.464844 0.0544835 0)
(0.453494 0.0595554 0)
(0.44233 0.0635562 0)
(0.431609 0.0663528 0)
(0.421541 0.0678337 0)
(0.412287 0.0679221 0)
(0.403974 0.066566 0)
(0.39668 0.0637551 0)
(0.390451 0.0595026 0)
(0.3853 0.0538453 0)
(0.381224 0.0468423 0)
(0.378199 0.0385717 0)
(0.376191 0.0291284 0)
(0.375169 0.018625 0)
(0.375103 0.00718612 0)
(0.375971 -0.00505493 0)
(0.377725 -0.0179504 0)
(0.38039 -0.0313485 0)
(0.383968 -0.0450756 0)
(0.388465 -0.0589532 0)
(0.393898 -0.0727788 0)
(0.400292 -0.0863262 0)
(0.407669 -0.0993475 0)
(0.416042 -0.111571 0)
(0.425412 -0.122682 0)
(0.435774 -0.132375 0)
(0.447074 -0.140221 0)
(0.459162 -0.145834 0)
(0.471844 -0.148843 0)
(0.484872 -0.148907 0)
(0.462688 -0.0304246 0)
(0.465306 -0.0309418 0)
(0.469079 -0.0315481 0)
(0.47372 -0.0321385 0)
(0.479117 -0.032619 0)
(0.485108 -0.0329015 0)
(0.491521 -0.0328732 0)
(0.498164 -0.032423 0)
(0.504843 -0.0314439 0)
(0.511354 -0.0298324 0)
(0.517477 -0.0275025 0)
(0.522988 -0.0243889 0)
(0.52765 -0.0204519 0)
(0.531233 -0.0156849 0)
(0.533533 -0.0101143 0)
(0.534337 -0.00379804 0)
(0.53352 0.00317057 0)
(0.530977 0.0106524 0)
(0.526674 0.0184875 0)
(0.520628 0.0265246 0)
(0.513018 0.0345318 0)
(0.504036 0.0422815 0)
(0.493754 0.0496663 0)
(0.482363 0.056467 0)
(0.470254 0.0624581 0)
(0.457855 0.0674312 0)
(0.445503 0.0712419 0)
(0.433479 0.0737694 0)
(0.422019 0.0749142 0)
(0.411314 0.0746023 0)
(0.40152 0.0727905 0)
(0.392748 0.069464 0)
(0.38507 0.0646386 0)
(0.378522 0.0583601 0)
(0.373116 0.0507 0)
(0.368847 0.0417405 0)
(0.365702 0.0315818 0)
(0.363659 0.0203342 0)
(0.362701 0.00811775 0)
(0.362824 -0.00493527 0)
(0.363988 -0.0186936 0)
(0.366221 -0.0329992 0)
(0.369544 -0.0476971 0)
(0.37398 -0.0626134 0)
(0.379567 -0.0775552 0)
(0.386352 -0.092304 0)
(0.394385 -0.106615 0)
(0.403715 -0.120203 0)
(0.41435 -0.132754 0)
(0.426353 -0.143936 0)
(0.439731 -0.153242 0)
(0.454295 -0.160242 0)
(0.469832 -0.164479 0)
(0.486074 -0.16548 0)
(0.462349 -0.0277183 0)
(0.46482 -0.0285222 0)
(0.468512 -0.0294264 0)
(0.473189 -0.0303154 0)
(0.478731 -0.0310714 0)
(0.484981 -0.0315918 0)
(0.491781 -0.0317438 0)
(0.498925 -0.0314043 0)
(0.506226 -0.0304385 0)
(0.513454 -0.0287345 0)
(0.520376 -0.0261906 0)
(0.526739 -0.0227322 0)
(0.532278 -0.0183167 0)
(0.536724 -0.0129483 0)
(0.539826 -0.00667858 0)
(0.54135 0.000468936 0)
(0.541113 0.00823234 0)
(0.538991 0.0166166 0)
(0.534919 0.0252365 0)
(0.528915 0.0340231 0)
(0.521093 0.0426455 0)
(0.511706 0.0508812 0)
(0.500862 0.0585983 0)
(0.48869 0.0655639 0)
(0.475583 0.0715497 0)
(0.462016 0.0763772 0)
(0.448373 0.079914 0)
(0.43496 0.0820546 0)
(0.422033 0.0827212 0)
(0.409816 0.0818562 0)
(0.398491 0.0794368 0)
(0.388198 0.0754618 0)
(0.379032 0.0699601 0)
(0.371053 0.0629802 0)
(0.364291 0.0545901 0)
(0.358756 0.0448831 0)
(0.354445 0.0339605 0)
(0.351357 0.0219328 0)
(0.349484 0.00891682 0)
(0.34881 -0.00495972 0)
(0.349326 -0.0195819 0)
(0.351077 -0.0347987 0)
(0.354083 -0.0504743 0)
(0.358385 -0.0664476 0)
(0.364043 -0.0825412 0)
(0.371132 -0.0985497 0)
(0.379733 -0.114234 0)
(0.389921 -0.129309 0)
(0.401737 -0.143502 0)
(0.415367 -0.156344 0)
(0.430845 -0.167357 0)
(0.447947 -0.176031 0)
(0.4665 -0.18178 0)
(0.486206 -0.18399 0)
(0.461682 -0.0251563 0)
(0.463969 -0.0264118 0)
(0.46758 -0.0277785 0)
(0.4723 -0.0291152 0)
(0.478016 -0.030288 0)
(0.484586 -0.0311667 0)
(0.491837 -0.0316029 0)
(0.499585 -0.0314453 0)
(0.507614 -0.0305461 0)
(0.515693 -0.0287646 0)
(0.523561 -0.0259826 0)
(0.530933 -0.0221119 0)
(0.537498 -0.0171076 0)
(0.542922 -0.0109825 0)
(0.546996 -0.00377093 0)
(0.549266 0.00435241 0)
(0.549674 0.013301 0)
(0.547958 0.0227075 0)
(0.544042 0.0325195 0)
(0.537957 0.0422486 0)
(0.529766 0.0517439 0)
(0.519839 0.0606643 0)
(0.508248 0.0688387 0)
(0.495085 0.0760077 0)
(0.480799 0.0820094 0)
(0.465914 0.0866332 0)
(0.450844 0.089804 0)
(0.435926 0.0914342 0)
(0.421443 0.091478 0)
(0.407645 0.089908 0)
(0.394737 0.0867235 0)
(0.382887 0.0819436 0)
(0.372209 0.0756158 0)
(0.362784 0.0678027 0)
(0.35466 0.0585834 0)
(0.347858 0.0480515 0)
(0.342385 0.036312 0)
(0.338239 0.0234726 0)
(0.335429 0.00964108 0)
(0.333932 -0.0050748 0)
(0.33377 -0.0205561 0)
(0.334978 -0.0366843 0)
(0.33759 -0.0533417 0)
(0.341669 -0.070391 0)
(0.347293 -0.0876771 0)
(0.354565 -0.105016 0)
(0.363607 -0.122183 0)
(0.374492 -0.138906 0)
(0.387396 -0.154918 0)
(0.402579 -0.169668 0)
(0.420047 -0.182714 0)
(0.439666 -0.193396 0)
(0.461248 -0.201003 0)
(0.484481 -0.204737 0)
(0.460478 -0.0227129 0)
(0.462573 -0.0246223 0)
(0.466101 -0.0266385 0)
(0.470895 -0.0286007 0)
(0.476832 -0.0303535 0)
(0.483784 -0.0317384 0)
(0.491593 -0.0325827 0)
(0.500054 -0.0327154 0)
(0.508966 -0.0319523 0)
(0.518064 -0.0301317 0)
(0.527065 -0.0271057 0)
(0.535644 -0.0227654 0)
(0.543431 -0.0170561 0)
(0.550082 -0.00998516 0)
(0.555149 -0.00166047 0)
(0.558419 0.00784433 0)
(0.559432 0.0181543 0)
(0.558149 0.0291019 0)
(0.554372 0.0402756 0)
(0.548018 0.0513321 0)
(0.539352 0.061977 0)
(0.528606 0.0717994 0)
(0.51597 0.0805692 0)
(0.501588 0.0880587 0)
(0.485898 0.0940653 0)
(0.469465 0.098447 0)
(0.452796 0.101149 0)
(0.436231 0.102133 0)
(0.420086 0.101393 0)
(0.404633 0.0989395 0)
(0.390101 0.0948104 0)
(0.376673 0.0890583 0)
(0.364481 0.0817541 0)
(0.353618 0.0729762 0)
(0.344139 0.0628199 0)
(0.33608 0.0513785 0)
(0.329452 0.038759 0)
(0.324259 0.0250641 0)
(0.320508 0.0103929 0)
(0.318177 -0.00516433 0)
(0.317299 -0.0215132 0)
(0.317908 -0.0385606 0)
(0.320051 -0.0562087 0)
(0.323802 -0.0743572 0)
(0.329262 -0.0928807 0)
(0.336566 -0.111625 0)
(0.345872 -0.130391 0)
(0.357279 -0.148933 0)
(0.371079 -0.166944 0)
(0.387582 -0.183925 0)
(0.406831 -0.199342 0)
(0.428704 -0.212374 0)
(0.452981 -0.222181 0)
(0.479325 -0.227738 0)
(0.458523 -0.0203583 0)
(0.460402 -0.0231464 0)
(0.463871 -0.026032 0)
(0.46877 -0.0288267 0)
(0.474994 -0.0313535 0)
(0.482426 -0.0334227 0)
(0.490901 -0.0348401 0)
(0.500236 -0.0353964 0)
(0.510202 -0.0348807 0)
(0.520531 -0.0330885 0)
(0.530911 -0.0298329 0)
(0.540961 -0.0249728 0)
(0.550248 -0.0184341 0)
(0.558284 -0.0102363 0)
(0.56478 -0.000436644 0)
(0.569014 0.0106746 0)
(0.570842 0.0228549 0)
(0.56997 0.0356565 0)
(0.56613 0.0486641 0)
(0.559495 0.061428 0)
(0.550029 0.0734946 0)
(0.538187 0.0844668 0)
(0.524223 0.0940444 0)
(0.50826 0.101978 0)
(0.490828 0.107989 0)
(0.472602 0.112076 0)
(0.454101 0.114192 0)
(0.435716 0.114374 0)
(0.417784 0.112663 0)
(0.400597 0.109127 0)
(0.3844 0.103855 0)
(0.369388 0.0969423 0)
(0.355698 0.0884912 0)
(0.343429 0.0786037 0)
(0.332639 0.0673878 0)
(0.323364 0.0549474 0)
(0.315614 0.0413828 0)
(0.309399 0.0267881 0)
(0.304718 0.0112518 0)
(0.30155 -0.00515453 0)
(0.299922 -0.0223666 0)
(0.299878 -0.0403278 0)
(0.301466 -0.058971 0)
(0.304769 -0.0782339 0)
(0.309913 -0.0980293 0)
(0.31706 -0.118244 0)
(0.326401 -0.138719 0)
(0.338078 -0.159231 0)
(0.352453 -0.179461 0)
(0.369865 -0.198925 0)
(0.390376 -0.21698 0)
(0.413776 -0.232572 0)
(0.439678 -0.244795 0)
(0.467783 -0.252291 0)
(0.455551 -0.0180614 0)
(0.457215 -0.0219871 0)
(0.460651 -0.0259824 0)
(0.465707 -0.0298503 0)
(0.472299 -0.0333752 0)
(0.480311 -0.0363479 0)
(0.489594 -0.0385389 0)
(0.499973 -0.0397011 0)
(0.511214 -0.0395844 0)
(0.523033 -0.0379289 0)
(0.535089 -0.0344941 0)
(0.546932 -0.0290892 0)
(0.558044 -0.0216038 0)
(0.56794 -0.0120132 0)
(0.575911 -0.000476008 0)
(0.581541 0.0127224 0)
(0.584227 0.0271892 0)
(0.583752 0.0423176 0)
(0.579922 0.0577198 0)
(0.572612 0.0726254 0)
(0.562126 0.0865426 0)
(0.548853 0.0990009 0)
(0.533139 0.109622 0)
(0.515154 0.118063 0)
(0.495582 0.124113 0)
(0.475219 0.12781 0)
(0.454617 0.12921 0)
(0.434203 0.128401 0)
(0.414334 0.125502 0)
(0.395326 0.120657 0)
(0.377434 0.11402 0)
(0.360847 0.10574 0)
(0.3457 0.0959575 0)
(0.332083 0.0848035 0)
(0.320049 0.0724004 0)
(0.309626 0.0588601 0)
(0.300817 0.0442818 0)
(0.293626 0.0287451 0)
(0.288048 0.0123223 0)
(0.284056 -0.00493921 0)
(0.281652 -0.0230102 0)
(0.280899 -0.041874 0)
(0.281843 -0.0615018 0)
(0.284567 -0.0818759 0)
(0.289218 -0.102959 0)
(0.295976 -0.124689 0)
(0.305065 -0.146954 0)
(0.316648 -0.169544 0)
(0.331103 -0.192135 0)
(0.348694 -0.214155 0)
(0.369455 -0.234854 0)
(0.392759 -0.252772 0)
(0.418029 -0.267265 0)
(0.444926 -0.27597 0)
(0.45128 -0.0157793 0)
(0.452743 -0.02112 0)
(0.456175 -0.0265129 0)
(0.461451 -0.0317211 0)
(0.468498 -0.0365087 0)
(0.47721 -0.0406436 0)
(0.487458 -0.0438547 0)
(0.499071 -0.0458601 0)
(0.511827 -0.0463503 0)
(0.525428 -0.044994 0)
(0.539488 -0.0414814 0)
(0.553505 -0.035536 0)
(0.566894 -0.0269825 0)
(0.57892 -0.0158019 0)
(0.589009 -0.00208155 0)
(0.59616 0.0136778 0)
(0.599918 0.0309288 0)
(0.600014 0.0491976 0)
(0.595972 0.0674727 0)
(0.587883 0.0851351 0)
(0.575983 0.101402 0)
(0.560844 0.115736 0)
(0.542853 0.127656 0)
(0.522301 0.136697 0)
(0.500103 0.142765 0)
(0.477199 0.145982 0)
(0.454168 0.146489 0)
(0.431469 0.144456 0)
(0.409498 0.140109 0)
(0.388584 0.133693 0)
(0.368975 0.125441 0)
(0.350843 0.115565 0)
(0.334304 0.104251 0)
(0.319427 0.0916623 0)
(0.30625 0.0779385 0)
(0.294777 0.0631992 0)
(0.285002 0.0475376 0)
(0.276905 0.031021 0)
(0.27048 0.0136921 0)
(0.265689 -0.0044262 0)
(0.262503 -0.0233394 0)
(0.260996 -0.043076 0)
(0.261209 -0.0636561 0)
(0.263217 -0.085113 0)
(0.267174 -0.107466 0)
(0.273264 -0.130706 0)
(0.281733 -0.154766 0)
(0.292706 -0.179433 0)
(0.306491 -0.204308 0)
(0.323054 -0.228581 0)
(0.342272 -0.251468 0)
(0.362559 -0.270787 0)
(0.383608 -0.285964 0)
(0.40446 -0.29474 0)
(0.445401 -0.0134622 0)
(0.446676 -0.0205418 0)
(0.450151 -0.0276346 0)
(0.455718 -0.0344844 0)
(0.463312 -0.0408347 0)
(0.472846 -0.0464321 0)
(0.484212 -0.0509597 0)
(0.497249 -0.0541093 0)
(0.511752 -0.055466 0)
(0.527402 -0.0546425 0)
(0.543764 -0.0512204 0)
(0.560304 -0.0447822 0)
(0.576289 -0.035135 0)
(0.591069 -0.0220437 0)
(0.603524 -0.00579505 0)
(0.612682 0.0131592 0)
(0.618021 0.0340088 0)
(0.618759 0.0559902 0)
(0.614548 0.0780679 0)
(0.605444 0.0991839 0)
(0.59181 0.118424 0)
(0.574323 0.135136 0)
(0.553408 0.14865 0)
(0.529631 0.158309 0)
(0.504272 0.164378 0)
(0.47836 0.166978 0)
(0.452504 0.166341 0)
(0.427231 0.16278 0)
(0.402986 0.156668 0)
(0.380095 0.148371 0)
(0.358776 0.13822 0)
(0.339162 0.126497 0)
(0.321332 0.113438 0)
(0.30532 0.0992408 0)
(0.291129 0.0840624 0)
(0.27874 0.0680246 0)
(0.268118 0.0512152 0)
(0.259216 0.0336844 0)
(0.252014 0.0154432 0)
(0.246475 -0.00351838 0)
(0.242519 -0.0232417 0)
(0.240228 -0.0438051 0)
(0.239629 -0.0652817 0)
(0.240781 -0.0877557 0)
(0.243828 -0.111306 0)
(0.248922 -0.135963 0)
(0.256283 -0.16169 0)
(0.265913 -0.188192 0)
(0.277916 -0.214839 0)
(0.291458 -0.240558 0)
(0.30627 -0.264078 0)
(0.31972 -0.283108 0)
(0.331055 -0.294862 0)
(0.341704 -0.301327 0)
(0.437567 -0.0110917 0)
(0.438683 -0.0202057 0)
(0.442254 -0.0293678 0)
(0.448187 -0.0381873 0)
(0.45642 -0.0464249 0)
(0.466887 -0.0538315 0)
(0.479496 -0.0600048 0)
(0.494093 -0.0646073 0)
(0.51046 -0.0671597 0)
(0.528208 -0.067099 0)
(0.546936 -0.0640193 0)
(0.565998 -0.0571445 0)
(0.584788 -0.0465271 0)
(0.602368 -0.0313557 0)
(0.617841 -0.0121417 0)
(0.62968 0.010621 0)
(0.636952 0.035878 0)
(0.638982 0.0625495 0)
(0.634899 0.0893744 0)
(0.624802 0.114903 0)
(0.609251 0.137917 0)
(0.589009 0.15765 0)
(0.564449 0.172964 0)
(0.536813 0.183451 0)
(0.50779 0.18947 0)
(0.478322 0.191213 0)
(0.44921 0.18908 0)
(0.421083 0.183598 0)
(0.394416 0.175328 0)
(0.369509 0.164785 0)
(0.346525 0.152408 0)
(0.325537 0.13856 0)
(0.306565 0.123531 0)
(0.289589 0.107547 0)
(0.274562 0.0907825 0)
(0.261425 0.0733558 0)
(0.25011 0.0553392 0)
(0.240538 0.0367619 0)
(0.232664 0.0176062 0)
(0.226457 -0.00217085 0)
(0.22177 -0.0226476 0)
(0.218684 -0.0439586 0)
(0.217209 -0.0662313 0)
(0.217366 -0.0895984 0)
(0.219271 -0.114178 0)
(0.222962 -0.140031 0)
(0.228574 -0.167031 0)
(0.235861 -0.194735 0)
(0.24433 -0.2221 0)
(0.25221 -0.24752 0)
(0.258455 -0.268564 0)
(0.261211 -0.283809 0)
(0.258585 -0.290285 0)
(0.251781 -0.298755 0)
(0.427423 -0.00857462 0)
(0.428425 -0.0201796 0)
(0.432109 -0.0316997 0)
(0.438517 -0.0428455 0)
(0.447459 -0.0533345 0)
(0.458919 -0.0629099 0)
(0.472841 -0.0710755 0)
(0.488883 -0.0774413 0)
(0.506918 -0.0813843 0)
(0.526301 -0.0823409 0)
(0.546781 -0.079613 0)
(0.567539 -0.0727034 0)
(0.588229 -0.0612414 0)
(0.608438 -0.0440251 0)
(0.626588 -0.0219699 0)
(0.641844 0.00504379 0)
(0.652311 0.0357021 0)
(0.656581 0.0684054 0)
(0.653648 0.101192 0)
(0.643279 0.132348 0)
(0.626255 0.160213 0)
(0.603165 0.183634 0)
(0.574726 0.201089 0)
(0.542975 0.212668 0)
(0.509801 0.218522 0)
(0.476351 0.219079 0)
(0.443657 0.215002 0)
(0.412485 0.207111 0)
(0.383332 0.196205 0)
(0.356447 0.18298 0)
(0.331916 0.168007 0)
(0.30973 0.15173 0)
(0.289822 0.134497 0)
(0.2721 0.116557 0)
(0.256455 0.0980786 0)
(0.242772 0.0791717 0)
(0.230941 0.0598981 0)
(0.220865 0.0402639 0)
(0.212442 0.0202224 0)
(0.205672 -0.000321657 0)
(0.200334 -0.0214819 0)
(0.196481 -0.0434413 0)
(0.194099 -0.0663675 0)
(0.19315 -0.0904276 0)
(0.193628 -0.115742 0)
(0.19544 -0.142328 0)
(0.198438 -0.16984 0)
(0.201897 -0.197592 0)
(0.204518 -0.223755 0)
(0.203566 -0.245905 0)
(0.196816 -0.260239 0)
(0.184202 -0.268996 0)
(0.166395 -0.277942 0)
(0.155899 -0.286924 0)
(0.414575 -0.0059361 0)
(0.415506 -0.0204352 0)
(0.419442 -0.0346391 0)
(0.426319 -0.0484555 0)
(0.436013 -0.0615655 0)
(0.448425 -0.0735743 0)
(0.463431 -0.083995 0)
(0.48046 -0.0922145 0)
(0.499095 -0.0974736 0)
(0.518714 -0.0994499 0)
(0.538817 -0.0969388 0)
(0.558792 -0.0900417 0)
(0.579443 -0.078421 0)
(0.59974 -0.0594226 0)
(0.619123 -0.0358906 0)
(0.638081 -0.00529056 0)
(0.65329 0.0304304 0)
(0.661889 0.070173 0)
(0.662211 0.111419 0)
(0.65377 0.149564 0)
(0.63696 0.184025 0)
(0.612167 0.212271 0)
(0.580714 0.232922 0)
(0.545373 0.245917 0)
(0.508201 0.251603 0)
(0.470795 0.250659 0)
(0.434551 0.244161 0)
(0.400432 0.233314 0)
(0.368956 0.219233 0)
(0.340317 0.202849 0)
(0.314504 0.184884 0)
(0.291409 0.165881 0)
(0.270868 0.146217 0)
(0.252686 0.126139 0)
(0.236679 0.105822 0)
(0.222695 0.0853694 0)
(0.210589 0.06482 0)
(0.200219 0.0441434 0)
(0.191437 0.023253 0)
(0.184227 0.00200232 0)
(0.178364 -0.0197491 0)
(0.173811 -0.0422134 0)
(0.170519 -0.0655838 0)
(0.168349 -0.0900174 0)
(0.167063 -0.115566 0)
(0.166366 -0.142067 0)
(0.165512 -0.168929 0)
(0.163331 -0.194845 0)
(0.157006 -0.216898 0)
(0.143777 -0.231362 0)
(0.120664 -0.238223 0)
(0.0965986 -0.244521 0)
(0.0803571 -0.256165 0)
(0.0717848 -0.267003 0)
(0.398584 -0.00327351 0)
(0.399557 -0.020909 0)
(0.403845 -0.0381835 0)
(0.411196 -0.0550262 0)
(0.421607 -0.0709477 0)
(0.434678 -0.0855717 0)
(0.449977 -0.0980013 0)
(0.466598 -0.107813 0)
(0.483509 -0.113717 0)
(0.500143 -0.115822 0)
(0.516266 -0.113308 0)
(0.530419 -0.103964 0)
(0.546135 -0.0928685 0)
(0.562038 -0.07431 0)
(0.577526 -0.0495888 0)
(0.596782 -0.0179945 0)
(0.618704 0.0220349 0)
(0.6368 0.06692 0)
(0.644811 0.114285 0)
(0.642434 0.162652 0)
(0.630569 0.207933 0)
(0.607608 0.241975 0)
(0.575902 0.266912 0)
(0.538885 0.28244 0)
(0.499157 0.28835 0)
(0.458838 0.285739 0)
(0.419869 0.276354 0)
(0.383476 0.261976 0)
(0.350262 0.244155 0)
(0.320399 0.22412 0)
(0.293803 0.202778 0)
(0.270256 0.18075 0)
(0.249466 0.158425 0)
(0.231174 0.136068 0)
(0.215152 0.113843 0)
(0.201181 0.0918243 0)
(0.189061 0.0700027 0)
(0.178625 0.0483048 0)
(0.169698 0.0266062 0)
(0.162241 0.00472546 0)
(0.156025 -0.0174903 0)
(0.150891 -0.0402646 0)
(0.146731 -0.063778 0)
(0.143196 -0.0880838 0)
(0.139719 -0.113045 0)
(0.13554 -0.138265 0)
(0.12934 -0.162721 0)
(0.119065 -0.184143 0)
(0.100402 -0.197427 0)
(0.071751 -0.201965 0)
(0.0415611 -0.206238 0)
(0.0198383 -0.215001 0)
(0.00224907 -0.227999 0)
(-0.00995246 -0.247839 0)
(0.37904 -0.000607861 0)
(0.380229 -0.0216756 0)
(0.384879 -0.0423257 0)
(0.392741 -0.0623877 0)
(0.403517 -0.0811349 0)
(0.416429 -0.0980267 0)
(0.430194 -0.111598 0)
(0.443444 -0.12168 0)
(0.454759 -0.12677 0)
(0.462792 -0.125421 0)
(0.470527 -0.120123 0)
(0.473001 -0.108951 0)
(0.47486 -0.0953733 0)
(0.481661 -0.081613 0)
(0.48954 -0.0629409 0)
(0.503778 -0.0373089 0)
(0.526297 0.000300538 0)