/*--------------------------------*- C++ -*----------------------------------*\
  =========                 |
  \\      /  F ield         | OpenFOAM: The Open Source CFD Toolbox
   \\    /   O peration     | Website:  https://openfoam.org
    \\  /    A nd           | Version:  10
     \\/     M anipulation  |
\*---------------------------------------------------------------------------*/
FoamFile
{
    format      ascii;
    class       volScalarField;
    location    "0.350478";
    object      p;
}
// * * * * * * * * * * * * * * * * * * * * * * * * * * * * * * * * * * * * * //

dimensions      [1 -1 -2 0 0 0 0];

internalField   nonuniform List<scalar> 
16320
(
0.502669
0.502327
0.482205
0.475035
0.472676
0.465029
0.469922
0.473596
0.476681
0.484123
0.489636
0.496477
0.503145
0.509135
0.514161
0.518626
0.522943
0.527585
0.532712
0.53819
0.543383
0.550078
0.558161
0.567904
0.579532
0.593272
0.607652
0.621274
0.632909
0.642557
0.649666
0.653414
0.65578
0.655066
0.646613
0.63849
0.631479
0.626099
0.623882
0.618435
0.610331
0.596472
0.581286
0.568119
0.557533
0.54837
0.537977
0.524018
0.510671
0.499327
0.490585
0.48757
0.492032
0.508048
0.544756
0.602001
0.649758
0.6787
0.686012
0.691165
0.69418
0.696294
0.697824
0.701941
0.713584
0.729249
0.743667
0.759827
0.776261
0.784906
0.789449
0.792836
0.795538
0.797402
0.79823
0.802087
0.810158
0.821109
0.831299
0.835368
0.832472
0.805565
0.71995
0.560599
0.413752
0.337147
0.307219
0.293703
0.286261
0.281846
0.279247
0.278727
0.28086
0.288268
0.297968
0.312052
0.338034
0.374939
0.401914
0.423105
0.444767
0.463514
0.482622
0.498759
0.509336
0.513137
0.524917
0.528849
0.537245
0.549429
0.566215
0.589191
0.611088
0.493088
0.493174
0.477174
0.471645
0.469709
0.462716
0.466356
0.469802
0.473445
0.478653
0.484227
0.490394
0.497146
0.503835
0.510148
0.515984
0.521656
0.527433
0.533452
0.539861
0.546944
0.553811
0.561702
0.571443
0.582646
0.595331
0.608933
0.622173
0.633757
0.64441
0.651602
0.659687
0.65951
0.655105
0.64674
0.637995
0.632362
0.623259
0.615643
0.621395
0.623254
0.615526
0.597976
0.577898
0.558699
0.540604
0.522852
0.50448
0.493353
0.484517
0.477398
0.475911
0.481434
0.49923
0.538369
0.59635
0.64384
0.672053
0.679037
0.683831
0.686717
0.688983
0.69057
0.696756
0.709478
0.723918
0.738273
0.753556
0.770065
0.780058
0.785435
0.788882
0.790094
0.791814
0.792751
0.796239
0.800521
0.807067
0.811476
0.811921
0.804553
0.777318
0.711858
0.603919
0.458622
0.356133
0.312108
0.294915
0.285848
0.28052
0.277583
0.277178
0.280244
0.289303
0.300812
0.317282
0.343384
0.378568
0.400293
0.417204
0.435183
0.452739
0.471198
0.486657
0.498812
0.505408
0.510751
0.514976
0.51733
0.522039
0.531345
0.547726
0.568369
0.475437
0.477401
0.466825
0.463524
0.462524
0.459537
0.46126
0.465665
0.469009
0.473193
0.478262
0.483841
0.490095
0.497018
0.504332
0.511658
0.518918
0.526227
0.533638
0.541125
0.548932
0.557012
0.564948
0.573981
0.585236
0.597477
0.610083
0.622449
0.634899
0.648097
0.658935
0.662582
0.66119
0.654171
0.643977
0.631979
0.627777
0.627344
0.620269
0.605423
0.592688
0.579673
0.567048
0.547907
0.53029
0.512282
0.498238
0.490266
0.478901
0.468494
0.461523
0.462232
0.469262
0.489685
0.531354
0.589919
0.639001
0.667021
0.673512
0.678052
0.680985
0.683536
0.685328
0.693355
0.706313
0.72011
0.734256
0.748326
0.763968
0.775269
0.781458
0.783575
0.784954
0.786098
0.786826
0.790918
0.791606
0.792832
0.791897
0.786742
0.774513
0.747642
0.696682
0.627988
0.511968
0.390283
0.323757
0.297973
0.286341
0.27986
0.276625
0.276527
0.280873
0.292099
0.307265
0.327715
0.352972
0.386359
0.402355
0.416533
0.432131
0.448567
0.466305
0.480669
0.491679
0.499646
0.503959
0.505187
0.504992
0.505286
0.509472
0.519476
0.535812
0.45525
0.459867
0.456136
0.45391
0.455416
0.456863
0.456058
0.461018
0.463714
0.467105
0.471578
0.476972
0.483676
0.491222
0.498873
0.507003
0.515578
0.524419
0.533348
0.542131
0.550643
0.559354
0.568633
0.576707
0.586804
0.598323
0.610587
0.625125
0.639967
0.650949
0.660541
0.66452
0.661031
0.649726
0.629577
0.627098
0.612738
0.598973
0.584538
0.560261
0.529938
0.511042
0.499594
0.487263
0.478305
0.472238
0.461906
0.45783
0.452532
0.44845
0.447166
0.448714
0.456671
0.478728
0.523216
0.584271
0.633366
0.661943
0.668232
0.673068
0.676251
0.679162
0.681833
0.690744
0.703273
0.717066
0.731104
0.744298
0.758133
0.769887
0.774113
0.776974
0.778762
0.779781
0.780211
0.785127
0.781852
0.778076
0.770412
0.760419
0.74494
0.71679
0.682505
0.629331
0.559637
0.435595
0.344862
0.303053
0.287716
0.279956
0.276431
0.276797
0.282569
0.29755
0.317612
0.342367
0.368886
0.397172
0.409342
0.420905
0.435321
0.450485
0.466401
0.478948
0.488669
0.495632
0.499585
0.49986
0.498599
0.496851
0.498354
0.504574
0.517954
0.432837
0.441117
0.44545
0.44416
0.448621
0.451115
0.453413
0.456949
0.459264
0.4628
0.46666
0.472164
0.479009
0.486568
0.495558
0.503705
0.513003
0.522746
0.532881
0.542928
0.552417
0.561391
0.570732
0.58139
0.591382
0.602479
0.614939
0.627103
0.640835
0.653474
0.662522
0.66494
0.65748
0.637058
0.62094
0.595989
0.569305
0.539931
0.506608
0.484913
0.477022
0.471044
0.455844
0.442852
0.428592
0.425362
0.427566
0.429321
0.427108
0.426868
0.428104
0.432572
0.444712
0.471101
0.518582
0.578922
0.628434
0.655975
0.662996
0.668167
0.671691
0.674924
0.679185
0.688331
0.69991
0.714218
0.728393
0.740501
0.751737
0.762904
0.765859
0.768778
0.771232
0.772443
0.772984
0.778282
0.772551
0.762577
0.748747
0.733459
0.71424
0.68766
0.664555
0.624358
0.583248
0.486895
0.374263
0.313906
0.290682
0.280667
0.276809
0.277871
0.285908
0.306093
0.332692
0.361212
0.38717
0.409744
0.420626
0.431837
0.444644
0.457941
0.471956
0.480218
0.488017
0.49399
0.496874
0.49751
0.495951
0.493243
0.493035
0.496809
0.505871
0.410557
0.420575
0.432843
0.435059
0.442437
0.445904
0.450822
0.453595
0.455395
0.458584
0.462777
0.469053
0.476576
0.484409
0.493867
0.502138
0.511748
0.52196
0.532694
0.543603
0.553875
0.563491
0.572484
0.582118
0.591803
0.60249
0.614498
0.627198
0.64118
0.654016
0.66223
0.662157
0.648274
0.620503
0.581582
0.534096
0.498352
0.47307
0.462947
0.459868
0.45296
0.437491
0.424971
0.415091
0.408684
0.40332
0.398849
0.402124
0.405696
0.40855
0.411166
0.417929
0.432987
0.462916
0.513015
0.574726
0.624604
0.648745
0.656946
0.662752
0.666675
0.670265
0.676072
0.68524
0.696753
0.711577
0.726014
0.736659
0.74528
0.754586
0.756406
0.759179
0.762435
0.763715
0.764114
0.768889
0.761357
0.74616
0.72687
0.706785
0.686179
0.660269
0.643421
0.616774
0.580201
0.528013
0.410913
0.329107
0.294723
0.282027
0.277671
0.279548
0.290934
0.317983
0.351698
0.382404
0.406495
0.423876
0.43477
0.446072
0.457479
0.46859
0.480456
0.484649
0.489902
0.494178
0.496815
0.496634
0.495097
0.492288
0.49085
0.492481
0.497615
0.389445
0.401423
0.418211
0.426386
0.434886
0.440954
0.446942
0.45064
0.451316
0.454181
0.459148
0.467727
0.477389
0.482796
0.492619
0.500039
0.512179
0.521847
0.532932
0.544308
0.555587
0.564533
0.573608
0.582517
0.591657
0.601889
0.613523
0.62629
0.640011
0.651877
0.658307
0.653579
0.630037
0.579195
0.512147
0.459787
0.427815
0.409131
0.395206
0.386113
0.381026
0.382016
0.386675
0.391492
0.390231
0.388775
0.387648
0.385018
0.386664
0.392284
0.398325
0.407341
0.424675
0.457522
0.510064
0.570786
0.620496
0.639999
0.650102
0.656583
0.660942
0.665842
0.673013
0.682846
0.693516
0.709707
0.724181
0.732911
0.739019
0.746158
0.746579
0.74951
0.753099
0.754409
0.75433
0.757327
0.748696
0.730206
0.706906
0.684283
0.663422
0.63869
0.626777
0.606757
0.571804
0.541687
0.446476
0.347446
0.301565
0.28443
0.27931
0.282842
0.298015
0.333057
0.374567
0.404928
0.426678
0.44026
0.451567
0.462081
0.471926
0.480472
0.489364
0.491974
0.49446
0.497259
0.497662
0.498302
0.497062
0.493747
0.490728
0.490698
0.493253
0.372096
0.384333
0.400685
0.417173
0.425805
0.435838
0.442667
0.447868
0.449849
0.452497
0.45779
0.466181
0.477037
0.481573
0.491345
0.499073
0.512653
0.522161
0.533225
0.544512
0.555573
0.56525
0.573816
0.5821
0.590544
0.599861
0.610502
0.622457
0.634846
0.644515
0.648181
0.639631
0.601984
0.519467
0.440754
0.392916
0.36628
0.351339
0.344191
0.341981
0.345633
0.354187
0.363818
0.37189
0.37574
0.376999
0.377517
0.377839
0.379267
0.381762
0.388594
0.400097
0.420391
0.456241
0.510155
0.568778
0.612385
0.631003
0.642973
0.650417
0.655753
0.662024
0.670404
0.6809
0.691627
0.708345
0.722236
0.728762
0.732346
0.737052
0.737772
0.74043
0.743879
0.74534
0.744722
0.744641
0.736312
0.716509
0.692417
0.669569
0.650267
0.62579
0.615898
0.599171
0.569101
0.53903
0.468869
0.365212
0.30798
0.287929
0.28202
0.287525
0.308033
0.351203
0.400293
0.428241
0.447697
0.459164
0.469624
0.478781
0.486482
0.492708
0.497885
0.500167
0.500898
0.502705
0.501914
0.5017
0.499826
0.496707
0.493201
0.491677
0.492114
0.366285
0.369686
0.383259
0.405432
0.415421
0.429182
0.437151
0.442877
0.446845
0.448997
0.454752
0.463698
0.47467
0.478954
0.48837
0.496499
0.511073
0.52193
0.533083
0.544383
0.555257
0.565087
0.572516
0.579928
0.587224
0.595085
0.603799
0.613393
0.62285
0.629843
0.631922
0.619197
0.56285
0.455616
0.381818
0.344616
0.32667
0.319118
0.316876
0.321856
0.330868
0.341547
0.351444
0.359459
0.3659
0.368255
0.369963
0.371303
0.373643
0.377204
0.383882
0.397028
0.41968
0.457124
0.510208
0.565629
0.601861
0.622678
0.636074
0.644671
0.651984
0.659894
0.669307
0.68
0.690932
0.707292
0.719672
0.724229
0.726205
0.728611
0.730721
0.732566
0.735557
0.737266
0.736357
0.73459
0.727224
0.708051
0.684674
0.662719
0.644723
0.619966
0.611035
0.594885
0.567358
0.530327
0.483368
0.381617
0.315023
0.290867
0.285256
0.293571
0.32099
0.372996
0.427852
0.453543
0.470777
0.479872
0.488199
0.495253
0.500485
0.505119
0.506181
0.508613
0.508468
0.509485
0.508222
0.507123
0.504676
0.501703
0.498266
0.49659
0.495307
0.382142
0.363268
0.369655
0.390514
0.405541
0.420217
0.430808
0.437698
0.441829
0.444793
0.449937
0.458855
0.468424
0.473213
0.482371
0.490842
0.506454
0.518866
0.530993
0.542773
0.553605
0.56318
0.568794
0.574635
0.580193
0.586165
0.592705
0.599614
0.60614
0.610502
0.610527
0.593678
0.51837
0.405827
0.344775
0.317838
0.306854
0.303061
0.306257
0.314605
0.325358
0.336247
0.34511
0.35245
0.359144
0.362346
0.364905
0.367172
0.369957
0.374788
0.382789
0.396597
0.420753
0.458672
0.509207
0.55874
0.591826
0.614455
0.629649
0.640411
0.649639
0.659328
0.669645
0.680352
0.691948
0.705311
0.716922
0.720227
0.721572
0.723205
0.724741
0.727307
0.729025
0.730645
0.72971
0.727906
0.721955
0.704282
0.68152
0.660505
0.643964
0.620411
0.611975
0.595081
0.567373
0.526247
0.482741
0.392315
0.321838
0.29478
0.289634
0.302392
0.338266
0.400044
0.458537
0.481529
0.494741
0.501126
0.506726
0.510915
0.51348
0.517312
0.515149
0.517306
0.516804
0.517362
0.515843
0.514237
0.511728
0.508918
0.506193
0.505587
0.504306
0.444314
0.376915
0.362161
0.374653
0.395115
0.40897
0.423782
0.431831
0.436475
0.439461
0.444046
0.452283
0.459943
0.465092
0.473935
0.482326
0.497333
0.510497
0.523705
0.536305
0.54736
0.556599
0.560991
0.565726
0.569984
0.574232
0.578602
0.582858
0.586407
0.587774
0.585315
0.565564
0.484138
0.378323
0.326549
0.305581
0.29846
0.29722
0.303817
0.313458
0.324487
0.334415
0.341945
0.348712
0.354573
0.359072
0.362061
0.365016
0.368586
0.374441
0.383934
0.39969
0.42528
0.462381
0.507932
0.551001
0.584267
0.608618
0.62512
0.637796
0.64902
0.65969
0.670936
0.682142
0.694033
0.703901
0.714343
0.717311
0.718697
0.7204
0.721173
0.723405
0.724382
0.725628
0.724816
0.723565
0.718615
0.703176
0.683091
0.665685
0.651279
0.628852
0.620207
0.601228
0.571175
0.526399
0.47884
0.397041
0.327936
0.29967
0.296186
0.315412
0.362489
0.435154
0.491842
0.510544
0.518863
0.522038
0.52434
0.525561
0.525557
0.529077
0.526027
0.526708
0.525842
0.52594
0.524157
0.522505
0.520506
0.518586
0.517268
0.518363
0.518219
0.58131
0.435492
0.372938
0.364158
0.382515
0.40025
0.414649
0.425832
0.431201
0.434208
0.438352
0.446185
0.449866
0.45604
0.463875
0.471569
0.485551
0.498715
0.51162
0.52415
0.534853
0.54376
0.549987
0.553626
0.556879
0.559664
0.562113
0.564055
0.565125
0.564031
0.560367
0.543679
0.466008
0.36657
0.319176
0.300892
0.295241
0.296235
0.304505
0.314655
0.325547
0.333702
0.340208
0.346597
0.352268
0.356835
0.360982
0.364129
0.36852
0.375292
0.386121
0.403256
0.428824
0.464014
0.505364
0.545392
0.579191
0.604366
0.622658
0.637024
0.649184
0.661061
0.673159
0.685085
0.696288
0.704082
0.713866
0.716583
0.71816
0.720387
0.720085
0.721373
0.721506
0.722293
0.721176
0.719712
0.716644
0.704695
0.689038
0.674996
0.662743
0.643284
0.634426
0.613286
0.579355
0.529512
0.473351
0.396429
0.331029
0.304636
0.305645
0.335477
0.398308
0.481132
0.527886
0.539169
0.54194
0.541838
0.540523
0.539256
0.537671
0.540385
0.537979
0.536869
0.535884
0.534728
0.533029
0.531667
0.530727
0.530458
0.53072
0.533292
0.53524
0.722465
0.587557
0.420779
0.371746
0.370681
0.389041
0.407702
0.419409
0.426497
0.430115
0.434897
0.440975
0.442072
0.447578
0.453683
0.460526
0.472981
0.484644
0.49685
0.508895
0.51957
0.528986
0.535861
0.539172
0.54168
0.543338
0.544409
0.544818
0.544282
0.541734
0.537809
0.522582
0.457274
0.364787
0.318386
0.300442
0.294995
0.296218
0.304374
0.314581
0.325309
0.33377
0.34022
0.345504
0.350975
0.355494
0.360332
0.36402
0.368568
0.376243
0.387869
0.405593
0.430831
0.464327
0.503388
0.542485
0.576541
0.602647
0.622045
0.637231
0.65045
0.663436
0.67623
0.688439
0.69907
0.706127
0.716324
0.72018
0.720326
0.722
0.720486
0.721184
0.720161
0.720449
0.718832
0.717999
0.715706
0.706984
0.695972
0.685813
0.675954
0.660865
0.65185
0.628855
0.59647
0.53716
0.469828
0.394639
0.334292
0.313614
0.322476
0.369143
0.449777
0.533039
0.561011
0.564264
0.563398
0.559594
0.555512
0.552303
0.550764
0.550001
0.54956
0.547287
0.546305
0.543809
0.54226
0.541566
0.541989
0.543513
0.545381
0.547188
0.5518
0.796037
0.769874
0.563057
0.40913
0.377835
0.388159
0.405397
0.421164
0.429001
0.432501
0.436057
0.438818
0.438599
0.441493
0.444812
0.449706
0.459103
0.469167
0.480275
0.491447
0.502055
0.511754
0.519184
0.522829
0.525385
0.526588
0.526857
0.526281
0.524915
0.521558
0.516438
0.503878
0.452849
0.368569
0.320864
0.301674
0.295882
0.29622
0.3028
0.313852
0.323005
0.330227
0.336138
0.34201
0.347032
0.352652
0.36061
0.363076
0.368341
0.37629
0.388382
0.406813
0.432036
0.46494
0.503106
0.541644
0.575774
0.602559
0.62297
0.639265
0.653503
0.667256
0.680612
0.693057
0.703689
0.711566
0.720989
0.725389
0.724747
0.724832
0.723152
0.721682
0.719917
0.719692
0.717378
0.716553
0.714322
0.708711
0.701884
0.694947
0.688672
0.679713
0.66902
0.647012
0.617501
0.552726
0.471009
0.39684
0.342307
0.32979
0.354791
0.42184
0.518322
0.577899
0.588857
0.586563
0.581932
0.574992
0.568901
0.564348
0.564148
0.559928
0.560107
0.557595
0.556122
0.553234
0.551487
0.551518
0.552897
0.555458
0.55846
0.559292
0.5623
0.829974
0.854504
0.783891
0.520614
0.413304
0.401106
0.414563
0.431063
0.439006
0.442233
0.444286
0.442834
0.441177
0.439963
0.438615
0.44067
0.446352
0.453966
0.463351
0.473344
0.483641
0.493485
0.501532
0.505634
0.50841
0.509576
0.509672
0.50897
0.507471
0.50434
0.499106
0.491941
0.45119
0.38041
0.328374
0.305425
0.297721
0.296432
0.299891
0.310686
0.317694
0.324053
0.330016
0.335801
0.340395
0.345654
0.352658
0.366433
0.367354
0.376049
0.388296
0.406929
0.432286
0.465398
0.503864
0.542644
0.577313
0.604843
0.626176
0.643554
0.658725
0.673096
0.686849
0.699598
0.710663
0.720018
0.726475
0.732751
0.731665
0.729209
0.725724
0.722985
0.720698
0.720279
0.717098
0.716042
0.713108
0.710045
0.705807
0.702109
0.699835
0.698039
0.684718
0.667196
0.640799
0.575458
0.482185
0.405567
0.361297
0.361398
0.407485
0.496817
0.582952
0.608122
0.6096
0.603332
0.596152
0.587979
0.580823
0.575619
0.577071
0.572263
0.570075
0.567651
0.565407
0.562453
0.560424
0.560124
0.561394
0.563644
0.564879
0.56441
0.565706
0.842668
0.884111
0.926018
0.747595
0.519815
0.453796
0.448941
0.459545
0.464236
0.464326
0.460947
0.455404
0.449696
0.443594
0.437598
0.434928
0.436019
0.440619
0.447331
0.456152
0.465884
0.475464
0.484125
0.488778
0.49216
0.493735
0.494143
0.493788
0.492661
0.490172
0.485887
0.479471
0.454366
0.399236
0.342473
0.312646
0.300585
0.297027
0.296465
0.304456
0.309733
0.315125
0.320754
0.326612
0.331892
0.337834
0.346399
0.358957
0.36436
0.374063
0.387146
0.406106
0.432763
0.466498
0.505304
0.54536
0.581057
0.609666
0.632003
0.650167
0.665991
0.680716
0.694743
0.707655
0.719004
0.728659
0.735514
0.742318
0.740127
0.735429
0.729893
0.726564
0.72384
0.72255
0.718403
0.716713
0.712738
0.711084
0.709209
0.708155
0.709802
0.711831
0.700943
0.688839
0.666754
0.608321
0.511517
0.432549
0.401884
0.420934
0.488492
0.575263
0.620098
0.627082
0.623602
0.615769
0.606295
0.597983
0.591144
0.586781
0.584857
0.582218
0.579227
0.576656
0.57406
0.571204
0.568734
0.567537
0.567251
0.566536
0.565221
0.564754
0.564404
0.844435
0.893917
0.971685
0.95557
0.748348
0.594682
0.539809
0.521963
0.512383
0.50402
0.492841
0.480398
0.467743
0.454505
0.44211
0.433784
0.429573
0.430121
0.433482
0.440486
0.44986
0.458654
0.468039
0.47317
0.477409
0.479696
0.480816
0.481203
0.480753
0.479063
0.475321
0.469466
0.456377
0.41068
0.359545
0.323568
0.305838
0.298196
0.295049
0.299225
0.302185
0.305606
0.310319
0.315858
0.321884
0.328967
0.338889
0.349089
0.363237
0.37275
0.385553
0.404463
0.431866
0.467017
0.507648
0.549276
0.586663
0.616761
0.640053
0.658771
0.674892
0.68966
0.703646
0.716548
0.728015
0.737768
0.745503
0.751954
0.750938
0.744165
0.736087
0.731169
0.727791
0.726789
0.72183
0.718797
0.713397
0.713475
0.713191
0.713541
0.718815
0.724214
0.718806
0.714032
0.698044
0.657339
0.570022
0.495181
0.476038
0.507312
0.571777
0.621475
0.635648
0.635224
0.629489
0.621564
0.613104
0.605876
0.599876
0.596532
0.591973
0.58975
0.586608
0.5837
0.581014
0.578559
0.575586
0.572757
0.56972
0.566434
0.563234
0.561364
0.559522
0.837236
0.885461
0.958155
1.00489
0.932398
0.782267
0.670567
0.60838
0.571853
0.547092
0.528216
0.511522
0.494516
0.475173
0.454628
0.438019
0.428082
0.423826
0.42292
0.427375
0.436102
0.443789
0.453483
0.459829
0.464847
0.467945
0.4699
0.471305
0.471759
0.470839
0.46795
0.462791
0.45276
0.421949
0.375919
0.337656
0.313847
0.30145
0.295528
0.295964
0.296444
0.297704
0.30145
0.306541
0.312428
0.320694
0.330275
0.341598
0.355944
0.368516
0.383503
0.403454
0.430773
0.466774
0.510081
0.554527
0.593942
0.625383
0.649424
0.668425
0.684594
0.699219
0.712917
0.725614
0.736999
0.746903
0.75549
0.760786
0.761435
0.754181
0.744499
0.738904
0.733929
0.733349
0.728261
0.724185
0.721253
0.72006
0.718414
0.719992
0.727435
0.737896
0.739578
0.743132
0.734604
0.7245
0.657099
0.594011
0.571563
0.587484
0.61986
0.637969
0.638722
0.634982
0.630084
0.623801
0.617322
0.611547
0.607217
0.603043
0.59834
0.595344
0.592063
0.58914
0.586453
0.58374
0.580166
0.575378
0.570064
0.564173
0.559467
0.555837
0.553224
0.821394
0.860025
0.90249
0.933562
0.91858
0.836148
0.73984
0.661361
0.609602
0.5766
0.554457
0.537413
0.521337
0.502408
0.477014
0.449919
0.431934
0.42261
0.41777
0.418942
0.425169
0.431877
0.441103
0.449366
0.454823
0.458832
0.461813
0.464171
0.465567
0.465437
0.463474
0.458952
0.45006
0.429389
0.389837
0.352872
0.325315
0.30841
0.299127
0.296412
0.293528
0.293131
0.295356
0.299782
0.305426
0.313911
0.324445
0.336206
0.349901
0.36277
0.378441
0.398873
0.427344
0.466614
0.513789
0.561797
0.603597
0.636224
0.660399
0.678997
0.694717
0.708838
0.721979
0.734234
0.745331
0.755155
0.763651
0.769779
0.772345
0.76651
0.755935
0.749268
0.742336
0.742263
0.73754
0.733204
0.732418
0.73014
0.727384
0.729375
0.738861
0.756657
0.766724
0.777004
0.776613
0.784806
0.746201
0.691602
0.653739
0.637954
0.639377
0.638857
0.636584
0.632823
0.629069
0.624183
0.619581
0.615414
0.611585
0.60745
0.602904
0.599242
0.595828
0.592858
0.590117
0.587261
0.582226
0.575744
0.568376
0.559956
0.554198
0.549428
0.546524
0.799325
0.822424
0.844655
0.857324
0.848248
0.808556
0.748276
0.68401
0.630604
0.593449
0.569475
0.553313
0.540759
0.527116
0.504725
0.472174
0.443371
0.426571
0.418223
0.415845
0.417887
0.423351
0.432047
0.440971
0.446969
0.452228
0.456117
0.45968
0.461941
0.462729
0.461536
0.457858
0.450011
0.43368
0.402308
0.367523
0.339009
0.318672
0.305234
0.298574
0.292897
0.291015
0.291344
0.295349
0.300853
0.309511
0.320235
0.333315
0.347239
0.360856
0.376859
0.396772
0.424597
0.463794
0.513533
0.565849
0.611879
0.646793
0.671047
0.689019
0.703971
0.717513
0.730134
0.741851
0.752504
0.762125
0.770481
0.777428
0.781521
0.778892
0.769977
0.76159
0.75382
0.752861
0.748694
0.745028
0.744206
0.743195
0.741079
0.744135
0.756446
0.779568
0.797188
0.809994
0.811394
0.821521
0.811022
0.765889
0.706899
0.667314
0.646125
0.636541
0.632183
0.628735
0.626215
0.622976
0.619558
0.617372
0.614072
0.60995
0.605472
0.60145
0.597743
0.59442
0.591549
0.588703
0.582929
0.574586
0.565402
0.554764
0.54775
0.542732
0.539493
0.776613
0.793777
0.807784
0.815056
0.809908
0.784564
0.740708
0.687651
0.638003
0.601028
0.576441
0.560691
0.550602
0.542359
0.528912
0.501235
0.465703
0.438128
0.423078
0.417558
0.415658
0.418785
0.425911
0.434634
0.442514
0.44771
0.45263
0.456723
0.460383
0.462155
0.461597
0.458581
0.451956
0.438753
0.413251
0.38122
0.353336
0.330874
0.313988
0.303042
0.293915
0.290563
0.289701
0.293263
0.299348
0.307789
0.318106
0.331862
0.347038
0.362483
0.378958
0.398715
0.425534
0.463383
0.513313
0.568881
0.618397
0.654976
0.679382
0.696641
0.710806
0.723918
0.736273
0.747536
0.758133
0.767422
0.775679
0.78304
0.788138
0.788513
0.782495
0.774533
0.76702
0.763271
0.760705
0.757983
0.75693
0.757891
0.758074
0.763346
0.778773
0.806852
0.827322
0.838909
0.8375
0.841786
0.843644
0.81231
0.744637
0.6859
0.652922
0.637851
0.629938
0.625719
0.622113
0.619123
0.619568
0.617808
0.614645
0.610743
0.606424
0.602196
0.598194
0.594395
0.590841
0.586893
0.582088
0.57342
0.562356
0.548763
0.541137
0.535598
0.532104
0.760467
0.77238
0.781074
0.785489
0.782065
0.763471
0.729436
0.684416
0.638786
0.602038
0.576988
0.561577
0.553156
0.548592
0.543345
0.528045
0.498124
0.46258
0.43654
0.424248
0.418255
0.419021
0.422873
0.430872
0.439316
0.445097
0.451126
0.455943
0.460021
0.462937
0.463465
0.461764
0.456732
0.445774
0.424247
0.395922
0.367184
0.344602
0.32528
0.310253
0.297051
0.291902
0.290636
0.294342
0.301422
0.311035
0.322748
0.336412
0.354078
0.37164
0.388973
0.408174
0.432338
0.465726
0.511601
0.56625
0.617741
0.656821
0.682064
0.699464
0.713466
0.72673
0.739307
0.750687
0.761454
0.77081
0.778896
0.786085
0.79226
0.795012
0.793173
0.786443
0.780738
0.773714
0.772916
0.771077
0.770462
0.772489
0.776334
0.785144
0.804532
0.835451
0.855411
0.862061
0.856317
0.854525
0.85559
0.838527
0.77637
0.709376
0.666914
0.643625
0.631845
0.624885
0.621429
0.621291
0.619479
0.617049
0.61397
0.610215
0.606063
0.601762
0.597517
0.593375
0.589404
0.585406
0.579994
0.57135
0.558879
0.543572
0.534458
0.528311
0.524709
0.744774
0.753186
0.759022
0.761583
0.7581
0.743732
0.715811
0.67688
0.635315
0.600133
0.575331
0.560199
0.552512
0.549847
0.548638
0.544003
0.526484
0.495955
0.463099
0.440532
0.4266
0.422089
0.423301
0.429501
0.437332
0.445384
0.451545
0.456256
0.461304
0.465432
0.467618
0.466897
0.463198
0.454164
0.43577
0.410623
0.382976
0.359394
0.338897
0.320064
0.303122
0.295607
0.294234
0.299364
0.309438
0.322136
0.336954
0.354368
0.37319
0.390734
0.407059
0.424163
0.44413
0.471087
0.509155
0.55818
0.608642
0.649223
0.676334
0.695171
0.710629
0.724897
0.73832
0.750487
0.761845
0.771583
0.78017
0.787303
0.793387
0.797715
0.799952
0.796211
0.792612
0.784581
0.784832
0.783711
0.784038
0.787535
0.794087
0.807209
0.830638
0.86137
0.880953
0.878266
0.869196
0.863152
0.858622
0.851775
0.80748
0.743423
0.690532
0.657102
0.638316
0.629667
0.624941
0.621172
0.61807
0.615252
0.612118
0.608472
0.604449
0.600144
0.595705
0.591172
0.586484
0.581512
0.576742
0.566706
0.554244
0.539221
0.527799
0.52135
0.517743
0.729618
0.735597
0.739824
0.741234
0.737729
0.725793
0.701601
0.666357
0.628805
0.596082
0.572897
0.558743
0.551532
0.549629
0.550407
0.550728
0.544298
0.523991
0.495723
0.469471
0.444977
0.431218
0.426699
0.430181
0.437126
0.44524
0.451914
0.457374
0.463549
0.46874
0.472066
0.472663
0.470304
0.463203
0.447732
0.425439
0.399517
0.375319
0.355156
0.3331
0.313123
0.303054
0.301783
0.309673
0.324635
0.343186
0.363836
0.384249
0.402008
0.41685
0.429325
0.441491
0.456271
0.476607
0.506893
0.548365
0.593502
0.632257
0.661322
0.683448
0.701895
0.718416
0.733457
0.747049
0.759328
0.769796
0.778954
0.786707
0.792217
0.797287
0.803325
0.802739
0.801308
0.795125
0.794349
0.794368
0.795719
0.799919
0.811509
0.82645
0.853529
0.880583
0.90096
0.88783
0.876295
0.866481
0.857768
0.853244
0.824108
0.775223
0.719877
0.680783
0.657073
0.639252
0.627626
0.62054
0.616034
0.612675
0.609261
0.60559
0.601679
0.597359
0.59266
0.587564
0.58201
0.575907
0.57029
0.56031
0.547771
0.533374
0.521599
0.514142
0.510964
0.714832
0.71939
0.722613
0.723485
0.719884
0.709236
0.686438
0.655209
0.620887
0.591136
0.570237
0.557624
0.551489
0.550173
0.551889
0.553894
0.553735
0.544816
0.524413
0.501814
0.476054
0.450651
0.435948
0.433526
0.43807
0.445738
0.45533
0.457745
0.466484
0.472326
0.476748
0.478338
0.4774
0.472407
0.459732
0.44022
0.41639
0.392563
0.371486
0.35011
0.327609
0.314036
0.311108
0.322731
0.344252
0.37146
0.398888
0.420672
0.433733
0.44105
0.447148
0.453751
0.462384
0.477995
0.503527
0.538731
0.578078
0.6139
0.644055
0.66915
0.690617
0.709462
0.726137
0.740872
0.754083
0.765399
0.775255
0.783714
0.789233
0.796281
0.803203
0.805939
0.8066
0.803958
0.800666
0.802592
0.804674
0.809958
0.824097
0.843068
0.871516
0.894792
0.90829
0.892375
0.877734
0.865906
0.85413
0.844365
0.821579
0.788697
0.748263
0.708576
0.674251
0.648143
0.630446
0.619621
0.613441
0.609053
0.605205
0.601476
0.597778
0.593461
0.588327
0.582563
0.576149
0.569068
0.561971
0.55224
0.539703
0.526483
0.515221
0.507648
0.504071
0.700267
0.70385
0.706522
0.707148
0.703748
0.693052
0.67224
0.643711
0.612759
0.586109
0.567927
0.557578
0.553181
0.552505
0.554872
0.557734
0.559936
0.557347
0.546124
0.529427
0.509387
0.481072
0.454153
0.442135
0.441474
0.447113
0.455547
0.462087
0.468371
0.476353
0.481239
0.484245
0.484129
0.480968
0.471175
0.454391
0.432884
0.410041
0.388794
0.369531
0.345918
0.32869
0.323656
0.337141
0.365842
0.401911
0.434058
0.452969
0.457916
0.458293
0.458146
0.459699
0.4652
0.477847
0.499747
0.530135
0.564591
0.59904
0.629702
0.656481
0.679543
0.69976
0.717589
0.73357
0.74732
0.758972
0.769279
0.778244
0.784938
0.792351
0.800576
0.805325
0.807739
0.808034
0.804351
0.807581
0.809894
0.816872
0.831066
0.853369
0.880628
0.901083
0.907285
0.891986
0.877493
0.863588
0.849915
0.836644
0.818917
0.795243
0.763992
0.727828
0.690548
0.657579
0.634246
0.619585
0.610068
0.60419
0.600032
0.596172
0.592348
0.587928
0.582422
0.57592
0.568718
0.560903
0.55264
0.543124
0.531535
0.519429
0.508209
0.501205
0.497645
0.685784
0.688736
0.691234
0.691979
0.688378
0.677696
0.658617
0.632697
0.604902
0.581691
0.56678
0.558961
0.555928
0.55664
0.559687
0.563387
0.566991
0.567538
0.562808
0.55271
0.537199
0.516662
0.481065
0.458272
0.449403
0.450539
0.456925
0.463634
0.473291
0.480672
0.485776
0.489438
0.490485
0.48875
0.481455
0.46717
0.448382
0.427161
0.406829
0.388616
0.368278
0.349578
0.342363
0.357246
0.391439
0.431857
0.462525
0.471338
0.469928
0.466204
0.462595
0.461791
0.465108
0.475547
0.493946
0.519538
0.55034
0.583007
0.613446
0.641587
0.666254
0.687717
0.706285
0.722708
0.737454
0.749959
0.761144
0.770669
0.778928
0.786434
0.794446
0.800988
0.804993
0.806946
0.804832
0.808285
0.810754
0.818814
0.832385
0.857165
0.882909
0.90027
0.902806
0.888779
0.874181
0.859485
0.844786
0.830611
0.815074
0.796408
0.772775
0.742686
0.706114
0.669275
0.637811
0.61635
0.603624
0.59658
0.592263
0.588849
0.585115
0.580294
0.574386
0.567492
0.55976
0.551273
0.542187
0.533468
0.521692
0.510475
0.500762
0.493959
0.490662
0.671292
0.673777
0.676253
0.677257
0.67326
0.663112
0.645776
0.622403
0.597808
0.578233
0.566612
0.561058
0.559466
0.561819
0.565762
0.570554
0.575445
0.578354
0.577613
0.572835
0.563404
0.550802
0.521086
0.484653
0.464585
0.458095
0.460591
0.466879
0.475686
0.484236
0.492009
0.494059
0.496415
0.495546
0.490352
0.47849
0.462188
0.443232
0.424859
0.408433
0.391217
0.376856
0.36982
0.387542
0.422199
0.458367
0.477927
0.480514
0.474523
0.468756
0.462737
0.459926
0.461209
0.468976
0.483787
0.505628
0.532766
0.563588
0.59522
0.625227
0.651681
0.674217
0.693265
0.709716
0.724129
0.737538
0.749994
0.761164
0.769587
0.777657
0.785527
0.792044
0.797227
0.801159
0.80134
0.804203
0.807186
0.815315
0.826559
0.851252
0.877591
0.893446
0.895234
0.882991
0.868531
0.85408
0.839129
0.825129
0.81076
0.795833
0.778349
0.754303
0.720036
0.676923
0.638062
0.611131
0.59489
0.585663
0.580219
0.576337
0.572658
0.568412
0.563486
0.557005
0.549006
0.540521
0.530989
0.523147
0.511776
0.502174
0.492691
0.486378
0.482726
0.656751
0.658844
0.661234
0.662482
0.658577
0.649256
0.633712
0.612933
0.591506
0.575426
0.567076
0.563913
0.564078
0.568169
0.571943
0.578112
0.584731
0.590241
0.592378
0.591757
0.588042
0.579121
0.559176
0.524433
0.492822
0.474228
0.469764
0.472597
0.479829
0.488084
0.496013
0.502325
0.502442
0.501866
0.497913
0.487897
0.474179
0.458262
0.442687
0.429295
0.416596
0.41037
0.4081
0.427213
0.455301
0.478292
0.485455
0.482608
0.4757
0.466515
0.458154
0.453064
0.452418
0.45762
0.468413
0.486629
0.511203
0.540972
0.573518
0.605839
0.634964
0.659277
0.679065
0.695275
0.708883
0.720577
0.734183
0.745564
0.753894
0.761504
0.769268
0.776586
0.782861
0.78875
0.791456
0.794947
0.798514
0.805812
0.811594
0.839385
0.86446
0.88185
0.885161
0.875303
0.86176
0.847646
0.832811
0.819338
0.805925
0.793674
0.780124
0.760548
0.729002
0.684206
0.640562
0.607881
0.586526
0.573421
0.56518
0.559506
0.554913
0.55092
0.546887
0.54214
0.5364
0.52889
0.520624
0.512455
0.502857
0.494479
0.486086
0.478915
0.474398
0.642414
0.644065
0.646126
0.647494
0.644135
0.635956
0.622319
0.604287
0.58619
0.57349
0.567277
0.565983
0.569358
0.57408
0.578619
0.585221
0.594062
0.602605
0.607912
0.610904
0.612235
0.608507