/*--------------------------------*- C++ -*----------------------------------*\
  =========                 |
  \\      /  F ield         | OpenFOAM: The Open Source CFD Toolbox
   \\    /   O peration     | Website:  https://openfoam.org
    \\  /    A nd           | Version:  11
     \\/     M anipulation  |
\*---------------------------------------------------------------------------*/
FoamFile
{
    format      ascii;
    class       volScalarField;
    location    "5";
    object      Ccx;
}
// * * * * * * * * * * * * * * * * * * * * * * * * * * * * * * * * * * * * * //

dimensions      [0 1 0 0 0 0 0];

internalField   nonuniform List<scalar> 
9600
(
-0.94532445
-0.69812629
-0.45092812
-0.20372995
0.043468212
0.29066638
0.53786455
0.78506271
1.0322609
1.279459
1.5266572
1.7738554
2.0210535
2.2682517
2.5154499
2.762648
3.0098462
3.2570444
3.5042425
3.7514407
3.9986389
4.2458371
4.4930352
4.7402334
4.9874316
5.2346297
5.4818279
5.7290261
5.9762242
6.2234224
6.4706206
6.7178187
6.9650169
7.2122151
7.4594132
7.7066114
7.9538096
8.2010077
8.4482059
8.6954041
-0.8356418
-0.59406838
-0.35249497
-0.11092155
0.13065186
0.37222528
0.61379869
0.85537211
1.0969455
1.3385189
1.5800924
1.8216658
2.0632392
2.3048126
2.546386
2.7879594
3.0295328
3.2711063
3.5126797
3.7542531
3.9958265
4.2373999
4.4789733
4.7205468
4.9621202
5.2036936
5.445267
5.6868404
5.9284138
6.1699872
6.4115607
6.6531341
6.8947075
7.1362809
7.3778543
7.6194277
7.8610012
8.1025746
8.344148
8.5857214
-0.72595937
-0.4900107
-0.25406202
-0.018113348
0.21783533
0.45378401
0.68973268
0.92568136
1.16163
1.3975787
1.6335274
1.8694761
2.1054247
2.3413734
2.5773221
2.8132708
3.0492194
3.2851681
3.5211168
3.7570655
3.9930141
4.2289628
4.4649115
4.7008602
4.9368088
5.1727575
5.4087062
5.6446549
5.8806035
6.1165522
6.3525009
6.5884496
6.8243982
7.0603469
7.2962956
7.5322443
7.7681929
8.0041416
8.2400903
8.476039
-0.61627719
-0.38595325
-0.1556293
0.074694648
0.3050186
0.53534255
0.7656665
0.99599044
1.2263144
1.4566383
1.6869623
1.9172862
2.1476102
2.3779341
2.6082581
2.838582
3.068906
3.2992299
3.5295539
3.7598778
3.9902018
4.2205257
4.4508497
4.6811736
4.9114976
5.1418215
5.3721455
5.6024694
5.8327934
6.0631173
6.2934413
6.5237652
6.7540892
6.9844131
7.2147371
7.445061
7.6753849
7.9057089
8.1360328
8.3663568
-0.50659528
-0.28189605
-0.057196814
0.16750242
0.39220166
0.61690089
0.84160013
1.0662994
1.2909986
1.5156978
1.7403971
1.9650963
2.1897955
2.4144948
2.639194
2.8638932
3.0885925
3.3132917
3.5379909
3.7626902
3.9873894
4.2120887
4.4367879
4.6614871
4.8861864
5.1108856
5.3355848
5.5602841
5.7849833
6.0096825
6.2343818
6.459081
6.6837802
6.9084795
7.1331787
7.3578779
7.5825772
7.8072764
8.0319756
8.2566749
-0.39691366
-0.17783912
0.041235412
0.26030995
0.47938449
0.69845902
0.91753356
1.1366081
1.3556826
1.5747572
1.7938317
2.0129062
2.2319808
2.4510553
2.6701298
2.8892044
3.1082789
3.3273535
3.546428
3.7655025
3.9845771
4.2036516
4.4227261
4.6418007
4.8608752
5.0799498
5.2990243
5.5180988
5.7371734
5.9562479
6.1753224
6.394397
6.6134715
6.832546
7.0516206
7.2706951
7.4897697
7.7088442
7.9279187
8.1469933
-0.28723234
-0.073782494
0.13966736
0.35311722
0.56656707
0.78001692
0.99346678
1.2069166
1.4203665
1.6338163
1.8472662
2.060716
2.2741659
2.4876158
2.7010656
2.9145155
3.1279653
3.3414152
3.554865
3.7683149
3.9817647
4.1952146
4.4086644
4.6221143
4.8355641
5.049014
5.2624638
5.4759137
5.6893636
5.9028134
6.1162633
6.3297131
6.543163
6.7566128
6.9700627
7.1835125
7.3969624
7.6104122
7.8238621
8.0373119
-0.17755137
0.03027382
0.23809901
0.4459242
0.65374939
0.86157457
1.0693998
1.277225
1.4850501
1.6928753
1.9007005
2.1085257
2.3163509
2.5241761
2.7320013
2.9398265
3.1476516
3.3554768
3.563302
3.7711272
3.9789524
4.1867776
4.3946028
4.602428
4.8102531
5.0180783
5.2259035
5.4337287
5.6415539
5.8493791
6.0572043
6.2650295
6.4728546
6.6806798
6.888505
7.0963302
7.3041554
7.5119806
7.7198058
7.927631
-0.067870751
0.13432979
0.33653033
0.53873087
0.74093142
0.94313196
1.1453325
1.347533
1.5497336
1.7519341
1.9541347
2.1563352
2.3585357
2.5607363
2.7629368
2.9651374
3.1673379
3.3695384
3.571739
3.7739395
3.9761401
4.1783406
4.3805412
4.5827417
4.7849422
4.9871428
5.1893433
5.3915439
5.5937444
5.7959449
5.9981455
6.200346
6.4025466
6.6047471
6.8069476
7.0091482
7.2113487
7.4135493
7.6157498
7.8179503
0.041809472
0.23838539
0.4349613
0.63153722
0.82811313
1.024689
1.221265
1.4178409
1.6144168
1.8109927
2.0075686
2.2041445
2.4007204
2.5972964
2.7938723
2.9904482
3.1870241
3.3836
3.5801759
3.7767518
3.9733278
4.1699037
4.3664796
4.5630555
4.7596314
4.9562073
5.1527832
5.3493592
5.5459351
5.742511
5.9390869
6.1356628
6.3322387
6.5288146
6.7253906
6.9219665
7.1185424
7.3151183
7.5116942
7.7082701
0.15148927
0.34244058
0.53339189
0.7243432
0.91529451
1.1062458
1.2971971
1.4881484
1.6790997
1.8700511
2.0610024
2.2519537
2.442905
2.6338563
2.8248076
3.0157589
3.2067102
3.3976615
3.5886128
3.7795641
3.9705155
4.1614668
4.3524181
4.5433694
4.7343207
4.925272
5.1162233
5.3071746
5.4981259
5.6890772
5.8800285
6.0709799
6.2619312
6.4528825
6.6438338
6.8347851
7.0257364
7.2166877
7.407639
7.5985903
0.26116859
0.44649532
0.63182205
0.81714878
1.0024755
1.1878022
1.373129
1.5584557
1.7437824
1.9291092
2.1144359
2.2997626
2.4850893
2.6704161
2.8557428
3.0410695
3.2263963
3.411723
3.5970497
3.7823764
3.9677032
4.1530299
4.3383566
4.5236833
4.7090101
4.8943368
5.0796635
5.2649903
5.450317
5.6356437
5.8209704
6.0062972
6.1916239
6.3769506
6.5622774
6.7476041
6.9329308
7.1182575
7.3035843
7.488911
0.37084741
0.55054958
0.73025176
0.90995393
1.0896561
1.2693583
1.4490605
1.6287626
1.8084648
1.988167
2.1678691
2.3475713
2.5272735
2.7069757
2.8866778
3.06638
3.2460822
3.4257844
3.6054865
3.7851887
3.9648909
4.1445931
4.3242952
4.5039974
4.6836996
4.8634018
5.0431039
5.2228061
5.4025083
5.5822105
5.7619126
5.9416148
6.121317
6.3010191
6.4807213
6.6604235
6.8401257
7.0198278
7.19953
7.3792322
0.48052566
0.65460331
0.82868096
1.0027586
1.1768363
1.3509139
1.5249916
1.6990692
1.8731468
2.0472245
2.2213021
2.3953798
2.5694574
2.7435351
2.9176127
3.0916904
3.265768
3.4398457
3.6139233
3.788001
3.9620786
4.1361563
4.3102339
4.4843116
4.6583892
4.8324669
5.0065445
5.1806222
5.3546998
5.5287775
5.7028551
5.8769328
6.0510104
6.225088
6.3991657
6.5732433
6.747321
6.9213986
7.0954763
7.2695539
0.5902033
0.75865645
0.92710961
1.0955628
1.2640159
1.4324691
1.6009222
1.7693754
1.9378285
2.1062817
2.2747348
2.443188
2.6116411
2.7800943
2.9485475
3.1170006
3.2854538
3.4539069
3.6223601
3.7908132
3.9592664
4.1277195
4.2961727
4.4646258
4.633079
4.8015321
4.9699853
5.1384385
5.3068916
5.4753448
5.6437979
5.8122511
5.9807042
6.1491574
6.3176105
6.4860637
6.6545168
6.82297
6.9914231
7.1598763
0.69988025
0.86270895
1.0255376
1.1883663
1.351195
1.5140237
1.6768524
1.8396811
2.0025098
2.1653385
2.3281672
2.4909959
2.6538246
2.8166533
2.979482
3.1423107
3.3051394
3.4679681
3.6307968
3.7936255
3.9564541
4.1192828
4.2821115
4.4449402
4.6077689
4.7705976
4.9334263
5.096255
5.2590837
5.4219124
5.5847411
5.7475698
5.9103985
6.0732272
6.2360559
6.3988846
6.5617133
6.724542
6.8873707
7.0501993
0.80955645
0.96676072
1.123965
1.2811693
1.4383735
1.5955778
1.7527821
1.9099864
2.0671906
2.2243949
2.3815992
2.5388035
2.6960077
2.853212
3.0104163
3.1676206
3.3248248
3.4820291
3.6392334
3.7964377
3.9536419
4.1108462
4.2680505
4.4252548
4.582459
4.7396633
4.8968676
5.0540719
5.2112761
5.3684804
5.5256847
5.682889
5.8400932
5.9972975
6.1545018
6.3117061
6.4689103
6.6261146
6.7833189
6.9405231
0.91923181
1.0708117
1.2223916
1.3739715
1.5255514
1.6771313
1.8287112
1.9802911
2.131871
2.2834509
2.4350308
2.5866107
2.7381906
2.8897705
3.0413504
3.1929303
3.3445102
3.4960901
3.64767
3.7992499
3.9508297
4.1024096
4.2539895
4.4055694
4.5571493
4.7087292
4.8603091
5.011889
5.1634689
5.3150488
5.4666287
5.6182086
5.7697885
5.9213684
6.0729483
6.2245282
6.3761081
6.527688
6.6792679
6.8308478
1.0289062
1.1748618
1.3208174
1.4667729
1.6127285
1.7586841
1.9046396
2.0505952
2.1965508
2.3425063
2.4884619
2.6344175
2.780373
2.9263286
3.0722842
3.2182397
3.3641953
3.5101509
3.6561064
3.802062
3.9480176
4.0939732
4.2399287
4.3858843
4.5318399
4.6777954
4.823751
4.9697066
5.1156621
5.2616177
5.4075733
5.5535288
5.6994844
5.84544
5.9913955
6.1373511
6.2833067
6.4292622
6.5752178
6.7211734
1.1385796
1.2789109
1.4192422
1.5595735
1.6999048
1.8402361
1.9805674
2.1208987
2.2612299
2.4015612
2.5418925
2.6822238
2.8225551
2.9628864
3.1032177
3.243549
3.3838803
3.5242116
3.6645429
3.8048742
3.9452054
4.0855367
4.225868
4.3661993
4.5065306
4.6468619
4.7871932
4.9275245
5.0678558
5.2081871
5.3485184
5.4888497
5.6291809
5.7695122
5.9098435
6.0501748
6.1905061
6.3308374
6.4711687
6.6115
1.2482518
1.3829589
1.517666
1.652373
1.7870801
1.9217872
2.0564943
2.1912013
2.3259084
2.4606155
2.5953226
2.7300296
2.8647367
2.9994438
3.1341509
3.268858
3.403565
3.5382721
3.6729792
3.8076863
3.9423933
4.0771004
4.2118075
4.3465146
4.4812216
4.6159287
4.7506358
4.8853429
5.02005
5.154757
5.2894641
5.4241712
5.5588783
5.6935853
5.8282924
5.9629995
6.0977066
6.2324136
6.3671207
6.5018278
1.3579227
1.4870056
1.6160885
1.7451715
1.8742544
2.0033373
2.1324202
2.2615032
2.3905861
2.519669
2.648752
2.7778349
2.9069178
3.0360008
3.1650837
3.2941666
3.4232495
3.5523325
3.6814154
3.8104983
3.9395813
4.0686642
4.1977471
4.3268301
4.455913
4.5849959
4.7140788
4.8431618
4.9722447
5.1013276
5.2304106
5.3594935
5.4885764
5.6176594
5.7467423
5.8758252
6.0049081
6.1339911
6.263074
6.3921569
1.467592
1.5910509
1.7145097
1.8379686
1.9614275
2.0848863
2.2083452
2.331804
2.4552629
2.5787218
2.7021806
2.8256395
2.9490983
3.0725572
3.1960161
3.3194749
3.4429338
3.5663926
3.6898515
3.8133104
3.9367692
4.0602281
4.183687
4.3071458
4.4306047
4.5540635
4.6775224
4.8009813
4.9244401
5.047899
5.1713578
5.2948167
5.4182756
5.5417344
5.6651933
5.7886521
5.912111
6.0355699
6.1590287
6.2824876
1.5772596
1.6950945
1.8129294
1.9307643
2.0485992
2.166434
2.2842689
2.4021038
2.5199387
2.6377736
2.7556084
2.8734433
2.9912782
3.1091131
3.226948
3.3447828
3.4626177
3.5804526
3.6982875
3.8161224
3.9339572
4.0517921
4.169627
4.2874619
4.4052968
4.5231316
4.6409665
4.7588014
4.8766363
4.9944712
5.112306
5.2301409
5.3479758
5.4658107
5.5836456
5.7014804
5.8193153
5.9371502
6.0549851
6.17282
1.6869252
1.7991362
1.9113473
2.0235583
2.1357693
2.2479803
2.3601913
2.4724023
2.5846133
2.6968243
2.8090353
2.9212463
3.0334573
3.1456683
3.2578793
3.3700903
3.4823013
3.5945123
3.7067233
3.8189343
3.9311453
4.0433563
4.1555673
4.2677783
4.3799893
4.4922003
4.6044113
4.7166223
4.8288333
4.9410443
5.0532553
5.1654663
5.2776773
5.3898883
5.5020993
5.6143103
5.7265213
5.8387323
5.9509434
6.0631544
1.7965886
1.9031758
2.009763
2.1163503
2.2229375
2.3295248
2.436112
2.5426993
2.6492865
2.7558737
2.862461
2.9690482
3.0756355
3.1822227
3.28881
3.3953972
3.5019844
3.6085717
3.7151589
3.8217462
3.9283334
4.0349207
4.1415079
4.2480952
4.3546824
4.4612696
4.5678569
4.6744441
4.7810314
4.8876186
4.9942059
5.1007931
5.2073803
5.3139676
5.4205548
5.5271421
5.6337293
5.7403166
5.8469038
5.953491
1.9062492
2.0072128
2.1081764
2.20914
2.3101037
2.4110673
2.5120309
2.6129945
2.7139581
2.8149218
2.9158854
3.016849
3.1178126
3.2187763
3.3197399
3.4207035
3.5216671
3.6226307
3.7235944
3.824558
3.9255216
4.0264852
4.1274489
4.2284125
4.3293761
4.4303397
4.5313033
4.632267
4.7332306
4.8341942
4.9351578
5.0361215
5.1370851
5.2380487
5.3390123
5.4399759
5.5409396
5.6419032
5.7428668
5.8438304
2.0159066
2.1112468
2.2065869
2.3019271
2.3972673
2.4926074
2.5879476
2.6832878
2.7786279
2.8739681
2.9693082
3.0646484
3.1599886
3.2553287
3.3506689
3.4460091
3.5413492
3.6366894
3.7320296
3.8273697
3.9227099
4.01805
4.1133902
4.2087304
4.3040705
4.3994107
4.4947509
4.590091
4.6854312
4.7807714
4.8761115
4.9714517
5.0667918
5.162132
5.2574722
5.3528123
5.4481525
5.5434927
5.6388328
5.734173
2.1255603
2.2152772
2.3049941
2.394711
2.4844279
2.5741448
2.6638617
2.7535786
2.8432955
2.9330124
3.0227293
3.1124462
3.2021631
3.29188
3.3815969
3.4713138
3.5610307
3.6507476
3.7404645
3.8301814
3.9198982
4.0096151
4.099332
4.1890489
4.2787658
4.3684827
4.4581996
4.5479165
4.6376334
4.7273503
4.8170672
4.9067841
4.996501
5.0862179
5.1759348
5.2656517
5.3553686
5.4450855
5.5348024
5.6245193
2.2352094
2.3193033
2.4033971
2.487491
2.5715849
2.6556787
2.7397726
2.8238665
2.9079603
2.9920542
3.0761481
3.1602419
3.2443358
3.3284297
3.4125235
3.4966174
3.5807113
3.6648051
3.748899
3.8329929
3.9170867
4.0011806
4.0852745
4.1693683
4.2534622
4.3375561
4.4216499
4.5057438
4.5898377
4.6739315
4.7580254
4.8421193
4.9262131
5.010307
5.0944009
5.1784947
5.2625886
5.3466825
5.4307763
5.5148702
2.344853
2.4233242
2.5017953
2.5802664
2.6587375
2.7372086
2.8156797
2.8941509
2.972622
3.0510931
3.1295642
3.2080353
3.2865064
3.3649775
3.4434487
3.5219198
3.6003909
3.678862
3.7573331
3.8358042
3.9142754
3.9927465
4.0712176
4.1496887
4.2281598
4.3066309
4.3851021
4.4635732
4.5420443
4.6205154
4.6989865
4.7774576
4.8559287
4.9343999
5.012871
5.0913421
5.1698132
5.2482843
5.3267554
5.4052266
2.4544899
2.5273386
2.6001873
2.673036
2.7458848
2.8187335
2.8915822
2.9644309
3.0372796
3.1101283
3.182977
3.2558257
3.3286745
3.4015232
3.4743719
3.5472206
3.6200693
3.692918
3.7657667
3.8386154
3.9114642
3.9843129
4.0571616
4.1300103
4.202859
4.2757077
4.3485564
4.4214051
4.4942539
4.5671026
4.6399513
4.7128
4.7856487
4.8584974
4.9313461
5.0041948
5.0770436
5.1498923
5.222741
5.2955897
2.5641183
2.631345
2.6985718
2.7657985
2.8330253
2.900252
2.9674788
3.0347055
3.1019322
3.169159
3.2363857
3.3036125
3.3708392
3.438066
3.5052927
3.5725195
3.6397462
3.7069729
3.7741997
3.8414264
3.9086532
3.9758799
4.0431067
4.1103334
4.1775601
4.2447869
4.3120136
4.3792404
4.4464671
4.5136939
4.5809206
4.6481474
4.7153741
4.7826008
4.8498276
4.9170543
4.9842811
5.0515078
5.1187346
5.1859613
2.6737359
2.7353412
2.7969465
2.8585519
2.9201572
2.9817625
3.0433678
3.1049732
3.1665785
3.2281838
3.2897892
3.3513945
3.4129998
3.4746052
3.5362105
3.5978158
3.6594211
3.7210265
3.7826318
3.8442371
3.9058425
3.9674478
4.0290531
4.0906585
4.1522638
4.2138691
4.2754744
4.3370798
4.3986851
4.4602904
4.5218958
4.5835011
4.6451064
4.7067118
4.7683171
4.8299224
4.8915277
4.9531331
5.0147384
5.0763437
2.7833394
2.839324
2.8953087
2.9512933
3.0072779
3.0632626
3.1192472
3.1752318
3.2312165
3.2872011
3.3431857
3.3991704
3.455155
3.5111397
3.5671243
3.6231089
3.6790936
3.7350782
3.7910628
3.8470475
3.9030321
3.9590168
4.0150014
4.070986
4.1269707
4.1829553
4.2389399
4.2949246
4.3509092
4.4068939
4.4628785
4.5188631
4.5748478
4.6308324
4.686817
4.7428017
4.7987863
4.8547709
4.9107556
4.9667402
2.8929241
2.943289
2.9936539
3.0440188
3.0943837
3.1447487
3.1951136
3.2454785
3.2958434
3.3462083
3.3965732
3.4469381
3.497303
3.5476679
3.5980328
3.6483977
3.6987626
3.7491275
3.7994924
3.8498573
3.9002223
3.9505872
4.0009521
4.051317
4.1016819
4.1520468
4.2024117
4.2527766
4.3031415
4.3535064
4.4038713
4.4542362
4.5046011
4.554966
4.6053309
4.6556959
4.7060608
4.7564257
4.8067906
4.8571555
3.002483
3.0472295
3.091976
3.1367225
3.181469
3.2262155
3.270962
3.3157085
3.360455
3.4052015
3.449948
3.4946945
3.539441
3.5841875
3.628934
3.6736805
3.718427
3.7631735
3.80792
3.8526665
3.8974131
3.9421596
3.9869061
4.0316526
4.0763991
4.1211456
4.1658921
4.2106386
4.2553851
4.3001316
4.3448781
4.3896246
4.4343711
4.4791176
4.5238641
4.5686106
4.6133571
4.6581036
4.7028501
4.7475966
3.1120048
3.1511348
3.1902648
3.2293948
3.2685248
3.3076548
3.3467848
3.3859148
3.4250448
3.4641748
3.5033048
3.5424348
3.5815648
3.6206948
3.6598248
3.6989548
3.7380848
3.7772148
3.8163448
3.8554748
3.8946048
3.9337348
3.9728648
4.0119948
4.0511248
4.0902548
4.1293848
4.1685148
4.2076448
4.2467748
4.2859048
4.3250348
4.3641648
4.4032948
4.4424248
4.4815548
4.5206848
4.5598148
4.5989448
4.6380748
3.2214709
3.2549872
3.2885036
3.3220199
3.3555363
3.3890527
3.422569
3.4560854
3.4896017
3.5231181
3.5566344
3.5901508
3.6236671
3.6571835
3.6906998
3.7242162
3.7577326
3.7912489
3.8247653
3.8582816
3.891798
3.9253143
3.9588307
3.992347
4.0258634
4.0593798
4.0928961
4.1264125
4.1599288
4.1934452
4.2269615
4.2604779
4.2939942
4.3275106
4.3610269
4.3945433
4.4280597
4.461576
4.4950924
4.5286087
3.3308474
3.3587547
3.386662
3.4145693
3.4424766
3.4703839
3.4982912
3.5261985
3.5541058
3.5820131
3.6099204
3.6378277
3.665735
3.6936423
3.7215496
3.7494569
3.7773642
3.8052715
3.8331788
3.8610861
3.8889935
3.9169008
3.9448081
3.9727154
4.0006227
4.02853
4.0564373
4.0843446
4.1122519
4.1401592
4.1680665
4.1959738
4.2238811
4.2517884
4.2796957
4.307603
4.3355103
4.3634176
4.3913249
4.4192322
8.8190111
8.8190111
8.8190111
8.8190111
8.8190111
8.8190111
8.8190111
8.8190111
8.8190111
8.8190111
8.8190111
8.8190111
8.8190111
8.8190111
8.8190111
8.8190111
8.8190111
8.8190111
8.8190111
8.8190111
8.8190111
8.8190111
8.8190111
8.8190111
8.8190111
8.8190111
8.8190111
8.8190111
8.8190111
8.8190111
8.8190111
8.8190111
8.8190111
8.8190111
8.8190111
8.8190111
8.8190111
8.8190111
8.8190111
8.8190111
8.7065165
8.7065165
8.7065165
8.7065165
8.7065165
8.7065165
8.7065165
8.7065165
8.7065165
8.7065165
8.7065165
8.7065165
8.7065165
8.7065165
8.7065165
8.7065165
8.7065165
8.7065165
8.7065165
8.7065165
8.7065165
8.7065165
8.7065165
8.7065165
8.7065165
8.7065165
8.7065165
8.7065165
8.7065165
8.7065165
8.7065165
8.7065165
8.7065165
8.7065165
8.7065165
8.7065165
8.7065165
8.7065165
8.7065165
8.7065165
8.5940221
8.5940221
8.5940221
8.5940221
8.5940221
8.5940221
8.5940221
8.5940221
8.5940221
8.5940221
8.5940221
8.5940221
8.5940221
8.5940221
8.5940221
8.5940221
8.5940221
8.5940221
8.5940221
8.5940221
8.5940221
8.5940221
8.5940221
8.5940221
8.5940221
8.5940221
8.5940221
8.5940221
8.5940221
8.5940221
8.5940221
8.5940221
8.5940221
8.5940221
8.5940221
8.5940221
8.5940221
8.5940221
8.5940221
8.5940221
8.481528
8.481528
8.481528
8.481528
8.481528
8.481528
8.481528
8.481528
8.481528
8.481528
8.481528
8.481528
8.481528
8.481528
8.481528
8.481528
8.481528
8.481528
8.481528
8.481528
8.481528
8.481528
8.481528
8.481528
8.481528
8.481528
8.481528
8.481528
8.481528
8.481528
8.481528
8.481528
8.481528
8.481528
8.481528
8.481528
8.481528
8.481528
8.481528
8.481528
8.3690342
8.3690342
8.3690342
8.3690342
8.3690342
8.3690342
8.3690342
8.3690342
8.3690342
8.3690342
8.3690342
8.3690342
8.3690342
8.3690342
8.3690342
8.3690342
8.3690342
8.3690342
8.3690342
8.3690342
8.3690342
8.3690342
8.3690342
8.3690342
8.3690342
8.3690342
8.3690342
8.3690342
8.3690342
8.3690342
8.3690342
8.3690342
8.3690342
8.3690342
8.3690342
8.3690342
8.3690342
8.3690342
8.3690342
8.3690342
8.2565408
8.2565408
8.2565408
8.2565408
8.2565408
8.2565408
8.2565408
8.2565408
8.2565408
8.2565408
8.2565408
8.2565408
8.2565408
8.2565408
8.2565408
8.2565408
8.2565408
8.2565408
8.2565408
8.2565408
8.2565408
8.2565408
8.2565408
8.2565408
8.2565408
8.2565408
8.2565408
8.2565408
8.2565408
8.2565408
8.2565408
8.2565408
8.2565408
8.2565408
8.2565408
8.2565408
8.2565408
8.2565408
8.2565408
8.2565408
8.1440477
8.1440477
8.1440477
8.1440477
8.1440477
8.1440477
8.1440477
8.1440477
8.1440477
8.1440477
8.1440477
8.1440477
8.1440477
8.1440477
8.1440477
8.1440477
8.1440477
8.1440477
8.1440477
8.1440477
8.1440477
8.1440477
8.1440477
8.1440477
8.1440477
8.1440477
8.1440477
8.1440477
8.1440477
8.1440477
8.1440477
8.1440477
8.1440477
8.1440477
8.1440477
8.1440477
8.1440477
8.1440477
8.1440477
8.1440477
8.031555
8.031555
8.031555
8.031555
8.031555
8.031555
8.031555
8.031555
8.031555
8.031555
8.031555
8.031555
8.031555
8.031555
8.031555
8.031555
8.031555
8.031555
8.031555
8.031555
8.031555
8.031555
8.031555
8.031555
8.031555
8.031555
8.031555
8.031555
8.031555
8.031555
8.031555
8.031555
8.031555
8.031555
8.031555
8.031555
8.031555
8.031555
8.031555
8.031555
7.9190627
7.9190627
7.9190627
7.9190627
7.9190627
7.9190627
7.9190627
7.9190627
7.9190627
7.9190627
7.9190627
7.9190627
7.9190627
7.9190627
7.9190627
7.9190627
7.9190627
7.9190627
7.9190627
7.9190627
7.9190627
7.9190627
7.9190627
7.9190627
7.9190627
7.9190627
7.9190627
7.9190627
7.9190627
7.9190627
7.9190627
7.9190627
7.9190627
7.9190627
7.9190627
7.9190627
7.9190627
7.9190627
7.9190627
7.9190627
7.8065708
7.8065708
7.8065708
7.8065708
7.8065708
7.8065708
7.8065708
7.8065708
7.8065708
7.8065708
7.8065708
7.8065708
7.8065708
7.8065708
7.8065708
7.8065708
7.8065708
7.8065708
7.8065708
7.8065708
7.8065708
7.8065708
7.8065708
7.8065708
7.8065708
7.8065708
7.8065708
7.8065708
7.8065708
7.8065708
7.8065708
7.8065708
7.8065708
7.8065708
7.8065708
7.8065708
7.8065708
7.8065708
7.8065708
7.8065708
7.6940795
7.6940795
7.6940795
7.6940795
7.6940795
7.6940795
7.6940795
7.6940795
7.6940795
7.6940795
7.6940795
7.6940795
7.6940795
7.6940795
7.6940795
7.6940795
7.6940795
7.6940795
7.6940795
7.6940795
7.6940795
7.6940795
7.6940795
7.6940795
7.6940795
7.6940795
7.6940795
7.6940795
7.6940795
7.6940795
7.6940795
7.6940795
7.6940795
7.6940795
7.6940795
7.6940795
7.6940795
7.6940795
7.6940795
7.6940795
7.5815888
7.5815888
7.5815888
7.5815888
7.5815888
7.5815888
7.5815888
7.5815888
7.5815888
7.5815888
7.5815888
7.5815888
7.5815888
7.5815888
7.5815888
7.5815888
7.5815888
7.5815888
7.5815888
7.5815888
7.5815888
7.5815888
7.5815888
7.5815888
7.5815888
7.5815888
7.5815888
7.5815888
7.5815888
7.5815888
7.5815888
7.5815888
7.5815888
7.5815888
7.5815888
7.5815888
7.5815888
7.5815888
7.5815888
7.5815888
7.4690986
7.4690986
7.4690986
7.4690986
7.4690986
7.4690986
7.4690986
7.4690986
7.4690986
7.4690986
7.4690986
7.4690986
7.4690986
7.4690986
7.4690986
7.4690986
7.4690986
7.4690986
7.4690986
7.4690986
7.4690986
7.4690986
7.4690986
7.4690986
7.4690986
7.4690986
7.4690986
7.4690986
7.4690986
7.4690986
7.4690986
7.4690986
7.4690986
7.4690986
7.4690986
7.4690986
7.4690986
7.4690986
7.4690986
7.4690986
7.3566091
7.3566091
7.3566091
7.3566091
7.3566091
7.3566091
7.3566091
7.3566091
7.3566091
7.3566091
7.3566091
7.3566091
7.3566091
7.3566091
7.3566091
7.3566091
7.3566091
7.3566091
7.3566091
7.3566091
7.3566091
7.3566091
7.3566091
7.3566091
7.3566091
7.3566091
7.3566091
7.3566091
7.3566091
7.3566091
7.3566091
7.3566091
7.3566091
7.3566091
7.3566091
7.3566091
7.3566091
7.3566091
7.3566091
7.3566091
7.2441204
7.2441204
7.2441204
7.2441204
7.2441204
7.2441204
7.2441204
7.2441204
7.2441204
7.2441204
7.2441204
7.2441204
7.2441204
7.2441204
7.2441204
7.2441204
7.2441204
7.2441204
7.2441204
7.2441204
7.2441204
7.2441204
7.2441204
7.2441204
7.2441204
7.2441204
7.2441204
7.2441204
7.2441204
7.2441204
7.2441204
7.2441204
7.2441204
7.2441204
7.2441204
7.2441204
7.2441204
7.2441204
7.2441204
7.2441204
7.1316325
7.1316325
7.1316325
7.1316325
7.1316325
7.1316325
7.1316325
7.1316325
7.1316325
7.1316325
7.1316325
7.1316325
7.1316325
7.1316325
7.1316325
7.1316325
7.1316325
7.1316325
7.1316325
7.1316325
7.1316325
7.1316325
7.1316325
7.1316325
7.1316325
7.1316325
7.1316325
7.1316325
7.1316325
7.1316325
7.1316325
7.1316325
7.1316325
7.1316325
7.1316325
7.1316325
7.1316325
7.1316325
7.1316325
7.1316325
7.0191455
7.0191455
7.0191455
7.0191455
7.0191455
7.0191455
7.0191455
7.0191455
7.0191455
7.0191455
7.0191455
7.0191455
7.0191455
7.0191455
7.0191455
7.0191455
7.0191455
7.0191455
7.0191455
7.0191455
7.0191455
7.0191455
7.0191455
7.0191455
7.0191455
7.0191455
7.0191455
7.0191455
7.0191455
7.0191455
7.0191455
7.0191455
7.0191455
7.0191455
7.0191455
7.0191455
7.0191455
7.0191455
7.0191455
7.0191455
6.9066595
6.9066595
6.9066595
6.9066595
6.9066595
6.9066595
6.9066595
6.9066595
6.9066595
6.9066595
6.9066595
6.9066595
6.9066595
6.9066595
6.9066595
6.9066595
6.9066595
6.9066595
6.9066595
6.9066595
6.9066595
6.9066595
6.9066595
6.9066595
6.9066595
6.9066595
6.9066595
6.9066595
6.9066595
6.9066595
6.9066595
6.9066595
6.9066595
6.9066595
6.9066595
6.9066595
6.9066595
6.9066595
6.9066595
6.9066595
6.7941747
6.7941747
6.7941747
6.7941747
6.7941747
6.7941747
6.7941747
6.7941747
6.7941747
6.7941747
6.7941747
6.7941747
6.7941747
6.7941747
6.7941747
6.7941747
6.7941747
6.7941747
6.7941747
6.7941747
6.7941747
6.7941747
6.7941747
6.7941747
6.7941747
6.7941747
6.7941747
6.7941747
6.7941747
6.7941747
6.7941747
6.7941747
6.7941747
6.7941747
6.7941747
6.7941747
6.7941747
6.7941747
6.7941747
6.7941747
6.6816912
6.6816912
6.6816912
6.6816912
6.6816912
6.6816912
6.6816912
6.6816912
6.6816912
6.6816912
6.6816912
6.6816912
6.6816912
6.6816912
6.6816912
6.6816912
6.6816912
6.6816912
6.6816912
6.6816912
6.6816912
6.6816912
6.6816912
6.6816912
6.6816912
6.6816912
6.6816912
6.6816912
6.6816912
6.6816912
6.6816912
6.6816912
6.6816912
6.6816912
6.6816912
6.6816912
6.6816912
6.6816912
6.6816912
6.6816912
6.5692091
6.5692091
6.5692091
6.5692091
6.5692091
6.5692091
6.5692091
6.5692091
6.5692091
6.5692091
6.5692091
6.5692091
6.5692091
6.5692091
6.5692091
6.5692091
6.5692091
6.5692091
6.5692091
6.5692091
6.5692091
6.5692091
6.5692091
6.5692091
6.5692091
6.5692091
6.5692091
6.5692091
6.5692091
6.5692091
6.5692091
6.5692091
6.5692091
6.5692091
6.5692091
6.5692091
6.5692091
6.5692091
6.5692091
6.5692091
6.4567288
6.4567288
6.4567288
6.4567288
6.4567288
6.4567288
6.4567288
6.4567288
6.4567288
6.4567288
6.4567288
6.4567288
6.4567288
6.4567288
6.4567288
6.4567288
6.4567288
6.4567288
6.4567288
6.4567288
6.4567288
6.4567288
6.4567288
6.4567288
6.4567288
6.4567288
6.4567288
6.4567288
6.4567288
6.4567288
6.4567288
6.4567288
6.4567288
6.4567288
6.4567288
6.4567288
6.4567288
6.4567288
6.4567288
6.4567288
6.3442503
6.3442503
6.3442503
6.3442503
6.3442503
6.3442503
6.3442503
6.3442503
6.3442503
6.3442503
6.3442503
6.3442503
6.3442503
6.3442503
6.3442503
6.3442503
6.3442503
6.3442503
6.3442503
6.3442503
6.3442503
6.3442503
6.3442503
6.3442503
6.3442503
6.3442503
6.3442503
6.3442503
6.3442503
6.3442503
6.3442503
6.3442503
6.3442503
6.3442503
6.3442503
6.3442503
6.3442503
6.3442503
6.3442503
6.3442503
6.2317741
6.2317741
6.2317741
6.2317741
6.2317741
6.2317741
6.2317741
6.2317741
6.2317741
6.2317741
6.2317741
6.2317741
6.2317741
6.2317741
6.2317741
6.2317741
6.2317741
6.2317741
6.2317741
6.2317741
6.2317741
6.2317741
6.2317741
6.2317741
6.2317741
6.2317741
6.2317741
6.2317741
6.2317741
6.2317741
6.2317741
6.2317741
6.2317741
6.2317741
6.2317741
6.2317741
6.2317741
6.2317741
6.2317741
6.2317741
6.1193005
6.1193005
6.1193005
6.1193005
6.1193005
6.1193005
6.1193005
6.1193005
6.1193005
6.1193005
6.1193005
6.1193005
6.1193005
6.1193005
6.1193005
6.1193005
6.1193005
6.1193005
6.1193005
6.1193005
6.1193005
6.1193005
6.1193005
6.1193005
6.1193005
6.1193005
6.1193005
6.1193005
6.1193005
6.1193005
6.1193005
6.1193005
6.1193005
6.1193005
6.1193005
6.1193005
6.1193005
6.1193005
6.1193005
6.1193005
6.0068299
6.0068299
6.0068299
6.0068299
6.0068299
6.0068299
6.0068299
6.0068299
6.0068299
6.0068299
6.0068299
6.0068299
6.0068299
6.0068299
6.0068299
6.0068299
6.0068299
6.0068299
6.0068299
6.0068299
6.0068299
6.0068299
6.0068299
6.0068299
6.0068299
6.0068299
6.0068299
6.0068299
6.0068299
6.0068299
6.0068299
6.0068299
6.0068299
6.0068299
6.0068299
6.0068299
6.0068299
6.0068299
6.0068299
6.0068299
5.8943629
5.8943629
5.8943629
5.8943629
5.8943629
5.8943629
5.8943629
5.8943629
5.8943629
5.8943629
5.8943629
5.8943629
5.8943629
5.8943629
5.8943629
5.8943629
5.8943629
5.8943629
5.8943629
5.8943629
5.8943629
5.8943629
5.8943629
5.8943629
5.8943629
5.8943629
5.8943629
5.8943629
5.8943629
5.8943629
5.8943629
5.8943629
5.8943629
5.8943629
5.8943629
5.8943629
5.8943629
5.8943629
5.8943629
5.8943629
5.7819003
5.7819003
5.7819003
5.7819003
5.7819003
5.7819003
5.7819003
5.7819003
5.7819003
5.7819003
5.7819003
5.7819003
5.7819003
5.7819003
5.7819003
5.7819003
5.7819003
5.7819003
5.7819003
5.7819003
5.7819003
5.7819003
5.7819003
5.7819003
5.7819003
5.7819003
5.7819003
5.7819003
5.7819003
5.7819003
5.7819003
5.7819003
5.7819003
5.7819003
5.7819003
5.7819003
5.7819003
5.7819003
5.7819003
5.7819003
5.6694428
5.6694428
5.6694428
5.6694428
5.6694428
5.6694428
5.6694428
5.6694428
5.6694428
5.6694428
5.6694428
5.6694428
5.6694428
5.6694428
5.6694428
5.6694428
5.6694428
5.6694428
5.6694428
5.6694428
5.6694428
5.6694428
5.6694428
5.6694428
5.6694428
5.6694428
5.6694428
5.6694428
5.6694428
5.6694428
5.6694428
5.6694428
5.6694428
5.6694428
5.6694428
5.6694428
5.6694428
5.6694428
5.6694428
5.6694428
5.5569917
5.5569917
5.5569917
5.5569917
5.5569917
5.5569917
5.5569917
5.5569917
5.5569917
5.5569917
5.5569917
5.5569917
5.5569917
5.5569917
5.5569917
5.5569917
5.5569917
5.5569917
5.5569917
5.5569917
5.5569917
5.5569917
5.5569917
5.5569917
5.5569917
5.5569917
5.5569917
5.5569917
5.5569917
5.5569917
5.5569917
5.5569917
5.5569917
5.5569917
5.5569917
5.5569917
5.5569917
5.5569917
5.5569917
5.5569917
5.4445485
5.4445485
5.4445485
5.4445485
5.4445485
5.4445485
5.4445485
5.4445485
5.4445485
5.4445485
5.4445485
5.4445485
5.4445485
5.4445485
5.4445485
5.4445485
5.4445485
5.4445485
5.4445485
5.4445485
5.4445485
5.4445485
5.4445485
5.4445485
5.4445485
5.4445485
5.4445485
5.4445485
5.4445485
5.4445485
5.4445485
5.4445485
5.4445485
5.4445485
5.4445485
5.4445485
5.4445485
5.4445485
5.4445485
5.4445485
5.3321153
5.3321153
5.3321153
5.3321153
5.3321153
5.3321153
5.3321153
5.3321153
5.3321153
5.3321153
5.3321153
5.3321153
5.3321153
5.3321153
5.3321153
5.3321153
5.3321153
5.3321153
5.3321153
5.3321153
5.3321153
5.3321153
5.3321153
5.3321153
5.3321153
5.3321153
5.3321153
5.3321153
5.3321153
5.3321153
5.3321153
5.3321153
5.3321153
5.3321153
5.3321153
5.3321153
5.3321153
5.3321153
5.3321153
5.3321153
5.219695
5.219695
5.219695
5.219695
5.219695
5.219695
5.219695
5.219695
5.219695
5.219695
5.219695
5.219695
5.219695
5.219695
5.219695
5.219695
5.219695
5.219695
5.219695
5.219695
5.219695
5.219695
5.219695
5.219695
5.219695
5.219695
5.219695
5.219695
5.219695
5.219695
5.219695
5.219695
5.219695
5.219695
5.219695
5.219695
5.219695
5.219695
5.219695
5.219695
5.1072917
5.1072917
5.1072917
5.1072917
5.1072917
5.1072917
5.1072917
5.1072917
5.1072917
5.1072917
5.1072917
5.1072917
5.1072917
5.1072917
5.1072917
5.1072917
5.1072917
5.1072917
5.1072917
5.1072917
5.1072917
5.1072917
5.1072917
5.1072917
5.1072917
5.1072917
5.1072917
5.1072917
5.1072917
5.1072917