/*--------------------------------*- C++ -*----------------------------------*\
  =========                 |
  \\      /  F ield         | OpenFOAM: The Open Source CFD Toolbox
   \\    /   O peration     | Website:  https://openfoam.org
    \\  /    A nd           | Version:  11
     \\/     M anipulation  |
\*---------------------------------------------------------------------------*/
FoamFile
{
    format      ascii;
    class       volScalarField;
    location    "5";
    object      mag(U);
}
// * * * * * * * * * * * * * * * * * * * * * * * * * * * * * * * * * * * * * //

dimensions      [0 1 -1 0 0 0 0];

internalField   nonuniform List<scalar> 
9600
(
0.082658208
0.075833954
0.078796157
0.086109916
0.090428096
0.09291494
0.094215979
0.095085777
0.095778051
0.096476577
0.097246983
0.098141915
0.099229037
0.10049094
0.10196973
0.10361372
0.10518614
0.10661226
0.10777115
0.1084762
0.10861104
0.10813005
0.10714163
0.10581432
0.10433098
0.10281498
0.10134039
0.10005167
0.09900217
0.09812479
0.09744949
0.096869363
0.096394568
0.096037947
0.095621524
0.095208082
0.094923618
0.093921659
0.092691355
0.08215077
0.090180327
0.089445728
0.093118858
0.09585677
0.096599522
0.096850143
0.097064584
0.097640602
0.098173797
0.09881551
0.099582143
0.10048832
0.10160173
0.10288007
0.10436599
0.1059722
0.10746518
0.10881339
0.10990827
0.11055616
0.11061932
0.11021721
0.10924791
0.10793545
0.10645817
0.10493506
0.10341891
0.10206222
0.10093409
0.09999224
0.099261782
0.098644536
0.098110408
0.097745901
0.097333819
0.096904151
0.096822301
0.09572996
0.096121007
0.092931257
0.090459309
0.08981067
0.091376332
0.092459461
0.094604126
0.096603475
0.09794578
0.098974409
0.099733346
0.10050032
0.10132023
0.10225532
0.1033728
0.1046456
0.106116
0.10773444
0.1092604
0.11065405
0.11179656
0.11253537
0.1127431
0.11232327
0.11140261
0.11011635
0.10867212
0.10717997
0.10569802
0.1043635
0.10326484
0.10232209
0.10158057
0.10096156
0.10043944
0.10001617
0.099635095
0.099009718
0.098708829
0.097633427
0.095945372
0.091360037
0.094489317
0.095362398
0.097659765
0.098995672
0.098800311
0.098314089
0.098139746
0.098193428
0.098595453
0.099225733
0.099987647
0.10090582
0.10204466
0.10333302
0.10483574
0.10643953
0.10788597
0.10920288
0.11027045
0.11093352
0.11090265
0.11058508
0.10980807
0.10851536
0.10707238
0.10558148
0.10405309
0.10264609
0.10145701
0.10044896
0.099645806
0.099006514
0.098424162
0.098101592
0.097782882
0.097517098
0.097787886
0.097520368
0.098013611
0.096832789
0.096097611
0.095583234
0.094864315
0.094004276
0.094694538
0.096362298
0.097742117
0.098975611
0.099892757
0.1007401
0.10161342
0.10258525
0.10371997
0.10498377
0.10642679
0.1079911
0.10941482
0.11074656
0.11183457
0.11254249
0.11277268
0.11233021
0.11143734
0.110225
0.10885185
0.10742873
0.10598463
0.10465952
0.10356723
0.10261765
0.10186121
0.10122195
0.10072463
0.10014364
0.099830154
0.099192644
0.098505911
0.09670881
0.095709169
0.093951382
0.097392945
0.098153219
0.098688525
0.099773142
0.10047344
0.099677278
0.099133617
0.099037721
0.099122904
0.099623274
0.10037453
0.10128349
0.10243683
0.10373629
0.1052635
0.10688494
0.10830033
0.10962531
0.11068902
0.11136124
0.11129278
0.11096068
0.11030943
0.10909914
0.10766658
0.10619288
0.10463501
0.10317505
0.10193199
0.10087067
0.1000052
0.099324233
0.098766994
0.09843873
0.098224936
0.098326975
0.098773103
0.098765837
0.0989154
0.098020907
0.098218816
0.097924225
0.097167197
0.095485033
0.095450492
0.096308538
0.097550816
0.098828516
0.099903801
0.10091202
0.10185957
0.10288271
0.10405333
0.10531709
0.10675776
0.10827741
0.10962156
0.11092263
0.11196069
0.11265563
0.11291175
0.11244923
0.11156381
0.11038809
0.10906903
0.10770672
0.10627979
0.10495531
0.10386128
0.10290878
0.10212652
0.1014874
0.10092337
0.10031068
0.099878713
0.098952871
0.097951177
0.096204872
0.095986806
0.09513162
0.098923671
0.099358591
0.099522311
0.099576329
0.10048737
0.10050356
0.10005078
0.09983799
0.099855949
0.10008865
0.10078764
0.1016794
0.10283901
0.10415284
0.10571267
0.10735369
0.10876706
0.11013263
0.11121052
0.11189746
0.11190342
0.11151766
0.11084402
0.10965294
0.10825144
0.10682191
0.10524404
0.10372836
0.10242166
0.10130912
0.10038245
0.099654682
0.099186514
0.098770864
0.098805769
0.099034978
0.099439157
0.099447864
0.099330755
0.098386002
0.099392466
0.099442134
0.099056881
0.097626951
0.096845026
0.096512671
0.097438297
0.098673505
0.099829959
0.10099169
0.1020548
0.10313846
0.10436316
0.1056453
0.10710544
0.10861239
0.10991373
0.11120116
0.1122264
0.11287657
0.11314081
0.11271233
0.11182116
0.11063804
0.10932477
0.10801137
0.10659804
0.10526184
0.1041527
0.1031819
0.10239587
0.10168546
0.10109559
0.10041879
0.099805101
0.098509487
0.097569102
0.096396596
0.096557897
0.096109228
0.099743496
0.1001503
0.10004196
0.099705491
0.099854856
0.10034506
0.10061242
0.10052273
0.10057722
0.10070937
0.10120555
0.10209941
0.10327284
0.10460857
0.1062053
0.10787847
0.10932065
0.11071782
0.11185437
0.11248788
0.11255839
0.11220369
0.11148866
0.11029369
0.10888627
0.10747578
0.105881
0.10431315
0.10294088
0.10177449
0.10078786
0.10005366
0.099549087
0.099312376
0.099379718
0.099524753
0.099799083
0.099626438
0.099340571
0.09839229
0.10002793
0.10048891
0.10022344
0.099232837
0.09828362
0.097365435
0.097701433
0.098721894
0.099824319
0.10101606
0.10219152
0.10336524
0.10465896
0.10598122
0.1074814
0.10901577
0.11031334
0.11161007
0.11262869
0.11324917
0.11352696
0.11310888
0.11220713
0.11102088
0.1096814
0.1083744
0.10695228
0.10558745
0.10444471
0.1034344
0.10265703
0.10178534
0.10128531
0.10039629
0.099632414
0.098202042
0.097592277
0.096974248
0.09731116
0.096993128
0.10021732
0.10086097
0.10070001
0.099872264
0.099725403
0.099825984
0.10045422
0.10087597
0.10112327
0.10133067
0.10171229
0.10257958
0.10377077
0.1051332
0.10677231
0.10849382
0.10997168
0.11141009
0.11256913
0.11322448
0.11330995
0.11292557
0.11220656
0.11102871
0.10959997
0.1081748
0.10655991
0.10493874
0.10350861
0.10226481
0.10127075
0.10043676
0.10002954
0.099785426
0.099815587
0.099784884
0.099901817
0.099507253
0.099167389
0.098335062
0.1003654
0.10114932
0.10105771
0.10009515
0.099284029
0.098616794
0.098497333
0.099028927
0.09993735
0.10105676
0.10230504
0.10358114
0.10495776
0.10634124
0.10790863
0.10950867
0.11084079
0.11216824
0.11320098
0.11380982
0.1140748
0.11367466
0.11276922
0.11154014
0.11016522
0.10883264
0.10737405
0.10595122
0.10475423
0.10367747
0.10286994
0.1019048
0.10131219
0.10028951
0.099492784
0.098301685
0.098009053
0.097749517
0.098029965
0.097722513
0.10045384
0.10136958
0.10136057
0.10035243
0.099739673
0.099757667
0.10005205
0.10074164
0.10130477
0.10173628
0.10232588
0.10316282
0.10436123
0.10575414
0.10743982
0.1092229
0.11074627
0.1122211
0.11339932
0.11407293
0.11418269
0.11376882
0.11301475
0.11182682
0.11038513
0.108937
0.1072966
0.10562058
0.10414031
0.10279838
0.1018214
0.10084282
0.10056039
0.10013144
0.10008227
0.099866422
0.099782936
0.099270778
0.098985563
0.098343736
0.1004936
0.10155821
0.1016362
0.10077309
0.099836272
0.099424442
0.099405148
0.099654877
0.10026659
0.10125855
0.10248767
0.10380358
0.10527209
0.1067564
0.10841176
0.1101152
0.11152649
0.11290211
0.1139692
0.11457978
0.1148279
0.11442317
0.11353534
0.11231891
0.11083972
0.10940695
0.10788389
0.10638127
0.10510588
0.10392674
0.10306567
0.1020054
0.10132385
0.10024011
0.099529113
0.098701295
0.0985914
0.098416244
0.09854514
0.098201671
0.10049311
0.10168442
0.10185149
0.10107187
0.10000596
0.099709648
0.099918454
0.10057172
0.1013228
0.10203299
0.10281099
0.10374603
0.10501761
0.1064845
0.10822854
0.11008532
0.11166476
0.11316995
0.11437348
0.11505781
0.11519686
0.11475863
0.11395065
0.1127463
0.11128688
0.10977234
0.10810726
0.10637245
0.1048399
0.10340135
0.10240289
0.10132376
0.10104009
0.10041549
0.10019134
0.099841813
0.099566439
0.099104415
0.098906141
0.098428198
0.10045778
0.1017365
0.10202287
0.10136887
0.10025281
0.09984071
0.09995502
0.10027856
0.10080537
0.10163871
0.10278022
0.10410943
0.10566403
0.10727114
0.10903665
0.1108656
0.11238959
0.11384932
0.11498747
0.11561003
0.1158159
0.11540014
0.11450549
0.11326589
0.11176351
0.1102677
0.1085905
0.1069144
0.10553751
0.10422096
0.10328796
0.10211489
0.10140284
0.10034061
0.09978555
0.099204342
0.099101558
0.098842796
0.098831579
0.098450121
0.10038982
0.10171734
0.10214814
0.10164035
0.10045625
0.09997689
0.10002342
0.10056015
0.10130172
0.102197
0.10319683
0.10431958
0.10572865
0.10731447
0.10913361
0.11110227
0.11281448
0.11436415
0.11557195
0.11623506
0.11638381
0.11593515
0.11506351
0.11381526
0.11230567
0.11075745
0.10905685
0.10721613
0.10561381
0.10407261
0.10301285
0.10187925
0.10135254
0.10074099
0.10028061
0.099763549
0.099412446
0.099063355
0.098923911
0.098528289
0.10028706
0.10163526
0.10222233
0.10185919
0.10068636
0.10010756
0.10017408
0.10067959
0.10130791
0.10212722
0.10321581
0.10457068
0.10619008
0.10792522
0.10983452
0.11186432
0.1135813
0.11509575
0.11627009
0.11689731
0.11706076
0.11661364
0.11570306
0.114432
0.11289959
0.1113115
0.10955309
0.10772901
0.10613684
0.10461501
0.10357358
0.10233026
0.10154634
0.10064266
0.1001463
0.099576441
0.099379323
0.099065806
0.098957162
0.098580541
0.10015359
0.10149734
0.1022551
0.10203149
0.10095055
0.10027503
0.10028238
0.10077398
0.10147222
0.10241158
0.10359445
0.10490811
0.10650451
0.10833318
0.11030091
0.1123986
0.11421834
0.11579169
0.11700677
0.11764996
0.11778863
0.11732194
0.1164008
0.11511434
0.11355413
0.11192174
0.1101349
0.10821689
0.10653433
0.10484524
0.10364427
0.10243817
0.10168203
0.10090369
0.10040793
0.099754873
0.099460914
0.099119197
0.098993433
0.098615993
0.099990524
0.10129877
0.10224932
0.10215919
0.10125177
0.10044512
0.10040956
0.1009264
0.10164713
0.10259597
0.10379468
0.10524024
0.10697615
0.10893496
0.11098913
0.11315447
0.11505015
0.11663304
0.11784654
0.11847728
0.11859383
0.11811747
0.11716342
0.11586058
0.11429608
0.11260372
0.11077156
0.10878272
0.10703369
0.10529614
0.10401076
0.10270911
0.10184413
0.10095361
0.10047561
0.099815057
0.099508549
0.099160308
0.099026354
0.098644733
0.099896777
0.10107271
0.10220543
0.10227367
0.10154315
0.1006649
0.10060185
0.10108443
0.10180416
0.10281029
0.10410438
0.10565202
0.10747206
0.10952726
0.11167282
0.11392764
0.11593286
0.11755064
0.11877305
0.11939622
0.1194825
0.11898436
0.11801464
0.11668464
0.11510175
0.11337361
0.11148286
0.10942709
0.10760661
0.10576978
0.10438851
0.10298719
0.10210129
0.10109754
0.10056499
0.099885094
0.099564137
0.099193582
0.099050478
0.098663658
0.099811671
0.1008742
0.10212677
0.1023848
0.10184408
0.10094002
0.10082649
0.10127137
0.10200513
0.10307508
0.10445299
0.10610639
0.10803865
0.11022472
0.11249099
0.11483199
0.11693539
0.11859042
0.11981001
0.12041216
0.12046664
0.1199391
0.11894209
0.11759913
0.11600723
0.11423293
0.11229415
0.1101599
0.10824369
0.10630914
0.10482895
0.10328622
0.10236285
0.10128229
0.10068496
0.099956894
0.099612438
0.099217202
0.09906903
0.098672104
0.099637401
0.10065909
0.10201189
0.10249619
0.10216488
0.10127806
0.1010987
0.10149412
0.10224662
0.10337935
0.10485788
0.10663961
0.10869449
0.11102213
0.11342457
0.11585641
0.11805479
0.11975692
0.1209685
0.12154033
0.12154851
0.12098751
0.11996269
0.11860389
0.11700086
0.11519481
0.11321143
0.11100516
0.10898511
0.10692771
0.10536481
0.10367912
0.10264986
0.10149002
0.10082805
0.10003089
0.099645856
0.099218142
0.099073643
0.098667579
0.099388803
0.10037316
0.10182598
0.10256823
0.10247388
0.10167545
0.1014232
0.10174437
0.10253431
0.10376678
0.10535555
0.10727326
0.10948082
0.11195537
0.11449829
0.11702963
0.11932566
0.12107075
0.12226128
0.1227976
0.1227443
0.1221388
0.12108469
0.11971339
0.11811122
0.11627278
0.11424908
0.11197847
0.1098702
0.10765832
0.10597001
0.10415
0.102987
0.10172858
0.10101907
0.10015276
0.099707325
0.099217234
0.099063126
0.098641846
0.099096266
0.099987217
0.10153279
0.10257543
0.10275694
0.10214402
0.10181852
0.10210317
0.10295252
0.10425041
0.10593633
0.10800953
0.11038524
0.11302394
0.11574457
0.11839386
0.12077356
0.12255812
0.12371993
0.12420082
0.12407408
0.12340509
0.12231257
0.12093167
0.11933412
0.11748594
0.11543477
0.11309133
0.11090355
0.108543
0.10671993
0.10475147
0.10343733
0.10202248
0.10122598
0.1002791
0.099773835
0.09921658
0.099048816
0.098608162
0.098770692
0.099536006
0.10108232
0.10244948
0.10299294
0.10264884
0.10233225
0.10258913
0.10344884
0.1048136
0.10665057
0.10891494
0.11150106
0.11432813
0.11721869
0.11997947
0.12242783
0.12424282
0.125363
0.12575928
0.12553312
0.12479673
0.12366512
0.12226692
0.12068778
0.11883144
0.11677808
0.11438047
0.11212211
0.10961325
0.10761638
0.10547921
0.10400763
0.10240908
0.10150966
0.10046996
0.099881895
0.099223914
0.099021279
0.09855526
0.098383767
0.099070535
0.10046334
0.10213818
0.10312235
0.10317666
0.10296862
0.10321663
0.10410749
0.10558235
0.10758178
0.11003777
0.11282769
0.11584446
0.11891151
0.12180934
0.12433276
0.12616499
0.12721361
0.12751243
0.12717097
0.12632989
0.12513961
0.12372733
0.1221653
0.12031125
0.11828967
0.11584539
0.11354082
0.11090843
0.10872868
0.10640604
0.10477063
0.10292966
0.10184857
0.10068735
0.10002348
0.099259006
0.099007892
0.098505831
0.097981901
0.098589921
0.099720686
0.10156406
0.10304023
0.10365276
0.10374205
0.10410263
0.10503786
0.10659174
0.10875655
0.11142509
0.11444575
0.11768466
0.12093433
0.12395711
0.12652808
0.12836671
0.1293334
0.12944203
0.12893114
0.12799376
0.12677539
0.12535764
0.1238447
0.12199188
0.12002394
0.11757926
0.11521372
0.11249647
0.11015203
0.10755636
0.10574646
0.10369752
0.10240014
0.1010369
0.10023415
0.099316962
0.098983333
0.098482664
0.097334537
0.097992248
0.098910064
0.10071683
0.10266138
0.10397002
0.10462394
0.1052818
0.10632769
0.10798092
0.11031446
0.11320233
0.1164655
0.11992204
0.12334615
0.1264739
0.12906622
0.13084368
0.13171235
0.13172676
0.1310293
0.12984265
0.12848165
0.12702322
0.12554624
0.12374467
0.12185331
0.11947464
0.11711153
0.11428168
0.11186202
0.10902945
0.10696841
0.10466434
0.10312401
0.10153497
0.10057113
0.099469951
0.098968182
0.098482182
0.096861927
0.097530578
0.098192939
0.099716958
0.10189719
0.10391316
0.10541361
0.1066552
0.10804672
0.10995053
0.11248683
0.11557658
0.11904701
0.12269433
0.12626884
0.12947691
0.13207307
0.13377116
0.13437403
0.13401855
0.13309273
0.13180973
0.13042295
0.12900393
0.12762745
0.1259489
0.12418811
0.12188306
0.11961987
0.11666212
0.11414858
0.11107168
0.1087208
0.10611834
0.10427589
0.10237502
0.10117665
0.099862577
0.09905928
0.098552476
0.095823127
0.096682285
0.097407491
0.098676955
0.10075704
0.10325099
0.10572508
0.10792653
0.11009043
0.11256874
0.11547677
0.1188179
0.12252084
0.12631395
0.1299649
0.1331513
0.13564245
0.13721067
0.13768913
0.13709489
0.13577329
0.13411445
0.13247062
0.13090215
0.12945179
0.12781791
0.12619245
0.12403276
0.12196201
0.11907242
0.11656029
0.11335775
0.11080656
0.10790002
0.1056886
0.10342036
0.10195176
0.10045905
0.099281111
0.098665933
0.096180224
0.09669871
0.097327083
0.098300258
0.099963323
0.102337
0.1053463
0.1085591
0.11190644
0.11541461
0.11919652
0.12314102
0.12719859
0.1312367
0.13491195
0.13798376
0.14027008
0.14136557
0.14121316
0.13998543
0.13817508
0.13626437
0.13455293
0.13303647
0.13181721
0.13034952
0.12919868
0.12723668
0.12550706
0.12272942
0.12014788
0.11688075
0.11404647
0.11089584
0.10832109
0.10564103
0.10357901
0.10181799
0.10009188
0.099149263
0.095055
0.095710681
0.096687807
0.098018067
0.09986391
0.10216383
0.10517713
0.10887238
0.11323049
0.11800213
0.12311938
0.12827988
0.13321942
0.1378228
0.14154378
0.14459236
0.14660977
0.14707926
0.14632804
0.14459023
0.14207815
0.13941131
0.13718793
0.13530427
0.13417555
0.13269285
0.13159654
0.129723
0.12823222
0.1255712
0.12326352
0.11993319
0.11700946
0.11347335
0.11073094
0.10773797
0.10509119
0.10317128
0.10111312
0.099704167
0.096980575
0.097753719
0.098858643
0.10015119
0.10222468
0.10490834
0.1080535
0.11202787
0.11666872
0.12199303
0.12825285
0.13450099
0.14020793
0.14570904
0.15066139
0.15333579
0.15455941
0.15483356
0.15305592
0.14967167
0.14575429
0.14186948
0.13902091
0.13690459
0.13600162
0.13496009
0.1345577
0.13354706
0.13259986
0.13091234
0.12891916
0.12613973
0.12315275
0.11981353
0.11630286
0.11333937
0.10977332
0.10732421
0.1047049
0.1023014
0.095700342
0.097205212
0.099293115
0.10174546
0.1050435
0.10926261
0.11429413
0.12018912
0.12689195
0.13363417
0.14052487
0.14635487
0.15036041
0.15300374
0.15530871
0.15666271
0.15608868
0.15592989
0.15661422
0.15546013
0.15232192
0.14797827
0.14421658
0.14124482
0.13952401
0.13804695
0.13741532
0.13628771
0.13576274
0.13434364
0.1327645
0.130427
0.1275284
0.12441802
0.1206809
0.11706729
0.11390712
0.11016733
0.10788161
0.10443081
0.10045316
0.10254342
0.10555032
0.10985787
0.11533385
0.12173627
0.12889583
0.13604782
0.14219855
0.14727953
0.14981092
0.15294995
0.15535805
0.15600005
0.15643522
0.15689131
0.15552859
0.1522615
0.15022307
0.14943571
0.14787476
0.14518679
0.14233208
0.14006273
0.13869287
0.13821325
0.13814595
0.1387074
0.13888367
0.13926966
0.13852069
0.13797277
0.13594349
0.1336943
0.13048827
0.12650788
0.12333611
0.11889601
0.11640109
0.11243138
0.10239606
0.10753822
0.11249438
0.12225128
0.1304234
0.13624975
0.14226586
0.14511077
0.14731493
0.14967403
0.14984747
0.14913277
0.14953822
0.14719218
0.14497234
0.14537308
0.14441894
0.14157461
0.14009712
0.14007611
0.13960361
0.13851958
0.13725304
0.13661117
0.13618361
0.13660912
0.13757188
0.13867063
0.13999358
0.14100645
0.14208469
0.14160995
0.14193442
0.13959903
0.13823215
0.13445809
0.13193283
0.12675593
0.12393885
0.11970041
0.12075165
0.12865322
0.13960903
0.14241667
0.14490308
0.14578185
0.14649071
0.14536084
0.14272831
0.14040809
0.13624617
0.1311013
0.12867333
0.12343542
0.12123862
0.12048385
0.11680759
0.11177364
0.10998181
0.11034632
0.11249661
0.1148092
0.11812744
0.12082832
0.1244572
0.12685224
0.13061921
0.13268794
0.13659071
0.13850308
0.14259501
0.1439625
0.14749905
0.14807853
0.15018893
0.14897681
0.14841807
0.14391197
0.13975554
0.13060525
0.17959802
0.17271428
0.15547013
0.13800442
0.12217749
0.1074604
0.095272464
0.081689936
0.071960307
0.059523184
0.049549832
0.041997694
0.032032193
0.025706229
0.028729083
0.037414578
0.042973628
0.044720378
0.04825146
0.051469574
0.056583035
0.063823315
0.071296705
0.079767045
0.087187964
0.095571026
0.10199902
0.10896744
0.11435834
0.12060568
0.12509385
0.13063428
0.13419759
0.13972209
0.14266607
0.14886154
0.15154306
0.15937889
0.16161206
0.17335759
0.098166447
0.098975649
0.098258186
0.099218054
0.098511213
0.099001025
0.098565823
0.098899019
0.098952428
0.098957761
0.099368544
0.099328125
0.099668409
0.099779138
0.09996004
0.10010396
0.10022898
0.10033429
0.10041987
0.10048862
0.10054531
0.10059053
0.10062526
0.10064705
0.10066153
0.10067547
0.1006713
0.10067252
0.10069838
0.10073554
0.10074884
0.10074503
0.100753
0.10075586
0.10076528
0.10084739
0.10091018
0.10101624
0.10066901
0.099927683
0.10029309
0.098849245
0.098346623
0.099045184
0.098442068
0.09890768
0.098484468
0.098860091
0.0988424
0.098935821
0.099262473
0.09931991
0.099596181
0.099756592
0.099929339
0.10008135
0.10021198
0.10032131
0.10041126
0.10048341
0.10054188
0.10058784
0.10062553
0.10065248
0.10066933
0.10068877
0.1006822
0.10067281
0.10069984
0.10073891
0.10076151
0.10075204
0.10075592
0.10076304
0.10077522
0.10080872
0.10086718
0.10105266
0.10132899
0.1020013
0.1007718
0.098076329
0.098553529
0.098584998
0.098452253
0.098687123
0.098440689
0.098782404
0.098760034
0.098957805
0.099167711
0.099341245
0.099565747
0.099768752
0.099950263
0.10011131
0.10024937
0.10036353
0.10045752
0.10053213
0.10059218
0.10063712
0.1006698
0.10069218
0.10070648
0.10072319
0.10071401
0.10071346
0.10074708
0.10076197
0.10077194
0.10075222
0.10075313
0.10076338
0.10077838
0.10080158
0.10079936
0.1007965
0.10074697
0.10019771
0.10175581
0.097955303
0.09886551
0.098409875
0.098448715
0.098573465
0.098350693
0.098703758
0.098626226
0.098920205
0.099038424
0.099289191
0.099477909
0.099696362
0.099889908
0.10006247
0.10021202
0.10033565
0.10043823
0.10052058
0.10058664
0.10063442
0.10066852
0.10069593
0.10071422
0.10073432
0.10073186
0.10072974
0.10076508
0.10078725
0.10080177
0.10078593
0.10077878
0.10077811
0.10079341
0.10082588
0.10082366
0.10088244
0.10110863
0.10146688
0.10168382
0.097554358
0.099093331
0.098022347
0.098487474
0.098362503
0.098295448
0.09860746
0.09852106
0.098886786
0.098947158
0.099264352
0.099458335
0.099690407
0.099888653
0.10006739
0.10022153
0.10035104
0.10045764
0.10054368
0.10061274
0.10066451
0.10070022
0.10072355
0.10074033
0.10075801
0.10076157
0.10075806
0.10078811
0.1008103
0.1008212
0.10082198
0.10079996
0.10078319
0.10081122
0.10083347
0.10079763
0.10077119
0.10068959
0.10018088
0.10247669
0.097432832
0.099319487
0.097773745
0.098540122
0.098188101
0.098248633
0.098505292
0.098405097
0.098826698
0.09883617
0.099183092
0.099378136
0.09961873
0.099831416
0.10002271
0.10018778
0.10032551
0.10043907
0.10053033
0.1006017
0.10065369
0.10069163
0.10072251
0.10074551
0.10076992
0.10077906
0.10077899
0.10081316
0.10083042
0.10083797
0.10083324
0.10081291
0.10080726
0.10083737
0.10086358
0.1008447
0.10088128
0.10101478
0.1012167
0.1022424
0.097186944
0.09957418
0.097479178
0.098608033
0.097970453
0.098214526
0.098380847
0.098292204
0.098749437
0.098739179
0.099121751
0.099334247
0.099587025
0.099805708
0.10000596
0.10017801
0.10032397
0.10044654
0.10054447
0.10062241
0.10068177
0.10072364
0.10075016
0.10076951
0.1007904
0.10078483
0.10078982
0.10085019
0.10086927
0.10087309
0.10086881
0.10083975
0.10081736
0.10084533
0.10086712
0.10083426
0.10080906
0.10069907
0.10033651
0.10276035
0.097013449
0.09974091
0.097223797
0.098681216
0.097752882
0.098185968
0.098250359
0.098185201
0.098661358
0.098635166
0.099033545
0.099256899
0.099521936
0.099754747
0.099967407
0.10015085
0.10030552
0.10043213
0.10053449
0.10061463
0.1006756
0.1007214
0.10075411
0.10077848
0.1008032
0.1007952
0.10079921
0.10086321
0.1008818
0.1008874
0.10088624
0.10085639
0.10082794
0.10085453
0.10088764
0.10087939
0.10090901
0.10094244
0.10105243
0.10255298
0.096917009
0.099934435
0.09698099
0.09875509
0.09751775
0.098159448
0.098098044
0.098071685
0.09855375
0.098529008
0.098947194
0.099187907
0.099467215
0.09971112
0.099935205
0.10012932
0.1002944
0.10043179
0.10054262
0.1006304
0.10069663
0.10074512
0.10077848
0.10080733
0.10083372
0.10083419
0.10085218
0.10090576
0.10092191
0.10092609
0.10092412
0.10088647
0.10083629
0.10086028
0.10088543
0.10086931
0.10085998
0.10075539
0.10051173
0.10284685
0.096868832
0.10006033
0.096753136
0.098824381
0.097274938
0.098131847
0.097934198
0.097959236
0.098435456
0.098416283
0.098847509
0.099102554
0.099397337
0.09965672
0.099894169
0.10010003
0.10027456
0.10042014
0.10053678
0.10062839
0.10070013
0.10075234
0.10078775
0.10081455
0.1008259
0.10083019
0.10089464
0.10093231
0.10094398
0.10093783
0.10093779
0.10090344
0.10086322
0.10089418
0.10091866
0.10091657
0.1009317
0.10091991
0.10097287
0.10260791
0.096808288
0.10016126
0.096542014
0.09888416
0.097022927
0.098099477
0.09775219
0.097838201
0.098300248
0.098294807
0.098740916
0.099012164
0.099324166
0.099598818
0.099851391
0.10007155
0.10025827
0.10041238
0.10053862
0.10063889
0.1007157
0.10077389
0.1008161
0.10084756
0.10084592
0.10086125
0.10094706
0.10096743
0.10095664
0.10096278
0.10096391
0.10091685
0.10088967
0.10091652
0.1009265
0.1009173
0.10090895
0.10081011
0.10067008
0.10277378
0.096855434
0.10022856
0.096346939
0.098929696
0.096763379
0.098062216
0.097556086
0.097710353
0.098150818
0.098163189
0.098622565
0.098910132
0.099240753
0.099533121
0.099801605
0.10003567
0.10023497
0.10040065
0.10053394
0.1006409
0.10072465
0.10078701
0.10083548
0.10086086
0.1008536
0.10091497
0.10097256
0.10099263
0.10098566
0.10100322
0.10096856
0.10093417
0.10093537
0.10096382
0.10097129
0.10097182
0.10097325
0.10093141
0.1009488
0.10248825
0.096845431
0.10024765
0.096167995
0.098955754
0.096496068
0.098024711
0.097345472
0.097570593
0.09798432
0.09801865
0.098492335
0.098797632
0.099148476
0.099460138
0.099747897
0.099998432
0.10021147
0.10038739
0.10053206
0.10064739
0.10073744
0.10080733
0.10086281
0.10087542
0.10088437
0.10099066
0.10101441
0.1010208
0.10103359
0.10100662
0.10097663
0.10095392
0.10095759
0.10099123
0.1009835
0.10098078
0.10096944
0.10087115
0.10080282
0.10252764
0.096935933
0.10024282
0.096007494
0.098962781
0.096222386
0.097965851
0.097120519
0.097417462
0.097800182
0.097858873
0.098348093
0.098671491
0.099045058
0.099377391
0.099685784
0.099954232
0.10018289
0.10037191
0.10052638
0.10065078
0.10074811
0.10082719
0.10088358
0.10089247
0.1009448
0.10102411
0.10105472
0.10106764
0.10105727
0.10100634
0.10099457
0.10099054
0.10101375
0.10104176
0.10103912
0.10104296
0.10102645
0.10095795
0.10096156
0.1022583
0.096984537
0.10019336
0.095863042
0.098946077
0.095943392
0.097889271
0.096876926
0.097247776
0.097595838
0.097681211
0.098187467
0.098530138
0.098929151
0.099284943
0.099616994
0.099905168
0.10015079
0.10035439
0.1005206
0.10065403
0.10076089
0.10084682
0.10088891
0.10092697
0.10103007
0.10106223
0.10110777
0.10110263
0.10105097
0.10103266
0.10101269
0.10100875
0.1010443
0.10106264
0.1010521
0.10105639
0.10103117
0.10093201
0.10090681
0.10213896
0.097085038
0.10011423
0.095732417
0.098896255
0.095659943
0.097790784
0.096610918
0.097057417
0.097368634
0.09748268
0.098007142
0.098371669
0.098797615
0.099179991
0.0995379
0.099848407
0.10011399
0.10033345
0.10051178
0.10065766
0.10077941
0.10085523
0.10089331
0.10099767
0.10108068
0.10111127
0.10115078
0.10110129
0.10107458
0.10106373
0.1010481
0.10105869
0.10108989
0.10111481
0.10110498
0.10111574
0.10108537
0.10100656
0.10099782
0.10190853
0.097171265
0.099996064
0.095610663
0.098804133
0.095373932
0.097655868
0.096316527
0.096839091
0.097114972
0.097259065
0.097804053
0.098193424
0.098648622
0.099061577
0.09944792
0.099783454
0.10007183
0.10030781
0.10050138
0.10066433
0.10078906
0.10085884
0.1009457
0.10106176
0.10111865
0.10118727
0.10115843
0.10110766
0.10110917
0.1010822
0.10109277
0.10108924
0.10113586
0.10113806
0.10112693
0.10113186
0.10108381
0.10100353
0.10099143
0.10170135
0.097271694
0.099847493
0.09549581
0.098659803
0.095080384
0.097473236
0.095994486
0.096586175
0.096830446
0.097005636
0.09757421
0.097991256
0.098479922
0.098926637
0.099344393
0.099708599
0.10002097
0.10027907
0.10049285
0.10066232
0.10078092
0.10090271
0.10102989
0.10109098
0.10118831
0.10120663
0.10115059
0.10115515
0.10113072
0.10113886
0.10112786
0.101146
0.10118747
0.10119116
0.10117946
0.10118461
0.10113079
0.10106611
0.10105625
0.10145867
0.09736425
0.099666263
0.095387195
0.098460804
0.094768568
0.097250399
0.095645474
0.096294301
0.096509141
0.09671707
0.097311715
0.097761794
0.098288795
0.098772638
0.099224909
0.099620728
0.09996258
0.10024978
0.10047696
0.10064076
0.10079543
0.10097597
0.101073
0.10116716
0.10123904
0.10120525
0.10118906
0.10118555
0.10118668
0.10118495
0.10118104
0.10120015
0.10123461
0.10122841
0.10121519
0.10121411
0.10114931
0.10109531
0.10108784
0.10120146
0.097448182
0.099452039
0.095281063
0.098203129
0.094441076
0.09696938
0.095257134
0.095956025
0.096143601
0.096386795
0.097009528
0.097500815
0.098070259
0.098595188
0.099086308
0.099518699
0.099897175
0.10020499
0.10044055
0.10064333
0.10085695
0.10101
0.10112667
0.10123663
0.10122756
0.10122088
0.10124433
0.10122562
0.10124445
0.10123833
0.10124865
0.1012642
0.1012983
0.10127991
0.10126778
0.10126279
0.10119274
0.10114496
0.10113784
0.10092307
0.097514643
0.099204018
0.09517147
0.097884891
0.094097116
0.096635114
0.094823094
0.09556202
0.095727316
0.096006329
0.096658773
0.097200024
0.097817749
0.098388784
0.098927307
0.099401764
0.099806665
0.10013277
0.10042038
0.10069306
0.10089332
0.1010457
0.10119727
0.10125701
0.10125098
0.10128347
0.10127793
0.10130323
0.10129839
0.10130875
0.10131145
0.10134108
0.10135611
0.10133363
0.10131968
0.10131142
0.10123817
0.10119489
0.1011878
0.10062202
0.097559214
0.098922301
0.095050696
0.0975117
0.093732519
0.096227832
0.094334887
0.095102714
0.095253226
0.095568752
0.096247492
0.096849438
0.097522719
0.098151529
0.09874532
0.099253436
0.099686248
0.1000805
0.10043646
0.10070703
0.1009059
0.10111429
0.10122559
0.10124677
0.10130614
0.10132324
0.10135907
0.10136546
0.1013793
0.10138774
0.10139724
0.10142123
0.10142627
0.10139563
0.10138157
0.10137124
0.10129716
0.1012566
0.10124911
0.10029463
0.097576769
0.098606784
0.094921702
0.097061625
0.093336975
0.095744036
0.093776044
0.094562884
0.094683187
0.095084192
0.095762038
0.096437418
0.097178176
0.097879299
0.098519212
0.099067633
0.099590082
0.10005351
0.10040706
0.10068808
0.10095172
0.1011518
0.10123909
0.10128138
0.10136699
0.10138567
0.10143655
0.10143993
0.10147013
0.10147428
0.10149796
0.10151124
0.10150121
0.10146599
0.10145204
0.10143977
0.10136322
0.10132626
0.10132014
0.099941699
0.097560984
0.098251311
0.094772255
0.096550519
0.092909171
0.095161822
0.093135482
0.093929964
0.094036746
0.094468596
0.095197064
0.095950212
0.096774662
0.097539063
0.098238126
0.098897369
0.099503078
0.099960382
0.10035782
0.10069268
0.10097409
0.10114758
0.10124151
0.10135914
0.10141189
0.10148918
0.10150626
0.10155103
0.10155514
0.10159274
0.10159921
0.10161391
0.10158388
0.10154586
0.10153559
0.10152064
0.10143856
0.1014046
0.10139917
0.099567663
0.097503069
0.097854393
0.094592892
0.095949159
0.092434889
0.094475716
0.092397816
0.093173343
0.09325901
0.093739031
0.094525177
0.095365187
0.096273508
0.09711656
0.097954275
0.098715327
0.099324911
0.099864458
0.10030897
0.10069355
0.10096151
0.10112394
0.10129704
0.10140684
0.10150441
0.10157508
0.10161606
0.10165451
0.10168584
0.10171075
0.10173039
0.10171849
0.10168194
0.10164203
0.1016394
0.10161921
0.10152924
0.10149595
0.10148912
0.099180356
0.097396787
0.097413339
0.094375713
0.095271608
0.091903903
0.093651554
0.09154534
0.092265454
0.092324833
0.092861282
0.09370698
0.094648591
0.095663046
0.096672247
0.097624142
0.098422449
0.099133539
0.099730037
0.10024119
0.1006419
0.1009012