/*--------------------------------*- C++ -*----------------------------------*\
  =========                 |
  \\      /  F ield         | OpenFOAM: The Open Source CFD Toolbox
   \\    /   O peration     | Website:  https://openfoam.org
    \\  /    A nd           | Version:  11
     \\/     M anipulation  |
\*---------------------------------------------------------------------------*/
FoamFile
{
    format      ascii;
    class       volScalarField;
    location    "5";
    object      p;
}
// * * * * * * * * * * * * * * * * * * * * * * * * * * * * * * * * * * * * * //

dimensions      [0 2 -2 0 0 0 0];

internalField   nonuniform List<scalar> 
9600
(
0.00043695124
0.00078160137
0.00081731391
0.00076932729
0.00072075991
0.00067647249
0.00063659197
0.00060133622
0.00056429164
0.00051960332
0.00046231576
0.00038790274
0.00029306033
0.00017269225
2.7098378e-05
-0.00014156443
-0.00032128112
-0.00049921819
-0.00066302399
-0.00079356022
-0.00087165915
-0.00089351314
-0.00085984333
-0.00078516417
-0.0006861896
-0.00057878256
-0.00047203989
-0.00037809404
-0.00030251538
-0.00024334592
-0.00019925993
-0.00016804694
-0.00014963288
-0.000139999
-0.00013890779
-0.00014214205
-0.00015567018
-0.00016704472
-0.00020296717
-0.00021504183
0.00063850914
0.00083743064
0.0008073426
0.00072615987
0.00066641635
0.00062190717
0.00058588187
0.00055335259
0.00051677876
0.00046927704
0.00040929232
0.00033209727
0.00023480137
0.00011365666
-3.0350801e-05
-0.00019335856
-0.00036435057
-0.00053211052
-0.00068468568
-0.00080429757
-0.00087625828
-0.00089527122
-0.00086318382
-0.00079097542
-0.0006942684
-0.00058792798
-0.00047993472
-0.00038242633
-0.00030166603
-0.00023731084
-0.000188301
-0.00015118122
-0.00012694839
-0.0001129158
-0.0001067337
-0.00010824299
-0.00011827495
-0.00013639085
-0.00015205349
-0.00023680319
0.0007575129
0.0008491159
0.00080173273
0.00075550459
0.00071332834
0.00067170862
0.00064025419
0.00060355262
0.00056379917
0.00051691565
0.00045642388
0.00037722122
0.00027741731
0.00015335792
5.9197826e-06
-0.00016178312
-0.00033694703
-0.00050999565
-0.00066903209
-0.00079632501
-0.00087540412
-0.00089976682
-0.00087412621
-0.00080974208
-0.00072095109
-0.00062255834
-0.00052209722
-0.00043112439
-0.00035627687
-0.00029601844
-0.00025053754
-0.00021623948
-0.00019366931
-0.00017990989
-0.00017514733
-0.00017256648
-0.00017773808
-0.00018190262
-0.00018742588
-0.00025741018
0.00084731732
0.00083530081
0.00074935514
0.00067449958
0.00061652054
0.0005747958
0.00053957596
0.00050685545
0.00047069747
0.00042168702
0.00035877086
0.00027931115
0.00018077732
5.9679281e-05
-8.2909601e-05
-0.00024190211
-0.00040608418
-0.00056690184
-0.00071401312
-0.0008267953
-0.00089378079
-0.00090709873
-0.00087574879
-0.00080445881
-0.00070994423
-0.0006039546
-0.00049331774
-0.00039130578
-0.00030499264
-0.00023461289
-0.00017930862
-0.00013688709
-0.00010685325
-8.812142e-05
-7.9170352e-05
-8.0169864e-05
-9.4538882e-05
-0.00011777545
-0.0001228586
-0.00021468306
0.00086587988
0.00082029218
0.00075042043
0.00073460018
0.00070715157
0.00066970727
0.00063731935
0.00060559804
0.00056270015
0.00050941976
0.00044544419
0.00036159628
0.00025673988
0.00012892447
-2.1301988e-05
-0.000188233
-0.0003588297
-0.00052903717
-0.00068558746
-0.00081192208
-0.00088608685
-0.00091512554
-0.00089169109
-0.00083499714
-0.00075423989
-0.00066261366
-0.00056657093
-0.00047824992
-0.00040463353
-0.00034445822
-0.00029794426
-0.00026249959
-0.00023695374
-0.00021884667
-0.00020707169
-0.00019904445
-0.00018756375
-0.00017732106
-0.00016116477
-0.00022173695
0.00085982302
0.00078081162
0.00069814949
0.00063717825
0.00058070715
0.00053867884
0.0005032323
0.00046687359
0.00042895533
0.00037970656
0.00031413796
0.00023278778
0.00013349408
1.2516474e-05
-0.00012969606
-0.00028587906
-0.00044514979
-0.00060425197
-0.00074975994
-0.00085836931
-0.00092131948
-0.00092899651
-0.00089706416
-0.00082718977
-0.00073416226
-0.00062845947
-0.00051456531
-0.00040744319
-0.00031532744
-0.00023853793
-0.00017664871
-0.0001286563
-9.3176808e-05
-7.1243629e-05
-6.111007e-05
-6.3204475e-05
-8.1948984e-05
-0.00010231311
-0.0001073815
-0.00016176885
0.00081578148
0.0007674215
0.00070878767
0.00069265115
0.00068846331
0.0006644855
0.00063336363
0.00059831267
0.00055748196
0.00049937388
0.00042860914
0.00034030922
0.00023029399
9.8440567e-05
-5.578597e-05
-0.00022113102
-0.0003897824
-0.00055959668
-0.00071309731
-0.0008331846
-0.00091049736
-0.00094110374
-0.0009172851
-0.00086240879
-0.00078727771
-0.00070043481
-0.00060615075
-0.00051903242
-0.00044618624
-0.00038661946
-0.00033929847
-0.00030315861
-0.00027495916
-0.00025293006
-0.00023336988
-0.00021121383
-0.00018527336
-0.0001693541
-0.00015594502
-0.00019885989
0.00075737887
0.00073272119
0.00066453941
0.00061116215
0.00056075889
0.00051384792
0.00047624005
0.00043713679
0.00039543077
0.00034466707
0.00027698342
0.00019331655
9.3167714e-05
-2.8442516e-05
-0.00017166974
-0.00032633006
-0.00048456818
-0.00064561385
-0.00079106759
-0.00089792579
-0.0009575066
-0.00096175879
-0.00092943816
-0.00085898311
-0.00076703566
-0.00066267521
-0.00054556823
-0.00043292889
-0.00033471694
-0.00025125801
-0.00018254845
-0.00012872417
-8.8302684e-05
-6.4532214e-05
-5.7035673e-05
-5.9117196e-05
-7.316614e-05
-8.6819642e-05
-9.5082917e-05
-0.00012580512
0.00071649855
0.00072296727
0.00067052044
0.00064882357
0.0006443467
0.00064655222
0.00062380395
0.00058647731
0.00054311606
0.00048457365
0.00040639749
0.00031310191
0.00019785682
6.1220276e-05
-9.7092466e-05
-0.00026345612
-0.00043199219
-0.00060217001
-0.00075325673
-0.00087049416
-0.00094524126
-0.00097590536
-0.00095234072
-0.00089566713
-0.00082126268
-0.00073665353
-0.00064201304
-0.00055391432
-0.00048043958
-0.00042112657
-0.00037285195
-0.00033551343
-0.00030404262
-0.00027550688
-0.0002458415
-0.00021435354
-0.00018280237
-0.00016579843
-0.00015238
-0.00017769295
0.0006872578
0.00070260668
0.00064074551
0.00059842153
0.00055739367
0.00050963093
0.00046231405
0.00041803911
0.00037247007
0.00031856522
0.00024798782
0.00016119916
5.912237e-05
-6.4626414e-05
-0.0002104562
-0.00036682303
-0.00052693151
-0.00069133554
-0.00083844598
-0.00094588286
-0.0010039633
-0.0010057759
-0.00097230784
-0.00090193693
-0.0008100066
-0.00070609667
-0.00058682648
-0.00046895639
-0.0003644025
-0.00027431291
-0.00019888227
-0.00013936714
-9.5480369e-05
-7.0677637e-05
-6.3416477e-05
-6.1954473e-05
-7.0380896e-05
-8.3728037e-05
-9.0905747e-05
-0.0001111776
0.00066734551
0.00068912525
0.00063753418
0.00061514126
0.00060751896
0.00060347977
0.00059930054
0.00056743456
0.00052027978
0.00046091516
0.00038054563
0.00028029885
0.0001592409
1.7127406e-05
-0.00014609595
-0.00031608718
-0.00048644245
-0.00065802907
-0.00080801141
-0.000922414
-0.00099451857
-0.0010233156
-0.00099854706
-0.00093791412
-0.00086009216
-0.00077367373
-0.00067628009
-0.00058472234
-0.00050842156
-0.00044772259
-0.00039760377
-0.000357869
-0.00032127178
-0.00028590307
-0.00024741361
-0.00020857513
-0.00017656056
-0.00015689834
-0.00014611542
-0.00015766373
0.00065258687
0.00067490964
0.00062353962
0.00058836638
0.00055852596
0.00052059926
0.00046838966
0.00041254502
0.00036044186
0.00030203549
0.00022730949
0.00013621665
2.9628162e-05
-9.8504794e-05
-0.00024942092
-0.00041064435
-0.00057491557
-0.00074382836
-0.00089382911
-0.0010034437
-0.0010618417
-0.0010621187
-0.00102697
-0.00095652199
-0.00086393504
-0.00075932358
-0.00063818164
-0.00051568222
-0.00040482004
-0.00030848943
-0.00022662183
-0.00016217738
-0.00011600718
-8.9011865e-05
-8.0127333e-05
-7.4168989e-05
-7.740921e-05
-8.6919967e-05
-9.5255998e-05
-0.00011204172
0.00064045357
0.0006616371
0.00061553874
0.00058756395
0.00057836083
0.00056971112
0.00055404349
0.00053458604
0.00049205147
0.00042868107
0.00034729886
0.00024152836
0.00011420782
-3.4130412e-05
-0.00020362615
-0.0003796826
-0.00055410262
-0.0007286026
-0.00087926493
-0.0009914078
-0.0010603379
-0.0010861685
-0.0010582465
-0.00099205653
-0.00090791498
-0.00081597442
-0.00071270923
-0.0006147685
-0.00053274403
-0.00046766931
-0.00041402163
-0.00036923184
-0.00032704816
-0.00028506009
-0.00024002674
-0.00019741783
-0.00016780402
-0.00014564797
-0.00013370355
-0.00013693822
0.00063073996
0.00065091801
0.00060882087
0.00058045453
0.00055968276
0.00053030033
0.00048435985
0.00042404193
0.00036066004
0.00029412955
0.00021395359
0.00011691376
2.1338352e-06
-0.00013356633
-0.00029256122
-0.00046185474
-0.00063239941
-0.00080662385
-0.00096027609
-0.0010728578
-0.0011329241
-0.0011321838
-0.0010949314
-0.0010241645
-0.00092941123
-0.00082286255
-0.00069946444
-0.00057256812
-0.00045575287
-0.00035358264
-0.00026613793
-0.00019742753
-0.00014879145
-0.00011789945
-0.00010478918
-9.5485963e-05
-9.4097121e-05
-9.8936303e-05
-0.00010594036
-0.00011402038
0.00062229035
0.00064102308
0.0006025145
0.00057525628
0.000558998
0.00054226229
0.00051942994
0.00049063106
0.00045279495
0.00039167979
0.00030623201
0.00019636021
6.249484e-05
-9.3373035e-05
-0.00027082913
-0.00045529509
-0.00063628297
-0.00081554602
-0.00096888601
-0.0010799476
-0.001145285
-0.0011674162
-0.0011341053
-0.0010622864
-0.00097003307
-0.00086879963
-0.00075671781
-0.00064910044
-0.00055767581
-0.00048441832
-0.00042420876
-0.00037174851
-0.00032402833
-0.00027504382
-0.00022705787
-0.00018508733
-0.00015534045
-0.00013263701
-0.00012164846
-0.00012434831
0.00061577945
0.00063275194
0.0006002762
0.00057448353
0.00055693224
0.00053372183
0.00049536234
0.00043977842
0.00037211515
0.00029509384
0.00020544456
9.9176858e-05
-2.7078159e-05
-0.00017421296
-0.00034459042
-0.00052528706
-0.00070449121
-0.00088458917
-0.0010422946
-0.0011578983
-0.0012201056
-0.0012198382
-0.0011803794
-0.0011054454
-0.0010082237
-0.00089880898
-0.00077061492
-0.00063885583
-0.00051651349
-0.00040866131
-0.00031647911
-0.00024351855
-0.00019167657
-0.00015562271
-0.00013452155
-0.00012137557
-0.0001155013
-0.00011417797
-0.00011301436
-0.00011380592
0.00061248525
0.00062664668
0.00059821188
0.00057376974
0.00055292454
0.00053010308
0.00049692077
0.00045644947
0.00041037655
0.00034747896
0.00025976328
0.00014484449
3.2094701e-06
-0.00016219511
-0.00034996906
-0.00054526302
-0.00073532145
-0.0009199851
-0.0010776997
-0.0011897805
-0.0012521538
-0.0012681303
-0.001229881
-0.0011525503
-0.0010517213
-0.00094030656
-0.00081605656
-0.00069411541
-0.0005892831
-0.00050376745
-0.00043290758
-0.00037088205
-0.00031695653
-0.0002636518
-0.00021348731
-0.00017193947
-0.00014236776
-0.00012335731
-0.0001159952
-0.00011505339
0.00061198748
0.00062364594
0.00059590555
0.00057453998
0.0005514106
0.00052913446
0.0004948131
0.00044561104
0.00038150922
0.00029900661
0.00019781349
7.8232333e-05
-6.3184816e-05
-0.00022575075
-0.00041075133
-0.00060636782
-0.00079827391
-0.0009858394
-0.0011477087
-0.0012649744
-0.0013282555
-0.001329234
-0.0012861588
-0.0012056267
-0.0011015393
-0.00098553351
-0.00085353458
-0.00071685702
-0.00058632055
-0.00047220988
-0.00037542114
-0.00029649556
-0.00023988405
-0.00019807019
-0.0001680686
-0.00014732143
-0.00013381809
-0.00012270727
-0.00011533414
-0.00011103133
0.00061328596
0.00062134817
0.0005947179
0.00057696223
0.00055117996
0.00052828313
0.00049201914
0.00044084991
0.00038135105
0.00030741488
0.00020943727
8.5529011e-05
-6.6091589e-05
-0.00024328258
-0.00044229656
-0.00065037972
-0.00085098123
-0.0010433615
-0.0012080068
-0.0013231001
-0.0013835409
-0.0013926603
-0.0013483023
-0.0012647408
-0.0011568414
-0.001035674
-0.00089765965
-0.00075962222
-0.00063655411
-0.00053373928
-0.00044848015
-0.00037512239
-0.00031261629
-0.0002570711
-0.00020653206
-0.00016511673
-0.00013867556
-0.00012293857
-0.00011506474
-0.00010890693
0.00061519279
0.00061991317
0.00059497985
0.0005803901
0.00055363615
0.0005289926
0.00049135606
0.00043835649
0.00037433089
0.00028992745
0.00018083999
4.7799787e-05
-0.00011107025
-0.00029456273
-0.00049966176
-0.00071513246
-0.00092254139
-0.0011171574
-0.0012836064
-0.0014013003
-0.0014634698
-0.0014656958
-0.0014180936
-0.0013310094
-0.0012188814
-0.0010922308
-0.00094866927
-0.00080305741
-0.00066779076
-0.00054560574
-0.00043962333
-0.0003528948
-0.00028745858
-0.00023812994
-0.00019955527
-0.00016768417
-0.00014193551
-0.00012409684
-0.00011429672
-0.00010629007
0.00061651655
0.00062080481
0.00059873981
0.00058503136
0.00055871328
0.00053123571
0.00049124021
0.00043445514
0.00036546964
0.0002770615
0.00016495868
2.7034965e-05
-0.00013990854
-0.00033475141
-0.00055146312
-0.00077906182
-0.00099637241
-0.0011956853
-0.0013653827
-0.0014840823
-0.0015439271
-0.0015456915
-0.0014954439
-0.0014049951
-0.0012887121
-0.0011562159
-0.0010058393
-0.00085220429
-0.00070943547
-0.00058653074
-0.00048272088
-0.00039553329
-0.00032239287
-0.00026183497
-0.00021265853
-0.00017396979
-0.00014529147
-0.00012555254
-0.00011352394
-0.00010400102
0.0006229635
0.0006268584
0.000607416
0.00059128216
0.00056551276
0.00053407806
0.00049058218
0.00043010107
0.00035676666
0.00026292789
0.0001427088
-6.6274962e-06
-0.00018630294
-0.00039347397
-0.00062053603
-0.00085767016
-0.0010835312
-0.0012863448
-0.0014577495
-0.0015770759
-0.0016359575
-0.0016353656
-0.0015819541
-0.0014877977
-0.00136713
-0.0012285341
-0.0010710119
-0.00090967998
-0.00075843573
-0.00062576488
-0.00051095181
-0.00041469983
-0.00033701871
-0.00027361131
-0.00022245697
-0.00018080492
-0.00014954743
-0.00012752115
-0.00011305328
-0.00010183383
0.00063700198
0.00063911332
0.00061930309
0.00059966833
0.00057332094
0.00053719212
0.00048969476
0.00042556765
0.0003469865
0.000245458
0.00011531286
-4.4980036e-05
-0.00023612781
-0.00045589041
-0.00069583105
-0.00094473957
-0.001181029
-0.0013888175
-0.0015615443
-0.0016808479
-0.0017382919
-0.0017350691
-0.0016783921
-0.0015806915
-0.001455487
-0.0013104652
-0.0011454327
-0.0009757023
-0.00081416457
-0.00067157024
-0.00054706536
-0.0004429745
-0.00035889897
-0.00028952343
-0.0002334537
-0.00018839423
-0.00015418333
-0.00012979532
-0.00011292663
-9.9974335e-05
0.00065235097
0.00065357085
0.00063254583
0.00060938027
0.0005816901
0.00054046194
0.000488894
0.00042038992
0.00033455512
0.00022373181
8.2746196e-05
-9.007081e-05
-0.00029532783
-0.00053025766
-0.00078456466
-0.0010458156
-0.0012925574
-0.0015057169
-0.0016788822
-0.0017969773
-0.0018523885
-0.0018461876
-0.0017860172
-0.0016847116
-0.0015550908
-0.0014037131
-0.0012307227
-0.0010520144
-0.00087946558
-0.00072598348
-0.00059099425
-0.00047688098
-0.00038449203
-0.00030862957
-0.00024704171
-0.0001974249
-0.00015947483
-0.00013234743
-0.00011304854
-9.8516921e-05
0.00066833364
0.00066895206
0.00064724844
0.00062051136
0.00058957213
0.00054398569
0.0004875808
0.00041361672
0.00031877702
0.00019689045
4.3514334e-05
-0.00014400814
-0.00036563418
-0.00061748789
-0.00088769537
-0.0011627278
-0.0014203505
-0.0016388655
-0.0018118124
-0.0019278384
-0.001980017
-0.001970255
-0.0019063255
-0.0018013732
-0.0016674528
-0.00150988
-0.0013289601
-0.0011407192
-0.0009566637
-0.00079027619
-0.00064351748
-0.00051812976
-0.00041558716
-0.00033198317
-0.00026424115
-0.00020921002
-0.00016628147
-0.00013542337
-0.00011330971
-9.7240151e-05
0.00068603435
0.00068604266
0.00066336996
0.0006333192
0.00059667746
0.00054745657
0.00048541683
0.00040376344
0.00029848238
0.0001643705
-3.838256e-06
-0.00020910492
-0.00045000733
-0.00072113332
-0.0010094426
-0.0012991987
-0.0015676828
-0.0017913245
-0.0019630048
-0.0020751344
-0.0021228051
-0.0021086967
-0.002040839
-0.0019323032
-0.001794479
-0.0016310931
-0.0014424808
-0.00124415
-0.0010481062
-0.00086765515
-0.00070719522
-0.00056884681
-0.0004543116
-0.00036083152
-0.00028546185
-0.00022426111
-0.00017555475
-0.00013984659
-0.00011407425
-9.6060529e-05
0.00070558743
0.00070466349
0.00068054011
0.00064673857
0.0006047508
0.00055070248
0.00048141617
0.00039028337
0.0002727481
0.0001232057
-6.3661321e-05
-0.00029003183
-0.00055312688
-0.00084559661
-0.0011538307
-0.0014590716
-0.001738523
-0.0019667733
-0.0021350966
-0.0022413879
-0.0022826093
-0.0022631096
-0.0021910193
-0.0020789871
-0.0019378819
-0.0017693318
-0.0015737172
-0.0013654144
-0.0011567911
-0.00096095767
-0.00078466321
-0.00063153002
-0.00050299396
-0.0003971672
-0.00031224437
-0.00024380097
-0.00018844038
-0.00014673989
-0.00011615618
-9.4891324e-05
0.0007267139
0.00072371895
0.00069866906
0.00066119795
0.00061400737
0.00055340087
0.00047491499
0.000371706
0.00023830694
6.9440495e-05
-0.00013967072
-0.00039052879
-0.00067907349
-0.00099586641
-0.0013263411
-0.001648094
-0.0019377273
-0.002169836
-0.0023322089
-0.002428868
-0.002462834
-0.0024368819
-0.0023596632
-0.0022444527
-0.0021007354
-0.0019280266
-0.0017266271
-0.0015088469
-0.0012874717
-0.0010752621
-0.00088090624
-0.00071053596
-0.00056564429
-0.0004446819
-0.00034719141
-0.0002694209
-0.00020633762
-0.00015772247
-0.00012130815
-9.5479119e-05
0.00074923762
0.00074375245
0.00071809124
0.00067736004
0.00062383613
0.00055426359
0.00046379457
0.00034474694
0.0001916533
-9.7701901e-07
-0.00023751277
-0.00051776857
-0.0008358386
-0.0011804954
-0.00153504
-0.0018732931
-0.0021705823
-0.0024045135
-0.0025600648
-0.0026417079
-0.0026616691
-0.0026276344
-0.00254577
-0.0024279836
-0.0022827536
-0.0021070248
-0.0019022226
-0.0016763685
-0.0014426867
-0.0012140014
-0.00099945881
-0.00080866587
-0.00064498756
-0.00050657981
-0.00039325183
-0.00030282477
-0.00022977432
-0.00017301988
-0.00013065789
-0.00010016533
0.00077477274
0.00076502603
0.00073892063
0.00069415446
0.00063255627
0.00055086199
0.00044494609
0.00030569654
0.00012733852
-9.5004318e-05
-0.00036525398
-0.00068074487
-0.001033137
-0.0014096724
-0.0017896002
-0.0021442047
-0.0024457368
-0.0026749894
-0.0028205732
-0.0028871922
-0.0028930851
-0.0028455893
-0.0027570369
-0.0026372256
-0.0024914743
-0.0023149451
-0.002109094
-0.0018783443
-0.0016334648
-0.0013876937
-0.0011524231
-0.00093791918
-0.00075057685
-0.00059105457
-0.00045880461
-0.00035205295
-0.00026555068
-0.00019726899
-0.00014665405
-0.00011055518
0.00080766926
0.00079171435
0.00076244588
0.00071009905
0.00063733537
0.00053989129
0.00041326581
0.00024847573
3.7027955e-05
-0.00022372301
-0.00053473392
-0.00089194864
-0.0012845216
-0.0016966405
-0.002102467
-0.0024711925
-0.0027755584
-0.0029947303
-0.0031187467
-0.0031585999
-0.0031418055
-0.0030820385
-0.0029876318
-0.0028655999
-0.0027202599
-0.0025463614
-0.002342626
-0.0021105619
-0.0018577078
-0.0015961786
-0.0013395639
-0.0010994079
-0.00088485394
-0.00069936151
-0.00054322782
-0.00041614429
-0.00031317925
-0.00023044564
-0.00016880923
-0.00012600467
0.00084317942
0.00081847151
0.00078280422
0.00071966701
0.0006307907
0.00051329745
0.00035896427
0.00016096335
-9.1423456e-05
-0.0004014683
-0.00076350321
-0.0011709049
-0.0016109739
-0.0020609576
-0.0024904962
-0.0028671462
-0.0031663338
-0.003369139
-0.0034693878
-0.0034749879
-0.0034355964
-0.0033522438
-0.0032460102
-0.0031213896
-0.0029796051
-0.0028131786
-0.0026180863
-0.0023913816
-0.0021372192
-0.0018643193
-0.0015871508
-0.001320135
-0.0010750836
-0.00085774248
-0.00067119221
-0.0005163116
-0.00039087595
-0.00028884275
-0.00021029985
-0.00015543188
0.00088522882
0.0008479057
0.00080086833
0.00072219502
0.0006077071
0.00045993728
0.00026722892
2.2133987e-05
-0.00028158857
-0.00065023216
-0.0010777079
-0.0015469255
-0.0020385938
-0.0025252882
-0.0029736017
-0.003351992
-0.0036377558
-0.0038121088
-0.0038774159
-0.0038598194
-0.0037641633
-0.0036501724
-0.0035273239
-0.0033990972
-0.0032633162
-0.0031083875
-0.0029273021
-0.0027133119
-0.0024660376
-0.0021884083
-0.0018927068
-0.0015974281
-0.0013177654
-0.0010640492
-0.00084014516
-0.00064924991
-0.00049239361
-0.00036456261
-0.0002636978
-0.00019260119
0.00092235307
0.0008636796
0.00079472634
0.00069159297
0.00054180954
0.00035014919
0.00010530287
-0.00020436942
-0.000579904
-0.0010225397
-0.0015278549
-0.0020707429
-0.002622473
-0.0031451798
-0.0035995208
-0.0039607734
-0.004194181
-0.0042904469
-0.0042868029
-0.0042190816
-0.0041060721
-0.0039635013
-0.003819832
-0.003686861
-0.0035623456
-0.0034267351
-0.0032682117
-0.0030793368
-0.0028541036
-0.0025897865
-0.0022929158
-0.0019787818
-0.0016655554
-0.0013687686
-0.0011035992
-0.00086952426
-0.00067163346
-0.00050929342
-0.00037639785
-0.00027829189
0.00096132204
0.00087759733
0.00077418224
0.0006301936
0.00042538749
0.00016106689
-0.00016473684
-0.00056334432
-0.0010322972
-0.0015672499
-0.0021498432
-0.0027634676
-0.0033792315
-0.0039505502
-0.0044286356
-0.0047835551
-0.0050145527
-0.0050872827
-0.0049971285
-0.0047970261
-0.0045869759
-0.0043826565
-0.0041977038
-0.0040469322
-0.003918326
-0.0037984722
-0.0036675346
-0.0035081256
-0.003314683
-0.0030783145
-0.0027948834
-0.0024720696
-0.0021293229
-0.0017871876
-0.0014699515
-0.0011851522
-0.00093080069
-0.00071508545
-0.0005348213
-0.00038982076
0.00093599847
0.00082494323
0.00066796545
0.00045907687
0.00017585853
-0.00019286369
-0.00065169806
-0.0011965456
-0.0018185141
-0.0024973381
-0.0031828233
-0.0038222339
-0.0044065625
-0.0049002274
-0.0052863539
-0.0055632787
-0.0056879584
-0.0056447857
-0.0054754769
-0.0052342943
-0.0049344454
-0.0046453637
-0.004417339
-0.0042685916
-0.0041659428
-0.0040996165
-0.0040257842
-0.0039323184
-0.0038063225
-0.0036289261
-0.0033918182
-0.0031001704
-0.0027639299
-0.0023963502
-0.0020255719
-0.0016736103
-0.0013590721
-0.0010928657
-0.00087428271
-0.00069877031
0.0010084406
0.00078832977
0.0004666662
7.5838903e-05
-0.00039109778
-0.0009374869
-0.0015729998
-0.0022660996
-0.0030023452
-0.0037950206
-0.0046198377
-0.0054217844
-0.0061266251
-0.0066776387
-0.0070399646
-0.0072155875
-0.0071745974
-0.0068806038
-0.0064712013
-0.0060496411
-0.0056120711
-0.0051991788
-0.0048661242
-0.0046642375
-0.0045324239
-0.0044625773
-0.0044280802
-0.0044071871
-0.0043651097
-0.0042773077
-0.0041261487
-0.0039108481
-0.0036178091
-0.0032576939
-0.0028334999
-0.0024008745
-0.0019917745
-0.0016384553
-0.0013582346
-0.0011678604
0.00021317232
3.0278838e-05
-0.00035969008
-0.00092309761
-0.0015615825
-0.0023004883
-0.0031610834
-0.0040828127
-0.0049907576
-0.0058017369
-0.0064649139
-0.0069884327
-0.007374783
-0.0075977877
-0.0077059845
-0.0077119331
-0.0075465351
-0.0072179645
-0.0068065372
-0.0063352987
-0.0058488951
-0.0053845714
-0.0050273327
-0.0047918385
-0.0046532274
-0.0046079819
-0.0046291285
-0.004686433
-0.004757857
-0.0048193389
-0.0048271542
-0.0047821361
-0.0046463063
-0.0044120562
-0.004073643
-0.0036346118
-0.0030933335
-0.0025234945
-0.0019969653
-0.0016246257
0.0021725541
0.00082390403
-0.00074674361
-0.0022448956
-0.0037396292
-0.0051371356
-0.006337152
-0.0073097439
-0.0080868023
-0.0086769693
-0.009089191
-0.0094055776
-0.0096151614
-0.0097341904
-0.0098722207
-0.0096790354
-0.0089873033
-0.0082162838
-0.0075801253
-0.0070021152
-0.0063788134
-0.0057750927
-0.0052814644
-0.0049373297
-0.0047503767
-0.0046860432
-0.0047002986
-0.0047785348
-0.004910483
-0.00509169
-0.0052935202
-0.0054962794
-0.0056664494
-0.0057826761
-0.0057922652
-0.0056622113
-0.0053287142
-0.0047790007
-0.0040205912
-0.0030821172
-0.014841233
-0.015209943
-0.013874863
-0.012448863
-0.011363601
-0.010631922
-0.01016419
-0.0098565213
-0.0096576564
-0.0095465725
-0.0095056032
-0.0095127268
-0.0095441064
-0.0095685079
-0.009544157
-0.009191497
-0.0084641704
-0.0077801581
-0.0071997774
-0.0066757194
-0.0061513909
-0.005658738
-0.0052452444
-0.0049274443
-0.0047184309
-0.0046095069
-0.0045850995
-0.0046206976
-0.0047187933
-0.0048652581
-0.005058137
-0.0052889962
-0.0055691001
-0.0058910226
-0.0062701565
-0.006713759
-0.0072539651
-0.0078827993
-0.0086000748
-0.0093459607
-0.00011678308
-6.4316547e-05
-2.4319728e-05
-4.4886707e-05
-3.1252642e-05
2.0632557e-05
-7.9650345e-05
8.3869611e-05
-9.8772587e-05
7.0090833e-05
-7.4925326e-05
1.0788686e-05
-2.8777201e-05
-1.7683297e-05
-2.203403e-05
-2.0883451e-05
-1.8573747e-05
-1.5138106e-05
-1.0525444e-05
-4.9414409e-06
1.2828763e-06
7.8628214e-06
1.5137091e-05
2.3439555e-05
3.1116432e-05
3.7245579e-05
4.2398772e-05
4.7563226e-05
4.9739669e-05
4.8320392e-05
4.7021728e-05
4.6929492e-05
4.713414e-05
4.7035309e-05
4.7565314e-05
4.6775088e-05
4.8582148e-05
3.6278427e-05
4.3436264e-05
-2.9552763e-05
-0.00014392529
-4.3043838e-05
-1.5841752e-05
-4.2263765e-05
-2.5053278e-05
2.124679e-05
-8.0540879e-05
8.6838648e-05
-9.8393524e-05
6.2538463e-05
-6.7135926e-05
-3.0013149e-06
-2.4370553e-05
-2.2604725e-05
-2.5159179e-05
-2.5017235e-05
-2.3151588e-05
-1.9941391e-05
-1.5539853e-05
-1.0139233e-05
-3.9836367e-06
2.6974721e-06
9.9414124e-06
1.8076973e-05
2.6182648e-05
3.2901139e-05
3.9079597e-05
4.4889071e-05
4.7168341e-05
4.6571458e-05
4.6235428e-05
4.69069e-05
4.763655e-05
4.778599e-05
4.7601015e-05
4.7785743e-05
4.9612245e-05
5.0200024e-05
5.2505316e-05
6.2602711e-05
-5.7731685e-05
-3.8141949e-05
-1.0503272e-05
-3.7433448e-05
-1.9672476e-05
2.2414842e-05
-7.9095842e-05
8.7805875e-05
-9.6077954e-05
5.4830091e-05
-5.93126e-05
-1.2980044e-05
-2.328335e-05
-2.5834962e-05
-2.8579351e-05
-2.9125345e-05
-2.7868613e-05
-2.5020284e-05
-2.093072e-05
-1.5787431e-05
-9.7205572e-06
-2.8664017e-06
4.690811e-06
1.2978496e-05
2.14186e-05
2.8845273e-05
3.5846034e-05
4.1610411e-05
4.4186152e-05
4.5197917e-05
4.5943688e-05
4.7213e-05
4.8006202e-05
4.8445329e-05
4.8865841e-05
4.9072956e-05
5.0485082e-05
5.1049879e-05
4.4739167e-05
2.7162637e-05
-9.3607857e-05
-3.7857508e-05
-8.2313426e-06
-3.441883e-05
-1.4847375e-05
2.3361993e-05
-7.7067382e-05
8.8583431e-05
-9.1503367e-05
4.8858771e-05
-5.2042744e-05
-1.8214002e-05
-2.3620507e-05
-2.7610969e-05
-3.1157725e-05
-3.2303285e-05
-3.1699548e-05
-2.9338435e-05
-2.5640637e-05
-2.0798681e-05
-1.4952665e-05
-8.139871e-06
-4.4149887e-07
7.9692173e-06
1.6587972e-05
2.4500601e-05
3.1916493e-05
3.8048726e-05
4.1187001e-05
4.3029119e-05
4.4667015e-05
4.615774e-05
4.7227237e-05
4.8720059e-05
4.9553288e-05
4.995952e-05
5.2118235e-05
5.3284058e-05
5.3372238e-05
6.647045e-05
-1.540792e-05
-3.1570703e-05
-6.9078346e-06
-3.2403845e-05
-1.0101218e-05
2.4208413e-05
-7.4268477e-05
8.9335636e-05
-8.6444053e-05
4.4651547e-05
-4.6155088e-05
-2.0557966e-05
-2.49335e-05
-2.9213651e-05
-3.3429916e-05
-3.516514e-05
-3.5137622e-05
-3.3283832e-05
-2.9961473e-05
-2.5413783e-05
-1.9778086e-05
-1.310538e-05
-5.4787056e-06
2.9420248e-06
1.1680882e-05
1.9851276e-05
2.7392113e-05
3.4260589e-05
3.8003066e-05
4.001595e-05
4.2332081e-05
4.4128255e-05
4.6317507e-05
4.8958434e-05
4.9713955e-05
5.0450087e-05
5.2183011e-05
5.1398112e-05
4.3738859e-05
2.8336639e-05
-3.776788e-05
-3.5511932e-05
-5.1201113e-06
-2.9041697e-05
-5.4571967e-06
2.6060871e-05
-7.153323e-05
9.0491029e-05
-8.1622462e-05
4.2000171e-05
-4.1426356e-05
-2.1269501e-05
-2.6207528e-05
-3.0687549e-05
-3.5541333e-05
-3.7924395e-05
-3.849311e-05
-3.7147588e-05
-3.422404e-05
-2.9972786e-05
-2.4549922e-05
-1.8033116e-05
-1.0548602e-05
-2.2262996e-06
6.5330546e-06
1.4787754e-05
2.2604274e-05
3.005549e-05
3.4039155e-05
3.6364203e-05
3.9340044e-05
4.1963532e-05
4.5236068e-05
4.8535413e-05
4.9766451e-05
5.1069246e-05
5.3313117e-05
5.3544416e-05
5.4709731e-05
6.6624743e-05
-1.0267689e-08
-3.2740477e-05
-5.1148811e-06
-2.7313112e-05
-9.6491152e-07
2.786856e-05
-6.7918797e-05
9.226202e-05
-7.6418621e-05
4.0933506e-05
-3.7101499e-05
-2.064156e-05
-2.6796764e-05
-3.1786182e-05
-3.7284144e-05
-4.0351628e-05
-4.1557599e-05
-4.0806028e-05
-3.8408923e-05
-3.454172e-05
-2.9407107e-05
-2.3129185e-05
-1.5861078e-05
-7.6636204e-06
1.0828739e-06
9.5414959e-06
1.8122138e-05
2.5591909e-05
2.9010201e-05
3.1914019e-05
3.5518107e-05
3.8918747e-05
4.3285775e-05
4.7907284e-05
5.0612923e-05
5.2117766e-05
5.3261686e-05
5.1014558e-05
4.582601e-05
3.5883899e-05
-1.4883686e-05
-2.8266446e-05
-3.5993131e-06
-2.422564e-05
3.3905317e-06
3.0515871e-05
-6.3643533e-05
9.4601564e-05
-7.1139543e-05
4.0972784e-05
-3.3304331e-05
-1.9545797e-05
-2.7083974e-05
-3.2849382e-05
-3.9052969e-05
-4.2839793e-05
-4.4730095e-05
-4.4617069e-05
-4.2722012e-05
-3.925561e-05
-3.4418971e-05
-2.8386585e-05
-2.1326809e-05
-1.3270716e-05
-4.6797174e-06
3.9639475e-06
1.3185863e-05
2.0152965e-05
2.3069738e-05
2.683604e-05
3.0967614e-05
3.5182998e-05
4.08269e-05
4.7075448e-05
5.1353292e-05
5.3439178e-05
5.464097e-05
5.3511415e-05
5.4944057e-05
6.3430696e-05
2.402912e-06
-2.3946527e-05
-2.4122275e-06
-2.1703606e-05
7.5506862e-06
3.3571528e-05
-5.8759952e-05
9.7503416e-05
-6.5469742e-05
4.2116068e-05
-2.9363457e-05
-1.7653364e-05
-2.6559653e-05
-3.3353786e-05
-4.0443585e-05
-4.5025935e-05
-4.7699864e-05
-4.8264522e-05
-4.6948756e-05
-4.395059e-05
-3.9469261e-05
-3.373128e-05
-2.6915207e-05
-1.9100226e-05
-1.0863234e-05
-2.2145166e-06
7.2726456e-06
1.3115556e-05
1.5996183e-05
2.0581125e-05
2.5562697e-05
3.079778e-05
3.7673596e-05
4.5746975e-05
5.1324793e-05
5.421002e-05
5.4771054e-05
5.1747084e-05
4.8623896e-05
4.2543839e-05
-8.1868664e-06
-2.1327844e-05
-1.1708273e-06
-1.8496295e-05
1.1753512e-05
3.7347365e-05
-5.3149807e-05
0.00010105031
-5.9295954e-05
4.4161477e-05
-2.5193992e-05
-1.5335958e-05
-2.5567925e-05
-3.3542967e-05
-4.1648231e-05
-4.711673e-05
-5.063852e-05
-5.1969514e-05
-5.1316294e-05
-4.8830275e-05
-4.47575e-05
-3.9352434e-05
-3.2747856e-05
-2.5128233e-05
-1.7093182e-05
-8.0311498e-06
1.2193429e-06
4.870393e-06
8.1409665e-06
1.3828803e-05
2.0145331e-05
2.6168233e-05
3.428818e-05
4.3262898e-05
4.9446282e-05
5.3502403e-05
5.4866226e-05
5.4088703e-05
5.5596543e-05
6.0356794e-05
-2.6451833e-06
-1.7331816e-05
5.9142103e-08
-1.4919871e-05
1.6089663e-05
4.1761689e-05
-4.6702534e-05
0.00010513935
-5.2501913e-05
4.7036465e-05
-2.0456258e-05
-1.2362165e-05
-2.3865237e-05
-3.3154567e-05
-4.2446658e-05
-4.8934394e-05
-5.3415682e-05
-5.557728e-05
-5.5595269e-05
-5.3666002e-05
-5.0062008e-05
-4.5034551e-05
-3.8730113e-05
-3.1457866e-05
-2.3449967e-05
-1.3660218e-05
-6.0811637e-06
-4.1153031e-06
6.1482113e-07
7.4626845e-06
1.3831933e-05
2.0724828e-05
3.0418447e-05
3.9210953e-05
4.5609038e-05
5.095087e-05
5.2955393e-05
5.2060982e-05
5.1131082e-05
4.731596e-05
-1.2704926e-05
-1.4543549e-05
1.6040919e-06
-1.0816099e-05
2.0755525e-05
4.6854695e-05
-3.9906292e-05