/*--------------------------------*- C++ -*----------------------------------*\
  =========                 |
  \\      /  F ield         | OpenFOAM: The Open Source CFD Toolbox
   \\    /   O peration     | Website:  https://openfoam.org
    \\  /    A nd           | Version:  10
     \\/     M anipulation  |
\*---------------------------------------------------------------------------*/
FoamFile
{
    format      ascii;
    class       volScalarField;
    location    "0.301005";
    object      p;
}
// * * * * * * * * * * * * * * * * * * * * * * * * * * * * * * * * * * * * * //

dimensions      [1 -1 -2 0 0 0 0];

internalField   nonuniform List<scalar> 
15708
(
2.56925
2.55519
2.54136
2.52798
2.51518
2.50306
2.4917
2.48115
2.47144
2.46263
2.45474
2.44781
2.44188
2.43698
2.43313
2.43035
2.42864
2.42796
2.42822
2.42931
2.43108
2.43331
2.43577
2.43825
2.44051
2.44237
2.44371
2.44445
2.44459
2.44417
2.44321
2.44187
2.44031
2.43872
2.43724
2.43603
2.43521
2.43489
2.43507
2.43581
2.43706
2.4388
2.44095
2.44342
2.44613
2.44899
2.45193
2.45488
2.45782
2.46069
2.46349
2.57249
2.55969
2.54689
2.53429
2.52203
2.51019
2.49885
2.48807
2.4779
2.46839
2.45959
2.45155
2.44434
2.43802
2.43265
2.42827
2.42494
2.42265
2.42139
2.4211
2.4216
2.42287
2.42465
2.42673
2.42892
2.43101
2.43287
2.4344
2.43556
2.43634
2.43676
2.43692
2.43692
2.43691
2.437
2.43727
2.43782
2.43871
2.43996
2.44154
2.44339
2.44549
2.44774
2.45008
2.45244
2.45477
2.45703
2.45921
2.46129
2.46331
2.46526
2.57479
2.56332
2.5516
2.53983
2.52813
2.5166
2.50531
2.49432
2.48371
2.47352
2.46384
2.45473
2.44629
2.43859
2.43174
2.42581
2.42089
2.41703
2.41426
2.41256
2.4119
2.41214
2.41316
2.41478
2.41683
2.41911
2.42148
2.42381
2.42602
2.42808
2.42997
2.43173
2.43342
2.4351
2.43686
2.43874
2.44077
2.44295
2.44529
2.44771
2.45016
2.45257
2.45489
2.45706
2.45903
2.4608
2.46236
2.46376
2.46501
2.46618
2.4673
2.57603
2.56595
2.55536
2.54447
2.53337
2.52218
2.51096
2.49979
2.48876
2.47794
2.46742
2.4573
2.44768
2.43868
2.43041
2.423
2.41656
2.41118
2.40694
2.40388
2.40199
2.40123
2.40147
2.40255
2.40439
2.40682
2.40965
2.41276
2.41605
2.41942
2.42283
2.42627
2.42973
2.43322
2.43675
2.44032
2.44389
2.44743
2.45088
2.45416
2.45719
2.45991
2.46227
2.46424
2.46581
2.46702
2.46791
2.46855
2.46902
2.46939
2.46975
2.57612
2.56747
2.55806
2.54808
2.53762
2.52679
2.51568
2.50438
2.49297
2.48156
2.47026
2.45919
2.44847
2.43825
2.42866
2.41986
2.41199
2.40518
2.39953
2.39514
2.39204
2.39023
2.38969
2.39022
2.39179
2.39426
2.3975
2.40135
2.40569
2.41039
2.41535
2.42051
2.42581
2.43117
2.43655
2.44187
2.44704
2.45196
2.45654
2.46068
2.46429
2.46731
2.46971
2.47151
2.47268
2.47338
2.47365
2.47361
2.47337
2.47303
2.4727
2.57498
2.56777
2.55957
2.55054
2.54076
2.53033
2.51937
2.50797
2.49625
2.48432
2.47231
2.46038
2.44866
2.43732
2.42652
2.41644
2.40724
2.39908
2.3921
2.38642
2.38215
2.37932
2.37794
2.37798
2.37915
2.38163
2.38519
2.3897
2.39504
2.40104
2.40756
2.41445
2.4216
2.42888
2.43614
2.44324
2.45003
2.45636
2.46208
2.46708
2.47127
2.4746
2.47707
2.4787
2.47957
2.47981
2.47956
2.47892
2.47808
2.47713
2.47622
2.57256
2.56678
2.5598
2.55174
2.54267
2.53269
2.52193
2.51049
2.49852
2.48614
2.47352
2.46082
2.44821
2.43586
2.42397
2.41272
2.40231
2.39291
2.3847
2.37783
2.37243
2.36861
2.36641
2.36587
2.3667
2.36909
2.37286
2.37797
2.38423
2.39146
2.39947
2.40807
2.41707
2.42625
2.4354
2.44428
2.4527
2.46042
2.46729
2.47316
2.47794
2.48161
2.48418
2.48571
2.48635
2.48625
2.48558
2.48449
2.48316
2.48173
2.48038
2.56876
2.56442
2.55864
2.55157
2.54325
2.53377
2.52325
2.51184
2.49969
2.48696
2.47382
2.46045
2.44706
2.43384
2.42098
2.4087
2.39721
2.3867
2.37738
2.36942
2.36299
2.35823
2.35524
2.35408
2.3546
2.35679
2.36072
2.36631
2.37338
2.38174
2.39116
2.40139
2.41217
2.42321
2.4342
2.44484
2.45485
2.46396
2.47196
2.4787
2.4841
2.48814
2.49089
2.49243
2.49291
2.49263
2.49165
2.49028
2.4886
2.48687
2.48522
2.56356
2.5606
2.55604
2.54996
2.5424
2.53345
2.52324
2.51192
2.49967
2.48666
2.47311
2.45921
2.44516
2.4312
2.41752
2.40437
2.39195
2.38048
2.37019
2.36127
2.35391
2.34829
2.34455
2.34278
2.343
2.34493
2.34892
2.35488
2.36264
2.37199
2.38269
2.39444
2.40689
2.41968
2.43243
2.44476
2.45631
2.46677
2.47589
2.4835
2.48955
2.49403
2.49703
2.49869
2.49919
2.49883
2.49776
2.49623
2.49442
2.49255
2.49077
2.55699
2.5553
2.55189
2.54681
2.54003
2.53164
2.5218
2.51065
2.49838
2.48521
2.47135
2.45704
2.44248
2.42792
2.41359
2.39972
2.38654
2.37428
2.36317
2.35344
2.34528
2.3389
2.33448
2.33215
2.33201
2.33369
2.33769
2.34388
2.35216
2.36236
2.37416
2.38726
2.40123
2.41563
2.43002
2.44392
2.45692
2.46866
2.47888
2.48738
2.49411
2.49911
2.50247
2.50438
2.50506
2.50479
2.50379
2.50233
2.50058
2.49876
2.49703
2.54914
2.54851
2.54618
2.54203
2.53608
2.52827
2.51884
2.50793
2.49574
2.48251
2.46848
2.45389
2.43897
2.42398
2.40916
2.39475
2.38099
2.36812
2.35637
2.34598
2.33717
2.33016
2.32516
2.32231
2.32179
2.32324
2.32719
2.33346
2.34214
2.35297
2.36569
2.37991
2.39518
2.41101
2.42685
2.44218
2.45653
2.46949
2.48076
2.49016
2.49763
2.50323
2.50708
2.50939
2.51042
2.51043
2.50973
2.50851
2.50703
2.50546
2.50399
2.53997
2.54028
2.53892
2.53565
2.53043
2.52327
2.5143
2.50371
2.49169
2.47852
2.46444
2.44971
2.43459
2.41935
2.40422
2.38945
2.3753
2.362
2.3498
2.33894
2.32964
2.32215
2.31667
2.3134
2.31251
2.31377
2.31754
2.32384
2.33272
2.344
2.35739
2.37249
2.38881
2.4058
2.42289
2.43948
2.45504
2.46911
2.48139
2.4917
2.49996
2.50626
2.51074
2.51362
2.51518
2.51569
2.51548
2.51473
2.51375
2.51264
2.51162
2.52951
2.53069
2.53004
2.52763
2.52311
2.51658
2.50811
2.4979
2.48616
2.47315
2.45916
2.44446
2.42931
2.41398
2.39873
2.38381
2.36947
2.35596
2.34351
2.33236
2.32276
2.31494
2.30913
2.30552
2.30433
2.3054
2.30894
2.31513
2.32407
2.33559
2.34939
2.36508
2.38215
2.40004
2.41811
2.43573
2.45233
2.46743
2.48067
2.49187
2.50099
2.50809
2.51333
2.51697
2.51927
2.5205
2.52099
2.52097
2.52066
2.52026
2.51988
2.51784
2.51967
2.51965
2.51793
2.51407
2.50816
2.50023
2.49045
2.47908
2.46636
2.4526
2.43809
2.42308
2.40787
2.3927
2.37783
2.36352
2.35
2.33751
2.3263
2.31659
2.30861
2.3026
2.29878
2.29736
2.29822
2.3015
2.30754
2.31637
2.32789
2.34182
2.35779
2.37529
2.39375
2.41252
2.43093
2.44838
2.46435
2.47851
2.49061
2.50062
2.50862
2.51479
2.51936
2.5226
2.52479
2.52622
2.52715
2.52777
2.52826
2.52874
2.50499
2.50727
2.50778
2.50653
2.50329
2.49797
2.49058
2.4813
2.47039
2.45809
2.44471
2.43055
2.41588
2.40097
2.3861
2.37152
2.35746
2.34416
2.33186
2.32079
2.31116
2.30322
2.29718
2.29326
2.29167
2.2924
2.29541
2.30113
2.30973
2.32103
2.33481
2.35074
2.36833
2.38702
2.40616
2.42508
2.44315
2.45986
2.47482
2.48783
2.49882
2.50783
2.51505
2.52074
2.52513
2.52851
2.53114
2.53324
2.53502
2.5366
2.53813
2.49109
2.49355
2.4944
2.49347
2.49073
2.48597
2.4791
2.47039
2.46003
2.44827
2.43542
2.42179
2.40765
2.39329
2.37894
2.36487
2.3513
2.33847
2.32659
2.31588
2.30656
2.29884
2.29293
2.28904
2.28738
2.28794
2.29071
2.29612
2.30427
2.31513
2.32849
2.34404
2.36137
2.37992
2.3991
2.41822
2.43668
2.45394
2.46963
2.48351
2.49549
2.50564
2.51409
2.52106
2.52683
2.53163
2.53568
2.5392
2.54236
2.54526
2.54801
2.4762
2.47852
2.47955
2.47875
2.47636
2.47204
2.46579
2.45764
2.44791
2.43682
2.42467
2.41177
2.39839
2.38479
2.37122
2.35791
2.34509
2.33296
2.32175
2.31163
2.30282
2.29551
2.2899
2.28618
2.28453
2.28501
2.28749
2.29249
2.30011
2.31032
2.32297
2.33782
2.35452
2.37257
2.39141
2.41041
2.42899
2.44661
2.46291
2.47762
2.49064
2.50201
2.51185
2.52033
2.52767
2.53411
2.53983
2.54501
2.54977
2.55419
2.55834
2.46041
2.46238
2.46308
2.46245
2.46015
2.45621
2.45047
2.44293
2.43392
2.42365
2.41239
2.40043
2.38804
2.37546
2.36293
2.35066
2.33885
2.32769
2.31738
2.30809
2.30001
2.29331
2.28815
2.28472
2.28319
2.2836
2.28583
2.29037
2.29731
2.30667
2.31837
2.33219
2.3479
2.36507
2.3832
2.40174
2.42013
2.4379
2.45466
2.47015
2.48424
2.49693
2.50829
2.51847
2.52763
2.53595
2.54358
2.55064
2.55722
2.56335
2.56907
2.44379
2.44499
2.44523
2.44439
2.44206
2.43835
2.43297
2.42613
2.41795
2.40864
2.39849
2.38771
2.37658
2.36531
2.35411
2.34316
2.33264
2.32272
2.31356
2.30533
2.29818
2.29227
2.28773
2.28473
2.28339
2.28378
2.28576
2.28979
2.29594
2.30428
2.31477
2.32728
2.34164
2.35753
2.37457
2.39226
2.41015
2.42781
2.44487
2.46107
2.47625
2.49035
2.5034
2.51547
2.52669
2.53713
2.54691
2.55609
2.56468
2.5727
2.58012
2.42639
2.42646
2.42584
2.4245
2.42192
2.41824
2.41321
2.40706
2.3998
2.39164
2.38282
2.37352
2.36396
2.35431
2.34476
2.33544
2.32651
2.3181
2.31035
2.30341
2.29739
2.29243
2.28865
2.28617
2.28514
2.28551
2.28731
2.29075
2.29604
2.3032
2.31221
2.32309
2.33576
2.35003
2.36559
2.38202
2.39905
2.41631
2.43345
2.45029
2.46657
2.48218
2.49709
2.51128
2.52478
2.53762
2.54981
2.56133
2.57214
2.58219
2.59144
2.40831
2.40669
2.40482
2.40261
2.3995
2.39563
2.39091
2.38543
2.37922
2.37243
2.36522
2.35773
2.3501
2.34246
2.33492
2.32758
2.32054
2.31392
2.30783
2.30238
2.29768
2.29383
2.29095
2.28914
2.28846
2.2889
2.29045
2.29332
2.29764
2.30341
2.31072
2.31967
2.33029
2.34248
2.35625
2.37093
2.38681
2.40331
2.42025
2.43762
2.45501
2.47226
2.48921
2.50576
2.52185
2.53736
2.55224
2.56634
2.57955
2.59178
2.60294
2.38953
2.38573
2.38208
2.3784
2.37447
2.37019
2.36564
2.36082
2.35583
2.35066
2.34543
2.34018
2.33492
2.32972
2.32461
2.31962
2.31481
2.31026
2.30607
2.30232
2.29909
2.29652
2.29466
2.29358
2.29334
2.29386
2.29522
2.29748
2.30071
2.30496
2.3104
2.31716
2.32535
2.33511
2.34646
2.35897
2.37315
2.38846
2.40505
2.42276
2.44123
2.46023
2.47945
2.49868
2.5177
2.53627
2.55412
2.57105
2.58686
2.60137
2.6145
2.37007
2.36351
2.35743
2.35169
2.34653
2.34152
2.33692
2.33262
2.32909
2.32598
2.32312
2.32058
2.31825
2.31604
2.31385
2.31163
2.3094
2.30721
2.30513
2.30325
2.30168
2.3005
2.29975
2.29949
2.29971
2.3004
2.30158
2.30318
2.30525
2.3079
2.31129
2.31561
2.32108
2.32782
2.33619
2.34619
2.35789
2.37171
2.38746
2.40514
2.4249
2.44572
2.46742
2.48975
2.51215
2.53413
2.55532
2.57537
2.59395
2.61085
2.62596
2.35026
2.34032
2.33108
2.32252
2.31536
2.30909
2.3041
2.30024
2.29843
2.29776
2.29787
2.29862
2.29991
2.30134
2.30266
2.30368
2.3044
2.30484
2.3051
2.30526
2.30545
2.30574
2.30619
2.30679
2.30756
2.30847
2.30945
2.31038
2.31128
2.31225
2.31347
2.31512
2.31753
2.32097
2.32575
2.33235
2.34118
2.35274
2.36705
2.38423
2.40514
2.42834
2.45295
2.47864
2.50478
2.53062
2.5556
2.57909
2.60063
2.61997
2.63706
2.33068
2.31743
2.3041
2.29209
2.28213
2.27368
2.26685
2.26373
2.26342
2.26564
2.26932
2.27419
2.27986
2.28575
2.29122
2.29598
2.29997
2.30328
2.306
2.30832
2.31037
2.31221
2.3139
2.31545
2.31683
2.31799
2.31877
2.31902
2.31877
2.31804
2.31697
2.31586
2.31513
2.31487
2.31596
2.31883
2.32376
2.33282
2.34504
2.36019
2.3826
2.40622
2.43494
2.46597
2.49601
2.5258
2.55482
2.58197
2.60662
2.62844
2.64742
2.31322
2.29395
2.27766
2.26022
2.24723
2.23675
2.22704
2.22391
2.22381
2.22999
2.23731
2.24681
2.25777
2.26898
2.27935
2.28839
2.29604
2.30244
2.30782
2.31241
2.31638
2.31982
2.32281
2.32535
2.32739
2.32884
2.32946
2.32908
2.32771
2.32527
2.322
2.318
2.31445
2.31055
2.30717
2.30662
2.30681
2.31183
2.32298
2.33737
2.35924
2.38393
2.41206
2.45031
2.48521
2.51948
2.5528
2.58383
2.6116
2.63581
2.65656
2.29117
2.26877
2.2475
2.22581
2.20554
2.18733
2.17761
2.17478
2.17882
2.19406
2.20101
2.21763
2.23512
2.25217
2.26774
2.2813
2.2928
2.30246
2.31055
2.31745
2.32337
2.32846
2.33279
2.33636
2.33914
2.3409
2.34138
2.34049
2.33806
2.33407
2.32894
2.32228
2.3159
2.30748
2.30068
2.29575
2.29163
2.28952
2.29249
2.30141
2.32167
2.35084
2.39081
2.43407
2.47218
2.51238
2.5499
2.58459
2.61528
2.64163
2.66391
2.26981
2.24144
2.21315
2.18555
2.15994
2.13758
2.12333
2.1184
2.12481
2.14998
2.15982
2.18756
2.21202
2.23526
2.25646
2.27482
2.2903
2.30324
2.31409
2.3233
2.33119
2.33794
2.34365
2.3483
2.35186
2.35398
2.35449
2.35326
2.34994
2.3446
2.33787
2.32921
2.32037
2.31158
2.30128
2.29035
2.27976
2.27139
2.26796
2.27085
2.28568
2.31663
2.36499
2.41164
2.4626
2.50612
2.54693
2.58455
2.61752
2.64552
2.66899
2.24537
2.2122
2.17951
2.14835
2.11981
2.09471
2.0769
2.06988
2.07655
2.09965
2.12405
2.15916
2.19053
2.21992
2.24654
2.26952
2.28877
2.30482
2.31832
2.3298
2.33964
2.34808
2.35519
2.36099
2.3654
2.36787
2.36848
2.36692
2.3631
2.35731
2.34972
2.34344
2.33382
2.32091
2.30535
2.28853
2.27195
2.25763
2.24791
2.24576
2.25695
2.28785
2.33824
2.39608
2.45123
2.49952
2.54383
2.58358
2.61787
2.64696
2.6713
2.2223
2.18568
2.14978
2.1157
2.08456
2.05766
2.03756
2.02901
2.03597
2.06143
2.09533
2.13604
2.17345
2.20809
2.2393
2.26596
2.28838
2.30716
2.3231
2.33674
2.34851
2.35864
2.36721
2.37422
2.37996
2.38242
2.38365
2.38182
2.37664
2.3769
2.37304
2.36313
2.34955
2.33246
2.31222
2.28998
2.26753
2.24695
2.23227
2.225
2.23358
2.26671
2.32196
2.3846
2.44382
2.49427
2.54065
2.58144
2.61647
2.64606
2.67082
2.20136
2.16184
2.12353
2.08779
2.05567
2.02894
2.00907
2.00006
2.00868
2.03742
2.07517
2.12031
2.16241
2.20088
2.23505
2.26432
2.28916
2.31025
2.32831
2.34395
2.35759
2.36943
2.37943
2.38735
2.39184
2.39399
2.39858
2.40635
2.40212
2.40026
2.39563
2.38433
2.36752
2.34657
2.32182
2.29463
2.26701
2.24118
2.22307
2.21638
2.2249
2.26202
2.31853
2.38059
2.4403
2.49191
2.53814
2.57864
2.61348
2.64307
2.66791
2.18302
2.14163
2.10246
2.06689
2.03587
2.01026
1.99037
1.98376
1.99693
2.02819
2.07048
2.1157
2.1589
2.19875
2.23404
2.26475
2.29118
2.31401
2.33386
2.35128
2.36669
2.38027
2.39188
2.40147
2.4109
2.41684
2.41978
2.42625
2.43176
2.42886
2.42115
2.40728
2.38756
2.36315
2.33499
2.3047
2.27512
2.24916
2.2287
2.22071
2.23551
2.27555
2.32867
2.39173
2.44351
2.49263
2.53631
2.57536
2.60914
2.63813
2.66261
2.16835
2.12697
2.08895
2.05581
2.02696
2.00351
1.98616
1.98361
1.99947
2.03176
2.07543
2.11969
2.16166
2.20072
2.23592
2.26711
2.2945
2.31857
2.33985
2.35876
2.37567
2.3908
2.40422
2.41425
2.42341
2.43918
2.45065
2.45756
2.4598
2.45671
2.44741
2.4314
2.40938
2.38285
2.35379
2.32361
2.29402
2.27005
2.25227
2.24631
2.26085
2.29645
2.34996
2.40141
2.44989
2.49479
2.53564
2.57223
2.60393
2.63153
2.6541
2.15852
2.11929
2.08486
2.05245
2.02804
2.00804
1.99679
1.99791
2.01574
2.04754
2.08694
2.12795
2.16801
2.20579
2.2403
2.2714
2.29915
2.32392
2.34623
2.36642
2.38438
2.40012
2.41452
2.4322
2.44959
2.46592
2.4789
2.48679
2.48892
2.48491
2.47398
2.45617
2.4328
2.40646
2.38022
2.34859
2.32311
2.30096
2.28573
2.2841
2.29928
2.32977
2.37367
2.41579
2.45843
2.49882
2.53532
2.56818
2.59668
2.62339
2.64392
2.15354
2.11728
2.08651
2.05723
2.03614
2.02164
2.0154
2.0205
2.03864
2.06759
2.10274
2.14018
2.17763
2.21341
2.24667
2.27713
2.30475
2.32974
2.35245
2.37345
2.39212
2.411
2.43287
2.45544
2.4761
2.49367
2.5074
2.51544
2.51732
2.51248
2.50031
2.48141
2.45808
2.43433
2.40589
2.37726
2.35651
2.33738
2.32759
2.32726
2.33971
2.36474
2.39663
2.43397
2.47052
2.50559
2.53715
2.5645
2.58882
2.61865
2.62577
2.15216
2.11926
2.09238
2.06722
2.05051
2.04043
2.03797
2.04549
2.06324
2.0894
2.12084
2.15485
2.18927
2.22271
2.25431
2.28367
2.31059
2.33518
2.35797
2.3811
2.40318
2.42882
2.45545
2.48043
2.50255
2.52103
2.53515
2.54298
2.54458
2.5392
2.52647
2.5072
2.48412
2.45863
2.43637
2.41242
2.39146
2.37596
2.36907
2.36933
2.37965
2.39829
2.42376
2.45331
2.4836
2.51286
2.53869
2.56197
2.57733
2.60615
2.61968
2.15503
2.12619
2.10395
2.07956
2.06777
2.06212
2.06208
2.07087
2.08829
2.11201
2.14023
2.17092
2.20226
2.23313
2.26249
2.29012
2.31639
2.34198
2.36794
2.39313
2.42168
2.45146
2.4797
2.50572
2.52845
2.54733
2.56156
2.56917
2.57054
2.56488
2.55195
2.53316
2.51211
2.49344
2.46768
2.44332
2.42643
2.4149
2.40969
2.41024
2.41815
2.43243
2.45181
2.47478
2.49761
2.52088
2.54677
2.57362
2.57867
2.59331
2.60984
2.16103
2.13541
2.11545
2.097
2.08722
2.08612
2.08666
2.09639
2.11299
2.13492
2.16031
2.18793
2.21614
2.244
2.27123
2.29755
2.32574
2.35498
2.38251
2.4134
2.44507
2.47569
2.50444
2.53058
2.55339
2.57223
2.58633
2.59375
2.59503
2.58963
2.57739
2.55953
2.53889
2.51698
2.50211
2.48552
2.4609
2.45267
2.44848
2.44885
2.45323
2.46256
2.47609
2.49062
2.51275
2.53564
2.54929
2.56773
2.58002
2.59082
2.60409
2.16977
2.14733
2.1286
2.11356
2.11115
2.11107
2.11142
2.12151
2.13766
2.15756
2.18014
2.2045
2.23003
2.25539
2.28364
2.31436
2.34023
2.37147
2.40519
2.43763
2.46985
2.50032
2.52877
2.55463
2.57703
2.5955
2.60937
2.6167
2.61818
2.61356
2.60254
2.58619
2.56663
2.54696
2.53355
2.51816
2.49265
2.48721
2.48268
2.48219
2.48309
2.48859
2.50063
2.52095
2.53079
2.54614
2.5577
2.57221
2.58421
2.59351
2.60152
2.1813
2.16288
2.14696
2.1359
2.13545
2.12888
2.13475
2.1454
2.16078
2.17879
2.19906
2.22169
2.24874
2.27786
2.29929
2.33181
2.36478
2.39703
2.43087
2.46322
2.49472
2.5245
2.55228
2.57732
2.59905
2.61692
2.63042
2.63782
2.63963
2.63615
2.62691
2.61266
2.59483
2.57579
2.55912
2.54544
2.53216
2.51627
2.51378
2.51407
2.51684
2.52297
2.53135
2.5413
2.54933
2.56237
2.57177
2.58415
2.59271
2.59875
2.60196
2.1947
2.18075
2.16841
2.15918
2.15559
2.15576
2.15812
2.17101
2.18811
2.20436
2.22567
2.24869
2.27225
2.2995
2.32863
2.35988
2.39304
2.42503
2.45734
2.48874
2.51905
2.54776
2.57444
2.5984
2.6192
2.63631
2.64931
2.65687
2.65907
2.65677
2.64946
2.63785
2.62315
2.60665
2.59023
2.57672
2.56295
2.55034
2.54668
2.54541
2.54654
2.55068
2.55597
2.56449
2.5717
2.58039
2.58911
2.59734
2.60285
2.60521
2.60531
2.20937
2.19998
2.19221
2.1872
2.18535
2.18692
2.19184
2.20211
2.21689
2.23405
2.25515
2.27816
2.30337
2.33182
2.36072
2.39128
2.42226
2.45297
2.48361
2.51353
2.54238
2.56966
2.59493
2.61763
2.63733
2.65355
2.66594
2.67364
2.67631
2.67515
2.66971
2.66066
2.6489
2.63551
2.62198
2.60966
2.59781
2.58803
2.58288
2.57995
2.57887
2.57984
2.58233
2.58665
2.59203
2.59723
2.60394
2.60899
2.61191
2.61236
2.60984
2.22501
2.21984
2.21674
2.21589
2.21742
2.22176
2.22918
2.24048
2.25422
2.27174
2.29217
2.3141
2.33911
2.36627
2.3937
2.42213
2.45104
2.48003
2.50885
2.53703
2.56417
2.58985
2.61356
2.63488
2.65338
2.66864
2.68036
2.68806
2.69115
2.69093
2.68716
2.68033
2.67114
2.66057
2.6499
2.63919
2.62833
2.62071
2.61467
2.60993
2.60588
2.60311
2.60238
2.60268
2.60451
2.60804
2.61273
2.61659
2.61842
2.6182
2.61436
2.24135
2.24024
2.24089
2.24373
2.24874
2.25603
2.26567
2.27817
2.29281
2.31007
2.32953
2.35107
2.3744
2.39923
2.42493
2.45139
2.47832
2.50539
2.53232
2.55866
2.58402
2.60804
2.63019
2.65011
2.66741
2.68171
2.69276
2.70038
2.70387
2.70431
2.70186
2.6968
2.68974
2.68141
2.67237
2.66279
2.65371
2.64564
2.63828
2.6314
2.6247
2.61821
2.61285
2.60999
2.60929
2.61093
2.61482
2.61886
2.62105
2.6212
2.61753
2.2581
2.26024
2.26428
2.27031
2.27826
2.28806
2.29957
2.31311
2.3284
2.34549
2.36431
2.3847
2.40654
2.42952
2.45337
2.47796
2.50305
2.52829
2.55338
2.57795
2.60161
2.62404
2.64473
2.66335
2.67954
2.693
2.70348
2.7109
2.71479
2.71579
2.71434
2.71062
2.70511
2.6981
2.69012
2.68142
2.67237
2.66327
2.65404
2.64455
2.63472
2.62451
2.61487
2.60817
2.606
2.60616
2.60999
2.61535
2.61949
2.62082
2.61856
2.27463
2.27964
2.28653
2.29516
2.30539
2.31704
2.32997
2.34428
2.35986
2.37671
2.3948
2.41408
2.4345
2.45594
2.47821
2.50114
2.52452
2.54809
2.57154
2.59452
2.61669
2.6377
2.65713
2.67465
2.68993
2.7027
2.71277
2.72006
2.72434
2.72586
2.72513
2.72243
2.71781
2.71173
2.70422
2.6954
2.68557
2.67482
2.66311
2.65043
2.63684
2.62287
2.60944
2.59815
2.59335
2.59291
2.59716
2.60529
2.61368
2.6176
2.61776
2.29055
2.29791
2.30701
2.3176
2.32944
2.34235
2.35615
2.37086
2.38643
2.40287
2.42022
2.43851
2.45772
2.47781
2.49869
2.5202
2.54216
2.56433
2.58641
2.60808
2.62903
2.64893
2.66737
2.68406
2.69869
2.71101
2.72087
2.72818
2.73291
2.73488
2.73482
2.73278
2.72878
2.72309
2.71547
2.70596
2.69472
2.68172
2.66691
2.65038
2.63282
2.61442
2.59557
2.5796
2.57161
2.57014
2.57555
2.58786
2.60307
2.61283
2.61606
2.30534
2.31445
2.32513
2.33704
2.34989
2.36351
2.3777
2.39244
2.40773
2.42361
2.44017
2.45751
2.47567
2.49466
2.5144
2.53479
2.55563
2.57671
2.59776
2.61848
2.63854
2.65766
2.67545
2.69162
2.70589
2.71804
2.72793
2.73546
2.74066
2.74321
2.74371
2.74211
2.73858
2.73287
2.72477
2.71418
2.70105
2.68524
2.66669
2.64592
2.62303
2.59884
2.57431
2.5518
2.54019
2.53745
2.54404
2.56254
2.58808
2.60814
2.6156
2.31843
2.32872
2.34037
2.35302
2.36634
2.38016
2.3943
2.40873
2.42349
2.43869
2.45446
2.47094
2.48823
2.50633
2.52522
2.54478
2.56483
2.58518
2.60555
2.62566
2.6452
2.66388
2.68136
2.69734
2.71157
2.72383
2.73398
2.74194
2.74769
2.75096
2.75196
2.75088
2.74759
2.74172
2.73292
2.72099
2.70571
2.68683
2.66431
2.63822
2.60935
2.57867
2.54728
2.51838
2.50068
2.49655
2.50512
2.53022
2.56916
2.6033
2.61923
2.32939
2.34028
2.35235
2.3652
2.37852
2.3921
2.40581
2.41965
2.43373
2.44818
2.4632
2.47895
2.49553
2.513
2.5313
2.55033
2.56992
2.58986
2.60989
2.62974
2.6491
2.66767
2.68516
2.70125
2.71572
2.72835
2.739
2.74756
2.75399
2.75808
2.75967
2.75902
2.75599
2.74991
2.7404
2.72709
2.70955
2.68746
2.66054
2.6288
2.59296
2.55411
2.51354
2.47443
2.4473
2.43819
2.44381
2.47425
2.52833
2.59416
2.62934
2.33791
2.34888
2.36087
2.37345
2.38634
2.39933
2.41234
2.42541
2.43871
2.45243
2.46678
2.48194
2.49803
2.51509
2.53307
2.55185
2.57127
2.59111
2.61111
2.63099
2.65045
2.6692
2.68695
2.70342
2.71835
2.73156
2.74288
2.75218
2.7594
2.7644
2.76661
2.76653
2.76377
2.75759
2.7475
2.73296
2.71335
2.68806
2.65657
2.61861
2.57469
2.52575
2.47302
2.42028
2.38015
2.36487
2.37231
2.42098
2.50381
2.60431
2.66601
2.46621
2.46886
2.47143
2.47396
2.47648
2.47904
2.48168
2.48448
2.48748
2.49075
2.49436
2.49838
2.50287
2.50788
2.51344
2.51958
2.52629
2.53356
2.54132
2.5495
2.55799
2.56665
2.57534
2.58389
2.59214
2.59994
2.46717
2.46908
2.47103
2.47304
2.47518
2.47749
2.48002
2.48283
2.48596
2.48948
2.49342
2.49783
2.50277
2.50825
2.5143
2.52092
2.52808
2.53574
2.54382
2.55222
2.56081
2.56945
2.57798
2.58623
2.59405
2.60129
2.46845
2.46966
2.47101
2.47254
2.47432
2.47641
2.47884
2.48168
2.48495
2.48871
2.49298
2.49779
2.50316
2.50912
2.51564
2.52271
2.53029
2.53831
2.54666
2.55523
2.56387
2.57243
2.58074
2.58863
2.59597
2.60261
2.47018
2.47076
2.47155
2.47264
2.47411
2.47599
2.47835
2.48121
2.48463
2.48861
2.49318
2.49836
2.50414
2.51051
2.51746
2.52494
2.53288
2.54119
2.54975
2.55842
2.56705
2.57545
2.58348
2.59098
2.5978
2.60383
2.4725
2.47252
2.47282
2.47352
2.47471
2.47641
2.47871
2.4816
2.48513
2.48931
2.49415
2.49964
2.50576
2.51249
2.51978
2.52758
2.53579
2.54431
2.55298
2.56167
2.5702
2.57839
2.5861
2.59316
2.59945
2.60488
2.47548
2.47503
2.47497
2.47534
2.47628
2.47784
2.48008
2.483
2.48662
2.49095
2.49599
2.5017
2.50806
2.51504
2.52257
2.53057
2.53894
2.54755
2.55625
2.56486
2.57322
2.58114
2.58847
2.59508
2.60085
2.6057
2.47923
2.47842
2.47807
2.47825
2.47898
2.48043
2.4826
2.48553
2.48921
2.49361
2.49874
2.50458
2.51107
2.51817
2.5258
2.53389
2.54229
2.55088
2.55947
2.56791
2.57601
2.58361
2.59054
2.5967
2.60197
2.6063
2.48381
2.48277
2.48222
2.48228
2.4829
2.48427
2.48639
2.48929
2.49296
2.49737
2.5025
2.50835
2.51484
2.52192
2.52951
2.53751
2.54579
2.5542
2.56258
2.57074
2.57851
2.58573
2.59225
2.59796
2.60278
2.60666
2.48925
2.48812
2.48748
2.48752
2.4881
2.48943
2.49149
2.49434
2.49795
2.50228
2.50731
2.51303
2.51936
2.52626
2.53363
2.54137
2.54937
2.55746
2.56549
2.57327
2.58063
2.58742
2.59352
2.59882
2.60324
2.60675
2.49556
2.49449
2.49394
2.49397
2.49461
2.49594
2.49796
2.50074
2.5042
2.50838
2.51319
2.51863
2.52464
2.53117
2.53813
2.54544
2.55298
2.56059
2.56813
2.57541
2.5823
2.58863
2.5943
2.59922
2.60332
2.60657
2.50275
2.50188
2.50155
2.50169
2.50245
2.50381
2.50582
2.50849
2.51177
2.51565
2.52011
2.52512
2.53063
2.5366
2.54297
2.54965
2.55654
2.56351
2.57041
2.57711
2.58345
2.58927
2.59454
2.59914
2.60301
2.60611
2.5108
2.51031
2.51026
2.51066
2.51159
2.51304
2.51505
2.51756
2.52057
2.52408
2.52806
2.53247
2.5373
2.54251
2.54807
2.55391
2.55997
2.56613
2.57226
2.57826
2.58403
2.58924
2.59417
2.59852
2.60226
2.60535
2.51967
2.51971
2.52008
2.52086
2.52202
2.5236
2.52557
2.5279
2.53059
2.53361
2.53696
2.54062
2.54457
2.54883
2.55336
2.55817
2.56319
2.56835
2.57356
2.57874
2.58378
2.5886
2.59313
2.5973
2.60102
2.60426
2.52929
2.53003
2.53099
2.53219
2.53368
2.5354
2.53733
2.53946
2.54174
2.54417
2.54676
2.54949
2.55239
2.55547
2.55877
2.56229
2.56608
2.57008
2.57415
2.57848
2.58273
2.58709
2.59128
2.59538
2.59925
2.6028
2.53964
2.54121
2.54287
2.54463
2.54648
2.54837
2.55028
2.55212
2.55394
2.55567
2.55735
2.55898
2.56063
2.56234
2.56417
2.56621
2.56847
2.57107
2.57399
2.57719
2.58077
2.58449
2.58853
2.59264
2.59683
2.60092
2.55064
2.55319
2.55566
2.55804
2.56032
2.56241
2.56425
2.5658
2.56706
2.56799
2.56862
2.569
2.56921
2.56932
2.56945
2.56974
2.57028
2.57123
2.57272
2.57475
2.57743
2.58072
2.5846
2.58897
2.59365
2.59854
2.56224
2.56588
2.56926
2.57234
2.57508
2.57737
2.57917
2.58036
2.58098
2.581
2.58048
2.57943
2.57798
2.57626
2.57444
2.57269
2.57122
2.57031
2.57012
2.57077
2.57247
2.57534
2.57923
2.58406
2.58961
2.59562
2.57436
2.5792
2.58356
2.58739
2.59061
2.59314
2.59484
2.59566
2.59557
2.59462
2.59274
2.59011
2.58681
2.58299
2.57896
2.57486
2.57105
2.56792
2.56579
2.56491
2.56552
2.56786
2.57202
2.57767
2.58447
2.59203
2.58692
2.59304
2.59844
2.60305
2.60678
2.60952
2.61113
2.61152
2.61073
2.60862
2.60527
2.60089
2.59554
2.5894
2.58272
2.57589
2.56938
2.56363
2.55919
2.55652
2.55602
2.55782
2.5624
2.56936
2.57795
2.58753
2.59982
2.60728
2.61375
2.61915
2.62337
2.62635
2.62785
2.62778
2.6262
2.62284
2.61793
2.61161
2.60398
2.59518
2.5855
2.57558
2.56585
2.557
2.54975
2.54484
2.54294
2.54461
2.54971
2.55867
2.56968
2.58189
2.61295
2.62177
2.62932
2.63553
2.64031
2.64343
2.64477
2.64423
2.64176
2.63709
2.6305
2.62212
2.61204
2.60043
2.58718
2.57385
2.56056
2.54827
2.53764
2.52989
2.52582
2.52683
2.5335
2.54491
2.55914
2.57474
2.62617
2.63632
2.64492
2.6519
2.65714
2.66047
2.66163
2.66058
2.65713
2.6511
2.64273
2.63224
2.61973
2.60532
2.58811
2.57115
2.55367
2.53776
2.52347
2.51236
2.5062
2.50524
2.51351
2.52851
2.54621
2.5659
2.63924
2.65069
2.66029
2.66798
2.67367
2.67716
2.67813
2.67652
2.67203
2.66459
2.6545
2.64215
2.62712
2.60952
2.58932
2.5656
2.54241
2.52137
2.50341
2.48983
2.47969
2.47687
2.49081
2.50801
2.53112
2.55603
2.6519
2.66455
2.67506
2.68342
2.68951
2.69313
2.69388
2.69163
2.68608
2.67739
2.66562
2.65137
2.63383
2.61007
2.58696
2.56572
2.54188
2.51638
2.4919
2.47121
2.46018
2.45182
2.4633
2.48085
2.5122
2.54559
2.66371
2.67745
2.68876
2.69771
2.70419
2.70791
2.70839
2.70555
2.69916
2.68942
2.6761
2.65689
2.63654
2.61701
2.59196
2.56444
2.53443
2.50343
2.47446
2.44983
2.43313
2.42726
2.43487
2.46239
2.49415
2.53432
2.67413
2.68881
2.70082
2.71026
2.71707
2.72088
2.72123
2.71811
2.71117
2.6988
2.68377
2.66829
2.64625
2.62074
2.59095
2.55878
2.52581
2.49274
2.46155
2.43378
2.41351
2.40792
2.41637
2.44591
2.48574
2.52719
2.68257
2.69802
2.71057
2.72039
2.7275
2.73144
2.73193
2.72881
2.72056
2.71135
2.69609
2.67601
2.65057
2.62108
2.58813
2.55291
2.51716
2.48232
2.45053
2.42106
2.39919
2.39345
2.40551
2.43755
2.48148
2.52668
2.68849
2.70451
2.71745
2.72748
2.7348
2.7388
2.73932
2.73492
2.73079
2.71989
2.70281
2.67999
2.65189
2.61922
2.58333
2.54578
2.50922
2.47446
2.44014
2.41281
2.39274
2.38855
2.40619
2.44202
2.48751
2.53385
2.69145
2.70793
2.72113
2.73124
2.73859
2.74233
2.74568
2.74304
2.73603
2.72359
2.7051
2.68036
2.64975
2.61467
2.57729
2.5404
2.50642
2.46959
2.44075
2.41483
2.39837
2.39882
2.41877
2.45494
2.49947
2.54441
2.69138
2.70815
2.72144
2.73092
2.73662
2.74533
2.74743
2.74431
2.73659
2.72315
2.70327
2.67682
2.64457
2.6085
2.57175
2.53916
2.50063
2.47274
2.44761
2.42607
2.4172
2.42199
2.44071
2.47391
2.51393
2.55529
2.68864
2.70542
2.718
2.72662
2.73755
2.74088
2.74236
2.73984
2.73186
2.7178
2.69715
2.66994
2.63733
2.60186
2.56722
2.53369
2.5048
2.47896
2.45661
2.44206
2.43777
2.4443
2.46292
2.49215
2.52792
2.56557
2.6826
2.69837
2.70944
2.72133
2.72821
2.73229
2.73323
2.7302
2.72194
2.7077
2.68688
2.65978
2.62786
2.59405
2.56165
2.53533
2.50855
2.48143
2.46507
2.45645
2.45547
2.46368
2.48171
2.50833
2.54024
2.57399
2.67213
2.68579
2.69926
2.70897
2.71556
2.71888
2.71903
2.71534
2.70685
2.69261
2.67233
2.6464
2.61644
2.58569
2.55991
2.53405
2.50052
2.48252
2.47103
2.46705
2.46901
2.47837
2.4958
2.52017
2.54862
2.5786
2.65607
2.67316
2.68466
2.69303
2.69904
2.70127
2.70023
2.6955
2.6866
2.67261
2.65336
2.62938
2.60214
2.57432
2.54826
2.52721
2.50654
2.48032
2.47357
2.47364
2.47773
2.48759
2.50424
2.52649
2.55228
2.57989
2.64412
2.65845
2.66765
2.67509
2.67926
2.68015
2.67753
2.67126
2.66145
2.64749
2.62919
2.6071
2.58263
2.55742
2.53342
2.512
2.49782
2.47778
2.47463
2.47569
2.47761
2.49121
2.50653
2.52731
2.55202
2.57688
2.62941
2.64309
2.65034
2.65552
2.65739
2.65646
2.65194
2.64381
2.63252
2.61802
2.60015
2.57945
2.55706
2.53465
2.51347
2.49509
2.48055
2.47379
2.46995
2.46486
2.47562
2.48845
2.5045
2.52466
2.54807
2.57111
2.61937
2.62848
2.63322
2.63526
2.63475
2.63126
2.62458
2.61457
2.60133
2.58568
2.56771
2.54771
2.52675
2.50611
2.48686
2.47047
2.4586
2.45305
2.45157
2.45493
2.46413
2.47725
2.49477
2.5158
2.53825
2.56157
2.61078
2.6156
2.61707
2.6161
2.61238
2.60597
2.59677
2.58472
2.5699
2.55272
2.53406
2.51445
2.49463
2.47561
2.45837
2.44398
2.43521
2.43193
2.43185
2.43733
2.44763
2.46212
2.48061
2.50211
2.52518
2.54878
2.60469
2.60548
2.60352
2.59876
2.59152
2.5819
2.56988
2.55551
2.53893
2.52052
2.5009
2.48116
2.462
2.44426
2.42867
2.41651
2.40973
2.40781
2.40944
2.41587
2.42702
2.44253
2.46185
2.484
2.50781
2.53215
2.60188
2.59872
2.59281
2.58414
2.57316
2.56009
2.54502
2.52811
2.50959
2.48986
2.46947
2.44926
2.43028
2.41316
2.39858
2.38799
2.38225
2.38091
2.38326
2.39023
2.40197
2.41814
2.43821
2.46131
2.48627
2.51189
2.60183
2.59502
2.58525
2.57273
2.55797
2.54133
2.52309
2.50352
2.48296
2.46181
2.44058
2.42001
2.40085
2.38389
2.36968
2.35902
2.35347
2.35206
2.35411
2.36088
2.37251
2.38882
2.40943
2.43362
2.46019
2.48765
2.60359
2.59396
2.58077
2.56469
2.5463
2.52617
2.50478
2.48255
2.45988
2.43721
2.41498
2.39379
2.37425
2.35693
2.34214
2.33055
2.32356
2.32107
2.32179
2.32736
2.33801
2.35387
2.3747
2.40021
2.42879
2.45923
2.60642
2.59463
2.57886
2.55978
2.53816
2.51481
2.49046
2.46568
2.44096
2.41671
2.39331
2.37119
2.3508
2.33257
2.31672