/*--------------------------------*- C++ -*----------------------------------*\
  =========                 |
  \\      /  F ield         | OpenFOAM: The Open Source CFD Toolbox
   \\    /   O peration     | Website:  https://openfoam.org
    \\  /    A nd           | Version:  10
     \\/     M anipulation  |
\*---------------------------------------------------------------------------*/
FoamFile
{
    format      ascii;
    class       volScalarField;
    location    "0.301005";
    object      T;
}
// * * * * * * * * * * * * * * * * * * * * * * * * * * * * * * * * * * * * * //

dimensions      [0 0 0 1 0 0 0];

internalField   nonuniform List<scalar> 
15708
(
0.00878051
0.00876647
0.00875299
0.00874001
0.0087274
0.00871561
0.0087044
0.00869379
0.00868413
0.00867512
0.00866691
0.00866037
0.00865399
0.00864884
0.0086453
0.00864194
0.00864058
0.00863947
0.00863979
0.00864083
0.00864274
0.00864496
0.0086473
0.0086503
0.0086525
0.00865429
0.00865597
0.00865642
0.00865687
0.00865638
0.00865548
0.00865461
0.00865207
0.00865116
0.00864924
0.00864798
0.00864741
0.00864679
0.00864719
0.00864808
0.00864946
0.00865112
0.00865346
0.00865593
0.00865855
0.00866158
0.00866439
0.00866775
0.00867042
0.00867369
0.00867627
0.00878372
0.00877015
0.00875779
0.00874571
0.00873381
0.00872245
0.00871102
0.00870047
0.00869003
0.00868075
0.00867195
0.00866357
0.00865694
0.00864983
0.00864463
0.00863983
0.00863665
0.00863396
0.00863275
0.00863242
0.00863289
0.00863412
0.00863612
0.00863824
0.00864029
0.00864279
0.00864472
0.00864619
0.00864738
0.00864861
0.00864868
0.00864898
0.00864929
0.00864898
0.00864902
0.00864932
0.0086499
0.00865084
0.00865225
0.00865393
0.00865561
0.00865809
0.00866007
0.00866305
0.00866471
0.00866783
0.00866961
0.00867186
0.00867416
0.00867605
0.008678
0.00878543
0.00877397
0.00876255
0.00875117
0.00873996
0.00872886
0.00871755
0.00870669
0.00869588
0.0086858
0.00867598
0.00866679
0.00865849
0.00865045
0.00864345
0.00863734
0.00863233
0.00862809
0.00862527
0.00862347
0.00862275
0.00862284
0.00862422
0.00862559
0.00862804
0.00863006
0.00863283
0.0086352
0.0086375
0.00863983
0.00864159
0.0086438
0.00864511
0.00864723
0.00864891
0.0086507
0.00865289
0.00865534
0.0086571
0.00866056
0.00866226
0.0086652
0.0086673
0.00866992
0.00867158
0.00867339
0.0086752
0.00867631
0.00867788
0.00867883
0.00868006
0.00878672
0.00877683
0.00876614
0.00875567
0.00874523
0.00873434
0.00872345
0.00871216
0.00870118
0.00869019
0.00867952
0.00866955
0.00865958
0.00865059
0.0086423
0.00863444
0.00862781
0.00862213
0.00861764
0.00861446
0.0086124
0.0086117
0.00861175
0.00861318
0.00861484
0.00861749
0.00862018
0.0086239
0.00862724
0.00863068
0.00863435
0.00863811
0.00864127
0.00864534
0.00864901
0.00865217
0.00865652
0.00865927
0.00866386
0.00866622
0.00867031
0.00867253
0.00867514
0.00867665
0.00867913
0.00867979
0.00868089
0.00868149
0.00868174
0.00868202
0.00868224
0.00878723
0.00877765
0.00876926
0.00875926
0.00874944
0.00873882
0.00872806
0.00871657
0.00870519
0.00869398
0.00868247
0.00867147
0.00866088
0.00865003
0.00864045
0.00863135
0.0086232
0.00861593
0.00861013
0.00860537
0.00860213
0.00860017
0.00859972
0.00860022
0.00860175
0.00860468
0.00860771
0.00861194
0.00861639
0.00862148
0.0086264
0.00863239
0.00863729
0.00864313
0.00864907
0.00865395
0.00865995
0.00866452
0.00866901
0.00867441
0.00867661
0.00868061
0.00868336
0.00868416
0.00868606
0.00868666
0.00868644
0.00868666
0.00868632
0.00868591
0.00868553
0.00878563
0.00877831
0.00877094
0.00876195
0.0087524
0.00874256
0.00873178
0.00872052
0.00870872
0.00869697
0.00868477
0.00867299
0.00866063
0.00864958
0.00863822
0.00862795
0.00861819
0.0086099
0.00860234
0.00859645
0.00859199
0.00858877
0.00858749
0.00858774
0.00858869
0.00859134
0.00859503
0.00859973
0.00860542
0.00861179
0.00861879
0.00862549
0.00863408
0.00864049
0.0086493
0.00865535
0.00866332
0.00866916
0.0086753
0.00868039
0.00868498
0.00868846
0.00869018
0.00869265
0.00869315
0.00869294
0.00869317
0.00869231
0.00869113
0.00869032
0.008689
0.00878293
0.00877805
0.00877072
0.00876294
0.00875459
0.00874459
0.00873445
0.00872319
0.00871135
0.00869905
0.0086858
0.00867386
0.00866057
0.00864775
0.00863634
0.00862339
0.00861392
0.00860313
0.00859529
0.00858739
0.00858198
0.00857763
0.00857577
0.00857477
0.00857599
0.00857859
0.00858167
0.00858817
0.00859404
0.00860244
0.00860954
0.0086205
0.00862775
0.00863915
0.00864813
0.0086567
0.00866662
0.00867412
0.00868066
0.00868742
0.00869169
0.00869575
0.00869833
0.00870013
0.00869993
0.0087002
0.00869943
0.00869796
0.0086971
0.00869493
0.00869365
0.00877914
0.00877501
0.00877009
0.00876337
0.00875475
0.00874615
0.0087354
0.00872499
0.00871253
0.00869991
0.00868679
0.00867291
0.00865979
0.00864659
0.00863223
0.00862088
0.00860774
0.00859794
0.00858726
0.00857939
0.00857192
0.00856691
0.00856428
0.00856225
0.00856352
0.00856541
0.00856992
0.00857537
0.00858306
0.00859214
0.00860154
0.00861316
0.00862351
0.00863622
0.00864656
0.00865841
0.00866851
0.00867788
0.00868695
0.00869255
0.00869879
0.0087027
0.00870617
0.00870659
0.00870744
0.00870737
0.00870539
0.00870479
0.00870231
0.00870074
0.00869875
0.00877383
0.00877182
0.00876707
0.00876221
0.00875396
0.00874605
0.00873578
0.00872561
0.00871184
0.00870044
0.00868592
0.00867213
0.00865796
0.00864341
0.00863015
0.00861586
0.00860353
0.00859097
0.00858011
0.00857146
0.00856213
0.00855717
0.0085527
0.00855113
0.00855122
0.00855355
0.00855668
0.00856412
0.00857209
0.0085813
0.00859415
0.00860438
0.00862003
0.00863048
0.00864702
0.00865749
0.00867079
0.00868143
0.00869033
0.00869846
0.00870525
0.00870874
0.00871252
0.00871355
0.00871472
0.00871365
0.00871266
0.00871045
0.00870895
0.0087065
0.00870424
0.00876739
0.00876617
0.00876339
0.00875911
0.00875154
0.0087443
0.00873486
0.00872351
0.00871223
0.00869818
0.00868546
0.00866969
0.00865581
0.00864118
0.00862507
0.00861227
0.00859748
0.00858471
0.00857372
0.00856208
0.00855465
0.0085468
0.00854256
0.00853952
0.00854022
0.00854149
0.00854549
0.00855233
0.00856082
0.00857252
0.00858321
0.00859984
0.00861182
0.00862885
0.00864348
0.00865754
0.00867192
0.00868328
0.00869442
0.00870238
0.00871024
0.0087148
0.00871775
0.00872086
0.00872034
0.00872037
0.0087189
0.00871723
0.00871506
0.00871368
0.00871053
0.00875964
0.00875911
0.00875816
0.00875364
0.00874899
0.00874046
0.0087324
0.00872136
0.00870948
0.00869642
0.00868254
0.00866653
0.00865338
0.00863611
0.00862234
0.00860615
0.00859264
0.00857824
0.00856708
0.00855386
0.00854681
0.00853737
0.00853351
0.00852936
0.00852918
0.00853037
0.00853495
0.00854108
0.00855117
0.00856109
0.00857626
0.00859022
0.00860683
0.00862425
0.00863934
0.00865703
0.00867043
0.00868533
0.00869577
0.00870588
0.00871485
0.00871836
0.0087236
0.00872555
0.00872635
0.00872601
0.00872566
0.00872376
0.00872197
0.00872077
0.00871869
0.00875028
0.00875179
0.00875046
0.00874795
0.00874324
0.00873557
0.00872797
0.0087177
0.00870582
0.00869264
0.00867795
0.00866452
0.00864753
0.00863333
0.00861646
0.00860162
0.00858683
0.00857268
0.00855912
0.00854807
0.00853814
0.00853007
0.00852383
0.00851985
0.00851979
0.00852072
0.00852436
0.00853124
0.00853988
0.00855391
0.00856538
0.00858352
0.00860028
0.00861778
0.00863671
0.0086528
0.0086703
0.00868427
0.00869735
0.00870735
0.00871771
0.00872139
0.00872843
0.00873045
0.00873188
0.00873203
0.00873187
0.00873059
0.00872981
0.00872726
0.00872663
0.00873975
0.0087423
0.00874154
0.00874015
0.00873626
0.00872921
0.0087221
0.00871172
0.00870075
0.0086881
0.00867304
0.00865978
0.00864275
0.00862776
0.00861161
0.0085958
0.00858054
0.00856725
0.00855339
0.00854076
0.00853129
0.00852202
0.00851647
0.00851138
0.00851111
0.00851172
0.00851523
0.00852144
0.00853208
0.00854247
0.00855889
0.00857502
0.00859309
0.00861191
0.00863131
0.00864922
0.00866745
0.00868247
0.0086972
0.00870769
0.00871859
0.00872509
0.00873027
0.00873509
0.00873614
0.00873767
0.00873775
0.00873761
0.00873652
0.00873621
0.00873438
0.00872699
0.00873075
0.00873184
0.00873024
0.00872797
0.00872144
0.00871426
0.00870453
0.0086946
0.00868067
0.00866873
0.0086516
0.00863859
0.00862083
0.00860646
0.00858967
0.00857569
0.00855978
0.00854802
0.00853452
0.00852505
0.00851533
0.00850902
0.00850551
0.00850264
0.00850439
0.0085072
0.00851394
0.00852188
0.0085362
0.00854942
0.00856734
0.00858576
0.00860518
0.00862462
0.00864603
0.00866059
0.00868211
0.00869282
0.00870771
0.00871832
0.00872527
0.0087335
0.0087365
0.00874098
0.00874245
0.00874423
0.00874407
0.00874444
0.00874403
0.00874419
0.00871568
0.00871869
0.00872021
0.00871892
0.00871663
0.00871238
0.00870402
0.00869679
0.00868528
0.0086737
0.00865996
0.00864637
0.00863
0.00861604
0.00859905
0.00858452
0.0085687
0.00855517
0.00854091
0.00853003
0.00851805
0.00851063
0.00850372
0.00849807
0.008498
0.00849749
0.00850069
0.00850588
0.00851655
0.00852638
0.00854355
0.00855899
0.00857852
0.00859709
0.00861991
0.00863697
0.00865847
0.0086757
0.00868953
0.00870687
0.00871504
0.00872593
0.00873385
0.00873835
0.00874405
0.0087467
0.0087494
0.0087506
0.00875157
0.00875297
0.00875364
0.00870064
0.00870463
0.00870605
0.00870689
0.00870369
0.00870029
0.00869374
0.00868555
0.00867572
0.00866464
0.00865169
0.0086368
0.00862381
0.00860804
0.00859242
0.00857814
0.00856246
0.00854908
0.00853687
0.0085241
0.008514
0.00850596
0.00849811
0.00849508
0.00849167
0.00849305
0.00849489
0.0085012
0.00850977
0.00852073
0.00853551
0.00855242
0.00856862
0.00859294
0.00860806
0.00863287
0.00865
0.0086691
0.00868631
0.0087007
0.00871334
0.0087242
0.00873362
0.00873953
0.00874642
0.00874984
0.00875473
0.00875685
0.00875991
0.00876144
0.00876372
0.00868239
0.00869248
0.00868815
0.00869383
0.00868812
0.00868614
0.00868131
0.00867352
0.00866363
0.00865399
0.00864101
0.00862834
0.00861533
0.00859864
0.00858657
0.0085702
0.00855726
0.00854356
0.00853116
0.00851988
0.00851091
0.00850097
0.00849663
0.00849086
0.00848906
0.00848935
0.00849164
0.00849649
0.00850477
0.00851553
0.0085291
0.0085448
0.00856299
0.00858141
0.00860326
0.00862186
0.00864263
0.00866276
0.00867707
0.00869678
0.00870804
0.0087222
0.00873084
0.00874032
0.00874751
0.00875392
0.00875945
0.00876388
0.00876832
0.00877094
0.00877477
0.00867029
0.00867152
0.00867629
0.0086724
0.00867435
0.00866998
0.00866502
0.00865807
0.00865179
0.00864105
0.00863019
0.00861794
0.00860366
0.00859156
0.00857777
0.00856328
0.00855126
0.00853806
0.00852688
0.00851703
0.00850721
0.00849989
0.008494
0.00848886
0.00848793
0.00848751
0.00848898
0.00849476
0.00850078
0.00851122
0.00852457
0.00853695
0.00855651
0.00857314
0.00859274
0.00861506
0.00863076
0.00865422
0.00867064
0.00868725
0.00870328
0.00871634
0.00872935
0.00873945
0.00874899
0.00875719
0.00876485
0.00877064
0.00877586
0.00878186
0.00878512
0.00865081
0.00865435
0.00865661
0.00865549
0.00865409
0.00865305
0.00864783
0.00864239
0.00863556
0.00862586
0.00861838
0.00860511
0.00859445
0.00858264
0.00856879
0.0085576
0.00854461
0.00853406
0.00852275
0.00851415
0.00850559
0.00849859
0.00849392
0.00848889
0.00848715
0.00848773
0.00848846
0.00849353
0.00849938
0.00850791
0.00851888
0.00853278
0.00854726
0.00856527
0.00858483
0.0086006
0.00862431
0.00864037
0.00866317
0.00867773
0.00869653
0.00871162
0.00872659
0.00873843
0.00874982
0.00876008
0.00876881
0.00877757
0.0087853
0.0087911
0.00879769
0.00863464
0.0086324
0.008637
0.00863351
0.00863388
0.00863346
0.00862829
0.00862449
0.00861717
0.00861154
0.00860199
0.00859267
0.00858215
0.00857039
0.00856075
0.00854975
0.00853914
0.0085297
0.00851999
0.00851166
0.00850438
0.00849923
0.00849479
0.00849029
0.00848823
0.00848915
0.00848975
0.0084931
0.00849862
0.00850577
0.0085153
0.00852729
0.00853975
0.00855801
0.00857239
0.00859626
0.00861235
0.00863105
0.00864954
0.00867207
0.00868787
0.00870515
0.00872036
0.00873583
0.00874996
0.00876322
0.00877446
0.00878415
0.00879419
0.00880216
0.00880989
0.00861442
0.00861312
0.00861448
0.00861054
0.00861276
0.00860963
0.00860537
0.00860234
0.00859878
0.00859279
0.00858603
0.0085782
0.00856931
0.00856088
0.00855144
0.00854222
0.00853416
0.00852515
0.00851794
0.00851161
0.00850491
0.00850069
0.0084968
0.00849301
0.00849189
0.00849166
0.00849304
0.00849508
0.00850029
0.00850561
0.0085127
0.00852339
0.00853624
0.00854201
0.00857363
0.00857213
0.00860937
0.00860942
0.00864853
0.00864547
0.00867674
0.00870034
0.00871844
0.00873453
0.00875025
0.00876486
0.0087793
0.00879097
0.00880258
0.00881185
0.00882144
0.00859428
0.00859292
0.00859096
0.00858996
0.008586
0.00858646
0.00858395
0.00857887
0.00857565
0.00857203
0.0085679
0.00856325
0.00855703
0.00855041
0.00854285
0.00853586
0.00852866
0.00852247
0.00851577
0.00851123
0.00850618
0.00850343
0.0084999
0.00849863
0.00849547
0.00849656
0.00849701
0.00849881
0.00850215
0.00850564
0.00851327
0.00852399
0.00852393
0.00854913
0.00854517
0.00858037
0.00857934
0.00861635
0.00861288
0.00865329
0.00867223
0.00869255
0.00871377
0.00873355
0.00875186
0.0087683
0.00878472
0.00880008
0.008813
0.00882456
0.00883435
0.00857469
0.00856936
0.00856275
0.00855719
0.00855666
0.00855385
0.00855428
0.00855432
0.008556
0.00855473
0.00854784
0.00854314
0.00853915
0.00853632
0.00853144
0.00852782
0.00852293
0.00851948
0.00851543
0.00851204
0.00850914
0.00850754
0.00850487
0.00850419
0.00850261
0.0085029
0.00850302
0.00850405
0.0085062
0.0085091
0.0085135
0.00851703
0.00853024
0.00852847
0.00855434
0.00854985
0.00858198
0.00858078
0.00862457
0.00861755
0.00866182
0.00869084
0.0087119
0.00873358
0.00875498
0.00877342
0.0087904
0.00880714
0.00882177
0.00883499
0.0088455
0.00854862
0.00852024
0.00850594
0.00847735
0.00846521
0.00847468
0.00846653
0.00849195
0.00851733
0.00852877
0.0085362
0.00853475
0.00853193
0.00852892
0.00852593
0.0085239
0.00852054
0.00851876
0.00851626
0.00851443
0.00851325
0.00851229
0.00851075
0.00851139
0.00851072
0.00851075
0.00851087
0.00851159
0.00851295
0.00851418
0.00851887
0.00852258
0.00852652
0.00852663
0.00852562
0.00851804
0.00850603
0.00851415
0.00851526
0.00858453
0.00859172
0.0086069
0.00869584
0.00873425
0.0087601
0.00878327
0.00880289
0.00882077
0.00883391
0.00884652
0.00885678
0.00846973
0.00831597
0.00832213
0.00812677
0.00804858
0.0080612
0.00813248
0.0082462
0.00836181
0.00844306
0.00848015
0.00850148
0.00850804
0.00851008
0.00851132
0.00851277
0.00851394
0.00851541
0.00851647
0.00851709
0.00851852
0.00851866
0.0085191
0.00852002
0.0085206
0.00852042
0.00852067
0.00852128
0.00852204
0.00852587
0.0085253
0.00852263
0.00850238
0.00849544
0.00837956
0.00832099
0.00816138
0.00792668
0.00794201
0.00793237
0.00817084
0.00837595
0.00845125
0.00861348
0.00869654
0.00875485
0.00879642
0.00882294
0.00884162
0.00885703
0.008867
0.00814864
0.00747657
0.00734593
0.0067708
0.00648339
0.00652764
0.00673792
0.00716362
0.0077621
0.00815306
0.00838318
0.00847428
0.00850106
0.00850685
0.00850887
0.00851224
0.00851419
0.00851695
0.00851911
0.00852137
0.00852392
0.00852572
0.00852749
0.00852991
0.00853188
0.00853199
0.00853231
0.008535
0.0085366
0.00853522
0.00851522
0.0085055
0.00835687
0.0082883
0.00772774
0.00696742
0.00635347
0.00567771
0.00553944
0.0057511
0.00577725
0.00661838
0.00794089
0.00836608
0.00866367
0.00875445
0.00879914
0.0088315
0.00885052
0.0088659
0.008876
0.00627443
0.00562594
0.00510964
0.00487134
0.00474912
0.00479415
0.00479765
0.0052589
0.00579318
0.00713547
0.007942
0.00825055
0.00839031
0.00845912
0.00848811
0.00850592
0.0085126
0.00851851
0.00852254
0.00852721
0.00853104
0.00853412
0.00853671
0.00854128
0.00854384
0.00854492
0.00854864
0.00855205
0.00854371
0.00853437
0.00841706
0.00828192
0.00760994
0.00648908
0.00539387
0.00482889
0.00456118
0.00444214
0.0044433
0.00452986
0.00458857
0.00510407
0.00541663
0.00765285
0.00834225
0.00865933
0.00878526
0.00883308
0.00885601
0.0088708
0.00888135
0.00467445
0.00446839
0.00438151
0.00436617
0.00437364
0.00441713
0.00444558
0.00459548
0.00472303
0.00549265
0.00691604
0.00804852
0.0083849
0.00846019
0.00848736
0.00850083
0.00851056
0.00851833
0.00852639
0.00853193
0.00853913
0.008544
0.00854898
0.00855493
0.00855745
0.00856498
0.00856693
0.00856219
0.00850048
0.00839366
0.00780428
0.00666977
0.00527746
0.00463027
0.00439126
0.00432586
0.00432509
0.00433451
0.00436841
0.00446187
0.00450542
0.00468923
0.00493806
0.00602813
0.00771007
0.00849775
0.0087604
0.00883369
0.00885691
0.00887177
0.00888392
0.00430338
0.00429987
0.00431229
0.00434864
0.0044037
0.00453284
0.00455013
0.00457015
0.00459814
0.00494501
0.00576805
0.00726522
0.00810936
0.0084035
0.00847535
0.00849874
0.00851049
0.00852029
0.00853053
0.00853962
0.00854705
0.00855414
0.00856193
0.00856803
0.00857849
0.00858277
0.00857521
0.00849643
0.00819554
0.00726514
0.0055071
0.00465144
0.00436379
0.00429697
0.0042974
0.00431603
0.00437483
0.00445817
0.00466517
0.00475523
0.00468185
0.00470297
0.00493943
0.00576838
0.00751181
0.00845227
0.00875677
0.00883316
0.0088569
0.00887127
0.00888346
0.00428769
0.00432327
0.00440649
0.00458077
0.00473653
0.00511729
0.00511032
0.00489107
0.00474245
0.00490816
0.00559813
0.00701367
0.00793943
0.00833225
0.00845873
0.00849462
0.00851057
0.00852263
0.00853486
0.00854605
0.0085557
0.00856611
0.0085752
0.00858883
0.00859869
0.00859145
0.00847746
0.00783108
0.00637891
0.00487323
0.00436331
0.00429275
0.00429283
0.00430932
0.00435542
0.00444921
0.00462311
0.0048674
0.00515751
0.00555221
0.00525872
0.00489055
0.00495352
0.00601444
0.00755804
0.0085161
0.00876843
0.0088327
0.00885261
0.0088664
0.0088805
0.00435215
0.00447864
0.00469891
0.00502867
0.00542483
0.00591285
0.00588455
0.00546446
0.00502088
0.00505735
0.00575927
0.00714614
0.00799114
0.00833807
0.00845355
0.00849144
0.00851047
0.00852561
0.00854099
0.00855282
0.00856646
0.00857852
0.00859527
0.00860895
0.00860273
0.00848834
0.00756436
0.00491175
0.00435417
0.00431938
0.00430825
0.00431198
0.00433326
0.00439265
0.0045262
0.00478318
0.00520354
0.00575388
0.00625218
0.00638138
0.00542607
0.00502082
0.00534128
0.0063754
0.00808018
0.00861825
0.00879061
0.00882718
0.00884265
0.00885539
0.00887997
0.00448387
0.00471766
0.00512205
0.00572843
0.00631427
0.00673632
0.00670441
0.00593566
0.00533461
0.00542292
0.00621041
0.00740668
0.00808682
0.0083689
0.00845696
0.00849075
0.00851156
0.0085281
0.0085459
0.0085614
0.00857777
0.00859728
0.0086162
0.00861412
0.00826555
0.00520296
0.00452465
0.00436563
0.00432692
0.00432422
0.00433036
0.00435285
0.00442419
0.00459432
0.00493524
0.0055182
0.00633824
0.00700251
0.00695404
0.00633245
0.00562963
0.00548718
0.00599441
0.00763148
0.00852892
0.00868303
0.00879778
0.00881869
0.00883275
0.00885389
0.00885741
0.00465239
0.00505889
0.00573384
0.00667007
0.00731343
0.00737446
0.00708139
0.00632572
0.00599996
0.00623172
0.00709486
0.00786878
0.00825002
0.00840409
0.00846104
0.00848903
0.00851149
0.00853074
0.00855262
0.00857418
0.00859387
0.00861276
0.00848401
0.00712654
0.00514756
0.00446947
0.00435947
0.00433948
0.00433692
0.00434392
0.00436715
0.00444213
0.00462214
0.00500078
0.00567283
0.00668827
0.00744457
0.00751409
0.00714702
0.00653915
0.00632252
0.00644273
0.00743501
0.00846338
0.00860134
0.00875359
0.00877612
0.00878888
0.00880548
0.00878305
0.00868291
0.00482913
0.00540687
0.00637767
0.00738466
0.00779836
0.00769148
0.0073509
0.00698247
0.00688243
0.00725496
0.00778521
0.0081696
0.00834776
0.0084265
0.00846254
0.0084899
0.00851426
0.00853907
0.00856664
0.00858128
0.00855632
0.00816422
0.00642138
0.00491503
0.00447156
0.00436291
0.00435003
0.00434914
0.00435682
0.00437838
0.00444338
0.00461017
0.00497012
0.00563899
0.00671477
0.0076589
0.00796229
0.00789391
0.00752529
0.00736754
0.0073006
0.00763227
0.00848572
0.00849755
0.00873311
0.00874257
0.00878568
0.00879022
0.00880163
0.00863771
0.00780444
0.004938
0.00562856
0.00675057
0.00780175
0.00796432
0.00796601
0.0077548
0.00763675
0.00761874
0.00793084
0.00814273
0.00831598
0.00838929
0.00843768
0.00846592
0.00849619
0.00852479
0.00854011
0.00854371
0.0084238
0.0078358
0.00598532
0.00479973
0.00445581
0.00437055
0.00435809
0.00435755
0.00436536
0.00438191
0.00443082
0.00455848
0.00485198
0.00543202
0.00640896
0.00754313
0.00828124
0.00826682
0.00822761
0.00809948
0.00805098
0.00811776
0.00841649
0.00858753
0.00873488
0.00871067
0.00873668
0.00870196
0.008584
0.00831683
0.00743911
0.00555033
0.00497698
0.00572043
0.00692491
0.00785169
0.00810858
0.00810326
0.00807542
0.0080407
0.00805156
0.00820226
0.0083142
0.00836724
0.00841995
0.0084457
0.00847619
0.00849559
0.00850479
0.00843897
0.00811694
0.00723706
0.0055556
0.00471602
0.00444202
0.00437299
0.00436284
0.00436405
0.00437178
0.00438254
0.00441213
0.00448971
0.00467489
0.00506018
0.00576712
0.00683878
0.00826915
0.00834532
0.00850362
0.00845333
0.00844746
0.00846727
0.00852727
0.00861787
0.00870319
0.00869442
0.0087115
0.00867062
0.00864821
0.00818984
0.00701325
0.00549985
0.0045809
0.00486342
0.0055185
0.00662753
0.00781504
0.00815791
0.00815494
0.0082203
0.00820796
0.00830145
0.00829952
0.00838615
0.00839149
0.00843551
0.00844945
0.00846369
0.00843423
0.00823457
0.00762421
0.00625724
0.00506614
0.00464648
0.00441807
0.00437633
0.00436444
0.00436882
0.00437584
0.00438458
0.00439887
0.00443567
0.00452651
0.00473131
0.00515366
0.00592337
0.00714927
0.00807902
0.00862084
0.00855527
0.00859768
0.00862704
0.00867457
0.00866148
0.0086709
0.00867473
0.00865262
0.00843845
0.00843367
0.00755713
0.00609191
0.00488534
0.00480777
0.00445892
0.00472657
0.00526246
0.00617397
0.00740284
0.00819462
0.0082046
0.00821155
0.00832085
0.00832166
0.00837701
0.0083763
0.00840765
0.00841149
0.00837964
0.0082264
0.00780967
0.00690144
0.005548
0.00476315
0.00454028
0.00440205
0.00437096
0.00436532
0.0043693
0.00438036
0.0043871
0.00439654
0.00441233
0.00445006
0.00453959
0.00473459
0.00511518
0.0057826
0.00678256
0.00806441
0.00836847
0.0086779
0.00857232
0.00866825
0.00865608
0.00867559
0.00864991
0.00859847
0.00839927
0.00811411
0.00658617
0.00559642
0.00496485
0.00454375
0.00454037
0.00442236
0.0044794
0.00481554
0.00545931
0.00647503
0.00777995
0.0080497
0.00829474
0.0082518
0.00832648
0.00834562
0.008354
0.00833032
0.00822877
0.00794809
0.00734037
0.00584319
0.00492458
0.00465826
0.00442773
0.00439127
0.00436462
0.00436248
0.00436995
0.00438043
0.00439048
0.00439802
0.00440676
0.00442104
0.00445185
0.00451981
0.00466153
0.00493434
0.00541333
0.00616984
0.00719622
0.00800751
0.00853158
0.00841665
0.00853293
0.00849785
0.00842271
0.00815912
0.00776087
0.00691503
0.00572445
0.00522029
0.0046211
0.00460082
0.00444596
0.00444217
0.00440526
0.00433913
0.00449526
0.00481438
0.00540316
0.00632051
0.00723051
0.00808873
0.00796674
0.00809367
0.00809425
0.00803847
0.00776613
0.00721204
0.00615004
0.00508629
0.00475929
0.0044534
0.00441577
0.00436143
0.00435989
0.00435789
0.00436867
0.00437963
0.0043918
0.00440019
0.0044083
0.00441609
0.00442756
0.00444945
0.00449426
0.00458269
0.00474836
0.00503395
0.00547734
0.00608368
0.00677872
0.00728604
0.0076145
0.00760264
0.00757416
0.00716629
0.00653229
0.00580162
0.00524358
0.00479422
0.00462704
0.00445814
0.00446637
0.0044118
0.00441139
0.00440053
0.00426542
0.00432572
0.0044515
0.00468688
0.00507176
0.00560209
0.00611607
0.00677767
0.00669312
0.0067596
0.00653491
0.00586934
0.00517666
0.00478819
0.00448058
0.00443834
0.00435966
0.00435466
0.00434835
0.00435836
0.00436399
0.00437951
0.00438975
0.004402
0.00440991
0.00441753
0.00442482
0.0044336
0.00444809
0.00447487
0.0045237
0.00461105
0.00475524
0.00497318
0.00526102
0.00558063
0.00575644
0.00589865
0.00589368
0.00579895
0.00546061
0.00511203
0.00481764
0.00463212
0.00447865
0.00447574
0.00441898
0.00442071
0.00440539
0.0044053
0.0044002
0.00423734
0.00425638
0.00429801
0.00437767
0.00451027
0.00469676
0.00490358
0.00510665
0.00510409
0.00512913
0.00498672
0.00469252
0.00451143
0.00438135
0.00436841
0.00434647
0.004338
0.00434488
0.00435101
0.00436396
0.00437622
0.00438868
0.0044001
0.00441135
0.00441873
0.00442618
0.00443289
0.00443997
0.00444939
0.00446477
0.00448967
0.0045316
0.00459577
0.00468778
0.0048034
0.00491867
0.00497665
0.00500359
0.00499368
0.004902
0.00472628
0.00460422
0.00450936
0.0044603
0.00442662
0.0044295
0.00441032
0.00441052
0.00440603
0.00440642
0.00440235
0.0042309
0.00423676
0.00424953
0.00427276
0.00431211
0.0043678
0.00443003
0.00447972
0.00449313
0.00449696
0.00444718
0.00435573
0.00434317
0.00432731
0.0043281
0.00432991
0.00433971
0.00434767
0.00436084
0.00437522
0.00438552
0.00439843
0.00440966
0.00441972
0.00442691
0.004434
0.00444027
0.00444605
0.00445245
0.00446161
0.00447434
0.00449331
0.00451956
0.00455314
0.00459318
0.00462188
0.0046398
0.00463875
0.0046216
0.00456492
0.00450259
0.00446327
0.00444135
0.00441904
0.0044206
0.00441069
0.00441069
0.00440858
0.00440889
0.00440833
0.00440468
0.00423361
0.00423619
0.00424141
0.00424951
0.00426088
0.00427702
0.00429469
0.00430976
0.00431878
0.00431998
0.0043147
0.00431162
0.00431023
0.00431933
0.00432694
0.00433228
0.00434674
0.00435823
0.00437243
0.00438405
0.00439544
0.00440726
0.00441828
0.00442699
0.00443419
0.00444093
0.00444683
0.00445175
0.00445647
0.00446282
0.00446966
0.00447903
0.00449042
0.00450296
0.00451248
0.00451838
0.00451831
0.00451423
0.00449677
0.00447301
0.00445031
0.0044328
0.00442383
0.00441647
0.00441218
0.00441037
0.00440904
0.00440972
0.00440926
0.00440915
0.0044064
0.00423994
0.00424275
0.00424656
0.0042516
0.00425827
0.00426577
0.00427333
0.00428058
0.00428886
0.00429551
0.0043002
0.00430697
0.00431284
0.00432322
0.00433367
0.00434453
0.00435815
0.00436911
0.00438181
0.00439311
0.00440402
0.00441573
0.0044254
0.00443364
0.00444066
0.00444702
0.00445263
0.00445654
0.00446119
0.00446567
0.00446997
0.00447543
0.00447983
0.00448413
0.00448505
0.00448582
0.00448252
0.00447546
0.0044625
0.0044504
0.00443737
0.0044275
0.0044145
0.00441573
0.00440694
0.00440812
0.00440676
0.00440724
0.00440749
0.00440775
0.00440595
0.00424691
0.00425064
0.00425489
0.00426001
0.00426568
0.00427134
0.00427805
0.00428322
0.00429105
0.00429793
0.00430473
0.00431412
0.00432386
0.00433483
0.00434524
0.00435601
0.00436772
0.00437876
0.00439004
0.00440115
0.00441185
0.0044231
0.00443187
0.0044393
0.0044461
0.00445254
0.00445739
0.0044612
0.00446537
0.00446899
0.00447199
0.0044751
0.00447692
0.00447741
0.00447669
0.00447389
0.00446945
0.00446111
0.00445245
0.00444284
0.00443346
0.0044253
0.00441614
0.00440585
0.00440601
0.00440119
0.00440156
0.00440171
0.00440325
0.00440463
0.00440483
0.00425386
0.0042586
0.00426406
0.00427008
0.0042763
0.00428251
0.00428931
0.00429449
0.0043018
0.00430966
0.00431755
0.00432612
0.00433511
0.00434509
0.00435508
0.00436559
0.00437615
0.00438712
0.00439748
0.00440823
0.00441804
0.00442862
0.00443666
0.00444411
0.00445063
0.00445672
0.00446141
0.00446495
0.00446897
0.00447134
0.00447371
0.00447592
0.00447671
0.00447625
0.00447457
0.0044711
0.00446641
0.00445885
0.00445176
0.00444189
0.00443233
0.0044224
0.00441093
0.00440205
0.00439442
0.00439161
0.00439044
0.00439098
0.00439875
0.00439887
0.00440378
0.00426111
0.00426646
0.00427208
0.00427903
0.0042858
0.0042922
0.00429927
0.004305
0.00431224
0.0043203
0.00432715
0.004336
0.00434421
0.00435362
0.00436313
0.00437308
0.00438316
0.00439371
0.00440348
0.00441371
0.00442305
0.00443324
0.00444104
0.00444807
0.00445466
0.00446076
0.00446526
0.00446876
0.00447201
0.00447436
0.0044771
0.0044785
0.00447888
0.00447781
0.00447574
0.00447195
0.00446639
0.00445812
0.0044497
0.00443893
0.00442828
0.00441578
0.00440416
0.00439259
0.00438562
0.00437743
0.00437872
0.00437742
0.00438458
0.00439682
0.00440004
0.00426708
0.00427307
0.00427903
0.00428659
0.00429361
0.00430007
0.00430673
0.00431282
0.00432057
0.00432743
0.00433475
0.00434297
0.00435082
0.00435984
0.00436896
0.00437839
0.00438828
0.0043981
0.00440778
0.00441745
0.00442675
0.00443657
0.00444448
0.00445154
0.00445835
0.00446391
0.00446829
0.00447188
0.00447478
0.00447741
0.00447948
0.00448059
0.00448076
0.00447969
0.004477
0.00447282
0.00446658
0.00445748
0.00444863
0.00443713
0.0044247
0.00441039
0.00439598
0.00438269
0.00436013
0.00436237
0.00435861
0.00435646
0.00437205
0.00438866
0.00440089
0.00427228
0.00427854
0.00428499
0.00429198
0.004299
0.00430534
0.00431206
0.00431831
0.00432583
0.00433215
0.00433963
0.00434707
0.00435493
0.00436337
0.00437245
0.00438148
0.00439139
0.00440049
0.00441031
0.00441963
0.00442922
0.00443862
0.00444704
0.00445398
0.00446058
0.00446619
0.00447089
0.00447455
0.00447741
0.00447985
0.00448165
0.00448255
0.00448253
0.0044811
0.0044787
0.00447432
0.0044678
0.00445847
0.00444814
0.00443392
0.00441862
0.00440406
0.00438972
0.00437634
0.00435444
0.00435312
0.00434916
0.00434834
0.00436763
0.00439087
0.00441498
0.00427626
0.00428262
0.00428894
0.00429573
0.00430216
0.00430865
0.00431526
0.00432126
0.00432791
0.00433449
0.00434151
0.00434851
0.00435641
0.00436479
0.00437359
0.00438271
0.00439222
0.0044014
0.00441132
0.00442106
0.00443057
0.00443958
0.00444828
0.00445534
0.00446225
0.00446836
0.00447321
0.0044775
0.00448039
0.00448329
0.00448496
0.00448565
0.00448558
0.00448411
0.00448139
0.00447699
0.00446972
0.00446012
0.00444855
0.00443442
0.00442127
0.00440705
0.00439533
0.00438489
0.0043811
0.00439246
0.00443168
0.00445788
0.00446355
0.00447295
0.00448512
0.00867922
0.00868189
0.00868456
0.00868692
0.00868991
0.00869222
0.00869511
0.00869787
0.00870097
0.00870429
0.0087079
0.00871205
0.00871606
0.00872145
0.00872635
0.00873263
0.00873923
0.00874594
0.00875351
0.00876129
0.00876964
0.00877783
0.00878655
0.00879448
0.00880262
0.0088097
0.00867998
0.00868178
0.00868405
0.00868594
0.00868813
0.00869047
0.00869309
0.00869585
0.00869887
0.00870261
0.00870616
0.00871104
0.00871522
0.00872113
0.00872702
0.00873331
0.0087402
0.00874806
0.00875589
0.00876399
0.00877243
0.00878086
0.00878894
0.00879703
0.00880451
0.00881129
0.00868128
0.00868224
0.00868359
0.00868525
0.00868696
0.00868896
0.00869165
0.00869426
0.00869744
0.00870118
0.0087053
0.00871025
0.0087156
0.00872108
0.00872819
0.00873491
0.00874238
0.00875016
0.00875815
0.00876716
0.00877524
0.00878393
0.00879206
0.00879946
0.00880655
0.00881291
0.00868269
0.00868327
0.00868421
0.00868524
0.00868648
0.00868856
0.00869055
0.00869355
0.00869689
0.00870074
0.00870556
0.00871018
0.00871642