/*--------------------------------*- C++ -*----------------------------------*\
  =========                 |
  \\      /  F ield         | OpenFOAM: The Open Source CFD Toolbox
   \\    /   O peration     | Website:  https://openfoam.org
    \\  /    A nd           | Version:  10
     \\/     M anipulation  |
\*---------------------------------------------------------------------------*/
FoamFile
{
    format      ascii;
    class       volVectorField;
    location    "0.301005";
    object      U;
}
// * * * * * * * * * * * * * * * * * * * * * * * * * * * * * * * * * * * * * //

dimensions      [0 1 -1 0 0 0 0];

internalField   nonuniform List<vector> 
15708
(
(0.426917 -0.0298385 0)
(0.426947 -0.0294246 0)
(0.427466 -0.0294812 0)
(0.42823 -0.0298163 0)
(0.42917 -0.0303416 0)
(0.430217 -0.0309769 0)
(0.431299 -0.0316439 0)
(0.432348 -0.0322574 0)
(0.433304 -0.0327338 0)
(0.434111 -0.0329906 0)
(0.434719 -0.0329464 0)
(0.435082 -0.0325236 0)
(0.435153 -0.031652 0)
(0.434892 -0.0302726 0)
(0.434268 -0.0283346 0)
(0.433255 -0.0257991 0)
(0.431845 -0.0226378 0)
(0.43005 -0.0188704 0)
(0.427898 -0.0144756 0)
(0.425439 -0.00951675 0)
(0.422761 -0.00402977 0)
(0.419963 0.00187634 0)
(0.417124 0.00809472 0)
(0.414367 0.0145135 0)
(0.411791 0.021 0)
(0.409473 0.02744 0)
(0.407478 0.03373 0)
(0.405836 0.0397604 0)
(0.404553 0.0454645 0)
(0.403651 0.0507271 0)
(0.403124 0.0554759 0)
(0.402907 0.0596654 0)
(0.402938 0.0632481 0)
(0.40319 0.0662024 0)
(0.403624 0.0685077 0)
(0.40419 0.0701752 0)
(0.404874 0.071208 0)
(0.405674 0.0716392 0)
(0.406582 0.0715104 0)
(0.407634 0.0708695 0)
(0.408871 0.069751 0)
(0.410309 0.0682418 0)
(0.412 0.0663954 0)
(0.413977 0.064283 0)
(0.416277 0.0619712 0)
(0.418942 0.0595189 0)
(0.421985 0.0569718 0)
(0.425405 0.054366 0)
(0.429196 0.0517302 0)
(0.433338 0.0490863 0)
(0.4378 0.0464522 0)
(0.427639 -0.0252929 0)
(0.427242 -0.0246702 0)
(0.427413 -0.0245346 0)
(0.427921 -0.024701 0)
(0.428695 -0.0250698 0)
(0.429665 -0.025555 0)
(0.430756 -0.0260763 0)
(0.431903 -0.0265569 0)
(0.433039 -0.0269157 0)
(0.43411 -0.0270712 0)
(0.43506 -0.0269446 0)
(0.435834 -0.0264652 0)
(0.436379 -0.0255698 0)
(0.436643 -0.0241991 0)
(0.436588 -0.0223084 0)
(0.436173 -0.0198579 0)
(0.435374 -0.016824 0)
(0.434181 -0.0131978 0)
(0.432602 -0.00899251 0)
(0.430686 -0.0042371 0)
(0.428472 0.00102333 0)
(0.42602 0.00670107 0)
(0.423448 0.0126988 0)
(0.420831 0.0189291 0)
(0.41826 0.0252479 0)
(0.415841 0.0315379 0)
(0.413635 0.0376796 0)
(0.411674 0.0435598 0)
(0.409995 0.0490755 0)
(0.408614 0.0541472 0)
(0.40753 0.0586759 0)
(0.40671 0.062599 0)
(0.40611 0.0658709 0)
(0.405709 0.0684731 0)
(0.405484 0.0703811 0)
(0.405405 0.0716089 0)
(0.405466 0.0721771 0)
(0.405679 0.0721238 0)
(0.406053 0.071494 0)
(0.406619 0.0703616 0)
(0.407425 0.0687801 0)
(0.408516 0.0668299 0)
(0.40993 0.0645915 0)
(0.411699 0.0621319 0)
(0.413859 0.0595267 0)
(0.416431 0.0568262 0)
(0.419422 0.0540765 0)
(0.422824 0.0513066 0)
(0.426621 0.0485436 0)
(0.430787 0.0458061 0)
(0.435288 0.0431069 0)
(0.428599 -0.0210779 0)
(0.427754 -0.0201942 0)
(0.427568 -0.0198114 0)
(0.4278 -0.0197425 0)
(0.428396 -0.0198879 0)
(0.42928 -0.0201604 0)
(0.430369 -0.0204789 0)
(0.431593 -0.0207704 0)
(0.432891 -0.0209568 0)
(0.434201 -0.0209612 0)
(0.435461 -0.0207134 0)
(0.436608 -0.0201496 0)
(0.437585 -0.0192108 0)
(0.438332 -0.0178436 0)
(0.438799 -0.0160037 0)
(0.438937 -0.0136557 0)
(0.438707 -0.0107734 0)
(0.438085 -0.00734497 0)
(0.437057 -0.00337359 0)
(0.435645 0.00113069 0)
(0.433876 0.00609705 0)
(0.431796 0.011482 0)
(0.42949 0.0171984 0)
(0.427033 0.0231443 0)
(0.424496 0.0292175 0)
(0.421985 0.035287 0)
(0.41957 0.0412227 0)
(0.417296 0.0469088 0)
(0.415203 0.0522354 0)
(0.413321 0.0570978 0)
(0.411657 0.0614068 0)
(0.4102 0.0650864 0)
(0.408933 0.0680899 0)
(0.407844 0.0703883 0)
(0.406926 0.0719692 0)
(0.406172 0.0728353 0)
(0.405591 0.0730251 0)
(0.405206 0.0725785 0)
(0.405043 0.0715584 0)
(0.405146 0.070042 0)
(0.405563 0.0681102 0)
(0.406339 0.0658414 0)
(0.407513 0.0633154 0)
(0.409114 0.0606047 0)
(0.411165 0.0577785 0)
(0.413679 0.0548812 0)
(0.416647 0.0519661 0)
(0.420054 0.0490432 0)
(0.423879 0.0461448 0)
(0.428088 0.0432819 0)
(0.432642 0.0404672 0)
(0.429855 -0.0172355 0)
(0.428547 -0.0160228 0)
(0.427985 -0.0153394 0)
(0.427934 -0.0149647 0)
(0.428338 -0.0148207 0)
(0.429118 -0.0148132 0)
(0.430189 -0.0148687 0)
(0.431475 -0.0149123 0)
(0.43291 -0.0148724 0)
(0.434427 -0.0146797 0)
(0.435956 -0.0142726 0)
(0.437431 -0.013594 0)
(0.438787 -0.0125912 0)
(0.439963 -0.0112172 0)
(0.440895 -0.00943097 0)
(0.441527 -0.00720012 0)
(0.441811 -0.00449663 0)
(0.441709 -0.00130107 0)
(0.441198 0.00239521 0)
(0.440264 0.00656861 0)
(0.438917 0.0111921 0)
(0.437197 0.0162108 0)
(0.435164 0.0215569 0)
(0.432884 0.0271503 0)
(0.430417 0.032882 0)
(0.42784 0.0386534 0)
(0.425235 0.0443281 0)
(0.422658 0.0497691 0)
(0.420153 0.0548671 0)
(0.417759 0.0595077 0)
(0.415504 0.0635964 0)
(0.413395 0.0670518 0)
(0.411436 0.0698201 0)
(0.409635 0.0718684 0)
(0.408004 0.0731838 0)
(0.406558 0.0737768 0)
(0.405326 0.0736833 0)
(0.404345 0.072957 0)
(0.403659 0.0716667 0)
(0.403317 0.0698977 0)
(0.403369 0.0677318 0)
(0.403861 0.0652541 0)
(0.404824 0.0625444 0)
(0.406282 0.0596705 0)
(0.408242 0.0567028 0)
(0.410717 0.0536699 0)
(0.413672 0.0506083 0)
(0.417086 0.0475563 0)
(0.42094 0.0445083 0)
(0.42519 0.0414937 0)
(0.429792 0.0385075 0)
(0.431451 -0.0137677 0)
(0.42968 -0.0121864 0)
(0.428736 -0.0111272 0)
(0.428395 -0.0103859 0)
(0.428591 -0.0098811 0)
(0.429255 -0.00952666 0)
(0.430286 -0.00925003 0)
(0.431605 -0.00898243 0)
(0.433145 -0.0086619 0)
(0.434829 -0.00822859 0)
(0.436581 -0.00762558 0)
(0.43833 -0.00680577 0)
(0.440006 -0.00572528 0)
(0.441539 -0.00434378 0)
(0.442867 -0.0026185 0)
(0.443927 -0.00051089 0)
(0.444663 0.00200408 0)
(0.445023 0.00494009 0)
(0.444968 0.00830375 0)
(0.444474 0.0120964 0)
(0.443535 0.0163021 0)
(0.442158 0.0208905 0)
(0.440404 0.0257953 0)
(0.438308 0.0309363 0)
(0.435926 0.0362651 0)
(0.433338 0.0416397 0)
(0.430573 0.046964 0)
(0.427709 0.0521055 0)
(0.424811 0.0569316 0)
(0.421919 0.0613302 0)
(0.419076 0.0651947 0)
(0.416312 0.0684401 0)
(0.413656 0.071006 0)
(0.411136 0.0728566 0)
(0.408788 0.0739783 0)
(0.406649 0.074384 0)
(0.40477 0.0741125 0)
(0.403206 0.073222 0)
(0.402012 0.0717862 0)
(0.401245 0.0698882 0)
(0.400955 0.0676166 0)
(0.401181 0.0650489 0)
(0.40195 0.0622621 0)
(0.403284 0.0593229 0)
(0.405162 0.0562774 0)
(0.407571 0.053166 0)
(0.410511 0.0499984 0)
(0.413922 0.0468178 0)
(0.417781 0.0436145 0)
(0.42205 0.0404091 0)
(0.426677 0.0372048 0)
(0.433439 -0.0106905 0)
(0.431212 -0.00870767 0)
(0.429886 -0.0071958 0)
(0.429244 -0.00603284 0)
(0.429227 -0.00509458 0)
(0.429754 -0.00432329 0)
(0.430724 -0.00364761 0)
(0.432049 -0.00300337 0)
(0.433651 -0.00233622 0)
(0.435453 -0.00160209 0)
(0.437372 -0.0007543 0)
(0.439329 0.000249303 0)
(0.441252 0.00144617 0)
(0.443074 0.00286826 0)
(0.444725 0.00454808 0)
(0.446133 0.00651151 0)
(0.447238 0.008786 0)
(0.447986 0.0114012 0)
(0.448328 0.0143785 0)
(0.448227 0.0177314 0)
(0.44766 0.0214525 0)
(0.446619 0.0255237 0)
(0.445115 0.0299108 0)
(0.443231 0.0345186 0)
(0.440971 0.0393491 0)
(0.438364 0.0442342 0)
(0.435502 0.0491269 0)
(0.432409 0.0538985 0)
(0.429148 0.0584091 0)
(0.425787 0.0625255 0)
(0.422379 0.0661553 0)
(0.41898 0.0691984 0)
(0.41564 0.0715978 0)
(0.412413 0.0733021 0)
(0.409357 0.0743061 0)
(0.406541 0.0746168 0)
(0.404033 0.0742766 0)
(0.401906 0.0733426 0)
(0.400226 0.0718882 0)
(0.399055 0.0699945 0)
(0.398441 0.067742 0)
(0.398417 0.0652071 0)
(0.399 0.0624529 0)
(0.400191 0.0595376 0)
(0.401971 0.0564868 0)
(0.40431 0.0533455 0)
(0.40719 0.0501151 0)
(0.410561 0.0468063 0)
(0.414387 0.0434411 0)
(0.418635 0.0400133 0)
(0.423253 0.036538 0)
(0.435848 -0.00804902 0)
(0.433193 -0.0055887 0)
(0.431498 -0.00359856 0)
(0.430549 -0.00191836 0)
(0.430321 -0.000477227 0)
(0.430693 0.000789332 0)
(0.431576 0.00194849 0)
(0.432876 0.00303455 0)
(0.434498 0.00410525 0)
(0.436359 0.00518799 0)
(0.438378 0.00631931 0)
(0.440473 0.0075273 0)
(0.442562 0.00884485 0)
(0.444578 0.0103011 0)
(0.446455 0.01192 0)
(0.448119 0.0137315 0)
(0.449512 0.0157697 0)
(0.450568 0.0180573 0)
(0.451237 0.0206226 0)
(0.451469 0.0234841 0)
(0.451229 0.0266575 0)
(0.450493 0.0301367 0)
(0.449248 0.0339076 0)
(0.447566 0.0379222 0)
(0.445429 0.0421181 0)
(0.442872 0.0464472 0)
(0.439965 0.0508279 0)
(0.436694 0.055143 0)
(0.433121 0.0592508 0)
(0.429337 0.0630447 0)
(0.425416 0.0664138 0)
(0.421421 0.0692664 0)
(0.417436 0.0715229 0)
(0.413533 0.0731431 0)
(0.40981 0.0741062 0)
(0.406347 0.0744242 0)
(0.40324 0.074131 0)
(0.400579 0.0732817 0)
(0.398441 0.0719444 0)
(0.396886 0.0701908 0)
(0.39596 0.0680923 0)
(0.395685 0.0657107 0)
(0.396072 0.0630971 0)
(0.397103 0.0602921 0)
(0.398749 0.0573262 0)
(0.400973 0.0541937 0)
(0.40374 0.050934 0)
(0.407014 0.047509 0)
(0.410754 0.0439648 0)
(0.414916 0.0402833 0)
(0.419469 0.0364864 0)
(0.438754 -0.00586645 0)
(0.435675 -0.00288407 0)
(0.433631 -0.000331874 0)
(0.432406 0.00191732 0)
(0.431934 0.00394191 0)
(0.43215 0.00577254 0)
(0.432918 0.00747393 0)
(0.434145 0.00907507 0)
(0.43574 0.0106141 0)
(0.4376 0.0121 0)
(0.439643 0.0135657 0)
(0.441784 0.0150233 0)
(0.443953 0.0164993 0)
(0.446073 0.0180132 0)
(0.448074 0.0195866 0)
(0.449899 0.0212463 0)
(0.451475 0.0230201 0)
(0.452748 0.0249438 0)
(0.453656 0.0270478 0)
(0.454152 0.0293661 0)
(0.454182 0.0319238 0)
(0.453713 0.0347385 0)
(0.452714 0.0378107 0)
(0.45122 0.0411265 0)
(0.449238 0.0446008 0)
(0.446783 0.0482963 0)
(0.443872 0.0520579 0)
(0.440474 0.0558068 0)
(0.436668 0.059458 0)
(0.432551 0.0628837 0)
(0.428191 0.0659676 0)
(0.423675 0.0686273 0)
(0.419107 0.0707664 0)
(0.414592 0.0723553 0)
(0.410251 0.073355 0)
(0.406191 0.0737785 0)
(0.402534 0.07365 0)
(0.399378 0.0730184 0)
(0.396808 0.0719366 0)
(0.39489 0.0704634 0)
(0.393654 0.0686532 0)
(0.393119 0.0665511 0)
(0.393279 0.0641891 0)
(0.394118 0.0615892 0)
(0.395568 0.0587657 0)
(0.397614 0.055703 0)
(0.400202 0.0524323 0)
(0.403292 0.0489127 0)
(0.406867 0.0451657 0)
(0.41087 0.0412028 0)
(0.415285 0.0370333 0)
(0.442128 -0.00413218 0)
(0.438731 -0.000626189 0)
(0.436352 0.00255282 0)
(0.434848 0.00543845 0)
(0.434171 0.00812464 0)
(0.43419 0.0106006 0)
(0.43482 0.0129274 0)
(0.435944 0.0151296 0)
(0.437442 0.0171952 0)
(0.439231 0.0191559 0)
(0.441218 0.0210092 0)
(0.44332 0.0227684 0)
(0.445463 0.0244341 0)
(0.447574 0.0260241 0)
(0.449595 0.0275553 0)
(0.451458 0.0290507 0)
(0.45311 0.0305445 0)
(0.454491 0.032071 0)
(0.455546 0.0336729 0)
(0.456221 0.0353928 0)
(0.456455 0.0372686 0)
(0.456207 0.0393432 0)
(0.455433 0.0416315 0)
(0.454115 0.0441501 0)
(0.452318 0.0468355 0)
(0.450009 0.0497707 0)
(0.447118 0.0527969 0)
(0.443702 0.0559065 0)
(0.439777 0.0590267 0)
(0.435405 0.062021 0)
(0.430702 0.0647926 0)
(0.425759 0.0672355 0)
(0.420698 0.0692928 0)
(0.415666 0.0708879 0)
(0.410781 0.0720077 0)
(0.406206 0.0726386 0)
(0.402059 0.0728024 0)
(0.39846 0.0725244 0)
(0.395493 0.0718413 0)
(0.393221 0.0707919 0)
(0.391673 0.069409 0)
(0.390855 0.0677146 0)
(0.390747 0.0657172 0)
(0.391321 0.0634182 0)
(0.392509 0.0607986 0)
(0.39429 0.0578758 0)
(0.396609 0.0546059 0)
(0.399416 0.0509998 0)
(0.402725 0.0470426 0)
(0.406479 0.0427598 0)
(0.410656 0.038166 0)
(0.446036 -0.00290291 0)
(0.442353 0.0011951 0)
(0.439731 0.00500225 0)
(0.437987 0.0086362 0)
(0.437077 0.012022 0)
(0.436907 0.0152566 0)
(0.437383 0.0183033 0)
(0.438335 0.0211773 0)
(0.439684 0.0238607 0)
(0.44133 0.0263712 0)
(0.443171 0.0286755 0)
(0.445121 0.0307725 0)
(0.447119 0.0326595 0)
(0.449101 0.0343458 0)
(0.451005 0.0358373 0)
(0.452792 0.0371636 0)
(0.454396 0.0383541 0)
(0.455771 0.039453 0)
(0.456867 0.0405097 0)
(0.457622 0.041576 0)
(0.45799 0.0427106 0)
(0.457904 0.0439638 0)
(0.457317 0.0453818 0)
(0.456183 0.0469995 0)
(0.454577 0.0488187 0)
(0.452422 0.05086 0)
(0.449644 0.0530657 0)
(0.446304 0.0554657 0)
(0.442355 0.0579509 0)
(0.437864 0.0604532 0)
(0.432938 0.0628533 0)
(0.427695 0.0650886 0)
(0.42228 0.0670647 0)
(0.416829 0.0687311 0)
(0.411532 0.0700473 0)
(0.406531 0.0709966 0)
(0.401975 0.0715759 0)
(0.397988 0.0717923 0)
(0.39466 0.0716572 0)
(0.392051 0.0711801 0)
(0.390178 0.0703646 0)
(0.389038 0.0692056 0)
(0.388601 0.0676844 0)
(0.388823 0.0657765 0)
(0.389659 0.0634522 0)
(0.391065 0.060701 0)
(0.392983 0.0574684 0)
(0.395402 0.0537753 0)
(0.398318 0.0495994 0)
(0.401703 0.0449494 0)
(0.405546 0.0398757 0)
(0.450489 -0.002216 0)
(0.446615 0.00250865 0)
(0.443803 0.00701324 0)
(0.441857 0.0114154 0)
(0.44076 0.0156362 0)
(0.440417 0.0197149 0)
(0.440672 0.0235636 0)
(0.441422 0.0272093 0)
(0.442556 0.0306196 0)
(0.443963 0.0337463 0)
(0.445539 0.0365612 0)
(0.447221 0.0390474 0)
(0.448956 0.0411996 0)
(0.450668 0.0429984 0)
(0.452328 0.0444628 0)
(0.453888 0.0456109 0)
(0.455313 0.0464786 0)
(0.456555 0.0471147 0)
(0.457573 0.0475782 0)
(0.458308 0.0479322 0)
(0.458718 0.0482565 0)
(0.458726 0.0486123 0)
(0.458286 0.0490784 0)
(0.457331 0.0497068 0)
(0.455917 0.0505452 0)
(0.453953 0.0515986 0)
(0.45138 0.0529057 0)
(0.448208 0.0544733 0)
(0.444354 0.0562575 0)
(0.439876 0.0581817 0)
(0.434888 0.060181 0)
(0.429513 0.0621657 0)
(0.423885 0.0640846 0)
(0.418193 0.0658664 0)
(0.41261 0.0674591 0)
(0.407302 0.0688292 0)
(0.40244 0.0699496 0)
(0.398136 0.0708008 0)
(0.394488 0.0713665 0)
(0.391544 0.0716155 0)
(0.389322 0.0715171 0)
(0.387807 0.0710303 0)
(0.386958 0.0701045 0)
(0.386736 0.0686897 0)
(0.387091 0.0667368 0)
(0.387978 0.0642007 0)
(0.38937 0.0610381 0)
(0.391254 0.0572646 0)
(0.393629 0.052835 0)
(0.396508 0.0477909 0)
(0.399897 0.0421683 0)
(0.455472 -0.00209117 0)
(0.451538 0.00323421 0)
(0.448618 0.00853353 0)
(0.446578 0.0137464 0)
(0.445332 0.0189268 0)
(0.444776 0.0239108 0)
(0.444806 0.0286923 0)
(0.445316 0.0332346 0)
(0.446146 0.0374527 0)
(0.447199 0.0412884 0)
(0.448401 0.0446965 0)
(0.449693 0.0476467 0)
(0.451001 0.0500995 0)
(0.452298 0.0520391 0)
(0.45355 0.05348 0)
(0.454739 0.0544393 0)
(0.455833 0.0549569 0)
(0.456801 0.0550887 0)
(0.457608 0.0549041 0)
(0.458215 0.0544855 0)
(0.458567 0.0539209 0)
(0.4586 0.0533007 0)
(0.458254 0.0527228 0)
(0.457459 0.0522687 0)
(0.456241 0.0520167 0)
(0.454517 0.051991 0)
(0.452217 0.0523017 0)
(0.449319 0.0529405 0)
(0.445699 0.053924 0)
(0.441401 0.0552061 0)
(0.436525 0.0567325 0)
(0.4312 0.0584649 0)
(0.425581 0.0603331 0)
(0.419818 0.0622729 0)
(0.414117 0.0642241 0)
(0.40866 0.0661229 0)
(0.403597 0.0679176 0)
(0.399067 0.0695509 0)
(0.395146 0.0709697 0)
(0.39188 0.0721065 0)
(0.389275 0.0728825 0)
(0.387315 0.073213 0)
(0.385952 0.0730105 0)
(0.385154 0.0721932 0)
(0.384879 0.0706835 0)
(0.38509 0.0684221 0)
(0.385788 0.0653626 0)
(0.386962 0.0614853 0)
(0.388634 0.0567907 0)
(0.390853 0.0513003 0)
(0.393641 0.0450756 0)
(0.46099 -0.00260766 0)
(0.457178 0.00334327 0)
(0.454269 0.00948627 0)
(0.452202 0.0156253 0)
(0.450871 0.0218125 0)
(0.45012 0.0278418 0)
(0.449926 0.0336951 0)
(0.450113 0.0392468 0)
(0.450545 0.0443837 0)
(0.451148 0.0490479 0)
(0.451842 0.0531481 0)
(0.452578 0.0566286 0)
(0.453297 0.0594219 0)
(0.454003 0.0615335 0)
(0.45468 0.0629521 0)
(0.455319 0.0637055 0)
(0.455918 0.0638388 0)
(0.456462 0.0634183 0)
(0.456922 0.062524 0)
(0.45727 0.0612568 0)
(0.457462 0.0597243 0)
(0.457438 0.0580405 0)
(0.457134 0.0563262 0)
(0.45647 0.0546891 0)
(0.45545 0.0532405 0)
(0.454015 0.0520496 0)
(0.452072 0.0512467 0)
(0.449545 0.0508652 0)
(0.446312 0.0509652 0)
(0.442365 0.0515174 0)
(0.437821 0.0525383 0)
(0.432787 0.0539887 0)
(0.427377 0.0558106 0)
(0.421781 0.0579519 0)
(0.41617 0.0603303 0)
(0.410727 0.0628676 0)
(0.40561 0.0654679 0)
(0.400947 0.0680439 0)
(0.396808 0.0704779 0)
(0.393231 0.072665 0)
(0.390203 0.0744815 0)
(0.387709 0.0757891 0)
(0.385713 0.0764514 0)
(0.384184 0.0763467 0)
(0.383103 0.0753695 0)
(0.382451 0.0734372 0)
(0.382243 0.0705006 0)
(0.382513 0.0665161 0)
(0.383299 0.0615227 0)
(0.384676 0.0555254 0)
(0.386696 0.0486161 0)
(0.467066 -0.00386455 0)
(0.463555 0.00276844 0)
(0.460827 0.00976243 0)
(0.458839 0.0169683 0)
(0.457488 0.0242498 0)
(0.456598 0.0314932 0)
(0.456149 0.0385645 0)
(0.455945 0.0452485 0)
(0.455894 0.0514766 0)
(0.455919 0.0570888 0)
(0.455948 0.0619911 0)
(0.455934 0.0660638 0)
(0.455883 0.0692674 0)
(0.455801 0.0715715 0)
(0.455703 0.0729696 0)
(0.455605 0.0734893 0)
(0.455529 0.0731925 0)
(0.455471 0.0721533 0)
(0.455436 0.0704783 0)
(0.455393 0.0682781 0)
(0.455315 0.0656877 0)
(0.455146 0.0628437 0)
(0.454823 0.0598915 0)
(0.454264 0.0569726 0)
(0.453458 0.0542274 0)
(0.452348 0.05176 0)
(0.450828 0.0497433 0)
(0.44881 0.0482562 0)
(0.446108 0.0473541 0)
(0.442725 0.0471244 0)
(0.438747 0.0475693 0)
(0.434237 0.0487066 0)
(0.429325 0.0504884 0)
(0.42414 0.0528628 0)
(0.418858 0.0557419 0)
(0.413636 0.0590197 0)
(0.408639 0.0625712 0)
(0.40394 0.0662521 0)
(0.399649 0.069893 0)
(0.39576 0.0733242 0)
(0.392275 0.0763522 0)
(0.389154 0.0787997 0)
(0.386375 0.080484 0)
(0.383934 0.0812249 0)
(0.381829 0.0808784 0)
(0.380086 0.0793376 0)
(0.378743 0.0765397 0)
(0.377877 0.0724542 0)
(0.377559 0.0670991 0)
(0.377885 0.0605393 0)
(0.378969 0.0528482 0)
(0.473711 -0.00596606 0)
(0.4707 0.00137259 0)
(0.468362 0.00929306 0)
(0.466604 0.0176704 0)
(0.465328 0.0262094 0)
(0.464376 0.0348267 0)
(0.463627 0.0432777 0)
(0.462979 0.0512994 0)
(0.462347 0.0587777 0)
(0.461634 0.065501 0)
(0.460799 0.0713124 0)
(0.45984 0.0760792 0)
(0.458797 0.0797494 0)
(0.457704 0.082267 0)
(0.456599 0.0836297 0)
(0.45555 0.0838844 0)
(0.454591 0.0830965 0)
(0.453756 0.0813662 0)
(0.453054 0.0788159 0)
(0.452485 0.075586 0)
(0.452018 0.0718306 0)
(0.45162 0.0677196 0)
(0.451218 0.0634192 0)
(0.450737 0.0591073 0)
(0.45014 0.0549623 0)
(0.449408 0.0511205 0)
(0.448423 0.0477776 0)
(0.446993 0.0450688 0)
(0.44501 0.0431045 0)
(0.442411 0.0420058 0)
(0.439244 0.0418193 0)
(0.435564 0.0426142 0)
(0.431415 0.0443471 0)
(0.426942 0.0469835 0)
(0.422254 0.0504359 0)
(0.417514 0.0545585 0)
(0.41281 0.059213 0)
(0.40825 0.0641733 0)
(0.40387 0.0692291 0)
(0.399663 0.0741203 0)
(0.395652 0.0785838 0)
(0.391795 0.0823658 0)
(0.388077 0.085228 0)
(0.384508 0.0869488 0)
(0.381135 0.0873375 0)
(0.378029 0.086254 0)
(0.375282 0.0836182 0)
(0.373008 0.0794109 0)
(0.371337 0.0736509 0)
(0.370396 0.0664318 0)
(0.370328 0.0578648 0)
(0.48092 -0.0090737 0)
(0.478695 -0.00100978 0)
(0.476994 0.00795646 0)
(0.475652 0.0176133 0)
(0.47457 0.0276286 0)
(0.473611 0.0378121 0)
(0.472576 0.0478369 0)
(0.471412 0.0574582 0)
(0.470073 0.0663889 0)
(0.468443 0.0744005 0)
(0.466523 0.0812639 0)
(0.46438 0.0868403 0)
(0.462085 0.0910334 0)
(0.459702 0.0937769 0)
(0.457342 0.0950876 0)
(0.455096 0.0950219 0)
(0.453031 0.0936613 0)
(0.451215 0.0911393 0)
(0.449679 0.0876004 0)
(0.44843 0.0832152 0)
(0.447464 0.0781734 0)
(0.44674 0.0726679 0)
(0.446199 0.0669 0)
(0.445772 0.0610826 0)
(0.445414 0.0554197 0)
(0.445084 0.0501023 0)
(0.444677 0.0453277 0)
(0.444025 0.0413 0)
(0.44293 0.0381814 0)
(0.441332 0.0361151 0)
(0.439262 0.0352544 0)
(0.436699 0.0356365 0)
(0.433661 0.0373111 0)
(0.430216 0.0402382 0)
(0.426466 0.0443215 0)
(0.422466 0.0494251 0)
(0.418323 0.0553267 0)
(0.414046 0.0617794 0)
(0.409669 0.0684707 0)
(0.405183 0.0750672 0)
(0.40057 0.0812252 0)
(0.395821 0.0865889 0)
(0.390957 0.0908312 0)
(0.386021 0.0936848 0)
(0.381094 0.0949201 0)
(0.376316 0.0943613 0)
(0.371844 0.0919116 0)
(0.367857 0.0875504 0)
(0.364539 0.0813227 0)
(0.362073 0.0733357 0)
(0.360635 0.063755 0)
(0.488709 -0.013394 0)
(0.487595 -0.00453219 0)
(0.486831 0.00561266 0)
(0.486156 0.0166598 0)
(0.485447 0.0283867 0)
(0.484529 0.0403992 0)
(0.483237 0.0522965 0)
(0.481508 0.0637859 0)
(0.479279 0.074438 0)
(0.476513 0.0839481 0)
(0.473257 0.0920407 0)
(0.469636 0.0985493 0)
(0.465766 0.103316 0)
(0.461785 0.106296 0)
(0.457875 0.107521 0)
(0.454148 0.107046 0)
(0.450737 0.105007 0)
(0.447724 0.10156 0)
(0.445167 0.0968913 0)
(0.443096 0.0912109 0)
(0.441508 0.0847369 0)
(0.440371 0.0776965 0)
(0.439643 0.0703321 0)
(0.439247 0.0628772 0)
(0.439126 0.0555787 0)
(0.439262 0.0486492 0)
(0.439551 0.0423544 0)
(0.439767 0.0368995 0)
(0.439749 0.0325159 0)
(0.439421 0.0294045 0)
(0.438729 0.0277696 0)
(0.437618 0.0277032 0)
(0.436049 0.02928 0)
(0.434027 0.0325168 0)
(0.431554 0.037305 0)
(0.428656 0.0435024 0)
(0.425325 0.0508415 0)
(0.421553 0.0590108 0)
(0.417313 0.06761 0)
(0.412553 0.0762108 0)
(0.407277 0.0843461 0)
(0.40147 0.0915729 0)
(0.395211 0.0974664 0)
(0.388596 0.101659 0)
(0.381781 0.103873 0)
(0.374967 0.103909 0)
(0.368402 0.101655 0)
(0.362344 0.0970929 0)
(0.35705 0.0902952 0)
(0.352768 0.0814119 0)
(0.349718 0.0706514 0)
(0.497087 -0.0191585 0)
(0.497544 -0.00946123 0)
(0.498003 0.0019904 0)
(0.498299 0.0146826 0)
(0.49823 0.0283887 0)
(0.49746 0.0425399 0)
(0.49593 0.0567017 0)
(0.493537 0.070378 0)
(0.490232 0.0830733 0)
(0.486056 0.094358 0)
(0.481148 0.103901 0)
(0.475685 0.111464 0)
(0.469861 0.116858 0)
(0.463936 0.120077 0)
(0.458116 0.121134 0)
(0.452605 0.120141 0)
(0.447573 0.117277 0)
(0.443132 0.112738 0)
(0.439368 0.106768 0)
(0.436322 0.0996148 0)
(0.433994 0.0915382 0)
(0.43237 0.0828073 0)
(0.431402 0.073692 0)
(0.43102 0.0644624 0)
(0.431167 0.0553967 0)
(0.431822 0.0467568 0)
(0.432876 0.0388068 0)
(0.43413 0.0317993 0)
(0.435386 0.0260477 0)
(0.436556 0.0217805 0)
(0.437563 0.0192636 0)
(0.438255 0.0186641 0)
(0.438559 0.0201175 0)
(0.438382 0.0236477 0)
(0.437619 0.0292028 0)
(0.436206 0.0366227 0)
(0.434051 0.0456179 0)
(0.431027 0.0557897 0)
(0.427072 0.0666298 0)
(0.422092 0.0775896 0)
(0.416064 0.0880713 0)
(0.409027 0.0975088 0)
(0.401078 0.105355 0)
(0.392415 0.111139 0)
(0.383287 0.114499 0)
(0.374004 0.115211 0)
(0.36491 0.113147 0)
(0.356368 0.108311 0)
(0.348727 0.100815 0)
(0.342305 0.0908602 0)
(0.337378 0.0787207 0)
(0.506066 -0.0267122 0)
(0.508541 -0.0161031 0)
(0.510779 -0.00325454 0)
(0.512401 0.0114591 0)
(0.513193 0.02747 0)
(0.512776 0.04422 0)
(0.511031 0.0610992 0)
(0.507851 0.0774147 0)
(0.503246 0.0925479 0)
(0.497344 0.105935 0)
(0.490382 0.117181 0)
(0.482615 0.125914 0)
(0.474402 0.132014 0)
(0.466084 0.135417 0)
(0.457955 0.136197 0)
(0.450311 0.134528 0)
(0.443352 0.130633 0)
(0.437243 0.124792 0)
(0.432078 0.1173 0)
(0.427909 0.108464 0)
(0.424742 0.0985895 0)
(0.422562 0.0879888 0)
(0.42132 0.076966 0)
(0.420953 0.0658197 0)
(0.421401 0.054845 0)
(0.422636 0.044354 0)
(0.424543 0.0345994 0)
(0.426956 0.0259389 0)
(0.429691 0.0186569 0)
(0.432621 0.0131232 0)
(0.435633 0.00962164 0)
(0.438533 0.00838637 0)
(0.441155 0.00963336 0)
(0.44329 0.0134319 0)
(0.444749 0.019792 0)
(0.445323 0.0285614 0)
(0.444743 0.0394513 0)
(0.44281 0.0519578 0)
(0.439314 0.0654635 0)
(0.434167 0.0792428 0)
(0.427302 0.0925347 0)
(0.418799 0.104623 0)
(0.408819 0.114791 0)
(0.397665 0.122456 0)
(0.385729 0.127168 0)
(0.373449 0.128644 0)
(0.361307 0.12676 0)
(0.349797 0.121548 0)
(0.339379 0.113177 0)
(0.330458 0.101928 0)
(0.323364 0.0881527 0)
(0.515615 -0.0364598 0)
(0.5207 -0.0248946 0)
(0.525234 -0.0103559 0)
(0.528732 0.00665721 0)
(0.530758 0.0254661 0)
(0.530908 0.0453823 0)
(0.528986 0.0655507 0)
(0.524888 0.0850986 0)
(0.518691 0.103171 0)
(0.51066 0.119092 0)
(0.501124 0.132287 0)
(0.490533 0.142373 0)
(0.479384 0.149192 0)
(0.468136 0.152697 0)
(0.457241 0.153037 0)
(0.447052 0.150453 0)
(0.437847 0.145269 0)
(0.429814 0.137848 0)
(0.42306 0.128564 0)
(0.417637 0.117793 0)
(0.413549 0.105895 0)
(0.410771 0.0932244 0)
(0.409244 0.0801084 0)
(0.408888 0.0668701 0)
(0.409664 0.053831 0)
(0.411521 0.0413278 0)
(0.414396 0.0296474 0)
(0.418122 0.0191719 0)
(0.42252 0.0102363 0)
(0.427456 0.00324114 0)
(0.432782 -0.00150062 0)
(0.438295 -0.0035652 0)
(0.443716 -0.00266945 0)
(0.448739 0.00137912 0)
(0.453022 0.00862986 0)
(0.456131 0.0190265 0)
(0.45768 0.0320507 0)
(0.457236 0.0473321 0)
(0.454478 0.0639859 0)
(0.4492 0.0812048 0)
(0.441407 0.0978198 0)
(0.431169 0.113192 0)
(0.418736 0.126171 0)
(0.404561 0.136084 0)
(0.389198 0.14238 0)
(0.373281 0.144717 0)
(0.357474 0.142974 0)
(0.342431 0.137231 0)
(0.328749 0.127743 0)
(0.316935 0.1149 0)
(0.307375 0.0991688 0)
(0.525474 -0.0488754 0)
(0.533858 -0.0362988 0)
(0.541354 -0.0198525 0)
(0.547303 -8.63727e-05 0)
(0.551027 0.0221291 0)
(0.552081 0.0459076 0)
(0.550106 0.070131 0)
(0.544967 0.0936296 0)
(0.536865 0.115326 0)
(0.526202 0.13427 0)
(0.513502 0.149765 0)
(0.499432 0.161388 0)
(0.484675 0.168912 0)
(0.469896 0.172381 0)
(0.455684 0.17202 0)
(0.442515 0.1682 0)
(0.430726 0.161378 0)
(0.420523 0.152024 0)
(0.412019 0.14062 0)
(0.405243 0.127614 0)
(0.40018 0.113433 0)
(0.396777 0.0984559 0)
(0.394953 0.083038 0)
(0.394638 0.0675282 0)
(0.395795 0.0522708 0)
(0.398367 0.0376157 0)
(0.402292 0.0238677 0)
(0.407451 0.0114032 0)
(0.413659 0.000602752 0)
(0.420844 -0.0080998 0)
(0.428853 -0.0142085 0)
(0.43739 -0.0172899 0)
(0.446095 -0.0169519 0)
(0.454507 -0.0128865 0)
(0.462273 -0.00477785 0)
(0.468644 0.00738122 0)
(0.47284 0.0230702 0)
(0.474474 0.041565 0)
(0.472726 0.062112 0)
(0.467447 0.0833027 0)
(0.458632 0.1043 0)
(0.446397 0.123555 0)
(0.430924 0.139965 0)
(0.41309 0.152587 0)
(0.393605 0.160748 0)
(0.373324 0.164053 0)
(0.353136 0.162383 0)
(0.333922 0.155886 0)
(0.316447 0.144951 0)
(0.301332 0.130123 0)
(0.289012 0.112021 0)
(0.534894 -0.0644951 0)
(0.547009 -0.0508763 0)
(0.558015 -0.0323181 0)
(0.56707 -0.00926983 0)
(0.573177 0.0170781 0)
(0.575697 0.0455707 0)
(0.573991 0.0748027 0)
(0.567918 0.103259 0)
(0.557707 0.129413 0)
(0.54395 0.152032 0)
(0.527475 0.170302 0)
(0.50919 0.183635 0)
(0.490071 0.191841 0)
(0.47105 0.19503 0)
(0.452923 0.193598 0)
(0.436305 0.188096 0)
(0.421587 0.179162 0)
(0.408992 0.16743 0)
(0.398602 0.153499 0)
(0.390419 0.137916 0)
(0.384366 0.121145 0)
(0.380346 0.10361 0)
(0.378271 0.0856893 0)
(0.378049 0.067746 0)
(0.37965 0.0501225 0)
(0.382993 0.0331543 0)
(0.388048 0.0171534 0)
(0.394773 0.00252781 0)
(0.40291 -0.0103864 0)
(0.412561 -0.0209989 0)
(0.42348 -0.0288078 0)
(0.435321 -0.0332437 0)
(0.447578 -0.033742 0)
(0.459796 -0.0297034 0)
(0.471414 -0.0208171 0)
(0.481463 -0.00692163 0)
(0.488974 0.0118679 0)
(0.49305 0.0342857 0)
(0.492826 0.0593343 0)
(0.487875 0.0857645 0)
(0.478115 0.11177 0)
(0.463372 0.135914 0)
(0.444546 0.156609 0)
(0.422461 0.172538 0)
(0.398166 0.182908 0)
(0.372807 0.187295 0)
(0.347544 0.18559 0)
(0.323525 0.178038 0)
(0.301756 0.165219 0)
(0.282982 0.147902 0)
(0.267682 0.126916 0)
(0.541429 -0.0835298 0)
(0.556995 -0.0690432 0)
(0.571514 -0.0483353 0)
(0.583949 -0.0216088 0)
(0.59325 0.00957004 0)
(0.598225 0.0438894 0)
(0.5978 0.0794054 0)
(0.591444 0.114001 0)
(0.57937 0.145814 0)
(0.562512 0.172972 0)
(0.541932 0.194507 0)
(0.518884 0.209816 0)
(0.494751 0.218632 0)
(0.470837 0.221226 0)
(0.448239 0.218214 0)
(0.427747 0.210444 0)
(0.40983 0.198805 0)
(0.394699 0.184139 0)
(0.382389 0.167198 0)
(0.372804 0.14863 0)
(0.365807 0.128944 0)
(0.361254 0.108596 0)
(0.359005 0.0879737 0)
(0.358956 0.0674274 0)
(0.361052 0.0472765 0)
(0.365222 0.0278267 0)
(0.371516 0.0094388 0)
(0.379675 -0.00767447 0)
(0.389955 -0.0228901 0)
(0.40216 -0.0357041 0)
(0.416 -0.0455054 0)
(0.431011 -0.0515499 0)
(0.446659 -0.0531026 0)
(0.462163 -0.04931 0)
(0.47689 -0.0398159 0)
(0.490132 -0.0242163 0)
(0.500897 -0.00237794 0)
(0.507922 0.0247288 0)
(0.509845 0.055487 0)
(0.505699 0.0886354 0)
(0.495172 0.121128 0)
(0.478633 0.150792 0)
(0.456306 0.176512 0)
(0.429711 0.196513 0)
(0.400322 0.20962 0)
(0.369547 0.215281 0)
(0.338836 0.21336 0)
(0.30969 0.204323 0)
(0.283397 0.189028 0)
(0.260849 0.168559 0)
(0.242559 0.144045 0)
(0.539322 -0.104937 0)
(0.556277 -0.0900014 0)
(0.572914 -0.0677759 0)
(0.587908 -0.0373677 0)
(0.600957 -0.00234646 0)
(0.61026 0.0383956 0)
(0.613032 0.0817902 0)
(0.608427 0.124513 0)
(0.596186 0.16375 0)
(0.577246 0.196836 0)
(0.553297 0.222614 0)
(0.525777 0.240318 0)
(0.496536 0.249775 0)
(0.467503 0.25138 0)
(0.440209 0.246156 0)
(0.415711 0.235389 0)
(0.394551 0.220321 0)
(0.376929 0.202086 0)
(0.362805 0.181603 0)
(0.351974 0.159603 0)
(0.344196 0.136669 0)
(0.339256 0.113257 0)
(0.336968 0.0897456 0)
(0.337181 0.066438 0)
(0.339842 0.0436166 0)
(0.344926 0.0215543 0)
(0.352445 0.00058538 0)
(0.362199 -0.0190908 0)
(0.374457 -0.0368797 0)
(0.388917 -0.0521055 0)
(0.405097 -0.0639907 0)
(0.422267 -0.0715678 0)
(0.439664 -0.0741366 0)
(0.45642 -0.0705917 0)
(0.471848 -0.0604935 0)
(0.485848 -0.0438866 0)
(0.497784 -0.0190349 0)
(0.507581 0.0114345 0)
(0.512535 0.0480328 0)
(0.510226 0.0886991 0)
(0.499707 0.128979 0)
(0.48207 0.167327 0)
(0.458065 0.200124 0)
(0.428222 0.223585 0)
(0.39455 0.239761 0)
(0.358873 0.247194 0)
(0.323113 0.245251 0)
(0.289256 0.234494 0)
(0.258883 0.216179 0)
(0.233041 0.191901 0)
(0.212256 0.163204 0)
(0.518007 -0.125951 0)
(0.531333 -0.108286 0)
(0.546802 -0.0868787 0)
(0.560903 -0.0537715 0)
(0.575399 -0.0170299 0)
(0.592633 0.0284601 0)
(0.602977 0.0796557 0)
(0.604275 0.131082 0)
(0.595644 0.180121 0)
(0.57817 0.221075 0)
(0.553642 0.253247 0)
(0.523719 0.274809 0)
(0.49078 0.285304 0)
(0.457498 0.28561 0)
(0.426189 0.277499 0)
(0.398244 0.262904 0)
(0.37435 0.2436 0)
(0.354702 0.221078 0)
(0.339159 0.196462 0)
(0.327427 0.170593 0)
(0.319182 0.144082 0)
(0.314119 0.117376 0)
(0.311981 0.0908081 0)
(0.312592 0.0646257 0)
(0.3159 0.0390525 0)
(0.321951 0.0142831 0)
(0.330425 -0.00952068 0)
(0.341715 -0.0318485 0)
(0.355568 -0.0521794 0)
(0.371387 -0.0695483 0)
(0.388266 -0.0831033 0)
(0.404937 -0.0913807 0)
(0.420556 -0.0939835 0)
(0.434201 -0.090407 0)
(0.445261 -0.0779539 0)
(0.455256 -0.0609109 0)
(0.463633 -0.0344986 0)
(0.472098 -0.00125688 0)
(0.48131 0.0378361 0)
(0.483321 0.084109 0)
(0.477255 0.131207 0)
(0.462828 0.175213 0)
(0.436759 0.223164 0)
(0.405605 0.253917 0)
(0.372251 0.274557 0)
(0.334568 0.283861 0)
(0.295563 0.281418 0)
(0.258388 0.268233 0)
(0.225261 0.24614 0)
(0.197405 0.217305 0)
(0.175274 0.183787 0)
(0.464476 -0.136679 0)
(0.468272 -0.119777 0)
(0.47523 -0.0985382 0)
(0.485802 -0.0724905 0)
(0.497365 -0.0366276 0)
(0.520061 0.0113039 0)
(0.541097 0.0675714 0)