/*--------------------------------*- C++ -*----------------------------------*\
  =========                 |
  \\      /  F ield         | OpenFOAM: The Open Source CFD Toolbox
   \\    /   O peration     | Website:  https://openfoam.org
    \\  /    A nd           | Version:  11
     \\/     M anipulation  |
\*---------------------------------------------------------------------------*/
FoamFile
{
    format      ascii;
    class       surfaceScalarField;
    location    "10";
    object      phi;
}
// * * * * * * * * * * * * * * * * * * * * * * * * * * * * * * * * * * * * * //

dimensions      [0 3 -1 0 0 0 0];

internalField   nonuniform List<scalar> 
18960
(
0.0475849
0.0004715
-0.0480564
0.0470451
0.000539788
0.0464853
0.000559823
0.0459646
0.000520683
0.0455303
0.000434321
0.0451212
0.000409062
0.0446669
0.000454302
0.0442924
0.000374514
0.0440425
0.000249876
0.0438516
0.000190896
0.0437273
0.000124289
0.0436905
3.67797e-05
0.0437362
-4.56374e-05
0.0438701
-0.000133967
0.0441162
-0.000246098
0.0445387
-0.000422407
0.0451471
-0.000608449
0.0456899
-0.000542843
0.0461556
-0.00046565
0.0466193
-0.000463751
0.0468547
-0.000235336
0.0467643
9.03676e-05
0.0464207
0.00034357
0.0456632
0.000757538
0.0445937
0.00106949
0.0435192
0.00107452
0.0425609
0.000958301
0.0418264
0.000734527
0.0414977
0.000328665
0.0415914
-9.37219e-05
0.0419755
-0.000384047
0.0423373
-0.000361783
0.0425903
-0.000252996
0.0423476
0.000242668
0.0413021
0.00104549
0.039306
0.00199611
0.0379406
0.00136541
0.0367809
0.00115963
0.0358784
0.000902588
-0.0006809
0.0365593
0.0477573
0.000745933
-0.0480318
0.0474781
0.000819059
0.0471266
0.000911341
0.0467839
0.000863301
0.0464581
0.000760164
0.0461316
0.00073556
0.0458613
0.000724633
0.0456007
0.000635091
0.0453862
0.000464368
0.0452429
0.00033421
0.045104
0.000263161
0.0450998
4.09478e-05
0.0451775
-0.00012329
0.0454228
-0.000379277
0.0457416
-0.000564864
0.0462768
-0.00095762
0.04681
-0.00114165
0.047475
-0.00120787
0.0480981
-0.00108873
0.0485399
-0.000905543
0.0488952
-0.000590691
0.0489071
7.8551e-05
0.0487424
0.000508246
0.0483465
0.00115342
0.0475835
0.00183253
0.0466843
0.00197367
0.0459168
0.00172583
0.0454431
0.00120817
0.0453155
0.000456254
0.045446
-0.000224175
0.0459738
-0.000911814
0.046906
-0.00129404
0.0480287
-0.00137564
0.0487707
-0.000499345
0.0492463
0.000569839
0.0491033
0.0021391
0.0478792
0.00258955
0.0467413
0.00229749
0.0455664
0.00207749
0.000406911
0.0444786
0.0476786
0.00111659
-0.0480492
0.0473097
0.00118792
0.0469392
0.00128179
0.046549
0.00125355
0.0461487
0.00116048
0.0457983
0.00108591
0.0455342
0.000988801
0.0453422
0.000827078
0.045179
0.000627553
0.0450622
0.000450956
0.0449925
0.000332943
0.0450624
-2.89916e-05
0.0452171
-0.000277984
0.045562
-0.000724182
0.045925
-0.000927884
0.0464374
-0.00146995
0.0469802
-0.00168451
0.0475888
-0.00181644
0.0482004
-0.00170037
0.0486257
-0.00133077
0.0489337
-0.000898736
0.0489944
1.78708e-05
0.0488452
0.000657413
0.0485204
0.0014782
0.0478794
0.00247353
0.0469054
0.00294776
0.0458159
0.00281534
0.0449188
0.00210522
0.0444807
0.000894393
0.0444515
-0.000195025
0.0448998
-0.00136009
0.045884
-0.00227827
0.0475663
-0.00305791
0.0491701
-0.00210318
0.0504924
-0.000752466
0.0509218
0.00170977
0.0499601
0.00355124
0.0477169
0.00454068
0.0446184
0.00517597
0.00184278
0.0431825
0.0476159
0.00150192
-0.0480013
0.0472647
0.00153913
0.0468996
0.00164691
0.0465475
0.00160566
0.0462066
0.00150141
0.045926
0.0013665
0.0456943
0.00122052
0.0455075
0.00101388
0.0453269
0.000808069
0.0452292
0.000548654
0.0451855
0.000376674
0.0452755
-0.00011893
0.0454125
-0.000415031
0.0457241
-0.00103578
0.0460565
-0.00126031
0.0465396
-0.00195304
0.0470804
-0.00222534
0.0476813
-0.00241729
0.0482163
-0.00223542
0.0486898
-0.00180421
0.0489949
-0.0012038
0.0490993
-8.6569e-05
0.0489223
0.000834421
0.0486159
0.00178458
0.0481385
0.00295094
0.0474479
0.00363832
0.0466089
0.00365434
0.0457824
0.00293178
0.0452077
0.00146901
0.0448217
0.000190976
0.0450166
-0.00155495
0.0455559
-0.00281751
0.0470704
-0.00457249
0.0490328
-0.00406553
0.0510681
-0.00278773
0.0525779
0.000199941
0.0530705
0.00305865
0.0528563
0.00475487
0.0508633
0.00716897
0.00415617
0.0485499
0.0475872
0.00189846
-0.0479838
0.0472107
0.00191562
0.0468493
0.0020084
0.0465135
0.00194137
0.0461636
0.00185137
0.0458761
0.00165401
0.0456308
0.00146582
0.045446
0.00119867
0.0452795
0.000974576
0.045198
0.00063009
0.045163
0.00041165
0.0452611
-0.000217006
0.0454351
-0.000589009
0.0457768
-0.00137748
0.0461806
-0.00166411
0.04666
-0.00243243
0.0471868
-0.00275218
0.0477639
-0.0029944
0.0482721
-0.00274362
0.0487189
-0.00225097
0.0490448
-0.00152968
0.049238
-0.000279782
0.0490652
0.00100719
0.048727
0.00212282
0.048268
0.00340989
0.0476559
0.00425044
0.0468237
0.00448649
0.0457593
0.00399618
0.044903
0.0023253
0.0443333
0.000760754
0.044298
-0.00151966
0.044481
-0.00300056
0.0455563
-0.00564774
0.0476196
-0.00612887
0.050202
-0.00537016
0.0526625
-0.00226056
0.053742
0.00197923
0.0540491
0.00444776
0.0521408
0.00907721
0.00661034
0.0496867
0.0475063
0.00228285
-0.0478907
0.0471354
0.00228647
0.0467765
0.00236728
0.04645
0.0022679
0.0461092
0.00219218
0.0458528
0.0019104
0.0456096
0.00170906
0.0454307
0.00137753
0.0452751
0.00113022
0.0452591
0.00064603
0.045272
0.000398742
0.0454564
-0.000401323
0.0456364
-0.000769022
0.0459409
-0.00168202
0.0463236
-0.00204677
0.0468294
-0.00293826
0.0473006
-0.00322341
0.0478352
-0.00352897
0.0483542
-0.00326264
0.0488023
-0.00269906
0.0490926
-0.00181996
0.0492809
-0.000468116
0.0491957
0.00109239
0.0489133
0.00240527
0.0484568
0.00386634
0.047907
0.00480025
0.04726
0.0051335
0.0464203
0.00483589
0.0456257
0.00311992
0.0447428
0.00164368
0.0443705
-0.00114742
0.0442831
-0.00291316
0.0447697
-0.00613433
0.0463558
-0.00771493
0.04885
-0.0078644
0.0522258
-0.00563635
0.054638
-0.000432942
0.0566068
0.00247891
0.0567299
0.00895412
0.00838235
0.0549579
0.0474646
0.00267045
-0.0478522
0.0471033
0.00264777
0.0467466
0.00272395
0.046417
0.00259752
0.0461145
0.00249473
0.0458443
0.00218057
0.0456076
0.00194578
0.0454542
0.00153086
0.0453483
0.00123614
0.0453401
0.000654206
0.0453496
0.000389231
0.0455001
-0.000551756
0.0456949
-0.000963832
0.0460312
-0.0020183
0.0464291
-0.00244468
0.0469065
-0.00341567
0.0473986
-0.00371552
0.0479207
-0.00405107
0.0484335
-0.00377545
0.0488725
-0.00313809
0.0491415
-0.00208896
0.0493617
-0.000688301
0.049368
0.00108609
0.0491239
0.00264935
0.0487627
0.00422762
0.0482115
0.00535146
0.0475907
0.00575429
0.0466271
0.00579945
0.0457289
0.00401815
0.0448126
0.00255996
0.0441877
-0.000522527
0.0439096
-0.00263504
0.0438291
-0.00605384
0.0449412
-0.00882703
0.046866
-0.00978921
0.0505485
-0.00931893
0.0537999
-0.0036843
0.0565654
-0.000286568
0.0578552
0.00766432
0.00919494
0.0570426
0.0473584
0.00304867
-0.0477366
0.0469989
0.00300731
0.0466503
0.00307249
0.046348
0.00289987
0.0460544
0.0027883
0.045807
0.00242798
0.0455946
0.00215819
0.0454694
0.00165606
0.0453836
0.00132191
0.0453851
0.000652766
0.0454359
0.000338411
0.0456145
-0.000730397
0.0458591
-0.00120845
0.0461804
-0.00233959
0.0465831
-0.00284738
0.0470504
-0.003883
0.0475343
-0.00419939
0.0480393
-0.00455606
0.0485102
-0.00424635
0.04893
-0.00355791
0.0492172
-0.00237615
0.0494289
-0.00090002
0.0494727
0.00104228
0.0493033
0.00281882
0.0490372
0.00449366
0.0484762
0.00591252
0.0479157
0.00631478
0.0470939
0.00662127
0.0462227
0.00488932
0.0452615
0.00352112
0.0443012
0.000437868
0.0439218
-0.00225564
0.0433302
-0.00546233
0.0439582
-0.00945497
0.0449006
-0.0107316
0.0483446
-0.012763
0.0522993
-0.007639
0.0563073
-0.00429462
0.0591958
0.00477582
0.0086505
0.0597403
0.0473176
0.00342814
-0.047697
0.0469595
0.00336535
0.0466253
0.00340667
0.0463318
0.00319341
0.0460692
0.00305091
0.0458246
0.00267257
0.0456327
0.00235007
0.0455195
0.00176927
0.0454428
0.00139858
0.0454755
0.000620091
0.0455574
0.000256491
0.0457322
-0.00090517
0.0459755
-0.00145175
0.046319
-0.00268307
0.0467193
-0.00324769
0.0471727
-0.00433636
0.04765
-0.00467675
0.0481349
-0.00504094
0.0485918
-0.00470321
0.0490128
-0.00397894
0.0493386
-0.00270195
0.0495428
-0.00110422
0.0496582
0.000926843
0.0495274
0.00294966
0.0493576
0.00466346
0.0489039
0.0063662
0.0483461
0.00687258
0.0475598
0.00740762
0.0465552
0.00589392
0.0456496
0.00442672
0.0443907
0.00169676
0.0438753
-0.00174025
0.0429791
-0.00456614
0.0431342
-0.00961002
0.0435282
-0.0111256
0.0459331
-0.0151678
0.0497735
-0.0114794
0.0546549
-0.0091761
0.0592765
0.000154239
0.00712011
0.0608069
0.0472032
0.00379289
-0.0475679
0.0468692
0.00369934
0.0465351
0.00374078
0.0462407
0.00348773
0.0460164
0.00327522
0.0457961
0.00289293
0.0456379
0.0025082
0.0455313
0.00187587
0.0454917
0.00143826
0.0455412
0.000570528
0.0456575
0.000140199
0.0458375
-0.00108512
0.0461142
-0.00172845
0.0464341
-0.00300302
0.0468667
-0.00368028
0.0472944
-0.00476402
0.0477682
-0.00515053
0.0482275
-0.0055003
0.048695
-0.00517073
0.0490883
-0.00437225
0.0494226
-0.0030362
0.0496247
-0.00130638
0.0498195
0.000732066
0.0497355
0.00303369
0.0496161
0.00478289
0.0492736
0.00670866
0.0487365
0.00740964
0.0480603
0.00808386
0.0470119
0.00694227
0.0461575
0.00528115
0.0447257
0.00312858
0.0438929
-0.000907417
0.0428122
-0.00348546
0.0423128
-0.00911063
0.0423868
-0.0111997
0.0437199
-0.0165009
0.0469327
-0.0146922
0.051565
-0.0138084
0.0579922
-0.00627295
0.00377965
0.0613327
0.047164
0.00415738
-0.0475285
0.04682
0.00404339
0.0465282
0.00403252
0.0462528
0.00376319
0.0460246
0.00350338
0.0458343
0.00308326
0.0456869
0.00265558
0.0456074
0.00195538
0.0455889
0.00145671
0.0456541
0.000505414
0.0457804
1.38573e-05
0.045976
-0.00128068
0.0462782
-0.00203073
0.0465985
-0.0033233
0.0470246
-0.0041064
0.0474357
-0.00517504
0.0478943
-0.0056092
0.0483491
-0.00595504
0.0487807
-0.0056024
0.0491707
-0.00476223
0.0495271
-0.00339255
0.0497535
-0.00153279
0.0499871
0.000498489
0.0500215
0.00299922
0.0499076
0.00489682
0.0496919
0.00692431
0.0491798
0.00792182
0.0486568
0.00860685
0.0475591
0.00803993
0.0466913
0.00614897
0.0452017
0.00461821
0.0440845
0.000209778
0.042932
-0.002333
0.0418026
-0.00798123
0.0413645
-0.0107615
0.0417312
-0.0168676
0.0443899
-0.017351
0.048083
-0.0175015
0.0552083
-0.0133983
-0.00144365
0.0604316
0.0470476
0.00450079
-0.047391
0.0467298
0.00436114
0.0464388
0.00432358
0.0461732
0.00402877
0.0459773
0.00369925
0.045806
0.0032546
0.0456905
0.00277106
0.0456497
0.00199622
0.045648
0.00145839
0.0457407
0.000412716
0.0458855
-0.000130933
0.0460899
-0.00148515
0.0464222
-0.00236297
0.0467227
-0.00362379
0.0471672
-0.00455091
0.0475642
-0.00557202
0.048033
-0.00607801
0.0484656
-0.00638771
0.0488905
-0.00602729
0.0492608
-0.00513245
0.0496538
-0.0037856
0.0499126
-0.00179161
0.0501411
0.000270021
0.0502658
0.00287456
0.0502103
0.00495228
0.0501096
0.00702497
0.0496528
0.00837864
0.0492609
0.00899873
0.0481707
0.00913016
0.0472745
0.00704521
0.0458102
0.00608252
0.0443855
0.00163441
0.043078
-0.00102551
0.0415803
-0.0064835
0.0406508
-0.00983202
0.0399764
-0.0161932
0.04169
-0.0190645
0.0443472
-0.0201587
0.0510824
-0.0201334
-0.00841917
0.0580579
0.0470239
0.00484037
-0.0473635
0.0467084
0.00467661
0.0464456
0.0045864
0.0462097
0.00426465
0.0460074
0.00390163
0.0458692
0.00339274
0.0457807
0.00285956
0.0457388
0.00203813
0.0457618
0.00143545
0.0458564
0.00031805
0.0460531
-0.00032764
0.046247
-0.00167902
0.0466064
-0.00272237
0.0469027
-0.00392009
0.0473362
-0.00498443
0.0477341
-0.00596985
0.048164
-0.00650794
0.0485887
-0.00681242
0.049015
-0.00645356
0.0493861
-0.00550359
0.0497473
-0.0041468
0.0500809
-0.00212524
0.050301
4.99697e-05
0.0505487
0.0026268
0.0504982
0.0050028
0.0505709
0.00695225
0.0501326
0.00881696
0.0498356
0.00929576
0.048895
0.0100707
0.0479251
0.00801509
0.04661
0.00739762
0.0449418
0.00330262
0.0433959
0.0005204
0.0416189
-0.00470653
0.0402674
-0.00848046
0.038748
-0.0146738
0.0393431
-0.0196596
0.0407913
-0.0216069
0.0462059
-0.025548
-0.0158177
0.0536044
0.0469021
0.00515569
-0.0472174
0.0466039
0.00497478
0.0463605
0.00482981
0.0461501
0.00447498
0.0459816
0.00407013
0.0458632
0.00351122
0.0457931
0.00292964
0.0457837
0.00204747
0.0458478
0.00137139
0.0459408
0.00022509
0.04619
-0.000576842
0.0463717
-0.00186079
0.0467524
-0.003103
0.0470516
-0.00421926
0.0474802
-0.00541303
0.0478786
-0.00636827
0.0483161
-0.00694545
0.0487049
-0.00720123
0.0491267
-0.00687534
0.0495132
-0.00589006
0.0498661
-0.00449975
0.0502282
-0.00248728
0.050468
-0.000189866
0.0508446
0.00225019
0.0508294
0.005018
0.0509759
0.00680579
0.0507144
0.00907847
0.0504085
0.00960161
0.049667
0.0108122
0.0486789
0.00900321
0.047529
0.00854758
0.0457906
0.00504097
0.0440303
0.00228072
0.0419147
-0.00259093
0.0401716
-0.00673732
0.0379239
-0.0124261
0.0373219
-0.0190577
0.0374378
-0.0217227
0.0409456
-0.0290559
-0.0224456
0.0475736
0.046908
0.00546274
-0.047215
0.0466335
0.00524923
0.0464034
0.00505993
0.0461904
0.00468801
0.0460401
0.0042204
0.0459571
0.00359418
0.0459084
0.00297839
0.0458988
0.00205702
0.0460225
0.00124778
0.0460646
0.0001829
0.0463821
-0.000894304
0.0465838
-0.00206251
0.0469227
-0.00344192
0.0472658
-0.00456234
0.0476636
-0.00581083
0.048051
-0.00675565
0.0484615
-0.00735596
0.0488899
-0.00762966
0.0492346
-0.00721999
0.0496811
-0.00633661
0.0499763
-0.0047949
0.0504186
-0.00292962
0.0506618
-0.000433058
0.0510623
0.00184973
0.0512309
0.00484936
0.0513613
0.00667537
0.0512278
0.009212
0.051061
0.00976844
0.0504887
0.0113844
0.0494818
0.0100102
0.0484523
0.00957708
0.0467639
0.00672932
0.0449473
0.00409732
0.0426657
-0.000309327
0.0406195
-0.00469107
0.0377779
-0.00958454
0.0359717
-0.0172515
0.0347684
-0.0205195
0.0358618
-0.0301493
-0.0270528
0.0404689
0.0467772
0.00574333
-0.0470578
0.0465183
0.0055081
0.0463115
0.00526678
0.046151
0.00484851
0.0460244
0.00434703
0.0459498
0.00366877
0.0459606
0.00296756
0.0459357
0.0020819
0.0461066
0.00107687
0.0462144
7.51457e-05
0.0465103
-0.00119021
0.0467485
-0.00230075
0.0470808
-0.00377417
0.0474481
-0.00492965
0.0478294
-0.00619221
0.0482329
-0.00715907
0.0486018
-0.00772495
0.0490509
-0.00807866
0.0493638
-0.00753292
0.0498201
-0.00679296
0.05013
-0.00510476
0.050575
-0.00337467
0.0508961
-0.000754165
0.0513135
0.00143237
0.0515759
0.00458696
0.0518499
0.00640134
0.0517827
0.00927925
0.0516606
0.00989055
0.0513697
0.0116753
0.0504776
0.0109022
0.049502
0.0105527
0.0478723
0.00835897
0.0461418
0.00582787
0.0437125
0.00211992
0.0414653
-0.00244383
0.0383501
-0.00646937
0.035466
-0.0143673
0.0330933
-0.0181468
0.0318404
-0.0288964
-0.0291693
0.0339569
0.0468076
0.00601446
-0.0470787
0.0465807
0.00573496
0.0463737
0.00547373
0.046232
0.00499028
0.0461344
0.00444457
0.0460558
0.00374743
0.0461154
0.00290797
0.0461255
0.00207176
0.0463066
0.000895792
0.0464283
-4.65928e-05
0.0467109
-0.00147277
0.0469831
-0.00257294
0.0473029
-0.00409402
0.0476671
-0.00529381
0.0480093
-0.00653441
0.048443
-0.00759275
0.0487705
-0.00805253
0.0492133
-0.00852137
0.0495468
-0.00786649
0.0499514
-0.00719749
0.0503082
-0.00546163
0.0507543
-0.00382077
0.0511015
-0.00110133
0.0515826
0.000951253
0.0518838
0.0042858
0.0522605
0.00602461
0.0524406
0.00909917
0.0522901
0.010041
0.0521592
0.0118063
0.0514405
0.0116209
0.0506401
0.0113531
0.0491172
0.00988186
0.0474778
0.00746729
0.0450708
0.0045269
0.0426928
-6.58482e-05
0.0395646
-0.00334118
0.0359365
-0.0107392
0.032697
-0.0149073
0.0293774
-0.0255767
-0.0288624
0.0290705
0.0466689
0.00626169
-0.0469161
0.046463
0.00594092
0.0463016
0.0056351
0.0461657
0.00512621
0.0461271
0.00448309
0.0460832
0.00379138
0.0461673
0.0028239
0.0462155
0.0020235
0.0463873
0.000724007
0.0465921
-0.000251373
0.0468559
-0.00173657
0.0471529
-0.00286996
0.0474738
-0.00441492
0.0478775
-0.00569748
0.048199
-0.00685589
0.0486233
-0.0080171
0.0489757
-0.00840492
0.0493508
-0.00889643
0.0497032
-0.00821887
0.0501073
-0.00760162
0.0504552
-0.00580951
0.0509485
-0.00431413
0.0513212
-0.00147398
0.0518469
0.000425553
0.0523057
0.00382694
0.052667
0.00566332
0.0530683
0.00869792
0.0530535
0.0100558
0.053055
0.0118048
0.0524661
0.0122098
0.0518264
0.0119927
0.0504963
0.011212
0.0490205
0.00894307
0.0467175
0.00682988
0.0442992
0.00235247
0.0413566
-0.000398596
0.0373604
-0.00674297
0.0334864
-0.0110334
0.0285917
-0.020682
-0.0263623
0.0260916
0.0467196
0.0065141
-0.046972
0.0465273
0.0061332
0.0464076
0.00575475
0.0463024
0.00523146
0.0462812
0.0045043
0.0462632
0.00380936
0.0463236
0.00276351
0.046473
0.00187402
0.0466133
0.000583766
0.0468424
-0.000480501
0.0470986
-0.00199273
0.0474385
-0.00320991
0.0477274
-0.00470379
0.0481416
-0.00611168
0.0484652
-0.00717945
0.0488488
-0.00840074
0.0492155
-0.00877163
0.0495769
-0.00925781
0.0499031
-0.00854511
0.050312
-0.00801052
0.0506437
-0.00614117
0.0511378
-0.0048082
0.0515959
-0.00193213
0.0520933
-7.18362e-05
0.0526935
0.00322671
0.0530949
0.00526197
0.0536553
0.00813749
0.0537605
0.00995056
0.0539285
0.0116369
0.0535308
0.0126076
0.0530711
0.0124524
0.0519209
0.0123622
0.0505933
0.0102706
0.048538
0.00888525
0.0460724
0.00481804
0.0434198
0.00225399
0.0395215
-0.00284461
0.0354495
-0.00696141
0.02959
-0.0148225
-0.0218817
0.0251094
0.0465702
0.00670871
-0.0467648
0.0464456
0.00625781
0.0463446
0.00585576
0.0462725
0.00530349
0.0462738
0.00450301
0.0463261
0.0037571
0.0463928
0.0026968
0.0465745
0.00169238
0.0467329
0.000425321
0.0470268
-0.000774371
0.0472668
-0.00223278
0.047654
-0.00359711
0.047936
-0.00498581
0.0483635
-0.00653915
0.0486994
-0.00751537
0.0490722
-0.00877353
0.0494096
-0.00910904
0.0497735
-0.00962165
0.0500929
-0.00886456
0.050495
-0.00841262
0.050869
-0.0065152
0.0513018
-0.00524099
0.0518488
-0.00247916
0.0523633
-0.000586299
0.0530842
0.00250578
0.0535621
0.00478409
0.0542543
0.00744534
0.0545576
0.00964724
0.0548829
0.0113116
0.0546326
0.0128578
0.0543461
0.0127389
0.0535053
0.013203
0.0523461
0.0114299
0.0506624
0.0105689
0.0482291
0.00725139
0.0458062
0.00467686
0.0422314
0.000730228
0.0383895
-0.00311951
0.0323854
-0.00881846
-0.0162129
0.0267166
0.0467177
0.00687994
-0.0468889
0.046596
0.00637952
0.0465293
0.00592245
0.0464992
0.0053336
0.0464851
0.00451708
0.0465739
0.00366829
0.0466757
0.00259505
0.0468449
0.00152311
0.0470322
0.00023802
0.0473388
-0.00108092
0.0475703
-0.00246433
0.0479744
-0.00400122
0.0482799
-0.00529127
0.048634
-0.00689329
0.0490035
-0.00788478
0.0493389
-0.00910895
0.0496894
-0.0094596
0.0500077
-0.00993989
0.0503391
-0.00919594
0.0506764
-0.00874995
0.0511133
-0.00695208
0.0515125
-0.00564025
0.052134
-0.00310058
0.0526144
-0.00106679
0.0534534
0.00166679
0.0540062
0.00423127
0.0548194
0.00663222
0.0552849
0.00918167
0.0558284
0.0107681
0.0558236
0.0128626
0.0556265
0.0129361
0.0550399
0.0137896
0.0540644
0.0124054
0.0528409
0.0117923
0.0506199
0.00947236
0.0483081
0.0069887
0.0451055
0.00393279
0.041728
0.000258001
0.0363882
-0.0034786
-0.0103699
0.0305451
0.0465817
0.00701529
-0.046717
0.0465019
0.00645931
0.046451
0.00597337
0.0464986
0.00528602
0.0464912
0.00452449
0.0466422
0.00351722
0.046768
0.00246926
0.0470006
0.00129055
0.0471951
4.35118e-05
0.0475136
-0.00139941
0.047823
-0.00277378
0.0481615
-0.00433975
0.0485395
-0.00566926
0.0488789
-0.0072327
0.0492643
-0.00827013
0.0495808
-0.00942546
0.0499325
-0.00981135
0.050201
-0.0102084
0.0505879
-0.00958283
0.0508726
-0.00903462
0.0513564
-0.0074359
0.0517017
-0.0059856
0.0524115
-0.00381036
0.0529092
-0.00156443
0.0538281
0.000747819
0.0544865
0.00357288
0.0554225
0.00569624
0.0560258
0.00857839
0.0567248
0.0100691
0.0570577
0.0125297
0.0570873
0.0129064
0.0567885
0.0140883
0.055859
0.0133349
0.054984
0.0126673
0.0533164
0.01114
0.0513064
0.00899869
0.0483744
0.00686488
0.0454271
0.00320525
0.0410233
0.000925239
-0.0051555
0.0358089
0.0467976
0.0071378
-0.0469201
0.0467497
0.00650724
0.046719
0.00600405
0.0467531
0.00525187
0.0467971
0.00448049
0.0469641
0.00335029
0.0471103
0.00232303
0.0473396
0.00106124
0.0476069
-0.000223762
0.047905
-0.00169749
0.0482387
-0.00310757
0.0485559
-0.00465689
0.0489503
-0.00606367
0.0492615
-0.00754386
0.049631
-0.00863968
0.0499028
-0.00969729
0.0502763
-0.0101848
0.0504815
-0.0104136
0.0508725
-0.00997387
0.0510776
-0.00923969
0.0516198
-0.00797813
0.0519233
-0.00628904
0.0527011
-0.00458816
0.0532158
-0.00207915
0.0541807
-0.00021708
0.0549603
0.00279329
0.0559777
0.00467878
0.0567815
0.00777459
0.0576303
0.00922036
0.0582403
0.0119197
0.0584311
0.0127156
0.058531
0.0139885
0.0579422
0.0139237
0.0570541
0.0135555
0.055717
0.012477
0.0542064
0.0105093
0.0517534
0.0093178
0.0491685
0.00579022
0.0455765
0.0045172
-0.000625687
0.0410467
0.046679
0.00721083
-0.046752
0.0466622
0.00652403
0.046677
0.00598926
0.0467654
0.00516345
0.0468803
0.0043656
0.0470347
0.00319585
0.0472648
0.002093
0.0474763
0.000849764
0.0478272
-0.000574714
0.0481127
-0.00198302
0.048505
-0.00349988
0.0488374
-0.00498924
0.0492414
-0.00646765
0.0495292
-0.00783167
0.0499478
-0.00905829
0.0501808
-0.00993031
0.0505567
-0.0105607
0.0507145
-0.0105714
0.0511432
-0.0104026
0.0512875
-0.00938393
0.0518565
-0.00854712
0.0521688
-0.00660136
0.0529135
-0.00533289
0.0535484
-0.00271399
0.0545018
-0.00117051
0.0553993
0.00189577
0.0565536
0.00352449
0.0575807
0.00674745
0.0585159
0.00828517
0.0594946
0.0109411
0.0600008
0.0122093
0.060243
0.0137463
0.0600999
0.0140668
0.0596509
0.0140045
0.058499
0.0136289
0.057199
0.0118093
0.0553444
0.0111723
0.0531191
0.00801556
0.050282
0.00735432
0.0032361
0.0464202
0.047018
0.00728759
-0.0470948
0.0470334
0.00650859
0.0470839
0.00593877
0.0471631
0.00508432
0.0473218
0.00420685
0.047453
0.00306467
0.0477321
0.00181394
0.0479637
0.000618164
0.048318
-0.000929013
0.0485886
-0.0022537
0.0489919
-0.00390316
0.0492725
-0.00526979
0.0497433
-0.00693853
0.0499726
-0.00806096
0.0504001
-0.00948578
0.0505513
-0.0100815
0.0509528
-0.0109622
0.0510703
-0.0106889
0.0514406
-0.0107729
0.0516005
-0.00954379
0.0520873
-0.00903395
0.0524735
-0.00698756
0.0531461
-0.00600541
0.0538408
-0.00340874
0.0547904
-0.00212014
0.0558363
0.000849879
0.0569639
0.00239695
0.0583078
0.00540356
0.0594084
0.00718456
0.0606252
0.00972426
0.0614268
0.0114077
0.0621559
0.0130173
0.0622504
0.0139722
0.0619937
0.0142612
0.0614056
0.014217
0.0604105
0.0128045
0.0588201
0.0127627
0.0569263
0.00990934
0.0546908
0.0095899
0.00636226
0.0515646
0.046934
0.00727887
-0.0469253
0.0469734
0.00646921
0.0470628
0.00584941
0.0471968
0.00495032
0.047416
0.00398764
0.047594
0.00288668
0.0479477
0.00146018
0.0482073
0.000358611
0.0486211
-0.00134288
0.0488937
-0.00252627
0.049396
-0.00440541
0.0496599
-0.00553373
0.0501337
-0.00741233
0.0503512
-0.00827841
0.0507739
-0.00990852
0.0509358
-0.0102434
0.0512553
-0.0112816
0.0514135
-0.0108472
0.051724
-0.0110833
0.0519313
-0.00975108
0.052303
-0.00940566
0.0527633
-0.00744787
0.0533332
-0.00657531
0.0541695
-0.00424509
0.0550313
-0.00298187
0.0562889
-0.00040779
0.0573823
0.00130362
0.0589791
0.00380676
0.0602231
0.00594048
0.0617539
0.0081935
0.0629506
0.010211
0.0638733
0.0120945
0.0645374
0.0133081
0.0648858
0.0139129
0.0643468
0.0147559
0.0638595
0.0132918
0.0628877
0.0137346
0.0613038
0.0114932
0.0595263
0.0113674
0.00878624
0.0571023
0.0474419
0.00724653
-0.0474096
0.0474893
0.00642185
0.04766
0.00567864
0.0477796
0.00483071
0.0480563
0.00371103
0.0482584
0.00268451
0.048618
0.00110059
0.0488893
8.73646e-05
0.0492936
-0.0017472
0.0496076
-0.00284029
0.0500697
-0.00486754
0.0503704
-0.00583441
0.0507536
-0.00779548
0.0510452
-0.00857008
0.0513421
-0.0102054
0.0515663
-0.0104676
0.0517345
-0.0114498
0.0519283
-0.0110409
0.0520765
-0.0112316
0.0523915
-0.0100661
0.0525797
-0.00959385
0.0531671
-0.00803523
0.0535843
-0.00699261
0.0545428
-0.00520355
0.0552697
-0.00370871
0.0567037
-0.0018418
0.0578125
0.000194746
0.0594748
0.00214452
0.0610775
0.00433779
0.0626293
0.0066417
0.0642178
0.00862251
0.0657757
0.0105366
0.0664767
0.0126071
0.0674316
0.0129579
0.0676088
0.0145787
0.0672165
0.0136841
0.0667083
0.0142427
0.0656424
0.0125591
0.0642988
0.012711
0.010741
0.062344
0.0473802
0.00711561
-0.0472493
0.0474927
0.00630937
0.0477141
0.00545719
0.0479098
0.00463507
0.0482574
0.00336339
0.0485336
0.00240835
0.0488718
0.000762351
0.0492349
-0.000275706
0.0496359
-0.00214821
0.0500415
-0.00324591
0.0504018
-0.00522787
0.0508447
-0.00627731
0.0511453
-0.00809603
0.0515464
-0.00897118
0.0516942
-0.0103533
0.0520205
-0.0107938
0.0520686
-0.011498
0.0523722
-0.0113445
0.0523297
-0.011189
0.0527386
-0.010475
0.0528169
-0.00967208
0.0534674
-0.00868579
0.0538037
-0.00732892
0.0548153
-0.00621509
0.0555855
-0.004479
0.0568949
-0.00315119
0.0583686
-0.00127892
0.0599259
0.00058725
0.0616915
0.00257211
0.063768
0.00456527
0.0653793
0.00701117
0.0674028
0.00851314
0.0688724
0.0111376
0.0700007
0.0118296
0.0708545
0.013725
0.0711051
0.0134335
0.0709297
0.0144182
0.0702777
0.013211
0.0695705
0.0134183
0.0123117
0.0679999
0.0481719
0.00697749
-0.0480338
0.048335
0.00614623
0.0485841
0.00520813
0.0488718
0.00434732
0.0491419
0.00309332
0.0495031
0.00204714
0.0498008
0.000464709
0.0502222
-0.000697088
0.0505257
-0.00245178
0.0510776
-0.00379774
0.0512846
-0.00543488
0.0518583
-0.00685101
0.0519463
-0.00818402
0.0524331
-0.00945798
0.0523988
-0.0103191
0.0527573
-0.0111523
0.0526185
-0.0113592
0.0529281
-0.0116541
0.0527902
-0.0110511
0.053141
-0.0108259
0.0531909
-0.00972197
0.0537087
-0.00920355
0.0541425
-0.00776275
0.0549055
-0.00697808
0.0559004
-0.00547386
0.0570972
-0.00434808
0.0585082
-0.00268989
0.0603976
-0.00130216
0.0621288
0.000840956
0.064419
0.0022751
0.0664936
0.00493647
0.0687605
0.00624625
0.0707911
0.00910698
0.0725986
0.0100221
0.0739439
0.0123796
0.0747608
0.0126166
0.0753502
0.0138289
0.0751073
0.0134539
0.0748742
0.0136514
0.0132898
0.0738961
0.0480773
0.00676577
-0.0478656
0.0483704
0.00585307
0.0486394
0.00493914
0.0490508
0.00393595
0.049334
0.00281009
0.0499133
0.00146785
0.05016
0.000218
0.0508359
-0.001373
0.0510789
-0.00269473
0.0517993
-0.00451815
0.0519578
-0.0055934
0.0525907
-0.00748391
0.0526273
-0.00822061
0.0531031
-0.00993376
0.0530502
-0.0102662
0.0533044
-0.0114065
0.0532415
-0.0112964
0.0533586
-0.0117711
0.0532952
-0.0109877
0.0534579
-0.0109885
0.0536356
-0.00989968
0.0539081
-0.00947608
0.0544255
-0.00828012
0.0551685
-0.00772113
0.0560538
-0.00635913
0.0573077
-0.005602
0.058678
-0.00406022
0.0606017
-0.00322582
0.0625344
-0.00109173
0.0648669
-5.7389e-05
0.0673063
0.00249706
0.0699233
0.00362923
0.0725297
0.00650054
0.0748522
0.0076996
0.0771549
0.0100769
0.0785943
0.0111772
0.0799517
0.0124716
0.08042
0.0129855
0.0808388
0.0132327
0.0137685
0.0803601
0.0492435
0.00657206
-0.0490498
0.0495828
0.00551372
0.0498985
0.0046235
0.0503121
0.00352233
0.0505951
0.00252711
0.0511747
0.000888173
0.0515105
-0.000117775
0.0521556
-0.00201806
0.0524679
-0.00300704
0.0529894
-0.00503969
0.0533153
-0.00591923
0.0536566
-0.00782523
0.0538511
-0.00841509
0.0540767
-0.0101594
0.0541478
-0.0103373
0.0541215
-0.0113802
0.0541375
-0.0113123
0.0539883
-0.0116219
0.0539455
-0.010945
0.0539754
-0.0110184
0.0540874
-0.0100117
0.0542906
-0.00967932
0.054729
-0.00871846
0.0553977
-0.00838989
0.0562197
-0.00718111
0.0574147
-0.00679697
0.058855
-0.00550056
0.0605701
-0.00494095
0.0627131
-0.00323467
0.0649976
-0.00234188
0.0678141
-0.000319436
0.0705234
0.00091994
0.0738358
0.00318814
0.0766275
0.0049079
0.0797659
0.00693847
0.0821349
0.00880822
0.0844461
0.0101604
0.0856613
0.0117703
0.0868859
0.012008
0.0135765
0.0870779
0.0494428
0.00623509
-0.0491059
0.0499135
0.00504306
0.0503332
0.00420379
0.0508776
0.00297791
0.0513959
0.00200885
0.0519083
0.000375807
0.0524133
-0.000622782
0.0529209
-0.00252571
0.0534564
-0.00354249
0.0538047
-0.00538805
0.0543223
-0.00643682
0.0544588
-0.00796168
0.054833
-0.00878929
0.0548513
-0.0101777
0.0549096
-0.0103956
0.0547996
-0.0112702
0.0547504
-0.0112632
0.0544717
-0.0113432
0.0544594
-0.0109327
0.0542864
-0.0108453
0.0543392
-0.0100645
0.0544952
-0.00983537
0.0549041
-0.00912732
0.0553573
-0.00884316
0.0563406
-0.00816432
0.0573171
-0.00777353
0.0588609
-0.00704432
0.0603323
-0.00641237
0.0626019
-0.00550424
0.0647853
-0.00452532
0.0678217
-0.00335586
0.0706501
-0.00190846
0.0743804
-0.000542156
0.0777993
0.00148898
0.0817627
0.00297506
0.0851669
0.00540411
0.0885888
0.00673842
0.0911906
0.00916854
0.0932903
0.0099083
0.0124419
0.0944249
0.0513453
0.00591665
-0.0510268
0.0517381
0.0046502
0.052138
0.00380391
0.0526284
0.00248753
0.0531572
0.00148004
0.0536948
-0.000161768
0.0543138
-0.00124183
0.0547242
-0.00293607
0.0553105
-0.0041288
0.055671
-0.00574848
0.056072
-0.00683788
0.0562213
-0.00811101
0.0564958
-0.00906378
0.0563168
-0.00999868
0.0563515
-0.0104302
0.0560789
-0.0109976
0.0558617
-0.011046
0.0554967
-0.0109783
0.0553711
-0.010807
0.054953
-0.0104273
0.0550131
-0.0101246
0.0549399
-0.0097622
0.0553177
-0.00950512
0.0555901
-0.00911554
0.0565106
-0.00908484
0.057309
-0.00857187
0.0587584
-0.00849375
0.0601139
-0.0077679
0.0621549
-0.00754523
0.0642813
-0.00665174
0.0671917
-0.00626619
0.0702719
-0.00498872
0.0740041
-0.00427437
0.0779968
-0.00250363
0.0824509
-0.00147912
0.087032
0.000823076
0.0916824
0.00208801
0.0960997
0.00475125
0.099972
0.00603599
0.00974329
0.102671
0.0522158
0.00519183
-0.0514909
0.0529335
0.00393243
0.0536785
0.00305896
0.0543169
0.00184911
0.0550702
0.000726757
0.0554628
-0.000554432
0.0562576
-0.00203654
0.0566918
-0.00337029
0.0572687
-0.00470571
0.0575383
-0.00601811
0.0578287
-0.00712829
0.0578963
-0.00817862
0.0579468
-0.00911423
0.0577154
-0.00976729
0.0575427
-0.0102575
0.0570985
-0.0105534
0.0567639
-0.0107114
0.0562688
-0.0104831
0.055956
-0.0104943
0.0555514
-0.0100227
0.0554193
-0.0099925
0.0552726
-0.0096154
0.0555068
-0.0097394
0.0558247
-0.00943341
0.0564054
-0.00966549
0.0572334
-0.00939988
0.0583132
-0.0095736
0.059717
-0.00917165
0.0613614
-0.00918963
0.0634092
-0.00869955
0.065888
-0.00874503
0.0689121
-0.00801274
0.0724869
-0.00784923
0.0766681
-0.00668482
0.0813547
-0.00616575
0.0865768
-0.00439903
0.0922041
-0.00353921
0.0982677
-0.00131243
0.104593
-0.000289376
0.00395185
0.110385
0.0544151
0.00464894
-0.0538722
0.0548644
0.00348314
0.0556613
0.00226209