/*--------------------------------*- C++ -*----------------------------------*\
  =========                 |
  \\      /  F ield         | OpenFOAM: The Open Source CFD Toolbox
   \\    /   O peration     | Website:  https://openfoam.org
    \\  /    A nd           | Version:  11
     \\/     M anipulation  |
\*---------------------------------------------------------------------------*/
FoamFile
{
    format      ascii;
    class       volVectorField;
    location    "10";
    object      U;
}
// * * * * * * * * * * * * * * * * * * * * * * * * * * * * * * * * * * * * * //

dimensions      [0 1 -1 0 0 0 0];

internalField   nonuniform List<vector> 
9600
(
(0.967267 0.00134876 6.23401e-21)
(0.965071 0.00209492 0)
(0.961345 0.00277888 0)
(0.956188 0.00301424 1.10778e-22)
(0.951276 0.00317515 0)
(0.948716 0.00333692 -1.2023e-22)
(0.944962 0.00384692 -4.02185e-21)
(0.938701 0.00341684 4.04249e-21)
(0.935884 0.00278868 -4.27917e-21)
(0.935085 0.00260028 4.29804e-21)
(0.932694 0.00185072 0)
(0.93304 0.00109585 -4.30177e-21)
(0.935399 0.000249399 4.38201e-21)
(0.938915 -0.000738117 -6.40265e-23)
(0.944351 -0.00185378 1.86058e-21)
(0.952441 -0.00299201 -1.84307e-21)
(0.963476 -0.00466049 0)
(0.97962 -0.00453288 -4.58657e-22)
(0.988811 -0.00433795 4.59072e-22)
(1.00222 -0.00429764 -5.56948e-25)
(1.01344 -0.00200186 -1.96533e-25)
(1.01332 -0.000533408 -2.68383e-22)
(1.009 0.000678804 2.68646e-22)
(0.997708 0.00150456 0)
(0.975149 0.000830407 0)
(0.951397 -0.00106758 -4.17515e-22)
(0.928287 -0.00318942 2.43641e-22)
(0.908294 -0.00549825 1.83981e-22)
(0.894915 -0.00702424 5.62678e-24)
(0.891153 -0.00794085 -1.43909e-23)
(0.894537 -0.00873414 0)
(0.898896 -0.00733839 2.09202e-21)
(0.898811 -0.00520768 -2.03499e-21)
(0.89234 -0.00228979 -2.24353e-21)
(0.870187 0.00149504 2.24715e-21)
(0.824206 0.00497618 6.79333e-23)
(0.789577 -0.00117206 0)
(0.768738 -0.00285823 4.20929e-21)
(0.757623 -0.00947067 -4.24647e-21)
(0.758148 -0.0210383 6.56939e-23)
(0.970347 0.000209608 3.07599e-22)
(0.96853 0.000309338 0)
(0.966868 0.000111203 0)
(0.964558 -0.000233345 -3.43177e-22)
(0.962599 -0.00104918 -7.76842e-21)
(0.960178 -0.00134884 1.22226e-20)
(0.959086 -0.00130858 -4.05933e-21)
(0.95801 -0.00148027 -1.33313e-22)
(0.956541 -0.00186797 -1.35757e-22)
(0.956686 -0.00218273 0)
(0.957596 -0.00201911 -1.40017e-22)
(0.959844 -0.0020745 -4.58772e-21)
(0.964503 -0.00185872 6.55905e-21)
(0.971037 -0.00170092 -2.1629e-21)
(0.978074 -0.00145933 -3.08718e-23)
(0.989149 -0.00191842 0)
(1.0022 -0.00172253 -5.94038e-22)
(1.01534 -0.00116611 6.40223e-22)
(1.03269 -0.000406937 -1.23764e-22)
(1.04302 -0.000134854 1.24384e-22)
(1.05536 0.000225818 -6.67652e-23)
(1.05824 0.00161879 6.1228e-23)
(1.05607 0.00271854 0)
(1.04924 0.00491455 7.42558e-22)
(1.03381 0.00781499 -7.43885e-22)
(1.01007 0.00942635 -8.96667e-24)
(0.985767 0.0105343 2.54647e-22)
(0.966729 0.0110261 -2.59921e-22)
(0.957103 0.00983268 -1.33459e-23)
(0.95524 0.00783682 -1.06271e-21)
(0.95733 0.00595711 1.13373e-21)
(0.968598 0.00506768 -2.01407e-21)
(0.989069 0.00436287 1.9856e-21)
(0.999932 0.00614332 -7.19718e-23)
(1.00143 0.00884987 4.67651e-21)
(0.995628 0.0129317 -4.54888e-21)
(0.971644 0.0137145 0)
(0.934948 0.0133044 4.19047e-21)
(0.899469 0.0177985 -4.22777e-21)
(0.857613 0.016351 -1.98501e-22)
(0.969154 0.000244177 6.50877e-21)
(0.967772 0.000866356 -2.18008e-22)
(0.965999 0.00179302 0)
(0.96426 0.00195641 2.35055e-22)
(0.962099 0.00211502 0)
(0.959474 0.00242453 -4.39988e-21)
(0.958389 0.00261425 -1.18633e-22)
(0.957393 0.00227227 4.44868e-21)
(0.95665 0.00170012 1.39038e-22)
(0.956889 0.00137278 0)
(0.958079 0.00100778 4.32371e-22)
(0.96064 -0.00024088 -4.54358e-21)
(0.965181 -0.00126409 4.7066e-21)
(0.971702 -0.00308443 2.01453e-22)
(0.980595 -0.00435902 -1.23873e-22)
(0.989393 -0.00657864 5.48459e-23)
(1.00401 -0.0079362 -6.51184e-22)
(1.01534 -0.00868176 1.90849e-22)
(1.03334 -0.00817809 4.71846e-22)
(1.04515 -0.0068245 -1.10901e-24)
(1.05531 -0.00468241 -4.28754e-25)
(1.0598 -0.000347288 -2.74936e-22)
(1.05797 0.00230771 2.77405e-22)
(1.05156 0.00610509 7.75104e-22)
(1.03822 0.00976962 -7.75543e-22)
(1.01689 0.0102099 0)
(0.990745 0.00777006 1.27647e-23)
(0.967514 0.00316469 -2.21033e-23)
(0.954187 -0.00232492 7.76784e-24)
(0.951168 -0.00584723 -6.95156e-23)
(0.953974 -0.00890645 -1.22607e-22)
(0.966322 -0.011066 2.07901e-21)
(0.993891 -0.0111492 2.70725e-22)
(1.01879 -0.00597329 -2.15704e-21)
(1.03194 0.00107681 -1.49943e-22)
(1.03127 0.0103386 0)
(1.01714 0.0140554 -1.35671e-22)
(0.972998 0.0131049 4.35701e-21)
(0.923546 0.00689961 -4.33874e-21)
(0.873586 -0.00689951 1.34296e-22)
(0.969087 0.000735121 4.35171e-22)
(0.96769 0.00130624 -2.28059e-22)
(0.965579 0.00187797 0)
(0.96386 0.00197582 0)
(0.961815 0.00156862 -7.78154e-21)
(0.959192 0.00105909 8.08093e-21)
(0.958242 0.000571446 4.16989e-21)
(0.957382 -0.000178376 -4.18689e-21)
(0.956576 -0.000927657 4.66743e-21)
(0.956915 -0.00181876 -4.38268e-21)
(0.958394 -0.00217771 -2.95748e-22)
(0.961425 -0.00385658 -1.46831e-22)
(0.965996 -0.00467503 -1.43902e-22)
(0.972685 -0.00651928 -1.3729e-22)
(0.982039 -0.0067668 2.15194e-21)
(0.991055 -0.00908162 -2.15442e-22)
(1.00471 -0.00922943 -2.33595e-21)
(1.01858 -0.00930205 6.52744e-22)
(1.0337 -0.00815583 -1.1315e-23)
(1.04604 -0.00580174 2.22716e-24)
(1.05666 -0.00336385 7.18852e-23)
(1.06144 0.00110971 -3.60589e-22)
(1.05961 0.00432414 3.10206e-22)
(1.05235 0.00800513 5.18786e-23)
(1.03915 0.0131744 0)
(1.02065 0.0166067 0)
(0.997336 0.0177223 3.6727e-22)
(0.974426 0.016477 -3.86489e-22)
(0.956897 0.0126006 -3.31546e-22)
(0.94785 0.00771323 3.75433e-22)
(0.94768 0.000470995 8.19596e-23)
(0.955933 -0.00447629 -1.11754e-22)
(0.979153 -0.0101188 1.27996e-22)
(1.0118 -0.00638872 -2.40596e-21)
(1.03786 -0.000780742 7.27764e-21)
(1.04973 0.0113129 -9.52902e-21)
(1.04532 0.0224657 4.47468e-21)
(1.02086 0.0307161 -2.68562e-22)
(0.980342 0.0420828 4.03213e-22)
(0.906747 0.0284418 -2.58307e-22)
(0.96851 0.000788081 6.68868e-21)
(0.967227 0.00126209 -6.30476e-24)
(0.96493 0.00211686 0)
(0.963269 0.00203968 0)
(0.961109 0.00190107 -5.25623e-22)
(0.958978 0.00157489 8.24205e-22)
(0.958193 0.00126028 -4.30223e-21)
(0.95702 0.000755408 9.02446e-21)
(0.956722 0.000229053 -4.7104e-21)
(0.957223 -0.000511102 -3.00982e-22)
(0.958922 -0.000901847 0)
(0.962203 -0.00291361 -9.4769e-21)
(0.967122 -0.00406781 9.52736e-21)
(0.973219 -0.00670234 -2.41464e-21)
(0.98285 -0.00753314 2.01435e-21)
(0.993992 -0.0105178 -2.26202e-22)
(1.00516 -0.0119388 -7.52689e-22)
(1.02019 -0.0127467 1.97661e-22)
(1.03407 -0.0116854 4.63109e-22)
(1.04703 -0.00944916 -1.11837e-24)
(1.05715 -0.00629544 7.35604e-23)
(1.06342 -0.000573323 -3.71332e-22)
(1.06239 0.00512771 2.7427e-22)
(1.05434 0.0100826 -5.32314e-23)
(1.03967 0.0161324 -5.4578e-23)
(1.02233 0.0199923 -6.43967e-22)
(1.00147 0.0203155 5.70749e-22)
(0.978228 0.0161925 -6.93467e-24)
(0.958198 0.00734697 6.78764e-24)
(0.946986 0.000502391 0)
(0.944249 -0.00640228 -6.43738e-23)
(0.949619 -0.0119222 0)
(0.966719 -0.0211583 -3.81203e-22)
(0.999969 -0.0198697 0)
(1.03493 -0.0139597 0)
(1.05944 0.00135002 -4.91274e-21)
(1.06315 0.0176082 5.15069e-21)
(1.05012 0.0254538 4.96761e-21)
(1.02063 0.0366048 -4.65668e-21)
(0.942406 0.022123 2.63234e-22)
(0.968131 0.00137802 0)
(0.967021 0.00185832 -6.85919e-24)
(0.96448 0.0025898 0)
(0.962749 0.00267687 0)
(0.960961 0.0027279 -8.90232e-21)
(0.958945 0.0020378 3.79618e-21)
(0.95799 0.00158113 9.36812e-21)
(0.956851 0.000547068 -4.76775e-21)
(0.956685 -0.000234755 0)
(0.95711 -0.00191757 0)
(0.959193 -0.00271916 0)
(0.962535 -0.0058186 -4.24034e-21)
(0.968369 -0.00710909 4.58323e-21)
(0.97365 -0.0107555 2.46211e-21)
(0.983347 -0.0118967 -2.44391e-21)
(0.994651 -0.0153968 -1.56202e-21)
(1.00685 -0.0162507 1.11158e-21)
(1.02065 -0.0170791 6.66291e-22)
(1.03523 -0.0151864 -1.23341e-22)
(1.04877 -0.0121558 1.23397e-22)
(1.05843 -0.00777164 -1.17362e-24)
(1.06406 -0.00083754 -1.55768e-23)
(1.06418 0.00593398 4.76566e-23)
(1.05726 0.0117382 0)
(1.04289 0.018512 5.60066e-23)
(1.0245 0.0228122 7.11022e-22)
(1.0044 0.0247692 -5.55206e-22)
(0.982968 0.0245419 -4.27919e-22)
(0.962475 0.0191175 3.70357e-22)
(0.947299 0.013033 7.07623e-23)
(0.939291 0.000111469 1.44151e-21)
(0.943165 -0.00710427 -1.07073e-21)
(0.956644 -0.0206845 2.56476e-22)
(0.985083 -0.0249846 2.43295e-21)
(1.01951 -0.0228597 2.70507e-21)
(1.05493 -0.00900121 -4.76498e-21)
(1.07704 0.0133541 0)
(1.07521 0.0273253 4.41812e-21)
(1.056 0.0567538 4.99234e-23)
(0.987823 0.049157 -4.33576e-21)
(0.967343 0.00138934 8.60698e-21)
(0.966262 0.0018421 -7.39487e-24)
(0.963756 0.00268707 0)
(0.961818 0.00262854 0)
(0.960384 0.00272108 8.65676e-21)
(0.958461 0.0018158 -8.70011e-21)
(0.957435 0.00119584 4.89859e-21)
(0.956354 -6.4493e-05 7.08095e-22)
(0.956497 -0.000873614 -5.0349e-21)
(0.957168 -0.00281964 5.10737e-21)
(0.959831 -0.00335541 -4.50025e-21)
(0.962473 -0.00683981 -5.28481e-21)
(0.969179 -0.00798081 5.60518e-21)
(0.974303 -0.0118982 0)
(0.984805 -0.0130621 2.2599e-21)
(0.995438 -0.016642 -3.93153e-21)
(1.0084 -0.0174265 1.0328e-21)
(1.02168 -0.0182947 2.0771e-22)
(1.03666 -0.0164802 3.21905e-22)
(1.05039 -0.0131263 1.21937e-22)
(1.06 -0.00808119 -8.36305e-23)
(1.06483 -0.00152302 -2.4305e-22)
(1.06643 0.00703508 2.7801e-22)
(1.06004 0.0145075 9.67331e-22)
(1.04689 0.0219739 -9.65343e-22)
(1.02815 0.0276405 -7.86101e-22)
(1.0071 0.0303815 7.91389e-22)
(0.985605 0.0292994 6.03435e-23)
(0.963793 0.0199994 0)
(0.949268 0.0127605 -5.564e-22)
(0.938611 0.000286781 4.37136e-22)
(0.939598 -0.00797275 1.49169e-21)
(0.948253 -0.0232118 -1.66985e-21)
(0.971934 -0.0323201 -2.70861e-21)
(1.00475 -0.0347959 2.09812e-21)
(1.04264 -0.0259894 -1.10617e-24)
(1.07686 0.000597989 0)
(1.08664 0.0165917 4.02548e-21)
(1.0776 0.0492066 -8.74564e-22)
(1.02501 0.0512121 -3.42123e-21)
(0.966771 0.00202061 6.9558e-21)
(0.965678 0.00243888 -5.29781e-22)
(0.963329 0.00339358 8.90333e-21)
(0.96128 0.00324135 -8.98131e-21)
(0.960062 0.0033078 5.86787e-22)
(0.958154 0.00224648 -6.06541e-22)
(0.957319 0.00159495 0)
(0.956112 -5.26016e-05 3.89337e-21)
(0.95664 -0.000947593 -5.20086e-21)
(0.957307 -0.0033891 0)
(0.960453 -0.00419532 3.89995e-21)
(0.962948 -0.00847736 -4.6057e-21)
(0.969922 -0.0101301 -6.43392e-25)
(0.975239 -0.0149676 0)
(0.985768 -0.0167622 2.03018e-21)
(0.995891 -0.0211197 -1.79741e-21)
(1.00953 -0.0220348 -6.79476e-22)
(1.02306 -0.0231888 2.13578e-22)
(1.0379 -0.0212179 3.69923e-22)
(1.05125 -0.017333 1.23819e-22)
(1.06165 -0.0113712 0)
(1.06671 -0.00330784 -3.13006e-22)
(1.06841 0.00643117 2.94166e-22)
(1.06285 0.0150726 0)
(1.05065 0.0239166 1.34096e-22)
(1.03303 0.0306759 0)
(1.00974 0.0329448 4.60381e-22)
(0.989887 0.034793 -1.50256e-21)
(0.966488 0.0274816 8.58883e-22)
(0.950997 0.0220791 2.33108e-23)
(0.935181 0.00652805 9.15991e-22)
(0.936605 -0.00409264 -2.6985e-21)
(0.941147 -0.0202133 1.77212e-21)
(0.961243 -0.0356606 -2.38794e-21)
(0.990689 -0.0416041 7.6539e-21)
(1.02432 -0.0443352 -5.55713e-21)
(1.06843 -0.01489 0)
(1.0916 0.00331797 5.14545e-21)
(1.09494 0.0455863 -1.86589e-22)
(1.05659 0.0581415 -4.734e-21)
(0.965848 0.00197579 0)
(0.964767 0.00236706 1.06985e-21)
(0.96253 0.00335725 0)
(0.960489 0.00300056 1.19379e-21)
(0.959317 0.00301644 8.6972e-21)
(0.957571 0.00188405 -4.89162e-21)
(0.956824 0.00103982 -5.15555e-21)
(0.955647 -0.000931829 6.63325e-22)
(0.956477 -0.00199594 0)
(0.95715 -0.0049374 0)
(0.960624 -0.00591235 6.04825e-21)
(0.963118 -0.0106729 -6.07452e-21)
(0.970456 -0.0125835 -9.66094e-22)
(0.975741 -0.0176751 -3.02889e-22)
(0.9869 -0.0194399 2.06918e-21)
(0.997073 -0.0238573 -1.83492e-21)
(1.01046 -0.0246126 -6.86705e-22)
(1.02447 -0.0255447 2.20128e-22)
(1.03946 -0.0230331 3.51023e-22)
(1.05245 -0.0187826 1.17015e-22)
(1.06393 -0.0115175 -3.53266e-24)
(1.0693 -0.00322122 -3.89369e-22)
(1.07094 0.00745982 4.25366e-22)
(1.06593 0.0177275 6.86933e-23)
(1.05385 0.0268907 -2.82428e-22)
(1.03887 0.0352733 0)
(1.0143 0.0386598 8.56783e-22)
(0.994117 0.0416437 -5.81558e-22)
(0.969028 0.0332926 -7.65939e-23)
(0.953039 0.0266492 2.08612e-23)
(0.934239 0.012435 7.71942e-23)
(0.932132 -0.00179839 1.58484e-21)
(0.934796 -0.0157238 -1.8479e-21)
(0.949912 -0.0379838 5.40456e-22)
(0.97632 -0.0433319 3.21224e-22)
(1.01044 -0.0590833 -6.20887e-21)
(1.05293 -0.0348957 5.48951e-21)
(1.08606 -0.0187545 5.09625e-21)
(1.10857 0.0315869 -5.03436e-21)
(1.07851 0.0567092 0)
(0.965207 0.00266686 0)
(0.964127 0.00301491 0)
(0.96203 0.00400185 1.08368e-20)
(0.959834 0.0036316 -2.0952e-20)
(0.958741 0.00345365 1.00594e-20)
(0.957052 0.00225795 0)
(0.956545 0.00119274 5.43542e-21)
(0.955416 -0.00114126 6.02036e-23)
(0.956567 -0.00239507 -4.86786e-21)
(0.957199 -0.0058213 0)
(0.960994 -0.00704167 -7.01556e-22)
(0.963497 -0.0123071 6.87691e-22)
(0.971249 -0.0145339 3.22365e-21)
(0.976566 -0.0200211 -2.26214e-21)
(0.987798 -0.0223559 0)
(0.998394 -0.027134 1.78321e-21)
(1.01149 -0.0282802 -2.68388e-21)
(1.02549 -0.0293494 1.23719e-21)
(1.04105 -0.0268669 -4.6905e-22)
(1.05426 -0.0222174 -4.55108e-25)
(1.06553 -0.0145365 1.18874e-22)
(1.07193 -0.00505605 -1.11074e-22)
(1.07307 0.00653901 6.06626e-23)
(1.07078 0.0182846 -7.07163e-23)
(1.05723 0.028123 1.48783e-22)
(1.04396 0.0388665 0)
(1.01974 0.0422083 0)
(0.998988 0.0467693 -1.72632e-22)
(0.972049 0.0401961 5.95157e-22)
(0.955658 0.0331871 -6.14575e-22)
(0.934335 0.0213081 0)
(0.927489 0.00239534 -1.37946e-21)
(0.928621 -0.0102672 1.4694e-21)
(0.937378 -0.0378501 -2.55317e-21)
(0.961479 -0.045004 2.27189e-21)
(0.993792 -0.0686088 -4.95627e-21)
(1.03689 -0.0533839 5.60502e-21)
(1.07055 -0.0446812 0)
(1.11673 0.00376673 0)
(1.09572 0.0483422 5.50717e-22)
(0.964243 0.002529 -1.55273e-22)
(0.963124 0.00279363 1.04065e-20)
(0.961172 0.00384982 -1.22892e-21)
(0.958962 0.00325532 -1.29363e-21)
(0.957956 0.00285728 -1.07571e-20)
(0.956276 0.00161771 1.63495e-20)
(0.956144 0.000363038 -5.55332e-21)
(0.955073 -0.00225976 5.7317e-21)
(0.956485 -0.00379134 -7.22099e-21)
(0.957027 -0.00773888 -6.50961e-21)
(0.961118 -0.00923547 1.22561e-20)
(0.963577 -0.014952 -1.20011e-20)
(0.971614 -0.0176017 5.57338e-21)
(0.97726 -0.0234239 0)
(0.988489 -0.0263521 0)
(0.999429 -0.0309809 -2.3199e-21)
(1.01282 -0.0320521 1.52701e-21)
(1.02715 -0.0330331 7.02468e-22)
(1.04247 -0.0301749 1.30755e-22)
(1.05616 -0.0247429 -1.12951e-22)
(1.06726 -0.0163541 -4.23081e-24)
(1.07523 -0.00569963 -4.30613e-22)
(1.07535 0.00615804 3.67552e-22)
(1.07549 0.020187 1.2813e-21)
(1.06205 0.0303906 -1.27799e-21)
(1.0489 0.042126 0)
(1.02493 0.0475289 0)
(1.00484 0.0522303 -2.2807e-22)
(0.97693 0.0484845 8.28378e-22)
(0.95831 0.0398056 -8.23908e-22)
(0.936175 0.0305722 4.66251e-22)
(0.923585 0.00883423 7.36908e-22)
(0.923483 -0.00328424 -1.07596e-21)
(0.926345 -0.0327768 -2.18806e-21)
(0.94612 -0.0444357 7.37619e-21)
(0.973014 -0.0741383 -4.48309e-21)
(1.02017 -0.0681069 -7.31335e-22)
(1.0523 -0.0653004 5.67343e-21)
(1.11388 -0.0317599 -4.91857e-21)
(1.10794 0.0299977 3.79886e-23)
(0.963418 0.0032351 -9.51709e-21)
(0.962241 0.0035116 1.83567e-20)
(0.960589 0.00437751 3.08995e-22)
(0.958258 0.00379061 -2.14258e-20)
(0.957334 0.00313845 1.36957e-20)
(0.955424 0.00176518 0)
(0.955696 0.000252245 0)
(0.954728 -0.00276243 1.48999e-21)
(0.95653 -0.00457157 7.48184e-22)
(0.956992 -0.00901444 -4.47695e-21)
(0.961398 -0.0108217 6.02962e-21)
(0.963768 -0.0168746 -5.71989e-21)
(0.97213 -0.0202466 8.45911e-21)
(0.978023 -0.0261109 -2.06707e-21)
(0.989263 -0.0295539 2.20962e-21)
(1.00065 -0.034187 -3.81081e-21)
(1.01378 -0.0356129 9.37025e-22)
(1.02905 -0.0363176 1.70191e-22)
(1.04393 -0.0333134 3.82457e-22)
(1.05827 -0.0275219 1.04508e-22)
(1.06892 -0.0189237 0)
(1.07931 -0.00697991 -4.17628e-22)
(1.07833 0.00532565 4.66192e-22)
(1.07939 0.0201631 0)
(1.0668 0.0325987 0)
(1.05479 0.0449652 1.32e-21)
(1.03091 0.0522464 -2.4376e-21)
(1.01129 0.0575411 1.61734e-21)
(0.982751 0.0569007 -1.91939e-22)
(0.960969 0.0465934 0)
(0.939375 0.0410766 -2.4436e-22)
(0.919702 0.0167918 2.38525e-22)
(0.919115 0.00368349 -2.63748e-22)
(0.914373 -0.0253396 0)
(0.932723 -0.0413462 0)
(0.95127 -0.0744996 -6.40638e-21)
(1.00031 -0.0821539 6.41606e-21)
(1.03106 -0.083835 5.2519e-21)
(1.09944 -0.0702042 -7.40729e-21)
(1.11519 -0.000681755 -6.15268e-22)
(0.962422 0.00295193 -9.94341e-21)
(0.961077 0.00314617 1.13607e-20)
(0.959656 0.00387249 0)
(0.957437 0.00323692 2.79402e-21)
(0.956662 0.00236655 -2.88091e-21)
(0.954708 0.000781843 7.46032e-21)
(0.955204 -0.00094366 -7.53998e-21)
(0.954196 -0.00425417 1.46095e-23)
(0.956445 -0.0063723 -6.22509e-21)
(0.956831 -0.0113373 1.09028e-20)
(0.961583 -0.013423 -4.69514e-21)
(0.963944 -0.0199997 6.66556e-21)
(0.972301 -0.023999 -3.14545e-21)
(0.979096 -0.0296851 -3.4832e-21)
(0.989469 -0.0340961 0)
(1.00213 -0.0384296 0)
(1.01473 -0.0400947 0)
(1.03095 -0.0405622 -4.64286e-22)
(1.04502 -0.0375119 3.82312e-22)
(1.06176 -0.0308093 0)
(1.07051 -0.0220454 -1.53831e-22)
(1.08276 -0.0089023 -3.52619e-22)
(1.08211 0.004306 -2.29177e-22)
(1.08404 0.0207098 6.59745e-22)
(1.07186 0.0336635 0)
(1.06077 0.047505 -1.66714e-21)
(1.03803 0.0572097 1.83606e-22)
(1.01717 0.061336 1.30605e-21)
(0.990263 0.0656248 -3.38565e-23)
(0.964821 0.0544326 0)
(0.944179 0.0511915 1.50478e-23)
(0.919361 0.0274901 -1.49415e-23)
(0.914743 0.0130067 4.76812e-22)
(0.903661 -0.0162118 -1.51969e-21)
(0.918227 -0.0343385 6.16151e-21)
(0.929084 -0.0693387 -4.75785e-21)
(0.97576 -0.0897124 0)
(1.00607 -0.0967916 7.15888e-21)
(1.07639 -0.105461 -6.3082e-21)
(1.11443 -0.0407872 -7.57864e-22)
(0.961421 0.00363704 0)
(0.960073 0.00379402 1.08851e-20)
(0.958682 0.00432046 3.12421e-22)
(0.956503 0.00355116 -1.44468e-20)
(0.955871 0.00246277 1.21123e-20)
(0.953922 0.000584767 -1.22285e-20)
(0.954678 -0.00140074 1.57091e-21)
(0.953597 -0.00512678 4.82815e-21)
(0.956252 -0.00756879 -8.1135e-21)
(0.956475 -0.0128771 8.0699e-21)
(0.961552 -0.0158866 -1.28185e-20)
(0.964607 -0.021944 5.59316e-21)
(0.9719 -0.0273338 2.88385e-21)
(0.980221 -0.0326658 -2.89818e-21)
(0.989973 -0.0378582 -2.94589e-21)
(1.00322 -0.0420697 4.25443e-21)
(1.01633 -0.04393 -2.65645e-21)
(1.03282 -0.0441004 6.5414e-22)
(1.0465 -0.0409196 4.13891e-23)
(1.06454 -0.033807 -8.37453e-25)
(1.07323 -0.0241977 -1.72812e-22)
(1.08618 -0.0108134 1.16792e-22)
(1.08547 0.00388594 -4.3583e-24)
(1.08847 0.0198516 1.84234e-21)
(1.07865 0.0366815 -1.63648e-21)
(1.06592 0.048347 6.45442e-22)
(1.04612 0.062885 4.08825e-22)
(1.0237 0.0665786 -3.16265e-22)
(0.997728 0.0736773 1.97217e-21)
(0.970133 0.0634032 -6.90358e-22)
(0.949089 0.0615606 -1.02473e-21)
(0.920741 0.0400795 3.77781e-22)
(0.913855 0.0245932 -5.8593e-22)
(0.894932 -0.00407588 -1.73343e-21)
(0.904948 -0.0264577 2.61878e-21)
(0.908442 -0.0599764 0)
(0.947917 -0.0923795 0)
(0.977102 -0.103842 7.38078e-21)
(1.04204 -0.135007 -5.68553e-21)
(1.10204 -0.0831327 1.61247e-21)
(0.960243 0.00310709 -1.57352e-22)
(0.958951 0.00320441 9.65244e-21)
(0.957639 0.00350813 1.48553e-21)
(0.955505 0.00263243 1.51384e-21)
(0.955032 0.00136643 1.58178e-20)
(0.953185 -0.000815413 -7.90192e-21)
(0.954252 -0.00303569 -8.20742e-21)
(0.953093 -0.00702245 0)
(0.955903 -0.00994318 1.68469e-21)
(0.957042 -0.0155364 5.01226e-21)
(0.960046 -0.0192911 -8.41971e-21)
(0.966318 -0.0255596 -6.33335e-21)
(0.971415 -0.0317962 7.14665e-21)
(0.980894 -0.0368893 0)
(0.991326 -0.0428011 3.02884e-21)
(1.00383 -0.0468379 -2.392e-21)
(1.01786 -0.0489002 -7.33185e-22)
(1.0345 -0.0488779 4.31261e-22)
(1.04964 -0.0453661 5.34655e-22)
(1.06529 -0.0377338 -7.95365e-23)
(1.07886 -0.0276041 8.89459e-24)
(1.08653 -0.0136654 0)
(1.09344 0.00255144 8.68453e-23)
(1.09071 0.0183761 -2.08031e-22)
(1.08569 0.0375636 2.40896e-22)
(1.07392 0.0499807 -2.28145e-21)
(1.05215 0.0661817 3.04993e-21)
(1.03207 0.0712326 -1.64574e-21)
(1.0072 0.0813514 0)
(0.976173 0.0723908 0)
(0.955586 0.0708209 6.48128e-22)
(0.923724 0.0527134 -6.4314e-22)
(0.914335 0.0375674 0)
(0.890589 0.0101006 -5.34658e-22)
(0.894212 -0.013615 -4.07646e-21)
(0.890235 -0.0449518 -1.05662e-21)
(0.918769 -0.0875062 4.95882e-21)
(0.94645 -0.103221 5.80135e-21)
(0.99881 -0.153578 -6.52304e-21)
(1.07371 -0.120809 2.30163e-23)
(0.959063 0.00370549 -1.14293e-20)
(0.957704 0.00371988 1.15975e-20)
(0.956404 0.00382348 -1.53139e-21)
(0.954289 0.00273163 0)
(0.954025 0.0011554 -1.48974e-20)
(0.95209 -0.00132976 2.01888e-20)
(0.953181 -0.00384458 -5.15393e-21)
(0.953285 -0.00817979 0)
(0.953556 -0.0120846 1.58202e-20)
(0.958102 -0.0169214 -8.07943e-21)
(0.959423 -0.0231356 -7.03262e-21)
(0.966017 -0.0277819 -6.5763e-21)
(0.972159 -0.0354666 8.90114e-21)
(0.980786 -0.0406552 -2.35974e-21)
(0.992257 -0.0467874 3.11025e-21)
(1.00518 -0.0511272 -2.73762e-21)
(1.01926 -0.0529755 -7.3883e-22)
(1.03576 -0.0530185 2.92975e-22)
(1.05296 -0.0487466 4.11362e-22)
(1.06692 -0.041837 6.95797e-23)
(1.08288 -0.0294517 -1.95483e-23)
(1.0901 -0.0166826 -6.74792e-22)
(1.09734 0.00181062 7.74224e-22)
(1.09704 0.017315 1.96379e-21)
(1.09013 0.03838 -2.20723e-21)
(1.08176 0.0520537 2.03963e-21)
(1.06134 0.070496 -1.51367e-21)
(1.03762 0.0756375 0)
(1.01703 0.0884835 2.96275e-21)
(0.984216 0.0830912 -1.03002e-21)
(0.963484 0.0817153 -3.60905e-22)
(0.928118 0.0665085 -1.03555e-21)
(0.916563 0.051855 0)
(0.889089 0.0271913 -8.62132e-22)
(0.886339 0.000132676 6.90644e-22)
(0.877226 -0.0265763 4.54792e-22)
(0.891159 -0.0746514 -5.76478e-22)
(0.916014 -0.0948605 0)
(0.952231 -0.158548 0)
(1.03309 -0.145562 -1.8058e-21)
(0.957906 0.00287846 -1.20076e-20)
(0.95653 0.00277178 1.21989e-20)
(0.955332 0.00265726 0)
(0.95318 0.00146461 0)
(0.953142 -0.000343948 0)
(0.951878 -0.00324852 0)
(0.95115 -0.00619661 0)
(0.95374 -0.0102557 0)
(0.953342 -0.0157239 -1.10435e-20)
(0.957138 -0.0202697 1.29473e-20)
(0.960337 -0.0268916 7.12666e-21)
(0.965084 -0.0325938 -1.22231e-21)
(0.973029 -0.040087 -3.68132e-21)
(0.981598 -0.0459367 -3.99167e-21)
(0.992671 -0.0521943 -3.20436e-21)
(1.00623 -0.0565962 7.76327e-22)
(1.0219 -0.0582887 1.30616e-21)
(1.03687 -0.0588172 2.35889e-22)
(1.05597 -0.053141 3.11931e-22)
(1.07065 -0.0468436 5.5392e-23)
(1.08488 -0.0333379 -1.28713e-24)
(1.09637 -0.0201143 -8.28203e-22)
(1.10082 -0.000747357 1.80516e-21)
(1.10374 0.0155327 -6.76789e-22)
(1.09761 0.0383021 0)
(1.08719 0.0515849 -6.01542e-22)
(1.07334 0.0738161 -5.35127e-22)
(1.04594 0.080301 0)
(1.02662 0.0936133 2.68566e-21)
(0.992707 0.0920248 -2.75417e-21)
(0.972776 0.0917792 -4.23748e-22)
(0.93522 0.0807579 0)
(0.920965 0.0658418 0)
(0.890928 0.0449969 -7.42146e-22)
(0.881506 0.0166399 7.348e-22)
(0.868864 -0.0055296 -9.99501e-23)
(0.868027 -0.0553962 9.56669e-23)
(0.889708 -0.0791791 5.31565e-21)
(0.907194 -0.148929 -5.85793e-21)
(0.986245 -0.156458 9.24123e-22)
(0.956487 0.00330954 0)
(0.954941 0.00301287 0)
(0.953681 0.00277675 0)
(0.95207 0.0012023 0)
(0.95051 -0.000978384 0)
(0.95151 -0.00372721 9.34115e-21)
(0.94959 -0.00825115 -7.55181e-21)
(0.952324 -0.011729 -7.68791e-21)
(0.952583 -0.0181214 1.73815e-20)
(0.95602 -0.022581 -3.98192e-21)
(0.960247 -0.0307641 -8.63525e-21)
(0.965102 -0.0358103 1.83812e-21)
(0.972333 -0.0443589 8.7042e-22)
(0.982363 -0.0505133 -7.9889e-22)
(0.993774 -0.0564826 2.59012e-21)
(1.00674 -0.0617746 -2.895e-21)
(1.02404 -0.0626073 -7.44147e-22)
(1.03963 -0.063684 7.46138e-22)
(1.05738 -0.0571132 2.39474e-23)
(1.07515 -0.0506579 3.47418e-23)
(1.08741 -0.0365513 -1.46736e-24)
(1.10101 -0.023286 8.53104e-23)
(1.10664 -0.00208684 -2.29649e-22)
(1.10766 0.0133518 2.39277e-21)
(1.10688 0.0387356 -2.36816e-21)
(1.09323 0.0527461 1.29262e-21)
(1.08299 0.0758143 -2.42462e-21)
(1.0562 0.0855044 2.41044e-21)
(1.03794 0.100018 -5.37674e-22)
(1.00208 0.101989 0)
(0.982348 0.102017 2.04312e-21)
(0.943758 0.0955713 -3.22538e-21)
(0.92611 0.0815182 1.18899e-21)
(0.895674 0.0651155 0)
(0.879296 0.0352007 0)
(0.865591 0.0168657 -3.57831e-21)
(0.85087 -0.0295426 4.08602e-21)
(0.866835 -0.0567514 -5.17242e-21)
(0.86675 -0.126468 5.20699e-21)
(0.937959 -0.153185 7.84287e-22)
(0.955397 0.00211343 0)
(0.953953 0.00155619 0)
(0.951775 0.00105227 1.45216e-20)
(0.951441 -0.000548503 -1.65255e-20)
(0.949182 -0.0032192 1.5363e-20)
(0.95044 -0.00622963 -1.948e-20)
(0.948832 -0.0111805 -1.00213e-20)
(0.950909 -0.0148631 -2.02508e-21)
(0.953249 -0.0222653 1.02072e-20)
(0.954681 -0.0271222 0)
(0.960214 -0.0352227 1.98728e-21)
(0.965595 -0.0414622 -9.36156e-21)
(0.972708 -0.0496077 6.58885e-21)
(0.983342 -0.0567046 8.30241e-22)
(0.995094 -0.0625417 7.27655e-22)
(1.00883 -0.0683712 5.01371e-24)
(1.02528 -0.06847 -5.18442e-22)
(1.04364 -0.0700129 3.50949e-22)
(1.05995 -0.0627153 3.49109e-22)
(1.07882 -0.0559933 1.62456e-23)
(1.09299 -0.0407954 1.44963e-23)
(1.10364 -0.0282841 -9.20211e-22)
(1.11438 -0.00503286 9.1847e-22)
(1.11307 0.0106207 -3.02627e-22)
(1.11525 0.0366448 0)
(1.10155 0.052561 -6.94828e-22)
(1.09369 0.0764736 2.75316e-21)
(1.06629 0.0894436 -7.77967e-21)
(1.05025 0.103727 1.19021e-21)
(1.01373 0.110681 7.3729e-21)
(0.993773 0.111554 -6.21392e-21)
(0.955277 0.109498 4.43077e-21)
(0.933277 0.0953894 -2.1693e-21)
(0.90378 0.0847979 0)
(0.878974 0.0550776 0)
(0.866089 0.0380672 0)
(0.8411 -0.0014152 -1.17329e-22)
(0.850302 -0.0297174 5.0122e-21)
(0.834287 -0.0924792 -4.38712e-21)
(0.89079 -0.13475 -1.46854e-21)
(0.953257 0.00246136 -1.41916e-20)
(0.952344 0.0013365 1.44021e-20)
(0.949757 0.000737951 0)
(0.949436 -0.00121934 1.94042e-21)
(0.947092 -0.00451795 0)
(0.948073 -0.00750083 4.14748e-21)
(0.948274 -0.0131929 -1.69339e-20)
(0.948081 -0.0176545 1.28285e-20)
(0.952135 -0.0248161 -4.18108e-21)
(0.95405 -0.0307355 6.44285e-21)
(0.958703 -0.0393984 1.11434e-23)
(0.965329 -0.0459277 9.79529e-21)
(0.972805 -0.0543485 -7.84161e-21)
(0.983269 -0.0626911 -8.61636e-22)
(0.996551 -0.0670773 -7.57412e-22)
(1.01033 -0.0741358 5.86453e-24)
(1.02754 -0.073959 -2.33684e-22)
(1.04562 -0.0748395 -3.65828e-22)
(1.06431 -0.0674195 3.57436e-22)
(1.08089 -0.061096 9.09324e-24)
(1.09939 -0.0441847 3.84047e-22)
(1.10717 -0.0318207 -1.39122e-21)
(1.12035 -0.00787736 -2.46997e-22)
(1.11923 0.00843969 1.26754e-21)
(1.12342 0.0350165 -3.91905e-22)
(1.10965 0.0531654 -4.02955e-21)
(1.10474 0.0763692 3.18483e-21)
(1.07778 0.0939199 7.9827e-22)
(1.06272 0.109054 7.31731e-22)
(1.02666 0.11955 5.5779e-22)
(1.00516 0.120887 1.06443e-21)
(0.968098 0.124516 0)
(0.941409 0.111335 4.22613e-22)
(0.91512 0.104823 0)
(0.882639 0.0780728 -1.4784e-22)
(0.869315 0.0609709 0)
(0.836677 0.0288479 -5.05411e-22)
(0.83926 0.000941343 3.53394e-21)
(0.811772 -0.0496595 4.99687e-22)
(0.85011 -0.102059 -4.15842e-21)
(0.951584 0.000515885 1.30166e-20)
(0.950806 -0.000855386 0)
(0.948277 -0.00170766 2.02909e-21)
(0.948094 -0.0037486 -1.88708e-20)
(0.946667 -0.00755739 1.69896e-20)
(0.945773 -0.0110332 -4.38612e-21)
(0.94812 -0.0168709 2.00524e-20)
(0.947269 -0.0224016 -2.25975e-20)
(0.950433 -0.0295931 2.24663e-21)
(0.954089 -0.0365449 2.23156e-21)
(0.958427 -0.0447502 -1.09277e-21)
(0.964388 -0.0533158 -1.05212e-21)
(0.974723 -0.0602108 3.76233e-21)
(0.983088 -0.070076 -2.89117e-21)
(0.998345 -0.0748086 0)
(1.01164 -0.0809044 7.2202e-24)
(1.03126 -0.081192 -2.25013e-22)
(1.04751 -0.0820295 0)
(1.06959 -0.0733616 3.94172e-23)
(1.084 -0.0672792 -3.94576e-23)
(1.10491 -0.0498245 -1.95808e-23)
(1.11276 -0.0370282 0)
(1.12758 -0.0129566 0)
(1.12568 0.00537719 0)
(1.13285 0.0303959 8.43839e-22)
(1.11901 0.052266 8.6231e-22)
(1.11597 0.0747053 -3.55067e-21)
(1.0907 0.0955929 2.69365e-21)
(1.07631 0.111344 -1.61373e-21)
(1.04253 0.128013 7.60779e-22)
(1.01855 0.129242 3.20135e-21)
(0.984344 0.136313 -8.59949e-21)
(0.950651 0.125823 3.25141e-21)
(0.928201 0.122899 -1.36158e-21)
(0.890712 0.101518 2.57798e-21)
(0.876705 0.0829767 -1.06573e-21)
(0.839015 0.0568763 1.94478e-22)
(0.835417 0.0302942 2.72424e-21)
(0.801263 -0.00560786 1.23103e-21)
(0.821141 -0.060146 -3.05678e-21)
(0.948762 0.000361199 1.95083e-21)
(0.94798 -0.00142918 -2.07573e-21)
(0.945176 -0.00256576 5.20508e-23)
(0.944683 -0.00483027 2.18598e-21)
(0.944348 -0.00902851 0)
(0.942916 -0.0134952 -4.6819e-21)
(0.945107 -0.0193876 9.46844e-21)
(0.946322 -0.0254239 1.19105e-20)
(0.948416 -0.0333958 -9.64639e-21)
(0.951269 -0.0413862 2.39442e-21)
(0.958487 -0.0491031 0)
(0.962854 -0.0590155 -7.44064e-21)
(0.974339 -0.0665967 1.35948e-20)
(0.983187 -0.075517 -3.02687e-21)
(1.00023 -0.0811555 -7.99937e-22)
(1.01228 -0.0875856 2.53077e-21)
(1.0348 -0.0870757 -1.97868e-21)
(1.0494 -0.0880059 0)
(1.07437 -0.0790088 0)
(1.08763 -0.072236 0)
(1.11084 -0.0548923 2.53489e-23)
(1.11746 -0.0404533 0)
(1.13485 -0.0175515 -1.56751e-21)
(1.13258 0.00269012 5.13668e-21)
(1.14172 0.02699 -4.01318e-21)
(1.12887 0.0513803 -1.02726e-21)
(1.12738 0.0731607 0)
(1.10451 0.0983515 0)
(1.0891 0.113654 -1.01043e-22)
(1.0597 0.134723 -7.13555e-21)
(1.03214 0.139293 -6.64994e-22)
(1.0026 0.150349 5.07143e-21)
(0.962804 0.141959 1.04345e-21)
(0.941414 0.138906 2.93959e-21)
(0.900769 0.126145 -2.14024e-21)
(0.885888 0.109079 -2.98499e-22)
(0.846424 0.0874982 0)
(0.838581 0.060113 -1.93172e-22)
(0.800648 0.0366652 2.18827e-21)
(0.804872 -0.0139857 -1.9896e-21)
(0.947009 -0.00227908 -1.90084e-20)
(0.9464 -0.00457649 2.15657e-21)
(0.943507 -0.00583354 -2.24548e-21)
(0.942709 -0.00910489 2.39148e-21)
(0.942202 -0.0122987 -2.46141e-21)
(0.942102 -0.0187197 1.74563e-20)
(0.94282 -0.0244134 -2.01859e-20)
(0.944089 -0.032022 0)
(0.948789 -0.0388855 2.57559e-21)
(0.95044 -0.0485676 7.39507e-21)
(0.958652 -0.0571847 -9.9994e-21)
(0.962593 -0.0660878 -1.01592e-20)
(0.97625 -0.0750723 1.20935e-20)
(0.983586 -0.0845808 -4.14197e-21)
(1.00256 -0.0895893 1.34071e-23)
(1.0145 -0.0959021 0)
(1.03877 -0.0957731 -8.96755e-22)
(1.05287 -0.0951876 5.61609e-22)
(1.07973 -0.0871773 2.2218e-22)
(1.09187 -0.0787112 0)
(1.11677 -0.0621413 -2.65551e-23)
(1.12366 -0.0459829 -1.44973e-21)
(1.14203 -0.024951 1.86305e-21)
(1.14122 -0.000812706 -4.84293e-22)
(1.15076 0.0201495 0)
(1.1413 0.0486836 2.22247e-21)
(1.13837 0.0695677 0)
(1.12109 0.0976767 0)
(1.10418 0.113602 2.18122e-21)
(1.07948 0.139641 0)
(1.04733 0.146036 1.65556e-21)
(1.02409 0.159222 -4.08334e-21)
(0.980013 0.159061 2.95779e-21)
(0.957945 0.155527 -8.04265e-22)
(0.914471 0.144897 4.2381e-21)
(0.897502 0.130778 -3.86517e-21)
(0.856879 0.117661 0)