/*--------------------------------*- C++ -*----------------------------------*\
  =========                 |
  \\      /  F ield         | OpenFOAM: The Open Source CFD Toolbox
   \\    /   O peration     | Website:  https://openfoam.org
    \\  /    A nd           | Version:  11
     \\/     M anipulation  |
\*---------------------------------------------------------------------------*/
FoamFile
{
    format      ascii;
    class       volScalarField;
    location    "3";
    object      p;
}
// * * * * * * * * * * * * * * * * * * * * * * * * * * * * * * * * * * * * * //

dimensions      [0 2 -2 0 0 0 0];

internalField   nonuniform List<scalar> 
9600
(
0.0606736
0.0612014
0.061803
0.0623824
0.0627536
0.0629339
0.0633555
0.0627328
0.0623875
0.0604382
0.0591401
0.0580933
0.0564597
0.0538175
0.0504242
0.0464763
0.0421038
0.0375171
0.0328453
0.0282374
0.023583
0.0189016
0.014637
0.0111653
0.00838147
0.00639846
0.00507612
0.00428272
0.00412861
0.00445564
0.00501403
0.00557092
0.0061381
0.00680958
0.00725398
0.00769008
0.00793851
0.00808028
0.0082909
0.00924948
0.060957
0.0615538
0.0621854
0.0626684
0.0630425
0.0634156
0.0633787
0.0626175
0.061867
0.0594937
0.0566766
0.0569142
0.0550208
0.0516369
0.0482215
0.044426
0.040273
0.0360044
0.0316738
0.02737
0.0229997
0.0185833
0.0145427
0.011307
0.00850567
0.00661534
0.00520767
0.00440362
0.00411866
0.00435844
0.00487489
0.00552022
0.00613679
0.00683244
0.00759275
0.00791948
0.00847502
0.0085047
0.00817681
0.00760952
0.0612297
0.0618289
0.0624193
0.0628644
0.0631815
0.0633276
0.0631655
0.0623916
0.0612665
0.0598192
0.0599898
0.0581154
0.0555392
0.0534304
0.0503648
0.0464729
0.0421468
0.0376544
0.0331204
0.0286262
0.0240669
0.0195245
0.0153515
0.0117555
0.00883693
0.00668519
0.00523392
0.0043715
0.00402011
0.00416232
0.00456476
0.00504259
0.0054822
0.00593738
0.00636143
0.00683683
0.00725449
0.0077858
0.00854313
0.00927977
0.0615406
0.0621098
0.0626739
0.0630645
0.0633246
0.0634571
0.0630368
0.0621684
0.0611609
0.0599474
0.0573936
0.056162
0.053947
0.0507424
0.0471531
0.0432373
0.0391331
0.0349902
0.0307982
0.0266825
0.0224489
0.0181097
0.0141938
0.0110507
0.00823629
0.00643967
0.00515818
0.00428117
0.0039232
0.00410256
0.00463336
0.00530642
0.00606645
0.00687701
0.00761547
0.00812947
0.00856337
0.00852914
0.00817338
0.00757379
0.0618791
0.0624071
0.0629372
0.0632714
0.0635034
0.0636288
0.0629763
0.0619364
0.0607779
0.0600072
0.0591027
0.0573537
0.0552076
0.052287
0.0495692
0.0459305
0.041753
0.0373927
0.032984
0.0286267
0.0241468
0.0197825
0.015714
0.0120156
0.00939424
0.0068192
0.00512609
0.00415598
0.00376064
0.00377543
0.00408474
0.00446811
0.00482919
0.00521631
0.00555736
0.00603983
0.00660432
0.00749127
0.00839306
0.00924067
0.0622428
0.0627103
0.0632003
0.0635188
0.0637303
0.0636896
0.0628955
0.0619933
0.0609294
0.0600603
0.0582704
0.0561801
0.0536192
0.0504096
0.0467856
0.0426077
0.0384449
0.034315
0.0301448
0.0260858
0.0218948
0.0175817
0.0136894
0.0104
0.00744712
0.00594272
0.0047253
0.00383955
0.00348004
0.00360222
0.00414691
0.00488805
0.00574235
0.0067111
0.00754594
0.0081676
0.00851535
0.00843784
0.00825338
0.00779504
0.0626251
0.0630248
0.0634808
0.063795
0.0639791
0.0638122
0.0629892
0.0620251
0.0610122
0.060017
0.0585394
0.0566613
0.0543129
0.0515058
0.0485941
0.0450678
0.0409886
0.0367901
0.0325152
0.0282742
0.0238981
0.0196451
0.0157197
0.0121756
0.00908939
0.00654772
0.0046809
0.00365865
0.00322131
0.0032493
0.00349972
0.00386648
0.00416841
0.00453473
0.00484365
0.00525118
0.00603031
0.00718571
0.00818323
0.00904299
0.0630194
0.063356
0.0638
0.064119
0.0642557
0.0639623
0.0630555
0.0621299
0.0612243
0.0601747
0.0584436
0.0562364
0.0536159
0.0504312
0.0466884
0.042433
0.0380815
0.0338682
0.0296474
0.0255072
0.0212688
0.0169873
0.0129899
0.009508
0.00690891
0.00502637
0.0039866
0.00310426
0.00272838
0.0028222
0.00335018
0.00416167
0.0051264
0.00621511
0.0073393
0.00817002
0.00834533
0.00824537
0.00826255
0.00798422
0.0634385
0.0637385
0.0641761
0.064462
0.0645283
0.0641398
0.0632813
0.062326
0.0613968
0.0602346
0.0585349
0.0563793
0.053788
0.0507958
0.0475594
0.0440277
0.0400517
0.0358989
0.0316963
0.0275704
0.0232865
0.0190429
0.0152817
0.011841
0.00847006
0.00617548
0.00393043
0.00281702
0.00237267
0.00242032
0.00272859
0.00311275
0.00347556
0.00380712
0.00411686
0.0046474
0.00580994
0.0068716
0.00794704
0.0088642
0.0638897
0.0641824
0.0645929
0.0648368
0.0648279
0.064376
0.0635633
0.0626027
0.0616316
0.0604448
0.0586325
0.0562833
0.0535828
0.050398
0.0466307
0.0425144
0.0380211
0.0335786
0.0292154
0.0249049
0.020573
0.0162514
0.0120709
0.00827602
0.00557609
0.00343315
0.00279999
0.00199202
0.00163864
0.00174193
0.00220964
0.00306801
0.00413903
0.00536979
0.00673594
0.00773743
0.00793856
0.00802146
0.00807389
0.00797385
0.0644158
0.064686
0.0650542
0.0652299
0.0651658
0.0647321
0.063913
0.0629296
0.0619341
0.0606325
0.0586745
0.0562781
0.0535733
0.0504587
0.0469275
0.0431105
0.0390357
0.0348632
0.0306061
0.0264395
0.0222578
0.0179948
0.0142633
0.0109861
0.00766121
0.00483723
0.00267487
0.00155883
0.00108701
0.0012152
0.00161838
0.00211408
0.00259125
0.00297355
0.00336161
0.00400178
0.00509627
0.00631781
0.00770593
0.00865245
0.0650166
0.0652264
0.0655524
0.0656771
0.0655725
0.0651676
0.0643504
0.0633218
0.0622912
0.0608858
0.0588277
0.0563345
0.0535884
0.0504283
0.0466522
0.0424364
0.0379325
0.0333072
0.0287294
0.02422
0.0197542
0.0153147
0.01096
0.00691275
0.0039908
0.00246269
0.00122831
0.000410032
0.000108948
0.000224193
0.000731651
0.0015667
0.0027547
0.004103
0.00565167
0.00691154
0.00741518
0.00764221
0.00768656
0.00780312
0.0656969
0.0658197
0.0660978
0.066196
0.0660693
0.0656769
0.0648413
0.0637798
0.0626857
0.0611665
0.0589546
0.0563758
0.0535936
0.0503756
0.0466249
0.0424723
0.0381313
0.0337873
0.0293303
0.0249904
0.0207868
0.0164637
0.0126059
0.00941652
0.00618418
0.0030131
0.00101555
-0.00018233
-0.000695907
-0.000558382
-2.12144e-05
0.000683136
0.00137858
0.00192277
0.00244876
0.00315601
0.00421764
0.00554179
0.00721409
0.00827318
0.0664237
0.0664559
0.0666964
0.0668176
0.0666762
0.0662332
0.0654004
0.0643163
0.0630877
0.0614421
0.0591908
0.056562
0.0536912
0.0504223
0.0465826
0.0422797
0.0376583
0.0328658
0.0280709
0.0233569
0.0186936
0.0141348
0.00964793
0.00532991
0.00201744
0.000159621
-0.00113493
-0.00182017
-0.00205388
-0.00181009
-0.00127215
-0.000408336
0.000861031
0.00234413
0.00401594
0.00559068
0.00651592
0.00703636
0.00715587
0.00755478
0.0671658
0.0671526
0.0673941
0.0675161
0.0673394
0.0668838
0.0660518
0.0648885
0.063531
0.0618182
0.0595204
0.0567778
0.0537866
0.0503998
0.0464572
0.0420795
0.0373936
0.032681
0.0279441
0.0232893
0.018897
0.014466
0.0103245
0.00700407
0.00391194
0.000892644
-0.000881945
-0.00249966
-0.00309676
-0.00298971
-0.00230262
-0.0014309
-0.000444292
0.000443921
0.00116945
0.00197585
0.00302191
0.00434968
0.00631667
0.0076587
0.0679865
0.0679694
0.0681864
0.0682996
0.0680879
0.0675987
0.0667693
0.0655696
0.0640702
0.0622251
0.0598814
0.0570767
0.0539289
0.0504191
0.0464109
0.0419179
0.0370786
0.0321173
0.0271063
0.0221819
0.0172893
0.0125372
0.00795728
0.00346835
-0.000334044
-0.00288127
-0.00469818
-0.00485996
-0.00499779
-0.00464703
-0.00390863
-0.00297224
-0.00169245
-7.62796e-05
0.00174123
0.00366909
0.00519307
0.00608286
0.00639835
0.00702085
0.0689011
0.0688325
0.0690563
0.069194
0.068952
0.068412
0.0676145
0.0663588
0.0646589
0.0626952
0.0603676
0.0574499
0.0540832
0.0504271
0.0462801
0.0416445
0.036619
0.0315308
0.0264945
0.0214707
0.0166532
0.0119848
0.00750899
0.0038049
0.000724414
-0.00208847
-0.00433988
-0.0058483
-0.00639971
-0.00626699
-0.00551077
-0.00434429
-0.00308795
-0.00181872
-0.000747267
0.00021713
0.00140517
0.00322062
0.00509943
0.00655156
0.069957
0.0698383
0.0700932
0.0702297
0.0699109
0.0693242
0.0685524
0.0672104
0.0653398
0.0632872
0.0608939
0.0578409
0.0542601
0.0504171
0.0461493
0.0413714
0.0362164
0.030963
0.0256604
0.0204604
0.0153746
0.0103747
0.00563334
0.00108801
-0.00307204
-0.00609747
-0.00785228
-0.00889738
-0.00887435
-0.00850827
-0.0075812
-0.00643866
-0.00501722
-0.00328842
-0.00133327
0.000879356
0.00275186
0.0038427
0.00484112
0.00576495
0.0711062
0.0709722
0.0712608
0.0713775
0.0709927
0.0703574
0.0695873
0.0682117
0.0661735
0.0639312
0.0614344
0.0582968
0.0544989
0.0504369
0.0459879
0.0410398
0.035672
0.030148
0.0246985
0.0193367
0.0141116
0.00910455
0.00427115
5.78419e-06
-0.00348259
-0.00629009
-0.00856175
-0.00993369
-0.0107346
-0.0106397
-0.00985495
-0.00850736
-0.00694735
-0.00523108
-0.00361671
-0.00220923
-0.00075861
0.00117037
0.00303772
0.00469042
0.0724335
0.0722877
0.0725542
0.0726402
0.0722364
0.0715439
0.0707327
0.0693242
0.0671068
0.0646246
0.0620179
0.058813
0.0547932
0.0504034
0.0457406
0.0406167
0.0350331
0.0293494
0.0236984
0.0181523
0.0127643
0.00744044
0.00234491
-0.00226414
-0.00655883
-0.0101048
-0.0123066
-0.0132583
-0.013704
-0.0135768
-0.0125996
-0.0111627
-0.00954202
-0.00765183
-0.00553678
-0.00304886
-0.000659699
0.00115964
0.00256235
0.00363507
0.0739521
0.0737708
0.0739752
0.0740419
0.0736579
0.0729117
0.0720049
0.0705356
0.0681657
0.0654392
0.0626572
0.0593569
0.0550992
0.0503593
0.045447
0.0401579
0.0343944
0.0284183
0.0224758
0.0166952
0.0110265
0.00556496
0.000297497
-0.00447482
-0.00852451
-0.0117211
-0.0141227
-0.015727
-0.0161233
-0.0163077
-0.0156497
-0.0142119
-0.0123428
-0.0102549
-0.00806396
-0.00605622
-0.0041291
-0.00189003
0.000398191
0.00214061
0.0756372
0.0753965
0.0755703
0.075655
0.0753048
0.0744827
0.0734067
0.0718395
0.0693592
0.0663663
0.0633126
0.059847
0.0554057
0.0503337
0.0451135
0.0396142
0.0335409
0.0272542
0.0210713
0.0150348
0.00922918
0.00361573
-0.00192542
-0.006913
-0.0113019
-0.0152347
-0.0181797
-0.019901
-0.020718
-0.0203914
-0.0194351
-0.0178431
-0.0158304
-0.0136159
-0.0112212
-0.00859113
-0.00575761
-0.00326189
-0.00121469
0.000469309
0.0775399
0.0772276
0.077373
0.0774667
0.0771411
0.0762337
0.0749466
0.0732689
0.0706968
0.0674065
0.0639912
0.0603078
0.0557077
0.0503139
0.0447014
0.0388869
0.0325556
0.0259803
0.0195038
0.0132807
0.00718105
0.00125748
-0.00446619
-0.009852
-0.014571
-0.0184201
-0.021278
-0.023225
-0.0242637
-0.0241728
-0.0235039
-0.0220416
-0.0199239
-0.0174685
-0.0147382
-0.0119721
-0.00942705
-0.00683502
-0.00414157
-0.00191171
0.0796986
0.0793143
0.0794566
0.0795376
0.0791875
0.0781955
0.076677
0.0748287
0.0721781
0.0685835
0.0647041
0.0607406
0.0559417
0.0502026
0.0441202
0.0379909
0.0314628
0.0245434
0.0177104
0.0111696
0.00472565
-0.00141468
-0.00731609
-0.0130007
-0.0178899
-0.0219966
-0.0254617
-0.0278866
-0.0291063
-0.0291554
-0.0284299
-0.0270041
-0.0248589
-0.0221879
-0.0192458
-0.016254
-0.0130282
-0.00983713
-0.00701619
-0.00468863
0.0822017
0.081702
0.0818158
0.0818501
0.0814133
0.0803522
0.0786141
0.0765151
0.0737625
0.0699062
0.0654739
0.0611002
0.0560911
0.0499964
0.0434021
0.0368799
0.0301076
0.022896
0.0156272
0.00871641
0.00208543
-0.00439617
-0.0105354
-0.0163392
-0.0216678
-0.0263171
-0.0301202
-0.0327382
-0.034246
-0.0346584
-0.0340187
-0.0326517
-0.0305574
-0.0278094
-0.0246577
-0.0212215
-0.0177814
-0.0145188
-0.0114292
-0.00869809
0.0851133
0.0844675
0.0845123
0.0844854
0.083915
0.0827455
0.080816
0.0783299
0.0753543
0.0713367
0.0663376
0.0613535
0.0560933
0.0497161
0.0425379
0.0354368
0.0283881
0.02094
0.0132285
0.00591822
-0.000932761
-0.00769598
-0.0141397
-0.0202382
-0.025965
-0.030917
-0.0349928
-0.0381695
-0.0402895
-0.0412218
-0.0408863
-0.0395393
-0.0374414
-0.0346675
-0.0312496
-0.0275808
-0.0238345
-0.0200731
-0.0164839
-0.0135407
0.0884229
0.0876152
0.0875376
0.0874297
0.086725
0.0853416
0.0831787
0.0802624
0.0768904
0.0727586
0.067347
0.0615055
0.0558237
0.0492724
0.0415203
0.0336114
0.026194
0.0186839
0.0106353
0.00259007
-0.00468343
-0.011443
-0.0180836
-0.0245292
-0.0305607
-0.0359383
-0.0405296
-0.0443253
-0.046955
-0.048503
-0.0487037
-0.0476667
-0.045613
-0.0428452
-0.0394756
-0.0356309
-0.0314084
-0.0272139
-0.0232275
-0.019909
0.0922157
0.0912293
0.0910113
0.0907484
0.0898616
0.0881508
0.0856754
0.0823508
0.0784224
0.0739286
0.0683959
0.061749
0.055068
0.0483603
0.0404578
0.0316242
0.0232409
0.015666
0.00783813
-0.00070995
-0.00896442
-0.0162049
-0.022801
-0.0291835
-0.0354179
-0.0414899
-0.0467271
-0.050993
-0.0542532
-0.0565712
-0.0575751
-0.0573429
-0.0558042
-0.05317
-0.0497245
-0.0456719
-0.0411926
-0.0365114
-0.0321033
-0.0282979
0.0965467
0.0952993
0.0949315
0.0944225
0.0933278
0.0912693
0.0883406
0.0845552
0.0800165
0.0748478
0.0688891
0.061901
0.0541712
0.0465897
0.0387223
0.0295717
0.0201163
0.0114945
0.00377687
-0.00431276
-0.0129411
-0.0212136
-0.0284818
-0.0349827
-0.0410828
-0.0473716
-0.0533962
-0.058506
-0.0626334
-0.0656806
-0.0674454
-0.0681781
-0.0675167
-0.0655597
-0.0625141
-0.058547
-0.0536886
-0.048473
-0.0433105
-0.0389441
0.101513
0.0998927
0.0993508
0.0985713
0.0970418
0.0946205
0.0911802
0.086805
0.0815031
0.0755612
0.0689044
0.0613595
0.0530368
0.0442397
0.0357406
0.0266547
0.0168885
0.00716871
-0.00157006
-0.00952964
-0.0175227
-0.0260051
-0.034136
-0.0414146
-0.0478473
-0.054226
-0.0605612
-0.0666088
-0.0720078
-0.0763407
-0.0791741
-0.0807114
-0.0809136
-0.0797711
-0.0775153
-0.0742583
-0.0698024
-0.0647238
-0.0591859
-0.0544782
0.107331
0.105177
0.104198
0.103089
0.101104
0.098141
0.09401
0.0888941
0.0828801
0.0760163
0.0684352
0.059952
0.0509642
0.041316
0.0316423
0.0223186
0.0125782
0.0024425
-0.0071975
-0.0157868
-0.0236295
-0.0317535
-0.0400077
-0.0478419
-0.0549887
-0.0621172
-0.0688061
-0.0755269
-0.0817783
-0.0877805
-0.0924591
-0.0957773
-0.0973329
-0.0970968
-0.0954619
-0.0927089
-0.0887732
-0.0840841
-0.0791052
-0.0747633
0.114066
0.111303
0.109636
0.107834
0.105178
0.101389
0.096479
0.09042
0.0834281
0.0755379
0.0668246
0.0573538
0.0474752
0.0369758
0.0264158
0.0162604
0.00638005
-0.00369114
-0.0134224
-0.0226951
-0.0308663
-0.0389008
-0.0465961
-0.0544238
-0.0621039
-0.0700279
-0.0776853
-0.0851955
-0.0927181
-0.0997792
-0.106451
-0.111881
-0.115853
-0.118095
-0.11829
-0.116953
-0.113933
-0.109744
-0.105236
-0.100965
0.121682
0.118236
0.116142
0.113813
0.110433
0.10564
0.0993836
0.0919822
0.0834437
0.0740394
0.0641249
0.0533868
0.042406
0.0310246
0.0196821
0.00883797
-0.00149306
-0.0114725
-0.0208452
-0.030289
-0.0388283
-0.046803
-0.0540098
-0.0613756
-0.0690833
-0.07732
-0.0857197
-0.0943157
-0.103363
-0.112252
-0.121186
-0.129285
-0.136379
-0.141801
-0.145285
-0.146693
-0.145986
-0.143607
-0.140239
-0.136547
0.129511
0.124633
0.12099
0.117064
0.112269
0.106147
0.0989068
0.0903465
0.0803781
0.0693287
0.057867
0.0458731
0.0337401
0.0216465
0.00972982
-0.00178249
-0.0124952
-0.0221482
-0.031364
-0.0396416
-0.047928
-0.0551608
-0.0619116
-0.068631
-0.0760772
-0.0841055
-0.0929144
-0.102788
-0.112943
-0.123712
-0.134999
-0.146477
-0.157488
-0.167606
-0.176333
-0.183037
-0.187258
-0.189101
-0.188706
-0.187134
0.141439
0.136388
0.131937
0.126674
0.119802
0.110912
0.100118
0.0878982
0.0747083
0.0611244
0.047338
0.0335812
0.0200553
0.00700202
-0.00559699
-0.0173752
-0.0282044
-0.0374389
-0.0459251
-0.0530249
-0.0595935
-0.0652646
-0.0705737
-0.0761505
-0.0821678
-0.0890687
-0.0977678
-0.107951
-0.119371
-0.132103
-0.146077
-0.160869
-0.176175
-0.191678
-0.207023
-0.221642
-0.235065
-0.246781
-0.256288
-0.263772
0.14542
0.136167
0.127799
0.119467
0.110395
0.0995782
0.0874513
0.0743246
0.0598992
0.0448251
0.029271
0.0138606
-0.00108235
-0.0151983
-0.0282562
-0.039978
-0.0502796
-0.0586579
-0.0655047
-0.0707461
-0.0746739
-0.0778212
-0.0803347
-0.083312
-0.0869254
-0.0913967
-0.0977832
-0.106524
-0.117917
-0.131356
-0.147089
-0.164918
-0.184273
-0.204835
-0.226903
-0.250029
-0.274695
-0.300429
-0.326595
-0.351483
0.171842
0.162625
0.151138
0.136844
0.119859
0.101853
0.0831689
0.0643411
0.0454397
0.0266716
0.00838011
-0.00939404
-0.0260308
-0.0416283
-0.0555095
-0.0675968
-0.0775339
-0.0849896
-0.0901807
-0.0932579
-0.0944007
-0.0943218
-0.0934683
-0.0921775
-0.0919506
-0.0930621
-0.0958696
-0.100992
-0.109657
-0.121776
-0.137279
-0.155659
-0.176445
-0.199988
-0.22569
-0.253254
-0.283797
-0.318103
-0.356413
-0.396229
0.128807
0.109367
0.0915756
0.0743362
0.0566632
0.0378594
0.0174711
-0.00416059
-0.026155
-0.0480573
-0.0686722
-0.0880161
-0.105204
-0.120245
-0.132535
-0.141842
-0.148033
-0.15081
-0.150445
-0.147016
-0.140872
-0.132464
-0.123069
-0.113311
-0.105028
-0.0989093
-0.0960702
-0.0959353
-0.0986921
-0.104559
-0.114076
-0.125803
-0.142348
-0.161801
-0.1841
-0.210229
-0.237331
-0.263745
-0.287512
-0.311238
0.205215
0.177185
0.145788
0.114965
0.0850942
0.0562377
0.0283636
0.0011018
-0.0248487
-0.0492786
-0.0714128
-0.09083
-0.107229
-0.120264
-0.129678
-0.134904
-0.135822
-0.131984
-0.123499
-0.110273
-0.0927807
-0.0720377
-0.0493899
-0.0265717
-0.00538225
0.01189
0.0240908
0.0296509
0.0287002
0.0214325
0.0101853
-0.00167772
-0.00338368
0.00660697
0.0121985
-0.0018258
-0.0341801
-0.073752
-0.107929
-0.140971
-0.0994997
-0.132182
-0.166203
-0.207874
-0.253919
-0.29951
-0.342293
-0.380958
-0.413355
-0.437981
-0.457599
-0.475038
-0.490318
-0.501257
-0.505928
-0.502792
-0.491443
-0.471943
-0.444854
-0.411605
-0.373319
-0.330934
-0.284893
-0.23676
-0.188592
-0.143473
-0.10449
-0.0750887
-0.0575001
-0.0539713
-0.0647532
-0.0884368
-0.0986892
-0.0921604
-0.0927054
-0.0951833
-0.0999601
-0.109674
-0.120172
-0.129994
0.00900791
0.00880114
0.00860649
0.00899301
0.00928118
0.0101115
0.0105613
0.0108151
0.0106863
0.0103904
0.00970436
0.0084778
0.00683429
0.00489895
0.00281725
0.000833284
-0.000921863
-0.00244558
-0.00365633
-0.00457283
-0.00529323
-0.00572945
-0.00613569
-0.00641195
-0.00653292
-0.00661167
-0.00659263
-0.00651052
-0.00634176
-0.00613032
-0.00595986
-0.00579395
-0.00560421
-0.00545005
-0.00530354
-0.00511611
-0.00473566
-0.00463693
-0.00364404
-0.00482601
0.00758816
0.00872597
0.0088551
0.00916762
0.00961075
0.0103668
0.0110071
0.0113571
0.0113721
0.0109621
0.0101846
0.00887306
0.00709819
0.00501262
0.00278761
0.00067925
-0.0011857
-0.00278158
-0.00402056
-0.00493873
-0.00570126
-0.00610663
-0.00654469
-0.00679246
-0.0069013
-0.00698368
-0.00699251
-0.00687378
-0.00663842
-0.00637522
-0.00618877
-0.00601785
-0.00583131
-0.00568256
-0.00548954
-0.00526739
-0.0050047
-0.00481447
-0.00482109
-0.00661567
0.0098372
0.00885302
0.00905226
0.00939439
0.00983178
0.0105209
0.0113563
0.0118394
0.0120206
0.0115875
0.0107387
0.0093703
0.00747441
0.00524439
0.00289606
0.000676875
-0.00128799
-0.00295546
-0.0042386
-0.00526061
-0.00608457
-0.00654778
-0.00696837
-0.0071844
-0.0073037
-0.00734864
-0.00733362
-0.00718978
-0.0069252
-0.00667988
-0.00650936
-0.00631701
-0.00611925
-0.0059352
-0.00570186
-0.00548345
-0.0052205
-0.00483903
-0.00418842
-0.00371274
0.00776188
0.0088946
0.00920608
0.00957982
0.00996645
0.010671
0.0116828
0.0123202
0.0126475
0.0122732
0.0113694
0.00996146
0.00795761
0.0055865
0.00311561
0.000786956
-0.00126124
-0.00299062
-0.00439095
-0.00561498
-0.00642601
-0.00697765
-0.00736031
-0.00757419
-0.00768713
-0.00766796
-0.00761765
-0.00746024
-0.00721714
-0.00702856
-0.00688202
-0.00665063
-0.00642341
-0.00618123
-0.00591347
-0.00567633
-0.00542972
-0.0052516
-0.00524178
-0.00596756
0.00993325
0.00909012
0.00927949
0.00969713
0.0101785
0.0109362
0.0120847
0.0128383
0.0132671
0.013017
0.0120834
0.0106355
0.00854414
0.0060435
0.00344065
0.000984799
-0.00117767
-0.00297994
-0.00457848
-0.00591108
-0.00670527
-0.00734276
-0.00774657
-0.0079886
-0.00808106
-0.00806722
-0.00796829
-0.00777666
-0.00754351
-0.00741258
-0.00724692
-0.00697117
-0.00671986
-0.00642318
-0.00613571
-0.00587651
-0.00562132
-0.00530541
-0.00475914
-0.00398654
0.00786101
0.00914383
0.00930752
0.00980311
0.0105331
0.0113497
0.0125505
0.0133876
0.0138897
0.0138204
0.0128908
0.0113854
0.00921502
0.00658739
0.00382987
0.0012208
-0.00109748
-0.00304206
-0.00479204
-0.00608606
-0.0069992
-0.00768277
-0.00815769
-0.00845952
-0.00855123
-0.00856969
-0.0084657
-0.00820851
-0.00795822
-0.00784016
-0.00760487
-0.00729805
-0.00701924
-0.00668354
-0.00638809
-0.0061032
-0.00585228
-0.00568496
-0.00566445
-0.00591831
0.00995729
0.00926465
0.00934011
0.0100189
0.0109509
0.0117711
0.0130226
0.0140052
0.0145505
0.0146678
0.0138024
0.0122407
0.0099704
0.00719273
0.00425043
0.00148749
-0.000969605
-0.00319011
-0.00494415
-0.00625113
-0.00728404
-0.00801857
-0.00856081
-0.00890077
-0.00901085
-0.00906359
-0.00899946
-0.0086838
-0.00844007
-0.0083125
-0.00802453
-0.00769956
-0.00738258
-0.00700984
-0.006683
-0.00637691
-0.0060974
-0.00579161
-0.00533184
-0.00462525
0.00800933
0.00918747
0.00947472
0.0103122
0.0113474
0.0121409
0.0134641
0.0146613
0.0153244
0.0155804
0.01482
0.0132034
0.0108168
0.00787568
0.00473569
0.00182104
-0.000734248
-0.00327804
-0.00501545
-0.00646127
-0.00753764
-0.00834341
-0.00895275
-0.00930056
-0.00944117
-0.00954557
-0.00947391
-0.00915473
-0.00897885
-0.00884057
-0.00849987
-0.00815909
-0.0077936
-0.00738492
-0.00702981
-0.00669767
-0.0063802
-0.00614157
-0.00607059
-0.00607627
0.00992128
0.00922539
0.00967884
0.0105935
0.0116915
0.0125602
0.0139551
0.0153257
0.0162149
0.0165872
0.0159288
0.0142602
0.0117445
0.00863034
0.00529687
0.00223102
-0.000524709
-0.00321681
-0.00507341
-0.00664657
-0.00781787
-0.00873901
-0.00941836
-0.00979025
-0.00997265
-0.0101108
-0.00996388
-0.00967515
-0.0095729
-0.00936594
-0.0089709
-0.00861631
-0.00821109
-0.00779067
-0.00740298
-0.00703309
-0.0066828
-0.00634344
-0.00591234
-0.00538097
0.00816453
0.00913056
0.0098802
0.0107523
0.0119351
0.0130169
0.0145162
0.0160398
0.0171865
0.0177
0.017149
0.0154601
0.0128039
0.00949685
0.00595728
0.00273274
-0.000363381
-0.00303092
-0.0051299
-0.0068112
-0.00814506
-0.0092116
-0.00997334
-0.0103683
-0.0106216
-0.0107637
-0.0105389
-0.0102981
-0.0102157
-0.00990575
-0.00947614
-0.00907937
-0.00862857
-0.00817338
-0.00774836
-0.00735768
-0.006996
-0.00668962
-0.00649694
-0.0063535
0.00977893
0.00919783
0.00996279
0.0108451
0.01212
0.013426
0.0150619
0.0168357
0.0182712
0.0189772
0.0185286
0.0168284
0.0140173
0.0104628
0.00668324
0.0032632
-0.000132795
-0.00281315
-0.00516565
-0.00700987
-0.00851672
-0.00973233
-0.0105632
-0.0109726
-0.0113007
-0.0114356
-0.0112199
-0.0110512
-0.0108922
-0.0104541
-0.00995297
-0.00949355
-0.00901915
-0.00855125
-0.00812642
-0.00772553
-0.00735713
-0.00699016
-0.00655854
-0.00611784
0.00833859
0.00919794
0.00997733
0.0109054
0.01231
0.013863
0.0156687
0.0177391
0.0194829
0.0204374
0.0201073
0.0183808
0.015389
0.0115342
0.00749362
0.00378689
0.000227611
-0.00262378
-0.00523267
-0.00727
-0.00893991
-0.0102611
-0.0111353
-0.0115964
-0.0120065
-0.0121229
-0.0119302
-0.0117681
-0.0114898
-0.0109646
-0.0104457
-0.00999367
-0.00952092
-0.00905012
-0.0086241
-0.00820411
-0.00779962
-0.00740134
-0.00704863
-0.00675271
0.00919837
0.0091433
0.00993242
0.0109251
0.0124724
0.0143415
0.0163901
0.0187672
0.0208206
0.0220895
0.0219161
0.0201265
0.016943
0.0127356
0.00843699
0.0043806
0.000661802
-0.00249291
-0.00533526
-0.00756256
-0.00942121
-0.0107946
-0.0117238
-0.0122497
-0.0126799
-0.0127264
-0.0125565
-0.0124335
-0.0121364
-0.0116185
-0.0111436
-0.0106899
-0.0101959
-0.00971061
-0.00925164
-0.00878306
-0.00831613
-0.00784366
-0.00734778
-0.00687515
0.00844552
0.00896481
0.00979458
0.0109191
0.012622
0.0148195
0.0171275
0.0198475
0.0222692
0.0239158
0.0239648
0.0220717
0.0186864
0.0140827
0.00952137
0.00510869
0.00108387
-0.00239427
-0.00544676
-0.0078813
-0.00993857
-0.0113816
-0.0123361
-0.0128987
-0.0133308
-0.0133936
-0.0133475
-0.0133134
-0.0129961
-0.0124919
-0.0120103
-0.0115049
-0.0109645
-0.0104437
-0.00993324
-0.00939315
-0.00885464
-0.00831385
-0.00779216
-0.00738012
0.00875293
0.00877802
0.00961992
0.010938
0.0127866
0.0152428
0.0178362
0.0209318
0.0238288
0.0259023
0.0262554
0.024265
0.0206146
0.0155812
0.0106812
0.00592008
0.00150993
-0.00231282
-0.00556427
-0.00822835
-0.0104571
-0.0120094
-0.0129758
-0.0136284
-0.0141356
-0.0142798
-0.0143492
-0.0143282
-0.0139255
-0.013397
-0.0128709
-0.0123017
-0.0117168
-0.0111825
-0.0106221
-0.0100277
-0.00944051
-0.00884209
-0.00828247
-0.00796492
0.0080502
0.008636
0.00946668
0.010901
0.0129261
0.0156188
0.018512
0.0220103
0.0255027
0.0281222
0.0287822
0.0266815
0.0226894
0.0172045
0.0116778
0.00681873
0.00203126
-0.00220774
-0.00567881
-0.0085716
-0.0109579
-0.012613
-0.0136431
-0.0144592
-0.0150297
-0.0152093
-0.0153376
-0.0152573
-0.0147626
-0.0142189
-0.0136597
-0.0130806
-0.0125075
-0.0119812
-0.0114012
-0.0107913
-0.0101703
-0.00953365
-0.00891358
-0.0085736
0.00775249
0.00836725
0.00922408
0.010737
0.0129474
0.0159703
0.0192327
0.0231538
0.0272809
0.0305816
0.0316089
0.0292839
0.0247027
0.0186341
0.01284
0.00798915
0.00267722
-0.00201069
-0.00576053
-0.00889916
-0.0114073
-0.0131725
-0.0143589
-0.015328
-0.0159158
-0.0161465
-0.0163108
-0.0161511
-0.0156185
-0.0150849
-0.0145217
-0.0139821
-0.013452
-0.012941
-0.0123281
-0.0116647
-0.0110031
-0.0103347
-0.0096845
-0.00929861
0.00687894
0.0078708
0.00888237
0.0104524
0.0127955
0.0162113
0.0199346
0.0243567
0.0291826
0.0332578
0.0347697
0.0321143
0.026754
0.0200423
0.0143195
0.00889153
0.0033727
-0.00171469
-0.00578124
-0.00921857
-0.0118611
-0.0138041
-0.0151998
-0.0162649
-0.0168661
-0.0172072
-0.0174042
-0.0171681
-0.0166491
-0.0161545
-0.0156028
-0.0150662
-0.0145352
-0.0139696
-0.0132829
-0.0125555
-0.0118424
-0.0111442
-0.0105014
-0.0100977
0.00607777
0.00731312
0.00844899
0.0100622
0.0124437
0.0162393
0.0205192
0.0254877
0.0311725
0.0361296
0.0382675
0.0352445
0.0289596
0.0218467
0.015817
0.00987499
0.00391194
-0.00139532
-0.0058195
-0.00959064
-0.0124575
-0.014554
-0.0161461
-0.0172591
-0.0179248
-0.0183837
-0.0186266
-0.0183804
-0.0179145
-0.0174194
-0.0168146
-0.0162246
-0.0156169
-0.0149694
-0.0142105
-0.0134322
-0.0126629
-0.011964
-0.0113513
-0.010958
0.00500314
0.00652138
0.00773557
0.00949958
0.011977
0.0160117
0.0208854
0.0264153
0.0331102
0.0391486
0.0420607
0.0387502
0.0313474
0.0240715
0.0175901
0.0111176
0.0045938
-0.0010299
-0.00589128
-0.00999175
-0.0130591
-0.0153229
-0.0171057
-0.0182897
-0.0191098
-0.0196963
-0.019994
-0.0197672
-0.0193311
-0.0187555
-0.0181199
-0.0174827
-0.0168149
-0.0161268
-0.0153172
-0.0145019
-0.0136661
-0.012926
-0.0122781
-0.0119175
0.00369383
0.00539249
0.00666407
0.00860517
0.0113044
0.0154918
0.0209429
0.0270857
0.0348306
0.0422362
0.0461957
0.0426485
0.0340176
0.0264831
0.0198308
0.012724
0.00567251
-0.000628418
-0.00580833
-0.0103076
-0.0135483
-0.0161391
-0.0181133
-0.0194146
-0.0204306
-0.0211184
-0.021433
-0.021231
-0.0208423
-0.0202602
-0.0196575
-0.0190305
-0.0183805
-0.0176677
-0.0168043
-0.015909
-0.0149765
-0.0141362
-0.0134004
-0.0130364
0.00189233
0.00371103
0.00503945
0.00707289
0.0100466
0.0143895
0.0204746
0.0274115
0.0362601
0.0452321
0.0507703
0.0468893
0.0372448
0.0294838
0.0224491
0.0146177
0.00687803
0.000171124
-0.00569132
-0.0105425
-0.0141132
-0.0171138
-0.0192448
-0.0207159
-0.0218633
-0.0225947
-0.0229309
-0.0227829
-0.0224863
-0.0219888
-0.0214464
-0.0208602
-0.0202011
-0.0194351
-0.0184908
-0.0175136
-0.0165156
-0.0155998
-0.0147829
-0.0143622
-0.000261367
0.00156347
0.00287846
0.00477243
0.00799333
0.0125016
0.0192141
0.0271008
0.0372024
0.0478737
0.0548178
0.0523963
0.041755
0.0332997
0.0253281
0.0168691
0.00828521
0.00104302
-0.00557517
-0.0108152
-0.0149381
-0.0183228
-0.0205928
-0.0222556
-0.0234672
-0.0242495
-0.024567
-0.0244355
-0.0241942
-0.0237314
-0.0232447
-0.0226244
-0.0219378
-0.0211255
-0.020139
-0.0191574
-0.0181316
-0.0172025
-0.0163447
-0.0158737
-0.00288833
-0.00102057
0.000344821
0.00203701
0.00529469
0.00987238
0.017075
0.0260371
0.0373491
0.049885
0.0588267
0.0581798
0.047934
0.0379785
0.028836
0.0195778
0.0100994
0.00183018
-0.00548601
-0.0112845
-0.0160129
-0.0197047
-0.022171
-0.0240557
-0.0253581
-0.0261911
-0.0264636
-0.0263986
-0.0261375
-0.0256269
-0.025123
-0.0244045
-0.023736
-0.0228983
-0.0219394
-0.020917
-0.0198262
-0.0188808
-0.0179893
-0.0175102
-0.00644996
-0.0044663
-0.00311609
-0.00144989
0.0016388
0.00628995
0.0136584
0.0238709
0.0363145
0.0505866
0.0619207
0.0639001
0.0552891
0.0437962
0.0334726
0.0229802
0.0123685
0.00291402
-0.00515459
-0.0117044
-0.0169819
-0.0209918
-0.0238267
-0.0260776
-0.0276412
-0.0286557
-0.0290784
-0.0291006
-0.0287713
-0.0282521
-0.0276757
-0.0269188
-0.0262331
-0.0252331
-0.0241419
-0.0228951
-0.0216987
-0.0206777
-0.0197363
-0.0192969
-0.0113528
-0.00951443
-0.00876522
-0.00719345
-0.00443433
0.000395675
0.00786105
0.0193523
0.0333311
0.0491905
0.0630102
0.0682741
0.0630575
0.0510174
0.0393127
0.0270924
0.0151947
0.00469372
-0.00420119
-0.011561
-0.0175
-0.0219978
-0.0255094
-0.0283467
-0.030326
-0.0316326
-0.0322365
-0.032344
-0.032121
-0.0316716
-0.0310205
-0.0301602
-0.0291976
-0.027869
-0.0265415
-0.0251375
-0.0239302
-0.0228027
-0.0218192
-0.0214335
-0.0176677
-0.0161533
-0.0165173
-0.0156996
-0.0137119
-0.00922767
-0.00136161
0.0109913
0.0268982
0.0447261
0.0609223
0.0706526
0.0697648
0.0591456
0.0460625
0.0318902
0.0185904
0.00695077
-0.00290095
-0.0111735
-0.0177932
-0.0229404
-0.0272595
-0.0305262
-0.0328134
-0.0343722
-0.035152
-0.0354993
-0.0354112
-0.0349274
-0.0341427
-0.0331116
-0.0319359
-0.0305908
-0.0293629
-0.0280853
-0.0269216
-0.0256471
-0.0245715
-0.0241687
-0.0255384
-0.0242739
-0.0255597
-0.0262616
-0.0254696
-0.0224066
-0.0145149
-0.00203058
0.0150788
0.0354314
0.0543885
0.0691527
0.0741777
0.0674893
0.0535238
0.0373515
0.0222707
0.00909609
-0.00212292
-0.01138
-0.0186033
-0.0245034
-0.0292533
-0.032744
-0.0353457
-0.0370821
-0.0379864
-0.0384303
-0.0382713
-0.0378221
-0.0371961
-0.03641
-0.0354926
-0.0344702
-0.0333878
-0.0321392
-0.030834
-0.0293277
-0.0280901
-0.0276173
-0.0361546
-0.0354591
-0.0375306
-0.039905
-0.0404402
-0.0389359
-0.0324858
-0.0207027
-0.00385141
0.0187805
0.0416212
0.0619195
0.0744333
0.0743626
0.0607866
0.0432962
0.0261894
0.0109289
-0.00199881
-0.0122915
-0.0204872
-0.0271875
-0.0324357
-0.0364138
-0.0393271
-0.0410571
-0.042001
-0.0424311
-0.0424821
-0.0425047
-0.0422269
-0.0416607
-0.0407524
-0.0396153
-0.0382781
-0.0367942
-0.0352041
-0.0334891
-0.0321005
-0.0315514
-0.0518307
-0.0516685
-0.0556091