/*--------------------------------*- C++ -*----------------------------------*\
  =========                 |
  \\      /  F ield         | OpenFOAM: The Open Source CFD Toolbox
   \\    /   O peration     | Website:  https://openfoam.org
    \\  /    A nd           | Version:  11
     \\/     M anipulation  |
\*---------------------------------------------------------------------------*/
FoamFile
{
    format      ascii;
    class       volVectorField;
    location    "3";
    object      U;
}
// * * * * * * * * * * * * * * * * * * * * * * * * * * * * * * * * * * * * * //

dimensions      [0 1 -1 0 0 0 0];

internalField   nonuniform List<vector> 
9600
(
(0.996207 0.000366222 -5.86609e-21)
(0.996398 0.000573369 0)
(0.995509 0.000612538 -6.15373e-21)
(0.994771 8.14381e-05 6.01862e-21)
(0.994907 -0.000138707 0)
(0.996057 0.000208211 3.07377e-21)
(0.997673 0.0040271 -6.1981e-21)
(0.989704 0.0117866 3.10388e-21)
(0.958422 0.0145396 3.06666e-21)
(0.932909 0.00901971 -3.08238e-21)
(0.925845 -0.000154466 2.26868e-23)
(0.930779 -0.00849899 0)
(0.948696 -0.0181193 0)
(0.970618 -0.0276308 -1.3176e-21)
(0.989587 -0.0341508 9.29155e-23)
(1.00579 -0.0377332 1.21883e-21)
(1.01926 -0.0389634 0)
(1.03068 -0.0385176 0)
(1.04002 -0.0371803 1.60013e-24)
(1.04733 -0.0355461 0)
(1.05328 -0.0332365 0)
(1.05779 -0.0313689 -9.29727e-25)
(1.06082 -0.0288018 1.44683e-24)
(1.06205 -0.026862 -2.50173e-22)
(1.06162 -0.0237412 2.47594e-22)
(1.05938 -0.0218562 1.45077e-22)
(1.05655 -0.0187444 -1.4595e-22)
(1.05241 -0.0171014 -2.13991e-22)
(1.04779 -0.0140607 2.10305e-22)
(1.04215 -0.0122319 0)
(1.03679 -0.00905344 0)
(1.03145 -0.00656235 2.95299e-22)
(1.02653 -0.00416899 -6.15675e-22)
(1.02205 -0.00139486 3.2234e-22)
(1.0176 0.000283534 0)
(1.01366 0.00280588 6.01243e-24)
(1.00998 0.00437762 7.90757e-22)
(1.00683 0.00636874 -7.77904e-22)
(1.00407 0.00769435 -6.20725e-24)
(1.00127 0.0133627 -1.76426e-21)
(0.996975 -3.53698e-05 -6.05259e-21)
(0.997202 -1.10489e-05 -1.58154e-22)
(0.997493 -0.000149078 -7.33226e-24)
(0.997773 -7.14499e-05 6.35021e-21)
(0.997769 -1.21053e-05 3.17524e-21)
(0.99739 0.00040802 -3.16734e-21)
(0.997237 0.00248299 5.00782e-23)
(0.999042 0.00467473 2.49581e-23)
(1.00111 0.00389574 -3.08122e-21)
(1.0018 -0.00148264 3.14425e-21)
(1.00017 -0.00441323 -2.30503e-23)
(1.00032 -0.00374015 4.55049e-23)
(1.0041 -0.00012231 1.31936e-21)
(1.0121 0.0100767 -2.6661e-21)
(1.01798 0.019923 1.31369e-21)
(1.02243 0.026708 1.10783e-21)
(1.02678 0.0304677 -1.11643e-21)
(1.03183 0.0319463 4.47136e-22)
(1.03667 0.0321386 -4.41504e-22)
(1.041 0.031626 0)
(1.04457 0.0305587 0)
(1.04734 0.0298875 -2.12436e-22)
(1.04909 0.0282203 2.1072e-22)
(1.04922 0.0271108 2.27905e-24)
(1.04858 0.0251757 0)
(1.04555 0.0241833 1.55514e-22)
(1.04358 0.0218968 -2.75575e-23)
(1.03828 0.0203642 9.7702e-23)
(1.03547 0.0175109 -2.18124e-22)
(1.02859 0.0152254 -3.42621e-24)
(1.02451 0.0117996 2.66956e-22)
(1.01786 0.00911912 -2.68512e-22)
(1.01396 0.00595657 3.36004e-22)
(1.00795 0.00290454 -6.98006e-22)
(1.00386 0.0015073 3.55353e-22)
(1 -0.00197215 -6.17598e-24)
(0.996376 -0.00293217 -6.47233e-24)
(0.993613 -0.00597876 0)
(0.99239 -0.00774652 6.43498e-24)
(0.99 -0.0124838 -7.56999e-22)
(0.997075 -0.000218896 0)
(0.997325 -0.000153575 6.46887e-21)
(0.997506 -1.59636e-05 -6.39363e-21)
(0.99776 -7.18329e-05 0)
(0.998355 -0.000117089 0)
(0.999878 0.000503095 -1.02157e-22)
(1.00198 0.00450113 -1.53701e-22)
(1.00235 0.0107441 0)
(1.0002 0.0123491 -3.25328e-21)
(0.992718 0.00946341 3.11354e-21)
(0.981878 0.00130267 0)
(0.98084 -0.00744819 -4.7469e-23)
(0.985627 -0.017022 4.56985e-23)
(0.994753 -0.0263143 0)
(1.00638 -0.0333067 -1.30528e-21)
(1.01826 -0.037955 1.28643e-21)
(1.02903 -0.0406322 3.40127e-23)
(1.03843 -0.0411336 -7.65891e-24)
(1.04658 -0.0399016 -1.98911e-22)
(1.05295 -0.0380604 2.05609e-22)
(1.05899 -0.0351736 1.45165e-22)
(1.06308 -0.0326744 -1.51041e-22)
(1.06671 -0.0292845 3.10923e-24)
(1.06794 -0.0269007 -2.73932e-22)
(1.06912 -0.0223442 2.7013e-22)
(1.06661 -0.0204785 1.50013e-22)
(1.06515 -0.015904 -1.57988e-22)
(1.06047 -0.0142551 2.22083e-22)
(1.05714 -0.00974383 -2.21661e-22)
(1.05071 -0.00789624 3.50899e-24)
(1.04669 -0.0039495 0)
(1.04031 -0.00216994 2.76087e-22)
(1.03662 0.00120827 -5.78799e-22)
(1.0316 0.00273015 2.97865e-22)
(1.028 0.00437014 3.54491e-22)
(1.02483 0.00732546 -1.07236e-21)
(1.02077 0.00694043 -4.90091e-23)
(1.01741 0.0104219 7.74e-22)
(1.01448 0.0103112 -1.33609e-23)
(1.00933 0.0133742 3.83612e-26)
(0.997169 -0.000347568 -1.27496e-20)
(0.997464 -0.000221623 6.49062e-21)
(0.997744 -0.00015848 6.62122e-21)
(0.99826 -0.000300532 -6.64662e-21)
(0.99914 -0.000231979 0)
(1.00017 0.000969078 3.45141e-21)
(1.00281 0.00539189 -3.26076e-21)
(1.00555 0.0084241 3.40803e-21)
(1.0069 0.00780747 -5.88581e-23)
(1.01034 0.0020407 -3.24043e-21)
(1.01662 -0.00569368 -2.96873e-21)
(1.02344 -0.0114291 6.1482e-21)
(1.02938 -0.0117049 -1.55959e-21)
(1.03336 -0.00466389 -2.73946e-21)
(1.03651 0.00575826 1.33116e-21)
(1.03855 0.0141422 1.15948e-21)
(1.03949 0.019684 -1.14001e-21)
(1.04046 0.0228878 -1.54293e-23)
(1.04217 0.0248028 -6.81422e-24)
(1.04468 0.0255116 0)
(1.04746 0.0259195 0)
(1.05014 0.0266442 4.01284e-24)
(1.05154 0.0261461 0)
(1.05145 0.0261724 0)
(1.05089 0.0256166 -3.81167e-24)
(1.04839 0.0253271 5.54822e-24)
(1.04604 0.0240371 -1.23854e-22)
(1.04174 0.0228908 -8.735e-23)
(1.03797 0.0207789 2.2855e-22)
(1.03343 0.0183983 -2.35919e-22)
(1.0284 0.015185 2.35364e-22)
(1.02244 0.0122765 8.20542e-24)
(1.0182 0.0088774 3.37704e-22)
(1.01206 0.00569928 -3.45798e-22)
(1.00732 0.00291937 -4.08357e-22)
(1.00362 -0.000196108 -4.68238e-22)
(0.99898 -0.000961645 -2.11565e-23)
(0.996756 -0.00487583 9.00677e-22)
(0.995406 -0.00612264 1.36806e-23)
(0.993516 -0.0101144 1.35857e-23)
(0.997214 -0.000497081 0)
(0.997579 -0.000434761 6.94998e-21)
(0.997949 -0.000411543 -1.3776e-20)
(0.998722 -0.000605394 6.83191e-21)
(0.999579 -0.000380743 0)
(1.00047 0.0010411 0)
(1.00388 0.00499913 0)
(1.01096 0.00897808 1.06226e-22)
(1.01623 0.00797376 -3.21516e-21)
(1.01738 0.002948 3.3275e-21)
(1.01379 -0.00545441 -1.00747e-22)
(1.00857 -0.0107583 3.02475e-21)
(1.00488 -0.0156418 -4.62299e-21)
(1.00555 -0.0216579 1.49659e-21)
(1.01123 -0.028021 0)
(1.02004 -0.0332934 1.18538e-21)
(1.02929 -0.037062 -1.22561e-21)
(1.03814 -0.0388925 1.58232e-23)
(1.04604 -0.0389472 0)
(1.05186 -0.0380746 0)
(1.05763 -0.0353272 -1.53781e-22)
(1.06165 -0.0326931 1.53755e-22)
(1.06503 -0.028888 0)
(1.06641 -0.026467 -2.9906e-22)
(1.06798 -0.0207586 3.06455e-22)
(1.06661 -0.0182904 1.66605e-22)
(1.06512 -0.0129272 -1.62237e-22)
(1.06128 -0.0111285 2.12842e-22)
(1.05754 -0.00608405 -2.26371e-22)
(1.05206 -0.00420873 -6.38332e-24)
(1.04736 0.000722711 0)
(1.04163 0.00202436 -8.41082e-24)
(1.03797 0.00586983 -2.66579e-22)
(1.03257 0.00739704 2.75068e-22)
(1.03024 0.00903438 -1.12284e-23)
(1.02588 0.0111739 0)
(1.0228 0.0108605 0)
(1.01827 0.0130679 8.57412e-22)
(1.01565 0.012945 -8.24286e-22)
(1.00999 0.0145791 2.81123e-23)
(0.997261 -0.000647757 -6.54163e-21)
(0.997807 -0.000722164 -2.15488e-22)
(0.998275 -0.000616167 2.1815e-22)
(0.998897 -0.000693895 2.21054e-22)
(0.999962 -0.000449079 0)
(1.00228 0.00103624 0)
(1.00757 0.00454244 0)
(1.01156 0.00605584 3.2447e-21)
(1.01438 0.00417575 -7.10137e-21)
(1.01876 -0.00110956 3.21466e-21)
(1.0242 -0.00748461 0)
(1.03022 -0.0133609 3.02511e-21)
(1.03633 -0.0164797 -3.13148e-21)
(1.04166 -0.0138202 -1.38846e-21)
(1.04569 -0.00663835 1.39078e-21)
(1.04795 0.00128984 3.92672e-23)
(1.0492 0.00761945 -3.56137e-23)
(1.04969 0.0121016 0)
(1.05057 0.0157925 1.40666e-23)
(1.05105 0.0178823 0)
(1.05228 0.0199538 -2.57109e-24)
(1.05459 0.0217843 -8.35965e-24)
(1.05555 0.0230868 0)
(1.05527 0.0241161 2.66299e-22)
(1.05428 0.0248902 -2.63071e-22)
(1.05183 0.025352 1.41431e-22)
(1.04958 0.0252859 -1.61286e-22)
(1.04552 0.0248559 -2.02172e-22)
(1.04172 0.0235961 2.02449e-22)
(1.0373 0.0218135 4.67784e-25)
(1.03276 0.01885 1.35357e-23)
(1.02705 0.0161974 -1.54525e-23)
(1.02249 0.0124634 3.50814e-22)
(1.0163 0.00947513 -7.50059e-22)
(1.01137 0.00558713 3.99034e-22)
(1.00722 0.00257701 0)
(1.00239 0.00146952 2.52381e-23)
(1.00045 -0.00243877 -2.70074e-23)
(0.998544 -0.0036027 -2.86327e-23)
(0.996705 -0.007525 8.46941e-22)
(0.99744 -0.000903658 -1.98833e-22)
(0.998018 -0.000945421 -1.40299e-20)
(0.998757 -0.000839454 1.82089e-22)
(0.999517 -0.000927271 7.02756e-21)
(1.00076 -0.000821449 0)
(1.00318 0.000206293 2.28622e-22)
(1.0088 0.00333846 2.26582e-22)
(1.01424 0.00528077 0)
(1.01775 0.00271576 3.72888e-21)
(1.02148 -0.00474364 -3.08231e-21)
(1.02447 -0.0116729 0)
(1.02499 -0.0151407 2.06188e-22)
(1.02249 -0.0169362 -1.54952e-21)
(1.01971 -0.0194963 1.55235e-21)
(1.01989 -0.0232441 0)
(1.02449 -0.0278047 1.22393e-21)
(1.03122 -0.0320653 -1.26751e-21)
(1.03847 -0.0347354 0)
(1.04611 -0.0355255 -2.52975e-22)
(1.05184 -0.0356084 2.24282e-22)
(1.05709 -0.0336414 5.24381e-24)
(1.06138 -0.0314134 1.70288e-23)
(1.06452 -0.0273778 -1.32276e-23)
(1.06606 -0.0249267 -3.23577e-22)
(1.06728 -0.0193293 3.20475e-22)
(1.06721 -0.0160086 1.14812e-23)
(1.06571 -0.00994031 1.22418e-22)
(1.06248 -0.00748495 -1.35231e-22)
(1.05864 -0.00239042 -1.83041e-22)
(1.05362 -0.000564538 1.83888e-22)
(1.04857 0.00479726 -1.38952e-23)
(1.04321 0.00612684 1.30623e-24)
(1.03913 0.0103136 0)
(1.03428 0.0117637 -1.93749e-23)
(1.03177 0.0137986 -2.89896e-22)
(1.02723 0.0150485 -3.56706e-22)
(1.02459 0.0153039 -1.36109e-22)
(1.01935 0.0156229 7.77607e-22)
(1.01673 0.0154421 -9.71473e-22)
(1.0107 0.0162852 9.85501e-22)
(0.997613 -0.00121189 7.21709e-21)
(0.99862 -0.00132035 2.76978e-22)
(0.999272 -0.00126693 -1.46295e-20)
(1.00006 -0.00140687 7.24865e-21)
(1.00168 -0.00155193 0)
(1.00516 -0.000449876 -2.35025e-22)
(1.00977 0.00224324 -3.70502e-21)
(1.0146 0.00280166 7.60628e-21)
(1.01872 -0.00173032 -7.05815e-21)
(1.02211 -0.00810144 3.40414e-21)
(1.02569 -0.0128108 0)
(1.0307 -0.0161059 3.19368e-21)
(1.03648 -0.018335 -3.20447e-21)
(1.04344 -0.0178115 -1.3686e-21)
(1.04881 -0.0145971 1.46662e-21)
(1.05275 -0.00958675 0)
(1.05492 -0.00394509 4.32621e-25)
(1.0559 0.000734903 0)
(1.05732 0.00558598 2.9259e-23)
(1.05791 0.00916269 -6.29082e-24)
(1.05824 0.0127762 -2.67558e-24)
(1.05952 0.015642 -8.67784e-24)
(1.06076 0.0188716 1.35956e-23)
(1.06049 0.0211503 -2.58811e-22)
(1.05925 0.0235726 2.63022e-22)
(1.05575 0.0245693 1.36211e-22)
(1.05337 0.0256596 -1.3595e-22)
(1.04977 0.0262181 -1.69235e-22)
(1.04616 0.0257446 3.41898e-22)
(1.04159 0.0250425 -3.39858e-22)
(1.03718 0.0227275 1.84408e-22)
(1.03189 0.0204281 1.49487e-23)
(1.02693 0.0168819 0)
(1.0209 0.0137223 1.98962e-23)
(1.01608 0.00977359 0)
(1.0107 0.00618333 0)
(1.00649 0.00454436 0)
(1.00446 0.00145704 9.61749e-22)
(1.00174 0.000284973 -1.01584e-21)
(0.999825 -0.00402271 -6.06654e-23)
(0.998176 -0.00169316 -6.99756e-21)
(0.999046 -0.00177289 3.0784e-24)
(0.999595 -0.00180105 -8.17845e-21)
(1.0005 -0.00221795 7.97425e-21)
(1.00241 -0.002511 -4.87364e-22)
(1.0059 -0.00112011 -4.09933e-21)
(1.01072 0.00102518 3.39516e-21)
(1.01575 -4.9628e-06 -2.37488e-22)
(1.01968 -0.00479623 -3.96081e-21)
(1.02303 -0.0111804 7.38724e-21)
(1.02682 -0.0165075 -3.8856e-21)
(1.03032 -0.0194777 0)
(1.03252 -0.0205184 -3.1159e-22)
(1.03341 -0.0208669 -9.80784e-23)
(1.0335 -0.0216637 9.10065e-23)
(1.03418 -0.0239791 1.21655e-21)
(1.03756 -0.0274135 -1.26956e-21)
(1.04164 -0.0304368 0)
(1.04726 -0.0316263 -2.97917e-23)
(1.05272 -0.0319193 7.61726e-26)
(1.05786 -0.0304553 0)
(1.06177 -0.0291778 8.59974e-24)
(1.06481 -0.0250301 1.33204e-23)
(1.06646 -0.0224593 1.03993e-23)
(1.06796 -0.017021 -1.49677e-23)
(1.06859 -0.0134197 0)
(1.06697 -0.00706562 0)
(1.06442 -0.00385439 1.60686e-22)
(1.06041 0.00161687 -1.52552e-22)
(1.05566 0.00347341 -8.00678e-24)
(1.05006 0.00864604 0)
(1.04526 0.0102187 -2.13562e-22)
(1.04044 0.0146232 4.23317e-22)
(1.03623 0.0159461 -4.62473e-22)
(1.03322 0.0182755 2.40083e-22)
(1.02858 0.0194065 -4.67767e-23)
(1.02585 0.0195829 -7.10016e-22)
(1.0205 0.0185043 7.5824e-22)
(1.01773 0.0182345 1.05949e-21)
(1.01127 0.0181858 -2.06018e-21)
(0.998294 -0.00211809 -7.75774e-21)
(0.999178 -0.00221488 1.47454e-20)
(0.999854 -0.00245988 4.02545e-23)
(1.00086 -0.00309876 -8.50159e-21)
(1.00302 -0.00351598 5.01321e-22)
(1.00709 -0.00222791 2.50046e-22)
(1.01145 -0.00103887 2.48062e-22)
(1.01635 -0.00302257 3.90157e-21)
(1.02032 -0.00877387 -6.80088e-23)
(1.02275 -0.0149369 -3.85955e-21)
(1.02645 -0.0189617 -3.41161e-21)
(1.03101 -0.0209127 3.84223e-22)
(1.03586 -0.0217369 5.37112e-21)
(1.04231 -0.0208968 -3.20706e-21)
(1.04878 -0.0188742 1.45692e-21)
(1.05395 -0.0163385 1.72267e-22)
(1.0576 -0.0128557 0)
(1.05968 -0.00890921 -5.03689e-22)
(1.06146 -0.00445453 7.36463e-22)
(1.06341 -0.000377051 -2.10704e-22)
(1.06457 0.00491119 0)
(1.06508 0.00875615 -2.36239e-22)
(1.06607 0.0132918 2.13592e-22)
(1.0666 0.0170902 -2.22166e-22)
(1.06569 0.0211526 2.08684e-22)
(1.06154 0.0234628 9.14519e-23)
(1.05811 0.0253877 -1.81493e-22)
(1.05476 0.0268935 -3.93356e-23)
(1.05087 0.0274167 1.07427e-22)
(1.04645 0.0277048 1.40913e-23)
(1.04184 0.026629 0)
(1.0366 0.0246887 2.23603e-23)
(1.03143 0.0217158 0)
(1.0261 0.0187157 3.78613e-22)
(1.02048 0.0148861 -4.16396e-22)
(1.01438 0.0109398 -9.70339e-22)
(1.01096 0.0087854 9.156e-22)
(1.0081 0.00640869 0)
(1.00513 0.00520451 -9.82203e-22)
(1.00282 0.000618681 1.02753e-21)
(0.998544 -0.00257507 -8.52012e-21)
(0.999525 -0.00284404 5.07283e-22)
(1.00025 -0.00331037 -8.24583e-21)
(1.00145 -0.00438756 9.32158e-21)
(1.00381 -0.00474572 0)
(1.00769 -0.00339733 0)
(1.01312 -0.00325243 0)
(1.01778 -0.00668466 0)
(1.02026 -0.0122141 -3.97692e-21)
(1.02278 -0.0175558 3.9903e-21)
(1.0267 -0.021439 0)
(1.03146 -0.0235042 -2.30375e-22)
(1.03587 -0.0243272 -1.92747e-21)
(1.03959 -0.0241243 1.71064e-21)
(1.04258 -0.0231641 0)
(1.044 -0.0233113 1.26596e-21)
(1.04593 -0.0248638 -1.43531e-21)
(1.04805 -0.0271216 0)
(1.05188 -0.0284363 -1.53329e-23)
(1.05558 -0.0287034 0)
(1.0598 -0.0269667 0)
(1.06369 -0.0259463 8.60766e-24)
(1.06667 -0.0221606 1.30268e-23)
(1.06787 -0.0196202 1.84595e-23)
(1.06923 -0.014293 2.56626e-23)
(1.07049 -0.0102989 1.39853e-22)
(1.06944 -0.00388382 -1.17944e-22)
(1.06693 -0.000158356 9.08665e-23)
(1.06327 0.00567886 -8.66085e-23)
(1.05865 0.00812273 -6.02745e-24)
(1.0526 0.0129521 0)
(1.04784 0.0145095 -1.04943e-23)
(1.04232 0.0187448 0)
(1.03831 0.0200135 0)
(1.03459 0.0229842 4.04077e-23)
(1.02997 0.0237118 6.27766e-22)
(1.02711 0.0240919 -1.25231e-21)
(1.02166 0.0223749 1.55208e-21)
(1.01858 0.0219477 1.46773e-22)
(1.01173 0.0205976 -1.0734e-21)
(0.998717 -0.003321 1.19136e-23)
(0.999666 -0.00363862 1.69242e-20)
(1.00057 -0.00445648 -1.70737e-20)
(1.00211 -0.00553133 -5.37111e-22)
(1.00466 -0.00608593 1.29351e-20)
(1.00878 -0.00554651 -4.31979e-21)
(1.01385 -0.00658592 0)
(1.01828 -0.00991857 -4.18446e-21)
(1.02084 -0.0153232 8.14598e-23)
(1.02276 -0.020727 4.13297e-21)
(1.02565 -0.0245911 -2.47799e-22)
(1.03002 -0.0265072 2.37822e-22)
(1.03533 -0.0265661 4.53433e-22)
(1.04122 -0.0252328 0)
(1.04791 -0.0229934 0)
(1.05386 -0.0212143 0)
(1.05875 -0.0190865 9.55433e-25)
(1.06254 -0.016668 0)
(1.06517 -0.0128258 4.67601e-23)
(1.06721 -0.00919169 -6.56052e-24)
(1.06968 -0.00331201 5.40583e-24)
(1.07068 0.0013942 -8.87614e-24)
(1.07198 0.00687015 -1.34334e-23)
(1.07272 0.0121089 -2.0483e-22)
(1.07253 0.0176168 1.73218e-22)
(1.06868 0.0215371 5.49963e-23)
(1.06472 0.0245789 -5.78505e-23)
(1.0608 0.0269821 -3.67637e-24)
(1.05679 0.0286574 -1.24864e-23)
(1.05194 0.0298035 1.19175e-23)
(1.04731 0.0301643 0)
(1.04213 0.0292253 0)
(1.03648 0.0268069 2.11113e-22)
(1.0311 0.0241762 9.60725e-23)
(1.02513 0.020787 -7.37073e-22)
(1.01896 0.0168647 -5.29162e-22)
(1.01522 0.0142848 -1.46643e-22)
(1.01137 0.0120867 1.03798e-21)
(1.00898 0.011051 1.00178e-21)
(1.00592 0.0065073 -9.82963e-22)
(0.999075 -0.0037948 0)
(1.0002 -0.00465708 5.52242e-22)
(1.00129 -0.00573416 -5.57305e-22)
(1.00315 -0.00728222 0)
(1.00595 -0.00812584 0)
(1.00981 -0.00785415 0)
(1.0142 -0.00907996 -5.57074e-22)
(1.01817 -0.0132982 -5.50115e-22)
(1.02019 -0.0186142 4.27159e-21)
(1.02179 -0.0231534 -4.5522e-21)
(1.02512 -0.0265544 2.55646e-22)
(1.02957 -0.0284686 3.58499e-21)
(1.03456 -0.0291147 -5.89031e-21)
(1.04065 -0.0285263 1.81993e-21)
(1.0466 -0.0266665 -1.02184e-22)
(1.05102 -0.0256676 1.32252e-21)
(1.0545 -0.0253165 -1.33325e-21)
(1.05657 -0.0260097 0)
(1.059 -0.0262397 -3.1948e-23)
(1.06164 -0.0263877 6.77228e-24)
(1.06422 -0.0242529 -5.5803e-24)
(1.06781 -0.0228766 0)
(1.07047 -0.0191832 0)
(1.07116 -0.0166008 0)
(1.07212 -0.011382 0)
(1.07335 -0.00703314 7.06728e-23)
(1.07306 -0.000419621 -9.00249e-23)
(1.07052 0.00380009 -1.65884e-23)
(1.06683 0.00973581 3.18531e-23)
(1.0627 0.0131345 1.93959e-23)
(1.0564 0.0178816 -1.72512e-23)
(1.05126 0.0193536 -7.10466e-23)
(1.04534 0.0233655 8.84826e-23)
(1.04082 0.0244873 1.82502e-23)
(1.03652 0.0276093 0)
(1.03202 0.0283814 -4.99855e-22)
(1.02866 0.0292118 -1.11749e-22)
(1.02277 0.026838 7.06526e-22)
(1.01939 0.0262297 9.72863e-22)
(1.01239 0.0238979 -2.13618e-21)
(0.99917 -0.00499177 -9.65055e-21)
(1.0005 -0.0060233 8.60219e-21)
(1.00156 -0.00781595 -8.64722e-21)
(1.00365 -0.00900751 -9.29415e-21)
(1.00648 -0.00987832 9.34099e-21)
(1.01011 -0.0100235 5.8494e-22)
(1.01419 -0.0123759 5.74966e-22)
(1.01751 -0.0166687 -4.91663e-24)
(1.0196 -0.0211797 -4.43414e-21)
(1.02125 -0.02548 4.72506e-21)
(1.02398 -0.0292192 0)
(1.02779 -0.0318912 0)
(1.0332 -0.0325511 0)
(1.03958 -0.0312448 -1.98228e-21)
(1.04672 -0.0287313 1.86365e-21)
(1.05373 -0.0266901 1.91895e-22)
(1.05971 -0.0246606 0)
(1.06473 -0.0227014 0)
(1.06896 -0.0193014 0)
(1.07125 -0.0164824 0)
(1.07452 -0.0109178 5.34617e-24)
(1.07632 -0.00590287 0)
(1.07799 0.000301869 0)
(1.07895 0.00641014 -1.47545e-22)
(1.07945 0.0133117 8.71074e-23)
(1.07665 0.0187355 3.94626e-23)
(1.07259 0.0232304 0)
(1.06807 0.0265602 -1.29985e-22)
(1.06373 0.0295745 3.52047e-25)
(1.05847 0.0314157 1.38525e-22)
(1.05342 0.0332314 -2.90247e-24)
(1.04842 0.0336362 0)
(1.04243 0.0321861 1.13564e-22)
(1.03616 0.0303079 8.02578e-23)
(1.03071 0.0272453 -2.23418e-22)
(1.02375 0.0237083 3.29955e-23)
(1.02001 0.0210061 -4.14147e-23)
(1.01524 0.018975 9.28295e-22)
(1.01281 0.0179945 -9.12837e-22)
(1.00881 0.0134608 0)
(1.00027 -0.00619046 -9.49445e-21)
(1.00177 -0.00766955 8.96665e-21)
(1.00259 -0.00968233 2.59837e-23)
(1.00456 -0.0111655 -1.93943e-20)
(1.00739 -0.012077 9.74623e-21)
(1.01078 -0.0127862 -6.04316e-22)
(1.01427 -0.0154674 0)
(1.01695 -0.0196108 -5.74572e-24)
(1.01932 -0.0240602 -4.02674e-21)
(1.021 -0.0280668 4.918e-21)
(1.0233 -0.031776 0)
(1.02691 -0.0343364 0)
(1.03157 -0.0352808 2.19487e-21)
(1.03823 -0.0347059 -1.47726e-21)
(1.04656 -0.0323589 0)
(1.05399 -0.0305423 1.39359e-21)
(1.06026 -0.0286044 -1.49491e-21)
(1.06438 -0.0277041 0)
(1.06754 -0.0262327 0)
(1.07019 -0.025499 -6.68809e-24)
(1.07194 -0.022829 -5.53066e-24)
(1.07419 -0.0208457 0)
(1.07666 -0.0165417 0)
(1.0769 -0.0135897 1.45018e-23)
(1.07694 -0.00861456 6.97024e-24)
(1.07749 -0.00386659 0)
(1.07764 0.00336223 -6.32278e-23)
(1.0756 0.00811487 7.01685e-23)
(1.07168 0.0141091 0)
(1.06759 0.0180033 0)
(1.06147 0.0233255 0)
(1.05591 0.0249843 0)
(1.04967 0.0289448 0)
(1.04416 0.0297374 7.14765e-23)
(1.03946 0.032818 -5.85364e-23)
(1.03451 0.0333761 -3.40791e-23)
(1.0306 0.0348425 6.0839e-22)
(1.02438 0.0322538 -5.72616e-22)
(1.02084 0.0311836 0)
(1.01397 0.0285085 -6.42471e-23)
(0.999838 -0.00779078 6.14786e-22)
(1.00171 -0.00961289 1.06243e-20)
(1.0025 -0.0120699 -1.00627e-20)
(1.00433 -0.0132011 -9.4983e-21)
(1.00719 -0.0141517 1.52617e-20)
(1.01045 -0.0154498 -4.45763e-21)
(1.01361 -0.0182254 -4.3604e-21)
(1.01606 -0.0226701 1.05526e-20)
(1.01883 -0.0269633 -7.34868e-22)
(1.02093 -0.0306248 -5.12588e-21)
(1.02319 -0.0339413 0)
(1.02628 -0.0370945 0)
(1.03079 -0.0389373 -2.60085e-22)
(1.03726 -0.0386768 -2.11954e-21)
(1.04535 -0.0365395 1.87972e-21)
(1.0539 -0.0341315 1.53651e-21)
(1.06185 -0.0310999 -1.53899e-21)
(1.06805 -0.0289032 0)
(1.07375 -0.0249635 0)
(1.0769 -0.02233 6.93185e-24)
(1.0802 -0.017147 5.17199e-24)
(1.08261 -0.012265 0)
(1.08437 -0.0056761 0)
(1.08562 0.000642138 -6.10422e-23)
(1.08643 0.00864229 6.09594e-23)
(1.08507 0.0149385 -1.47079e-22)
(1.08139 0.0211708 1.46778e-22)
(1.07666 0.0256217 -4.36636e-23)
(1.07205 0.0303168 3.71315e-22)
(1.06639 0.0329103 -3.70036e-22)
(1.06072 0.0358558 0)
(1.05527 0.0374206 0)
(1.04994 0.0380614 -6.70794e-23)
(1.04244 0.0366891 1.20525e-22)
(1.03698 0.0349664 -2.70042e-22)
(1.02955 0.0310782 2.20061e-22)
(1.02465 0.029098 -9.06524e-22)
(1.01988 0.0264636 1.80377e-21)
(1.0165 0.0262409 6.86021e-23)
(1.01213 0.0212899 -8.99339e-22)
(1.001 -0.010203 0)
(1.00309 -0.0120338 9.8222e-21)
(1.00369 -0.01396 -2.17817e-20)
(1.00483 -0.0150163 9.96939e-21)
(1.0075 -0.0166048 -6.71165e-22)
(1.0107 -0.0184004 -5.95118e-21)
(1.01353 -0.021514 3.99488e-21)
(1.01575 -0.0260187 0)
(1.01879 -0.0300452 -4.38334e-21)
(1.02171 -0.0331436 4.42217e-21)
(1.02357 -0.0365867 0)
(1.02666 -0.0401567 4.45213e-21)
(1.03075 -0.0420107 -4.46647e-21)
(1.03602 -0.0425318 0)
(1.04446 -0.0405975 -1.53726e-21)
(1.05343 -0.0383251 1.77361e-21)
(1.06259 -0.0350044 9.19726e-23)
(1.06981 -0.0323928 0)
(1.07509 -0.0288222 -3.29952e-23)
(1.07879 -0.0266674 0)
(1.08105 -0.0227589 -3.03473e-25)
(1.08257 -0.0202235 1.41279e-23)
(1.08477 -0.0149681 1.65858e-23)
(1.0854 -0.0111524 0)
(1.08472 -0.00598021 0)
(1.08441 -0.00124568 -1.29331e-22)
(1.08371 0.00608566 3.33586e-22)
(1.08252 0.0120607 3.13246e-22)
(1.07839 0.0188815 -1.03231e-21)
(1.07417 0.022932 5.03628e-22)
(1.0681 0.0288445 0)
(1.06217 0.0310341 0)
(1.05583 0.0352983 0)
(1.04931 0.0361496 9.30335e-24)
(1.0441 0.0390486 -5.3675e-24)
(1.03805 0.0393065 -1.86854e-23)
(1.03362 0.0410942 -3.03829e-22)
(1.02686 0.0387074 3.87205e-22)
(1.02271 0.0374309 -4.72068e-23)
(1.0166 0.0346047 -1.04523e-21)
(0.999875 -0.0122128 -1.16446e-20)
(1.00234 -0.0137462 6.82275e-22)
(1.00288 -0.0156567 1.11049e-20)
(1.00391 -0.017419 -2.16478e-20)
(1.00671 -0.0194494 1.75139e-20)
(1.00988 -0.0218352 -5.61303e-21)
(1.01259 -0.0247965 1.38974e-21)
(1.01494 -0.0291315 5.3995e-21)
(1.01797 -0.0330866 -1.13548e-20)
(1.02145 -0.0362626 1.10403e-20)
(1.02418 -0.0394602 -5.12578e-21)
(1.02738 -0.0426171 -4.64446e-21)
(1.03118 -0.0450653 4.37747e-21)
(1.03581 -0.0463978 0)
(1.04299 -0.0453961 -2.41458e-22)
(1.05188 -0.0435798 1.62503e-21)
(1.06165 -0.0396509 -1.72328e-21)
(1.06951 -0.036739 5.94767e-22)
(1.07739 -0.0314455 -5.27897e-22)
(1.08257 -0.0277309 6.53917e-24)
(1.08642 -0.0222355 -1.40675e-22)
(1.08935 -0.0175975 2.88864e-22)
(1.09146 -0.0108055 -1.72324e-22)
(1.09296 -0.004703 4.15708e-23)
(1.09396 0.00401023 -4.14891e-23)
(1.09364 0.0109322 -2.91385e-22)
(1.09063 0.0187944 2.47967e-22)
(1.08673 0.0241585 4.89402e-23)
(1.08145 0.0307334 3.95778e-23)
(1.07659 0.0344773 6.63857e-22)
(1.0697 0.0387377 -7.50669e-22)
(1.0637 0.0405219 0)
(1.05789 0.0437285 6.09402e-23)
(1.05051 0.0434063 -1.87297e-22)
(1.04431 0.0436628 1.90247e-22)
(1.03667 0.0398956 -1.82865e-23)
(1.03038 0.0385702 -5.46033e-22)
(1.02517 0.0349487 -1.75744e-22)
(1.02086 0.0353116 1.56135e-21)
(1.01593 0.0302769 -7.69645e-22)
(1.00049 -0.0148524 1.43449e-21)
(1.00297 -0.0164688 1.16094e-20)
(1.00393 -0.0182008 -1.02226e-20)
(1.00457 -0.0200351 -1.47631e-21)
(1.00693 -0.0223896 0)
(1.00983 -0.025275 0)
(1.01243 -0.0282473 -7.26702e-22)
(1.01512 -0.0322759 0)
(1.01789 -0.0366544 5.53191e-21)
(1.02181 -0.0400265 -1.02258e-20)
(1.02516 -0.0425045 5.3774e-21)
(1.02848 -0.0457442 3.15229e-22)
(1.03278 -0.0481196 -1.44119e-24)
(1.03657 -0.0501348 2.73188e-22)
(1.04259 -0.0498087 0)
(1.05038 -0.0484826 0)
(1.06037 -0.0445895 -9.6417e-23)
(1.06986 -0.0408872 8.12483e-23)
(1.07826 -0.0351029 -3.44144e-23)
(1.08479 -0.0310283 -6.8017e-24)
(1.09007 -0.0249167 0)
(1.09276 -0.0213168 0)
(1.09494 -0.0151624 -2.25317e-23)
(1.09612 -0.0101254 7.27275e-23)
(1.09534 -0.00395034 -8.93559e-23)
(1.0946 0.000958074 0)
(1.09218 0.00859779 4.44692e-23)
(1.09108 0.0147639 -5.08764e-23)
(1.0868 0.0230389 -9.20221e-22)
(1.08319 0.0278025 8.51515e-22)
(1.0767 0.0347069 9.31205e-23)
(1.07072 0.0372944 0)
(1.06311 0.0421055 -6.32959e-23)
(1.05666 0.0429327 -6.78216e-23)
(1.05005 0.0466618 2.59641e-23)
(1.04376 0.0463082 2.4702e-22)
(1.03827 0.0490773 -2.7934e-22)
(1.03178 0.0462229 7.98088e-24)
(1.02569 0.0457405 2.85523e-23)
(1.01991 0.0415534 -5.26456e-23)
(0.998595 -0.0167633 -1.2989e-20)
(1.00069 -0.0187291 1.22777e-20)
(1.00223 -0.020264 -2.55238e-20)
(1.00309 -0.022421 2.64866e-20)
(1.00532 -0.0254551 -1.25283e-20)
(1.00833 -0.0291561 -6.18961e-21)
(1.01119 -0.0322395 6.22644e-21)
(1.01424 -0.0358958 6.00323e-21)
(1.01739 -0.0402492 -1.11129e-20)
(1.02126 -0.0436825 1.14928e-20)
(1.02524 -0.0461372 -5.65428e-21)
(1.0292 -0.0489651 -3.28114e-22)
(1.03404 -0.0512622 -1.75026e-21)
(1.03843 -0.0536183 -8.0178e-23)
(1.0437 -0.0534464 2.43393e-21)
(1.0501 -0.0535066 1.8307e-21)
(1.0597 -0.0499147 -1.6189e-21)
(1.06882 -0.0467034 -2.46243e-24)
(1.07832 -0.0405234 3.28697e-23)
(1.08634 -0.0355337 0)
(1.0928 -0.0285064 -4.23441e-24)
(1.09773 -0.023023 0)
(1.101 -0.0153991 9.39333e-24)
(1.10307 -0.00919852 -6.36534e-24)
(1.10369 -0.000216662 -3.42285e-22)
(1.10441 0.00724414 3.77005e-22)
(1.10159 0.0163926 -5.76891e-22)
(1.0986 0.0226144 -7.19501e-22)
(1.09283 0.030594 1.29203e-21)
(1.0884 0.0354547 6.76102e-23)
(1.08128 0.0421864 0)
(1.07447 0.0443912 9.15552e-22)
(1.06716 0.0493901 -9.10797e-22)
(1.06033 0.0497151 7.05459e-23)
(1.05293 0.0524603 0)
(1.04561 0.0496219 0)
(1.03809 0.0495558 0)
(1.03218 0.045489 0)
(1.02641 0.0466179 -5.68787e-22)
(1.02091 0.0411056 1.17315e-21)
(0.999218 -0.0196204 1.287e-20)
(1.00084 -0.0218545 -8.19864e-22)
(1.00296 -0.0235638 -2.62606e-20)
(1.00439 -0.0261319 -7.91325e-22)
(1.00619 -0.0295684 1.32967e-20)
(1.00869 -0.0334589 0)
(1.01104 -0.036465 0)
(1.01422 -0.0396308 0)
(1.01765 -0.0436899 5.37877e-21)
(1.0214 -0.0479103 -6.94268e-21)
(1.02581 -0.0503653 3.66492e-22)
(1.03013 -0.0530723 -5.35046e-21)
(1.03603 -0.0550404 5.04847e-21)
(1.041 -0.0573289 -2.96341e-22)
(1.0464 -0.0575492 -1.85219e-24)
(1.05176 -0.0581103 -1.48427e-24)
(1.0595 -0.0554794 0)
(1.06841 -0.0527107 -1.68387e-22)
(1.0784 -0.04592 -3.43034e-23)
(1.08735 -0.0406032 -5.89521e-24)
(1.09569 -0.0320621 1.06857e-22)
(1.10222 -0.0258519 -1.0544e-22)
(1.1061 -0.0179562 -2.44135e-24)
(1.10929 -0.0114374 1.00133e-23)
(1.10906 -0.00322952 -5.17001e-23)
(1.10924 0.00234341 -5.3056e-22)
(1.10589 0.0108112 6.08403e-22)
(1.1041 0.0169871 1.47492e-21)
(1.09917 0.0265394 -1.67765e-22)
(1.09518 0.0318648 -1.50933e-21)
(1.08823 0.0401633 0)
(1.0824 0.043869 -1.84824e-22)
(1.07366 0.0498233 0)
(1.06705 0.0505583 -6.98836e-22)
(1.0583 0.055286 1.46955e-21)
(1.05212 0.0541654 -1.55254e-21)
(1.0449 0.0585552 1.50432e-21)
(1.03839 0.0550509 -5.633e-22)
(1.0313 0.0567486 -2.06825e-22)
(1.02482 0.050573 2.37314e-22)
(0.997253 -0.0218352 -8.69388e-22)
(0.998374 -0.0245915 1.55942e-20)
(1.00029 -0.0268791 -1.39675e-20)
(1.0021 -0.0296468 8.92013e-22)
(1.0039 -0.0329033 0)
(1.00616 -0.0369523 -8.90165e-22)
(1.00861 -0.0404312 0)
(1.01223 -0.0438023 7.62297e-21)
(1.01684 -0.0479159 -1.10581e-21)
(1.02118 -0.0525163 -5.75667e-21)
(1.02581 -0.0552072 -3.82733e-22)
(1.03045 -0.0578843 -3.66766e-22)
(1.03708 -0.0591145 0)
(1.04306 -0.0617287 -2.03866e-21)
(1.0492 -0.0614152 2.07615e-21)
(1.05432 -0.0624248 1.68671e-21)
(1.06147 -0.0602085 -1.91636e-21)
(1.06932 -0.0580984 8.64052e-23)
(1.07839 -0.0520342 -1.92899e-22)
(1.08818 -0.0466644 2.30709e-22)
(1.09671 -0.0380493 -3.93374e-24)
(1.10492 -0.0312161 1.08934e-23)
(1.11069 -0.0214636 2.55277e-24)
(1.11565 -0.0142475 -2.60169e-23)
(1.1163 -0.00424745 3.06932e-23)
(1.1181 0.00336847 -1.0117e-21)
(1.11586 0.014227 9.4344e-22)
(1.11391 0.0212255 1.9685e-21)
(1.10789 0.0310332 -2.00831e-21)
(1.10293 0.0365278 -1.3547e-22)
(1.09559 0.0452993 0)
(1.08886 0.0487873 1.81315e-21)
(1.08033 0.0557323 -1.39699e-21)
(1.07291 0.0565537 -1.13811e-21)
(1.06417 0.0614341 1.02006e-21)
(1.05665 0.0596317 0)
(1.04806 0.0616654 7.83209e-22)
(1.04086 0.0575403 -8.04869e-22)
(1.03439 0.0596812 0)
(1.02741 0.0544894 1.46803e-23)
(0.998143 -0.0255424 7.2209e-22)
(0.999423 -0.0287183 -1.5743e-20)
(1.00091 -0.0316108 1.49545e-20)
(1.00274 -0.0344779 -3.10458e-20)
(1.00486 -0.0375011 2.36329e-20)
(1.00728 -0.0416793 -6.64231e-21)
(1.01 -0.0456484 0)
(1.01308 -0.0494205 -9.07421e-22)
(1.01777 -0.0529621 -6.06829e-21)
(1.02249 -0.0575485 6.14315e-21)
(1.02724 -0.0601583 4.09232e-22)
(1.03154 -0.0630025 -5.93268e-21)
(1.0381 -0.0642467 8.31845e-21)
(1.0452 -0.0665596 -2.73161e-21)
(1.05227 -0.0661711 0)
(1.05849 -0.0669391 0)
(1.06545 -0.0645381 1.07304e-22)
(1.0724 -0.0638154 -5.09602e-22)
(1.08016 -0.0582343 7.42616e-22)
(1.08908 -0.0535968 -2.13629e-22)
(1.09747 -0.0448257 5.74106e-23)
(1.10721 -0.0369972 -5.90579e-23)
(1.11364 -0.0262748 1.92e-23)
(1.12112 -0.0178927 6.61615e-22)
(1.12363 -0.00592563 -6.33007e-22)
(1.12614 0.00147171 -1.04795e-21)
(1.1236 0.0118456 -2.50959e-22)
(1.12188 0.0185208 -1.15706e-21)
(1.11654 0.0293204 2.74149e-21)
(1.11196 0.0355761 3.1146e-22)
(1.1043 0.0452678 -3.28763e-22)
(1.09809 0.0495011 3.08733e-22)
(1.08875 0.0578844 -2.23735e-22)
(1.08141 0.0596411 -1.79403e-21)
(1.07171 0.0657579 3.06919e-21)
(1.06375 0.0640574 -1.30936e-21)
(1.05522 0.0690814 0)
(1.04786 0.0658807 0)
(1.03994 0.0689874 0)
(1.03228 0.0631266 -2.4948e-22)
(0.995061 -0.0285674 0)
(0.996812 -0.0321898 1.59033e-20)
(0.997864 -0.0353785 -1.70562e-20)
(0.999216 -0.0386416 1.61614e-20)
(1.0016 -0.0417459 -1.83198e-20)
(1.0044 -0.0460141 -1.02469e-21)
(1.00767 -0.0502123 1.01071e-21)
(1.01089 -0.0542044 0)
(1.01524 -0.0576293 7.42511e-21)
(1.02068 -0.0625534 -7.46878e-21)
(1.02667 -0.0653492 -4.29178e-22)
(1.03171 -0.0687059 6.66196e-21)
(1.03846 -0.0699924 -5.90886e-21)
(1.04614 -0.0727456 -2.21159e-21)
(1.05479 -0.0719118 2.55938e-21)
(1.06224 -0.0723079 1.27319e-22)
(1.06956 -0.0696263 0)
(1.07761 -0.0686674 -8.62733e-23)
(1.08408 -0.0637658 3.18027e-23)
(1.09241 -0.059921 0)
(1.09942 -0.0510721 -2.54199e-24)
(1.10909 -0.0439519 1.53048e-25)