/*--------------------------------*- C++ -*----------------------------------*\
  =========                 |
  \\      /  F ield         | OpenFOAM: The Open Source CFD Toolbox
   \\    /   O peration     | Website:  https://openfoam.org
    \\  /    A nd           | Version:  10
     \\/     M anipulation  |
\*---------------------------------------------------------------------------*/
FoamFile
{
    format      ascii;
    class       volScalarField;
    location    "0.400937";
    object      p;
}
// * * * * * * * * * * * * * * * * * * * * * * * * * * * * * * * * * * * * * //

dimensions      [1 -1 -2 0 0 0 0];

internalField   nonuniform List<scalar> 
16320
(
0.387643
0.378117
0.372331
0.366501
0.362813
0.356775
0.353695
0.348249
0.344645
0.343023
0.342663
0.343439
0.345674
0.349259
0.353885
0.35948
0.365621
0.369991
0.376018
0.382299
0.389272
0.397091
0.405971
0.420054
0.434563
0.448909
0.463336
0.476533
0.488442
0.495067
0.501489
0.507324
0.512433
0.516914
0.520458
0.523309
0.524293
0.523699
0.523821
0.522264
0.51977
0.515433
0.513397
0.512005
0.514096
0.522041
0.542138
0.581604
0.638017
0.691358
0.723329
0.734652
0.736713
0.736111
0.734439
0.731465
0.728048
0.724244
0.72011
0.715145
0.7086
0.700891
0.690533
0.671147
0.642041
0.608819
0.571458
0.536312
0.511939
0.499571
0.4917
0.485485
0.481114
0.478301
0.475961
0.47534
0.475842
0.483886
0.497601
0.514052
0.530631
0.544571
0.554668
0.560097
0.561752
0.562396
0.567257
0.574374
0.592453
0.595407
0.536305
0.418984
0.363032
0.349506
0.344319
0.357726
0.36353
0.377756
0.388383
0.397871
0.407949
0.420536
0.435108
0.449471
0.463565
0.475224
0.48451
0.492526
0.510841
0.518786
0.528208
0.543287
0.569708
0.400889
0.387106
0.375012
0.370415
0.365619
0.358964
0.355371
0.349881
0.346387
0.34484
0.344497
0.345283
0.347637
0.351336
0.356066
0.361706
0.36842
0.372486
0.378325
0.38455
0.391081
0.398215
0.40607
0.418769
0.432586
0.446353
0.460264
0.472047
0.482831
0.492589
0.50011
0.506659
0.51256
0.517842
0.521821
0.525067
0.527794
0.529133
0.52647
0.522591
0.518061
0.513975
0.510378
0.507319
0.507358
0.514717
0.535532
0.577266
0.636366
0.689662
0.720166
0.730345
0.732131
0.731957
0.730728
0.728403
0.725684
0.721966
0.718294
0.713359
0.706918
0.699382
0.688782
0.668239
0.637614
0.604404
0.568018
0.533839
0.50934
0.496195
0.487792
0.482719
0.47894
0.476405
0.474386
0.473937
0.474432
0.48244
0.496252
0.513045
0.529712
0.543658
0.553247
0.558861
0.558299
0.559286
0.559604
0.567747
0.581296
0.59634
0.571856
0.457229
0.376981
0.352422
0.34391
0.35213
0.355734
0.366035
0.374316
0.382767
0.392308
0.403905
0.417807
0.431062
0.444834
0.456987
0.46777
0.483132
0.499776
0.510582
0.518617
0.531903
0.556836
0.425864
0.398176
0.379779
0.374777
0.368724
0.361436
0.357129
0.351874
0.348601
0.3472
0.34688
0.347683
0.350134
0.353998
0.358887
0.364501
0.370726
0.376982
0.381303
0.387667
0.39394
0.400706
0.407962
0.418245
0.429904
0.442125
0.455444
0.469385
0.481911
0.490452
0.498381
0.505382
0.512234
0.517791
0.524835
0.528446
0.529674
0.531544
0.529786
0.523696
0.514982
0.508385
0.5017
0.496516
0.495762
0.505895
0.530595
0.575824
0.636929
0.689088
0.717087
0.725882
0.727471
0.727622
0.726878
0.725089
0.722888
0.719791
0.716493
0.711807
0.705521
0.698279
0.686676
0.664075
0.633691
0.600112
0.564311
0.531462
0.506891
0.491436
0.484766
0.480272
0.476984
0.474846
0.473085
0.472682
0.473051
0.480671
0.494334
0.51139
0.527853
0.541392
0.552385
0.55819
0.557125
0.553649
0.551854
0.559842
0.572654
0.597756
0.597804
0.507918
0.40329
0.361861
0.348139
0.351996
0.352623
0.358356
0.363604
0.369445
0.377101
0.386574
0.399342
0.410967
0.423562
0.435051
0.446782
0.465953
0.484825
0.500926
0.512522
0.526153
0.551286
0.475644
0.419469
0.390226
0.380357
0.372188
0.364175
0.359099
0.354063
0.351146
0.34995
0.349726
0.350632
0.353166
0.357139
0.362146
0.367865
0.374012
0.380963
0.385483
0.391315
0.397745
0.404237
0.411368
0.421058
0.432071
0.443789
0.456485
0.468599
0.478605
0.487636
0.495729
0.503841
0.512913
0.520747
0.526728
0.532002
0.53357
0.533792
0.534492
0.529646
0.520453
0.506929
0.49644
0.489269
0.491777
0.500742
0.52546
0.575191
0.639907
0.689665
0.714278
0.721325
0.72263
0.723123
0.722906
0.721692
0.720119
0.71757
0.714486
0.710113
0.704218
0.697148
0.683795
0.660113
0.630152
0.595716
0.560145
0.528621
0.504467
0.487266
0.481931
0.478174
0.475442
0.473788
0.472234
0.471937
0.472337
0.480012
0.493288
0.509435
0.525576
0.539652
0.552555
0.553567
0.553284
0.548231
0.550674
0.553206
0.570931
0.598982
0.616829
0.558948
0.438716
0.379163
0.357579
0.355706
0.353576
0.35629
0.357824
0.361087
0.365373
0.371851
0.383161
0.392828
0.403638
0.413577
0.428244
0.444515
0.465655
0.487142
0.505102
0.522051
0.54797
0.573778
0.464182
0.411193
0.389604
0.376924
0.367234
0.361187
0.356418
0.354077
0.353151
0.352982
0.354228
0.356806
0.360713
0.365722
0.371593
0.377767
0.384385
0.391047
0.395303
0.40165
0.408222
0.415285
0.424052
0.43373
0.444268
0.455347
0.465016
0.474669
0.48414
0.492412
0.503725
0.512133
0.520781
0.528597
0.534951
0.541657
0.541852
0.539503
0.532033
0.518582
0.501392
0.486129
0.477837
0.481042
0.493157
0.525269
0.582389
0.64606
0.690928
0.712106
0.716581
0.717553
0.718535
0.71901
0.718488
0.717478
0.715187
0.71248
0.708408
0.702641
0.694685
0.680247
0.656542
0.626327
0.59135
0.555873
0.525257
0.501126
0.485712
0.479739
0.476322
0.474418
0.473474
0.472116
0.47194
0.472019
0.478707
0.491257
0.50671
0.522892
0.53731
0.548737
0.551163
0.552835
0.550331
0.547275
0.551238
0.571483
0.603229
0.634783
0.602523
0.478659
0.402924
0.370984
0.361281
0.356735
0.355808
0.355765
0.356448
0.358096
0.361313
0.370954
0.378423
0.387422
0.396234
0.407612
0.42426
0.445997
0.470567
0.493739
0.514875
0.541378
0.736304
0.554305
0.455177
0.408557
0.385697
0.371555
0.363826
0.359172
0.357139
0.356626
0.356958
0.358619
0.361267
0.364807
0.369608
0.375458
0.381749
0.388276
0.395243
0.400127
0.406116
0.412195
0.418924
0.426513
0.434883
0.443881
0.452542
0.461562
0.471275
0.48102
0.492178
0.501607
0.511495
0.521215
0.532128
0.542116
0.549426
0.55072
0.545189
0.532638
0.51569
0.494289
0.477151
0.469098
0.473581
0.490336
0.5284
0.590954
0.654601
0.695591
0.707671
0.71076
0.712074
0.713669
0.714881
0.715085
0.715182
0.713669
0.711331
0.706944
0.701003
0.691609
0.675848
0.652949
0.62274
0.587199
0.551851
0.522093
0.497966
0.484487
0.478455
0.475555
0.474285
0.474173
0.473033
0.472844
0.472628
0.478394
0.489073
0.503864
0.519727
0.534353
0.545466
0.549078
0.552879
0.550968
0.544614
0.558823
0.577022
0.615697
0.657019
0.638334
0.519098
0.429206
0.386073
0.368429
0.360766
0.357122
0.355153
0.354281
0.354104
0.355164
0.362981
0.368222
0.375572
0.382966
0.392377
0.406903
0.427547
0.453039
0.47876
0.502484
0.52892
0.874327
0.719893
0.542888
0.447861
0.40369
0.380587
0.368827
0.363476
0.361439
0.36104
0.361972
0.364056
0.367039
0.369736
0.373912
0.379413
0.385665
0.392155
0.398762
0.405257
0.409823
0.415834
0.42235
0.428993
0.436081
0.443287
0.450214
0.458578
0.468656
0.477598
0.487662
0.498315
0.510292
0.523297
0.537543
0.552143
0.560754
0.563103
0.554665
0.536003
0.510643
0.487812
0.472146
0.471778
0.479123
0.499649
0.540983
0.601278
0.658666
0.692886
0.702739
0.704218
0.705298
0.708177
0.71057
0.712564
0.712946
0.71169
0.709548
0.705179
0.698359
0.687445
0.670938
0.649053
0.61951
0.583821
0.548885
0.520063
0.496768
0.484025
0.478772
0.476424
0.4756
0.476315
0.475583
0.475323
0.475073
0.479664
0.488942
0.501894
0.516839
0.531861
0.54419
0.549146
0.554606
0.555822
0.556426
0.567022
0.589376
0.63956
0.682585
0.669963
0.556013
0.455893
0.401277
0.376345
0.365153
0.359289
0.355732
0.353433
0.352139
0.352437
0.35633
0.361389
0.367045
0.373429
0.381507
0.394447
0.413317
0.437178
0.462112
0.48575
0.511098
0.914275
0.88378
0.701446
0.531066
0.443824
0.400049
0.379404
0.370644
0.367637
0.367079
0.369015
0.371097
0.374151
0.376297
0.378956
0.383631
0.389411
0.395798
0.402214
0.408282
0.413802
0.419569
0.42492
0.430538
0.436391
0.442008
0.448214
0.457027
0.463554
0.471727
0.482084
0.49433
0.506792
0.525739
0.547423
0.567124
0.576922
0.577432
0.561891
0.535547
0.504928
0.476197
0.47178
0.477461
0.493167
0.521293
0.562322
0.613286
0.657646
0.684767
0.692563
0.695583
0.699884
0.704352
0.708509
0.710369
0.711242
0.710122
0.707957
0.703192
0.695336
0.683052
0.666222
0.645407
0.616986
0.581653
0.54744
0.519414
0.498298
0.485003
0.480936
0.479408
0.479275
0.480706
0.480485
0.480163
0.479875
0.483185
0.490568
0.502388
0.516239
0.531709
0.546683
0.553601
0.562499
0.56814
0.576049
0.587315
0.614651
0.674129
0.712499
0.698845
0.588069
0.482104
0.416313
0.384541
0.369848
0.36179
0.356841
0.353392
0.351076
0.351532
0.353065
0.357424
0.361556
0.366896
0.373743
0.385209
0.401708
0.422726
0.445048
0.466721
0.490283
0.897716
0.944161
0.879198
0.69145
0.528708
0.443538
0.402222
0.384466
0.378735
0.377937
0.380957
0.381909
0.384096
0.384826
0.386362
0.388582
0.393239
0.399216
0.405414
0.411287
0.416669
0.422745
0.426921
0.43172
0.436796
0.442238
0.447665
0.452691
0.458347
0.465816
0.475977
0.489025
0.503674
0.531072
0.560808
0.582604
0.592217
0.58463
0.56147
0.527903
0.495658
0.477893
0.476843
0.485851
0.50679
0.533512
0.566023
0.609131
0.649122
0.670225
0.678054
0.684814
0.692061
0.699044
0.704679
0.708028
0.709492
0.708693
0.706313
0.700641
0.691578
0.678266
0.661867
0.642203
0.615182
0.580934
0.547628
0.520881
0.501667
0.489109
0.486499
0.485519
0.485873
0.487659
0.487923
0.487794
0.487115
0.488743
0.494059
0.504525
0.518351
0.534713
0.553016
0.563596
0.577805
0.590029
0.604847
0.620694
0.664233
0.721138
0.749167
0.727419
0.615272
0.506705
0.431236
0.392841
0.374299
0.36445
0.358341
0.354061
0.350623
0.351315
0.351873
0.354999
0.358032
0.362401
0.368073
0.377766
0.391585
0.40915
0.428267
0.447664
0.469363
0.877533
0.925808
0.946488
0.869861
0.69348
0.53666
0.452383
0.413513
0.400369
0.39722
0.400092
0.4009
0.401554
0.39879
0.397851
0.396205
0.398131
0.402767
0.408379
0.413987
0.419023
0.424245
0.429008
0.433478
0.437444
0.441049
0.444651
0.448352
0.452889
0.459375
0.468756
0.478768
0.502308
0.53709
0.574073
0.596753
0.603296
0.586047
0.552795
0.50927
0.487212
0.48197
0.490214
0.504321
0.52632
0.549617
0.572623
0.595695
0.627195
0.650376
0.663843
0.674289
0.684826
0.694175
0.701471
0.705575
0.70648
0.70685
0.704025
0.697492
0.687601
0.674167
0.658206
0.639058
0.61379
0.581266
0.549626
0.524719
0.507258
0.497552
0.495104
0.494715
0.495253
0.497168
0.497779
0.497892
0.497099
0.498234
0.502324
0.511069
0.52423
0.541723
0.564472
0.581463
0.602204
0.622149
0.645864
0.675758
0.731316
0.776321
0.786369
0.754948
0.640787
0.526951
0.4449
0.400648
0.378907
0.367369
0.360174
0.355233
0.350874
0.350933
0.351733
0.353728
0.355777
0.359292
0.363706
0.371654
0.38247
0.396499
0.412518
0.42979
0.449764
0.862274
0.89631
0.931703
0.945148
0.870763
0.712745
0.561343
0.477747
0.444229
0.434988
0.43564
0.43528
0.433214
0.423879
0.415917
0.408488
0.40608
0.407439
0.411534
0.416484
0.421103
0.425909
0.429761
0.433126
0.436668
0.439305
0.441658
0.444095
0.446981
0.452002
0.460192
0.468207
0.499302
0.539311
0.583269
0.609964
0.603898
0.55932
0.509704
0.486568
0.481765
0.487559
0.502607
0.515613
0.536064
0.556332
0.57544
0.593265
0.614707
0.636289
0.65277
0.667365
0.680388
0.691237
0.698686
0.702564
0.704316
0.704926
0.701716
0.693705
0.682845
0.669822
0.654498
0.635784
0.612235
0.582221
0.553199
0.530567
0.514855
0.506944
0.505901
0.505932
0.506888
0.508871
0.509822
0.510164
0.510033
0.51147
0.515636
0.524378
0.538381
0.558135
0.585272
0.608143
0.634324
0.660665
0.695201
0.738644
0.794241
0.822575
0.816827
0.778455
0.662151
0.544054
0.456647
0.407706
0.383488
0.370435
0.3623
0.356742
0.352244
0.350407
0.352514
0.353305
0.354678
0.357034
0.360148
0.365758
0.374025
0.385025
0.398375
0.413715
0.431897
0.845075
0.85601
0.90432
0.934285
0.952551
0.900535
0.758483
0.610964
0.534245
0.505255
0.497026
0.492843
0.484995
0.467345
0.447661
0.42849
0.41884
0.415603
0.415991
0.419411
0.423562
0.4273
0.430545
0.433256
0.436034
0.437802
0.438886
0.439759
0.440875
0.44396
0.448654
0.459933
0.493039
0.537743
0.583881
0.613001
0.558948
0.48772
0.461047
0.456557
0.463134
0.47984
0.504473
0.523149
0.544022
0.562798
0.579941
0.595332
0.609628
0.629963
0.648175
0.663898
0.678035
0.689531
0.695445
0.700302
0.702333
0.701951
0.696768
0.688221
0.676969
0.664253
0.649466
0.632028
0.610628
0.584159
0.558281
0.538132
0.524109
0.51762
0.51741
0.518596
0.520017
0.522224
0.523622
0.524072
0.526249
0.528471
0.534466
0.544905
0.560475
0.582675
0.612843
0.639585
0.668794
0.700183
0.7421
0.788323
0.828511
0.845412
0.835679
0.794462
0.679053
0.557634
0.465848
0.413723
0.387809
0.373772
0.364825
0.358396
0.354263
0.351473
0.353764
0.353772
0.354514
0.355492
0.357177
0.360712
0.366544
0.374916
0.385838
0.399393
0.415473
0.832475
0.829971
0.864325
0.910793
0.944764
0.980553
0.951749
0.826029
0.690943
0.613805
0.581964
0.569076
0.555549
0.531519
0.498868
0.463286
0.439804
0.428162
0.424075
0.423852
0.426658
0.428851
0.431514
0.433656
0.435584
0.436279
0.436116
0.435468
0.434937
0.435897
0.437084
0.450138
0.482476
0.530849
0.578947
0.585576
0.485137
0.419835
0.403259
0.410675
0.434336
0.464545
0.500853
0.532141
0.550789
0.570521
0.587019
0.601378
0.612947
0.629535
0.645554
0.660297
0.674123
0.684703
0.694334
0.698368
0.699576
0.696968
0.690735
0.6813
0.67013
0.657517
0.643356
0.62775
0.609424
0.587636
0.564931
0.546831
0.534304
0.529038
0.529281
0.532033
0.533946
0.536802
0.539003
0.54029
0.543744
0.54926
0.55841
0.571384
0.588575
0.612067
0.642813
0.670303
0.697996
0.729235
0.768224
0.804854
0.832048
0.845061
0.838544
0.802969
0.691337
0.56785
0.4727
0.418745
0.391902
0.377424
0.36809
0.36091
0.357988
0.355042
0.355954
0.355362
0.355425
0.354893
0.35504
0.356612
0.360239
0.366545
0.375378
0.387184
0.401071
0.818051
0.818795
0.826418
0.87112
0.919156
0.959575
0.993274
0.963367
0.844774
0.723037
0.662309
0.639976
0.625031
0.60259
0.565623
0.516003
0.474399
0.448826
0.436398
0.431928
0.431487
0.431221
0.432966
0.434381
0.435309
0.43498
0.433672
0.431679
0.429334
0.428151
0.427472
0.438554
0.464011
0.508129
0.557329
0.541675
0.43674
0.37026
0.352653
0.360403
0.393402
0.437608
0.486933
0.542393
0.569955
0.576386
0.595572
0.610809
0.621179
0.634685
0.649136
0.662222
0.675344
0.686432
0.692921
0.695447
0.695132
0.690986
0.683831
0.674234
0.663102
0.650753
0.637485
0.623608
0.608557
0.591836
0.572297
0.555867
0.544901
0.540615
0.541443
0.545481
0.548638
0.552179
0.555455
0.558158
0.563164
0.572702
0.585693
0.600945
0.619053
0.642244
0.671335
0.696376
0.71902
0.74414
0.772641
0.798644
0.817362
0.834406
0.833274
0.804665
0.699013
0.574684
0.478003
0.423426
0.396122
0.381345
0.372216
0.364731
0.361591
0.360682
0.359539
0.358094
0.357261
0.355231
0.353971
0.353805
0.355521
0.35967
0.366829
0.376978
0.38879
0.801602
0.804179
0.80725
0.8263
0.869251
0.912087
0.939983
0.926976
0.860606
0.767787
0.707005
0.684876
0.674894
0.661371
0.632547
0.579207
0.523839
0.481391
0.456213
0.444163
0.439156
0.435806
0.435662
0.43572
0.43567
0.434431
0.431931
0.428746
0.424828
0.421561
0.418681
0.425136
0.442422
0.476675
0.517683
0.50267
0.414902
0.339638
0.311888
0.308306
0.332096
0.380918
0.449701
0.526637
0.585345
0.611264
0.601041
0.620924
0.631051
0.641662
0.653967
0.667448
0.677931
0.685915
0.690353
0.691639
0.68983
0.684445
0.676696
0.667362
0.656569
0.644805
0.632636
0.620417
0.608027
0.594899
0.579718
0.564831
0.555712
0.552237
0.553484
0.559245
0.563494
0.567727
0.572188
0.576437
0.58266
0.596557
0.612566
0.629775
0.648483
0.670006
0.696171
0.716865
0.732997
0.750086
0.769511
0.785406
0.800608
0.821588
0.826796
0.803281
0.702815
0.578753
0.482186
0.428197
0.400842
0.385843
0.376657
0.369883
0.365334
0.365694
0.363857
0.361742
0.360079
0.356705
0.353748
0.35183
0.352052
0.354402
0.359891
0.368255
0.378635
0.783309
0.786562
0.786863
0.792713
0.814897
0.841202
0.861601
0.858793
0.817014
0.752347
0.71821
0.706992
0.703884
0.698966
0.686706
0.637031
0.57934
0.52658
0.487351
0.463446
0.451325
0.443678
0.440772
0.438482
0.436866
0.434787
0.431439
0.426917
0.421659
0.415674
0.41115
0.412729
0.422554
0.448789
0.473035
0.463195
0.407836
0.340315
0.299228
0.286943
0.292462
0.32918
0.399364
0.503059
0.587935
0.61843
0.605492
0.627909
0.63711
0.647178
0.658271
0.668866
0.677897
0.684315
0.687029
0.686836
0.683446
0.677946
0.670482
0.661256
0.650934
0.640029
0.629066
0.618371
0.607952
0.59751
0.586334
0.573687
0.565723
0.563616
0.565448
0.573208
0.578414
0.582767
0.588469
0.593792
0.601091
0.617517
0.634948
0.653865
0.673132
0.69312
0.716963
0.733266
0.743797
0.753699
0.766206
0.775657
0.788488
0.81126
0.821539
0.801695
0.705138
0.581578
0.486613
0.433985
0.406996
0.392203
0.382965
0.379125
0.37438
0.372388
0.369365
0.366282
0.363622
0.359134
0.354542
0.351107
0.349694
0.350807
0.354704
0.361346
0.370328
0.763855
0.766967
0.767058
0.76687
0.77064
0.779069
0.787774
0.783865
0.763396
0.733526
0.724991
0.721731
0.723315
0.723545
0.719616
0.686503
0.631481
0.575479
0.528142
0.492734
0.470681
0.457272
0.449816
0.444125
0.439828
0.436152
0.431939
0.426795
0.420226
0.413061
0.406531
0.402028
0.406831
0.422729
0.435712
0.429026
0.40089
0.358963
0.309897
0.286724
0.282922
0.302905
0.360494
0.466011
0.574386
0.609235
0.618571
0.629902
0.639441
0.649573
0.660656
0.669809
0.677007
0.681049
0.682184
0.681309
0.677983
0.672268
0.664765
0.65593
0.64632
0.636431
0.626687
0.617392
0.608646
0.600493
0.591955
0.582398
0.575511
0.574624
0.578021
0.586534
0.59239
0.597229
0.603767
0.609335
0.616492
0.633602
0.649968
0.670649
0.691234
0.710858
0.733683
0.747086
0.753674
0.757653
0.766754
0.773413
0.783249
0.80785
0.821735
0.801711
0.707582
0.585863
0.493923
0.442738
0.416675
0.40255
0.393231
0.390214
0.3859
0.380576
0.376018
0.371701
0.367866
0.36235
0.35655
0.351413
0.348698
0.348597
0.351068
0.356165
0.363665
0.744161
0.748158
0.7473
0.744851
0.740622
0.741271
0.745396
0.742977
0.733271
0.730747
0.730375
0.73226
0.736538
0.739311
0.741223
0.719079
0.672766
0.619925
0.572435
0.531772
0.499133
0.47834
0.464245
0.453947
0.446035
0.439597
0.433769
0.427603
0.420675
0.413403
0.406896
0.401027
0.396693
0.402674
0.410867
0.408852
0.39352
0.375327
0.341576
0.302055
0.289201
0.297405
0.338573
0.428793
0.544652
0.599284
0.620748
0.622581
0.6394
0.650455
0.660699
0.668877
0.674893
0.677576
0.677966
0.6764
0.672606
0.666863
0.659669
0.651496
0.64279
0.633994
0.62546
0.617469
0.610239
0.603738
0.597222
0.590784
0.585285
0.585272
0.590165
0.598976
0.605395
0.610363
0.61678
0.622779
0.631201
0.64409
0.657559
0.678831
0.702545
0.722804
0.746247
0.758779
0.760916
0.765549
0.76972
0.776767
0.787736
0.810031
0.824795
0.803252
0.711451
0.595815
0.506806
0.457733
0.432484
0.418491
0.410449
0.402251
0.396603
0.389955
0.383784
0.377996
0.372886
0.366559
0.359561
0.352972
0.348855
0.347585
0.348814
0.352777
0.35948
0.724036
0.728755
0.72911
0.727921
0.723857
0.722777
0.723249
0.722352
0.727976
0.733162
0.735937
0.740233
0.745838
0.750707
0.754966
0.73894
0.699743
0.654465
0.610276
0.570787
0.53516
0.506937
0.485569
0.46938
0.456722
0.446596
0.438017
0.430049
0.422277
0.414763
0.408166
0.401702
0.39588
0.395169
0.397532
0.396865
0.38943
0.382197
0.372094
0.338696
0.309687
0.30376
0.329609
0.40444
0.505446
0.569475
0.601914
0.622711
0.641653
0.649964
0.659544
0.667062
0.671774
0.673305
0.673085
0.671147
0.667357
0.661974
0.655403
0.64807
0.640373
0.632731
0.6254
0.618582
0.612672
0.60754
0.602982
0.598793
0.595004
0.595751
0.601336
0.611868
0.617531
0.622326
0.628082
0.634187
0.642571
0.652777
0.663817
0.682128
0.708796
0.730439
0.756553
0.766082
0.768344
0.774077
0.781235
0.78579
0.797466
0.814932
0.829281
0.805349
0.720756
0.611344
0.528115
0.481524
0.456226
0.439489
0.430091
0.419655
0.409667
0.40068
0.392544
0.385207
0.37871
0.371664
0.363817
0.355916
0.350441
0.347842
0.34823
0.351339
0.357104
0.704465
0.7104
0.712349
0.711715
0.710795
0.715312
0.721973
0.727269
0.731295
0.734858
0.738933
0.744263
0.750996
0.756767
0.762333
0.750184
0.716776
0.676825
0.638232
0.604367
0.571864
0.540758
0.513747
0.490966
0.472149
0.457362
0.445339
0.435036
0.426068
0.417737
0.410261
0.403068
0.39686
0.393448
0.392965
0.391704
0.388961
0.385616
0.385499
0.373707
0.341784
0.32167
0.327887
0.379788
0.467636
0.537
0.585901
0.620546
0.641786
0.653779
0.66192
0.666848
0.669813
0.670264
0.669246
0.666999
0.663366
0.658395
0.652413
0.645891
0.639212
0.632664
0.626503
0.620913
0.615944
0.612016
0.608917
0.606367
0.60443
0.605864
0.611959
0.623482
0.628919
0.633216
0.638315
0.643959
0.651733
0.660003
0.666313
0.686049
0.713242
0.738563
0.764245
0.768993
0.773727
0.782728
0.789974
0.794603
0.804675
0.81771
0.828231
0.802118
0.726494
0.630228
0.555932
0.510988
0.483758
0.46684
0.450161
0.436326
0.423796
0.412481
0.402267
0.393301
0.385444
0.377731
0.369273
0.360155
0.353246
0.349714
0.349243
0.351606
0.356672
0.686411
0.693536
0.697891
0.703456
0.707809
0.714764
0.722065
0.727363
0.731088
0.734502
0.738482
0.744797
0.751845
0.758826
0.762877
0.754362
0.726271
0.68911
0.656088
0.627835
0.601798
0.573723
0.545956
0.519116
0.494049
0.473301
0.456637
0.443274
0.432294
0.422668
0.413796
0.405814
0.399246
0.394862
0.393437
0.392365
0.391321
0.391362
0.39501
0.39573
0.381345
0.346844
0.333576
0.353321
0.419588
0.508284
0.586939
0.633965
0.653
0.65992
0.663064
0.664811
0.666183
0.666685
0.665803
0.66341
0.659766
0.655354
0.650269
0.644789
0.639194
0.633731
0.628646
0.624124
0.620257
0.617044
0.614742
0.613094
0.613325
0.61581
0.622325
0.6333
0.639847
0.643194
0.647771
0.652875
0.659506
0.666161
0.673378
0.691659
0.716824
0.742274
0.766689
0.77026
0.776546
0.787924
0.79296
0.797411
0.804603
0.813616
0.817065
0.786926
0.71806
0.638973
0.577512
0.536425
0.50927
0.487239
0.469619
0.453597
0.438855
0.42524
0.413017
0.402356
0.393151
0.38537
0.377298
0.366795
0.358523
0.353423
0.351756
0.353455
0.357709
0.670882
0.68028
0.68811
0.695676
0.702318
0.710534
0.718276
0.723966
0.728112
0.731395
0.735336
0.741963
0.749075
0.756136
0.76011
0.753139
0.728518
0.693769
0.665878
0.642115
0.621575
0.600143
0.576298
0.550377
0.521795
0.495181
0.472994
0.455296
0.441211
0.429452
0.41927
0.410622
0.403594
0.398552
0.396007
0.39598
0.397636
0.400671
0.405509
0.411313
0.411851
0.390747
0.353349
0.349866
0.377209
0.439936
0.530426
0.621512
0.66072
0.667517
0.665835
0.663098
0.662189
0.661891
0.661162
0.659497
0.65687
0.653442
0.649389
0.644945
0.640383
0.635941
0.631802
0.628141
0.625105
0.622741
0.621219
0.620745
0.621795
0.625256
0.632238
0.642123
0.649752
0.652666
0.656679
0.661277
0.666938
0.672588
0.678847
0.696036
0.718765
0.7434
0.766356
0.769919
0.777132
0.787764
0.792117
0.795496
0.798682
0.797963
0.787269
0.754816
0.696199
0.633927
0.584927
0.554852
0.528075
0.507126
0.488279
0.470825
0.454234
0.438733
0.424647
0.412363
0.40199
0.393457
0.384735
0.375154
0.365897
0.359632
0.356314
0.357267
0.360567
0.657379
0.668273
0.678045
0.686868
0.694828
0.703716
0.711626
0.717761
0.722267
0.726003
0.730089
0.735458
0.742472
0.749455
0.753255
0.747618
0.725863
0.69337
0.668549
0.6487
0.632604
0.618201
0.60178
0.57967
0.552135
0.522244
0.495057
0.472227
0.453981
0.439167
0.427288
0.4173
0.409753
0.404969
0.402305
0.403888
0.407935
0.414137
0.421128
0.429712
0.432454
0.444997
0.393319
0.371252
0.369353
0.397446
0.461178
0.558338
0.641347
0.665474
0.665811
0.661451
0.658552
0.657471
0.657028
0.656275
0.654767
0.652484
0.649599
0.646318
0.642839
0.639302
0.635908
0.632876
0.630439
0.628743
0.627975
0.628339
0.630087
0.634137
0.641373
0.650267
0.658457
0.661771
0.665338
0.669274
0.673949
0.678933
0.684304
0.699838
0.719544
0.742934
0.762723
0.767172
0.775244
0.783484
0.785722
0.785804
0.781571
0.77133
0.751479
0.716524
0.669491
0.620701
0.594693
0.568031
0.545231
0.524597
0.505563
0.487272
0.4696
0.452695
0.437055
0.423304
0.411673
0.401615
0.392943
0.385274
0.375221
0.36761
0.363105
0.362828
0.365345
0.645728
0.65744
0.667967
0.677735
0.686711
0.695084
0.703217
0.709754
0.714836
0.718801
0.722553
0.727278
0.73371
0.740068
0.742732
0.736698
0.717851
0.688795
0.666735
0.649296
0.638089
0.628928
0.618673
0.601613
0.58
0.552145
0.522698
0.494998
0.471717
0.45292
0.438111
0.426606
0.418054
0.413418
0.412251
0.414994
0.421656
0.430958
0.441017
0.451583
0.45963
0.478822
0.454285
0.408863
0.388071
0.391432
0.439689
0.527354
0.609173
0.647294
0.655996
0.655475
0.65372
0.653102
0.653163
0.653568
0.653413
0.652485
0.650858
0.64868
0.646132
0.643329
0.640519
0.638008
0.636091
0.634932
0.634742
0.635704
0.638083
0.64242
0.649845
0.658254
0.666313
0.670215
0.673805
0.677071
0.681054
0.684592
0.689283
0.702566
0.719306
0.740842
0.756981
0.762463
0.770203
0.775011
0.774976
0.771085
0.761914
0.745774
0.720799
0.686328
0.650759
0.627281
0.603482
0.580694
0.559625
0.539806
0.521096
0.502884
0.484795
0.467018
0.450222
0.435287
0.422714
0.412106
0.403046
0.395814
0.38685
0.378037
0.37252
0.370228
0.372203
0.635824
0.647514
0.658294
0.6684
0.677648
0.685735
0.694107
0.700767
0.706026
0.710199
0.713871
0.71803
0.723488
0.728772
0.729771
0.722124
0.703837
0.678692
0.660402
0.646393
0.637842
0.633658
0.629527
0.621387
0.604049
0.581447
0.553088
0.523471
0.49556
0.471911
0.453088
0.439063
0.429297
0.424314
0.424506
0.428625
0.438373
0.450357
0.4622
0.473508
0.484784
0.50058
0.508203
0.454617
0.417315
0.410916
0.447199
0.522033
0.591172
0.631506
0.644465
0.646916
0.646615
0.64673
0.648244
0.650134
0.651508
0.651944
0.651805
0.650934
0.649262
0.647148
0.644971
0.643042
0.64166
0.640991
0.641276
0.642696
0.645548
0.650159
0.657521
0.66578
0.673726
0.678486
0.681747
0.684738
0.688058
0.689829
0.694013
0.704536
0.717776
0.736422
0.749705
0.756996
0.762765
0.764198
0.761628
0.754187
0.741514
0.722231
0.69441
0.674904
0.654315
0.633098
0.61188
0.591349
0.571712
0.553107
0.535518
0.518015
0.500054
0.481835
0.464234
0.448395
0.435093
0.424103
0.414807
0.407098
0.400161
0.391071
0.384242
0.380709
0.381188
0.62722
0.638503
0.649074
0.658991
0.668243
0.676593
0.684103
0.690804
0.696222
0.700547
0.704237
0.708104
0.712235
0.715639
0.71425
0.704394
0.686537
0.664435
0.648027
0.63806
0.633693
0.632433
0.632658
0.630861
0.62365
0.60659
0.582943
0.554603
0.525059
0.497231
0.473929
0.456373
0.444891
0.439241
0.440253
0.445643
0.45735
0.470294
0.482142
0.492971
0.503453
0.517196
0.5412
0.494194
0.453111
0.442916
0.472234
0.532358
0.5822
0.616304
0.631906
0.636793
0.638673
0.640084
0.642203
0.645434
0.649009
0.651038
0.651724
0.651703
0.651135
0.650128
0.648848
0.64765
0.646884
0.646718
0.647413
0.649203
0.652338
0.657261
0.664663
0.673345
0.680786
0.686142
0.689581
0.692142
0.694833
0.695327
0.698491
0.705255
0.715543
0.73115
0.744013
0.749141
0.752671
0.749047
0.74379
0.734143
0.719411
0.70466
0.693519
0.676381
0.658184
0.638541
0.619022
0.599755
0.581524
0.564921
0.54942
0.533342
0.515769
0.497333
0.479164
0.462563
0.448563
0.437302
0.42804
0.41995
0.413693
0.406128
0.398515
0.393841
0.392757
0.619801
0.63041
0.640337
0.649785
0.658694
0.666837
0.674131
0.680537
0.685757
0.689872
0.693547
0.697439
0.700116
0.700799
0.696187
0.683811
0.666121
0.646712
0.632388
0.624235
0.621405
0.625163
0.629676
0.631159
0.630586
0.624632
0.606713
0.58334
0.556306
0.527739
0.501405
0.480357
0.466264
0.45929
0.460202
0.465811
0.47722
0.488547
0.498517
0.507578
0.516137
0.526903
0.552359
0.524915
0.488562
0.477919
0.499897
0.541186
0.576549
0.604593
0.621224
0.628303
0.631742
0.635543
0.639779
0.642662
0.645288
0.647644
0.649657
0.651106
0.651925
0.652082
0.65182
0.651674
0.651638
0.652002
0.653028
0.655073
0.658327
0.663661
0.67186
0.680228
0.687506
0.693056
0.696885
0.699161
0.701877
0.701006
0.703018
0.705543
0.712456
0.724244
0.736455
0.740859
0.743156
0.740435
0.735268
0.725163
0.714734
0.704457
0.692817
0.678152
0.661617
0.643488
0.624304
0.604641
0.58895
0.575933
0.564157
0.550151
0.53245
0.513699
0.495094
0.477976
0.463299
0.451523
0.44222
0.433933
0.42741
0.421695
0.41465
0.409021
0.406785
0.61337
0.62298
0.632036
0.640691
0.649018
0.656783
0.663828
0.670033
0.675101
0.678634
0.680697
0.683933
0.685945
0.683756
0.675849
0.661344
0.643766
0.626779
0.615551
0.607762
0.605819
0.610269
0.618735
0.625275
0.627935
0.627418
0.622225
0.603995
0.582795
0.558049
0.532527
0.510397
0.494019
0.485018
0.484351
0.487943
0.496144
0.50386
0.510793
0.51746
0.523666
0.531065
0.548968
0.539529
0.504721
0.494506
0.511625
0.54231
0.569724
0.597266
0.61475
0.623787
0.628275
0.631415
0.633968
0.636716
0.639743
0.642956
0.645816
0.648462
0.650933
0.652776
0.654087
0.654892
0.655877
0.657021
0.658249
0.660134
0.663804
0.669592
0.677758
0.686361
0.693906
0.699564
0.704007
0.705259
0.709147
0.7056
0.707482
0.70599
0.709764
0.718798
0.728529
0.733255
0.733779
0.731536
0.726801
0.719721
0.711689
0.702591
0.691972
0.67888
0.663506
0.64428
0.624563
0.607147
0.593792
0.583999
0.575803
0.565899
0.552248
0.533283
0.512557
0.494795
0.479656
0.466894
0.456925
0.449009
0.441952
0.436389
0.431044
0.425681
0.422491
0.607821
0.616183
0.624033
0.631735
0.639213
0.646365
0.653023
0.659017
0.664077
0.668084
0.670563
0.670108
0.668003
0.663745
0.653287
0.63769
0.62077
0.605914
0.596131
0.590143
0.588629
0.58842
0.599878
0.60873
0.617027
0.621195
0.620089
0.615741
0.598921
0.580634
0.560296
0.541176
0.525156
0.51484
0.511083
0.511186
0.513876
0.516678
0.5199
0.523728
0.527449
0.53133
0.542159
0.539092
0.508403
0.499665
0.515237
0.532291
0.56076
0.587473
0.607558
0.617903
0.622186
0.62526
0.628046
0.631049
0.633861
0.636877
0.640744
0.644747
0.648921
0.652569
0.655495
0.657871
0.659952
0.662007
0.663381
0.66526
0.669441
0.675294
0.683305
0.691851
0.69975
0.705789
0.710816
0.710803
0.71619
0.710725
0.711614
0.707934
0.708401
0.714571
0.72197
0.725757
0.725991
0.723589
0.719343
0.713602
0.707047
0.699499
0.690189
0.678468
0.661711
0.642473
0.623618
0.607958
0.596676
0.589173
0.583561
0.577058
0.567361
0.553719
0.534697
0.513637
0.497403
0.483856
0.472763
0.463972
0.456635
0.450617
0.44596
0.441908
0.439074
0.603156
0.609985
0.616414
0.622829
0.629162
0.635397
0.641405
0.646922
0.651496
0.654572
0.655834
0.654408
0.649642
0.641724
0.629469
0.613931
0.598501
0.585784
0.577653