/*--------------------------------*- C++ -*----------------------------------*\
  =========                 |
  \\      /  F ield         | OpenFOAM: The Open Source CFD Toolbox
   \\    /   O peration     | Website:  https://openfoam.org
    \\  /    A nd           | Version:  10
     \\/     M anipulation  |
\*---------------------------------------------------------------------------*/
FoamFile
{
    format      ascii;
    class       volScalarField;
    location    "0.400937";
    object      rho;
}
// * * * * * * * * * * * * * * * * * * * * * * * * * * * * * * * * * * * * * //

dimensions      [1 -3 0 0 0 0 0];

internalField   nonuniform List<scalar> 
16320
(
0.676612
0.520115
0.355787
0.30352
0.298048
0.310425
0.329093
0.328879
0.32423
0.307761
0.279792
0.254246
0.234841
0.215711
0.197401
0.179492
0.15325
0.133335
0.132105
0.135778
0.148798
0.17808
0.227672
0.294372
0.336643
0.355295
0.356459
0.324888
0.2594
0.180169
0.150464
0.144122
0.143806
0.144658
0.14608
0.148386
0.152229
0.159874
0.173167
0.189301
0.202289
0.212717
0.223588
0.236381
0.250295
0.266313
0.286409
0.312908
0.344802
0.37474
0.394919
0.406432
0.416293
0.425122
0.427821
0.41059
0.337979
0.258281
0.239352
0.240591
0.269019
0.327066
0.463955
0.659805
0.723105
0.705441
0.649588
0.509343
0.32857
0.189757
0.154693
0.14443
0.12711
0.11353
0.11998
0.180902
0.36428
0.579603
0.764514
0.882655
0.944546
0.97621
0.992759
1.00417
1.04768
1.08108
1.06328
0.971115
0.867401
0.811781
0.761727
0.634797
0.510959
0.488595
0.590602
0.718291
0.735286
0.65911
0.504689
0.40289
0.346618
0.330762
0.317712
0.31544
0.324306
0.353849
0.438423
0.634655
0.850481
0.963683
1.00677
1.03056
1.05241
0.690039
0.524923
0.365421
0.327344
0.323353
0.340007
0.354684
0.352575
0.347216
0.331581
0.307913
0.286121
0.262127
0.233667
0.208137
0.190792
0.168951
0.141163
0.134552
0.136453
0.145556
0.16832
0.209533
0.266663
0.302362
0.318163
0.313799
0.26874
0.200859
0.155099
0.144833
0.143689
0.144425
0.14706
0.152275
0.164401
0.185704
0.205772
0.2173
0.225181
0.228972
0.234433
0.242969
0.253065
0.264838
0.279639
0.299717
0.327134
0.359678
0.38938
0.40776
0.41746
0.424476
0.429084
0.42621
0.394799
0.307742
0.246181
0.235234
0.240279
0.273783
0.327003
0.480726
0.651061
0.693942
0.672909
0.630851
0.536782
0.385215
0.233711
0.161016
0.14411
0.123117
0.111859
0.115281
0.170502
0.356135
0.574421
0.760197
0.875295
0.92512
0.948647
0.945151
0.94478
0.956614
1.02946
1.04086
0.995522
0.874163
0.810837
0.78596
0.668741
0.518883
0.479386
0.564456
0.696406
0.719743
0.671676
0.545889
0.455114
0.401106
0.376124
0.331001
0.303621
0.309856
0.337615
0.41159
0.575206
0.75422
0.895798
0.960672
0.986942
0.997853
0.722618
0.539639
0.384188
0.352709
0.348263
0.361393
0.369206
0.365554
0.35956
0.346515
0.331502
0.316463
0.294123
0.261753
0.229922
0.204085
0.181573
0.155667
0.138763
0.138122
0.143345
0.158856
0.187871
0.221644
0.241705
0.251271
0.238378
0.196156
0.158969
0.145647
0.143858
0.144473
0.148922
0.160122
0.186652
0.211539
0.222829
0.232294
0.244437
0.256332
0.269383
0.283982
0.285696
0.284757
0.285607
0.293011
0.309013
0.334772
0.367584
0.396345
0.414097
0.423032
0.428259
0.430422
0.423661
0.383672
0.291815
0.2409
0.233484
0.241398
0.276097
0.332192
0.503316
0.63096
0.658193
0.645405
0.613707
0.55465
0.439865
0.287704
0.190818
0.148923
0.123045
0.111333
0.113374
0.166552
0.371257
0.606564
0.783264
0.87544
0.918055
0.938158
0.924454
0.87501
0.871363
0.915535
0.989927
0.987327
0.899565
0.814852
0.804467
0.715914
0.541333
0.473909
0.533407
0.673352
0.705501
0.68326
0.584846
0.502957
0.445369
0.40499
0.340929
0.289202
0.293475
0.3215
0.402286
0.547551
0.715308
0.854288
0.921457
0.946989
0.944834
0.785273
0.573689
0.411169
0.376368
0.368741
0.373754
0.37495
0.370146
0.363204
0.352893
0.344936
0.33786
0.321167
0.293566
0.260004
0.226353
0.197264
0.172453
0.147093
0.140698
0.142887
0.15147
0.168417
0.184024
0.192731
0.195718
0.180933
0.157335
0.146255
0.144283
0.145082
0.151848
0.174517
0.206833
0.226375
0.236533
0.256117
0.29774
0.359085
0.42059
0.458331
0.454682
0.433737
0.405306
0.38057
0.356277
0.342505
0.352849
0.378798
0.402354
0.417092
0.424717
0.428644
0.429458
0.42052
0.377329
0.285784
0.239174
0.232875
0.24385
0.277421
0.347175
0.512716
0.607697
0.640529
0.635918
0.608755
0.572272
0.492224
0.353723
0.232509
0.167391
0.125462
0.111378
0.112872
0.178125
0.408276
0.644569
0.811231
0.8865
0.918121
0.935017
0.921846
0.823224
0.78491
0.791655
0.907139
0.953217
0.927793
0.828354
0.817233
0.762286
0.574241
0.475426
0.502864
0.6357
0.677612
0.670947
0.591744
0.515759
0.462495
0.416757
0.336869
0.272712
0.27525
0.303739
0.413118
0.545391
0.691899
0.825892
0.891146
0.918176
0.904796
0.912354
0.652176
0.450435
0.396882
0.383365
0.379887
0.376608
0.371516
0.363422
0.354777
0.35133
0.348291
0.33898
0.321322
0.293614
0.256822
0.22008
0.189796
0.161704
0.144852
0.144015
0.147488
0.155281
0.161556
0.165755
0.163998
0.154004
0.146138
0.144821
0.146301
0.155312
0.186871
0.220086
0.239692
0.255333
0.30972
0.417007
0.540361
0.625882
0.650122
0.631369
0.589085
0.535127
0.498796
0.474854
0.452415
0.435177
0.42102
0.413553
0.415793
0.421808
0.425246
0.427456
0.427247
0.417445
0.37421
0.284474
0.238908
0.233373
0.247055
0.280707
0.364347
0.509601
0.587589
0.634933
0.63696
0.615133
0.586581
0.528139
0.417389
0.285886
0.196003
0.133505
0.112326
0.113123
0.195869
0.422531
0.650699
0.814299
0.889841
0.92153
0.936843
0.91911
0.811265
0.709695
0.698925
0.764349
0.89728
0.920837
0.856527
0.831749
0.802076
0.613488
0.484661
0.480273
0.577284
0.620419
0.620411
0.573215
0.504717
0.465515
0.420041
0.327123
0.253924
0.25801
0.285928
0.401544
0.552666
0.693561
0.805884
0.862321
0.892275
0.878521
1.12921
0.801109
0.520052
0.42156
0.395138
0.383484
0.376807
0.368982
0.359273
0.355924
0.355027
0.353471
0.349117
0.341134
0.323769
0.291201
0.250014
0.211588
0.180054
0.154168
0.146595
0.147028
0.14936
0.15201
0.153027
0.150714
0.14631
0.145524
0.148061
0.159587
0.196121
0.231329
0.253136
0.272599
0.36978
0.536496
0.686594
0.773901
0.783857
0.737997
0.687753
0.62264
0.564274
0.514827
0.496002
0.489303
0.491733
0.496233
0.486862
0.460001
0.435104
0.427621
0.426597
0.425296
0.414912
0.372765
0.287315
0.242061
0.237488
0.250297
0.288771
0.39629
0.496133
0.566702
0.646437
0.661883
0.64444
0.615155
0.551116
0.449187
0.330437
0.230018
0.146853
0.114968
0.114672
0.205489
0.424888
0.646754
0.809393
0.889932
0.922419
0.937391
0.916241
0.816217
0.670404
0.625774
0.639194
0.80524
0.892848
0.887857
0.852608
0.833305
0.654093
0.498489
0.469129
0.52253
0.555335
0.553808
0.530888
0.488654
0.460612
0.419285
0.299975
0.241296
0.245968
0.27417
0.3887
0.539507
0.678171
0.779238
0.83154
0.863
0.851424
1.3512
1.0501
0.672549
0.468593
0.411933
0.389197
0.37675
0.366377
0.360904
0.359242
0.359061
0.357473
0.35462
0.353452
0.346801
0.324234
0.284211
0.238763
0.200504
0.170298
0.152886
0.148912
0.148965
0.150058
0.149858
0.147836
0.147183
0.150458
0.164897
0.199621
0.235556
0.259836
0.286258
0.403255
0.608329
0.790906
0.896924
0.931767
0.913721
0.868802
0.814773
0.719823
0.588694
0.501126
0.485307
0.489145
0.503012
0.521228
0.526804
0.506791
0.471054
0.440811
0.428214
0.424245
0.413643
0.375882
0.291916
0.247318
0.241937
0.254204
0.301695
0.399494
0.458532
0.545405
0.650617
0.681799
0.672656
0.644914
0.571742
0.451635
0.339426
0.248911
0.159197
0.117943
0.118193
0.210192
0.418203
0.631567
0.798792
0.887216
0.921155
0.936161
0.912955
0.810565
0.657609
0.592234
0.593792
0.707336
0.862267
0.9087
0.877639
0.861095
0.690742
0.515777
0.467471
0.485275
0.50707
0.504606
0.494581
0.475147
0.45725
0.41826
0.271436
0.233458
0.237068
0.267017
0.380484
0.525608
0.659366
0.747968
0.795184
0.82432
0.812538
1.43949
1.32118
0.934991
0.577443
0.450652
0.402217
0.380982
0.370803
0.366815
0.365768
0.36548
0.358891
0.358217
0.360432
0.362391
0.351988
0.318792
0.271046
0.2255
0.18992
0.165652
0.155605
0.151156
0.151068
0.150552
0.150264
0.154372
0.170361
0.199621
0.235683
0.265985
0.296704
0.390129
0.631641
0.866239
1.03374
1.12277
1.15941
1.13922
1.08094
0.925157
0.717088
0.566109
0.439522
0.420237
0.443249
0.48209
0.517809
0.529231
0.521471
0.494568
0.463556
0.442001
0.432109
0.421332
0.374981
0.290507
0.249432
0.245275
0.260233
0.329806
0.391321
0.422121
0.5119
0.634813
0.681457
0.67773
0.651056
0.575119
0.439457
0.33663
0.251191
0.163119
0.119087
0.121269
0.207075
0.388983
0.595802
0.778484
0.884269
0.920846
0.936188
0.910816
0.797699
0.654886
0.581243
0.577524
0.650304
0.845724
0.928855
0.907705
0.888601
0.725793
0.537064
0.471633
0.463225
0.478195
0.478494
0.473574
0.466586
0.455371
0.413649
0.261577
0.225343
0.230179
0.264792
0.37682
0.513644
0.641051
0.714039
0.753887
0.777746
0.761967
1.38902
1.48682
1.25326
0.830975
0.537442
0.437647
0.398286
0.383745
0.38059
0.381084
0.376059
0.355682
0.354197
0.364072
0.374032
0.372433
0.349738
0.305539
0.255435
0.212906
0.183095
0.169722
0.159282
0.156721
0.157302
0.162175
0.177058
0.200009
0.230501
0.262795
0.294163
0.363722
0.588297
0.87769
1.11369
1.26422
1.34492
1.35318
1.30598
1.11564
0.880155
0.648026
0.455643
0.3171
0.292344
0.31686
0.373233
0.451495
0.502978
0.510285
0.496242
0.475991
0.458421
0.446219
0.422449
0.370158
0.284836
0.251077
0.2489
0.27684
0.341552
0.370307
0.389238
0.474652
0.607413
0.673274
0.675514
0.647462
0.558914
0.415064
0.325546
0.250219
0.164226
0.120238
0.123095
0.190776
0.341456
0.562036
0.768141
0.886374
0.926498
0.942425
0.914837
0.790807
0.661731
0.587298
0.578297
0.627153
0.845885
0.959814
0.94121
0.917445
0.757876
0.563954
0.484088
0.459559
0.461803
0.468822
0.468268
0.464187
0.454426
0.39845
0.254338
0.218109
0.224347
0.270088
0.376153
0.500514
0.611808
0.677203
0.711547
0.730615
0.707232
1.24928
1.47874
1.46386
1.16532
0.746956
0.525715
0.443907
0.416358
0.411774
0.408849
0.382436
0.349141
0.346698
0.363723
0.386165
0.388182
0.375652
0.339102
0.288536
0.239643
0.203256
0.187155
0.177697
0.174654
0.176287
0.184065
0.202685
0.226096
0.254596
0.286455
0.336592
0.475306
0.797265
1.097
1.31565
1.43799
1.48312
1.43402
1.2701
1.00644
0.721238
0.456455
0.278942
0.212231
0.208485
0.221077
0.25577
0.330822
0.427612
0.48016
0.484732
0.472238
0.459853
0.445731
0.416943
0.353644
0.270309
0.253052
0.257239
0.307617
0.33818
0.345672
0.361509
0.443496
0.566528
0.658757
0.665025
0.634699
0.527126
0.378658
0.300845
0.243651
0.163879
0.12104
0.124946
0.171489
0.325349
0.56281
0.778132
0.898349
0.937331
0.953566
0.923735
0.787696
0.674679
0.6085
0.595711
0.637322
0.852938
0.996743
0.972481
0.945694
0.790041
0.590758
0.50021
0.467606
0.462731
0.470466
0.4711
0.466844
0.455352
0.370736
0.237245
0.210066
0.219818
0.27902
0.380138
0.489857
0.586441
0.642302
0.670387
0.684011
0.650205
1.00419
1.36238
1.51006
1.42626
1.09511
0.729403
0.560498
0.493622
0.46721
0.449013
0.396263
0.352026
0.34755
0.366695
0.40036
0.403353
0.396835
0.369204
0.322535
0.269832
0.225499
0.205804
0.198039
0.195677
0.197238
0.205722
0.225556
0.246939
0.272487
0.307492
0.383888
0.624158
0.975987
1.25359
1.4448
1.54
1.50732
1.34921
1.08168
0.779812
0.502197
0.302017
0.214762
0.182754
0.181008
0.188759
0.212448
0.270146
0.366961
0.438007
0.465277
0.463951
0.454409
0.43844
0.397752
0.313231
0.264787
0.258255
0.283661
0.318177
0.327782
0.323082
0.348951
0.425385
0.543179
0.649739
0.65552
0.623915
0.507603
0.348339
0.269808
0.228207
0.160097
0.121105
0.126182
0.158798
0.327824
0.578744
0.80343
0.920639
0.958022
0.975188
0.940396
0.784721
0.687455
0.640573
0.629562
0.671155
0.862979
1.01946
0.992135
0.969848
0.82055
0.623055
0.519258
0.478862
0.468943
0.475919
0.477348
0.473211
0.460328
0.330695
0.215326
0.201598
0.217692
0.294318
0.389704
0.485404
0.5669
0.610898
0.632258
0.638165
0.588219
0.689069
1.1165
1.42768
1.51435
1.39544
1.08264
0.797328
0.645987
0.575345
0.520756
0.427391
0.369089
0.359871
0.376841
0.419536
0.422578
0.4161
0.396322
0.355029
0.301243
0.248759
0.224989
0.217895
0.216098
0.217482
0.22557
0.244066
0.262671
0.285951
0.329842
0.4498
0.757031
1.09448
1.33927
1.49537
1.55191
1.38417
1.13212
0.876228
0.624624
0.387485
0.262775
0.212424
0.181473
0.177908
0.183615
0.200967
0.246393
0.325745
0.39529
0.432197
0.443433
0.437342
0.411136
0.343353
0.279769
0.266463
0.273987
0.303786
0.312495
0.307881
0.304847
0.335393
0.398897
0.533675
0.643039
0.654099
0.627916
0.519712
0.339902
0.237823
0.212259
0.154182
0.121417
0.126263
0.15544
0.341622
0.612588
0.836398
0.950463
0.986661
1.00454
0.96106
0.779351
0.696117
0.682259
0.676055
0.715639
0.88044
1.03188
1.00372
0.986151
0.848533
0.660868
0.544778
0.496649
0.479926
0.484355
0.487952
0.484043
0.465055
0.280973
0.19716
0.193346
0.217944
0.313881
0.407466
0.487953
0.551043
0.583624
0.599035
0.59591
0.527133
0.509289
0.806422
1.22302
1.46465
1.50982
1.39157
1.14884
0.938473
0.775823
0.62553
0.477896
0.397722
0.382217
0.394803
0.445858
0.451677
0.436114
0.420666
0.385423
0.333497
0.274649
0.243736
0.236085
0.234311
0.235301
0.242096
0.258598
0.273984
0.296278
0.349477
0.501823
0.823895
1.13456
1.35357
1.48407
1.46631
1.19584
0.974
0.808713
0.634902
0.455603
0.344244
0.277643
0.213931
0.183982
0.18626
0.196
0.226876
0.281045
0.337122
0.372264
0.388408
0.385258
0.341735
0.291345
0.275844
0.273742
0.293644
0.300663
0.29775
0.286679
0.286559
0.309327
0.355477
0.478728
0.615441
0.653269
0.638378
0.550019
0.350171
0.220856
0.199108
0.148787
0.122359
0.126814
0.157989
0.364848
0.64454
0.869706
0.980529
1.01753
1.0357
0.980139
0.774698
0.697518
0.717952
0.730061
0.761591
0.905804
1.03627
1.00308
0.99657
0.871005
0.694479
0.57007
0.515965
0.496411
0.500246
0.509937
0.506302
0.457194
0.245601
0.188832
0.190283
0.231241
0.332853
0.424213
0.493742
0.536851
0.55746
0.567147
0.55268
0.470156
0.442373
0.579156
0.931294
1.30354
1.47431
1.50355
1.38112
1.19166
0.985996
0.745705
0.533618
0.420004
0.399581
0.412961
0.473438
0.489222
0.466187
0.442631
0.414408
0.364986
0.302159
0.26127
0.252215
0.250401
0.250913
0.256074
0.269078
0.281665
0.30168
0.356463
0.504165
0.81607
1.10375
1.30645
1.42236
1.33768
1.07698
0.925083
0.889242
0.857471
0.816534
0.754867
0.661763
0.496168
0.282968
0.195918
0.195886
0.208773
0.241416
0.276325
0.298179
0.308386
0.308905
0.28854
0.278207
0.276715
0.286282
0.291616
0.290658
0.277408
0.271103
0.272435
0.283967
0.308075
0.386478
0.546474
0.639218
0.646708
0.592665
0.393757
0.220294
0.190642
0.145667
0.12417
0.128374
0.162877
0.384523
0.665053
0.886449
1.00831
1.05184
1.06886
0.997864
0.762944
0.694072
0.735986
0.784022
0.814296
0.935203
1.02946
0.999856
1.00213
0.887418
0.722868
0.594655
0.538968
0.521506
0.530467
0.531764
0.52344
0.399208
0.218552
0.183022
0.188332
0.24321
0.346008
0.43964
0.500301
0.52804
0.53633
0.538198
0.508635
0.424772
0.418558
0.484743
0.721031
1.04424
1.33973
1.45231
1.44213
1.287
1.09204
0.826923
0.567148
0.427395
0.406924
0.422616
0.496849
0.530315
0.505201
0.47152
0.440818
0.396379
0.331556
0.279015
0.266254
0.26333
0.263235
0.266609
0.277063
0.286412
0.303399
0.350403
0.487627
0.780999
1.04565
1.22427
1.30611
1.20708
1.01094
0.929202
0.935673
0.936147
0.972427
1.01384
1.02728
0.949326
0.703875
0.360462
0.206289
0.204212
0.217243
0.238661
0.255913
0.267767
0.272945
0.273441
0.274836
0.279448
0.283531
0.282936
0.272071
0.265553
0.261496
0.261838
0.265081
0.276665
0.320261
0.442247
0.599933
0.645606
0.626575
0.466287
0.236958
0.18852
0.146263
0.126907
0.130501
0.167241
0.386256
0.651788
0.875788
1.02623
1.08247
1.09802
1.0107
0.739826
0.678288
0.748195
0.827965
0.860986
0.968564
1.02172
0.998241
1.00702
0.899573
0.742266
0.621162
0.56836
0.55406
0.563795
0.559389
0.516778
0.281279
0.185507
0.178212
0.1888
0.252372
0.358321
0.45557
0.508392
0.524087
0.525814
0.517002
0.46607
0.396276
0.407487
0.453308
0.619417
0.888097
1.13391
1.32546
1.36017
1.28485
1.09115
0.825467
0.541704
0.425895
0.407453
0.426288
0.513664
0.565256
0.545204
0.507114
0.470184
0.426849
0.362907
0.297584
0.279249
0.274639
0.273426
0.275499
0.282701
0.289094
0.30152
0.342051
0.460324
0.725598
0.973161
1.13328
1.1518
1.04558
0.940379
0.927307
0.938907
0.936683
0.955202
1.02117
1.09789
1.12295
0.912966
0.486713
0.224726
0.20673
0.212124
0.22442
0.236771
0.249722
0.26011
0.267371
0.271757
0.27421
0.273405
0.267411
0.262329
0.258441
0.256314
0.255019
0.254422
0.259518
0.284256
0.359489
0.535392
0.631407
0.638307
0.539349
0.302699
0.191373
0.149471
0.130305
0.133532
0.16942
0.364556
0.600128
0.825023
1.02119
1.10211
1.11827
1.01589
0.712775
0.652523
0.757025
0.879576
0.911386
0.995481
1.01769
1.00463
1.01403
0.908053
0.759712
0.649245
0.600244
0.599408
0.593472
0.566323
0.483807
0.212498
0.178097
0.177925
0.191288
0.257623
0.364982
0.46999
0.517251
0.523495
0.520249
0.498204
0.426279
0.379003
0.399556
0.442163
0.591772
0.830028
1.02456
1.18451
1.21663
1.14846
0.976679
0.712701
0.490327
0.418132
0.403538
0.424772
0.523938
0.593677
0.578908
0.542731
0.503884
0.457566
0.394431
0.318239
0.292087
0.285163
0.282836
0.282937
0.287828
0.291332
0.299664
0.330934
0.419362
0.637743
0.874711
1.01104
0.98265
0.884781
0.829961
0.915247
0.955862
0.936603
0.93392
0.97179
1.04667
1.12712
1.01846
0.608905
0.264702
0.21249
0.215271
0.22244
0.23228
0.242513
0.252371
0.259418
0.262552
0.263083
0.261957
0.259604
0.257222
0.255203
0.253236
0.250972
0.248948
0.250081
0.262892
0.307873
0.456821
0.598056
0.630664
0.591194
0.390891
0.198692
0.15398
0.134403
0.137475
0.167329
0.325393
0.511724
0.732744
0.986293
1.10796
1.12849
1.01082
0.684591
0.618723
0.77187
0.921382
0.952513
1.00854
1.02047
1.02295
1.01928
0.91495
0.777131
0.685288
0.653735
0.633939
0.606564
0.554779
0.347665
0.194298
0.178061
0.179283
0.193455
0.259401
0.369121
0.48105
0.526942
0.527188
0.516935
0.474101
0.393791
0.367578
0.394134
0.440314
0.580956
0.787441
0.937181
1.03823
1.04328
0.958093
0.763362
0.539882
0.437573
0.401874
0.400255
0.421599
0.531321
0.613753
0.604837
0.570709
0.534369
0.493535
0.428863
0.342116
0.305563
0.294923
0.290251
0.289056
0.292009
0.292965
0.297923
0.319066
0.37925
0.53178
0.73728
0.863013
0.837057
0.749776
0.693346
0.808945
0.97781
0.955533
0.93285
0.94023
0.975996
1.0655
1.03374
0.714202
0.398029
0.247204
0.227254
0.229367
0.234596
0.241953
0.249564
0.255101
0.257854
0.258623
0.258368
0.257271
0.255631
0.25418
0.252517
0.250199
0.247573
0.246154
0.250989
0.277255
0.372146
0.544666
0.614359
0.612801
0.475652
0.22466
0.163317
0.139996
0.141667
0.164245
0.280922
0.405896
0.617377
0.922393
1.10165
1.12961
0.996075
0.655331
0.58354
0.801347
0.962695
0.98618
1.01314
1.02493
1.03456
1.024
0.927627
0.81902
0.742285
0.692132
0.653705
0.601378
0.462264
0.213661
0.182145
0.179292
0.18183
0.193476
0.246632
0.364955
0.486687
0.540249
0.535193
0.512405
0.441139
0.374917
0.362194
0.385099
0.430112
0.561806
0.727296
0.828549
0.855352
0.808063
0.682938
0.527273
0.437509
0.400315
0.391985
0.397282
0.424346
0.540859
0.629778
0.622312
0.59095
0.558611
0.524982
0.465816
0.371648
0.320742
0.305357
0.298175
0.294592
0.294736
0.29433
0.296393
0.309561
0.346326
0.443707
0.598684
0.728507
0.715161
0.644018
0.573333
0.613674
0.882286
0.975873
0.929978
0.906555
0.932673
1.02362
0.977734
0.732096
0.515015
0.384107
0.300243
0.263709
0.254621
0.253769
0.255451
0.257701
0.259246
0.259787
0.259705
0.259124
0.258174
0.256951
0.254786
0.251851
0.248685
0.246125
0.246131
0.258583
0.310093
0.470164
0.58552
0.611416
0.542762
0.306752
0.179058
0.147417
0.146683
0.163368
0.236644
0.312582
0.514303
0.854809
1.09081
1.12645
0.9717
0.621559
0.572555
0.836562
0.998949
1.00634
1.01901
1.02964
1.04465
1.03467
0.966851
0.868705
0.778893
0.719878
0.649794
0.514731
0.263007
0.192951
0.183713
0.182559
0.185359
0.195277
0.236923
0.347791
0.488703
0.557398
0.548992
0.509121
0.416433
0.366226
0.361284
0.373529
0.413331
0.516759
0.611663
0.653733
0.631375
0.568476
0.481383
0.420288
0.391946
0.38497
0.387942
0.39904
0.434807
0.555199
0.64135
0.637878
0.602094
0.572415
0.54946
0.503076
0.406461
0.339412
0.318544
0.307379
0.301133
0.298886
0.296937
0.295674
0.302726
0.323395
0.378788
0.488052
0.609504
0.617374
0.570832
0.488151
0.478122
0.66615
0.908845
0.916247
0.900269
0.9347
1.01063
0.989805
0.811789
0.67389
0.595839
0.514312
0.422933
0.365517
0.323093
0.302016
0.290807
0.284444
0.28121
0.279241
0.277301
0.274453
0.270094
0.264389
0.258219
0.252412
0.248334
0.24596
0.250147
0.276797
0.385523
0.540397
0.591154
0.576807
0.403134
0.20984
0.158258
0.152283
0.162797
0.198353
0.245827
0.454675
0.832509
1.0805
1.12035
0.928854
0.58854
0.574478
0.855067
1.0151
1.02261
1.02458
1.0346
1.05909
1.06013
1.00039
0.897276
0.803571
0.702932
0.541183
0.304243
0.207943
0.191425
0.187809
0.187462
0.189581
0.198516
0.231321
0.333972
0.482725
0.566622
0.560463
0.507666
0.409262
0.366885
0.364322
0.361212
0.387236
0.441086
0.475008
0.487969
0.47122
0.43148
0.398073
0.381491
0.377946
0.381826
0.393562
0.41349
0.46309
0.577736
0.652192
0.648328
0.603915
0.575026
0.56679
0.53539
0.446737
0.361971
0.333821
0.320117
0.309939
0.305083
0.300269
0.297436
0.299037
0.309703
0.337062
0.40741
0.509577
0.538298
0.511742
0.439333
0.405419
0.500023
0.809786
0.933733
0.928881
0.984622
1.06525
1.17466
1.24031
1.25488
1.16979
0.985762
0.79259
0.655123
0.547898
0.46546
0.408414
0.372101
0.348539
0.330402
0.315401
0.302187
0.290691
0.28015
0.270478
0.261165
0.253821
0.248831
0.248365
0.261144
0.320562
0.479364
0.570905
0.587327
0.487239
0.271613
0.168716
0.157133
0.162852
0.179247
0.211959
0.4466
0.838193
1.07532
1.10379
0.859733
0.561694
0.576879
0.856624
1.02219
1.03688
1.03126
1.04369
1.08604
1.07086
0.992663
0.882823
0.73582
0.543495
0.312376
0.223184
0.202621
0.196418
0.193897
0.193111
0.19478
0.202559
0.223221
0.305444
0.459144
0.569931
0.580849
0.528375
0.423704
0.377266
0.373718
0.351489
0.36787
0.390363
0.402586
0.40319
0.391508
0.377902
0.371214
0.371096
0.375074
0.387656
0.421455
0.454897
0.503168
0.600994
0.663881
0.65542
0.606085
0.572296
0.577115
0.560765
0.492099
0.388927
0.351398
0.332928
0.320805
0.311849
0.305917
0.300206
0.298155
0.301557
0.314967
0.350097
0.432795
0.473151
0.461646
0.411407
0.365534
0.404612
0.677154
0.889043
0.980322
1.09397
1.15612
1.24523
1.39107
1.53927
1.58709
1.41325
1.13905
0.942165
0.794534
0.674915
0.580152
0.504061
0.445863
0.403106
0.372046
0.34815
0.328685
0.31157
0.295238
0.279846
0.266678
0.255483
0.250567
0.256368
0.287623
0.410309
0.538543
0.582929
0.535331
0.346753
0.191128
0.162447
0.165048
0.173417
0.204922
0.4573
0.858527
1.07158
1.07511
0.77551
0.54219
0.576061
0.841755
1.02014
1.04893
1.05124
1.05963
1.06224
1.0223
0.915292
0.729985
0.494372
0.304817
0.234368
0.21476
0.207157
0.203376
0.202053
0.201215
0.202128
0.207837
0.224854
0.277106
0.408343
0.55655
0.593521
0.568285
0.466051
0.411516
0.400396
0.344035
0.354955
0.364471
0.368102
0.365566
0.362102
0.361753
0.364159
0.368557
0.378583
0.402425
0.447875
0.500614
0.545443
0.622489
0.673259
0.66327
0.607015
0.560954
0.577284
0.583049
0.53787
0.431333
0.371458
0.347053
0.332975
0.321669
0.313112
0.30563
0.300368
0.29855
0.303824
0.318967
0.373592
0.421244
0.420056
0.393749
0.34451
0.358765
0.551758
0.805287
1.03093
1.21075
1.24584
1.26227
1.33471
1.43223
1.50132
1.40482
1.17261
0.998864
0.860995
0.749999
0.657173
0.580087
0.517841
0.468549
0.424501
0.385992
0.353352
0.326223
0.303928
0.286364
0.272605
0.262505
0.254912
0.256843
0.275105
0.355118
0.497748
0.563158
0.550995
0.418564
0.227552
0.172438
0.167156
0.170745
0.207067
0.493802
0.891833
1.0625
1.02947
0.688672
0.530423
0.579411
0.832896
1.00252
1.03419
1.03198
1.02165
0.99071
0.891514
0.693563
0.429676
0.288682
0.242364
0.226299
0.218947
0.21546
0.215068
0.21374
0.212604
0.212163
0.215462
0.228452
0.260918
0.331574
0.512936
0.594644
0.593628
0.54126
0.447004
0.435147
0.338394
0.346352
0.351182
0.351621
0.351228
0.353168
0.357051
0.362083
0.370856
0.387171
0.417748
0.474846
0.5408
0.585345
0.640561
0.677428
0.667158
0.607994
0.551395
0.5656
0.610909
0.591795
0.502636
0.397385
0.36492
0.345321
0.332619
0.322513
0.312745
0.305766
0.30114
0.300421
0.306914
0.336878
0.382871
0.388133
0.376571
0.335471
0.337578
0.452183
0.723451
1.0246
1.3443
1.34531
1.30977
1.30711
1.34522
1.32069
1.14121
0.96398
0.86429
0.783568
0.71182
0.646467
0.583823
0.525458
0.46961
0.421216
0.379112
0.344829
0.317938
0.297766
0.283585
0.272499
0.264768
0.258495
0.259413
0.271335
0.321889
0.453468
0.54186
0.556577
0.475348
0.287092
0.184268
0.169546
0.16915
0.217879
0.5541
0.926969
1.04543
0.969709
0.620687
0.516582
0.56805
0.801491
0.958674
0.990402
0.981313
0.936669
0.824535
0.61594
0.390998
0.282746
0.248944
0.236551
0.231559
0.230716
0.233475
0.233432
0.231545
0.228605
0.225658
0.226241
0.23469
0.258398
0.297397
0.430456
0.571397
0.604363
0.586495
0.526294
0.47494
0.334581
0.340768
0.343366
0.343701
0.345773
0.349518
0.355795
0.363909
0.37583
0.39559
0.431224
0.499687
0.572315
0.615785
0.653657
0.678822
0.666894
0.613009
0.544493
0.544688
0.622227
0.65159
0.592035
0.464099
0.388513
0.362475
0.344707
0.332608
0.321755
0.312246
0.305653
0.303038
0.304191
0.321454
0.358267
0.36566
0.362184
0.331292
0.326227
0.384664
0.628652
0.979154
1.4279
1.44075
1.36453
1.3315
1.31645
1.21177
0.976833
0.814158
0.728553
0.682404
0.649864
0.608277
0.55141
0.489353
0.429488
0.375719
0.328207
0.304898
0.29074
0.28316
0.277615
0.272926
0.267173
0.262698
0.263093
0.272523
0.309194
0.417776
0.514615
0.551711
0.509187
0.351488
0.204154
0.172756
0.169889
0.24038
0.631186
0.953299
1.02127
0.908486
0.58408
0.490677
0.530084
0.717582
0.853047
0.878403
0.850343
0.732524
0.522753
0.350035
0.28002
0.255659
0.249291
0.246209
0.251494
0.260364
0.263739
0.261457
0.256338
0.249334
0.242689
0.239567
0.243084
0.259992
0.300519
0.341976
0.508279
0.599511
0.603722
0.584497
0.545759
0.331764
0.336285
0.338064
0.339236
0.34269
0.348797
0.355636
0.364178
0.377307
0.399962
0.43901
0.510023
0.592601
0.635067
0.660938
0.674821
0.663205
0.619878
0.536384
0.516298
0.612705
0.695737
0.679636
0.589051
0.450239
0.385878
0.362317
0.344928
0.331183
0.320423
0.311162
0.306329
0.304467
0.313037
0.34368
0.351794
0.352333
0.329568
0.32049
0.352488
0.521703
0.898112
1.43656
1.51274
1.4439
1.4011
1.3304
1.13674
0.86422
0.718463
0.655867
0.621973
0.579698
0.519313
0.446693
0.371421
0.327666
0.306242
0.297169
0.292631
0.290329
0.288346
0.285725
0.280753
0.273877
0.26964
0.269237
0.27628
0.308343
0.400969
0.493307
0.538375
0.524957
0.411948
0.234997
0.177777
0.172471
0.272382
0.70961
0.960436
0.992259
0.852268
0.567119
0.45296
0.46083
0.557873
0.65325
0.664752
0.606004
0.443987
0.326481
0.280001
0.266006
0.260638
0.269416
0.294157
0.317122
0.324913
0.320446
0.306949
0.288487
0.275797
0.264351
0.255787
0.252235
0.260095
0.292338
0.313133
0.40088
0.55654
0.611281
0.609044
0.597939
0.329952
0.33296
0.334076
0.337031
0.341517
0.347013
0.353556
0.361552
0.374633
0.397806
0.437048
0.501449
0.590564
0.641418
0.661347
0.665682
0.655523
0.622901
0.535076
0.497398
0.570452
0.700928
0.741992
0.699495
0.592599
0.448855
0.387473
0.363392
0.345107
0.32977
0.318634
0.311994
0.306868
0.309853
0.331228
0.338633
0.341109
0.326315
0.316191
0.33497
0.442751
0.777035
1.38656
1.57053
1.52914
1.45498
1.26881
0.956745
0.695241
0.606361
0.576297
0.522195
0.445002
0.367125
0.326022
0.311907
0.306182
0.304841
0.30506
0.310479
0.315902
0.317468
0.31642
0.308965
0.297935
0.286635
0.282564
0.285369
0.31396
0.399056
0.485437
0.533913
0.53285
0.463035
0.289573
0.184609
0.175912
0.313768
0.775305
0.957688
0.967959
0.82367
0.569135
0.423993
0.403702
0.425385
0.452571
0.446702
0.388182
0.313636
0.280931
0.274129
0.277231
0.30573
0.369519
0.402422
0.415185
0.416255
0.409239
0.388535
0.351631
0.314286
0.289857
0.275619
0.265996
0.264943
0.281368
0.314096
0.34633
0.463666
0.584123
0.621553
0.620335
0.328101
0.330706
0.331719
0.334525
0.338628
0.344402
0.349969
0.356013
0.364704
0.380335
0.41131
0.472336
0.566002
0.629999
0.65477
0.654807
0.644312
0.62028
0.552
0.485231
0.504742
0.675333
0.758171
0.766931
0.713132
0.602297
0.466706
0.392976
0.364816
0.346095
0.330543
0.319855
0.313591
0.312071
0.323301
0.327767
0.330097
0.320024
0.311213
0.323677
0.386613
0.681344
1.30445
1.6017
1.56476
1.41693
1.06077
0.694941
0.55889
0.535973
0.49267
0.420112
0.353888
0.326643
0.317589
0.315733
0.317446
0.328831
0.343621
0.350783
0.353802
0.352715
0.34846
0.345571
0.340663
0.332321
0.324658
0.324903
0.350702
0.417367
0.492201
0.538356
0.541448
0.499605
0.352081
0.198408
0.179822
0.356325
0.809279
0.950284
0.950913
0.812161
0.578243
0.416063
0.367748
0.353222
0.35396
0.342552
0.307711
0.281225
0.277396
0.287437
0.346133
0.423626
0.459345
0.470631
0.471162
0.468177
0.462795
0.45254
0.430971
0.397766
0.345322
0.306323
0.288382
0.27843
0.279204
0.308031
0.330359
0.374799
0.501862
0.60126
0.633271
0.326762
0.328602
0.328998
0.331662
0.336305
0.341674
0.346082
0.350374
0.355775
0.363886
0.377076
0.413486
0.512819
0.604308
0.635844
0.641665
0.631589
0.613309
0.566436
0.479654
0.469334
0.598526
0.733406
0.780678
0.774292
0.720994
0.619172
0.497503
0.405935
0.368879
0.348934
0.334886
0.325026
0.319944
0.322404
0.323941
0.323922
0.314702
0.307955
0.317043
0.357523
0.633507
1.27017
1.60414
1.55998
1.25054
0.752211
0.542443
0.520165
0.505127
0.461455
0.399174
0.356601
0.344217
0.344018
0.360612
0.380502
0.39312
0.399427
0.401561
0.394847
0.3835
0.373761
0.370829
0.370701
0.374863
0.387841
0.421086
0.458922
0.500771
0.53683
0.556001
0.557693
0.529195
0.412964
0.229996
0.185481
0.378304
0.804684
0.939381
0.943432
0.81469
0.58935
0.416795
0.358329
0.314216
0.30602
0.296528
0.280984
0.276792
0.286878
0.355466
0.445413
0.484589
0.491452
0.488023
0.484229
0.483159
0.483223
0.480749
0.473694
0.458201
0.42756
0.374856
0.321152
0.297947
0.290368
0.293225
0.32028
0.344937
0.402129
0.519787
0.611802
0.325904
0.327036
0.327825
0.330331
0.333924
0.338632
0.342533
0.346261
0.350138
0.354992
0.361784
0.373848
0.417203
0.549664
0.609274
0.622331
0.618063
0.604517
0.574209
0.497548
0.454969
0.501625
0.670391
0.751763
0.771058
0.763361
0.71967
0.634129
0.538148
0.437208
0.380046
0.356028
0.34331
0.334524
0.330367
0.327778
0.323603
0.313509
0.308141
0.313859
0.346268
0.639782
1.27778
1.59519
1.49254
0.967029
0.551238
0.506307
0.506203
0.497952