/*--------------------------------*- C++ -*----------------------------------*\
  =========                 |
  \\      /  F ield         | OpenFOAM: The Open Source CFD Toolbox
   \\    /   O peration     | Website:  https://openfoam.org
    \\  /    A nd           | Version:  10
     \\/     M anipulation  |
\*---------------------------------------------------------------------------*/
FoamFile
{
    format      ascii;
    class       volScalarField;
    location    "0.400937";
    object      T;
}
// * * * * * * * * * * * * * * * * * * * * * * * * * * * * * * * * * * * * * //

dimensions      [0 0 0 1 0 0 0];

internalField   nonuniform List<scalar> 
16320
(
0.00199621
0.00253304
0.00364631
0.00420728
0.00424142
0.00400453
0.00374476
0.00368949
0.00370367
0.0038835
0.00426723
0.00470661
0.00512868
0.00564143
0.00624637
0.00697819
0.00831274
0.00966852
0.00991755
0.00981043
0.00911528
0.00776944
0.00621297
0.00497189
0.00449777
0.00440234
0.00452898
0.00511062
0.0065608
0.00957411
0.0116129
0.0122651
0.0124157
0.0124506
0.0124139
0.0122879
0.0120003
0.0114135
0.0105398
0.00961281
0.00895269
0.00844273
0.00800052
0.00754703
0.00715657
0.00683008
0.00659533
0.00647626
0.00644727
0.00642816
0.00638178
0.00629807
0.00616614
0.00603315
0.00598146
0.00620726
0.00750559
0.00977025
0.0104827
0.0103569
0.00917768
0.00746671
0.00518588
0.00354418
0.00309368
0.00300705
0.00306521
0.00366877
0.0054288
0.00917305
0.011075
0.011712
0.0131881
0.0146793
0.0138222
0.00915534
0.00455136
0.00290888
0.00226782
0.00202922
0.00195742
0.00194368
0.00194672
0.00194344
0.00186823
0.00181258
0.00185887
0.00206081
0.00237984
0.00255558
0.00245316
0.00229972
0.00247556
0.00249241
0.00203133
0.00173526
0.00172265
0.00199695
0.00268133
0.00344088
0.00410081
0.00442997
0.00477176
0.00496476
0.00498046
0.00467944
0.00385056
0.00270399
0.00209284
0.00187572
0.00182806
0.00183683
0.00188618
0.00202425
0.0025695
0.00357573
0.00394274
0.00393973
0.00367856
0.00349104
0.00345767
0.00347597
0.00362361
0.00389826
0.00420474
0.00462092
0.00523888
0.00596068
0.00660554
0.00759793
0.00919397
0.0097969
0.0098194
0.00936159
0.00824322
0.00675246
0.00547174
0.00498494
0.00488814
0.00511057
0.00612022
0.00837562
0.011066
0.0120313
0.0122858
0.0123657
0.0122692
0.0119401
0.0111282
0.00990278
0.00895969
0.00844168
0.00808619
0.00788337
0.00763903
0.00731907
0.00698495
0.00667496
0.00641335
0.00622569
0.00614843
0.00616463
0.0061713
0.00615378
0.00609574
0.00600966
0.00594371
0.00597374
0.0064285
0.00821626
0.0102182
0.0106394
0.0103444
0.00899656
0.00745207
0.00499227
0.00357622
0.00320146
0.00312957
0.00313725
0.00346518
0.004607
0.00739753
0.0105555
0.0116712
0.0135543
0.0148395
0.014338
0.00968512
0.00464167
0.00292635
0.00227452
0.00204228
0.00199506
0.0019968
0.00203954
0.00206104
0.0020335
0.00189294
0.00187327
0.00198709
0.00231696
0.00256256
0.00253513
0.00238226
0.00253142
0.00256148
0.0021229
0.00176179
0.00172211
0.00189879
0.00238918
0.0029304
0.00340787
0.00374165
0.00439805
0.00494678
0.00500209
0.00471625
0.00395987
0.00292656
0.00230883
0.00198595
0.00188099
0.00187782
0.00194435
0.00205341
0.00257091
0.0034443
0.00370229
0.003689
0.00348471
0.00337031
0.00335389
0.00337809
0.00349118
0.00364591
0.00382802
0.00414781
0.00471218
0.00543865
0.00622302
0.00711402
0.00843797
0.00957436
0.00977933
0.00957548
0.00878895
0.00756614
0.00657487
0.00619727
0.00613078
0.00665706
0.00833762
0.0105625
0.011733
0.012071
0.0121884
0.0119846
0.0112672
0.00979722
0.00870412
0.0082823
0.00797289
0.00755175
0.00711853
0.00666095
0.00623757
0.00611863
0.00607536
0.00604808
0.00601575
0.00598274
0.00599314
0.00603737
0.00605781
0.00603369
0.00597871
0.00591866
0.00589014
0.00597801
0.00658484
0.0086313
0.0104108
0.0106922
0.0102741
0.00890352
0.00732409
0.00475362
0.00366715
0.00335458
0.00323977
0.00320384
0.00333862
0.00401522
0.00595161
0.00885172
0.0112367
0.0135069
0.0148608
0.0145392
0.00988857
0.00443963
0.00276112
0.00219901
0.00203535
0.00200336
0.00201071
0.00208195
0.00222271
0.00222776
0.00210704
0.00194238
0.00197569
0.00221806
0.00255599
0.00258919
0.00247199
0.00259578
0.00266049
0.0022741
0.00182142
0.00174151
0.00182744
0.00216621
0.00255937
0.0029502
0.00332585
0.00408127
0.00495131
0.00502875
0.0047149
0.00386968
0.00296505
0.0023616
0.00204307
0.00193799
0.00193589
0.00203299
0.00211045
0.00254764
0.00330682
0.00352122
0.00351686
0.00339499
0.00333699
0.00333289
0.00336861
0.00345523
0.00353267
0.003616
0.00383144
0.00423883
0.00485308
0.0056626
0.00660619
0.0076971
0.00913116
0.0096906
0.00969894
0.0092987
0.00851059
0.00797227
0.00781121
0.0079006
0.00879069
0.0103774
0.011402
0.0117759
0.0119054
0.011561
0.0102405
0.00877243
0.00810721
0.00783676
0.00725885
0.00624669
0.00518631
0.00438774
0.00395655
0.00388466
0.00398798
0.00420609
0.00450244
0.00489711
0.00534547
0.00567986
0.00588604
0.00597233
0.00596691
0.00591759
0.005874
0.00586685
0.00598976
0.00666417
0.00877972
0.0104535
0.0106902
0.0101466
0.00884469
0.00699666
0.00464689
0.00378482
0.00342783
0.00326401
0.00320606
0.00321852
0.00357095
0.00479974
0.00722201
0.0099533
0.0132038
0.0148217
0.0145776
0.00923152
0.004031
0.00259476
0.0021187
0.00200228
0.00199457
0.00201098
0.00208848
0.00234297
0.00245608
0.00241291
0.00211512
0.00202213
0.00214411
0.00251949
0.00262986
0.00255486
0.00266197
0.0027788
0.00247763
0.00194963
0.00181809
0.00185025
0.00210693
0.00243938
0.0027526
0.00310885
0.00396309
0.00501894
0.00510951
0.00474427
0.00361186
0.00283984
0.00234496
0.00205516
0.00197489
0.00198108
0.00211018
0.00219126
0.00247992
0.00318073
0.00342039
0.00342575
0.00336823
0.00334161
0.00334269
0.00339469
0.00346832
0.00350067
0.00354368
0.00366751
0.00391143
0.00434
0.00504137
0.00598078
0.00705655
0.00842599
0.00950867
0.00971747
0.00964391
0.00931844
0.00914553
0.00911732
0.00943887
0.0103021
0.0110871
0.0114202
0.0115302
0.0110468
0.00939216
0.00810783
0.00757036
0.00721327
0.00601809
0.00452579
0.0034939
0.00300342
0.0028514
0.00286186
0.00296561
0.00316526
0.00333788
0.00352969
0.00379806
0.00420562
0.00481975
0.00544321
0.00578987
0.00588226
0.00587137
0.00584893
0.00585979
0.00600136
0.00668988
0.00878781
0.0104304
0.0106374
0.00999086
0.00872156
0.00664335
0.00465104
0.00389316
0.00343706
0.00323479
0.00314862
0.00312002
0.00330608
0.00405463
0.00584691
0.00846743
0.0123816
0.0146868
0.0145416
0.00839528
0.00389237
0.00256333
0.00210203
0.00198409
0.00197705
0.00199835
0.00208023
0.00236718
0.00271417
0.00274352
0.00249475
0.00214055
0.00216239
0.00245389
0.00265918
0.00261741
0.00271853
0.00289667
0.00269141
0.00218057
0.00200343
0.00199825
0.00216252
0.00246072
0.00268028
0.00299713
0.00395115
0.00519264
0.00523192
0.00482846
0.00353693
0.00267475
0.00224058
0.00203453
0.001995
0.00201056
0.00214715
0.00227193
0.00241086
0.00304963
0.00337682
0.00340103
0.0033759
0.00336426
0.00339165
0.00346358
0.00349116
0.00350324
0.00353503
0.00360555
0.00372608
0.00397759
0.00449244
0.00532019
0.00639387
0.00764847
0.00904308
0.00965259
0.00976825
0.00977271
0.0097763
0.00990193
0.0102619
0.010777
0.0110512
0.0110904
0.0105022
0.00874402
0.00755523
0.00704047
0.00666203
0.00501403
0.00352079
0.00278819
0.00247947
0.00242339
0.00251473
0.00261258
0.00276604
0.00294632
0.0031748
0.00332679
0.00349164
0.0037441
0.00414936
0.00468473
0.00526877
0.00566698
0.00579132
0.00581595
0.00584682
0.00600333
0.006684
0.00867305
0.0102728
0.0104362
0.00984107
0.00845824
0.0060808
0.00474641
0.00401456
0.00335656
0.00309113
0.00298369
0.00295718
0.00314827
0.00375811
0.00504506
0.00720365
0.011253
0.0143706
0.014373
0.00801759
0.00387578
0.00257727
0.00210537
0.00197274
0.00196318
0.00198619
0.0020743
0.00234392
0.00287348
0.00306777
0.00296872
0.00241804
0.00225179
0.00241623
0.00268499
0.00266906
0.00276518
0.00300002
0.00286742
0.00245673
0.00226352
0.00224684
0.00233091
0.00252616
0.00267861
0.00295144
0.00421613
0.00531708
0.00532022
0.00486692
0.00351724
0.00262789
0.00219664
0.00202572
0.00200608
0.00202874
0.0021645
0.00225459
0.00238864
0.00281255
0.00333014
0.00341456
0.0034072
0.00341101
0.0034567
0.00348945
0.00350173
0.00351254
0.00354846
0.0036063
0.00364482
0.00375667
0.00407725
0.00472806
0.00572275
0.00692954
0.00829156
0.00933992
0.00972983
0.00987878
0.00996103
0.0101391
0.0104476
0.010658
0.0106197
0.00990275
0.00833625
0.00721337
0.0066822
0.00621119
0.0045215
0.00307885
0.00243243
0.00217836
0.00210569
0.0021151
0.00214961
0.00218371
0.00236124
0.00279448
0.00328024
0.00343989
0.00355911
0.00374731
0.0040194
0.00435642
0.00476372
0.00519801
0.00556633
0.00573886
0.00581619
0.00598542
0.0066052
0.00850966
0.0100265
0.0102186
0.00966564
0.00806538
0.00599572
0.00509832
0.00414644
0.0033177
0.00298358
0.00284317
0.00280975
0.00302738
0.00373417
0.00491472
0.00666905
0.0104093
0.0140713
0.01402
0.00787927
0.0039581
0.00264625
0.00213274
0.00197105
0.00195495
0.00197953
0.0020769
0.00236055
0.00293853
0.00327007
0.00326503
0.00279311
0.00238158
0.00245231
0.00270991
0.0027109
0.00280468
0.00307974
0.00299091
0.00270217
0.00250911
0.00248088
0.00250611
0.00259175
0.00268333
0.00293595
0.00457403
0.00539363
0.00539461
0.00487286
0.00349365
0.00261481
0.00218409
0.00203652
0.00202485
0.0020532
0.00219166
0.002213
0.00233075
0.00261397
0.00320445
0.0034315
0.00346551
0.00346986
0.00348279
0.00349209
0.00349678
0.00351799
0.00360279
0.00363927
0.00363765
0.00364356
0.00379751
0.00425613
0.00508796
0.00621476
0.00749038
0.00870383
0.00939492
0.00979477
0.00993009
0.0100996
0.0102492
0.0101165
0.00934728
0.00809113
0.0069739
0.00631509
0.00580507
0.00452622
0.00290011
0.00220191
0.00191152
0.00179035
0.00173531
0.00171854
0.00172628
0.00190164
0.00231381
0.00290372
0.00378504
0.00408897
0.00409777
0.00406416
0.00412674
0.00432973
0.00457537
0.00487918
0.0052283
0.00551717
0.0056795
0.00585915
0.00660069
0.00853049
0.00991962
0.010057
0.00941512
0.00734599
0.00608184
0.00549915
0.00439301
0.00338644
0.00297399
0.00281445
0.00277978
0.00301888
0.0038454
0.00497793
0.0066499
0.0102375
0.0140646
0.0138052
0.00807932
0.00429844
0.0028257
0.00219565
0.00197956
0.00195334
0.00197891
0.00209131
0.00241809
0.00299275
0.00340574
0.00347539
0.0031468
0.00253229
0.00252877
0.00273498
0.00274024
0.00282312
0.00312772
0.0030756
0.00289245
0.00269484
0.00263448
0.00262543
0.002639
0.00268627
0.00296106
0.00470293
0.00552655
0.00547297
0.00482784
0.00345583
0.00261305
0.00218339
0.00206277
0.0020569
0.0020909
0.00224194
0.00225188
0.00221259
0.00244433
0.00289926
0.00342766
0.00353119
0.00351872
0.00349084
0.0034673
0.00345552
0.00352967
0.00374121
0.00377841
0.00368291
0.00359915
0.00363537
0.00391766
0.00455256
0.00553009
0.00673088
0.0079292
0.0086787
0.0093389
0.00959818
0.00967515
0.00950138
0.00880953
0.00788617
0.00692846
0.00617605
0.00563782
0.00468463
0.00298309
0.00210827
0.00175453
0.0016057
0.00153426
0.00150536
0.00149798
0.00164871
0.00196217
0.00256952
0.00364641
0.00533851
0.00604015
0.00586666
0.00528407
0.0047008
0.00449667
0.00457638
0.00476085
0.00501288
0.0052601
0.00545846
0.00581208
0.00666464
0.00867894
0.00983478
0.00988751
0.00881823
0.00705501
0.00638193
0.00592474
0.00471423
0.00352885
0.00300641
0.00282465
0.00280309
0.00312741
0.00410586
0.00520695
0.00676082
0.0103085
0.0141315
0.013811
0.00890897
0.00497062
0.00302992
0.00224105
0.00198326
0.00194937
0.00197691
0.00210624
0.0024832
0.00304238
0.00350049
0.00364425
0.0034484
0.00273605
0.00261785
0.00277336
0.0027626
0.00282867
0.00313058
0.00310387
0.00297844
0.00282407
0.00270859
0.00266635
0.00265766
0.00268838
0.00307212
0.00482046
0.00567109
0.00556051
0.00467518
0.00340944
0.00262979
0.0022301
0.00210512
0.00209713
0.0021349
0.00231239
0.00244748
0.00218144
0.00225284
0.00260087
0.00323484
0.00355682
0.00355082
0.00346048
0.00338778
0.00338519
0.00364514
0.00400082
0.00403558
0.00382021
0.00358973
0.0035563
0.00369278
0.00413846
0.00493148
0.00601916
0.00718302
0.0078982
0.00841198
0.00864771
0.00864601
0.00834891
0.00764385
0.00690939
0.00619803
0.0055876
0.0048524
0.00350966
0.00219524
0.0017059
0.00152035
0.00144595
0.00141732
0.00142394
0.00151649
0.00176309
0.00235371
0.00367905
0.00612331
0.00827964
0.00879606
0.00866223
0.00780071
0.00627399
0.00511054
0.00471946
0.00477175
0.00497506
0.00518889
0.00542637
0.00586202
0.0069517
0.00910653
0.00973264
0.00953598
0.00790028
0.00708438
0.00679544
0.00634391
0.0050207
0.00377496
0.00307442
0.00287967
0.00288053
0.00335296
0.00457832
0.00573412
0.00707459
0.0105297
0.0143116
0.0138812
0.0101161
0.00532363
0.00308451
0.00224929
0.0019822
0.00194869
0.00197943
0.00212916
0.00257203
0.00311
0.00356244
0.00377763
0.00369442
0.00298745
0.00271376
0.00281747
0.00278151
0.00282604
0.00310795
0.00309902
0.00298536
0.00285311
0.00272075
0.00266387
0.00265128
0.00268484
0.00329817
0.00516571
0.00586714
0.00563936
0.00448668
0.00333367
0.00264353
0.00227241
0.00215088
0.00214403
0.00218931
0.00241017
0.00299186
0.00229232
0.0021498
0.00230896
0.00277049
0.00340472
0.00348954
0.00337223
0.00331291
0.00337546
0.00383053
0.00430832
0.00434309
0.00402764
0.00361968
0.00352864
0.00356546
0.00384512
0.00444572
0.00537797
0.00650665
0.00721068
0.0075612
0.0077124
0.00771392
0.00744045
0.00682254
0.00626612
0.00571552
0.00512178
0.00417685
0.00261371
0.00178251
0.00149899
0.00140661
0.00138006
0.00139595
0.00144442
0.00164185
0.00217404
0.00334253
0.00562483
0.00815425
0.0098304
0.0103189
0.0102693
0.0094376
0.0076518
0.00583663
0.00506159
0.00488836
0.00501194
0.00521704
0.00549327
0.00612045
0.0078151
0.00926798
0.0095106
0.00861937
0.00759661
0.00725856
0.00722373
0.00653518
0.00520765
0.00392726
0.00312222
0.00294042
0.00296298
0.00353406
0.00507074
0.00653319
0.00772464
0.0110317
0.0146406
0.0140778
0.0111939
0.0054209
0.00307927
0.00223619
0.00198458
0.00195807
0.00199418
0.00216851
0.00270025
0.003215
0.00359357
0.00384757
0.00383466
0.00320676
0.00281138
0.00286862
0.00279669
0.00281168
0.00304249
0.00306416
0.00296654
0.00284935
0.00271202
0.00264452
0.00262672
0.00266619
0.00369198
0.00570418
0.00610627
0.00567684
0.00422676
0.00322003
0.00262545
0.00229883
0.00219601
0.00219539
0.00225882
0.00255832
0.00427313
0.00267137
0.00220701
0.00214964
0.00237843
0.00289821
0.00331453
0.00329539
0.00323538
0.00338057
0.00405199
0.00465255
0.00469574
0.0043211
0.00371787
0.00353303
0.00350723
0.0036538
0.00408257
0.00485106
0.0059327
0.00661739
0.00688469
0.00698568
0.00698571
0.00676253
0.00626554
0.00583332
0.00537201
0.00468976
0.00347541
0.00211688
0.00156959
0.00139902
0.00136047
0.00137628
0.00140701
0.00150104
0.00183334
0.00254677
0.00416452
0.00636247
0.00827463
0.0100445
0.0106545
0.0106797
0.0100548
0.00841867
0.00652081
0.00555282
0.00522545
0.00521659
0.00540188
0.00584363
0.00705725
0.00872166
0.00918374
0.0089267
0.0079916
0.00767361
0.00766125
0.00759217
0.0067471
0.00552064
0.0039867
0.00316524
0.00297388
0.00298608
0.00351376
0.00530605
0.00758046
0.00851288
0.0117516
0.0149862
0.0144496
0.0117474
0.00536734
0.00300585
0.00222649
0.00199756
0.00197926
0.00202104
0.00222184
0.00285942
0.00334753
0.00357582
0.00382467
0.00383817
0.00327878
0.00285467
0.00290096
0.00280701
0.00278836
0.00294001
0.00297946
0.00290251
0.00281551
0.0026888
0.00260508
0.00257985
0.00265421
0.00435855
0.00625185
0.00637532
0.00566765
0.00394619
0.00305425
0.00257571
0.00231769
0.00223828
0.00224423
0.00233525
0.00274622
0.00569535
0.00358604
0.0024624
0.00216671
0.00218028
0.00245515
0.00288652
0.00306681
0.00310309
0.00341898
0.00424304
0.00498546
0.00506438
0.00469086
0.00389855
0.00357384
0.00351377
0.00354637
0.0038337
0.0044283
0.00541273
0.00613057
0.00636856
0.0064486
0.00645004
0.00627899
0.00587612
0.0055379
0.00511495
0.00434589
0.00303479
0.00190365
0.0014817
0.00136648
0.00135925
0.00139146
0.00141353
0.00150188
0.00173742
0.00225375
0.00332164
0.00470193
0.00628545
0.00866697
0.010431
0.0106725
0.0104354
0.00923577
0.00759907
0.0065065
0.00604221
0.00592332
0.0060968
0.00698116
0.00830376
0.00882135
0.00890447
0.00826999
0.0080047
0.00797261
0.00814474
0.00799479
0.00724683
0.00615303
0.00443552
0.00332687
0.00301313
0.00298462
0.00338473
0.00526405
0.0083501
0.0093103
0.0125039
0.0152859
0.0148094
0.0119156
0.00519274
0.00296922
0.00223715
0.0020304
0.00201544
0.00205911
0.00228513
0.00301476
0.00348668
0.00353905
0.00366642
0.00368221
0.00320058
0.00284139
0.00291275
0.0028074
0.00276556
0.00284897
0.00288916
0.00282777
0.00275075
0.00262882
0.00251508
0.00248372
0.00272824
0.0050369
0.00656798
0.00650707
0.00535546
0.003715
0.00291613
0.00251658
0.00233803
0.00229101
0.00230615
0.00244094
0.00297231
0.00644327
0.00492599
0.00309191
0.00232845
0.00217228
0.00222369
0.00250583
0.00281678
0.00298524
0.00337837
0.00432458
0.00530915
0.00545018
0.00508425
0.00416273
0.00367502
0.00354566
0.00353305
0.00366917
0.00412334
0.00497561
0.00575074
0.00598131
0.00604434
0.00604489
0.00591857
0.00561562
0.00534
0.00495864
0.004185
0.00295426
0.00187245
0.00146478
0.00135517
0.00136526
0.00141092
0.00141295
0.00139457
0.00138179
0.00146448
0.00167871
0.00201989
0.00256378
0.0038089
0.00701805
0.0102507
0.0105936
0.010194
0.00896528
0.00800298
0.00758528
0.00748208
0.00761754
0.00828906
0.00867819
0.00875678
0.00846032
0.00825603
0.00819749
0.0084685
0.00852236
0.00832276
0.00782196
0.00705292
0.00548643
0.00377351
0.00311951
0.00299486
0.00320348
0.00478381
0.00856375
0.00996952
0.0131232
0.0154944
0.015076
0.0119402
0.00510301
0.00300045
0.00230213
0.0020766
0.00205065
0.0020936
0.00234413
0.00318028
0.00360953
0.00352289
0.00343371
0.00341731
0.00304525
0.0028241
0.00290379
0.00279771
0.00274455
0.00277003
0.00280078
0.00273734
0.00264657
0.0025048
0.00243888
0.00242784
0.00315597
0.00575022
0.00684475
0.00662502
0.0051182
0.00357717
0.00280533
0.00246403
0.00234592
0.00233661
0.00237485
0.0025824
0.00318913
0.00667294
0.00578036
0.00390093
0.00275709
0.00226069
0.00218822
0.00227106
0.00250959
0.00274587
0.00323511
0.0043435
0.00558337
0.00577878
0.00545272
0.00443591
0.00380552
0.00361283
0.00355723
0.00360597
0.00390432
0.00461504
0.00544228
0.00570122
0.00576528
0.00576671
0.00567753
0.00543187
0.00521582
0.00487881
0.00419186
0.00299165
0.00189667
0.00147422
0.00135662
0.00138101
0.00145098
0.00143
0.00127356
0.00116142
0.0011475
0.00118993
0.00130911
0.00152528
0.0019329
0.00289755
0.00590858
0.0101518
0.0105943
0.0101212
0.00936783
0.00890384
0.0086851
0.00865415
0.0087402
0.00875209
0.00862369
0.00847726
0.00842878
0.00866614
0.00875638
0.00874842
0.00858043
0.00831552
0.00781346
0.00661504
0.00468697
0.00336689
0.00304835
0.00309023
0.00412654
0.00813855
0.0103361
0.0134236
0.0155872
0.015277
0.0120094
0.00525598
0.00318904
0.00243707
0.00213823
0.00208736
0.0021261
0.00239997
0.00337615
0.00376532
0.00349309
0.0032383
0.00317843
0.00288009
0.0028018
0.00288587
0.00277935
0.00272219
0.00271674
0.00270472
0.00262503
0.00252075
0.00238454
0.0023461
0.00249387
0.0045255
0.00686863
0.00711391
0.00667591
0.00497132
0.00346858
0.00270554
0.00241128
0.00234054
0.00234843
0.00242545
0.00275303
0.00332917
0.00669782
0.0060458
0.00442619
0.00311007
0.00250401
0.00221129
0.00220713
0.00232889
0.0026089
0.00317565
0.00461959
0.00578397
0.00601918
0.00571304
0.00465807
0.00392671
0.00370244
0.00361804
0.0036115
0.00378302
0.0043332
0.00519484
0.00549967
0.00556293
0.00556702
0.00549883
0.00531748
0.00514538
0.00487258
0.00423424
0.00311207
0.0019819
0.0015129
0.00137981
0.00143097
0.00154355
0.00151111
0.00127871
0.00111044
0.00106738
0.00106681
0.00112318
0.00126743
0.00156089
0.00224382
0.00442723
0.0093879
0.010583
0.010465
0.0100479
0.00968701
0.00933245
0.00908074
0.00891775
0.00880862
0.00872738
0.00870987
0.00883344
0.00890541
0.00891502
0.00884867
0.00874462
0.00861499
0.00830224
0.00745203
0.00579127
0.00381581
0.00316577
0.00308808
0.00364105
0.00650872
0.0104362
0.0134833
0.0155829
0.0153551
0.0122119
0.00574501
0.00358525
0.00268155
0.00223098
0.00212809
0.00215961
0.00245903
0.00358445
0.00397167
0.00346898
0.00303519
0.00296539
0.00275979
0.00277752
0.00284928
0.00275469
0.00270568
0.00266731
0.00261149
0.00251919
0.00236582
0.00230263
0.00235618
0.00273039
0.00613862
0.00728539
0.00723322
0.00667179
0.00491791
0.00342846
0.00262841
0.00236512
0.0023275
0.00234948
0.00248069
0.00295354
0.00340453
0.00666112
0.00604377
0.00451635
0.00321916
0.00262077
0.00229167
0.00225609
0.00237815
0.0027234
0.0035861
0.00515182
0.00601418
0.00624535
0.00593503
0.00478558
0.00402908
0.00380071
0.00369452
0.00365203
0.00375209
0.00415786
0.00500651
0.00536581
0.00542659
0.00541829
0.00537109
0.00522881
0.0051044
0.00488611
0.00434897
0.00337767
0.00219646
0.00162055
0.00145683
0.00154495
0.00168952
0.00168299
0.00136655
0.00112963
0.00106665
0.00105553
0.00108605
0.00120006
0.00144059
0.00196506
0.00348618
0.00814229
0.0103288
0.0103497
0.0101749
0.00991009
0.00962345
0.00934689
0.00914727
0.00905318
0.00902328
0.00901784
0.00902289
0.00900481
0.00895543
0.00889274
0.00883568
0.00877114
0.00860191
0.00806681
0.00679595
0.00451499
0.00339306
0.00317958
0.00338663
0.00515231
0.0102855
0.0134047
0.0154826
0.0153024
0.0126881
0.00660135
0.00431414
0.00309068
0.00236921
0.00217378
0.00219482
0.00252901
0.00380236
0.00424425
0.00342011
0.00289955
0.00282914
0.00270597
0.00275831
0.00279892
0.00274054
0.00269459
0.00262673
0.00251131
0.00235971
0.00229015
0.00231237
0.00246968
0.00391072
0.00692022
0.0074471
0.00730774
0.00669466
0.00494119
0.00342037
0.00258252
0.00232364
0.00230461
0.00234964
0.00258009
0.00315137
0.00344719
0.00657865
0.00592031
0.00448193
0.00329583
0.00275351
0.0024877
0.00248944
0.00270198
0.00334694
0.00471609
0.0058158
0.00634876
0.0064117
0.00611
0.00486078
0.00408222
0.00387561
0.00378477
0.00373249
0.00375423
0.0040552
0.00487166
0.00529371
0.00536303
0.00535437
0.0052989
0.00517578
0.00508556
0.0049199
0.00451448
0.00373828
0.00262758
0.00187472
0.00162574
0.00171025
0.00189998
0.00197757
0.00161661
0.00121716
0.00110142
0.00108019
0.00110212
0.0012087
0.00140219
0.00183579
0.00292365
0.00543393
0.00877515
0.00980337
0.00988099
0.00981289
0.00963227
0.00942251
0.00925465
0.00916111
0.00911277
0.0090706
0.00903151
0.00899139
0.00893067
0.00886937
0.00882905
0.00880259
0.00874021
0.00847149
0.00758723
0.0055916
0.00377931
0.00331939
0.00332776
0.00432313
0.00928961
0.0129158
0.015191
0.0151696
0.0132116
0.00782881
0.00552899
0.00371106
0.00256425
0.00222199
0.0022295
0.00261039
0.0040343
0.00454339
0.00332864
0.00278585
0.00274441
0.00270911
0.00275374
0.00277782
0.00273318
0.0026723
0.00253472
0.00237895
0.00230429
0.00230516
0.00242467
0.00309374
0.00655974
0.00758668
0.00757824
0.00735421
0.00680727
0.00526793
0.00349961
0.00257417
0.00227646
0.00227117
0.00236353
0.00275507
0.00327853
0.00345818
0.00655091
0.00590356
0.00452189
0.00348728
0.00304403
0.00294424
0.00311858
0.00368537
0.00481056
0.00583884
0.00640549
0.0065798
0.00654123
0.00616402
0.0048636
0.00408824
0.00391782
0.00385878
0.00380654
0.0037883
0.00400298
0.00475265
0.00527484
0.00535589
0.00533696
0.00528212
0.00517811
0.00509093
0.00496414
0.0046684
0.00410644
0.00315444
0.00230399
0.00189001
0.00193679
0.00214713
0.00236666
0.00217002
0.00146946
0.00120929
0.00116028
0.00116748
0.00123136
0.00137666
0.00180123
0.00271032
0.00407219
0.00564869
0.0074463
0.00858774
0.00902534
0.00915887
0.00916284
0.00910352
0.00904631
0.00900147
0.00895346
0.00890117
0.00884526
0.00878792
0.00875733
0.00875364
0.00876238
0.00875702
0.00867312
0.00818633
0.00677526
0.00443753
0.00354072
0.00339502
0.0038603
0.00694999
0.0120165
0.0147091
0.0149194
0.0135259
0.00946107
0.00727638
0.00449721
0.00278042
0.00226405
0.00225936
0.00271282
0.00429445
0.00467576
0.00322404
0.00272491
0.00272066
0.00272677
0.00275772
0.00276596
0.00271205
0.00259742
0.00245204
0.00236246
0.00233063
0.00244635
0.00297496
0.0056978
0.00757807
0.00776972
0.00764732
0.00737885
0.00687315
0.00556947
0.00372345
0.00259389
0.00222483
0.00222414
0.00238053
0.00291363
0.00334265
0.00344397
0.00657127
0.00598851
0.00480307
0.00405422
0.00378842
0.0039475
0.0044251
0.00526402
0.00606261
0.00653268
0.00668794
0.00668457
0.00655746
0.00606429
0.0047842
0.00407556
0.00391525
0.00391676
0.00388492
0.00383247
0.00396071
0.00463551
0.00527394
0.00537026
0.00535203
0.00529195
0.00519157
0.00510476
0.00502087
0.00480802
0.00442018
0.00370763
0.00283325
0.00224918
0.00221779
0.00239092
0.00277629
0.00281015
0.00201634
0.0014327
0.00129973
0.00124495
0.00122226
0.00130937
0.00164616
0.00230486
0.00302935
0.00362877
0.00434788
0.0053861
0.00630975
0.00719138
0.00772748
0.00803072
0.0081979
0.00826434
0.00827728
0.00827272
0.00828265
0.00833217
0.00842393
0.00853685
0.00864822
0.00871182
0.00872551
0.00852475
0.00766496
0.00548023
0.00389714
0.00357099
0.00369663
0.00538876
0.0104429
0.0139412
0.0146048
0.0137825
0.0114484
0.00935471
0.00510612
0.00287131
0.00229999
0.00229692
0.00286681
0.00455261
0.00469276
0.00318952
0.00271155
0.00270742
0.00273646
0.00275384
0.00272478
0.00263628
0.00253032
0.00244729
0.00241052
0.00253286
0.00311457
0.00534641
0.0075429
0.00794192
0.0078624
0.00766664
0.00739324
0.00690309
0.00580578
0.00394082
0.0026654
0.00221468
0.00219606
0.00240021
0.00297331
0.00333919
0.00341112
0.00662119
0.00624033
0.00551288
0.00516
0.00505403
0.0052851
0.00583081
0.00636653
0.00667727
0.00677138
0.00673889
0.00659384
0.00633544
0.0057094
0.00460086
0.00403012
0.00390318
0.00397582
0.00397547
0.00385955
0.00391646
0.00447471
0.0052553
0.00541832
0.00537743
0.00532078
0.00521516
0.0051437
0.00506408
0.00492479
0.00465537
0.004195
0.00341447
0.00269991
0.00254663
0.00267149
0.00310352
0.00336347
0.00275253
0.00170272
0.00142301
0.00130103
0.00118043
0.00115567
0.00124458
0.00142787
0.00162968
0.00188831
0.0023081
0.00290106
0.00352652
0.00422778
0.00498683
0.00568766
0.00623446
0.006632
0.00695763
0.0072398
0.00749776
0.00772858
0.00794979
0.0081637
0.00838697
0.00856756
0.00868524
0.00865646
0.00820213
0.0066639
0.00445799
0.00375835
0.00369191
0.00452878
0.00820806
0.0132831
0.0143638
0.0139685
0.0128198
0.0109507
0.00525356
0.00287516
0.00232267
0.00234311
0.0031072
0.00477806
0.00469025
0.00320485
0.00270292
0.00267958
0.00271849
0.00271621
0.00262134
0.00256043
0.00252042
0.00252187
0.00273466
0.00343896
0.00568046
0.00760664
0.00807561
0.00804641
0.00788614
0.00767259
0.0073882
0.00692104
0.00613675
0.00439603
0.00286319
0.00224241
0.00215064
0.0023306
0.00289263
0.00326438
0.00333503
0.00665041
0.00644328
0.00614191
0.00602092
0.00606929
0.0063235
0.00662256
0.00679528
0.00683638
0.00679436
0.00660926
0.00613402
0.00573755
0.00523602
0.00440677
0.00395274
0.00387288
0.00398837
0.00405404
0.00387672
0.00386213
0.00424929
0.00516289
0.00545725
0.00546089
0.00537819
0.00528476
0.00518565
0.00512084
0.00501864
0.00484438
0.00454245
0.0040167
0.00320861
0.00291619
0.00298867
0.00336766
0.00381921
0.00349201
0.00211641
0.0016141
0.0013888
0.00112542
0.00105442
0.00105547
0.00110193
0.00120067
0.00136447
0.00162897
0.00204189
0.00246237
0.0029079
0.00341859
0.0039752
0.00457024
0.00515377
0.00567772
0.00611962
0.00649909
0.00683687
0.00716141
0.00750513
0.0078664
0.00820699
0.0085252
0.00865961
0.00844296
0.00751975
0.00528019
0.0040453
0.00377901
0.00417936
0.00652892
0.0118982
0.014085
0.01396
0.0134001
0.011436
0.00517231
0.00282483
0.0023371
0.00240926
0.00344316
0.00494775
0.00470046
0.0032608
0.00270547
0.00264243
0.0026472
0.00262388
0.00258236
0.00257262
0.00265026
0.00302579
0.00412251
0.00634237
0.00785074
0.00822767
0.00821264
0.00806628
0.00783299
0.00759719
0.00732008
0.00691306
0.00622914
0.00494727
0.00328285
0.00234866
0.00214801
0.00220499
0.00266388
0.00302496
0.0031377
0.00665774
0.00655985
0.006482
0.00650158
0.00662255
0.00677143
0.00685416
0.00686756
0.00682821
0.00668177
0.00632129
0.00572156
0.00516763
0.00478752
0.00421622
0.00386912
0.0038131
0.00397997
0.0041526
0.00391533
0.00378043
0.00400467
0.00486115
0.00543732
0.00554323
0.00546482
0.0053624
0.0052549
0.00517553
0.00509436
0.00498676
0.00478564
0.00447599
0.00377692
0.00332763
0.00335018
0.00360981
0.00418847
0.00408995
0.00271358
0.00187113
0.00150397
0.00113189
0.0010383
0.00101954
0.00103754
0.00112194
0.0012958
0.0015907
0.00197738
0.00232251
0.00267677
0.00305945
0.00348587
0.00394643
0.00441573
0.00486907
0.00535557
0.00586382
0.00637313
0.00686597
0.00732908
0.00773732
0.00808909
0.00836798
0.00859401
0.008519
0.0079581
0.00618219
0.00443902
0.00396821
0.00411205
0.00548125
0.0101331
0.0134438
0.0139507
0.0137528
0.0114243
0.00482847
0.00273418
0.00235961
0.00251449
0.00385894
0.00503946
0.00466193
0.00327758
0.00273079
0.00264745
0.00263883
0.00263059
0.00264292
0.00280038
0.00336336
0.00503332
0.00717773
0.00816616
0.00839481
0.00834836
0.00817564
0.00789424
0.00765519
0.00741904
0.00717764
0.00684537
0.00627873
0.00536316
0.00412917
0.00261711
0.00219859
0.00215768
0.00233744
0.00282815
0.00292537
0.00664877
0.00661382
0.00662731
0.00671583
0.00681239
0.00685756
0.00686235
0.00682988
0.00671607
0.00646875
0.00602656
0.00533656
0.00472717
0.00440528
0.00404004
0.00378914
0.00374903
0.00394734
0.00421312
0.00399989
0.00363931
0.00370291
0.00428866
0.00527496
0.00553788
0.00557115
0.00547542
0.00534775
0.00525539
0.00516115
0.00506909
0.00494778
0.00474602
0.00427593
0.00375165
0.00372542
0.00390145
0.00447604
0.00455192
0.00347966
0.00221367
0.00162831
0.00117747
0.00105893
0.00103235
0.00104342
0.00113885
0.00139128
0.00185989
0.00233963
0.00264457
0.0029147
0.00319989
0.00352005
0.00389812
0.00433378
0.00484802
0.00539733
0.0059818
0.00655452
0.00708097
0.00752787
0.00786977
0.00815785
0.00837082
0.00855833
0.00852548
0.00816326
0.00690694
0.00493613
0.00417866
0.0041208
0.00488406
0.00813406
0.0127408
0.0139142
0.0140289
0.0109479
0.00433435
0.0026408
0.00239735
0.00266194
0.00424938
0.00514273
0.00472424
0.00336917
0.00281664
0.00271272
0.00270528
0.00277418
0.00304592
0.00388246
0.00579909
0.00773001
0.0084465
0.00855335
0.00842073
0.00815219
0.00777665
0.00750622
0.00729518
0.00711808
0.00695166
0.00670375
0.00627575
0.0055569
0.00472208
0.00320388
0.00235895