/*--------------------------------*- C++ -*----------------------------------*\
  =========                 |
  \\      /  F ield         | OpenFOAM: The Open Source CFD Toolbox
   \\    /   O peration     | Website:  https://openfoam.org
    \\  /    A nd           | Version:  10
     \\/     M anipulation  |
\*---------------------------------------------------------------------------*/
FoamFile
{
    format      ascii;
    class       volScalarField;
    location    "0.0489448";
    object      p;
}
// * * * * * * * * * * * * * * * * * * * * * * * * * * * * * * * * * * * * * //

dimensions      [1 -1 -2 0 0 0 0];

internalField   nonuniform List<scalar> 
15708
(
2.50008
2.50008
2.50009
2.50009
2.50009
2.50009
2.50009
2.50008
2.50008
2.50008
2.50008
2.50008
2.50008
2.50008
2.50008
2.50007
2.50007
2.50007
2.50008
2.50008
2.50008
2.50008
2.50008
2.50008
2.50009
2.50009
2.5001
2.5001
2.50011
2.50011
2.50012
2.50013
2.50014
2.50015
2.50016
2.50018
2.50021
2.50024
2.50028
2.50034
2.50041
2.50049
2.50058
2.50068
2.50078
2.50088
2.50096
2.50101
2.50104
2.50103
2.501
2.50009
2.5001
2.5001
2.5001
2.5001
2.5001
2.50009
2.50009
2.50009
2.50008
2.50008
2.50008
2.50007
2.50007
2.50007
2.50007
2.50007
2.50007
2.50007
2.50007
2.50008
2.50008
2.50008
2.50009
2.5001
2.5001
2.50011
2.50012
2.50013
2.50014
2.50015
2.50016
2.50016
2.50017
2.50018
2.50019
2.5002
2.50021
2.50023
2.50025
2.50028
2.50031
2.50036
2.50041
2.50046
2.50051
2.50055
2.50059
2.5006
2.50061
2.50059
2.50011
2.50012
2.50012
2.50012
2.50011
2.50011
2.5001
2.5001
2.50009
2.50008
2.50008
2.50007
2.50007
2.50006
2.50006
2.50006
2.50006
2.50006
2.50006
2.50007
2.50007
2.50008
2.50009
2.5001
2.50011
2.50012
2.50014
2.50015
2.50017
2.50018
2.5002
2.50021
2.50022
2.50023
2.50023
2.50023
2.50023
2.50023
2.50022
2.50022
2.50022
2.50022
2.50023
2.50024
2.50026
2.50028
2.5003
2.50031
2.50033
2.50033
2.50033
2.50014
2.50015
2.50015
2.50015
2.50014
2.50013
2.50012
2.50011
2.5001
2.50008
2.50007
2.50006
2.50005
2.50005
2.50004
2.50004
2.50004
2.50004
2.50005
2.50005
2.50006
2.50008
2.50009
2.50011
2.50013
2.50016
2.50019
2.50021
2.50024
2.50027
2.5003
2.50032
2.50033
2.50034
2.50034
2.50033
2.50031
2.50029
2.50026
2.50023
2.5002
2.50017
2.50015
2.50013
2.50012
2.50012
2.50012
2.50012
2.50013
2.50013
2.50014
2.5002
2.5002
2.5002
2.5002
2.50018
2.50017
2.50015
2.50013
2.5001
2.50008
2.50006
2.50004
2.50003
2.50001
2.50001
2.5
2.5
2.50001
2.50002
2.50003
2.50005
2.50008
2.50011
2.50014
2.50018
2.50023
2.50028
2.50033
2.50038
2.50043
2.50047
2.5005
2.50052
2.50053
2.50052
2.5005
2.50046
2.50041
2.50035
2.50028
2.50021
2.50015
2.50009
2.50004
2.49999
2.49997
2.49995
2.49994
2.49994
2.49996
2.49998
2.50029
2.5003
2.5003
2.50028
2.50026
2.50023
2.50019
2.50015
2.50011
2.50007
2.50004
2.5
2.49998
2.49996
2.49995
2.49994
2.49994
2.49996
2.49998
2.5
2.50004
2.50008
2.50014
2.5002
2.50027
2.50035
2.50044
2.50053
2.50062
2.5007
2.50077
2.50082
2.50085
2.50086
2.50084
2.50079
2.50071
2.50061
2.5005
2.50037
2.50025
2.50012
2.50001
2.49991
2.49983
2.49978
2.49974
2.49973
2.49973
2.49975
2.49979
2.50046
2.50047
2.50046
2.50043
2.50039
2.50033
2.50026
2.50019
2.50012
2.50005
2.49999
2.49993
2.49989
2.49986
2.49984
2.49984
2.49984
2.49987
2.4999
2.49995
2.50002
2.5001
2.5002
2.50031
2.50044
2.50058
2.50073
2.50088
2.50103
2.50117
2.50129
2.50137
2.50142
2.50141
2.50137
2.50127
2.50112
2.50094
2.50073
2.50051
2.50029
2.50008
2.49988
2.49972
2.49959
2.49949
2.49943
2.49941
2.49942
2.49946
2.49954
2.50075
2.50076
2.50073
2.50067
2.50059
2.50049
2.50037
2.50024
2.50012
2.5
2.49989
2.4998
2.49973
2.49968
2.49966
2.49966
2.49967
2.49972
2.49979
2.49988
2.49999
2.50014
2.50031
2.50051
2.50073
2.50097
2.50124
2.5015
2.50175
2.50198
2.50217
2.50229
2.50235
2.50232
2.50222
2.50203
2.50176
2.50144
2.50108
2.5007
2.50032
2.49997
2.49966
2.49939
2.49918
2.49903
2.49895
2.49892
2.49895
2.49903
2.49916
2.50124
2.50123
2.50118
2.50106
2.50091
2.50072
2.50052
2.5003
2.50009
2.49989
2.49971
2.49957
2.49946
2.49939
2.49935
2.49936
2.49939
2.49948
2.4996
2.49976
2.49997
2.50022
2.50052
2.50086
2.50125
2.50166
2.50211
2.50255
2.50297
2.50333
2.50362
2.5038
2.50385
2.50378
2.50357
2.50321
2.50273
2.50217
2.50156
2.50093
2.50031
2.49975
2.49925
2.49883
2.49851
2.49829
2.49817
2.49815
2.49821
2.49837
2.4986
2.50204
2.50201
2.50189
2.50167
2.5014
2.50107
2.50072
2.50035
2.5
2.49968
2.4994
2.49917
2.499
2.49889
2.49885
2.49887
2.49895
2.4991
2.49932
2.4996
2.49996
2.50039
2.5009
2.50148
2.50214
2.50284
2.50357
2.5043
2.50497
2.50554
2.50597
2.50621
2.50623
2.50605
2.50563
2.50498
2.50416
2.50321
2.5022
2.50118
2.5002
2.49931
2.49853
2.49789
2.49742
2.4971
2.49695
2.49695
2.49708
2.49736
2.49777
2.50333
2.50323
2.50299
2.5026
2.50212
2.50156
2.50097
2.50037
2.4998
2.49929
2.49885
2.49849
2.49824
2.49809
2.49804
2.49809
2.49825
2.49852
2.4989
2.49939
2.49999
2.50072
2.50158
2.50256
2.50364
2.5048
2.50599
2.50715
2.5082
2.50907
2.50967
2.50995
2.50988
2.50949
2.50869
2.50755
2.50617
2.50462
2.503
2.50139
2.49986
2.49849
2.49731
2.49637
2.49569
2.49525
2.49507
2.49512
2.49538
2.49588
2.49657
2.50533
2.50512
2.50464
2.50396
2.50314
2.50221
2.50125
2.50029
2.49939
2.49859
2.49791
2.49739
2.49702
2.49682
2.49678
2.4969
2.49719
2.49766
2.4983
2.49912
2.50014
2.50135
2.50277
2.50437
2.50614
2.50801
2.5099
2.5117
2.51329
2.51454
2.51534
2.5156
2.51534
2.51452
2.51307
2.51115
2.50889
2.50643
2.5039
2.50142
2.49911
2.49706
2.49534
2.49398
2.49302
2.49244
2.49225
2.4924
2.49288
2.49373
2.49488
2.50837
2.50791
2.50704
2.50589
2.50452
2.50303
2.5015
2.50001
2.49862
2.4974
2.49639
2.49562
2.49511
2.49485
2.49486
2.49509
2.49561
2.49641
2.49747
2.49883
2.5005
2.50248
2.50477
2.50736
2.51018
2.51311
2.51603
2.51874
2.52104
2.52276
2.52373
2.52383
2.52316
2.52157
2.51907
2.51595
2.51239
2.50859
2.50475
2.50105
2.49767
2.4947
2.49224
2.49034
2.48903
2.4883
2.48815
2.48847
2.48934
2.49072
2.49258
2.51283
2.5119
2.51039
2.50848
2.50629
2.50395
2.50159
2.49933
2.49725
2.49546
2.49399
2.4929
2.4922
2.49191
2.49199
2.49244
2.49334
2.49466
2.49639
2.49859
2.50127
2.50443
2.50808
2.51215
2.51652
2.52101
2.52536
2.52928
2.53247
2.53467
2.53566
2.53537
2.5339
2.53099
2.52691
2.52202
2.5166
2.51094
2.50531
2.49998
2.49514
2.49097
2.48756
2.48499
2.48327
2.48239
2.48234
2.48297
2.48444
2.48666
2.48957
2.51908
2.51736
2.51485
2.5118
2.5084
2.50485
2.50131
2.49798
2.49496
2.49239
2.49033
2.48883
2.48793
2.48762
2.48785
2.48868
2.49017
2.49229
2.49506
2.49854
2.50276
2.50771
2.51337
2.51961
2.5262
2.53282
2.53906
2.54447
2.54864
2.55119
2.55188
2.55083
2.54786
2.54295
2.53658
2.52922
2.52127
2.51311
2.50514
2.49771
2.49104
2.48536
2.48079
2.4774
2.47522
2.47423
2.47438
2.47553
2.47792
2.48136
2.48584
2.52741
2.52442
2.52043
2.51576
2.51068
2.50545
2.50033
2.49556
2.49132
2.48774
2.48493
2.48295
2.48182
2.48156
2.48207
2.4835
2.4859
2.48923
2.49355
2.49893
2.50542
2.513
2.52155
2.53082
2.54042
2.54981
2.55834
2.56541
2.57042
2.57296
2.5728
2.57031
2.56498
2.55717
2.54768
2.53706
2.52585
2.51457
2.50367
2.49367
2.48479
2.4773
2.47136
2.46705
2.46438
2.46336
2.46384
2.46583
2.46953
2.47474
2.48148
2.53789
2.53304
2.52697
2.52008
2.51275
2.50533
2.49819
2.49159
2.4858
2.48099
2.47727
2.47473
2.47339
2.47329
2.47427
2.47662
2.48036
2.48547
2.49206
2.50021
2.50995
2.52121
2.53372
2.54703
2.56045
2.57314
2.58418
2.59275
2.59815
2.59993
2.59829
2.5932
2.58442
2.57282
2.55934
2.54469
2.52954
2.51454
2.50031
2.48723
2.4758
2.46627
2.45879
2.45346
2.45032
2.44939
2.45042
2.45362
2.45918
2.46687
2.47675
2.55017
2.54277
2.53395
2.5242
2.51403
2.50389
2.49426
2.48547
2.47784
2.47157
2.46682
2.46368
2.46219
2.46238
2.4641
2.46784
2.4735
2.48115
2.49094
2.50297
2.51721
2.53342
2.55109
2.56941
2.5873
2.60349
2.61684
2.6263
2.63117
2.6312
2.62704
2.61797
2.60471
2.58843
2.57019
2.55084
2.5312
2.51205
2.49407
2.47776
2.46359
2.45185
2.44274
2.43637
2.43282
2.43215
2.434
2.43892
2.44702
2.45808
2.47219
2.56332
2.5527
2.54047
2.52727
2.51371
2.50039
2.48789
2.47659
2.46688
2.459
2.45313
2.44938
2.44787
2.44852
2.45141
2.45709
2.46543
2.4766
2.49078
2.50805
2.5282
2.55071
2.57466
2.59869
2.62121
2.64057
2.65539
2.66458
2.66758
2.66487
2.6565
2.64231
2.62366
2.60199
2.57842
2.55398
2.52962
2.50614
2.48435
2.46478
2.44787
2.43393
2.4232
2.41583
2.41197
2.41178
2.41482
2.42208
2.43352
2.44901
2.46861
2.57595
2.56147
2.54526
2.52814
2.51083
2.49406
2.47842
2.46445
2.45253
2.44296
2.43595
2.43167
2.4303
2.43169
2.43623
2.44457
2.45653
2.47241
2.49239
2.5164
2.5439
2.5739
2.60481
2.63465
2.66123
2.68269
2.69751
2.70482
2.70447
2.69773
2.68354
2.66333
2.63876
2.6112
2.58209
2.55257
2.52358
2.49604
2.47069
2.44812
2.42871
2.41276
2.40053
2.39232
2.38836
2.38887
2.39355
2.40387
2.41961
2.4407
2.46713
2.58615
2.56732
2.5468
2.52555
2.50436
2.48408
2.46536
2.44874
2.43467
2.42346
2.41539
2.41072
2.40975
2.41222
2.41903
2.43086
2.44755
2.46948
2.49673
2.52893
2.56497
2.6031
2.64092
2.67572
2.70497
2.72672
2.73961
2.74324
2.73866
2.72571
2.70507
2.67829
2.64729
2.61398
2.57958
2.54526
2.5121
2.4811
2.45291
2.42799
2.4066
2.38904
2.37565
2.36684
2.3631
2.36459
2.37153
2.38568
2.40669
2.43455
2.46899
2.59171
2.56843
2.54361
2.5183
2.49344
2.46996
2.44848
2.42954
2.41356
2.40093
2.39201
2.3872
2.38695
2.39092
2.40075
2.41701
2.43964
2.46897
2.50483
2.54627
2.59137
2.63734
2.68094
2.7189
2.74875
2.76857
2.77763
2.77626
2.76599
2.74599
2.71815
2.68489
2.64805
2.60916
2.56972
2.53113
2.49457
2.46116
2.43121
2.40492
2.38241
2.36393
2.34992
2.34099
2.33791
2.34081
2.35067
2.36943
2.39668
2.43225
2.47539
2.591
2.56334
2.53443
2.50548
2.47753
2.45154
2.42797
2.40731
2.38996
2.37635
2.36696
2.36241
2.3632
2.36927
2.38294
2.40461
2.4343
2.47216
2.51751
2.56849
2.62202
2.67434
2.72152
2.76029
2.78827
2.8042
2.80793
2.80123
2.7833
2.75623
2.72216
2.68286
2.64031
2.59609
2.55196
2.50968
2.4708
2.43635
2.40605
2.37972
2.35727
2.33891
2.32515
2.31684
2.31508
2.31995
2.33353
2.35764
2.39178
2.43541
2.4871
2.58285
2.55106
2.51852
2.48662
2.45655
2.42911
2.40446
2.38299
2.36506
2.35116
2.34192
2.3382
2.34046
2.34942
2.36777
2.39571
2.4333
2.48021
2.53499
2.59453
2.65462
2.71073
2.75871
2.7957
2.81979
2.83041
2.82827
2.81489
2.79052
2.75762
2.71772
2.67293
2.62473
2.57508
2.52611
2.48065
2.44074
2.40683
2.37783
2.35309
2.33228
2.3155
2.30331
2.29674
2.29724
2.3049
2.32306
2.35304
2.3941
2.44513
2.50402
2.56718
2.53141
2.49567
2.46177
2.4309
2.40329
2.37884
2.35775
2.34035
2.32718
2.31901
2.31694
2.32132
2.33404
2.35786
2.39262
2.43824
2.49375
2.55659
2.62238
2.68602
2.7427
2.7888
2.82185
2.84056
2.8451
2.83796
2.81873
2.78919
2.75187
2.70695
2.65658
2.6024
2.54662
2.49184
2.4434
2.40401
2.37265
2.34695
2.32574
2.30848
2.29511
2.28619
2.28298
2.28667
2.2986
2.32216
2.35781
2.4048
2.46163
2.52492
2.5448
2.5047
2.46607
2.4312
2.40098
2.37466
2.35188
2.33267
2.31731
2.30631
2.30052
2.30123
2.30869
2.32616
2.35592
2.39734
2.45012
2.51251
2.58063
2.64918
2.71277
2.76699
2.80875
2.83643
2.84997
2.85022
2.83857
2.81519
2.78204
2.74239
2.69319
2.63737
2.57419
2.51015
2.44747
2.39588
2.35839
2.3319
2.31198
2.29698
2.28598
2.27855
2.27512
2.27706
2.28534
2.30288
2.33186
2.37271
2.42411
2.48369
2.54748
2.51675
2.47113
2.42966
2.3952
2.36747
2.34409
2.32451
2.30886
2.29728
2.29019
2.28848
2.29295
2.30526
2.32828
2.36364
2.41079
2.46895
2.53513
2.60458
2.67192
2.73206
2.78123
2.81763
2.84055
2.8501
2.84736
2.83306
2.80753
2.77305
2.7328
2.68359
2.62372
2.5533
2.46945
2.39307
2.33677
2.30507
2.28688
2.27588
2.26867
2.26571
2.26613
2.26981
2.27834
2.29345
2.31787
2.35263
2.39717
2.45004
2.50855
2.56871
2.4829
2.42934
2.38508
2.35247
2.32902
2.31039
2.29596
2.28616
2.28072
2.2798
2.28367
2.29372
2.31198
2.34091
2.38149
2.43277
2.49317
2.55911
2.6256
2.6882
2.74221
2.78545
2.81675
2.83578
2.84309
2.83958
2.82508
2.80006
2.76622
2.72793
2.67925
2.62346
2.56097
2.45106
2.34676
2.26517
2.23735
2.22923
2.23322
2.23853
2.24697
2.25706
2.26981
2.28673
2.31042
2.3417
2.38097
2.42709
2.47835
2.53227
2.58567
2.44682
2.37898
2.33278
2.30518
2.28953
2.27719
2.26927
2.26635
2.268
2.27423
2.28564
2.30332
2.3287
2.36366
2.40792
2.46055
2.51959
2.58143
2.64177
2.69682
2.74375
2.781
2.80813
2.82517
2.83251
2.82998
2.81666
2.79443
2.76355
2.73406
2.67769
2.6164
2.61188
2.49458
2.39134
2.29055
2.21801
2.19318
2.20625
2.20965
2.23061
2.25192
2.27399
2.29939
2.33117
2.36844
2.41068
2.45636
2.50373
2.55102
2.59621
2.43228
2.33921
2.26686
2.2452
2.24029
2.2357
2.24007
2.24625
2.25798
2.27352
2.29347
2.31928
2.35205
2.39184
2.43796
2.48926
2.54396
2.59901
2.65116
2.69798
2.73796
2.77042
2.79513
2.81219
2.82194
2.82221
2.80977
2.78867
2.76208
2.75651
2.7205
2.63259
2.57406
2.51537
2.4363
2.35527
2.28905
2.24401
2.21545
2.20911
2.23481
2.25096
2.27991
2.31201
2.35026
2.39115
2.43458
2.47856
2.52112
2.56161
2.59928
2.47479
2.38475
2.30516
2.24762
2.21985
2.21315
2.22388
2.22677
2.24875
2.27494
2.30371
2.33697
2.37586
2.41885
2.46501
2.51329
2.56212
2.60947
2.65356
2.69291
2.72741
2.75664
2.78059
2.79951
2.81447
2.82045
2.80874
2.78403
2.77013
2.76271
2.73182
2.68535
2.62644
2.5488
2.46905
2.38934
2.32076
2.27106
2.24892
2.24521
2.24811
2.26051
2.28968
2.32045
2.36364
2.40445
2.44751
2.48906
2.52733
2.56275
2.59524
2.49517
2.4283
2.36342
2.30953
2.27348
2.24744
2.22751
2.226
2.25566
2.27806
2.31233
2.3511
2.39382
2.43769
2.48271
2.52751
2.57068
2.6114
2.6491
2.68354
2.71485
2.74243
2.76571
2.78636
2.80904
2.82437
2.81074
2.81022
2.7934
2.78965
2.75899
2.71298
2.65199
2.57648
2.49253
2.40816
2.33395
2.27994
2.25379
2.2492
2.26049
2.27089
2.2818
2.32304
2.36937
2.40561
2.44855
2.48649
2.52162
2.55508
2.58565
2.52337
2.45779
2.39161
2.33369
2.28949
2.26281
2.2548
2.26109
2.26999
2.28519
2.32015
2.35895
2.40301
2.44506
2.4882
2.52972
2.5685
2.60507
2.63951
2.67206
2.70286
2.72995
2.75077
2.77013
2.79869
2.82564
2.8395
2.84664
2.84472
2.8303
2.79745
2.74705
2.6785
2.59361
2.49989
2.40741
2.32829
2.27232
2.24477
2.23712
2.24398
2.26213
2.29229
2.32376
2.34579
2.39437
2.443
2.47492
2.50672
2.54067
2.57146
2.54919
2.47982
2.40822
2.34415
2.29485
2.26566
2.25595
2.26253
2.28093
2.29682
2.31311
2.3587
2.40217
2.44129
2.48311
2.52018
2.55539
2.5904
2.62539
2.65951
2.6924
2.72105
2.73902
2.76183
2.78972
2.83145
2.8657
2.88101
2.88521
2.87171
2.83476
2.77594
2.69526
2.59759
2.4928
2.39378
2.31238
2.25634
2.22921
2.22165
2.22783
2.2461
2.27402
2.30533
2.33933
2.38302
2.42078
2.45531
2.48466
2.52363
2.55367
2.56534
2.48745
2.40862
2.33931
2.28735
2.25801
2.24787
2.25093
2.26523
2.2872
2.31764
2.34714
2.37508
2.42704
2.474
2.50459
2.53669
2.57176
2.60927
2.64838
2.68505
2.71251
2.74008
2.75803
2.80469
2.85561
2.89367
2.91515
2.92039
2.90315
2.85847
2.78733
2.69328
2.58518
2.47554
2.37739
2.30015
2.24695
2.22037
2.21214
2.2175
2.23452
2.25893
2.28624
2.31691
2.35457
2.39233
2.42044
2.45584
2.51991
2.54375
2.56841
2.48285
2.39947
2.32842
2.27566
2.24612
2.23573
2.23814
2.2515
2.27282
2.30062
2.3304
2.36546
2.41011
2.45611
2.48238
2.51014
2.5449
2.58947
2.63958
2.6704
2.70471
2.73872
2.78419
2.83456
2.88519
2.92393
2.9441
2.94372
2.91629
2.85875
2.7745
2.67096
2.56026
2.45555
2.36682
2.29845
2.25079
2.22465
2.21529
2.21839
2.23317
2.25576
2.28266
2.31289
2.34623
2.37914
2.41005
2.44579
2.49204
2.529
2.55704
2.46966
2.38855
2.32158
2.27179
2.24236
2.23092
2.23184
2.244
2.26444
2.28984
2.31766
2.35067
2.38895
2.4266
2.45067
2.47608
2.51289
2.55166
2.61687
2.6477
2.70808
2.75312
2.80814
2.86352
2.9119
2.94574
2.95753
2.94536
2.9031
2.83188
2.73803
2.63372
2.53116
2.44024
2.36626
2.30998
2.26988
2.2445
2.23393
2.23331
2.24325
2.26172
2.28665
2.31629
2.3487
2.38234
2.41748
2.45824
2.50039
2.54036
2.53591
2.45467
2.38259
2.32397
2.28021
2.25123
2.2385
2.23652
2.2453
2.263
2.2867
2.31432
2.3462
2.38109
2.41566
2.44697
2.47999
2.52061
2.56342
2.61745
2.66332
2.7221
2.77407
2.83094
2.88379
2.92549
2.94693
2.94694
2.91866
2.86078
2.77961
2.68617
2.59172
2.50565
2.43334
2.37587
2.33187
2.29926
2.27645
2.26447
2.26114
2.26614
2.27942
2.29993
2.32647
2.3571
2.3905
2.42648
2.46644
2.50921
2.55292
2.51282
2.44413
2.38502
2.33724
2.30065
2.27457
2.26041
2.25599
2.26035
2.2732
2.29292
2.31815
2.34778
2.38013
2.41356
2.44827
2.48656
2.53185
2.58179
2.63479
2.68779
2.74235
2.79448
2.84571
2.88917
2.91701
2.92417
2.90694
2.86199
2.79491
2.71452
2.63134
2.55421
2.48822
2.43475
2.3925
2.35938
2.33364
2.31433
2.3017
2.29676
2.29811
2.30677
2.32254
2.3449
2.37274
2.40515
2.4413
2.48093
2.52331
2.56768
2.49412
2.44073
2.39553
2.35857
2.32927
2.30713
2.29246
2.28651
2.28718
2.29523
2.31023
2.33147
2.35808
2.38884
2.4231
2.46122
2.50369
2.55088
2.60139
2.65369
2.70581
2.75634
2.80291
2.84326
2.8724
2.88268
2.87317
2.84005
2.78679
2.7203
2.6499
2.5836
2.52623
2.47942
2.44204
2.41217
2.3879
2.36804
2.35215
2.34036
2.3346
2.33383
2.33895
2.35062
2.36878
2.39293
2.42244
2.4565
2.49462
2.5354
2.5783
2.48284
2.44416
2.4114
2.38399
2.36137
2.34332
2.33003
2.32335
2.32202
2.32666
2.33775
2.3551
2.37832
2.40689
2.44059
2.47926
2.52232
2.56867
2.61659
2.66461
2.71128
2.75459
2.79101
2.81726
2.82807
2.82411
2.80095
2.76051
2.70782
2.6506
2.59577
2.54788
2.50861
2.47721
2.45211
2.4315
2.414
2.3989
2.38608
2.37581
2.36957
2.36762
2.37008
2.37819
2.3922
2.41209
2.43749
2.46777
2.50212
2.53934
2.57827
2.47861
2.45208
2.42931
2.40967
2.39281
2.37873
2.36775
2.36128
2.35931
2.36199
2.37032
2.38448
2.4045
2.43022
2.46144
2.49755
2.5372
2.57902
2.62125
2.66247
2.7011
2.73363
2.75652
2.76692
2.76668
2.75142
2.72235
2.68261
2.63818
2.59469
2.55615
2.52431
2.499
2.47883
2.46235
2.44824
2.43561
2.42408
2.4137
2.40485
2.39823
2.39526
2.39548
2.40019
2.4099
2.42489
2.44523
2.47044
2.49964
2.53178
2.56522
2.47935
2.4619
2.44659
2.43297
2.42086
2.4104
2.40194
2.39659
2.39482
2.39659
2.40311
2.41465
2.43145
2.45346
2.48032
2.51107
2.54477
2.57953
2.614
2.64636
2.6744
2.6948
2.70508
2.70703
2.69818
2.67857
2.65044
2.61774
2.58484
2.55509
2.53019
2.51032
2.49465
2.48194
2.47109
2.46124
2.45183
2.44267
2.43385
2.42571
2.41877
2.41391
2.41189
2.41286
2.418
2.4277
2.44227
2.46162
2.48501
2.51145
2.53907
2.48264
2.47157
2.46159
2.45244
2.44408
2.43668
2.43058
2.42671
2.42549
2.42696
2.43219
2.44147
2.45501
2.47276
2.49428
2.5186
2.54477
2.57136
2.5969
2.61981
2.63753
2.64771
2.65093
2.64695
2.63495
2.61646
2.59388
2.57034
2.54845
2.52974
2.51463
2.50271
2.49313
2.48499
2.47755
2.47022
2.46265
2.45469
2.44643
2.43808
2.43012
2.42309
2.41763
2.41487
2.41484
2.41882
2.42715
2.4402
2.45782
2.47927
2.50271
2.48672
2.47991
2.4736
2.46765
2.46211
2.45715
2.45303
2.45056
2.44991
2.4513
2.45548
2.46268
2.47305
2.48646
2.50246
2.52031
2.53913
2.55778
2.57509
2.58961
2.59898
2.60285
2.60218
2.59584
2.58474
2.57028
2.55449
2.53925
2.52582
2.51474
2.5059
2.49878
2.49274
2.48717
2.48153
2.47541
2.46854
2.46074
2.45203
2.44253
2.43261
2.42273
2.41356
2.40583
2.40034
2.39822
2.39993
2.40675
2.41922
2.43698
2.4586
2.49054
2.48647
2.48258
2.47886
2.47534
2.47219
2.46961
2.4682
2.46798
2.46928
2.47252
2.47786
2.48536
2.49485
2.50592
2.51812
2.53066
2.54275
2.55349
2.56142
2.56547
2.56641
2.56389
2.55794
2.54948
2.53962
2.52965
2.52051
2.51273
2.50637
2.50117
2.49672
2.49253
2.48818
2.48324
2.47735
2.47024
2.46171
2.45167
2.44015
2.42738
2.41385
2.40014
2.38713
2.37569
2.36681
2.36251
2.36306
2.37065
2.38602
2.40823
2.49363
2.49125
2.48894
2.48669
2.48456
2.48266
2.48116
2.48047
2.48051
2.48163
2.48401
2.48777
2.49288
2.49921
2.5064
2.51416
2.52193
2.52915
2.53518
2.53891
2.54036
2.53992
2.53724
2.53276
2.5271
2.52101
2.51515
2.50994
2.50554
2.50182
2.49857
2.49544
2.49205
2.48804
2.48304
2.47669
2.46864
2.45863
2.44646
2.43208
2.41567
2.39769
2.37892
2.36032
2.34307
2.32796
2.31651
2.31153
2.31372
2.32719
2.35204
2.49589
2.49454
2.4932
2.4919
2.49067
2.48958
2.4888
2.4885
2.48867
2.48955
2.49121
2.4937
2.49698
2.50092
2.50536
2.50999
2.51449
2.51848
2.5215
2.52302
2.52337
2.52249
2.52041
2.51744
2.51399
2.51047
2.50718
2.50425
2.50169
2.49935
2.49701
2.49438
2.49115
2.48694
2.48136
2.47402
2.46448
2.45238
2.43744
2.41957
2.39891
2.37596
2.35175
2.3273
2.30428
2.28368
2.26606
2.25364
2.24978
2.25986
2.28925
2.49742
2.49668
2.49594
2.49521
2.49453
2.49394
2.49357
2.49348
2.49368
2.49431
2.4954
2.49697
2.49897
2.5013
2.50387
2.50647
2.50891
2.51097
2.5123
2.51283
2.51276
2.51196
2.51056
2.50877
2.50679
2.50482
2.50297
2.50127
2.49963
2.49791
2.4959
2.49331
2.48984
2.48508
2.47859
2.46989
2.45846
2.44385
2.42569
2.40386
2.37852
2.35026
2.32032
2.28999
2.26128
2.23571
2.21336
2.19172
2.17821
2.1796
2.21573
2.49841
2.49802
2.49761
2.49722
2.49687
2.49657
2.49642
2.4964
2.49658
2.497
2.49768
2.49862
2.49978
2.50109
2.5025
2.50388
2.50512
2.5061
2.50662
2.50678
2.50658
2.50601
2.50515
2.50412
2.50301
2.50191
2.50082
2.4997
2.49847
2.49696
2.49494
2.49215
2.48821
2.48269
2.47507
2.46476
2.45118
2.43375
2.41203
2.38587
2.35547
2.32158
2.28557
2.24924
2.21467
2.18403
2.15794
2.13122
2.09982
2.08224
2.11745
2.49902
2.49881
2.4986
2.4984
2.49822
2.49808
2.49803
2.49805
2.49818
2.49845
2.49885
2.49937
2.50001
2.50072
2.50145
2.50215
2.50275
2.50317
2.50336
2.50337
2.50319
2.50282
2.50232
2.50174
2.50111
2.50044
2.49971
2.49885
2.49774
2.49622
2.49404
2.4909
2.48637
2.47997
2.47109
2.45906
2.44315
2.42273
2.39725
2.36654
2.33087
2.29111
2.24886
2.20653
2.16632
2.13073
2.10069
2.07107
2.02294
1.94038
1.906
2.50091
2.5008
2.50065
2.5005
2.50034
2.50018
2.50004
2.49992
2.49982
2.49975
2.49971
2.49969
2.49969
2.4997
2.49973
2.49977
2.49982
2.49986
2.49991
2.49996
2.50001
2.50006
2.50012
2.50019
2.50026
2.50034
2.50055
2.50049
2.50042
2.50034
2.50025
2.50017
2.5001
2.50003
2.49998
2.49995
2.49993
2.49992
2.49992
2.49994
2.49995
2.49997
2.49999
2.50001
2.50003
2.50005
2.50006
2.50008
2.5001
2.50012
2.50015
2.50019
2.50032
2.50029
2.50026
2.50023
2.5002
2.50017
2.50014
2.50012
2.50011
2.5001
2.5001
2.50011
2.50012
2.50013
2.50014
2.50015
2.50015
2.50015
2.50014
2.50013
2.50012
2.5001
2.50009
2.50008
2.50008
2.50008
2.50015
2.50015
2.50015
2.50016
2.50017
2.50018
2.50019
2.50021
2.50023
2.50026
2.50029
2.50031
2.50034
2.50035
2.50036
2.50036
2.50034
2.50031
2.50027
2.50023
2.50018
2.50013
2.50008
2.50004
2.5
2.49998
2.5
2.50003
2.50007
2.50011
2.50016
2.50022
2.50028
2.50034
2.50041
2.50048
2.50054
2.5006
2.50064
2.50066
2.50066
2.50064
2.5006
2.50053
2.50045
2.50035
2.50025
2.50015
2.50005
2.49996
2.49989
2.49984
2.49984
2.49991
2.49999
2.50009
2.50019
2.50031
2.50044
2.50057
2.50071
2.50083
2.50095
2.50104
2.50111
2.50114
2.50113
2.50108
2.50099
2.50086
2.5007
2.50053
2.50034
2.50016
2.49999
2.49984
2.49971
2.49961
2.49964
2.49976
2.49991
2.50009
2.50029
2.5005
2.50073
2.50097
2.50121
2.50143
2.50162
2.50178
2.50187
2.50191
2.50188
2.50178
2.5016
2.50136
2.50108
2.50077
2.50045
2.50014
2.49985
2.4996
2.4994
2.49924
2.49934
2.49957
2.49983
2.50014
2.50048
2.50086
2.50125
2.50166
2.50206
2.50243
2.50274
2.50298
2.50312
2.50314
2.50306
2.50286
2.50252
2.5021
2.50161
2.50108
2.50055
2.50004
2.49958
2.49918
2.49886
2.49862
2.49892
2.4993
2.49976
2.50028
2.50086
2.5015
2.50216
2.50284
2.50349
2.50408
2.50457
2.50493
2.5051
2.50509
2.50491
2.5045
2.5039
2.50317
2.50235
2.50148
2.50061
2.4998
2.49907
2.49846
2.49797
2.49762
2.49831
2.49896
2.49972
2.50059
2.50156
2.50261
2.5037
2.5048
2.50584
2.50676
2.5075
2.508
2.5082
2.50809
2.50769
2.50693
2.5059
2.50467
2.50332
2.50192
2.50055
2.49928
2.49817
2.49724
2.49652
2.49602
2.49746
2.49853
2.49979
2.50122
2.5028
2.5045
2.50625
2.50799
2.5096
2.511
2.51206
2.51271
2.51287
2.51257
2.51175
2.5104
2.50867
2.50667
2.50451
2.50232
2.50023
2.4983
2.49664
2.49527
2.49424
2.49354
2.49633
2.49807
2.50011
2.5024
2.50493
2.50762
2.51036
2.51303
2.51546
2.51748
2.51894
2.5197
2.51969
2.519
2.51745
2.51515
2.51233
2.50917
2.50584
2.50252
2.49939
2.49656
2.49414
2.4922
2.49076
2.48982
2.49489
2.49767
2.50089
2.50451
2.50845
2.51261
2.51679
2.52076
2.52428
2.52708
2.52893
2.52968
2.5293
2.52782
2.52506
2.52132
2.51691
2.51209
2.50711
2.50223
2.4977
2.49366
2.49026
2.48757
2.48563
2.4844
2.4932
2.49752
2.50251
2.50807
2.51409
2.52033
2.52649
2.53219
2.53705
2.54071
2.54285
2.54329
2.54217
2.5393
2.53469
2.52888
2.52223
2.51514
2.50795
2.50103
2.49467
2.48909
2.48445
2.48084
2.47828
2.47675
2.49138
2.49795
2.50548
2.51385
2.52275
2.53182
2.54056
2.54838
2.55475
2.55916
2.56126
2.56093
2.55845
2.55335
2.54612
2.53744
2.52784
2.5178
2.50782
2.49834
2.48972
2.48225
2.47611
2.47141
2.46816
2.46629
2.48975
2.49951
2.51062
2.52278
2.53553
2.54822
2.56004
2.57022
2.578
2.58278
2.58419
2.58251
2.57755
2.5693
2.55858
2.54624
2.53293
2.5193
2.50594
2.49343
2.48217
2.47251
2.46466
2.45871
2.45468
2.45248
2.4888
2.50293
2.51881
2.53593
2.55347
2.57041
2.5856
2.598
2.60668
2.61105
2.61088
2.60686
2.59826
2.58581
2.57076
2.55401
2.53637
2.51862
2.50145
2.48555
2.47138
2.45931
2.44957
2.44226
2.43739
2.43487
2.48929
2.50913
2.53108
2.55423
2.57729
2.59872
2.61706
2.631
2.63958
2.64231
2.63973
2.63175
2.61834
2.60094
2.58085
2.55912
2.53677
2.51462
2.49349
2.47403
2.45683
2.44226
2.43055
2.42181
2.41606
2.41324
2.49215
2.51906
2.54823
2.57816
2.60692
2.63244
2.65301
2.6672
2.67424
2.67399
2.66771
2.65434
2.63527
2.61223
2.58664
2.55982
2.53272
2.5062
2.48117
2.45836
2.43829
2.4213
2.40764
2.39744
2.39078
2.38767
2.49843
2.53351
2.5706
2.60735
2.64112
2.66954
2.69071
2.70341
2.70721
2.70314
2.69107
2.67152
2.64619
2.61723
2.5863
2.55455
2.52296
2.49247
2.46407
2.43839
2.41585
2.39674
2.38126
2.36964
2.36205
2.35863
2.50904
2.55283
2.59762
2.64019
2.67737
2.70675
2.72648
2.73584
2.73507
2.72577
2.7068
2.68037
2.64895
2.6144
2.57838
2.54216
2.50671
2.47299
2.44205
2.41431
2.39002
2.36929
2.35229
2.33935
2.33084
2.32707
2.52444
2.5764
2.62751
2.67385
2.71219
2.74017
2.75652
2.761
2.75514
2.73844
2.71279
2.68016
2.64273
2.60281
2.56222
2.52226
2.48373
2.4477
2.41533
2.38666
2.3616
2.33998
2.32191
2.30789
2.29853
2.29445
2.54418
2.60248
2.65742
2.70483
2.74178
2.76629
2.7776
2.77637
2.7644
2.74129
2.70931
2.67068
2.62759
2.58266
2.53811
2.49501
2.45408
2.41666
2.38414
2.35595
2.33139
2.30987
2.29148
2.27685
2.26693
2.26273
2.56678
2.6284
2.68398
2.7297
2.76296
2.78236
2.78801
2.78202
2.76393
2.73503
2.69779
2.65361
2.60477
2.55502
2.50702
2.46117
2.41789
2.37962
2.34837
2.32242
2.29993
2.27982
2.26218
2.24784
2.23806
2.23428
2.58982
2.6511
2.70415
2.74567
2.7738
2.78827
2.78937
2.77869
2.75574
2.72236
2.68106
2.63143
2.57613
2.52128
2.47001
2.42148
2.37486
2.3354
2.30682
2.28542
2.26709
2.25026
2.23507
2.22251
2.21408
2.21169
2.61047
2.66789
2.71577
2.75194
2.77528
2.78547
2.78331
2.76947
2.74337
2.70716
2.66316
2.60625
2.54486
2.4841
2.43035
2.37614
2.32264
2.28012
2.25848
2.24455
2.23242
2.22095
2.21054
2.20205
2.19695
2.19752
2.62617
2.67705
2.71866
2.74952
2.76885
2.77656
2.77322
2.75837
2.7317
2.69474
2.64994
2.59059
2.51004
2.45334
2.40238
2.33094
2.25984
2.20549
2.19912
2.19813
2.19639
2.19242
2.18948
2.18764
2.18831
2.19331
2.6353
2.67859
2.71389
2.74045
2.75769
2.76504
2.762
2.74749
2.72284
2.6889
2.652
2.59106
2.48514
2.42655
2.41764
2.34949
2.22393
2.14261
2.13667
2.14549
2.15741
2.16531
2.17232
2.17973
2.18781
2.19876
2.63747
2.67348
2.70364
2.72784
2.74526
2.75457
2.75356
2.73895
2.71426
2.68623
2.67017
2.62943
2.53015
2.45513
2.39945
2.34998
2.26299
2.17266
2.13416
2.13565
2.13752
2.14767
2.16203
2.17966
2.19531
2.2138
2.63341
2.66366
2.69049
2.71461
2.73438
2.74845
2.75207
2.73688
2.70586
2.68957
2.68045
2.62924
2.57871
2.52032
2.45185
2.3737
2.29365
2.22242
2.1812
2.15025
2.13618
2.14919
2.16251
2.18775
2.20932
2.23374
2.62467
2.65113
2.67658
2.7028
2.72513
2.74537
2.75767
2.73653
2.73262
2.71027
2.70083
2.66026
2.60636
2.54347
2.47303
2.39243
2.31188
2.24305
2.19514
2.16604
2.14899
2.14622
2.16837
2.20052
2.22429
2.25275
2.61333
2.63719
2.66232
2.69348
2.71643
2.73826
2.76171
2.76414
2.76676
2.76029
2.73969
2.69991
2.64327
2.57146
2.48762
2.39764
2.31142
2.23959
2.18863
2.16071
2.15255
2.16741
2.19719
2.21058
2.23359
2.26288
2.60073
2.62171
2.64332
2.68275
2.71601
2.73015
2.76371
2.78993
2.7996
2.79974
2.78104
2.7386
2.67422
2.58971
2.49128
2.38923
2.29547
2.22017
2.16982
2.14595
2.14174
2.15949
2.19276
2.21586
2.23222
2.26268
2.5841
2.61792
2.64237
2.66778
2.68761
2.74051
2.78602
2.81815
2.83441
2.8362
2.81492
2.76568
2.68947
2.59132
2.48112
2.37169
2.2753
2.20017
2.15122
2.12917
2.12628
2.14117
2.16836
2.19768
2.22647
2.26726
2.57492
2.57199
2.61797
2.67737
2.71659
2.76991
2.81647
2.85008
2.86557
2.86271
2.83249
2.77143
2.68293
2.57528
2.46119
2.35368
2.26271
2.19256
2.14524
2.12314
2.11897
2.13039
2.15409
2.18336
2.21639
2.2564
2.57359
2.60072
2.64404
2.69945
2.7508
2.80404
2.84632
2.87436
2.88291
2.86893
2.82525
2.75216
2.65541
2.54696
2.4396
2.34327
2.2633
2.20147
2.15732
2.13384
2.12645
2.1339
2.15298
2.17946
2.20975
2.24277
2.58068
2.62254
2.67315
2.72782
2.78032
2.82827
2.86293
2.87894
2.87673
2.84844
2.79137
2.71017
2.61457
2.516
2.42395
2.3442
2.27845
2.22631
2.18709
2.1618
2.15169
2.15379
2.16772
2.1905
2.21802
2.24744
2.59727
2.64495
2.69743
2.75015
2.79746
2.8349
2.85611
2.86022
2.84307
2.80032
2.73603
2.65662
2.5719
2.49055
2.41805
2.35624
2.30465
2.26216
2.22827
2.20331
2.19037
2.18742
2.19478
2.21101
2.23358
2.26003
2.61399
2.66242
2.71151
2.75698
2.79368
2.81748
2.82469
2.81469
2.78426
2.73556
2.67293
2.60409
2.53643
2.47496
2.42162
2.37605
2.337
2.30342
2.27512
2.25274
2.23772
2.23192
2.23368
2.24356
2.26024
2.28241
2.62254
2.66689
2.70851
2.74299
2.76618
2.77487
2.77069
2.75028
2.71493
2.66792
2.61479
2.56146
2.51223
2.46914
2.43195
2.3997
2.37113
2.34555
2.32302
2.30422
2.2901
2.28299
2.2817
2.2871
2.29889
2.31662
2.61754
2.65475
2.68638
2.7081
2.71784
2.71819
2.7058
2.68163
2.6482
2.60929
2.56938
2.53198
2.49902
2.47048
2.4458
2.42392
2.40395
2.38552
2.36888
2.35465
2.34366
2.33759
2.33618
2.34004
2.34927
2.36366
2.59775
2.6265
2.64802
2.65967
2.66302
2.65753
2.64268
2.62056
2.59374
2.56548
2.53849
2.5144
2.49375
2.47599
2.46051
2.44653
2.43358
2.42157
2.41079
2.40182
2.39536
2.39281
2.39373
2.39897
2.40819
2.4209
2.56555
2.58806
2.60287
2.60931
2.61002
2.60324
2.59044
2.57356
2.55489
2.53653
2.51988
2.50556
2.49349
2.48324
2.47434
2.46636
2.45915
2.45285
2.44768
2.44431
2.44344
2.44557
2.45126
2.46063
2.47276
2.48614
2.52554
2.54506