/*--------------------------------*- C++ -*----------------------------------*\
  =========                 |
  \\      /  F ield         | OpenFOAM: The Open Source CFD Toolbox
   \\    /   O peration     | Website:  https://openfoam.org
    \\  /    A nd           | Version:  10
     \\/     M anipulation  |
\*---------------------------------------------------------------------------*/
FoamFile
{
    format      ascii;
    class       surfaceScalarField;
    location    "0.0489448";
    object      phi;
}
// * * * * * * * * * * * * * * * * * * * * * * * * * * * * * * * * * * * * * //

dimensions      [1 0 -1 0 0 0 0];

internalField   nonuniform List<scalar> 
31108
(
0.000390624
-8.15618e-09
0.000390625
-8.32002e-09
0.000390625
-8.22514e-09
0.000390626
-7.86249e-09
0.000390626
-7.27094e-09
0.000390627
-6.38266e-09
0.000390627
-5.28938e-09
0.000390627
-4.05109e-09
0.000390627
-2.72012e-09
0.000390627
-1.36527e-09
0.000390626
-5.2146e-11
0.000390626
1.14848e-09
0.000390626
2.19595e-09
0.000390625
3.04689e-09
0.000390625
3.6725e-09
0.000390625
4.05525e-09
0.000390625
4.18556e-09
0.000390624
4.08624e-09
0.000390624
3.72074e-09
0.000390624
3.0902e-09
0.000390624
2.20413e-09
0.000390624
1.05686e-09
0.000390624
-3.68938e-10
0.000390624
-2.05705e-09
0.000390624
-4.02523e-09
0.000390624
-6.25096e-09
0.000390624
-8.69099e-09
0.000390625
-1.12655e-08
0.000390625
-1.38473e-08
0.000390625
-1.62531e-08
0.000390626
-1.82366e-08
0.000390626
-1.94856e-08
0.000390626
-1.96208e-08
0.000390626
-1.81958e-08
0.000390625
-1.47065e-08
0.000390623
-8.59615e-09
0.000390622
7.62894e-10
0.000390619
1.40368e-08
0.000390617
3.17708e-08
0.000390615
5.43933e-08
0.000390613
8.20852e-08
0.000390614
1.14679e-07
0.000390618
1.51461e-07
0.000390626
1.91066e-07
0.000390639
2.315e-07
0.000390656
2.70082e-07
0.000390678
3.03801e-07
0.000390703
3.29414e-07
0.000390729
3.43939e-07
0.000390755
3.45767e-07
3.34361e-07
0.000390777
0.000390626
-1.2326e-08
0.000390626
-1.29508e-08
0.000390627
-1.30473e-08
0.000390628
-1.26577e-08
0.000390628
-1.17059e-08
0.000390629
-1.02372e-08
0.000390629
-8.37301e-09
0.000390629
-6.21772e-09
0.000390628
-3.89178e-09
0.000390628
-1.5168e-09
0.000390627
7.62475e-10
0.000390627
2.84176e-09
0.000390626
4.63328e-09
0.000390625
6.0632e-09
0.000390625
7.08222e-09
0.000390624
7.6619e-09
0.000390624
7.79272e-09
0.000390623
7.5143e-09
0.000390623
6.74097e-09
0.000390623
5.50405e-09
0.000390623
3.80555e-09
0.000390623
1.62969e-09
0.000390623
-1.05575e-09
0.000390623
-4.24076e-09
0.000390623
-7.95071e-09
0.000390623
-1.21588e-08
0.000390624
-1.6799e-08
0.000390625
-2.17474e-08
0.000390626
-2.68097e-08
0.000390627
-3.17136e-08
0.000390628
-3.61163e-08
0.000390629
-3.96208e-08
0.00039063
-4.17814e-08
0.000390632
-4.2149e-08
0.000390632
-4.03115e-08
0.000390633
-3.59001e-08
0.000390632
-2.85487e-08
0.000390632
-1.77914e-08
0.00039063
-3.65573e-09
0.000390629
1.3879e-08
0.000390627
3.45937e-08
0.000390627
5.82e-08
0.000390627
8.40198e-08
0.00039063
1.10962e-07
0.000390635
1.37928e-07
0.000390643
1.63332e-07
0.000390653
1.85393e-07
0.000390666
2.02377e-07
0.000390679
2.1254e-07
0.000390693
2.1465e-07
2.08935e-07
0.000390705
0.000390627
-2.15132e-08
0.000390629
-2.26757e-08
0.00039063
-2.28439e-08
0.000390631
-2.21003e-08
0.000390631
-2.02475e-08
0.000390632
-1.74995e-08
0.000390632
-1.40361e-08
0.000390632
-1.00666e-08
0.000390631
-5.82465e-09
0.00039063
-1.51669e-09
0.000390629
2.534e-09
0.000390628
6.20703e-09
0.000390627
9.32068e-09
0.000390625
1.17522e-08
0.000390624
1.34225e-08
0.000390623
1.4289e-08
0.000390622
1.43624e-08
0.000390622
1.36773e-08
0.000390621
1.20948e-08
0.000390621
9.69772e-09
0.00039062
6.46814e-09
0.00039062
2.37404e-09
0.00039062
-2.64429e-09
0.00039062
-8.58224e-09
0.000390621
-1.54782e-08
0.000390622
-2.32866e-08
0.000390623
-3.18852e-08
0.000390624
-4.10467e-08
0.000390626
-5.04219e-08
0.000390628
-5.95308e-08
0.000390631
-6.78035e-08
0.000390634
-7.45884e-08
0.000390637
-7.92183e-08
0.00039064
-8.10706e-08
0.000390643
-7.97258e-08
0.000390645
-7.52142e-08
0.000390646
-6.6374e-08
0.000390646
-5.38065e-08
0.000390645
-3.77894e-08
0.000390644
-1.88061e-08
0.000390641
2.77712e-09
0.000390639
2.54682e-08
0.000390636
4.8994e-08
0.000390635
7.24052e-08
0.000390634
9.45471e-08
0.000390636
1.14385e-07
0.000390639
1.30876e-07
0.000390643
1.43108e-07
0.000390649
1.50069e-07
0.000390654
1.51204e-07
1.46312e-07
0.00039066
0.00039063
-3.91416e-08
0.000390632
-4.09541e-08
0.000390634
-4.09797e-08
0.000390636
-3.92652e-08
0.000390637
-3.55143e-08
0.000390638
-3.02249e-08
0.000390637
-2.36989e-08
0.000390637
-1.63368e-08
0.000390635
-8.57846e-09
0.000390634
-7.95019e-10
0.000390632
6.40568e-09
0.000390629
1.2858e-08
0.000390627
1.82306e-08
0.000390625
2.23254e-08
0.000390623
2.50205e-08
0.000390621
2.62538e-08
0.000390619
2.61174e-08
0.000390618
2.45421e-08
0.000390617
2.14074e-08
0.000390616
1.68288e-08
0.000390616
1.0764e-08
0.000390616
3.14867e-09
0.000390616
-6.12337e-09
0.000390616
-1.70582e-08
0.000390617
-2.97138e-08
0.000390618
-4.39983e-08
0.00039062
-5.96706e-08
0.000390623
-7.62925e-08
0.000390627
-9.32055e-08
0.000390631
-1.09522e-07
0.000390636
-1.24218e-07
0.000390642
-1.36149e-07
0.000390648
-1.44193e-07
0.000390654
-1.47351e-07
0.00039066
-1.45531e-07
0.000390664
-1.37821e-07
0.000390667
-1.23669e-07
0.000390668
-1.04099e-07
0.000390667
-7.99774e-08
0.000390664
-5.24795e-08
0.00039066
-2.29276e-08
0.000390654
7.32741e-09
0.000390648
3.64711e-08
0.000390642
6.37306e-08
0.000390636
8.78842e-08
0.000390631
1.08016e-07
0.000390628
1.23391e-07
0.000390626
1.33361e-07
0.000390626
1.38067e-07
0.000390626
1.37078e-07
1.30054e-07
0.000390628
0.000390635
-7.13694e-08
0.000390639
-7.38907e-08
0.000390643
-7.32975e-08
0.000390645
-6.93114e-08
0.000390647
-6.18715e-08
0.000390648
-5.17289e-08
0.000390647
-3.95245e-08
0.000390646
-2.6e-08
0.000390643
-1.19446e-08
0.00039064
1.86661e-09
0.000390636
1.45801e-08
0.000390632
2.57467e-08
0.000390628
3.48739e-08
0.000390624
4.16454e-08
0.00039062
4.5882e-08
0.000390617
4.75069e-08
0.000390614
4.67617e-08
0.000390612
4.33718e-08
0.00039061
3.73088e-08
0.000390609
2.86993e-08
0.000390608
1.74687e-08
0.000390608
3.48035e-09
0.000390608
-1.34327e-08
0.000390609
-3.33148e-08
0.00039061
-5.62461e-08
0.000390613
-8.20317e-08
0.000390616
-1.10189e-07
0.000390621
-1.3987e-07
0.000390628
-1.69825e-07
0.000390636
-1.98404e-07
0.000390646
-2.2375e-07
0.000390657
-2.43819e-07
0.000390668
-2.56698e-07
0.000390679
-2.60794e-07
0.000390689
-2.56266e-07
0.000390696
-2.41049e-07
0.000390702
-2.15377e-07
0.000390703
-1.81002e-07
0.000390702
-1.39868e-07
0.000390696
-9.42869e-08
0.000390688
-4.6793e-08
0.000390677
4.59988e-10
0.000390665
4.40756e-08
0.000390652
8.31943e-08
0.000390639
1.16067e-07
0.000390627
1.41696e-07
0.000390617
1.59523e-07
0.000390609
1.69353e-07
0.000390603
1.71534e-07
0.000390599
1.66519e-07
1.537e-07
0.000390597
0.000390644
-1.28722e-07
0.000390651
-1.31833e-07
0.000390658
-1.29425e-07
0.000390662
-1.20694e-07
0.000390665
-1.06172e-07
0.000390666
-8.70523e-08
0.000390665
-6.45813e-08
0.000390661
-4.01214e-08
0.000390656
-1.5029e-08
0.00039065
9.11229e-09
0.000390643
3.11327e-08
0.000390636
5.01362e-08
0.000390628
6.53532e-08
0.000390621
7.63028e-08
0.000390614
8.2745e-08
0.000390608
8.46047e-08
0.000390604
8.24024e-08
0.0003906
7.54269e-08
0.000390597
6.39258e-08
0.000390595
4.80161e-08
0.000390594
2.75274e-08
0.000390593
2.16118e-09
0.000390594
-2.82589e-08
0.000390595
-6.3938e-08
0.000390598
-1.04945e-07
0.000390602
-1.50861e-07
0.000390609
-2.0073e-07
0.000390618
-2.52922e-07
0.000390631
-3.05072e-07
0.000390646
-3.54181e-07
0.000390663
-3.96863e-07
0.000390683
-4.29529e-07
0.000390703
-4.48938e-07
0.000390722
-4.52756e-07
0.00039074
-4.41283e-07
0.000390753
-4.10628e-07
0.000390762
-3.62759e-07
0.000390764
-3.00822e-07
0.00039076
-2.28536e-07
0.00039075
-1.50163e-07
0.000390734
-7.0137e-08
0.000390714
7.35588e-09
0.000390691
7.76143e-08
0.000390667
1.38656e-07
0.000390644
1.88146e-07
0.000390622
2.2485e-07
0.000390602
2.48335e-07
0.000390586
2.58787e-07
0.000390573
2.57598e-07
0.000390564
2.44781e-07
2.20669e-07
0.000390558
0.000390661
-2.28645e-07
0.000390674
-2.31584e-07
0.000390685
-2.2491e-07
0.000390692
-2.06647e-07
0.000390697
-1.78865e-07
0.000390698
-1.43525e-07
0.000390695
-1.02893e-07
0.000390688
-5.94445e-08
0.000390679
-1.53547e-08
0.000390667
2.60173e-08
0.000390654
6.34497e-08
0.000390641
9.51783e-08
0.000390628
1.20018e-07
0.000390615
1.37273e-07
0.000390603
1.46645e-07
0.000390594
1.48227e-07
0.000390585
1.42773e-07
0.000390579
1.28953e-07
0.000390574
1.076e-07
0.000390571
7.86943e-08
0.000390569
4.18922e-08
0.000390568
-3.53001e-09
0.000390569
-5.73978e-08
0.000390571
-1.20575e-07
0.000390576
-1.92898e-07
0.000390584
-2.73496e-07
0.000390596
-3.60496e-07
0.000390613
-4.50808e-07
0.000390636
-5.4002e-07
0.000390663
-6.22759e-07
0.000390695
-6.9293e-07
0.000390729
-7.44364e-07
0.000390765
-7.71509e-07
0.000390799
-7.72643e-07
0.000390829
-7.44925e-07
0.000390851
-6.8433e-07
0.000390865
-5.96053e-07
0.000390867
-4.85279e-07
0.000390858
-3.58903e-07
0.000390838
-2.24507e-07
0.000390808
-8.94701e-08
0.000390772
3.81679e-08
0.000390732
1.52337e-07
0.00039069
2.49227e-07
0.000390648
3.25592e-07
0.00039061
3.7992e-07
0.000390576
4.12028e-07
0.000390548
4.22705e-07
0.000390525
4.15035e-07
0.000390509
3.87845e-07
3.43374e-07
0.000390498
0.000390692
-3.99137e-07
0.000390714
-4.00054e-07
0.000390733
-3.83682e-07
0.000390745
-3.47127e-07
0.000390752
-2.9525e-07
0.000390752
-2.31231e-07
0.000390746
-1.59158e-07
0.000390734
-8.34422e-08
0.000390716
-7.41128e-09
0.000390695
6.20765e-08
0.000390672
1.24473e-07
0.000390648
1.76338e-07
0.000390625
2.15956e-07
0.000390603
2.42366e-07
0.000390584
2.55235e-07
0.000390567
2.55337e-07
0.000390553
2.42954e-07
0.000390543
2.16554e-07
0.000390535
1.77736e-07
0.000390529
1.26105e-07
0.000390525
6.10732e-08
0.000390524
-1.91543e-08
0.000390525
-1.13077e-07
0.000390529
-2.23385e-07
0.000390538
-3.49066e-07
0.000390552
-4.88389e-07
0.000390574
-6.37741e-07
0.000390605
-7.91337e-07
0.000390645
-9.41098e-07
0.000390694
-1.07752e-06
0.00039075
-1.18993e-06
0.000390811
-1.26797e-06
0.000390873
-1.30274e-06
0.000390932
-1.29336e-06
0.000390981
-1.23226e-06
0.000391018
-1.11684e-06
0.000391038
-9.56837e-07
0.000391038
-7.62154e-07
0.000391019
-5.44914e-07
0.000390982
-3.18206e-07
0.000390928
-9.32946e-08
0.000390864
1.13614e-07
0.000390794
2.96874e-07
0.000390722
4.49117e-07
0.000390652
5.65974e-07
0.000390587
6.45771e-07
0.00039053
6.88928e-07
0.000390484
6.97517e-07
0.000390446
6.76577e-07
0.000390419
6.23515e-07
5.43744e-07
0.000390401
0.000390748
-6.83985e-07
0.000390786
-6.78522e-07
0.000390816
-6.41066e-07
0.000390837
-5.71437e-07
0.000390846
-4.76663e-07
0.000390844
-3.63061e-07
0.000390831
-2.37763e-07
0.000390808
-1.08164e-07
0.000390777
1.86372e-08
0.000390739
1.3455e-07
0.000390699
2.36108e-07
0.000390658
3.18968e-07
0.000390618
3.8058e-07
0.000390581
4.19702e-07
0.000390548
4.36032e-07
0.00039052
4.31816e-07
0.000390498
4.05629e-07
0.00039048
3.571e-07
0.000390467
2.87783e-07
0.000390457
1.97104e-07
0.000390451
8.38815e-08
0.000390449
-5.44918e-08
0.00039045
-2.16968e-07
0.000390457
-4.06442e-07
0.000390473
-6.21399e-07
0.000390498
-8.58302e-07
0.000390537
-1.11026e-06
0.000390591
-1.3666e-06
0.000390662
-1.61285e-06
0.000390748
-1.83247e-06
0.000390847
-2.00723e-06
0.000390953
-2.12021e-06
0.000391059
-2.15813e-06
0.000391157
-2.12195e-06
0.000391239
-1.99539e-06
0.000391297
-1.78189e-06
0.000391325
-1.49888e-06
0.000391319
-1.16415e-06
0.00039128
-7.98657e-07
0.000391212
-4.24311e-07
0.000391116
-5.69529e-08
0.000391007
2.70904e-07
0.000390887
5.59218e-07
0.000390765
7.93546e-07
0.000390648
9.68564e-07
0.000390542
1.08278e-06
0.00039045
1.13778e-06
0.000390374
1.13888e-06
0.000390314
1.092e-06
0.000390271
9.93499e-07
8.54235e-07
0.000390243
0.000390847
-1.14935e-06
0.000390911
-1.12726e-06
0.00039096
-1.04882e-06
0.000390992
-9.19738e-07
0.000391005
-7.50874e-07
0.000390998
-5.53783e-07
0.000390972
-3.4073e-07
0.000390928
-1.23552e-07
0.000390872
8.39832e-08
0.000390808
2.72185e-07
0.000390738
4.33958e-07
0.000390668
5.6321e-07
0.000390601
6.56452e-07
0.000390539
7.12253e-07
0.000390486
7.30654e-07
0.00039044
7.1614e-07
0.000390403
6.64452e-07
0.000390375
5.77238e-07
0.000390353
4.56064e-07
0.000390337
2.99683e-07
0.000390326
1.05869e-07
0.000390321
-1.29313e-07
0.000390324
-4.05464e-07
0.000390336
-7.25687e-07
0.000390362
-1.08718e-06
0.000390406
-1.48292e-06
0.000390474
-1.89998e-06
0.00039057
-2.31898e-06
0.000390693
-2.71465e-06
0.000390842
-3.05868e-06
0.000391012
-3.32085e-06
0.000391193
-3.47406e-06
0.000391371
-3.50336e-06
0.000391532
-3.40554e-06
0.000391666
-3.15699e-06
0.000391754
-2.77422e-06
0.00039179
-2.28641e-06
0.00039177
-1.72483e-06
0.000391695
-1.12436e-06
0.00039157
-5.19385e-07
0.000391409
5.80452e-08
0.000391221
5.73532e-07
0.000391021
1.01491e-06
0.000390821
1.36647e-06
0.00039063
1.62148e-06
0.000390459
1.77927e-06
0.000390313
1.84361e-06
0.00039019
1.82685e-06
0.000390098
1.72982e-06
0.000390031
1.55669e-06
1.31883e-06
0.000389986
0.000391018
-1.89129e-06
0.000391123
-1.832e-06
0.000391202
-1.67718e-06
0.00039125
-1.4443e-06
0.000391265
-1.15114e-06
0.000391247
-8.17342e-07
0.000391197
-4.63569e-07
0.000391119
-1.07203e-07
0.000391022
2.24125e-07
0.000390911
5.22373e-07
0.000390794
7.73994e-07
0.000390677
9.70513e-07
0.000390566
1.10747e-06
0.000390465
1.1836e-06
0.000390378
1.1999e-06
0.000390304
1.1639e-06
0.000390245
1.06649e-06
0.000390199
9.1376e-07
0.000390164
7.06369e-07
0.000390137
4.41679e-07
0.000390119
1.15607e-07
0.00039011
-2.77623e-07
0.000390112
-7.38606e-07
0.000390132
-1.27044e-06
0.000390176
-1.86741e-06
0.000390253
-2.51579e-06
0.000390371
-3.19185e-06
0.000390536
-3.86084e-06
0.000390748
-4.48045e-06
0.000391004
-5.00251e-06
0.000391291
-5.3792e-06
0.000391595
-5.56923e-06
0.000391891
-5.56423e-06
0.000392148
-5.33397e-06
0.000392357
-4.86803e-06
0.000392488
-4.20436e-06
0.000392529
-3.38707e-06
0.000392478
-2.46985e-06
0.000392339
-1.50902e-06
0.00039212
-5.56363e-07
0.000391847
3.3124e-07
0.000391536
1.1169e-06
0.000391209
1.77576e-06
0.000390886
2.28891e-06
0.000390583
2.64922e-06
0.000390311
2.85833e-06
0.000390081
2.92401e-06
0.000389892
2.86792e-06
0.000389749
2.68449e-06
0.000389646
2.38837e-06
1.99246e-06
0.000389577
0.00039131
-3.0458e-06
0.000391477
-2.90566e-06
0.000391599
-2.61551e-06
0.00039167
-2.20804e-06
0.000391684
-1.71237e-06
0.000391643
-1.16113e-06
0.000391552
-5.88082e-07
0.000391414
-1.72657e-08
0.000391249
4.98292e-07
0.000391063
9.59426e-07
0.000390869
1.34074e-06
0.000390678
1.63136e-06
0.000390498
1.82596e-06
0.000390337
1.92378e-06
0.000390197
1.92999e-06
0.000390079
1.85131e-06
0.000389987
1.67582e-06
0.000389913
1.41515e-06
0.000389855
1.06755e-06
0.000389811
6.28078e-07
0.000389779
8.92243e-08
0.000389762
-5.56529e-07
0.000389765
-1.3118e-06
0.000389797
-2.17864e-06
0.000389871
-3.14502e-06
0.000390003
-4.18482e-06
0.000390205
-5.25527e-06
0.000390486
-6.29598e-06
0.000390845
-7.23725e-06
0.000391275
-8.0005e-06
0.000391753
-8.51287e-06
0.000392246
-8.71687e-06
0.00039272
-8.61064e-06
0.00039313
-8.13734e-06
0.000393449
-7.30573e-06
0.000393636
-6.18754e-06
0.000393674
-4.85766e-06
0.000393563
-3.40177e-06
0.000393314
-1.90743e-06
0.000392941
-4.4609e-07
0.000392491
8.79953e-07
0.000391987
2.04359e-06
0.000391465
2.99989e-06
0.000390954
3.72713e-06
0.00039048
4.21936e-06
0.000390059
4.48283e-06
0.000389705
4.53238e-06
0.000389417
4.40016e-06
0.000389199
4.0738e-06
0.000389042
3.58216e-06
2.9391e-06
0.000388936
0.000391789
-4.78621e-06
0.00039205
-4.48926e-06
0.000392238
-3.96965e-06
0.000392337
-3.27792e-06
0.000392343
-2.46261e-06
0.000392259
-1.57608e-06
0.000392093
-6.69636e-07
0.000391865
2.07037e-07
0.000391587
1.00224e-06
0.000391281
1.69434e-06
0.000390967
2.25627e-06
0.00039066
2.67343e-06
0.000390375
2.93998e-06
0.000390121
3.05614e-06
0.000389899
3.03728e-06
0.000389718
2.87893e-06
0.000389572
2.57543e-06
0.000389455
2.14155e-06
0.000389362
1.57136e-06
0.000389288
8.562e-07
0.000389234
-1.82095e-08
0.000389202
-1.05762e-06
0.000389203
-2.2709e-06
0.000389254
-3.65509e-06
0.000389379
-5.18542e-06
0.0003896
-6.81333e-06
0.000389941
-8.46341e-06
0.000390412
-1.00349e-05
0.000391011
-1.14148e-05
0.000391719
-1.24815e-05
0.000392496
-1.31276e-05
0.000393294
-1.32966e-05
0.000394032
-1.29625e-05
0.000394669
-1.20489e-05
0.000395136
-1.06331e-05
0.000395388
-8.81517e-06
0.000395402
-6.71911e-06
0.000395183
-4.47738e-06
0.000394749
-2.21975e-06
0.000394138
-4.94725e-08
0.000393413
1.87996e-06
0.000392615
3.55183e-06
0.000391799
4.89883e-06
0.00039101
5.89741e-06
0.000390285
6.54521e-06
0.000389646
6.85536e-06
0.00038911
6.85995e-06
0.000388678
6.59276e-06
0.000388352
6.0372e-06
0.000388115
5.24523e-06
4.22581e-06
0.000387952
0.000392562
-7.3141e-06
0.000392966
-6.74185e-06
0.000393241
-5.84674e-06
0.000393372
-4.70982e-06
0.000393354
-3.40817e-06
0.000393196
-2.0233e-06
0.000392906
-6.2908e-07
0.000392526
6.86273e-07
0.000392074
1.87153e-06
0.000391584
2.88318e-06
0.000391086
3.68786e-06
0.000390604
4.26813e-06
0.000390159
4.61863e-06
0.000389767
4.74272e-06
0.000389426
4.66706e-06
0.000389148
4.37398e-06
0.00038892
3.86865e-06
0.000388736
3.16277e-06
0.000388586
2.24782e-06
0.000388462
1.10845e-06
0.000388372
-2.84668e-07
0.000388312
-1.92061e-06
0.000388308
-3.82916e-06
0.00038839
-5.98985e-06
0.000388597
-8.35394e-06
0.000388966
-1.08339e-05
0.000389534
-1.32993e-05
0.000390309
-1.55922e-05
0.000391287
-1.75314e-05
0.000392428
-1.89415e-05
0.00039367
-1.96739e-05
0.000394917
-1.97051e-05
0.00039604
-1.88981e-05
0.000396998
-1.72891e-05
0.000397665
-1.49686e-05
0.000397989
-1.21182e-05
0.000397941
-8.92418e-06
0.000397536
-5.58231e-06
0.000396803
-2.27335e-06
0.00039584
8.26454e-07
0.000394697
3.57293e-06
0.000393465
5.89908e-06
0.00039222
7.73751e-06
0.000391028
9.06377e-06
0.000389942
9.88221e-06
0.000388995
1.02179e-05
0.000388192
1.01288e-05
0.000387562
9.6323e-06
0.000387078
8.73023e-06
0.00038672
7.48945e-06
5.91216e-06
0.000386469
0.000393774
-1.08415e-05
0.00039438
-9.80545e-06
0.000394773
-8.32976e-06
0.000394936
-6.52448e-06
0.000394865
-4.51179e-06
0.00039458
-2.4146e-06
0.000394093
-3.30803e-07
0.000393477
1.58552e-06
0.00039276
3.29932e-06
0.000391993
4.73516e-06
0.00039122
5.85303e-06
0.000390481
6.63346e-06
0.000389801
7.07366e-06
0.000389204
7.18214e-06
0.000388689
7e-06
0.000388266
6.48846e-06
0.000387918
5.66971e-06
0.000387631
4.55123e-06
0.00038739
3.11647e-06
0.000387185
1.34062e-06
0.000387031
-8.28685e-07
0.000386924
-3.34952e-06
0.000386911
-6.28216e-06
0.000387044
-9.56942e-06
0.000387383
-1.31195e-05
0.000387992
-1.67794e-05
0.000388918
-2.03352e-05
0.000390171
-2.35444e-05
0.000391733
-2.61365e-05
0.000393532
-2.78731e-05
0.000395445
-2.85748e-05
0.000397336
-2.8236e-05
0.00039903
-2.66717e-05
0.000400423
-2.39455e-05
0.000401347
-2.03166e-05
0.000401734
-1.60156e-05
0.000401559
-1.13202e-05
0.000400856
-6.50826e-06
0.000399674
-1.80858e-06
0.000398173
2.47957e-06
0.000396432
6.25589e-06
0.000394579
9.39397e-06
0.000392726
1.18236e-05
0.00039097
1.35249e-05
0.000389375
1.45146e-05
0.000387996
1.48326e-05
0.000386831
1.457e-05
0.000385916
1.3714e-05
0.000385204
1.23117e-05
0.000384669
1.04163e-05
8.034e-06
0.000384281
0.000395616
-1.55412e-05
0.0003965
-1.37891e-05
0.000397046
-1.14438e-05
0.00039723
-8.67647e-06
0.000397058
-5.66532e-06
0.000396558
-2.58487e-06
0.000395785
4.13378e-07
0.000394811
3.13925e-06
0.0003937
5.53785e-06
0.000392526
7.51329e-06
0.000391356
9.01725e-06
0.000390245
1.00297e-05
0.000389229
1.05523e-05
0.000388336
1.06071e-05
0.000387573
1.02367e-05
0.000386938
9.38644e-06
0.000386411
8.1002e-06
0.000385966
6.37214e-06
0.000385583
4.17395e-06
0.000385251
1.46607e-06
0.000384979
-1.81101e-06
0.0003848
-5.62622e-06
0.000384775
-1.00111e-05
0.00038499
-1.48674e-05
0.000385543
-2.00271e-05
0.000386535
-2.52308e-05
0.000388013
-3.0155e-05
0.000389998
-3.4431e-05
0.000392428
-3.76963e-05
0.000395181
-3.96304e-05
0.000398116
-4.01597e-05
0.000400861
-3.90345e-05
0.000403348
-3.62206e-05
0.000405302
-3.19574e-05
0.000406534
-2.65153e-05
0.000406955
-2.02737e-05
0.000406556
-1.36205e-05
0.000405397
-6.93355e-06
0.000403553
-4.6248e-07
0.000401292
5.25522e-06
0.000398711
1.0281e-05
0.000395996
1.43786e-05
0.000393309
1.74846e-05
0.000390778
1.95899e-05
0.000388491
2.07272e-05
0.000386518
2.09576e-05
0.00038486
2.04046e-05
0.000383542
1.90263e-05
0.00038251
1.69055e-05
0.000381716
1.40917e-05
1.05824e-05
0.000381119
0.000398343
-2.14886e-05
0.000399585
-1.8677e-05
0.000400315
-1.51056e-05
0.000400498
-1.10178e-05
0.000400153
-6.66835e-06
0.000399322
-2.29058e-06
0.00039812
1.87353e-06
0.000396625
5.63879e-06
0.00039495
8.88987e-06
0.0003932
1.15219e-05
0.00039147
1.34792e-05
0.000389837
1.47427e-05
0.000388352
1.53191e-05
0.000387036
1.52637e-05
0.000385925
1.45833e-05
0.000384988
1.32326e-05
0.000384195
1.12696e-05
0.000383511
8.66669e-06
0.000382906
5.37945e-06
0.00038237
1.34978e-06
0.000381922
-3.48709e-06
0.000381626
-9.09543e-06
0.000381585
-1.54577e-05
0.000381939
-2.23949e-05
0.000382839
-2.9615e-05
0.000384416
-3.67068e-05
0.000386735
-4.32083e-05
0.000389793
-4.85988e-05
0.000393486
-5.24237e-05
0.000397605
-5.4351e-05
0.000401802
-5.42961e-05
0.000405803
-5.19164e-05
0.000409339
-4.73898e-05
0.000412002
-4.09868e-05
0.000413595
-3.31874e-05
0.000413998
-2.44817e-05
0.000413233
-1.53913e-05
0.000411366
-6.39792e-06
0.000408703
2.06549e-06
0.000405356
9.5874e-06
0.000401627
1.60249e-05
0.000397753
2.11949e-05
0.000393949
2.503e-05
0.000390385
2.75363e-05
0.000387177
2.87668e-05
0.000384408
2.88102e-05
0.00038209
2.78058e-05
0.000380218
2.56968e-05
0.000378731
2.25871e-05
0.000377557
1.85206e-05
1.34816e-05
0.000376642
0.000402222
-2.85527e-05
0.000403926
-2.43003e-05
0.000404866
-1.90851e-05
0.000405004
-1.32724e-05
0.000404384
-7.21008e-06
0.000403063
-1.19649e-06
0.000401242
4.39658e-06
0.000399022
9.41998e-06
0.000396564
1.36873e-05
0.000394021
1.70817e-05
0.000391524
1.95435e-05
0.000389174
2.10573e-05
0.000387048
2.16366e-05
0.000385158
2.13751e-05
0.000383565
2.02228e-05
0.000382192
1.81646e-05
0.000381011
1.52511e-05
0.000379967
1.14312e-05
0.000379024
6.63846e-06
0.000378174
7.96247e-07
0.00037746
-6.15145e-06
0.000376995
-1.41396e-05
0.000376953
-2.30596e-05
0.000377541
-3.25935e-05
0.000378995
-4.22637e-05
0.000381449
-5.14925e-05
0.000384998
-5.96111e-05
0.000389579
-6.59959e-05
0.000394992
-7.01015e-05
0.00040097
-7.17694e-05
0.000406932
-7.05692e-05
0.000412556
-6.64103e-05
0.000417361
-5.95472e-05
0.000420897
-5.04809e-05
0.000422881
-3.97669e-05
0.000423193
-2.80841e-05
0.000421878
-1.60974e-05
0.000419078
-4.42005e-06
0.000415194
6.3288e-06
0.000410459
1.58318e-05
0.000405238
2.3817e-05
0.000399861
3.0123e-05
0.000394612
3.46963e-05
0.000389714
3.75582e-05
0.000385308
3.87876e-05
0.0003815
3.85118e-05
0.000378296
3.68652e-05
0.000375677
3.37559e-05
0.000373556
2.93346e-05
0.000371833
2.36142e-05
1.65689e-05
0.000370443
0.000407526
-3.64901e-05
0.000409812
-3.03003e-05
0.000410987
-2.29903e-05
0.000411014
-1.50262e-05
0.000409977
-6.87959e-06
0.000407976
1.09648e-06
0.000405302
8.36108e-06
0.000402099
1.48376e-05
0.000398594
2.0255e-05
0.000394993
2.44887e-05
0.000391475
2.74776e-05
0.000388169
2.92117e-05
0.000385182
2.97129e-05
0.000382529
2.91076e-05
0.000380264
2.72879e-05
0.00037828
2.42555e-05
0.000376538
2.00517e-05
0.000374966
1.45944e-05
0.00037352
7.79024e-06
0.000372208
-4.43381e-07
0.000371111
-1.01139e-05
0.00037043
-2.11e-05
0.000370432
-3.31263e-05
0.000371439
-4.56681e-05
0.000373721
-5.80222e-05
0.000377475
-6.9401e-05
0.000382752
-7.89851e-05
0.000389411
-8.60642e-05
0.000397144
-9.01311e-05
0.000405375
-9.10321e-05
0.000413584
-8.81536e-05
0.000421276
-8.16856e-05
0.000427705
-7.20241e-05
0.00043229
-5.97477e-05
0.00043469
-4.5571e-05
0.000434792
-3.04164e-05
0.000432714
-1.51637e-05
0.000428644
-4.48881e-07
0.000423207
1.27287e-05
0.000416696
2.4326e-05
0.000409595
3.39038e-05
0.000402329
4.13357e-05
0.000395265
4.65929e-05
0.000388683
4.97197e-05
0.000382765
5.08107e-05
0.000377602
5.00476e-05
0.000373261
4.75103e-05
0.000369634
4.31019e-05
0.000366633
3.69933e-05
0.000364132
2.9164e-05
1.95836e-05
0.000362057
0.000414554
-4.47051e-05
0.000417547
-3.61564e-05
0.000418951
-2.62816e-05
0.000418769
-1.57646e-05
0.000417115
-5.17855e-06
0.000414265
4.95661e-06
0.000410438
1.41634e-05
0.000405947
2.22135e-05
0.000401081
2.88585e-05
0.000396111
3.39611e-05
0.000391273
3.74599e-05
0.000386721
3.93475e-05
0.000382606
3.96542e-05
0.000378945
3.85318e-05
0.00037575
3.57943e-05
0.000372935
3.14771e-05
0.000370403
2.55801e-05
0.00036807
1.79992e-05
0.000365894
8.62149e-06
0.000363937
-2.63552e-06
0.000362335
-1.56284e-05
0.000361424
-3.01548e-05
0.000361596
-4.56791e-05
0.000363292
-6.14003e-05
0.000366821
-7.64023e-05
0.000372396
-8.96944e-05
0.000379965
-0.000100378
0.000389275
-0.000107711
0.000399951
-0.000111527
0.000410994
-0.000110962
0.000422073
-0.000106102
0.00043226
-9.6988e-05
0.000440648
-8.40744e-05
0.000446417
-6.80325e-05
0.000449233
-4.99483e-05
0.000448986
-3.08774e-05
0.000445821
-1.19821e-05
0.000440309
5.82392e-06
0.000432856
2.16895e-05
0.000424138
3.532e-05
0.000414727
4.6416e-05
0.000405161
5.48638e-05
0.000395873
6.06704e-05
0.00038721
6.39064e-05
0.000379413
6.46691e-05
0.000372555
6.32056e-05
0.000366754
5.9477e-05
0.00036179
5.34522e-05
0.000357592
4.52441e-05
0.000354013
3.48295e-05
2.21783e-05
0.000350993
0.000423567
-5.26291e-05
0.000427346
-4.11988e-05
0.000428973
-2.83781e-05
0.000428468
-1.49433e-05
0.000425989
-1.63174e-06
0.000421972
1.08302e-05
0.000416716
2.20767e-05
0.000410613
3.17601e-05
0.000404046
3.96408e-05
0.00039737
4.55808e-05
0.000390867
4.95214e-05
0.000384739
5.14513e-05
0.000379171
5.14145e-05
0.000374194
4.95615e-05
0.000369773
4.56162e-05
0.000365817
3.96517e-05
0.000362189
3.162e-05
0.000358797
2.1394e-05
0.000355619
8.87938e-06
0.000352803
-5.9787e-06
0.000350607
-2.27792e-05
0.000349523
-4.11752e-05
0.000350121
-6.02811e-05
0.000352893
-7.90369e-05
0.000358208
-9.6349e-05
0.000366182
-0.000111109
0.000376675
-0.000122424
0.000389272
-0.000129764
0.000403211
-0.00013273
0.000417815
-0.000130721
0.000432371
-0.000123675
0.000445573
-0.000111575
0.00045619
-9.51714e-05
0.00046345
-7.50516e-05
0.000466718
-5.24774e-05
0.000465943
-2.90063e-05
0.000461384
-6.13496e-06
0.000453875
1.48882e-05
0.000444058
3.33645e-05
0.000432724
4.89015e-05
0.000420595
6.13166e-05
0.00040831
7.0565e-05
0.000396396
7.66838e-05
0.000385248
7.97897e-05
0.000375172
7.99692e-05
0.000366253
7.7531e-05
0.000358578
7.23164e-05
0.000351855
6.43145e-05
0.000346066
5.35912e-05
0.000341045
4.01387e-05
2.39755e-05
0.000336789
0.000434709
-5.95893e-05
0.000439415
-4.49438e-05
0.00044122
-2.87294e-05
0.000440248
-1.20897e-05
0.00043667
4.18783e-06
0.000431197
1.90075e-05
0.000424184
3.22836e-05
0.000416128
4.35454e-05
0.000407509
5.25822e-05
0.00039876
5.92548e-05
0.00039022
6.35016e-05
0.000382153
6.53003e-05
0.00037474
6.47675e-05
0.000368083
6.18975e-05
0.000362058
5.64299e-05
0.000356572
4.84366e-05
0.000351463
3.78231e-05
0.000346657
2.4448e-05
0.000342181
8.31531e-06
0.000338302
-1.04977e-05
0.000335508
-3.13761e-05
0.000334457
-5.35933e-05
0.000335871
-7.59842e-05
0.000340238
-9.73399e-05
0.000347902
-0.000116386
0.000358863
-0.000132103
0.000372846
-0.000143697
0.000389162
-0.000150967
0.000407038
-0.000152844
0.000425852
-0.00014947
0.000444247
-0.000140361
0.00046108
-0.000125692
0.000474691
-0.000105563
0.000483691
-8.08458e-05
0.000487369
-5.30485e-05
0.000485785
-2.45139e-05
0.000479281
2.80591e-06
0.000469345
2.69997e-05
0.000456714
4.78959e-05
0.000442349
6.50646e-05
0.00042712
7.84659e-05
0.000411725
8.81563e-05
0.000396782
9.42276e-05
0.00038274
9.68539e-05
0.000369957
9.61165e-05
0.000358535
9.23779e-05
0.000348501
8.53307e-05
0.000339562
7.49823e-05
0.000331724
6.1383e-05
0.000324874
4.45443e-05
2.46857e-05
0.000319059
0.000448233
-6.54157e-05
0.000453939
-4.70029e-05
0.000455804
-2.69493e-05
0.000454076
-6.7746e-06
0.000449257
1.24227e-05
0.00044197
2.96961e-05
0.000432862
4.48224e-05
0.000422513
5.74925e-05
0.000411481
6.75006e-05
0.000400275
7.47079e-05
0.000389298
7.90502e-05
0.000378877
8.04919e-05
0.000369217
7.92187e-05
0.000360458
7.50138e-05
0.000352359
6.77013e-05
0.000344872
5.7309e-05
0.00033783
4.37135e-05
0.000331205
2.68398e-05
0.000325144
6.81416e-06
0.000320138
-1.60578e-05
0.000316882
-4.08055e-05
0.000316248
-6.64129e-05
0.000318939
-9.14979e-05
0.000325466
-0.000114738
0.000336035
-0.000134965
0.000350473
-0.000151234
0.000368272
-0.000163147
0.000388666
-0.000170015
0.000410927
-0.00017136
0.000434296
-0.000167281
0.000457574
-0.000157048
0.000478724
-0.00014004
0.000496002
-0.000116276
0.000507323
-8.61686e-05
0.000511431
-5.18515e-05
0.000508553
-1.71826e-05
0.000499787
1.49066e-05
0.000486731
4.25236e-05
0.00047075
6.54875e-05
0.000452895
8.38569e-05
0.000434147
9.77443e-05
0.000415277
0.000107323
0.000396955
0.000112816
0.000379621
0.000114462
0.000363686
0.000112378
0.000349296
0.000106912
0.000336374
9.76362e-05
0.000324708
8.4605e-05
0.000314347
6.78727e-05
0.000305272
4.76057e-05
2.40883e-05
0.000297707
0.000464354
-7.03441e-05
0.000471133
-4.74122e-05
0.000472872
-2.28507e-05
0.000470016
1.24376e-06
0.000463476
2.33169e-05
0.000454118
4.2834e-05
0.000442625
5.95721e-05
0.000429679
7.33779e-05
0.00041591
8.4068e-05
0.000401895
9.15078e-05
0.000388089
9.56359e-05
0.000374901
9.64025e-05
0.00036259
9.40473e-05
0.000351187
8.82099e-05
0.000340468
7.87163e-05
0.000330442
6.56053e-05
0.000320997
4.87491e-05
0.000312161
2.83054e-05
0.000304345
4.44875e-06
0.000298286
-2.21468e-05
0.000294901
-5.016e-05
0.000295149
-7.83604e-05
0.000299663
-0.000105346
0.000308856
-0.000129806
0.000322717
-0.000150803
0.000340935
-0.000167576
0.000362813
-0.000179982
0.000387348
-0.000186803
0.000413975
-0.000188367
0.000442494
-0.000184864
0.000470966
-0.000174786
0.000497765
-0.000156272
0.000520223
-0.000129227
0.000534668
-9.25883e-05