/*--------------------------------*- C++ -*----------------------------------*\
  =========                 |
  \\      /  F ield         | OpenFOAM: The Open Source CFD Toolbox
   \\    /   O peration     | Website:  https://openfoam.org
    \\  /    A nd           | Version:  10
     \\/     M anipulation  |
\*---------------------------------------------------------------------------*/
FoamFile
{
    format      ascii;
    class       volScalarField;
    location    "0.0489448";
    object      rho;
}
// * * * * * * * * * * * * * * * * * * * * * * * * * * * * * * * * * * * * * //

dimensions      [1 -3 0 0 0 0 0];

internalField   nonuniform List<scalar> 
15708
(
1
1
1
1
1
1
1
1
1
1
1
0.999999
0.999999
0.999998
0.999998
0.999998
0.999998
0.999998
0.999998
0.999998
0.999999
1
1
1
1
1
1
1.00001
1.00001
1.00001
1.00001
1.00001
1.00002
1.00002
1.00003
1.00003
1.00004
1.00005
1.00006
1.00008
1.0001
1.00012
1.00015
1.00018
1.00021
1.00024
1.00026
1.00028
1.00029
1.00029
1.00028
1
1
1.00001
1.00001
1
1
1
1
1
1
1
0.999999
0.999998
0.999997
0.999996
0.999996
0.999996
0.999996
0.999997
0.999997
0.999998
0.999999
1
1
1
1.00001
1.00001
1.00001
1.00001
1.00002
1.00002
1.00002
1.00003
1.00003
1.00003
1.00003
1.00004
1.00004
1.00005
1.00005
1.00006
1.00007
1.00008
1.0001
1.00011
1.00013
1.00014
1.00015
1.00016
1.00016
1.00015
1.00001
1.00001
1.00001
1.00001
1.00001
1.00001
1.00001
1.00001
1
1
0.999999
0.999997
0.999996
0.999994
0.999993
0.999993
0.999993
0.999993
0.999994
0.999995
0.999997
0.999999
1
1
1.00001
1.00001
1.00002
1.00002
1.00003
1.00003
1.00004
1.00004
1.00004
1.00005
1.00005
1.00005
1.00005
1.00005
1.00004
1.00004
1.00004
1.00004
1.00005
1.00005
1.00005
1.00006
1.00007
1.00007
1.00007
1.00008
1.00008
1.00002
1.00002
1.00002
1.00002
1.00002
1.00002
1.00001
1.00001
1
1
0.999997
0.999994
0.999991
0.999989
0.999988
0.999987
0.999987
0.999988
0.999989
0.999992
0.999995
0.999999
1
1.00001
1.00002
1.00002
1.00003
1.00004
1.00005
1.00006
1.00007
1.00007
1.00008
1.00008
1.00008
1.00008
1.00007
1.00006
1.00006
1.00005
1.00004
1.00003
1.00002
1.00002
1.00001
1.00001
1.00001
1.00001
1.00001
1.00002
1.00002
1.00004
1.00004
1.00004
1.00004
1.00003
1.00003
1.00002
1.00001
1.00001
1
0.999994
0.999988
0.999983
0.99998
0.999977
0.999976
0.999977
0.999978
0.999981
0.999986
0.999992
0.999999
1.00001
1.00002
1.00003
1.00005
1.00006
1.00008
1.00009
1.00011
1.00012
1.00013
1.00013
1.00014
1.00013
1.00013
1.00012
1.0001
1.00008
1.00006
1.00004
1.00002
1
0.999987
0.999975
0.999966
0.999961
0.999958
0.999959
0.999963
0.999969
1.00006
1.00007
1.00007
1.00006
1.00005
1.00005
1.00003
1.00002
1.00001
0.999998
0.999986
0.999977
0.999969
0.999963
0.999959
0.999958
0.999959
0.999962
0.999968
0.999976
0.999987
1
1.00002
1.00004
1.00006
1.00008
1.00011
1.00014
1.00016
1.00019
1.00021
1.00023
1.00023
1.00024
1.00023
1.00021
1.00019
1.00016
1.00013
1.00009
1.00005
1.00001
0.99998
0.99995
0.999927
0.999909
0.999898
0.999894
0.999895
0.999901
0.999913
1.00011
1.00012
1.00011
1.00011
1.00009
1.00008
1.00006
1.00003
1.00001
0.999991
0.999972
0.999955
0.999942
0.999933
0.999927
0.999926
0.999928
0.999935
0.999946
0.999961
0.999981
1.00001
1.00004
1.00007
1.00011
1.00015
1.0002
1.00024
1.00029
1.00033
1.00037
1.00039
1.0004
1.0004
1.00039
1.00036
1.00031
1.00026
1.0002
1.00013
1.00006
1
0.999942
0.999893
0.999854
0.999825
0.999807
0.9998
0.999803
0.999815
0.999837
1.0002
1.0002
1.0002
1.00018
1.00015
1.00012
1.00009
1.00005
1.00001
0.999975
0.999943
0.999916
0.999895
0.99988
0.999873
0.999872
0.999877
0.999891
0.999911
0.999939
0.999974
1.00002
1.00007
1.00013
1.0002
1.00027
1.00035
1.00043
1.0005
1.00057
1.00063
1.00066
1.00068
1.00067
1.00064
1.00058
1.0005
1.00041
1.0003
1.00019
1.00007
0.999969
0.999876
0.999796
0.999734
0.999689
0.999663
0.999655
0.999663
0.999687
0.999726
1.00035
1.00035
1.00033
1.00029
1.00025
1.00019
1.00013
1.00007
1
0.999944
0.999891
0.999848
0.999814
0.999792
0.999782
0.999783
0.999795
0.99982
0.999856
0.999905
0.999967
1.00004
1.00013
1.00024
1.00035
1.00048
1.00061
1.00074
1.00087
1.00097
1.00106
1.00111
1.00113
1.0011
1.00104
1.00093
1.00079
1.00062
1.00044
1.00026
1.00007
0.999904
0.999756
0.999632
0.999536
0.999471
0.999435
0.999427
0.999446
0.999492
0.999562
1.00058
1.00057
1.00054
1.00048
1.00039
1.0003
1.00019
1.00008
0.999978
0.999881
0.999798
0.999729
0.999678
0.999647
0.999633
0.999639
0.999663
0.999708
0.999773
0.999859
0.999966
1.0001
1.00025
1.00042
1.00062
1.00083
1.00105
1.00126
1.00146
1.00163
1.00175
1.00182
1.00183
1.00177
1.00164
1.00145
1.00121
1.00093
1.00063
1.00033
1.00004
0.999776
0.999546
0.999359
0.999217
0.999124
0.999077
0.999076
0.999115
0.999198
0.999319
1.00096
1.00093
1.00086
1.00075
1.0006
1.00044
1.00026
1.00009
0.999919
0.999767
0.999636
0.999531
0.999455
0.999411
0.999396
0.999411
0.999459
0.999539
0.999651
0.999797
0.999978
1.0002
1.00045
1.00074
1.00107
1.00141
1.00176
1.0021
1.00241
1.00266
1.00284
1.00292
1.0029
1.00278
1.00253
1.0022
1.00179
1.00134
1.00086
1.00039
0.99994
0.999538
0.999194
0.998917
0.998714
0.998587
0.998529
0.998542
0.998621
0.998765
0.998969
1.00155
1.00148
1.00134
1.00114
1.0009
1.00063
1.00034
1.00006
0.999799
0.999563
0.999363
0.999207
0.999098
0.999039
0.999026
0.999062
0.999149
0.999287
0.999477
0.999722
1.00002
1.00038
1.00081
1.00128
1.0018
1.00236
1.00291
1.00344
1.0039
1.00426
1.00449
1.00456
1.00448
1.00423
1.00379
1.00323
1.00257
1.00186
1.00112
1.0004
0.999722
0.999125
0.998622
0.998225
0.997942
0.997774
0.997712
0.997754
0.9979
0.998144
0.99848
1.00243
1.00229
1.00203
1.0017
1.0013
1.00086
1.00042
0.99998
0.999574
0.999217
0.998921
0.998695
0.998543
0.998467
0.998466
0.998537
0.998692
0.998925
0.99924
0.999642
1.00013
1.00072
1.0014
1.00216
1.00299
1.00385
1.0047
1.00549
1.00615
1.00664
1.00691
1.00694
1.00675
1.00625
1.00551
1.0046
1.00357
1.00247
1.00136
1.00029
0.999303
0.998443
0.997729
0.997177
0.996795
0.996583
0.996526
0.996624
0.99688
0.997281
0.997821
1.00372
1.00343
1.00299
1.00244
1.00181
1.00112
1.00044
0.999779
0.999176
0.998653
0.998226
0.997908
0.997704
0.997613
0.997636
0.997775
0.998037
0.998422
0.998933
0.99958
1.00037
1.0013
1.00238
1.00357
1.00485
1.00615
1.00741
1.00854
1.00945
1.01007
1.01033
1.01026
1.0098
1.00893
1.00773
1.00632
1.00476
1.00313
1.00151
0.999968
0.998576
0.997371
0.996388
0.995643
0.995144
0.994886
0.994861
0.99505
0.995481
0.99612
0.996969
1.00551
1.00497
1.00426
1.00338
1.0024
1.00137
1.00035
0.999383
0.998513
0.997768
0.997171
0.996735
0.996474
0.996374
0.996445
0.996696
0.997129
0.997747
0.99856
0.999581
1.00082
1.00227
1.00392
1.00574
1.00765
1.00956
1.01135
1.0129
1.01407
1.01477
1.01495
1.01461
1.01377
1.01227
1.01043
1.00833
1.00606
1.00372
1.00145
0.999304
0.997396
0.995765
0.994451
0.993474
0.992852
0.99255
0.992585
0.992938
0.99362
0.994616
0.995919
1.00787
1.00696
1.00583
1.00449
1.00303
1.00153
1.00006
0.998682
0.997462
0.996432
0.995621
0.99505
0.994723
0.994635
0.99479
0.995221
0.995912
0.996882
0.998146
0.999721
1.00161
1.00382
1.00631
1.00899
1.01175
1.01442
1.01685
1.01884
1.02023
1.02089
1.02084
1.02012
1.01846
1.01624
1.01351
1.01049
1.0073
1.0041
1.00099
0.998132
0.995603
0.993464
0.991764
0.99053
0.989765
0.989448
0.989588
0.990185
0.991244
0.99275
0.994704
1.01078
1.00935
1.00763
1.00568
1.00358
1.00147
0.999423
0.997533
0.995877
0.994497
0.993431
0.992702
0.992317
0.992273
0.992567
0.993268
0.994346
0.995832
0.997751
1.00012
1.00296
1.00622
1.00983
1.01364
1.01746
1.02104
1.02414
1.02651
1.02796
1.02842
1.02794
1.02637
1.02387
1.0205
1.01668
1.01255
1.00825
1.00405
0.999978
0.996275
0.993031
0.990319
0.988189
0.986671
0.985771
0.985477
0.985782
0.986739
0.988327
0.99055
0.993407
1.0141
1.01202
1.00953
1.00678
1.00389
1.00103
0.998267
0.99577
0.993596
0.991808
0.990451
0.989556
0.989123
0.989168
0.989688
0.990788
0.992419
0.99464
0.997483
1.00097
1.00509
1.00975
1.0148
1.02001
1.02502
1.02956
1.03323
1.03579
1.03706
1.03704
1.03575
1.03318
1.02933
1.0247
1.01956
1.01414
1.00861
1.00328
0.998141
0.993545
0.989541
0.986218
0.98363
0.981823
0.980813
0.980575
0.981147
0.982606
0.984917
0.988114
0.992186
1.01773
1.01469
1.01126
1.00755
1.00372
0.999983
0.996412
0.99322
0.990464
0.988225
0.986554
0.985499
0.985042
0.985245
0.986104
0.987767
0.990172
0.993406
0.997512
1.0025
1.00828
1.01471
1.02149
1.02823
1.0345
1.0398
1.04383
1.04624
1.04698
1.0462
1.04374
1.0396
1.03438
1.02826
1.02167
1.01484
1.00805
1.00148
0.995312
0.989813
0.985049
0.981118
0.978078
0.975991
0.974901
0.9748
0.975739
0.97788
0.981156
0.98563
0.991277
1.021
1.017
1.01246
1.00767
1.00283
0.998111
0.993673
0.989735
0.986369
0.983661
0.98167
0.980484
0.980049
0.980477
0.981865
0.984255
0.987718
0.992308
0.998067
1.00496
1.01281
1.0213
1.02996
1.03821
1.0455
1.0513
1.05522
1.05706
1.05694
1.05489
1.05085
1.04516
1.03837
1.03056
1.02248
1.01422
1.00623
0.998476
0.99134
0.98502
0.979571
0.975072
0.97165
0.969316
0.968189
0.968299
0.969763
0.972791
0.977306
0.983393
0.990992
1.02377
1.01842
1.01272
1.00677
1.00091
0.995172
0.989903
0.985233
0.981273
0.978097
0.975852
0.974534
0.974213
0.974972
0.977056
0.980445
0.985276
0.991601
0.999425
1.00862
1.01882
1.02951
1.03996
1.04947
1.05734
1.06316
1.06641
1.06733
1.06591
1.0623
1.05658
1.04889
1.04045
1.03108
1.02155
1.01192
1.00289
0.994056
0.986175
0.979213
0.973219
0.968294
0.964535
0.962077
0.960987
0.96142
0.963563
0.967748
0.973769
0.981811
0.991674
1.02512
1.01853
1.01162
1.00455
0.997714
0.991049
0.985031
0.97973
0.975225
0.971687
0.969208
0.967861
0.967733
0.968971
0.971961
0.976626
0.983167
0.991614
1.00188
1.01362
1.0263
1.03902
1.05089
1.06116
1.06913
1.07414
1.07648
1.07608
1.073
1.06752
1.05965
1.05053
1.04063
1.02967
1.01857
1.00775
0.997748
0.988189
0.979877
0.972517
0.966221
0.961121
0.957135
0.954688
0.953769
0.954651
0.95772
0.963272
0.971087
0.981332
0.993645
1.02484
1.01696
1.00884
1.00079
0.993091
0.985688
0.979116
0.973318
0.968472
0.964649
0.962068
0.960787
0.960992
0.962872
0.967035
0.973248
0.981831
0.992684
1.0056
1.01996
1.03484
1.04914
1.06192
1.07223
1.07945
1.08357
1.0844
1.0823
1.0774
1.0702
1.06102
1.05004
1.03822
1.02578
1.01328
1.00153
0.990816
0.980939
0.972513
0.965188
0.958882
0.953873
0.949953
0.947757
0.947185
0.948682
0.952963
0.960042
0.969881
0.982354
0.997126
1.02259
1.0134
1.00416
0.995349
0.986973
0.979177
0.972309
0.96628
0.961282
0.957409
0.954895
0.95385
0.954509
0.957318
0.962856
0.9709
0.981732
0.99513
1.01063
1.02728
1.04383
1.05905
1.07184
1.08155
1.08776
1.09025
1.08965
1.08592
1.07975
1.06997
1.05953
1.04716
1.03414
1.02004
1.00561
0.993111
0.981851
0.972232
0.964257
0.957302
0.951611
0.946922
0.94356
0.941898
0.941959
0.944344
0.9501
0.958881
0.97059
0.985255
1.00189
1.01824
1.00788
0.997579
0.988257
0.979471
0.971691
0.964849
0.958942
0.954075
0.950442
0.948297
0.947703
0.94903
0.953016
0.960205
0.970209
0.983241
0.999113
1.01677
1.03501
1.05243
1.06758
1.07982
1.08828
1.09309
1.09423
1.09244
1.08646
1.07943
1.06753
1.05852
1.04187
1.02762
1.01228
0.995517
0.982028
0.970597
0.962077
0.955093
0.94919
0.944441
0.940774
0.938407
0.937861
0.938623
0.942462
0.949774
0.96011
0.97369
0.989942
1.00774
1.01217
1.00026
0.989029
0.97949
0.970702
0.963389
0.956951
0.951594
0.94727
0.94433
0.942836
0.943087
0.945294
0.950937
0.959735
0.971534
0.986776
1.00436
1.02343
1.04237
1.05958
1.07402
1.08506
1.09229
1.09547
1.09558
1.09257
1.08487
1.07972
1.06211
1.05923
1.03479
1.02576
1.01178
0.990397
0.970813
0.957334
0.949313
0.944255
0.940537
0.937627
0.935486
0.934894
0.935369
0.938009
0.943283
0.952713
0.964494
0.979071
0.995917
1.01385
1.00467
0.990621
0.978396
0.968788
0.960862
0.954502
0.948891
0.944422
0.941329
0.939371
0.939255
0.940333
0.944078
0.951437
0.961817
0.975522
0.99201
1.01067
1.03
1.04849
1.06465
1.0779
1.08731
1.09321
1.09581
1.09482
1.09112
1.08394
1.07719
1.05977
1.06865
1.03749
1.04951
1.06903
1.02586
0.989945
0.955791
0.941575
0.934538
0.931543
0.930946
0.931909
0.932678
0.935509
0.940018
0.946983
0.95797
0.970631
0.985964
1.0027
1.01953
1.00441
0.985793
0.968321
0.956315
0.94907
0.944276
0.940413
0.937654
0.936107
0.936027
0.937064
0.940843
0.945548
0.955105
0.966799
0.981307
0.998557
1.01714
1.03559
1.05274
1.06736
1.07883
1.08725
1.09182
1.0939
1.09305
1.0887
1.08464
1.07897
1.06495
1.11609
1.10162
1.26368
1.44711
1.37308
1.2562
1.054
0.956251
0.925437
0.921286
0.922893
0.926689
0.93161
0.937659
0.944368
0.953358
0.965838
0.978848
0.99332
1.00857
1.02374
1.06088
1.02268
0.989508
0.956371
0.943004
0.935695
0.931995
0.931106
0.931954
0.933904
0.937804
0.94221
0.950125
0.960905
0.973863
0.989022
1.00563
1.02297
1.03974
1.05491
1.06758
1.07755
1.08478
1.08897
1.091
1.09051
1.08675
1.09827
1.08758
1.11848
1.37179
1.37246
1.85532
1.98506
1.89591
1.76266
1.52293
1.32348
1.06852
0.95074
0.923223
0.92588
0.929162
0.938156
0.9478
0.959509
0.972849
0.986241
0.999821
1.01345
1.02625
1.44605
1.3727
1.25601
1.05857
0.966988
0.931788
0.922828
0.922848
0.926096
0.931615
0.938967
0.947583
0.955627
0.968024
0.981518
0.99599
1.01158
1.02738
1.042
1.05494
1.06589
1.07458
1.08093
1.08562
1.08814
1.08892
1.09398
1.15993
1.15815
1.34956
2.0738
2.04376
2.04289
2.00199
1.96099
1.90249
1.84665
1.76521
1.55312
1.28231
1.00964
0.941693
0.936103
0.940335
0.952876
0.964555
0.978216
0.991648
1.00367
1.01555
1.02665
1.97478
1.90205
1.80171
1.62297
1.44607
1.2955
1.06764
0.95405
0.929182
0.932602
0.937279
0.94874
0.960915
0.973898
0.988351
1.00231
1.0163
1.02965
1.04232
1.05333
1.06247
1.07067
1.07648
1.08337
1.08738
1.09703
1.17252
1.41459
1.50311
2.13393
2.11115
2.09759
2.07383
2.02234
1.98058
1.93258
1.89208
1.85178
1.82276
1.74561
1.51174
1.25331
0.985098
0.952183
0.956797
0.965908
0.979326
0.993583
1.00505
1.0155
1.02516
1.99183
1.95503
1.91811
1.87459
1.83915
1.76379
1.56007
1.29301
1.0153
0.950881
0.945994
0.952128
0.964624
0.978427
0.992747
1.00522
1.0178
1.02983
1.04076
1.05039
1.05864
1.06621
1.0721
1.08592
1.09196
1.16543
1.65086
2.07703
2.06569
2.1558
2.13389
2.11951
2.08325
2.0416
1.99378
1.94443
1.90211
1.86517
1.84653
1.83473
1.80306
1.68574
1.36761
1.00975
0.975104
0.973175
0.982308
0.99304
1.00338
1.01327
1.02234
2.00717
1.97542
1.93454
1.9022
1.87063
1.84883
1.82509
1.7542
1.53238
1.26431
0.988229
0.962872
0.967283
0.97783
0.992216
1.00562
1.01696
1.02775
1.03802
1.04673
1.05462
1.06084
1.07599
1.12255
1.13409
1.70567
2.16425
2.16071
2.17391
2.18282
2.15893
2.1394
2.09848
2.05234
1.99872
1.94528
1.90033
1.86525
1.84598
1.8404
1.83804
1.83009
1.78365
1.61338
1.24226
0.966697
0.980438
0.988819
0.999568
1.00939
1.01873
2.02485
1.98822
1.94478
1.90893
1.87802
1.85659
1.8488
1.84008
1.81014
1.68867
1.36874
1.0246
0.983008
0.981887
0.991738
1.00276
1.01383
1.02399
1.03459
1.04286
1.05063
1.06399
1.15308
1.31832
1.7123
2.13343
2.19752
2.20188
2.20714
2.20702
2.18204
2.15374
2.10885
2.05512
1.99567
1.93896
1.89194
1.85841
1.84014
1.83469
1.83555
1.84038
1.84253
1.80848
1.68641
1.40079
1.09708
1.03373
0.999433
1.00663
1.01223
2.03574
1.99272
1.94665
1.90696
1.87595
1.85596
1.84897
1.84804
1.84765
1.83762
1.77921
1.58606
1.2118
0.985972
0.991079
0.999262
1.00922
1.01989
1.0311
1.03937
1.05597
1.21021
1.78265
1.9898
2.04751
2.19273
2.21435
2.22751
2.22917
2.22179
2.19667
2.1597
2.10838
2.04853
1.98676
1.93018
1.88561
1.85409
1.83699
1.83226
1.83466
1.84402
1.8553
1.86306
1.86433
1.82685
1.68987
1.40408
1.09525
1.12905
1.42538
2.03842
1.99063
1.94232
1.90155
1.87085
1.8515
1.84479
1.84496
1.84901
1.85542
1.85299
1.80831
1.66591
1.39495
1.24097
1.19184
1.12755
1.0614
1.03451
1.06092
1.22902
1.82752
2.05769
2.12075
2.1614
2.21616
2.23011
2.24363
2.24114
2.22855
2.19748
2.15269
2.09639
2.03505
1.97545
1.92471
1.88492
1.85746
1.84121
1.8354
1.83722
1.84487
1.85685
1.87067
1.88497
1.89749
1.89898
1.87601
1.82743
1.81792
1.90768
2.03243
1.98344
1.93677
1.89815
1.86936
1.85105
1.84386
1.84469
1.85164
1.86297
1.87673
1.8911
1.90941
1.9313
1.93253
1.89772
1.7981
1.615
1.48302
1.54013
1.78848
2.05384
2.13325
2.15642
2.19814
2.22858
2.24265
2.25052
2.24262
2.22137
2.18322
2.13335
2.07595
2.01864
1.96687
1.92428
1.89163
1.8683
1.85361
1.84691
1.84655
1.85257
1.86274
1.87629
1.89262
1.90934
1.92595
1.94521
1.9684
1.98646
2.01262
2.02075
1.975
1.93368
1.89975
1.8744
1.85756
1.84961
1.8482
1.8531
1.86281
1.87522
1.88987
1.90824
1.92858
1.94664
1.95676
1.96155
1.95058
1.938
1.9766
2.04189
2.10726
2.16489
2.17465
2.21344
2.23262
2.24444
2.24423
2.22915
2.19876
2.15605
2.10492
2.05266
2.00412
1.96273
1.92951
1.90416
1.88526
1.8722
1.86503
1.86321
1.8661
1.87336
1.88522
1.90002
1.91674
1.93466
1.95463
1.97902
2.00215
2.02808
2.00784
1.96895
1.93485
1.90743
1.88619
1.87122
1.86269
1.86018
1.86278
1.86983
1.88096
1.89492
1.91186
1.93018
1.94875
1.96698
1.98678
2.00779
2.03126
2.06204
2.09742
2.1364
2.16566
2.18852
2.21386
2.22826
2.23229
2.22303
2.1999
2.16431
2.12063
2.07484
2.03144
1.99396
1.96316
1.9389
1.91974
1.90497
1.89382
1.88684
1.88379
1.88457
1.88961
1.89862
1.91119
1.92636
1.94417
1.96448
1.98798
2.01115
2.03732
1.99719
1.96669
1.94078
1.91947
1.90264
1.8898
1.88172
1.87799
1.87841
1.88306
1.89145
1.90349
1.91855
1.93585
1.95509
1.97601
1.99989
2.02514
2.05264
2.08248
2.11362
2.14425
2.16649
2.18887
2.20446
2.21036
2.20539
2.18839
2.15998
2.12402
2.08524
2.04803
2.01548
1.98864
1.96712
1.94992
1.93593
1.92458
1.91546
1.90896
1.90544
1.90507
1.90807
1.91487
1.92487
1.93834
1.95458
1.97379
1.99588
2.01807
2.04301
1.99058
1.96844
1.94964
1.93386
1.92093
1.91058
1.90324
1.89921
1.89849
1.9012
1.90753
1.91747
1.93045
1.94652
1.96539
1.98681
2.01118
2.0364
2.06302
2.09018
2.11708
2.14118
2.16049
2.17509
2.18181
2.17946
2.16757
2.14583
2.11738
2.08575
2.05499
2.02778
2.00528
1.98717
1.9727
1.96078
1.95075
1.9421
1.93478
1.9291
1.92542
1.92425
1.9258
1.9305
1.93827
1.94937
1.96346
1.98058
2.0002
2.02078
2.04293
1.988
1.97279
1.95967
1.94845
1.93879
1.93079
1.9247
1.92098
1.91979
1.92142
1.92622
1.93431
1.94555
1.95997
1.97747
1.9977
2.01998
2.04279
2.06632
2.08901
2.11163
2.13008
2.1424
2.14895
2.14868
2.14092
2.12508
2.10364
2.07896
2.05448
2.03256
2.01425
1.99964
1.98795
1.9784
1.97026
1.963
1.95638
1.95048
1.9455
1.94175
1.93994
1.94011
1.94289
1.94831
1.95672
1.96808
1.98236
1.99898
2.01686
2.03589
1.98832
1.97824
1.96946
1.96166
1.95475
1.94881
1.94413
1.94108
1.93996
1.94118
1.94491
1.95146
1.96092
1.97334
1.98839
2.00579
2.02457
2.04376
2.06302
2.08084
2.09771
2.10931
2.11539
2.11628
2.11188
2.10115
2.08583
2.0676
2.04902
2.03203
2.01767
2.00615
1.99703
1.98963
1.98334
1.97763
1.9722
1.96695
1.9619
1.95728
1.95338
1.95059
1.94936
1.95004
1.95296
1.95833
1.96655
1.97742
1.99089
2.00572
2.02156
1.99011
1.98371
1.97797
1.97273
1.96796
1.96377
1.96039
1.95818
1.95743
1.95844
1.9614
1.9667
1.97435
1.9844
1.99651
2.01042
2.02489
2.03986
2.05419
2.06707
2.07791
2.0837
2.08562
2.08353
2.07706
2.06681
2.0542
2.04083
2.02828
2.01746
2.00866
2.00169
1.9961
1.99133
1.98699
1.98273
1.97836
1.97379
1.96904
1.96428
1.95976
1.95579
1.95273
1.9511
1.95105
1.95339
1.95794
1.9653
1.97559
1.98774
2.00119
1.99242
1.98846
1.98482
1.98141
1.97824
1.97543
1.97315
1.97171
1.97135
1.97223
1.97464
1.97874
1.98465
1.99227
2.00137
2.01155
2.0221
2.03266
2.04238
2.05105
2.0566
2.05889
2.05855
2.05517
2.04892
2.04082
2.0318
2.02302
2.01523
2.00876
2.00356
1.9994
1.99582
1.99255
1.98925
1.98569
1.98172
1.97723
1.97224
1.96683
1.96114
1.95556
1.95038
1.94606
1.94284
1.94147
1.94248
1.9463
1.95324
1.96397
1.9761
1.99461
1.99221
1.98997
1.98783
1.98582
1.98403
1.98259
1.98178
1.98166
1.98246
1.98433
1.98739
1.99169
1.99711
2.00349
2.01042
2.01757
2.02447
2.03049
2.03549
2.03788
2.03838
2.03706
2.03371
2.0289
2.02327
2.01749
2.01217
2.00761
2.00385
2.00081
1.99815
1.99568
1.99312
1.99023
1.9868
1.98269
1.97778
1.97203
1.96545
1.95821
1.95046
1.94269
1.93538
1.92906
1.9237
1.92083
1.92105
1.92536
1.93445
1.94738
1.99638
1.99498
1.99364
1.99234
1.99112
1.99004
1.9892
1.98879
1.98884
1.98952
1.99089
1.99306
1.99601
1.99964
2.00383
2.00826
2.01274
2.0169
2.02035
2.02275
2.02357
2.02333
2.02185
2.01927
2.01602
2.01248
2.00906
2.00599
2.00338
2.0012
1.99925
1.99739
1.99539
1.99303
1.99011
1.98642
1.98177
1.97601
1.96904
1.96084
1.95152
1.94133
1.93062
1.92006
1.91031
1.90184
1.8943
1.89077
1.89198
1.89991
1.91498
1.99769
1.99689
1.99612
1.99536
1.99465
1.99403
1.99358
1.99341
1.99354
1.99405
1.99502
1.99647
1.99837
2.00067
2.00325
2.00592
2.00853
2.01084
2.01267
2.01361
2.01379
2.01332
2.01212
2.0104
2.00839
2.00632
2.00437
2.00264
2.00112
1.99972
1.99832
1.99676
1.99485
1.99238
1.98913
1.98487
1.97937
1.97242
1.96387
1.95368
1.94192
1.92891
1.91499
1.90108
1.88801
1.87643
1.86526
1.85628
1.85342
1.85992
1.87841
1.99859
1.99815
1.99771
1.99729
1.99689
1.99656
1.99634
1.99629
1.99643
1.9968
1.99744
1.99836
1.99952
2.0009
2.00239
2.00392
2.00534
2.00652
2.00738
2.00769
2.00764
2.00719
2.00637
2.00532
2.00416
2.00299
2.00189
2.00087
1.99989
1.99886
1.99766
1.99613
1.99408
1.99129
1.98752
1.98248
1.9759
1.9675
1.9571
1.94463
1.93014
1.91408
1.89682
1.87926
1.8629
1.84852
1.83496
1.81949
1.80908
1.81094
1.83471
1.99918
1.99893
1.9987
1.99847
1.99826
1.99809
1.998
1.998
1.99811
1.99836
1.99876
1.99932
2
2.00078
2.0016
2.00241
2.00315
2.00372
2.00406
2.00414
2.00403
2.0037
2.00319
2.00258
2.00192
2.00126
2.0006
1.99994
1.99919
1.99829
1.99709
1.99543
1.99312
1.98989
1.98546
1.9795
1.97168
1.96165
1.9492
1.93419
1.91674
1.89733
1.87656
1.85544
1.83546
1.81816
1.80219
1.7818
1.75976
1.7474
1.78292
1.99953
1.99941
1.99928
1.99917
1.99906
1.99898
1.99895
1.99896
1.99905
1.9992
1.99944
1.99976
2.00013
2.00056
2.00099
2.0014
2.00176
2.00202
2.00213
2.00214
2.00203
2.00181
2.00152
2.00117
2.00079
2.00038
1.99994
1.99942
1.99876
1.99785
1.99655
1.99469
1.99204
1.9883
1.98314
1.97618
1.96701
1.95524
1.94059
1.92289
1.90229
1.87927
1.85475
1.82975
1.806
1.78566
1.7703
1.75132
1.71712
1.64869
1.63668
1.00025
1.00022
1.00017
1.00013
1.00008
1.00003
0.999988
0.999952
0.999923
0.999902
0.999888
0.999882
0.999882
0.999887
0.999896
0.999907
0.99992
0.999934
0.999948
0.999963
0.999978
0.999995
1.00001
1.00003
1.00005
1.00008
1.00014
1.00013
1.0001
1.00008
1.00005
1.00003
1.00001
0.999986
0.999971
0.999961
0.999954
0.999952
0.999953
0.999956
0.999961
0.999967
0.999973
0.999979
0.999984
0.999989
0.999994
1
1.00001
1.00001
1.00002
1.00003
1.00007
1.00006
1.00006
1.00005
1.00004
1.00003
1.00002
1.00001
1.00001
1.00001
1.00001
1.00001
1.00001
1.00002
1.00002
1.00002
1.00002
1.00002
1.00002
1.00002
1.00001
1.00001
1
1
1
1
1.00002
1.00002
1.00002
1.00002
1.00003
1.00003
1.00003
1.00004
1.00005
1.00005
1.00006
1.00007
1.00008
1.00008
1.00008
1.00008
1.00008
1.00007
1.00006
1.00004
1.00003
1.00001
0.999999
0.999987
0.999976
0.999969
0.999976
0.999986
0.999997
1.00001
1.00002
1.00004
1.00006
1.00008
1.0001
1.00012
1.00014
1.00016
1.00017
1.00018
1.00018
1.00017
1.00016
1.00014
1.00011
1.00008
1.00005
1.00002
0.999991
0.999965
0.999944
0.999927
0.999929
0.999949
0.999974
1
1.00003
1.00007
1.00011
1.00015
1.00019
1.00023
1.00026
1.00029
1.00031
1.00032
1.00032
1.0003
1.00027
1.00023
1.00019
1.00013
1.00008
1.00002
0.999973
0.999927
0.99989
0.99986
0.999867
0.999905
0.999951
1
1.00006
1.00013
1.0002
1.00027
1.00034
1.00041
1.00046
1.00051
1.00054
1.00055
1.00054
1.00051
1.00045
1.00038
1.0003
1.00021
1.00011
1.00002
0.999933
0.999858
0.999797
0.99975
0.99978
0.999847
0.999927
1.00002
1.00012
1.00023
1.00035
1.00048
1.00059
1.0007
1.0008
1.00087
1.00091
1.00092
1.00089
1.00082
1.00073
1.0006
1.00046
1.0003
1.00014
0.99999
0.999853
0.999735
0.999639
0.999568
0.999655
0.99977
0.999906
1.00006
1.00024
1.00042
1.00062
1.00082
1.00102
1.00119
1.00134
1.00144
1.00149
1.00149
1.00143
1.00131
1.00113
1.00091
1.00067
1.00041
1.00016
0.999919
0.999704
0.999522
0.999378
0.999273
0.999477
0.99967
0.999897
1.00016
1.00045
1.00076
1.00108
1.0014
1.00171
1.00198
1.0022
1.00234
1.0024
1.00237
1.00225
1.00201
1.00171
1.00135
1.00095
1.00054
1.00014
0.999769
0.999441
0.999168
0.998956
0.998806
0.999231
0.999549
0.999922
1.00035
1.00081
1.00132
1.00183
1.00234
1.00282
1.00322
1.00353
1.00371
1.00376
1.00367
1.00342
1.00301
1.00251
1.00192
1.00129
1.00066
1.00004
0.999483
0.998996
0.998598
0.998294
0.99809
0.998907
0.999421
1.00002
1.0007
1.00144
1.00223
1.00304
1.00381
1.00452
1.00511
1.00552
1.00573
1.00574
1.00552
1.00505
1.00437
1.00355
1.00264
1.00167
1.00071
0.999797
0.998978
0.998276
0.997711
0.997291
0.997016
0.9985
0.999315
1.00026
1.00132
1.00248
1.00369
1.00491
1.00606
1.00707
1.00787
1.00839
1.0086
1.00848
1.00805
1.0072
1.00612
1.00485
1.00346
1.00202
1.00062
0.999302
0.99814
0.997157
0.996379
0.995814
0.995456
0.998027
0.99929
1.00075
1.00237
1.00412
1.00593
1.0077
1.00935
1.01073
1.01177
1.01236
1.01247
1.01214
1.01126
1.00992
1.00823
1.00633
1.00429
1.00224
1.00025
0.998423
0.996823
0.99549
0.994451
0.993712
0.993262
0.997531
0.999444
1.00163
1.00406
1.00663
1.00924
1.01174
1.01397
1.01576
1.01699
1.01753
1.01746
1.01669
1.01519
1.01307
1.0106
1.00787
1.005
1.00217
0.999454
0.996993
0.994861
0.993107
0.991758
0.990818
0.99028
0.997103
0.999933
1.00315
1.00665
1.01031
1.01392
1.01727
1.02013
1.02229
1.02358
1.02396
1.02343
1.02198
1.01958
1.01648
1.01298
1.00922
1.00535
1.00161
0.998007
0.994818
0.992075
0.989833
0.988145
0.986987
0.986335
0.996893
1.00097
1.00554
1.01043
1.01542
1.02019
1.02446
1.02789
1.03024
1.03138
1.03132
1.03012
1.02765
1.02398
1.01975
1.01503
1.01007
1.00507
1.00025
0.995716
0.991717
0.9883
0.985536
0.983462
0.982068
0.981319
0.997114
1.00281
1.00908
1.01566
1.02213
1.02813
1.03317
1.03697
1.03925
1.03994
1.03917
1.0368
1.0329
1.02813
1.02237
1.01629
1.01002
1.00385
0.997886
0.992376
0.987538
0.983431
0.980121
0.977638
0.975996
0.975161
0.998031
1.00572
1.014
1.02241
1.03039
1.03743
1.04303
1.0468
1.0486
1.0485
1.04664
1.04276
1.03747
1.03089
1.02378
1.01629
1.00867
1.00136
0.994249
0.987837
0.982211
0.977431
0.973583
0.970688
0.968791
0.967871
0.999948
1.00991
1.02035
1.03054
1.03983
1.04755
1.05321
1.05649
1.05743
1.05618
1.05271
1.04736
1.04001
1.03216
1.02344
1.01464
1.0057
0.99737
0.989226
0.982039
0.975741
0.970389
0.966027
0.962729
0.960568
0.959586
1.00308
1.01543
1.02791
1.03958
1.04971
1.0576
1.0627
1.06507
1.06486
1.06205
1.0568
1.04937
1.04061
1.03117
1.02111
1.01095
1.0009
0.991724
0.982762
0.975028
0.968258
0.962473
0.957695
0.954043
0.951586
0.950525
1.00753
1.02208
1.03617
1.04879
1.05913
1.06638
1.07068
1.07166
1.06984
1.06528
1.0582
1.04943
1.03893
1.02767
1.01646
1.00518
0.994197
0.984355
0.974858
0.966937
0.959945
0.953969
0.948872
0.944947
0.942246
0.941096
1.01316
1.02935
1.04438
1.05715
1.06694
1.07335
1.07604
1.07578
1.07233
1.0662
1.05728
1.04608
1.03479
1.02206
1.00985
0.99739
0.985615
0.975264
0.9656
0.957788
0.951094
0.945114
0.939948
0.935847
0.933047
0.931886
1.01946
1.0365
1.05153
1.0638
1.0725
1.0775
1.07895
1.07709
1.07218
1.06405
1.05397
1.04192
1.02876
1.01373
1.00116
0.987664
0.974912
0.964378
0.954695
0.947783
0.941713
0.936177
0.931212
0.927249
0.924444
0.923616
1.02582
1.04263
1.0569
1.06807
1.07544
1.07893
1.07933
1.07643
1.06926
1.0616
1.04995
1.03365
1.02465
1.00339
0.993738
0.9791
0.963264
0.950872
0.940936
0.935882
0.931613
0.927099
0.92285
0.919486
0.917204
0.916825
1.03137
1.04702
1.06007
1.06959
1.07571
1.07833
1.07777
1.07357
1.06713
1.05892
1.04045
1.03588
1.03037
1.00236
0.991401
0.987207
0.962029
0.941286
0.93105
0.924214
0.921222
0.918153
0.91541
0.912828
0.911938
0.91234
1.03546
1.0494
1.06065
1.06901
1.07378
1.07601
1.07508
1.07081
1.06496
1.06036
1.04207
1.07955
1.08568
1.05193
1.0477
1.16917
1.13631
1.00227
0.928371
0.910997
0.908491
0.90794
0.907614
0.908262
0.908648
0.910186
1.03767
1.04958
1.05924
1.06641
1.07067
1.0727
1.07219
1.0679
1.07743
1.06825
1.08783
1.3592
1.38957
1.23658
1.46725
1.82724
1.68421
1.30155
1.01627
0.923845
0.89948
0.898323
0.899732
0.903471
0.907349
0.911235
1.03793
1.04803
1.05609
1.06262
1.0673
1.06955
1.07019
1.07369
1.13839
1.13641
1.31963
1.99268
1.92688
1.9038
1.93839
1.89794
1.82028
1.67823
1.36574
1.17405
0.966147
0.903038
0.896576
0.901285
0.907127
0.914297
1.03642
1.04498
1.05233
1.05834
1.0646
1.06819
1.07756
1.15142
1.40128
1.44087
2.0897
2.05756
2.02513
2.00347
1.97429
1.9223
1.87321
1.81617
1.76468
1.62707
1.28307
0.967278
0.908125
0.9064
0.909716
0.91749
1.03358
1.04157
1.0484
1.05394
1.06446
1.07139
1.14822
1.6377
2.04353
2.03559
2.10763
2.07893
2.05671
2.02182
1.98151
1.93467
1.88882
1.84238
1.80576
1.76204
1.65013
1.31116
0.95645
0.921589
0.91909
0.922537
1.02931
1.03971
1.04569
1.05075
1.08302
1.11248
1.69606
2.12365
2.12015
2.13081
2.13305
2.10416
2.08139
2.03806
1.99101
1.93808
1.88775
1.84723
1.81086
1.79035
1.77209
1.72314
1.52321
1.22709
0.946125
0.931503
1.02402
1.05942
1.04941
1.05989
1.22329
1.70333
2.09545
2.15709
2.15779
2.16091
2.15734
2.12951
2.09741
2.04946
1.99401
1.93492
1.87995
1.83616
1.80263
1.78507
1.7806
1.78025
1.76189
1.64291
1.29203
0.926526
1.05089
1.19571
1.19091
1.6772
1.88964
2.01879
2.15451
2.17523
2.18313
2.18372
2.17401
2.14602
2.10552
2.05121
1.98911
1.92576
1.8698
1.82542
1.79431
1.77926
1.77581
1.78034
1.78524
1.75777
1.63281
1.27715
1.80466
1.80826
1.79621
2.00235
2.07555
2.12818
2.17909
2.19014
2.20151
2.19772
2.18319
2.15007
2.10204
2.04285
1.97817
1.91653
1.86301
1.8218
1.79237
1.77758
1.77431
1.77961
1.78924
1.79503
1.77593
1.68255
1.99356
2.01469
2.03602
2.08942
2.13987
2.16134
2.19347
2.20427
2.21054
2.20154
2.1794
2.13974
2.08747
2.02718
1.9664
1.91057
1.86404
1.82746
1.8016
1.78603
1.78107
1.7844
1.79475
1.80616
1.81809
1.81772
2.04111
2.06296
2.08633
2.12591
2.15603
2.1802
2.19956
2.20808
2.20663
2.19149
2.16114
2.11769
2.06502
2.00997
1.95718
1.91136
1.87291
1.84218
1.81918
1.80405
1.79792
1.7987
1.80701
1.81982
1.83386
1.84972
2.05369
2.07859
2.10827
2.13992
2.16311
2.18382
2.19582
2.19782
2.18878
2.16648
2.13181
2.08841
2.04135
1.99534
1.95379
1.91798
1.88806
1.86332
1.84341
1.82918
1.82106
1.81954
1.82373
1.83217
1.84522
1.85918
2.06315
2.08925
2.11718
2.14148
2.16191
2.17485
2.17908
2.17383
2.1581
2.13169
2.09761
2.05942
2.02128
1.98629
1.95551
1.92926
1.90665
1.8873
1.87081
1.858
1.84965
1.84596
1.84701
1.85277
1.86197
1.87467
2.06754
2.09216
2.1149
2.13474
2.1474
2.15287