/*--------------------------------*- C++ -*----------------------------------*\
  =========                 |
  \\      /  F ield         | OpenFOAM: The Open Source CFD Toolbox
   \\    /   O peration     | Website:  https://openfoam.org
    \\  /    A nd           | Version:  10
     \\/     M anipulation  |
\*---------------------------------------------------------------------------*/
FoamFile
{
    format      ascii;
    class       volScalarField;
    location    "0.0489448";
    object      T;
}
// * * * * * * * * * * * * * * * * * * * * * * * * * * * * * * * * * * * * * //

dimensions      [0 0 0 1 0 0 0];

internalField   nonuniform List<scalar> 
15708
(
0.008711
0.008711
0.008711
0.008711
0.008711
0.008711
0.008711
0.008711
0.008711
0.008711
0.008711
0.008711
0.008711
0.008711
0.008711
0.00871099
0.00871099
0.00871099
0.008711
0.008711
0.008711
0.008711
0.008711
0.008711
0.00871101
0.00871101
0.00871101
0.00871102
0.00871102
0.00871103
0.00871103
0.00871104
0.00871104
0.00871105
0.00871106
0.00871108
0.0087111
0.00871113
0.00871116
0.00871121
0.00871127
0.00871133
0.00871141
0.0087115
0.00871159
0.00871167
0.00871174
0.00871179
0.00871182
0.00871181
0.00871178
0.00871101
0.00871101
0.00871101
0.00871101
0.00871101
0.00871101
0.00871101
0.00871101
0.008711
0.008711
0.008711
0.008711
0.00871099
0.00871099
0.00871099
0.00871099
0.00871099
0.00871099
0.00871099
0.00871099
0.008711
0.008711
0.008711
0.00871101
0.00871101
0.00871102
0.00871102
0.00871103
0.00871104
0.00871104
0.00871105
0.00871106
0.00871107
0.00871107
0.00871108
0.00871108
0.00871109
0.0087111
0.00871112
0.00871113
0.00871116
0.00871119
0.00871122
0.00871127
0.00871131
0.00871135
0.00871139
0.00871142
0.00871144
0.00871144
0.00871143
0.00871103
0.00871103
0.00871103
0.00871103
0.00871103
0.00871102
0.00871102
0.00871101
0.00871101
0.008711
0.008711
0.00871099
0.00871099
0.00871098
0.00871098
0.00871098
0.00871098
0.00871098
0.00871098
0.00871099
0.00871099
0.008711
0.008711
0.00871101
0.00871102
0.00871103
0.00871104
0.00871106
0.00871107
0.00871108
0.00871109
0.0087111
0.00871111
0.00871112
0.00871112
0.00871112
0.00871112
0.00871112
0.00871111
0.00871111
0.00871111
0.00871111
0.00871112
0.00871113
0.00871114
0.00871116
0.00871118
0.00871119
0.0087112
0.00871121
0.0087112
0.00871105
0.00871105
0.00871105
0.00871105
0.00871105
0.00871104
0.00871103
0.00871102
0.00871101
0.008711
0.00871099
0.00871098
0.00871098
0.00871097
0.00871097
0.00871097
0.00871097
0.00871097
0.00871097
0.00871098
0.00871099
0.008711
0.00871101
0.00871103
0.00871104
0.00871106
0.00871108
0.00871111
0.00871113
0.00871115
0.00871117
0.00871119
0.0087112
0.00871121
0.00871121
0.0087112
0.00871119
0.00871117
0.00871115
0.00871112
0.00871109
0.00871107
0.00871105
0.00871104
0.00871103
0.00871102
0.00871102
0.00871103
0.00871103
0.00871104
0.00871105
0.0087111
0.0087111
0.0087111
0.00871109
0.00871108
0.00871107
0.00871105
0.00871104
0.00871102
0.008711
0.00871098
0.00871097
0.00871095
0.00871094
0.00871094
0.00871094
0.00871094
0.00871094
0.00871095
0.00871096
0.00871098
0.008711
0.00871102
0.00871105
0.00871108
0.00871112
0.00871116
0.0087112
0.00871124
0.00871128
0.00871132
0.00871135
0.00871137
0.00871137
0.00871136
0.00871135
0.00871132
0.00871127
0.00871122
0.00871116
0.0087111
0.00871105
0.008711
0.00871095
0.00871092
0.00871089
0.00871088
0.00871088
0.00871088
0.00871089
0.00871091
0.00871118
0.00871118
0.00871118
0.00871117
0.00871115
0.00871112
0.00871109
0.00871106
0.00871102
0.00871099
0.00871096
0.00871093
0.00871091
0.0087109
0.00871089
0.00871088
0.00871089
0.00871089
0.00871091
0.00871093
0.00871096
0.008711
0.00871105
0.0087111
0.00871116
0.00871122
0.0087113
0.00871137
0.00871145
0.00871151
0.00871158
0.00871162
0.00871165
0.00871165
0.00871164
0.00871161
0.00871154
0.00871145
0.00871135
0.00871124
0.00871113
0.00871103
0.00871093
0.00871085
0.00871078
0.00871073
0.0087107
0.00871069
0.00871069
0.00871071
0.00871075
0.00871133
0.00871133
0.00871132
0.0087113
0.00871126
0.00871121
0.00871115
0.00871109
0.00871103
0.00871097
0.00871092
0.00871087
0.00871083
0.00871081
0.00871079
0.00871079
0.0087108
0.00871082
0.00871085
0.00871089
0.00871095
0.00871101
0.00871109
0.00871119
0.00871129
0.00871141
0.00871154
0.00871167
0.00871181
0.00871192
0.00871203
0.0087121
0.00871214
0.00871213
0.0087121
0.00871203
0.0087119
0.00871174
0.00871156
0.00871136
0.00871117
0.00871098
0.00871081
0.00871067
0.00871056
0.00871048
0.00871043
0.00871041
0.00871042
0.00871046
0.00871052
0.00871159
0.00871158
0.00871156
0.00871151
0.00871143
0.00871134
0.00871124
0.00871113
0.00871102
0.00871092
0.00871083
0.00871075
0.00871069
0.00871065
0.00871063
0.00871063
0.00871065
0.00871069
0.00871074
0.00871082
0.00871092
0.00871104
0.00871119
0.00871135
0.00871155
0.00871176
0.00871198
0.00871221
0.00871243
0.00871263
0.0087128
0.00871292
0.00871297
0.00871294
0.00871287
0.00871271
0.00871247
0.00871218
0.00871186
0.00871153
0.00871119
0.00871088
0.0087106
0.00871037
0.00871019
0.00871006
0.00870999
0.00870997
0.00870999
0.00871006
0.00871019
0.00871203
0.008712
0.00871196
0.00871186
0.00871172
0.00871156
0.00871137
0.00871118
0.008711
0.00871082
0.00871067
0.00871054
0.00871045
0.00871039
0.00871036
0.00871037
0.0087104
0.00871047
0.00871058
0.00871072
0.00871089
0.00871111
0.00871136
0.00871166
0.00871199
0.00871236
0.00871274
0.00871314
0.00871351
0.00871384
0.0087141
0.00871427
0.00871432
0.00871426
0.0087141
0.00871379
0.00871336
0.00871286
0.00871231
0.00871174
0.00871118
0.00871067
0.00871022
0.00870985
0.00870956
0.00870937
0.00870927
0.00870927
0.00870931
0.00870945
0.00870967
0.00871276
0.00871271
0.00871261
0.00871241
0.00871216
0.00871187
0.00871156
0.00871123
0.00871092
0.00871063
0.00871038
0.00871018
0.00871003
0.00870993
0.00870991
0.00870992
0.00870999
0.00871013
0.00871032
0.00871057
0.00871088
0.00871125
0.00871169
0.0087122
0.00871278
0.0087134
0.00871405
0.00871471
0.00871531
0.00871584
0.00871624
0.00871648
0.00871649
0.00871634
0.00871604
0.00871543
0.00871469
0.00871383
0.00871291
0.00871197
0.00871108
0.00871026
0.00870954
0.00870897
0.00870854
0.00870826
0.00870813
0.00870814
0.00870825
0.00870852
0.00870889
0.00871394
0.00871384
0.00871364
0.00871327
0.00871283
0.00871233
0.00871179
0.00871124
0.00871074
0.00871027
0.00870987
0.00870955
0.00870933
0.00870919
0.00870917
0.00870921
0.00870934
0.00870959
0.00870992
0.00871035
0.00871089
0.00871153
0.00871229
0.00871316
0.00871412
0.00871516
0.00871624
0.00871731
0.00871827
0.00871908
0.00871966
0.00871997
0.00871986
0.00871954
0.00871898
0.00871788
0.00871661
0.00871518
0.00871368
0.00871215
0.00871076
0.00870947
0.00870838
0.00870752
0.00870688
0.00870648
0.00870635
0.0087064
0.00870662
0.0087071
0.00870774
0.00871582
0.00871563
0.0087152
0.00871456
0.0087138
0.00871295
0.00871206
0.00871117
0.00871035
0.00870961
0.00870899
0.00870851
0.00870818
0.00870799
0.00870799
0.00870808
0.00870834
0.00870877
0.00870935
0.00871008
0.00871099
0.00871207
0.00871334
0.00871479
0.00871638
0.00871809
0.00871983
0.00872151
0.00872299
0.00872419
0.00872499
0.00872527
0.00872505
0.00872436
0.00872319
0.00872137
0.00871925
0.00871694
0.00871455
0.0087122
0.00871004
0.0087081
0.00870647
0.0087052
0.0087043
0.00870377
0.00870364
0.00870378
0.0087042
0.00870502
0.0087061
0.00871869
0.00871832
0.00871753
0.00871642
0.00871514
0.00871375
0.00871231
0.00871092
0.00870963
0.00870849
0.00870754
0.00870683
0.00870635
0.00870613
0.00870615
0.00870634
0.00870683
0.00870756
0.00870853
0.00870976
0.00871127
0.00871306
0.00871515
0.00871751
0.00872009
0.00872281
0.00872555
0.0087281
0.00873031
0.008732
0.00873302
0.00873315
0.00873251
0.00873132
0.0087291
0.00872612
0.00872273
0.00871912
0.00871542
0.00871189
0.00870865
0.00870579
0.00870344
0.00870163
0.00870038
0.00869969
0.00869964
0.00869992
0.00870071
0.00870206
0.00870381
0.00872299
0.00872224
0.00872082
0.00871899
0.0087169
0.00871469
0.00871242
0.00871029
0.00870832
0.00870661
0.00870523
0.0087042
0.00870354
0.00870329
0.00870338
0.00870374
0.00870462
0.00870584
0.00870744
0.00870945
0.00871191
0.00871481
0.00871817
0.00872193
0.008726
0.00873021
0.00873439
0.00873812
0.00874127
0.00874349
0.00874467
0.00874424
0.00874321
0.00874067
0.00873696
0.00873226
0.00872703
0.00872157
0.00871602
0.00871094
0.0087062
0.00870212
0.0086988
0.00869631
0.00869465
0.00869383
0.00869386
0.00869442
0.00869582
0.00869798
0.00870076
0.0087291
0.00872784
0.00872529
0.00872234
0.00871907
0.00871566
0.00871219
0.00870904
0.00870611
0.00870363
0.00870164
0.00870021
0.00869932
0.0086991
0.00869932
0.00870001
0.00870147
0.00870345
0.00870604
0.00870926
0.00871318
0.00871778
0.00872306
0.00872891
0.00873514
0.00874148
0.00874752
0.0087528
0.00875701
0.00875972
0.00876052
0.0087598
0.00875688
0.008753
0.00874691
0.00873973
0.00873194
0.00872396
0.00871601
0.0087088
0.00870217
0.00869653
0.008692
0.00868868
0.00868648
0.00868565
0.00868584
0.00868682
0.00868922
0.00869257
0.00869688
0.00873747
0.00873505
0.00873104
0.00872646
0.0087215
0.00871638
0.00871135
0.00870674
0.00870256
0.00869904
0.0086963
0.00869434
0.00869324
0.0086931
0.00869355
0.00869478
0.00869714
0.0087003
0.00870438
0.00870943
0.00871552
0.00872266
0.00873074
0.00873956
0.00874875
0.00875794
0.00876626
0.00877337
0.00877853
0.00878148
0.00878137
0.00877904
0.00877515
0.00876755
0.00875855
0.0087481
0.00873702
0.00872571
0.00871486
0.00870491
0.00869595
0.00868842
0.00868244
0.00867808
0.00867541
0.00867458
0.00867505
0.00867681
0.00868056
0.00868567
0.00869221
0.00874839
0.00874407
0.00873797
0.00873113
0.00872389
0.00871646
0.00870942
0.00870289
0.0086971
0.00869231
0.00868861
0.00868606
0.00868474
0.00868476
0.00868562
0.00868775
0.00869143
0.00869633
0.00870261
0.00871036
0.00871962
0.00873034
0.00874232
0.00875515
0.00876825
0.0087808
0.00879181
0.00880055
0.00880649
0.00880857
0.00880714
0.00880331
0.00879493
0.0087844
0.00877118
0.00875654
0.00874149
0.00872603
0.00871198
0.00869864
0.00868694
0.00867718
0.00866952
0.00866404
0.00866086
0.00866015
0.00866111
0.00866401
0.0086697
0.00867729
0.00868697
0.00876194
0.00875447
0.00874561
0.00873581
0.00872567
0.00871528
0.00870581
0.00869688
0.00868914
0.00868279
0.00867798
0.00867475
0.00867333
0.00867358
0.0086751
0.00867861
0.00868421
0.00869162
0.00870105
0.00871261
0.0087263
0.00874193
0.00875907
0.00877697
0.00879482
0.00881082
0.00882456
0.00883458
0.00884016
0.00884035
0.00883741
0.00882881
0.00881695
0.0088014
0.00878345
0.0087639
0.00874414
0.00872413
0.00870624
0.00868931
0.00867458
0.00866234
0.00865286
0.00864618
0.00864246
0.00864219
0.00864373
0.00864834
0.00865669
0.00866768
0.00868165
0.00877577
0.0087656
0.00875319
0.00873974
0.00872599
0.00871221
0.00869973
0.00868807
0.00867808
0.00866994
0.00866388
0.00865994
0.00865858
0.00865912
0.00866177
0.00866722
0.00867551
0.00868644
0.00870024
0.00871701
0.0087366
0.00875857
0.00878208
0.00880601
0.00882846
0.00884838
0.00886369
0.00887385
0.00887751
0.00887514
0.00886808
0.0088559
0.00883771
0.00881689
0.00879343
0.00876863
0.00874349
0.00871924
0.00869697
0.00867638
0.00865853
0.00864373
0.00863234
0.00862451
0.00862037
0.00862056
0.00862311
0.0086301
0.00864194
0.00865747
0.00867705
0.00879072
0.00877568
0.00875925
0.00874171
0.00872377
0.00870647
0.00869053
0.0086759
0.00866342
0.00865335
0.00864602
0.0086413
0.00864025
0.00864142
0.00864532
0.00865384
0.00866569
0.00868136
0.008701
0.00872455
0.00875157
0.00878119
0.00881189
0.00884203
0.00886896
0.00889118
0.00890708
0.00891563
0.00891548
0.00891057
0.00889778
0.00887885
0.00885443
0.0088284
0.00879896
0.00876914
0.00873841
0.0087102
0.00868379
0.00865967
0.00863882
0.00862167
0.00860819
0.00859938
0.00859517
0.008596
0.00859986
0.00861006
0.00862637
0.00864771
0.00867432
0.00880168
0.00878351
0.00876231
0.00874054
0.00871797
0.00869723
0.00867764
0.00866001
0.00864498
0.0086331
0.00862415
0.00861915
0.0086185
0.00862061
0.00862653
0.00863874
0.00865543
0.00867725
0.00870432
0.00873619
0.00877198
0.00880991
0.00884816
0.00888346
0.00891375
0.00893623
0.00895115
0.00895526
0.00895224
0.00894015
0.00892049
0.00889699
0.00886532
0.00883334
0.00879839
0.00876394
0.0087277
0.00869655
0.00866647
0.00863939
0.00861604
0.00859668
0.00858179
0.00857183
0.00856797
0.00856953
0.00857557
0.0085894
0.00861149
0.00863983
0.00867491
0.00880903
0.00878628
0.00876089
0.0087347
0.00870777
0.00868377
0.00866086
0.00864034
0.00862319
0.00860929
0.00859925
0.00859391
0.00859413
0.00859743
0.00860621
0.00862311
0.00864593
0.00867536
0.00871122
0.00875269
0.00879772
0.00884416
0.00888882
0.00892747
0.00895812
0.00898069
0.00899046
0.0089894
0.00898185
0.00896265
0.00893769
0.00890496
0.00886636
0.0088291
0.0087904
0.00875133
0.00871141
0.00867789
0.00864501
0.00861624
0.0085912
0.00856981
0.00855448
0.00854383
0.00854078
0.00854349
0.008552
0.00857057
0.00859935
0.00863587
0.00868014
0.00880897
0.00878249
0.00875326
0.00872292
0.00869247
0.00866589
0.0086402
0.00861771
0.00859841
0.0085833
0.00857234
0.00856727
0.00856831
0.00857354
0.00858587
0.00860864
0.00863876
0.00867722
0.00872293
0.00877422
0.00882831
0.00888168
0.00892967
0.00896977
0.00900003
0.00901705
0.00902213
0.00901813
0.00900114
0.00897359
0.00893928
0.00890238
0.00886097
0.00881822
0.00877518
0.00873113
0.00868877
0.0086539
0.0086203
0.00859068
0.0085656
0.00854352
0.00852832
0.0085175
0.00851618
0.00852065
0.008532
0.00855661
0.00859244
0.00863809
0.00869076
0.00880063
0.00877108
0.00873889
0.00870458
0.00867231
0.00864372
0.00861645
0.00859277
0.00857245
0.00855654
0.00854536
0.00854113
0.00854347
0.00855104
0.00856823
0.00859754
0.00863608
0.00868405
0.00873973
0.00880001
0.00886106
0.00891839
0.00896789
0.00900651
0.00903229
0.00904561
0.0090437
0.00903191
0.00900484
0.00897999
0.00893728
0.00889382
0.00884335
0.00879608
0.00875261
0.00870326
0.00866142
0.00862559
0.00859214
0.00856452
0.00853956
0.0085201
0.00850545
0.00849614
0.00849744
0.00850424
0.00851932
0.00855026
0.0085945
0.00864705
0.00870826
0.00878459
0.00875122
0.00871674
0.00867945
0.00864748
0.00861771
0.00859051
0.0085668
0.00854698
0.00853137
0.00852063
0.00851838
0.00852255
0.00853341
0.00855593
0.00859256
0.00864032
0.00869664
0.00876101
0.00882803
0.00889266
0.0089514
0.00899866
0.00903459
0.00905442
0.0090595
0.00905152
0.00903972
0.00900323
0.00898175
0.00891033
0.00888429
0.00882378
0.00876554
0.00872138
0.0086693
0.00863001
0.00859287
0.00856193
0.00853732
0.00851657
0.00850024
0.0084886
0.00848161
0.00848841
0.00849795
0.00851895
0.00855661
0.0086054
0.00866418
0.00872996
0.00876016
0.00872482
0.0086878
0.00864839
0.00861819
0.00858844
0.00856326
0.00854114
0.00852363
0.00850958
0.00850165
0.00850202
0.00850967
0.00852318
0.00855309
0.00859775
0.00865134
0.00871626
0.0087858
0.00885533
0.00892063
0.00897656
0.00901932
0.00904793
0.0090647
0.00906463
0.00905239
0.00904155
0.00897775
0.00899647
0.00885914
0.00888038
0.00874398
0.00864422
0.00861039
0.00859891
0.00858354
0.00855882
0.00853118
0.00850932
0.00849486
0.00848664
0.00847922
0.00848216
0.00848901
0.00850636
0.00852814
0.00857154
0.00862685
0.00868936
0.00875488
0.00872832
0.00869163
0.00865258
0.00861443
0.00858492
0.00855682
0.00853552
0.00851814
0.00850328
0.0084947
0.0084894
0.00849623
0.00850796
0.00852648
0.00856254
0.00861065
0.00867182
0.00873987
0.00881074
0.00887922
0.0089412
0.00899026
0.0090291
0.0090534
0.00906234
0.00906178
0.00904686
0.00902469
0.00896975
0.00898479
0.00874976
0.00881143
0.00847679
0.00804865
0.00812798
0.00822466
0.00840302
0.00846257
0.00848529
0.00848558
0.00847995
0.00847275
0.00847954
0.00848563
0.00850096
0.00852825
0.0085569
0.00860514
0.00865816
0.00871697
0.00877867
0.00861309
0.00858652
0.00858218
0.00857111
0.00855044
0.00852511
0.00850668
0.00849528
0.00848906
0.00848638
0.00849138
0.00849449
0.0085195
0.00853981
0.00858276
0.00863793
0.00869947
0.00876643
0.00883397
0.0088972
0.00895166
0.00899618
0.00902675
0.00904975
0.00905578
0.00905162
0.00904137
0.00899488
0.00893283
0.00892521
0.00836423
0.00829765
0.00706123
0.00590155
0.00595509
0.00628283
0.00739615
0.00812262
0.0084081
0.0084661
0.00848321
0.00848641
0.00848925
0.00849735
0.00852439
0.00855831
0.00858939
0.00863943
0.00869334
0.00874818
0.00880033
0.00803616
0.00810521
0.00821424
0.00839834
0.00845955
0.00847966
0.00848372
0.00848091
0.00847936
0.0084849
0.00849198
0.00851765
0.00853979
0.00857074
0.00861505
0.00866843
0.00872985
0.00879248
0.0088529
0.00890739
0.00895481
0.00899246
0.00901965
0.00903949
0.00904612
0.00904207
0.00903063
0.00886536
0.00885363
0.00851711
0.00680122
0.00664229
0.00490511
0.00437862
0.00439478
0.00452777
0.00507453
0.00577393
0.00719422
0.00809796
0.00841841
0.00847446
0.00852727
0.00853989
0.00856981
0.00860056
0.00863391
0.00867806
0.00872527
0.0087705
0.00881458
0.00586065
0.00593754
0.00628847
0.0073901
0.00807228
0.00836006
0.00845773
0.00848089
0.0084953
0.00850309
0.00851052
0.00852803
0.00857576
0.00860914
0.0086545
0.00870823
0.00876244
0.00881436
0.00886506
0.00891093
0.00895015
0.00898297
0.00900982
0.00902568
0.00903601
0.00903043
0.00894901
0.00837681
0.0083097
0.00711675
0.00457085
0.00448815
0.00439023
0.00437777
0.00432882
0.00431353
0.00431902
0.00442939
0.00497016
0.00600259
0.00771237
0.0083286
0.00848611
0.00856685
0.00859395
0.00863761
0.00867168
0.00870876
0.00875223
0.00878869
0.0088215
0.00436652
0.00436851
0.00445788
0.00482533
0.00534871
0.00595232
0.00725773
0.00813238
0.00843244
0.0084994
0.00856391
0.0085826
0.00861488
0.00865386
0.00869002
0.00873682
0.00878395
0.00883035
0.00887034
0.00890781
0.0089443
0.00897092
0.00900002
0.0090037
0.00901839
0.00895804
0.00834651
0.00685738
0.00642132
0.00451096
0.00450865
0.00446062
0.00441274
0.00439133
0.00434362
0.0043078
0.0042737
0.00427321
0.00429893
0.00448151
0.0051815
0.00628437
0.00809858
0.00849114
0.00860748
0.00867349
0.00870786
0.00872863
0.0087617
0.00879304
0.00882063
0.00436478
0.00432775
0.0042932
0.0042927
0.00430712
0.00443973
0.00497498
0.00599845
0.00774089
0.00834743
0.00851678
0.00860377
0.00864666
0.0086809
0.00871367
0.00876087
0.00880031
0.0088353
0.00886873
0.00890167
0.00893536
0.00896199
0.00898847
0.00894035
0.00896323
0.00844406
0.00593231
0.00471423
0.00471175
0.00450873
0.00450497
0.00445989
0.00443552
0.00439713
0.0043559
0.00431526
0.00427534
0.00425913
0.00425277
0.0042714
0.00436825
0.00469373
0.00581339
0.00801599
0.00846635
0.00861287
0.00868511
0.00872436
0.00875649
0.00878601
0.00881231
0.00438035
0.0043351
0.00430751
0.00427466
0.00426447
0.00426448
0.00430465
0.0044911
0.00516144
0.0062977
0.00818035
0.00853617
0.00865597
0.00871244
0.00873763
0.00876506
0.00880015
0.00883175
0.00885995
0.00889461
0.00892977
0.0089664
0.00890764
0.00859825
0.00859847
0.00577214
0.00457139
0.00459039
0.00455945
0.00451781
0.00451479
0.00447393
0.00444735
0.00440321
0.00435795
0.00431204
0.00426897
0.00424469
0.004237
0.00423537
0.00425382
0.00430684
0.00447789
0.00501843
0.00657946
0.00863008
0.00868194
0.00872085
0.00873791
0.00877011
0.00879495
0.00438654
0.00434579
0.00431459
0.00427867
0.00425763
0.004252
0.00425162
0.0042842
0.0043905
0.00473911
0.00588831
0.0080211
0.00851453
0.00866308
0.00872394
0.00875683
0.0087822
0.00881424
0.00884179
0.00888564
0.00892903
0.00891069
0.00827657
0.00729942
0.00567669
0.00462427
0.00454373
0.00455896
0.00455472
0.00453365
0.00452656
0.00449087
0.00445318
0.004404
0.00435223
0.00430159
0.00425859
0.00423036
0.00422099
0.00421918
0.00422891
0.0042524
0.00430025
0.00444155
0.0048333
0.00592747
0.0076883
0.00827588
0.00866217
0.00873515
0.00879022
0.00439072
0.00434934
0.00431118
0.00427425
0.0042484
0.00423907
0.004236
0.0042439
0.00427176
0.00433673
0.00453873
0.00515622
0.00682908
0.00857682
0.0086977
0.00873317
0.00875785
0.00878598
0.00881726
0.00887814
0.00885963
0.0078095
0.00535563
0.0048295
0.00477278
0.00453763
0.00455321
0.00455992
0.00456469
0.00455282
0.00453403
0.00449685
0.00445089
0.00439706
0.00434148
0.00429155
0.00425028
0.00422256
0.00421146
0.00420668
0.00421135
0.00422215
0.0042423
0.00427571
0.00433011
0.00449078
0.00493266
0.00600641
0.0078127
0.0077765
0.00621809
0.0043902
0.00434584
0.00430436
0.00426646
0.00423821
0.0042269
0.00422266
0.00422682
0.00424274
0.00426814
0.00432598
0.00449025
0.00494742
0.00601996
0.00689602
0.00725714
0.00775669
0.00835424
0.00872144
0.00866898
0.00757062
0.0051567
0.00463747
0.00457429
0.00456945
0.00453614
0.00456831
0.0045721
0.00457658
0.00455954
0.00453279
0.00449075
0.00443925
0.00438351
0.00433107
0.00428464
0.0042487
0.00422211
0.0042099
0.00420547
0.00420718
0.00421764
0.00423283
0.00425166
0.00427527
0.00430829
0.00436529
0.00447615
0.00466329
0.00477635
0.00461911
0.00438365
0.00433843
0.00429706
0.00426154
0.00423437
0.00422088
0.0042157
0.00421553
0.00422261
0.00423516
0.00425124
0.00427021
0.00428949
0.00430994
0.00437508
0.00449952
0.00479806
0.00542142
0.00599502
0.00592023
0.00515822
0.00459418
0.00449674
0.00453732
0.00453898
0.00455263
0.00457663
0.00457889
0.00457611
0.00455361
0.00451951
0.00447188
0.00442045
0.00436894
0.00432286
0.00428458
0.00425487
0.00423321
0.00421906
0.00421443
0.00421409
0.00421907
0.00423059
0.00424632
0.00426425
0.00428606
0.00430995
0.00433024
0.00435136
0.00438575
0.00439793
0.00437255
0.00433052
0.00429319
0.00426234
0.00423863
0.0042227
0.00421687
0.00421636
0.00422172
0.00423282
0.00424884
0.00426684
0.00428396
0.00430181
0.00432378
0.00435719
0.0044052
0.00450251
0.0046087
0.00461396
0.00454468
0.00450091
0.00446473
0.00453583
0.00453953
0.0045656
0.00457484
0.00457528
0.00456204
0.00453337
0.00449199
0.00444643
0.00439932
0.00435622
0.00431973
0.00429031
0.0042669
0.00424943
0.00423662
0.00423052
0.00422844
0.00423122
0.00423951
0.00425077
0.00426633
0.00428478
0.00430525
0.00432539
0.00434245
0.00436671
0.00438598
0.00436058
0.00432516
0.00429496
0.0042694
0.00424991
0.00423534
0.00422824
0.00422568
0.00422795
0.00423594
0.0042474
0.0042625
0.00427874
0.00429653
0.00431536
0.00433684
0.00436077
0.00439372
0.00442863
0.00445208
0.00446503
0.00447254
0.00449598
0.00453058
0.00454713
0.00456127
0.00456421
0.0045562
0.00453294
0.00449949
0.00446007
0.00441881
0.00438094
0.00434796
0.00432127
0.00429943
0.00428223
0.00426835
0.00425795
0.00425039
0.00424813
0.00424885
0.0042535
0.00426224
0.00427498
0.00429167
0.00431044
0.00432999
0.00434827
0.0043716
0.00439133
0.00435123
0.00432411
0.0043007
0.00428136
0.00426556
0.00425372
0.00424483
0.00424222
0.00424252
0.00424694
0.00425573
0.00426768
0.00428252
0.00429961
0.00431835
0.00433985
0.00436203
0.00438882
0.00441577
0.00444001
0.0044605
0.00447891
0.00450783
0.00452597
0.00454001
0.0045441
0.0045393
0.00452184
0.00449539
0.00446245
0.0044278
0.00439544
0.00436725
0.00434416
0.00432549
0.00431029
0.00429775
0.00428714
0.00427864
0.00427168
0.00426905
0.00426847
0.00427111
0.00427719
0.00428783
0.00430143
0.0043183
0.00433642
0.00435496
0.00437748
0.0043972
0.00434593
0.00432633
0.00430951
0.0042953
0.00428317
0.00427347
0.0042656
0.0042624
0.00426158
0.00426401
0.00427014
0.00427953
0.00429265
0.00430836
0.00432673
0.00434789
0.0043698
0.004395
0.00441924
0.00444185
0.00446222
0.00448248
0.00450113
0.00451299
0.00451635
0.0045149
0.00450242
0.00448238
0.0044559
0.00442787
0.00440119
0.00437797
0.00435885
0.00434351
0.00433106
0.00432076
0.00431171
0.00430381
0.004297
0.00429111
0.00428802
0.00428711
0.0042881
0.0042923
0.00430028
0.00431134
0.00432547
0.00434138
0.00435862
0.00437841
0.00439732
0.00434415
0.0043308
0.00431929
0.00430907
0.00430022
0.00429264
0.00428633
0.00428291
0.00428199
0.0042832
0.0042876
0.00429519
0.00430622
0.00432026
0.00433703
0.00435609
0.00437645
0.0043989
0.00442002
0.00444078
0.00445693
0.00447155
0.00448306
0.00448624
0.00448643
0.00447787
0.00446356
0.00444326
0.00442153
0.00440044
0.00438185
0.00436659
0.00435439
0.00434465
0.00433661
0.00432956
0.00432315
0.00431724
0.00431178
0.00430694
0.0043034
0.00430208
0.00430209
0.00430439
0.00430976
0.00431794
0.00432903
0.00434216
0.00435694
0.00437386
0.0043902
0.00434475
0.00433617
0.00432841
0.00432143
0.00431512
0.00430958
0.00430479
0.00430194
0.00430123
0.00430171
0.00430514
0.0043113
0.00432034
0.00433203
0.0043463
0.00436201
0.00437956
0.00439769
0.00441485
0.00443123
0.00444215
0.00445143
0.00445557
0.00445691
0.00445159
0.0044418
0.00442745
0.00441139
0.00439545
0.00438118
0.00436935
0.00435993
0.0043525
0.00434643
0.00434116
0.00433635
0.00433165
0.00432698
0.00432246
0.00431819
0.00431441
0.00431191
0.00431103
0.00431124
0.00431397
0.00431939
0.00432717
0.00433746
0.00434905
0.00436283
0.00437625
0.0043466
0.0043412
0.00433621
0.00433157
0.00432726
0.00432336
0.00431999
0.00431798
0.00431745
0.00431784
0.00432061
0.0043254
0.00433253
0.00434176
0.004353
0.00436502
0.00437885
0.00439214
0.00440483
0.00441599
0.00442266
0.0044274
0.00442871
0.00442649
0.00442014
0.00441089
0.00439968
0.00438831
0.00437786
0.00436902
0.00436196
0.0043564
0.00435186
0.00434805
0.00434452
0.00434096
0.00433721
0.0043332
0.00432904
0.00432474
0.00432055
0.00431679
0.0043138
0.0043125
0.00431256
0.00431448
0.00431928
0.00432623
0.00433477
0.00434588
0.00435748
0.00434872
0.00434544
0.00434232
0.00433934
0.00433653
0.00433394
0.00433168
0.00433048
0.00433011
0.00433064
0.00433273
0.00433644
0.00434172
0.00434858
0.00435666
0.00436552
0.00437518
0.00438441
0.00439308
0.00439918
0.0044032
0.00440484
0.00440444
0.00440093
0.00439547
0.00438825
0.00438063
0.00437338
0.00436708
0.00436195
0.00435788
0.00435454
0.00435179
0.0043492
0.00434654
0.00434359
0.00434022
0.00433634
0.00433192
0.004327
0.00432193
0.00431666
0.00431175
0.00430747
0.00430476
0.00430401
0.00430483
0.00430859
0.00431554
0.00432345
0.00433504
0.00435062
0.00434871
0.00434681
0.00434497
0.0043432
0.00434159
0.0043402
0.0043395
0.00433937
0.0043399
0.00434149
0.00434418
0.00434791
0.00435268
0.00435807
0.0043642
0.00437038
0.00437628
0.00438175
0.00438455
0.00438635
0.00438688
0.0043854
0.00438244
0.00437829
0.0043735
0.00436879
0.00436453
0.00436095
0.00435806
0.00435563
0.00435366
0.00435175
0.00434973
0.0043474
0.00434457
0.00434109
0.00433684
0.00433174
0.00432582
0.00431909
0.00431208
0.00430472
0.00429759
0.00429099
0.00428687
0.00428548
0.00428598
0.00429012
0.00429763
0.00430885
0.00435213
0.00435104
0.00434992
0.00434883
0.00434777
0.00434681
0.00434602
0.00434569
0.00434566
0.00434614
0.00434731
0.00434913
0.00435164
0.00435475
0.00435817
0.00436203
0.00436576
0.00436922
0.00437215
0.0043734
0.00437411
0.00437388
0.00437247
0.00437033
0.00436758
0.00436471
0.004362
0.00435962
0.00435764
0.00435592
0.00435451
0.00435309
0.00435155
0.00434969
0.00434732
0.00434425
0.0043403
0.00433529
0.00432909
0.00432165
0.00431298
0.00430336
0.00429336
0.00428321
0.00427361
0.00426497
0.00426089
0.00425965
0.00426096
0.00426788
0.00427952
0.00435321
0.00435261
0.00435197
0.00435135
0.00435074
0.00435019
0.0043498
0.00434966
0.00434968
0.00435009
0.00435088
0.00435206
0.00435364
0.00435551
0.00435763
0.00435986
0.00436199
0.00436391
0.00436516
0.00436575
0.00436596
0.00436548
0.00436446
0.00436307
0.00436144
0.00435982
0.00435833
0.00435702
0.00435586
0.00435485
0.0043538
0.00435262
0.00435114
0.00434917
0.00434651
0.00434294
0.00433822
0.00433212
0.0043245
0.00431518
0.00430424
0.00429183
0.00427895
0.00426547
0.0042525
0.0042405
0.00423299
0.00423015
0.00422941
0.00423351
0.00424636
0.00435394
0.00435361
0.00435326
0.00435292
0.00435259
0.00435229
0.00435212
0.00435206
0.00435212
0.00435241
0.00435292
0.00435365
0.00435459
0.00435566
0.00435689
0.0043581
0.00435924
0.00436024
0.00436068
0.00436093
0.00436093
0.00436051
0.00435987
0.00435903
0.00435813
0.00435725
0.00435642
0.00435567
0.00435496
0.0043542
0.00435331
0.00435214
0.00435054
0.00434829
0.00434518
0.00434093
0.00433524
0.00432785
0.00431853
0.00430711
0.0042937
0.00427828
0.00426223
0.00424581
0.0042294
0.00421411
0.0042028
0.0041971
0.00419523
0.00419359
0.00420788
0.00435439
0.00435422
0.00435403
0.00435385
0.00435368
0.00435354
0.00435346
0.00435345
0.00435352
0.00435371
0.00435401
0.00435444
0.00435497
0.00435557
0.00435622
0.00435685
0.00435742
0.00435788
0.00435805
0.00435813
0.00435804
0.00435777
0.00435738
0.00435692
0.00435642
0.00435593
0.00435546
0.00435498
0.00435445
0.00435379
0.00435289
0.00435161
0.00434978
0.00434717
0.00434349
0.00433844
0.00433165
0.00432283
0.00431163
0.00429794
0.00428182
0.00426338
0.00424371
0.00422381
0.00420416
0.00418543
0.00417209
0.00416759
0.00415762
0.00415195
0.00413806
0.00435466
0.00435458
0.00435448
0.00435439
0.00435431
0.00435424
0.00435421
0.00435421
0.00435427
0.00435438
0.00435456
0.0043548
0.00435508
0.0043554
0.00435573
0.00435605
0.00435632
0.0043565
0.00435656
0.00435658
0.00435649
0.00435633
0.00435611
0.00435585
0.00435558
0.00435529
0.00435498
0.00435461
0.00435414
0.00435346
0.00435249
0.00435104
0.00434893
0.00434589
0.00434159
0.00433567
0.00432771
0.00431735
0.0043042
0.00428818
0.00426927
0.00424786
0.00422464
0.00420179
0.00417945
0.00415762
0.00413455
0.00412044
0.00410484
0.00410074
0.00405762
0.00871172
0.00871162
0.00871149
0.00871135
0.00871121
0.00871108
0.00871095
0.00871085
0.00871076
0.0087107
0.00871067
0.00871065
0.00871066
0.00871067
0.0087107
0.00871073
0.00871077
0.00871081
0.00871085
0.0087109
0.00871094
0.00871098
0.00871103
0.00871109
0.00871115
0.00871121
0.0087114
0.00871135
0.00871129
0.00871122
0.00871114
0.00871107
0.00871101
0.00871095
0.00871091
0.00871088
0.00871086
0.00871086
0.00871086
0.00871087
0.00871089
0.00871091
0.00871092
0.00871094
0.00871096
0.00871097
0.00871098
0.008711
0.00871101
0.00871103
0.00871106
0.00871109
0.0087112
0.00871118
0.00871115
0.00871112
0.00871109
0.00871107
0.00871104
0.00871102
0.00871101
0.00871101
0.00871101
0.00871102
0.00871103
0.00871104
0.00871105
0.00871106
0.00871106
0.00871106
0.00871105
0.00871104
0.00871103
0.00871102
0.008711
0.008711
0.008711
0.008711
0.00871105
0.00871106
0.00871106
0.00871106
0.00871107
0.00871107
0.00871109
0.0087111
0.00871112
0.00871114
0.00871117
0.00871119
0.00871121
0.00871123
0.00871123
0.00871123
0.00871122
0.00871119
0.00871116