/*--------------------------------*- C++ -*----------------------------------*\
  =========                 |
  \\      /  F ield         | OpenFOAM: The Open Source CFD Toolbox
   \\    /   O peration     | Website:  https://openfoam.org
    \\  /    A nd           | Version:  10
     \\/     M anipulation  |
\*---------------------------------------------------------------------------*/
FoamFile
{
    format      ascii;
    class       volScalarField;
    location    "0.550758";
    object      p;
}
// * * * * * * * * * * * * * * * * * * * * * * * * * * * * * * * * * * * * * //

dimensions      [1 -1 -2 0 0 0 0];

internalField   nonuniform List<scalar> 
16320
(
0.450444
0.456362
0.463843
0.472323
0.482112
0.49267
0.50371
0.515363
0.527346
0.539789
0.552061
0.562865
0.572736
0.582056
0.590729
0.599186
0.607997
0.618596
0.629505
0.637862
0.642925
0.645215
0.645877
0.645928
0.645325
0.643948
0.641824
0.638655
0.634001
0.627339
0.618124
0.606029
0.591095
0.573982
0.555893
0.538341
0.522668
0.509714
0.499684
0.492317
0.487022
0.483165
0.480235
0.478055
0.476414
0.475011
0.473924
0.473255
0.472907
0.473138
0.474041
0.475525
0.477362
0.479338
0.481217
0.482785
0.483954
0.484827
0.485578
0.486114
0.486514
0.485718
0.484685
0.482911
0.481638
0.480025
0.480296
0.483699
0.492976
0.5105
0.535998
0.564337
0.585965
0.594325
0.595595
0.595656
0.595248
0.593751
0.592562
0.585978
0.574017
0.558752
0.543149
0.528209
0.513503
0.49922
0.484557
0.471188
0.458248
0.447219
0.440274
0.4383
0.442476
0.454615
0.478743
0.51541
0.553405
0.590215
0.600225
0.609042
0.614508
0.618384
0.621153
0.6235
0.624096
0.626902
0.627725
0.627292
0.623485
0.612596
0.592136
0.560332
0.529695
0.457059
0.464361
0.473093
0.482411
0.493021
0.504271
0.51585
0.527765
0.540249
0.552841
0.564905
0.575261
0.58408
0.591671
0.598862
0.605711
0.612776
0.620845
0.630336
0.638479
0.643664
0.646082
0.646748
0.646667
0.646065
0.644652
0.642472
0.639366
0.634919
0.628715
0.620281
0.609252
0.595608
0.579684
0.562474
0.545268
0.5294
0.51585
0.505049
0.496906
0.490977
0.486713
0.483613
0.481407
0.479933
0.478955
0.47839
0.478484
0.479029
0.480287
0.482136
0.484369
0.486707
0.488895
0.490706
0.49202
0.492776
0.493386
0.493841
0.494201
0.493912
0.493068
0.491302
0.489052
0.487436
0.485096
0.484274
0.485912
0.492009
0.504956
0.525954
0.551857
0.574711
0.585464
0.587861
0.588671
0.588801
0.588717
0.589572
0.58696
0.57714
0.561068
0.54253
0.52435
0.506882
0.490134
0.474856
0.459556
0.447258
0.435667
0.427116
0.425019
0.428811
0.440184
0.46336
0.499216
0.537217
0.570683
0.588167
0.594813
0.599121
0.602397
0.605834
0.607846
0.608114
0.609796
0.610065
0.60902
0.605559
0.597213
0.58173
0.558704
0.533927
0.462792
0.471427
0.481401
0.491771
0.503375
0.5155
0.527876
0.54052
0.553392
0.566067
0.57757
0.587388
0.595146
0.601504
0.607242
0.612529
0.618093
0.624334
0.632264
0.6394
0.64489
0.64732
0.648015
0.647815
0.647125
0.645725
0.643533
0.640344
0.635947
0.629934
0.621974
0.611655
0.598868
0.583902
0.5674
0.550548
0.534579
0.520586
0.509168
0.500399
0.493959
0.489376
0.486184
0.48407
0.482954
0.482575
0.482741
0.483446
0.485033
0.487337
0.490149
0.49318
0.496076
0.498546
0.500396
0.501512
0.50238
0.50284
0.503102
0.50328
0.502396
0.500978
0.498677
0.495916
0.493983
0.491022
0.489128
0.489288
0.492506
0.501556
0.517497
0.539907
0.562513
0.575505
0.57909
0.580818
0.581628
0.583043
0.585741
0.58706
0.579213
0.56269
0.541889
0.520974
0.501107
0.482323
0.465111
0.449445
0.437662
0.425029
0.416337
0.413068
0.416517
0.427172
0.449467
0.484711
0.523917
0.556135
0.57691
0.583304
0.585163
0.586897
0.590681
0.593028
0.594193
0.595013
0.59445
0.592643
0.589187
0.582336
0.570833
0.55515
0.537072
0.467425
0.477185
0.488263
0.499874
0.512683
0.525948
0.539435
0.553058
0.566569
0.579305
0.590509
0.599774
0.606485
0.6117
0.616061
0.620012
0.623948
0.628564
0.634959
0.641353
0.646404
0.649062
0.649816
0.649493
0.648772
0.64731
0.645082
0.641794
0.637313
0.631385
0.623577
0.613657
0.601416
0.586996
0.570993
0.554301
0.538205
0.523823
0.511909
0.502658
0.49586
0.491095
0.487934
0.486035
0.485193
0.485268
0.486221
0.488029
0.490714
0.494094
0.497911
0.501798
0.505347
0.508249
0.51033
0.511817
0.512719
0.513206
0.5134
0.513003
0.511844
0.509663
0.50691
0.504152
0.501162
0.498112
0.495349
0.494015
0.495448
0.500888
0.512213
0.530025
0.550406
0.564146
0.569027
0.571836
0.573275
0.57558
0.57897
0.582474
0.577767
0.562856
0.540582
0.517782
0.4959
0.47561
0.457414
0.441866
0.427711
0.416589
0.406919
0.403152
0.405953
0.415707
0.437191
0.472357
0.513046
0.547713
0.568158
0.575692
0.576021
0.575504
0.577526
0.580555
0.581505
0.583244
0.581783
0.579357
0.5756
0.569615
0.561035
0.550527
0.537759
0.470554
0.481261
0.493217
0.506181
0.520352
0.53501
0.549973
0.564956
0.579439
0.592656
0.603748
0.612577
0.618115
0.622457
0.625597
0.62834
0.631042
0.634061
0.639339
0.644193
0.648924
0.651702
0.652536
0.652122
0.651314
0.649587
0.647282
0.64382
0.639206
0.633195
0.62546
0.615655
0.603647
0.589467
0.573515
0.556781
0.540344
0.525549
0.513205
0.503609
0.496614
0.491822
0.488773
0.487179
0.486757
0.487433
0.489294
0.492144
0.495927
0.500395
0.505247
0.510059
0.514402
0.517961
0.520611
0.522537
0.523772
0.524393
0.524492
0.523453
0.521639
0.518949
0.515828
0.513172
0.509887
0.506396
0.502841
0.500318
0.499946
0.50252
0.50994
0.523004
0.539822
0.552649
0.558318
0.561942
0.563625
0.565995
0.569501
0.573891
0.571102
0.558743
0.53757
0.514246
0.490805
0.469822
0.451143
0.435148
0.420145
0.409586
0.399303
0.394925
0.397218
0.406015
0.426943
0.462641
0.505354
0.542926
0.565453
0.572916
0.572836
0.571137
0.570966
0.572068
0.573624
0.574455
0.573696
0.569967
0.565442
0.559812
0.553205
0.546212
0.537765
0.471792
0.483393
0.496133
0.510415
0.525919
0.542112
0.558933
0.575723
0.591519
0.60558
0.617249
0.626039
0.629693
0.633664
0.635892
0.637656
0.639388
0.6413
0.645644
0.64921
0.652892
0.655299
0.656039
0.655592
0.65473
0.65272
0.650191
0.646505
0.641722
0.635579
0.627785
0.618003
0.60599
0.591694
0.575416
0.558039
0.541045
0.52567
0.512966
0.503192
0.496212
0.491598
0.488926
0.4878
0.487945
0.489293
0.491841
0.495781
0.500621
0.506146
0.512036
0.517835
0.52311
0.527534
0.531001
0.533587
0.535153
0.53587
0.535533
0.53417
0.53168
0.528671
0.525554
0.522997
0.519747
0.516002
0.511834
0.508091
0.505811
0.506395
0.51038
0.519209
0.531489
0.542053
0.547803
0.551642
0.5531
0.555299
0.557396
0.56096
0.559443
0.550139
0.531967
0.50992
0.485943
0.465277
0.446421
0.42997
0.414759
0.402755
0.394039
0.388334
0.389987
0.397908
0.418196
0.455318
0.500842
0.542369
0.566298
0.573931
0.573588
0.571188
0.569706
0.569119
0.569851
0.570086
0.570034
0.565009
0.559508
0.553972
0.548594
0.543367
0.537465
0.471291
0.48387
0.497278
0.512412
0.52907
0.546975
0.565951
0.584914
0.602409
0.617586
0.62999
0.638405
0.642884
0.645013
0.646673
0.647641
0.648451
0.649841
0.652622
0.655391
0.658053
0.659963
0.660501
0.659966
0.65869
0.656564
0.653752
0.649862
0.644917
0.638678
0.63082
0.620912
0.608647
0.593873
0.576626
0.558024
0.539834
0.523773
0.510733
0.500971
0.494343
0.490128
0.487975
0.487358
0.488268
0.490483
0.493835
0.499096
0.504868
0.511386
0.518281
0.525089
0.531373
0.536786
0.541202
0.54447
0.546411
0.547125
0.54631
0.544454
0.541735
0.538604
0.535911
0.533048
0.529985
0.526285
0.520994
0.516266
0.512811
0.511586
0.513189
0.517961
0.525824
0.53329
0.538373
0.541605
0.542276
0.544594
0.544198
0.544599
0.543313
0.537408
0.523983
0.504923
0.481664
0.461968
0.443147
0.426204
0.410686
0.397811
0.389556
0.382846
0.383668
0.390908
0.411008
0.450165
0.500035
0.54456
0.569446
0.57761
0.577352
0.574231
0.571727
0.569112
0.569145
0.56882
0.568967
0.563035
0.55687
0.551472
0.546723
0.542311
0.537897
0.47124
0.483193
0.49679
0.512292
0.52983
0.5494
0.570692
0.59218
0.611425
0.628205
0.641664
0.6514
0.65613
0.655567
0.657458
0.658134
0.658059
0.65995
0.661922
0.663373
0.664599
0.665922
0.666215
0.665368
0.663277
0.660969
0.657892
0.653805
0.648776
0.642475
0.634571
0.624603
0.612018
0.59675
0.578405
0.558093
0.538563
0.521775
0.508574
0.498719
0.491745
0.487558
0.485836
0.486338
0.488266
0.4914
0.49577
0.501892
0.508793
0.516273
0.524116
0.531889
0.539157
0.545552
0.550859
0.554689
0.556888
0.55729
0.556491
0.554332
0.551616
0.548612
0.546246
0.543287
0.539579
0.535015
0.530102
0.525002
0.520213
0.517488
0.516783
0.518644
0.522743
0.527098
0.530945
0.532739
0.532287
0.534323
0.531498
0.528798
0.527234
0.523593
0.514761
0.499791
0.478142
0.459821
0.441361
0.42378
0.407695
0.394166
0.384687
0.378029
0.377964
0.384756
0.405222
0.447179
0.502121
0.549708
0.575879
0.583598
0.583165
0.579281
0.576025
0.572533
0.571287
0.569929
0.569547
0.562691
0.556139
0.550885
0.546676
0.542983
0.539491
0.471354
0.481212
0.494991
0.510282
0.528251
0.549116
0.572921
0.597514
0.617573
0.636314
0.65079
0.661249
0.665741
0.667189
0.66781
0.668635
0.668277
0.670346
0.671376
0.67199
0.672465
0.673057
0.672801
0.6722
0.668319
0.665935
0.662608
0.658295
0.653157
0.646941
0.639387
0.629958
0.616319
0.597718
0.575452
0.551582
0.529573
0.512549
0.500318
0.491743
0.486051
0.483189
0.482854
0.484885
0.487772
0.492313
0.497829
0.504613
0.512787
0.521111
0.529808
0.538435
0.546551
0.553784
0.559785
0.564039
0.566342
0.566735
0.565876
0.563803
0.561237
0.558707
0.556276
0.553198
0.549267
0.544319
0.538786
0.533144
0.527354
0.523227
0.520118
0.520569
0.521712
0.523664
0.525833
0.526036
0.524468
0.525304
0.520964
0.516262
0.513908
0.511624
0.505968
0.494989
0.475428
0.458588
0.440397
0.422368
0.405436
0.390917
0.379907
0.373987
0.372679
0.379193
0.400424
0.445924
0.507186
0.557832
0.583972
0.590882
0.589878
0.585258
0.581683
0.577694
0.575789
0.573572
0.572536
0.564933
0.557932
0.552776
0.548783
0.545224
0.542332
0.470805
0.481661
0.492325
0.506477
0.524223
0.545827
0.571478
0.599104
0.620592
0.640605
0.656123
0.666832
0.674677
0.67837
0.674837
0.677778
0.67762
0.680788
0.681462
0.681474
0.681314
0.681355
0.68053
0.678637
0.674457
0.671572
0.667838
0.663221
0.657676
0.651949
0.645166
0.632929
0.616694
0.592075
0.562674
0.534059
0.50876
0.493571
0.485655
0.479989
0.476585
0.476049
0.478713
0.482599
0.487513
0.493413
0.500324
0.508197
0.517076
0.526392
0.5358
0.545087
0.553828
0.561638
0.568076
0.572665
0.575117
0.575585
0.574759
0.572907
0.570532
0.568486
0.565985
0.562818
0.558845
0.554859
0.549209
0.541918
0.534476
0.528358
0.522174
0.522756
0.521899
0.522023
0.523084
0.522176
0.520409
0.518198
0.5133
0.50814
0.504402
0.502313
0.498494
0.490567
0.473425
0.45809
0.440263
0.421738
0.403761
0.38811
0.37608
0.369542
0.367846
0.374552
0.397532
0.447813
0.515956
0.568431
0.593777
0.599065
0.596551
0.592191
0.588632
0.584326
0.58246
0.579285
0.577716
0.569664
0.562165
0.556805
0.552502
0.548399
0.545921
0.47228
0.480878
0.491208
0.502656
0.518131
0.539188
0.565929
0.596564
0.619865
0.640166
0.655251
0.670692
0.67726
0.682094
0.683494
0.68518
0.686665
0.685887
0.68965
0.690553
0.689928
0.689874
0.689433
0.684678
0.681093
0.677731
0.673584
0.668517
0.662925
0.657407
0.647459
0.631559
0.609657
0.574167
0.538633
0.516177
0.501203
0.491296
0.480829
0.470619
0.469152
0.469437
0.474068
0.480547
0.487768
0.495431
0.503953
0.512957
0.522663
0.532704
0.542715
0.552403
0.561471
0.569537
0.576141
0.580885
0.583578
0.584231
0.583522
0.581868
0.579738
0.577932
0.575245
0.572148
0.568461
0.564303
0.558512
0.550802
0.542029
0.534282
0.526361
0.523992
0.52266
0.522048
0.521845
0.520095
0.518467
0.514208
0.508989
0.503774
0.498719
0.495413
0.492321
0.48666
0.471823
0.45817
0.44054
0.4217
0.402524
0.385726
0.372753
0.365402
0.363727
0.371421
0.397819
0.45347
0.528156
0.583074
0.603317
0.60693
0.604494
0.600199
0.59685
0.592385
0.590788
0.586815
0.584705
0.57644
0.56817
0.562573
0.55759
0.552539
0.549881
0.476647
0.481354
0.488788
0.498147
0.510827
0.529846
0.555669
0.586986
0.616655
0.635458
0.652378
0.664505
0.676031
0.684479
0.690909
0.687198
0.69335
0.692969
0.695592
0.696599
0.695698
0.695818
0.695228
0.690765
0.687783
0.684103
0.679409
0.672536
0.668678
0.662574
0.647265
0.622772
0.590644
0.55784
0.528226
0.514714
0.499613
0.487645
0.478442
0.471865
0.464359
0.46623
0.472259
0.480425
0.489717
0.499513
0.509678
0.520067
0.530486
0.540982
0.5513
0.561112
0.570182
0.578205
0.58478
0.589568
0.592345
0.593138
0.592482
0.590877
0.589116
0.587064
0.584246
0.581297
0.578473
0.574966
0.569459
0.560611
0.550114
0.540695
0.531534
0.526349
0.524494
0.523234
0.521603
0.51918
0.518094
0.512719
0.506881
0.501771
0.495672
0.490382
0.486976
0.483066
0.470049
0.458237
0.441564
0.42221
0.401943
0.383847
0.369957
0.362232
0.361239
0.371039
0.401737
0.465657
0.545965
0.597655
0.613416
0.616058
0.614237
0.608938
0.60616
0.601892
0.60035
0.595861
0.593254
0.585043
0.575917
0.569825
0.563432
0.558041
0.554183
0.486914
0.484131
0.486499
0.493225
0.503695
0.51885
0.541881
0.57223
0.6057
0.625108
0.644164
0.657021
0.670883
0.679134
0.690995
0.696723
0.695386
0.70099
0.702555
0.70473
0.704147
0.703895
0.70011
0.696871
0.694096
0.690406
0.682064
0.679016
0.676451
0.663101
0.64116
0.614062
0.585409
0.558007
0.532737
0.513407
0.497585
0.486064
0.477568
0.471501
0.467714
0.46591
0.47367
0.483502
0.495037
0.507123
0.518963
0.530448
0.541596
0.552295
0.562442
0.572037
0.580783
0.588446
0.594742
0.599349
0.60198
0.602788
0.601964
0.600198
0.598553
0.595979
0.592993
0.58996
0.586964
0.582982
0.579
0.570671
0.558878
0.548115
0.53737
0.528239
0.525907
0.524556
0.522354
0.519633
0.518494
0.512956
0.506553
0.500596
0.493558
0.486341
0.482024
0.479282
0.467831
0.458011
0.44269
0.423169
0.402106
0.382767
0.368286
0.360921
0.36155
0.374
0.411644
0.485792
0.568263
0.611962
0.624431
0.626537
0.624651
0.619718
0.617045
0.613253
0.610959
0.606125
0.603121
0.594863
0.584988
0.577753
0.569698
0.563726
0.558449
0.505784
0.491677
0.48699
0.487585
0.494308
0.505845
0.524427
0.552184
0.585373
0.616017
0.632096
0.648722
0.659071
0.677829
0.687046
0.697792
0.703801
0.705905
0.709312
0.71098
0.710494
0.70981
0.705199
0.702717
0.699917
0.69375
0.686836
0.686901
0.684581
0.663726
0.646301
0.620583
0.590402
0.558654
0.528923
0.507166
0.492581
0.484379
0.477499
0.472588
0.470768
0.471291
0.479663
0.491674
0.505724
0.519672
0.532931
0.545262
0.556688
0.567296
0.577032
0.585904
0.594058
0.60104
0.606787
0.610973
0.613078
0.613502
0.612275
0.610325
0.608432
0.605331
0.601845
0.598367
0.594642
0.590338
0.584533
0.580745
0.568719
0.554698
0.543813
0.531568
0.528864
0.526878
0.524072
0.521241
0.519405
0.514066
0.50801
0.501437
0.493086
0.483373
0.477776
0.475122
0.464989
0.457455
0.443759
0.424488
0.40278
0.382973
0.368731
0.362091
0.364461
0.381811
0.430186
0.51329
0.590867
0.626117
0.636548
0.638098
0.636026
0.632021
0.6293
0.626012
0.622308
0.617049
0.613212
0.605534
0.594957
0.586311
0.576741
0.569355
0.562688
0.527037
0.505619
0.490505
0.483905
0.484749
0.491993
0.505991
0.528547
0.559442
0.59352
0.622518
0.637527
0.654294
0.668091
0.682982
0.698199
0.707237
0.7105
0.715377
0.716702
0.716054
0.7146
0.711048
0.708686
0.705227
0.694622
0.695109
0.697249
0.687865
0.67359
0.662416
0.63001
0.595094
0.558496
0.521955
0.503349
0.487708
0.484031
0.479546
0.477
0.476727
0.480727
0.491166
0.505997
0.521787
0.537354
0.551644
0.564582
0.576069
0.586206
0.595234
0.603215
0.61033
0.616391
0.621319
0.624783
0.625771
0.625438
0.623664
0.621549
0.618967
0.615487
0.611311
0.607377
0.603245
0.598847
0.59389
0.5887
0.577704
0.562906
0.551469
0.53812
0.530856
0.529514
0.526424
0.522964
0.519964
0.515538
0.510904
0.503692
0.493658
0.481586
0.475172
0.47002
0.462306
0.456194
0.444709
0.425991
0.404443
0.384786
0.371073
0.365671
0.371194
0.396816
0.457853
0.543442
0.612849
0.640792
0.649942
0.650814
0.648578
0.646174
0.642503
0.639473
0.634267
0.62872
0.624542
0.617089
0.605478
0.595085
0.584026
0.574983
0.566769
0.544042
0.521086
0.498996
0.484738
0.47794
0.47941
0.488028
0.505005
0.531648
0.566865
0.605816
0.627652
0.646741
0.66105
0.684032
0.696737
0.711561
0.71992
0.719267
0.722353
0.721945
0.719576
0.716609
0.714159
0.70908
0.695551
0.701766
0.702281
0.691763
0.687146
0.669352
0.648823
0.604302
0.552997
0.51875
0.501298
0.488093
0.486342
0.484708
0.484056
0.486633
0.493887
0.50708
0.523808
0.541769
0.558574
0.573894
0.587244
0.598551
0.608151
0.616332
0.623311
0.629262
0.634243
0.638171
0.640548
0.640534
0.63875
0.636225
0.633894
0.630493
0.626396
0.62173
0.617052
0.612257
0.607389
0.602569
0.597034
0.587571
0.572706
0.559807
0.545297
0.534058
0.532911
0.529609
0.525691
0.522237
0.517831
0.514498
0.506417
0.494679
0.480793
0.474106
0.464543
0.461483
0.454228
0.445609
0.427909
0.40744
0.388501
0.375908
0.373102
0.383669
0.420781
0.490081
0.57343
0.633827
0.65697
0.664506
0.664823
0.662474
0.661337
0.656503
0.652623
0.646585
0.640514
0.635587
0.628497
0.616094
0.603634
0.591291
0.580616
0.570937
0.552588
0.533794
0.510125
0.489359
0.476989
0.471466
0.474017
0.484494
0.5056
0.538437
0.580957
0.617982
0.636602
0.658776
0.676951
0.698373
0.714078
0.724099
0.728715
0.728655
0.727727
0.725588
0.722452
0.718919
0.708982
0.699719
0.703196
0.701474
0.696245
0.696879
0.678771
0.66139
0.616593
0.554896
0.519955
0.501841
0.494722
0.489714
0.491055
0.493467
0.49817
0.509161
0.524794
0.543843
0.563019
0.580874
0.596801
0.610404
0.621735
0.630965
0.638451
0.644604
0.649585
0.65347
0.656296
0.656758
0.655544
0.652934
0.650045
0.647162
0.64315
0.638204
0.632987
0.627577
0.622099
0.616613
0.611088
0.604269
0.599056
0.58401
0.568026
0.553492
0.538631
0.537048
0.5335
0.529397
0.525345
0.520539
0.518391
0.509786
0.495895
0.481296
0.473907
0.463168
0.460103
0.452609
0.446131
0.430201
0.411679
0.394935
0.384624
0.38576
0.403793
0.450831
0.524046
0.602236
0.65472
0.674692
0.680186
0.680367
0.678621
0.677021
0.670723
0.665234
0.658628
0.651912
0.646253
0.63953
0.626293
0.611615
0.598452
0.586701
0.576325
0.556617
0.541373
0.520204
0.49761
0.479513
0.469655
0.466549
0.470935
0.484389
0.511278
0.553532
0.6
0.626068
0.652379
0.67337
0.699917
0.716133
0.730158
0.736934
0.734442
0.734217
0.731899
0.728057
0.723519
0.709653
0.702141
0.701946
0.697158
0.694297
0.695187
0.68689
0.669591
0.625845
0.565443
0.527345
0.508601
0.501888
0.49449
0.497796
0.501872
0.51052
0.524045
0.543128
0.563652
0.583846
0.602004
0.617809
0.631403
0.642658
0.651774
0.659073
0.664831
0.669276
0.672408
0.673722
0.673214
0.670835
0.667811
0.664908
0.661121
0.656411
0.650831
0.644941
0.638892
0.632678
0.626434
0.620133
0.613452
0.607679
0.594896
0.577131
0.56326
0.547062
0.540827
0.537972
0.533724
0.52884
0.523067
0.522342
0.513091
0.496604
0.48304
0.474141
0.464129
0.459338
0.454329
0.446143
0.433224
0.418731
0.405774
0.399356
0.405369
0.431341
0.484287
0.557731
0.630579
0.674139
0.692564
0.696031
0.695839
0.696307
0.69259
0.683656
0.677231
0.669954
0.662387
0.656123
0.6494
0.635343
0.618807
0.605396
0.593872
0.582736
0.557403
0.545167
0.527442
0.505885
0.486
0.471346
0.464033
0.463651
0.470827
0.490006
0.527295
0.576492
0.613734
0.643599
0.671447
0.694435
0.71996
0.734954
0.741622
0.743604
0.741205
0.738263
0.733787
0.728288
0.712154
0.702222
0.69754
0.690196
0.688436
0.689523
0.684276
0.669514
0.630356
0.576581
0.535658
0.515612
0.508161
0.49979
0.503792
0.510493
0.520567
0.53577
0.557031
0.581041
0.6036
0.622515
0.636324
0.649607
0.660226
0.669121
0.676434
0.682233
0.686592
0.68881
0.689275
0.688112
0.685783
0.682899
0.679776
0.675479
0.670069
0.664087
0.657625
0.650766
0.643685
0.636629
0.629679
0.622658
0.615557
0.605353
0.588268
0.573588
0.557187
0.545501
0.543145
0.538933
0.533262
0.526496
0.526078
0.515134
0.498434
0.486649
0.473398
0.467216
0.46003
0.457387
0.449804
0.44069
0.431424
0.423427
0.421839
0.432908
0.464268
0.519207
0.589983
0.656187
0.694395
0.708924
0.710858
0.709145
0.708614
0.703716
0.696119
0.687642
0.679674
0.67166
0.665071
0.65813
0.64235
0.625426
0.613106
0.601899
0.589985
0.557223
0.546498
0.531642
0.511803
0.492227
0.47672
0.465826
0.461023
0.463991
0.477158
0.508401
0.553037
0.595351
0.632181
0.664781
0.690342
0.72081
0.738749
0.748701
0.752258
0.747224
0.744443
0.739452
0.732972
0.716449
0.700812
0.689417
0.678412
0.675547
0.675466
0.673458
0.661668
0.628289
0.582689
0.544438
0.521272
0.510339
0.507083
0.506992
0.516026
0.528741
0.547283
0.568598
0.590309
0.613368
0.635844
0.654247
0.666021
0.674908
0.683066
0.690114
0.695697
0.699559
0.701803
0.702502
0.701679
0.7
0.69756
0.694206
0.689722
0.684104
0.677636
0.670538
0.662772
0.65483
0.64687
0.639224
0.631228
0.62213
0.616835
0.600464
0.582815
0.567162
0.55144
0.549127
0.544988
0.539036
0.533196
0.527359
0.514961
0.499805
0.488989
0.47629
0.46973
0.464361
0.460169
0.455416
0.451186
0.447772
0.446043
0.449702
0.465129
0.498609
0.552311
0.618135
0.675448
0.710513
0.721482
0.722576
0.723011
0.720269
0.713755
0.705539
0.696312
0.687494
0.679364
0.673434
0.66533
0.647521
0.63296
0.621406
0.609865
0.597974
0.557275
0.547633
0.53443
0.517167
0.498563
0.482248
0.470382
0.463306
0.463324
0.472267
0.495953
0.532786
0.574969
0.617847
0.655267
0.685517
0.717582
0.741592
0.75387
0.758217
0.75433
0.750266
0.744999
0.737331
0.720103
0.699527
0.68224
0.663746
0.656367
0.653753
0.651996
0.643092
0.619106
0.582689
0.550675
0.527305
0.514108
0.509445
0.508042
0.514007
0.526018
0.544819
0.572205
0.600607
0.626097
0.646031
0.661231
0.674385
0.684686
0.692033
0.698491
0.704198
0.707894
0.711351
0.712983
0.713511
0.71302
0.711367
0.708308
0.703902
0.697936
0.690999
0.683535
0.675743
0.667005
0.658013
0.649204
0.640334
0.631497
0.625032
0.609966
0.59099
0.57634
0.559153
0.555459
0.551275
0.544784
0.540485
0.530978
0.516649
0.502682
0.490813
0.479984
0.471815
0.468774
0.463332
0.460501
0.459836
0.461533
0.465822
0.47499
0.493814
0.527531
0.578295
0.638375
0.690241
0.7198
0.727954
0.729716
0.73061
0.725513
0.719682
0.711379
0.70232
0.693333
0.685257
0.678416
0.669778
0.654535
0.640293
0.629022
0.618098
0.606666
0.557796
0.549256
0.537423
0.521658
0.504349
0.48872
0.476614
0.469066
0.467504
0.474816
0.490175
0.51741
0.555663
0.600756
0.643351
0.67808
0.709602
0.741453
0.756392
0.761518
0.761756
0.755555
0.749923
0.741659
0.726505
0.699706
0.678406
0.655379
0.639964
0.632651
0.629285
0.621503
0.604826
0.581629
0.557048
0.538677
0.525735
0.520808
0.519824
0.52806
0.542853
0.562067
0.584385
0.608099
0.632401
0.653537
0.671007
0.682557
0.690681
0.697689
0.703958
0.709751
0.714548
0.719045
0.722416
0.7245
0.725231
0.724514
0.721761
0.717782
0.713265
0.707093
0.698475
0.689069
0.679145
0.668948
0.659046
0.649316
0.640088
0.631821
0.617885
0.599633
0.585202
0.569436
0.560661
0.557292
0.550541
0.548139
0.535959
0.519841
0.506514
0.491857
0.483551
0.4752
0.470864
0.464925
0.46254
0.463347
0.467956
0.476433
0.489575
0.510727
0.544645
0.592703
0.647839
0.695504
0.719481
0.727307
0.731001
0.729129
0.727432
0.721542
0.71409
0.705523
0.696536
0.688328
0.680921
0.672414
0.659688
0.645831
0.635636
0.626138
0.615684
0.558761
0.551205
0.541516
0.527488
0.511275
0.49705
0.485794
0.47807
0.475279
0.47919
0.487676
0.506549
0.538636
0.582035
0.628334
0.666741
0.701155
0.737085
0.756476
0.764179
0.766148
0.759121
0.753699
0.745058
0.73238
0.706311
0.684881
0.653117
0.630529
0.616956
0.610461
0.600576
0.591385
0.57932
0.566776
0.553735
0.546441
0.544078
0.543621
0.55284
0.569597
0.589363
0.610408
0.630635
0.64943
0.664549
0.676538
0.686379
0.69552
0.702294
0.708022
0.714036
0.7204
0.726457
0.731484
0.734881
0.73676
0.737671
0.737883
0.735067
0.729534
0.722342
0.713057
0.702353
0.690857
0.679508
0.668523
0.657814
0.647775
0.638407
0.62502
0.607729
0.593362
0.578344
0.566794
0.563154
0.556399
0.5555
0.540994
0.524084
0.509364
0.494307
0.485303
0.478395
0.470799
0.464257
0.46096
0.46163
0.466775
0.476629
0.491361
0.513554
0.547243
0.594003
0.64716
0.690347
0.711228
0.72094
0.724356
0.727483
0.724744
0.720994
0.714427
0.706443
0.697497
0.689021
0.681292
0.672407
0.662254
0.650022
0.640591
0.632762
0.624266
0.560419
0.554137
0.545381
0.533978
0.5196
0.507084
0.49556
0.487162
0.484069
0.482711
0.486932
0.499488
0.52412
0.562838
0.61016
0.653015
0.689511
0.728412
0.753019
0.763212
0.765553
0.762812
0.755942
0.74796
0.736244
0.712457
0.693557
0.662618
0.632249
0.612067
0.60278
0.594182
0.587471
0.581736
0.578071
0.57596
0.572801
0.571432
0.574585
0.583578
0.598995
0.617047
0.634664
0.65057
0.664334
0.674259
0.682774
0.690749
0.697636
0.704146
0.711236
0.719367
0.726567
0.733998
0.740399
0.746218
0.750919
0.752959
0.753543
0.750702
0.74461
0.736179
0.726272
0.714806
0.702304
0.689621
0.67734
0.665528
0.654675
0.644952
0.631292
0.614753
0.600352
0.585751
0.573049
0.568637
0.562489
0.56158
0.545078
0.527352
0.511008
0.495706
0.485895
0.479713
0.469676
0.461647
0.457007
0.456639
0.46103
0.470169
0.484718
0.506965
0.541056
0.588433
0.64016
0.677595
0.696094
0.706516
0.716375
0.719848
0.72097
0.718446
0.712814
0.705011
0.696251
0.687285
0.679121
0.670688
0.662412
0.652641
0.643937
0.637989
0.631238
0.562794
0.557671
0.550232
0.539553
0.52698
0.51509
0.506062
0.498255
0.490777
0.486923
0.487905
0.495082
0.512609
0.545076
0.589862
0.635488
0.676279
0.715797
0.744306
0.75846
0.762747
0.76231
0.756143
0.748836
0.738934
0.723224
0.695717
0.673181
0.639549
0.615112
0.603007
0.596444
0.590078
0.58993
0.592292
0.597442
0.604237
0.608169
0.612991
0.620907
0.633784
0.648751
0.661653
0.672649
0.68073
0.685372
0.689773
0.695244
0.701942
0.709652
0.71756
0.725143
0.733928
0.74262
0.750713
0.757692
0.763656
0.766119
0.765094
0.762904
0.757666
0.749275
0.738687
0.726184
0.712379
0.69863
0.685238
0.672284
0.660596
0.650336
0.636561
0.620709
0.605613
0.59196
0.579079
0.573653
0.56916
0.564783
0.547309
0.529607
0.511767
0.495879
0.485614
0.479764
0.467851
0.458069
0.45209
0.45041
0.453199
0.460806
0.474108
0.496066
0.531086
0.579695
0.627957
0.65702
0.675813
0.693915
0.707062
0.714044
0.715814
0.714133
0.708984
0.701432
0.69255
0.683572
0.675333
0.667902
0.660289
0.654011
0.647054
0.641656
0.636324
0.564667
0.559671
0.552643
0.543833
0.534097
0.524252
0.515051
0.50555
0.497493
0.491821
0.489664
0.492886
0.504478
0.530144
0.569925
0.615446
0.658608
0.699938
0.730479
0.748431
0.75638
0.759022
0.754553
0.748324
0.739367
0.728106
0.70815
0.681276
0.656412
0.625409
0.609335
0.601869
0.599564
0.602505
0.607101
0.615993
0.627905
0.640931
0.646999
0.656747
0.667856
0.679727
0.688067
0.694164
0.697638
0.697919
0.700256
0.703741
0.708527
0.71562
0.72383
0.732379
0.740546
0.749855
0.759333
0.766269
0.77107
0.775123
0.775834
0.773255
0.768128
0.760332
0.750036
0.736896
0.722024
0.706994
0.692166
0.678283
0.665407
0.654279
0.640817
0.625451
0.60988
0.596719
0.584243
0.577276
0.575035
0.566254
0.548885
0.530793
0.511921
0.495111
0.484378
0.478931
0.464999
0.454919
0.447946
0.444983
0.446013
0.451683
0.4635
0.485401
0.521918
0.56893
0.605469
0.632893
0.659034
0.681942
0.699059
0.707599
0.709588
0.707928
0.702869
0.695615
0.687096
0.678457
0.670599
0.664024
0.658152
0.653106
0.648914
0.643876
0.639874
0.566002
0.561471
0.555595
0.547816
0.539718
0.531067
0.521921
0.512788
0.504461
0.497611
0.493223
0.493102
0.499818
0.518888
0.552494
0.595056
0.638715
0.680735
0.712707
0.733826
0.745479
0.750496
0.750929
0.746399
0.738949
0.730591
0.718417
0.696465
0.671888
0.647603
0.626339
0.617009
0.614845
0.617522
0.625155
0.633343
0.646111
0.66045
0.673956
0.678211
0.694376
0.706066
0.709645
0.711853
0.712142
0.711695
0.712104
0.713385
0.71683
0.7224
0.729394
0.737246
0.745658
0.754923
0.763167
0.770878
0.777092
0.781496
0.78465
0.785077
0.781385
0.773691
0.762941
0.749523
0.733672
0.716265
0.699028
0.682963
0.669702
0.656021
0.644583
0.629008
0.613453
0.600209
0.588786
0.578438
0.577297
0.567607
0.549713
0.531107
0.51133
0.493382
0.481855
0.475596
0.464062
0.453476
0.445577
0.441337
0.440836
0.444869
0.455599
0.477767
0.513505
0.54904
0.580357
0.612439
0.644626
0.673072
0.692152
0.700473
0.702087
0.700091
0.695061
0.688227
0.680546
0.672757
0.665756
0.660059
0.655717
0.6518
0.649268
0.645226
0.641872
0.567428
0.563343
0.558238
0.551952
0.54496
0.537152
0.528725
0.519943
0.511507
0.503993
0.49822
0.495442
0.498302
0.511375
0.5385
0.576224
0.618335
0.65926
0.692525
0.715983
0.731103
0.739821
0.743837
0.743009
0.739434
0.732693
0.723707
0.711204
0.690664
0.669643
0.649336
0.640567
0.637889
0.638811
0.644485
0.65399
0.66451
0.677647
0.690601
0.698148
0.713157
0.723623
0.727222
0.729665
0.721599
0.720982
0.720467
0.72173
0.724125
0.728379
0.734101
0.74108
0.748529
0.755931
0.764022
0.7714
0.779304
0.785216
0.789174
0.790959
0.789286
0.783229
0.772873
0.759653
0.743617
0.726087
0.708285
0.691024
0.674139
0.65934
0.644896
0.631984
0.616253
0.602649
0.591135
0.578595
0.577234
0.567902
0.549634
0.530165
0.509763
0.490876
0.479308
0.471662
0.464202
0.453162
0.44491
0.43961
0.437912
0.440612
0.451041
0.47103
0.498651
0.527332
0.55939
0.593848
0.631338
0.662027
0.681827
0.690677
0.692176
0.690441
0.686025
0.680087
0.673604
0.667081
0.661252
0.656706
0.653329
0.65081
0.648431
0.647259
0.643247
0.569074
0.565445
0.561137
0.555974
0.549969
0.543059
0.535281
0.526864
0.518509
0.510583
0.504048
0.499695
0.499405
0.507311
0.528212
0.560253
0.598556
0.637532
0.67126
0.696353
0.714511
0.727148
0.735296
0.73785
0.737658
0.733602
0.728174
0.720201
0.708035
0.69217
0.67703
0.66535
0.661888
0.664721
0.668765
0.676356
0.686444
0.696759
0.709102
0.718133
0.724533
0.736954
0.739826
0.741232
0.729892
0.728338
0.727504
0.727628
0.729098
0.731988
0.736347
0.74117
0.746816
0.753092
0.760367
0.768539
0.776584
0.783592
0.788835
0.791664
0.791319
0.78697
0.778475
0.766005
0.75112
0.734208
0.716343
0.69864
0.680991
0.664753
0.648285
0.633354
0.618254
0.603889
0.591603
0.577497
0.574091
0.567328
0.548133
0.527704
0.507544
0.488354
0.475884
0.468104
0.46214
0.453498
0.445216
0.439383
0.43672
0.437995
0.445624
0.461506
0.48402
0.51078
0.54046
0.57557
0.615836
0.648048
0.668822
0.678329
0.680021
0.67919
0.676126
0.671835
0.666769
0.661847
0.657461
0.654026
0.651662
0.650226
0.648822
0.6472
0.644805
0.570976
0.567753
0.564118
0.559859
0.554752
0.548652
0.54149
0.533508
0.525124
0.516939
0.509695
0.504273
0.502172
0.506733
0.521336
0.547936
0.581045
0.616938
0.650423
0.67603
0.69685
0.713051
0.725316
0.73302
0.736016
0.736645