/*--------------------------------*- C++ -*----------------------------------*\
  =========                 |
  \\      /  F ield         | OpenFOAM: The Open Source CFD Toolbox
   \\    /   O peration     | Website:  https://openfoam.org
    \\  /    A nd           | Version:  10
     \\/     M anipulation  |
\*---------------------------------------------------------------------------*/
FoamFile
{
    format      ascii;
    class       volScalarField;
    location    "0.750416";
    object      p;
}
// * * * * * * * * * * * * * * * * * * * * * * * * * * * * * * * * * * * * * //

dimensions      [1 -1 -2 0 0 0 0];

internalField   nonuniform List<scalar> 
16320
(
0.615443
0.62517
0.634719
0.643755
0.651949
0.659172
0.665456
0.671012
0.676163
0.680989
0.685282
0.689276
0.693901
0.698236
0.701801
0.703931
0.705708
0.706527
0.706512
0.70547
0.703371
0.700299
0.696396
0.691805
0.686688
0.681268
0.675718
0.67017
0.664714
0.659414
0.654276
0.649205
0.644445
0.640317
0.636997
0.634886
0.634101
0.633116
0.635066
0.641773
0.65657
0.670972
0.672443
0.664059
0.646171
0.622311
0.595491
0.570947
0.548828
0.531677
0.519333
0.511562
0.504792
0.504637
0.503446
0.503994
0.508174
0.511435
0.514167
0.516539
0.523386
0.530218
0.53939
0.551578
0.562972
0.57446
0.584071
0.593587
0.601905
0.607838
0.60917
0.605049
0.596087
0.583528
0.5698
0.55691
0.546532
0.540957
0.53742
0.533989
0.530782
0.525063
0.516383
0.506458
0.496235
0.487812
0.482227
0.480603
0.483269
0.489321
0.497294
0.505833
0.51443
0.522267
0.528848
0.53502
0.541918
0.5513
0.555291
0.561029
0.567156
0.574715
0.58373
0.594195
0.601013
0.606383
0.610074
0.613154
0.614321
0.612961
0.60891
0.603604
0.595281
0.619636
0.630377
0.640746
0.650254
0.658548
0.665641
0.671701
0.677044
0.68196
0.686725
0.691274
0.69592
0.700485
0.705374
0.709245
0.710853
0.711617
0.711833
0.71123
0.709605
0.706945
0.703353
0.698979
0.694007
0.688564
0.682839
0.676977
0.671103
0.665314
0.659684
0.65427
0.649116
0.644349
0.640162
0.636744
0.634302
0.632971
0.632581
0.633864
0.637278
0.639862
0.641499
0.640961
0.637899
0.626086
0.607435
0.585029
0.562814
0.544687
0.530281
0.521669
0.516454
0.508123
0.509094
0.508333
0.509774
0.513666
0.516319
0.518596
0.521095
0.528717
0.535654
0.545525
0.558365
0.569366
0.580791
0.590585
0.600482
0.608491
0.61368
0.614191
0.609343
0.5996
0.586361
0.571941
0.558268
0.547273
0.541224
0.537392
0.533718
0.530188
0.524809
0.517038
0.507792
0.497505
0.488188
0.48117
0.477292
0.477607
0.480519
0.486493
0.493832
0.501362
0.509843
0.516601
0.523818
0.531036
0.539491
0.547053
0.553315
0.559588
0.568449
0.577867
0.588781
0.599473
0.60377
0.609091
0.611583
0.613435
0.612578
0.609333
0.605015
0.597247
0.626008
0.637589
0.648594
0.658447
0.666777
0.673533
0.679091
0.683919
0.688548
0.69308
0.69758
0.702236
0.707778
0.713016
0.716877
0.71782
0.717685
0.717004
0.715888
0.713404
0.710051
0.70587
0.70098
0.695577
0.689757
0.683691
0.677498
0.671292
0.665181
0.659257
0.653579
0.648199
0.643209
0.63873
0.634887
0.631796
0.629558
0.628288
0.628209
0.629201
0.630585
0.630674
0.627585
0.618256
0.605935
0.59207
0.577473
0.558024
0.542331
0.532804
0.524153
0.52066
0.517624
0.516228
0.513873
0.514681
0.520254
0.521948
0.52358
0.52685
0.53456
0.541885
0.552734
0.565194
0.576268
0.587143
0.597311
0.606723
0.614351
0.618758
0.61851
0.61303
0.602672
0.588972
0.573972
0.559759
0.548543
0.542005
0.53775
0.533772
0.529734
0.524934
0.518002
0.509584
0.499559
0.489777
0.481569
0.476115
0.474145
0.475059
0.478661
0.483996
0.490462
0.497681
0.505469
0.513181
0.521024
0.529519
0.539009
0.545599
0.553754
0.563007
0.573331
0.584165
0.597028
0.602928
0.608828
0.611071
0.613662
0.613316
0.610781
0.607414
0.600639
0.634676
0.646912
0.658371
0.668356
0.676485
0.682841
0.687861
0.692105
0.6962
0.700436
0.704896
0.709396
0.71513
0.721065
0.724497
0.725107
0.723804
0.721997
0.71981
0.716637
0.712589
0.707805
0.702344
0.696504
0.690281
0.683853
0.677324
0.670796
0.664367
0.658117
0.652132
0.646484
0.641249
0.636497
0.632293
0.628702
0.625782
0.623558
0.622053
0.621187
0.620624
0.619567
0.616792
0.610626
0.600575
0.586792
0.571131
0.557858
0.545604
0.536533
0.530296
0.527968
0.527644
0.51784
0.516139
0.524241
0.527718
0.528313
0.529099
0.534556
0.540508
0.548994
0.560815
0.57192
0.583411
0.593417
0.603698
0.612561
0.619516
0.623172
0.622284
0.616333
0.605561
0.591569
0.57604
0.561584
0.550304
0.543375
0.538322
0.533893
0.529625
0.525221
0.518965
0.511472
0.50197
0.492032
0.483054
0.47628
0.47263
0.471889
0.473435
0.476812
0.481616
0.487717
0.49543
0.503092
0.511755
0.520824
0.530505
0.539049
0.549215
0.559076
0.570621
0.582686
0.594485
0.604831
0.609772
0.612192
0.615414
0.615565
0.613551
0.611098
0.605344
0.64552
0.658286
0.670049
0.680093
0.687964
0.693876
0.698515
0.702154
0.705692
0.709438
0.713757
0.718407
0.724258
0.729732
0.732185
0.731803
0.729407
0.726461
0.723237
0.719266
0.714499
0.709092
0.703156
0.696833
0.690216
0.683421
0.676532
0.669642
0.662869
0.656303
0.650032
0.644139
0.638687
0.633722
0.629271
0.625368
0.622018
0.619195
0.616862
0.614923
0.613129
0.611035
0.607979
0.603125
0.595802
0.585815
0.573461
0.560795
0.549598
0.542661
0.539842
0.53851
0.526746
0.52273
0.531897
0.535894
0.535517
0.534802
0.53612
0.542247
0.547958
0.557136
0.569191
0.579203
0.590143
0.599771
0.609463
0.617805
0.624067
0.62708
0.625748
0.619568
0.608626
0.594552
0.578823
0.56371
0.551851
0.544857
0.539301
0.534406
0.5296
0.52481
0.519967
0.513294
0.504397
0.494584
0.485129
0.477417
0.472366
0.470383
0.470277
0.471725
0.474935
0.479919
0.486553
0.494939
0.503692
0.513476
0.523832
0.534064
0.545065
0.556545
0.569736
0.582889
0.595408
0.606288
0.612166
0.615112
0.618674
0.619134
0.617625
0.615988
0.611179
0.658294
0.67151
0.68354
0.693754
0.701599
0.707025
0.7113
0.714441
0.717391
0.720604
0.724752
0.729234
0.734999
0.739025
0.740146
0.738162
0.734233
0.730141
0.725935
0.721135
0.715711
0.709772
0.703377
0.696636
0.689638
0.682465
0.675213
0.667981
0.660874
0.653995
0.64745
0.641336
0.635713
0.630605
0.626012
0.621941
0.618368
0.615264
0.612596
0.61025
0.608022
0.605645
0.602697
0.598697
0.593235
0.586111
0.577043
0.567457
0.556087
0.553022
0.552574
0.541212
0.532512
0.544016
0.537644
0.543532
0.542329
0.541776
0.545118
0.549185
0.555921
0.56604
0.576449
0.58697
0.596665
0.605807
0.614675
0.622403
0.627956
0.630463
0.629129
0.622977
0.612253
0.598176
0.582517
0.566917
0.55435
0.546668
0.540548
0.535221
0.530177
0.525177
0.520191
0.515157
0.506744
0.497204
0.487473
0.479096
0.473137
0.470177
0.467968
0.468609
0.47038
0.474424
0.479918
0.487703
0.497362
0.507738
0.518928
0.530578
0.542786
0.555803
0.570579
0.585167
0.598912
0.609069
0.616973
0.619912
0.623432
0.624238
0.622934
0.621717
0.618199
0.672574
0.686259
0.698553
0.709047
0.717369
0.722192
0.726473
0.729323
0.731615
0.734479
0.738198
0.742203
0.746677
0.748579
0.74767
0.74374
0.738291
0.73307
0.727883
0.722291
0.716241
0.709851
0.703067
0.695959
0.688612
0.681102
0.673504
0.665929
0.658487
0.651293
0.644484
0.638182
0.632449
0.627277
0.622625
0.618491
0.614855
0.611717
0.60905
0.606709
0.604565
0.602441
0.600051
0.597112
0.593364
0.588433
0.582582
0.575965
0.569041
0.562854
0.559579
0.548708
0.554753
0.548813
0.552925
0.55148
0.549116
0.550926
0.552723
0.557224
0.564616
0.575016
0.583981
0.593899
0.602422
0.611525
0.619588
0.626431
0.63103
0.633016
0.632083
0.626427
0.616491
0.60285
0.587436
0.571303
0.557438
0.548891
0.542175
0.536397
0.531133
0.526091
0.521091
0.516148
0.508656
0.499466
0.48977
0.48093
0.474233
0.470174
0.467114
0.467029
0.467894
0.47058
0.475655
0.483131
0.49303
0.503817
0.516229
0.529163
0.54262
0.557348
0.573542
0.589283
0.604017
0.614861
0.62274
0.625917
0.629602
0.630696
0.629433
0.628381
0.625653
0.687962
0.702034
0.714728
0.725782
0.734723
0.739516
0.743938
0.746669
0.748788
0.751047
0.753906
0.7565
0.758267
0.757528
0.754163
0.748281
0.741339
0.734803
0.72871
0.722478
0.71605
0.709337
0.702249
0.694839
0.687204
0.679402
0.671468
0.663544
0.655739
0.64818
0.641081
0.634626
0.628868
0.623731
0.619128
0.615044
0.611506
0.608482
0.606
0.603903
0.602176
0.600529
0.5989
0.597085
0.594895
0.592396
0.589298
0.585714
0.581836
0.578539
0.570885
0.571739
0.568246
0.565216
0.561933
0.558337
0.558452
0.558428
0.560675
0.565712
0.573891
0.583224
0.591275
0.600279
0.607993
0.616769
0.624031
0.629902
0.63326
0.634245
0.632888
0.629336
0.621048
0.60847
0.593282
0.577462
0.562377
0.551325
0.544218
0.537952
0.532437
0.527231
0.522298
0.517242
0.510284
0.501492
0.491739
0.482631
0.475427
0.470621
0.466999
0.466301
0.466658
0.468495
0.474001
0.480836
0.490707
0.502863
0.515952
0.529994
0.544791
0.561168
0.579001
0.595364
0.611014
0.622452
0.629966
0.632723
0.636681
0.638319
0.637054
0.635675
0.633447
0.704024
0.718476
0.731631
0.74332
0.75287
0.757716
0.762754
0.76547
0.767108
0.768425
0.769463
0.76958
0.768267
0.764735
0.758857
0.751147
0.742955
0.735451
0.728469
0.721816
0.715163
0.708254
0.700983
0.693344
0.685463
0.677407
0.669024
0.660671
0.652588
0.644737
0.637253
0.630598
0.624624
0.61941
0.614979
0.6112
0.608028
0.605291
0.603262
0.601647
0.60041
0.599302
0.598579
0.597589
0.596637
0.59566
0.594423
0.592801
0.59078
0.5881
0.583871
0.581026
0.577021
0.572399
0.568265
0.567159
0.565627
0.566179
0.569004
0.574345
0.582586
0.590102
0.598623
0.606352
0.613509
0.621359
0.627883
0.63291
0.635545
0.636133
0.634721
0.631174
0.625364
0.614282
0.599959
0.584644
0.569321
0.555309
0.546859
0.539998
0.53414
0.528794
0.523565
0.518455
0.51177
0.503094
0.493055
0.483962
0.476511
0.471307
0.467403
0.466396
0.466881
0.468675
0.473537
0.480647
0.490946
0.504103
0.517662
0.533247
0.549825
0.567887
0.586867
0.604042
0.619882
0.631326
0.638245
0.641235
0.645349
0.647131
0.64602
0.643257
0.641482
0.720287
0.735127
0.748682
0.760853
0.770862
0.775666
0.780807
0.783095
0.783737
0.784039
0.782699
0.779927
0.775495
0.769147
0.761033
0.75183
0.742619
0.73439
0.72701
0.720296
0.713624
0.706676
0.699413
0.691575
0.683549
0.675807
0.668217
0.660365
0.651784
0.644685
0.63844
0.632273
0.626115
0.620168
0.614212
0.609053
0.605108
0.601708
0.600518
0.599496
0.599104
0.598775
0.598553
0.598298
0.598066
0.597778
0.597278
0.596354
0.594796
0.592524
0.589439
0.586093
0.581938
0.578159
0.576273
0.573715
0.572862
0.573991
0.577182
0.58305
0.590375
0.596846
0.604744
0.611825
0.618807
0.625616
0.631424
0.635674
0.63788
0.638169
0.636666
0.633134
0.626919
0.619576
0.606633
0.59167
0.576549
0.562404
0.550312
0.542556
0.536429
0.530777
0.525198
0.519565
0.513727
0.504263
0.494014
0.484827
0.477362
0.472125
0.468268
0.467217
0.467833
0.469892
0.474531
0.482593
0.493398
0.507375
0.522742
0.540076
0.558405
0.577839
0.597062
0.614982
0.630685
0.641739
0.647769
0.650823
0.655029
0.656624
0.655219
0.651858
0.649915
0.73593
0.751294
0.765132
0.777148
0.786854
0.793048
0.796127
0.797838
0.796588
0.795776
0.791803
0.785867
0.778546
0.769996
0.760223
0.749912
0.740161
0.731613
0.724343
0.717939
0.711478
0.70472
0.697834
0.690035
0.681809
0.66962
0.655971
0.643224
0.632133
0.623284
0.616267
0.611431
0.608143
0.604613
0.601475
0.599655
0.599244
0.599945
0.598793
0.597368
0.598094
0.598573
0.59894
0.599284
0.5995
0.599586
0.59941
0.598746
0.597464
0.595577
0.592983
0.589442
0.586774
0.584937
0.581804
0.580047
0.579963
0.581438
0.584823
0.590578
0.596535
0.60361
0.610386
0.616849
0.623744
0.629792
0.634882
0.638422
0.640235
0.640295
0.638753
0.635414
0.6301
0.623236
0.612506
0.598709
0.583856
0.569866
0.556794
0.5458
0.539412
0.533379
0.52736
0.522056
0.514229
0.504514
0.494407
0.485373
0.47815
0.473077
0.469558
0.46876
0.469639
0.472202
0.477269
0.487716
0.499171
0.514231
0.531791
0.550654
0.570326
0.590803
0.609737
0.627353
0.643144
0.653352
0.658425
0.661166
0.665439
0.666513
0.664768
0.661156
0.658883
0.750007
0.76568
0.779988
0.792028
0.800774
0.805664
0.807915
0.807132
0.804696
0.799709
0.794877
0.786618
0.777146
0.766688
0.75565
0.744726
0.734844
0.726674
0.720165
0.71424
0.70811
0.701007
0.692436
0.678725
0.662701
0.647241
0.63311
0.619437
0.608896
0.603611
0.601002
0.597899
0.594475
0.5914
0.58994
0.589586
0.592267
0.59321
0.595279
0.597413
0.597712
0.598615
0.599516
0.600352
0.60098
0.601213
0.601081
0.600485
0.599353
0.59771
0.595781
0.594566
0.591813
0.58912
0.587109
0.586126
0.586461
0.588197
0.591918
0.597249
0.602405
0.609194
0.615501
0.621675
0.628256
0.633771
0.638234
0.641119
0.642542
0.642378
0.640764
0.637435
0.632433
0.625481
0.617658
0.605048
0.590706
0.576765
0.563374
0.551645
0.543227
0.536645
0.52996
0.524895
0.515344
0.504695
0.494701
0.485797
0.478992
0.47397
0.471363
0.471064
0.472564
0.47642
0.48329
0.49508
0.508259
0.524983
0.544418
0.564368
0.585204
0.605798
0.624641
0.641571
0.656772
0.665773
0.669885
0.672124
0.676674
0.677001
0.674753
0.670923
0.668296
0.761359
0.776923
0.791378
0.803188
0.810595
0.813566
0.81366
0.811287
0.8051
0.79852
0.788671
0.77992
0.768637
0.75731
0.746361
0.735702
0.726544
0.71959
0.713955
0.708248
0.701269
0.691949
0.67618
0.657852
0.641283
0.625953
0.614942
0.608453
0.604684
0.600509
0.595774
0.592254
0.589408
0.587237
0.585791
0.584681
0.584585
0.588189
0.590979
0.594801
0.597236
0.599211
0.60046
0.601903
0.602765
0.603273
0.603933
0.603906
0.603296
0.602083
0.600244
0.597619
0.595363
0.593454
0.592079
0.591537
0.59213
0.594025
0.59773
0.60302
0.607751
0.61417
0.620302
0.626359
0.63254
0.637544
0.641438
0.643808
0.644789
0.644398
0.64261
0.639283
0.634429
0.628197
0.62098
0.610451
0.597076
0.583038
0.569778
0.557643
0.547925
0.540615
0.533247
0.527383
0.516035
0.504908
0.494811
0.486172
0.479662
0.475319
0.473544
0.474147
0.476979
0.482992
0.491883
0.504934
0.520261
0.53905
0.560048
0.581178
0.602725
0.622486
0.640756
0.657116
0.671196
0.67885
0.682042
0.683512
0.688693
0.688046
0.685115
0.680941
0.677902
0.768971
0.783629
0.797377
0.80838
0.813949
0.814946
0.811985
0.806462
0.79911
0.790845
0.780262
0.768488
0.754514
0.742207
0.731241
0.722692
0.715898
0.710912
0.705594
0.698975
0.69106
0.675489
0.65624
0.638687
0.623753
0.612825
0.605541
0.599652
0.595576
0.591708
0.588563
0.585336
0.583768
0.581704
0.580786
0.581225
0.582614
0.585357
0.589876
0.594122
0.597813
0.600756
0.603202
0.604466
0.60539
0.60593
0.605991
0.605779
0.605143
0.604016
0.602439
0.6006
0.598865
0.597368
0.596324
0.596059
0.596822
0.598861
0.602393
0.607492
0.612688
0.618841
0.624929
0.631004
0.636655
0.641331
0.644666
0.646557
0.647064
0.646328
0.64429
0.64094
0.636217
0.630372
0.623058
0.615537
0.602883
0.589137
0.576046
0.563251
0.553541
0.545237
0.538378
0.528433
0.516523
0.505144
0.494935
0.486524
0.480287
0.476926
0.47638
0.478289
0.483218
0.491655
0.502683
0.517468
0.535226
0.55604
0.578278
0.600327
0.621334
0.640455
0.657736
0.673636
0.685558
0.691579
0.694523
0.694916
0.700185
0.698767
0.695271
0.691049
0.687637
0.771937
0.784273
0.795928
0.804354
0.808402
0.8071
0.800078
0.791515
0.782739
0.774248
0.76495
0.754688
0.743809
0.733045
0.723356
0.714873
0.707367
0.701044
0.695332
0.68711
0.67535
0.657176
0.638779
0.623544
0.61113
0.602263
0.595916
0.590734
0.586877
0.584303
0.581442
0.579
0.578172
0.577638
0.577652
0.57927
0.58201
0.586525
0.590482
0.59614
0.600215
0.603759
0.605858
0.607071
0.607804
0.6082
0.608203
0.607909
0.607237
0.606176
0.604811
0.603286
0.601783
0.600493
0.599652
0.599587
0.600494
0.60262
0.60624
0.611099
0.617072
0.623171
0.629352
0.635403
0.640803
0.645084
0.647939
0.649326
0.649364
0.648275
0.645929
0.642459
0.637904
0.632531
0.625839
0.61879
0.607529
0.594667
0.58206
0.569067
0.559348
0.549832
0.542611
0.529616
0.516914
0.505128
0.494863
0.486744
0.481288
0.479057
0.479917
0.483924
0.491525
0.502377
0.515721
0.532692
0.552809
0.57525
0.598296
0.620755
0.640523
0.658767
0.675453
0.690729
0.699901
0.704177
0.707034
0.706036
0.710883
0.708891
0.70503
0.700953
0.696757
0.772175
0.77793
0.784591
0.788873
0.78941
0.786265
0.778038
0.766033
0.755837
0.747796
0.74108
0.734179
0.72653
0.717455
0.70895
0.701501
0.695044
0.689202
0.682247
0.674317
0.659087
0.640437
0.624447
0.610992
0.600428
0.593196
0.588463
0.581972
0.580066
0.577388
0.575005
0.573604
0.573348
0.574231
0.576395
0.579698
0.583725
0.589148
0.594579
0.600572
0.604942
0.608291
0.610075
0.610778
0.611014
0.610973
0.610694
0.610189
0.609347
0.608192
0.606802
0.605317
0.603884
0.602696
0.601988
0.602065
0.60313
0.605466
0.609453
0.614281
0.62062
0.626984
0.633419
0.63961
0.644962
0.64896
0.651385
0.652306
0.651892
0.650314
0.647627
0.643937
0.639699
0.634657
0.628542
0.622089
0.611851
0.599787
0.587782
0.575196
0.565087
0.555852
0.545171
0.530775
0.517104
0.505005
0.494916
0.487197
0.482476
0.481719
0.484504
0.491391
0.501649
0.514844
0.530558
0.549785
0.572158
0.595658
0.619086
0.640857
0.659913
0.677379
0.693686
0.707222
0.713097
0.716623
0.719179
0.717165
0.721084
0.718725
0.714636
0.710151
0.704697
0.758988
0.763129
0.764126
0.762021
0.757711
0.750939
0.742586
0.733216
0.722855
0.715911
0.711482
0.707609
0.70406
0.699674
0.69278
0.686873
0.681593
0.675953
0.66832
0.659285
0.643478
0.626468
0.612588
0.600468
0.591226
0.585167
0.580402
0.576289
0.574284
0.571203
0.569995
0.569643
0.570646
0.573002
0.576963
0.582202
0.587988
0.594346
0.600707
0.606508
0.611003
0.613786
0.615014
0.615093
0.614632
0.613939
0.613117
0.61221
0.611069
0.60971
0.608152
0.60659
0.605141
0.603983
0.603353
0.603538
0.604814
0.607596
0.61197
0.616718
0.6234
0.63016
0.637126
0.643736
0.649222
0.653077
0.65523
0.655686
0.654778
0.652518
0.64938
0.645643
0.641578
0.636841
0.631197
0.625312
0.61586
0.604563
0.593012
0.580894
0.570068
0.56205
0.546662
0.531431
0.517375
0.505249
0.495254
0.487942
0.484561
0.485545
0.490926
0.500511
0.513116
0.528636
0.546452
0.568231
0.592472
0.616527
0.639764
0.660327
0.678878
0.696217
0.71165
0.720532
0.72517
0.728277
0.729238
0.731512
0.731646
0.728245
0.723727
0.718191
0.712367
0.73222
0.736385
0.734989
0.728405
0.719614
0.709585
0.699932
0.692985
0.688389
0.683304
0.681853
0.680692
0.679793
0.679405
0.675667
0.671593
0.667562
0.66161
0.655432
0.644884
0.630012
0.615258
0.602715
0.591965
0.584152
0.58015
0.572063
0.572747
0.56928
0.565564
0.565097
0.566045
0.567745
0.572376
0.578915
0.586016
0.592399
0.599517
0.607141
0.61317
0.616964
0.619084
0.619731
0.619248
0.618062
0.616626
0.615137
0.613733
0.612215
0.610549
0.608792
0.607085
0.605549
0.604372
0.603794
0.604109
0.605806
0.609017
0.612622
0.618701
0.625521
0.632895
0.640545
0.647943
0.65368
0.657688
0.65963
0.65959
0.658032
0.6551
0.651517
0.647767
0.643742
0.639227
0.633987
0.628616
0.619797
0.609299
0.598069
0.586974
0.576483
0.565379
0.548837
0.532542
0.518451
0.506564
0.496717
0.490305
0.488513
0.491653
0.499401
0.511239
0.525563
0.543208
0.563673
0.58794
0.61306
0.637392
0.6591
0.678996
0.697869
0.715394
0.727394
0.732982
0.73706
0.739938
0.738723
0.742501
0.741299
0.737594
0.732331
0.725817
0.719099
0.698788
0.702063
0.700203
0.692998
0.682958
0.671705
0.661525
0.655488
0.654096
0.654795
0.655776
0.656997
0.657974
0.658949
0.659776
0.656152
0.653845
0.648242
0.643289
0.632885
0.619344
0.606933
0.595228
0.58578
0.579178
0.574101
0.570502
0.5694
0.565162
0.56599
0.565865
0.568006
0.57086
0.575186
0.579724
0.585979
0.595324
0.605209
0.612518
0.617849
0.622252
0.623879
0.623607
0.622442
0.62056
0.618381
0.616281
0.614428
0.612538
0.610574
0.608614
0.606751
0.605113
0.603916
0.603454
0.603913
0.606056
0.608308
0.613347
0.619511
0.626988
0.635356
0.643842
0.651956
0.658445
0.662627
0.664285
0.663768
0.661556
0.658015
0.654154
0.650234
0.646258
0.641939
0.637076
0.632055
0.623894
0.614273
0.603466
0.592642
0.583568
0.568346
0.551472
0.535128
0.521803
0.510352
0.500818
0.495888
0.496487
0.501079
0.510273
0.523165
0.539712
0.559627
0.582852
0.608276
0.633328
0.656284
0.676988
0.697246
0.717799
0.73258
0.739233
0.744852
0.748879
0.750709
0.749111
0.751676
0.75029
0.746281
0.740299
0.732767
0.724831
0.664902
0.668161
0.666681
0.660742
0.651983
0.641838
0.632785
0.627252
0.626709
0.631202
0.634889
0.638157
0.639795
0.642198
0.644335
0.642402
0.641266
0.636665
0.632589
0.623349
0.611566
0.601007
0.590654
0.582782
0.577628
0.570716
0.570751
0.568459
0.567344
0.569887
0.573309
0.57684
0.581329
0.586766
0.592708
0.599037
0.60535
0.610791
0.615031
0.619826
0.623836
0.625729
0.626045
0.624489
0.621885
0.618907
0.616247
0.614053
0.611905
0.609731
0.607588
0.60561
0.603949
0.602685
0.60227
0.602278
0.604188
0.607695
0.612856
0.618911
0.627924
0.637032
0.646819
0.655925
0.662892
0.667201
0.668715
0.667888
0.665222
0.661418
0.657173
0.653104
0.649149
0.645013
0.640533
0.635625
0.628321
0.61951
0.609426
0.599064
0.58917
0.573271
0.556603
0.540911
0.529036
0.517993
0.510413
0.507061
0.508509
0.513883
0.523546
0.537637
0.555877
0.577966
0.602643
0.628271
0.652362
0.67475
0.695793
0.715405
0.735695
0.743376
0.750943
0.757278
0.760155
0.761179
0.759942
0.760756
0.758857
0.754309
0.747544
0.739009
0.729703
0.637585
0.639798
0.638857
0.634696
0.628308
0.620103
0.61303
0.608281
0.608194
0.614013
0.619211
0.623688
0.626122
0.628667
0.630816
0.631706
0.630621
0.62716
0.623713
0.616037
0.606273
0.597522
0.589162
0.582201
0.577153
0.573964
0.572551
0.572178
0.574162
0.576295
0.580294
0.584948
0.589702
0.595027
0.601313
0.607699
0.613082
0.616549
0.619314
0.622995
0.625289
0.625542
0.625343
0.6237
0.620803
0.617562
0.615417
0.612964
0.61054
0.608128
0.60578
0.603632
0.601758
0.599868
0.599315
0.600376
0.602555
0.605383
0.611459
0.618128
0.627165
0.637623
0.648412
0.658456
0.666616
0.671702
0.673523
0.672594
0.669638
0.665156
0.660501
0.656159
0.65226
0.648346
0.644271
0.639363
0.632975
0.624989
0.61585
0.60662
0.595298
0.580568
0.565378
0.551893
0.541241
0.531741
0.526132
0.52388
0.525153
0.530207
0.540307
0.555238
0.574811
0.59788
0.622798
0.647435
0.671305
0.69387
0.715863
0.73924
0.745851
0.755271
0.763876
0.769237
0.771027
0.771455
0.770366
0.769696
0.766932
0.761604
0.75404
0.744495
0.733916
0.619906
0.618301
0.618012
0.615395
0.611236
0.605623
0.600218
0.59718
0.597142
0.602793
0.608225
0.612925
0.615826
0.617923
0.620534
0.622736
0.621841
0.619911
0.616418
0.61086
0.603571
0.596894
0.589913
0.584294
0.580778
0.579014
0.578293
0.579073
0.581475
0.585216
0.588655
0.592959
0.597911
0.602318
0.605888
0.610578
0.61464
0.616871
0.618038
0.618863
0.619431
0.619625
0.620105
0.619978
0.621361
0.614252
0.611735
0.609465
0.607049
0.604481
0.601831
0.59927
0.597487
0.596859
0.596512
0.596583
0.599505
0.602818
0.608037
0.615494
0.62486
0.636141
0.648014
0.659109
0.668011
0.673713
0.675955
0.675358
0.672674
0.668576
0.663781
0.658947
0.655254
0.651701
0.647979
0.643542
0.638045
0.631149
0.623069
0.614957
0.603523
0.590998
0.578179
0.567946
0.558834
0.55237
0.548131
0.546159
0.546841
0.551456
0.561385
0.576521
0.596154
0.618945
0.643078
0.667169
0.690577
0.71378
0.740229
0.744541
0.756531
0.767929
0.775969
0.78043
0.7818
0.781733
0.78023
0.778444
0.774467
0.768133
0.759782
0.749251
0.737441
0.605139
0.602958
0.602648
0.601948
0.599577
0.596076
0.592811
0.590533
0.591987
0.595929
0.600305
0.604752
0.607742
0.609648
0.612619
0.615479
0.614873
0.614936
0.609945
0.607834
0.602931
0.598057
0.59306
0.589056
0.586487
0.584987
0.584112
0.5846
0.586208
0.59004
0.592802
0.595897
0.600471
0.604828
0.606845
0.610696
0.613903
0.615004
0.614266
0.613375
0.613074
0.61107
0.610331
0.610339
0.611372
0.614914
0.608866
0.605605
0.60307
0.600974
0.598391
0.595685
0.593173
0.591914
0.592086
0.592735
0.593949
0.597278
0.602773
0.6105
0.620224
0.632005
0.644747
0.656817
0.666703
0.67332
0.676262
0.676201
0.673873
0.670168
0.665996
0.662126
0.657953
0.65478
0.651692
0.647969
0.643452
0.637889
0.630999
0.623909
0.614246
0.603934
0.594453
0.587151
0.581893
0.577994
0.575241
0.573726
0.573878
0.577656
0.586552
0.600708
0.619409
0.641076
0.663976
0.687034
0.709637
0.73265
0.742306
0.755859
0.768731
0.779574
0.787271
0.791381
0.792077
0.791418
0.789328
0.786939
0.78134
0.774023
0.764804
0.753346
0.740332
0.593984
0.592778
0.593277
0.593395
0.592263
0.590615
0.589349
0.588096
0.588845
0.591167
0.594329
0.597998
0.601069
0.603058
0.606366
0.609628
0.608982
0.61065
0.607594
0.606804
0.603499
0.601037
0.598035
0.594826
0.592435
0.590479
0.589091
0.588355
0.588033
0.58631
0.589436
0.591466
0.594627
0.598687
0.604703
0.608365
0.610374
0.610779
0.609027
0.606666
0.604708
0.602887
0.601377
0.600521
0.600593
0.601212
0.602458
0.602534
0.600408
0.597072
0.594006
0.59128
0.588966
0.586635
0.584422
0.584638
0.586183
0.589434
0.595211
0.602678
0.612653
0.624743
0.638075
0.651018
0.661916
0.669545
0.673577
0.674385
0.672789
0.669701
0.666173
0.663037
0.660318
0.657424
0.655173
0.65249
0.649256
0.645195
0.639933
0.63449
0.626968
0.619503
0.613221
0.609852
0.607452
0.606327
0.605261
0.604429
0.604322
0.606937
0.614149
0.626496
0.643309
0.663106
0.684377
0.706013
0.727696
0.739763
0.752312
0.766553
0.779437
0.789875
0.797148
0.800913
0.801217
0.800383
0.797652
0.794515
0.787795
0.779375
0.769232
0.756906
0.742888
0.586319
0.586584
0.58761
0.587791
0.588317
0.589588
0.585527
0.585716
0.586019
0.587021
0.589086
0.592103
0.595254
0.597529
0.601125
0.604391
0.60683
0.6079
0.606997
0.606931
0.605866
0.604896
0.603593
0.60075
0.597816
0.594967
0.591806
0.588727
0.586029
0.586506
0.588117
0.590275
0.593307
0.596775
0.600165
0.603431
0.605749
0.606027
0.604155
0.601252
0.599097
0.596255
0.594188
0.592533
0.591466
0.591332
0.591564
0.591084
0.589335
0.586533
0.58346
0.580549
0.577908
0.575911
0.57484
0.5752
0.576312
0.579737
0.58442
0.591713
0.601699
0.613946
0.627726
0.64156
0.653657
0.662765
0.668046
0.6697
0.66881
0.666572
0.664165
0.662111
0.660676
0.659753
0.658488
0.657111
0.655443
0.65304
0.649937
0.646414
0.641498
0.63685
0.633263
0.632934
0.633079
0.634007
0.634509
0.634677
0.63461
0.636256
0.641534
0.651515
0.665886
0.683344
0.702351
0.721695
0.734483
0.746645
0.761301
0.775465
0.787994
0.797874
0.80476
0.808289
0.808423
0.807303
0.804716
0.800119
0.793927
0.784409
0.773026
0.760049
0.745198
0.583478
0.583789
0.586077
0.587344
0.587696
0.585009
0.584513
0.583832
0.582733
0.582669
0.584149
0.58716
0.590397
0.593257
0.597169
0.600955
0.604675
0.606289
0.607449
0.60767
0.608645
0.609384
0.609421
0.606902
0.602905
0.597536
0.591713
0.587157
0.58495
0.584142
0.584862
0.587108
0.590471
0.59412
0.597357
0.599802
0.601062
0.601977
0.599972
0.596635
0.593319
0.590593
0.587904
0.585628
0.583207
0.581702
0.580443
0.579672
0.577922
0.575084
0.572386
0.569459
0.566338
0.564611
0.564014
0.563669
0.56432
0.566359
0.570575
0.577481
0.587066
0.599303
0.613644
0.628643
0.642407
0.653141
0.659899
0.662602
0.66257
0.661137
0.660039
0.659744
0.660297
0.661014
0.662018
0.662217
0.662077
0.661242
0.660503
0.659048
0.656705
0.654216
0.652856
0.654487
0.656652
0.658911
0.66065
0.661433
0.661444
0.662199
0.665598
0.673132
0.684821
0.699531
0.715421
0.726951
0.738685
0.753126
0.767711
0.781617
0.79327
0.802461
0.809226
0.812855
0.813616
0.812363
0.809456
0.804898
0.798579
0.789234
0.776914
0.762984
0.747342
0.58344
0.583564
0.583718
0.583845
0.584739
0.58434
0.582682
0.581165
0.57969
0.579164
0.580307
0.583356
0.587118
0.590615
0.594709
0.599165
0.604055
0.605662
0.609113
0.608999
0.612208
0.614417
0.615515
0.613085
0.607527
0.599832
0.591928
0.58607
0.582415
0.580786
0.580958
0.583114
0.586577
0.590406
0.593779
0.596249
0.597391
0.597157
0.596068
0.593148
0.589671
0.585506
0.582406
0.5798
0.576695
0.573538
0.570939
0.568028
0.565477
0.562177
0.559162
0.556659
0.555048
0.553245
0.552107
0.550332
0.549496
0.550821
0.554019
0.560189
0.56925
0.581424
0.595904
0.611942
0.627474
0.640013
0.648272
0.65233
0.654288
0.654274
0.655098
0.656671
0.659271
0.662419
0.665131
0.667389
0.669195
0.669811
0.670883
0.671686
0.671947
0.671557
0.671081
0.673897
0.676977
0.679583
0.681637
0.68258
0.682342
0.68209
0.683649
0.688864
0.697962
0.709986
0.719416
0.729406
0.742205
0.756573
0.771119
0.78437
0.795244
0.803794
0.810377
0.814537
0.816014
0.815029
0.812277
0.807923
0.801593
0.794037
0.781533
0.766298
0.749804
0.58249
0.582387
0.58295
0.583447
0.583587
0.582805
0.581273
0.579322
0.577573
0.577141
0.578163
0.581158
0.585273
0.589387
0.59372
0.598588
0.603873
0.606864
0.610544
0.612588
0.616011
0.619266
0.620915
0.618875
0.612203
0.602089
0.592253
0.584848
0.579506
0.577149
0.576867
0.578973
0.582618
0.586562
0.590137
0.592788
0.594192
0.594356
0.593547
0.591072
0.587565
0.582826
0.577667
0.574778
0.571163
0.567511
0.563323
0.559406
0.555608
0.552477
0.549494
0.546726
0.543525
0.541652
0.538039
0.534706
0.532925
0.532745
0.535422
0.540631
0.549291
0.559996
0.573259
0.589238
0.606285
0.622136
0.633795
0.640494
0.64255
0.644966
0.649558
0.653885
0.658745
0.663984
0.668868
0.672982
0.676254
0.679163
0.681585
0.685018
0.68646
0.686597
0.686909
0.690247
0.693978
0.695998
0.697418
0.697702
0.696675
0.694879
0.694396
0.697544
0.705209
0.711989
0.720126
0.730169
0.743159
0.757627
0.771868
0.784513
0.794889
0.803105
0.809689
0.814311
0.816464
0.815757
0.81357
0.809547
0.803978
0.796532
0.786533
0.77125
0.753386
0.583478
0.58269
0.582427
0.582247
0.58232
0.581575
0.580213
0.578587
0.577056
0.576561
0.577557
0.580432
0.584694
0.589114
0.593898
0.599068
0.604346
0.608921
0.612246
0.616053
0.617203
0.622009
0.624209
0.622501
0.615345
0.604324
0.592948
0.583957
0.577676
0.573799
0.572913
0.574948
0.578848
0.583021
0.586787
0.589622
0.591242
0.591644
0.59093
0.589039
0.586668
0.580864
0.575834
0.569907
0.565603
0.561116
0.556011
0.551131
0.546719
0.542843
0.539306
0.535858
0.532461
0.527448
0.52251
0.518084
0.514279
0.514089
0.515335
0.519404
0.525246
0.531022
0.539408
0.551745
0.568692
0.587974
0.605315
0.618436
0.629415
0.637644
0.642664
0.650953
0.658596
0.665971
0.672711
0.678624
0.683499
0.687651
0.691005
0.695042
0.699932
0.700887
0.702265
0.704173
0.708463
0.708838
0.708246
0.707143
0.704655
0.700972
0.698591
0.700142
0.703852
0.710772
0.71889
0.72918
0.741847
0.756443
0.770111
0.782442
0.792387
0.800742
0.807351
0.811629
0.813861
0.814927
0.814043
0.810415
0.805509
0.798667
0.789574
0.777328
0.759784
0.584692
0.583046
0.582123
0.581759
0.58138
0.580889
0.579818
0.578621
0.577604
0.577115
0.578351
0.581048
0.585366
0.589974
0.595075
0.600469
0.605914
0.611196
0.614275
0.618147