/*--------------------------------*- C++ -*----------------------------------*\
  =========                 |
  \\      /  F ield         | OpenFOAM: The Open Source CFD Toolbox
   \\    /   O peration     | Website:  https://openfoam.org
    \\  /    A nd           | Version:  10
     \\/     M anipulation  |
\*---------------------------------------------------------------------------*/
FoamFile
{
    format      ascii;
    class       surfaceScalarField;
    location    "0.750416";
    object      phi;
}
// * * * * * * * * * * * * * * * * * * * * * * * * * * * * * * * * * * * * * //

dimensions      [1 0 -1 0 0 0 0];

internalField   nonuniform List<scalar> 
32368
(
-9.22216e-05
-4.39258e-05
-7.78832e-05
-4.65235e-05
-6.18394e-05
-4.56781e-05
-4.48198e-05
-4.09405e-05
-2.89801e-05
-3.24502e-05
-1.64985e-05
-2.21111e-05
-7.37168e-06
-1.23711e-05
-1.48849e-07
-3.79602e-06
5.8479e-06
5.44786e-06
1.08293e-05
1.59103e-05
1.91242e-05
2.89252e-05
2.51399e-05
5.54278e-05
2.6507e-05
8.92573e-05
2.45899e-05
9.88034e-05
1.91511e-05
9.50311e-05
1.37016e-05
7.56423e-05
1.16769e-05
5.56061e-05
1.14878e-05
4.42279e-05
1.27909e-05
3.99121e-05
1.49798e-05
3.67913e-05
1.77649e-05
3.4388e-05
2.0772e-05
3.28481e-05
2.37877e-05
3.20973e-05
2.67125e-05
3.19757e-05
2.95422e-05
3.23127e-05
3.23649e-05
3.30147e-05
3.52795e-05
3.40937e-05
3.83728e-05
3.55581e-05
4.16965e-05
3.73638e-05
4.53644e-05
3.95279e-05
4.95321e-05
4.21235e-05
5.41878e-05
4.51888e-05
5.97151e-05
4.8849e-05
6.64376e-05
5.39183e-05
7.45696e-05
6.04119e-05
8.53129e-05
6.9692e-05
0.000100493
8.36549e-05
0.00012069
0.000103511
0.000146654
0.00013548
0.000177404
0.000185476
0.000207891
0.000264775
0.000238409
0.000365931
0.000273335
0.000469054
0.000309577
0.000566873
0.000351091
0.000644508
0.000394712
0.000700335
0.000432457
0.000729696
0.000462195
0.0007215
0.00048146
0.000690435
0.000487517
0.000648115
0.000470085
0.000581855
0.000413117
0.000490928
0.000329103
0.000370672
0.000259836
0.00025893
0.000193141
0.000165946
0.000136442
9.04079e-05
0.000100425
4.16818e-05
8.3359e-05
1.7078e-05
7.60216e-05
5.23783e-06
7.20008e-05
-5.81132e-07
7.59243e-05
-2.33128e-06
7.46743e-05
-3.06213e-06
6.72195e-05
-6.30737e-06
5.63643e-05
-1.25623e-05
4.21743e-05
-2.1673e-05
3.46008e-05
-3.16711e-05
3.08327e-05
-4.38985e-05
3.14094e-05
-5.83931e-05
3.23141e-05
-7.44928e-05
3.53139e-05
-9.22357e-05
4.08774e-05
-0.000110298
4.7168e-05
-0.000122278
5.29069e-05
-0.000123888
5.74868e-05
-0.000119698
5.71651e-05
-0.000111574
4.49632e-05
-9.86183e-05
2.4027e-05
-7.81058e-05
1.24494e-05
-5.5429e-05
8.01108e-06
-5.11798e-05
6.34759e-06
-5.44743e-05
9.3243e-06
-6.44588e-05
1.68664e-05
-9.12897e-05
2.78769e-05
-0.000120723
4.00843e-05
-0.000150608
4.97949e-05
-0.000170582
5.7462e-05
-0.000172954
6.51594e-05
-0.000163313
7.20335e-05
-0.000142172
8.04117e-05
-0.000114048
9.33958e-05
-7.86052e-05
0.000109892
-4.37054e-05
0.000126435
-1.12791e-05
0.000139183
1.69671e-05
0.000143841
3.63364e-05
0.000147668
4.81226e-05
0.000148598
5.09672e-05
0.00014013
4.47814e-05
0.000112975
3.01676e-05
7.76663e-05
1.1038e-05
5.65069e-05
-9.71616e-06
3.64865e-05
-4.07286e-05
1.00965e-05
-8.74523e-05
-1.53551e-05
-0.000131538
-2.49226e-05
-0.000147032
-2.65751e-05
-0.000122578
-2.95286e-05
-0.000117607
-4.18947e-05
-0.000129152
-5.45389e-05
-0.000179048
-6.34119e-05
-0.000183258
-6.88176e-05
-0.000165342
-7.22947e-05
-0.00014186
-6.6812e-05
-0.000112506
-7.22885e-05
-6.78419e-05
-0.000103587
-4.72871e-05
-8.97564e-05
-5.19785e-05
-7.29701e-05
-5.3173e-05
-5.4171e-05
-4.9601e-05
-3.65709e-05
-4.0992e-05
-2.18357e-05
-2.9641e-05
-1.1414e-05
-1.77394e-05
-3.51892e-06
-7.45132e-06
2.7515e-06
3.14708e-06
6.90859e-06
1.54961e-05
9.91764e-06
2.87911e-05
1.67823e-05
4.80498e-05
1.83466e-05
8.61453e-05
1.68219e-05
0.000107262
1.26429e-05
0.000104745
8.33374e-06
8.65346e-05
6.59838e-06
6.30657e-05
6.5469e-06
4.68081e-05
7.45711e-06
3.90416e-05
9.30689e-06
3.45416e-05
1.17307e-05
3.12104e-05
1.43717e-05
2.91567e-05
1.69743e-05
2.82001e-05
1.94829e-05
2.80042e-05
2.18649e-05
2.82958e-05
2.42113e-05
2.89004e-05
2.66135e-05
2.97859e-05
2.91302e-05
3.09464e-05
3.18114e-05
3.23386e-05
3.46947e-05
3.4034e-05
3.7855e-05
3.60519e-05
4.12711e-05
3.84659e-05
4.51107e-05
4.13476e-05
4.94881e-05
4.51412e-05
5.45601e-05
4.99756e-05
6.09894e-05
5.67122e-05
6.93667e-05
6.64211e-05
8.05988e-05
8.01765e-05
9.62442e-05
0.00010175
0.000118964
0.000135127
0.000150009
0.000186977
0.000185159
0.00026132
0.00022345
0.000352863
0.000268124
0.000457311
0.000314849
0.000557527
0.000363349
0.000637861
0.000403471
0.000687714
0.000432773
0.000699553
0.00045544
0.000678837
0.000465975
0.000640837
0.00045946
0.000580472
0.000415551
0.000499521
0.000342931
0.00038594
0.000266452
0.000273184
0.000193067
0.000168782
0.000132721
8.89358e-05
9.73471e-05
4.08668e-05
8.23275e-05
1.9283e-05
7.54745e-05
9.36798e-06
7.39305e-05
4.70714e-06
7.77562e-05
4.71037e-06
7.43562e-05
3.57537e-06
6.61234e-05
-1.54292e-06
5.3054e-05
-9.17486e-06
4.03516e-05
-2.01982e-05
3.36264e-05
-3.11509e-05
3.11416e-05
-4.4162e-05
3.04144e-05
-5.76262e-05
3.05693e-05
-7.16935e-05
3.37108e-05
-8.8844e-05
3.96157e-05
-0.000106561
4.59416e-05
-0.000117098
5.16439e-05
-0.000117225
5.63218e-05
-0.000111944
5.65627e-05
-0.00010269
4.62086e-05
-8.92203e-05
2.65096e-05
-6.98639e-05
1.49403e-05
-4.96104e-05
1.03002e-05
-4.58979e-05
8.19538e-06
-4.91419e-05
1.04249e-05
-5.58719e-05
1.68379e-05
-7.44825e-05
2.70637e-05
-9.85556e-05
4.01959e-05
-0.000128266
5.2555e-05
-0.000153469
6.25363e-05
-0.000162979
7.14258e-05
-0.000158381
8.05132e-05
-0.000140909
8.86956e-05
-0.000115345
9.90722e-05
-8.16424e-05
0.000113575
-4.68816e-05
0.000130986
-1.32439e-05
0.000145597
1.68408e-05
0.000154151
4.07778e-05
0.000157215
5.59971e-05
0.000159594
6.2708e-05
0.000156418
6.11725e-05
0.00014285
5.12161e-05
0.000110607
3.10124e-05
8.6679e-05
1.08616e-05
6.64074e-05
-1.97683e-05
4.25203e-05
-6.25346e-05
1.03636e-05
-0.000113095
-1.60787e-05
-0.000149655
-2.06001e-05
-0.000140064
-2.54432e-05
-0.000119429
-3.41395e-05
-0.000122191
-4.80698e-05
-0.000170299
-5.76748e-05
-0.000182561
-6.37973e-05
-0.000164897
-6.75994e-05
-0.00014055
-6.35681e-05
-0.0001107
-6.94513e-05
-6.39047e-05
-0.000109956
-4.76969e-05
-9.71853e-05
-5.40773e-05
-8.13002e-05
-5.70617e-05
-6.30467e-05
-5.49866e-05
-4.50032e-05
-4.73175e-05
-2.95888e-05
-3.58801e-05
-1.81096e-05
-2.30947e-05
-9.83644e-06
-1.10823e-05
-3.4604e-06
1.24209e-06
9.32744e-07
1.52495e-05
3.28103e-06
3.0397e-05
5.12504e-06
4.95991e-05
6.78728e-06
8.54087e-05
5.47411e-06
0.000111489
3.23395e-06
0.000112002
1.32962e-06
9.41319e-05
9.56702e-07
6.89423e-05
1.52796e-06
4.86713e-05
2.54556e-06
3.83594e-05
4.11042e-06
3.25635e-05
6.10257e-06
2.84999e-05
8.24131e-06
2.60606e-05
1.0319e-05
2.49528e-05
1.23231e-05
2.47015e-05
1.42064e-05
2.49604e-05
1.60549e-05
2.54761e-05
1.79315e-05
2.62022e-05
1.9901e-05
2.71114e-05
2.20075e-05
2.8192e-05
2.43233e-05
2.95134e-05
2.68672e-05
3.11109e-05
2.96361e-05
3.30698e-05
3.2659e-05
3.54838e-05
3.60298e-05
3.85364e-05
3.98405e-05
4.24961e-05
4.43734e-05
4.78953e-05
4.99413e-05
5.54022e-05
5.72694e-05
6.5999e-05
6.75212e-05
8.20404e-05
8.22428e-05
0.000105963
0.000103538
0.000141814
0.000132302
0.000193734
0.000169735
0.000261946
0.000213707
0.000346261
0.00026392
0.000441648
0.000314019
0.000535861
0.000363468
0.000605707
0.000398791
0.000644961
0.000422073
0.000639006
0.000442034
0.000610262
0.00043943
0.00055973
0.000407438
0.000486447
0.000341069
0.000383582
0.000266965
0.000270764
0.000181914
0.000168654
0.000121596
7.99129e-05
9.17196e-05
3.86357e-05
8.03475e-05
2.13724e-05
7.46365e-05
1.35254e-05
7.65818e-05
1.07414e-05
7.86455e-05
1.1793e-05
7.31866e-05
9.18045e-06
6.42275e-05
2.4405e-06
4.88858e-05
-7.63213e-06
3.88796e-05
-1.91788e-05
3.3031e-05
-3.11943e-05
3.10051e-05
-4.42109e-05
2.86876e-05
-5.60204e-05
2.88169e-05
-6.90942e-05
3.24874e-05
-8.62305e-05
3.86563e-05
-0.000103133
4.47526e-05
-0.000111438
5.0064e-05
-0.000109895
5.43921e-05
-0.000103185
5.39385e-05
-9.2163e-05
4.48023e-05
-7.76831e-05
2.75465e-05
-6.01128e-05
1.66424e-05
-4.37935e-05
1.20947e-05
-4.07091e-05
9.92623e-06
-4.36126e-05
1.10132e-05
-4.80457e-05
1.60786e-05
-5.89063e-05
2.4943e-05
-7.73357e-05
3.81757e-05
-0.00010505
5.27601e-05
-0.000133746
6.55109e-05
-0.000149658
7.60938e-05
-0.00015081
8.56287e-05
-0.000137101
9.56536e-05
-0.000113725
0.000103513
-8.28235e-05
0.000115827
-4.87452e-05
0.000132433
-1.50959e-05
0.000148111
1.57912e-05
0.00015975
4.29751e-05
0.000164269
6.1301e-05
0.000166559
7.2072e-05
0.000165842
7.38261e-05
0.000159587
6.7589e-05
0.000139247
5.20795e-05
0.000114259
2.90458e-05
9.42268e-05
4.06272e-07
7.22435e-05
-4.02907e-05
4.09224e-05
-9.0787e-05
5.4204e-06
-0.000139368
-1.56256e-05
-0.000151981
-2.03227e-05
-0.000125121
-2.65299e-05
-0.000121155
-4.17393e-05
-0.000159751
-5.24931e-05
-0.000181788
-5.90327e-05
-0.000164333
-6.27383e-05
-0.000138824
-5.92641e-05
-0.000106609
-6.5128e-05
-6.07857e-05
-0.000114213
-4.59352e-05
-0.00010265
-5.37504e-05
-8.80546e-05
-5.82182e-05
-7.09307e-05
-5.77551e-05
-5.33654e-05
-5.13922e-05
-3.80952e-05
-4.00141e-05
-2.73764e-05
-2.71944e-05
-1.93643e-05
-1.40214e-05
-1.29012e-05
2.49356e-07
-8.41088e-06
1.59174e-05
-5.89496e-06
3.2265e-05
-6.03026e-06
5.35856e-05
-7.59765e-06
8.99351e-05
-7.61376e-06
0.000113049
-8.03888e-06
0.000115895
-7.23772e-06
9.8472e-05
-5.43545e-06
7.1857e-05
-3.4981e-06
4.8823e-05
-2.06604e-06
3.70988e-05
-6.40014e-07
3.06998e-05
9.09153e-07
2.62131e-05
2.48962e-06
2.35e-05
4.07328e-06
2.21996e-05
5.57182e-06
2.18718e-05
6.99871e-06
2.20342e-05
8.36485e-06
2.2481e-05
9.74775e-06
2.30546e-05
1.1207e-05
2.37368e-05
1.27964e-05
2.45318e-05
1.45476e-05
2.55178e-05
1.64711e-05
2.67314e-05
1.85929e-05
2.82458e-05
2.0955e-05
3.01382e-05
2.35723e-05
3.25538e-05
2.65685e-05
3.57001e-05
3.00665e-05
4.00053e-05
3.42828e-05
4.59323e-05
3.97195e-05
5.42948e-05
4.71407e-05
6.65059e-05
5.75207e-05
8.41622e-05
7.24431e-05
0.000109779
9.36772e-05
0.000146374
0.000122744
0.0001962
0.000160989
0.000260847
0.000208798
0.000339595
0.000261688
0.000427504
0.000310531
0.000501535
0.000352882
0.000555247
0.000380307
0.000566557
0.0004022
0.000547354
0.000405745
0.000515827
0.000375928
0.000445828
0.000332994
0.000365082
0.00024555
0.00026136
0.000158976
0.000133253
0.000106833
6.49889e-05
8.54967e-05
3.55074e-05
7.77153e-05
2.34654e-05
7.46794e-05
1.7792e-05
7.88836e-05
1.81102e-05
7.80899e-05
1.82606e-05
7.13244e-05
1.35983e-05
6.04808e-05
5.32679e-06
4.53012e-05
-7.21014e-06
3.72891e-05
-1.88237e-05
3.26692e-05
-3.11153e-05
3.03182e-05
-4.33091e-05
2.74454e-05
-5.45907e-05
2.79822e-05
-6.74341e-05
3.22183e-05
-8.35297e-05
3.83576e-05
-9.83845e-05
4.3976e-05
-0.000104882
4.85192e-05
-0.000102425
5.21385e-05
-9.45295e-05
4.99906e-05
-8.24331e-05
4.1267e-05
-6.64912e-05
2.69239e-05
-4.98476e-05
1.79603e-05
-3.79437e-05
1.36598e-05
-3.63478e-05
1.13838e-05
-3.9048e-05
1.13166e-05
-4.17924e-05
1.48977e-05
-4.59446e-05
2.2097e-05
-5.82669e-05
3.4778e-05
-8.32438e-05
5.10411e-05
-0.00011325
6.66712e-05
-0.000134489
7.95391e-05
-0.000141323
8.95827e-05
-0.000131185
9.95104e-05
-0.000110161
0.000105812
-8.15126e-05
0.000116053
-4.91888e-05
0.000129682
-1.66366e-05
0.000147345
1.51658e-05
0.000160303
4.37065e-05
0.000168232
6.60512e-05
0.000170391
7.89983e-05
0.000170824
8.40646e-05
0.000167515
8.0779e-05
0.000156897
6.90255e-05
0.000137476
4.6817e-05
0.00011957
1.90524e-05
9.79956e-05
-2.0719e-05
6.72918e-05
-7.02154e-05
2.74787e-05
-0.000122189
-2.18094e-06
-0.00015186
-1.41204e-05
-0.000130852
-2.00974e-05
-0.000122211
-3.54082e-05
-0.000148222
-4.76666e-05
-0.000180458
-5.4809e-05
-0.000163434
-5.83557e-05
-0.000136557
-5.42001e-05
-0.000100669
-5.99624e-05
-5.78388e-05
-0.000118343
-4.20844e-05
-0.000108163
-5.10985e-05
-9.53496e-05
-5.69119e-05
-7.99464e-05
-5.81548e-05
-6.32543e-05
-5.32599e-05
-4.92137e-05
-4.21688e-05
-3.98432e-05
-2.97359e-05
-3.25233e-05
-1.57654e-05
-2.60879e-05
7.08226e-08
-2.12961e-05
1.78957e-05
-1.89297e-05
3.579e-05
-2.12364e-05
6.02469e-05
-2.36351e-05
9.53401e-05
-2.16124e-05
0.000112885
-1.96673e-05
0.00011476
-1.56172e-05
9.88739e-05
-1.10459e-05
7.13099e-05
-7.77346e-06
4.74195e-05
-6.20943e-06
3.56634e-05
-4.96446e-06
2.89826e-05
-3.79028e-06
2.4233e-05
-2.60227e-06
2.12456e-05
-1.42738e-06
1.97617e-05
-2.97367e-07
1.93104e-05
7.49725e-07
1.94187e-05
1.76834e-06
1.97782e-05
2.78312e-06
2.02377e-05
3.84649e-06
2.0752e-05
4.98491e-06
2.13429e-05
6.22785e-06
2.20628e-05
7.5823e-06
2.29629e-05
9.06783e-06
2.40951e-05
1.07241e-05
2.55104e-05
1.26185e-05
2.73075e-05
1.47975e-05
2.97046e-05
1.74156e-05
3.29375e-05
2.06337e-05
3.74374e-05
2.47491e-05
4.38041e-05
3.02569e-05
5.28479e-05
3.78935e-05
6.55864e-05
4.8774e-05
8.36888e-05
6.4455e-05
0.000109353
8.6828e-05
0.000144829
0.000117749
0.000192387
0.000158494
0.000252842
0.000205882
0.000324582
0.000253996
0.000391499
0.000292402
0.000445826
0.000324617
0.000459525
0.000342932
0.000454611
0.000346722
0.000419991
0.000341633
0.000375032
0.000293945
0.000304484
0.000198223
0.000182835
0.00012578
9.77251e-05
9.17047e-05
5.16969e-05
7.98085e-05
3.38559e-05
7.50927e-05
2.58109e-05
7.6408e-05
2.35916e-05
7.97384e-05
2.55372e-05
7.62592e-05
2.36783e-05
6.87373e-05
1.68214e-05
5.53792e-05
6.59587e-06
4.24568e-05
-7.5057e-06
3.58663e-05
-1.88262e-05
3.29732e-05
-3.06911e-05
2.97883e-05
-4.2541e-05
2.71218e-05
-5.34715e-05
2.75451e-05
-6.52404e-05
3.16167e-05
-7.76213e-05
3.78337e-05
-8.89918e-05
4.34595e-05
-9.58086e-05
4.76639e-05
-9.47544e-05
5.07889e-05
-8.74546e-05
4.83259e-05
-7.72459e-05
3.95457e-05
-6.24197e-05
2.65728e-05
-4.55451e-05
1.90824e-05
-3.46161e-05
1.5334e-05
-3.29929e-05
1.32994e-05
-3.55802e-05
1.25344e-05
-3.82212e-05
1.3324e-05
-3.97441e-05
1.93576e-05
-4.38052e-05
3.12757e-05
-6.53827e-05
4.84766e-05
-9.49446e-05
6.67596e-05
-0.000119503
8.19634e-05
-0.000130846
9.27994e-05
-0.000124204
0.00010201
-0.000105467
0.000107629
-7.97425e-05
0.000114701
-4.73714e-05
0.000125404
-1.6839e-05
0.000142936
1.48349e-05
0.000158982
4.36798e-05
0.000168291
6.86663e-05
0.00017228
8.50608e-05
0.000172436
9.25941e-05
0.000170381
9.16152e-05
0.000163901
8.24285e-05
0.000150886
6.32957e-05
0.000136465
3.64704e-05
0.000116095
-2.17842e-06
8.66887e-05
-5.14048e-05
4.69507e-05
-0.000104795
1.11381e-05
-0.000142342
-8.25396e-06
-0.000134491
-1.4994e-05
-0.000123116
-2.91016e-05
-0.000139712
-4.29496e-05
-0.00017833
-5.11592e-05
-0.00016209
-5.452e-05
-0.000133178
-4.97634e-05
-9.36889e-05
-5.49133e-05
-5.55397e-05
-0.000121963
-3.59735e-05
-0.000113473
-4.59357e-05
-0.000103287
-5.28328e-05
-9.03492e-05
-5.568e-05
-7.51979e-05
-5.22545e-05
-6.36666e-05
-4.21196e-05
-5.61732e-05
-3.04323e-05
-4.97128e-05
-1.60663e-05
-4.34395e-05
1.19018e-06
-3.89502e-05
2.0762e-05
-3.71159e-05
4.2316e-05
-4.07835e-05
7.01006e-05
-4.03403e-05
9.87656e-05
-3.60506e-05
0.000110924
-3.09983e-05
0.000110766
-2.35808e-05
9.47053e-05
-1.63691e-05
6.7532e-05
-1.19043e-05
4.52092e-05
-1.01417e-05
3.41886e-05
-8.95648e-06
2.74361e-05
-7.86045e-06
2.23278e-05
-6.84564e-06
1.90158e-05
-5.88157e-06
1.73929e-05
-4.99408e-06
1.68994e-05
-4.18337e-06
1.69915e-05
-3.40919e-06
1.73195e-05
-2.63799e-06
1.77238e-05
-1.83928e-06
1.8149e-05
-1.00296e-06
1.86263e-05
-1.20139e-07
1.91945e-05
7.96256e-07
1.99222e-05
1.75096e-06
2.08355e-05
2.78562e-06
2.19397e-05
3.96984e-06
2.32906e-05
5.4144e-06
2.50176e-05
7.19925e-06
2.73521e-05
9.47588e-06
3.06124e-05
1.2459e-05
3.52041e-05
1.64326e-05
4.1654e-05
2.19456e-05
5.04975e-05
2.98007e-05
6.28568e-05
4.12347e-05
8.02054e-05
5.77801e-05
0.000104234
8.11571e-05
0.000136696
0.000112542
0.000178622
0.000150868
0.000228901
0.000190549
0.000279058
0.000226924
0.000319471
0.000245706
0.000334367
0.000266486
0.000322615
0.000272199
0.000303571
0.00026972
0.000257691
0.000197686
0.00018693
0.000138937
0.000114815
9.41576e-05
6.3615e-05
7.97882e-05
4.27319e-05
7.51078e-05
3.35372e-05
7.43296e-05
2.96065e-05
7.84761e-05
3.11688e-05
7.89157e-05
3.18199e-05
7.36563e-05
2.73784e-05
6.51469e-05
1.86684e-05
4.96818e-05
5.13115e-06
4.06343e-05
-7.76101e-06
3.52027e-05
-1.89917e-05
3.30907e-05
-3.02997e-05
2.95999e-05
-4.1587e-05
2.67852e-05
-5.19589e-05
2.60071e-05
-6.0608e-05
2.86045e-05
-6.71915e-05
3.53064e-05
-7.43176e-05
4.22767e-05
-8.26843e-05
4.74157e-05
-8.58569e-05
5.07044e-05
-8.14678e-05
4.92399e-05
-7.3575e-05
4.06207e-05
-6.10075e-05
2.81531e-05
-4.42746e-05
2.09363e-05
-3.28889e-05
1.72893e-05
-3.07743e-05
1.52915e-05
-3.27217e-05
1.41994e-05
-3.54389e-05
1.43403e-05
-3.68571e-05
1.73374e-05
-3.81825e-05
2.90608e-05
-5.30868e-05
4.6715e-05
-8.14899e-05
6.69864e-05
-0.000107154
8.43875e-05
-0.000120888
9.62933e-05
-0.000116782
0.000105046
-9.99738e-05
0.000110865
-7.59996e-05
0.000113987
-4.53868e-05
0.00012145
-1.56429e-05
0.000133754
1.41482e-05
0.000153723
4.37045e-05
0.000165747
7.08449e-05
0.000171347
8.98815e-05
0.000171974
9.95574e-05
0.000169953
0.000100895
0.000165342
9.32095e-05
0.000156941
7.66641e-05
0.000144771
5.11085e-05
0.000126092
1.37145e-05
9.79086e-05
-3.4895e-05
6.00388e-05
-8.91149e-05
2.36702e-05
-0.000131253
5.97976e-07
-0.000133087
-9.70984e-06
-0.000121652
-2.30156e-05
-0.000133578
-3.85666e-05
-0.000175037
-4.80541e-05
-0.000160004
-5.13497e-05
-0.000128374
-4.7147e-05
-8.65282e-05
-5.02799e-05
-5.43186e-05
-0.000125376
-2.77047e-05
-0.000118657
-3.84042e-05
-0.00011124
-4.63103e-05
-0.000101237
-5.05949e-05
-8.79631e-05
-4.83264e-05
-8.06048e-05
-4.00473e-05
-7.59708e-05
-2.89054e-05
-7.14499e-05
-1.45238e-05
-6.71089e-05
3.01497e-06
-6.29284e-05
2.46449e-05
-6.12891e-05
4.89131e-05
-6.19322e-05
7.56855e-05
-5.64613e-05
9.67299e-05
-4.94848e-05
0.000105349
-4.09353e-05
0.00010287
-3.03243e-05
8.6199e-05
-2.11416e-05
6.21632e-05
-1.60605e-05
4.32746e-05
-1.39696e-05
3.30592e-05
-1.24263e-05
2.57803e-05
-1.10439e-05
2.00657e-05
-9.9968e-06
1.65921e-05
-9.11406e-06
1.49777e-05
-8.39755e-06
1.45686e-05
-7.75913e-06
1.46812e-05
-7.11515e-06
1.49728e-05
-6.46669e-06
1.53551e-05
-5.79549e-06
1.57385e-05
-5.13129e-06
1.6193e-05
-4.47159e-06
1.67193e-05
-3.87464e-06
1.74438e-05
-3.33907e-06
1.83384e-05
-2.79575e-06
1.93437e-05
-2.15124e-06
2.04836e-05
-1.31124e-06
2.18007e-05
-2.05189e-07
2.35209e-05
1.26351e-06
2.58704e-05
3.23798e-06
2.90929e-05
5.97972e-06
3.35122e-05
9.8339e-06
3.94971e-05
1.53028e-05
4.77228e-05
2.32183e-05
5.89957e-05
3.45668e-05
7.43172e-05
5.05299e-05
9.45504e-05
7.2144e-05
0.000119964
9.83859e-05
0.000150351
0.000126871
0.000180771
0.000151927
0.000204515
0.000170158
0.000210839
0.000175746
0.000203147
0.000187443
0.000179885
0.000153802
0.000150016
0.000124142
0.000104058
9.05132e-05
6.85438e-05
7.72179e-05
4.88554e-05
7.33544e-05
3.98834e-05
7.22515e-05
3.57446e-05
7.59711e-05
3.63453e-05
7.87732e-05
3.80526e-05
7.6658e-05
3.64397e-05
7.0786e-05
2.94453e-05
5.96595e-05
1.86264e-05
4.5923e-05
2.9342e-06
3.94359e-05
-8.73867e-06
3.54609e-05
-1.95208e-05
3.394e-05
-3.01228e-05
3.05111e-05
-4.07153e-05
2.68148e-05
-4.93053e-05
2.38174e-05
-5.39445e-05
2.37803e-05
-5.56028e-05
2.9893e-05
-5.74042e-05
3.90929e-05
-6.6241e-05
4.72616e-05
-7.47117e-05
5.20212e-05
-7.53616e-05
5.28044e-05
-7.01134e-05
4.51689e-05
-6.19768e-05
3.19849e-05
-4.70753e-05
2.41652e-05
-3.38076e-05
2.00873e-05
-3.03538e-05
1.77303e-05
-3.09881e-05
1.63459e-05
-3.29977e-05
1.59672e-05
-3.44918e-05
1.81499e-05
-3.55877e-05
2.91091e-05
-4.65892e-05
4.77147e-05
-7.38143e-05
6.89484e-05
-9.99354e-05
8.74729e-05
-0.000113063
9.98249e-05
-0.000109554
0.000107842
-9.35158e-05
0.000113579
-7.05808e-05
0.000114223
-4.23849e-05
0.000118858
-1.32709e-05
0.000126342
1.52745e-05
0.00014495
4.36397e-05
0.000160852
7.14503e-05
0.000167856
9.37402e-05
0.000169705
0.000105934
0.000167076
0.00010847
0.000163337
0.000102091
0.00015714
8.723e-05
0.00014729
6.24674e-05
0.000130863
2.65772e-05
0.000103686
-2.09317e-05
6.755e-05
-7.59131e-05
3.27359e-05
-0.000120629
6.97016e-06
-0.000128781
-4.85329e-06
-0.000120143
-1.77877e-05
-0.00012995
-3.47716e-05
-0.00017059
-4.55141e-05
-0.000156785
-4.89499e-05
-0.000122151
-4.62803e-05
-7.90773e-05
-4.58058e-05
-5.43271e-05
-0.000128778
-1.72563e-05
-0.000124044
-2.8973e-05
-0.000119517
-3.77097e-05
-0.000112318
-4.31036e-05
-0.000100883
-4.20725e-05
-9.65403e-05
-3.5522e-05
-9.50341e-05
-2.53191e-05
-9.43318e-05
-1.15602e-05
-9.43656e-05
5.87078e-06
-9.10884e-05
2.70964e-05
-8.52178e-05
5.0609e-05
-7.90988e-05
7.30105e-05
-6.97186e-05
8.92708e-05
-6.00268e-05
9.57308e-05
-4.82451e-05
9.1675e-05
-3.55297e-05
7.64692e-05
-2.56175e-05
5.71251e-05
-2.00253e-05
4.13288e-05
-1.69848e-05
3.11707e-05
-1.46037e-05
2.30119e-05
-1.29503e-05
1.71227e-05
-1.16828e-05
1.37461e-05
-1.07571e-05
1.23656e-05
-1.01543e-05
1.22208e-05
-9.63972e-06
1.24008e-05
-9.05832e-06
1.26311e-05
-8.5697e-06
1.31343e-05
-8.05866e-06
1.35371e-05
-7.63559e-06
1.41108e-05
-7.25895e-06
1.46943e-05
-7.04319e-06
1.55774e-05
-6.96886e-06
1.65575e-05
-6.93168e-06
1.7516e-05
-6.73179e-06
1.8403e-05
-6.2421e-06
1.94191e-05
-5.4762e-06
2.08021e-05
-4.46865e-06
2.27374e-05
-3.19301e-06
2.53048e-05
-1.45764e-06
2.84538e-05
1.17184e-06
3.23483e-05
4.95078e-06
3.76639e-05
1.02829e-05
4.49014e-05
1.76799e-05
5.43837e-05
2.7741e-05
6.63667e-05
4.0736e-05
8.08167e-05
5.68081e-05
9.69156e-05
7.42986e-05
0.000112633
8.97698e-05
0.00012408
0.000101045
0.000125875
0.000108163
0.000120561
0.000102965
0.000106417
9.30625e-05
8.71766e-05
7.97167e-05
6.69926e-05
7.19421e-05
5.26358e-05
6.93583e-05
4.47908e-05
6.9586e-05
4.14178e-05
7.27465e-05
4.14388e-05
7.63341e-05
4.28872e-05
7.74564e-05
4.34555e-05
7.37846e-05
3.89314e-05
6.73417e-05
2.98958e-05
5.3673e-05
1.56853e-05
4.36928e-05
9.36024e-07
3.89809e-05
-9.88688e-06
3.67902e-05
-2.00802e-05
3.55243e-05
-3.02492e-05
3.18433e-05
-3.9387e-05
2.75432e-05
-4.5908e-05
2.38032e-05
-4.90167e-05
2.21203e-05
-5.07833e-05
2.3315e-05
-5.11874e-05
3.34942e-05
-5.19935e-05
4.5078e-05
-6.18278e-05
5.28615e-05
-6.7577e-05
5.59157e-05
-6.60011e-05
5.31656e-05
-6.10085e-05
4.00481e-05
-5.3075e-05
2.96263e-05
-3.8943e-05
2.4329e-05
-3.26348e-05
2.11277e-05
-3.11206e-05
1.938e-05
-3.17171e-05
1.87046e-05
-3.30757e-05
2.06207e-05
-3.40021e-05
3.18849e-05
-4.33191e-05
5.17711e-05
-6.95848e-05
7.39503e-05
-9.5485e-05
9.23549e-05
-0.000107027
0.00010398
-0.000102846
0.000110737
-8.66987e-05
0.00011532
-6.4349e-05
0.000114043
-3.79802e-05
0.000116606
-1.00565e-05
0.000121228
1.72768e-05
0.000132963
4.37763e-05
0.000152943
7.19309e-05
0.000162323
9.69898e-05
0.0001649
0.000111223
0.000162529
0.000114809
0.000158928
0.00010946
0.000153584
9.53188e-05
0.000144977
7.14101e-05
0.00013004
3.60195e-05
0.000103779
-1.10907e-05
7.09098e-05
-6.60933e-05
3.87906e-05
-0.000111953
1.25739e-05
-0.000123507
-5.7495e-07
-0.00011687
-1.31996e-05
-0.000127531
-3.19349e-05
-0.000166152
-4.39036e-05
-0.00015187
-4.74083e-05
-0.000114631
-4.6784e-05
-7.14855e-05
-4.11845e-05
-5.56875e-05
-0.000131731
-4.41673e-06
-0.000128995
-1.7548e-05
-0.000126969
-2.73336e-05
-0.00012254
-3.36143e-05
-0.000112733
-3.44461e-05
-0.000109537
-2.96683e-05
-0.000109841
-2.00709e-05
-0.000112497
-7.60802e-06
-0.000115807
8.1267e-06
-0.000110739
2.66576e-05
-0.000101787
4.68256e-05
-9.13396e-05
6.59076e-05
-7.98893e-05
7.94037e-05
-6.74944e-05
8.43182e-05
-5.38119e-05
7.98706e-05
-4.06207e-05
6.74745e-05
-3.03479e-05
5.20084e-05
-2.32415e-05
3.85457e-05
-1.83935e-05
2.74341e-05
-1.52335e-05
1.8985e-05
-1.30873e-05
1.34208e-05
-1.16845e-05
1.06238e-05
-1.10447e-05
9.94897e-06
-1.11929e-05
1.05721e-05
-1.17296e-05
1.11961e-05
-1.20859e-05
1.14326e-05
-1.32811e-05
1.32293e-05
-1.48842e-05
1.48048e-05
-1.68383e-05
1.72105e-05
-1.73094e-05
1.94261e-05
-1.64725e-05
2.03809e-05
-1.47746e-05
2.06284e-05
-1.27161e-05
1.98976e-05
-1.13911e-05
1.92396e-05
-1.05977e-05
1.91332e-05
-9.96225e-06
1.96254e-05
-9.20888e-06
2.06764e-05
-8.31034e-06
2.27601e-05
-6.94393e-06
2.52093e-05
-4.91096e-06
2.8002e-05
-2.22898e-06
3.16205e-05
1.57123e-06
3.61955e-05
6.54185e-06
4.21798e-05
1.29483e-05
4.94968e-05
2.09418e-05
5.78336e-05
3.05346e-05
6.63353e-05
4.10559e-05
7.41834e-05
5.08669e-05
7.95803e-05
5.91417e-05
8.04117e-05
6.49106e-05
7.74923e-05
6.53168e-05
7.05036e-05
6.42086e-05
6.16944e-05
6.3439e-05
5.3639e-05
6.32428e-05
4.81025e-05
6.50527e-05
4.58722e-05
6.89944e-05
4.63814e-05
7.26637e-05
4.71044e-05
7.57585e-05
4.85801e-05
7.50446e-05
4.66281e-05
7.11987e-05
3.94923e-05
6.26608e-05
2.8164e-05
4.95511e-05
1.14802e-05
4.30878e-05
-1.17141e-06
3.95367e-05
-1.13703e-05
3.9059e-05
-2.11823e-05
3.76678e-05
-3.05406e-05
3.44983e-05
-3.82544e-05
3.06247e-05
-4.38727e-05
2.72347e-05
-4.72158e-05
2.5493e-05
-4.93557e-05
2.53623e-05
-4.99738e-05
2.8642e-05
-4.84738e-05
4.12319e-05
-4.99121e-05
5.26205e-05
-5.8785e-05
5.83769e-05
-6.1494e-05
5.91693e-05
-5.84448e-05
5.27242e-05
-5.51296e-05
3.91352e-05
-4.83986e-05
3.09351e-05
-3.84268e-05
2.58617e-05
-3.34825e-05
2.33307e-05
-3.20677e-05
2.25034e-05
-3.30439e-05
2.4119e-05
-3.42889e-05
3.62599e-05
-4.26834e-05
5.79819e-05
-6.85925e-05
8.11291e-05
-9.31578e-05
9.83711e-05
-0.000102675
0.00010855
-9.62214e-05
0.000113691
-7.93933e-05
0.000116695
-5.74304e-05
0.000113911
-3.25424e-05
0.000114284
-5.93132e-06
0.000116947
2.03277e-05
0.000123246
4.56148e-05
0.000142126
7.22667e-05
0.000154365
9.92074e-05
0.000157664
0.000115729
0.000156316
0.000120761
0.00015207
0.000115358
0.000147069
0.000101284
0.000139133
7.73286e-05
0.000125257
4.16202e-05
9.95982e-05
-5.94177e-06
7.15194e-05
-5.95462e-05
4.27475e-05
-0.000104987
1.68729e-05
-0.000118271
4.11124e-06
-0.000113845
-9.55997e-06
-0.000124531
-3.02844e-05
-0.000161678
-4.35456e-05
-0.000144892
-4.68098e-05
-0.000105222
-4.89561e-05
-6.45006e-05
-3.62093e-05
-5.86434e-05
-0.000133395
1.08105e-05
-0.000132679
-3.916e-06
-0.000132711
-1.52594e-05
-0.000131308
-2.26984e-05
-0.000123235
-2.55766e-05
-0.000118357
-2.32717e-05
-0.000119249
-1.47172e-05
-0.000122883
-4.19279e-06
-0.000128458
8.87988e-06
-0.000123668
2.43386e-05
-0.000113767
4.06158e-05
-0.000101812
5.67015e-05
-8.81593e-05
6.82191e-05
-7.36131e-05
7.22301e-05
-5.88158e-05
6.83592e-05
-4.49779e-05
5.84705e-05
-3.37357e-05
4.56415e-05
-2.48399e-05
3.28737e-05
-1.84555e-05
2.19329e-05
-1.48703e-05
1.42612e-05
-1.28436e-05
9.76907e-06
-1.26885e-05
8.71048e-06
-1.39961e-05
9.46606e-06
-1.74937e-05
1.26458e-05
-2.51198e-05
1.84271e-05
-3.99913e-05
2.81914e-05
-6.41463e-05
3.63464e-05
-8.19658e-05
4.00016e-05
-8.84752e-05
3.9515e-05
-8.62508e-05
3.71565e-05
-8.03536e-05
3.45678e-05
-7.17583e-05
3.3818e-05
-5.87125e-05
3.3441e-05
-4.21467e-05
3.45208e-05
-2.82595e-05
3.56588e-05
-1.86639e-05
3.49416e-05
-1.25016e-05
3.22402e-05
-1.09446e-05
2.76515e-05
-1.04688e-05
2.51141e-05
-9.29689e-06
2.55293e-05
-7.14237e-06
2.78671e-05
-4.31601e-06
3.11496e-05
-5.84559e-07
3.50719e-05
4.20325e-06
3.97988e-05
9.98128e-06
4.51988e-05
1.6718e-05
5.05362e-05
2.41581e-05
5.52078e-05
3.16627e-05
5.84374e-05
3.85978e-05
5.9508e-05
4.45795e-05
5.85387e-05
4.88284e-05
5.58526e-05
5.22336e-05
5.25972e-05
5.51967e-05
4.96544e-05
5.88686e-05
4.9163e-05
6.4053e-05
5.0501e-05
6.8122e-05
5.09472e-05
7.20886e-05
5.2186e-05
7.41689e-05
5.2254e-05
7.25384e-05
4.74648e-05
6.85196e-05
3.84513e-05
5.76798e-05
2.41489e-05
4.76413e-05
7.74131e-06
4.36281e-05
-3.67082e-06
4.13101e-05
-1.34444e-05
4.19723e-05
-2.25298e-05
4.06935e-05
-3.11116e-05
3.85177e-05
-3.80588e-05
3.53626e-05
-4.33288e-05
3.28497e-05
-4.67406e-05
3.12234e-05
-4.88839e-05
3.03129e-05
-4.94061e-05
3.1208e-05
-4.7835e-05
3.75963e-05
-4.54519e-05
5.09632e-05
-5.0018e-05
5.98841e-05
-5.58521e-05
6.29322e-05
-5.58724e-05
6.13146e-05
-5.35232e-05
5.33289e-05
-5.21833e-05
4.07016e-05
-4.73119e-05
3.21588e-05
-3.80557e-05
2.8202e-05
-3.37743e-05
2.72001e-05
-3.42799e-05
2.86115e-05
-3.63426e-05
4.15074e-05
-4.66009e-05
6.5824e-05
-7.2774e-05
8.91851e-05
-9.40818e-05
0.000104555
-9.87863e-05
0.000112221
-8.9191e-05
0.000115394
-7.1338e-05
0.000116469
-4.96512e-05
0.000112663
-2.61049e-05
0.000111279
-7.90575e-07
0.000112176
2.45033e-05
0.000115006
4.89417e-05
0.000129821
7.36512e-05
0.000143778
0.000100742
0.00014802
0.00011988
0.00014737
0.000125703
0.00014248
0.000120115
0.0001371
0.000104913
0.000129239
7.9629e-05
0.000115519
4.32483e-05
9.28318e-05
-4.89927e-06
6.95109e-05
-5.63352e-05
4.4129e-05
-0.000100175
1.97801e-05
-0.000112115
7.04438e-06
-0.000110793
-7.26818e-06
-0.000121952
-2.98079e-05
-0.000156615
-4.43666e-05
-0.000135575
-4.77067e-05
-9.41226e-05
-5.26812e-05
-5.77435e-05
-3.08247e-05
-6.29128e-05
-0.000132664
2.8537e-05
-0.000134429
1.20134e-05
-0.000135531
-1.77894e-06
-0.000136464
-1.09511e-05
-0.00013187
-1.60077e-05
-0.000122503
-1.57857e-05
-0.000120893
-1.1698e-05
-0.000122845
-2.20644e-06
-0.000130614
7.28246e-06
-0.000131019
2.04567e-05
-0.00012237
3.24229e-05
-0.000110131
4.49165e-05
-9.52353e-05
5.46248e-05
-7.87283e-05
5.8492e-05
-6.27302e-05
5.57563e-05
-4.81235e-05
4.77287e-05
-3.52302e-05
3.67795e-05
-2.45858e-05
2.50054e-05
-1.89259e-05
1.61036e-05
-1.67332e-05
1.05565e-05
-1.81262e-05
9.25221e-06
-2.42617e-05
1.25308e-05
-3.88602e-05
2.16271e-05
-7.20473e-05
3.45738e-05
-0.000112005
4.77712e-05
-0.000136716
5.25679e-05
-0.000143662
4.81634e-05
-0.000140171
4.06209e-05
-0.000126572
2.99222e-05
-0.000103231
1.9649e-05
-8.02607e-05
1.40365e-05
-6.8345e-05
1.2792e-05
-5.95949e-05
1.53219e-05
-5.17379e-05
2.12129e-05
-4.29336e-05
2.91579e-05
-3.54304e-05
3.81527e-05
-2.93852e-05
4.26668e-05
-2.00462e-05
4.61743e-05
-1.29868e-05
4.09927e-05
-1.17629e-05
3.15434e-05
-1.0357e-05
2.68173e-05
-8.18304e-06
2.79068e-05
-5.1149e-06
3.06593e-05
-1.12686e-06
3.40608e-05
3.85729e-06
3.79672e-05
9.63017e-06
4.22292e-05
1.60592e-05
4.59169e-05
2.27502e-05
4.86116e-05
2.93177e-05
4.99978e-05
3.5476e-05
5.01821e-05
4.08398e-05
4.96632e-05
4.5314e-05
4.94603e-05
5.14716e-05
5.14977e-05
5.79232e-05
5.34073e-05
6.27347e-05
5.41978e-05
6.71704e-05
5.48655e-05
7.09917e-05
5.57662e-05
7.21042e-05
5.34696e-05
7.08015e-05
4.65453e-05
6.58318e-05
3.54314e-05
5.44246e-05
1.89843e-05
4.79206e-05
4.45604e-06
4.53986e-05
-6.47493e-06
4.41941e-05
-1.59932e-05
4.52598e-05
-2.45957e-05
4.45585e-05
-3.24274e-05