/*--------------------------------*- C++ -*----------------------------------*\
  =========                 |
  \\      /  F ield         | OpenFOAM: The Open Source CFD Toolbox
   \\    /   O peration     | Website:  https://openfoam.org
    \\  /    A nd           | Version:  10
     \\/     M anipulation  |
\*---------------------------------------------------------------------------*/
FoamFile
{
    format      ascii;
    class       volScalarField;
    location    "0.799969";
    object      T;
}
// * * * * * * * * * * * * * * * * * * * * * * * * * * * * * * * * * * * * * //

dimensions      [0 0 0 1 0 0 0];

internalField   nonuniform List<scalar> 
16320
(
0.00317693
0.00317841
0.00318793
0.00320946
0.00322955
0.00325086
0.00327194
0.00328991
0.00331221
0.0033542
0.00341102
0.00347835
0.0035284
0.00355443
0.00356216
0.00356159
0.00355627
0.0035337
0.00346707
0.00339745
0.00336855
0.00336559
0.00337248
0.00339337
0.00340881
0.00341154
0.00340714
0.00338895
0.00336527
0.00335611
0.00335806
0.00337634
0.00344968
0.0032604
0.00327438
0.00328172
0.00328387
0.00328305
0.00328263
0.00328514
0.00329293
0.00330208
0.0033165
0.00334984
0.00341011
0.00347181
0.00351643
0.00354122
0.00355073
0.00354788
0.00352477
0.00343663
0.00334825
0.00331492
0.0033138
0.00332925
0.0033682
0.00340022
0.00341504
0.00341745
0.00341528
0.00340957
0.00340908
0.00341498
0.0034432
0.00353634
0.00333517
0.00333187
0.00332494
0.00331596
0.00330527
0.00329562
0.00328881
0.00328701
0.00328785
0.00329574
0.00330398
0.00333975
0.00340147
0.0034632
0.00350963
0.0035324
0.00353293
0.00351188
0.00341089
0.00329822
0.00325741
0.00325795
0.00328349
0.00334638
0.00338781
0.00341308
0.00342397
0.00342918
0.00343293
0.00344
0.00345715
0.00350735
0.00363587
0.00338027
0.00337653
0.00336816
0.00335547
0.00333682
0.00331494
0.00329519
0.00327551
0.00325762
0.00325383
0.00325785
0.00327029
0.00331309
0.00339383
0.00346448
0.00350598
0.00351262
0.00349423
0.0033881
0.00325497
0.00320523
0.00320478
0.00323252
0.00330794
0.00337022
0.00340516
0.00342635
0.0034382
0.00344704
0.00346024
0.00349567
0.00358783
0.00374301
0.0034875
0.00348104
0.00345973
0.00342504
0.00339005
0.00335043
0.00331392
0.00328622
0.00325151
0.00322459
0.00321849
0.00322164
0.00324279
0.00331133
0.00341273
0.00347869
0.00349441
0.00347701
0.00336772
0.00322481
0.00317261
0.00317259
0.00320201
0.00327215
0.00334464
0.00339186
0.00342059
0.00343797
0.00345615
0.0034942
0.0035731
0.00370602
0.00384214
0.00361368
0.00356785
0.00352007
0.00346841
0.00342807
0.00338454
0.00333693
0.0033047
0.00326665
0.00322478
0.00319786
0.00319481
0.00320254
0.00324546
0.00335545
0.00345055
0.00347885
0.00346239
0.00334785
0.00319547
0.00314303
0.00314377
0.00317462
0.00324678
0.00331297
0.00336339
0.00339966
0.00343463
0.00348387
0.0035659
0.00368616
0.00381451
0.00392582
0.00363708
0.00358282
0.00353281
0.00348224
0.00344334
0.00340299
0.00335241
0.00331634
0.00328345
0.00323766
0.00319214
0.0031756
0.00317819
0.00320376
0.00330183
0.00342392
0.00346535
0.00344976
0.00332974
0.00317042
0.00311835
0.00312045
0.00315636
0.00322554
0.00328244
0.00333272
0.00338547
0.0034485
0.00354542
0.00366365
0.00378737
0.00389456
0.00396176
0.00362638
0.00357639
0.00353539
0.00349276
0.00345731
0.00342184
0.00337194
0.00333083
0.00330083
0.00325322
0.00319487
0.00316263
0.00316053
0.00317648
0.00326028
0.00340329
0.00345615
0.00344118
0.00331697
0.00315014
0.0030976
0.00310127
0.00314249
0.00320481
0.00325765
0.00331772
0.00339164
0.00349559
0.00361806
0.00373982
0.00384466
0.00391814
0.00395574
0.00362583
0.00359392
0.00357914
0.00355369
0.0035173
0.00348373
0.00342441
0.0033668
0.00332508
0.00327062
0.00319936
0.00315173
0.0031425
0.00315368
0.00322508
0.0033817
0.00344757
0.00343447
0.00330832
0.00313365
0.00307894
0.00308367
0.00313007
0.00319193
0.00324763
0.00331981
0.00342082
0.00354192
0.00366166
0.00376795
0.00385041
0.00389682
0.00389923
0.00369061
0.0037074
0.00374446
0.00374029
0.00371488
0.00366339
0.00357195
0.00346553
0.0033819
0.00329964
0.00320712
0.00314178
0.00312456
0.00313318
0.00319877
0.00336329
0.00344119
0.00343049
0.00330626
0.00312239
0.00306136
0.00306299
0.00310725
0.00318092
0.00324579
0.00333254
0.00344338
0.00356025
0.00366807
0.0037554
0.00380028
0.00379585
0.0037294
0.00389001
0.00395794
0.004002
0.0040106
0.00399889
0.00395774
0.00386465
0.00367015
0.00349523
0.00334812
0.0032179
0.00313215
0.0031077
0.00311591
0.00318532
0.00336109
0.00344273
0.00343155
0.0033032
0.0031151
0.00304796
0.00304488
0.00307133
0.00315586
0.00324165
0.0033378
0.00344529
0.00354915
0.00362527
0.00365122
0.00362956
0.00354688
0.00343026
0.00403608
0.0040586
0.00407103
0.00408122
0.00408083
0.0040721
0.00403363
0.00391664
0.00365107
0.00341389
0.00322713
0.0031198
0.00308854
0.00309733
0.00317616
0.00336486
0.00344694
0.00343448
0.00329963
0.00311335
0.0030443
0.00303561
0.0030497
0.00310902
0.00322041
0.0033194
0.00340436
0.00344794
0.00344975
0.00343
0.00338078
0.00331523
0.0032586
0.00405837
0.00406055
0.00405834
0.00406764
0.0040885
0.00408996
0.00407514
0.00400332
0.0037685
0.00343967
0.00321805
0.00310109
0.00307227
0.00308426
0.00318155
0.00337875
0.00345477
0.0034403
0.00329974
0.00311429
0.00304632
0.003037
0.00304448
0.00307954
0.00315957
0.00323271
0.00326724
0.00327462
0.00327073
0.00325838
0.00323405
0.00321206
0.00320148
0.00401955
0.00395094
0.00390673
0.00393433
0.00401428
0.00406625
0.00406189
0.00399608
0.00374544
0.00341148
0.00318706
0.00307266
0.00305176
0.00307499
0.00320423
0.00340192
0.00346701
0.00345232
0.00331011
0.00312182
0.00305339
0.00304249
0.00304816
0.00307521
0.0031193
0.00315618
0.00317604
0.00318589
0.00319087
0.00319035
0.00318997
0.00319302
0.00320598
0.00388095
0.00367238
0.00361419
0.00368509
0.00385361
0.00398973
0.00401041
0.00394194
0.00365968
0.0033315
0.00311686
0.00303808
0.00303081
0.00307536
0.00324977
0.00343099
0.00348273
0.00346765
0.00333645
0.00314275
0.00307034
0.00305586
0.00305969
0.0030801
0.00311619
0.00314124
0.00315858
0.00317064
0.00317916
0.00318563
0.00319819
0.00322994
0.00331507
0.0036413
0.0033798
0.00331976
0.00341912
0.00365077
0.00384456
0.00389945
0.00378965
0.00346337
0.0031987
0.00305296
0.00300785
0.0030158
0.00309178
0.00331746
0.00346545
0.00349777
0.00347831
0.00336316
0.00320276
0.00312035
0.00308869
0.00308807
0.0030993
0.00312626
0.00314876
0.00316647
0.00318026
0.00319548
0.00322594
0.00329896
0.00342206
0.00351466
0.00351195
0.00325093
0.00318385
0.00322425
0.00342726
0.00359531
0.00365812
0.00347216
0.00322665
0.00305836
0.00298654
0.00297451
0.00301693
0.00314509
0.00337956
0.00349078
0.0035094
0.00349053
0.00340191
0.00327904
0.00319867
0.00316603
0.00316362
0.00316721
0.00317764
0.00319032
0.00320913
0.00324033
0.00330754
0.00342874
0.00354377
0.00359509
0.00359697
0.00345709
0.00318912
0.00310059
0.00308941
0.00315269
0.0032541
0.00328103
0.00311556
0.00302418
0.00296347
0.00294421
0.00297176
0.00303818
0.00325896
0.00345357
0.00352072
0.00352649
0.00349873
0.00341074
0.00333086
0.00328915
0.00327895
0.00327548
0.00326997
0.00327079
0.00329132
0.00335277
0.00346494
0.00358187
0.00364864
0.00366064
0.00364231
0.00357745
0.00344596
0.00317171
0.00305877
0.00301099
0.00299828
0.00300799
0.00301
0.00295633
0.00293596
0.00292606
0.0029387
0.0029858
0.00311094
0.00339457
0.00350692
0.00353434
0.00353161
0.00349639
0.00343126
0.00339381
0.00337038
0.0033569
0.00335186
0.00336684
0.00342738
0.00352644
0.00362991
0.00370096
0.00372178
0.00371049
0.0036571
0.00359079
0.0035612
0.00354279
0.00320647
0.00305384
0.0029857
0.00294145
0.00292442
0.00292174
0.00291514
0.00291416
0.00292327
0.00295359
0.00304591
0.00329105
0.00346909
0.00352835
0.00354312
0.00353696
0.00349623
0.00345916
0.0034335
0.00342121
0.00343092
0.00347999
0.00357159
0.0036709
0.00374536
0.00377373
0.00376736
0.00372615
0.00365981
0.0036151
0.00360988
0.00363967
0.00374137
0.00340552
0.00313066
0.00301327
0.00295557
0.00292698
0.00291863
0.00291684
0.00292206
0.00295035
0.0030301
0.00322889
0.00345534
0.00353353
0.00355777
0.00356114
0.003538
0.00350402
0.00348742
0.00348626
0.00351999
0.00360228
0.00370078
0.00377622
0.00381036
0.00380824
0.00377804
0.00371945
0.00366946
0.00365349
0.00367043
0.0037663
0.004059
0.003841
0.00368124
0.00335603
0.00314492
0.00304803
0.00299437
0.00297169
0.00296773
0.00299405
0.00308515
0.00328472
0.00346654
0.00354528
0.00357085
0.00357661
0.00357021
0.00354774
0.00353635
0.00355794
0.00362962
0.00372323
0.00379433
0.0038287
0.00383048
0.00381071
0.0037655
0.00371558
0.00369272
0.00370081
0.00377558
0.00403324
0.00441543
0.00464906
0.00387784
0.00383074
0.00370391
0.00345855
0.00328944
0.00320005
0.0031757
0.00316558
0.00324327
0.0033883
0.00347925
0.00355208
0.00358264
0.0035964
0.00360006
0.00359758
0.00360151
0.00365807
0.00374349
0.00380545
0.00383311
0.00383714
0.00382491
0.00379108
0.00374871
0.00372538
0.00372814
0.00378726
0.00400871
0.00438964
0.0046491
0.00476054
0.00477906
0.00386257
0.00387039
0.00384611
0.00377733
0.00365615
0.00356123
0.00351723
0.00350496
0.00352707
0.00358028
0.00360124
0.00363141
0.00364533
0.00365921
0.00368027
0.00370765
0.00376063
0.00380938
0.00383042
0.00383507
0.00382748
0.00379735
0.0037606
0.00374374
0.00374817
0.00380164
0.00399187
0.0043215
0.00458911
0.00471586
0.00473744
0.00471484
0.00462753
0.00377318
0.00384196
0.00386139
0.00386028
0.00383029
0.00378889
0.0037526
0.00373613
0.00373141
0.00373522
0.00373654
0.00374945
0.00376045
0.00377305
0.00379109
0.00380543
0.00381898
0.00382421
0.00382016
0.00379166
0.00376083
0.00374711
0.00375831
0.00380424
0.00396157
0.00423462
0.00447039
0.00460205
0.00464678
0.00461855
0.00449508
0.00428609
0.00411815
0.00370609
0.00371765
0.00377395
0.00381969
0.00383218
0.0038302
0.00381943
0.00380585
0.00379974
0.00379593
0.00379444
0.00379533
0.003798
0.0038007
0.00380336
0.00380421
0.00379902
0.00377601
0.00375407
0.00374498
0.00375734
0.00379464
0.00392059
0.00412858
0.00432105
0.004442
0.0044936
0.00449048
0.00435099
0.00417384
0.00404137
0.0039474
0.00388088
0.00369573
0.00368469
0.00368173
0.00368859
0.00372641
0.00376539
0.003781
0.00378472
0.0037856
0.00378428
0.00378307
0.00378126
0.00377725
0.00377051
0.00376028
0.00374818
0.00374068
0.00374214
0.00375341
0.00378192
0.0038768
0.00403068
0.00416995
0.00426319
0.00431878
0.00433942
0.0042312
0.00409247
0.00399279
0.00392471
0.00387321
0.00383694
0.00378509
0.00374213
0.00369928
0.00367292
0.00365998
0.00365704
0.00366106
0.00368074
0.00368959
0.00369852
0.00370638
0.00371045
0.0037114
0.00371191
0.0037167
0.00372274
0.00373405
0.00374801
0.00378037
0.00384813
0.00394292
0.00404286
0.00411362
0.00416313
0.00418496
0.00412802
0.00404083
0.00397088
0.00392188
0.00388201
0.00384928
0.00380503
0.0037133
0.00352925
0.00376257
0.00376195
0.00374486
0.00371537
0.00368676
0.00367541
0.00367286
0.00367375
0.00368129
0.00368524
0.00369334
0.00370043
0.00371155
0.0037257
0.00374524
0.00378124
0.00383543
0.00389848
0.00394225
0.00399298
0.00403634
0.0040562
0.00402735
0.00397726
0.00394375
0.00391091
0.00388545
0.00386575
0.00383861
0.00377334
0.0036054
0.00330124
0.00299942
0.00375719
0.0037699
0.00377073
0.00376797
0.00376122
0.00374437
0.00372967
0.00372405
0.0037224
0.00372329
0.00373258
0.00374705
0.00376836
0.00379398
0.00382578
0.0038598
0.00388662
0.00391285
0.00393552
0.00394981
0.00393556
0.00390869
0.00389154
0.00388037
0.0038742
0.00386733
0.00385572
0.00382575
0.00373271
0.00350645
0.00314435
0.00293232
0.00287691
0.0036754
0.00374412
0.00375705
0.00376012
0.0037635
0.00377431
0.00377926
0.00378176
0.00378926
0.00379204
0.00379891
0.00380641
0.00382101
0.00383385
0.00384721
0.00386225
0.00387179
0.003874
0.00385437
0.00383997
0.00383506
0.00383468
0.00385008
0.00386232
0.00386611
0.00386156
0.00383321
0.00374641
0.0035354
0.0032166
0.00297637
0.00288685
0.00287005
0.00352091
0.00365764
0.00372578
0.00373945
0.00374422
0.00375716
0.00377939
0.00379251
0.00380068
0.00380755
0.0038112
0.00381463
0.0038232
0.00382764
0.00382961
0.00382078
0.00379282
0.00377852
0.00377347
0.0037938
0.00380712
0.00382975
0.00385335
0.00387379
0.00388007
0.00387153
0.00381353
0.00364106
0.0034036
0.00317721
0.0029981
0.00293261
0.00292156
0.00346241
0.00349164
0.00362113
0.00370275
0.00372185
0.0037287
0.0037522
0.00378645
0.00379814
0.00380221
0.00380283
0.00380286
0.00379967
0.00377999
0.00375079
0.003735
0.00372934
0.00373592
0.00376908
0.00379025
0.00381273
0.00384864
0.00389805
0.00393291
0.00393902
0.00390658
0.00378624
0.003626
0.00344664
0.00332045
0.00322906
0.00315825
0.00306935
0.00347646
0.00343433
0.00345969
0.00358686
0.00368324
0.00371209
0.00372472
0.00375841
0.0037785
0.00377999
0.0037739
0.00375598
0.00372146
0.0036975
0.0036906
0.00368916
0.0037077
0.00374028
0.00377548
0.00380587
0.0038567
0.00394555
0.0039937
0.00400412
0.00397534
0.00389188
0.00376302
0.00361393
0.00349782
0.00343929
0.00340465
0.00335971
0.00330002
0.00362222
0.00344851
0.00341595
0.00344735
0.00357296
0.00367938
0.00371858
0.00374054
0.00375041
0.00374818
0.00372872
0.00369005
0.00366057
0.00365407
0.00365538
0.00367769
0.00371558
0.00375801
0.00380787
0.00388075
0.00399045
0.00403503
0.00404339
0.00401752
0.00395394
0.00383833
0.00368345
0.00352846
0.00342073
0.00334641
0.00330323
0.00328499
0.0032817
0.00375337
0.00351338
0.00339994
0.00338786
0.00344466
0.00359771
0.00370088
0.00373024
0.00373562
0.00372795
0.00369601
0.00364527
0.0036282
0.00362711
0.00364558
0.00368849
0.00374304
0.00381252
0.00392386
0.00402034
0.00405418
0.00405815
0.00403345
0.00396684
0.0038212
0.00357871
0.0032601
0.0030802
0.00293743
0.002859
0.00282205
0.00281453
0.00286461
0.00380921
0.00358891
0.00339977
0.00335404
0.00336608
0.00347522
0.00364751
0.00370881
0.00371607
0.00370223
0.00365479
0.00361414
0.0036067
0.00361615
0.00365597
0.00372006
0.0038102
0.00395572
0.00403123
0.00405634
0.00405791
0.0040298
0.00392863
0.00369905
0.0032301
0.0029433
0.00278095
0.00269975
0.0026597
0.00262459
0.00260075
0.00259273
0.00259508
0.0038065
0.00359188
0.00339231
0.00333242
0.00333002
0.00339869
0.00357702
0.00368261
0.00369897
0.00368501
0.00363085
0.00360108
0.00359866
0.00362265
0.00368707
0.00379621
0.00395922
0.00403107
0.00405377
0.00405335
0.00401931
0.00387788
0.00351695
0.00302102
0.00283612
0.00273502
0.00270723
0.00269853
0.00270402
0.00275191
0.00277781
0.00278485
0.00274144
0.00379113
0.00357565
0.0033872
0.00333116
0.00332686
0.00338224
0.00354753
0.00365537
0.00367183
0.00365596
0.00360835
0.00359257
0.00359933
0.00364546
0.00375556
0.0039231
0.00401802
0.00404593
0.00404573
0.00400467
0.00383063
0.00339442
0.00298021
0.00280064
0.00275497
0.00273951
0.00274804
0.00284086
0.0030185
0.00309956
0.00312497
0.0031229
0.00305274
0.00378879
0.00357441
0.00339397
0.00334038
0.00333571
0.00338769
0.00354701
0.00363957
0.00365213
0.00363494
0.00359928
0.00359181
0.00360876
0.00369003
0.00384272
0.00398445
0.00403204
0.00403724
0.00400357
0.00383532
0.00339052
0.00296834
0.00282254
0.00277336
0.00276745
0.00280703
0.00297535
0.00321945
0.00329741
0.00331424
0.00327899
0.00319168
0.00313306
0.00380939
0.00361803
0.00343922
0.00337949
0.0033711
0.0034121
0.00355633
0.00363666
0.00364583
0.00362871
0.0036
0.00359602
0.00362938
0.0037357
0.0039121
0.00400442
0.00402192
0.00400402
0.00386469
0.0034752
0.00303798
0.00285402
0.00280335
0.00279377
0.00284787
0.00306069
0.00333229
0.00340134
0.00340856
0.00332884
0.00320744
0.00315447
0.00314281
0.00383468
0.00370429
0.00355727
0.00349156
0.00347484
0.00348857
0.00358544
0.00363647
0.00363961
0.00362053
0.00360021
0.00360215
0.00365189
0.00378713
0.00394688
0.00399002
0.00399382
0.00389083
0.00361664
0.00321176
0.00293465
0.00284804
0.00282729
0.00286995
0.00308432
0.00337928
0.00345199
0.00345305
0.00334744
0.00320216
0.00316131
0.00316456
0.00322978
0.00383162
0.00374489
0.00364934
0.00360082
0.00358597
0.0035867
0.00362291
0.00364103
0.00363738
0.00360845
0.00359566
0.00360487
0.0036706
0.00381949
0.00393459
0.00396222
0.00391712
0.00376365
0.0034675
0.00310052
0.00293101
0.00288207
0.00290168
0.0030808
0.00339041
0.00347386
0.00347196
0.00335427
0.00320578
0.00318012
0.00323388
0.00335541
0.00346338
0.00380535
0.00374507
0.00369108
0.00365689
0.00364145
0.0036379
0.00364321
0.00364532
0.00363386
0.0036046
0.00359482
0.00360888
0.00368413
0.00383482
0.0039116
0.00391522
0.00385277
0.00367875
0.00337927
0.00309331
0.00297631
0.00296843
0.00309715
0.00338244
0.00347671
0.00347833
0.00336787
0.00322337
0.00320474
0.00327047
0.0034212
0.0034944
0.00355028
0.00373316
0.00371414
0.00369497
0.00367403
0.00366039
0.0036495
0.00364441
0.00364083
0.00362212
0.00359741
0.0035924
0.0036124
0.00369487
0.00382705
0.00387757
0.00387334
0.00380157
0.00362314
0.0033623
0.0031449
0.00309616
0.00316466
0.00337693
0.00347144
0.00347845
0.00338725
0.00324916
0.0032331
0.00330665
0.0034286
0.00347253
0.00352366
0.00358504
0.00365077
0.00364071
0.00365452
0.00365778
0.00365353
0.00364293
0.0036293
0.00360208
0.00357897
0.00357316
0.00358003
0.00361025
0.00369595
0.00380875
0.00383699
0.00382951
0.00376345
0.00362275
0.00338905
0.00328595
0.00329094
0.00339568
0.00347185
0.00347955
0.00340425
0.00327085
0.00325292
0.00331387
0.00340501
0.00343683
0.00347051
0.00351594
0.00358134
0.00358083
0.003514
0.00351595
0.00356442
0.0035947
0.00359917
0.00358477
0.00354724
0.00353394
0.00353245
0.00354515
0.00359106
0.00368447
0.00377748
0.00380126
0.00379516
0.00375364
0.00362806
0.00347999
0.00344614
0.00346146
0.00349229
0.00348631
0.00342335
0.003289
0.00326428
0.00329786
0.00337471
0.00339803
0.00341344
0.00343332
0.00347426
0.00353884
0.00360081
0.00342774
0.00337193
0.00337387
0.00341697
0.00346559
0.00349121
0.00350206
0.00350899
0.00351143
0.00352313
0.0035657
0.00365525
0.00374567
0.00377595
0.00378041
0.00374706
0.00366591
0.00358246
0.00354882
0.00353523
0.00350465
0.00344306
0.00331112
0.00327805
0.00329078
0.00335472
0.00337297
0.00338019
0.0033889
0.00341119
0.00344247
0.00348794
0.00366761
0.00344718
0.00329883
0.00325728
0.00325917
0.00329364
0.00334746
0.00340695
0.00346001
0.00348887
0.0035105
0.00355284
0.00363298
0.0037279
0.00376862
0.00376716
0.00375173
0.00370827
0.00364431
0.00358936
0.00353553
0.00346873
0.00333735
0.0032938
0.00329189
0.00334849
0.00337075
0.00337956
0.00338512
0.00340171
0.00342365
0.00345035
0.00348172
0.00375089
0.0035552
0.00331467
0.00321016
0.0031802
0.00318282
0.00321514
0.00327351
0.00335185
0.00343003
0.00348455
0.00353883
0.00361907
0.0037183
0.00374832
0.00376157
0.00375095
0.00371724
0.00365471
0.00358335
0.00349672
0.00336457
0.00331061
0.00330177
0.00333578
0.00338237
0.00339674
0.00340339
0.00341808
0.00344216
0.00346007
0.00347909
0.00350166
0.00381909
0.00371449
0.00343691
0.00323158
0.00315958
0.00313943
0.00314384
0.00317517
0.00323236
0.00331224
0.00340715
0.00349991
0.00359259
0.00367702
0.00373863
0.00374089
0.00373516
0.00370064
0.00362774
0.00352039
0.003388
0.00333152
0.00331734
0.00333266
0.00339665
0.00343516
0.00345461
0.00348291
0.003523
0.00354639
0.00355375
0.00355138
0.00355507
0.00385174
0.00384845
0.00368427
0.00336492
0.00319329
0.00313934
0.00312721
0.00313358
0.00316232
0.00321542
0.00329293
0.00339285
0.00350282
0.00361305
0.00364722
0.00365924
0.00364936
0.00360219
0.00351017
0.0034077
0.00335456
0.0033373
0.0033413
0.00339137
0.00348677
0.00354799
0.00362173
0.00373158
0.00380758
0.0038343
0.00382667
0.00375135
0.00369573
0.00380709
0.00390552
0.00388678
0.00368684
0.00336414
0.00319765
0.00314359
0.00313425
0.00314357
0.00317092
0.00322026
0.00329021
0.00337417
0.00345111
0.00348391
0.00349513
0.00349094
0.0034624
0.00341551
0.00337836
0.00336085
0.00336177
0.00341043
0.00353284
0.00367333
0.00384121
0.00411225
0.00434127
0.00443913
0.00446888
0.00442968
0.00428069
0.00409973
0.0035368
0.0038707
0.00396206
0.00393967
0.00374398
0.00344462
0.00325317
0.0031783
0.00316081
0.00317147
0.00320103
0.00324754
0.00330343
0.00335537
0.0033841
0.0034009
0.00340996
0.00340891
0.0033976
0.00338695
0.00339197
0.00344098
0.00358176
0.00383025
0.00409649
0.0044119
0.00469806
0.00482931
0.00488017
0.00489252
0.00482494
0.00473433
0.00459998
0.00331043
0.00357261
0.00392201
0.00401665
0.00400537
0.00385233
0.00360712
0.00337915
0.00326454
0.0032223
0.00322311
0.00325276
0.00329516
0.00333464
0.00336019
0.00337973
0.00339975
0.0034109
0.00341367
0.00343421
0.00349529
0.00365646
0.00396334
0.00428035
0.00458173
0.0048888
0.00504809
0.00510564
0.00512052
0.00507009
0.00498319
0.00488384
0.00475647
0.00325669
0.00331584
0.00358803
0.00396131
0.00406557
0.00407459
0.00398699
0.00382372
0.00360839
0.00344121
0.00335467
0.00332719
0.00333619
0.0033602
0.00338035
0.00340012
0.00342701
0.00345628
0.0034983
0.00358859
0.00378579
0.00408559
0.00440566
0.00470935
0.00498283
0.00517339
0.00524034
0.00525336
0.00519498
0.00509773
0.00498145
0.00486398
0.00476052
0.00329394
0.00327809
0.00331749
0.00359046
0.0039901
0.00410253
0.00412833
0.00412011
0.00403242
0.00389555
0.00374246
0.00362017
0.00354185
0.00351174
0.00350621
0.00351993
0.00356416
0.00363529
0.00375675
0.00396242
0.00422169
0.00450651
0.00478821
0.00503624
0.00522715
0.00531212
0.00532881
0.00528012
0.00517895
0.00502403
0.0048103
0.00456332
0.00443373
0.003332
0.00334283
0.00330127
0.00332295
0.00358832
0.00399363
0.00411878
0.00418249
0.00421969
0.00420693
0.00415176
0.00407733
0.00399923
0.00393122
0.00388756
0.00388024
0.00393592
0.00404686
0.0041996
0.00439394
0.00461929
0.00485186
0.00506618
0.00523829
0.00534038
0.00536932
0.00534131
0.00525747
0.00509923
0.00487467
0.00452037
0.00418009
0.00395823
0.00329752
0.00336975
0.00339637
0.00331279
0.00334774
0.00355405
0.00394557
0.00413884
0.00422785
0.00428989
0.00433819
0.00435859
0.00435418
0.0043437
0.00434203
0.00435291
0.00439734
0.00448695
0.00461012
0.00476378
0.00493455
0.00509994
0.00524062
0.00533929
0.00538253
0.00537829
0.00532837
0.00521374
0.00500744
0.00458352
0.00405918
0.00372896
0.00356865
0.00331682
0.00332011
0.00339105
0.0034152
0.00334927
0.00336811
0.00350479
0.00384767
0.00413633
0.00426233
0.0043494
0.00442898
0.00449874
0.00455561
0.00460494
0.00465585
0.00471604
0.00479789
0.00489775
0.00501419
0.00513394
0.00524099
0.00532317
0.00537115
0.0053844
0.00536336
0.00528567
0.00513084
0.00476524
0.00407196
0.00364638
0.003455
0.00336512
0.00344269
0.00339434
0.00336687
0.00342836
0.00342962
0.00338031
0.00338107
0.00346766
0.00373578
0.0040956
0.00427706
0.00440363
0.00450218
0.00459586
0.00468213
0.00476646
0.00484683
0.00493482
0.00502425
0.00511722
0.00520311
0.00527539
0.00533098
0.00536242
0.0053571
0.00530621
0.00518583
0.00486494
0.00414189
0.00367666
0.00346587
0.00330815
0.00321044
0.00363807
0.0035752
0.00348247
0.0034353
0.00345524
0.00344649
0.00340035
0.00338718
0.0034446
0.00363199
0.00398889
0.00424536
0.00443024
0.00456643
0.00467489
0.00476779
0.00485685
0.00494594
0.0050315
0.00511888
0.00519765
0.00526159
0.00530242
0.00530362
0.00526192
0.00517241
0.00490483
0.00424597
0.0037907
0.00356055
0.00325935
0.00295288
0.00281509
0.00370822
0.00374117
0.00369653
0.00357721
0.00349729
0.00348767
0.00346935
0.00341143
0.00338823
0.00342504
0.00355808
0.00384469
0.00414269
0.00440736
0.0045904
0.00472729
0.00482127
0.00491214
0.00498643
0.00506397
0.0051272
0.00516143
0.00516083
0.00512701
0.00505702
0.00486495
0.00434946
0.00388947
0.00366811
0.00331827
0.00274099
0.00246367
0.00239969
0.00371608
0.00378754
0.00381514
0.00378693
0.00367665
0.00356098
0.00352861
0.00349348
0.00341376
0.0033832
0.00340756
0.00350743
0.00372991
0.00399854
0.00429479
0.00454887
0.0047149
0.00481315
0.0048667
0.00490676
0.00493428
0.00493498
0.00491971
0.00487887
0.00476396
0.0044097
0.0039794
0.0037584
0.00341778
0.0027737
0.00240277
0.00229754
0.00229656
0.00370384
0.00378705
0.00384935
0.00386158
0.00384432
0.00375851
0.00361501
0.00356735
0.00350959
0.00340786
0.00337657
0.00339293
0.00346769
0.0036383
0.00387045
0.00412689
0.00439239
0.0045829
0.00467797
0.00471752
0.00472726
0.00472154
0.00469675
0.00462587
0.00440247
0.00403406
0.00381201
0.00354387
0.00291236
0.00243425
0.00228896
0.00228127
0.00230476
0.00367408
0.00375176
0.00384983
0.00388719
0.00388762
0.00386889
0.00380016
0.0036561
0.0036037
0.00351152
0.00340237
0.0033718
0.00338197
0.00343672
0.00356429
0.00375628
0.00396625
0.00418899
0.00436802
0.00445828
0.00447647
0.00446962
0.00443384
0.0043115
0.00403215
0.00380928
0.00363293
0.00317103
0.00257606
0.00234581
0.00231827
0.00237004
0.00242013
0.00364533
0.00372909
0.00383869
0.00389169
0.00390238
0.00389468
0.00386745
0.00379871
0.00367946
0.00362345
0.00350253
0.00339697
0.00336809
0.0033726
0.00341016
0.00351261
0.00364951
0.00381591
0.00400133
0.00412759
0.00416568
0.00416269
0.00412743
0.00398582
0.00377256
0.00364414
0.0034096
0.00283932
0.00245462
0.00237783
0.00247514
0.00267739
0.00271447
0.00362509
0.00372346
0.00383428
0.00388678
0.00390292
0.00389997
0.00387872
0.00384618
0.00377839
0.00369236
0.00362949
0.00348946
0.0033913
0.00336171
0.00335851
0.00338565
0.00345424
0.00355497
0.00368885
0.00380107
0.00384251
0.00384267
0.00381558
0.00371029
0.00359859
0.0034904
0.00317588
0.00265276
0.0024597
0.00251194
0.00280012
0.00300426
0.00302638
0.00361209
0.00373771
0.0038418
0.00388867
0.00389827
0.00389374
0.0038696
0.00383997
0.00381199
0.00374992
0.00368922
0.00362292
0.00346495
0.00338623
0.00335188
0.00334224
0.00335809
0.00339845
0.00347654
0.00354746
0.00357929
0.00358151
0.00356497
0.00351021
0.00345025
0.0033281
0.0029537
0.00258408
0.00252131
0.00264724
0.00294185
0.00311227
0.00314466
0.003623
0.00377671
0.00386344
0.00390383
0.00390893
0.00390332
0.00387519
0.00381951
0.00380167
0.00377316
0.00372232
0.00367348
0.00361353
0.00342592
0.00337023
0.00333502
0.0033241
0.00333211
0.00335747
0.00338927
0.00340284
0.00340339
0.00339422
0.00336999
0.00332415
0.003188
0.00281488
0.0025733
0.00255681
0.00265922
0.00291804
0.00310022
0.00316523
0.00367812
0.00381508
0.00389723
0.00394171
0.0039424
0.00393309
0.00390097
0.00382561
0.00377561
0.0037628
0.00373565
0.00369897
0.00365073
0.00359984
0.00339553
0.00333936
0.00331233
0.00329999
0.00330223
0.00330488
0.00330199
0.00329341
0.00328537
0.00327175
0.00323636
0.00310033
0.00276985
0.00258489
0.00257522
0.00263829
0.00283249
0.00304472
0.00315202
0.00377974
0.00387625
0.00395375
0.00402815
0.00403326
0.0040182
0.00397357
0.00387047
0.00377774
0.00374142
0.00372816
0.00370369
0.0036718
0.00363343
0.00353703
0.00338467
0.00332314
0.00329441
0.00327708
0.003263
0.00324669
0.00323216
0.00322329
0.00321308
0.00318307
0.00306512
0.00277569
0.00262455
0.00261703
0.00265968
0.00281728
0.00302876
0.00314146
0.00385643
0.00394716
0.00406151
0.00419909
0.00421747
0.00419228
0.00411672
0.00396053
0.00381062
0.00372922
0.0037093
0.00369751
0.00367551
0.00365141
0.00360571
0.00346992
0.00334685
0.00329945
0.00327732
0.00325346
0.00322906
0.00320993
0.00320219
0.00319242
0.00316838
0.00306106
0.00282109
0.00272718
0.00273033
0.00277091
0.00290891
0.00307384
0.00314399
0.00397003
0.00411344
0.00427484
0.00438407
0.00441013
0.00439393
0.00431393
0.00409775
0.00387639
0.00373878
0.00368954
0.00368142
0.00367198
0.0036565
0.00363057
0.00356044
0.00341309
0.00332637
0.00328526
0.00325754
0.00323172
0.00321195
0.00320331
0.00319643
0.00316866
0.00308098
0.0029324
0.00289327
0.00290323
0.00294691
0.00304954
0.00312549
0.00314135
0.00414674
0.0042844
0.00437615
0.00444407
0.00446723
0.00445941
0.00439533
0.00417447
0.00391585
0.00375056
0.00367713
0.00366069
0.00366046
0.0036549
0.0036442
0.00360756
0.00351439
0.00336848
0.00330746
0.00327149
0.0032428
0.00322164
0.00321232
0.00320419
0.00319161
0.00313621
0.00305577
0.00304107
0.00304951
0.00307993
0.00312626
0.00314369
0.00312831
0.0042769
0.00433088
0.00439464
0.00445326
0.00447615
0.0044691
0.00439757
0.00414969
0.00389778
0.00374329
0.00366472
0.00364328
0.00364393
0.00364776
0.00364449
0.00363023
0.00358222
0.00346462
0.00334905
0.003294
0.00326155
0.00324111
0.00323147
0.0032276
0.00321817
0.00318989
0.00314992
0.00313398
0.00313662
0.0031457
0.00315472
0.00314198
0.0030525
0.00430147
0.00432038
0.00435578
0.00442346
0.00446127
0.00445394
0.00436423
0.00407017
0.00384285
0.00371471
0.00364767
0.00363118
0.00363368
0.00364367
0.00364762
0.00364243
0.00361906
0.00355322
0.00342436
0.00333882
0.00329276
0.00326619
0.00325218
0.00324335
0.00323431
0.00321887
0.00319703
0.00318224
0.00317946
0.00317431
0.00315492
0.0030599
0.00284718
0.00422441
0.00415786
0.00421303
0.00434049
0.00441588
0.00440769
0.00429441
0.00394815
0.00375319
0.00367205
0.00363576
0.00363147
0.00363547
0.00364734
0.00365329
0.00365308
0.00364406
0.00361118
0.00352555
0.00342506
0.00334398
0.00329972
0.00327696
0.00326461
0.00325742
0.00324247
0.00322147
0.00321078
0.00319613
0.00316192
0.0030271
0.00281973
0.00273637
0.00393156
0.00388155
0.00407653
0.00428517
0.00435401
0.00432898
0.00415081
0.00382217
0.00369565
0.00365482
0.00363659
0.00363707
0.00364391
0.0036586
0.00366697
0.00366951
0.0036647
0.00364506
0.00359479
0.00350676
0.00343193
0.00337561
0.00334183
0.00332212
0.00330081
0.00327283
0.00325129
0.00321995
0.00313712
0.00292164
0.00276066
0.00272926
0.00275415
0.00357169
0.00364652
0.00396587
0.00417813
0.00422474
0.0042056
0.00402833
0.00378454
0.00368874
0.0036611
0.00365128
0.0036553
0.00366405
0.00367859
0.00368671
0.00368991
0.00368741
0.00367831
0.00365398
0.00360177
0.00354191
0.00347932
0.0034235
0.00337342
0.00332694
0.00327863
0.00318093
0.00297624
0.00278557
0.00276033
0.00279606
0.00291596
0.00321584
0.00328778
0.00340412
0.00372855
0.00397773
0.00406485
0.00408482
0.00400136
0.00385689
0.00375195
0.00371573
0.00370611
0.0037068
0.00371476
0.00372718
0.0037368
0.0037408
0.00373764
0.00372353
0.00370071
0.00365542
0.00358437
0.00350031
0.00341894
0.00331779
0.00316084
0.0029802
0.00282848
0.00283189
0.00293003
0.00322834
0.00371843
0.00418603
0.00447462
0.00313242
0.00315217
0.00329583
0.00357253
0.00374891
0.00385748
0.0038984
0.0038852
0.00384417
0.00381513
0.00379893
0.0037874
0.00378398
0.00378266
0.00377465
0.00376591
0.00374665
0.00372051
0.0036859
0.00361613