/*--------------------------------*- C++ -*----------------------------------*\
  =========                 |
  \\      /  F ield         | OpenFOAM: The Open Source CFD Toolbox
   \\    /   O peration     | Website:  https://openfoam.org
    \\  /    A nd           | Version:  11
     \\/     M anipulation  |
\*---------------------------------------------------------------------------*/
FoamFile
{
    format      ascii;
    class       volScalarField;
    location    "4.5";
    object      mag(U);
}
// * * * * * * * * * * * * * * * * * * * * * * * * * * * * * * * * * * * * * //

dimensions      [0 1 -1 0 0 0 0];

internalField   nonuniform List<scalar> 
9600
(
0.990669
0.990382
0.989561
0.989296
0.988895
0.988631
0.98881
0.989333
0.990269
0.991831
0.994175
0.996741
0.994031
0.975172
0.954508
0.946505
0.947137
0.955119
0.974872
0.99442
1.01276
1.02773
1.04167
1.05323
1.06109
1.06787
1.07169
1.07199
1.07077
1.0686
1.06565
1.06178
1.05671
1.05055
1.04326
1.03685
1.03087
1.02543
1.0204
1.01458
0.991323
0.991455
0.991547
0.99151
0.991626
0.992112
0.993295
0.994546
0.995436
0.996641
0.9985
1.00091
1.00414
1.00871
1.01274
1.01345
1.01411
1.01672
1.0225
1.03098
1.03908
1.04634
1.05264
1.05853
1.06369
1.06649
1.0672
1.06697
1.06591
1.06343
1.05907
1.05406
1.04808
1.0414
1.03639
1.02845
1.02381
1.01603
1.01288
1.00089
0.991334
0.991517
0.991553
0.991668
0.991934
0.992547
0.99358
0.994509
0.995401
0.99705
1.00074
1.00533
1.00847
1.0097
1.00904
1.004
1.00159
1.00448
1.01239
1.02101
1.03337
1.04331
1.0543
1.06284
1.07103
1.07577
1.08048
1.08254
1.08331
1.08245
1.07943
1.075
1.06995
1.0627
1.05828
1.05092
1.04637
1.03964
1.03673
1.02949
0.991283
0.991475
0.991498
0.991621
0.991879
0.992557
0.993514
0.994694
0.99625
0.998099
1.00046
1.00486
1.01003
1.01298
1.01589
1.02149
1.02877
1.03638
1.04385
1.05001
1.05597
1.06048
1.06386
1.06662
1.06952
1.07096
1.07232
1.07144
1.06983
1.06705
1.06225
1.05835
1.05328
1.04699
1.04232
1.0352
1.02997
1.02273
1.01864
1.0109
0.991179
0.991439
0.991478
0.9916
0.991883
0.99256
0.993725
0.995212
0.996815
0.998626
1.00073
1.00365
1.01083
1.01897
1.02579
1.02865
1.02969
1.02956
1.03121
1.03383
1.04024
1.04739
1.05582
1.0631
1.07044
1.07492
1.07905
1.08054
1.08257
1.08213
1.08077
1.0766
1.07223
1.06514
1.06072
1.05356
1.04899
1.04215
1.03894
1.03253
0.991068
0.991359
0.991383
0.991486
0.99181
0.992586
0.994086
0.995529
0.996787
0.998405
1.00147
1.00651
1.01181
1.01706
1.023
1.02938
1.03621
1.04379
1.0516
1.05761
1.06363
1.06812
1.07235
1.07497
1.07719
1.07767
1.07898
1.0785
1.07614
1.07254
1.06742
1.06341
1.05884
1.05276
1.04828
1.04126
1.03639
1.02877
1.0249
1.01645
0.990946
0.991286
0.991403
0.991572
0.991921
0.992676
0.994287
0.995944
0.997183
0.99857
1.00182
1.00706
1.01278
1.01845
1.02533
1.03264
1.03919
1.04333
1.04601
1.04765
1.05014
1.05402
1.05965
1.06522
1.07126
1.0756
1.07945
1.08028
1.08261
1.08251
1.08251
1.07891
1.07507
1.06836
1.06402
1.0567
1.05223
1.04526
1.04176
1.03517
0.990784
0.99119
0.991316
0.991504
0.991805
0.992733
0.994436
0.996139
0.997431
0.999333
1.00303
1.00715
1.01303
1.01965
1.02598
1.03148
1.03756
1.04391
1.05213
1.05962
1.06691
1.0722
1.07702
1.08062
1.08361
1.08445
1.08549
1.08538
1.08436
1.08035
1.07483
1.06984
1.06487
1.05918
1.05478
1.04763
1.04293
1.03493
1.03116
1.02251
0.990662
0.991122
0.991396
0.991564
0.991926
0.992967
0.994689
0.996673
0.998167
0.999727
1.00295
1.00738
1.01344
1.01991
1.02631
1.03232
1.03921
1.04601
1.05161
1.05686
1.06073
1.06432
1.06748
1.07091
1.0749
1.07869
1.08174
1.08208
1.08372
1.08348
1.08458
1.08199
1.07898
1.07251
1.06831
1.06074
1.0561
1.04901
1.04513
1.03872
0.990378
0.990859
0.991352
0.991421
0.991813
0.992967
0.994621
0.996678
0.998419
1.00011
1.0031
1.00767
1.01347
1.02013
1.027
1.03268
1.0385
1.044
1.05065
1.05814
1.06635
1.07341
1.0791
1.08371
1.0877
1.0902
1.09153
1.09177
1.09189
1.08907
1.08476
1.0785
1.07277
1.06689
1.06228
1.05474
1.04999
1.04161
1.03761
1.02866
0.990317
0.990874
0.991308
0.991595
0.991993
0.992885
0.994762
0.997097
0.998982
1.00043
1.00309
1.00748
1.01419
1.02095
1.02741
1.03301
1.03856
1.045
1.05137
1.05819
1.06426
1.07019
1.0748
1.07884
1.08145
1.08444
1.08682
1.08716
1.08762
1.08627
1.08737
1.08544
1.08355
1.07769
1.07369
1.06608
1.0612
1.05402
1.04939
1.04278
0.989902
0.990506
0.990914
0.991282
0.9916
0.992493
0.994727
0.996965
0.998835
1.00052
1.00323
1.0077
1.01446
1.02125
1.02828
1.0338
1.03918
1.044
1.04953
1.05555
1.06329
1.07146
1.07903
1.08545
1.09066
1.09456
1.09706
1.098
1.09894
1.09717
1.09489
1.08892
1.08325
1.07636
1.07127
1.06351
1.05844
1.04997
1.04503
1.03526
0.989806
0.990448
0.990937
0.991296
0.991751
0.992841
0.994809
0.997028
0.999192
1.00096
1.00412
1.00855
1.01469
1.02162
1.02793
1.03387
1.03903
1.04383
1.04908
1.05545
1.06208
1.06972
1.07665
1.08374
1.08839
1.09184
1.09442
1.09531
1.09558
1.09308
1.09294
1.09046
1.08937
1.08419
1.08039
1.07302
1.06776
1.06051
1.05534
1.04802
0.989279
0.989876
0.990366
0.990578
0.991163
0.992327
0.994453
0.996615
0.998791
1.00118
1.00455
1.00822
1.01479
1.02114
1.02786
1.03372
1.03919
1.04384
1.04869
1.05352
1.05965
1.06733
1.07579
1.08403
1.09162
1.09725
1.10226
1.10405
1.10657
1.10543
1.10453
1.10034
1.09524
1.08811
1.08232
1.07411
1.06838
1.06003
1.05408
1.04414
0.989163
0.989895
0.990336
0.990761
0.991147
0.992479
0.995035
0.997141
0.999597
1.00195
1.00518
1.00958
1.01513
1.02145
1.02743
1.03346
1.03964
1.04484
1.04894
1.05365
1.05887
1.06623
1.0738
1.08266
1.09085
1.09706
1.10209
1.10431
1.10659
1.10434
1.10325
1.0992
1.09754
1.09271
1.08881
1.08199
1.07624
1.06848
1.06316
1.05501
0.988273
0.988957
0.989557
0.99011
0.990378
0.991494
0.994134
0.996429
0.998884
1.00134
1.00538
1.00915
1.01468
1.02063
1.02654
1.033
1.03917
1.04504
1.05022
1.05478
1.05943
1.0648
1.07216
1.08002
1.08995
1.09776
1.10559
1.10979
1.1136
1.11487
1.11468
1.11207
1.10819
1.10168
1.09592
1.08749
1.0807
1.07206
1.06545
1.05524
0.987971
0.988939
0.989631
0.990336
0.990786
0.991326
0.994309
0.99698
0.999727
1.00266
1.00596
1.01006
1.01501
1.02095
1.02677
1.03274
1.03865
1.04596
1.0512
1.05689
1.06075
1.06615
1.07194
1.07887
1.08789
1.09649
1.1054
1.11034
1.11526
1.11618
1.11635
1.11303
1.11004
1.10501
1.10048
1.09375
1.08812
1.07908
1.074
1.06409
0.986519
0.987625
0.988439
0.989001
0.98971
0.990252
0.992643
0.995359
0.998882
1.00129
1.00497
1.0092
1.01406
1.02039
1.02583
1.03218
1.03778
1.04497
1.05117
1.05814
1.06294
1.06814
1.0732
1.07871
1.08607
1.09377
1.10287
1.11104
1.11756
1.12191
1.12427
1.1239
1.12217
1.11688
1.11157
1.10306
1.09651
1.08654
1.08045
1.06909
0.98645
0.987382
0.988303
0.988599
0.990266
0.990918
0.992712
0.995366
0.998914
1.00226
1.00582
1.0102
1.01475
1.02056
1.02589
1.03323
1.03798
1.04541
1.05088
1.05893
1.06435
1.07076
1.07546
1.08129
1.08694
1.09383
1.10184
1.1097
1.11728
1.12324
1.12711
1.12762
1.12672
1.12231
1.11773
1.10937
1.10436
1.09361
1.08876
1.07694
0.984924
0.985591
0.986355
0.986721
0.988479
0.989512
0.991387
0.993263
0.996777
1.00047
1.00391
1.00889
1.01272
1.01914
1.02446
1.03211
1.03782
1.04521
1.05035
1.05818
1.0642
1.07182
1.07756
1.08413
1.08937
1.09599
1.10195
1.10929
1.11625
1.12378
1.13023
1.13371
1.13636
1.13355
1.13135
1.12266
1.1173
1.10557
1.09979
1.08676
0.984963
0.985368
0.98635
0.986479
0.988086
0.989655
0.991707
0.994089
0.996725
1.0006
1.00407
1.0098
1.01382
1.02071
1.02508
1.03313
1.03843
1.04628
1.05128
1.05896
1.06415
1.07255
1.07821
1.08644
1.09209
1.09941
1.10492
1.11201
1.11814
1.12479
1.13163
1.13618
1.14076
1.13935
1.13992
1.13178
1.12838
1.11615
1.11116
1.09664
0.982706
0.983207
0.984201
0.984193
0.985373
0.986675
0.988847
0.992088
0.994411
0.998522
1.00144
1.00762
1.01215
1.01899
1.02371
1.03113
1.03675
1.04525
1.05093
1.05909
1.06479
1.07193
1.07811
1.08639
1.09339
1.1015
1.10855
1.11531
1.12224
1.12737
1.13478
1.13829
1.14582
1.14566
1.14982
1.14403
1.14291
1.13126
1.12677
1.1116
0.982196
0.982999
0.983938
0.984429
0.985277
0.98666
0.988356
0.991963
0.994604
0.999381
1.00249
1.00846
1.01304
1.02031
1.02557
1.03302
1.03871
1.04713
1.05257
1.06073
1.06658
1.07395
1.07904
1.08599
1.09319
1.1021
1.11048
1.11846
1.12684
1.13295
1.14143
1.1444
1.15214
1.15125
1.1569
1.15181
1.15361
1.14352
1.141
1.12509
0.978958
0.97971
0.980403
0.981206
0.981702
0.983739
0.984737
0.988628
0.991129
0.996384
1.00028
1.00624
1.01114
1.01815
1.02357
1.03149
1.03752
1.04591
1.05179
1.0588
1.06536
1.07325
1.07963
1.08584
1.09303
1.10011
1.11054
1.11843
1.13028
1.13662
1.14812
1.1513
1.16136
1.16064
1.16731
1.1623
1.16548
1.15604
1.15648
1.1408
0.978209
0.979702
0.979762
0.980979
0.98119
0.983679
0.985126
0.988996
0.991745
0.996907
1.00115
1.00737
1.01293
1.02033
1.02614
1.03363
1.04002
1.0482
1.05475
1.06163
1.06754
1.07385
1.08092
1.08782
1.09468
1.10111
1.10982
1.11737
1.13001
1.13776
1.15243
1.15761
1.17157
1.1727
1.18172
1.17671
1.18137
1.17111
1.17196
1.15579
0.973057
0.975512
0.975163
0.976751
0.976836
0.979191
0.98109
0.985016
0.988568
0.993646
0.998081
1.00459
1.01018
1.01785
1.02466
1.03202
1.03894
1.04655
1.05339
1.06078
1.06653
1.07199
1.07885
1.08452
1.09279
1.09855
1.10856
1.1154
1.1286
1.13662
1.15297
1.16054
1.17793
1.18211
1.19666
1.1936
1.20156
1.19241
1.1946
1.17647
0.971835
0.974521
0.974582
0.976068
0.976934
0.979122
0.981694
0.985418
0.989504
0.995052
1.00037
1.00639
1.0131
1.01998
1.02765
1.03484
1.04289
1.04914
1.05729
1.06304
1.0704
1.07453
1.08121
1.08524
1.09298
1.09768
1.10735
1.1136
1.127
1.13518
1.15302
1.16118
1.18167
1.18778
1.20741
1.20902
1.22255
1.21588
1.22263
1.20407
0.965974
0.96835
0.968727
0.969804
0.971175
0.973386
0.976559
0.980649
0.985354
0.990586
0.996959
1.00298
1.01058
1.01747
1.02604
1.03275
1.04171
1.04761
1.05605
1.06121
1.06909
1.0727
1.07903
1.08224
1.08875
1.09283
1.10128
1.10725
1.11954
1.12812
1.14673
1.15699
1.18105
1.19007
1.2157
1.21984
1.24089
1.23772
1.2506
1.23538
0.965811
0.967437
0.96894
0.969158
0.971692
0.972921
0.977881
0.980625
0.987937
0.991822
1.00091
1.00533
1.01544
1.02077
1.03152
1.03705
1.04769
1.05242
1.06161
1.06571
1.07285
1.07674
1.0808
1.08518
1.08748
1.09242
1.09732
1.10375
1.11341
1.12208
1.13859
1.15028
1.17505
1.18746
1.2181
1.229
1.25786
1.2613
1.28073
1.26959
0.9577
0.959369
0.961371
0.961552
0.964519
0.965935
0.971304
0.97445
0.982112
0.987083
0.996122
1.00189
1.01236
1.01833
1.0296
1.03545
1.0464
1.05204
1.06048
1.06566
1.07141
1.07562
1.07868
1.08231
1.0835
1.08705
1.08858
1.09395
1.09938
1.10853
1.12128
1.13449
1.15771
1.17428
1.20806
1.22398
1.26584
1.27714
1.31447
1.31181
0.957666
0.957701
0.961992
0.961379
0.966215
0.967465
0.973926
0.97799
0.985494
0.993085
1.00037
1.00935
1.01827
1.02642
1.03669
1.04424
1.05415
1.06087
1.06828
1.07394
1.07817
1.08236
1.08385
1.08563
1.08555
1.08619
1.08554
1.08865
1.08911
1.09665
1.10377
1.1161
1.13445
1.15292
1.18644
1.20919
1.25696
1.27712
1.334
1.34997
0.944152
0.945905
0.950107
0.95076
0.955809
0.959167
0.965217
0.971899
0.979096
0.987754
0.997248
1.00569
1.01719
1.02547
1.03681
1.04521
1.05478
1.06239
1.06939
1.07538
1.07922
1.08292
1.08387
1.08473
1.08354
1.08263
1.08025
1.08018
1.07635
1.07951
1.07961
1.08822
1.0974
1.1147
1.13894
1.16701
1.21151
1.24634
1.30985
1.35106
0.939504
0.946455
0.947272
0.952892
0.954857
0.962276
0.967868
0.976365
0.986439
0.995147
1.00694
1.01671
1.02836
1.03927
1.04943
1.06007
1.0687
1.07767
1.0837
1.08983
1.09262
1.09523
1.095
1.09387
1.09053
1.08742
1.08133
1.0783
1.07017
1.06969
1.0621
1.06661
1.06302
1.07646
1.08202
1.1086
1.13078
1.17405
1.21562
1.284
0.925969
0.931079
0.936236
0.941276
0.947252
0.953924
0.962473
0.970812
0.980885
0.992969
1.00392
1.01678
1.02885
1.04122
1.05213
1.06345
1.07246
1.08153
1.088
1.09407
1.09697
1.09946
1.09877
1.09748
1.09308
1.08934
1.08098
1.0761
1.06567
1.06164
1.04786
1.04563
1.02962
1.03268
1.01934
1.03445
1.02959
1.06283
1.0784
1.15386
0.921417
0.928493
0.932973
0.940405
0.946803
0.957718
0.966389
0.980791
0.993151
1.00873
1.02214
1.03735
1.05096
1.06478
1.07719
1.08922
1.09929
1.10811
1.11515
1.12026
1.12343
1.12538
1.12359
1.12274
1.1166
1.11247
1.10251
1.09559
1.08189
1.07261
1.05358
1.04332
1.01805
1.00849
0.982317
0.970056
0.952979
0.943268
0.933128
0.953025
0.906783
0.917598
0.927402
0.937175
0.946798
0.958293
0.970167
0.983641
0.997853
1.01388
1.03048
1.047
1.06333
1.07798
1.09235
1.10431
1.11608
1.12469
1.13319
1.13847
1.14282
1.14471
1.14441
1.14391
1.13787
1.13518
1.12316
1.11652
1.09961
1.08885
1.06671
1.0524
1.02375
1.00671
0.970626
0.951293
0.904055
0.881457
0.816778
0.79676
0.894723
0.907564
0.918886
0.934878
0.950759
0.970278
0.989821
1.01092
1.03071
1.05079
1.06924
1.08727
1.10395
1.11935
1.13348
1.14565
1.15624
1.16439
1.17104
1.17445
1.17756
1.17648
1.17669
1.17233
1.17009
1.16456
1.15901
1.15354
1.1414
1.13524
1.11284
1.10112
1.06546
1.04569
0.999825
0.97398
0.919275
0.885831
0.814837
0.774585
0.894735
0.918189
0.934587
0.956665
0.973151
0.995242
1.01237
1.03594
1.05532
1.07992
1.09964
1.12239
1.13979
1.15881
1.17249
1.18705
1.19604
1.20572
1.20953
1.21454
1.21357
1.215
1.20967
1.20951
1.20118
1.20202
1.19267
1.19564
1.18453
1.18706
1.16816
1.16302
1.12796
1.10753
1.03879
0.998395
0.916465
0.88509
0.801825
0.792024
0.904165
0.941861
0.972662
1.01054
1.04051
1.07704
1.10584
1.14005
1.16559
1.19586
1.21693
1.24182
1.2574
1.27617
1.28559
1.29778
1.30006
1.30532
1.29949
1.29758
1.28385
1.27747
1.25835
1.24686
1.22506
1.21232
1.1943
1.18541
1.17724
1.17759
1.18231
1.18292
1.19087
1.16894
1.11166
1.05746
0.973852
0.916519
0.82313
0.775235
1.04521
1.08062
1.11528
1.14967
1.18312
1.21432
1.24285
1.26778
1.28793
1.30782
1.31383
1.33025
1.3275
1.34089
1.33134
1.33838
1.31854
1.31615
1.28495
1.27256
1.23019
1.20637
1.15303
1.11638
1.05455
1.00591
0.942534
0.882385
0.830902
0.75352
0.740197
0.643507
0.299779
0.0555328
0.135794
0.224128
0.275146
0.293406
0.298517
0.287249
1.01419
1.01381
1.01109
1.00689
1.00177
0.995434
0.984513
0.973585
0.965518
0.962391
0.967183
0.980091
0.994112
0.998602
0.99898
0.998599
0.998601
0.999274
1.00104
1.00198
1.00306
1.00422
1.00519
1.00568
1.00626
1.00684
1.00692
1.0073
1.00739
1.00745
1.00747
1.00746
1.00738
1.00734
1.00722
1.00709
1.00682
1.00676
1.00676
1.00972
1.01599
1.015
1.01194
1.00778
1.00125
0.994484
0.983648
0.970791
0.961246
0.957285
0.961354
0.976504
0.994646
1.00021
0.999997
0.999399
0.999395
0.999653
1.00117
1.00188
1.00296
1.00424
1.00522
1.00584
1.00638
1.00704
1.00706
1.00745
1.00755
1.00767
1.00768
1.00761
1.00758
1.00752
1.00745
1.00733
1.00706
1.00674
1.00621
1.00473
1.01954
1.01652
1.0134
1.00912
1.00254
0.995177
0.983571
0.968938
0.957369
0.951648
0.954733
0.972528
0.995559
1.00242
1.00167
1.00029
0.999694
0.99973
1.00106
1.0019
1.00326
1.00465
1.00551
1.00625
1.0068
1.00751
1.00744
1.00787
1.00782
1.00802
1.00801
1.00794
1.0079
1.00775
1.0077
1.00761
1.00747
1.00738
1.00771
1.00995
1.01843
1.01785
1.01462
1.00987
1.00231
0.994603
0.982974
0.966683
0.952919
0.945182
0.945941
0.96642
0.995891
1.00489
1.0036
1.00126
1.00039
1.00001
1.00103
1.00188
1.00319
1.00452
1.00525
1.00615
1.00675
1.00754
1.00753
1.00807
1.00797
1.00827
1.00821
1.00819
1.0081
1.00798
1.00794
1.0078
1.00754
1.00726
1.00675
1.00497
1.02262
1.0202
1.01608
1.01114
1.0041
0.995067
0.982656
0.965359
0.949318
0.938575
0.935954
0.959185
0.996185
1.00739
1.006
1.00254
1.00073
1.00007
1.00088
1.00181
1.00325
1.00476
1.00548
1.00661
1.00712
1.0078
1.00769
1.00834
1.00824
1.00862
1.00861
1.0087
1.0086
1.00841
1.00836
1.00825
1.00813
1.00796
1.00818
1.00964
1.02172
1.02098
1.01742
1.01186
1.0043
0.994911
0.982163
0.963657
0.945568
0.931622
0.924307
0.949699
0.996343
1.00961
1.00831
1.00363
1.00108
1.00036
1.00094
1.00188
1.00316
1.00469
1.00528
1.00664
1.00706
1.00785
1.00797
1.00858
1.00856
1.00905
1.00894
1.00904
1.00897
1.00877
1.00858
1.00833
1.00823
1.00786
1.00746
1.00582
1.0264
1.02369
1.01957
1.01367
1.00625
0.995912
0.982169
0.962405
0.942926
0.925588
0.91193
0.938078
0.995855
1.01145
1.01051
1.00484
1.00133
1.00056
1.00082
1.00171
1.00294
1.00484
1.00545
1.00705
1.00737
1.00827
1.00844
1.0091
1.00908
1.0095
1.00932
1.00935
1.00927
1.0091
1.00899
1.00877
1.00878
1.00854
1.00873
1.00958
1.02577
1.02426
1.02098
1.01491
1.00668
0.996781
0.982335
0.960791
0.940317
0.920166
0.898955
0.923827
0.993993
1.0127
1.01223
1.0056
1.00156
1.00084
1.00076
1.00179
1.00284
1.00478
1.00535
1.00699
1.00743
1.00848
1.00869
1.00933
1.00926
1.00965
1.0095
1.00946
1.0094
1.00919
1.00909
1.00881
1.00884
1.00849
1.00825
1.00687
1.03092
1.02724
1.02381
1.01769
1.00891
0.998586
0.982903
0.959587
0.938811
0.916588
0.886676
0.907085
0.989824
1.01298
1.01311
1.00639
1.00188
1.00089
1.00055
1.00157
1.0026
1.00476
1.00557
1.00724
1.00771
1.00879
1.00895
1.00965
1.00955
1.0099
1.00986
1.00982
1.00984
1.00967
1.00974
1.00941
1.0095
1.00917
1.00932
1.0097
1.03053
1.02797
1.02572
1.01997
1.01006
1.00054
0.98369
0.957999
0.937434
0.914487
0.875774
0.887781
0.982469
1.01232
1.01308
1.00664
1.00182
1.00076
1.00038
1.0015
1.00261
1.00469
1.00554
1.00711
1.0077
1.00893
1.00914
1.00996
1.00998
1.01026
1.01021
1.01011
1.01012
1.00987
1.00988
1.00956
1.00958
1.00917
1.00906
1.00801
1.03634
1.03175
1.02961
1.02383
1.0128
1.00316
0.985536
0.957904
0.937052
0.914301
0.867167
0.866626
0.970719
1.01019
1.01214
1.0062
1.00133
1.00042
1.00016
1.00129
1.00249
1.0046
1.00575
1.00733
1.00804
1.00942
1.00957
1.01033
1.01046
1.01073
1.01079
1.01065
1.01066
1.0104
1.01037
1.01017
1.01019
1.00981
1.00995
1.01005
1.03637
1.03264
1.03195
1.0266
1.01501
1.00615
0.987903
0.957978
0.936824
0.915281
0.86175
0.843872
0.953751
1.00635
1.01027
1.00469
1.00016
0.99975
0.999682
1.00117
1.00249
1.00455
1.00575
1.00721
1.00814
1.00952
1.0098
1.01064
1.01084
1.01102
1.01112
1.01092
1.01082
1.01058
1.0105
1.01028
1.01023
1.00984
1.00979
1.00919
1.0427
1.03821
1.03729
1.0315
1.01905
1.0098
0.991526
0.960307
0.93802
0.917354
0.86036
0.820359
0.930911
0.999508
1.00689
1.0021
0.998403
0.99876
0.999016
1.00076
1.00212
1.00425
1.00564
1.0073
1.00836
1.00981
1.01021
1.011
1.01129
1.0115
1.01163
1.01165
1.0116
1.0115
1.01135
1.01114
1.01094
1.01068
1.01056
1.01059
1.04339
1.03973
1.04097
1.03519
1.02319
1.01493
0.995869
0.962999
0.939886
0.919841
0.861861
0.797778
0.9014
0.989139
1.00184
0.99824
0.995755
0.997043
0.997863
1.0002
1.00188
1.00428
1.00555
1.00735
1.00859
1.01
1.01052
1.01121
1.01147
1.01179
1.01195
1.01199
1.01201
1.01196
1.01174
1.01146
1.01108
1.01085
1.01051
1.01041
1.05067
1.04702
1.04846
1.042
1.02943
1.02103
1.00146
0.967909
0.944292
0.923296
0.864747
0.776787
0.866024
0.97423
0.994459
0.992881
0.992287
0.994808
0.996435
0.99953
1.00137
1.0041
1.00552
1.00762
1.00878
1.01022
1.01092
1.01163
1.01191
1.01225
1.01247
1.01256
1.01261
1.01257
1.01246
1.01236
1.01188
1.01183
1.01135
1.01131
1.05239
1.04928
1.05289
1.04693
1.03594
1.02884
1.00837
0.973681
0.950233
0.926942
0.867133
0.755437
0.826644
0.954201
0.984168
0.985742
0.987617
0.99169
0.99416
0.998525
1.00076
1.00395
1.00558
1.00767
1.00893
1.01054
1.01127
1.01201
1.01226
1.01245
1.0126
1.01254
1.01267
1.01263
1.0125
1.01257
1.01199
1.01205
1.01153
1.01154
1.06112
1.05918
1.06292
1.05589
1.0452
1.03698
1.01638
0.981811
0.958804
0.931065
0.867223
0.733478
0.78425
0.929127
0.970726
0.976427
0.981772
0.987877
0.991214
0.997023
0.999521
1.00332
1.00543
1.00794
1.00927
1.01114
1.01182
1.0128
1.01322
1.01341
1.0137
1.01351
1.01365
1.01364
1.01336
1.01347
1.01281
1.01304
1.01229
1.01244
1.06456
1.06518
1.07013
1.06347
1.05599
1.04747
1.02631
0.99217
0.968779
0.934212
0.861879
0.710282
0.738547
0.898314
0.953346
0.964766
0.974382
0.982783
0.987169
0.994526
0.997833
1.00241
1.00508
1.00789
1.00942
1.01166
1.01244
1.01341
1.01391
1.01419
1.01459
1.01445
1.01442
1.0143
1.01375
1.01378
1.013
1.01316
1.0126
1.01293
1.07493
1.07947
1.08344
1.07695
1.0714
1.05989
1.03863
1.00697
0.980838
0.935301
0.848403
0.684153
0.691603
0.863511
0.932557
0.951143
0.965644
0.976814
0.982954
0.991352
0.995421
1.00079
1.00418
1.00755
1.00934
1.01169
1.01259
1.01392
1.01461
1.01513
1.01545
1.01544
1.01527
1.01534
1.01466
1.01491
1.01398
1.01416
1.01347
1.01373
1.08241
1.08889
1.09117
1.08735
1.08579
1.07395
1.0537
1.02482
0.992718
0.93119
0.823804
0.651676
0.642316
0.825849
0.908115
0.935288
0.95576
0.969396
0.978084
0.987939
0.993399
0.999414
1.00336
1.00702
1.00911
1.01147
1.01243
1.01381
1.01438
1.01518
1.01534
1.01572
1.01535
1.01583
1.01508
1.0156
1.01463
1.01496
1.01421
1.01462
1.09577
1.10674
1.1057
1.10511
1.10387
1.09046
1.07242
1.04584
1.0021
0.917699
0.787192
0.610431
0.591525
0.787548
0.880921
0.917185
0.944677
0.961247
0.973644
0.984279
0.990916
0.997804
1.00232
1.0068
1.00956
1.0118
1.01318
1.01484
1.01521
1.01641
1.01643
1.01744
1.01692
1.01773
1.01673
1.01726
1.01602
1.01622
1.01538
1.01571
1.11048
1.12079
1.11753
1.12322
1.12308
1.11254
1.09909
1.06825
1.00342
0.889128
0.735787
0.557492
0.541445
0.749224
0.851414
0.896805
0.932121
0.951725
0.968149
0.980304
0.988692
0.9965
1.00169
1.00657
1.0101
1.01225
1.01425
1.01577
1.01645
1.01803
1.01777
1.01889
1.018
1.01888
1.01767
1.0182
1.01687
1.01716
1.01632
1.01687
1.12812
1.139
1.1387
1.1511
1.15092
1.14541
1.13613
1.08743
0.989735
0.840657
0.66457
0.494618
0.497416
0.715447
0.822271
0.875654
0.918646
0.941855
0.962339
0.975313
0.985743
0.994051
1.00046
1.0053
1.0099
1.01203
1.015
1.01643
1.01758
1.01916
1.01891
1.02007
1.01908
1.01982
1.01861
1.01907
1.01771
1.01805
1.0172
1.01789
1.14651
1.15244
1.15869
1.17683
1.17998
1.18801
1.17513
1.0915
0.950024
0.766733
0.571783
0.427017
0.462628
0.688347
0.794529
0.855598
0.905276
0.931574
0.95668
0.970685
0.983674
0.991175
0.999053
1.00319
1.00903
1.01085
1.01462
1.01576
1.01732
1.01888
1.01884
1.0201
1.01955
1.02045
1.01958
1.02014
1.01884
1.01925
1.0184
1.01919
1.16562
1.17247
1.19137
1.21604
1.22909
1.25066
1.19232
1.06862
0.874934
0.660282
0.459945
0.368967
0.446025
0.668573
0.770135
0.839027
0.892987
0.9234
0.951938
0.966954
0.982451
0.989895
0.999512
1.00342
1.01003
1.01121
1.01563
1.0163
1.0185
1.0197
1.02026
1.0212
1.02119
1.02188
1.02126
1.02155
1.02035
1.02073
1.0199
1.02065
1.19082
1.20397
1.23306
1.26109
1.29766
1.28931
1.19467
1.00341
0.757143
0.518746
0.349659
0.343702
0.455221
0.657377
0.751284
0.827815
0.882668
0.917216
0.948321
0.965718
0.982796
0.991568
1.00163
1.00551
1.01271
1.01345
1.01848
1.01813
1.02112
1.02108
1.02275
1.02278
1.02363
1.02369
1.02339
1.02332
1.02226
1.02249
1.02142
1.02205
1.22173
1.24484
1.28512
1.32905
1.36741
1.30657
1.15666
0.880285
0.588189
0.35636
0.306428
0.364894
0.489547
0.656363
0.74236
0.824606
0.876047
0.914764
0.945439
0.96572
0.983258
0.994112
1.00395
1.00884
1.01579
1.01685
1.02219
1.02124
1.02514
1.0237
1.02669
1.02518
1.02708
1.02578
1.02622
1.0254
1.02466
1.02455
1.02344
1.02422
1.25645
1.28728
1.34106
1.41153
1.40339
1.30116
1.04785
0.681771
0.372818
0.275711
0.364909
0.433458
0.538266
0.668702
0.747135
0.830901
0.875218
0.918894
0.944663
0.969115
0.983664
0.998205
1.00569
1.01343
1.01821
1.02143
1.02538
1.02533
1.029
1.02733
1.03057
1.02819
1.03066
1.02807
1.02949
1.02759
1.02767
1.02694
1.02607
1.02684
1.29514
1.33599
1.43003
1.47691
1.42068
1.22815
0.830935
0.421841
0.273086
0.416424
0.486003
0.518449
0.598027
0.698406
0.768805
0.847781
0.884762
0.931045
0.949053
0.978371
0.987053
1.00674
1.0088
1.02063
1.0212
1.02811
1.02791
1.03127
1.03156
1.03193
1.03368
1.03185
1.03405
1.03131
1.03333
1.03061
1.03175
1.02997
1.02997
1.0308
1.34759
1.42466
1.53778
1.51715
1.38943
1.04826
0.554501
0.38344
0.53608
0.606851
0.623455
0.599126
0.671712
0.743219
0.809615
0.875517
0.91003
0.950754
0.964352
0.99284
0.996826
1.01737
1.01636
1.02942
1.02699
1.03619
1.03211
1.03944
1.03535
1.03919
1.03805
1.03833
1.0392
1.03714
1.0386
1.03527
1.03618
1.03317
1.03373
1.03376
1.40511
1.536
1.56994
1.4838
1.18664
0.756894
0.630612
0.724783
0.759973
0.761659
0.69537
0.681679
0.763611
0.799194
0.874272
0.912543
0.958033
0.97852
0.995378
1.013
1.01636
1.03207
1.03216
1.04129
1.04077
1.04769
1.04416
1.05062
1.04545
1.05031
1.04657
1.04873
1.04676
1.04649
1.04597
1.04339
1.04314
1.04014
1.04067
1.03978
1.4279
1.50475
1.42559
1.11808
0.867653
0.825784
0.87121
0.874711
0.855197
0.787714
0.725966
0.756241
0.800475
0.855796
0.919743
0.95924
1.01419
1.02083
1.04365
1.0458
1.05041
1.05565
1.05914
1.0604
1.06383
1.06327
1.06388
1.06355
1.06151
1.06209
1.05877
1.0594
1.05566
1.05647
1.05286
1.05223
1.04979
1.04824
1.0489
1.04773
1.34967
1.2745
0.993363
0.857022
0.829587
0.819211
0.803646
0.799574
0.771588
0.715663
0.728185
0.767821
0.817079
0.873691
0.935429
0.989438
1.03868
1.06922
1.0886
1.09948
1.09264
1.0949
1.09154
1.09007
1.09002
1.08407
1.08659
1.07893
1.08157
1.07526
1.07633
1.0719
1.07015
1.06807
1.06459
1.06363
1.06
1.05837
1.05716
1.05631
1.10669
0.881957
0.713125
0.6602
0.642859
0.603546
0.610953
0.619704
0.602194
0.610362
0.685866
0.726407
0.805037
0.872128
0.943799
0.994471
1.04887
1.0837
1.11212
1.13379
1.13852
1.1409
1.12719
1.12963
1.11886
1.11656
1.11165
1.10658
1.10544
1.09915
1.09918
1.09216
1.09162
1.08602
1.08394
1.07968
1.07731
1.0749
1.07478
1.07276
0.856806
0.535221
0.421451
0.340241
0.305233
0.314029
0.349496
0.371438
0.401428
0.453535
0.545836
0.620024
0.725487
0.831122
0.918715
0.992308
1.04998
1.08861
1.12375
1.14532
1.16436
1.17609
1.17878
1.17351
1.16983
1.16306
1.15434
1.15041
1.14454
1.14164
1.13542
1.13185
1.12574
1.12194
1.11748
1.11221
1.10884
1.10237
1.09849
1.09658
0.690305
0.408383
0.291774
0.144508
0.0798474
0.0665026
0.0839864
0.114562
0.146317
0.191875
0.290102
0.383138
0.524776
0.676445
0.813007
0.928635
1.01814
1.08146
1.12676
1.15739
1.18119
1.19702
1.21034
1.2137
1.22067
1.22093
1.21987
1.20709
1.20457
1.19529
1.19247
1.18683
1.18251
1.17929
1.17323
1.16749
1.16018
1.15148
1.14109
1.13326
0.679864
0.531244
0.452454
0.430792
0.438897
0.424836
0.398939
0.350483
0.267879
0.19386
0.115192
0.0854129
0.212493
0.386327
0.587063
0.757635
0.887225
0.989868
1.06522
1.12238
1.16756
1.19464
1.21804
1.2304
1.24014
1.24309
1.25035
1.24971
1.24951
1.24555
1.24176
1.23802
1.23472
1.23294
1.22779
1.22419
1.21935
1.21458
1.20917
1.20101
0.706201
0.605409
0.560787
0.577194
0.639775
0.678084
0.679679
0.65991
0.626269
0.578997
0.5392
0.483074
0.440584
0.373972
0.323767
0.398808
0.505787
0.615651
0.717341
0.827879
0.937466
1.03704
1.10454
1.16034
1.19634
1.22609
1.24241
1.25449
1.26153
1.26391
1.26181
1.25722
1.25165
1.251
1.24799
1.24848
1.24513
1.24581
1.24754
1.25041
0.651272
0.500267
0.382875
0.427366
0.526882
0.591292
0.614254
0.627833
0.635213
0.649201
0.665274
0.676653
0.682065
0.694122
0.707834
0.723753
0.700694
0.653511
0.601324
0.468122
0.380764
0.404767
0.460189
0.549675
0.642143
0.757123
0.848204
0.925593
0.989649
1.04989
1.09623
1.14302
1.17335
1.20289
1.22722
1.24861
1.26849
1.2834
1.29818
1.30545
0.342726
0.312512
0.308758
0.327838
0.345499
0.370112
0.385439
0.419078
0.45291
0.499369
0.544458
0.589489
0.6239
0.658075
0.678782
0.698149
0.702039
0.705521
0.696852
0.690172
0.669156
0.653821
0.609192
0.553297
0.469737
0.259052
0.41183
0.591636
0.641542
0.693849
0.734648
0.774584
0.814614
0.85741
0.899003
0.943129
0.986365
1.03733
1.08964
1.14816
1.01596
1.0159
1.01738
1.01775
1.01853
1.01864
1.01923
1.01918
1.01944
1.0192
1.01943
1.01877
1.01866
1.01787
1.01671
1.01551
1.01271
1.01007
1.00494
0.9995
0.991519
0.983513
0.976625
0.974647
0.978387
0.988369
1.00076
1.00916
1.0092
1.0083
1.00795
1.00763
1.00739
1.00716
1.0069
1.0066
1.00626
1.0059
1.00556
1.00536
0.998871
0.9993
0.998379
0.998955
0.998439
0.999193
0.998777
0.999649
0.999227
0.999883
0.999742
1.0001
1.00054
1.0008
1.002
1.00273
1.0051
1.00728
1.01096
1.01469
1.0188
1.02298
1.02501
1.02577
1.02489
1.02011
1.01214
1.00876
1.00813
1.00837
1.00851
1.00857
1.00845
1.00817
1.00783
1.00735
1.00679
1.00639
1.00607
1.00578
1.01476
1.0153
1.01689
1.01731
1.01829
1.01827
1.01888
1.01848
1.01895
1.01812
1.01816
1.01738
1.0165
1.01574
1.01396
1.0126
1.00968
1.00749
1.00347
1.00081
0.997493
0.998144
0.999999
1.00342
1.00584
1.00724
1.00772
1.00773
1.00778
1.00797
1.00821
1.00839
1.00838
1.00824
1.00796
1.00765
1.00726
1.00685
1.00663
1.0064
1.00079
1.00138
1.00067
1.00111
1.00078
1.00143
1.00117
1.00202
1.00201
1.00281
1.00313
1.00405
1.00503
1.00606
1.00791
1.00987
1.01239
1.01563
1.01841
1.02165
1.02378
1.02507
1.02552
1.02492
1.02218
1.01857
1.01524
1.01224
1.01051
1.01003
1.00988
1.00966
1.0092
1.00869
1.00835
1.00776
1.00746
1.00717
1.00679
1.00659
1.01338
1.01434
1.01545
1.01597
1.01668
1.01668
1.01704
1.01667
1.01677
1.01617
1.01563
1.01511
1.01394
1.01308
1.01133
1.00998
1.00769
1.00631
1.0042
1.00381
1.00382
1.00556
1.00666
1.00786
1.00865
1.00939
1.00962
1.0096
1.00945
1.00931
1.00933
1.00949
1.00944
1.00902
1.00871
1.00843
1.00787
1.00762
1.00737
1.00709
1.0028
1.00325
1.00289
1.00339
1.00318
1.00399
1.00402
1.00483
1.0053
1.00608
1.00688
1.00776
1.00899
1.01024
1.01173
1.01345
1.01498
1.01695
1.01821
1.01974
1.02065
1.02136
1.02134
1.02039
1.01864
1.01708
1.0158
1.01417
1.01221
1.01121
1.01091
1.01054
1.00998
1.00936
1.00895
1.00854
1.00821
1.00785
1.00741
1.00724
1.01236
1.01345
1.0142
1.01477
1.01509
1.01524
1.0153
1.0151
1.0148
1.01464
1.01387
1.01353
1.01242
1.01172
1.01042
1.00949
1.00818
1.00755
1.0067
1.00685
1.00706
1.00804
1.00845
1.00908
1.00982
1.0108
1.01105
1.01111
1.01096
1.01064
1.01066
1.01066
1.01036
1.01003
1.00964
1.00901
1.00861
1.00844
1.00811
1.00774
1.00488
1.00515
1.00516
1.00567
1.00603
1.0065
1.00714
1.00771
1.00831
1.00908
1.00983
1.01078
1.01174
1.01274
1.01378
1.01476
1.01563
1.01656
1.01708
1.01778
1.01847
1.01876
1.01862
1.01749
1.01624
1.01574
1.01512
1.01385
1.01265
1.01205
1.0117
1.01104
1.01064
1.01038
1.00986
1.0093
1.00888
1.00862
1.00831
1.00796
1.0118
1.01263
1.01313
1.01366
1.01379
1.01405
1.01397
1.01407
1.0137
1.01371
1.01302
1.0128
1.0121
1.01171
1.01111
1.0108
1.01039
1.01039
1.01018
1.01011
1.00993
1.01043
1.01053
1.01069
1.0113
1.01204
1.01224
1.01227
1.01207
1.01194
1.01187
1.01161
1.01134
1.01087
1.01041
1.00986
1.00954
1.00924
1.00896
1.00866
1.0068
1.00712
1.00745
1.008
1.00854
1.009
1.00965
1.01013
1.01072
1.01141
1.01206
1.01279
1.01344
1.0141
1.01476
1.0154
1.01595
1.0163
1.01663
1.01724
1.01762
1.01747
1.01674
1.01579
1.01538
1.01523
1.01456
1.01363
1.01305
1.01266
1.01216