/*--------------------------------*- C++ -*----------------------------------*\
  =========                 |
  \\      /  F ield         | OpenFOAM: The Open Source CFD Toolbox
   \\    /   O peration     | Website:  https://openfoam.org
    \\  /    A nd           | Version:  11
     \\/     M anipulation  |
\*---------------------------------------------------------------------------*/
FoamFile
{
    format      ascii;
    class       volScalarField;
    location    "4.5";
    object      p;
}
// * * * * * * * * * * * * * * * * * * * * * * * * * * * * * * * * * * * * * //

dimensions      [0 2 -2 0 0 0 0];

internalField   nonuniform List<scalar> 
9600
(
0.0485753
0.0487333
0.0489914
0.049294
0.0495496
0.0496663
0.049502
0.0490342
0.0483048
0.0473441
0.0460992
0.0441548
0.0410759
0.0386359
0.0358014
0.0314124
0.0286583
0.0250896
0.0212481
0.0175549
0.0139168
0.0100976
0.00617631
0.00235897
-0.000879264
-0.00339478
-0.00535266
-0.00699298
-0.0081592
-0.00848408
-0.00850022
-0.00781284
-0.00699399
-0.00603309
-0.00508334
-0.00405236
-0.00324329
-0.00257826
-0.00219119
-0.00211982
0.0487054
0.048925
0.0492344
0.0495507
0.0497942
0.0497749
0.0494492
0.0488784
0.0480578
0.0470422
0.0458092
0.0436038
0.0407248
0.0380774
0.0350119
0.0307882
0.0275164
0.0245451
0.0206124
0.0166555
0.0129681
0.00925077
0.00549392
0.00183125
-0.00129443
-0.00376126
-0.00563614
-0.00714061
-0.00847356
-0.00913488
-0.00879864
-0.00846559
-0.00755619
-0.00666847
-0.00566314
-0.00454428
-0.00357524
-0.00263782
-0.00197231
-0.00201798
0.0488778
0.0490766
0.0493477
0.0496189
0.0497543
0.0496246
0.0492566
0.0486721
0.0478281
0.0467201
0.0451216
0.0430078
0.0405012
0.0378088
0.0344008
0.0307633
0.0279906
0.0246268
0.0209908
0.0176734
0.0143266
0.0107543
0.00708413
0.00344498
0.000211256
-0.00241852
-0.00447168
-0.00601574
-0.0074074
-0.00809023
-0.00838055
-0.00808858
-0.00754834
-0.00680097
-0.0059822
-0.00501745
-0.00412222
-0.00332002
-0.0026339
-0.00195727
0.0490618
0.0492298
0.0494929
0.0497494
0.04986
0.0497206
0.0493147
0.048666
0.0477196
0.0464724
0.044855
0.042888
0.0403444
0.0374766
0.0340975
0.0308404
0.0272206
0.0239742
0.0201298
0.0163331
0.0126182
0.00890887
0.00524339
0.00168196
-0.00143313
-0.00398903
-0.00603396
-0.00767392
-0.00887735
-0.00965776
-0.00941841
-0.00893905
-0.00817245
-0.00723928
-0.00633609
-0.00527197
-0.00419329
-0.00322899
-0.00241678
-0.00181305
0.0492675
0.0494074
0.0496489
0.0498933
0.0499655
0.0497393
0.0492338
0.0485004
0.0474998
0.0462078
0.0445792
0.0424336
0.039971
0.0370657
0.033771
0.0306369
0.0272513
0.0239266
0.0204693
0.0171965
0.0140183
0.0106601
0.00724158
0.00381458
0.000681825
-0.00197853
-0.00403253
-0.0055438
-0.00685556
-0.0078866
-0.00862318
-0.00860688
-0.0081823
-0.00757472
-0.00675649
-0.00590476
-0.00500638
-0.00413219
-0.00323057
-0.00240866
0.0494943
0.0495981
0.0498204
0.0500417
0.0500695
0.0497696
0.049208
0.04844
0.0473719
0.0460182
0.0443469
0.0423552
0.039828
0.0370427
0.0337946
0.0304226
0.0269941
0.0235237
0.019852
0.0161633
0.0125214
0.00885899
0.00523307
0.00170668
-0.00144059
-0.00414037
-0.00636754
-0.00814385
-0.00939079
-0.00970498
-0.00996869
-0.00969647
-0.00899998
-0.00814732
-0.00720732
-0.00614859
-0.005019
-0.00389426
-0.0029468
-0.00221743
0.0497367
0.0498046
0.0500017
0.0501936
0.0501904
0.04985
0.0492283
0.0483837
0.0472747
0.0458942
0.0441572
0.0421361
0.039605
0.0366938
0.0334857
0.0302092
0.0267839
0.0233152
0.0198329
0.0165007
0.0133394
0.0101166
0.00684747
0.00360754
0.000606697
-0.00202103
-0.0040908
-0.00558398
-0.00692984
-0.00820404
-0.00877348
-0.00913736
-0.00893792
-0.00844243
-0.00768484
-0.00683464
-0.0059426
-0.00507902
-0.0041037
-0.00309992
0.0500016
0.0500278
0.0501923
0.0503546
0.0503258
0.0499616
0.0492836
0.0483782
0.0472033
0.0457404
0.0440022
0.0419806
0.039527
0.0366314
0.0333777
0.0300341
0.0265917
0.0230625
0.0195145
0.0159522
0.0124082
0.00883888
0.00528861
0.00179481
-0.00140758
-0.00423129
-0.00662414
-0.00854803
-0.00996808
-0.0106508
-0.0111492
-0.010742
-0.0100724
-0.0093212
-0.00835389
-0.00728592
-0.00609225
-0.00478846
-0.00373316
-0.0029906
0.0502889
0.0502722
0.0503988
0.0505435
0.0504835
0.0501111
0.0493924
0.0484052
0.0471524
0.0456571
0.0439252
0.041913
0.0394147
0.0363806
0.0331261
0.0297951
0.0263284
0.0227448
0.0192414
0.015799
0.0125182
0.00934611
0.00613979
0.00301808
0.000101135
-0.00248905
-0.00460152
-0.00615229
-0.00740096
-0.00851791
-0.00935335
-0.00991096
-0.00995791
-0.00950418
-0.00886613
-0.00798205
-0.0070684
-0.00615429
-0.00514664
-0.00409765
0.0506027
0.0505325
0.0506393
0.0507709
0.050684
0.0503001
0.0495289
0.0484592
0.0471492
0.0456391
0.0438953
0.0418227
0.039251
0.0362126
0.032952
0.0295874
0.0260959
0.0224854
0.0189484
0.0155002
0.0120644
0.00863972
0.00520194
0.00178792
-0.00142138
-0.00431775
-0.00684411
-0.00895436
-0.0106129
-0.0116292
-0.0119173
-0.0120576
-0.0114018
-0.0107488
-0.00981609
-0.00874293
-0.00752279
-0.00608298
-0.00486116
-0.00406452
0.0509455
0.0508315
0.0509165
0.051035
0.0509337
0.0505153
0.0496933
0.0485632
0.0472256
0.0456742
0.0438693
0.0417642
0.039146
0.0360473
0.0327461
0.0293391
0.025807
0.0221241
0.0185373
0.0151038
0.011738
0.00849515
0.00530569
0.00220324
-0.000680206
-0.0032713
-0.00545862
-0.00716267
-0.00841574
-0.00945964
-0.0104214
-0.0110443
-0.0113115
-0.0109844
-0.0103157
-0.0094575
-0.00849981
-0.00750039
-0.00643981
-0.00534629
0.0513277
0.0511775
0.0512483
0.0513441
0.0512344
0.05076
0.0498907
0.0487405
0.0473545
0.045739
0.0438845
0.041716
0.0390136
0.0358458
0.0325354
0.0290958
0.0255021
0.0217831
0.0181656
0.0147307
0.011343
0.00808041
0.00483358
0.00155839
-0.00161497
-0.00451356
-0.00710766
-0.00940665
-0.0112881
-0.0126382
-0.0133013
-0.0131986
-0.01309
-0.0125635
-0.011741
-0.0105755
-0.00938846
-0.00792913
-0.00646893
-0.00550441
0.0517592
0.0515772
0.0516293
0.0517033
0.0515646
0.0510618
0.0501516
0.0489587
0.0475384
0.0458612
0.0439121
0.0416582
0.0388949
0.0356839
0.0323401
0.0288327
0.0251498
0.0213701
0.0176638
0.0141971
0.0108182
0.00759878
0.00449288
0.00137442
-0.00161133
-0.0042799
-0.00653992
-0.00843866
-0.00988966
-0.0109809
-0.0119697
-0.0126682
-0.0125782
-0.0127142
-0.0122818
-0.0114005
-0.0103895
-0.00933207
-0.008235
-0.00717039
0.0522472
0.0520415
0.0520735
0.0521125
0.0519406
0.0514118
0.0504611
0.0492485
0.0477765
0.0459905
0.0439695
0.0416515
0.0388057
0.0355019
0.0320667
0.0284995
0.0247575
0.0209175
0.0171481
0.0136717
0.0103273
0.00711201
0.00401828
0.000963034
-0.00208242
-0.00495534
-0.00754007
-0.00991971
-0.0120392
-0.0136875
-0.0148835
-0.015512
-0.0156368
-0.0149149
-0.0140911
-0.0130868
-0.0117845
-0.010363
-0.00881999
-0.00764421
0.0528066
0.0525637
0.0525662
0.0525763
0.0523779
0.0518323
0.0508494
0.0495731
0.0480057
0.0461798
0.0440712
0.0416408
0.0386983
0.0352992
0.0317936
0.0281669
0.0243239
0.020418
0.0165639
0.0130092
0.00966893
0.0064555
0.00341893
0.000463506
-0.00246206
-0.00523612
-0.00772148
-0.00982402
-0.0116103
-0.0129146
-0.0139828
-0.0148282
-0.0153896
-0.0154048
-0.0150023
-0.0141549
-0.0130701
-0.0118415
-0.0106155
-0.009479
0.0534517
0.0531606
0.0531282
0.0531019
0.0528734
0.0523268
0.0513015
0.049961
0.0483668
0.0464281
0.0441739
0.0416309
0.038596
0.0351179
0.0314829
0.027721
0.0237912
0.0198137
0.0158851
0.0122829
0.00897367
0.00581575
0.00282973
-5.33785e-05
-0.00294031
-0.00574122
-0.00830997
-0.0106178
-0.0128915
-0.0148736
-0.016479
-0.0175755
-0.0180038
-0.0176092
-0.0170605
-0.0162813
-0.0150733
-0.0136389
-0.0119891
-0.0106395
0.0541718
0.053817
0.0537522
0.0537146
0.0534635
0.0528906
0.0518227
0.0504105
0.0487021
0.046681
0.044316
0.0416239
0.0384949
0.0348994
0.0310821
0.027223
0.0231867
0.0191358
0.0151699
0.0114831
0.00815843
0.00502878
0.00205699
-0.000750967
-0.00353959
-0.00627974
-0.00886395
-0.01107
-0.0131847
-0.0150134
-0.0164541
-0.0176124
-0.0184471
-0.0187108
-0.0179713
-0.0175623
-0.0166423
-0.0154206
-0.0140021
-0.0127886
0.0549709
0.0545359
0.0544449
0.0544205
0.0541641
0.0535181
0.052431
0.0509545
0.0491728
0.047025
0.0444931
0.0416148
0.0383471
0.034631
0.0306627
0.0266263
0.0224793
0.0183616
0.014299
0.0105213
0.00718129
0.00412714
0.00126026
-0.00144469
-0.00412505
-0.00675924
-0.00935682
-0.0116916
-0.0139752
-0.0161743
-0.018173
-0.0198662
-0.0210398
-0.0216451
-0.0216561
-0.0205147
-0.0192956
-0.0180067
-0.0163799
-0.0149472
0.0558361
0.055351
0.0552697
0.0552502
0.0549281
0.0542434
0.0531153
0.051525
0.049616
0.047353
0.044666
0.0415658
0.0381348
0.0343427
0.0301534
0.0259169
0.0216447
0.0174041
0.0133064
0.00948147
0.00609375
0.00310848
0.000355199
-0.00227286
-0.00487106
-0.00741265
-0.00995629
-0.0123365
-0.0146074
-0.0168527
-0.0188371
-0.0205828
-0.0219318
-0.0228664
-0.0231571
-0.0228183
-0.0217408
-0.0203872
-0.0189495
-0.0176287
0.056811
0.0562875
0.0562016
0.0561527
0.0558
0.0550908
0.0539027
0.0521742
0.0500937
0.0477057
0.0448643
0.0415251
0.0378892
0.0339347
0.0295795
0.0251182
0.0206186
0.01629
0.0121832
0.00825682
0.00482856
0.00184667
-0.000807869
-0.00319835
-0.00560419
-0.00802236
-0.010426
-0.0128167
-0.0150596
-0.0175841
-0.0199645
-0.0223346
-0.0242019
-0.0255912
-0.0262046
-0.0260281
-0.0251877
-0.0239729
-0.022407
-0.0209784
0.0579273
0.0573685
0.0572484
0.0571651
0.0567954
0.0560113
0.0547664
0.052882
0.0505954
0.0480417
0.0450611
0.04149
0.0375153
0.03338
0.0289162
0.024159
0.0194341
0.0149481
0.0107657
0.00682373
0.00337267
0.000459978
-0.00205429
-0.00430158
-0.00645728
-0.00867596
-0.0108983
-0.0132774
-0.0156456
-0.0183358
-0.0208508
-0.0234629
-0.0255971
-0.0273767
-0.0284965
-0.0288126
-0.028432
-0.0273812
-0.0260172
-0.0247526
0.0592042
0.0585692
0.0584238
0.0583133
0.0579449
0.0570918
0.0556969
0.0536627
0.051161
0.0483681
0.0452297
0.0414223
0.0370782
0.0326755
0.0280449
0.0230821
0.0180711
0.0133365
0.00911937
0.00510689
0.00159073
-0.00113611
-0.00340194
-0.00561392
-0.00755011
-0.00952316
-0.0114539
-0.0135801
-0.015913
-0.0184849
-0.0213264
-0.0245439
-0.0274123
-0.0298694
-0.031682
-0.032676
-0.0327017
-0.0319536
-0.0307677
-0.0296997
0.0606688
0.0599438
0.0597592
0.0596061
0.0591965
0.0582588
0.0567041
0.0545321
0.0517765
0.0487117
0.0452488
0.0412325
0.0365845
0.0317474
0.0269124
0.0217727
0.0164395
0.011442
0.00716285
0.00316814
-0.000502668
-0.00336206
-0.00519714
-0.00688827
-0.0085382
-0.0103175
-0.0120028
-0.0139434
-0.0160504
-0.0186496
-0.0217569
-0.0252704
-0.0287234
-0.0318779
-0.034435
-0.0361485
-0.0369534
-0.0368732
-0.0359299
-0.0349637
0.0623465
0.0615123
0.0612886
0.0610868
0.0606069
0.0595661
0.0578072
0.0554289
0.0524635
0.0490497
0.0451852
0.0408647
0.0359563
0.0307006
0.0254479
0.0200912
0.0146006
0.00921549
0.00462285
0.000805234
-0.0026339
-0.00576202
-0.00769908
-0.00883092
-0.00977149
-0.0109115
-0.0123185
-0.0142262
-0.0162249
-0.0187327
-0.0216934
-0.0253456
-0.0293803
-0.0334423
-0.0369927
-0.0399192
-0.0417833
-0.0426847
-0.042564
-0.0418034
0.0642646
0.0633039
0.0630305
0.062766
0.0621396
0.0609599
0.0590043
0.0563525
0.0530878
0.0492952
0.0450601
0.0403176
0.0350579
0.0294061
0.0236098
0.0179531
0.012323
0.00662541
0.001599
-0.00235991
-0.0053632
-0.00815292
-0.0102322
-0.0114649
-0.011871
-0.0121227
-0.0126379
-0.0138217
-0.0156075
-0.0180768
-0.0212434
-0.0252679
-0.0298119
-0.034767
-0.0392492
-0.0432165
-0.0463468
-0.0484791
-0.049562
-0.0497704
0.0664747
0.0653681
0.0650068
0.0646553
0.0638584
0.06244
0.0602666
0.0573201
0.0536974
0.0494869
0.0447742
0.0395663
0.0338903
0.0277741
0.0214741
0.0152957
0.00941523
0.00357502
-0.00175626
-0.00618491
-0.00921701
-0.0113843
-0.0130218
-0.0140979
-0.0142491
-0.0138939
-0.0134968
-0.0136132
-0.0146227
-0.0166704
-0.0197822
-0.0240768
-0.0291241
-0.0350207
-0.0409321
-0.0462823
-0.0509625
-0.0546611
-0.0570848
-0.0589263
0.0690447
0.0677581
0.0672282
0.066728
0.0657546
0.0640445
0.0615238
0.058215
0.0541771
0.0494722
0.0442384
0.0385086
0.0323064
0.0256495
0.0189011
0.0120676
0.0057072
-0.00028078
-0.00577129
-0.0105354
-0.0138775
-0.0158864
-0.0168657
-0.0171937
-0.0168422
-0.0158914
-0.0147575
-0.0137915
-0.013705
-0.0147815
-0.0172757
-0.0212329
-0.0267096
-0.0336458
-0.0411083
-0.0485893
-0.0553457
-0.061143
-0.0653639
-0.0685249
0.0720129
0.0705081
0.0697542
0.0690174
0.0678027
0.0657832
0.0628486
0.0590432
0.0545094
0.0492281
0.0434401
0.0370206
0.0302471
0.022947
0.0156208
0.00821108
0.00123431
-0.00517449
-0.010826
-0.015723
-0.0193494
-0.0213573
-0.0220421
-0.0214845
-0.0203547
-0.0183733
-0.0164335
-0.0142368
-0.0127697
-0.0123266
-0.0137175
-0.0169779
-0.0222851
-0.0298163
-0.0386795
-0.048539
-0.0581645
-0.0669596
-0.0739464
-0.078915
0.0753316
0.0735383
0.0725711
0.071535
0.0699575
0.0675042
0.064123
0.0597161
0.0545634
0.0485519
0.0420888
0.0349568
0.0274302
0.0194826
0.0114344
0.00339102
-0.00427009
-0.0111859
-0.0172296
-0.0221007
-0.0259521
-0.0278596
-0.0285107
-0.0273662
-0.02502
-0.021953
-0.0188457
-0.0151841
-0.0121359
-0.00985469
-0.00940878
-0.0109439
-0.0151883
-0.022162
-0.0319441
-0.0442819
-0.0575219
-0.0708891
-0.0824612
-0.0917397
0.0791425
0.0769624
0.0756734
0.0742722
0.0722874
0.0692625
0.0653024
0.0602132
0.0542818
0.0474256
0.0400395
0.0321031
0.0236313
0.0149706
0.00604854
-0.00260116
-0.0111339
-0.0185121
-0.0251143
-0.0301825
-0.0340514
-0.0360321
-0.0364511
-0.0349412
-0.0316606
-0.0274501
-0.0227178
-0.0172568
-0.0122336
-0.00773511
-0.0046906
-0.00350205
-0.00544784
-0.0105127
-0.0194049
-0.0321967
-0.0484396
-0.0675589
-0.0867992
-0.105263
0.0836224
0.0809569
0.0791934
0.0771979
0.0745608
0.0709159
0.0662251
0.0604212
0.0534249
0.0456627
0.037213
0.0281306
0.0186265
0.00904021
-0.000857127
-0.0103718
-0.01965
-0.0277186
-0.0348318
-0.0402642
-0.0441516
-0.0462944
-0.046372
-0.044586
-0.0407419
-0.0353693
-0.0291596
-0.0217926
-0.0143288
-0.00708909
-0.000784541
0.00411176
0.00624973
0.00521856
-0.000515259
-0.0108499
-0.0269417
-0.0484044
-0.0747433
-0.104308
0.0888102
0.0854653
0.0829825
0.0803472
0.0767528
0.0720716
0.0661966
0.0593015
0.0513298
0.0424434
0.032815
0.0226013
0.0117774
0.000974506
-0.00997567
-0.0204782
-0.0304245
-0.0393677
-0.0469783
-0.0529444
-0.0570419
-0.0592482
-0.0592456
-0.0571729
-0.0529924
-0.046908
-0.0393318
-0.0303893
-0.0205194
-0.0102099
-0.000104443
0.00934176
0.0168186
0.0220091
0.0227542
0.0190711
0.00843727
-0.00843325
-0.0350488
-0.0681747
0.0947139
0.0905682
0.0872413
0.0838938
0.0796963
0.0741135
0.0671286
0.0587029
0.0488425
0.0382493
0.026948
0.0152247
0.00293644
-0.00935671
-0.02143
-0.0331306
-0.0439896
-0.0537472
-0.0619983
-0.0686146
-0.0731067
-0.0755705
-0.0757127
-0.0734267
-0.068941
-0.0622369
-0.0538507
-0.0439519
-0.032395
-0.0194941
-0.00584787
0.0081573
0.0214908
0.0337386
0.043043
0.0492422
0.0497166
0.0439727
0.0303093
0.00882875
0.101013
0.0955951
0.0903785
0.0849363
0.0786157
0.0711656
0.0624443
0.053067
0.0422766
0.030128
0.0172696
0.00368903
-0.0102193
-0.0240438
-0.0373843
-0.0501419
-0.0618616
-0.0723749
-0.081356
-0.0885257
-0.0935152
-0.0963127
-0.0967518
-0.0945864
-0.0902102
-0.0834886
-0.0746736
-0.0640991
-0.0517255
-0.0374707
-0.0214511
-0.00387026
0.0144989
0.033195
0.05126
0.0670821
0.0806149
0.0893978
0.0929127
0.0887695
0.109576
0.103542
0.0976352
0.0911071
0.0831323
0.0737127
0.0627844
0.0495747
0.0349698
0.0194593
0.00355036
-0.0125542
-0.0285744
-0.0441707
-0.0591564
-0.0732231
-0.0859872
-0.0973008
-0.106944
-0.114616
-0.120212
-0.123442
-0.124262
-0.122743
-0.118756
-0.112507
-0.10386
-0.0933415
-0.0806764
-0.0660437
-0.0490797
-0.0301763
-0.00911149
0.0132349
0.0371191
0.0610617
0.0844688
0.106177
0.123753
0.135532
0.112256
0.101539
0.0914912
0.0814429
0.0707251
0.0587568
0.0455822
0.0312401
0.0154966
-0.00166857
-0.0198171
-0.0382329
-0.0563815
-0.0737651
-0.0902167
-0.105487
-0.11919
-0.131151
-0.141105
-0.149065
-0.154828
-0.158504
-0.160044
-0.159504
-0.156776
-0.151871
-0.144593
-0.135224
-0.123374
-0.10918
-0.0925246
-0.0738921
-0.0527165
-0.0296643
-0.00464145
0.0217672
0.0498803
0.0781359
0.106661
0.133591
0.133069
0.123086
0.111488
0.0978013
0.0818333
0.0634638
0.043213
0.0218605
2.64924e-05
-0.0218293
-0.0434376
-0.0646164
-0.0851405
-0.104739
-0.12312
-0.140006
-0.155012
-0.168036
-0.178727
-0.187267
-0.193543
-0.197868
-0.20053
-0.201664
-0.201731
-0.200622
-0.198328
-0.193909
-0.187264
-0.177411
-0.163642
-0.146068
-0.124736
-0.100841
-0.0759946
-0.0507554
-0.0249268
0.00113658
0.0278053
0.0520039
0.0985701
0.0774929
0.0570046
0.0364396
0.0153438
-0.00587817
-0.0280717
-0.0513863
-0.0760404
-0.101317
-0.126613
-0.151064
-0.174232
-0.195608
-0.214983
-0.231951
-0.246355
-0.258009
-0.266895
-0.273244
-0.277155
-0.279317
-0.279969
-0.279779
-0.279485
-0.280102
-0.282171
-0.285933
-0.290826
-0.29499
-0.296636
-0.2931
-0.281421
-0.259191
-0.226633
-0.188742
-0.153669
-0.125246
-0.103808
-0.0901727
0.163682
0.136794
0.106949
0.076531
0.045828
0.0145787
-0.0168733
-0.0480406
-0.078377
-0.107592
-0.135319
-0.161134
-0.184609
-0.205634
-0.223809
-0.238954
-0.250727
-0.259095
-0.263793
-0.26527
-0.263489
-0.259238
-0.252705
-0.245678
-0.239353
-0.236529
-0.23863
-0.248446
-0.267119
-0.299704
-0.343099
-0.399625
-0.466924
-0.514184
-0.527679
-0.514299
-0.491508
-0.466554
-0.444669
-0.426964
-0.0949503
-0.13189
-0.170338
-0.214277
-0.261286
-0.308885
-0.354887
-0.399127
-0.44021
-0.476124
-0.506114
-0.531407
-0.554264
-0.574469
-0.591063
-0.602586
-0.60803
-0.606979
-0.599579
-0.586063
-0.566893
-0.542351
-0.513822
-0.482227
-0.44971
-0.417915
-0.389314
-0.366071
-0.350346
-0.345591
-0.352246
-0.379333
-0.418441
-0.435246
-0.442279
-0.446856
-0.450913
-0.453721
-0.457231
-0.454226
-0.000831498
0.000208482
0.000431439
0.000888174
0.00176363
0.00297609
0.00472921
0.00638507
0.00802085
0.00946456
0.00994366
0.00946644
0.00825216
0.00637876
0.004937
0.003237
0.0016909
0.000377206
-0.000936057
-0.00193994
-0.00274267
-0.00338357
-0.00383416
-0.00409844
-0.00430948
-0.00442446
-0.0044477
-0.00440165
-0.00437691
-0.00427405
-0.00421715
-0.00410835
-0.00398342
-0.00386558
-0.00375522
-0.00363545
-0.00342083
-0.00322233
-0.00288856
-0.00368011
-0.00115812
-9.11377e-05
9.30925e-05
0.0006342
0.00154702
0.00286979
0.00476824
0.00668481
0.00850074
0.0101185
0.0106068
0.00988889
0.00868171
0.0066096
0.00513133
0.00336778
0.00176514
0.000378905
-0.00103687
-0.00211919
-0.0029629
-0.00361125
-0.00412639
-0.00441458
-0.00461702
-0.00471926
-0.00469777
-0.00463035
-0.00458178
-0.00446951
-0.00440236
-0.00426844
-0.00414951
-0.00400873
-0.00387213
-0.00371914
-0.00350778
-0.00335232
-0.00352246
-0.0048323
-0.000634177
-0.000383648
-0.000269512
0.000347379
0.00137344
0.00275992
0.0047746
0.0069382
0.00895167
0.0107766
0.0113617
0.0102023
0.00919444
0.00695774
0.00539075
0.00354031
0.0019213
0.000422151
-0.00106122
-0.00221241
-0.00316111
-0.0038413
-0.00436638
-0.00467298
-0.00490821
-0.00502084
-0.00497883
-0.00490545
-0.00480707
-0.00469593
-0.00459824
-0.00443873
-0.00431336
-0.00415135
-0.00400879
-0.00385289
-0.00365443
-0.0034376
-0.00309404
-0.0027498
-0.00107991
-0.000785101
-0.000648508
0.00011063
0.0012016
0.002621
0.00474237
0.0071362
0.00940343
0.0114462
0.0121898
0.0104951
0.00975189
0.00741717
0.00576503
0.00383503
0.00211477
0.000502868
-0.00107948
-0.00227331
-0.00328182
-0.00400687
-0.004548
-0.00488329
-0.00516904
-0.00526024
-0.00521031
-0.00516069
-0.00503149
-0.00493942
-0.00482937
-0.00466478
-0.00452556
-0.00435633
-0.00420326
-0.00403342
-0.00384177
-0.00367649
-0.00372205
-0.00434942
-0.000837586
-0.00119691
-0.000966325
-0.000104803
0.000981705
0.00250562
0.00469328
0.00726095
0.00983172
0.012144
0.0130968
0.0110107
0.0103636
0.00786768
0.00625821
0.00417461
0.00234399
0.000597374
-0.00105695
-0.00229775
-0.00337452
-0.00418286
-0.00474802
-0.00514714
-0.00544248
-0.00546179
-0.00542293
-0.00540713
-0.00530326
-0.0052468
-0.00514456
-0.00499079
-0.00482734
-0.00463458
-0.00444697
-0.00423935
-0.00402735
-0.00380016
-0.0034183
-0.00288938
-0.00123188
-0.0015546
-0.00134609
-0.000378844
0.000685118
0.00233743
0.00458798
0.00730573
0.0101702
0.0128467
0.0140847
0.0115279
0.0108327
0.00843776
0.00683689
0.00454966
0.00263406
0.00073187
-0.000994826
-0.00232009
-0.00346385
-0.00436017
-0.00493269
-0.00544158
-0.00571306
-0.00572419
-0.00575152
-0.00574622
-0.00569915
-0.00565404
-0.00551421
-0.00533603
-0.00512489
-0.00489605
-0.00465569
-0.00441457
-0.00419552
-0.00401973
-0.00399232
-0.00428426
-0.00147904
-0.00191213
-0.00175429
-0.000733622
0.00030527
0.00202499
0.00434272
0.00724313
0.0104222
0.0135468
0.0152104
0.0119473
0.0112075
0.00916188
0.00744828
0.0050629
0.00297194
0.000928622
-0.000849958
-0.0023186
-0.00353159
-0.00451198
-0.00513565
-0.00575645
-0.00600642
-0.0060947
-0.00618414
-0.00617155
-0.00613159
-0.0060241
-0.00581838
-0.00559242
-0.00533684
-0.00507668
-0.00481576
-0.00457998
-0.00437269
-0.00416349
-0.00380266
-0.00328972
-0.00193809
-0.00231668
-0.00222996
-0.00118686
-0.000178069
0.00157127
0.00400233
0.00705518
0.0105924
0.0142384
0.0165435
0.0122964
0.011627
0.0100206
0.00814251
0.00580964
0.0033534
0.00116006
-0.000655553
-0.00232932
-0.00360964
-0.00463707
-0.00538358
-0.00606564
-0.00632683
-0.00649976
-0.00659495
-0.00655217
-0.00646323
-0.00628884
-0.00605602
-0.00579643
-0.00553028
-0.00526297
-0.00501681
-0.00478716
-0.00459252
-0.00440446
-0.00430693
-0.00436051
-0.00246325
-0.00282503
-0.00281206
-0.00181445
-0.000830027
0.000949026
0.00360048
0.00677488
0.0106687
0.0148971
0.01818
0.0126905
0.0121424
0.0109682
0.00905713
0.00666402
0.00378093
0.00145984
-0.000474105
-0.00229406
-0.00367438
-0.00476181
-0.00567409
-0.00636308
-0.00663896
-0.00686914
-0.00694641
-0.00690384
-0.0067875
-0.00658999
-0.00635471
-0.00608337
-0.00582165
-0.00554981
-0.00530122
-0.00505324
-0.00484696
-0.0045974
-0.00423926
-0.00380691
-0.00291882
-0.00337845
-0.00354473
-0.00266936
-0.00163331
0.000112429
0.00303698
0.00637617
0.0106196
0.0154505
0.020292
0.0131874
0.012825
0.0120361
0.0102016
0.0075709
0.00434347
0.00185653
-0.000311539
-0.00222267
-0.00378169
-0.00495464
-0.00598147
-0.00665037
-0.00696893
-0.00727627
-0.00736135
-0.0073411
-0.00722186
-0.00702048
-0.00676925
-0.00647822
-0.00619875
-0.00589388
-0.00560383
-0.00532534
-0.00508865
-0.00482348
-0.00463233
-0.00455285
-0.00384819
-0.00404629
-0.00430551
-0.00368572
-0.00259322
-0.000939193
0.00219305
0.00574762
0.0103643
0.0157934
0.0230009
0.0138482
0.013736
0.0133107
0.0115949
0.00860386
0.00508511
0.00232327
-0.000134667
-0.00215212
-0.00390871
-0.00519624
-0.00631123
-0.00697252
-0.00739658
-0.00776063
-0.00783499
-0.00783415
-0.00771878
-0.00751001
-0.00724329
-0.00691322
-0.00657777
-0.00622022
-0.00590367
-0.00561794
-0.00534585
-0.00503647
-0.00471741
-0.00437734
-0.00462438
-0.00479026
-0.00514254
-0.00485154
-0.00377985
-0.00220161
0.00102614
0.00482746
0.00980525
0.0158451
0.0239118
0.0170418
0.0150454
0.014963
0.0131673
0.00977742
0.00601329
0.00289893
0.000120386
-0.00208456
-0.00400612
-0.00541817
-0.00660659
-0.00728962
-0.0078331
-0.00821656
-0.00832033
-0.00835251
-0.0082278
-0.00800825
-0.00771254
-0.00735769
-0.00698619
-0.00662651
-0.00630735
-0.006
-0.00567318
-0.0053258
-0.00504928
-0.00486528
-0.00588277
-0.00589505
-0.0062073
-0.00623602
-0.00534153
-0.0037917
-0.000518945
0.00352713
0.00887825
0.0157387
0.0249369
0.0206096
0.0168054
0.0171323
0.0148399
0.0110915
0.00713829
0.00359715
0.000470133
-0.0019363
-0.0040217
-0.00558259
-0.0068419
-0.00762389
-0.00829032
-0.00870192
-0.00884949
-0.0088821
-0.00872886
-0.00850103
-0.00820643
-0.00789291
-0.00753527
-0.00720701
-0.00685705
-0.00649527
-0.00609447
-0.00569613
-0.0053323
-0.00499222
-0.00695249
-0.00714452
-0.00762897
-0.00795302
-0.00736637
-0.00588282
-0.00253519
0.00176668
0.00752045
0.0154226
0.0256423
0.0243497
0.0193322
0.0198119
0.0166818
0.0125982
0.00840085
0.00442125
0.000906952
-0.0017369
-0.0040537
-0.00580901
-0.00711105
-0.00806119
-0.00881951
-0.00922723
-0.00938775
-0.00939546
-0.00922495
-0.00902296
-0.00876444
-0.00848203
-0.00814111
-0.0078117
-0.00740492
-0.00699283
-0.00654287
-0.0061142
-0.00570926
-0.00537292
-0.00856209
-0.00860765
-0.00924909
-0.00997637
-0.00984349
-0.00860101
-0.00523373
-0.00057784
0.00561848
0.0146705
0.0258263
0.0279647
0.0226787
0.0229652
0.0188658
0.0143734
0.00977479
0.00532495
0.0013893
-0.00158718
-0.00414857
-0.00609241
-0.00745485
-0.00854867
-0.00934433
-0.00976551
-0.00996581
-0.00994597
-0.00977553
-0.00957005
-0.0092969
-0.00898816
-0.00863471
-0.00827857
-0.00786279
-0.00746386
-0.00700395
-0.00657361
-0.00618855
-0.00582576
-0.00995039
-0.0101187
-0.0110253
-0.0122323
-0.0126931
-0.0118597
-0.00871088
-0.00367733
0.0029782
0.0132595
0.0252663
0.0314784
0.0263614
0.0265872
0.0215019
0.0164538
0.0112982
0.00630142
0.00195394
-0.00147566
-0.00424809
-0.00634817
-0.00783896
-0.00905328
-0.00991132
-0.0104121
-0.0106513
-0.0106236
-0.0104479
-0.010192
-0.00988764
-0.00952609
-0.00916184
-0.00879128
-0.00838558
-0.00797834
-0.00749803
-0.0070676
-0.00665599
-0.00626349
-0.0121777
-0.0122944
-0.0135389
-0.0151175
-0.0162059
-0.0158465
-0.0131406
-0.00773946
-0.000587578
0.01102
0.0238687
0.0334454
0.0311255
0.0307879
0.0246497
0.0189022
0.0130129
0.00739369
0.0026427
-0.00128924
-0.00423869
-0.00649855
-0.00821032
-0.00960457
-0.0105535
-0.011188
-0.0114826
-0.0114945
-0.0113401
-0.0110632
-0.0107624
-0.0103732
-0.0099966
-0.00957624
-0.00910191
-0.00857912
-0.00804651
-0.00757346
-0.007139
-0.00687771
-0.01454
-0.0150711
-0.0170805
-0.0191778
-0.0210366
-0.0212718
-0.019066
-0.0133409
-0.00543351
0.00771355
0.0216207
0.0343905
0.0359514
0.0353948
0.0283009
0.0216582
0.014876
0.00858655
0.00343794
-0.000912322
-0.00407957
-0.00655901
-0.00852217
-0.0100982
-0.0111799
-0.0119607
-0.0123116
-0.0124005
-0.0123052
-0.0120915
-0.0118305
-0.0114151
-0.0109822
-0.0104477
-0.0098668
-0.00924943
-0.00865465
-0.00809262
-0.00765157
-0.0075169
-0.0172988
-0.0182789
-0.0213556
-0.0243836
-0.0272647
-0.0285019
-0.0269138
-0.021098
-0.012096
0.00285345
0.0184969
0.0342917
0.0405323
0.0400627
0.0321834
0.0244856
0.0167561
0.00978639
0.00422693
-0.000473797
-0.0039696
-0.00669392
-0.00888646
-0.0105512
-0.011708
-0.0125502
-0.0129156
-0.0130979
-0.0130716
-0.0129448
-0.0126684
-0.0122236
-0.0117589
-0.0111889
-0.0106087
-0.0100075
-0.00940736
-0.00879838
-0.00833594
-0.00822977
-0.0204824
-0.0217518
-0.025762
-0.0301511
-0.0343363
-0.0371602
-0.0365517
-0.0312625
-0.0210398
-0.00412206
0.0143703
0.033172
0.0445487
0.0445604
0.0360384
0.0272764
0.0185603
0.0109443
0.00481916
-0.000348303
-0.00421616
-0.00712402
-0.00948672
-0.011177
-0.0123782
-0.0132063
-0.0135429
-0.013781
-0.0137237
-0.0136379
-0.0133528
-0.0129827
-0.0125856
-0.0121195
-0.0116219
-0.0110605
-0.0104288
-0.00975063
-0.00922516
-0.00909969
-0.0245625
-0.0267051
-0.0315154
-0.0374194
-0.043115
-0.047832
-0.0484642
-0.0442809
-0.0328263
-0.0135011
0.00862708
0.0306707
0.0478441
0.048884
0.0397281
0.0300226
0.0203249
0.0120361
0.00515259
-0.000532268
-0.00472917
-0.00795349
-0.0104946
-0.0122863
-0.01359
-0.0143887
-0.0147027
-0.0149564
-0.0148429
-0.014829
-0.0145895
-0.0143298
-0.0139554
-0.0135145
-0.0129737
-0.0123372
-0.0115968
-0.0108265
-0.0102288
-0.010059
-0.029907
-0.033455
-0.0394483
-0.0474304
-0.0556016
-0.0625327
-0.0648758
-0.0616022
-0.0486779
-0.025714
0.000614458
0.0271818
0.0496542
0.0524168
0.0428637
0.0325176
0.0219816
0.0130829
0.00549327
-0.000659484
-0.00524062
-0.00896934
-0.0117584
-0.0137209
-0.0151442
-0.015979
-0.0163418
-0.0166152
-0.0165749
-0.0166106
-0.0163068
-0.0159821
-0.0154611
-0.0148894
-0.014193
-0.0134396
-0.0126064
-0.0118134
-0.0112144
-0.0110519
-0.0359079
-0.0411695
-0.0494948
-0.0601783
-0.0721523
-0.0824515
-0.0889942
-0.0855728
-0.0702669
-0.0419207
-0.0101078
0.0221556
0.0501437
0.0541835
0.0446738
0.0342702
0.023094
0.0139337
0.00582903
-0.000605019
-0.00563546
-0.00969894
-0.0126667
-0.0147767
-0.0163631
-0.0173164
-0.0178665
-0.0181962
-0.01822
-0.0181683
-0.0177244
-0.0172749
-0.0165988
-0.0159331
-0.0151748
-0.0144054
-0.013552
-0.0127857
-0.012231
-0.0121215
-0.0431625
-0.0494969
-0.0609514
-0.0758513
-0.0927791
-0.108653
-0.121322
-0.11986
-0.0988916
-0.063001
-0.0241299
0.0156998
0.0489638
0.0533038
0.0446225
0.0345177
0.0231272
0.0140523
0.00553008
-0.000846004
-0.00622732
-0.0102339
-0.0133607
-0.0156316
-0.0174789
-0.0184804
-0.0191812
-0.0195075
-0.0195368
-0.0194467
-0.018972
-0.01853
-0.0178493
-0.017246
-0.0165123
-0.0157398
-0.014836
-0.0140544
-0.0135016
-0.0134235
-0.0523912
-0.0606504
-0.0753913
-0.0970009
-0.12183
-0.14879
-0.165092
-0.164924
-0.134919
-0.0882182
-0.0405895
0.00644267
0.0456766
0.0492812
0.0423709
0.0327307
0.0215021
0.0125164
0.00403544
-0.00221827
-0.0077095
-0.0116926
-0.015168
-0.0175155
-0.0194727
-0.0203568
-0.0211613
-0.0214057
-0.0214916
-0.021364
-0.0209292
-0.0205479
-0.0199063
-0.0193508
-0.0185285
-0.0176696
-0.0166629
-0.0158261
-0.0151778
-0.0150341
-0.0639851
-0.0764021
-0.0958448
-0.125963
-0.164474
-0.204851
-0.229877
-0.220602
-0.177989
-0.117693
-0.0588141
-0.00566389
0.0385115
0.0416049
0.0372683
0.0284537
0.0177239
0.00914067
0.000989752
-0.00519018
-0.010672
-0.0147628
-0.0183367
-0.0206068
-0.0225836
-0.0233633
-0.0242789
-0.0243257
-0.0244769
-0.024175
-0.0238414
-0.0233982
-0.0227718
-0.0221141
-0.0210912
-0.0201256
-0.0189973
-0.0180555
-0.0172067
-0.0170106
-0.0764951
-0.0941337
-0.122078
-0.164578
-0.220704
-0.275522
-0.312784
-0.292392
-0.228388
-0.152106
-0.0811571
-0.019172
0.023917
0.0294821
0.0281678
0.0205588
0.0115156
0.00372757
-0.0037697
-0.00954382
-0.0148478
-0.0187978
-0.0221976
-0.0243472
-0.0263041
-0.0270305
-0.0280154
-0.0278766
-0.0281162
-0.027597
-0.0273694
-0.0266781
-0.026072
-0.0251124
-0.0239572
-0.0228218
-0.0215273
-0.0205101
-0.0195472
-0.0193989
-0.0897119
-0.113056
-0.153747
-0.21887
-0.295443
-0.377128
-0.422177
-0.382614
-0.285813
-0.191523
-0.107985
-0.0365328
-3.85201e-05
0.00998388
0.0132266
0.00752477
0.00188244
-0.00494184
-0.0105614
-0.015687
-0.0201538
-0.0238675
-0.026761
-0.028805
-0.030376
-0.0311947
-0.0319836
-0.0318348
-0.0320654
-0.0313294
-0.0309811
-0.0300142
-0.029357
-0.0280614
-0.0269723
-0.0256636
-0.0243694