/*--------------------------------*- C++ -*----------------------------------*\
  =========                 |
  \\      /  F ield         | OpenFOAM: The Open Source CFD Toolbox
   \\    /   O peration     | Website:  https://openfoam.org
    \\  /    A nd           | Version:  11
     \\/     M anipulation  |
\*---------------------------------------------------------------------------*/
FoamFile
{
    format      ascii;
    class       surfaceScalarField;
    location    "4.5";
    object      phi;
}
// * * * * * * * * * * * * * * * * * * * * * * * * * * * * * * * * * * * * * //

dimensions      [0 3 -1 0 0 0 0];

internalField   nonuniform List<scalar> 
18960
(
0.0887433
0.00041695
-0.0891603
0.0883394
0.000403962
0.0879838
0.000355606
0.0876594
0.000324327
0.0873626
0.000296832
0.0871317
0.000230933
0.0869402
0.000191432
0.0868025
0.0001377
0.0867122
9.03677e-05
0.0866969
1.53041e-05
0.0867027
-5.81578e-06
0.0863687
0.000333963
0.085134
0.00123472
0.083346
0.00178795
0.0821131
0.00123297
0.081851
0.000262085
0.0822899
-0.000438887
0.0834843
-0.00119441
0.0851161
-0.00163181
0.086703
-0.00158686
0.088002
-0.00129904
0.0891431
-0.00114113
0.0900794
-0.000936304
0.0908088
-0.000729341
0.0913722
-0.000563479
0.0918218
-0.000449521
0.0920242
-0.000202477
0.0920567
-3.24427e-05
0.0919546
0.000102113
0.091846
0.00010853
0.0916216
0.000224415
0.0914403
0.000181319
0.0911837
0.000256566
0.0909301
0.000253678
0.0906818
0.000248269
0.0906103
7.14962e-05
0.0905021
0.000108241
0.0905941
-9.20282e-05
0.0906609
-6.67615e-05
-0.000375391
0.0910362
0.0888046
0.000756073
-0.0891437
0.0885258
0.000682746
0.0882553
0.000626128
0.0880047
0.000574858
0.0877998
0.000501741
0.0876067
0.00042408
0.0874694
0.000328677
0.0873252
0.00028193
0.0871988
0.000216741
0.0871432
7.09716e-05
0.0871366
7.58484e-07
0.0870922
0.000378368
0.0872143
0.00111257
0.087535
0.00146731
0.0877001
0.0010678
0.0877123
0.000249945
0.08785
-0.000576624
0.0881653
-0.00150969
0.0886944
-0.00216095
0.0894149
-0.00230736
0.0901372
-0.00202132
0.0908832
-0.00188715
0.0915256
-0.00157869
0.0922251
-0.00142877
0.0927931
-0.00113149
0.0932687
-0.000925181
0.0935819
-0.000515621
0.0938114
-0.000261978
0.0939248
-1.12595e-05
0.0939198
0.000113538
0.0938876
0.000256581
0.0936614
0.000407513
0.0934747
0.000443299
0.093111
0.000617334
0.0927745
0.000584802
0.0923499
0.000496104
0.0919338
0.000524295
0.0915627
0.000279062
0.0911843
0.000311629
-0.000211016
0.09102
0.0888187
0.00109086
-0.0891535
0.0885237
0.000977769
0.0882538
0.000895956
0.0880017
0.000826957
0.0877624
0.000741101
0.0875662
0.00062027
0.0874093
0.000485621
0.0872622
0.000429021
0.087204
0.000274935
0.0872824
-7.42294e-06
0.0873888
-0.000105631
0.0874284
0.00033871
0.0873675
0.00117349
0.087277
0.00155779
0.0869676
0.00137717
0.0866873
0.000530238
0.086769
-0.000658256
0.0872403
-0.00198105
0.0879001
-0.00282074
0.0887308
-0.00313804
0.0895469
-0.00283741
0.0902971
-0.00263732
0.0909929
-0.0022745
0.0915638
-0.00199971
0.0920472
-0.00161491
0.0924365
-0.00131449
0.092785
-0.000864039
0.0930065
-0.000483493
0.0931003
-0.00010509
0.0931273
8.65281e-05
0.0929998
0.000384091
0.0928673
0.000540006
0.0926742
0.000636369
0.0925741
0.000717433
0.0924561
0.000702867
0.0924313
0.000520834
0.0924025
0.000553108
0.0924939
0.000187735
0.0925764
0.000229086
-0.000198227
0.0925636
0.0888059
0.00142522
-0.0891403
0.088523
0.00126068
0.0882523
0.00116662
0.0880182
0.0010611
0.0878172
0.000942082
0.0876574
0.000780056
0.0875131
0.000629895
0.0874209
0.000521281
0.087392
0.000303836
0.0874159
-3.1322e-05
0.0874659
-0.000155672
0.0875722
0.000232434
0.0876641
0.00108153
0.0878045
0.00141744
0.0881407
0.00104092
0.0887358
-6.4865e-05
0.0893956
-0.00131799
0.089996
-0.00258148
0.0904871
-0.00331186
0.0909556
-0.00360652
0.091422
-0.00330375
0.0918468
-0.00306217
0.0922398
-0.00266745
0.0926728
-0.00243273
0.0930802
-0.00202235
0.0934859
-0.00172015
0.0938187
-0.00119687
0.0940792
-0.000744013
0.0942344
-0.000260269
0.0943009
2.00838e-05
0.0942974
0.000387513
0.0942671
0.000570371
0.0941143
0.000789157
0.0939171
0.000914607
0.0935844
0.00103561
0.0932463
0.000858859
0.0928139
0.000985575
0.0924601
0.000541529
0.092158
0.000531145
-0.000115268
0.0920751
0.0888254
0.00172782
-0.089128
0.0885376
0.00154856
0.0882802
0.00142393
0.0880391
0.00130223
0.0878317
0.0011495
0.087666
0.000945772
0.0875386
0.000757259
0.0874764
0.000583514
0.087456
0.000324251
0.0874421
-1.7458e-05
0.0874226
-0.000136127
0.0875327
0.000122309
0.0879234
0.000690847
0.0884707
0.000870139
0.0888944
0.000617189
0.0890978
-0.000268273
0.0891213
-0.00134145
0.0891749
-0.00263509
0.0892608
-0.00339772
0.0895741
-0.00391989
0.0900216
-0.00375119
0.0905601
-0.00360069
0.0910904
-0.0031978
0.0915771
-0.00291941
0.0920229
-0.0024681
0.0923715
-0.00206875
0.0927059
-0.00153133
0.0929609
-0.000999031
0.0932025
-0.000501816
0.0933413
-0.000118748
0.0933999
0.00032897
0.0933722
0.000597982
0.0932502
0.000911186
0.0932087
0.000956107
0.0931726
0.00107168
0.0931494
0.000882125
0.0931904
0.000944519
0.0932101
0.000521876
0.0932815
0.000459736
-5.60408e-05
0.0932223
0.0888218
0.00203155
-0.0891256
0.08854
0.00183043
0.0882921
0.00167175
0.0880658
0.00152854
0.0878757
0.00133965
0.0877248
0.00109672
0.0876275
0.000854524
0.0875522
0.000658791
0.0875144
0.000362047
0.0875414
-4.4414e-05
0.0876478
-0.000242584
0.0878407
-7.05629e-05
0.0880993
0.000432293
0.0884467
0.000522722
0.0888885
0.000175335
0.089459
-0.000838729
0.0900763
-0.00195877
0.0906818
-0.00324057
0.091175
-0.00389091
0.0915973
-0.00434223
0.0920237
-0.00417759
0.0924214
-0.00399835
0.0928013
-0.00357776
0.0931502
-0.00326829
0.0934875
-0.00280545
0.0938341
-0.00241528
0.0942133
-0.00191052
0.0945
-0.00128576
0.0946803
-0.000682123
0.0947683
-0.000206787
0.0947735
0.000323822
0.094859
0.000512525
0.0947917
0.000978391
0.0946731
0.00107477
0.094456
0.00128875
0.0941772
0.00116098
0.0938144
0.00130727
0.0934646
0.000871677
0.0931223
0.000802047
0.00010504
0.0929612
0.08883
0.00232777
-0.0891262
0.0885723
0.00208807
0.0883368
0.00190728
0.0881257
0.00173966
0.0879277
0.00153762
0.0877991
0.00122532
0.087705
0.000948609
0.0876168
0.000746968
0.0875633
0.000415572
0.0876226
-0.000103746
0.0877573
-0.000377283
0.087956
-0.00026927
0.0881843
0.000203991
0.0886204
8.6648e-05
0.0892244
-0.000428628
0.089821
-0.00143533
0.0902205
-0.00235824
0.0904419
-0.00346203
0.0905013
-0.0039503
0.0905822
-0.00442314
0.0907383
-0.00433372
0.0910269
-0.00428691
0.0913842
-0.00393509
0.091769
-0.00365306
0.0921662
-0.00320265
0.0924968
-0.00274584
0.0927992
-0.00221296
0.0930958
-0.00158235
0.0933588
-0.000945082
0.0936377
-0.00048569
0.0938102
0.0001513
0.0938877
0.000435014
0.0939108
0.00095533
0.0938906
0.00109498
0.0939001
0.00127917
0.0939379
0.00112323
0.0940031
0.00124207
0.094037
0.0008378
0.0940917
0.000747296
0.000178006
0.0940188
0.0888399
0.00261055
-0.0891227
0.0885879
0.00234012
0.0883576
0.00213751
0.0881456
0.00195172
0.0879784
0.00170481
0.0878689
0.00133477
0.0877631
0.00105446
0.0876937
0.000816326
0.0877053
0.000403967
0.087789
-0.000187369
0.0878969
-0.000485214
0.088081
-0.000453417
0.0884298
-0.000144747
0.0888735
-0.000357041
0.089291
-0.000846169
0.0897532
-0.00189749
0.0902141
-0.00281917
0.090745
-0.00399295
0.0913032
-0.00450849
0.0918144
-0.00493438
0.0922876
-0.00480693
0.0926944
-0.00469365
0.0930904
-0.00433107
0.0934786
-0.00404135
0.093823
-0.00354701
0.0941654
-0.0030882
0.0945505
-0.00259808
0.0949438
-0.00197565
0.0952072
-0.00120847
0.0953343
-0.00061281
0.0953748
0.000110811
0.0954398
0.000370011
0.0954755
0.00091965
0.0954862
0.00108421
0.0953607
0.00140474
0.0951659
0.00131803
0.0948815
0.00152638
0.0945812
0.00113819
0.0942164
0.00111201
0.000365131
0.0940293
0.0888752
0.00288486
-0.0891495
0.0886264
0.00258895
0.0884105
0.00235342
0.0882322
0.00213004
0.0881103
0.00182662
0.0879908
0.00145433
0.0879139
0.00113135
0.0878694
0.000860783
0.0878605
0.000412915
0.0879337
-0.000260605
0.0880608
-0.000612309
0.0882486
-0.000641186
0.0885443
-0.000440472
0.0889619
-0.00077467
0.0894302
-0.00131443
0.0899365
-0.00240375
0.0904429
-0.00332562
0.0908345
-0.00438451
0.0911604
-0.00483443
0.0914194
-0.0051934
0.0916264
-0.00501391
0.0918003
-0.00486756
0.0919992
-0.00452993
0.092231
-0.00427318
0.0925294
-0.00384538
0.092838
-0.00339683
0.0930665
-0.00282662
0.0933344
-0.00224346
0.0936419
-0.00151605
0.0939702
-0.000941121
0.0942962
-0.000215115
0.094507
0.000159146
0.094619
0.000807697
0.0946595
0.00104371
0.0947103
0.0013539
0.094758
0.00127039
0.0948661
0.00141822
0.0949432
0.00106106
0.0950256
0.00102962
0.000419794
0.094971
0.0888632
0.00314861
-0.089127
0.0886461
0.00280615
0.0884373
0.00256214
0.0882496
0.00231773
0.0881394
0.00193683
0.0880641
0.00152964
0.087961
0.00123444
0.087914
0.000907777
0.0879369
0.000390013
0.0880292
-0.000352851
0.0881369
-0.000720006
0.0883297
-0.000834019
0.0886574
-0.000768143
0.089102
-0.00121925
0.089556
-0.00176848
0.0899856
-0.00283335
0.0903627
-0.00370274
0.0907477
-0.00476945
0.0912032
-0.00528992
0.0917128
-0.00570298
0.0922654
-0.00556657
0.0927578
-0.00535995
0.0931821
-0.0049542
0.0936063
-0.00469741
0.0940234
-0.00426245
0.0944347
-0.00380816
0.0948313
-0.00322321
0.0952782
-0.00269039
0.0956672
-0.00190506
0.0959812
-0.00125506
0.0960953
-0.000329231
0.0961558
9.86972e-05
0.0962376
0.000725859
0.0963379
0.000943373
0.0963283
0.00136355
0.0962222
0.00137647
0.0960074
0.00163308
0.0957714
0.00129697
0.0954112
0.00138984
0.00061202
0.095219
0.0889337
0.00339989
-0.089185
0.0887037
0.00303612
0.0885252
0.00274064
0.0883893
0.00245366
0.0882597
0.00206642
0.0881535
0.00163582
0.0880753
0.00131267
0.0880856
0.000897459
0.0881304
0.000345229
0.0881614
-0.000383914
0.0882579
-0.000816492
0.088494
-0.00107009
0.0888435
-0.00111767
0.0892671
-0.00164277
0.089687
-0.00218843
0.0900676
-0.00321397
0.0904483
-0.00408345
0.0908235
-0.00514465
0.0912263
-0.00569273
0.0916156
-0.00609223
0.091987
-0.00593802
0.092344
-0.00571691
0.0926321
-0.00524231
0.0928672
-0.00493251
0.0931016
-0.00449681
0.0933665
-0.00407308
0.093594
-0.00345071
0.0938299
-0.00292626
0.0940873
-0.00216247
0.0943888
-0.0015566
0.0948109
-0.000751378
0.0951551
-0.000245457
0.0953838
0.000497152
0.0955513
0.000775872
0.0956327
0.00128213
0.0957453
0.0012639
0.0958402
0.0015382
0.095966
0.00117118
0.0960374
0.00131838
0.000584776
0.0960647
0.0889264
0.00364802
-0.0891745
0.0887239
0.00323861
0.0885301
0.00293448
0.0883845
0.00259921
0.088278
0.00217294
0.0882245
0.00168934
0.0881802
0.00135702
0.0881722
0.000905405
0.0881784
0.000339044
0.0882381
-0.000443576
0.0883419
-0.000920319
0.0886087
-0.0013369
0.0889649
-0.00147394
0.0894027
-0.00208047
0.0898223
-0.00260803
0.0901929
-0.00358465
0.0904919
-0.00438242
0.0907473
-0.00540002
0.0910622
-0.00600765
0.0914488
-0.00647887
0.0919792
-0.00646842
0.0925542
-0.0062919
0.0931184
-0.00580649
0.0936432
-0.00545726
0.0941294
-0.00498308
0.094626
-0.00456961
0.0950704
-0.00389516
0.0955629
-0.00341876
0.0960418
-0.00264132
0.0965142
-0.00202903
0.0968201
-0.00105728
0.0969989
-0.000424223
0.0971308
0.000365192
0.097261
0.000645686
0.0973375
0.00120562
0.0973847
0.00121671
0.0972306
0.00169231
0.0970719
0.00132983
0.0967432
0.00164711
0.000811016
0.096517
0.0890153
0.00387357
-0.0892409
0.0888075
0.00344645
0.0886412
0.00310073
0.0885238
0.00271661
0.0884338
0.00226299
0.0883379
0.00178526
0.0882758
0.00141909
0.0882923
0.000888848
0.0883342
0.000297178
0.088417
-0.000526404
0.0885484
-0.0010517
0.0887841
-0.00157262
0.0891307
-0.00182045
0.0895284
-0.00247826
0.0899257
-0.00300531
0.090246
-0.00390495
0.0905029
-0.00463927
0.0907369
-0.005634
0.0910139
-0.00628465
0.091388
-0.00685298
0.0918072
-0.00688766
0.0923371
-0.00682183
0.0928496
-0.00631896
0.0933242
-0.00593184
0.0936823
-0.00534122
0.0940189
-0.00490623
0.0943309
-0.00420716
0.0945871
-0.00367492
0.094823
-0.00287725
0.0950918
-0.00229782
0.0954645
-0.00142999
0.0958963
-0.000856051
0.0962707
-9.18088e-06
0.0965431
0.000373319
0.0967035
0.00104525
0.0968683
0.00105189
0.0969985
0.00156204
0.0971696
0.00115878
0.0972845
0.00153218
0.000773795
0.0973217
0.0890187
0.00408456
-0.0892297
0.0888399
0.00362524
0.0886783
0.00326234
0.0885642
0.00283067
0.0884837
0.0023435
0.0884022
0.00186677
0.0883662
0.0014551
0.0884039
0.000851142
0.0884594
0.000241686
0.0885458
-0.00061281
0.0886755
-0.00118143
0.0889146
-0.00181164
0.0892376
-0.00214352
0.0896144
-0.00285502
0.0899955
-0.0033864
0.0903116
-0.00422103
0.0905698
-0.00489748
0.0907522
-0.00581644
0.0909458
-0.0064783
0.091189
-0.00709613
0.0915705
-0.00726911
0.092109
-0.00736035
0.0927567
-0.00696664
0.0934333
-0.00660848
0.0940717
-0.00597963
0.0947147
-0.00554925
0.0952959
-0.00478836
0.0958929
-0.00427192
0.0964557
-0.00344
0.0969964
-0.00283851
0.097481
-0.00191462
0.0978876
-0.00126265
0.0980971
-0.000218667
0.0983121
0.000158348
0.098439
0.000918366
0.0985795
0.00091133
0.0985746
0.00156691
0.0985003
0.0012331
0.0982868
0.00174568
0.000984821
0.0980758
0.0891375
0.00430048
-0.0893534
0.0889517
0.00381111
0.0887961
0.00341787
0.0886905
0.00293633
0.0885983
0.00243562
0.0885633
0.00190185
0.088535
0.00148338
0.0885822
0.000803928
0.0886518
0.00017206
0.0887634
-0.000724365
0.0889085
-0.00132659
0.0891256
-0.00202866
0.089408
-0.00242594
0.0897251
-0.00317208
0.0900575
-0.00371889
0.090396
-0.00455953
0.0906559
-0.00515737
0.0908293
-0.00598978
0.0909323
-0.00658132
0.0911484
-0.00731226
0.0914478
-0.00756852
0.0919389
-0.00785139
0.0925226
-0.00755035
0.0932233
-0.00730923
0.0938498
-0.00660606
0.0944511
-0.00615059
0.0949669
-0.00530411
0.0954302
-0.00473524
0.0957952
-0.00380502
0.0961334
-0.00317672
0.0964173
-0.00219855
0.096807
-0.00165234
0.0972402
-0.000651886
0.0976893
-0.000290722
0.0979399
0.000667754
0.098204
0.000647278
0.0983517
0.00141921
0.0985578
0.00102699
0.0987238
0.00157968
0.000925077
0.0987835
0.0891267
0.0044837
-0.0893099
0.0889691
0.00396872
0.0888483
0.00353872
0.0887532
0.0030314
0.088663
0.00252586
0.0886302
0.00193465
0.0886245
0.00148906
0.088683
0.000745421
0.0887646
9.04122e-05
0.0888988
-0.00085856
0.089035
-0.00146276
0.0892418
-0.00223549
0.0894801
-0.00266421
0.0897769
-0.00346883
0.0901005
-0.00404254
0.090424
-0.00488307
0.0906921
-0.00542541
0.0909166
-0.00621428
0.0910703
-0.00673511
0.0912149
-0.00745678
0.0913908
-0.00774449
0.091711
-0.00817155
0.0922073
-0.00804665
0.0929191
-0.00802099
0.0937148
-0.00740179
0.0945423
-0.00697807
0.0953322
-0.00609404
0.0961143
-0.00551737
0.0968253
-0.00451601
0.09756
-0.00391135
0.0981513
-0.00278993
0.0987343
-0.00223528
0.0991268
-0.00104445
0.0994995
-0.000663388
0.0997429
0.000424378
0.0999336
0.000456551
0.100075
0.00127826
0.100111
0.000990791
0.100049
0.00164149
0.00110579
0.0998682
0.0892777
0.0046812
-0.0894752
0.0891377
0.0041087
0.0890274
0.00364899
0.0889317
0.00312718
0.0888293
0.00262822
0.0887993
0.00196462
0.0888448
0.00144355
0.0889497
0.000640505
0.0890442
-4.08996e-06
0.0891424
-0.000956734
0.0892634
-0.00158372
0.0894414
-0.00241349
0.0896652
-0.00288803
0.0899215
-0.00372516
0.090186
-0.00430701
0.0904635
-0.00516062
0.0907561
-0.00571801
0.0910248
-0.00648292
0.0911822
-0.00689253
0.0913411
-0.00761563
0.0914666
-0.00787006
0.0917217
-0.00842665
0.0920762
-0.00840113
0.0926557
-0.00860052
0.0933873
-0.0081334
0.0942549
-0.00784563
0.0950745
-0.00691363
0.095871
-0.00631382
0.0965306
-0.00517566
0.0971384
-0.00451916
0.0976371
-0.00328866
0.0980784
-0.00267651
0.0985161
-0.00148217
0.0989865
-0.00113378
0.0994238
-1.29677e-05
0.0997849
9.54413e-05
0.100027
0.00103612
0.10022
0.000798261
0.100453
0.0014077
0.00104125
0.100518
0.0892583
0.00483637
-0.0894134
0.0891492
0.00421773
0.0890434
0.00375484
0.0889573
0.00321328
0.0888743
0.00271123
0.0888553
0.00198365
0.0889006
0.00139824
0.0890175
0.000523562
0.0891099
-9.64754e-05
0.0892189
-0.00106575
0.0893334
-0.00169817
0.089514
-0.00259413
0.0897313
-0.00310536
0.0899831
-0.00397696
0.0902247
-0.0045486
0.0904805
-0.00541636
0.0907298
-0.00596735
0.091028
-0.0067811
0.091269
-0.00713355
0.0914894
-0.00783603
0.0916389
-0.0080196
0.0918225
-0.00861022
0.0920198
-0.00859842
0.0924137
-0.00899438
0.0929776
-0.0086973
0.0937812
-0.0086493
0.0947242
-0.00785659
0.0958116
-0.00740122
0.0967981
-0.00616222
0.097827
-0.00554803
0.0986964
-0.00415805
0.0995651
-0.00354521
0.100192
-0.0021091
0.100769
-0.0017103
0.101174
-0.000418308
0.101503
-0.000233358
0.101801
0.000737414
0.101957
0.000642524
0.102071
0.0012939
0.00109886
0.102013
0.0894685
0.00500015
-0.0896322
0.0893429
0.00434326
0.0892405
0.00385729
0.0892009
0.00325286
0.089141
0.0027711
0.089134
0.00199069
0.0891553
0.00137696
0.0892548
0.000424042
0.0893793
-0.000220931
0.0895009
-0.00118733
0.0896005
-0.00179785
0.0897375
-0.00273113
0.0899334
-0.00330127
0.0901345
-0.00417801
0.0903564
-0.00477048
0.0906148
-0.00567477
0.0908103
-0.00616289
0.0910567
-0.00702748
0.0912803
-0.00735713
0.0915607
-0.00811642
0.0917521
-0.00821102
0.091974
-0.00883213
0.0921688
-0.00879318
0.0924784
-0.00930395
0.0928697
-0.0090887
0.0935253
-0.00930489
0.0943401
-0.00867136
0.0953595
-0.00842061
0.0964354
-0.0072381
0.0975141
-0.00662678
0.0984563
-0.00510018
0.099303
-0.00439195
0.10004
-0.00284644
0.10062
-0.00228979
0.101164
-0.000962689
0.101618
-0.000687339
0.102027
0.000328615
0.10227
0.000399723
0.102549
0.00101494
0.000973966
0.102674
0.0894216
0.00515414
-0.0895756
0.0893191
0.00444581
0.0892268
0.00394962
0.0891935
0.00328611
0.0891792
0.00278546
0.0891823
0.00198752
0.0892006
0.00135866
0.089289
0.000335627
0.0894093
-0.000341214
0.0895132
-0.00129122
0.0896202
-0.00190484
0.0897504
-0.00286137
0.0899166
-0.00346744
0.0901456
-0.00440704
0.0903732
-0.00499801
0.0906378
-0.00593938
0.0908465
-0.00637162
0.0910573
-0.00723832
0.0912499
-0.00754969
0.0915052
-0.00837169
0.0917752
-0.00848108
0.0920571
-0.00911403
0.092323
-0.00905903
0.0926044
-0.00958539
0.0929051
-0.00938936
0.0933801
-0.00977989
0.0939848
-0.00927614
0.0948882
-0.00932395
0.0959775
-0.00832746
0.0972811
-0.0079303
0.0986151
-0.00643424
0.0999344
-0.00571123
0.101112
-0.00402417
0.102082
-0.00326011
0.102885
-0.00176524
0.10343
-0.00123266
0.103885
-0.000125808
0.104177
0.000107778
0.104427
0.000764905
0.000881256
0.104519
0.0897072
0.0052963
-0.0898494
0.0895955
0.0045575
0.0895121
0.00403305
0.08947
0.00332818
0.0894702
0.00278532
0.0895148
0.00194289
0.0895529
0.0013206
0.0895966
0.000291862
0.0896651
-0.000409692
0.0897703
-0.00139638
0.0898797
-0.00201424
0.0900365
-0.00301818
0.0901938
-0.00362472
0.0904076
-0.0046209
0.0905656
-0.00515601
0.0907965
-0.00617028
0.0909696
-0.00654469
0.0911925
-0.00746125
0.0913278
-0.00768496
0.0915226
-0.00856647
0.0917291
-0.00868755
0.0920365
-0.00942149
0.0923234
-0.00934596
0.0927024
-0.0099643
0.0930439
-0.0097309
0.0934896
-0.0102256
0.0940247
-0.00981129
0.0947464
-0.0100456
0.095684
-0.00926504
0.09682
-0.00906634
0.0981744
-0.00778866
0.0995361
-0.00707294
0.100905
-0.00539278
0.102066
-0.00442176
0.103139
-0.00283828
0.103909
-0.00200189
0.104605
-0.000822235
0.105046
-0.000333409
0.105398
0.000413415
0.00072647
0.105553
0.0896477
0.00541258
-0.089764
0.0895651
0.00464015
0.0894878
0.00411027
0.089445
0.00337106
0.089445
0.00278528
0.0894835
0.00190439
0.0895509
0.00125323
0.089613
0.000229753
0.0896708
-0.000467522
0.0897655
-0.00149101
0.0898908
-0.00213956
0.0900379
-0.00316535
0.0902093
-0.00379604
0.0904057
-0.00481728
0.0905494
-0.00529973
0.0907303
-0.00635125
0.0909036
-0.00671799
0.0911411
-0.00769874
0.091341
-0.00788479
0.0915135
-0.00873896
0.0916901
-0.00886418
0.0919348
-0.00966618
0.0922248
-0.00963599
0.0926091
-0.0103486
0.0930329
-0.0101547
0.0935232
-0.0107159
0.0940955
-0.0103836
0.0947313
-0.0106814
0.0955486
-0.0100823
0.096494
-0.0100118
0.0977188
-0.00901351
0.0991604
-0.00851449
0.100835
-0.00706749
0.102452
-0.00603896
0.103998
-0.00438396
0.10526
-0.00326371
0.10632
-0.00188243
0.107005
-0.00101885
0.107542
-0.000122734
0.000486883
0.107781
0.0899895
0.00554192
-0.0901188
0.0899154
0.00471423
0.0898643
0.00416139
0.0898414
0.00339387
0.0898344
0.00279234
0.0898417
0.00189708
0.0899048
0.00119014
0.0899595
0.000175025
0.0900322
-0.000540207
0.0901241
-0.00158293
0.0902296
-0.00224509
0.0903774
-0.00331306
0.0904983
-0.00391697
0.0907
-0.00501904
0.0908492
-0.00544894
0.0910058
-0.00650782
0.0911339
-0.00684604
0.0913275
-0.00789236
0.0914847
-0.00804202
0.0916679
-0.00892215
0.0917807
-0.00897698
0.0919645
-0.00985002
0.0921478
-0.00981921
0.0924242
-0.010625
0.0928357
-0.0105662
0.0933406
-0.0112208
0.0939708
-0.0110138
0.0947008
-0.0114113
0.0956016
-0.0109831
0.0965825
-0.0109927
0.0977819
-0.0102129
0.099007
-0.00973959
0.100488
-0.00854886
0.102043
-0.00759388
0.103745
-0.00608604
0.105325
-0.00484307
0.106794
-0.00335164
0.107943
-0.0021675
0.108894
-0.00107374
3.0644e-05
0.10935
0.0898761
0.00562323
-0.0899574
0.0898121
0.00477826
0.0897844
0.00418904
0.0897618
0.00341654
0.0897871
0.00276699
0.0898006
0.00188358
0.0898535
0.00113726
0.0899116
0.000116879
0.0899969
-0.000625497
0.0901353
-0.00172131
0.0902498
-0.00235962
0.090402
-0.00346526
0.0905108
-0.00402572
0.0906639
-0.00517221
0.0908232
-0.0056082
0.0909835
-0.00666811
0.0911052
-0.00696776
0.0912373
-0.00802439
0.0913698
-0.00817453
0.0915074
-0.00905979
0.0916737
-0.00914331
0.0918263
-0.0100026
0.092031
-0.0100239
0.0922472
-0.0108412
0.0925779
-0.010897
0.0929989
-0.0116418
0.0936382
-0.0116531
0.0943782
-0.0121514
0.0953554
-0.0119602
0.0964043
-0.0120416
0.0976716
-0.0114802
0.098987
-0.0110551
0.100497
-0.010059
0.102045
-0.00914135
0.103786
-0.00782739
0.105514
-0.00657069
0.107334
-0.00517194
0.108891
-0.00372459
0.110377
-0.0025598
-0.000858321
0.111266
0.090331
0.0057109
-0.0904186
0.0902628
0.00484644
0.0902414
0.00421047
0.0902277
0.00343016
0.0902574
0.00273736
0.0902969
0.00184405
0.090327
0.00110716
0.0904022
4.17126e-05
0.0904629
-0.000686245
0.0905602
-0.00181857
0.0906678
-0.00246728
0.0907993
-0.00359676
0.0909283
-0.00415469
0.0910602
-0.00530415
0.0911616
-0.00570958
0.0913107
-0.00681718
0.0914172
-0.0070743
0.0914932
-0.00810034
0.0915841
-0.0082655
0.091669
-0.00914467
0.0917512
-0.00922548
0.0918162
-0.0100676
0.0920092
-0.0102169
0.0921744
-0.0110064
0.0924487
-0.0111712
0.0927405
-0.0119336
0.0932339
-0.0121466
0.0938313
-0.0127487
0.0947562
-0.0128851
0.0958288
-0.0131142
0.0972282
-0.0128795
0.098775
-0.0126019
0.100553
-0.0118372
0.102325
-0.0109137
0.104198
-0.00970038
0.105903
-0.00827518
0.10773
-0.00699937
0.109387
-0.00538091
0.111032
-0.00420479
-0.00221117
0.112385
0.0901498
0.00575364
-0.0901926
0.090118
0.00487821
0.0901164
0.00421217
0.0901315
0.00341498
0.0901584
0.00271046
0.0902383
0.00176416
0.0902935
0.00105195
0.0903937
-5.84503e-05
0.0904613
-0.000753821
0.090556
-0.0019133
0.0906533
-0.00256463
0.0908
-0.00374343
0.0909171
-0.00427174
0.0910492
-0.00543625
0.0911601
-0.0058205
0.0912656
-0.00692274
0.0913667
-0.00717534
0.0914106
-0.0081443
0.0914913
-0.00834618
0.0915043
-0.00915768
0.0915901
-0.00931128
0.0915742
-0.0100516
0.0916743
-0.010317
0.091748
-0.0110802
0.0920174
-0.0114406
0.0922428
-0.0121589
0.0927328
-0.0126366
0.0932281
-0.013244
0.0940435
-0.0137005
0.0950008
-0.0140716
0.0963947
-0.0142733
0.0979118
-0.0141191
0.0998988
-0.0138241
0.101933
-0.0129477
0.10425
-0.0120175
0.106433
-0.0104583
0.108617
-0.00918361
0.110597
-0.00736068
0.112435
-0.00604305
-0.00376005
0.113984
0.0907274
0.00580014
-0.0907739
0.0906981
0.00490747
0.0907032
0.0042071
0.0907545
0.00336363
0.0907826
0.00268235
0.0908497
0.00169706
0.0909175
0.000984156
0.0910023
-0.000143207
0.0910745
-0.000826022
0.0911825
-0.00202127
0.091254
-0.0026362
0.091359
-0.00384842
0.0914319
-0.00434463
0.0915183
-0.00552261
0.0916161
-0.00591836
0.0916524
-0.00695901
0.0917413
-0.00726427
0.0917106
-0.0081136
0.0917598
-0.00839531
0.091688
-0.00908588
0.0917519
-0.00937523
0.0916621
-0.00996175
0.091716
-0.0103709
0.0916411
-0.0110053
0.0917714
-0.0115709
0.0918497
-0.0122373
0.0921903
-0.0129772
0.0925678
-0.0136215
0.0932961
-0.0144288
0.0940945
-0.01487
0.0953661
-0.0155449
0.0967701
-0.0155231
0.0987062
-0.0157602
0.100828
-0.0150691
0.103405
-0.0145948
0.10607
-0.0131232
0.108843
-0.0119569
0.111444
-0.00996126
0.113969
-0.00856873
-0.00572255
0.115932
0.090482
0.00583857
-0.0905204
0.090508
0.00488145
0.0905134
0.00420169
0.0905855
0.00329156
0.0906501
0.00261771
0.0907493
0.00159785
0.090832
0.000901457
0.0909399
-0.000251031
0.0910498
-0.00093593
0.0911455
-0.00211697
0.0912714
-0.00276216
0.0913328
-0.00390983
0.0914833
-0.00449513
0.0914872
-0.00552644
0.0916194
-0.00605057
0.0915653
-0.00690497
0.091688
-0.00738695
0.0915896
-0.00801522
0.0916589
-0.00846458
0.0915184
-0.0089454
0.0915557
-0.00941254
0.091389
-0.00979503
0.0913994
-0.0103813
0.0912405
-0.0108463
0.0912645
-0.0115949
0.0912102
-0.0121829
0.0913751
-0.0131422
0.091518
-0.0137644
0.0919874
-0.0148982
0.0925854
-0.015468
0.0936586
-0.0166181
0.0949675
-0.016832
0.0968554
-0.0176481
0.0989894
-0.0172032
0.101714
-0.0173195
0.104572
-0.015981
0.107878
-0.0152627
0.111086
-0.0131691
0.114417
-0.0119006
-0.00850908
0.117204
0.0913457
0.00587224
-0.0913794
0.0913444
0.0048827
0.0913612
0.00418495
0.091415
0.00323772
0.0914787
0.00255406
0.0915552
0.00152137
0.0916501
0.000806563
0.0917061
-0.000307031
0.0918492
-0.00107911
0.0918725
-0.00214021
0.0920681
-0.00295777
0.0920261
-0.00386781
0.0922187
-0.00468775
0.0921439
-0.00545163
0.0922921
-0.00619884
0.0921615
-0.00677436
0.0922374
-0.00746279
0.0920692
-0.00784701
0.0920716
-0.008467
0.0918324
-0.00870618
0.0917638
-0.00934401
0.091562
-0.00959324
0.0914109
-0.0102301
0.0911891
-0.0106245
0.0909783
-0.0113842
0.0908012
-0.0120058
0.0906709
-0.0130119
0.0906406
-0.0137341
0.0907739
-0.0150315
0.0910439
-0.0157381
0.0916871
-0.0172613
0.0926121
-0.017757
0.0941672
-0.0192033
0.0960809
-0.0191169
0.098855
-0.0200935
0.101957
-0.0190832
0.105791
-0.0190963
0.109707
-0.0170855
0.113877
-0.0160704
-0.0121911
0.117559
0.0910358
0.00583999
-0.0910036
0.0910964
0.00482211
0.0911675
0.00411389
0.0912197
0.00318547
0.0913508
0.00242293
0.0914047
0.00146756
0.0915958
0.00061543
0.0915969
-0.000308187
0.091842
-0.00132413
0.0918279
-0.00212614
0.0920746
-0.00320445
0.0920397
-0.00383297
0.0922532
-0.00490124
0.0921669
-0.0053653
0.0922876
-0.00631958
0.0921635
-0.00665028
0.0921984
-0.00749768
0.0920342
-0.00768278
0.0919598
-0.00839258
0.0918005
-0.00854687
0.0915946
-0.00913816
0.0913791
-0.00937775
0.0911021
-0.0099531
0.0908136
-0.010336
0.0904278
-0.0109984
0.0900978
-0.0116758
0.0896712
-0.0125852
0.0893757
-0.0134386
0.0890883
-0.0147441
0.0890015
-0.0156513
0.0891027
-0.0173624
0.0895486
-0.0182029
0.0904852
-0.0201399
0.0919616
-0.0205932
0.0942288
-0.0223607
0.097211
-0.0220654
0.101285
-0.0231702
0.105839
-0.0216401
0.11134
-0.0215708
-0.0176986
0.116847
0.0922379
0.00577562
-0.0921735
0.0922591
0.00480089
0.0923988
0.00397419
0.0924328
0.00315153
0.0925766
0.00227904
0.0925766
0.0014676
0.0928014
0.000390666
0.0928354
-0.000342237
0.0930241
-0.00151282
0.093014
-0.00211603
0.093155
-0.00334546
0.0931673
-0.00384525
0.0932337
-0.00496767
0.0931991
-0.0053307
0.0931923
-0.00631277
0.0931015
-0.00655949
0.092967
-0.00736316
0.0928274
-0.00754319
0.092581
-0.00814615
0.092376
-0.00834187
0.0920559
-0.00881808
0.0917823
-0.00910418
0.0913552
-0.00952598
0.0909451
-0.00992588
0.0904194
-0.0104727
0.0898713
-0.0111277
0.0892055
-0.0119195
0.0886004
-0.0128335
0.0878552
-0.0139989
0.087286
-0.0150821
0.0866969
-0.0167733
0.0864308
-0.0179368
0.0864119
-0.020121
0.0870047
-0.021186
0.0883054
-0.0236614
0.090394
-0.024154
0.0937443
-0.0265204
0.0980362
-0.025932
0.104108
-0.0276427
-0.0250105
0.11142
0.0917851
0.0055619
-0.0915714
0.0918852
0.00470082
0.0921352
0.00372421
0.092286
0.00300068
0.0925628
0.00200231
0.092717
0.00131333
0.0928906
0.000217086
0.0929899
-0.000441516
0.0931627
-0.0016856
0.0933009
-0.00225422
0.0933842
-0.00342881
0.0934588
-0.00391984
0.0934533
-0.00496221
0.0934857
-0.00536305
0.093373
-0.00620005
0.0933208
-0.00650732
0.0931095
-0.00715179
0.0929632
-0.00739692
0.0926896
-0.00787253
0.0924646
-0.00811695
0.0920848
-0.0084382
0.0917364
-0.0087558
0.0912693
-0.00905895
0.0908091
-0.00946561
0.0902352
-0.00989882
0.0895843
-0.0104768
0.0887855
-0.0111207
0.0879157
-0.0119637
0.0868406
-0.0129237
0.0857829
-0.0140245
0.0845079
-0.0154983
0.0833989
-0.0168278
0.0822069
-0.018929
0.0814538
-0.020433
0.0809839
-0.0231915
0.0814329
-0.024603
0.0827323
-0.0278199
0.0855301
-0.0287297
0.0897532
-0.0318659
-0.0321565
0.0968992
0.0933658
0.0053887
-0.0931926
0.0934286
0.00463803
0.0935831
0.00356969
0.0936841
0.00289966
0.0938725
0.00181397
0.0940541
0.0011317
0.0943291
-5.78964e-05
0.0945578
-0.000670203
0.0946318
-0.00175968
0.0948181
-0.00244043
0.094884
-0.00349477
0.0950109
-0.00404668
0.0949599
-0.00491124
0.0949756
-0.00537881
0.0948068
-0.00603125
0.0947078
-0.00640829
0.0944461
-0.00689009
0.0942324
-0.00718325
0.093891
-0.00753108
0.0935514
-0.00777736
0.093137
-0.00802375
0.0926783
-0.00829717
0.0921489
-0.00852955
0.0915528
-0.00886943
0.0908652
-0.00921128
0.0900803
-0.00969192
0.0891143
-0.0101547
0.0880399
-0.0108893
0.0867194
-0.0116032
0.0853404
-0.0126455
0.0835786
-0.0137365
0.0818333
-0.0150825
0.0796137
-0.0167094
0.0775539
-0.0183731
0.0749983
-0.020636
0.073163
-0.0227677
0.0708996
-0.0255565
0.0704171
-0.0282472
0.0698086
-0.0312574
-0.0352856
0.0729377
0.093602
0.00505251
-0.0932659
0.0940134
0.00422668
0.094337
0.00324604
0.0947462
0.00249051
0.0949854
0.00157476
0.0953063
0.000810814
0.0952741
-2.56914e-05
0.0955347
-0.000930793
0.0956072
-0.00183224
0.0957965
-0.00262974
0.0957226
-0.00342084
0.0957715
-0.00409556
0.0956189
-0.00475866
0.0955537
-0.00531358
0.0953389
-0.00581644
0.0951779
-0.00624728
0.0948857
-0.00659796
0.0946277
-0.00692521
0.094244
-0.00714739
0.0938842
-0.00741758
0.0934299
-0.00756949
0.0929809
-0.00784817
0.0924479
-0.00799648
0.091896
-0.00831754
0.0912158
-0.00853113
0.0904967
-0.00897278
0.0895842
-0.00924223
0.0885554
-0.00986045
0.0872353
-0.0102831