FoamFile
{
    version     2.0;
    format      ascii;
    class       volvectorField;
    location    "0";
    object      U;
}

dimensions      [0 1 -1 0 0 0 0];

internalField   nonuniform List<vector>
16384
(
(0.2034296864668968 0.10341044856565168 0)
(0.20868059350844217 0.053496530058802894 0)
(0.21908818891217838 0.007959709063251372 0)
(0.22736105884283858 -0.03568263966463418 0)
(0.23726904603521298 -0.07804500864942798 0)
(0.2456527675246463 -0.11987901397232609 0)
(0.2545937162226389 -0.1616184085761562 0)
(0.2618623776239551 -0.2039066502406462 0)
(0.2687773925035212 -0.24741842702261743 0)
(0.2735681272277501 -0.29317621966487106 0)
(0.27713374073874236 -0.34255878521141603 0)
(0.27778096295501065 -0.3976316006116689 0)
(0.27524384932686596 -0.461199174648356 0)
(0.26534974803783984 -0.5365813680648854 0)
(0.24224353646077101 -0.6261217127884305 0)
(0.19506480189671555 -0.7285186131208611 0)
(0.11580651994734885 -0.8364353949995892 0)
(0.005112419241807942 -0.9379791744075356 0)
(-0.11933593748321149 -1.0231709196679442 0)
(-0.2306666503026264 -1.0910166006187565 0)
(-0.30408583342692647 -1.149961774229233 0)
(-0.3292775539737852 -1.2106031547373 0)
(-0.30783514387666755 -1.2770703701404396 0)
(-0.24890092392142524 -1.3440264703180953 0)
(-0.16272129876940666 -1.3999931700538908 0)
(-0.0615043709308554 -1.4333339190846717 0)
(0.04239584202450801 -1.437083402073677 0)
(0.13625222612267068 -1.411002010949066 0)
(0.21072711235000846 -1.3607938920632907 0)
(0.2600744100868603 -1.295561815631031 0)
(0.28376006219656896 -1.2248425998330494 0)
(0.28413429528815215 -1.1564254028680299 0)
(0.26613593940543134 -1.0953602173203523 0)
(0.23470140748737484 -1.044024707443348 0)
(0.19497667190283163 -1.002734903334475 0)
(0.15080553591401683 -0.9705238656596248 0)
(0.10566758787755182 -0.9458017618392848 0)
(0.0617919320854491 -0.9268484793136798 0)
(0.021239525351347058 -0.9120951686528511 0)
(-0.014838014967171353 -0.9002644463727629 0)
(-0.04525426217245937 -0.8903766788570928 0)
(-0.06952616513430748 -0.8817011818935606 0)
(-0.08709036862443828 -0.873656669263809 0)
(-0.09801281763120138 -0.8657232692377335 0)
(-0.10230691442797014 -0.8573558399204315 0)
(-0.10056902981896601 -0.8479429455403059 0)
(-0.09335701499542802 -0.8367883261198842 0)
(-0.08173177654534058 -0.8231431966451094 0)
(-0.06667725416111181 -0.8062533455666347 0)
(-0.049543077011773046 -0.7854349834948483 0)
(-0.031503083149934163 -0.7601359974684603 0)
(-0.013914847596463387 -0.7299941330436591 0)
(0.002159051786855569 -0.6948568459845922 0)
(0.01563583703047758 -0.6547863583134079 0)
(0.02579460200224567 -0.6100297683041502 0)
(0.03197827850202683 -0.5609873824527799 0)
(0.03387322582710574 -0.5081637509555772 0)
(0.03123623901481508 -0.4521316836727022 0)
(0.02409358562325715 -0.39348869881835896 0)
(0.01251496391686861 -0.33282980184272926 0)
(-0.0032472997139336435 -0.27071240543136754 0)
(-0.022924646976985326 -0.2076349688308507 0)
(-0.04614229662084561 -0.14400525833411099 0)
(-0.07251528627566617 -0.08012066404082788 0)
(-0.10158692018894643 -0.016139983066691614 0)
(-0.13282054397302198 0.04792384230728222 0)
(-0.16552229820397138 0.11219836290329539 0)
(-0.19870078685152476 0.1768905350838748 0)
(-0.2310132537677379 0.24217438923770335 0)
(-0.26065724115115163 0.308007741584882 0)
(-0.2856406158610361 0.3739446004460003 0)
(-0.30403800987062496 0.43900927244681126 0)
(-0.3147232458835001 0.5017573037086023 0)
(-0.3176903800157696 0.5605527877759282 0)
(-0.3144678580621823 0.6140290690127921 0)
(-0.30754702970233583 0.6615413707618045 0)
(-0.29991097522684684 0.7034306080946616 0)
(-0.2938415928104855 0.740949559836799 0)
(-0.2906416826578795 0.7759068256469422 0)
(-0.2901282101537596 0.8101710531044076 0)
(-0.29135588843938065 0.8452617732036584 0)
(-0.2927096201296929 0.8821280707652572 0)
(-0.29284065550519245 0.921146755379221 0)
(-0.29041131678127924 0.962229317828734 0)
(-0.2846516345376599 1.0049587450395392 0)
(-0.27468115203298205 1.0486572425619067 0)
(-0.25999376478435865 1.0923957664811594 0)
(-0.23976746309897182 1.1349423372129281 0)
(-0.21359901724377783 1.174726010871328 0)
(-0.18093568820839548 1.2098339545513865 0)
(-0.14202885573440271 1.238107813645756 0)
(-0.09731686530863057 1.257317814541957 0)
(-0.04835994201235831 1.2654300555334055 0)
(0.00308775722496174 1.2608850240293092 0)
(0.05434935912907078 1.2428576085281577 0)
(0.10312796873125804 1.2113942731847789 0)
(0.14685160099002348 1.1674223690294907 0)
(0.1840644726358378 1.1125869725666766 0)
(0.21345472477602556 1.049001501384796 0)
(0.23500928732477663 0.9789445367876431 0)
(0.2485628260788365 0.9046341772063656 0)
(0.2548385771981257 0.8280867297134111 0)
(0.2538421199390682 0.7511202503100691 0)
(0.24622342302520933 0.6754054698636791 0)
(0.23181199383410217 0.602557852939485 0)
(0.21138778727038987 0.5341505962474741 0)
(0.18515346921464124 0.47169436953556954 0)
(0.1546233622483062 0.41652350454821846 0)
(0.12072783444604944 0.36969934304381846 0)
(0.08571878484576487 0.3318765811436618 0)
(0.050889646574457006 0.30325140808347373 0)
(0.018647177187065073 0.28350981377234186 0)
(-0.010053388518367321 0.2718998380735973 0)
(-0.03325729514372755 0.2672937940521699 0)
(-0.05078789955446547 0.2683466913939074 0)
(-0.06127877337831805 0.2735564231672184 0)
(-0.06530951537238058 0.2813821910611096 0)
(-0.0619380291590744 0.290226554957986 0)
(-0.05245785088619483 0.2985385483080938 0)
(-0.036294712041497805 0.30478369112826953 0)
(-0.015563887292489711 0.3076109899592371 0)
(0.010065602035915224 0.3058070599792261 0)
(0.037691504511733726 0.29850431903248703 0)
(0.06794841764765082 0.284988607977129 0)
(0.097326464239126 0.264918552903879 0)
(0.12783957738573615 0.2377625742523357 0)
(0.15499543046044012 0.20316884185362571 0)
(0.18579969382909511 0.15879746056677596 0)
(0.2535454825182849 0.11764453234484976 0)
(0.2547395131451361 0.07141006115607607 0)
(0.26319291004000905 0.027138690399973575 0)
(0.26967050671517834 -0.015433865329097879 0)
(0.2789083545179991 -0.05684694030625145 0)
(0.28674817320653834 -0.09760412493239459 0)
(0.29599105344359566 -0.13818561007591573 0)
(0.3039023909588187 -0.17912360439274175 0)
(0.31249582877872684 -0.22106938315976646 0)
(0.3198743063014795 -0.264901957195354 0)
(0.3278302465315449 -0.31186605432834735 0)
(0.33502059121082584 -0.3637589993204628 0)
(0.34219640606279367 -0.4230373850730201 0)
(0.34484209290845214 -0.49251166512016875 0)
(0.3352533043054756 -0.5740716072842115 0)
(0.2973932152423334 -0.6663667245203178 0)
(0.21764745896097137 -0.7628843887969516 0)
(0.0945170112608326 -0.8531733164902192 0)
(-0.04867058999513321 -0.9281779847037628 0)
(-0.175358943312988 -0.9860439921274619 0)
(-0.25410016038992506 -1.0328182043195682 0)
(-0.2765486208082037 -1.0770387825244692 0)
(-0.2517839849871506 -1.1232015441345797 0)
(-0.19641181898129526 -1.1693045677061629 0)
(-0.12341845683763682 -1.2089800253697978 0)
(-0.04329750631656762 -1.2353357283430677 0)
(0.0363528575423077 -1.2439075160634359 0)
(0.10777623472179286 -1.2338683044350667 0)
(0.16553957778844547 -1.2077483873819348 0)
(0.20546333467108807 -1.1702621225676588 0)
(0.2267814337666646 -1.1268494354125118 0)
(0.23011360371927284 -1.0824320691610139 0)
(0.21840046188074685 -1.0406603448498042 0)
(0.1945762703922757 -1.0036847399618196 0)
(0.1624514516693862 -0.9723135633887123 0)
(0.12492825992831376 -0.9463695906515415 0)
(0.08517699983172645 -0.925086694070978 0)
(0.045309664707313846 -0.9074524344745583 0)
(0.0076119550489411325 -0.8924530963849387 0)
(-0.02659092092587953 -0.8792163722977147 0)
(-0.05581537312965662 -0.8670634830587858 0)
(-0.07945935955152506 -0.8554950803692614 0)
(-0.09680696468584174 -0.8441354397430915 0)
(-0.1079604253651534 -0.8326611775116021 0)
(-0.11292842906175554 -0.8207340789178559 0)
(-0.11243143293404502 -0.8079545695173318 0)
(-0.107058052675117 -0.7938430141630564 0)
(-0.0979533250445353 -0.7778514642644381 0)
(-0.0860506849309666 -0.7593995762522221 0)
(-0.07266276568033371 -0.7379260477272841 0)
(-0.05879987001374484 -0.7129424561504885 0)
(-0.045682337040534496 -0.6840795375326687 0)
(-0.03415818466526128 -0.6511171190535379 0)
(-0.025156689477276544 -0.6139958016215895 0)
(-0.019216353345959676 -0.5728107486987092 0)
(-0.016890440347803178 -0.5277929546387427 0)
(-0.018382718863172772 -0.47928221747970035 0)
(-0.02389889581056502 -0.4276974276207808 0)
(-0.03337472797523176 -0.3735062827349154 0)
(-0.04676012455262322 -0.317197071161888 0)
(-0.06382500140592282 -0.25925216405797724 0)
(-0.08436711113632106 -0.2001244021170336 0)
(-0.10808538725562329 -0.14021571437208974 0)
(-0.134699020345679 -0.07985987068417383 0)
(-0.16386197858541687 -0.019310513795067957 0)
(-0.19514942561036616 0.04126080156627307 0)
(-0.22795479655143297 0.10175228762697042 0)
(-0.2613032806292056 0.16209939671550858 0)
(-0.2937744515220031 0.2222221963513408 0)
(-0.3233452452553395 0.28195989532117194 0)
(-0.3477180996069984 0.34101361663870766 0)
(-0.3646217643658703 0.3989249844285595 0)
(-0.3727340660941275 0.4551165962192535 0)
(-0.3720763807080083 0.5089988497224918 0)
(-0.3645548445193244 0.5601191304784734 0)
(-0.35324076147863037 0.6083014532985596 0)
(-0.34180769240812714 0.6537220469420366 0)
(-0.33302971287892535 0.6968873726028214 0)
(-0.32846522740192496 0.7385232393652447 0)
(-0.3278126789666097 0.7794170644314691 0)
(-0.32984970434917604 0.8202694302787454 0)
(-0.33252514085691404 0.8615936089816657 0)
(-0.33415087379368413 0.9036732249766604 0)
(-0.33303622349342415 0.9465582847435009 0)
(-0.32819603663877545 0.9900702082440871 0)
(-0.31844967269024244 1.03379019780798 0)
(-0.30305294301902386 1.0770250013324387 0)
(-0.28079700701523974 1.1187612276995647 0)
(-0.2509828215513597 1.1576362065496104 0)
(-0.21269513995985226 1.1919556615209665 0)
(-0.16607771734318644 1.219784666765156 0)
(-0.11155121641239142 1.2391185540353207 0)
(-0.05106114009465463 1.2481190951025687 0)
(0.013127663648308543 1.2453739646330941 0)
(0.07748039947807295 1.230124517423782 0)
(0.13892023476986134 1.2024037771229061 0)
(0.1939997304595682 1.1630485263006727 0)
(0.24075574860603843 1.1135791820801857 0)
(0.27745748448765684 1.0559815109706445 0)
(0.30412814909191116 0.9924474005353454 0)
(0.3206347528886834 0.9251421426662308 0)
(0.3280325597468768 0.8560449929661398 0)
(0.3264343228959365 0.7868822719660274 0)
(0.3167711621709528 0.7191351973893563 0)
(0.29885172124972387 0.6540903070398922 0)
(0.27366828591073455 0.5928945779803108 0)
(0.24138750020571068 0.5365941468495533 0)
(0.20383464687591182 0.4861399272721708 0)
(0.16203676932962835 0.4423532608821544 0)
(0.11876079549234818 0.4058438036542246 0)
(0.07555693630367116 0.3769006021250241 0)
(0.035476939744468194 0.3553988746278626 0)
(-0.0003124891528025128 0.3407812337707296 0)
(-0.029343739436246647 0.3321271055750764 0)
(-0.0514904337580622 0.32827980593997963 0)
(-0.06505282602044125 0.32796190847748585 0)
(-0.07083628902384348 0.3298454733175959 0)
(-0.06759217629429688 0.332574254457494 0)
(-0.056947839992804776 0.33478134601083587 0)
(-0.03805021627250457 0.3351224939425952 0)
(-0.013555390099419754 0.33234566854475434 0)
(0.01708796708071046 0.32536666924873936 0)
(0.05020524102286382 0.3133409888592982 0)
(0.08677250582610538 0.29568250384855355 0)
(0.12239562574906188 0.27203934565127197 0)
(0.15997460683286902 0.24219622196717702 0)
(0.19404350896605066 0.20598985858665525 0)
(0.23361591108908913 0.16356903432156827 0)
(0.29957802895743574 0.1284308186105676 0)
(0.2990281253115846 0.08411587773453318 0)
(0.30597237696500884 0.04138927825161353 0)
(0.3110286123295687 -3.074658334342728e-05 0)
(0.3194471109744679 -0.040367487927609205 0)
(0.3267475903327257 -0.07999889858324202 0)
(0.3360071700533454 -0.11926920873874829 0)
(0.344349612673481 -0.1585963100865734 0)
(0.3541079739233972 -0.1984505099456978 0)
(0.36346514532172736 -0.23945878658058747 0)
(0.3747294778112933 -0.28245763326435347 0)
(0.38696289216622004 -0.3286311875395313 0)
(0.40155840319001646 -0.3795677790106123 0)
(0.41386672004276526 -0.43711878521453545 0)
(0.41469959855733396 -0.5026454009400112 0)
(0.38422335167529725 -0.5756115217442609 0)
(0.30444906611716926 -0.652311939800669 0)
(0.172168177891379 -0.7264904745344776 0)
(0.014595271634656154 -0.7925084289741918 0)
(-0.12459300225946907 -0.8489011248665398 0)
(-0.20900305235031147 -0.8988166151521185 0)
(-0.2313246349977049 -0.9467259286878503 0)
(-0.2056752836849718 -0.9945046265611202 0)
(-0.15359185325905822 -1.0400993544114432 0)
(-0.08993158607837486 -1.0789782103003367 0)
(-0.024146704471852687 -1.1065496042191219 0)
(0.038976404921488 -1.119962376511546 0)
(0.09469321438847707 -1.118822769253625 0)
(0.1399872785806202 -1.1049861848291016 0)
(0.17187630477852422 -1.0817956091737808 0)
(0.1897091837771293 -1.0531249700711962 0)
(0.19329705537604908 -1.0225487281977887 0)
(0.1844156550763321 -0.9928060577952011 0)
(0.16473293968351807 -0.9656040890462849 0)
(0.1370676645928211 -0.941680097005215 0)
(0.10359519272223142 -0.9210238445332586 0)
(0.06713845966280227 -0.9031504205132589 0)
(0.02967428049929935 -0.8873608974150908 0)
(-0.006417905078198616 -0.8729408783475804 0)
(-0.039674227597866374 -0.8592885843257775 0)
(-0.0684087596497589 -0.845965840443073 0)
(-0.09189389095742023 -0.8326926368452771 0)
(-0.10931097819723085 -0.8192974151001869 0)
(-0.12076827785520286 -0.8056517659457725 0)
(-0.1263034182621102 -0.7916025543097255 0)
(-0.12673581903103862 -0.7769236414343617 0)
(-0.1227276304996984 -0.761289953300906 0)
(-0.1155072205561895 -0.7442826846410419 0)
(-0.1060216912277149 -0.7254157788943835 0)
(-0.0955727350244686 -0.7041816050240568 0)
(-0.0850843216492593 -0.6800998161823586 0)
(-0.0756731124088846 -0.6527655054032807 0)
(-0.06803692451057361 -0.6218837913317237 0)
(-0.06296630686425102 -0.5872926216777352 0)
(-0.060849439460454166 -0.5489679468391866 0)
(-0.06212307432993845 -0.5070187328141433 0)
(-0.06688358051542184 -0.46166985676386374 0)
(-0.07526942176809004 -0.41324160803303855 0)
(-0.08716488650819815 -0.3621236034884086 0)
(-0.10250487066206743 -0.3087504941556635 0)
(-0.12106018141717298 -0.25357606137436334 0)
(-0.1426581538983105 -0.19705204685645275 0)
(-0.16704002569155685 -0.13960789895397163 0)
(-0.1939844888294951 -0.08163752345157586 0)
(-0.2232092542248269 -0.02348905284908316 0)
(-0.254351724502187 0.0345369659396141 0)
(-0.28685495079367335 0.0921864173523134 0)
(-0.31976707548884786 0.14924453929331366 0)
(-0.35166225810356777 0.20553111881205888 0)
(-0.38047552823182895 0.2608965190271486 0)
(-0.40385625827582733 0.3152252643943256 0)
(-0.41947915172635747 0.368440681638034 0)
(-0.4260158938993661 0.4205110111984248 0)
(-0.42353234290079156 0.4714471192715338 0)
(-0.4140597934457677 0.5212955018973525 0)
(-0.4008290455570289 0.5701252198692028 0)
(-0.3877004540609331 0.618020454491209 0)
(-0.3775845548817762 0.665077778032543 0)
(-0.37213060196727565 0.7114119093686482 0)
(-0.3710298081529447 0.7571579238945391 0)
(-0.37300801685179596 0.8024678572918783 0)
(-0.375890444608803 0.8474918789870556 0)
(-0.3778629787572727 0.892349446496271 0)
(-0.3770578644965357 0.937086247650882 0)
(-0.37231259543978057 0.9816239035329478 0)
(-0.3621917420950746 1.0256973944254182 0)
(-0.3456751870233854 1.0687904829535533 0)
(-0.32119495335654025 1.1100738429032624 0)
(-0.2877185194214475 1.1483715833446915 0)
(-0.24400612098491836 1.182173423954784 0)
(-0.19004726927389043 1.2097201226179402 0)
(-0.12626710814032485 1.229162417674003 0)
(-0.054914259303181515 1.2387868576657448 0)
(0.02124215533358957 1.237263879942741 0)
(0.09791925060224127 1.22387313738321 0)
(0.1712635846066583 1.1986437667283751 0)
(0.23704236129931097 1.1623805248219024 0)
(0.2927362883736697 1.1165591384592175 0)
(0.3362390108461068 1.0631262115305045 0)
(0.36752161464094524 1.004245146381838 0)
(0.3865396784322517 0.9420577883556397 0)
(0.3946392616079831 0.8784990333222482 0)
(0.3921880970991043 0.8151998591442905 0)
(0.3804282998793819 0.7534645929096674 0)
(0.35933196324562255 0.6943166915439971 0)
(0.3300737108580332 0.6385757185495039 0)
(0.2928481450256709 0.5869569528215343 0)
(0.24958562293941847 0.5401476335010964 0)
(0.20135098863297415 0.49883517565577307 0)
(0.15117107179798142 0.4636320904678399 0)
(0.10087924655782485 0.43492663407686327 0)
(0.0540343266613969 0.4127127554331419 0)
(0.012161418342975898 0.3965265949982216 0)
(-0.021887692242424955 0.3855099233236024 0)
(-0.04790801368865829 0.3785805505962286 0)
(-0.06406009731266586 0.37457384628334245 0)
(-0.07122564442065957 0.372326065403944 0)
(-0.06803555391399303 0.37066291460241935 0)
(-0.05621916435698805 0.3683985005509482 0)
(-0.034836773133172336 0.36433376116551547 0)
(-0.006797255174601228 0.3573391141737222 0)
(0.028405643606631455 0.34641672429819437 0)
(0.06666065227811005 0.33081560461972276 0)
(0.10888342939639165 0.3100327570011627 0)
(0.15020707525619734 0.283867455742329 0)
(0.19369182828664455 0.2522889965541624 0)
(0.23329102085019815 0.2155603467276258 0)
(0.2780793233159503 0.17397566812720427 0)
(0.343653401826665 0.1390718414774566 0)
(0.34139903857815224 0.09693428402372009 0)
(0.3472165423545194 0.05606675654898681 0)
(0.35097637702379403 0.01637509692530051 0)
(0.35860064475419773 -0.022299024290808225 0)
(0.36521045433707533 -0.06018361169507122 0)
(0.37423919237635705 -0.09750231261654062 0)
(0.382564429220128 -0.13449895883816743 0)
(0.3928182111328942 -0.17142181049024505 0)
(0.4030749668250871 -0.20854340936917634 0)
(0.41597314001455604 -0.2461474271621098 0)
(0.4306043382217936 -0.2845222238540078 0)
(0.44869482492801227 -0.3239256745420479 0)
(0.46545190011423426 -0.36457753197248055 0)
(0.4712909282995724 -0.40671839804819626 0)
(0.44503643238167495 -0.45079548829430316 0)
(0.3672945198147856 -0.49763341771049746 0)
(0.2340715833523952 -0.5482925668458546 0)
(0.07362914804516976 -0.6034317976445842 0)
(-0.06850900463506959 -0.6625473875565882 0)
(-0.15472373178117077 -0.7237267414114712 0)
(-0.17848303682363076 -0.7841172990043076 0)
(-0.15572068499105335 -0.8406412321076551 0)
(-0.10963524995224033 -0.8904819130025368 0)
(-0.05537700975855653 -0.931314356246963 0)
(-0.001570527434037794 -0.9615031128759992 0)
(0.04867646830243967 -0.9803325649088245 0)
(0.09231490582403687 -0.9881604465227956 0)
(0.12778243592281002 -0.9863653321771648 0)
(0.1528242197441243 -0.9770729203054933 0)
(0.1669379689652972 -0.9627375696158886 0)
(0.16944823508124474 -0.9457089884713521 0)
(0.161419393675019 -0.9278930811036262 0)
(0.1436465337859359 -0.9105733029857459 0)
(0.11825608372631308 -0.894392930905608 0)
(0.08685573759939882 -0.8794625309544551 0)
(0.052001692656976684 -0.8655326209349435 0)
(0.01553970726914114 -0.8521806187126528 0)
(-0.020066451708752542 -0.8389689781698839 0)
(-0.05324687988050003 -0.8255538327406939 0)
(-0.0821294377132755 -0.8117336312423556 0)
(-0.10588484153641708 -0.7974452921982975 0)
(-0.1235985080401363 -0.7827193842946386 0)
(-0.13540216245186087 -0.7676154843107974 0)
(-0.14137027786570452 -0.7521545451675575 0)
(-0.14244426071733413 -0.7362663933974989 0)
(-0.1393786926727036 -0.7197602410714319 0)
(-0.13352025416885216 -0.7023237158520501 0)
(-0.1258616342741607 -0.6835455788910098 0)
(-0.11773770176948575 -0.6629570375059658 0)
(-0.11002294228145836 -0.6400804845683477 0)
(-0.10377099349637572 -0.6144786311412425 0)
(-0.09955614053691055 -0.585795058219136 0)
(-0.09805305112006674 -0.5537837697841448 0)
(-0.09950567411744768 -0.5183244367167683 0)
(-0.1042350098903373 -0.4794259167870218 0)
(-0.11221752869855298 -0.4372184399907018 0)
(-0.12350985640276549 -0.3919389882021127 0)
(-0.13792256604735453 -0.3439109241026657 0)
(-0.1553539834510229 -0.29352214439959945 0)
(-0.1755497975115769 -0.2412023164236445 0)
(-0.19834108712744863 -0.18740292366858666 0)
(-0.2234811315923842 -0.13258022690563043 0)
(-0.2507759143291918 -0.07718409470551171 0)
(-0.2799722848279736 -0.021651125778399297 0)
(-0.3107396108727516 0.03359850183511956 0)
(-0.34255683708590523 0.08816768829216907 0)
(-0.37451569613432645 0.14169951738693898 0)
(-0.40526199772794036 0.19391466224475923 0)
(-0.4328296014995787 0.24466820009314613 0)
(-0.4550084171018942 0.29401311370706196 0)
(-0.4696127681052744 0.34223766958403734 0)
(-0.47543448150577666 0.3898416691322687 0)
(-0.4725663162691865 0.4374306148044945 0)
(-0.4629827358339738 0.4855491622467818 0)
(-0.44975654092841894 0.5345120811441929 0)
(-0.4365865909279699 0.5843075829501508 0)
(-0.4262411764557202 0.6346158346913434 0)
(-0.4203397390545033 0.684932811379757 0)
(-0.41860278165720916 0.7347368839687899 0)
(-0.41986492993086394 0.7836262976008588 0)
(-0.42202403220621043 0.8313780182250686 0)
(-0.42332504104214075 0.8779246482875733 0)
(-0.4218479835859403 0.9232739367575662 0)
(-0.4163353983235302 0.9674075031762142 0)
(-0.4051343727957192 1.0101818340044204 0)
(-0.38698117488776823 1.051245578501421 0)
(-0.35996587786396644 1.0899768713714724 0)
(-0.3227499814957133 1.1254511751155793 0)
(-0.2737771361628173 1.1564512132231837 0)
(-0.21288895843114236 1.1815362313534565 0)
(-0.1404858447380987 1.1991751447343477 0)
(-0.059081675101583755 1.2079363928897318 0)
(0.028122812891000257 1.20670262355875 0)
(0.1161618835705465 1.1948689770937 0)
(0.2004828712401796 1.1724759591665155 0)
(0.2761081196833287 1.1402458595617182 0)
(0.33999477277013035 1.099509331994634 0)
(0.38964855055056297 1.0520415831856686 0)
(0.4249851297627787 0.9998420030798071 0)
(0.4460318520573073 0.9449067228021478 0)
(0.4544596379157336 0.8890325256795706 0)
(0.4509366295488669 0.8336853273703229 0)
(0.43711256648703567 0.7799436025190927 0)
(0.41318973204639997 0.7285240091608475 0)
(0.3805788213472895 0.6798789419950899 0)
(0.339452827380363 0.6343516497444567 0)
(0.2917512732573404 0.5923365303888037 0)
(0.23840452367645307 0.5543714927440151 0)
(0.1825826296306438 0.5210802504041765 0)
(0.12632031029875604 0.49296822496783205 0)
(0.073717089147825 0.4701736274591246 0)
(0.026675562839303293 0.4523419549909135 0)
(-0.011531416304747077 0.43869631780564633 0)
(-0.04067967005099128 0.428246628810572 0)
(-0.0588209771249498 0.41997831890890486 0)
(-0.06698829730321386 0.41293390152459086 0)
(-0.06367148408152498 0.40618327944135413 0)
(-0.05071823035149306 0.39877697320206035 0)
(-0.02702873842984521 0.3897307007266861 0)
(0.004225509360877615 0.3780839921965066 0)
(0.04357923466146715 0.36298261277822663 0)
(0.0864361323521652 0.34378069797310334 0)
(0.13370850683107136 0.3200854044825161 0)
(0.17993912985552096 0.29178648859634937 0)
(0.22838621748240534 0.25900199256425577 0)
(0.2722232905595406 0.22208710269290316 0)
(0.3211457476198052 0.18159089823952188 0)
(0.38578781115073013 0.14773214270897134 0)
(0.381879993196167 0.1073195953103276 0)
(0.3866658682458328 0.06829153176745091 0)
(0.3892233451342715 0.030346505819055167 0)
(0.3960197023724489 -0.00658715362000227 0)
(0.4018006133281187 -0.0426500169681108 0)
(0.41029486688714606 -0.07792168659043937 0)
(0.4181160415571309 -0.11248181476712972 0)
(0.4280814091611509 -0.14633811332250823 0)
(0.4380243698715748 -0.17942074282761905 0)
(0.45063414650504546 -0.2114777412827738 0)
(0.464663432282133 -0.2419793404334636 0)
(0.4817479459907179 -0.27000548844029637 0)
(0.49697124157682626 -0.2944171269754111 0)
(0.5015600161979525 -0.31464348033008893 0)
(0.475953414285541 -0.3322422667017844 0)
(0.40290631174850416 -0.3522132280661581 0)
(0.2788909946399152 -0.382132482728059 0)
(0.12987487041990012 -0.4282685130517465 0)
(-0.0030435997025713146 -0.4912027023580574 0)
(-0.085625852396959 -0.56492096501518 0)
(-0.11203533049109299 -0.6402686742528683 0)
(-0.09654424098604236 -0.7094335001778962 0)
(-0.06038378240206377 -0.7680415432770175 0)
(-0.017222208029235103 -0.8146044681404996 0)
(0.025147799801280957 -0.8491641471932381 0)
(0.06440871831212033 -0.872453062016113 0)
(0.09820082900315745 -0.8856708894424788 0)
(0.12564142804677944 -0.8904444397587306 0)
(0.14479724081745254 -0.8887067592661744 0)
(0.1552270098491974 -0.8824583917661953 0)
(0.1559175760687341 -0.8735076588333832 0)
(0.14746756123548876 -0.863266427781932 0)
(0.13006221498547849 -0.852653900262212 0)
(0.10534146530847338 -0.8421028481292152 0)
(0.07449210508974499 -0.8316531046581502 0)
(0.03988140619377151 -0.821089342544634 0)
(0.003264999779377331 -0.8100933834976014 0)
(-0.032801895438629214 -0.7983724234792797 0)
(-0.0666428358838255 -0.7857483405496896 0)
(-0.09621078762962404 -0.7721922348068961 0)
(-0.12058217282827882 -0.7578128259078319 0)
(-0.13876131039610612 -0.7428045186262155 0)
(-0.15091534893016514 -0.7273783376850144 0)
(-0.15717623365581754 -0.7116887445417373 0)
(-0.15862717790753822 -0.6957776596259834 0)
(-0.15614359650570023 -0.679540732694802 0)
(-0.15121792736789855 -0.6627246803977691 0)
(-0.1449220778198363 -0.6449481825931572 0)
(-0.13865431464005717 -0.6257443349215414 0)
(-0.1332715644254462 -0.6046108419409898 0)
(-0.12978888655259946 -0.581063702723365 0)
(-0.12867820150085577 -0.554682547461188 0)
(-0.13050892343334478 -0.5251474206894667 0)
(-0.13538575736636435 -0.4922604395265644 0)
(-0.1435089595994439 -0.4559567132370171 0)
(-0.15472585859251725 -0.41630170223389085 0)
(-0.1689954688362279 -0.37348158570692636 0)
(-0.1860374811310959 -0.32778509485829366 0)
(-0.205693287171061 -0.27958369720765086 0)
(-0.22766320578677152 -0.22930865592881383 0)
(-0.25175991299145506 -0.17743151701163662 0)
(-0.27772630476040555 -0.12444602138353086 0)
(-0.3053719040197552 -0.07085662590096964 0)
(-0.334450162602849 -0.01716889148314571 0)
(-0.36464527359101767 0.03611807976256119 0)
(-0.39546903101811737 0.08852887721630646 0)
(-0.42608067020533136 0.1396449949575761 0)
(-0.45525999441823795 0.18916583914529633 0)
(-0.48124641078358027 0.23699002391032867 0)
(-0.5021072937493634 0.28329790863844295 0)
(-0.51593156282519 0.3285891848173036 0)
(-0.5217114958114355 0.37363446928421584 0)
(-0.5195490978219447 0.41931752302690145 0)
(-0.5112251534566647 0.46640334987141213 0)
(-0.499429118858452 0.5153083129277352 0)
(-0.48744499976894495 0.5659706575976385 0)
(-0.47769805929124 0.6178737371643913 0)
(-0.47167708126191127 0.6702116474669483 0)
(-0.46914652438548005 0.7221158758076811 0)
(-0.4691438068436669 0.7728525050751796 0)
(-0.4697719313219617 0.8219215953561863 0)
(-0.4694576169442889 0.8690531324082182 0)
(-0.4663293809023612 0.9141271543965086 0)
(-0.4591060009520146 0.957068550657935 0)
(-0.44597992855050933 0.9977460271114431 0)
(-0.42550101830323134 1.0358951908071516 0)
(-0.39548357179191573 1.0710626661785514 0)
(-0.3543426409695184 1.102577226314482 0)
(-0.3002575141078701 1.1295491454367426 0)
(-0.2329411184084015 1.1509149736600566 0)
(-0.1527571532273747 1.165530799195846 0)
(-0.06242503610106782 1.172316854156432 0)
(0.03451079245767003 1.170427179319085 0)
(0.1325178928680097 1.1594164363952129 0)
(0.22645311471186538 1.1393582763107994 0)
(0.31069056525093147 1.1108912842038876 0)
(0.38171673305692183 1.0751719791930614 0)
(0.43667330599616755 1.0337502777516694 0)
(0.4754072669035194 0.9883846020456587 0)
(0.4980073142725792 0.9408397677876426 0)
(0.5064631238508098 0.8926946327542553 0)
(0.5017763540190453 0.845199945378641 0)
(0.4860507144929074 0.7992003944653413 0)
(0.4597807366191023 0.7551484845558594 0)
(0.4246322199233206 0.7132069218583655 0)
(0.380728319962962 0.673438619477847 0)
(0.32990632749930826 0.6360163508165774 0)
(0.2728267128909664 0.6013628755694511 0)
(0.2126698283873149 0.5701008839189158 0)
(0.15162396597451575 0.5428150966344583 0)
(0.09433347546940443 0.5197409810024314 0)
(0.043125126217683885 0.5006036141739115 0)
(0.0016875668693097923 0.4846915415183676 0)
(-0.029767375527147637 0.4711081854485918 0)
(-0.04926146325985941 0.4589876379972754 0)
(-0.058017375800711056 0.44758248621756536 0)
(-0.05441576415981433 0.4362028441750908 0)
(-0.04039171872125976 0.42414484407040676 0)
(-0.014670346812574286 0.4106432040994375 0)
(0.019371548389058232 0.3949284120497619 0)
(0.06230831724741946 0.37629349102280085 0)
(0.10910979769888432 0.354214689139434 0)
(0.1606688325506367 0.32838028407198416 0)
(0.21097787393313844 0.2987570175822248 0)
(0.2634498508398968 0.2654924678403364 0)
(0.31058544536193405 0.2289814331285944 0)
(0.36271922897664655 0.1895249857243036 0)
(0.4259352982613188 0.15558133267158797 0)
(0.42035796463139435 0.11748894024376957 0)
(0.42418475803751743 0.08056249325375596 0)
(0.42559309527403866 0.04465837550794155 0)
(0.4315326269863854 0.009734417535528866 0)
(0.43634548024021097 -0.024241581732452472 0)
(0.4440230294648366 -0.057241698169377964 0)
(0.45087440852931 -0.0891904409253633 0)
(0.45982859067559373 -0.11990761666429404 0)
(0.4683625045525654 -0.14905658758803597 0)
(0.47902860911777395 -0.17601977760939796 0)
(0.4899838828626565 -0.19974963914169863 0)
(0.5025307673533931 -0.21865735406118414 0)
(0.5117190772788087 -0.23090175728475415 0)
(0.5105458207779843 -0.23560033508240913 0)
(0.48319784924583553 -0.2351027349609408 0)
(0.4170668109394876 -0.23687015138899026 0)
(0.30989831644996757 -0.2521471787537577 0)
(0.18297718974618554 -0.29029974338526654 0)
(0.06853636385681741 -0.35248481808768206 0)
(-0.0058725961042779 -0.430419739227112 0)
(-0.03520053347405161 -0.5114896149542825 0)
(-0.02974811619051565 -0.5853315505802491 0)
(-0.006278869229606188 -0.6468546162592104 0)
(0.024334767258705703 -0.6952671449170428 0)
(0.055256738365536184 -0.7317897072136337 0)
(0.08447617053511558 -0.7581046177963753 0)
(0.10971953150525307 -0.775833123058939 0)
(0.13029569097837918 -0.786511641864894 0)
(0.14429693127523843 -0.791640845510139 0)
(0.15123321475139176 -0.792654452383025 0)
(0.14978868225380831 -0.7908228665350934 0)
(0.1402152837397724 -0.7871444588187687 0)
(0.12223763710889493 -0.7822782625553311 0)
(0.09714737987860578 -0.7765397894615567 0)
(0.06581903121586569 -0.7699622646841133 0)
(0.030504245601791324 -0.762400169794539 0)
(-0.007087266935870917 -0.7536495913194337 0)