/*--------------------------------*- C++ -*----------------------------------*\
| =========                 |                                                 |
| \\      /  F ield         | OpenFOAM: The Open Source CFD Toolbox           |
|  \\    /   O peration     | Version:  2406                                  |
|   \\  /    A nd           | Website:  www.openfoam.com                      |
|    \\/     M anipulation  |                                                 |
\*---------------------------------------------------------------------------*/
FoamFile
{
    version     2.0;
    format      ascii;
    arch        "LSB;label=32;scalar=64";
    class       volScalarField;
    location    "6609";
    object      p;
}
// * * * * * * * * * * * * * * * * * * * * * * * * * * * * * * * * * * * * * //

dimensions      [0 2 -2 0 0 0 0];

internalField   nonuniform List<scalar> 
16384
(
5.500475e-14
1.818412e-12
-1.209718e-13
-7.305665e-12
-1.947324e-11
-3.609432e-11
-5.652366e-11
-8.007647e-11
-1.060894e-10
-1.339465e-10
-1.630871e-10
-1.930064e-10
-2.232538e-10
-2.534284e-10
-2.831754e-10
-3.121811e-10
-3.401691e-10
-3.668965e-10
-3.921506e-10
-4.157459e-10
-4.375211e-10
-4.573373e-10
-4.750749e-10
-4.906323e-10
-5.039236e-10
-5.148775e-10
-5.234358e-10
-5.29552e-10
-5.3319e-10
-5.343233e-10
-5.32934e-10
-5.29012e-10
-5.225542e-10
-5.13564e-10
-5.020508e-10
-4.880297e-10
-4.715209e-10
-4.525493e-10
-4.311443e-10
-4.073395e-10
-3.811728e-10
-3.52686e-10
-3.219246e-10
-2.889382e-10
-2.537799e-10
-2.165069e-10
-1.771798e-10
-1.358631e-10
-9.262494e-11
-4.753755e-11
-6.768817e-13
4.787718e-11
9.804076e-11
1.49726e-10
2.028411e-10
2.572902e-10
3.129735e-10
3.69787e-10
4.276228e-10
4.863689e-10
5.459095e-10
6.061252e-10
6.668929e-10
7.280858e-10
7.895742e-10
8.512249e-10
9.12902e-10
9.744668e-10
1.035779e-09
1.096694e-09
1.15707e-09
1.21676e-09
1.275618e-09
1.333498e-09
1.390254e-09
1.445739e-09
1.499809e-09
1.552323e-09
1.603139e-09
1.652121e-09
1.699136e-09
1.744054e-09
1.786751e-09
1.827109e-09
1.865014e-09
1.900361e-09
1.933053e-09
1.962999e-09
1.990117e-09
2.014337e-09
2.035596e-09
2.053844e-09
2.06904e-09
2.081157e-09
2.090179e-09
2.096102e-09
2.098938e-09
2.09871e-09
2.095457e-09
2.089232e-09
2.080104e-09
2.068157e-09
2.05349e-09
2.036221e-09
2.016481e-09
1.994422e-09
1.970212e-09
1.944038e-09
1.916105e-09
1.886639e-09
1.855885e-09
1.82411e-09
1.791606e-09
1.758684e-09
1.725683e-09
1.692968e-09
1.660933e-09
1.629999e-09
1.60062e-09
1.573279e-09
1.548487e-09
1.526776e-09
1.508682e-09
1.494711e-09
1.485267e-09
1.480563e-09
1.480431e-09
1.482987e-09
-1.643512e-12
9.399502e-14
-1.78794e-12
-8.501577e-12
-1.961955e-11
-3.468042e-11
-5.316298e-11
-7.450114e-11
-9.813036e-11
-1.235125e-10
-1.501471e-10
-1.775755e-10
-2.053817e-10
-2.331911e-10
-2.606681e-10
-2.875132e-10
-3.134603e-10
-3.382738e-10
-3.617456e-10
-3.836932e-10
-4.039569e-10
-4.223978e-10
-4.388959e-10
-4.533482e-10
-4.656669e-10
-4.757788e-10
-4.836229e-10
-4.891499e-10
-4.923208e-10
-4.931062e-10
-4.914852e-10
-4.874446e-10
-4.809782e-10
-4.720865e-10
-4.607761e-10
-4.47059e-10
-4.309528e-10
-4.124795e-10
-3.916659e-10
-3.685433e-10
-3.431468e-10
-3.155158e-10
-2.856936e-10
-2.537273e-10
-2.196677e-10
-1.835696e-10
-1.454914e-10
-1.054952e-10
-6.364697e-11
-2.001634e-11
2.532316e-11
7.22941e-11
1.208152e-10
1.708014e-10
2.221636e-10
2.74809e-10
3.286408e-10
3.835582e-10
4.394567e-10
4.962278e-10
5.537595e-10
6.119362e-10
6.706389e-10
7.297451e-10
7.891295e-10
8.486635e-10
9.082158e-10
9.67653e-10
1.026839e-09
1.085637e-09
1.143908e-09
1.201511e-09
1.258307e-09
1.314155e-09
1.368914e-09
1.422446e-09
1.47461e-09
1.525272e-09
1.574298e-09
1.621556e-09
1.66692e-09
1.710266e-09
1.751475e-09
1.790436e-09
1.827042e-09
1.861192e-09
1.892793e-09
1.921762e-09
1.948022e-09
1.971506e-09
1.992156e-09
2.009926e-09
2.02478e-09
2.036692e-09
2.04565e-09
2.051654e-09
2.054715e-09
2.054861e-09
2.05213e-09
2.046577e-09
2.038269e-09
2.02729e-09
2.013739e-09
1.997729e-09
1.979393e-09
1.958875e-09
1.936342e-09
1.911973e-09
1.885969e-09
1.858547e-09
1.829944e-09
1.800416e-09
1.770242e-09
1.73972e-09
1.70917e-09
1.678936e-09
1.649385e-09
1.620908e-09
1.593918e-09
1.568851e-09
1.546157e-09
1.526297e-09
1.509719e-09
1.496835e-09
1.487963e-09
1.483306e-09
1.482977e-09
1.485537e-09
2.968591e-13
1.977377e-12
9.796676e-14
-6.305193e-12
-1.662487e-11
-3.042739e-11
-4.727912e-11
-6.670742e-11
-8.82326e-11
-1.113885e-10
-1.357336e-10
-1.608561e-10
-1.863773e-10
-2.119516e-10
-2.372658e-10
-2.620374e-10
-2.860134e-10
-3.089678e-10
-3.306998e-10
-3.510318e-10
-3.698072e-10
-3.868891e-10
-4.021581e-10
-4.155112e-10
-4.2686e-10
-4.361297e-10
-4.432578e-10
-4.481929e-10
-4.508938e-10
-4.513286e-10
-4.494737e-10
-4.453131e-10
-4.388383e-10
-4.300467e-10
-4.189423e-10
-4.055344e-10
-3.898378e-10
-3.718721e-10
-3.516613e-10
-3.292341e-10
-3.046232e-10
-2.778654e-10
-2.490016e-10
-2.180764e-10
-1.851382e-10
-1.502394e-10
-1.134359e-10
-7.478738e-11
-3.435713e-11
7.787637e-12
5.157597e-11
9.693317e-11
1.437808e-10
1.920365e-10
2.416145e-10
2.924248e-10
3.44374e-10
3.973646e-10
4.512956e-10
5.060623e-10
5.615565e-10
6.176666e-10
6.742778e-10
7.31272e-10
7.885283e-10
8.459228e-10
9.033293e-10
9.60619e-10
1.017662e-09
1.074325e-09
1.130476e-09
1.185979e-09
1.240701e-09
1.294507e-09
1.347261e-09
1.398831e-09
1.449085e-09
1.497891e-09
1.545122e-09
1.590654e-09
1.634366e-09
1.676139e-09
1.715862e-09
1.753427e-09
1.788734e-09
1.821689e-09
1.852203e-09
1.880197e-09
1.905599e-09
1.928348e-09
1.94839e-09
1.965682e-09
1.980191e-09
1.991896e-09
2.000787e-09
2.006865e-09
2.010146e-09
2.010655e-09
2.008434e-09
2.003537e-09
1.996031e-09
1.985998e-09
1.973537e-09
1.958758e-09
1.941789e-09
1.922774e-09
1.90187e-09
1.879255e-09
1.855119e-09
1.829672e-09
1.803142e-09
1.775773e-09
1.747828e-09
1.719591e-09
1.691362e-09
1.663462e-09
1.636231e-09
1.610028e-09
1.585226e-09
1.562214e-09
1.541388e-09
1.523145e-09
1.507866e-09
1.495898e-09
1.487513e-09
1.482957e-09
1.48264e-09
1.485412e-09
7.477347e-12
8.698004e-12
6.504118e-12
8.962605e-14
-9.872997e-12
-2.29573e-11
-3.877401e-11
-5.690858e-11
-7.69413e-11
-9.846208e-11
-1.210785e-10
-1.444207e-10
-1.681448e-10
-1.919333e-10
-2.154961e-10
-2.385691e-10
-2.609139e-10
-2.823164e-10
-3.025845e-10
-3.215475e-10
-3.390539e-10
-3.549704e-10
-3.691803e-10
-3.815819e-10
-3.920877e-10
-4.00623e-10
-4.071248e-10
-4.115409e-10
-4.138288e-10
-4.139551e-10
-4.118947e-10
-4.076299e-10
-4.011498e-10
-3.924501e-10
-3.815324e-10
-3.684041e-10
-3.530776e-10
-3.355703e-10
-3.15904e-10
-2.941051e-10
-2.702042e-10
-2.442358e-10
-2.162384e-10
-1.862545e-10
-1.543302e-10
-1.205156e-10
-8.486414e-11
-4.743318e-11
-8.283732e-12
3.251949e-11
7.490807e-11
1.188099e-10
1.641492e-10
2.108465e-10
2.588186e-10
3.079788e-10
3.582364e-10
4.094973e-10
4.616637e-10
5.146343e-10
5.683045e-10
6.225665e-10
6.773092e-10
7.324185e-10
7.877776e-10
8.432668e-10
8.987641e-10
9.541455e-10
1.009285e-09
1.064055e-09
1.118328e-09
1.171973e-09
1.224862e-09
1.276864e-09
1.327849e-09
1.377691e-09
1.426261e-09
1.473434e-09
1.519089e-09
1.563105e-09
1.605366e-09
1.64576e-09
1.68418e-09
1.720523e-09
1.754694e-09
1.786602e-09
1.816165e-09
1.843306e-09
1.867959e-09
1.890064e-09
1.909572e-09
1.926444e-09
1.940649e-09
1.952167e-09
1.960993e-09
1.967128e-09
1.970588e-09
1.971402e-09
1.969609e-09
1.965265e-09
1.958435e-09
1.949201e-09
1.937659e-09
1.923916e-09
1.908098e-09
1.890343e-09
1.870805e-09
1.849653e-09
1.827072e-09
1.803263e-09
1.778443e-09
1.752845e-09
1.726719e-09
1.700331e-09
1.673965e-09
1.647919e-09
1.622508e-09
1.59806e-09
1.574918e-09
1.55343e-09
1.533952e-09
1.516834e-09
1.502419e-09
1.49102e-09
1.482905e-09
1.478368e-09
1.477989e-09
1.480744e-09
1.966634e-11
1.984475e-11
1.683923e-11
1.003071e-11
3.949008e-14
-1.273501e-11
-2.793893e-11
-4.520443e-11
-6.416157e-11
-8.444816e-11
-1.057153e-10
-1.276316e-10
-1.498861e-10
-1.721896e-10
-1.942751e-10
-2.158982e-10
-2.368363e-10
-2.56888e-10
-2.758719e-10
-2.936256e-10
-3.100043e-10
-3.248796e-10
-3.381386e-10
-3.496825e-10
-3.594257e-10
-3.672945e-10
-3.732268e-10
-3.771702e-10
-3.79082e-10
-3.789281e-10
-3.766823e-10
-3.723256e-10
-3.658458e-10
-3.572369e-10
-3.46499e-10
-3.336376e-10
-3.186633e-10
-3.015914e-10
-2.824419e-10
-2.61239e-10
-2.380112e-10
-2.127911e-10
-1.856149e-10
-1.565229e-10
-1.255592e-10
-9.277125e-11
-5.821051e-11
-2.193193e-11
1.600588e-11
5.554063e-11
9.660644e-11
1.391338e-10
1.830495e-10
2.282768e-10
2.747355e-10
3.223415e-10
3.710074e-10
4.206421e-10
4.711509e-10
5.22436e-10
5.743961e-10
6.26927e-10
6.799212e-10
7.332685e-10
7.868557e-10
8.405673e-10
8.942854e-10
9.478901e-10
1.00126e-09
1.054271e-09
1.1068e-09
1.158723e-09
1.209913e-09
1.260245e-09
1.309595e-09
1.35784e-09
1.404857e-09
1.450525e-09
1.494726e-09
1.537346e-09
1.578273e-09
1.6174e-09
1.654623e-09
1.689844e-09
1.722972e-09
1.75392e-09
1.78261e-09
1.808968e-09
1.832933e-09
1.854447e-09
1.873464e-09
1.889946e-09
1.903867e-09
1.91521e-09
1.923967e-09
1.930144e-09
1.933757e-09
1.934835e-09
1.933417e-09
1.929558e-09
1.923324e-09
1.914793e-09
1.904059e-09
1.891228e-09
1.87642e-09
1.859769e-09
1.841424e-09
1.821547e-09
1.800316e-09
1.777923e-09
1.754575e-09
1.730493e-09
1.705913e-09
1.681086e-09
1.656276e-09
1.631762e-09
1.607834e-09
1.584795e-09
1.562955e-09
1.542632e-09
1.524145e-09
1.507811e-09
1.493939e-09
1.482821e-09
1.474721e-09
1.469955e-09
1.46914e-09
1.471377e-09
3.636402e-11
3.498295e-11
3.069564e-11
2.311584e-11
1.273628e-11
-8.972576e-14
-1.504372e-11
-3.180077e-11
-5.003561e-11
-6.942897e-11
-8.967162e-11
-1.104678e-10
-1.31538e-10
-1.5262e-10
-1.734704e-10
-1.938643e-10
-2.135959e-10
-2.324777e-10
-2.5034e-10
-2.670295e-10
-2.824093e-10
-2.963573e-10
-3.087654e-10
-3.195388e-10
-3.285945e-10
-3.358611e-10
-3.412778e-10
-3.447932e-10
-3.46365e-10
-3.45959e-10
-3.435484e-10
-3.391138e-10
-3.32642e-10
-3.241259e-10
-3.135642e-10
-3.00961e-10
-2.863252e-10
-2.696707e-10
-2.510154e-10
-2.303819e-10
-2.077967e-10
-1.832903e-10
-1.56897e-10
-1.28655e-10
-9.860607e-11
-6.679572e-11
-3.327297e-11
1.909513e-12
3.869547e-11
7.702505e-11
1.168348e-10
1.580579e-10
2.006237e-10
2.444583e-10
2.89484e-10
3.356199e-10
3.827814e-10
4.308803e-10
4.798253e-10
5.295217e-10
5.798715e-10
6.307739e-10
6.82125e-10
7.338181e-10
7.857437e-10
8.3779e-10
8.89843e-10
9.417867e-10
9.935033e-10
1.044874e-09
1.095779e-09
1.146097e-09
1.195707e-09
1.244489e-09
1.292321e-09
1.339085e-09
1.384662e-09
1.428937e-09
1.471795e-09
1.513125e-09
1.55282e-09
1.590777e-09
1.626896e-09
1.661083e-09
1.69325e-09
1.723314e-09
1.7512e-09
1.776838e-09
1.800167e-09
1.821135e-09
1.839697e-09
1.855819e-09
1.869474e-09
1.880647e-09
1.889333e-09
1.895538e-09
1.899279e-09
1.900583e-09
1.899492e-09
1.896057e-09
1.890344e-09
1.88243e-09
1.872405e-09
1.860372e-09
1.846447e-09
1.830759e-09
1.813453e-09
1.794683e-09
1.774619e-09
1.753444e-09
1.731356e-09
1.708563e-09
1.685288e-09
1.661766e-09
1.638244e-09
1.61498e-09
1.592244e-09
1.570311e-09
1.549466e-09
1.529997e-09
1.512193e-09
1.496341e-09
1.482722e-09
1.471607e-09
1.463249e-09
1.457956e-09
1.456293e-09
1.457521e-09
5.696664e-11
5.362785e-11
4.766941e-11
3.898062e-11
2.788672e-11
1.468399e-11
-3.454498e-13
-1.691751e-11
-3.474809e-11
-5.355701e-11
-7.307146e-11
-9.302889e-11
-1.131793e-10
-1.332867e-10
-1.531305e-10
-1.725056e-10
-1.912232e-10
-2.091103e-10
-2.260092e-10
-2.417772e-10
-2.562857e-10
-2.694197e-10
-2.810773e-10
-2.911679e-10
-2.996127e-10
-3.06343e-10
-3.113001e-10
-3.144343e-10
-3.157042e-10
-3.150762e-10
-3.125239e-10
-3.080274e-10
-3.015731e-10
-2.931532e-10
-2.827656e-10
-2.704132e-10
-2.561036e-10
-2.398492e-10
-2.216664e-10
-2.015762e-10
-1.796032e-10
-1.557762e-10
-1.301276e-10
-1.026933e-10
-7.351328e-11
-4.263075e-11
-1.009258e-11
2.405083e-11
5.974556e-11
9.693417e-11
1.355557e-10
1.755458e-10
2.168366e-10
2.593567e-10
3.030313e-10
3.477821e-10
3.935275e-10
4.401824e-10
4.876583e-10
5.358638e-10
5.847041e-10
6.340816e-10
6.838957e-10
7.340431e-10
7.844179e-10
8.349117e-10
8.854141e-10
9.358128e-10
9.859938e-10
1.035842e-09
1.085241e-09
1.134073e-09
1.182222e-09
1.229571e-09
1.276003e-09
1.321402e-09
1.365653e-09
1.408646e-09
1.450268e-09
1.490414e-09
1.528979e-09
1.565864e-09
1.600971e-09
1.634211e-09
1.665498e-09
1.694753e-09
1.721902e-09
1.74688e-09
1.769628e-09
1.790094e-09
1.808238e-09
1.824025e-09
1.837431e-09
1.848443e-09
1.857055e-09
1.863274e-09
1.867117e-09
1.868613e-09
1.8678e-09
1.86473e-09
1.859467e-09
1.852084e-09
1.842671e-09
1.831325e-09
1.81816e-09
1.8033e-09
1.786882e-09
1.769055e-09
1.749981e-09
1.729835e-09
1.708803e-09
1.687082e-09
1.664882e-09
1.642423e-09
1.619935e-09
1.597659e-09
1.57584e-09
1.554734e-09
1.5346e-09
1.5157e-09
1.498294e-09
1.482644e-09
1.469004e-09
1.457623e-09
1.448737e-09
1.442626e-09
1.439747e-09
1.439564e-09
8.083779e-11
7.525241e-11
6.731927e-11
5.723768e-11
4.514786e-11
3.128509e-11
1.589551e-11
-7.757299e-13
-1.848288e-11
-3.698176e-11
-5.603317e-11
-7.54054e-11
-9.487635e-11
-1.142351e-10
-1.332831e-10
-1.518349e-10
-1.697185e-10
-1.867758e-10
-2.028616e-10
-2.178441e-10
-2.316038e-10
-2.440337e-10
-2.550381e-10
-2.645323e-10
-2.724415e-10
-2.787008e-10
-2.832543e-10
-2.860544e-10
-2.870614e-10
-2.862427e-10
-2.835726e-10
-2.790315e-10
-2.726058e-10
-2.642874e-10
-2.540734e-10
-2.41966e-10
-2.279718e-10
-2.12102e-10
-1.943718e-10
-1.748004e-10
-1.53411e-10
-1.302307e-10
-1.052899e-10
-7.862287e-11
-5.026731e-11
-2.026449e-11
1.134088e-11
4.450063e-11
7.916313e-11
1.152733e-10
1.527727e-10
1.915994e-10
2.316881e-10
2.729701e-10
3.153733e-10
3.588221e-10
4.032376e-10
4.485377e-10
4.94637e-10
5.414469e-10
5.888758e-10
6.368292e-10
6.852096e-10
7.339169e-10
7.828486e-10
8.318995e-10
8.809625e-10
9.299288e-10
9.786878e-10
1.027128e-09
1.075135e-09
1.122598e-09
1.169401e-09
1.215431e-09
1.260575e-09
1.30472e-09
1.347757e-09
1.389574e-09
1.430067e-09
1.46913e-09
1.506662e-09
1.542568e-09
1.576753e-09
1.60913e-09
1.639615e-09
1.668133e-09
1.694612e-09
1.718988e-09
1.741205e-09
1.761214e-09
1.778974e-09
1.794453e-09
1.807627e-09
1.818485e-09
1.82702e-09
1.833241e-09
1.837164e-09
1.838816e-09
1.838236e-09
1.835474e-09
1.830592e-09
1.823661e-09
1.814766e-09
1.804004e-09
1.791482e-09
1.77732e-09
1.761649e-09
1.744611e-09
1.726361e-09
1.707065e-09
1.686897e-09
1.666046e-09
1.644707e-09
1.623087e-09
1.601399e-09
1.579866e-09
1.558716e-09
1.538181e-09
1.518499e-09
1.499907e-09
1.482642e-09
1.466939e-09
1.453027e-09
1.441132e-09
1.43147e-09
1.424279e-09
1.419883e-09
1.417978e-09
1.073629e-10
9.933128e-11
8.91975e-11
7.749532e-11
6.417475e-11
4.941097e-11
3.341635e-11
1.639946e-11
-1.42959e-12
-1.985989e-11
-3.868328e-11
-5.76968e-11
-7.670463e-11
-9.551958e-11
-1.139644e-10
-1.318725e-10
-1.490889e-10
-1.654699e-10
-1.808835e-10
-1.952089e-10
-2.083363e-10
-2.201668e-10
-2.306119e-10
-2.395927e-10
-2.470397e-10
-2.52892e-10
-2.570971e-10
-2.5961e-10
-2.603932e-10
-2.594155e-10
-2.566525e-10
-2.520852e-10
-2.457003e-10
-2.374897e-10
-2.274503e-10
-2.155837e-10
-2.018959e-10
-1.863969e-10
-1.691008e-10
-1.500255e-10
-1.29193e-10
-1.066284e-10
-8.236067e-11
-5.642213e-11
-2.884862e-11
3.206279e-13
3.104298e-11
6.327243e-11
9.69596e-11
1.320517e-10
1.684928e-10
2.062233e-10
2.451806e-10
2.852984e-10
3.265072e-10
3.687343e-10
4.119034e-10
4.559353e-10
5.007473e-10
5.462538e-10
5.923662e-10
6.389928e-10
6.860393e-10
7.334086e-10
7.81001e-10
8.287148e-10
8.764458e-10
9.240884e-10
9.715349e-10
1.018677e-09
1.065404e-09
1.111607e-09
1.157175e-09
1.201996e-09
1.245961e-09
1.288961e-09
1.330887e-09
1.371634e-09
1.411097e-09
1.449175e-09
1.485769e-09
1.520786e-09
1.554134e-09
1.585729e-09
1.615489e-09
1.643339e-09
1.669211e-09
1.693043e-09
1.714779e-09
1.734372e-09
1.751782e-09
1.766978e-09
1.779938e-09
1.790649e-09
1.799106e-09
1.805318e-09
1.809298e-09
1.811075e-09
1.810686e-09
1.808179e-09
1.803614e-09
1.797059e-09
1.788597e-09
1.77832e-09
1.766332e-09
1.752747e-09
1.73769e-09
1.721297e-09
1.703716e-09
1.685102e-09
1.665622e-09
1.645452e-09
1.624777e-09
1.603788e-09
1.582685e-09
1.561674e-09
1.540964e-09
1.520769e-09
1.501305e-09
1.482787e-09
1.46543e-09
1.449445e-09
1.435037e-09
1.422406e-09
1.411747e-09
1.403255e-09
1.397103e-09
1.39325e-09
1.359725e-10
1.25365e-10
1.128697e-10
9.937e-11
8.462789e-11
6.876206e-11
5.195457e-11
3.438034e-11
1.621657e-11
-2.356438e-12
-2.115921e-11
-4.001546e-11
-5.875398e-11
-7.721007e-11
-9.522675e-11
-1.126558e-10
-1.293586e-10
-1.45206e-10
-1.600788e-10
-1.738676e-10
-1.864724e-10
-1.978031e-10
-2.077785e-10
-2.163261e-10
-2.233817e-10
-2.288892e-10
-2.327999e-10
-2.350718e-10
-2.356699e-10
-2.345652e-10
-2.317344e-10
-2.271599e-10
-2.208289e-10
-2.127336e-10
-2.02871e-10
-1.912424e-10
-1.778531e-10
-1.627125e-10
-1.458338e-10
-1.272336e-10
-1.069326e-10
-8.495445e-11
-6.132657e-11
-3.607954e-11
-9.24733e-12
1.913274e-11
4.902005e-11
8.037072e-11
1.131375e-10
1.472701e-10
1.827146e-10
2.194142e-10
2.573084e-10
2.963337e-10
3.36423e-10
3.775063e-10
4.1951e-10
4.623574e-10
5.059689e-10
5.502614e-10
5.951492e-10
6.405435e-10
6.863528e-10
7.324827e-10
7.788367e-10
8.253157e-10
8.718185e-10
9.182423e-10
9.644825e-10
1.010433e-09
1.055988e-09
1.101038e-09
1.145477e-09
1.189196e-09
1.232088e-09
1.274045e-09
1.314964e-09
1.35474e-09
1.393271e-09
1.430458e-09
1.466205e-09
1.50042e-09
1.533015e-09
1.563905e-09
1.593012e-09
1.620263e-09
1.645589e-09
1.668931e-09
1.690235e-09
1.709453e-09
1.726547e-09
1.741486e-09
1.754249e-09
1.764822e-09
1.773201e-09
1.779393e-09
1.783413e-09
1.785286e-09
1.785049e-09
1.782747e-09
1.778439e-09
1.772191e-09
1.764081e-09
1.754197e-09
1.74264e-09
1.729519e-09
1.714952e-09
1.69907e-09
1.682012e-09
1.663927e-09
1.64497e-09
1.625308e-09
1.605114e-09
1.584567e-09
1.563852e-09
1.543159e-09
1.522682e-09
1.502617e-09
1.483159e-09
1.464506e-09
1.446848e-09
1.430376e-09
1.415272e-09
1.401711e-09
1.389868e-09
1.379894e-09
1.371806e-09
1.365848e-09
1.661497e-10
1.528892e-10
1.379233e-10
1.224929e-10
1.06178e-10
8.904553e-11
7.12512e-11
5.293959e-11
3.425794e-11
1.535846e-11
-3.605689e-12
-2.248292e-11
-4.112497e-11
-5.938832e-11
-7.713528e-11
-9.423522e-11
-1.105653e-10
-1.260106e-10
-1.404646e-10
-1.538293e-10
-1.660148e-10
-1.769396e-10
-1.865303e-10
-1.947211e-10
-2.014535e-10
-2.066763e-10
-2.103449e-10
-2.12421e-10
-2.128723e-10
-2.116721e-10
-2.08799e-10
-2.042366e-10
-1.979731e-10
-1.900015e-10
-1.803188e-10
-1.689263e-10
-1.55829e-10
-1.410357e-10
-1.245588e-10
-1.06414e-10
-8.66206e-11
-6.520118e-11
-4.218148e-11
-1.75905e-11
8.539535e-12
3.617316e-11
6.527173e-11
9.579338e-11
1.276931e-10
1.609226e-10
1.954306e-10
2.311623e-10
2.6806e-10
3.060622e-10
3.451048e-10
3.851199e-10
4.260367e-10
4.677811e-10
5.102761e-10
5.534415e-10
5.97194e-10
6.414475e-10
6.861133e-10
7.310998e-10
7.763129e-10
8.216563e-10
8.670316e-10
9.123385e-10
9.574751e-10
1.002338e-09
1.046823e-09
1.090825e-09
1.134238e-09
1.176957e-09
1.218878e-09
1.259894e-09
1.299904e-09
1.338806e-09
1.376499e-09
1.412887e-09
1.447875e-09
1.481373e-09
1.513295e-09
1.543557e-09
1.572083e-09
1.598799e-09
1.623641e-09
1.646547e-09
1.667466e-09
1.68635e-09
1.703161e-09
1.71787e-09
1.730453e-09
1.740898e-09
1.749201e-09
1.755365e-09
1.759407e-09
1.761351e-09
1.76123e-09
1.759089e-09
1.754983e-09
1.748976e-09
1.741143e-09
1.731569e-09
1.720348e-09
1.707585e-09
1.693394e-09
1.677898e-09
1.661229e-09
1.643528e-09
1.624943e-09
1.605629e-09
1.585748e-09
1.565467e-09
1.54496e-09
1.524401e-09
1.503969e-09
1.483843e-09
1.464202e-09
1.445224e-09
1.427081e-09
1.409941e-09
1.393967e-09
1.379311e-09
1.366127e-09
1.354526e-09
1.344373e-09
1.336202e-09
1.974295e-10
1.814774e-10
1.639718e-10
1.46514e-10
1.285092e-10
1.099776e-10
9.105285e-11
7.185242e-11
5.249658e-11
3.311201e-11
1.38278e-11
-5.227218e-12
-2.392612e-11
-4.214519e-11
-5.976497e-11
-7.667155e-11
-9.275732e-11
-1.079212e-10
-1.220692e-10
-1.351143e-10
-1.469767e-10
-1.575839e-10
-1.668702e-10
-1.747766e-10
-1.812508e-10
-1.862465e-10
-1.897237e-10
-1.916478e-10
-1.919896e-10
-1.90725e-10
-1.878347e-10
-1.833039e-10
-1.771221e-10
-1.692829e-10
-1.597839e-10
-1.486265e-10
-1.358156e-10
-1.213596e-10
-1.052701e-10
-8.756217e-11
-6.825399e-11
-4.736683e-11
-2.492508e-11
-9.561834e-13
2.450927e-11
5.143762e-11
7.979209e-11
1.095328e-10
1.406169e-10
1.729983e-10
2.066278e-10
2.41453e-10
2.774184e-10
3.144653e-10
3.525315e-10
3.915519e-10
4.314581e-10
4.721786e-10
5.136389e-10
5.557613e-10
5.984651e-10
6.416669e-10
6.852803e-10
7.292162e-10
7.733832e-10
8.176873e-10
8.620328e-10
9.063215e-10
9.50454e-10
9.943294e-10
1.037845e-09
1.080899e-09
1.123388e-09
1.165207e-09
1.206255e-09
1.246428e-09
1.285625e-09
1.323746e-09
1.360693e-09
1.396371e-09
1.430687e-09
1.463551e-09
1.494878e-09
1.524586e-09
1.5526e-09
1.578847e-09
1.603263e-09
1.625787e-09
1.646368e-09
1.664958e-09
1.681521e-09
1.696025e-09
1.708448e-09
1.718777e-09
1.727006e-09
1.733138e-09
1.737189e-09
1.73918e-09
1.739144e-09
1.737123e-09
1.733169e-09
1.727344e-09
1.719718e-09
1.710374e-09
1.699402e-09
1.686901e-09
1.672979e-09
1.657754e-09
1.64135e-09
1.623902e-09
1.605547e-09
1.586433e-09
1.566712e-09
1.546539e-09
1.526074e-09
1.505481e-09
1.484924e-09
1.464566e-09
1.444571e-09
1.4251e-09
1.406307e-09
1.388342e-09
1.371347e-09
1.355455e-09
1.340804e-09
1.327464e-09
1.315153e-09
1.304706e-09
2.293945e-10
2.107397e-10
1.906562e-10
1.711037e-10
1.513205e-10
1.312855e-10
1.111133e-10
9.089813e-11
7.073598e-11
5.073047e-11
3.098874e-11
1.161875e-11
-7.272291e-12
-2.557908e-11
-4.31993e-11
-6.00349e-11
-7.59929e-11
-9.09856e-11
-1.04931e-10
-1.177531e-10
-1.293819e-10
-1.397538e-10
-1.48811e-10
-1.565014e-10
-1.627788e-10
-1.676024e-10
-1.709366e-10
-1.727509e-10
-1.730193e-10
-1.717206e-10
-1.688378e-10
-1.643579e-10
-1.582718e-10
-1.505742e-10
-1.412633e-10
-1.303407e-10
-1.178114e-10
-1.036836e-10
-8.796826e-11
-7.067984e-11
-5.183553e-11
-3.145549e-11
-9.562773e-12
1.38166e-11
3.865363e-11
6.491636e-11
9.256986e-11
1.215762e-10
1.518945e-10
1.834808e-10
2.162881e-10
2.502663e-10
2.853621e-10
3.21519e-10
3.586774e-10
3.967744e-10
4.357442e-10
4.755176e-10
5.160226e-10
5.571839e-10
5.989233e-10
6.411597e-10
6.838091e-10
7.267848e-10
7.699977e-10
8.133562e-10
8.567665e-10
9.001331e-10
9.433584e-10
9.863436e-10
1.028988e-09
1.071192e-09
1.112853e-09
1.15387e-09
1.194141e-09
1.233566e-09
1.272043e-09
1.309476e-09
1.345767e-09
1.380821e-09
1.414548e-09
1.446858e-09
1.477668e-09
1.506895e-09
1.534465e-09
1.560307e-09
1.584356e-09
1.606551e-09
1.626841e-09
1.64518e-09
1.661528e-09
1.675855e-09
1.688139e-09
1.698364e-09
1.706524e-09
1.712622e-09
1.71667e-09
1.718689e-09
1.71871e-09
1.716773e-09
1.712926e-09
1.707228e-09
1.699748e-09
1.690563e-09
1.679758e-09
1.667429e-09
1.653679e-09
1.638618e-09
1.622366e-09
1.605048e-09
1.586796e-09
1.567747e-09
1.548044e-09
1.527833e-09
1.507262e-09
1.486482e-09
1.465645e-09
1.444902e-09
1.424401e-09
1.404286e-09
1.384699e-09
1.365771e-09
1.347627e-09
1.330382e-09
1.314159e-09
1.298996e-09
1.284467e-09
1.271709e-09
2.616696e-10
2.403211e-10
2.176444e-10
1.959535e-10
1.743276e-10
1.527081e-10
1.311949e-10
1.098613e-10
8.878212e-11
6.804019e-11
4.772272e-11
2.791858e-11
8.716796e-12
-9.794421e-12
-2.75288e-11
-4.440325e-11
-6.033866e-11
-7.526015e-11
-8.909745e-11
-1.017852e-10
-1.132631e-10
-1.234762e-10
-1.323746e-10
-1.399131e-10
-1.460518e-10
-1.507552e-10
-1.539925e-10
-1.557372e-10
-1.55967e-10
-1.546635e-10
-1.518122e-10
-1.474022e-10
-1.414259e-10
-1.338791e-10
-1.247608e-10
-1.140732e-10
-1.018215e-10
-8.801341e-11
-7.26599e-11
-5.57746e-11
-3.737392e-11
-1.747699e-11
3.894365e-12
2.671549e-11
5.09589e-11
7.659427e-11
1.035884e-10
1.319054e-10
1.615061e-10
1.923488e-10
2.243885e-10
2.575774e-10
2.918643e-10
3.271949e-10
3.63512e-10
4.007551e-10
4.388605e-10
4.777615e-10
5.173884e-10
5.576683e-10
5.985251e-10
6.398801e-10
6.816515e-10
7.237549e-10
7.661032e-10
8.086071e-10
8.511747e-10
8.937124e-10
9.361247e-10
9.783145e-10
1.020183e-09
1.061632e-09
1.102561e-09
1.14287e-09
1.182458e-09
1.221227e-09
1.259077e-09
1.29591e-09
1.331632e-09
1.366149e-09
1.399368e-09
1.431204e-09
1.461572e-09
1.490391e-09
1.517585e-09
1.543085e-09
1.566824e-09
1.588743e-09
1.60879e-09
1.626918e-09
1.643088e-09
1.657267e-09
1.669433e-09
1.679569e-09
1.687668e-09
1.693732e-09
1.69777e-09
1.699803e-09
1.699857e-09
1.697971e-09
1.694191e-09
1.688572e-09
1.681181e-09
1.672089e-09
1.661378e-09
1.64914e-09
1.635471e-09
1.620478e-09
1.604273e-09
1.586974e-09
1.568707e-09
1.5496e-09
1.529787e-09
1.509404e-09
1.488591e-09
1.467487e-09
1.446232e-09
1.424964e-09
1.40382e-09
1.382931e-09
1.362422e-09
1.342413e-09
1.323009e-09
1.304314e-09
1.286439e-09
1.26939e-09
1.252605e-09
1.237522e-09
2.939169e-10
2.698978e-10
2.446299e-10
2.207758e-10
1.97262e-10
1.739972e-10
1.510689e-10
1.285328e-10
1.064446e-10
8.486889e-11
6.387469e-11
4.353349e-11
2.391762e-11
5.099405e-12
-1.284986e-11
-2.986115e-11
-4.586847e-11
-6.080919e-11
-7.462429e-11
-8.725871e-11
-9.866164e-11
-1.087866e-10
-1.175914e-10
-1.250379e-10
-1.310922e-10
-1.357243e-10
-1.389082e-10
-1.406216e-10
-1.408458e-10
-1.395656e-10
-1.36769e-10
-1.324472e-10
-1.265944e-10
-1.192077e-10
-1.102869e-10
-9.983481e-11
-8.785684e-11
-7.436091e-11
-5.935753e-11
-4.285984e-11
-2.488351e-11
-5.446706e-12
1.542985e-11
3.772281e-11
6.140613e-11
8.645107e-11
1.128262e-10
1.404972e-10
1.694272e-10
1.995762e-10
2.309014e-10
2.633569e-10
2.968938e-10
3.314601e-10
3.670006e-10
4.034571e-10
4.407683e-10
4.788696e-10
5.176936e-10
5.571694e-10
5.972235e-10
6.377789e-10
6.787561e-10
7.200727e-10
7.616437e-10
8.033815e-10
8.451964e-10
8.869963e-10
9.286874e-10
9.701743e-10
1.01136e-09
1.052147e-09
1.092436e-09
1.132129e-09
1.171127e-09
1.20933e-09
1.246642e-09
1.282964e-09
1.318203e-09
1.352265e-09
1.385059e-09
1.416498e-09
1.446499e-09
1.47498e-09
1.501866e-09
1.527086e-09
1.550575e-09
1.572272e-09
1.592123e-09
1.610083e-09
1.62611e-09
1.640173e-09
1.652245e-09
1.662309e-09
1.670358e-09
1.67639e-09
1.680415e-09
1.682448e-09
1.682516e-09
1.680654e-09
1.676906e-09
1.671324e-09
1.663969e-09
1.654911e-09
1.644229e-09
1.632007e-09
1.618339e-09
1.603325e-09
1.587071e-09
1.56969e-09
1.5513e-09
1.532022e-09
1.511982e-09
1.491307e-09
1.470129e-09
1.448576e-09
1.426778e-09
1.404863e-09
1.382955e-09
1.361174e-09
1.339633e-09
1.318438e-09
1.297683e-09
1.277458e-09
1.257866e-09
1.238886e-09
1.219826e-09
1.20242e-09
3.258312e-10
2.991746e-10
2.713301e-10
2.453022e-10
2.198714e-10
1.949169e-10
1.705163e-10
1.467103e-10
1.235378e-10
1.010468e-10
7.929027e-11
5.832376e-11
3.820428e-11
1.898943e-11
7.365501e-13
-1.649854e-11
-3.266224e-11
-4.77035e-11
-6.157409e-11
-7.42289e-11
-8.562625e-11
-9.572798e-11
-1.044994e-10
-1.119093e-10
-1.179298e-10
-1.225363e-10
-1.257077e-10
-1.274259e-10
-1.276759e-10
-1.264457e-10
-1.237259e-10
-1.195101e-10
-1.137941e-10
-1.065763e-10
-9.785778e-11
-8.764192e-11
-7.593448e-11
-6.274346e-11
-4.807918e-11
-3.195434e-11
-1.438392e-11
4.614758e-12
2.502204e-11
4.68158e-11
6.997138e-11
9.446157e-11
1.202565e-10
1.473239e-10
1.756284e-10
2.051321e-10
2.357942e-10
2.675708e-10
3.004151e-10
3.342771e-10
3.69104e-10
4.048396e-10
4.414248e-10
4.787971e-10
5.168913e-10
5.556387e-10
5.949675e-10
6.348031e-10
6.750677e-10
7.15681e-10
7.565597e-10
7.97618e-10
8.387678e-10
8.799187e-10
9.209783e-10
9.618527e-10
1.002446e-09
1.042662e-09
1.082403e-09
1.121571e-09
1.160067e-09
1.197794e-09
1.234655e-09
1.270553e-09
1.305393e-09
1.339083e-09
1.371531e-09
1.402652e-09
1.432359e-09
1.460573e-09
1.487218e-09
1.512222e-09
1.535518e-09
1.557046e-09
1.576752e-09
1.594587e-09
1.610511e-09
1.624488e-09
1.636492e-09
1.646505e-09
1.654516e-09
1.660523e-09
1.664533e-09
1.666559e-09
1.666626e-09
1.664765e-09
1.661019e-09
1.655435e-09
1.648073e-09
1.638997e-09
1.628283e-09
1.616011e-09
1.602269e-09
1.587153e-09
1.570764e-09
1.553209e-09
1.534598e-09
1.515047e-09
1.494674e-09
1.473599e-09
1.451944e-09
1.42983e-09
1.407377e-09
1.384704e-09
1.361924e-09
1.339148e-09
1.316478e-09
1.294009e-09
1.271825e-09
1.250004e-09
1.228644e-09
1.207702e-09
1.18636e-09
1.166645e-09
3.57136e-10
3.278811e-10
2.974839e-10
2.69283e-10
2.419186e-10
2.152434e-10
1.893277e-10
1.641988e-10
1.398809e-10
1.164074e-10
9.381653e-11
7.214957e-11
5.144943e-11
3.176012e-11
1.312592e-11
-4.409708e-12
-2.080483e-11
-3.601938e-11
-5.001538e-11
-6.275728e-11
-7.421217e-11
-8.434998e-11
-9.314338e-11
-1.005678e-10
-1.066012e-10
-1.112247e-10
-1.144218e-10
-1.161786e-10
-1.16484e-10
-1.153289e-10
-1.12707e-10
-1.086139e-10
-1.030473e-10
-9.600723e-11
-8.749565e-11
-7.751678e-11
-6.60768e-11
-5.318387e-11
-3.884821e-11
-2.30821e-11
-5.899939e-12
1.268176e-11
3.264434e-11
5.396682e-11
7.66259e-11
1.005958e-10
1.258484e-10
1.523528e-10
1.800758e-10
2.089811e-10
2.3903e-10
2.701806e-10
3.023879e-10
3.356043e-10
3.697787e-10
4.048573e-10
4.407829e-10
4.774952e-10
5.149309e-10
5.530232e-10
5.917026e-10
6.308961e-10
6.705279e-10
7.105192e-10
7.507886e-10
7.912519e-10
8.318224e-10
8.724111e-10
9.12927e-10
9.532772e-10
9.933672e-10
1.033101e-09
1.072383e-09
1.111114e-09
1.149198e-09
1.186537e-09
1.223033e-09
1.258591e-09
1.293117e-09
1.326516e-09
1.358698e-09
1.389576e-09
1.419064e-09
1.447082e-09
1.473553e-09
1.498403e-09
1.521567e-09
1.542982e-09
1.562592e-09
1.580347e-09
1.596206e-09
1.610132e-09
1.622097e-09
1.632081e-09
1.640071e-09
1.646062e-09
1.650059e-09
1.652075e-09
1.65213e-09
1.650253e-09
1.646483e-09
1.640866e-09
1.633456e-09
1.624317e-09
1.613517e-09
1.601135e-09
1.587253e-09
1.571963e-09
1.555361e-09
1.537548e-09
1.518628e-09
1.498711e-09
1.477909e-09
1.456335e-09
1.434103e-09
1.411327e-09
1.388118e-09
1.364588e-09
1.340841e-09
1.316979e-09
1.293095e-09
1.269277e-09
1.245597e-09
1.222126e-09
1.19896e-09
1.176034e-09
1.152412e-09
1.130408e-09
3.875794e-10
3.557695e-10
3.228496e-10
2.92485e-10
2.631805e-10
2.34765e-10
2.073029e-10
1.808103e-10
1.552985e-10
1.307875e-10
1.073025e-10
8.487166e-11
6.352501e-11
4.329402e-11
2.421085e-11
6.307374e-12
-1.038548e-11
-2.583802e-11
-4.002204e-11
-5.291106e-11
-6.448062e-11
-7.470842e-11
-8.357426e-11
-9.106001e-11
-9.714966e-11
-1.018294e-10
-1.050876e-10
-1.069146e-10
-1.073028e-10
-1.062466e-10