/*--------------------------------*- C++ -*----------------------------------*\
| =========                 |                                                 |
| \\      /  F ield         | OpenFOAM: The Open Source CFD Toolbox           |
|  \\    /   O peration     | Version:  2406                                  |
|   \\  /    A nd           | Website:  www.openfoam.com                      |
|    \\/     M anipulation  |                                                 |
\*---------------------------------------------------------------------------*/
FoamFile
{
    version     2.0;
    format      ascii;
    arch        "LSB;label=32;scalar=64";
    class       surfaceScalarField;
    location    "6609";
    object      phi;
}
// * * * * * * * * * * * * * * * * * * * * * * * * * * * * * * * * * * * * * //

dimensions      [0 3 -1 0 0 0 0];

oriented        oriented;

internalField   nonuniform List<scalar> 
32512
(
3.564428e-12
-3.608213e-12
1.265643e-11
-9.088641e-12
2.397502e-11
-1.131666e-11
3.471407e-11
-1.073922e-11
4.298335e-11
-8.268885e-12
4.756368e-11
-4.579655e-12
4.770851e-11
-1.44573e-13
4.299571e-11
4.712895e-12
3.322319e-11
9.772751e-12
1.833931e-11
1.488432e-11
-1.603956e-12
1.994359e-11
-2.648233e-11
2.487845e-11
-5.612122e-11
2.963878e-11
-9.031109e-11
3.418982e-11
-1.288185e-10
3.850762e-11
-1.713944e-10
4.257619e-11
-2.177795e-10
4.638553e-11
-2.677092e-10
4.993008e-11
-3.209166e-10
5.32076e-11
-3.771349e-10
5.621843e-11
-4.360996e-10
5.896479e-11
-4.975495e-10
6.145023e-11
-5.612286e-10
6.367932e-11
-6.26886e-10
6.565747e-11
-6.942765e-10
6.739074e-11
-7.631615e-10
6.888544e-11
-8.33309e-10
7.0148e-11
-9.044934e-10
7.118496e-11
-9.764959e-10
7.2003e-11
-1.049104e-09
7.260877e-11
-1.122113e-09
7.300873e-11
-1.195321e-09
7.320915e-11
-1.268537e-09
7.321614e-11
-1.341573e-09
7.303564e-11
-1.414246e-09
7.267329e-11
-1.48638e-09
7.213448e-11
-1.557804e-09
7.142437e-11
-1.628352e-09
7.054799e-11
-1.697861e-09
6.951015e-11
-1.766177e-09
6.831539e-11
-1.833144e-09
6.696803e-11
-1.898616e-09
6.547228e-11
-1.962449e-09
6.383226e-11
-2.0245e-09
6.205195e-11
-2.084635e-09
6.013518e-11
-2.142721e-09
5.808572e-11
-2.198628e-09
5.590738e-11
-2.252232e-09
5.360397e-11
-2.303411e-09
5.117929e-11
-2.352048e-09
4.863718e-11
-2.398029e-09
4.59816e-11
-2.441246e-09
4.321666e-11
-2.481592e-09
4.034664e-11
-2.518968e-09
3.737592e-11
-2.553277e-09
3.430909e-11
-2.584428e-09
3.1151e-11
-2.612335e-09
2.790675e-11
-2.636917e-09
2.458174e-11
-2.658099e-09
2.118161e-11
-2.675811e-09
1.771233e-11
-2.689991e-09
1.418019e-11
-2.700583e-09
1.059182e-11
-2.707537e-09
6.954197e-12
-2.710812e-09
3.27466e-12
-2.710373e-09
-4.390943e-13
-2.706195e-09
-4.17901e-12
-2.698258e-09
-7.936681e-12
-2.686555e-09
-1.170336e-11
-2.671085e-09
-1.546998e-11
-2.651858e-09
-1.922711e-11
-2.628893e-09
-2.296502e-11
-2.60222e-09
-2.667366e-11
-2.571877e-09
-3.034275e-11
-2.537916e-09
-3.396176e-11
-2.500396e-09
-3.751992e-11
-2.45939e-09
-4.100631e-11
-2.414981e-09
-4.440984e-11
-2.367262e-09
-4.771931e-11
-2.316339e-09
-5.092345e-11
-2.262328e-09
-5.401094e-11
-2.205358e-09
-5.697049e-11
-2.145567e-09
-5.979088e-11
-2.083107e-09
-6.246102e-11
-2.018137e-09
-6.496996e-11
-1.95083e-09
-6.730697e-11
-1.881369e-09
-6.946159e-11
-1.809946e-09
-7.142364e-11
-1.736763e-09
-7.318333e-11
-1.662032e-09
-7.473126e-11
-1.585974e-09
-7.605853e-11
-1.508818e-09
-7.715678e-11
-1.4308e-09
-7.80182e-11
-1.352165e-09
-7.863562e-11
-1.273162e-09
-7.90025e-11
-1.19405e-09
-7.911304e-11
-1.115088e-09
-7.896215e-11
-1.036543e-09
-7.854559e-11
-9.586832e-10
-7.785991e-11
-8.817809e-10
-7.690257e-11
-8.061092e-10
-7.567192e-11
-7.319422e-10
-7.416729e-11
-6.595535e-10
-7.238896e-11
-5.892154e-10
-7.033826e-11
-5.21198e-10
-6.801763e-11
-4.557675e-10
-6.543062e-11
-3.931856e-10
-6.258202e-11
-3.337079e-10
-5.947789e-11
-2.775823e-10
-5.612573e-11
-2.250478e-10
-5.253464e-11
-1.763324e-10
-4.871547e-11
-1.316514e-10
-4.468113e-11
-9.120466e-11
-4.044694e-11
-5.517369e-11
-3.603111e-11
-2.371833e-11
-3.145549e-11
3.028066e-12
-2.674649e-11
2.496443e-11
-2.193644e-11
4.202982e-11
-1.706545e-11
5.421393e-11
-1.218417e-11
6.157165e-11
-7.357766e-12
6.424348e-11
-2.671807e-12
6.248458e-11
1.758964e-12
5.670696e-11
5.777703e-12
4.75404e-11
9.166597e-12
3.591889e-11
1.162144e-11
2.319562e-11
1.272319e-11
1.127911e-11
1.191691e-11
2.734383e-12
8.546039e-12
2.73586e-12
9.076223e-12
-1.268109e-11
2.769632e-11
-2.770628e-11
4.899776e-11
-3.261831e-11
6.757311e-11
-2.9313e-11
7.938979e-11
-2.00835e-11
8.160985e-11
-6.799325e-12
7.233424e-11
9.130693e-12
5.037235e-11
2.667458e-11
1.506006e-11
4.508491e-11
-3.387737e-11
6.382162e-11
-9.64278e-11
8.24939e-11
-1.723678e-10
1.008184e-10
-2.61319e-10
1.185899e-10
-3.627894e-10
1.356602e-10
-4.762051e-10
1.519232e-10
-6.009335e-10
1.673046e-10
-7.36302e-10
1.817541e-10
-8.816114e-10
1.952395e-10
-1.036147e-09
2.077429e-10
-1.199186e-09
2.192572e-10
-1.370005e-09
2.297836e-10
-1.547884e-09
2.393294e-10
-1.732113e-09
2.479073e-10
-1.921989e-09
2.555333e-10
-2.116824e-09
2.62226e-10
-2.315944e-09
2.680062e-10
-2.518692e-09
2.72896e-10
-2.724425e-09
2.769182e-10
-2.932518e-09
2.800961e-10
-3.142363e-09
2.824531e-10
-3.353366e-09
2.840125e-10
-3.564955e-09
2.847973e-10
-3.776568e-09
2.848299e-10
-3.987665e-09
2.841321e-10
-4.197717e-09
2.827251e-10
-4.406211e-09
2.806293e-10
-4.612652e-09
2.778644e-10
-4.816553e-09
2.744495e-10
-5.017446e-09
2.704027e-10
-5.214872e-09
2.657419e-10
-5.408388e-09
2.604838e-10
-5.597561e-09
2.546452e-10
-5.781971e-09
2.482419e-10
-5.961208e-09
2.412896e-10
-6.134877e-09
2.338037e-10
-6.302591e-09
2.257995e-10
-6.463975e-09
2.17292e-10
-6.618668e-09
2.082965e-10
-6.766317e-09
1.988282e-10
-6.906582e-09
1.889027e-10
-7.039137e-09
1.785362e-10
-7.163665e-09
1.677449e-10
-7.279864e-09
1.56546e-10
-7.387446e-09
1.44957e-10
-7.486133e-09
1.329965e-10
-7.575666e-09
1.206839e-10
-7.655799e-09
1.080395e-10
-7.726302e-09
9.50846e-11
-7.786962e-09
8.184169e-11
-7.837584e-09
6.833441e-11
-7.877991e-09
5.458758e-11
-7.908027e-09
4.062733e-11
-7.927554e-09
2.648106e-11
-7.936457e-09
1.217752e-11
-7.934643e-09
-2.25318e-12
-7.922043e-09
-1.677966e-11
-7.89861e-09
-3.13692e-11
-7.864326e-09
-4.59878e-11
-7.819195e-09
-6.060018e-11
-7.763253e-09
-7.516983e-11
-7.696559e-09
-8.965909e-11
-7.619203e-09
-1.040293e-10
-7.531305e-09
-1.182406e-10
-7.433015e-09
-1.322526e-10
-7.324511e-09
-1.460237e-10
-7.206005e-09
-1.595121e-10
-7.07774e-09
-1.726751e-10
-6.93999e-09
-1.854698e-10
-6.79306e-09
-1.978529e-10
-6.63729e-09
-2.097814e-10
-6.473048e-09
-2.212119e-10
-6.300738e-09
-2.321017e-10
-6.12079e-09
-2.424084e-10
-5.93367e-09
-2.520902e-10
-5.739871e-09
-2.611064e-10
-5.539915e-09
-2.69417e-10
-5.334356e-09
-2.769834e-10
-5.123771e-09
-2.837686e-10
-4.908765e-09
-2.89737e-10
-4.689969e-09
-2.948549e-10
-4.468035e-09
-2.990907e-10
-4.243638e-09
-3.02415e-10
-4.017473e-09
-3.048009e-10
-3.790251e-09
-3.06224e-10
-3.562702e-09
-3.066626e-10
-3.335566e-09
-3.060981e-10
-3.109596e-09
-3.04515e-10
-2.885555e-09
-3.019009e-10
-2.664211e-09
-2.982471e-10
-2.446334e-09
-2.935483e-10
-2.232698e-09
-2.878032e-10
-2.024073e-09
-2.810142e-10
-1.821223e-09
-2.73188e-10
-1.624905e-09
-2.643357e-10
-1.435863e-09
-2.544729e-10
-1.254825e-09
-2.436203e-10
-1.082499e-09
-2.318039e-10
-9.195687e-10
-2.190556e-10
-7.666896e-10
-2.054138e-10
-6.24481e-10
-1.909242e-10
-4.93521e-10
-1.756411e-10
-3.743392e-10
-1.596288e-10
-2.674072e-10
-1.429632e-10
-1.731275e-10
-1.257353e-10
-9.182036e-11
-1.080537e-10
-2.370632e-11
-9.005061e-11
3.111567e-11
-7.188753e-11
7.26966e-11
-5.376517e-11
1.012747e-10
-3.593592e-11
1.173245e-10
-1.872176e-11
1.216224e-10
-2.538964e-12
1.153319e-10
1.206817e-11
1.001157e-10
2.438303e-11
7.827275e-11
3.346461e-11
5.289448e-11
3.810102e-11
2.800323e-11
3.680646e-11
8.533998e-12
2.801301e-11
1.127077e-11
1.134347e-11
-2.402257e-11
3.26936e-11
-4.905648e-11
5.496352e-11
-5.48874e-11
7.139522e-11
-4.574316e-11
7.683866e-11
-2.552629e-11
6.750021e-11
2.538784e-12
4.070751e-11
3.592311e-11
-5.312313e-12
7.269442e-11
-7.162305e-11
1.113955e-10
-1.587359e-10
1.509342e-10
-2.667359e-10
1.904934e-10
-3.953809e-10
2.294632e-10
-5.441803e-10
2.673891e-10
-7.124546e-10
3.039344e-10
-8.99383e-10
3.388515e-10
-1.10404e-09
3.719617e-10
-1.325425e-09
4.031389e-10
-1.562484e-09
4.322982e-10
-1.814128e-09
4.593867e-10
-2.079248e-09
4.843762e-10
-2.356723e-09
5.072582e-10
-2.645433e-09
5.280394e-10
-2.944264e-09
5.467382e-10
-3.252114e-09
5.63382e-10
-3.567893e-09
5.780052e-10
-3.890534e-09
5.906472e-10
-4.218989e-09
6.01351e-10
-4.552232e-09
6.101621e-10
-4.889264e-09
6.171276e-10
-5.229106e-09
6.222955e-10
-5.570808e-09
6.257139e-10
-5.913442e-09
6.274307e-10
-6.256105e-09
6.27493e-10
-6.59792e-09
6.259469e-10
-6.938032e-09
6.228375e-10
-7.275612e-09
6.182086e-10
-7.60985e-09
6.121026e-10
-7.939961e-09
6.045607e-10
-8.265182e-09
5.956227e-10
-8.584767e-09
5.853272e-10
-8.897995e-09
5.737115e-10
-9.204162e-09
5.60812e-10
-9.502585e-09
5.466643e-10
-9.792599e-09
5.313033e-10
-1.007356e-08
5.147632e-10
-1.034484e-08
4.970783e-10
-1.060583e-08
4.782824e-10
-1.085594e-08
4.584097e-10
-1.109461e-08
4.374949e-10
-1.132128e-08
4.15573e-10
-1.153542e-08
3.926801e-10
-1.173653e-08
3.688533e-10
-1.192412e-08
3.441308e-10
-1.209771e-08
3.185526e-10
-1.225688e-08
2.921602e-10
-1.240119e-08
2.64997e-10
-1.253026e-08
2.371087e-10
-1.264372e-08
2.08543e-10
-1.274122e-08
1.793499e-10
-1.282247e-08
1.495822e-10
-1.288718e-08
1.192952e-10
-1.29351e-08
8.85468e-11
-1.296602e-08
5.739784e-11
-1.297975e-08
2.591194e-11
-1.297616e-08
-5.844447e-12
-1.295514e-08
-3.780205e-11
-1.291662e-08
-6.988877e-11
-1.286058e-08
-1.020298e-10
-1.278703e-08
-1.341475e-10
-1.269604e-08
-1.661619e-10
-1.25877e-08
-1.979903e-10
-1.246219e-08
-2.295481e-10
-1.231968e-08
-2.607483e-10
-1.216043e-08
-2.915022e-10
-1.198473e-08
-3.217195e-10
-1.179294e-08
-3.513085e-10
-1.158543e-08
-3.801764e-10
-1.136267e-08
-4.082297e-10
-1.112515e-08
-4.353743e-10
-1.087342e-08
-4.615164e-10
-1.060807e-08
-4.865621e-10
-1.032975e-08
-5.104184e-10
-1.003916e-08
-5.329934e-10
-9.737058e-09
-5.541967e-10
-9.424225e-09
-5.739396e-10
-9.101506e-09
-5.921361e-10
-8.769787e-09
-6.087025e-10
-8.429997e-09
-6.235587e-10
-8.083105e-09
-6.366281e-10
-7.730122e-09
-6.478382e-10
-7.372091e-09
-6.571209e-10
-7.010093e-09
-6.644132e-10
-6.645237e-09
-6.696572e-10
-6.27866e-09
-6.728009e-10
-5.911524e-09
-6.737984e-10
-5.545011e-09
-6.726103e-10
-5.180322e-09
-6.69204e-10
-4.818668e-09
-6.635545e-10
-4.461271e-09
-6.55644e-10
-4.109357e-09
-6.45463e-10
-3.764149e-09
-6.330105e-10
-3.426869e-09
-6.182942e-10
-3.098726e-09
-6.013312e-10
-2.780913e-09
-5.821485e-10
-2.474602e-09
-5.607836e-10
-2.180937e-09
-5.372851e-10
-1.901027e-09
-5.117141e-10
-1.635937e-09
-4.841447e-10
-1.386685e-09
-4.546662e-10
-1.154225e-09
-4.233845e-10
-9.394413e-10
-3.904246e-10
-7.431359e-10
-3.559343e-10
-5.660116e-10
-3.200877e-10
-4.086556e-10
-2.830914e-10
-2.715176e-10
-2.451919e-10
-1.548837e-10
-2.066847e-10
-5.884288e-11
-1.679285e-10
1.675356e-11
-1.293617e-10
7.234409e-11
-9.152658e-11
1.087219e-10
-5.50998e-11
1.271163e-10
-2.09336e-11
1.292921e-10
9.892171e-12
1.176684e-10
3.600683e-11
9.545238e-11
5.568136e-11
6.677742e-11
6.677734e-11
3.68222e-11
6.676259e-11
1.190706e-11
5.292697e-11
2.317785e-11
1.082254e-11
-3.484516e-11
2.955007e-11
-6.778268e-11
4.609574e-11
-7.143119e-11
5.299301e-11
-5.263955e-11
4.452726e-11
-1.706037e-11
1.639659e-11
3.066945e-11
-3.452142e-11
8.684111e-11
-1.103717e-10
1.485445e-10
-2.124984e-10
2.135219e-10
-3.415976e-10
2.800331e-10
-4.978469e-10
3.467426e-10
-6.810125e-10
4.126288e-10
-8.905373e-10
4.76914e-10
-1.125612e-09
5.390091e-10
-1.385233e-09
5.984721e-10
-1.668247e-09
6.549757e-10
-1.973391e-09
7.082828e-10
-2.29932e-09
7.582273e-10
-2.644633e-09
8.046994e-10
-3.00789e-09
8.476335e-10
-3.387632e-09
8.869992e-10
-3.782387e-09
9.22794e-10
-4.190685e-09
9.550368e-10
-4.611067e-09
9.837639e-10
-5.042086e-09
1.009025e-09
-5.482317e-09
1.030878e-09
-5.930357e-09
1.049391e-09
-6.38483e-09
1.064635e-09
-6.84439e-09
1.076687e-09
-7.307718e-09
1.085624e-09
-7.773528e-09
1.091524e-09
-8.240565e-09
1.094468e-09
-8.707605e-09
1.094532e-09
-9.173454e-09
1.091796e-09
-9.636952e-09
1.086335e-09
-1.009697e-08
1.078223e-09
-1.055239e-08
1.067532e-09
-1.100217e-08
1.054333e-09
-1.144524e-08
1.038695e-09
-1.18806e-08
1.020684e-09
-1.230725e-08
1.000366e-09
-1.272424e-08
9.778031e-10
-1.313064e-08
9.530582e-10
-1.352553e-08
9.261924e-10
-1.390803e-08
8.972664e-10
-1.427729e-08
8.663402e-10
-1.463248e-08
8.334741e-10
-1.49728e-08
7.987288e-10
-1.529747e-08
7.621656e-10
-1.560575e-08
7.238469e-10
-1.58969e-08
6.838369e-10
-1.617025e-08
6.422013e-10
-1.642513e-08
5.990083e-10
-1.666091e-08
5.543288e-10
-1.687698e-08
5.082362e-10
-1.707279e-08
4.608077e-10
-1.724781e-08
4.121238e-10
-1.740153e-08
3.622688e-10
-1.753352e-08
3.113311e-10
-1.764334e-08
2.594035e-10
-1.773063e-08
2.06583e-10
-1.779505e-08
1.529716e-10
-1.783633e-08
9.867574e-11
-1.785422e-08
4.380678e-11
-1.784855e-08
-1.151914e-11
-1.781917e-08
-6.71811e-11
-1.776601e-08
-1.230534e-10
-1.768903e-08
-1.790057e-10
-1.758827e-08
-2.349032e-10
-1.746383e-08
-2.906066e-10
-1.731585e-08
-3.459728e-10
-1.714454e-08
-4.008547e-10
-1.695019e-08
-4.551018e-10
-1.673313e-08
-5.085605e-10
-1.649377e-08
-5.610746e-10
-1.62326e-08
-6.124856e-10
-1.595014e-08
-6.626334e-10
-1.564701e-08
-7.113565e-10
-1.532389e-08
-7.584929e-10
-1.498153e-08
-8.038805e-10
-1.462073e-08
-8.473581e-10
-1.424239e-08
-8.887655e-10
-1.384743e-08
-9.279447e-10
-1.343689e-08
-9.6474e-10
-1.301183e-08
-9.989996e-10
-1.257339e-08
-1.030575e-09
-1.212277e-08
-1.059325e-09
-1.166122e-08
-1.085109e-09
-1.119005e-08
-1.107799e-09
-1.071062e-08
-1.127269e-09
-1.022433e-08
-1.143404e-09
-9.732651e-09
-1.156097e-09
-9.23706e-09
-1.165248e-09
-8.73909e-09
-1.17077e-09
-8.240302e-09
-1.172586e-09
-7.742283e-09
-1.170629e-09
-7.246642e-09
-1.164845e-09
-6.755002e-09
-1.155194e-09
-6.268999e-09
-1.141647e-09
-5.790271e-09
-1.124191e-09
-5.320455e-09
-1.102826e-09
-4.861179e-09
-1.077571e-09
-4.414052e-09
-1.048457e-09
-3.980663e-09
-1.015537e-09
-3.562567e-09
-9.788802e-10
-3.161276e-09
-9.385754e-10
-2.778256e-09
-8.947345e-10
-2.414908e-09
-8.474925e-10
-2.072563e-09
-7.970111e-10
-1.752466e-09
-7.434816e-10
-1.455761e-09
-6.871292e-10
-1.183477e-09
-6.282187e-10
-9.365038e-10
-5.670609e-10
-7.155726e-10
-5.040227e-10
-5.212269e-10
-4.395378e-10
-3.537889e-10
-3.741229e-10
-2.133202e-10
-3.083973e-10
-9.957291e-11
-2.43109e-10
-1.193115e-11
-1.791683e-10
5.065968e-11
-1.176905e-10
8.977642e-11
-6.00504e-11
1.076156e-10
-7.947345e-12
1.071033e-10
3.651846e-11
9.201593e-11
7.076822e-11
6.710974e-11
9.168388e-11
3.826809e-11
9.560537e-11
1.275013e-11
7.844491e-11
3.592775e-11
8.428088e-12
-4.327272e-11
2.052933e-11
-7.988232e-11
2.622457e-11
-7.712587e-11
1.788544e-11
-4.430095e-11
-1.038188e-11
1.120656e-11
-6.30746e-11
8.336215e-11
-1.435165e-10
1.672832e-10
-2.540404e-10
2.590684e-10
-3.961457e-10
3.55627e-10
-5.706384e-10
4.545253e-10
-7.777527e-10
5.538564e-10
-1.017257e-09
6.521325e-10
-1.288542e-09
7.481992e-10
-1.590699e-09
8.411661e-10
-1.92258e-09
9.303527e-10
-2.282849e-09
1.015245e-09
-2.67003e-09
1.095463e-09
-3.082536e-09
1.170733e-09
-3.518701e-09
1.240865e-09
-3.976806e-09
1.305738e-09
-4.455095e-09
1.365287e-09
-4.951791e-09
1.41949e-09
-5.465112e-09
1.468357e-09
-5.993279e-09
1.511931e-09
-6.534525e-09
1.55027e-09
-7.087101e-09
1.583455e-09
-7.649284e-09
1.611574e-09
-8.219378e-09
1.634729e-09
-8.795716e-09
1.653026e-09
-9.376668e-09
1.666576e-09
-9.960637e-09
1.675493e-09
-1.054606e-08
1.679892e-09
-1.113142e-08
1.679888e-09
-1.171522e-08
1.675596e-09
-1.229601e-08
1.667128e-09
-1.287238e-08
1.654595e-09
-1.344296e-08
1.638106e-09
-1.400639e-08
1.617766e-09
-1.456138e-08
1.59368e-09
-1.510664e-08
1.565949e-09
-1.564095e-08
1.534672e-09
-1.616309e-08
1.499946e-09
-1.66719e-08
1.461866e-09
-1.716623e-08
1.420528e-09
-1.764499e-08
1.376025e-09
-1.81071e-08
1.32845e-09
-1.855152e-08
1.277896e-09
-1.897725e-08
1.224459e-09
-1.938332e-08
1.168233e-09
-1.976879e-08
1.109316e-09
-2.013276e-08
1.047809e-09
-2.047437e-08
9.838122e-10
-2.07928e-08
9.174337e-10
-2.108725e-08
8.487831e-10
-2.135699e-08
7.779753e-10
-2.160132e-08
7.051298e-10
-2.181956e-08
6.303717e-10
-2.201113e-08
5.538318e-10
-2.217544e-08
4.75647e-10
-2.2312e-08
3.959608e-10
-2.242034e-08
3.149231e-10
-2.250006e-08
2.326911e-10
-2.255081e-08
1.494289e-10
-2.257231e-08
6.530772e-11
-2.256434e-08
-1.949398e-11
-2.252673e-08
-1.047906e-10
-2.245939e-08
-1.903894e-10
-2.236231e-08
-2.760908e-10
-2.223552e-08
-3.616886e-10
-2.207916e-08
-4.4697e-10
-2.189342e-08
-5.317163e-10
-2.167857e-08
-6.157032e-10
-2.143497e-08
-6.987013e-10
-2.116305e-08
-7.804768e-10
-2.086333e-08
-8.607918e-10
-2.053641e-08
-9.394052e-10
-2.018297e-08
-1.016074e-09
-1.980378e-08
-1.090552e-09
-1.939968e-08
-1.162595e-09
-1.89716e-08
-1.231956e-09
-1.852057e-08
-1.29839e-09
-1.804768e-08
-1.361656e-09
-1.755411e-08
-1.421514e-09
-1.704112e-08
-1.477728e-09
-1.651005e-08
-1.530069e-09
-1.596231e-08
-1.578313e-09
-1.539939e-08
-1.622245e-09
-1.482284e-08
-1.661657e-09
-1.423429e-08
-1.696351e-09
-1.363542e-08
-1.726142e-09
-1.302797e-08
-1.750853e-09
-1.241374e-08
-1.770326e-09
-1.179458e-08
-1.784412e-09
-1.117237e-08
-1.792979e-09
-1.054904e-08
-1.795913e-09
-9.926554e-09
-1.793116e-09
-9.30689e-09
-1.78451e-09
-8.692051e-09
-1.770033e-09
-8.084048e-09
-1.749649e-09
-7.484898e-09
-1.723341e-09
-6.89661e-09
-1.691114e-09
-6.321182e-09
-1.652999e-09
-5.760587e-09
-1.609052e-09
-5.216768e-09
-1.559356e-09
-4.691623e-09
-1.504025e-09
-4.186998e-09
-1.443201e-09
-3.70467e-09
-1.377062e-09
-3.24634e-09
-1.305822e-09
-2.813615e-09
-1.229736e-09
-2.407991e-09
-1.149106e-09
-2.030836e-09
-1.064284e-09
-1.683371e-09
-9.756841e-10
-1.366643e-09
-8.837888e-10
-1.081501e-09
-7.891644e-10
-8.285631e-10
-6.924762e-10
-6.081768e-10
-5.945094e-10
-4.203785e-10
-4.961957e-10
-2.648408e-10
-3.98647e-10
-1.408121e-10
-3.031972e-10
-4.704758e-11
-2.11455e-10
1.827014e-11
-1.253678e-10
5.761991e-11
-4.729672e-11
7.424053e-11
1.989791e-11
7.224024e-11
7.276807e-11
5.672564e-11
1.071981e-10
3.397437e-11
1.183572e-10
1.173959e-11
1.006801e-10
4.766727e-11
4.819372e-12
-4.809112e-11
7.448435e-12
-8.251067e-11
-1.534904e-12
-6.814257e-11
-2.947989e-11
-1.635614e-11
-8.214905e-11
6.387589e-11
-1.639918e-10
1.652049e-10
-2.783362e-10
2.816275e-10
-4.275474e-10
4.082794e-10
-6.131639e-10
5.412434e-10
-8.360204e-10
6.773817e-10
-1.096357e-09
8.141933e-10
-1.39392e-09
9.496947e-10
-1.728041e-09
1.082321e-09
-2.097723e-09
1.210848e-09
-2.501691e-09
1.334321e-09
-2.938459e-09
1.452013e-09
-3.406365e-09
1.56337e-09
-3.903619e-09
1.667987e-09
-4.42833e-09
1.765576e-09
-4.978535e-09
1.855943e-09
-5.55222e-09
1.938972e-09
-6.147342e-09
2.014611e-09
-6.76184e-09
2.082856e-09
-7.393653e-09
2.143744e-09
-8.040726e-09
2.197343e-09
-8.701019e-09
2.243748e-09
-9.372516e-09
2.283071e-09
-1.005323e-08
2.315442e-09
-1.07412e-08
2.340997e-09
-1.143451e-08
2.359885e-09
-1.213127e-08
2.372257e-09
-1.282965e-08
2.378266e-09
-1.352783e-08
2.37807e-09
-1.422405e-08
2.371822e-09
-1.49166e-08
2.359677e-09
-1.56038e-08
2.341788e-09
-1.6284e-08
2.318305e-09
-1.69556e-08
2.289375e-09
-1.761707e-08
2.255143e-09
-1.826687e-08
2.21575e-09
-1.890353e-08
2.171336e-09
-1.952562e-08
2.122038e-09
-2.013175e-08
2.067991e-09
-2.072055e-08
2.00933e-09
-2.129071e-08
1.946187e-09
-2.184096e-08
1.878696e-09
-2.237005e-08
1.80699e-09
-2.28768e-08
1.731205e-09
-2.336004e-08
1.651477e-09
-2.381867e-08
1.567947e-09
-2.425162e-08
1.480757e-09
-2.465786e-08
1.390054e-09
-2.503642e-08
1.295992e-09
-2.538637e-08
1.198728e-09
-2.570682e-08
1.098426e-09
-2.599695e-08
9.95258e-10
-2.625598e-08
8.894023e-10
-2.648319e-08
7.810457e-10
-2.667793e-08
6.703836e-10
-2.683959e-08
5.576203e-10
-2.696763e-08
4.429693e-10
-2.70616e-08
3.266538e-10
-2.712107e-08
2.089068e-10
-2.714574e-08
8.997094e-11
-2.713533e-08
-2.990094e-11
-2.708967e-08
-1.504463e-10
-2.700867e-08
-2.713929e-10
-2.68923e-08
-3.924588e-10
-2.674064e-08
-5.133532e-10
-2.655383e-08
-6.337763e-10
-2.633213e-08
-7.534202e-10
-2.607586e-08
-8.719693e-10
-2.578546e-08
-9.891012e-10
-2.546145e-08
-1.104487e-09
-2.510445e-08
-1.217794e-09
-2.471517e-08
-1.328683e-09
-2.429443e-08
-1.436813e-09
-2.384315e-08
-1.541841e-09
-2.336232e-08
-1.643422e-09
-2.285306e-08
-1.741213e-09
-2.231658e-08
-1.834871e-09
-2.175418e-08
-1.924059e-09
-2.116725e-08
-2.00844e-09
-2.055729e-08
-2.087687e-09
-1.992588e-08
-2.16148e-09
-1.927469e-08
-2.229506e-09
-1.860547e-08
-2.291465e-09
-1.792006e-08
-2.347069e-09
-1.722037e-08
-2.396042e-09
-1.650838e-08
-2.438126e-09
-1.578616e-08
-2.473079e-09
-1.505581e-08
-2.500677e-09
-1.43195e-08
-2.520718e-09
-1.357946e-08
-2.533019e-09
-1.283795e-08
-2.537423e-09
-1.209727e-08
-2.533797e-09
-1.135974e-08
-2.522034e-09
-1.062772e-08
-2.502055e-09
-9.903562e-09
-2.473811e-09
-9.18962e-09
-2.437283e-09
-8.488249e-09
-2.392485e-09
-7.80178e-09
-2.339467e-09
-7.132518e-09
-2.278314e-09
-6.482724e-09
-2.20915e-09
-5.854608e-09
-2.132142e-09
-5.25031e-09
-2.047498e-09
-4.671894e-09
-1.955479e-09
-4.121322e-09
-1.856394e-09
-3.600447e-09
-1.750612e-09
-3.110986e-09
-1.638567e-09
-2.654505e-09
-1.520765e-09
-2.232393e-09
-1.397797e-09
-1.845834e-09
-1.270348e-09
-1.495781e-09
-1.139218e-09
-1.182917e-09
-1.00534e-09
-9.0762e-10
-8.698063e-10
-6.699159e-10
-7.338998e-10
-4.694278e-10
-5.991352e-10
-3.05318e-10
-4.673071e-10
-1.762237e-10
-3.405496e-10
-8.018436e-11
-2.214072e-10
-1.456314e-11
-1.129177e-10
2.404014e-11
-1.870498e-11
3.988807e-11
5.692025e-11
3.822861e-11
1.088573e-10
2.546667e-11
1.311192e-10
9.443323e-12
1.167037e-10
5.711067e-11
4.505757e-13
-4.85415e-11
-8.34557e-12
-7.371451e-11
-3.478348e-11
-4.170481e-11
-8.561551e-11
3.447589e-11
-1.662268e-10
1.444875e-10
-2.808229e-10
2.798007e-10
-4.325755e-10
4.333798e-10
-6.237509e-10
5.994543e-10
-8.558222e-10
7.733144e-10
-1.129574e-09
9.511331e-10
-1.445197e-09
1.129816e-09
-1.802376e-09
1.306874e-09
-2.200372e-09
1.480317e-09
-2.638087e-09
1.648563e-09
-3.114133e-09
1.810367e-09
-3.626881e-09
1.964761e-09
-4.174511e-09
2.110999e-09
-4.75505e-09
2.248526e-09
-5.366411e-09
2.376936e-09
-6.006416e-09
2.495947e-09
-6.672826e-09
2.605382e-09
-7.36336e-09
2.705145e-09
-8.075711e-09
2.795207e-09
-8.807564e-09
2.875597e-09
-9.556604e-09
2.946384e-09
-1.032053e-08
3.007674e-09
-1.109706e-08
3.059602e-09
-1.188394e-08
3.102321e-09
-1.267895e-08
3.136003e-09
-1.347989e-08
3.16083e-09
-1.428463e-08
3.176992e-09
-1.509105e-08
3.184686e-09
-1.589709e-08
3.184111e-09
-1.670073e-08
3.175466e-09
-1.750001e-08
3.158951e-09
-1.829298e-08
3.134765e-09
-1.907778e-08
3.103102e-09
-1.985256e-08
3.064157e-09
-2.061554e-08
3.018121e-09
-2.136497e-08
2.965179e-09
-2.209915e-08
2.905519e-09
-2.281644e-08
2.839322e-09
-2.351521e-08
2.766769e-09
-2.419392e-08
2.68804e-09
-2.485105e-08
2.603313e-09
-2.548512e-08
2.512769e-09
-2.609472e-08
2.416588e-09
-2.667847e-08
2.314951e-09
-2.723504e-08
2.208045e-09
-2.776315e-08
2.096059e-09
-2.826158e-08
1.979185e-09
-2.872915e-08
1.857624e-09
-2.916474e-08
1.731583e-09
-2.956728e-08
1.601275e-09
-2.993578e-08
1.466921e-09
-3.026928e-08
1.328755e-09
-3.056689e-08
1.187016e-09
-3.08278e-08
1.041957e-09
-3.105126e-08
8.938408e-10
-3.123658e-08
7.429425e-10
-3.138316e-08
5.895492e-10
-3.149047e-08
4.339604e-10
-3.155805e-08
2.764886e-10
-3.158554e-08
1.174591e-10
-3.157265e-08
-4.278981e-11
-3.151919e-08
-2.039071e-10
-3.142505e-08
-3.655289e-10
-3.129023e-08
-5.272792e-10
-3.111481e-08
-6.887699e-10
-3.089899e-08
-8.496019e-10
-3.064304e-08
-1.009365e-09
-3.034737e-08
-1.16764e-09
-3.001248e-08
-1.323997e-09
-2.963896e-08
-1.478001e-09
-2.922755e-08
-1.629207e-09
-2.877907e-08
-1.777169e-09
-2.829445e-08
-1.921433e-09
-2.777474e-08
-2.061544e-09
-2.722112e-08
-2.197046e-09
-2.663485e-08
-2.327484e-09
-2.601731e-08
-2.452406e-09
-2.537001e-08
-2.571363e-09
-2.469454e-08
-2.683913e-09
-2.39926e-08
-2.789624e-09
-2.326601e-08
-2.888071e-09
-2.251667e-08
-2.978844e-09
-2.174659e-08
-3.061546e-09
-2.095786e-08
-3.135797e-09
-2.015267e-08
-3.201235e-09
-1.933328e-08
-3.257521e-09
-1.850202e-08
-3.304336e-09
-1.766131e-08
-3.341388e-09
-1.681362e-08
-3.36841e-09
-1.596147e-08
-3.385167e-09
-1.510744e-08
-3.391453e-09
-1.425414e-08
-3.387096e-09
-1.340421e-08
-3.371958e-09
-1.256033e-08
-3.345942e-09
-1.172515e-08
-3.308987e-09
-1.090136e-08
-3.261074e-09
-1.009162e-08
-3.20223e-09
-9.298557e-09
-3.132526e-09
-8.524786e-09
-3.052085e-09
-7.772856e-09
-2.96108e-09
-7.045258e-09
-2.85974e-09
-6.344402e-09
-2.748354e-09
-5.672604e-09
-2.627276e-09
-5.032068e-09
-2.49693e-09
-4.424865e-09
-2.357815e-09
-3.852913e-09
-2.210519e-09
-3.317954e-09
-2.055724e-09
-2.821529e-09
-1.894221e-09
-2.36495e-09
-1.726927e-09
-1.949266e-09
-1.554902e-09
-1.575231e-09
-1.379375e-09
-1.243263e-09
-1.201774e-09
-9.533996e-10
-1.023763e-09
-7.0525e-10
-8.472849e-10
-4.979416e-10
-6.746156e-10
-3.300607e-10
-5.084305e-10
-1.995896e-10
-3.518784e-10
-1.038373e-10
-2.0867e-10
-3.936463e-11
-8.317737e-11
-1.89778e-12
1.945379e-11
1.377922e-11
9.318024e-11
1.397117e-11
1.309274e-10
6.285702e-12
1.243892e-10
6.33965e-11
-4.372915e-12
-4.416894e-11
-2.588714e-11
-5.220035e-11
-7.172894e-11
4.13702e-12
-1.478467e-10
1.105935e-10
-2.590655e-10
2.557061e-10
-4.091913e-10
4.299262e-10
-6.011087e-10
6.252967e-10
-8.368738e-10
8.35219e-10
-1.117803e-09
1.054243e-09
-1.444556e-09
1.277886e-09
-1.81722e-09
1.502479e-09
-2.235379e-09
1.725033e-09
-2.698192e-09
1.94313e-09
-3.204453e-09
2.154824e-09
-3.752651e-09
2.358566e-09
-4.341023e-09
2.553132e-09
-4.967597e-09
2.737574e-09
-5.630239e-09
2.911167e-09
-6.326681e-09
3.073376e-09
-7.054553e-09
3.22382e-09
-7.811415e-09
3.362244e-09
-8.594772e-09
3.488502e-09
-9.402097e-09
3.602532e-09
-1.023085e-08
3.704345e-09
-1.107847e-08
3.794008e-09
-1.194243e-08
3.871635e-09
-1.282021e-08
3.937375e-09
-1.370929e-08
3.991409e-09
-1.460723e-08
4.033938e-09
-1.551158e-08
4.065181e-09
-1.641995e-08
4.085367e-09
-1.733e-08
4.094736e-09
-1.823942e-08
4.093532e-09
-1.914596e-08
4.082002e-09
-2.00474e-08
4.060394e-09
-2.094159e-08
4.028954e-09
-2.182642e-08
3.98793e-09
-2.269983e-08
3.937563e-09
-2.35598e-08
3.878096e-09
-2.440439e-08
3.809766e-09
-2.523168e-08
3.732809e-09
-2.603982e-08
3.647458e-09
-2.682699e-08
3.553945e-09
-2.759145e-08
3.452501e-09
-2.83315e-08
3.343356e-09
-2.904547e-08
3.226741e-09
-2.973177e-08
3.102891e-09
-3.038886e-08
2.972041e-09
-3.101525e-08
2.834431e-09
-3.16095e-08
2.690307e-09
-3.217023e-08
2.539921e-09
-3.269614e-08
2.38353e-09
-3.318596e-08
2.221404e-09
-3.36385e-08
2.053818e-09
-3.405264e-08
1.881063e-09
-3.442732e-08
1.703436e-09
-3.476156e-08
1.52125e-09
-3.505443e-08
1.334832e-09
-3.530511e-08
1.144521e-09
-3.551284e-08
9.506719e-10
-3.567695e-08
7.536548e-10
-3.579684e-08
5.538557e-10
-3.587203e-08
3.516767e-10
-3.590211e-08
1.47536e-10
-3.588677e-08
-5.813208e-11
-3.58258e-08
-2.64877e-10
-3.571909e-08
-4.722324e-10
-3.556666e-08
-6.797165e-10
-3.536859e-08
-8.868329e-10
-3.512512e-08
-1.093071e-09
-3.483658e-08
-1.297906e-09
-3.450342e-08
-1.500803e-09
-3.41262e-08
-1.701215e-09
-3.370562e-08
-1.898584e-09
-3.324248e-08
-2.092347e-09
-3.273771e-08
-2.281932e-09
-3.219238e-08
-2.466762e-09
-3.160767e-08
-2.646258e-09
-3.098487e-08
-2.819842e-09
-3.032542e-08
-2.986934e-09
-2.963087e-08
-3.146959e-09
-2.890288e-08
-3.299349e-09
-2.814325e-08
-3.443542e-09
-2.735389e-08
-3.578988e-09
-2.653681e-08
-3.705152e-09
-2.569414e-08
-3.821511e-09
-2.482812e-08
-3.927564e-09
-2.394109e-08
-4.02283e-09
-2.303547e-08
-4.106852e-09
-2.211379e-08
-4.1792e-09
-2.117866e-08
-4.239472e-09
-2.023274e-08
-4.287302e-09
-1.92788e-08
-4.322353e-09
-1.831964e-08
-4.344329e-09
-1.735812e-08
-4.352975e-09
-1.639714e-08
-4.348076e-09
-1.543963e-08
-4.329463e-09
-1.448856e-08
-4.297016e-09
-1.354688e-08
-4.250666e-09
-1.261756e-08
-4.190396e-09
-1.170354e-08
-4.116248e-09
-1.080774e-08
-4.028321e-09
-9.933048e-09
-3.92678e-09
-9.082274e-09
-3.811854e-09
-8.258166e-09
-3.683848e-09
-7.463381e-09
-3.543139e-09
-6.700469e-09
-3.390189e-09
-5.971849e-09
-3.225549e-09
-5.279796e-09
-3.049869e-09
-4.62641e-09
-2.863905e-09
-4.0136e-09
-2.668535e-09
-3.443048e-09
-2.464773e-09
-2.91619e-09
-2.253786e-09
-2.434173e-09
-2.036918e-09
-1.997831e-09
-1.815717e-09
-1.607637e-09
-1.591968e-09
-1.263669e-09
-1.367732e-09
-9.655581e-10
-1.145396e-09
-7.124462e-10
-9.277276e-10
-5.029304e-10
-7.179463e-10
-3.350098e-10
-5.19799e-10
-2.060272e-10
-3.376526e-10
-1.126068e-10
-1.765977e-10
-5.058254e-11
-4.257006e-11
-1.491432e-11
5.751216e-11
4.211499e-13
1.155921e-10
2.569497e-12
1.22241e-10
6.596611e-11
-9.449197e-12
-3.471984e-11
-4.449634e-11
-1.715324e-11
-1.110558e-10
7.069646e-11
-2.141524e-10
2.136897e-10
-3.579252e-10
3.994787e-10
-5.456643e-10
6.17665e-10
-7.798613e-10
8.594935e-10
-1.06227e-09
1.117628e-09
-1.393971e-09
1.385944e-09
-1.775434e-09
1.659349e-09
-2.206585e-09
1.93363e-09
-2.68687e-09
2.205319e-09
-3.215316e-09
2.471576e-09
-3.790588e-09
2.730096e-09
-4.411043e-09
2.97902e-09
-5.074779e-09
3.216868e-09
-5.779679e-09
3.442474e-09
-6.523451e-09
3.654939e-09
-7.30366e-09
3.853586e-09
-8.117764e-09
4.037923e-09
-8.963135e-09
4.207614e-09
-9.837084e-09
4.362451e-09
-1.073688e-08
4.502333e-09
-1.165979e-08
4.627246e-09
-1.260302e-08
4.737248e-09
-1.356385e-08
4.832457e-09
-1.453951e-08
4.913036e-09
-1.552729e-08
4.979188e-09
-1.652449e-08
5.031144e-09
-1.752847e-08
5.069156e-09
-1.85366e-08
5.093496e-09
-1.954631e-08
5.104446e-09
-2.055507e-08
5.102296e-09
-2.156041e-08
5.087342e-09
-2.25599e-08
5.059883e-09
-2.355117e-08
5.020219e-09
-2.453188e-08
4.968647e-09
-2.549978e-08
4.905465e-09
-2.645265e-08
4.830967e-09
-2.738834e-08
4.745447e-09
-2.830472e-08
4.649196e-09
-2.919976e-08
4.542501e-09
-3.007147e-08
4.425651e-09
-3.09179e-08
4.298932e-09
-3.173718e-08
4.162632e-09
-3.252748e-08
4.017041e-09
-3.328704e-08
3.86245e-09
-3.401415e-08
3.699156e-09
-3.470718e-08
3.527459e-09
-3.536454e-08