/*--------------------------------*- C++ -*----------------------------------*\
| =========                 |                                                 |
| \\      /  F ield         | OpenFOAM: The Open Source CFD Toolbox           |
|  \\    /   O peration     | Version:  2406                                  |
|   \\  /    A nd           | Website:  www.openfoam.com                      |
|    \\/     M anipulation  |                                                 |
\*---------------------------------------------------------------------------*/
FoamFile
{
    version     2.0;
    format      ascii;
    arch        "LSB;label=32;scalar=64";
    class       volVectorField;
    location    "6609";
    object      U;
}
// * * * * * * * * * * * * * * * * * * * * * * * * * * * * * * * * * * * * * //

dimensions      [0 1 -1 0 0 0 0];

internalField   nonuniform List<vector> 
16384
(
(2.593243e-10 -2.674249e-10 0)
(2.399056e-09 -7.148036e-10 0)
(5.813537e-09 -9.159084e-10 0)
(9.511342e-09 -9.115285e-10 0)
(1.266706e-08 -7.90878e-10 0)
(1.479524e-08 -6.03512e-10 0)
(1.559559e-08 -3.820257e-10 0)
(1.488949e-08 -1.462722e-10 0)
(1.258284e-08 9.218517e-11 0)
(8.639122e-09 3.265626e-10 0)
(3.061237e-09 5.528695e-10 0)
(-4.120637e-09 7.688133e-10 0)
(-1.285727e-08 9.73128e-10 0)
(-2.308619e-08 1.165158e-09 0)
(-3.473577e-08 1.344601e-09 0)
(-4.772825e-08 1.511381e-09 0)
(-6.198187e-08 1.665601e-09 0)
(-7.741253e-08 1.807481e-09 0)
(-9.393492e-08 1.937316e-09 0)
(-1.114635e-07 2.055463e-09 0)
(-1.29913e-07 2.162303e-09 0)
(-1.491994e-07 2.258214e-09 0)
(-1.692397e-07 2.343572e-09 0)
(-1.899529e-07 2.418774e-09 0)
(-2.112594e-07 2.484225e-09 0)
(-2.330818e-07 2.540307e-09 0)
(-2.553449e-07 2.587367e-09 0)
(-2.779754e-07 2.625747e-09 0)
(-3.009023e-07 2.655797e-09 0)
(-3.240564e-07 2.677858e-09 0)
(-3.47371e-07 2.69224e-09 0)
(-3.707812e-07 2.699226e-09 0)
(-3.942242e-07 2.699097e-09 0)
(-4.17639e-07 2.692117e-09 0)
(-4.409665e-07 2.678524e-09 0)
(-4.641493e-07 2.658529e-09 0)
(-4.871319e-07 2.632338e-09 0)
(-5.098603e-07 2.600159e-09 0)
(-5.322822e-07 2.562186e-09 0)
(-5.543464e-07 2.518586e-09 0)
(-5.760036e-07 2.469509e-09 0)
(-5.972055e-07 2.415105e-09 0)
(-6.179054e-07 2.355528e-09 0)
(-6.380578e-07 2.290913e-09 0)
(-6.576183e-07 2.221382e-09 0)
(-6.765439e-07 2.147053e-09 0)
(-6.947927e-07 2.068052e-09 0)
(-7.123242e-07 1.984506e-09 0)
(-7.290988e-07 1.896536e-09 0)
(-7.450785e-07 1.804254e-09 0)
(-7.602262e-07 1.707784e-09 0)
(-7.745064e-07 1.607261e-09 0)
(-7.878846e-07 1.502826e-09 0)
(-8.003279e-07 1.394617e-09 0)
(-8.118048e-07 1.282778e-09 0)
(-8.222854e-07 1.167467e-09 0)
(-8.317412e-07 1.048855e-09 0)
(-8.401455e-07 9.27123e-10 0)
(-8.474732e-07 8.02461e-10 0)
(-8.537014e-07 6.750703e-10 0)
(-8.588088e-07 5.451685e-10 0)
(-8.627765e-07 4.129881e-10 0)
(-8.655874e-07 2.787762e-10 0)
(-8.67227e-07 1.427953e-10 0)
(-8.676831e-07 5.32429e-12 0)
(-8.669459e-07 -1.333433e-10 0)
(-8.650085e-07 -2.729004e-10 0)
(-8.618664e-07 -4.130265e-10 0)
(-8.575183e-07 -5.533855e-10 0)
(-8.519656e-07 -6.936245e-10 0)
(-8.45213e-07 -8.333739e-10 0)
(-8.372681e-07 -9.722522e-10 0)
(-8.28142e-07 -1.109868e-09 0)
(-8.178489e-07 -1.245819e-09 0)
(-8.064067e-07 -1.379693e-09 0)
(-7.938364e-07 -1.511068e-09 0)
(-7.801629e-07 -1.639514e-09 0)
(-7.654145e-07 -1.764593e-09 0)
(-7.49623e-07 -1.885863e-09 0)
(-7.32824e-07 -2.002877e-09 0)
(-7.150566e-07 -2.115191e-09 0)
(-6.963634e-07 -2.22236e-09 0)
(-6.76791e-07 -2.323947e-09 0)
(-6.56389e-07 -2.419515e-09 0)
(-6.352109e-07 -2.508636e-09 0)
(-6.133133e-07 -2.59089e-09 0)
(-5.907563e-07 -2.665864e-09 0)
(-5.676031e-07 -2.733158e-09 0)
(-5.4392e-07 -2.792388e-09 0)
(-5.197761e-07 -2.843187e-09 0)
(-4.952436e-07 -2.885211e-09 0)
(-4.703969e-07 -2.918139e-09 0)
(-4.45313e-07 -2.941667e-09 0)
(-4.200712e-07 -2.955517e-09 0)
(-3.947526e-07 -2.959435e-09 0)
(-3.694401e-07 -2.953192e-09 0)
(-3.442181e-07 -2.936593e-09 0)
(-3.191722e-07 -2.909467e-09 0)
(-2.94389e-07 -2.87168e-09 0)
(-2.699558e-07 -2.823126e-09 0)
(-2.459602e-07 -2.763732e-09 0)
(-2.2249e-07 -2.693455e-09 0)
(-1.996327e-07 -2.612287e-09 0)
(-1.774749e-07 -2.520253e-09 0)
(-1.561027e-07 -2.417415e-09 0)
(-1.356007e-07 -2.303868e-09 0)
(-1.160517e-07 -2.17974e-09 0)
(-9.753635e-08 -2.045201e-09 0)
(-8.013275e-08 -1.900462e-09 0)
(-6.391576e-08 -1.745783e-09 0)
(-4.895649e-08 -1.581475e-09 0)
(-3.532156e-08 -1.407909e-09 0)
(-2.307227e-08 -1.225537e-09 0)
(-1.226357e-08 -1.034915e-09 0)
(-2.942772e-09 -8.367431e-10 0)
(4.852077e-09 -6.319186e-10 0)
(1.109435e-08 -4.216276e-10 0)
(1.57717e-08 -2.074849e-10 0)
(1.888997e-08 8.227988e-12 0)
(2.047862e-08 2.22166e-10 0)
(2.059842e-08 4.292643e-10 0)
(1.935259e-08 6.216461e-10 0)
(1.690301e-08 7.867673e-10 0)
(1.349334e-08 9.044974e-10 0)
(9.479306e-09 9.439006e-10 0)
(5.378129e-09 8.604175e-10 0)
(1.977811e-09 5.819732e-10 0)
(1.235502e-10 1.239746e-10 0)
(7.116454e-10 -2.410375e-09 0)
(5.553727e-09 -5.5565e-09 0)
(1.228241e-08 -6.772134e-09 0)
(1.90372e-08 -6.357968e-09 0)
(2.416753e-08 -4.798163e-09 0)
(2.659443e-08 -2.483143e-09 0)
(2.558428e-08 3.045703e-10 0)
(2.065818e-08 3.366861e-09 0)
(1.153107e-08 6.566021e-09 0)
(-1.938257e-09 9.80618e-09 0)
(-1.978506e-08 1.302026e-08 0)
(-4.196664e-08 1.616114e-08 0)
(-6.838291e-08 1.919567e-08 0)
(-9.889183e-08 2.210061e-08 0)
(-1.333207e-07 2.485984e-08 0)
(-1.714748e-07 2.746242e-08 0)
(-2.131441e-07 2.990135e-08 0)
(-2.581081e-07 3.217254e-08 0)
(-3.061398e-07 3.427415e-08 0)
(-3.570087e-07 3.620598e-08 0)
(-4.104829e-07 3.796913e-08 0)
(-4.663312e-07 3.956563e-08 0)
(-5.243243e-07 4.099821e-08 0)
(-5.842358e-07 4.227016e-08 0)
(-6.458435e-07 4.338513e-08 0)
(-7.089292e-07 4.434702e-08 0)
(-7.732797e-07 4.515989e-08 0)
(-8.386869e-07 4.582788e-08 0)
(-9.04948e-07 4.635516e-08 0)
(-9.718656e-07 4.674589e-08 0)
(-1.039248e-06 4.700416e-08 0)
(-1.106907e-06 4.713396e-08 0)
(-1.174663e-06 4.713918e-08 0)
(-1.24234e-06 4.702359e-08 0)
(-1.309765e-06 4.679078e-08 0)
(-1.376772e-06 4.644422e-08 0)
(-1.443201e-06 4.598723e-08 0)
(-1.508894e-06 4.542302e-08 0)
(-1.573698e-06 4.475466e-08 0)
(-1.637464e-06 4.398508e-08 0)
(-1.70005e-06 4.311708e-08 0)
(-1.761314e-06 4.215338e-08 0)
(-1.821121e-06 4.109662e-08 0)
(-1.879336e-06 3.994937e-08 0)
(-1.935832e-06 3.871413e-08 0)
(-1.990484e-06 3.739335e-08 0)
(-2.043169e-06 3.598951e-08 0)
(-2.093769e-06 3.450505e-08 0)
(-2.142172e-06 3.294245e-08 0)
(-2.188264e-06 3.130422e-08 0)
(-2.231941e-06 2.959295e-08 0)
(-2.273099e-06 2.781128e-08 0)
(-2.311639e-06 2.596198e-08 0)
(-2.347466e-06 2.40479e-08 0)
(-2.380491e-06 2.207203e-08 0)
(-2.410626e-06 2.003752e-08 0)
(-2.437791e-06 1.794766e-08 0)
(-2.461911e-06 1.580595e-08 0)
(-2.482913e-06 1.361604e-08 0)
(-2.500733e-06 1.138178e-08 0)
(-2.515311e-06 9.107263e-09 0)
(-2.526593e-06 6.796753e-09 0)
(-2.534533e-06 4.454759e-09 0)
(-2.53909e-06 2.086016e-09 0)
(-2.540231e-06 -3.045129e-10 0)
(-2.537929e-06 -2.71164e-09 0)
(-2.532166e-06 -5.129956e-09 0)
(-2.522932e-06 -7.553829e-09 0)
(-2.510224e-06 -9.977409e-09 0)
(-2.494049e-06 -1.239463e-08 0)
(-2.474421e-06 -1.479925e-08 0)
(-2.451364e-06 -1.71848e-08 0)
(-2.424913e-06 -1.954468e-08 0)
(-2.39511e-06 -2.187211e-08 0)
(-2.362007e-06 -2.416019e-08 0)
(-2.325667e-06 -2.64019e-08 0)
(-2.286163e-06 -2.859012e-08 0)
(-2.243578e-06 -3.071768e-08 0)
(-2.198004e-06 -3.277732e-08 0)
(-2.149543e-06 -3.47618e-08 0)
(-2.098311e-06 -3.666389e-08 0)
(-2.044429e-06 -3.847639e-08 0)
(-1.988032e-06 -4.019219e-08 0)
(-1.929264e-06 -4.180426e-08 0)
(-1.868276e-06 -4.330575e-08 0)
(-1.805233e-06 -4.468993e-08 0)
(-1.740305e-06 -4.595031e-08 0)
(-1.673675e-06 -4.708061e-08 0)
(-1.605532e-06 -4.807483e-08 0)
(-1.536073e-06 -4.892728e-08 0)
(-1.465503e-06 -4.96326e-08 0)
(-1.394036e-06 -5.018581e-08 0)
(-1.32189e-06 -5.058233e-08 0)
(-1.249291e-06 -5.081798e-08 0)
(-1.17647e-06 -5.088907e-08 0)
(-1.103661e-06 -5.079238e-08 0)
(-1.031104e-06 -5.05252e-08 0)
(-9.590415e-07 -5.008536e-08 0)
(-8.877188e-07 -4.947127e-08 0)
(-8.173823e-07 -4.868192e-08 0)
(-7.482792e-07 -4.771691e-08 0)
(-6.806567e-07 -4.65765e-08 0)
(-6.147605e-07 -4.526159e-08 0)
(-5.508343e-07 -4.377381e-08 0)
(-4.891184e-07 -4.211554e-08 0)
(-4.298488e-07 -4.028993e-08 0)
(-3.732555e-07 -3.830101e-08 0)
(-3.195617e-07 -3.615373e-08 0)
(-2.689821e-07 -3.385406e-08 0)
(-2.217209e-07 -3.140915e-08 0)
(-1.779703e-07 -2.882751e-08 0)
(-1.379084e-07 -2.611923e-08 0)
(-1.016959e-07 -2.32963e-08 0)
(-6.947387e-08 -2.037311e-08 0)
(-4.135903e-08 -1.7367e-08 0)
(-1.743945e-08 -1.429918e-08 0)
(2.231796e-09 -1.119592e-08 0)
(1.764452e-08 -8.090244e-09 0)
(2.884168e-08 -5.024443e-09 0)
(3.593299e-08 -2.053631e-09 0)
(3.911288e-08 7.490272e-10 0)
(3.868438e-08 3.284811e-09 0)
(3.509065e-08 5.418945e-09 0)
(2.895444e-08 6.967204e-09 0)
(2.112145e-08 7.682126e-09 0)
(1.272095e-08 7.24834e-09 0)
(5.332099e-09 5.33598e-09 0)
(5.797231e-10 1.977037e-09 0)
(9.175272e-10 -5.822277e-09 0)
(6.789305e-09 -1.228758e-08 0)
(1.422245e-08 -1.419175e-08 0)
(2.089886e-08 -1.247583e-08 0)
(2.475455e-08 -8.111437e-09 0)
(2.438267e-08 -1.90287e-09 0)
(1.877438e-08 5.530137e-09 0)
(7.2347e-09 1.372431e-08 0)
(-1.067707e-08 2.233801e-08 0)
(-3.520195e-08 3.112055e-08 0)
(-6.642656e-08 3.988813e-08 0)
(-1.043189e-07 4.850598e-08 0)
(-1.487564e-07 5.687542e-08 0)
(-1.995475e-07 6.492453e-08 0)
(-2.564491e-07 7.260138e-08 0)
(-3.191791e-07 7.986913e-08 0)
(-3.874272e-07 8.670246e-08 0)
(-4.608632e-07 9.308489e-08 0)
(-5.391429e-07 9.900675e-08 0)
(-6.219135e-07 1.044636e-07 0)
(-7.088175e-07 1.094552e-07 0)
(-7.99496e-07 1.139842e-07 0)
(-8.935907e-07 1.18056e-07 0)
(-9.907466e-07 1.216776e-07 0)
(-1.090613e-06 1.248573e-07 0)
(-1.192844e-06 1.276045e-07 0)
(-1.297102e-06 1.299295e-07 0)
(-1.403054e-06 1.318425e-07 0)
(-1.510377e-06 1.333546e-07 0)
(-1.618754e-06 1.344764e-07 0)
(-1.727876e-06 1.35219e-07 0)
(-1.837442e-06 1.355929e-07 0)
(-1.947161e-06 1.356088e-07 0)
(-2.056746e-06 1.352769e-07 0)
(-2.165922e-06 1.346072e-07 0)
(-2.274418e-06 1.336093e-07 0)
(-2.381972e-06 1.322925e-07 0)
(-2.48833e-06 1.306658e-07 0)
(-2.593243e-06 1.287379e-07 0)
(-2.69647e-06 1.265172e-07 0)
(-2.797777e-06 1.240118e-07 0)
(-2.896936e-06 1.212295e-07 0)
(-2.993724e-06 1.18178e-07 0)
(-3.087926e-06 1.148647e-07 0)
(-3.179332e-06 1.112972e-07 0)
(-3.26774e-06 1.074825e-07 0)
(-3.352951e-06 1.03428e-07 0)
(-3.434773e-06 9.914104e-08 0)
(-3.513023e-06 9.462887e-08 0)
(-3.58752e-06 8.989903e-08 0)
(-3.658092e-06 8.495919e-08 0)
(-3.724572e-06 7.981723e-08 0)
(-3.786801e-06 7.448132e-08 0)
(-3.844626e-06 6.895996e-08 0)
(-3.897901e-06 6.326202e-08 0)
(-3.94649e-06 5.739678e-08 0)
(-3.990262e-06 5.137396e-08 0)
(-4.029094e-06 4.52038e-08 0)
(-4.062875e-06 3.889704e-08 0)
(-4.091499e-06 3.246498e-08 0)
(-4.114873e-06 2.591948e-08 0)
(-4.132912e-06 1.927302e-08 0)
(-4.145541e-06 1.253867e-08 0)
(-4.152698e-06 5.730168e-09 0)
(-4.154331e-06 -1.138164e-09 0)
(-4.1504e-06 -8.051365e-09 0)
(-4.140876e-06 -1.499385e-08 0)
(-4.125747e-06 -2.194944e-08 0)
(-4.105009e-06 -2.890134e-08 0)
(-4.078676e-06 -3.58322e-08 0)
(-4.046774e-06 -4.272411e-08 0)
(-4.009344e-06 -4.955867e-08 0)
(-3.966442e-06 -5.631703e-08 0)
(-3.918139e-06 -6.29799e-08 0)
(-3.864522e-06 -6.952764e-08 0)
(-3.805694e-06 -7.594031e-08 0)
(-3.741773e-06 -8.219772e-08 0)
(-3.672893e-06 -8.827949e-08 0)
(-3.599207e-06 -9.416514e-08 0)
(-3.52088e-06 -9.983418e-08 0)
(-3.438097e-06 -1.052662e-07 0)
(-3.351056e-06 -1.104408e-07 0)
(-3.259974e-06 -1.15338e-07 0)
(-3.165082e-06 -1.19938e-07 0)
(-3.066627e-06 -1.242214e-07 0)
(-2.964869e-06 -1.281695e-07 0)
(-2.860087e-06 -1.317639e-07 0)
(-2.75257e-06 -1.349871e-07 0)
(-2.642622e-06 -1.378223e-07 0)
(-2.53056e-06 -1.402535e-07 0)
(-2.416714e-06 -1.422659e-07 0)
(-2.301422e-06 -1.438455e-07 0)
(-2.185036e-06 -1.449797e-07 0)
(-2.067915e-06 -1.45657e-07 0)
(-1.950427e-06 -1.458672e-07 0)
(-1.832949e-06 -1.456015e-07 0)
(-1.715861e-06 -1.448526e-07 0)
(-1.599549e-06 -1.436149e-07 0)
(-1.484404e-06 -1.418844e-07 0)
(-1.370816e-06 -1.396585e-07 0)
(-1.259179e-06 -1.369369e-07 0)
(-1.149885e-06 -1.337209e-07 0)
(-1.043322e-06 -1.300138e-07 0)
(-9.398745e-07 -1.258211e-07 0)
(-8.399227e-07 -1.211505e-07 0)
(-7.438371e-07 -1.160122e-07 0)
(-6.519786e-07 -1.104186e-07 0)
(-5.64696e-07 -1.043855e-07 0)
(-4.823231e-07 -9.793131e-08 0)
(-4.05176e-07 -9.107837e-08 0)
(-3.335501e-07 -8.385296e-08 0)
(-2.677163e-07 -7.628619e-08 0)
(-2.079164e-07 -6.841492e-08 0)
(-1.543585e-07 -6.028299e-08 0)
(-1.072103e-07 -5.194294e-08 0)
(-6.659194e-08 -4.345827e-08 0)
(-3.256626e-08 -3.49065e-08 0)
(-5.12734e-09 -2.63834e-08 0)
(1.581423e-08 -1.800872e-08 0)
(3.044986e-08 -9.934025e-09 0)
(3.909609e-08 -2.353294e-09 0)
(4.22235e-08 4.483019e-09 0)
(4.049197e-08 1.025031e-08 0)
(3.479087e-08 1.45302e-08 0)
(2.627637e-08 1.679493e-08 0)
(1.642372e-08 1.641226e-08 0)
(7.247265e-09 1.272267e-08 0)
(8.569984e-10 5.372379e-09 0)
(9.176145e-10 -9.535279e-09 0)
(6.409033e-09 -1.907109e-08 0)
(1.257648e-08 -2.088229e-08 0)
(1.68635e-08 -1.674035e-08 0)
(1.701316e-08 -8.171014e-09 0)
(1.14488e-08 3.57006e-09 0)
(-9.927695e-10 1.74872e-08 0)
(-2.11392e-08 3.280922e-08 0)
(-4.953605e-08 4.894649e-08 0)
(-8.649866e-08 6.545136e-08 0)
(-1.321575e-07 8.198514e-08 0)
(-1.864959e-07 9.829235e-08 0)
(-2.49381e-07 1.141809e-07 0)
(-3.205893e-07 1.295072e-07 0)
(-3.998265e-07 1.441648e-07 0)
(-4.867442e-07 1.58076e-07 0)
(-5.809532e-07 1.711856e-07 0)
(-6.820342e-07 1.834555e-07 0)
(-7.89546e-07 1.948615e-07 0)
(-9.030327e-07 2.0539e-07 0)
(-1.022029e-06 2.150358e-07 0)
(-1.146066e-06 2.238004e-07 0)
(-1.274671e-06 2.316902e-07 0)
(-1.407376e-06 2.387158e-07 0)
(-1.543714e-06 2.448907e-07 0)
(-1.683227e-06 2.502307e-07 0)
(-1.825461e-06 2.547532e-07 0)
(-1.969971e-06 2.584768e-07 0)
(-2.116323e-06 2.614209e-07 0)
(-2.264089e-06 2.636052e-07 0)
(-2.412852e-06 2.650497e-07 0)
(-2.562207e-06 2.657742e-07 0)
(-2.711755e-06 2.657983e-07 0)
(-2.861112e-06 2.651414e-07 0)
(-3.009898e-06 2.638222e-07 0)
(-3.157749e-06 2.618592e-07 0)
(-3.304307e-06 2.592702e-07 0)
(-3.449224e-06 2.560725e-07 0)
(-3.592161e-06 2.522828e-07 0)
(-3.73279e-06 2.479175e-07 0)
(-3.87079e-06 2.429924e-07 0)
(-4.005849e-06 2.37523e-07 0)
(-4.137664e-06 2.315242e-07 0)
(-4.26594e-06 2.25011e-07 0)
(-4.390392e-06 2.179979e-07 0)
(-4.510742e-06 2.104994e-07 0)
(-4.62672e-06 2.025301e-07 0)
(-4.738064e-06 1.941045e-07 0)
(-4.844524e-06 1.852373e-07 0)
(-4.945853e-06 1.759437e-07 0)
(-5.041819e-06 1.662388e-07 0)
(-5.132193e-06 1.561387e-07 0)
(-5.216761e-06 1.456595e-07 0)
(-5.295315e-06 1.348184e-07 0)
(-5.367658e-06 1.236331e-07 0)
(-5.433603e-06 1.12122e-07 0)
(-5.492976e-06 1.003046e-07 0)
(-5.545613e-06 8.82012e-08 0)
(-5.59136e-06 7.583314e-08 0)
(-5.63008e-06 6.32228e-08 0)
(-5.661646e-06 5.039368e-08 0)
(-5.685944e-06 3.737041e-08 0)
(-5.702878e-06 2.41788e-08 0)
(-5.712362e-06 1.084583e-08 0)
(-5.71433e-06 -2.600319e-09 0)
(-5.70873e-06 -1.61303e-08 0)
(-5.695527e-06 -2.971356e-08 0)
(-5.674705e-06 -4.331842e-08 0)
(-5.646263e-06 -5.691207e-08 0)
(-5.610221e-06 -7.046062e-08 0)
(-5.566618e-06 -8.392918e-08 0)
(-5.515512e-06 -9.728189e-08 0)
(-5.456982e-06 -1.104821e-07 0)
(-5.391126e-06 -1.234922e-07 0)
(-5.318065e-06 -1.362742e-07 0)
(-5.237939e-06 -1.487893e-07 0)
(-5.150911e-06 -1.609984e-07 0)
(-5.057167e-06 -1.728619e-07 0)
(-4.956911e-06 -1.843404e-07 0)
(-4.850371e-06 -1.953941e-07 0)
(-4.737798e-06 -2.059835e-07 0)
(-4.619462e-06 -2.160695e-07 0)
(-4.495656e-06 -2.256132e-07 0)
(-4.366694e-06 -2.345766e-07 0)
(-4.232909e-06 -2.429224e-07 0)
(-4.094656e-06 -2.506142e-07 0)
(-3.952308e-06 -2.576171e-07 0)
(-3.806259e-06 -2.638972e-07 0)
(-3.656917e-06 -2.694222e-07 0)
(-3.50471e-06 -2.741618e-07 0)
(-3.350082e-06 -2.780874e-07 0)
(-3.19349e-06 -2.811724e-07 0)
(-3.035405e-06 -2.833927e-07 0)
(-2.876312e-06 -2.847263e-07 0)
(-2.716706e-06 -2.851542e-07 0)
(-2.557089e-06 -2.846598e-07 0)
(-2.397975e-06 -2.832297e-07 0)
(-2.23988e-06 -2.808535e-07 0)
(-2.083326e-06 -2.775239e-07 0)
(-1.928839e-06 -2.732371e-07 0)
(-1.776942e-06 -2.679931e-07 0)
(-1.628158e-06 -2.617955e-07 0)
(-1.483006e-06 -2.546518e-07 0)
(-1.341999e-06 -2.465737e-07 0)
(-1.205639e-06 -2.375777e-07 0)
(-1.074418e-06 -2.276848e-07 0)
(-9.488141e-07 -2.169214e-07 0)
(-8.292864e-07 -2.053193e-07 0)
(-7.16273e-07 -1.929172e-07 0)
(-6.101871e-07 -1.797604e-07 0)
(-5.114123e-07 -1.659028e-07 0)
(-4.202977e-07 -1.514077e-07 0)
(-3.371519e-07 -1.363498e-07 0)
(-2.622363e-07 -1.208175e-07 0)
(-1.957574e-07 -1.049157e-07 0)
(-1.378565e-07 -8.877035e-08 0)
(-8.859839e-08 -7.253314e-08 0)
(-4.795761e-08 -5.638893e-08 0)
(-1.580097e-08 -4.056476e-08 0)
(8.132741e-09 -2.53419e-08 0)
(2.425738e-08 -1.107125e-08 0)
(3.316847e-08 1.807445e-09 0)
(3.567684e-08 1.2743e-08 0)
(3.28449e-08 2.104954e-08 0)
(2.601843e-08 2.588945e-08 0)
(1.687903e-08 2.627802e-08 0)
(7.705752e-09 2.114009e-08 0)
(9.409765e-10 9.472901e-09 0)
(8.033495e-10 -1.272918e-08 0)
(4.893835e-09 -2.42702e-08 0)
(8.301364e-09 -2.479652e-08 0)
(8.425826e-09 -1.69123e-08 0)
(2.984455e-09 -2.713323e-09 0)
(-9.661111e-09 1.608839e-08 0)
(-3.074016e-08 3.811571e-08 0)
(-6.114415e-08 6.227805e-08 0)
(-1.014747e-07 8.772051e-08 0)
(-1.520903e-07 1.137773e-07 0)
(-2.131484e-07 1.399326e-07 0)
(-2.846416e-07 1.657882e-07 0)
(-3.66429e-07 1.910383e-07 0)
(-4.582622e-07 2.154495e-07 0)
(-5.598074e-07 2.388452e-07 0)
(-6.706638e-07 2.610937e-07 0)
(-7.903781e-07 2.820986e-07 0)
(-9.184576e-07 3.017913e-07 0)
(-1.05438e-06 3.201258e-07 0)
(-1.197602e-06 3.370738e-07 0)
(-1.347566e-06 3.52621e-07 0)
(-1.503705e-06 3.667641e-07 0)
(-1.66545e-06 3.795089e-07 0)
(-1.832229e-06 3.908681e-07 0)
(-2.003476e-06 4.008595e-07 0)
(-2.178626e-06 4.095054e-07 0)
(-2.357124e-06 4.16831e-07 0)
(-2.538422e-06 4.228637e-07 0)
(-2.721983e-06 4.276326e-07 0)
(-2.907278e-06 4.311677e-07 0)
(-3.093791e-06 4.334996e-07 0)
(-3.281017e-06 4.34659e-07 0)
(-3.468462e-06 4.346765e-07 0)
(-3.655645e-06 4.335825e-07 0)
(-3.842094e-06 4.314067e-07 0)
(-4.027352e-06 4.281782e-07 0)
(-4.210972e-06 4.239256e-07 0)
(-4.392519e-06 4.186767e-07 0)
(-4.571569e-06 4.124585e-07 0)
(-4.747709e-06 4.052974e-07 0)
(-4.920538e-06 3.972192e-07 0)
(-5.089665e-06 3.88249e-07 0)
(-5.254709e-06 3.784117e-07 0)
(-5.415302e-06 3.677315e-07 0)
(-5.571084e-06 3.562326e-07 0)
(-5.721707e-06 3.439391e-07 0)
(-5.866834e-06 3.308749e-07 0)
(-6.006137e-06 3.170643e-07 0)
(-6.139301e-06 3.025319e-07 0)
(-6.26602e-06 2.873025e-07 0)
(-6.386001e-06 2.714018e-07 0)
(-6.498961e-06 2.548562e-07 0)
(-6.604631e-06 2.376928e-07 0)
(-6.702753e-06 2.1994e-07 0)
(-6.793082e-06 2.016272e-07 0)
(-6.875386e-06 1.827852e-07 0)
(-6.949448e-06 1.63446e-07 0)
(-7.015064e-06 1.436434e-07 0)
(-7.072048e-06 1.234126e-07 0)
(-7.120226e-06 1.027905e-07 0)
(-7.159444e-06 8.181577e-08 0)
(-7.189563e-06 6.052904e-08 0)
(-7.210464e-06 3.897264e-08 0)
(-7.222045e-06 1.719084e-08 0)
(-7.224225e-06 -4.770206e-09 0)
(-7.216941e-06 -2.686247e-08 0)
(-7.200154e-06 -4.903604e-08 0)
(-7.173846e-06 -7.123921e-08 0)
(-7.13802e-06 -9.341849e-08 0)
(-7.092703e-06 -1.155187e-07 0)
(-7.037947e-06 -1.37483e-07 0)
(-6.973827e-06 -1.592532e-07 0)
(-6.900444e-06 -1.807697e-07 0)
(-6.817924e-06 -2.019717e-07 0)
(-6.726418e-06 -2.227973e-07 0)
(-6.626105e-06 -2.431838e-07 0)
(-6.517189e-06 -2.630679e-07 0)
(-6.399903e-06 -2.823857e-07 0)
(-6.274504e-06 -3.010732e-07 0)
(-6.141278e-06 -3.190663e-07 0)
(-6.000536e-06 -3.363012e-07 0)
(-5.852618e-06 -3.527148e-07 0)
(-5.697887e-06 -3.682446e-07 0)
(-5.536734e-06 -3.828291e-07 0)
(-5.369575e-06 -3.964084e-07 0)
(-5.19685e-06 -4.089242e-07 0)
(-5.019023e-06 -4.203198e-07 0)
(-4.836581e-06 -4.305413e-07 0)
(-4.650033e-06 -4.395368e-07 0)
(-4.459909e-06 -4.472576e-07 0)
(-4.266756e-06 -4.53658e-07 0)
(-4.071142e-06 -4.586957e-07 0)
(-3.87365e-06 -4.62332e-07 0)
(-3.674879e-06 -4.645324e-07 0)
(-3.475438e-06 -4.652665e-07 0)
(-3.27595e-06 -4.645084e-07 0)
(-3.077047e-06 -4.622372e-07 0)
(-2.879366e-06 -4.584368e-07 0)
(-2.683551e-06 -4.530967e-07 0)
(-2.490246e-06 -4.46212e-07 0)
(-2.300096e-06 -4.377835e-07 0)
(-2.113743e-06 -4.278184e-07 0)
(-1.931823e-06 -4.163307e-07 0)
(-1.754964e-06 -4.03341e-07 0)
(-1.58378e-06 -3.888777e-07 0)
(-1.418872e-06 -3.72977e-07 0)
(-1.260821e-06 -3.556839e-07 0)
(-1.110184e-06 -3.370528e-07 0)
(-9.674914e-07 -3.171489e-07 0)
(-8.332412e-07 -2.960489e-07 0)
(-7.078932e-07 -2.738434e-07 0)
(-5.918634e-07 -2.506383e-07 0)
(-4.855167e-07 -2.265581e-07 0)
(-3.891589e-07 -2.01749e-07 0)
(-3.030273e-07 -1.763838e-07 0)
(-2.272796e-07 -1.506673e-07 0)
(-1.619811e-07 -1.248441e-07 0)
(-1.070896e-07 -9.920806e-08 0)
(-6.243749e-08 -7.411461e-08 0)
(-2.771137e-08 -4.999623e-08 0)
(-2.427961e-09 -2.738154e-08 0)
(1.409267e-08 -6.918107e-09 0)
(2.275744e-08 1.060169e-08 0)
(2.473247e-08 2.421409e-08 0)
(2.147249e-08 3.276199e-08 0)
(1.477572e-08 3.488768e-08 0)
(7.049704e-09 2.904642e-08 0)
(9.050219e-10 1.350553e-08 0)
(6.23552e-10 -1.492134e-08 0)
(2.625032e-09 -2.68103e-08 0)
(2.177173e-09 -2.452722e-08 0)
(-3.20442e-09 -1.140709e-08 0)
(-1.569491e-08 9.915659e-09 0)
(-3.690951e-08 3.729023e-08 0)
(-6.807483e-08 6.896895e-08 0)
(-1.1009e-07 1.035457e-07 0)
(-1.635694e-07 1.398976e-07 0)
(-2.288836e-07 1.771328e-07 0)
(-3.061964e-07 2.145468e-07 0)
(-3.954979e-07 2.515857e-07 0)
(-4.966345e-07 2.878164e-07 0)
(-6.093342e-07 3.229025e-07 0)
(-7.332288e-07 3.565849e-07 0)
(-8.678724e-07 3.886667e-07 0)
(-1.012758e-06 4.190008e-07 0)
(-1.167331e-06 4.474799e-07 0)
(-1.330999e-06 4.740294e-07 0)
(-1.503145e-06 4.986002e-07 0)
(-1.683129e-06 5.211644e-07 0)
(-1.870302e-06 5.417107e-07 0)
(-2.064006e-06 5.602413e-07 0)
(-2.26358e-06 5.767691e-07 0)
(-2.468365e-06 5.913152e-07 0)
(-2.677705e-06 6.039074e-07 0)
(-2.890951e-06 6.145785e-07 0)
(-3.107462e-06 6.23365e-07 0)
(-3.326607e-06 6.303062e-07 0)
(-3.547763e-06 6.354433e-07 0)
(-3.770324e-06 6.388185e-07 0)
(-3.993692e-06 6.404747e-07 0)
(-4.217283e-06 6.40455e-07 0)
(-4.440527e-06 6.388022e-07 0)
(-4.662867e-06 6.355587e-07 0)
(-4.883758e-06 6.307662e-07 0)
(-5.10267e-06 6.244658e-07 0)
(-5.319085e-06 6.166975e-07 0)
(-5.532499e-06 6.075007e-07 0)
(-5.742421e-06 5.969138e-07 0)
(-5.948371e-06 5.849746e-07 0)
(-6.149885e-06 5.717201e-07 0)
(-6.34651e-06 5.571867e-07 0)
(-6.537805e-06 5.414104e-07 0)
(-6.723343e-06 5.244271e-07 0)
(-6.902708e-06 5.062725e-07 0)
(-7.0755e-06 4.869824e-07 0)
(-7.241328e-06 4.66593e-07 0)
(-7.399817e-06 4.451409e-07 0)
(-7.550604e-06 4.226635e-07 0)
(-7.69334e-06 3.99199e-07 0)
(-7.827691e-06 3.747869e-07 0)
(-7.953335e-06 3.494679e-07 0)
(-8.069968e-06 3.232843e-07 0)
(-8.177299e-06 2.962799e-07 0)
(-8.275056e-06 2.685007e-07 0)
(-8.362981e-06 2.399946e-07 0)
(-8.440835e-06 2.108116e-07 0)
(-8.508398e-06 1.810041e-07 0)
(-8.565466e-06 1.506269e-07 0)
(-8.611859e-06 1.197374e-07 0)
(-8.647416e-06 8.83956e-08 0)
(-8.671995e-06 5.666411e-08 0)
(-8.685481e-06 2.460829e-08 0)
(-8.68778e-06 -7.7038e-09 0)
(-8.678821e-06 -4.02014e-08 0)
(-8.65856e-06 -7.28111e-08 0)
(-8.626979e-06 -1.054569e-07 0)
(-8.584085e-06 -1.380602e-07 0)
(-8.529913e-06 -1.705401e-07 0)
(-8.464529e-06 -2.028134e-07 0)
(-8.388023e-06 -2.347948e-07 0)
(-8.300518e-06 -2.663971e-07 0)
(-8.202167e-06 -2.975313e-07 0)
(-8.093152e-06 -3.281073e-07 0)
(-7.973686e-06 -3.580333e-07 0)
(-7.844014e-06 -3.87217e-07 0)
(-7.704413e-06 -4.155654e-07 0)
(-7.55519e-06 -4.429851e-07 0)
(-7.396684e-06 -4.693829e-07 0)
(-7.229266e-06 -4.94666e-07 0)
(-7.053337e-06 -5.187424e-07 0)
(-6.869329e-06 -5.415215e-07 0)
(-6.677704e-06 -5.62914e-07 0)
(-6.478955e-06 -5.828329e-07 0)
(-6.273602e-06 -6.011935e-07 0)
(-6.062193e-06 -6.17914e-07 0)
(-5.845302e-06 -6.32916e-07 0)
(-5.62353e-06 -6.461247e-07 0)
(-5.397501e-06 -6.574697e-07 0)
(-5.167861e-06 -6.668849e-07 0)
(-4.935277e-06 -6.743095e-07 0)
(-4.700437e-06 -6.79688e-07 0)
(-4.464042e-06 -6.829708e-07 0)
(-4.226812e-06 -6.841146e-07 0)
(-3.989477e-06 -6.830827e-07 0)
(-3.752778e-06 -6.798457e-07 0)
(-3.517463e-06 -6.743814e-07 0)
(-3.284285e-06 -6.666759e-07 0)
(-3.054e-06 -6.567232e-07 0)
(-2.827363e-06 -6.445265e-07 0)
(-2.605124e-06 -6.300981e-07 0)
(-2.388025e-06 -6.134601e-07 0)
(-2.176797e-06 -5.94645e-07 0)
(-1.972158e-06 -5.736966e-07 0)
(-1.774804e-06 -5.506703e-07 0)
(-1.585409e-06 -5.256348e-07 0)
(-1.404618e-06 -4.986728e-07 0)
(-1.233044e-06 -4.698825e-07 0)
(-1.071259e-06 -4.393797e-07 0)
(-9.197907e-07 -4.073001e-07 0)
(-7.791129e-07 -3.73802e-07 0)
(-6.4964e-07 -3.390702e-07 0)
(-5.317164e-07 -3.033209e-07 0)
(-4.256068e-07 -2.66807e-07 0)
(-3.314844e-07 -2.298263e-07 0)
(-2.494176e-07 -1.927306e-07 0)
(-1.793545e-07 -1.559374e-07 0)
(-1.211056e-07 -1.199452e-07 0)
(-7.432432e-08 -8.535081e-08 0)
(-3.8485e-08 -5.287184e-08 0)
(-1.285865e-08 -2.337174e-08 0)
(3.513582e-09 2.111538e-09 0)
(1.184902e-08 2.233517e-08 0)
(1.36513e-08 3.582216e-08 0)
(1.076358e-08 4.083765e-08 0)
(5.602293e-09 3.536145e-08 0)
(7.945904e-10 1.697322e-08 0)
(4.096086e-10 -1.581058e-08 0)
(-1.259241e-10 -2.594849e-08 0)
(-5.20515e-09 -1.90438e-08 0)
(-1.708592e-08 9.744707e-10 0)
(-3.773501e-08 3.099617e-08 0)
(-6.867589e-08 6.846832e-08 0)
(-1.110766e-07 1.112964e-07 0)
(-1.657976e-07 1.577732e-07 0)
(-2.334285e-07 2.06515e-07 0)
(-3.143226e-07 2.564051e-07 0)
(-4.086286e-07 3.065477e-07 0)
(-5.1632e-07 3.562272e-07 0)
(-6.372222e-07 4.048753e-07 0)
(-7.710359e-07 4.520441e-07 0)
(-9.173587e-07 4.973833e-07 0)
(-1.075704e-06 5.406225e-07 0)
(-1.245516e-06 5.81556e-07 0)
(-1.426185e-06 6.200308e-07 0)
(-1.61706e-06 6.559373e-07 0)
(-1.817455e-06 6.892009e-07 0)
(-2.026662e-06 7.197752e-07 0)
(-2.243956e-06 7.476374e-07 0)
(-2.468602e-06 7.727832e-07 0)
(-2.69986e-06 7.952234e-07 0)
(-2.936987e-06 8.149808e-07 0)
(-3.179245e-06 8.320876e-07 0)
(-3.425899e-06 8.465835e-07 0)
(-3.676224e-06 8.58514e-07 0)
(-3.929501e-06 8.679285e-07 0)
(-4.185027e-06 8.748798e-07 0)
(-4.442105e-06 8.794225e-07 0)
(-4.700057e-06 8.816125e-07 0)
(-4.958213e-06 8.815064e-07 0)
(-5.215923e-06 8.791607e-07 0)
(-5.472545e-06 8.746319e-07 0)
(-5.727458e-06 8.679757e-07 0)
(-5.98005e-06 8.592471e-07 0)
(-6.229728e-06 8.485002e-07 0)
(-6.47591e-06 8.357885e-07 0)
(-6.718033e-06 8.21164e-07 0)
(-6.955545e-06 8.046784e-07 0)
(-7.18791e-06 7.863824e-07 0)
(-7.414606e-06 7.663261e-07 0)
(-7.635127e-06 7.445592e-07 0)
(-7.84898e-06 7.211313e-07 0)
(-8.055688e-06 6.960917e-07 0)
(-8.254787e-06 6.694903e-07 0)
(-8.44583e-06 6.413774e-07 0)
(-8.628384e-06 6.118039e-07 0)
(-8.802033e-06 5.80822e-07 0)
(-8.966376e-06 5.484849e-07 0)
(-9.121027e-06 5.148477e-07 0)
(-9.26562e-06 4.79967e-07 0)
(-9.399805e-06 4.439018e-07 0)
(-9.52325e-06 4.067131e-07 0)
(-9.635642e-06 3.684649e-07 0)
(-9.736687e-06 3.292235e-07 0)
(-9.826114e-06 2.890586e-07 0)
(-9.90367e-06 2.480426e-07 0)
(-9.969126e-06 2.062515e-07 0)
(-1.002228e-05 1.637646e-07 0)
(-1.006294e-05 1.206647e-07 0)
(-1.009095e-05 7.703836e-08 0)
(-1.010619e-05 3.297553e-08 0)
(-1.010854e-05 -1.14301e-08 0)
(-1.009794e-05 -5.608124e-08 0)
(-1.007433e-05 -1.00877e-07 0)
(-1.003769e-05 -1.457131e-07 0)
(-9.988044e-06 -1.904819e-07 0)
(-9.925426e-06 -2.350725e-07 0)
(-9.849916e-06 -2.793709e-07 0)
(-9.761622e-06 -3.232606e-07 0)
(-9.660687e-06 -3.666224e-07 0)
(-9.547289e-06 -4.093349e-07 0)
(-9.421639e-06 -4.512748e-07 0)
(-9.283984e-06 -4.923174e-07 0)
(-9.134608e-06 -5.323366e-07 0)
(-8.973828e-06 -5.712057e-07 0)
(-8.801998e-06 -6.087976e-07 0)
(-8.619509e-06 -6.449857e-07 0)
(-8.426785e-06 -6.796437e-07 0)
(-8.224287e-06 -7.126467e-07 0)
(-8.012511e-06 -7.438714e-07 0)
(-7.791985e-06 -7.731969e-07 0)
(-7.563272e-06 -8.00505e-07 0)
(-7.326967e-06 -8.256811e-07 0)
(-7.083697e-06 -8.486142e-07 0)
(-6.834117e-06 -8.691983e-07 0)
(-6.578912e-06 -8.873323e-07 0)
(-6.318794e-06 -9.02921e-07 0)
(-6.0545e-06 -9.158755e-07 0)
(-5.78679e-06 -9.261136e-07 0)
(-5.516446e-06 -9.335609e-07 0)
(-5.244268e-06 -9.381509e-07 0)
(-4.971072e-06 -9.398259e-07 0)
(-4.69769e-06 -9.385372e-07 0)
(-4.424962e-06 -9.34246e-07 0)
(-4.153739e-06 -9.269239e-07 0)
(-3.884875e-06 -9.165534e-07 0)
(-3.619228e-06 -9.031283e-07 0)
(-3.35765e-06 -8.866549e-07 0)
(-3.100992e-06 -8.671522e-07 0)
(-2.850093e-06 -8.446527e-07 0)
(-2.60578e-06 -8.192035e-07 0)
(-2.368859e-06 -7.908671e-07 0)
(-2.140118e-06 -7.597223e-07 0)
(-1.920313e-06 -7.258659e-07 0)
(-1.710169e-06 -6.894143e-07 0)
(-1.510371e-06 -6.505052e-07 0)
(-1.32156e-06 -6.093002e-07 0)
(-1.144323e-06 -5.659879e-07 0)
(-9.79187e-07 -5.207874e-07 0)
(-8.266117e-07 -4.739533e-07 0)
(-6.869771e-07 -4.257812e-07 0)
(-5.605749e-07 -3.766151e-07 0)
(-4.475956e-07 -3.26856e-07 0)
(-3.481159e-07 -2.769737e-07 0)
(-2.620834e-07 -2.275198e-07 0)
(-1.893004e-07 -1.791444e-07 0)
(-1.29406e-07 -1.326163e-07 0)
(-8.185651e-08 -8.884652e-08 0)
(-4.590415e-08 -4.891564e-08 0)
(-2.057432e-08 -1.410485e-08 0)
(-4.640617e-09 1.40698e-08 0)
(3.400573e-09 3.382059e-08 0)
(5.376438e-09 4.305e-08 0)
(3.61406e-09 3.929439e-08 0)
(6.410333e-10 1.954316e-08 0)
(1.8053e-10 -1.521116e-08 0)
(-3.172474e-09 -2.118091e-08 0)
(-1.341346e-08 -7.606473e-09 0)
(-3.250584e-08 2.112581e-08 0)
(-6.213752e-08 6.150728e-08 0)
(-1.036868e-07 1.106317e-07 0)
(-1.58218e-07 1.660906e-07 0)
(-2.26514e-07 2.258981e-07 0)
(-3.091075e-07 2.884236e-07 0)
(-4.063082e-07 3.523343e-07 0)
(-5.18229e-07 4.165461e-07 0)
(-6.448117e-07 4.801815e-07 0)
(-7.858498e-07 5.425345e-07 0)
(-9.410109e-07 6.030413e-07 0)
(-1.109856e-06 6.612551e-07 0)
(-1.291856e-06 7.16826e-07 0)
(-1.486412e-06 7.694842e-07 0)
(-1.692863e-06 8.190255e-07 0)
(-1.910502e-06 8.653003e-07 0)
(-2.138585e-06 9.082035e-07 0)
(-2.376339e-06 9.476669e-07 0)
(-2.622975e-06 9.836522e-07 0)
(-2.877687e-06 1.016146e-06 0)
(-3.139662e-06 1.045155e-06 0)
(-3.408085e-06 1.070701e-06 0)
(-3.682141e-06 1.09282e-06 0)
(-3.961019e-06 1.111558e-06 0)
(-4.243916e-06 1.126968e-06 0)
(-4.530035e-06 1.139109e-06 0)
(-4.818594e-06 1.148047e-06 0)
(-5.108819e-06 1.153849e-06 0)
(-5.399953e-06 1.156583e-06 0)
(-5.69125e-06 1.156321e-06 0)
(-5.981982e-06 1.153134e-06 0)
(-6.271433e-06 1.147094e-06 0)
(-6.558904e-06 1.13827e-06 0)
(-6.843714e-06 1.126735e-06 0)
(-7.125194e-06 1.112557e-06 0)
(-7.402693e-06 1.095806e-06 0)