/*--------------------------------*- C++ -*----------------------------------*\
  =========                 |
  \\      /  F ield         | OpenFOAM: The Open Source CFD Toolbox
   \\    /   O peration     | Website:  https://openfoam.org
    \\  /    A nd           | Version:  11
     \\/     M anipulation  |
\*---------------------------------------------------------------------------*/
FoamFile
{
    format      ascii;
    class       surfaceScalarField;
    location    "5";
    object      phi;
}
// * * * * * * * * * * * * * * * * * * * * * * * * * * * * * * * * * * * * * //

dimensions      [0 3 -1 0 0 0 0];

internalField   nonuniform List<scalar> 
18960
(
0.025373692
0.00022706616
-0.025600759
0.025348771
2.492093e-05
0.025705898
-0.00035712656
0.026096658
-0.00039075969
0.026378467
-0.00028180974
0.02653271
-0.00015424263
0.026605158
-7.2447816e-05
0.026638395
-3.3237089e-05
0.026652434
-1.4039238e-05
0.026656476
-4.0414971e-06
0.026655261
1.2143018e-06
0.026651762
3.4993115e-06
0.026647943
3.818918e-06
0.026644524
3.4191755e-06
0.026641769
2.7546565e-06
0.026639813
1.9558517e-06
0.026638688
1.1259096e-06
0.026638327
3.6087315e-07
0.02663858
-2.5335183e-07
0.026639336
-7.5557682e-07
0.02664046
-1.1239863e-06
0.026641863
-1.4037559e-06
0.026643575
-1.7119866e-06
0.026645716
-2.1402763e-06
0.0266484
-2.6848117e-06
0.026651702
-3.3016629e-06
0.026655635
-3.9325539e-06
0.026660183
-4.5484871e-06
0.026665273
-5.0898464e-06
0.026670709
-5.4356632e-06
0.026675993
-5.284228e-06
0.026681154
-5.1607318e-06
0.026683487
-2.3329066e-06
0.026688953
-5.4668581e-06
0.026676676
1.2277049e-05
0.026680223
-3.5466465e-06
0.0266263
5.3922778e-05
0.026591097
3.5202774e-05
0.026242257
0.00034884026
0.00047656433
0.025765693
0.026757952
-3.3415855e-06
-0.026527545
0.026875935
-9.3061333e-05
0.026704391
-0.00018558261
0.026437326
-0.0001236954
0.026209857
-5.4339934e-05
0.026084591
-2.8977096e-05
0.026027126
-1.4983101e-05
0.026008688
-1.4798911e-05
0.026010177
-1.5528305e-05
0.026020793
-1.4657467e-05
0.026034905
-1.2897872e-05
0.026049186
-1.0781054e-05
0.026062323
-9.318447e-06
0.026074122
-8.3801783e-06
0.026084485
-7.6080911e-06
0.026093359
-6.9176555e-06
0.026100756
-6.2711112e-06
0.026106734
-5.6170232e-06
0.026111377
-4.8962881e-06
0.026114543
-3.9223553e-06
0.026116243
-2.8240758e-06
0.026116552
-1.7122853e-06
0.026115459
-6.1870228e-07
0.026112774
5.440742e-07
0.026108198
1.8911957e-06
0.026101555
3.3416894e-06
0.02609262
5.0024755e-06
0.026081227
6.8448899e-06
0.02606732
8.8171529e-06
0.026051107
1.0777078e-05
0.026032927
1.2896119e-05
0.026013449
1.4317078e-05
0.025992933
1.8182944e-05
0.025974248
1.3217672e-05
0.02595286
3.3665514e-05
0.025947211
2.1017557e-06
0.025961975
3.9159137e-05
0.025993431
3.7471175e-06
0.026200527
0.00014174422
5.3004179e-05
0.026624087
0.026171092
-2.999705e-05
-0.026144436
0.026143999
-6.5967886e-05
0.026130587
-0.00017217132
0.026180716
-0.00017382462
0.026274762
-0.00014838531
0.02637859
-0.00013280523
0.026463001
-9.9394497e-05
0.026522761
-7.4558994e-05
0.026563704
-5.6470549e-05
0.026591468
-4.2421548e-05
0.026610329
-3.1759182e-05
0.02662286
-2.3311865e-05
0.026630883
-1.7341216e-05
0.026636023
-1.3520032e-05
0.026639375
-1.0960198e-05
0.026641594
-9.1369321e-06
0.026643115
-7.7926294e-06
0.026644273
-6.7745294e-06
0.026645313
-5.9361052e-06
0.026646582
-5.1915086e-06
0.026648256
-4.4979125e-06
0.026649923
-3.3794454e-06
0.026651388
-2.0842376e-06
0.026652406
-4.736283e-07
0.026653147
1.1506904e-06
0.02665358
2.9082636e-06
0.026653557
5.025699e-06
0.026652948
7.4536729e-06
0.026651658
1.0107562e-05
0.026649554
1.2880907e-05
0.026646101
1.6348451e-05
0.026641245
1.9173898e-05
0.026632779
2.6648728e-05
0.026620247
2.5749536e-05
0.026602378
5.1534797e-05
0.02656689
3.7589248e-05
0.026513975
9.2074387e-05
0.026428031
8.9690912e-05
0.026401773
0.0001680026
0.00019405406
0.026260723
0.026734676
-7.9998078e-05
-0.026684675
0.02673843
-6.9722338e-05
0.02665882
-9.2560872e-05
0.026552392
-6.7396426e-05
0.026436953
-3.2946884e-05
0.026340667
-3.6518658e-05
0.026266746
-2.5473499e-05
0.026214479
-2.2291948e-05
0.026179894
-2.1886112e-05
0.026158442
-2.0969695e-05
0.026146424
-1.9741174e-05
0.026141054
-1.7941839e-05
0.026139627
-1.5914037e-05
0.026140427
-1.4320154e-05
0.02614248
-1.3012749e-05
0.026145095
-1.1752169e-05
0.026147756
-1.0453274e-05
0.026150097
-9.1163023e-06
0.026151909
-7.7478209e-06
0.026152963
-6.2457473e-06
0.026152754
-4.2888288e-06
0.026151778
-2.4031089e-06
0.026150134
-4.3993248e-07
0.026147541
2.1193775e-06
0.026143785
4.9067241e-06
0.02613889
7.8031443e-06
0.026133147
1.0768428e-05
0.026126967
1.363345e-05
0.026120788
1.6287056e-05
0.026115137
1.8531468e-05
0.02611068
2.0806066e-05
0.026108624
2.1229669e-05
0.02611022
2.5052414e-05
0.026117944
1.802584e-05
0.026138345
3.1133916e-05
0.026166151
9.7831177e-06
0.026230943
2.7282148e-05
0.026317618
3.0159738e-06
0.026443489
4.2131414e-05
3.7833273e-05
0.02659971
0.026236353
-6.038215e-05
-0.026255969
0.026217182
-5.0551194e-05
0.02619894
-7.4318983e-05
0.026209758
-7.8214523e-05
0.026255032
-7.8220781e-05
0.026310982
-9.2468119e-05
0.026372657
-8.7149184e-05
0.026426201
-7.5835375e-05
0.02646979
-6.5475314e-05
0.026504294
-5.5473827e-05
0.026531241
-4.6688119e-05
0.026552201
-3.8901781e-05
0.026568259
-3.1971668e-05
0.026580398
-2.6459846e-05
0.02658955
-2.2164115e-05
0.026596431
-1.8633077e-05
0.026601578
-1.5600596e-05
0.026605417
-1.2955507e-05
0.026608256
-1.0587081e-05
0.026610388
-8.3769769e-06
0.026612352
-6.2527334e-06
0.026613575
-3.626336e-06
0.02661346
-3.2552061e-07
0.026612809
2.770301e-06
0.026611631
6.0854695e-06
0.026609744
9.6902981e-06
0.026607058
1.3454124e-05
0.026603381
1.7309947e-05
0.026598222
2.1446455e-05
0.026591075
2.567863e-05
0.026581148
3.0733062e-05
0.026567548
3.4829119e-05
0.026549155
4.3445959e-05
0.026522552
4.4628856e-05
0.026492845
6.0840275e-05
0.026441551
6.1077159e-05
0.026383505
8.5328458e-05
0.026314327
7.2193734e-05
0.026254657
0.00010180206
9.5916594e-05
0.026196573
0.026597084
-7.0676409e-05
-0.02658679
0.026584974
-3.8440997e-05
0.026557986
-4.7331517e-05
0.026514531
-3.4759367e-05
0.026468059
-3.1748493e-05
0.026421085
-4.5494116e-05
0.026375423
-4.1487198e-05
0.026332829
-3.3241831e-05
0.02629733
-2.9976187e-05
0.026269138
-2.7281722e-05
0.026247665
-2.5215111e-05
0.026231992
-2.3228803e-05
0.026221082
-2.1061914e-05
0.026213752
-1.9129213e-05
0.026208934
-1.7346845e-05
0.026205791
-1.5489629e-05
0.026203745
-1.355409e-05
0.026202365
-1.1575727e-05
0.026201308
-9.5304398e-06
0.026200283
-7.352025e-06
0.026198821
-4.79067e-06
0.026197053
-1.8586744e-06
0.026195632
1.0954389e-06
0.026193848
4.555084e-06
0.026191861
8.0719313e-06
0.026189977
1.1574717e-05
0.026188504
1.4927096e-05
0.026187796
1.80176e-05
0.026188349
2.0893701e-05
0.026190843
2.3184116e-05
0.026195997
2.5579823e-05
0.026204903
2.5922916e-05
0.026218903
2.9445825e-05
0.02623839
2.5142003e-05
0.026267987
3.1243379e-05
0.026307624
2.1439977e-05
0.026361009
3.1943445e-05
0.026420019
1.3183969e-05
0.026482884
3.8936723e-05
3.8659321e-05
0.026540141
0.026256721
-4.6586499e-05
-0.026280811
0.026250036
-3.1756167e-05
0.026246208
-4.350344e-05
0.026258232
-4.6783025e-05
0.026282616
-5.6132316e-05
0.026310207
-7.3085306e-05
0.026344941
-7.6221746e-05
0.026380804
-6.910462e-05
0.026415226
-6.4397679e-05
0.026446248
-5.8303855e-05
0.026473079
-5.2046629e-05
0.02649581
-4.5959776e-05
0.02651485
-4.0101798e-05
0.026530435
-3.4714423e-05
0.026542936
-2.9847215e-05
0.026552853
-2.5407266e-05
0.02656061
-2.1311147e-05
0.026566544
-1.7509438e-05
0.026570919
-1.390502e-05
0.026573953
-1.0386198e-05
0.026575902
-6.7393768e-06
0.026576908
-2.8647989e-06
0.026576343
1.6605055e-06
0.026574882
6.0156355e-06
0.026572419
1.0534752e-05
0.026568836
1.515833e-05
0.026563919
1.9843894e-05
0.026557352
2.4584476e-05
0.026548808
2.943782e-05
0.026537732
3.4259568e-05
0.026523501
3.9811565e-05
0.026505279
4.4144687e-05
0.026482579
5.214568e-05
0.026454398
5.332352e-05
0.0264212
6.4440907e-05
0.026378827
6.3813055e-05
0.026336199
7.457171e-05
0.026290614
5.8768154e-05
0.026250354
7.9196706e-05
6.7256181e-05
0.026221758
0.026504796
-5.631894e-05
-0.026495063
0.026503814
-3.0774348e-05
0.026497443
-3.7132275e-05
0.02648161
-3.0949944e-05
0.026464477
-3.8999548e-05
0.02644166
-5.0268902e-05
0.026417704
-5.22656e-05
0.026391384
-4.2784883e-05
0.026365951
-3.8964508e-05
0.026343163
-3.5516011e-05
0.026323365
-3.2248498e-05
0.026306767
-2.936098e-05
0.026293343
-2.6678125e-05
0.026282706
-2.4078048e-05
0.026274386
-2.1526273e-05
0.026267948
-1.8970145e-05
0.026262991
-1.6353673e-05
0.026259138
-1.3656739e-05
0.026256091
-1.0857404e-05
0.026253622
-7.9174504e-06
0.026251527
-4.6440454e-06
0.026249599
-9.3725165e-07
0.02624841
2.8497107e-06
0.026247581
6.844162e-06
0.026247309
1.0806592e-05
0.026247812
1.465573e-05
0.026249345
1.8310868e-05
0.026252246
2.1683031e-05
0.026256887
2.4797541e-05
0.026263778
2.7368105e-05
0.026273365
3.0224331e-05
0.026286304
3.120614e-05
0.02630324
3.5209324e-05
0.026323614
3.2950064e-05
0.026349985
3.8069865e-05
0.026379234
3.4563825e-05
0.026410768
4.3037411e-05
0.026440737
2.8799918e-05
0.026468934
5.0999372e-05
4.8304515e-05
0.026487886
0.02630084
-4.5525443e-05
-0.026311633
0.026299799
-2.9733547e-05
0.026302002
-3.9336006e-05
0.026310399
-3.9346971e-05
0.026320682
-4.928209e-05
0.026334588
-6.4175323e-05
0.026351888
-6.9565659e-05
0.026373879
-6.4775527e-05
0.026397017
-6.2102833e-05
0.026419804
-5.8302352e-05
0.026441226
-5.3670845e-05
0.026460823
-4.8957347e-05
0.026478336
-4.4192103e-05
0.026493615
-3.9356716e-05
0.026506622
-3.4532701e-05
0.026517413
-2.9761056e-05
0.026526141
-2.5081775e-05
0.026532976
-2.0492146e-05
0.026538079
-1.5960549e-05
0.026541585
-1.1422955e-05
0.026543629
-6.688419e-06
0.026544463
-1.7714845e-06
0.026543788
3.5250398e-06
0.026541885
8.7475456e-06
0.026538689
1.4001712e-05
0.026534102
1.9243349e-05
0.026527952
2.4460662e-05
0.02652001
2.9624749e-05
0.026509992
3.4816105e-05
0.026497596
3.9763743e-05
0.026482594
4.5226126e-05
0.026464585
4.921539e-05
0.026443981
5.5813703e-05
0.026419536
5.7394798e-05
0.026393802
6.3803765e-05
0.026365028
6.3338325e-05
0.026338513
6.9552026e-05
0.026310959
5.635357e-05
0.026289359
7.2599693e-05
6.2479434e-05
0.026275184
0.026457691
-5.7773405e-05
-0.026445443
0.026464358
-3.6400452e-05
0.026464344
-3.9322201e-05
0.026460538
-3.554137e-05
0.026454742
-4.3485509e-05
0.026445011
-5.4444952e-05
0.026433635
-5.8189884e-05
0.026420432
-5.1572246e-05
0.026405347
-4.7018055e-05
0.026390642
-4.3597251e-05
0.026376601
-3.9629202e-05
0.026363787
-3.6143994e-05
0.026352449
-3.2853799e-05
0.026342587
-2.9495215e-05
0.026334172
-2.6117388e-05
0.026327098
-2.2687123e-05
0.026321202
-1.9185429e-05
0.026316342
-1.5632423e-05
0.026312382
-1.2000821e-05
0.026309231
-8.2716331e-06
0.02630683
-4.2874187e-06
0.026305033
2.5969754e-08
0.026304077
4.4805447e-06
0.02630389
8.9343279e-06
0.026304587
1.3304709e-05
0.02630631
1.7520549e-05
0.026309229
2.1541758e-05
0.026313538
2.5315942e-05
0.026319441
2.8913169e-05
0.026327142
3.20629e-05
0.026336852
3.5515507e-05
0.026348488
3.7579347e-05
0.026362491
4.1810871e-05
0.026377652
4.2233795e-05
0.026394835
4.6621056e-05
0.026411599
4.6574463e-05
0.026427486
5.3664481e-05
0.026439997
4.3842783e-05
0.026450687
6.1909509e-05
5.9049723e-05
0.026454117
0.026348023
-5.3975682e-05
-0.026351821
0.026347881
-3.6258421e-05
0.026350358
-4.1799858e-05
0.026355279
-4.0461477e-05
0.026360908
-4.9115486e-05
0.026368534
-6.2069988e-05
0.026376903
-6.6559067e-05
0.026388914
-6.3583215e-05
0.026402451
-6.0555204e-05
0.026417256
-5.8402607e-05
0.026432312
-5.4685245e-05
0.026447043
-5.0874386e-05
0.026460934
-4.6744888e-05
0.026473596
-4.2157097e-05
0.026484796
-3.731737e-05
0.026494467
-3.2358409e-05
0.026502553
-2.7271486e-05
0.026509049
-2.2128035e-05
0.026513996
-1.6948215e-05
0.026517431
-1.1706863e-05
0.026519396
-6.2520788e-06
0.026520009
-5.8770944e-07
0.026519293
5.1970913e-06
0.026517271
1.0956564e-05
0.026513914
1.6661394e-05
0.026509158
2.2276532e-05
0.026502911
2.7789022e-05
0.026495081
3.314617e-05
0.026485575
3.8418413e-05
0.026474317
4.3321671e-05
0.026461357
4.8474949e-05
0.026446634
5.230225e-05
0.02643074
5.7705435e-05
0.026413237
5.9736576e-05
0.026395585
6.4272908e-05
0.026378565
6.3594405e-05
0.026363727
6.8502903e-05
0.026348315
5.925399e-05
0.026337981
7.2243546e-05
6.64501e-05
0.026330581
0.026435983
-6.516473e-05
-0.026424794
0.026444064
-4.4339424e-05
0.026448159
-4.5895136e-05
0.026449897
-4.2199215e-05
0.026450364
-4.958246e-05
0.026447229
-5.8935414e-05
0.026443047
-6.2377192e-05
0.026438091
-5.8627482e-05
0.026431408
-5.3872138e-05
0.026423814
-5.0807936e-05
0.02641594
-4.6811337e-05
0.026408051
-4.2985991e-05
0.026400328
-3.9021648e-05
0.026393032
-3.4861096e-05
0.026386342
-3.0626825e-05
0.02638048
-2.6497332e-05
0.026375439
-2.2230209e-05
0.026370949
-1.7637611e-05
0.026366997
-1.2996943e-05
0.026363784
-8.4937292e-06
0.026361428
-3.8957909e-06
0.026359919
9.2169909e-07
0.02635915
5.9656047e-06
0.026359176
1.0930675e-05
0.02636008
1.5757902e-05
0.026361928
2.0428367e-05
0.026364788
2.4929172e-05
0.026368724
2.9209975e-05
0.026373788
3.3354351e-05
0.02637999
3.7119201e-05
0.026387287
4.1178335e-05
0.026395565
4.4024129e-05
0.026404548
4.8722619e-05
0.026413907
5.0377811e-05
0.026423094
5.5085812e-05
0.026430568
5.6120194e-05
0.026436977
6.2093603e-05
0.026440697
5.5534204e-05
0.026443563
6.9377287e-05
6.832787e-05
0.026441685
0.026388006
-6.4694051e-05
-0.026388477
0.026389148
-4.5481279e-05
0.026391591
-4.8338146e-05
0.026395292
-4.589949e-05
0.026398863
-5.3153741e-05
0.026402923
-6.2995865e-05
0.026407356
-6.6810393e-05
0.026414292
-6.5563e-05
0.02642212
-6.170003e-05
0.026431012
-5.9699623e-05
0.026440846
-5.6645494e-05
0.026450839
-5.2979019e-05
0.026460543
-4.8726006e-05
0.02646973
-4.4047884e-05
0.026478179
-3.9075731e-05
0.026485667
-3.39854e-05
0.026492116
-2.867913e-05
0.02649745
-2.2971946e-05
0.026501632
-1.7178553e-05
0.026504593
-1.1454931e-05
0.026506177
-5.4795915e-06
0.026506566
5.3291842e-07
0.026505778
6.7526878e-06
0.026503868
1.2841215e-05
0.026500783
1.8843206e-05
0.026496501
2.4710245e-05
0.026491019
3.0410919e-05
0.02648434
3.5889419e-05
0.026476506
4.1188312e-05
0.026467573
4.605127e-05
0.026457739
5.1012874e-05
0.026447064
5.4698991e-05
0.026436078
5.970886e-05
0.026424977
6.1478408e-05
0.026414181
6.5882182e-05
0.026404545
6.5755747e-05
0.026396474
7.0165182e-05
0.026388171
6.3837332e-05
0.026383653
7.3895083e-05
7.22274e-05
0.026379753
0.026434867
-7.4560093e-05
-0.026425001
0.026442105
-5.2719439e-05
0.026447866
-5.4098986e-05
0.026452423
-5.0456548e-05
0.026455658
-5.6388018e-05
0.026456252
-6.3589999e-05
0.02645653
-6.7089105e-05
0.02645585
-6.4882106e-05
0.026454601
-6.045174e-05
0.026452311
-5.7409352e-05
0.026449131
-5.3465707e-05
0.026445175
-4.9022914e-05
0.026440817
-4.436815e-05
0.026436299
-3.9529999e-05
0.026431814
-3.459041e-05
0.026427369
-2.9540632e-05
0.026423214
-2.4524344e-05
0.026419903
-1.9660319e-05
0.026417427
-1.4702593e-05
0.026415396
-9.4245333e-06
0.026413587
-3.6705783e-06
0.02641234
1.7805077e-06
0.026411749
7.3434178e-06
0.026411697
1.2893474e-05
0.026412267
1.8272896e-05
0.026413488
2.3489944e-05
0.026415365
2.8533862e-05
0.026417892
3.3362062e-05
0.026421024
3.8056393e-05
0.026424696
4.2378956e-05
0.026428763
4.6945764e-05
0.026433127
5.0335686e-05
0.026437292
5.5543123e-05
0.02644148
5.729098e-05
0.026445048
6.2313609e-05
0.026446891
6.3912793e-05
0.026448116
6.8940649e-05
0.026447496
6.4457109e-05
0.02644688
7.4511053e-05
7.6399303e-05
0.026442708
0.026422251
-7.7558846e-05
-0.026419253
0.026426178
-5.6646141e-05
0.026429199
-5.7119896e-05
0.026432655
-5.3912824e-05
0.026435521
-5.9253481e-05
0.026437924
-6.5993421e-05
0.026440896
-7.0060781e-05
0.02644491
-6.8896587e-05
0.026449942
-6.5483726e-05
0.02645547
-6.2936687e-05
0.026461468
-5.9463646e-05
0.026467656
-5.5211575e-05
0.026473897
-5.0608606e-05
0.026480022
-4.5655745e-05
0.026485843
-4.0410803e-05
0.026491168
-3.4865505e-05
0.026495818
-2.9174143e-05
0.026499675
-2.3518029e-05
0.026502651
-1.7678187e-05
0.026504734
-1.1507369e-05
0.026506091
-5.027522e-06
0.026506235
1.636213e-06
0.02650533
8.2478947e-06
0.026503632
1.4592076e-05
0.026501024
2.0880489e-05
0.02649752
2.699451e-05
0.026493145
3.2908475e-05
0.026487964
3.854357e-05
0.026482059
4.3960492e-05
0.026475549
4.8889605e-05
0.026468632
5.3862082e-05
0.026461404
5.7563933e-05
0.0264543
6.2647446e-05
0.026447369
6.422151e-05
0.026440864
6.8819263e-05
0.026435498
6.9278854e-05
0.026430881
7.3557781e-05
0.026425968
6.936949e-05
0.026423546
7.693319e-05
7.8633279e-05
0.026421312
0.026445805
-8.4741894e-05
-0.026438622
0.026453639
-6.4479696e-05
0.026459593
-6.3073523e-05
0.026465165
-5.948494e-05
0.02646913
-6.3218382e-05
0.02647228
-6.9144214e-05
0.026475249
-7.3029547e-05
0.026477909
-7.1556769e-05
0.026479833
-6.7407088e-05
0.026480761
-6.3864441e-05
0.026480566
-5.9268894e-05
0.026479713
-5.4359082e-05
0.026478412
-4.9307301e-05
0.026476805
-4.4048875e-05
0.026475002
-3.8607224e-05
0.026473155
-3.3019057e-05
0.0264713
-2.7318583e-05
0.026469305
-2.1523527e-05
0.026467258
-1.5630846e-05
0.026465378
-9.6277753e-06
0.026463782
-3.4314967e-06
0.026462755
2.6628948e-06
0.026462254
8.7490388e-06
0.026461832
1.5014733e-05
0.026461725
2.0987059e-05
0.026461934
2.6785214e-05
0.026462439
3.2403665e-05
0.026463195
3.7787731e-05
0.02646414
4.3015664e-05
0.026465178
4.7851237e-05
0.026466202
5.2838581e-05
0.026467099
5.666671e-05
0.026467634
6.2111843e-05
0.026467916
6.3939534e-05
0.026467721
6.9014807e-05
0.026466469
7.0530924e-05
0.026464815
7.5211838e-05
0.026462143
7.2041139e-05
0.026460072
7.9004711e-05
8.138535e-05
0.02645732
0.02645385
-8.9115106e-05
-0.026449477
0.026459485
-7.0114298e-05
0.026463637
-6.7225433e-05
0.026467485
-6.333342e-05
0.026470701
-6.6433563e-05
0.026473102
-7.1545184e-05
0.026475875
-7.5802977e-05
0.026478955
-7.4636618e-05
0.026482729
-7.1181371e-05
0.026486652
-6.7786998e-05
0.026490737
-6.3354524e-05
0.026494869
-5.8490485e-05
0.026499003
-5.3441883e-05
0.026503065
-4.8110558e-05
0.026506933
-4.2475341e-05
0.026510489
-3.6575089e-05
0.02651362
-3.0449066e-05
0.026516234
-2.4137638e-05
0.026518271
-1.7667852e-05
0.026519694
-1.1051137e-05
0.02652053
-4.2676318e-06
0.026520397
2.7960737e-06
0.026519264
9.8825063e-06
0.026517792
1.6486116e-05
0.026515666
2.3113701e-05
0.026512895
2.9555481e-05
0.026509529
3.5769565e-05
0.026505629
4.1688056e-05
0.02650129
4.7354482e-05
0.026496615
5.2526988e-05
0.026491749
5.7704508e-05
0.026486758
6.1656849e-05
0.026481994
6.6876062e-05
0.026477102
6.8831642e-05
0.026472787
7.3329544e-05
0.026469065
7.4252845e-05
0.026465638
7.8639028e-05
0.026461693
7.5986474e-05
0.026459204
8.1493502e-05
8.383222e-05
0.026456757
0.026468266
-9.4373895e-05
-0.026463007
0.026476001
-7.7849611e-05
0.026482469
-7.3692908e-05
0.026488631
-6.9495714e-05
0.026493436
-7.123828e-05
0.026497882
-7.599166e-05
0.026501639
-7.9559838e-05
0.026505736
-7.8733566e-05
0.026509414
-7.4859473e-05
0.02651202
-7.0392862e-05
0.026514024
-6.5357979e-05
0.026515544
-6.0011381e-05
0.026516574
-5.4471124e-05
0.026517165
-4.8702216e-05
0.026517376
-4.2685752e-05
0.026517262
-3.6461084e-05
0.026516877
-3.0064371e-05
0.026516258
-2.3518132e-05
0.026515449
-1.6859344e-05
0.026514492
-1.0094346e-05
0.026513392
-3.1668862e-06
0.026512577
3.6111097e-06
0.026512115
1.0343626e-05
0.026511312
1.7289768e-05
0.026510504
2.3921896e-05
0.026509696
3.0362553e-05
0.026508873
3.6593233e-05
0.026507999
4.2561926e-05
0.026507026
4.8327374e-05
0.026505904
5.3648987e-05
0.026504557
5.9051344e-05
0.02650295
6.3264243e-05
0.026500984
6.8841952e-05
0.026498667
7.1148337e-05
0.026495885
7.6111305e-05
0.02649278
7.7358085e-05
0.026489016
8.2403688e-05
0.026484738
8.0263801e-05
0.026481216
8.5015925e-05
8.721436e-05
0.026477834
0.026484333
-9.9944379e-05
-0.026478763
0.026491855
-8.5371528e-05
0.026498211
-8.0048974e-05
0.026503786
-7.5070153e-05
0.026508426
-7.5878549e-05
0.026512112
-7.967807e-05
0.026515653
-8.3100268e-05
0.026519002
-8.20825e-05
0.026522774
-7.8631811e-05
0.026526367
-7.3985637e-05
0.026529644
-6.863541e-05
0.026532826
-6.3193215e-05
0.026535916
-5.7561292e-05
0.026538858
-5.1643449e-05
0.026541597
-4.5425311e-05
0.026544067
-3.8931446e-05
0.026546201
-3.2197775e-05
0.026547945
-2.5262702e-05
0.026549257
-1.8170815e-05
0.026550111
-1.0948422e-05
0.026550547
-3.6030101e-06
0.026550157
4.0013376e-06
0.026548966
1.1534688e-05
0.026547571
1.868486e-05
0.026545699
2.5793971e-05
0.026543356
3.2705259e-05
0.026540578
3.9371453e-05
0.026537416
4.5723208e-05
0.026533942
5.1801936e-05
0.026530214
5.7376552e-05
0.026526343
6.292307e-05
0.026522347
6.7259458e-05
0.02651842
7.2769428e-05
0.026514368
7.5200152e-05
0.026510492
7.9987454e-05
0.026506833
8.1016836e-05
0.026503186
8.6051014e-05
0.026498843
8.4606145e-05
0.026495246
8.8613284e-05
9.1121996e-05
0.026491339
0.026502649
-0.00010578344
-0.02649681
0.026510209
-9.2931754e-05
0.026516944
-8.6783575e-05
0.026522905
-8.103112e-05
0.026528037
-8.1011001e-05
0.026532685
-8.4326163e-05
0.026537054
-8.7469343e-05
0.026541578
-8.6606429e-05
0.026546405
-8.3458485e-05
0.02655076
-7.8340847e-05
0.026554479
-7.2354388e-05
0.026557667
-6.6380714e-05
0.026560355
-6.0249149e-05
0.026562562
-5.3850853e-05
0.026564312
-4.7175455e-05
0.02656562
-4.0239489e-05
0.026566511
-3.3088404e-05
0.026567005
-2.5756563e-05
0.026567119
-1.8285105e-05
0.026566868
-1.0697626e-05
0.026566222
-2.9564784e-06
0.026565584
4.6394026e-06
0.026564895
1.2223376e-05
0.026563737
1.9843156e-05
0.026562312
2.7218451e-05
0.026560637
3.4380126e-05
0.026558712
4.1296262e-05
0.026556526
4.7909333e-05
0.026554064
5.426465e-05
0.026551312
6.0128168e-05
0.026548247
6.5988459e-05
0.026544874
7.0631828e-05
0.026541197
7.6446323e-05
0.026537208
7.9189469e-05
0.02653285
8.434562e-05
0.026528672
8.5194574e-05
0.026524036
9.0687121e-05
0.026518948
8.9694006e-05
0.026514582
9.297956e-05
9.5501041e-05
0.026510203
0.026523612
-0.0001118597
-0.026517536
0.026531317
-0.00010063655
0.02653856
-9.4026638e-05
0.026545044
-8.7514788e-05
0.026550735
-8.6702252e-05
0.026555721
-8.9312313e-05
0.026560578
-9.2326428e-05
0.026565309
-9.1337531e-05
0.026570141
-8.8290644e-05
0.026574743
-8.2942663e-05
0.02657876
-7.6371561e-05
0.026582322
-6.9942818e-05
0.026585511
-6.3437225e-05
0.026588363
-5.6703572e-05
0.026590873
-4.9685148e-05
0.026593025
-4.2391571e-05
0.026594796
-3.4859641e-05
0.026596155
-2.7115358e-05
0.026597087
-1.9217327e-05
0.026597584
-1.119439e-05
0.026597696
-3.0680084e-06
0.026597109
5.225929e-06
0.026595989
1.3343197e-05
0.026594531
2.1301023e-05
0.026592644
2.9106225e-05
0.026590338
3.6686067e-05
0.026587636
4.3997604e-05
0.026584571
5.097437e-05
0.026581188
5.7647902e-05
0.026577529
6.378756e-05
0.026573627
6.9890464e-05
0.026569522
7.4736928e-05
0.026565252
8.071561e-05
0.026560786
8.3655352e-05
0.026556015
8.9117107e-05
0.02655139
8.9819187e-05
0.026546423
9.5654271e-05
0.026540928
9.5188995e-05
0.0265358
9.8107384e-05
0.00010052995
0.026530771
0.026546752
-0.00011842236
-0.026540189
0.026554969
-0.00010885415
0.026563132
-0.00010218955
0.026570551
-9.4933763e-05
0.026576866
-9.3016849e-05
0.026582398
-9.4844187e-05
0.026587783
-9.7711485e-05
0.026593256
-9.6810961e-05
0.026598611
-9.3645449e-05
0.026603593
-8.7925045e-05
0.026608192
-8.0970022e-05
0.026612324
-7.4074968e-05
0.026615996
-6.7109175e-05
0.026619213
-5.9920952e-05
0.026621968
-5.2439353e-05
0.026624241
-4.4665078e-05
0.026626018
-3.6636665e-05
0.026627297
-2.8393994e-05
0.026628074
-1.9994549e-05
0.026628321
-1.1441402e-05
0.026628018
-2.764703e-06
0.026627421
5.8229394e-06
0.026626401
1.4362962e-05
0.026624896
2.2805409e-05
0.026622939
3.1063575e-05
0.026620548
3.9076676e-05
0.026617753
4.6792733e-05
0.026614565
5.4162835e-05
0.026611001
6.121165e-05
0.02660708
6.7708732e-05
0.026602802
7.416819e-05
0.026598245
7.9294617e-05
0.026593412
8.5548039e-05
0.02658838
8.8687804e-05
0.026582876
9.4621099e-05
0.026577577
9.5117823e-05
0.02657194
0.00010129141
0.026565925
0.00010120413
0.026559869
0.00010416335
0.00010625687
0.026554142
0.026575
-0.00012532399
-0.026568098
0.026583707
-0.0001175611
0.026592674
-0.0001111566
0.026601067
-0.00010332687
0.026607965
-9.9914539e-05
0.026613946
-0.00010082565
0.026619765
-0.00010353001
0.026626065
-0.00010311152
0.026631879
-9.9458911e-05
0.026637057
-9.31037e-05
0.026642042
-8.5954966e-05
0.026646597
-7.8630035e-05
0.026650672
-7.1183543e-05
0.026654261
-6.3510437e-05
0.026657361
-5.5538749e-05
0.026659955
-4.7259831e-05
0.02666203
-3.8710882e-05
0.026663574
-2.9937966e-05
0.026664555
-2.0975642e-05
0.026664987
-1.1873373e-05
0.026664898
-2.6765501e-06
0.026664236
6.4851665e-06
0.026663042
1.5557151e-05
0.026661353
2.4494342e-05
0.026659174
3.3242398e-05
0.026656508
4.1742634e-05
0.026653354
4.9946738e-05
0.026649749
5.7767716e-05
0.026645718
6.524269e-05
0.026641299
7.2127877e-05
0.026636483
7.8984859e-05
0.026631324
8.4453529e-05
0.026625807
9.1064757e-05
0.02662013
9.4364883e-05
0.026613831
0.00010092036
0.026607771
0.00010117719
0.026601407
0.00010765545
0.026594621
0.00010799061
0.02658756
0.000111224
0.00011291162
0.026580905
0.02660852
-0.00013263651
-0.026601208
0.026617428
-0.00012646931
0.026626917
-0.00012064528
0.026636291
-0.00011270124
0.026643819
-0.00010744181
0.026650238
-0.00010724469
0.026656684
-0.0001099762
0.026664041
-0.00011046832
0.026670332
-0.00010575012
0.026676056
-9.8827645e-05
0.026681618
-9.1517458e-05
0.026686774
-8.3785765e-05
0.026691402
-7.5811353e-05
0.026695471
-6.75793e-05
0.026698943
-5.9010443e-05
0.0267018
-5.0117057e-05
0.026704127
-4.103807e-05
0.026705839
-3.1649813e-05
0.026706956
-2.2092622e-05
0.026707475
-1.2392379e-05
0.026707374
-2.5757843e-06
0.026706683
7.1764639e-06
0.026705403
1.6836822e-05
0.02670354
2.6357473e-05
0.026701107
3.5675467e-05
0.026698118
4.4731762e-05
0.026694593
5.3471144e-05
0.026690548
6.1813039e-05
0.026685985
6.9805625e-05
0.02668099
7.7123228e-05
0.026675556
8.4418915e-05
0.026669807
9.0202514e-05
0.026663598
9.727346e-05
0.026657306
0.00010065714
0.026650171
0.0001080547
0.026643229
0.0001081199
0.026636035
0.00011484946
0.026628366
0.00011565901
0.026620253
0.00011933747
0.00012056983
0.026612595
0.026645852
-0.00014133016
-0.026637158
0.026654961
-0.00013557814
0.026664866
-0.00013055074
0.026675243
-0.00012307807
0.026684006
-0.00011620431
0.026691158
-0.00011439736
0.026698249
-0.00011706655
0.026706338
-0.00011855757
0.026713691
-0.00011310273
0.026720575
-0.00010571243
0.026727006
-9.7948384e-05
0.02673286
-8.9639508e-05
0.026738117
-8.1068367e-05
0.026742814
-7.2275744e-05
0.026746902
-6.3098645e-05
0.026750389
-5.3604679e-05
0.026753167
-4.3815286e-05
0.026755257
-3.3740389e-05
0.026756623
-2.3458122e-05
0.02675726
-1.3029363e-05
0.026757301
-2.6171698e-06
0.026756592
7.8850332e-06
0.026755176
1.825341e-05
0.026753094
2.8439353e-05
0.026750353
3.841644e-05
0.026746958
4.8126666e-05
0.026742951
5.7478078e-05
0.026738366
6.6397998e-05
0.026733225
7.4946613e-05
0.026727592
8.2756101e-05
0.02672143
9.0581202e-05
0.026714942
9.6690925e-05
0.026707784
0.00010443065
0.026700777
0.00010766413
0.026692626
0.00011620598
0.026684706
0.00011603993
0.026676743
0.00012281251
0.026668372
0.00012402967
0.026659403
0.00012830677
0.0001291496
0.026650823
0.026690333
-0.0001511539
-0.02668051
0.026700118
-0.00014536284
0.026710781
-0.00014121403
0.026722395
-0.000134692
0.026732608
-0.00012641689
0.02674066
-0.00012244933
0.02674789
-0.00012429686
0.026755665
-0.00012633271
0.026763993
-0.00012143037
0.026772261
-0.00011398082
0.026780269
-0.00010595616
0.026787682
-9.7052768e-05
0.026794188
-8.7573988e-05
0.026799762
-7.7849284e-05
0.026804544
-6.7881187e-05
0.02680856
-5.762036e-05
0.026811813
-4.7068286e-05
0.026814288
-3.6215583e-05
0.026815952
-2.5122013e-05
0.026816721
-1.3798503e-05
0.026816378
-2.2737872e-06
0.026815444
8.818225e-06
0.026813868
1.9830083e-05
0.026811567
3.0740356e-05
0.02680852
4.1463337e-05
0.026804755
5.189175e-05
0.026800256
6.1976607e-05
0.026795096
7.1557976e-05
0.026789238
8.0804809e-05
0.026782897
8.9097104e-05
0.02677571
9.7768245e-05
0.026768648
0.00010375319
0.026760066
0.0001130126
0.026752553
0.000115177
0.02674339
0.00012536917
0.026733648
0.00012578158
0.026724137
0.00013232388
0.026715052
0.00013311405
0.026705385
0.00013797435
0.00013836269
0.026696172
0.026742826
-0.00016212072
-0.02673186
0.026754206
-0.00015674262
0.026765915
-0.00015292294
0.026778987
-0.00014776408
0.026790979
-0.00013840895
0.026800468
-0.00013193816
0.026808815
-0.00013264387
0.026817306
-0.00013482312
0.026826392
-0.00013051647
0.026835349
-0.00012293775
0.026843944
-0.00011455197
0.026852123
-0.00010523106
0.026859566
-9.5017453e-05
0.026866007
-8.4290325e-05
0.026871436
-7.3309541e-05
0.026875916
-6.2100844e-05
0.026879527
-5.0679488e-05
0.026882347
-3.9034934e-05
0.02688445
-2.7225136e-05
0.026885951
-1.5299625e-05
0.026887135
-3.4579793e-06
0.026887057
8.895857e-06
0.026885673
2.1214445e-05
0.026883133
3.3280019e-05
0.026879543
4.5053194e-05
0.026875004
5.6430872e-05
0.026869569
6.7411593e-05
0.026863378
7.7749323e-05
0.026856367
8.7815569e-05
0.026848869
9.65954e-05
0.026840429
0.00010620799
0.026832013
0.00011216982
0.026822268
0.00012275765
0.026812836
0.00012460833
0.026802631
0.00013557404
0.0267919
0.00013651295
0.026781463
0.00014276112
0.026771284
0.00014329254
0.026759949
0.00014930933
0.0001486332
0.026749679
0.026805847
-0.0001749638
-0.026793004
0.026818677
-0.00016957184
0.026831111
-0.00016535775
0.02684523
-0.0001618832
0.026859384
-0.00015256245
0.026870966
-0.00014352026
0.026880712
-0.00014239025
0.026890399
-0.00014451019
0.02690082
-0.00014093692
0.026911245
-0.00013336328
0.026921339
-0.00012464512
0.026931073
-0.00011496573
0.026940382
-0.00010432651
0.026949019
-9.2927155e-05
0.026956632
-8.0922178e-05
0.026963003
-6.8472081e-05
0.026968023
-5.5699743e-05
0.026971627
-4.2638762e-05
0.0269737
-2.929785e-05
0.026974084
-1.5684069e-05
0.026972312