/*--------------------------------*- C++ -*----------------------------------*\
| =========                 |                                                 |
| \\      /  F ield         | OpenFOAM: The Open Source CFD Toolbox           |
|  \\    /   O peration     | Version:  2406                                  |
|   \\  /    A nd           | Website:  www.openfoam.com                      |
|    \\/     M anipulation  |                                                 |
\*---------------------------------------------------------------------------*/
FoamFile
{
    version     2.0;
    format      ascii;
    arch        "LSB;label=32;scalar=64";
    class       volScalarField;
    location    "4748";
    object      p;
}
// * * * * * * * * * * * * * * * * * * * * * * * * * * * * * * * * * * * * * //

dimensions      [0 2 -2 0 0 0 0];

internalField   nonuniform List<scalar> 
16384
(
9.373361e-12
8.976263e-11
1.150869e-10
4.022855e-11
-1.430967e-10
-4.330022e-10
-8.221274e-10
-1.300415e-09
-1.857132e-09
-2.481955e-09
-3.165484e-09
-3.899457e-09
-4.676807e-09
-5.491614e-09
-6.339003e-09
-7.215014e-09
-8.116458e-09
-9.040773e-09
-9.985878e-09
-1.095004e-08
-1.193174e-08
-1.292959e-08
-1.394221e-08
-1.496813e-08
-1.600578e-08
-1.705339e-08
-1.810892e-08
-1.91701e-08
-2.02343e-08
-2.129861e-08
-2.235976e-08
-2.341416e-08
-2.445788e-08
-2.548664e-08
-2.649587e-08
-2.74807e-08
-2.843597e-08
-2.935628e-08
-3.023601e-08
-3.106938e-08
-3.185045e-08
-3.257322e-08
-3.323163e-08
-3.381966e-08
-3.433136e-08
-3.476095e-08
-3.510287e-08
-3.535184e-08
-3.5503e-08
-3.555193e-08
-3.549475e-08
-3.532822e-08
-3.504981e-08
-3.465781e-08
-3.415137e-08
-3.353059e-08
-3.27966e-08
-3.195162e-08
-3.099901e-08
-2.994328e-08
-2.879018e-08
-2.754665e-08
-2.622088e-08
-2.482224e-08
-2.336127e-08
-2.184961e-08
-2.029995e-08
-1.872592e-08
-1.714198e-08
-1.55633e-08
-1.40056e-08
-1.248498e-08
-1.101777e-08
-9.620305e-09
-8.30874e-09
-7.098851e-09
-6.005814e-09
-5.044003e-09
-4.226784e-09
-3.566318e-09
-3.07338e-09
-2.757186e-09
-2.625252e-09
-2.683264e-09
-2.934984e-09
-3.382177e-09
-4.02457e-09
-4.859851e-09
-5.883686e-09
-7.089779e-09
-8.469957e-09
-1.001429e-08
-1.171124e-08
-1.35478e-08
-1.550972e-08
-1.758169e-08
-1.974757e-08
-2.199058e-08
-2.429356e-08
-2.663913e-08
-2.900999e-08
-3.138902e-08
-3.375953e-08
-3.610538e-08
-3.841116e-08
-4.066226e-08
-4.284496e-08
-4.494651e-08
-4.695514e-08
-4.886008e-08
-5.065151e-08
-5.232056e-08
-5.385924e-08
-5.52604e-08
-5.651767e-08
-5.762548e-08
-5.857905e-08
-5.937448e-08
-6.000904e-08
-6.048149e-08
-6.079277e-08
-6.094705e-08
-6.095331e-08
-6.082779e-08
-6.05975e-08
-6.030557e-08
-6.002041e-08
-5.98322e-08
-5.952026e-11
1.58895e-11
3.13096e-11
-5.019577e-11
-2.294288e-10
-5.041959e-10
-8.690695e-10
-1.31624e-09
-1.837041e-09
-2.422873e-09
-3.065684e-09
-3.758218e-09
-4.494124e-09
-5.267964e-09
-6.075164e-09
-6.911921e-09
-7.775104e-09
-8.662135e-09
-9.570866e-09
-1.049947e-08
-1.144634e-08
-1.240997e-08
-1.338889e-08
-1.438157e-08
-1.538639e-08
-1.640156e-08
-1.742505e-08
-1.845462e-08
-1.948773e-08
-2.052155e-08
-2.155294e-08
-2.257847e-08
-2.359437e-08
-2.459658e-08
-2.558074e-08
-2.65422e-08
-2.747605e-08
-2.837716e-08
-2.924017e-08
-3.005957e-08
-3.082971e-08
-3.154484e-08
-3.21992e-08
-3.278702e-08
-3.330261e-08
-3.374043e-08
-3.409515e-08
-3.43617e-08
-3.45354e-08
-3.461198e-08
-3.458769e-08
-3.445939e-08
-3.422461e-08
-3.388164e-08
-3.342961e-08
-3.286857e-08
-3.219951e-08
-3.14245e-08
-3.054667e-08
-2.957028e-08
-2.850076e-08
-2.734469e-08
-2.610984e-08
-2.480512e-08
-2.344057e-08
-2.202727e-08
-2.057732e-08
-1.910373e-08
-1.762031e-08
-1.614154e-08
-1.468245e-08
-1.325844e-08
-1.188511e-08
-1.057807e-08
-9.352794e-09
-8.224354e-09
-7.207266e-09
-6.315274e-09
-5.561155e-09
-4.956528e-09
-4.511682e-09
-4.235411e-09
-4.134877e-09
-4.215485e-09
-4.480796e-09
-4.932455e-09
-5.570159e-09
-6.391645e-09
-7.392719e-09
-8.567311e-09
-9.907557e-09
-1.140392e-08
-1.304531e-08
-1.481927e-08
-1.671217e-08
-1.870931e-08
-2.079525e-08
-2.295395e-08
-2.516899e-08
-2.742379e-08
-2.970183e-08
-3.198677e-08
-3.42627e-08
-3.651425e-08
-3.872674e-08
-4.088625e-08
-4.297977e-08
-4.499519e-08
-4.692136e-08
-4.874811e-08
-5.046623e-08
-5.206742e-08
-5.354431e-08
-5.489037e-08
-5.609993e-08
-5.716816e-08
-5.809112e-08
-5.886589e-08
-5.949076e-08
-5.996562e-08
-6.029251e-08
-6.047647e-08
-6.052676e-08
-6.045858e-08
-6.029542e-08
-6.007139e-08
-5.983234e-08
-5.964401e-08
-8.282855e-11
5.766721e-13
1.504089e-11
-6.952881e-11
-2.450515e-10
-5.075741e-10
-8.523558e-10
-1.272958e-09
-1.762232e-09
-2.312985e-09
-2.918351e-09
-3.572029e-09
-4.268399e-09
-5.002558e-09
-5.770305e-09
-6.568085e-09
-7.392913e-09
-8.242281e-09
-9.114065e-09
-1.000643e-08
-1.091771e-08
-1.184639e-08
-1.279095e-08
-1.374986e-08
-1.472147e-08
-1.570401e-08
-1.669551e-08
-1.769378e-08
-1.869637e-08
-1.970056e-08
-2.070338e-08
-2.170152e-08
-2.269142e-08
-2.366921e-08
-2.463075e-08
-2.557163e-08
-2.648717e-08
-2.73725e-08
-2.82225e-08
-2.903193e-08
-2.979539e-08
-3.050739e-08
-3.116239e-08
-3.175487e-08
-3.227935e-08
-3.27305e-08
-3.310316e-08
-3.339243e-08
-3.359374e-08
-3.370293e-08
-3.371633e-08
-3.363082e-08
-3.344392e-08
-3.315388e-08
-3.275976e-08
-3.226145e-08
-3.165981e-08
-3.095666e-08
-3.01549e-08
-2.925848e-08
-2.827248e-08
-2.72031e-08
-2.605769e-08
-2.484469e-08
-2.357365e-08
-2.225512e-08
-2.090067e-08
-1.952271e-08
-1.813447e-08
-1.674982e-08
-1.538317e-08
-1.40493e-08
-1.27632e-08
-1.153987e-08
-1.039419e-08
-9.34065e-09
-8.393226e-09
-7.565142e-09
-6.868692e-09
-6.31506e-09
-5.91414e-09
-5.674389e-09
-5.602683e-09
-5.704206e-09
-5.982356e-09
-6.438684e-09
-7.072856e-09
-7.882652e-09
-8.863986e-09
-1.001097e-08
-1.131597e-08
-1.276977e-08
-1.436166e-08
-1.60796e-08
-1.791044e-08
-1.984004e-08
-2.185352e-08
-2.393547e-08
-2.60701e-08
-2.824152e-08
-3.043386e-08
-3.26315e-08
-3.481923e-08
-3.698239e-08
-3.910696e-08
-4.117974e-08
-4.318837e-08
-4.51214e-08
-4.696833e-08
-4.871963e-08
-5.036672e-08
-5.190195e-08
-5.331859e-08
-5.461079e-08
-5.577358e-08
-5.680288e-08
-5.769553e-08
-5.84494e-08
-5.906358e-08
-5.953867e-08
-5.987719e-08
-6.008419e-08
-6.016798e-08
-6.014114e-08
-6.002182e-08
-5.983262e-08
-5.959343e-08
-5.935868e-08
-5.17492e-12
8.310382e-11
9.754345e-11
1.062237e-11
-1.638292e-10
-4.198024e-10
-7.522516e-10
-1.155179e-09
-1.622219e-09
-2.147063e-09
-2.723708e-09
-3.346616e-09
-4.010812e-09
-4.711917e-09
-5.446145e-09
-6.210257e-09
-7.001506e-09
-7.817555e-09
-8.656403e-09
-9.516294e-09
-1.039564e-08
-1.129296e-08
-1.220679e-08
-1.313563e-08
-1.40779e-08
-1.503189e-08
-1.59957e-08
-1.696723e-08
-1.794415e-08
-1.892387e-08
-1.990354e-08
-2.088003e-08
-2.184994e-08
-2.280958e-08
-2.375501e-08
-2.468201e-08
-2.558611e-08
-2.646263e-08
-2.730669e-08
-2.811322e-08
-2.887702e-08
-2.959278e-08
-3.025515e-08
-3.085874e-08
-3.139824e-08
-3.18684e-08
-3.226417e-08
-3.258072e-08
-3.281351e-08
-3.295839e-08
-3.301167e-08
-3.297018e-08
-3.283135e-08
-3.259331e-08
-3.225495e-08
-3.1816e-08
-3.127707e-08
-3.063976e-08
-2.990665e-08
-2.908141e-08
-2.816876e-08
-2.717457e-08
-2.610577e-08
-2.497044e-08
-2.377768e-08
-2.253764e-08
-2.126143e-08
-1.996104e-08
-1.864925e-08
-1.733951e-08
-1.604579e-08
-1.478244e-08
-1.356403e-08
-1.240519e-08
-1.132041e-08
-1.032382e-08
-9.429072e-09
-8.649074e-09
-7.995844e-09
-7.48031e-09
-7.112149e-09
-6.899627e-09
-6.849464e-09
-6.966723e-09
-7.254715e-09
-7.714941e-09
-8.347053e-09
-9.148854e-09
-1.011632e-08
-1.124366e-08
-1.252338e-08
-1.394644e-08
-1.550234e-08
-1.71793e-08
-1.896444e-08
-2.084395e-08
-2.280332e-08
-2.48275e-08
-2.690116e-08
-2.900883e-08
-3.113514e-08
-3.326495e-08
-3.538357e-08
-3.747686e-08
-3.953137e-08
-4.153444e-08
-4.347428e-08
-4.534002e-08
-4.712175e-08
-4.881053e-08
-5.039838e-08
-5.187826e-08
-5.324407e-08
-5.449059e-08
-5.561347e-08
-5.660925e-08
-5.747536e-08
-5.821019e-08
-5.881323e-08
-5.928524e-08
-5.962849e-08
-5.984714e-08
-5.994757e-08
-5.99389e-08
-5.983366e-08
-5.964424e-08
-5.936982e-08
-5.906665e-08
1.855353e-10
2.664846e-10
2.724139e-10
1.78164e-10
-3.049342e-14
-2.548934e-10
-5.810074e-10
-9.725619e-10
-1.423698e-09
-1.928763e-09
-2.482447e-09
-3.079878e-09
-3.716678e-09
-4.388994e-09
-5.093485e-09
-5.827284e-09
-6.587942e-09
-7.373371e-09
-8.181765e-09
-9.01153e-09
-9.861216e-09
-1.072945e-08
-1.161488e-08
-1.251611e-08
-1.343165e-08
-1.43599e-08
-1.529908e-08
-1.624719e-08
-1.720204e-08
-1.816118e-08
-1.91219e-08
-2.008125e-08
-2.103598e-08
-2.198259e-08
-2.29173e-08
-2.383607e-08
-2.473462e-08
-2.560845e-08
-2.645283e-08
-2.726286e-08
-2.803348e-08
-2.875954e-08
-2.943577e-08
-3.005689e-08
-3.061765e-08
-3.111287e-08
-3.153751e-08
-3.188672e-08
-3.215594e-08
-3.234095e-08
-3.243795e-08
-3.244364e-08
-3.235531e-08
-3.21709e-08
-3.188907e-08
-3.150931e-08
-3.103198e-08
-3.045835e-08
-2.979074e-08
-2.903245e-08
-2.818789e-08
-2.726256e-08
-2.626304e-08
-2.519704e-08
-2.407331e-08
-2.290162e-08
-2.169274e-08
-2.045831e-08
-1.921079e-08
-1.796328e-08
-1.672946e-08
-1.55234e-08
-1.435941e-08
-1.325186e-08
-1.221502e-08
-1.126283e-08
-1.040875e-08
-9.665533e-09
-9.045064e-09
-8.558154e-09
-8.214385e-09
-8.021945e-09
-7.987497e-09
-8.116062e-09
-8.410927e-09
-8.873581e-09
-9.503686e-09
-1.029907e-08
-1.125573e-08
-1.236795e-08
-1.362831e-08
-1.502784e-08
-1.655616e-08
-1.820162e-08
-1.995149e-08
-2.179216e-08
-2.370931e-08
-2.568812e-08
-2.771353e-08
-2.977035e-08
-3.184354e-08
-3.391833e-08
-3.598039e-08
-3.801599e-08
-4.001214e-08
-4.195663e-08
-4.383818e-08
-4.564644e-08
-4.737202e-08
-4.900656e-08
-5.054265e-08
-5.197386e-08
-5.329467e-08
-5.450045e-08
-5.558745e-08
-5.655273e-08
-5.739419e-08
-5.811059e-08
-5.870157e-08
-5.916774e-08
-5.951082e-08
-5.973373e-08
-5.984069e-08
-5.98374e-08
-5.973145e-08
-5.952714e-08
-5.920819e-08
-5.883711e-08
4.902382e-10
5.505646e-10
5.372668e-10
4.285649e-10
2.406051e-10
-1.890182e-11
-3.443612e-10
-7.301607e-10
-1.170875e-09
-1.661414e-09
-2.197077e-09
-2.773603e-09
-3.387194e-09
-4.034525e-09
-4.712725e-09
-5.419337e-09
-6.152268e-09
-6.909732e-09
-7.690183e-09
-8.49225e-09
-9.314678e-09
-1.015627e-08
-1.101582e-08
-1.18921e-08
-1.278376e-08
-1.368932e-08
-1.460715e-08
-1.553542e-08
-1.647205e-08
-1.741478e-08
-1.836104e-08
-1.930803e-08
-2.025269e-08
-2.119167e-08
-2.212136e-08
-2.303789e-08
-2.393712e-08
-2.48147e-08
-2.566603e-08
-2.648634e-08
-2.727068e-08
-2.801394e-08
-2.871095e-08
-2.935646e-08
-2.994521e-08
-3.047201e-08
-3.093177e-08
-3.131956e-08
-3.16307e-08
-3.186085e-08
-3.200603e-08
-3.206274e-08
-3.202804e-08
-3.189962e-08
-3.167589e-08
-3.135601e-08
-3.094005e-08
-3.042897e-08
-2.982472e-08
-2.913029e-08
-2.834974e-08
-2.748822e-08
-2.655199e-08
-2.55484e-08
-2.44859e-08
-2.337396e-08
-2.222306e-08
-2.104459e-08
-1.985075e-08
-1.865442e-08
-1.74691e-08
-1.630869e-08
-1.518734e-08
-1.411933e-08
-1.31188e-08
-1.219965e-08
-1.137528e-08
-1.065843e-08
-1.006095e-08
-9.593663e-09
-9.266167e-09
-9.086673e-09
-9.061872e-09
-9.196818e-09
-9.494833e-09
-9.957444e-09
-1.058434e-08
-1.137339e-08
-1.232063e-08
-1.342034e-08
-1.466515e-08
-1.604613e-08
-1.755291e-08
-1.917391e-08
-2.089643e-08
-2.270693e-08
-2.459118e-08
-2.653447e-08
-2.852186e-08
-3.053833e-08
-3.256902e-08
-3.459939e-08
-3.661539e-08
-3.860359e-08
-4.055132e-08
-4.244679e-08
-4.427911e-08
-4.603839e-08
-4.771575e-08
-4.930332e-08
-5.079425e-08
-5.218266e-08
-5.34636e-08
-5.4633e-08
-5.568764e-08
-5.662505e-08
-5.744352e-08
-5.814205e-08
-5.872032e-08
-5.917867e-08
-5.951814e-08
-5.97404e-08
-5.984764e-08
-5.984261e-08
-5.972896e-08
-5.950502e-08
-5.914362e-08
-5.871414e-08
9.041028e-10
9.316768e-10
8.886269e-10
7.578269e-10
5.536452e-10
2.836046e-10
-4.675308e-11
-4.321119e-10
-8.67498e-10
-1.34836e-09
-1.870583e-09
-2.430493e-09
-3.024868e-09
-3.650923e-09
-4.30628e-09
-4.988929e-09
-5.697175e-09
-6.429581e-09
-7.184915e-09
-7.962081e-09
-8.76007e-09
-9.577908e-09
-1.04146e-08
-1.12691e-08
-1.214024e-08
-1.302672e-08
-1.392708e-08
-1.483964e-08
-1.576252e-08
-1.669359e-08
-1.763048e-08
-1.857054e-08
-1.951087e-08
-2.044828e-08
-2.137931e-08
-2.230023e-08
-2.320703e-08
-2.409547e-08
-2.496106e-08
-2.57991e-08
-2.660467e-08
-2.737273e-08
-2.809808e-08
-2.877545e-08
-2.939953e-08
-2.996504e-08
-3.046675e-08
-3.089961e-08
-3.125874e-08
-3.153958e-08
-3.173793e-08
-3.185001e-08
-3.18726e-08
-3.180308e-08
-3.163951e-08
-3.138075e-08
-3.10265e-08
-3.057736e-08
-3.003494e-08
-2.940188e-08
-2.868188e-08
-2.787976e-08
-2.700148e-08
-2.605409e-08
-2.504575e-08
-2.39857e-08
-2.288418e-08
-2.17524e-08
-2.060239e-08
-1.944692e-08
-1.829937e-08
-1.717357e-08
-1.608367e-08
-1.50439e-08
-1.406847e-08
-1.31713e-08
-1.236586e-08
-1.166497e-08
-1.10806e-08
-1.062367e-08
-1.030389e-08
-1.01296e-08
-1.01076e-08
-1.024306e-08
-1.053939e-08
-1.099821e-08
-1.161929e-08
-1.240052e-08
-1.333801e-08
-1.442605e-08
-1.565727e-08
-1.702273e-08
-1.851205e-08
-2.011361e-08
-2.181471e-08
-2.360176e-08
-2.546052e-08
-2.737629e-08
-2.933413e-08
-3.131909e-08
-3.331637e-08
-3.531155e-08
-3.729074e-08
-3.92407e-08
-4.114902e-08
-4.300417e-08
-4.479563e-08
-4.651389e-08
-4.815048e-08
-4.969801e-08
-5.115011e-08
-5.250142e-08
-5.374752e-08
-5.488486e-08
-5.591068e-08
-5.682295e-08
-5.76203e-08
-5.830189e-08
-5.886739e-08
-5.931686e-08
-5.965069e-08
-5.986941e-08
-5.997351e-08
-5.996341e-08
-5.983981e-08
-5.959693e-08
-5.920038e-08
-5.872552e-08
1.418848e-09
1.403139e-09
1.320703e-09
1.160356e-09
9.335877e-10
6.473019e-10
3.06785e-10
-8.306665e-11
-5.177923e-10
-9.934053e-10
-1.506382e-09
-2.053649e-09
-2.63257e-09
-3.240916e-09
-3.87683e-09
-4.53878e-09
-5.225505e-09
-5.935963e-09
-6.669275e-09
-7.424666e-09
-8.201419e-09
-8.998824e-09
-9.816136e-09
-1.065253e-08
-1.150705e-08
-1.237861e-08
-1.326594e-08
-1.416755e-08
-1.508174e-08
-1.600657e-08
-1.693983e-08
-1.787905e-08
-1.882147e-08
-1.976406e-08
-2.070349e-08
-2.163614e-08
-2.255813e-08
-2.346527e-08
-2.435314e-08
-2.521707e-08
-2.605216e-08
-2.685331e-08
-2.761529e-08
-2.833272e-08
-2.900018e-08
-2.961222e-08
-3.016344e-08
-3.064854e-08
-3.106241e-08
-3.140019e-08
-3.165738e-08
-3.182987e-08
-3.191409e-08
-3.190706e-08
-3.180646e-08
-3.161077e-08
-3.13193e-08
-3.093228e-08
-3.045094e-08
-2.987756e-08
-2.92155e-08
-2.846926e-08
-2.764449e-08
-2.674797e-08
-2.578763e-08
-2.47725e-08
-2.371268e-08
-2.26192e-08
-2.150404e-08
-2.037989e-08
-1.926014e-08
-1.815863e-08
-1.708956e-08
-1.606728e-08
-1.510609e-08
-1.422008e-08
-1.342288e-08
-1.272751e-08
-1.214613e-08
-1.168989e-08
-1.13687e-08
-1.119111e-08
-1.116413e-08
-1.129309e-08
-1.15816e-08
-1.203141e-08
-1.26424e-08
-1.341259e-08
-1.43381e-08
-1.541328e-08
-1.663077e-08
-1.798158e-08
-1.945531e-08
-2.104025e-08
-2.272362e-08
-2.449175e-08
-2.63303e-08
-2.822449e-08
-3.01593e-08
-3.211972e-08
-3.409095e-08
-3.605856e-08
-3.800872e-08
-3.992829e-08
-4.180501e-08
-4.362756e-08
-4.538566e-08
-4.707011e-08
-4.86728e-08
-5.018674e-08
-5.160599e-08
-5.292566e-08
-5.41418e-08
-5.525133e-08
-5.625193e-08
-5.714196e-08
-5.792033e-08
-5.858638e-08
-5.913977e-08
-5.95803e-08
-5.990781e-08
-6.012195e-08
-6.022188e-08
-6.020628e-08
-6.00738e-08
-5.9816e-08
-5.93941e-08
-5.888788e-08
2.024428e-09
1.956451e-09
1.82611e-09
1.629342e-09
1.374032e-09
1.066171e-09
7.106356e-10
3.117835e-10
-1.26519e-10
-6.009012e-10
-1.108467e-09
-1.646771e-09
-2.213785e-09
-2.807862e-09
-3.427693e-09
-4.072256e-09
-4.740758e-09
-5.432585e-09
-6.147249e-09
-6.884336e-09
-7.643456e-09
-8.424201e-09
-9.226105e-09
-1.00486e-08
-1.089098e-08
-1.175239e-08
-1.263176e-08
-1.352782e-08
-1.443908e-08
-1.536377e-08
-1.629987e-08
-1.724507e-08
-1.819677e-08
-1.915206e-08
-2.010774e-08
-2.106028e-08
-2.200586e-08
-2.294036e-08
-2.385935e-08
-2.475817e-08
-2.563184e-08
-2.647521e-08
-2.728291e-08
-2.804942e-08
-2.876911e-08
-2.943631e-08
-3.004537e-08
-3.059068e-08
-3.106681e-08
-3.146857e-08
-3.179105e-08
-3.202979e-08
-3.218079e-08
-3.224064e-08
-3.220663e-08
-3.207679e-08
-3.185003e-08
-3.152618e-08
-3.110606e-08
-3.059158e-08
-2.998577e-08
-2.92928e-08
-2.851803e-08
-2.7668e-08
-2.675045e-08
-2.577422e-08
-2.474927e-08
-2.368659e-08
-2.25981e-08
-2.149651e-08
-2.039525e-08
-1.930828e-08
-1.824991e-08
-1.723468e-08
-1.627711e-08
-1.53915e-08
-1.459177e-08
-1.389122e-08
-1.33023e-08
-1.283647e-08
-1.250395e-08
-1.231357e-08
-1.227265e-08
-1.238678e-08
-1.265982e-08
-1.309373e-08
-1.368858e-08
-1.444251e-08
-1.535177e-08
-1.641076e-08
-1.761213e-08
-1.89469e-08
-2.040458e-08
-2.197339e-08
-2.364044e-08
-2.539191e-08
-2.721331e-08
-2.908972e-08
-3.100597e-08
-3.294692e-08
-3.489764e-08
-3.684365e-08
-3.877104e-08
-4.066671e-08
-4.251845e-08
-4.431505e-08
-4.604639e-08
-4.770349e-08
-4.927854e-08
-5.076487e-08
-5.215691e-08
-5.345016e-08
-5.46411e-08
-5.572707e-08
-5.670615e-08
-5.757707e-08
-5.8339e-08
-5.899145e-08
-5.95341e-08
-5.99666e-08
-6.028838e-08
-6.049844e-08
-6.0595e-08
-6.057555e-08
-6.04374e-08
-6.017055e-08
-5.973392e-08
-5.921001e-08
2.709882e-09
2.581997e-09
2.396351e-09
2.157025e-09
1.867783e-09
1.533518e-09
1.158574e-09
7.466616e-10
3.009652e-10
-1.758259e-10
-6.81494e-10
-1.214258e-09
-1.772733e-09
-2.355887e-09
-2.962989e-09
-3.593553e-09
-4.247285e-09
-4.924033e-09
-5.623733e-09
-6.346359e-09
-7.091882e-09
-7.860228e-09
-8.651235e-09
-9.464623e-09
-1.029996e-08
-1.115662e-08
-1.203381e-08
-1.293046e-08
-1.384528e-08
-1.477672e-08
-1.572293e-08
-1.668176e-08
-1.765076e-08
-1.862713e-08
-1.960776e-08
-2.058921e-08
-2.15677e-08
-2.253909e-08
-2.349896e-08
-2.444255e-08
-2.53648e-08
-2.626041e-08
-2.712382e-08
-2.79493e-08
-2.873096e-08
-2.946284e-08
-3.013893e-08
-3.07533e-08
-3.13001e-08
-3.177372e-08
-3.216885e-08
-3.248053e-08
-3.270433e-08
-3.283637e-08
-3.287345e-08
-3.281318e-08
-3.265399e-08
-3.239527e-08
-3.203747e-08
-3.158208e-08
-3.103179e-08
-3.039045e-08
-2.966315e-08
-2.88562e-08
-2.797713e-08
-2.703465e-08
-2.603864e-08
-2.500004e-08
-2.393076e-08
-2.28436e-08
-2.175208e-08
-2.067031e-08
-1.961283e-08
-1.85944e-08
-1.762983e-08
-1.673375e-08
-1.592042e-08
-1.52035e-08
-1.459585e-08
-1.410931e-08
-1.375451e-08
-1.354067e-08
-1.347547e-08
-1.356489e-08
-1.381311e-08
-1.422237e-08
-1.479302e-08
-1.55234e-08
-1.640993e-08
-1.744711e-08
-1.862765e-08
-1.994258e-08
-2.138137e-08
-2.293215e-08
-2.45819e-08
-2.631664e-08
-2.812172e-08
-2.998199e-08
-3.188209e-08
-3.380668e-08
-3.574065e-08
-3.766933e-08
-3.957873e-08
-4.145563e-08
-4.32878e-08
-4.506405e-08
-4.677434e-08
-4.840984e-08
-4.996292e-08
-5.142717e-08
-5.27973e-08
-5.406918e-08
-5.523962e-08
-5.630634e-08
-5.726779e-08
-5.812301e-08
-5.887145e-08
-5.951282e-08
-6.004684e-08
-6.04731e-08
-6.079079e-08
-6.09985e-08
-6.109386e-08
-6.107362e-08
-6.093427e-08
-6.066508e-08
-6.022424e-08
-5.969525e-08
3.463708e-09
3.2694e-09
3.022067e-09
2.734808e-09
2.40688e-09
2.041936e-09
1.643695e-09
1.215119e-09
7.586207e-10
2.761366e-10
-2.308518e-10
-7.612772e-10
-1.314438e-09
-1.889951e-09
-2.487692e-09
-3.107746e-09
-3.750345e-09
-4.415825e-09
-5.104573e-09
-5.816981e-09
-6.553405e-09
-7.314128e-09
-8.09932e-09
-8.90901e-09
-9.743052e-09
-1.06011e-08
-1.148261e-08
-1.238675e-08
-1.331245e-08
-1.425836e-08
-1.52228e-08
-1.620379e-08
-1.7199e-08
-1.820575e-08
-1.922099e-08
-2.024133e-08
-2.126298e-08
-2.228179e-08
-2.329324e-08
-2.429247e-08
-2.527425e-08
-2.623308e-08
-2.716317e-08
-2.805848e-08
-2.891282e-08
-2.971984e-08
-3.047314e-08
-3.116635e-08
-3.179318e-08
-3.234754e-08
-3.282359e-08
-3.32159e-08
-3.35195e-08
-3.373e-08
-3.384371e-08
-3.385771e-08
-3.376996e-08
-3.357941e-08
-3.328604e-08
-3.289097e-08
-3.239651e-08
-3.18062e-08
-3.112483e-08
-3.035849e-08
-2.951455e-08
-2.860158e-08
-2.762938e-08
-2.660888e-08
-2.555203e-08
-2.447172e-08
-2.338162e-08
-2.229606e-08
-2.122981e-08
-2.019795e-08
-1.921564e-08
-1.829789e-08
-1.74594e-08
-1.671427e-08
-1.607584e-08
-1.555643e-08
-1.516717e-08
-1.491777e-08
-1.48164e-08
-1.486949e-08
-1.508162e-08
-1.545548e-08
-1.599171e-08
-1.668898e-08
-1.754393e-08
-1.855126e-08
-1.970379e-08
-2.099259e-08
-2.240715e-08
-2.393552e-08
-2.556456e-08
-2.728014e-08
-2.90674e-08
-3.091097e-08
-3.279524e-08
-3.470461e-08
-3.662373e-08
-3.853771e-08
-4.043234e-08
-4.229423e-08
-4.411103e-08
-4.587149e-08
-4.756556e-08
-4.918445e-08
-5.072066e-08
-5.216792e-08
-5.352119e-08
-5.477656e-08
-5.593116e-08
-5.698303e-08
-5.793093e-08
-5.877419e-08
-5.951254e-08
-6.014587e-08
-6.067403e-08
-6.109664e-08
-6.141279e-08
-6.162085e-08
-6.171815e-08
-6.170105e-08
-6.156567e-08
-6.130108e-08
-6.086591e-08
-6.034313e-08
4.274012e-09
4.007689e-09
3.693181e-09
3.353346e-09
2.982616e-09
2.583287e-09
2.158367e-09
1.709972e-09
1.239656e-09
7.485267e-10
2.372641e-10
-2.938314e-10
-8.447869e-10
-1.415904e-09
-2.007701e-09
-2.62086e-09
-3.256166e-09
-3.914469e-09
-4.596631e-09
-5.303485e-09
-6.035791e-09
-6.794211e-09
-7.579267e-09
-8.391315e-09
-9.230518e-09
-1.009682e-08
-1.098993e-08
-1.190928e-08
-1.285402e-08
-1.382299e-08
-1.481471e-08
-1.582732e-08
-1.685862e-08
-1.790602e-08
-1.896652e-08
-2.003673e-08
-2.111282e-08
-2.219058e-08
-2.326535e-08
-2.433211e-08
-2.538542e-08
-2.64195e-08
-2.742825e-08
-2.84053e-08
-2.934405e-08
-3.023771e-08
-3.107942e-08
-3.186231e-08
-3.257957e-08
-3.322456e-08
-3.37909e-08
-3.427258e-08
-3.466407e-08
-3.496041e-08
-3.515736e-08
-3.525146e-08
-3.524015e-08
-3.51219e-08
-3.489622e-08
-3.456381e-08
-3.41266e-08
-3.358779e-08
-3.295188e-08
-3.222473e-08
-3.141352e-08
-3.05267e-08
-2.957402e-08
-2.856637e-08
-2.751579e-08
-2.643526e-08
-2.533864e-08
-2.42405e-08
-2.31559e-08
-2.210029e-08
-2.108922e-08
-2.013816e-08
-1.92623e-08
-1.847628e-08
-1.779399e-08
-1.722833e-08
-1.679104e-08
-1.649241e-08
-1.634119e-08
-1.634439e-08
-1.650713e-08
-1.683259e-08
-1.732188e-08
-1.797405e-08
-1.878609e-08
-1.975297e-08
-2.08677e-08
-2.212148e-08
-2.350385e-08
-2.500284e-08
-2.660524e-08
-2.829675e-08
-3.006233e-08
-3.188635e-08
-3.375295e-08
-3.564623e-08
-3.755054e-08
-3.94507e-08
-4.13322e-08
-4.318145e-08
-4.498586e-08
-4.673402e-08
-4.84158e-08
-5.002235e-08
-5.154618e-08
-5.298112e-08
-5.432225e-08
-5.556584e-08
-5.670925e-08
-5.775074e-08
-5.868938e-08
-5.952474e-08
-6.025681e-08
-6.088567e-08
-6.141137e-08
-6.183358e-08
-6.215145e-08
-6.23633e-08
-6.246636e-08
-6.245689e-08
-6.233092e-08
-6.207771e-08
-6.165722e-08
-6.115055e-08
5.128535e-09
4.78537e-09
4.398974e-09
4.002601e-09
3.585562e-09
3.148691e-09
2.694197e-09
2.223258e-09
1.736478e-09
1.234054e-09
7.157964e-10
1.811821e-10
-3.705921e-10
-9.40553e-10
-1.529895e-09
-2.139924e-09
-2.772007e-09
-3.427527e-09
-4.107844e-09
-4.814246e-09
-5.54792e-09
-6.309921e-09
-7.10114e-09
-7.922277e-09
-8.773815e-09
-9.656e-09
-1.056881e-08
-1.151194e-08
-1.248476e-08
-1.348632e-08
-1.451529e-08
-1.556997e-08
-1.664824e-08
-1.774758e-08
-1.886501e-08
-1.999711e-08
-2.113999e-08
-2.22893e-08
-2.344022e-08
-2.458749e-08
-2.57254e-08
-2.684785e-08
-2.794836e-08
-2.902014e-08
-3.005613e-08
-3.104904e-08
-3.199148e-08
-3.287601e-08
-3.369524e-08
-3.444191e-08
-3.510905e-08
-3.569001e-08
-3.617865e-08
-3.65694e-08
-3.685742e-08
-3.703867e-08
-3.711004e-08
-3.706945e-08
-3.691594e-08
-3.664975e-08
-3.627241e-08
-3.578673e-08
-3.519693e-08
-3.45086e-08
-3.372874e-08
-3.286565e-08
-3.192901e-08
-3.092971e-08
-2.987983e-08
-2.87925e-08
-2.768175e-08
-2.656241e-08
-2.54499e-08
-2.436003e-08
-2.33088e-08
-2.231222e-08
-2.138603e-08
-2.054547e-08
-1.980508e-08
-1.917845e-08
-1.867799e-08
-1.831471e-08
-1.809807e-08
-1.803574e-08
-1.813354e-08
-1.839525e-08
-1.882257e-08
-1.941508e-08
-2.017022e-08
-2.108333e-08
-2.214773e-08
-2.335485e-08
-2.469434e-08
-2.615429e-08
-2.772145e-08
-2.938142e-08
-3.111897e-08
-3.291825e-08
-3.47631e-08
-3.663732e-08
-3.852491e-08
-4.041034e-08
-4.227878e-08
-4.41163e-08
-4.591002e-08
-4.764829e-08
-4.932076e-08
-5.091846e-08
-5.243382e-08
-5.386065e-08
-5.519406e-08
-5.643043e-08
-5.756723e-08
-5.860294e-08
-5.953679e-08
-6.036861e-08
-6.109859e-08
-6.172704e-08
-6.225417e-08
-6.267983e-08
-6.300326e-08
-6.322287e-08
-6.333598e-08
-6.333893e-08
-6.322784e-08
-6.299245e-08
-6.259469e-08
-6.211265e-08
6.014626e-09
5.590438e-09
5.128119e-09
4.671861e-09
4.205576e-09
3.728521e-09
3.242019e-09
2.74621e-09
2.240654e-09
1.724554e-09
1.196782e-09
6.559276e-10
1.003628e-10
-4.717057e-10
-1.062181e-09
-1.673024e-09
-2.306204e-09
-2.96366e-09
-3.647262e-09
-4.358774e-09
-5.099823e-09
-5.871871e-09
-6.676191e-09
-7.513838e-09
-8.385629e-09
-9.292117e-09
-1.023356e-08
-1.120992e-08
-1.222078e-08
-1.326538e-08
-1.434257e-08
-1.545075e-08
-1.658791e-08
-1.775153e-08
-1.893864e-08
-2.014575e-08
-2.136885e-08
-2.260343e-08
-2.384443e-08
-2.508631e-08
-2.632303e-08
-2.754811e-08
-2.875462e-08
-2.993529e-08
-3.108252e-08
-3.218847e-08
-3.324514e-08
-3.424447e-08
-3.517842e-08
-3.603907e-08
-3.681876e-08
-3.75102e-08
-3.810655e-08
-3.86016e-08
-3.898984e-08
-3.926661e-08
-3.942822e-08
-3.9472e-08
-3.939647e-08
-3.920138e-08
-3.88878e-08
-3.845816e-08
-3.791631e-08
-3.726759e-08
-3.651875e-08
-3.567795e-08
-3.475476e-08
-3.376005e-08
-3.270594e-08
-3.160568e-08
-3.047351e-08
-2.932452e-08
-2.817448e-08
-2.703962e-08
-2.593644e-08
-2.488151e-08
-2.389117e-08
-2.298138e-08
-2.216741e-08
-2.146359e-08
-2.088316e-08
-2.043796e-08
-2.013825e-08
-1.999256e-08
-2.000748e-08
-2.018758e-08
-2.053528e-08
-2.105083e-08
-2.173226e-08
-2.257543e-08
-2.357409e-08
-2.471999e-08
-2.600302e-08
-2.741143e-08
-2.893197e-08
-3.055023e-08
-3.225081e-08
-3.401767e-08
-3.583437e-08
-3.768436e-08
-3.955129e-08
-4.141924e-08
-4.327297e-08
-4.509815e-08
-4.688155e-08
-4.861118e-08
-5.027637e-08
-5.186792e-08
-5.337807e-08
-5.48005e-08
-5.613028e-08
-5.736378e-08
-5.849853e-08
-5.953307e-08
-6.046679e-08
-6.129969e-08
-6.203213e-08
-6.266462e-08
-6.319755e-08
-6.363096e-08
-6.396426e-08
-6.419604e-08
-6.432378e-08
-6.434405e-08
-6.42532e-08
-6.404162e-08
-6.367365e-08
-6.322347e-08
6.919192e-09
6.410364e-09
5.868686e-09
5.349752e-09
4.831803e-09
4.312398e-09
3.791876e-09
3.269233e-09
2.742889e-09
2.210967e-09
1.671323e-09
1.121599e-09
5.592908e-10
-1.820406e-11
-6.135317e-10
-1.229333e-09
-1.868202e-09
-2.532652e-09
-3.225081e-09
-3.947738e-09
-4.702702e-09
-5.491856e-09
-6.316865e-09
-7.17915e-09
-8.079867e-09
-9.019883e-09
-9.999747e-09
-1.101966e-08
-1.207944e-08
-1.317852e-08
-1.431588e-08
-1.549003e-08
-1.669902e-08
-1.794034e-08
-1.921097e-08
-2.050732e-08
-2.182521e-08
-2.31599e-08
-2.450607e-08
-2.585783e-08
-2.720876e-08
-2.855191e-08
-2.987986e-08
-3.118478e-08
-3.245848e-08
-3.369249e-08
-3.487817e-08
-3.600674e-08
-3.706947e-08
-3.805771e-08
-3.896309e-08
-3.977757e-08
-4.049359e-08
-4.110422e-08
-4.160327e-08
-4.198539e-08
-4.224624e-08
-4.238255e-08
-4.239225e-08
-4.227455e-08
-4.203001e-08
-4.166065e-08
-4.11699e-08
-4.056278e-08
-3.984578e-08
-3.902687e-08
-3.811546e-08
-3.712238e-08
-3.605978e-08
-3.4941e-08
-3.378046e-08
-3.259354e-08
-3.139633e-08
-3.020553e-08
-2.903816e-08
-2.791139e-08
-2.684226e-08
-2.584746e-08
-2.494309e-08
-2.414437e-08
-2.346543e-08
-2.291907e-08
-2.251653e-08
-2.22673e-08
-2.217893e-08
-2.225692e-08
-2.250459e-08
-2.292301e-08
-2.351097e-08
-2.4265e-08
-2.517945e-08
-2.624652e-08
-2.745649e-08
-2.879783e-08
-3.025746e-08
-3.182098e-08
-3.347293e-08
-3.519707e-08
-3.697672e-08
-3.879501e-08
-4.063519e-08
-4.248091e-08
-4.43165e-08
-4.612715e-08
-4.789918e-08
-4.962017e-08
-5.127906e-08
-5.286629e-08
-5.437381e-08
-5.579505e-08
-5.712491e-08
-5.835965e-08
-5.949676e-08
-6.053479e-08
-6.147316e-08
-6.231197e-08
-6.305171e-08
-6.369304e-08
-6.423652e-08
-6.468237e-08
-6.503022e-08
-6.527884e-08
-6.542599e-08
-6.546851e-08
-6.540305e-08
-6.522076e-08
-6.488872e-08
-6.447643e-08
7.828646e-09
7.232065e-09
6.608135e-09
6.024243e-09
5.452685e-09
4.889195e-09
4.333019e-09
3.781901e-09
3.233017e-09
2.683319e-09
2.12957e-09
1.568403e-09
9.963827e-10
4.100565e-10
-1.939977e-10
-8.191278e-10
-1.468572e-09
-2.145434e-09
-2.85265e-09
-3.592971e-09
-4.368936e-09
-5.182858e-09
-6.036802e-09
-6.932563e-09
-7.871641e-09
-8.85522e-09
-9.884132e-09
-1.095883e-08
-1.207935e-08
-1.32453e-08
-1.445579e-08
-1.570942e-08
-1.700425e-08
-1.833777e-08
-1.970687e-08
-2.110779e-08
-2.253617e-08
-2.398699e-08
-2.54546e-08
-2.69327e-08
-2.841442e-08
-2.98923e-08
-3.135837e-08
-3.280417e-08
-3.422086e-08
-3.559928e-08
-3.693005e-08
-3.820367e-08
-3.941063e-08
-4.05415e-08
-4.158712e-08
-4.253866e-08
-4.33878e-08
-4.412683e-08
-4.47488e-08
-4.524765e-08
-4.561831e-08
-4.585686e-08
-4.596056e-08
-4.592805e-08
-4.575935e-08
-4.545593e-08
-4.50208e-08
-4.44586e-08
-4.377549e-08
-4.297918e-08
-4.207891e-08
-4.10854e-08
-4.001078e-08
-3.886845e-08
-3.767302e-08
-3.644008e-08
-3.518612e-08
-3.392825e-08
-3.268407e-08
-3.147136e-08
-3.030793e-08
-2.921128e-08
-2.81984e-08
-2.728551e-08
-2.648777e-08
-2.581906e-08
-2.529173e-08
-2.49164e-08
-2.470176e-08
-2.465441e-08
-2.477876e-08
-2.507688e-08
-2.554852e-08
-2.619108e-08
-2.699963e-08
-2.796706e-08
-2.908413e-08
-3.033973e-08
-3.172104e-08
-3.321377e-08
-3.480249e-08
-3.647084e-08
-3.820193e-08
-3.997857e-08
-4.178361e-08
-4.360027e-08
-4.541235e-08
-4.720455e-08
-4.896264e-08
-5.067367e-08
-5.23261e-08
-5.390989e-08
-5.541658e-08
-5.683923e-08
-5.817246e-08
-5.941228e-08
-6.055602e-08
-6.160214e-08
-6.255001e-08
-6.339972e-08
-6.415182e-08
-6.480707e-08
-6.536616e-08
-6.582947e-08
-6.619679e-08
-6.646716e-08
-6.663859e-08
-6.670825e-08
-6.667308e-08
-6.652505e-08
-6.623419e-08
-6.586478e-08
8.728862e-09
8.041889e-09
7.333315e-09
6.682646e-09
6.055967e-09
5.447045e-09
4.85392e-09
4.272962e-09
3.700001e-09
3.130724e-09
2.560724e-09
1.985558e-09
1.400807e-09
8.021273e-10
1.852893e-10
-4.537865e-10
-1.119002e-09
-1.814064e-09
-2.542464e-09
-3.307459e-09
-4.11206e-09
-4.959018e-09
-5.850804e-09
-6.789591e-09
-7.777226e-09
-8.815208e-09
-9.904654e-09
-1.104626e-08
-1.224028e-08
-1.348646e-08
-1.478403e-08
-1.613167e-08
-1.752743e-08
-1.896872e-08
-2.045233e-08
-2.197431e-08
-2.353003e-08
-2.511416e-08
-2.672064e-08
-2.834275e-08
-2.997309e-08
-3.160363e-08
-3.322576e-08
-3.483036e-08
-3.640788e-08
-3.79484e-08
-3.944176e-08
-4.087766e-08
-4.224573e-08
-4.353576e-08
-4.47377e-08
-4.584189e-08
-4.683918e-08
-4.772102e-08
-4.847966e-08
-4.910824e-08