/*--------------------------------*- C++ -*----------------------------------*\
| =========                 |                                                 |
| \\      /  F ield         | OpenFOAM: The Open Source CFD Toolbox           |
|  \\    /   O peration     | Version:  2406                                  |
|   \\  /    A nd           | Website:  www.openfoam.com                      |
|    \\/     M anipulation  |                                                 |
\*---------------------------------------------------------------------------*/
FoamFile
{
    version     2.0;
    format      ascii;
    arch        "LSB;label=32;scalar=64";
    class       surfaceScalarField;
    location    "4748";
    object      phi;
}
// * * * * * * * * * * * * * * * * * * * * * * * * * * * * * * * * * * * * * //

dimensions      [0 3 -1 0 0 0 0];

oriented        oriented;

internalField   nonuniform List<scalar> 
32512
(
4.967738e-11
-5.771855e-11
2.507972e-10
-2.011023e-10
5.488481e-10
-2.980704e-10
8.863963e-10
-3.375484e-10
1.218976e-09
-3.325889e-10
1.515169e-09
-2.961926e-10
1.753995e-09
-2.388204e-10
1.922309e-09
-1.683136e-10
2.012621e-09
-9.031618e-11
2.021403e-09
-8.788151e-12
1.947844e-09
7.355528e-11
1.792925e-09
1.549195e-10
1.558738e-09
2.34189e-10
1.247995e-09
3.107463e-10
8.636615e-10
3.843356e-10
4.087022e-10
4.549586e-10
-1.140946e-10
5.227949e-10
-7.02231e-10
5.881365e-10
-1.353565e-09
6.513352e-10
-2.066329e-09
7.127669e-10
-2.839128e-09
7.728029e-10
-3.67091e-09
8.317854e-10
-4.560923e-09
8.900134e-10
-5.508658e-09
9.477328e-10
-6.513787e-09
1.005128e-09
-7.576102e-09
1.062316e-09
-8.695447e-09
1.119347e-09
-9.871649e-09
1.176205e-09
-1.110445e-08
1.232807e-09
-1.239346e-08
1.289011e-09
-1.373808e-08
1.344615e-09
-1.513744e-08
1.399366e-09
-1.65904e-08
1.45296e-09
-1.809545e-08
1.505047e-09
-1.965068e-08
1.555237e-09
-2.125378e-08
1.603103e-09
-2.290197e-08
1.648188e-09
-2.459197e-08
1.690004e-09
-2.632001e-08
1.728045e-09
-2.80818e-08
1.761784e-09
-2.987247e-08
1.79068e-09
-3.168665e-08
1.814185e-09
-3.351839e-08
1.831744e-09
-3.53612e-08
1.842806e-09
-3.720802e-08
1.846828e-09
-3.90513e-08
1.843278e-09
-4.088294e-08
1.831647e-09
-4.269439e-08
1.811451e-09
-4.447663e-08
1.78224e-09
-4.622023e-08
1.743604e-09
-4.791541e-08
1.695181e-09
-4.955207e-08
1.636667e-09
-5.111989e-08
1.567818e-09
-5.260835e-08
1.488463e-09
-5.400686e-08
1.398508e-09
-5.53048e-08
1.297943e-09
-5.649165e-08
1.186847e-09
-5.755704e-08
1.065399e-09
-5.849092e-08
9.338756e-10
-5.928358e-08
7.926615e-10
-5.992583e-08
6.422495e-10
-6.040907e-08
4.83243e-10
-6.072543e-08
3.163568e-10
-6.086784e-08
1.424162e-10
-6.08302e-08
-3.76459e-11
-6.06074e-08
-2.227934e-10
-6.019552e-08
-4.118886e-10
-5.959182e-08
-6.037008e-10
-5.87949e-08
-7.969159e-10
-5.780476e-08
-9.901474e-10
-5.662281e-08
-1.181948e-09
-5.525199e-08
-1.370824e-09
-5.369674e-08
-1.555252e-09
-5.196305e-08
-1.73369e-09
-5.005845e-08
-1.904604e-09
-4.799197e-08
-2.06648e-09
-4.577413e-08
-2.217847e-09
-4.341684e-08
-2.357293e-09
-4.093335e-08
-2.483493e-09
-3.833814e-08
-2.595219e-09
-3.564677e-08
-2.691366e-09
-3.287581e-08
-2.770968e-09
-3.00426e-08
-2.833212e-09
-2.716515e-08
-2.877456e-09
-2.426192e-08
-2.903239e-09
-2.135164e-08
-2.91029e-09
-1.84531e-08
-2.898538e-09
-1.5585e-08
-2.868109e-09
-1.276567e-08
-2.819334e-09
-1.001294e-08
-2.75274e-09
-7.343899e-09
-2.669044e-09
-4.774758e-09
-2.569146e-09
-2.32065e-09
-2.454112e-09
4.50004e-12
-2.325155e-09
2.188128e-09
-2.183632e-09
4.219129e-09
-2.031004e-09
6.087937e-09
-1.868812e-09
7.786599e-09
-1.698665e-09
9.308813e-09
-1.522216e-09
1.064994e-08
-1.341128e-09
1.180699e-08
-1.157055e-09
1.277861e-08
-9.7162e-10
1.3565e-08
-7.863923e-10
1.416787e-08
-6.028718e-10
1.459035e-08
-4.224746e-10
1.483687e-08
-2.465235e-10
1.491311e-08
-7.624359e-11
1.482588e-08
8.723679e-11
1.4583e-08
2.42882e-10
1.419327e-08
3.897301e-10
1.36664e-08
5.268721e-10
1.301298e-08
6.53421e-10
1.224451e-08
7.684718e-10
1.137346e-08
8.710507e-10
1.04134e-08
9.60053e-10
9.379238e-09
1.034168e-09
8.28745e-09
1.09179e-09
7.156535e-09
1.130917e-09
6.007504e-09
1.149033e-09
4.864514e-09
1.142993e-09
3.755606e-09
1.108912e-09
2.713476e-09
1.042133e-09
1.776082e-09
9.37395e-10
9.865252e-10
7.895568e-10
3.909035e-10
5.956228e-10
3.139822e-11
3.595133e-10
-7.401137e-11
1.054291e-10
-7.399125e-11
1.983599e-10
-2.560608e-10
6.852787e-10
-6.880526e-10
1.344913e-09
-9.577071e-10
2.066324e-09
-1.058966e-09
2.757759e-09
-1.024022e-09
3.349389e-09
-8.878114e-10
3.791051e-09
-6.804798e-10
4.048749e-09
-4.2602e-10
4.10111e-09
-1.426852e-10
3.936253e-09
1.560643e-10
3.549219e-09
4.605889e-10
2.939913e-09
7.642295e-10
2.111487e-09
1.062621e-09
1.069094e-09
1.353143e-09
-1.810504e-10
1.63448e-09
-1.632366e-09
1.906272e-09
-3.278403e-09
2.168831e-09
-5.113175e-09
2.422911e-09
-7.131365e-09
2.669529e-09
-9.328417e-09
2.909826e-09
-1.170056e-08
3.144949e-09
-1.424475e-08
3.375975e-09
-1.695858e-08
3.603843e-09
-1.984016e-08
3.829313e-09
-2.288797e-08
4.052932e-09
-2.610067e-08
4.275019e-09
-2.947697e-08
4.495654e-09
-3.301544e-08
4.71468e-09
-3.671434e-08
4.931706e-09
-4.057145e-08
5.146121e-09
-4.458394e-08
5.357103e-09
-4.874821e-08
5.563636e-09
-5.305977e-08
5.764522e-09
-5.751312e-08
5.9584e-09
-6.210165e-08
6.143763e-09
-6.681752e-08
6.318975e-09
-7.165162e-08
6.482287e-09
-7.659347e-08
6.63186e-09
-8.163121e-08
6.765778e-09
-8.675149e-08
6.882067e-09
-9.193952e-08
6.978715e-09
-9.717902e-08
7.053689e-09
-1.024522e-07
7.10496e-09
-1.077399e-07
7.130519e-09
-1.130215e-07
7.128404e-09
-1.18275e-07
7.096722e-09
-1.23477e-07
7.033669e-09
-1.286031e-07
6.937562e-09
-1.336277e-07
6.806858e-09
-1.385243e-07
6.640183e-09
-1.432655e-07
6.43636e-09
-1.478232e-07
6.194432e-09
-1.521691e-07
5.913689e-09
-1.562743e-07
5.593696e-09
-1.601101e-07
5.23431e-09
-1.636479e-07
4.835707e-09
-1.668595e-07
4.398403e-09
-1.697173e-07
3.923266e-09
-1.72195e-07
3.411539e-09
-1.742672e-07
2.864844e-09
-1.759101e-07
2.285195e-09
-1.771019e-07
1.674997e-09
-1.778226e-07
1.03705e-09
-1.780547e-07
3.745369e-10
-1.777834e-07
-3.089821e-10
-1.769966e-07
-1.009593e-09
-1.756854e-07
-1.72304e-09
-1.738444e-07
-2.444755e-09
-1.714714e-07
-3.169896e-09
-1.685681e-07
-3.893386e-09
-1.651401e-07
-4.609954e-09
-1.611968e-07
-5.314188e-09
-1.567514e-07
-6.000589e-09
-1.518215e-07
-6.663625e-09
-1.464283e-07
-7.297802e-09
-1.405971e-07
-7.89772e-09
-1.343568e-07
-8.458145e-09
-1.2774e-07
-8.974077e-09
-1.207827e-07
-9.440817e-09
-1.135239e-07
-9.854034e-09
-1.060054e-07
-1.020983e-08
-9.827159e-08
-1.050479e-08
-9.036875e-08
-1.073606e-08
-8.234484e-08
-1.090137e-08
-7.4249e-08
-1.099909e-08
-6.613103e-08
-1.102826e-08
-5.804095e-08
-1.098862e-08
-5.002848e-08
-1.088059e-08
-4.214251e-08
-1.070531e-08
-3.443063e-08
-1.046463e-08
-2.693864e-08
-1.016103e-08
-1.971011e-08
-9.797683e-09
-1.278591e-08
-9.378315e-09
-6.203854e-09
-8.907214e-09
1.655148e-12
-8.389145e-09
5.799919e-09
-7.829272e-09
1.116421e-08
-7.233108e-09
1.607195e-08
-6.606408e-09
2.050482e-08
-5.955085e-09
2.444884e-08
-5.285142e-09
2.789436e-08
-4.602581e-09
3.083607e-08
-3.913328e-09
3.327284e-08
-3.223161e-09
3.520762e-08
-2.537651e-09
3.664726e-08
-1.862112e-09
3.76023e-08
-1.201566e-09
3.808678e-08
-5.607257e-10
3.811802e-08
5.600485e-11
3.771639e-08
6.445091e-10
3.690521e-08
1.20091e-09
3.571059e-08
1.721492e-09
3.416141e-08
2.202606e-09
3.228935e-08
2.640533e-09
3.012908e-08
3.031324e-09
2.771853e-08
3.370606e-09
2.509935e-08
3.65335e-09
2.231752e-08
3.873625e-09
1.942412e-08
4.024319e-09
1.647628e-08
4.096876e-09
1.353819e-08
4.081082e-09
1.068211e-08
3.964998e-09
7.988987e-09
3.735257e-09
5.548245e-09
3.378143e-09
3.455406e-09
2.882401e-09
1.805484e-09
2.245537e-09
6.780875e-10
1.486885e-09
1.056086e-10
6.778724e-10
3.163014e-11
2.997185e-10
-5.557952e-10
9.612907e-10
-1.349627e-09
1.807219e-09
-1.803641e-09
2.694708e-09
-1.946455e-09
3.507097e-09
-1.836396e-09
4.153099e-09
-1.533806e-09
4.564613e-09
-1.091998e-09
4.69341e-09
-5.548255e-10
4.507512e-09
4.320784e-11
3.987723e-09
6.758511e-10
3.124562e-09
1.323752e-09
1.915644e-09
1.973154e-09
3.635314e-10
2.61474e-09
-1.525987e-09
3.242664e-09
-3.745236e-09
3.853727e-09
-6.28567e-09
4.446703e-09
-9.138622e-09
5.021782e-09
-1.229582e-08
5.580109e-09
-1.57497e-08
6.123418e-09
-1.94936e-08
6.653733e-09
-2.352179e-08
7.17314e-09
-2.782942e-08
7.6836e-09
-3.24124e-08
8.186821e-09
-3.726724e-08
8.684152e-09
-4.239083e-08
9.176521e-09
-4.77802e-08
9.664391e-09
-5.343228e-08
1.014774e-08
-5.934365e-08
1.062605e-08
-6.551028e-08
1.109833e-08
-7.19273e-08
1.156314e-08
-7.858877e-08
1.201857e-08
-8.548747e-08
1.246233e-08
-9.26147e-08
1.289175e-08
-9.996012e-08
1.330383e-08
-1.075116e-07
1.369524e-08
-1.152551e-07
1.406243e-08
-1.231744e-07
1.440161e-08
-1.312513e-07
1.470878e-08
-1.394654e-07
1.497985e-08
-1.477939e-07
1.521059e-08
-1.562119e-07
1.539672e-08
-1.646922e-07
1.553394e-08
-1.732052e-07
1.5618e-08
-1.817194e-07
1.564472e-08
-1.90201e-07
1.561002e-08
-1.986143e-07
1.551004e-08
-2.069218e-07
1.534111e-08
-2.150841e-07
1.509986e-08
-2.230605e-07
1.478326e-08
-2.308089e-07
1.438864e-08
-2.382864e-07
1.391381e-08
-2.45449e-07
1.335705e-08
-2.522525e-07
1.271718e-08
-2.586525e-07
1.199364e-08
-2.646046e-07
1.118648e-08
-2.700654e-07
1.029645e-08
-2.74992e-07
9.325019e-09
-2.793431e-07
8.274391e-09
-2.830791e-07
7.147556e-09
-2.861626e-07
5.948291e-09
-2.885586e-07
4.681177e-09
-2.902352e-07
3.351596e-09
-2.911639e-07
1.965726e-09
-2.913198e-07
5.30519e-10
-2.906825e-07
-9.463232e-10
-2.892357e-07
-2.456394e-09
-2.869681e-07
-3.990618e-09
-2.838736e-07
-5.53932e-09
-2.799512e-07
-7.0923e-09
-2.752056e-07
-8.63891e-09
-2.696474e-07
-1.016815e-08
-2.632929e-07
-1.166877e-08
-2.561641e-07
-1.312937e-08
-2.482891e-07
-1.453854e-08
-2.39702e-07
-1.588497e-08
-2.304421e-07
-1.715756e-08
-2.205547e-07
-1.834559e-08
-2.100899e-07
-1.943884e-08
-1.99103e-07
-2.042771e-08
-1.876537e-07
-2.130337e-08
-1.758057e-07
-2.205787e-08
-1.636262e-07
-2.268427e-08
-1.511855e-07
-2.317674e-08
-1.385562e-07
-2.353065e-08
-1.258126e-07
-2.374267e-08
-1.130301e-07
-2.381082e-08
-1.002842e-07
-2.373449e-08
-8.765025e-08
-2.351455e-08
-7.520233e-08
-2.315324e-08
-6.301272e-08
-2.265424e-08
-5.115116e-08
-2.202259e-08
-3.968419e-08
-2.126465e-08
-2.86745e-08
-2.0388e-08
-1.818039e-08
-1.940133e-08
-8.255192e-09
-1.831434e-08
1.05313e-09
-1.713759e-08
9.702381e-09
-1.588236e-08
1.765646e-08
-1.456048e-08
2.488557e-08
-1.31842e-08
3.136637e-08
-1.176594e-08
3.708202e-08
-1.031823e-08
4.202218e-08
-8.853489e-09
4.618292e-08
-7.383895e-09
4.956655e-08
-5.921281e-09
5.218145e-08
-4.477018e-09
5.404184e-08
-3.061946e-09
5.516744e-08
-1.686332e-09
5.558332e-08
-3.598709e-10
5.531955e-08
9.082763e-10
5.441106e-08
2.109405e-09
5.289744e-08
3.235113e-09
5.082292e-08
4.277118e-09
4.823644e-08
5.227014e-09
4.51918e-08
6.075967e-09
4.174805e-08
6.814363e-09
3.796998e-08
7.431414e-09
3.392888e-08
7.914732e-09
2.970329e-08
8.249908e-09
2.538e-08
8.420164e-09
2.105491e-08
8.406178e-09
1.683361e-08
8.186298e-09
1.283134e-08
7.737525e-09
9.171519e-09
7.037966e-09
5.98181e-09
6.072124e-09
3.386089e-09
4.84128e-09
1.490322e-09
3.382666e-09
3.607861e-10
1.807392e-09
3.924193e-10
3.421308e-10
-8.979257e-10
1.06618e-09
-2.073682e-09
1.951354e-09
-2.688815e-09
2.831046e-09
-2.826134e-09
3.573345e-09
-2.578686e-09
4.07513e-09
-2.035593e-09
4.258346e-09
-1.275221e-09
4.066405e-09
-3.62892e-10
3.460596e-09
6.490128e-10
2.416624e-09
1.719823e-09
9.214422e-10
2.818941e-09
-1.029556e-09
3.924159e-09
-3.434904e-09
5.020092e-09
-6.289023e-09
6.096781e-09
-9.583784e-09
7.148485e-09
-1.330973e-08
8.172646e-09
-1.745697e-08
9.169024e-09
-2.201582e-08
1.013897e-08
-2.697723e-08
1.108483e-08
-3.233297e-08
1.200948e-08
-3.807574e-08
1.29159e-08
-4.419907e-08
1.380693e-08
-5.069726e-08
1.4685e-08
-5.756507e-08
1.555197e-08
-6.479756e-08
1.640901e-08
-7.238974e-08
1.725657e-08
-8.033626e-08
1.809426e-08
-8.863114e-08
1.892093e-08
-9.726742e-08
1.973461e-08
-1.062369e-07
2.053259e-08
-1.155297e-07
2.131143e-08
-1.251344e-07
2.206702e-08
-1.350373e-07
2.279464e-08
-1.452225e-07
2.348902e-08
-1.556717e-07
2.41444e-08
-1.663639e-07
2.475461e-08
-1.772754e-07
2.531311e-08
-1.883797e-07
2.581312e-08
-1.996475e-07
2.624761e-08
-2.110463e-07
2.660944e-08
-2.22541e-07
2.689141e-08
-2.340934e-07
2.708631e-08
-2.456625e-07
2.718708e-08
-2.572045e-07
2.718678e-08
-2.686733e-07
2.707878e-08
-2.8002e-07
2.685678e-08
-2.911938e-07
2.65149e-08
-3.021418e-07
2.604782e-08
-3.128093e-07
2.545081e-08
-3.231405e-07
2.471982e-08
-3.330783e-07
2.385163e-08
-3.425651e-07
2.284385e-08
-3.51543e-07
2.169507e-08
-3.599543e-07
2.040488e-08
-3.677418e-07
1.897397e-08
-3.748495e-07
1.740418e-08
-3.81223e-07
1.569856e-08
-3.868101e-07
1.386141e-08
-3.915608e-07
1.18983e-08
-3.954286e-07
9.816098e-09
-3.983704e-07
7.622994e-09
-4.003473e-07
5.328461e-09
-4.013248e-07
2.943252e-09
-4.012737e-07
4.793561e-10
-4.001699e-07
-2.050051e-09
-3.979956e-07
-4.630688e-09
-3.94739e-07
-7.247235e-09
-3.903949e-07
-9.883453e-09
-3.849649e-07
-1.25223e-08
-3.784577e-07
-1.514608e-08
-3.708893e-07
-1.773656e-08
-3.622829e-07
-2.027518e-08
-3.526691e-07
-2.27432e-08
-3.420857e-07
-2.512187e-08
-3.30578e-07
-2.739268e-08
-3.18198e-07
-2.953754e-08
-3.050047e-07
-3.153896e-08
-2.910632e-07
-3.338031e-08
-2.764449e-07
-3.504598e-08
-2.612267e-07
-3.652163e-08
-2.454902e-07
-3.779435e-08
-2.293216e-07
-3.885287e-08
-2.128107e-07
-3.96877e-08
-1.9605e-07
-4.02913e-08
-1.791345e-07
-4.065821e-08
-1.621602e-07
-4.078514e-08
-1.452236e-07
-4.067105e-08
-1.28421e-07
-4.031719e-08
-1.118471e-07
-3.972711e-08
-9.559469e-08
-3.890666e-08
-7.97534e-08
-3.786388e-08
-6.440909e-08
-3.660897e-08
-4.964298e-08
-3.515411e-08
-3.553096e-08
-3.351335e-08
-2.214291e-08
-3.170239e-08
-9.542101e-09
-2.97384e-08
2.215289e-09
-2.763975e-08
1.308061e-08
-2.54258e-08
2.301305e-08
-2.311664e-08
3.197992e-08
-2.073282e-08
3.995675e-08
-1.829506e-08
4.69273e-08
-1.582405e-08
5.288361e-08
-1.33402e-08
5.782579e-08
-1.086346e-08
6.176189e-08
-8.413114e-09
6.470764e-08
-6.007697e-09
6.668621e-08
-3.6649e-09
6.77279e-08
-1.401565e-09
6.786991e-08
7.662653e-10
6.715608e-08
2.82324e-09
6.563672e-08
4.754474e-09
6.336856e-08
6.545279e-09
6.041477e-08
8.180808e-09
5.684512e-08
9.64561e-09
5.273635e-08
1.092314e-08
4.817258e-08
1.199518e-08
4.324598e-08
1.284134e-08
3.805742e-08
1.343847e-08
3.271722e-08
1.376037e-08
2.734564e-08
1.377776e-08
2.207306e-08
1.345889e-08
1.703928e-08
1.27713e-08
1.239162e-08
1.168561e-08
8.281113e-09
1.018263e-08
4.856335e-09
8.266062e-09
2.255354e-09
5.983665e-09
5.989805e-10
3.463762e-09
9.913994e-10
3.374844e-10
-1.235417e-09
1.025055e-09
-2.761249e-09
1.820613e-09
-3.484358e-09
2.543207e-09
-3.548719e-09
3.052331e-09
-3.087812e-09
3.239116e-09
-2.222385e-09
3.021021e-09
-1.057133e-09
2.337638e-09
3.204857e-10
1.146977e-09
1.839673e-09
-5.779624e-10
3.444768e-09
-2.852335e-09
5.09332e-09
-5.682237e-09
6.754066e-09
-9.067126e-09
8.404981e-09
-1.300184e-08
1.00315e-08
-1.747827e-08
1.162491e-08
-2.248662e-08
1.318099e-08
-2.80164e-08
1.469881e-08
-3.405713e-08
1.617971e-08
-4.059878e-08
1.762649e-08
-4.7632e-08
1.90427e-08
-5.514821e-08
2.043211e-08
-6.313955e-08
2.179827e-08
-7.15987e-08
2.314415e-08
-8.051865e-08
2.447192e-08
-8.989241e-08
2.578278e-08
-9.971267e-08
2.707683e-08
-1.099714e-07
2.835303e-08
-1.206597e-07
2.960917e-08
-1.31767e-07
3.084192e-08
-1.432812e-07
3.204681e-08
-1.551881e-07
3.321836e-08
-1.674712e-07
3.435009e-08
-1.801112e-07
3.543467e-08
-1.930862e-07
3.646397e-08
-2.063709e-07
3.742917e-08
-2.199372e-07
3.832086e-08
-2.337533e-07
3.912918e-08
-2.47784e-07
3.984388e-08
-2.619909e-07
4.045445e-08
-2.763317e-07
4.095026e-08
-2.907609e-07
4.132064e-08
-3.052296e-07
4.1555e-08
-3.196855e-07
4.1643e-08
-3.340734e-07
4.15746e-08
-3.483348e-07
4.134025e-08
-3.62409e-07
4.093099e-08
-3.762327e-07
4.033858e-08
-3.897405e-07
3.955561e-08
-4.028654e-07
3.857568e-08
-4.15539e-07
3.739347e-08
-4.276923e-07
3.600488e-08
-4.392556e-07
3.440715e-08
-4.501595e-07
3.259897e-08
-4.603352e-07
3.058058e-08
-4.69715e-07
2.835382e-08
-4.782331e-07
2.592228e-08
-4.858259e-07
2.329131e-08
-4.924325e-07
2.046806e-08
-4.979958e-07
1.746158e-08
-5.024625e-07
1.428275e-08
-5.057838e-07
1.094433e-08
-5.079163e-07
7.460932e-09
-5.08822e-07
3.848954e-09
-5.084691e-07
1.265259e-10
-5.068326e-07
-3.68657e-09
-5.038943e-07
-7.569024e-09
-4.996434e-07
-1.149812e-08
-4.94077e-07
-1.544989e-08
-4.872e-07
-1.939931e-08
-4.790256e-07
-2.332047e-08
-4.695753e-07
-2.718681e-08
-4.588792e-07
-3.097134e-08
-4.469755e-07
-3.46469e-08
-4.339109e-07
-3.818641e-08
-4.197405e-07
-4.156317e-08
-4.045269e-07
-4.47511e-08
-3.883408e-07
-4.772508e-08
-3.712599e-07
-5.04612e-08
-3.533688e-07
-5.293709e-08
-3.347583e-07
-5.513215e-08
-3.155248e-07
-5.702786e-08
-2.957696e-07
-5.860801e-08
-2.755984e-07
-5.985895e-08
-2.551199e-07
-6.07698e-08
-2.344455e-07
-6.133262e-08
-2.136881e-07
-6.154253e-08
-1.929612e-07
-6.139788e-08
-1.723782e-07
-6.090025e-08
-1.520508e-07
-6.005452e-08
-1.320886e-07
-5.886881e-08
-1.125981e-07
-5.735443e-08
-9.368128e-08
-5.552577e-08
-7.54353e-08
-5.340009e-08
-5.795127e-08
-5.099738e-08
-4.131361e-08
-4.834005e-08
-2.559934e-08
-4.545268e-08
-1.087739e-08
-4.236169e-08
2.791824e-09
-3.909502e-08
1.535692e-08
-3.568174e-08
2.677584e-08
-3.215174e-08
3.701611e-08
-2.853532e-08
4.605493e-08
-2.486287e-08
5.387924e-08
-2.116451e-08
6.048563e-08
-1.746984e-08
6.588021e-08
-1.38077e-08
7.007846e-08
-1.020595e-08
7.310493e-08
-6.691366e-09
7.4993e-08
-3.289638e-09
7.578464e-08
-2.53748e-11
7.553016e-08
3.077727e-09
7.428799e-08
5.996637e-09
7.212465e-08
8.708622e-09
6.911466e-08
1.11908e-08
6.53407e-08
1.341957e-08
6.089383e-08
1.537001e-08
5.587383e-08
1.701519e-08
5.038965e-08
1.832552e-08
4.455991e-08
1.926821e-08
3.851327e-08
1.980701e-08
3.238871e-08
1.990232e-08
2.633533e-08
1.951226e-08
2.05116e-08
1.859504e-08
1.508369e-08
1.711353e-08
1.022308e-08
1.504323e-08
6.103776e-09
1.238536e-08
2.900942e-09
9.186507e-09
7.956595e-10
5.569047e-09
1.787058e-09
2.968125e-10
-1.532228e-09
8.656474e-10
-3.330071e-09
1.46059e-09
-4.079292e-09
1.89629e-09
-3.984421e-09
2.029948e-09
-3.221475e-09
1.751836e-09
-1.944281e-09
9.791267e-10
-2.844286e-10
-3.488083e-10
1.648419e-09
-2.274297e-09
3.765166e-09
-4.824795e-09
5.995273e-09
-8.015955e-09
8.284486e-09
-1.185434e-08
1.059245e-08
-1.633977e-08
1.289041e-08
-2.146734e-08
1.515906e-08
-2.722899e-08
1.738656e-08
-3.361484e-08
1.956685e-08
-4.061416e-08
2.169813e-08
-4.821602e-08
2.378157e-08
-5.640975e-08
2.582023e-08
-6.51852e-08
2.781815e-08
-7.453274e-08
2.977965e-08
-8.444323e-08
3.170875e-08
-9.490779e-08
3.360871e-08
-1.059176e-07
3.548171e-08
-1.174634e-07
3.73286e-08
-1.295354e-07
3.914881e-08
-1.421226e-07
4.09402e-08
-1.552125e-07
4.269909e-08
-1.687908e-07
4.442026e-08
-1.82841e-07
4.609702e-08
-1.97344e-07
4.772128e-08
-2.122775e-07
4.928368e-08
-2.276166e-07
5.077368e-08
-2.433323e-07
5.217973e-08
-2.593925e-07
5.348936e-08
-2.75761e-07
5.46894e-08
-2.923979e-07
5.576606e-08
-3.092592e-07
5.670514e-08
-3.262969e-07
5.749215e-08
-3.434591e-07
5.811249e-08
-3.606901e-07
5.855163e-08
-3.779303e-07
5.879525e-08
-3.951168e-07
5.882943e-08
-4.12183e-07
5.86408e-08
-4.290595e-07
5.821675e-08
-4.45674e-07
5.754557e-08
-4.619521e-07
5.661664e-08
-4.778171e-07
5.54206e-08
-4.931909e-07
5.39495e-08
-5.079944e-07
5.2197e-08
-5.22148e-07
5.015848e-08
-5.355721e-07
4.783122e-08
-5.481876e-07
4.52145e-08
-5.599168e-07
4.230975e-08
-5.706836e-07
3.912064e-08
-5.804145e-07
3.565316e-08
-5.890389e-07
3.191571e-08
-5.9649e-07
2.791914e-08
-6.027052e-07
2.367676e-08
-6.076268e-07
1.920435e-08
-6.112026e-07
1.452015e-08
-6.133865e-07
9.644814e-09
-6.141388e-07
4.601304e-09
-6.134271e-07
-5.851729e-10
-6.112264e-07
-5.88731e-09
-6.075196e-07
-1.127585e-08
-6.022979e-07
-1.671979e-08
-5.955612e-07
-2.218654e-08
-5.873183e-07
-2.764224e-08
-5.775868e-07
-3.305195e-08
-5.663937e-07
-3.837994e-08
-5.53775e-07
-4.359005e-08
-5.397759e-07
-4.864595e-08
-5.244509e-07
-5.351149e-08
-5.078629e-07
-5.81511e-08
-4.900839e-07
-6.253009e-08
-4.71194e-07
-6.661505e-08
-4.512809e-07
-7.037425e-08
-4.3044e-07
-7.377795e-08
-4.087734e-07
-7.679878e-08
-3.863891e-07
-7.941213e-08
-3.634008e-07
-8.15964e-08
-3.399263e-07
-8.333336e-08
-3.160877e-07
-8.46084e-08
-2.920096e-07
-8.541077e-08
-2.678184e-07
-8.573374e-08
-2.436415e-07
-8.557481e-08
-2.19606e-07
-8.493572e-08
-1.958379e-07
-8.382257e-08
-1.72461e-07
-8.224574e-08
-1.495956e-07
-8.021985e-08
-1.273578e-07
-7.776359e-08
-1.058583e-07
-7.489954e-08
-8.520179e-08
-7.165393e-08
-6.548556e-08
-6.805629e-08
-4.679909e-08
-6.413914e-08
-2.922321e-08
-5.993757e-08
-1.282943e-08
-5.54888e-08
2.32059e-09
-5.083176e-08
1.617543e-08
-4.600658e-08
2.869428e-08
-4.105417e-08
3.984717e-08
-3.601576e-08
4.961509e-08
-3.093242e-08
5.798996e-08
-2.584471e-08
6.497463e-08
-2.079237e-08
7.058272e-08
-1.581404e-08
7.483843e-08
-1.094708e-08
7.777632e-08
-6.227524e-09
7.944104e-08
-1.690099e-09
7.988716e-08
2.631608e-09
7.91789e-08
6.7049e-09
7.739002e-08
1.04975e-08
7.460376e-08
1.397705e-08
7.091285e-08
1.711048e-08
6.641962e-08
1.986324e-08
6.12362e-08
2.219861e-08
5.548476e-08
2.407695e-08
4.929783e-08
2.545515e-08
4.28184e-08
2.628644e-08
3.620003e-08
2.652068e-08
2.960663e-08
2.610567e-08
2.321187e-08
2.49898e-08
1.719847e-08
2.312693e-08
1.175758e-08
2.048413e-08
7.089295e-09
1.705364e-08
3.406551e-09
1.286925e-08
9.464289e-10
8.029171e-09
2.733486e-09
2.286946e-10
-1.760914e-09
6.115294e-10
-3.712902e-09
9.114087e-10
-4.379175e-09
9.474662e-10
-4.020486e-09
5.806543e-10
-2.854669e-09
-2.951151e-10
-1.068517e-09
-1.759318e-09
1.179772e-09
-3.869739e-09
3.758843e-09
-6.666477e-09
6.56191e-09
-1.017537e-08
9.504178e-09
-1.4411e-08
1.252011e-08
-1.937924e-08
1.556069e-08
-2.507955e-08
1.859072e-08
-3.150681e-08
2.158631e-08
-3.865287e-08
2.453262e-08
-4.650778e-08
2.742175e-08
-5.506063e-08
3.025099e-08
-6.430024e-08
3.302119e-08
-7.421553e-08
3.573552e-08
-8.479569e-08
3.83983e-08
-9.603019e-08
4.101415e-08
-1.079087e-07
4.358725e-08
-1.204208e-07
4.612081e-08
-1.335557e-07
4.861663e-08
-1.47302e-07
5.107484e-08
-1.616469e-07
5.349371e-08
-1.765762e-07
5.586954e-08
-1.920738e-07
5.819668e-08
-2.08121e-07
6.046751e-08
-2.246966e-07
6.267256e-08
-2.417759e-07
6.480061e-08
-2.593311e-07
6.683883e-08
-2.773303e-07
6.877295e-08
-2.95738e-07
7.058743e-08
-3.145143e-07
7.226566e-08
-3.336151e-07
7.379017e-08
-3.529919e-07
7.514279e-08
-3.725916e-07
7.630492e-08
-3.923572e-07
7.725769e-08
-4.122269e-07
7.798223e-08
-4.321351e-07
7.845983e-08
-4.520121e-07
7.867223e-08
-4.717844e-07
7.860177e-08
-4.913753e-07
7.823169e-08
-5.107049e-07
7.754631e-08
-5.296906e-07
7.653125e-08
-5.482476e-07
7.517367e-08
-5.662895e-07
7.346247e-08
-5.837285e-07
7.138849e-08
-6.004762e-07
6.894474e-08
-6.164443e-07
6.612654e-08
-6.315447e-07
6.293169e-08
-6.456909e-07
5.936068e-08
-6.587979e-07
5.541675e-08
-6.707834e-07
5.110606e-08
-6.815679e-07
4.643773e-08
-6.910762e-07
4.142395e-08
-6.99237e-07
3.608e-08
-7.059845e-07
3.042425e-08
-7.112583e-07
2.447816e-08
-7.150044e-07
1.826623e-08
-7.171755e-07
1.18159e-08
-7.177317e-07
5.157469e-09
-7.166408e-07
-1.676043e-09
-7.13879e-07
-8.649096e-09
-7.09431e-07
-1.572381e-08
-7.032906e-07
-2.286021e-08
-6.954606e-07
-3.001651e-08
-6.859535e-07
-3.714938e-08
-6.747912e-07
-4.421428e-08
-6.620053e-07
-5.116581e-08
-6.476373e-07
-5.795809e-08
-6.317381e-07
-6.454514e-08
-6.143683e-07
-7.088129e-08
-5.955978e-07
-7.692162e-08
-5.755054e-07
-8.262241e-08
-5.54179e-07
-8.794154e-08
-5.317142e-07
-9.283902e-08
-5.082148e-07
-9.727734e-08
-4.837916e-07
-1.01222e-07
-4.585619e-07
-1.046418e-07
-4.326487e-07
-1.075095e-07
-4.061802e-07
-1.098019e-07
-3.792884e-07
-1.115002e-07
-3.521086e-07
-1.125906e-07
-3.247783e-07
-1.130641e-07
-2.974361e-07
-1.12917e-07
-2.702206e-07
-1.121512e-07
-2.432697e-07
-1.107735e-07
-2.167189e-07
-1.087965e-07
-1.907007e-07
-1.062381e-07
-1.653433e-07
-1.03121e-07
-1.407695e-07
-9.947331e-08
-1.170959e-07
-9.532752e-08
-9.44317e-08
-9.072048e-08
-7.287792e-08
-8.569292e-08
-5.252653e-08
-8.028896e-08
-3.345973e-08
-7.45556e-08
-1.57493e-08
-6.854219e-08
5.43947e-10
-6.229982e-08
1.537058e-08
-5.588081e-08
2.869291e-08
-4.933809e-08
4.048518e-08
-4.272469e-08
5.073372e-08
-3.609325e-08
5.943693e-08
-2.949559e-08
6.660526e-08
-2.298236e-08
7.226102e-08
-1.660284e-08
7.643827e-08
-1.040477e-08
7.918256e-08
-4.434389e-09
8.055073e-08
1.263443e-09
8.061068e-08
6.644948e-09
7.944121e-08
1.166696e-08
7.713189e-08
1.628638e-08
7.378296e-08
2.045941e-08
6.950534e-08
2.414086e-08
6.442068e-08
2.728327e-08
5.866145e-08
2.983618e-08
5.237099e-08
3.174561e-08
4.570364e-08
3.29538e-08
3.882464e-08
3.339968e-08
3.191013e-08
3.302018e-08
2.514705e-08
3.175288e-08
1.873339e-08
2.954059e-08
1.287928e-08
2.633825e-08
7.810136e-09
2.212278e-08
3.773649e-09
1.690574e-08
1.053869e-09
1.074895e-08
3.787354e-09
1.393774e-10
-1.900289e-09
2.811952e-10
-3.854725e-09
2.059422e-10
-4.303931e-09
-2.554306e-10
-3.559119e-09
-1.23269e-09
-1.877415e-09
-2.824068e-09
5.228602e-10
-5.102327e-09
3.458033e-09
-8.119625e-09
6.776148e-09
-1.191152e-08
1.035382e-08
-1.650035e-08
1.409301e-08
-2.189808e-08
1.791784e-08
-2.810876e-08
2.177137e-08
-3.513064e-08
2.561259e-08
-4.295786e-08
2.941352e-08
-5.158182e-08
3.315659e-08
-6.099232e-08
3.683226e-08
-7.117828e-08
4.043695e-08
-8.212828e-08
4.39712e-08
-9.383089e-08
4.743812e-08
-1.062747e-07
5.084214e-08
-1.194485e-07
5.418786e-08
-1.333405e-07
5.747933e-08
-1.47939e-07
6.071929e-08
-1.632311e-07
6.390874e-08
-1.792029e-07
6.70466e-08
-1.958387e-07
7.01295e-08
-2.131208e-07
7.315167e-08
-2.31029e-07
7.610492e-08
-2.495402e-07
7.897869e-08
-2.686278e-07
8.176019e-08
-2.882617e-07
8.443449e-08
-3.084076e-07
8.698476e-08
-3.290272e-07
8.939247e-08
-3.500773e-07
9.16376e-08
-3.715106e-07
9.36989e-08
-3.932746e-07
9.555416e-08
-4.153122e-07
9.718047e-08
-4.375618e-07
9.855446e-08
-4.599567e-07
9.965262e-08
-4.82426e-07
1.004515e-07
-5.048944e-07
1.009282e-07
-5.272825e-07
1.010603e-07
-5.495073e-07
1.008265e-07
-5.714822e-07
1.002067e-07
-5.93118e-07
9.918212e-08
-6.143229e-07
9.77361e-08
-6.35003e-07
9.585381e-08
-6.550633e-07
9.352276e-08
-6.744079e-07
9.073303e-08
-6.929405e-07
8.747743e-08
-7.105658e-07
8.375176e-08
-7.27189e-07
7.955497e-08
-7.427177e-07
7.488933e-08
-7.570615e-07
6.976057e-08
-7.701334e-07
6.417799e-08
-7.818503e-07
5.815454e-08
-7.921332e-07
5.17069e-08
-8.009087e-07
4.485545e-08
-8.081087e-07
3.762431e-08
-8.136718e-07
3.004127e-08
-8.175433e-07
2.213769e-08
-8.196759e-07
1.394846e-08
-8.200301e-07
5.511752e-09
-8.185751e-07
-3.131064e-09
-8.152885e-07
-1.193571e-08
-8.101571e-07
-2.085522e-08
-8.031771e-07
-2.984023e-08
-7.943543e-07
-3.883933e-08
-7.837043e-07
-4.779938e-08
-7.712526e-07
-5.666591e-08
-7.570349e-07
-6.538351e-08
-7.410968e-07
-7.389628e-08
-7.234936e-07
-8.21483e-08
-7.042908e-07
-9.008408e-08
-6.835633e-07
-9.764909e-08
-6.613955e-07
-1.047903e-07
-6.378806e-07
-1.114565e-07
-6.131204e-07
-1.175992e-07
-5.87225e-07
-1.231727e-07
-5.603118e-07
-1.281352e-07
-5.325051e-07
-1.324486e-07
-5.039353e-07
-1.360793e-07
-4.747383e-07
-1.389989e-07
-4.450542e-07
-1.411843e-07
-4.15027e-07
-1.426178e-07
-3.848029e-07
-1.432881e-07
-3.545299e-07
-1.4319e-07
-3.243564e-07
-1.423247e-07
-2.944301e-07
-1.406998e-07
-2.64897e-07
-1.383297e-07
-2.359e-07
-1.35235e-07
-2.075782e-07
-1.314428e-07
-1.800654e-07
-1.269861e-07
-1.534892e-07
-1.219038e-07
-1.279697e-07
-1.1624e-07
-1.036189e-07
-1.100437e-07
-8.053961e-08
-1.033683e-07
-5.882438e-08
-9.627084e-08
-3.855507e-08
-8.88115e-08
-1.980204e-08
-8.105285e-08
-2.623675e-09
-7.305918e-08
1.293412e-08
-6.489588e-08
2.683819e-08
-5.662877e-08
3.90684e-08
-4.832346e-08
4.96177e-08
-4.004489e-08
5.849217e-08
-3.185684e-08
6.571098e-08
-2.382165e-08
7.13062e-08
-1.6e-08
7.532271e-08
-8.450897e-09
7.781791e-08
-1.231759e-09
7.886158e-08
5.60128e-09
7.853559e-08
1.199296e-08
7.693375e-08
1.788821e-08
7.416167e-08
2.323149e-08
7.033659e-08
2.796594e-08
6.558734e-08
3.203252e-08
6.005427e-08
3.536924e-08
5.388926e-08
3.791061e-08
4.725569e-08
3.958737e-08
4.032849e-08
4.032689e-08
3.329431e-08
4.005436e-08
2.6352e-08
3.869519e-08
1.971372e-08
3.617886e-08
1.36074e-08
3.244458e-08
8.281399e-09
2.744878e-08
4.013054e-09
2.117409e-08
1.122901e-09
1.363911e-08
4.910255e-09
3.327444e-11
-1.933567e-09
-1.113606e-10
-3.710097e-09
-6.297823e-10
-3.785515e-09
-1.673396e-09
-2.515509e-09
-3.357837e-09
-1.929735e-10
-5.769604e-09
2.93463e-09
-8.971596e-09
6.660033e-09
-1.300777e-08
1.081233e-08
-1.790701e-08
1.525306e-08
-2.368635e-08
1.987236e-08
-3.035374e-08
2.458523e-08
-3.791028e-08
2.932791e-08
-4.635215e-08
3.405446e-08
-5.567212e-08
3.873349e-08
-6.586074e-08
4.334522e-08
-7.690729e-08
4.787882e-08
-8.880036e-08
5.233002e-08
-1.015282e-07
5.669908e-08
-1.150791e-07
6.0989e-08
-1.294411e-07
6.520407e-08
-1.446019e-07
6.934867e-08
-1.605488e-07
7.342629e-08
-1.772683e-07
7.743881e-08
-1.947456e-07
8.138596e-08
-2.129639e-07
8.526495e-08
-2.319046e-07
8.907023e-08
-2.515464e-07
9.279337e-08
-2.718646e-07
9.642311e-08
-2.928312e-07
9.994538e-08
-3.144145e-07
1.033435e-07
-3.365783e-07
1.065982e-07
-3.592818e-07
1.096883e-07
-3.824798e-07
1.125904e-07
-4.061217e-07
1.152796e-07
-4.301523e-07
1.177295e-07
-4.545111e-07
1.199129e-07
-4.791324e-07
1.218018e-07
-5.039457e-07
1.233678e-07
-5.288756e-07
1.245825e-07
-5.538421e-07
1.254181e-07
-5.787609e-07
1.25847e-07
-6.035435e-07
1.258429e-07
-6.280979e-07
1.25381e-07
-6.523292e-07
1.244379e-07
-6.761393e-07
1.229922e-07
-6.994284e-07
1.210252e-07
-7.22095e-07
1.185204e-07
-7.440367e-07
1.154645e-07
-7.651509e-07
1.118472e-07
-7.853351e-07
1.076617e-07
-8.044883e-07
1.029049e-07
-8.225108e-07
9.757751e-08
-8.393057e-07
9.168418e-08
-8.547789e-07
8.523377e-08
-8.688403e-07
7.823937e-08
-8.814041e-07
7.071838e-08
-8.923898e-07
6.269255e-08
-9.017223e-07
5.418798e-08
-9.09333e-07
4.523506e-08
-9.151602e-07
3.586841e-08
-9.191493e-07
2.612676e-08
-9.212536e-07
1.605283e-08
-9.214349e-07
5.693072e-09