/*--------------------------------*- C++ -*----------------------------------*\
| =========                 |                                                 |
| \\      /  F ield         | OpenFOAM: The Open Source CFD Toolbox           |
|  \\    /   O peration     | Version:  2406                                  |
|   \\  /    A nd           | Website:  www.openfoam.com                      |
|    \\/     M anipulation  |                                                 |
\*---------------------------------------------------------------------------*/
FoamFile
{
    version     2.0;
    format      ascii;
    arch        "LSB;label=32;scalar=64";
    class       volVectorField;
    location    "4748";
    object      U;
}
// * * * * * * * * * * * * * * * * * * * * * * * * * * * * * * * * * * * * * //

dimensions      [0 1 -1 0 0 0 0];

internalField   nonuniform List<vector> 
16384
(
(1.589516e-10 -1.635002e-09 0)
(4.053442e-08 -1.243282e-08 0)
(1.232654e-07 -1.993844e-08 0)
(2.286013e-07 -2.304963e-08 0)
(3.385547e-07 -2.317762e-08 0)
(4.410534e-07 -2.139185e-08 0)
(5.279214e-07 -1.848547e-08 0)
(5.938527e-07 -1.49941e-08 0)
(6.356725e-07 -1.125771e-08 0)
(6.517193e-07 -7.486723e-09 0)
(6.413765e-07 -3.808637e-09 0)
(6.047287e-07 -2.957289e-10 0)
(5.423114e-07 3.016648e-09 0)
(4.549255e-07 6.117722e-09 0)
(3.435027e-07 9.013034e-09 0)
(2.090083e-07 1.171903e-08 0)
(5.237429e-08 1.425883e-08 0)
(-1.255465e-07 1.665867e-08 0)
(-3.240079e-07 1.894569e-08 0)
(-5.423837e-07 2.114688e-08 0)
(-7.801689e-07 2.328763e-08 0)
(-1.036974e-06 2.539064e-08 0)
(-1.312514e-06 2.747563e-08 0)
(-1.606592e-06 2.95593e-08 0)
(-1.919078e-06 3.165498e-08 0)
(-2.249892e-06 3.377227e-08 0)
(-2.59898e-06 3.591717e-08 0)
(-2.966295e-06 3.809244e-08 0)
(-3.351773e-06 4.02977e-08 0)
(-3.755314e-06 4.252958e-08 0)
(-4.176764e-06 4.478218e-08 0)
(-4.615893e-06 4.704722e-08 0)
(-5.072382e-06 4.931398e-08 0)
(-5.545809e-06 5.156948e-08 0)
(-6.035632e-06 5.379877e-08 0)
(-6.541179e-06 5.598519e-08 0)
(-7.061634e-06 5.811046e-08 0)
(-7.596033e-06 6.015483e-08 0)
(-8.143249e-06 6.209722e-08 0)
(-8.701991e-06 6.391546e-08 0)
(-9.270796e-06 6.558631e-08 0)
(-9.848027e-06 6.708546e-08 0)
(-1.043187e-05 6.838778e-08 0)
(-1.102033e-05 6.946769e-08 0)
(-1.161125e-05 7.029939e-08 0)
(-1.220229e-05 7.085705e-08 0)
(-1.279093e-05 7.111494e-08 0)
(-1.337451e-05 7.104772e-08 0)
(-1.395022e-05 7.063082e-08 0)
(-1.45151e-05 6.984079e-08 0)
(-1.506608e-05 6.865565e-08 0)
(-1.559996e-05 6.705531e-08 0)
(-1.611349e-05 6.502193e-08 0)
(-1.66033e-05 6.254036e-08 0)
(-1.706603e-05 5.959847e-08 0)
(-1.749827e-05 5.618762e-08 0)
(-1.789664e-05 5.2303e-08 0)
(-1.825777e-05 4.794404e-08 0)
(-1.857841e-05 4.311481e-08 0)
(-1.885537e-05 3.782436e-08 0)
(-1.908562e-05 3.208703e-08 0)
(-1.926632e-05 2.592258e-08 0)
(-1.939481e-05 1.935644e-08 0)
(-1.94687e-05 1.241973e-08 0)
(-1.948587e-05 5.149238e-09 0)
(-1.944453e-05 -2.412651e-09 0)
(-1.934322e-05 -1.021776e-08 0)
(-1.918086e-05 -1.821253e-08 0)
(-1.89568e-05 -2.63385e-08 0)
(-1.86708e-05 -3.453275e-08 0)
(-1.832308e-05 -4.272845e-08 0)
(-1.791434e-05 -5.085553e-08 0)
(-1.744575e-05 -5.884146e-08 0)
(-1.691899e-05 -6.661209e-08 0)
(-1.633622e-05 -7.409258e-08 0)
(-1.570009e-05 -8.120839e-08 0)
(-1.501373e-05 -8.788639e-08 0)
(-1.428074e-05 -9.405596e-08 0)
(-1.350515e-05 -9.965011e-08 0)
(-1.269141e-05 -1.046066e-07 0)
(-1.184433e-05 -1.088692e-07 0)
(-1.096906e-05 -1.123882e-07 0)
(-1.007104e-05 -1.151219e-07 0)
(-9.155947e-06 -1.170373e-07 0)
(-8.22962e-06 -1.181106e-07 0)
(-7.298026e-06 -1.183278e-07 0)
(-6.367187e-06 -1.176854e-07 0)
(-5.443113e-06 -1.161901e-07 0)
(-4.531744e-06 -1.138591e-07 0)
(-3.63888e-06 -1.1072e-07 0)
(-2.770122e-06 -1.068097e-07 0)
(-1.930813e-06 -1.021748e-07 0)
(-1.125977e-06 -9.686973e-08 0)
(-3.602771e-07 -9.095594e-08 0)
(3.620412e-07 -8.449947e-08 0)
(1.037183e-06 -7.757482e-08 0)
(1.661836e-06 -7.026211e-08 0)
(2.233192e-06 -6.264108e-08 0)
(2.748967e-06 -5.479181e-08 0)
(3.20741e-06 -4.679384e-08 0)
(3.607304e-06 -3.872485e-08 0)
(3.947954e-06 -3.065941e-08 0)
(4.229181e-06 -2.266791e-08 0)
(4.451296e-06 -1.481572e-08 0)
(4.615078e-06 -7.162393e-09 0)
(4.721745e-06 2.387194e-10 0)
(4.772923e-06 7.340714e-09 0)
(4.770613e-06 1.410297e-08 0)
(4.717163e-06 2.04909e-08 0)
(4.615239e-06 2.647501e-08 0)
(4.467804e-06 3.202944e-08 0)
(4.278106e-06 3.71302e-08 0)
(4.049677e-06 4.175279e-08 0)
(3.786343e-06 4.586904e-08 0)
(3.492261e-06 4.944308e-08 0)
(3.171968e-06 5.242606e-08 0)
(2.830461e-06 5.47494e-08 0)
(2.473306e-06 5.631607e-08 0)
(2.106786e-06 5.698914e-08 0)
(1.738084e-06 5.657695e-08 0)
(1.375507e-06 5.481429e-08 0)
(1.028735e-06 5.13406e-08 0)
(7.090725e-07 4.568178e-08 0)
(4.295882e-07 3.726185e-08 0)
(2.049324e-07 2.549529e-08 0)
(5.023466e-08 1.001707e-08 0)
(-2.356489e-08 -8.019768e-09 0)
(-1.943564e-08 -1.943513e-08 0)
(1.184073e-08 -4.281497e-08 0)
(1.260755e-07 -1.269963e-07 0)
(3.158686e-07 -1.830874e-07 0)
(5.449485e-07 -2.060528e-07 0)
(7.772984e-07 -2.02417e-07 0)
(9.871722e-07 -1.795413e-07 0)
(1.155725e-06 -1.43582e-07 0)
(1.269758e-06 -9.926584e-08 0)
(1.320658e-06 -5.006535e-08 0)
(1.303319e-06 1.540595e-09 0)
(1.215222e-06 5.382905e-08 0)
(1.0557e-06 1.056458e-07 0)
(8.253495e-07 1.562614e-07 0)
(5.255853e-07 2.052609e-07 0)
(1.582888e-07 2.524602e-07 0)
(-2.744465e-07 2.978409e-07 0)
(-7.705032e-07 3.414983e-07 0)
(-1.327871e-06 3.836015e-07 0)
(-1.944728e-06 4.24361e-07 0)
(-2.619492e-06 4.640044e-07 0)
(-3.350832e-06 5.027576e-07 0)
(-4.137661e-06 5.408304e-07 0)
(-4.979117e-06 5.784064e-07 0)
(-5.874523e-06 6.156354e-07 0)
(-6.823345e-06 6.526292e-07 0)
(-7.825138e-06 6.894582e-07 0)
(-8.879496e-06 7.261504e-07 0)
(-9.985996e-06 7.626916e-07 0)
(-1.114414e-05 7.990267e-07 0)
(-1.235332e-05 8.350618e-07 0)
(-1.361272e-05 8.706665e-07 0)
(-1.492134e-05 9.056762e-07 0)
(-1.627788e-05 9.398949e-07 0)
(-1.768077e-05 9.730977e-07 0)
(-1.912805e-05 1.005034e-06 0)
(-2.061744e-05 1.035431e-06 0)
(-2.214623e-05 1.063994e-06 0)
(-2.371129e-05 1.090412e-06 0)
(-2.530904e-05 1.114362e-06 0)
(-2.693545e-05 1.135507e-06 0)
(-2.858602e-05 1.153503e-06 0)
(-3.025579e-05 1.167999e-06 0)
(-3.19393e-05 1.178645e-06 0)
(-3.363064e-05 1.185091e-06 0)
(-3.532342e-05 1.186993e-06 0)
(-3.701083e-05 1.184015e-06 0)
(-3.86856e-05 1.175837e-06 0)
(-4.034009e-05 1.162155e-06 0)
(-4.196627e-05 1.142687e-06 0)
(-4.35558e-05 1.117178e-06 0)
(-4.510003e-05 1.085404e-06 0)
(-4.659009e-05 1.047178e-06 0)
(-4.801693e-05 1.002354e-06 0)
(-4.937137e-05 9.508296e-07 0)
(-5.06442e-05 8.925535e-07 0)
(-5.18262e-05 8.275278e-07 0)
(-5.290827e-05 7.558126e-07 0)
(-5.38815e-05 6.775293e-07 0)
(-5.473721e-05 5.928636e-07 0)
(-5.54671e-05 5.02068e-07 0)
(-5.60633e-05 4.054639e-07 0)
(-5.651848e-05 3.034424e-07 0)
(-5.682592e-05 1.964646e-07 0)
(-5.697962e-05 8.506095e-08 0)
(-5.697438e-05 -3.017072e-08 0)
(-5.680588e-05 -1.485676e-07 0)
(-5.647075e-05 -2.694038e-07 0)
(-5.596667e-05 -3.918956e-07 0)
(-5.529241e-05 -5.152082e-07 0)
(-5.444792e-05 -6.384615e-07 0)
(-5.343431e-05 -7.607385e-07 0)
(-5.225397e-05 -8.810938e-07 0)
(-5.091055e-05 -9.985635e-07 0)
(-4.940897e-05 -1.112175e-06 0)
(-4.775543e-05 -1.22096e-06 0)
(-4.595738e-05 -1.323963e-06 0)
(-4.402351e-05 -1.420257e-06 0)
(-4.196368e-05 -1.508956e-06 0)
(-3.978887e-05 -1.589222e-06 0)
(-3.751111e-05 -1.660285e-06 0)
(-3.514336e-05 -1.72145e-06 0)
(-3.269944e-05 -1.772108e-06 0)
(-3.019388e-05 -1.81175e-06 0)
(-2.764179e-05 -1.83997e-06 0)
(-2.505875e-05 -1.856479e-06 0)
(-2.246062e-05 -1.861106e-06 0)
(-1.986343e-05 -1.853805e-06 0)
(-1.728315e-05 -1.834654e-06 0)
(-1.473562e-05 -1.803861e-06 0)
(-1.223629e-05 -1.761755e-06 0)
(-9.800165e-06 -1.708786e-06 0)
(-7.441564e-06 -1.645517e-06 0)
(-5.174031e-06 -1.572619e-06 0)
(-3.010186e-06 -1.490855e-06 0)
(-9.616102e-07 -1.40107e-06 0)
(9.612611e-07 -1.304185e-06 0)
(2.749224e-06 -1.201176e-06 0)
(4.394376e-06 -1.093061e-06 0)
(5.890164e-06 -9.808834e-07 0)
(7.231416e-06 -8.656948e-07 0)
(8.414354e-06 -7.485425e-07 0)
(9.436589e-06 -6.304552e-07 0)
(1.02971e-05 -5.124299e-07 0)
(1.099618e-05 -3.954217e-07 0)
(1.153543e-05 -2.803346e-07 0)
(1.191763e-05 -1.680156e-07 0)
(1.214674e-05 -5.925215e-08 0)
(1.222779e-05 4.522789e-08 0)
(1.216682e-05 1.447523e-07 0)
(1.197083e-05 2.386946e-07 0)
(1.164775e-05 3.264601e-07 0)
(1.120636e-05 4.074668e-07 0)
(1.065635e-05 4.811206e-07 0)
(1.000832e-05 5.467838e-07 0)
(9.273852e-06 6.037372e-07 0)
(8.465646e-06 6.511343e-07 0)
(7.597668e-06 6.879483e-07 0)
(6.685384e-06 7.129121e-07 0)
(5.746036e-06 7.244534e-07 0)
(4.798962e-06 7.206309e-07 0)
(3.865934e-06 6.99088e-07 0)
(2.971453e-06 6.570591e-07 0)
(2.142879e-06 5.915198e-07 0)
(1.410134e-06 4.996886e-07 0)
(8.04433e-07 3.803243e-07 0)
(3.552537e-07 2.367283e-07 0)
(8.471428e-08 8.457457e-08 0)
(-8.016164e-09 -2.356756e-08 0)
(2.012447e-08 -1.251016e-07 0)
(1.840596e-07 -3.169368e-07 0)
(4.339081e-07 -4.326933e-07 0)
(7.219752e-07 -4.742719e-07 0)
(1.002277e-06 -4.553374e-07 0)
(1.241833e-06 -3.907832e-07 0)
(1.415564e-06 -2.937224e-07 0)
(1.505137e-06 -1.747888e-07 0)
(1.49799e-06 -4.220855e-08 0)
(1.386192e-06 9.786463e-08 0)
(1.165377e-06 2.409684e-07 0)
(8.338313e-07 3.839827e-07 0)
(3.917347e-07 5.248348e-07 0)
(-1.594575e-07 6.622563e-07 0)
(-8.174987e-07 7.955865e-07 0)
(-1.579725e-06 9.246118e-07 0)
(-2.443333e-06 1.049436e-06 0)
(-3.405579e-06 1.170373e-06 0)
(-4.463912e-06 1.287866e-06 0)
(-5.616047e-06 1.402418e-06 0)
(-6.86e-06 1.514542e-06 0)
(-8.194085e-06 1.624718e-06 0)
(-9.616884e-06 1.733365e-06 0)
(-1.11272e-05 1.840822e-06 0)
(-1.2724e-05 1.947328e-06 0)
(-1.440632e-05 2.053018e-06 0)
(-1.617321e-05 2.157916e-06 0)
(-1.802367e-05 2.261936e-06 0)
(-1.995651e-05 2.364882e-06 0)
(-2.197034e-05 2.466456e-06 0)
(-2.406343e-05 2.566263e-06 0)
(-2.62337e-05 2.663814e-06 0)
(-2.847862e-05 2.758537e-06 0)
(-3.079516e-05 2.849783e-06 0)
(-3.317972e-05 2.936838e-06 0)
(-3.562813e-05 3.018923e-06 0)
(-3.813555e-05 3.095212e-06 0)
(-4.069651e-05 3.164834e-06 0)
(-4.33048e-05 3.226883e-06 0)
(-4.595353e-05 3.280431e-06 0)
(-4.863506e-05 3.324529e-06 0)
(-5.134105e-05 3.358222e-06 0)
(-5.406242e-05 3.38056e-06 0)
(-5.678939e-05 3.390604e-06 0)
(-5.95115e-05 3.387437e-06 0)
(-6.221761e-05 3.370178e-06 0)
(-6.4896e-05 3.337993e-06 0)
(-6.753434e-05 3.290103e-06 0)
(-7.011983e-05 3.225801e-06 0)
(-7.26392e-05 3.144458e-06 0)
(-7.50788e-05 3.045542e-06 0)
(-7.742471e-05 2.928626e-06 0)
(-7.966281e-05 2.793402e-06 0)
(-8.177888e-05 2.63969e-06 0)
(-8.37587e-05 2.46745e-06 0)
(-8.558819e-05 2.276793e-06 0)
(-8.725349e-05 2.067988e-06 0)
(-8.874113e-05 1.841472e-06 0)
(-9.003812e-05 1.597855e-06 0)
(-9.113208e-05 1.337925e-06 0)
(-9.201142e-05 1.062654e-06 0)
(-9.266541e-05 7.731937e-07 0)
(-9.308435e-05 4.708781e-07 0)
(-9.325967e-05 1.572203e-07 0)
(-9.318409e-05 -1.660947e-07 0)
(-9.285169e-05 -4.972177e-07 0)
(-9.225805e-05 -8.341429e-07 0)
(-9.140037e-05 -1.174724e-06 0)
(-9.027747e-05 -1.516689e-06 0)
(-8.888998e-05 -1.857659e-06 0)
(-8.72403e-05 -2.19517e-06 0)
(-8.533272e-05 -2.526694e-06 0)
(-8.317337e-05 -2.849667e-06 0)
(-8.077031e-05 -3.161513e-06 0)
(-7.813345e-05 -3.459673e-06 0)
(-7.527457e-05 -3.741637e-06 0)
(-7.220722e-05 -4.004975e-06 0)
(-6.894668e-05 -4.247365e-06 0)
(-6.550987e-05 -4.466628e-06 0)
(-6.191518e-05 -4.660754e-06 0)
(-5.818242e-05 -4.827937e-06 0)
(-5.433258e-05 -4.966596e-06 0)
(-5.03877e-05 -5.075405e-06 0)
(-4.63707e-05 -5.153314e-06 0)
(-4.230512e-05 -5.199568e-06 0)
(-3.821497e-05 -5.213718e-06 0)
(-3.412446e-05 -5.195637e-06 0)
(-3.005778e-05 -5.145525e-06 0)
(-2.603889e-05 -5.063904e-06 0)
(-2.209127e-05 -4.951621e-06 0)
(-1.823769e-05 -4.809833e-06 0)
(-1.450001e-05 -4.639995e-06 0)
(-1.089895e-05 -4.443837e-06 0)
(-7.453917e-06 -4.223344e-06 0)
(-4.182806e-06 -3.980723e-06 0)
(-1.101863e-06 -3.718374e-06 0)
(1.774463e-06 -3.438851e-06 0)
(4.433623e-06 -3.144833e-06 0)
(6.865059e-06 -2.839078e-06 0)
(9.060261e-06 -2.524384e-06 0)
(1.101279e-05 -2.203557e-06 0)
(1.271832e-05 -1.87937e-06 0)
(1.417455e-05 -1.554535e-06 0)
(1.538125e-05 -1.23167e-06 0)
(1.634014e-05 -9.132829e-07 0)
(1.705487e-05 -6.01748e-07 0)
(1.753087e-05 -2.993028e-07 0)
(1.777534e-05 -8.045901e-09 0)
(1.779712e-05 2.700526e-07 0)
(1.760662e-05 5.331308e-07 0)
(1.721577e-05 7.793997e-07 0)
(1.663798e-05 1.007098e-06 0)
(1.588816e-05 1.214433e-06 0)
(1.498271e-05 1.399507e-06 0)
(1.393967e-05 1.560231e-06 0)
(1.277879e-05 1.694226e-06 0)
(1.15218e-05 1.798709e-06 0)
(1.019259e-05 1.870383e-06 0)
(8.81756e-06 1.905332e-06 0)
(7.425867e-06 1.898946e-06 0)
(6.049728e-06 1.845932e-06 0)
(4.724532e-06 1.740499e-06 0)
(3.488667e-06 1.576915e-06 0)
(2.382753e-06 1.350822e-06 0)
(1.447661e-06 1.062006e-06 0)
(7.212452e-07 7.198863e-07 0)
(2.37521e-07 3.552916e-07 0)
(1.009391e-08 5.040612e-08 0)
(2.370513e-08 -2.31489e-07 0)
(2.08424e-07 -5.470985e-07 0)
(4.764383e-07 -7.210524e-07 0)
(7.711673e-07 -7.703567e-07 0)
(1.040154e-06 -7.186551e-07 0)
(1.246327e-06 -5.895755e-07 0)
(1.36121e-06 -4.040403e-07 0)
(1.363551e-06 -1.794197e-07 0)
(1.238374e-06 7.047158e-08 0)
(9.758607e-07 3.350128e-07 0)
(5.702746e-07 6.06296e-07 0)
(1.899494e-08 8.786443e-07 0)
(-6.783101e-07 1.148173e-06 0)
(-1.520374e-06 1.412408e-06 0)
(-2.504896e-06 1.669962e-06 0)
(-3.628977e-06 1.920264e-06 0)
(-4.889463e-06 2.163329e-06 0)
(-6.28318e-06 2.399571e-06 0)
(-7.807107e-06 2.629657e-06 0)
(-9.458466e-06 2.854376e-06 0)
(-1.123477e-05 3.074549e-06 0)
(-1.313383e-05 3.290948e-06 0)
(-1.515371e-05 3.504246e-06 0)
(-1.729268e-05 3.714966e-06 0)
(-1.954913e-05 3.923463e-06 0)
(-2.192149e-05 4.129896e-06 0)
(-2.440813e-05 4.334227e-06 0)
(-2.700728e-05 4.536214e-06 0)
(-2.971688e-05 4.735417e-06 0)
(-3.253453e-05 4.931203e-06 0)
(-3.545736e-05 5.12276e-06 0)
(-3.848199e-05 5.309106e-06 0)
(-4.160439e-05 5.489105e-06 0)
(-4.481986e-05 5.66148e-06 0)
(-4.812294e-05 5.824832e-06 0)
(-5.150734e-05 5.977654e-06 0)
(-5.496595e-05 6.118346e-06 0)
(-5.849073e-05 6.245236e-06 0)
(-6.207274e-05 6.356597e-06 0)
(-6.570211e-05 6.450658e-06 0)
(-6.936801e-05 6.525632e-06 0)
(-7.305871e-05 6.579726e-06 0)
(-7.676153e-05 6.611164e-06 0)
(-8.046291e-05 6.61821e-06 0)
(-8.414844e-05 6.599182e-06 0)
(-8.78029e-05 6.552479e-06 0)
(-9.141033e-05 6.476598e-06 0)
(-9.49541e-05 6.370161e-06 0)
(-9.8417e-05 6.23193e-06 0)
(-0.0001017813 6.060839e-06 0)
(-0.0001050289 5.856006e-06 0)
(-0.0001081414 5.616763e-06 0)
(-0.0001111004 5.342671e-06 0)
(-0.0001138872 5.033543e-06 0)
(-0.0001164835 4.689459e-06 0)
(-0.0001188711 4.310786e-06 0)
(-0.0001210324 3.898192e-06 0)
(-0.0001229501 3.452656e-06 0)
(-0.000124608 2.975479e-06 0)
(-0.0001259905 2.468288e-06 0)
(-0.0001270833 1.933046e-06 0)
(-0.0001278732 1.372043e-06 0)
(-0.0001283484 7.878949e-07 0)
(-0.0001284987 1.835379e-07 0)
(-0.0001283156 -4.377879e-07 0)
(-0.0001277922 -1.072553e-06 0)
(-0.0001269239 -1.716959e-06 0)
(-0.0001257079 -2.366964e-06 0)
(-0.0001241436 -3.018315e-06 0)
(-0.0001222327 -3.666582e-06 0)
(-0.000119979 -4.307194e-06 0)
(-0.0001173889 -4.935483e-06 0)
(-0.0001144709 -5.546727e-06 0)
(-0.000111236 -6.136201e-06 0)
(-0.0001076976 -6.699226e-06 0)
(-0.0001038711 -7.231223e-06 0)
(-9.977446e-05 -7.727766e-06 0)
(-9.542746e-05 -8.184638e-06 0)
(-9.085201e-05 -8.597883e-06 0)
(-8.607187e-05 -8.963861e-06 0)
(-8.111245e-05 -9.279297e-06 0)
(-7.600066e-05 -9.541332e-06 0)
(-7.07647e-05 -9.747561e-06 0)
(-6.543381e-05 -9.896078e-06 0)
(-6.003805e-05 -9.985506e-06 0)
(-5.460803e-05 -1.001502e-05 0)
(-4.917465e-05 -9.984377e-06 0)
(-4.376881e-05 -9.893908e-06 0)
(-3.842113e-05 -9.744538e-06 0)
(-3.316168e-05 -9.537768e-06 0)
(-2.801972e-05 -9.275666e-06 0)
(-2.302339e-05 -8.960839e-06 0)
(-1.819948e-05 -8.5964e-06 0)
(-1.357318e-05 -8.185925e-06 0)
(-9.167872e-06 -7.733409e-06 0)
(-5.004897e-06 -7.243206e-06 0)
(-1.103408e-06 -6.719969e-06 0)
(2.519798e-06 -6.168592e-06 0)
(5.850382e-06 -5.594137e-06 0)
(8.876571e-06 -5.001765e-06 0)
(1.158921e-05 -4.396673e-06 0)
(1.398178e-05 -3.784031e-06 0)
(1.605042e-05 -3.168922e-06 0)
(1.779388e-05 -2.556292e-06 0)
(1.921348e-05 -1.95091e-06 0)
(2.031306e-05 -1.357334e-06 0)
(2.109885e-05 -7.798956e-07 0)
(2.157943e-05 -2.226989e-07 0)
(2.176562e-05 3.103648e-07 0)
(2.16704e-05 8.155864e-07 0)
(2.130885e-05 1.289379e-06 0)
(2.06981e-05 1.728204e-06 0)
(1.985731e-05 2.128475e-06 0)
(1.880775e-05 2.486437e-06 0)
(1.757282e-05 2.798029e-06 0)
(1.617821e-05 3.058729e-06 0)
(1.465209e-05 3.263397e-06 0)
(1.302528e-05 3.406119e-06 0)
(1.133153e-05 3.48009e-06 0)
(9.607692e-06 3.477578e-06 0)
(7.893889e-06 3.390053e-06 0)
(6.233441e-06 3.208636e-06 0)
(4.672521e-06 2.925115e-06 0)
(3.259252e-06 2.534016e-06 0)
(2.041785e-06 2.036459e-06 0)
(1.066191e-06 1.446923e-06 0)
(3.823575e-07 8.056917e-07 0)
(2.571501e-08 2.057868e-07 0)
(2.417988e-08 -3.432516e-07 0)
(2.045482e-07 -7.800434e-07 0)
(4.537785e-07 -9.99571e-07 0)
(7.099338e-07 -1.037956e-06 0)
(9.170556e-07 -9.311806e-07 0)
(1.035943e-06 -7.126525e-07 0)
(1.036563e-06 -4.115791e-07 0)
(8.96357e-07 -5.237143e-08 0)
(5.992163e-07 3.452794e-07 0)
(1.343649e-07 7.659773e-07 0)
(-5.047056e-07 1.198055e-06 0)
(-1.321188e-06 1.632982e-06 0)
(-2.315796e-06 2.064797e-06 0)
(-3.48747e-06 2.489601e-06 0)
(-4.833972e-06 2.905107e-06 0)
(-6.352345e-06 3.310247e-06 0)
(-8.039281e-06 3.704853e-06 0)
(-9.891379e-06 4.089372e-06 0)
(-1.190533e-05 4.464641e-06 0)
(-1.407802e-05 4.831703e-06 0)
(-1.640658e-05 5.191654e-06 0)
(-1.888839e-05 5.545529e-06 0)
(-2.152104e-05 5.894211e-06 0)
(-2.430226e-05 6.238367e-06 0)
(-2.722983e-05 6.5784e-06 0)
(-3.030148e-05 6.914421e-06 0)
(-3.351481e-05 7.246237e-06 0)
(-3.686711e-05 7.573339e-06 0)
(-4.03553e-05 7.894916e-06 0)
(-4.397581e-05 8.20986e-06 0)
(-4.772443e-05 8.516782e-06 0)
(-5.159627e-05 8.814036e-06 0)
(-5.558562e-05 9.099737e-06 0)
(-5.968591e-05 9.371787e-06 0)
(-6.388961e-05 9.627902e-06 0)
(-6.818818e-05 9.865638e-06 0)
(-7.257203e-05 1.008242e-05 0)
(-7.703048e-05 1.027556e-05 0)
(-8.155173e-05 1.04423e-05 0)
(-8.612287e-05 1.057983e-05 0)
(-9.072987e-05 1.068535e-05 0)
(-9.535759e-05 1.075602e-05 0)
(-9.998983e-05 1.07891e-05 0)
(-0.0001046094 1.07819e-05 0)
(-0.000109198 1.073185e-05 0)
(-0.0001137367 1.06365e-05 0)
(-0.0001182055 1.049362e-05 0)
(-0.0001225838 1.030117e-05 0)
(-0.0001268505 1.005735e-05 0)
(-0.0001309837 9.760656e-06 0)
(-0.0001349616 9.409895e-06 0)
(-0.0001387617 9.004215e-06 0)
(-0.000142362 8.543144e-06 0)
(-0.0001457402 8.026612e-06 0)
(-0.0001488744 7.454981e-06 0)
(-0.0001517432 6.829062e-06 0)
(-0.0001543259 6.15014e-06 0)
(-0.0001566025 5.419985e-06 0)
(-0.0001585541 4.640864e-06 0)
(-0.0001601629 3.815548e-06 0)
(-0.0001614126 2.947312e-06 0)
(-0.0001622884 2.039931e-06 0)
(-0.0001627773 1.097669e-06 0)
(-0.000162868 1.252629e-07 0)
(-0.0001625514 -8.720977e-07 0)
(-0.0001618205 -1.888799e-06 0)
(-0.0001606708 -2.918838e-06 0)
(-0.0001590999 -3.955863e-06 0)
(-0.0001571082 -4.993224e-06 0)
(-0.0001546986 -6.024021e-06 0)
(-0.0001518766 -7.041167e-06 0)
(-0.0001486504 -8.037446e-06 0)
(-0.000145031 -9.005584e-06 0)
(-0.000141032 -9.938322e-06 0)
(-0.0001366697 -1.082849e-05 0)
(-0.000131963 -1.166908e-05 0)
(-0.0001269331 -1.245334e-05 0)
(-0.0001216039 -1.317485e-05 0)
(-0.0001160014 -1.382756e-05 0)
(-0.0001101537 -1.440595e-05 0)
(-0.0001040908 -1.490502e-05 0)
(-9.784442e-05 -1.532043e-05 0)
(-9.144768e-05 -1.56485e-05 0)
(-8.493497e-05 -1.588633e-05 0)
(-7.834159e-05 -1.603178e-05 0)
(-7.170351e-05 -1.608359e-05 0)
(-6.505702e-05 -1.604132e-05 0)
(-5.84385e-05 -1.590545e-05 0)
(-5.188402e-05 -1.567733e-05 0)
(-4.542911e-05 -1.535918e-05 0)
(-3.910839e-05 -1.495409e-05 0)
(-3.295529e-05 -1.446597e-05 0)
(-2.700176e-05 -1.389951e-05 0)
(-2.127797e-05 -1.326013e-05 0)
(-1.581206e-05 -1.255386e-05 0)
(-1.062993e-05 -1.178734e-05 0)
(-5.754975e-06 -1.096767e-05 0)
(-1.207922e-06 -1.010236e-05 0)
(2.993312e-06 -9.199182e-06 0)
(6.833748e-06 -8.266126e-06 0)
(1.030145e-05 -7.311261e-06 0)
(1.338756e-05 -6.342657e-06 0)
(1.608635e-05 -5.368292e-06 0)
(1.839519e-05 -4.395979e-06 0)
(2.031451e-05 -3.433299e-06 0)
(2.18478e-05 -2.487553e-06 0)
(2.300148e-05 -1.565732e-06 0)
(2.378483e-05 -6.745113e-07 0)
(2.420993e-05 1.79733e-07 0)
(2.429157e-05 9.908822e-07 0)
(2.404715e-05 1.752996e-06 0)
(2.349667e-05 2.460214e-06 0)
(2.266269e-05 3.106617e-06 0)
(2.157035e-05 3.686073e-06 0)
(2.024743e-05 4.192052e-06 0)
(1.872443e-05 4.617425e-06 0)
(1.703471e-05 4.954273e-06 0)
(1.521464e-05 5.193711e-06 0)
(1.330376e-05 5.325784e-06 0)
(1.134488e-05 5.339495e-06 0)
(9.384148e-06 5.223075e-06 0)
(7.470843e-06 4.964666e-06 0)
(5.657094e-06 4.553697e-06 0)
(3.99715e-06 3.983402e-06 0)
(2.546007e-06 3.255068e-06 0)
(1.358923e-06 2.384778e-06 0)
(5.033683e-07 1.41431e-06 0)
(3.765783e-08 4.319216e-07 0)
(2.25399e-08 -4.47063e-07 0)
(1.78527e-07 -9.868216e-07 0)
(3.77471e-07 -1.230101e-06 0)
(5.558355e-07 -1.23286e-06 0)
(6.570881e-07 -1.044615e-06 0)
(6.415692e-07 -7.092586e-07 0)
(4.790955e-07 -2.645823e-07 0)
(1.470514e-07 2.578586e-07 0)
(-3.707535e-07 8.324533e-07 0)
(-1.085226e-06 1.43898e-06 0)
(-2.003033e-06 2.061944e-06 0)
(-3.127526e-06 2.689869e-06 0)
(-4.459555e-06 3.314622e-06 0)
(-5.998162e-06 3.930779e-06 0)
(-7.741158e-06 4.535058e-06 0)
(-9.685584e-06 5.125818e-06 0)
(-1.182808e-05 5.702631e-06 0)
(-1.416513e-05 6.265911e-06 0)
(-1.669325e-05 6.816607e-06 0)
(-1.940911e-05 7.355955e-06 0)
(-2.230953e-05 7.885267e-06 0)
(-2.539153e-05 8.405772e-06 0)
(-2.865225e-05 8.918495e-06 0)
(-3.208886e-05 9.424157e-06 0)
(-3.569852e-05 9.92312e-06 0)
(-3.94782e-05 1.041534e-05 0)
(-4.342461e-05 1.090034e-05 0)
(-4.753401e-05 1.137722e-05 0)
(-5.180217e-05 1.184465e-05 0)
(-5.622418e-05 1.230089e-05 0)
(-6.079433e-05 1.274381e-05 0)
(-6.550607e-05 1.317092e-05 0)
(-7.035185e-05 1.357941e-05 0)
(-7.532306e-05 1.396616e-05 0)
(-8.040996e-05 1.432782e-05 0)
(-8.560161e-05 1.466083e-05 0)
(-9.088584e-05 1.496142e-05 0)
(-9.624923e-05 1.522574e-05 0)
(-0.0001016771 1.544982e-05 0)
(-0.0001071534 1.562965e-05 0)
(-0.0001126609 1.576123e-05 0)
(-0.0001181812 1.58406e-05 0)
(-0.0001236947 1.586388e-05 0)
(-0.0001291805 1.582735e-05 0)
(-0.000134617 1.572748e-05 0)
(-0.0001399815 1.556094e-05 0)
(-0.0001452503 1.532472e-05 0)
(-0.0001503994 1.501612e-05 0)
(-0.0001554039 1.463282e-05 0)
(-0.0001602386 1.417294e-05 0)
(-0.0001648781 1.363504e-05 0)
(-0.0001692969 1.301821e-05 0)
(-0.0001734695 1.232209e-05 0)
(-0.0001773708 1.154689e-05 0)
(-0.0001809761 1.069344e-05 0)
(-0.0001842614 9.76322e-06 0)
(-0.0001872038 8.758364e-06 0)
(-0.000189781 7.681692e-06 0)
(-0.0001919724 6.536714e-06 0)
(-0.0001937586 5.327632e-06 0)
(-0.0001951221 4.059339e-06 0)
(-0.000196047 2.737408e-06 0)
(-0.0001965197 1.368068e-06 0)
(-0.0001965284 -4.181204e-08 0)
(-0.0001960641 -1.484766e-06 0)
(-0.0001951199 -2.952767e-06 0)
(-0.0001936916 -4.437277e-06 0)
(-0.0001917779 -5.929314e-06 0)
(-0.0001893801 -7.41951e-06 0)
(-0.0001865024 -8.898184e-06 0)
(-0.0001831519 -1.035543e-05 0)
(-0.0001793388 -1.178118e-05 0)
(-0.000175076 -1.316534e-05 0)
(-0.0001703794 -1.449784e-05 0)
(-0.0001652679 -1.576875e-05 0)
(-0.0001597632 -1.696839e-05 0)
(-0.0001538894 -1.808745e-05 0)
(-0.0001476736 -1.911706e-05 0)
(-0.0001411452 -2.004891e-05 0)
(-0.0001343356 -2.087538e-05 0)
(-0.0001272786 -2.158958e-05 0)
(-0.0001200098 -2.218552e-05 0)
(-0.0001125662 -2.265811e-05 0)
(-0.0001049863 -2.30033e-05 0)
(-9.730967e-05 -2.321814e-05 0)
(-8.957648e-05 -2.330079e-05 0)
(-8.182745e-05 -2.32506e-05 0)
(-7.41034e-05 -2.306812e-05 0)
(-6.644491e-05 -2.275512e-05 0)
(-5.8892e-05 -2.231458e-05 0)
(-5.148382e-05 -2.175063e-05 0)
(-4.425827e-05 -2.106858e-05 0)
(-3.725173e-05 -2.027478e-05 0)
(-3.049872e-05 -1.937661e-05 0)
(-2.403163e-05 -1.838237e-05 0)
(-1.78804e-05 -1.730115e-05 0)
(-1.207234e-05 -1.614276e-05 0)
(-6.631865e-06 -1.491757e-05 0)
(-1.580326e-06 -1.363641e-05 0)
(3.064155e-06 -1.231041e-05 0)
(7.286798e-06 -1.095091e-05 0)
(1.107627e-05 -9.56927e-06 0)
(1.442471e-05 -8.176799e-06 0)
(1.73278e-05 -6.784628e-06 0)
(1.97847e-05 -5.403625e-06 0)
(2.179807e-05 -4.044323e-06 0)
(2.337397e-05 -2.716876e-06 0)
(2.452182e-05 -1.431042e-06 0)
(2.525431e-05 -1.961985e-07 0)
(2.558734e-05 9.786055e-07 0)
(2.553992e-05 2.084569e-06 0)
(2.513413e-05 3.113005e-06 0)
(2.439511e-05 4.055183e-06 0)
(2.3351e-05 4.902136e-06 0)
(2.2033e-05 5.64444e-06 0)
(2.04754e-05 6.271988e-06 0)
(1.871567e-05 6.77377e-06 0)
(1.679454e-05 7.137693e-06 0)
(1.475609e-05 7.350503e-06 0)
(1.264777e-05 7.397873e-06 0)
(1.05204e-05 7.264784e-06 0)
(8.428036e-06 6.936358e-06 0)
(6.427803e-06 6.399416e-06 0)
(4.579544e-06 5.645069e-06 0)
(2.945148e-06 4.672797e-06 0)
(1.58952e-06 3.496318e-06 0)
(5.969836e-07 2.152089e-06 0)
(4.624212e-08 7.138214e-07 0)
(1.94733e-08 -5.32959e-07 0)
(1.353366e-07 -1.143815e-06 0)
(2.57602e-07 -1.380118e-06 0)
(3.243905e-07 -1.31666e-06 0)
(2.813031e-07 -1.016628e-06 0)
(8.981153e-08 -5.345969e-07 0)
(-2.791695e-07 8.300648e-08 0)
(-8.472487e-07 7.975551e-07 0)
(-1.6298e-06 1.57764e-06 0)
(-2.637121e-06 2.398343e-06 0)
(-3.875454e-06 3.240441e-06 0)
(-5.34788e-06 4.089586e-06 0)
(-7.05509e-06 4.935507e-06 0)
(-8.99604e-06 5.771268e-06 0)
(-1.11685e-05 6.592584e-06 0)
(-1.356949e-05 7.397214e-06 0)
(-1.619562e-05 8.184433e-06 0)
(-1.90433e-05 8.954573e-06 0)
(-2.210896e-05 9.708639e-06 0)
(-2.538908e-05 1.044799e-05 0)
(-2.888025e-05 1.117407e-05 0)
(-3.257916e-05 1.188823e-05 0)
(-3.64825e-05 1.259152e-05 0)
(-4.058691e-05 1.328462e-05 0)
(-4.488887e-05 1.396772e-05 0)
(-4.938452e-05 1.464048e-05 0)
(-5.406962e-05 1.530202e-05 0)
(-5.893932e-05 1.595088e-05 0)
(-6.39881e-05 1.658505e-05 0)
(-6.920958e-05 1.720199e-05 0)
(-7.459647e-05 1.779865e-05 0)
(-8.014038e-05 1.837153e-05 0)
(-8.583179e-05 1.89167e-05 0)
(-9.165993e-05 1.942987e-05 0)
(-9.761274e-05 1.990643e-05 0)
(-0.0001036768 2.034151e-05 0)
(-0.0001098373 2.073003e-05 0)
(-0.0001160779 2.106678e-05 0)
(-0.0001223811 2.134644e-05 0)
(-0.0001287279 2.156369e-05 0)
(-0.0001350978 2.171321e-05 0)
(-0.0001414691 2.178982e-05 0)
(-0.0001478191 2.178846e-05 0)
(-0.0001541234 2.170432e-05 0)
(-0.0001603572 2.153286e-05 0)
(-0.0001664944 2.126989e-05 0)
(-0.000172508 2.091165e-05 0)
(-0.0001783708 2.045484e-05 0)
(-0.0001840548 1.989668e-05 0)
(-0.0001895318 1.923502e-05 0)
(-0.0001947733 1.846832e-05 0)
(-0.0001997513 1.759575e-05 0)
(-0.0002044376 1.661722e-05 0)
(-0.0002088048 1.553344e-05 0)
(-0.000212826 1.434591e-05 0)
(-0.0002164754 1.305701e-05 0)
(-0.0002197281 1.166996e-05 0)
(-0.0002225606 1.01889e-05 0)
(-0.0002249509 8.618818e-06 0)
(-0.0002268789 6.965631e-06 0)
(-0.0002283261 5.236115e-06 0)
(-0.0002292763 3.43791e-06 0)
(-0.0002297155 1.579485e-06 0)
(-0.0002296321 -3.298969e-07 0)
(-0.0002290172 -2.280229e-06 0)
(-0.0002278645 -4.260814e-06 0)
(-0.0002261704 -6.260338e-06 0)
(-0.0002239345 -8.266942e-06 0)
(-0.0002211592 -1.026831e-05 0)
(-0.0002178499 -1.225177e-05 0)
(-0.0002140153 -1.420437e-05 0)
(-0.0002096669 -1.611302e-05 0)
(-0.0002048197 -1.796457e-05 0)
(-0.0001994914 -1.974597e-05 0)
(-0.000193703 -2.144436e-05 0)
(-0.0001874783 -2.304723e-05 0)
(-0.000180844 -2.454253e-05 0)
(-0.0001738295 -2.59188e-05 0)
(-0.0001664667 -2.716532e-05 0)
(-0.00015879 -2.827222e-05 0)
(-0.0001508359 -2.923059e-05 0)
(-0.0001426431 -3.003264e-05 0)
(-0.0001342516 -3.067178e-05 0)
(-0.0001257034 -3.11427e-05 0)
(-0.000117041 -3.144148e-05 0)
(-0.0001083084 -3.156566e-05 0)
(-9.954981e-05 -3.151427e-05 0)
(-9.080958e-05 -3.128788e-05 0)
(-8.213208e-05 -3.088862e-05 0)
(-7.356113e-05 -3.032017e-05 0)
(-6.513972e-05 -2.958773e-05 0)
(-5.690961e-05 -2.869796e-05 0)
(-4.891108e-05 -2.765897e-05 0)
(-4.11825e-05 -2.648014e-05 0)
(-3.376007e-05 -2.517209e-05 0)
(-2.667748e-05 -2.374654e-05 0)
(-1.99657e-05 -2.221612e-05 0)
(-1.365262e-05 -2.059428e-05 0)
(-7.762953e-06 -1.889511e-05 0)
(-2.317937e-06 -1.713316e-05 0)
(2.664755e-06 -1.532328e-05 0)
(7.171157e-06 -1.348048e-05 0)
(1.11911e-05 -1.161974e-05 0)
(1.471828e-05 -9.755901e-06 0)
(1.775025e-05 -7.903513e-06 0)
(2.028843e-05 -6.076773e-06 0)
(2.233807e-05 -4.289444e-06 0)
(2.390822e-05 -2.554829e-06 0)
(2.501161e-05 -8.857744e-07 0)
(2.566466e-05 7.05273e-07 0)
(2.588733e-05 2.206182e-06 0)
(2.570311e-05 3.604987e-06 0)
(2.513895e-05 4.889708e-06 0)
(2.422521e-05 6.048141e-06 0)
(2.299569e-05 7.067608e-06 0)
(2.148759e-05 7.934709e-06 0)
(1.974156e-05 8.635089e-06 0)
(1.780173e-05 9.153259e-06 0)
(1.571571e-05 9.472537e-06 0)
(1.353465e-05 9.575172e-06 0)
(1.131317e-05 9.442777e-06 0)
(9.109355e-06 9.057217e-06 0)
(6.98479e-06 8.402134e-06 0)
(5.004638e-06 7.465359e-06 0)
(3.237572e-06 6.242416e-06 0)
(1.757778e-06 4.741195e-06 0)
(6.642096e-07 2.988e-06 0)
(5.201351e-08 1.036821e-06 0)
(1.542823e-08 -5.932936e-07 0)
(7.870798e-08 -1.231668e-06 0)
(1.022755e-07 -1.421881e-06 0)
(2.848094e-08 -1.255831e-06 0)
(-1.925851e-07 -8.097775e-07 0)
(-5.968179e-07 -1.487048e-07 0)
(-1.211033e-06 6.725612e-07 0)
(-2.054864e-06 1.60858e-06 0)
(-3.142061e-06 2.622419e-06 0)
(-4.481637e-06 3.68473e-06 0)
(-6.07887e-06 4.772798e-06 0)
(-7.936142e-06 5.869597e-06 0)
(-1.005367e-05 6.962872e-06 0)
(-1.243011e-05 8.044279e-06 0)
(-1.506306e-05 9.108597e-06 0)
(-1.794943e-05 1.015302e-05 0)
(-2.108576e-05 1.117652e-05 0)
(-2.446842e-05 1.217933e-05 0)
(-2.809375e-05 1.316245e-05 0)
(-3.195809e-05 1.412731e-05 0)
(-3.605781e-05 1.507541e-05 0)
(-4.038927e-05 1.600808e-05 0)
(-4.494875e-05 1.69263e-05 0)
(-4.97323e-05 1.783058e-05 0)
(-5.47357e-05 1.872078e-05 0)
(-5.995424e-05 1.959615e-05 0)
(-6.538263e-05 2.04552e-05 0)
(-7.101482e-05 2.129576e-05 0)
(-7.684392e-05 2.211498e-05 0)
(-8.286201e-05 2.290933e-05 0)
(-8.906003e-05 2.367468e-05 0)
(-9.542771e-05 2.440632e-05 0)
(-0.0001019534 2.509904e-05 0)
(-0.0001086242 2.57472e-05 0)
(-0.0001154256 2.634478e-05 0)
(-0.0001223415 2.688544e-05 0)
(-0.0001293546 2.736266e-05 0)
(-0.0001364457 2.776974e-05 0)
(-0.0001435943 2.809991e-05 0)
(-0.0001507784 2.834643e-05 0)
(-0.0001579747 2.850263e-05 0)
(-0.0001651582 2.856202e-05 0)
(-0.0001723031 2.851834e-05 0)
(-0.0001793821 2.83657e-05 0)
(-0.000186367 2.809857e-05 0)
(-0.000193229 2.771196e-05 0)