/*--------------------------------*- C++ -*----------------------------------*\
  =========                 |
  \\      /  F ield         | OpenFOAM: The Open Source CFD Toolbox
   \\    /   O peration     | Website:  https://openfoam.org
    \\  /    A nd           | Version:  11
     \\/     M anipulation  |
\*---------------------------------------------------------------------------*/
FoamFile
{
    format      ascii;
    class       volScalarField;
    location    "9.5";
    object      mag(U);
}
// * * * * * * * * * * * * * * * * * * * * * * * * * * * * * * * * * * * * * //

dimensions      [0 1 -1 0 0 0 0];

internalField   nonuniform List<scalar> 
9600
(
0.967935
0.96531
0.960241
0.956592
0.953682
0.949593
0.943522
0.940378
0.939522
0.935742
0.932775
0.933185
0.935626
0.939152
0.944258
0.951208
0.96183
0.971412
0.980687
0.99497
0.997815
0.994852
0.986843
0.971788
0.958017
0.942721
0.92909
0.921372
0.918801
0.919001
0.916924
0.908151
0.881491
0.840916
0.811271
0.782947
0.769305
0.765784
0.768038
0.801676
0.970134
0.968882
0.967519
0.965037
0.963452
0.961669
0.960536
0.958404
0.957453
0.957805
0.958943
0.961074
0.965003
0.969769
0.977647
0.988501
0.998856
1.0117
1.02347
1.03201
1.0409
1.04048
1.03618
1.02442
1.00717
0.992589
0.983372
0.980835
0.981804
0.988365
1.00153
1.00874
1.00934
1.00266
0.975942
0.938681
0.906262
0.877945
0.851508
0.845545
0.969373
0.968185
0.966752
0.964292
0.962148
0.960802
0.959956
0.958257
0.957731
0.958158
0.959438
0.961855
0.965998
0.971535
0.978812
0.988603
1.0006
1.01176
1.02579
1.03182
1.0407
1.04166
1.03791
1.02909
1.01186
0.992868
0.980096
0.976615
0.978768
0.988696
1.00868
1.0271
1.03673
1.03485
1.01925
0.974307
0.927461
0.892417
0.864848
0.858714
0.969385
0.967917
0.966557
0.964144
0.961932
0.960598
0.959777
0.957885
0.957464
0.958012
0.959804
0.962251
0.966734
0.972781
0.980169
0.990108
1.0026
1.01329
1.02576
1.03477
1.0414
1.04201
1.03783
1.02963
1.01588
0.997989
0.982893
0.974669
0.974254
0.980548
0.999425
1.02417
1.04392
1.051
1.04501
1.01982
0.974565
0.935974
0.893735
0.867511
0.968923
0.967545
0.965849
0.963563
0.961413
0.960295
0.95907
0.957705
0.957735
0.958398
0.960382
0.963115
0.967476
0.974183
0.982385
0.991138
1.00278
1.01527
1.02584
1.03668
1.04235
1.04307
1.03806
1.02931
1.01783
1.00139
0.984631
0.973575
0.971136
0.975264
0.989398
1.01643
1.04494
1.06268
1.06349
1.04969
1.01012
0.967994
0.922056
0.883678
0.968738
0.96721
0.96535
0.96345
0.96123
0.959833
0.958727
0.957556
0.957702
0.958257
0.960604
0.963554
0.96786
0.974281
0.983868
0.992404
1.00385
1.01631
1.02779
1.03721
1.04312
1.04478
1.04041
1.03083
1.01869
1.00328
0.987697
0.974238
0.968065
0.970174
0.981818
1.00665
1.03551
1.0623
1.07567
1.07291
1.0484
1.00535
0.955942
0.90069
0.968026
0.966479
0.964449
0.962741
0.960608
0.958946
0.95808
0.957171
0.957503
0.958295
0.960954
0.963624
0.969367
0.974863
0.985345
0.993182
1.00553
1.01741
1.02961
1.038
1.04413
1.04638
1.04282
1.033
1.02025
1.00417
0.988722
0.975165
0.967517
0.967832
0.975766
0.995958
1.0246
1.05675
1.07917
1.08551
1.0715
1.03617
0.994358
0.925594
0.96755
0.966135
0.963994
0.962329
0.960309
0.958488
0.957797
0.956937
0.957691
0.958446
0.961545
0.963923
0.970434
0.975298
0.986058
0.994479
1.00716
1.01834
1.03092
1.03948
1.04584
1.04791
1.04505
1.03571
1.02278
1.00591
0.989903
0.976492
0.964883
0.964815
0.970118
0.99006
1.01167
1.04808
1.07378
1.09262
1.08808
1.06212
1.03248
0.964531
0.966718
0.965316
0.963123
0.961461
0.959511
0.957669
0.957165
0.956455
0.957526
0.958317
0.961698
0.964264
0.971135
0.976183
0.987253
0.995381
1.00871
1.01985
1.03241
1.04164
1.04803
1.04951
1.04751
1.03869
1.02623
1.00892
0.990624
0.977493
0.963479
0.961723
0.963607
0.98353
1.00133
1.03682
1.06659
1.09395
1.09984
1.08257
1.05851
0.997923
0.966145
0.964758
0.96249
0.960833
0.959149
0.957071
0.956934
0.956247
0.957609
0.958402
0.962145
0.964712
0.971964
0.976949
0.988389
0.996273
1.00995
1.02172
1.03407
1.04335
1.05039
1.05217
1.05029
1.04186
1.02858
1.01331
0.992068
0.978361
0.962468
0.958611
0.956589
0.974845
0.990762
1.02508
1.05676
1.08738
1.10772
1.09985
1.08312
1.02768
0.965189
0.96381
0.961606
0.959745
0.958456
0.956418
0.956424
0.955767
0.957451
0.958231
0.96233
0.964934
0.972623
0.977778
0.989456
0.997696
1.01132
1.02321
1.03585
1.04552
1.05284
1.05523
1.05343
1.04579
1.03107
1.01757
0.99535
0.980222
0.961487
0.955856
0.950595
0.96548
0.979751
1.01213
1.04476
1.08033
1.1081
1.11358
1.10672
1.05632
0.96449
0.963032
0.96102
0.958786
0.957793
0.955958
0.95624
0.955447
0.957436
0.958168
0.962581
0.965181
0.973329
0.978504
0.99054
0.998941
1.01291
1.02489
1.03762
1.04842
1.05565
1.05801
1.05589
1.05067
1.03513
1.02181
0.998866
0.982362
0.961004
0.953176
0.944779
0.955477
0.969044
0.99604
1.03273
1.06859
1.10458
1.11875
1.12793
1.08296
0.963491
0.961824
0.960237
0.957844
0.956926
0.955182
0.955854
0.955045
0.957358
0.958018
0.96277
0.965419
0.973916
0.979218
0.991508
1.00054
1.01421
1.02737
1.03959
1.05116
1.0581
1.06259
1.05862
1.05528
1.03948
1.02672
1.00298
0.985698
0.963018
0.950794
0.940173
0.943647
0.957341
0.978379
1.01695
1.05445
1.09807
1.11805
1.14732
1.10807
0.962536
0.960819
0.959402
0.95704
0.95622
0.954444
0.955384
0.95454
0.957225
0.957797
0.962919
0.965489
0.974415
0.980279
0.992229
1.00256
1.01532
1.02961
1.04216
1.05391
1.06053
1.06667
1.06265
1.06015
1.04402
1.03134
1.00892
0.988533
0.966235
0.949869
0.936991
0.933239
0.944152
0.958106
0.999764
1.03444
1.08786
1.11158
1.16003
1.13071
0.961398
0.959657
0.958284
0.956114
0.955524
0.953814
0.95496
0.954035
0.957109
0.957582
0.962937
0.966341
0.973825
0.982666
0.992008
1.00493
1.0174
1.03151
1.04502
1.05709
1.06429
1.06998
1.06854
1.06239
1.05321
1.03318
1.01698
0.994067
0.968529
0.951196
0.935737
0.923882
0.932603
0.938463
0.977376
1.01018
1.07088
1.0987
1.16202
1.14841
0.960221
0.958448
0.957242
0.954996
0.954575
0.952803
0.954253
0.953244
0.956555
0.957941
0.961098
0.96869
0.972813
0.984182
0.992987
1.00599
1.01985
1.03383
1.04758
1.06041
1.06828
1.07306
1.07448
1.06675
1.05872
1.04066
1.02059
1.00132
0.974961
0.950871
0.936397
0.918348
0.921993
0.919933
0.953407
0.980616
1.04434
1.07833
1.15604
1.16065
0.959033
0.957281
0.956163
0.953932
0.953791
0.952042
0.953698
0.953518
0.9548
0.95925
0.960843
0.968201
0.97429
0.983997
0.995456
1.0075
1.02205
1.03706
1.05106
1.06353
1.07382
1.07706
1.07934
1.07391
1.06357
1.04951
1.02736
1.00548
0.983875
0.953925
0.938235
0.914633
0.914291
0.903475
0.929956
0.949687
1.01038
1.04771
1.13543
1.16543
0.957551
0.955732
0.954705
0.952361
0.952477
0.951216
0.95122
0.954076
0.953631
0.958582
0.960486
0.967823
0.975268
0.984602
0.996446
1.00978
1.02396
1.03949
1.05514
1.06668
1.07827
1.08241
1.08342
1.08132
1.06956
1.05617
1.03772
1.01083
0.991264
0.959177
0.942091
0.913108
0.908917
0.890783
0.907868
0.918407
0.971006
1.00922
1.0969
1.15546
0.9563
0.954484
0.95353
0.951635
0.950382
0.951605
0.949926
0.953415
0.953212
0.958319
0.961877
0.967109
0.977168
0.985617
0.998361
1.01255
1.02691
1.04298
1.05895
1.07185
1.08228
1.08955
1.08889
1.08722
1.07888
1.06247
1.04747
1.01962
1.00063
0.965759
0.948135
0.914636
0.905722
0.882014
0.889642
0.891517
0.928896
0.966822
1.04211
1.12306
0.954641
0.952849
0.950901
0.950532
0.948229
0.94988
0.94836
0.951917
0.953085
0.955853
0.962882
0.967029
0.977584
0.987219
0.999402
1.01507
1.02994
1.04646
1.06293
1.07642
1.08665
1.09494
1.09667
1.09248
1.08796
1.07071
1.05722
1.02835
1.01044
0.974117
0.95568
0.919801
0.905656
0.877302
0.873648
0.869778
0.886115
0.923693
0.9765
1.07112
0.952865
0.952126
0.949466
0.949243
0.946926
0.94887
0.947675
0.95006
0.953902
0.955122
0.962777
0.968367
0.977557
0.989676
1.00243
1.017
1.03458
1.05022
1.06834
1.08183
1.09354
1.09994
1.10495
1.09971
1.0969
1.07973
1.06893
1.0392
1.02176
0.985191
0.964161
0.92852
0.908815
0.879103
0.862528
0.85621
0.848363
0.882396
0.907904
1.00607
0.949725
0.949297
0.946791
0.94707
0.944571
0.946499
0.946142
0.947567
0.951961
0.954985
0.960839
0.968886
0.978776
0.989809
1.00524
1.01953
1.03845
1.05467
1.0736
1.08652
1.10076
1.10568
1.11303
1.10681
1.10671
1.08864
1.08032
1.05098
1.03407
0.99824
0.974492
0.939363
0.913797
0.886064
0.856891
0.849585
0.823756
0.845772
0.844934
0.930274
0.947973
0.947574
0.94473
0.945245
0.943151
0.944815
0.945754
0.947798
0.950345
0.955337
0.961668
0.969128
0.981068
0.991991
1.00887
1.02308
1.04403
1.05919
1.08109
1.09204
1.10955
1.11245
1.12288
1.11531
1.11769
1.10004
1.09282
1.06565
1.04745
1.01514
0.987285
0.954303
0.921068
0.898309
0.859102
0.84852
0.814483
0.819666
0.797889
0.851228
0.944467
0.94423
0.941053
0.94137
0.94043
0.940398
0.94276
0.944883
0.949335
0.953033
0.961729
0.968491
0.982179
0.993334
1.0122
1.02559
1.04943
1.0635
1.08791
1.09736
1.11748
1.11964
1.13165
1.12482
1.1279
1.11232
1.10486
1.0816
1.06226
1.03266
1.00195
0.973603
0.931869
0.910556
0.868369
0.85171
0.819238
0.802527
0.782587
0.787128
0.942595
0.942464
0.940245
0.938029
0.939378
0.938705
0.940689
0.943007
0.948317
0.952806
0.96249
0.969683
0.985898
0.995658
1.01714
1.03065
1.05614
1.07014
1.09576
1.10586
1.1256
1.12925
1.14114
1.13599
1.13927
1.12679
1.11922
1.09947
1.07844
1.05643
1.01916
0.995689
0.950934
0.926819
0.887492
0.853507
0.840121
0.792758
0.787705
0.767128
0.938233
0.937011
0.935838
0.934447
0.934197
0.935825
0.937651
0.940733
0.946207
0.950791
0.961898
0.969207
0.986674
0.998242
1.02041
1.03564
1.06058
1.07694
1.10184
1.1147
1.13281
1.13875
1.14993
1.14699
1.14898
1.14094
1.13053
1.11972
1.09359
1.07898
1.04141
1.01864
0.976039
0.941408
0.915314
0.864919
0.849299
0.807973
0.787425
0.769384
0.936388
0.935471
0.933154
0.93331
0.932529
0.935186
0.937313
0.940653
0.947815
0.953246
0.964109
0.974412
0.990598
1.00471
1.02584
1.04508
1.06904
1.08737
1.11083
1.12654
1.14288
1.15078
1.15994
1.1624
1.15955
1.15928
1.14387
1.14024
1.11424
1.10204
1.06783
1.04157
1.01046
0.963272
0.939993
0.892861
0.867492
0.833111
0.796932
0.776552
0.931392
0.928554
0.927949
0.926058
0.925936
0.929213
0.930914
0.936899
0.942965
0.951711
0.962625
0.975983
0.992373
1.01
1.03101
1.0518
1.07619
1.09811
1.11873
1.13781
1.15129
1.16466
1.1679
1.17789
1.16995
1.17564
1.15859
1.15982
1.1357
1.1233
1.10077
1.06437
1.04336
0.995261
0.967616
0.922295
0.887482
0.858066
0.82034
0.787944
0.929347
0.927342
0.925551
0.926869
0.925075
0.928755
0.931105
0.937923
0.943128
0.955001
0.965686
0.981598
0.997422
1.01884
1.03811
1.06477
1.08457
1.11204
1.12874
1.15261
1.1621
1.18067
1.17975
1.19407
1.18474
1.1928
1.18082
1.17549
1.16753
1.14506
1.1355
1.1
1.07991
1.03562
1.00355
0.966128
0.920339
0.887915
0.856222
0.816251
0.917108
0.919182
0.916438
0.918234
0.917296
0.9238
0.924241
0.935353
0.940273
0.955092
0.964782
0.985527
1.00023
1.02613
1.04475
1.07313
1.09428
1.12271
1.13954
1.16363
1.17388
1.19082
1.19535
1.20105
1.2057
1.20036
1.20288
1.19151
1.1915
1.17021
1.16634
1.13686
1.11639
1.08648
1.04305
1.00868
0.971963
0.924139
0.894987
0.853712
0.913348
0.917122
0.913027
0.91762
0.917031
0.924032
0.926815
0.93895
0.945812
0.962027
0.975042
0.995286
1.01461
1.03874
1.0626
1.08846
1.11488
1.13754
1.16179
1.17679
1.19739
1.20298
1.21631
1.21769
1.22383
1.21813
1.22696
1.21136
1.21468
1.20504
1.1923
1.18178
1.15806
1.13349
1.10246
1.06376
1.02523
0.980836
0.949171
0.900784
0.898491
0.901338
0.899932
0.903383
0.90621
0.911603
0.921836
0.928801
0.946019
0.958191
0.978587
0.998313
1.02197
1.04653
1.07464
1.0993
1.12941
1.15031
1.17406
1.19339
1.20801
1.21704
1.23298
1.22878
1.23927
1.23837
1.23792
1.23818
1.23442
1.23354
1.22301
1.2192
1.20123
1.18426
1.1625
1.12361
1.09791
1.04269
1.01707
0.960865
0.901176
0.899866
0.902172
0.901527
0.910427
0.91338
0.92729
0.937535
0.953693
0.971105
0.992507
1.01391
1.04002
1.06702
1.09318
1.12322
1.15
1.17204
1.19884
1.21321
1.22812
1.2427
1.24598
1.25417
1.25641
1.26001
1.25702
1.26327
1.25887
1.26072
1.26119
1.25152
1.2547
1.23206
1.23027
1.19392
1.1797
1.13042
1.10662
1.05026
0.879054
0.886993
0.886261
0.893412
0.897324
0.911173
0.920104
0.94
0.954639
0.979144
1.00216
1.02554
1.05984
1.08097
1.11682
1.14387
1.16924
1.19735
1.21775
1.23354
1.2502
1.26016
1.26569
1.27143
1.2772
1.27202
1.28424
1.27369
1.28976
1.27844
1.29648
1.28242
1.2976
1.27949
1.28935
1.26439
1.25964
1.22577
1.20815
1.15776
0.873214
0.882034
0.883167
0.894946
0.901454
0.919109
0.934455
0.95531
0.97659
1.00459
1.02826
1.05827
1.09074
1.11513
1.15443
1.17495
1.21098
1.22665
1.25829
1.26098
1.28985
1.28472
1.30465
1.29698
1.31266
1.30271
1.31568
1.30598
1.32038
1.31336
1.33175
1.32839
1.34798
1.34368
1.35713
1.34643
1.35292
1.33557
1.33106
1.29867
0.856836
0.86844
0.871017
0.887318
0.895651
0.919678
0.934061
0.964958
0.988911
1.02095
1.04925
1.08444
1.1151
1.14935
1.18015
1.21202
1.2375
1.26299
1.28241
1.29651
1.31043
1.31752
1.32528
1.32728
1.33413
1.33309
1.33677
1.33433
1.33821
1.33693
1.34392
1.34939
1.3625
1.37542
1.39148
1.40664
1.41662
1.43044
1.4274
1.43545
0.862635
0.874478
0.89167
0.916746
0.935998
0.967562
0.990318
1.02473
1.05107
1.08964
1.11941
1.15857
1.19016
1.22642
1.25693
1.28708
1.31145
1.33176
1.34649
1.35638
1.36066
1.36393
1.36254
1.36509
1.36374
1.36612
1.3644
1.36016
1.35212
1.33937
1.32748
1.32041
1.32103
1.33185
1.334
1.3562
1.35229
1.38085
1.36843
1.40405
0.828353
0.860429
0.877134
0.90581
0.930066
0.965788
1.00141
1.04319
1.08144
1.12501
1.16256
1.20435
1.23835
1.27522
1.30274
1.33122
1.34902
1.36526
1.37115
1.37499
1.37026
1.36649
1.3576
1.35531
1.34798
1.35698
1.35816
1.35986
1.34534
1.31371
1.2697
1.21271
1.17101
1.13329
1.10732
1.07809
1.04109
0.997983
0.906519
0.904337
0.907202
0.959163
1.00058
1.05194
1.09038
1.13536
1.17178
1.21448
1.24668
1.2856
1.31123
1.34302
1.35944
1.38413
1.39093
1.41247
1.40859
1.42131
1.4053
1.40497
1.37761
1.36525
1.33114
1.31091
1.28048
1.26478
1.23369
1.22717
1.18322
1.14004
1.08147
0.99828
0.907647
0.754432
0.566829
0.391842
0.243346
0.156172
0.140038
0.157849
1.03816
1.07575
1.11079
1.14855
1.18492
1.21812
1.24747
1.27223
1.29155
1.3069
1.31427
1.32425
1.32506
1.33254
1.323
1.31816
1.29219
1.27494
1.23412
1.20434
1.14705
1.10072
1.02254
0.958029
0.865172
0.79465
0.70449
0.621258
0.327771
0.172457
0.385914
0.438083
0.440474
0.228579
0.152451
0.17616
0.201891
0.219588
0.236691
0.259365
0.806995
0.792841
0.816589
0.791916
0.745442
0.711157
0.805553
1.0842
1.23679
1.25435
1.1598
1.08996
1.06681
1.05164
1.04299
1.03833
1.03485
1.03273
1.03059
1.02934
1.02812
1.02681
1.02633
1.025
1.02464
1.02345
1.02303
1.022
1.02162
1.02114
1.02073
1.02025
1.01979
1.01917
1.01886
1.0183
1.0182
1.01746
1.01728
1.01425
0.824644
0.802358
0.814427
0.780855
0.740068
0.71125
0.80589
1.07893
1.22221
1.24071
1.17553
1.10146
1.07012
1.05599
1.04551
1.03985
1.03667
1.03372
1.03167
1.03015
1.02897
1.02747
1.02695
1.02559
1.02523
1.02401
1.02362
1.02247
1.02197
1.02149
1.0211
1.02069
1.02023
1.01965
1.01927
1.01889
1.01908
1.0188
1.01873
1.01973
0.837453
0.826672
0.838035
0.815785
0.766813
0.744341
0.858242
1.12261
1.21366
1.21253
1.17347
1.10485
1.06868
1.05647
1.04588
1.04034
1.03735
1.03418
1.03244
1.03081
1.02958
1.02812
1.02738
1.02604
1.02562
1.02434
1.02394
1.0228
1.0222
1.02176
1.02131
1.02105
1.02053
1.0201
1.01958
1.01924
1.01925
1.01908
1.0184
1.01576
0.856848
0.857166
0.860559
0.842641
0.807012
0.81845
0.931064
1.13143
1.18254
1.17078
1.16565
1.10897
1.0713
1.05895
1.04787
1.04148
1.03872
1.03542
1.03372
1.03215
1.03067
1.02943
1.02842
1.02729
1.02663
1.02566
1.02494
1.02413
1.02314
1.02272
1.022
1.02183
1.02122
1.02084
1.02024
1.01995
1.01984
1.0201
1.02047
1.02242
0.88044
0.886701
0.898308
0.888921
0.859343
0.892091
0.968832
1.12971
1.15147
1.128
1.13666
1.10438
1.06908
1.05678
1.04807
1.04143
1.03938
1.03591
1.03447
1.03298
1.03143
1.03039
1.02919
1.02827
1.02737
1.02657
1.02575
1.0251
1.02408
1.02354
1.02272
1.02236
1.02185
1.0214
1.02093
1.02054
1.02014
1.01977
1.01925
1.0176
0.904017
0.917313
0.924483
0.918416
0.894044
0.918984
0.971074
1.09393
1.10197
1.08686
1.10197
1.0985
1.06571
1.05479
1.048
1.04141
1.03975
1.03626
1.03473
1.03342
1.03194
1.03091
1.0296
1.02875
1.02775
1.02702
1.02607
1.02554
1.02444
1.0239
1.0231
1.02262
1.02222
1.0217
1.02129
1.02094
1.02078
1.02068
1.02088
1.02206
0.933791
0.951887
0.968272
0.959999
0.92357
0.932515
0.965063
1.05769
1.06537
1.04454
1.05932
1.08405
1.05863
1.05098
1.04665
1.04041
1.03934
1.03634
1.0349
1.03399
1.03252
1.03163
1.0301
1.02934
1.02818
1.02743
1.02646
1.0258
1.02486
1.02412
1.02342
1.02277
1.02248
1.0219
1.02158
1.02104
1.02082
1.02054
1.02006
1.01903
0.962281
0.984593
0.995451
0.997154
0.951575
0.935319
0.948225
1.00494
1.01842
0.998617
1.01934
1.06605
1.05168
1.04746
1.04534
1.03964
1.03909
1.03699
1.03547
1.03479
1.03346
1.03272
1.03118
1.03038
1.02912
1.02819
1.02733
1.0265
1.02577
1.02473
1.02409
1.02307
1.02269
1.02201
1.02179
1.02141
1.0213
1.02114
1.02119
1.02159
0.993753
1.02537
1.04803
1.0471
0.981446
0.932826
0.925347
0.956716
0.98006
0.954636
0.981674
1.04181
1.04082
1.03951
1.04315
1.03867
1.03861
1.0375
1.03591
1.03536
1.03407
1.03347
1.03226
1.0314
1.03049
1.02946
1.02881
1.02771
1.02721
1.02607
1.02554
1.02426
1.02362
1.02279
1.02237
1.02183
1.02145
1.02117
1.02088
1.02009
1.02333
1.06138
1.08555
1.09683
1.02128
0.925485
0.897104
0.904004
0.930197
0.911176
0.947682
1.01539
1.03006
1.03024
1.03936
1.03643
1.03707
1.0369
1.0358
1.03551
1.03443
1.03383
1.03277
1.03191
1.0311
1.03005
1.02952
1.02846
1.02798
1.02702
1.02643
1.02558
1.02475
1.024
1.02343
1.02294
1.02231
1.02202
1.02175
1.02168
1.0557
1.10751
1.15596
1.16215
1.04045
0.912669
0.860539
0.858026
0.887726
0.875106
0.91482
0.990902
1.01833
1.02052
1.0332
1.03255
1.03436
1.03577
1.03539
1.03548
1.03497
1.03434
1.03337
1.03239
1.0316
1.03051
1.02993
1.02888
1.02839
1.0275
1.02687
1.02624
1.02551
1.02478
1.02395
1.02342
1.02274
1.02237
1.02184
1.02129
1.08777
1.1528
1.21502
1.22231
1.04114
0.887345
0.813567
0.805345
0.834523
0.837113
0.884195
0.971308
1.00446
1.01213
1.02663
1.02967
1.03224
1.03483
1.03502
1.03545
1.03535
1.03511
1.0343
1.03318
1.03232
1.03109
1.0304
1.02932
1.0287
1.02789
1.02715
1.02661
1.02592
1.02539
1.02468
1.02409
1.02349
1.02299
1.02258
1.02244
1.12214
1.21769
1.3062
1.25271
1.02516
0.838468
0.751219
0.749136
0.784941
0.803752
0.856975
0.952226
0.987363
1.00414
1.01986
1.02741
1.03021
1.0338
1.03455
1.03526
1.03541
1.03544
1.03513
1.03434
1.03348
1.0324
1.03142
1.03034
1.02935
1.02859
1.02763
1.02711
1.02632
1.02571
1.02505
1.02441
1.0239
1.02332
1.02274
1.02247
1.15838
1.28842
1.37093
1.25636
0.971824
0.754944
0.671274
0.680565
0.724263
0.768736
0.836326
0.934049
0.971743
0.997085
1.01225
1.02349
1.02783
1.03198
1.03369
1.03491
1.03541
1.03563
1.0356
1.03519
1.03456
1.03392
1.03299
1.03208
1.03106
1.03008
1.02899
1.02815
1.02753
1.02665
1.02612
1.02532
1.02485
1.02413
1.02362
1.0233
1.19821
1.36883
1.41619
1.23887
0.87339
0.64331
0.579511
0.613565
0.674327
0.744633
0.825883
0.919004
0.95986
0.98854
1.00421
1.01786
1.02491
1.0294
1.0325
1.03425
1.03523
1.03563
1.03582
1.0356
1.03511
1.0347
1.03401
1.03316
1.03235
1.03151
1.03064
1.02956
1.02879
1.02779
1.02724
1.02633
1.02573
1.02484
1.02423
1.02371
1.24366
1.42565
1.40744
1.19322
0.750001
0.535523
0.509536
0.566311
0.638666
0.730804
0.826354
0.906534
0.95073
0.980723
0.999608
1.01263
1.02219
1.0271
1.03137
1.03335
1.03488
1.03557
1.03595
1.03599
1.03551
1.03518
1.03463
1.03372
1.03304
1.03216
1.03159
1.03069
1.03002
1.02904
1.02841
1.02742
1.02684
1.02585
1.02528
1.02485
1.27425
1.42666
1.41197
1.21041
0.715005
0.533148
0.517404
0.575349
0.642525
0.739286
0.833926
0.898693
0.944436
0.975995
0.996824
1.0079
1.01962
1.02525
1.03017
1.03244
1.03472
1.03548
1.03589
1.03614
1.03577
1.03535
1.03506
1.034
1.03358
1.03257
1.03215
1.03125
1.03066
1.02973
1.0292
1.02809
1.02748
1.02647
1.02593
1.02553
1.26839
1.38657
1.4053
1.2863
0.843846
0.679753
0.621399
0.645124
0.683216
0.766363
0.845069
0.898383
0.944364
0.971459
0.994476
1.00558
1.01765
1.02338
1.02967
1.03194
1.0348
1.03555
1.03598
1.03645
1.03636
1.03574
1.0358
1.03478
1.03454
1.03356
1.03318
1.03228
1.03178
1.0308
1.03031
1.02928
1.02878
1.0276
1.02706
1.02637
1.2097
1.31598
1.38662
1.33787
1.04043
0.884795
0.767909
0.749037
0.747589
0.809251
0.860545
0.905754
0.94783
0.970164
0.99384
1.00516
1.01795
1.02249
1.02951
1.03153
1.03517
1.03614
1.03682
1.03736
1.03785
1.03719
1.03733
1.03632
1.03604
1.03502
1.03434
1.03342
1.03293
1.03195
1.03127
1.03016
1.02972
1.02883
1.02837
1.02768
1.11239
1.23839
1.33391
1.31849
1.11132
0.998347
0.877801
0.841426
0.815322
0.857064
0.88358
0.92127
0.954163
0.976918
0.995271
1.00615
1.01893
1.02178
1.02991
1.03156
1.03559
1.03689
1.03784
1.03793
1.03897
1.03818
1.03852
1.03742
1.0371
1.03628
1.03552
1.03452
1.03398
1.03284
1.03234
1.03108
1.03046
1.02941
1.02905
1.02833
1.00258
1.1236
1.25122
1.25981
1.11927
1.03624
0.936664
0.906349
0.880945
0.905717
0.914458
0.945331
0.964528
0.989314
0.999185
1.00884
1.02034
1.02213
1.03018
1.032
1.03527
1.03688
1.03817
1.03785
1.03916
1.03825
1.03887
1.0379
1.03762
1.03689
1.03621
1.03523
1.03473
1.03351
1.03304
1.03199
1.03151
1.03047
1.03007
1.02957
0.894446
1.00385
1.14246
1.15728
1.08933
1.02371
0.966717
0.953045
0.939702
0.953061
0.954082
0.976068
0.979447
1.00339
1.00861
1.01593
1.02414
1.02589
1.0304
1.03356
1.03484
1.03678
1.03838
1.038
1.03936
1.03855
1.03916
1.03894
1.03834
1.0381
1.0377
1.03671
1.03633
1.03503
1.0346
1.03334
1.03288
1.03159
1.03107
1.03047
0.789498
0.871799
1.00291
1.03694
1.02326
0.989697
0.98165
0.98806
0.989047
1.00071
0.998351
1.00809
1.00339
1.02228
1.02358
1.02886
1.0309
1.03436
1.03351
1.03818
1.03752
1.03991
1.04028
1.04053
1.04117
1.04137
1.04107
1.04167
1.0407
1.04049
1.04018
1.03919
1.03903
1.03772
1.03725
1.03579
1.03521
1.03387
1.0333
1.03265
0.698895
0.750688
0.863118
0.922964
0.936288
0.943357
0.975284
1.0026
1.02845
1.04288
1.0387
1.04231
1.03553
1.04211
1.04239
1.04457
1.04222
1.04476
1.04205
1.04532
1.0437
1.04591
1.04435
1.04565
1.04411
1.04523
1.04358
1.04434
1.04337
1.04272
1.04243
1.04102
1.04087
1.03933
1.03885
1.03723
1.03661
1.03525
1.03471
1.03391
0.658589
0.663986
0.741869
0.812323
0.831707
0.868545
0.93763
0.994878
1.04663
1.06655
1.0765
1.07576
1.06683
1.06231
1.0636
1.05969
1.05718
1.05449
1.05226
1.05112
1.04921
1.05045
1.04777
1.04893
1.04605
1.047
1.04485
1.0451
1.04433
1.04362
1.04342
1.0423
1.04197
1.04073
1.04015
1.03892
1.03827
1.03723
1.03666
1.03612
0.680925
0.656965
0.662158
0.694296
0.708732
0.767555
0.870746
0.956924
1.0351
1.08193
1.10856
1.104
1.09693
1.08865
1.08418
1.07794
1.07288
1.0653
1.06335
1.05792
1.05568
1.05455
1.05199
1.05143
1.04971
1.04849
1.04744
1.0464
1.04577
1.04486
1.04426
1.04337
1.04256
1.04179
1.04083
1.0402
1.03928
1.03864
1.03772
1.03722
0.720651
0.683348
0.654668
0.62224
0.600366
0.661585
0.771938
0.87937
0.998964
1.08578
1.12086
1.13149
1.12934
1.11686
1.10699
1.1023
1.09186
1.085
1.07821
1.07211
1.06652
1.0636
1.06118
1.05779
1.05734
1.05389
1.05366
1.05125
1.05056
1.04904
1.0479
1.04708
1.04544
1.04523
1.04358
1.04353
1.04193
1.04172
1.04051
1.04033
0.7508
0.7195
0.679764
0.626059
0.57311
0.583172
0.645993
0.761232
0.926636
1.0504
1.12093
1.15121
1.15272
1.14597
1.13525
1.12759
1.11671
1.10834
1.09733
1.09171
1.08209
1.07804
1.07311
1.06887
1.06725
1.06345
1.06217
1.05941
1.05768
1.0556
1.05368
1.05227
1.05015
1.04929
1.04731
1.04672
1.04458
1.04401
1.04244
1.04205
0.779946
0.753137
0.722921
0.672615
0.614716
0.585204
0.559335
0.617911
0.791368
0.974514
1.09663
1.14506
1.16577
1.16743
1.15695
1.14712
1.13963
1.12716
1.11869
1.10955
1.10017
1.09264
1.08622
1.08037
1.07647
1.07332
1.07017
1.06768
1.06498
1.06281
1.06069
1.05877
1.057
1.05524
1.05352
1.05206
1.05006
1.04893
1.04736
1.04674
0.822728
0.789184
0.765159
0.737902
0.689155
0.646463
0.597805
0.542837
0.610011
0.820831
1.02318
1.1224
1.15962
1.1688
1.16897
1.16176
1.15324
1.14407
1.13552
1.12524
1.11902
1.10723
1.10123
1.09228
1.08708
1.0823
1.07859
1.07519
1.07259
1.06955
1.06731
1.06446
1.06265
1.06004
1.05829
1.05557
1.054
1.05157
1.05049
1.04919
0.879749
0.848725
0.821914
0.808018
0.78584
0.745972
0.692878
0.623685
0.53624
0.588161
0.845339
1.0475
1.13182
1.16127
1.16752
1.16787
1.16193
1.15671
1.14773
1.14173
1.13342
1.12597
1.11686
1.10889
1.10034
1.09428
1.08862
1.08443
1.08116
1.07748
1.07534
1.0722
1.07056
1.06752
1.0656
1.06304
1.0609
1.05884
1.05739
1.05595
0.941271
0.928208
0.914287
0.907665
0.908799
0.88474
0.81934
0.735823
0.629029
0.518
0.542421
0.858642
1.05196
1.13038
1.15613
1.1652
1.16602
1.16348
1.15985
1.15391
1.14878
1.14327
1.13409
1.12894
1.11805
1.11194
1.1028
1.09755
1.09144
1.08732
1.0828
1.07991
1.07607
1.07371
1.07022
1.06858
1.06514
1.06432
1.06142
1.06118
1.03595
1.02238
1.03145
1.05788
1.0645
1.00034
0.903554
0.797499
0.708503
0.600922
0.484217
0.487394
0.838518
1.03394
1.11424
1.14469
1.15779
1.16343
1.16517
1.16379
1.1619
1.15863
1.1556
1.1508
1.14724
1.13923
1.13271
1.123
1.11484
1.10861
1.10176
1.09746
1.09177
1.08865
1.08378
1.08135
1.07657
1.07482
1.0715
1.07064
1.15441
1.15891
1.18765
1.19394
1.13283
1.03722
0.917247
0.79633
0.707475
0.631462
0.543595
0.445683
0.386107
0.771586
0.979064
1.07094
1.11699
1.13663
1.15447
1.15802
1.16367
1.16338
1.16365
1.16137
1.15954
1.15721
1.15487
1.15133
1.14482
1.13734
1.12939
1.12171
1.11475
1.10924
1.10429
1.09937
1.09516
1.09134
1.0889
1.08723
1.31411
1.33154
1.31114
1.25686
1.14311
1.00909
0.873606
0.739913
0.619524
0.550801
0.528802
0.494063
0.393431
0.226075
0.631214
0.870308
0.98589
1.05002
1.09938
1.12229
1.14264
1.15026
1.15735
1.15899
1.15993
1.15991
1.15969
1.16004
1.15892
1.15859
1.15603
1.15311
1.14801
1.1417
1.13477
1.12856
1.12127
1.11593
1.11103
1.107
1.42658
1.39138
1.30904
1.17532
1.02453
0.840468
0.643414
0.499693
0.41092
0.381314
0.403016
0.418221
0.413675
0.354806
0.181063
0.433801
0.707103
0.850858
0.948956
1.0167
1.06512
1.09325
1.1167
1.12986
1.1405
1.14673
1.15138
1.15546
1.15778
1.16003
1.16185
1.16291
1.16339
1.16299
1.16145
1.15807
1.15419
1.14823
1.14262
1.13757
1.35253
1.20258
1.00842
0.808335
0.621621
0.441803
0.25518
0.0750876
0.114039
0.265007
0.371475
0.448754
0.473235
0.463862
0.425426
0.418729
0.116955
0.46752
0.631264
0.776149
0.874965
0.952402
1.00782
1.0519
1.0781
1.1041
1.11816
1.13184
1.14165
1.14893
1.1565
1.16113
1.16635
1.16819
1.17122
1.1719
1.17211
1.17187
1.17015
1.16747
0.731655
0.523989
0.489958
0.494441
0.505348
0.494693
0.471359
0.489992
0.506359
0.552054
0.577215
0.600151
0.604395
0.582969
0.584724
0.565502
0.501593
0.320326
0.27586
0.471751
0.609822
0.726704
0.813941
0.898367
0.949109
1.00166
1.03356
1.06306
1.0827
1.0961
1.10605
1.11077
1.12663
1.13387
1.14444
1.14957
1.15771
1.16204
1.17021
1.17759
0.218096
0.379993
0.40806
0.418113
0.446881
0.51058
0.551997
0.601175
0.635152
0.67003
0.693772
0.722429
0.735337
0.747221
0.762194
0.751444
0.741528
0.72159
0.705914
0.514023
0.242652
0.337332
0.494218
0.591187
0.705041
0.762214
0.840328
0.877895
0.944096
0.973693
1.02236
1.04238
1.07377
1.08926
1.11911
1.13058
1.15472
1.16258
1.17709
1.18185
0.289885
0.332912
0.390009
0.435014
0.490184
0.536541
0.581351
0.620745
0.653965
0.681156
0.702305
0.717465
0.72625
0.731404
0.725853
0.71402
0.702541
0.675881
0.663284
0.582647
0.477002
0.481827
0.500974
0.413386
0.036199
0.421017
0.534804
0.582395
0.637687
0.665123
0.704936
0.740927
0.782369
0.82314
0.862495
0.903425
0.942319
0.989266
1.03875
1.09408
1.0014
1.00062
0.993025
0.990856
0.99088
0.994081
1.00061
1.00883
1.0162
1.01865
1.01906
1.01837
1.01778
1.01719
1.01731
1.01725
1.01728
1.01718
1.01711
1.01695
1.01685
1.01665
1.01648
1.01628
1.01606
1.0158
1.01554
1.01527
1.01498
1.01468
1.01436
1.01403
1.01367
1.01328
1.01285
1.01241
1.01199
1.01155
1.01102
1.01057
1.02519
1.03023
1.03107
1.03149
1.03072
1.0284
1.02412
1.01957
1.01788
1.01757
1.01784
1.01831
1.01884
1.01911
1.01915
1.01914
1.01903
1.01884
1.01864
1.01847
1.0183
1.01811
1.01784
1.01754
1.01724
1.01693
1.01661
1.01629
1.01595
1.01556
1.01516
1.01481
1.01442
1.01397
1.01348
1.01294
1.0124
1.01194
1.01154
1.01124
1.01011
1.0107
1.01153
1.01243
1.01418
1.01482
1.01599
1.0164
1.01683
1.01768
1.01828
1.01874
1.01901
1.01912
1.01917
1.01919
1.01914
1.019
1.01884
1.01866
1.01848
1.01832
1.01812
1.0178
1.01744
1.0171
1.01684
1.01656
1.01627
1.01591
1.01555
1.01518
1.01481
1.01442
1.01392
1.01342
1.01293
1.0126
1.01231
1.01206
1.02644
1.02781
1.02842
1.02837
1.02734
1.02545
1.02333
1.02112
1.01991
1.01961
1.01968
1.0198
1.01983
1.01981
1.01974
1.01962
1.01945
1.01928
1.01914
1.01897
1.01879
1.01857
1.01829
1.01805
1.01776
1.01743
1.01711
1.01679
1.01646
1.01613
1.01577
1.0154
1.01502
1.01461
1.01407
1.01348
1.01309
1.0128
1.01249
1.01223
1.01472
1.01624
1.01606
1.01649
1.01675
1.0171
1.01787
1.01809
1.01855
1.01882
1.01922
1.01939
1.0194
1.01945
1.01953
1.01958
1.0195
1.01924
1.01913
1.01902
1.01895
1.01871
1.01844
1.01812
1.01794
1.01758
1.01732
1.01701
1.01681
1.01649
1.0161
1.01577
1.01539
1.01501
1.01447
1.01398
1.01361
1.01338
1.01304
1.01277
1.02444
1.02509
1.02521
1.0252
1.02452
1.02364
1.02267
1.02185
1.02122
1.02089
1.02083
1.02072
1.02053
1.02028
1.0202
1.0201
1.01999
1.01968
1.01944
1.01925
1.0191
1.01891
1.01864
1.01838
1.01807
1.01772
1.01741
1.01707
1.01689
1.01653
1.01611
1.01573
1.01535
1.01494
1.01441
1.01397
1.0137
1.01338
1.01306
1.01275
1.01774
1.01834
1.01822
1.01828
1.0185
1.01888
1.01927
1.01945
1.01972
1.01987
1.02006
1.02014
1.02008
1.02012
1.02014
1.02011
1.0199
1.01974
1.01963
1.01951
1.01933
1.01914
1.01889
1.01862
1.01833
1.01804
1.01775
1.01756
1.01729
1.01705
1.01658
1.01612
1.01577
1.01535
1.01485
1.01451
1.01421
1.0139
1.01351
1.01324
1.02274
1.02326
1.02328
1.02326
1.02292
1.02276
1.02237
1.02217
1.02185
1.02177
1.02144
1.02125
1.02094
1.02094
1.02087
1.02077
1.02035
1.02012
1.01997
1.01984
1.0196
1.01932
1.01908
1.01875
1.01838
1.01805
1.01779
1.01754
1.01734
1.01701
1.01663
1.01614
1.01578
1.01535
1.01485
1.01453
1.01419
1.01387
1.01347
1.0131
1.01929
1.01962
1.01959
1.01996
1.0201
1.02036
1.02047
1.02067
1.0208
1.021
1.02098
1.02093
1.02084
1.02096
1.02094
1.02083
1.02065
1.02047
1.02031
1.02016
1.01993
1.01974
1.01951
1.0193
1.0189
1.01859
1.01833
1.01815
1.01788
1.01753
1.01709
1.01666
1.01626
1.01583
1.01545
1.01509
1.01474
1.01436