/*--------------------------------*- C++ -*----------------------------------*\
  =========                 |
  \\      /  F ield         | OpenFOAM: The Open Source CFD Toolbox
   \\    /   O peration     | Website:  https://openfoam.org
    \\  /    A nd           | Version:  11
     \\/     M anipulation  |
\*---------------------------------------------------------------------------*/
FoamFile
{
    format      ascii;
    class       volScalarField;
    location    "9.5";
    object      p;
}
// * * * * * * * * * * * * * * * * * * * * * * * * * * * * * * * * * * * * * //

dimensions      [0 2 -2 0 0 0 0];

internalField   nonuniform List<scalar> 
9600
(
0.0591515
0.0599917
0.0612203
0.0627457
0.0644371
0.0661114
0.0676099
0.0688108
0.0695721
0.0696042
0.0684874
0.0659842
0.0616744
0.0551113
0.0459703
0.0345031
0.0206347
0.00468029
-0.0122169
-0.0283572
-0.0419333
-0.0510295
-0.0535636
-0.0498278
-0.0411576
-0.0284822
-0.0135719
0.00228798
0.0171517
0.0289039
0.0369747
0.0414509
0.0429183
0.0424883
0.0421352
0.0431356
0.044713
0.0466369
0.0495459
0.0531759
0.0595954
0.0606887
0.0621657
0.0638102
0.0655042
0.0670846
0.0684278
0.0693972
0.0699067
0.0695708
0.0678913
0.0648685
0.0601197
0.0532098
0.0438747
0.0323588
0.0185599
0.0029094
-0.0134551
-0.0290277
-0.0419034
-0.0510616
-0.0539427
-0.0509081
-0.0431749
-0.0316661
-0.0176931
-0.00273565
0.0123451
0.0251676
0.0344866
0.0403212
0.0425846
0.0418596
0.0414196
0.0421229
0.0428187
0.0441036
0.0468259
0.0490908
0.0599612
0.0611311
0.0626629
0.0642567
0.0658342
0.0672926
0.0684985
0.0693441
0.0696936
0.069196
0.0674444
0.0643852
0.059502
0.0525317
0.0432393
0.0317626
0.0180595
0.00255128
-0.0136557
-0.0290839
-0.041912
-0.0511258
-0.054415
-0.0517235
-0.0441321
-0.0325482
-0.0186992
-0.00324688
0.0114206
0.0238565
0.0332733
0.0394854
0.0429361
0.0422723
0.0414329
0.0425114
0.0438664
0.0453471
0.0469973
0.0489151
0.0603762
0.0616498
0.0633016
0.0649609
0.0665528
0.0679754
0.0691186
0.0698514
0.069993
0.0692629
0.0672111
0.0637464
0.0585881
0.0513403
0.0418188
0.0302647
0.0165573
0.00117281
-0.0148554
-0.0300309
-0.0426067
-0.051499
-0.0551203
-0.0528579
-0.0458805
-0.035125
-0.0220388
-0.00811966
0.0074091
0.0209588
0.0311456
0.0379268
0.0422856
0.0426341
0.040828
0.0405943
0.0414825
0.0426507
0.0446558
0.0467292
0.0608618
0.0622295
0.0639673
0.065649
0.0671691
0.0684536
0.0694094
0.0699261
0.0697998
0.0688645
0.0665763
0.0629825
0.0576648
0.0503241
0.0408045
0.0292357
0.0155994
0.000335238
-0.0154929
-0.0304419
-0.0429682
-0.0518878
-0.0558907
-0.0541355
-0.0475271
-0.0369325
-0.0238172
-0.00969649
0.00486441
0.0186943
0.0295302
0.0368853
0.0415626
0.0432253
0.0420522
0.0404991
0.0413873
0.042995
0.0445265
0.0458516
0.0614246
0.0628652
0.0646543
0.066321
0.0677743
0.0689596
0.0697901
0.0701743
0.0699045
0.0688166
0.0663701
0.0624944
0.0569756
0.0494278
0.0397458
0.0281198
0.0144684
-0.000772335
-0.0165558
-0.0314458
-0.0439463
-0.0527524
-0.0568998
-0.0556085
-0.0493859
-0.0392925
-0.0267046
-0.0130839
0.00145972
0.0156261
0.0272136
0.035523
0.0406819
0.0430424
0.0423161
0.0399819
0.0392878
0.0403208
0.0420248
0.0435098
0.0620571
0.0635452
0.0653489
0.0669904
0.0683908
0.0694741
0.0701686
0.0703859
0.0699063
0.0685465
0.0658616
0.0617945
0.0561059
0.0484478
0.0386911
0.0270012
0.0133263
-0.00189916
-0.0176162
-0.032425
-0.0448394
-0.0537042
-0.0580606
-0.0572415
-0.0514382
-0.0417064
-0.029228
-0.0155862
-0.0013038
0.0127611
0.024808
0.0340824
0.0398403
0.0428855
0.0427142
0.0408937
0.039077
0.0392472
0.0406768
0.0413127
0.0627462
0.064256
0.0660627
0.0676693
0.0690136
0.0699979
0.0705381
0.0705701
0.0698966
0.0683502
0.0655367
0.0612918
0.0554626
0.0476094
0.0377065
0.0259226
0.0121953
-0.0030521
-0.0187551
-0.0335313
-0.0459704
-0.054924
-0.0594807
-0.0590924
-0.0536625
-0.0442961
-0.0321209
-0.0186918
-0.00486131
0.00958802
0.0221737
0.0322491
0.0388626
0.0426499
0.0428553
0.0413576
0.0387756
0.0374965
0.0378824
0.0383746
0.0634824
0.0649964
0.0667941
0.068358
0.0696434
0.0705208
0.0709056
0.0707491
0.0698986
0.0681907
0.0652106
0.0607869
0.0547527
0.046714
0.0366888
0.0247978
0.0109962
-0.00431051
-0.0200295
-0.0348461
-0.047345
-0.0564202
-0.0611654
-0.0611527
-0.0561259
-0.0471514
-0.0352206
-0.0217206
-0.00743821
0.00638785
0.0194525
0.0301659
0.037734
0.0423587
0.0430332
0.0418566
0.0391248
0.0364647
0.0356189
0.035943
0.0642608
0.0657666
0.0675479
0.0690666
0.0702849
0.0710436
0.0712715
0.0709457
0.0699229
0.0680417
0.0649133
0.0603107
0.0540948
0.0458941
0.0357353
0.0236978
0.00978548
-0.00562629
-0.0214105
-0.0362925
-0.0488612
-0.0580417
-0.0630518
-0.0634211
-0.058808
-0.0501644
-0.0385728
-0.025092
-0.0111
0.00302296
0.0164342
0.0277706
0.0363
0.0418147
0.0434971
0.0423158
0.0399084
0.0361847
0.0336242
0.0330143
0.0650768
0.0665674
0.0683295
0.0697919
0.0709286
0.0715825
0.0716546
0.0711551
0.0699821
0.0679365
0.0646537
0.0598755
0.053494
0.0450897
0.0347609
0.0225615
0.00849708
-0.00705014
-0.0229581
-0.0379496
-0.0506682
-0.0600351
-0.0652515
-0.0659617
-0.0617781
-0.053413
-0.0422476
-0.028747
-0.0148459
-0.000626313
0.0130163
0.0250412
0.0346402
0.0409006
0.0439675
0.0432502
0.0408157
0.0362302
0.0322867
0.0302764
0.0659341
0.0674076
0.0691428
0.07054
0.0715774
0.0721387
0.0720706
0.0713935
0.0700681
0.0678821
0.0644513
0.0594761
0.052911
0.0443089
0.0337856
0.0213953
0.00713786
-0.0085735
-0.0246444
-0.0397548
-0.0526561
-0.06218
-0.0676804
-0.0687346
-0.0650366
-0.0569499
-0.0461504
-0.0327158
-0.0188165
-0.00445548
0.00937728
0.0218942
0.0326463
0.039685
0.0441517
0.0445659
0.0420819
0.0372874
0.0322102
0.0280346
0.0668417
0.0682907
0.0699776
0.0713101
0.0722526
0.0727059
0.0725184
0.0716941
0.0702035
0.0678638
0.0642955
0.0591024
0.0523589
0.0435534
0.0327969
0.02018
0.00568936
-0.0102093
-0.0265118
-0.0417782
-0.05493
-0.0646507
-0.0704379
-0.0718028
-0.0686237
-0.0607826
-0.0503455
-0.0370828
-0.0230894
-0.00877902
0.00535885
0.0182286
0.0299872
0.038228
0.0439298
0.045629
0.0439074
0.0385724
0.0328298
0.0266116
0.0678032
0.0692207
0.0708466
0.0721061
0.0729596
0.0733025
0.0730084
0.0720577
0.070409
0.0678885
0.0641963
0.0587839
0.0518188
0.0428138
0.0317721
0.0189084
0.00413948
-0.0119857
-0.0285797
-0.0440172
-0.0574378
-0.0673725
-0.0734654
-0.0751649
-0.0724973
-0.0650044
-0.054818
-0.0418593
-0.0277502
-0.0134283
0.000957305
0.0141285
0.0265785
0.0363103
0.043165
0.0463401
0.0460545
0.0410768
0.034142
0.0264432
0.0688217
0.0701939
0.0717538
0.0729386
0.0737065
0.0739533
0.0735591
0.072487
0.0706944
0.067958
0.0641284
0.0585233
0.0512988
0.042063
0.0307135
0.0175581
0.0024491
-0.0139316
-0.030845
-0.0465062
-0.0602265
-0.0703822
-0.076817
-0.078865
-0.0766927
-0.0696471
-0.0596368
-0.047037
-0.0328578
-0.0185024
-0.00386357
0.0096058
0.0224531
0.0335065
0.0417048
0.0465357
0.0479858
0.0446051
0.0371229
0.0278722
0.0699008
0.0712223
0.0727123
0.073824
0.0745136
0.0746777
0.0741861
0.072994
0.0710561
0.0681255
0.0641243
0.0583041
0.0507631
0.0413234
0.0295866
0.0161058
0.000637244
-0.0160815
-0.0333534
-0.0492485
-0.0632971
-0.0737212
-0.0804876
-0.0829341
-0.0811905
-0.0747018
-0.0649304
-0.0526534
-0.0384506
-0.0240163
-0.0092969
0.00463798
0.0178844
0.029778
0.0392492
0.0457948
0.049238
0.0483501
0.0418444
0.0318713
0.0710481
0.0723054
0.0737314
0.0747863
0.0754019
0.0754946
0.0749144
0.0735479
0.071512
0.0683113
0.06412
0.0581687
0.0502291
0.0404958
0.0284162
0.0145096
-0.00134945
-0.0184308
-0.036121
-0.0523247
-0.066645
-0.0774419
-0.0844676
-0.087407
-0.0860809
-0.0802006
-0.0706813
-0.058776
-0.0446252
-0.0300319
-0.0152134
-0.000906402
0.0126718
0.025129
0.0356027
0.0437413
0.0491619
0.0513721
0.0472326
0.0391041
0.0722733
0.0734626
0.0748282
0.0758508
0.0764059
0.0763845
0.0757642
0.0742339
0.0720056
0.0687847
0.0641772
0.0579807
0.0497201
0.0395928
0.0271608
0.0127753
-0.00356404
-0.0210372
-0.0391319
-0.055759
-0.0703159
-0.0815086
-0.0888858
-0.0922398
-0.0913594
-0.0861743
-0.0769669
-0.0654142
-0.0513974
-0.0366875
-0.0216806
-0.0071548
0.00676997
0.0196941
0.0308878
0.0402939
0.0472329
0.0525615
0.0515532
0.0475859
0.0735787
0.07471
0.0760326
0.0770343
0.0775466
0.0774174
0.0766666
0.0750667
0.0726071
0.069139
0.0642732
0.0578323
0.0491764
0.0386005
0.025757
0.0108751
-0.00599661
-0.0240005
-0.0424287
-0.0595442
-0.0743993
-0.0859407
-0.0937213
-0.09753
-0.097071
-0.0926043
-0.0838095
-0.0726448
-0.058879
-0.0440579
-0.028849
-0.0140788
0.000131333
0.0134151
0.025113
0.0355223
0.0433328
0.0510825
0.0531493
0.0539506
0.0749867
0.0760512
0.0773629
0.0783496
0.0788294
0.078642
0.0777361
0.075964
0.0733037
0.0697071
0.0644533
0.0576378
0.0486159
0.0375213
0.0241945
0.00871037
-0.00865084
-0.0273117
-0.0461617
-0.0636753
-0.0788672
-0.0908183
-0.0989613
-0.10329
-0.103271
-0.0995337
-0.0912704
-0.0804987
-0.0671069
-0.0522557
-0.0368335
-0.0217747
-0.00733133
0.00633626
0.0183999
0.0295064
0.037874
0.0470418
0.0515389
0.0565551
0.0765179
0.0775424
0.0788959
0.0798491
0.0802728
0.0800045
0.0789395
0.0770444
0.0741018
0.070201
0.0647278
0.0574244
0.0479525
0.0362673
0.0224628
0.00626209
-0.0116775
-0.0309177
-0.0503209
-0.0683093
-0.0837851
-0.0961601
-0.104627
-0.109564
-0.109996
-0.106972
-0.0994722
-0.0890376
-0.0760808
-0.0614457
-0.0458098
-0.0303048
-0.0156381
-0.0014435
0.0107743
0.0220884
0.0313155
0.0408853
0.0472299
0.0545295
0.0782283
0.0792269
0.0806451
0.0816015
0.0819016
0.0815432
0.0803133
0.0782339
0.0751264
0.070801
0.0649571
0.0571575
0.0472229
0.0348419
0.0203843
0.00356399
-0.0151563
-0.0350139
-0.0548597
-0.0734669
-0.0892002
-0.102042
-0.110792
-0.116275
-0.117286
-0.114924
-0.108352
-0.098483
-0.0859438
-0.0715424
-0.05593
-0.0399781
-0.0249542
-0.0103819
0.00224567
0.0134015
0.0236508
0.0328247
0.0405651
0.0487654
0.0801831
0.0811726
0.0826072
0.0835888
0.0837701
0.0832568
0.0819062
0.0795461
0.07618
0.0714516
0.0652103
0.0567922
0.0462097
0.0332951
0.0179606
0.000371905
-0.0190064
-0.0397123
-0.059959
-0.0791424
-0.095184
-0.108485
-0.117657
-0.123524
-0.12517
-0.123441
-0.117908
-0.108834
-0.096866
-0.0827807
-0.067268
-0.0508707
-0.0353808
-0.0205415
-0.00707987
0.00426547
0.0147791
0.0233446
0.0317724
0.0389247
0.0824313
0.0834325
0.0848429
0.0857765
0.0859255
0.0852161
0.0836882
0.081047
0.0774493
0.0721465
0.0653395
0.0564094
0.0449692
0.0313227
0.0152658
-0.00339261
-0.0234179
-0.044941
-0.0657568
-0.08544
-0.101781
-0.115514
-0.125041
-0.131317
-0.133755
-0.132575
-0.12811
-0.120094
-0.108971
-0.09521
-0.0800256
-0.0634283
-0.047154
-0.0318501
-0.0175203
-0.00551683
0.00522038
0.0136474
0.0216267
0.0275206
0.0850388
0.0859981
0.0874416
0.0882931
0.0883172
0.087452
0.085698
0.0826713
0.0786503
0.072925
0.0653407
0.0556892
0.0435655
0.0288727
0.0120354
-0.00768255
-0.0286264
-0.0508543
-0.0722378
-0.0924797
-0.109146
-0.123127
-0.133193
-0.139679
-0.142992
-0.142531
-0.139083
-0.132115
-0.122251
-0.109215
-0.0942867
-0.0777154
-0.0607474
-0.0448473
-0.0294261
-0.016257
-0.00532038
0.00400098
0.0109972
0.0160294
0.0880691
0.0889728
0.0903956
0.0912052
0.0910739
0.0899151
0.0878898
0.0845347
0.0798991
0.0735275
0.0653166
0.0546467
0.0416669
0.0259738
0.0080073
-0.012624
-0.0346366
-0.0576435
-0.0795999
-0.100206
-0.117448
-0.131385
-0.142123
-0.148775
-0.15278
-0.153172
-0.150828
-0.145113
-0.136599
-0.124705
-0.110409
-0.0941893
-0.0764422
-0.059717
-0.0436393
-0.0289292
-0.0169233
-0.00669388
0.000601265
0.00588318
0.0915442
0.0923975
0.093771
0.0944862
0.0941879
0.0926755
0.0902761
0.0864032
0.0812379
0.0740608
0.0648739
0.0533014
0.0391458
0.0224167
0.00314162
-0.0185242
-0.0416501
-0.0653357
-0.088118
-0.108783
-0.126698
-0.140591
-0.151695
-0.158869
-0.163254
-0.164462
-0.163344
-0.158933
-0.152037
-0.141836
-0.128343
-0.113019
-0.0951911
-0.0770361
-0.0602085
-0.0442051
-0.0307121
-0.0194306
-0.0106383
-0.00482172
0.0956241
0.0963425
0.0976451
0.0982058
0.0976664
0.0957882
0.0928628
0.088423
0.082382
0.0744153
0.0640311
0.051342
0.0358777
0.0179176
-0.00272995
-0.0255141
-0.0499423
-0.0742364
-0.0978274
-0.118465
-0.136909
-0.150862
-0.162208
-0.169613
-0.174639
-0.176416
-0.176404
-0.173821
-0.168216
-0.160456
-0.148624
-0.134044
-0.117196
-0.0981448
-0.0800382
-0.0625449
-0.0471405
-0.034763
-0.0240643
-0.0164296
0.100459
0.100962
0.102068
0.102372
0.101551
0.0993296
0.0955623
0.090478
0.0833843
0.0742088
0.0626269
0.0485401
0.0315832
0.0122898
-0.00999037
-0.0339642
-0.0596676
-0.0845127
-0.108931
-0.129577
-0.148257
-0.162313
-0.173733
-0.181379
-0.186766
-0.189589
-0.189952
-0.189382
-0.185694
-0.179807
-0.171059
-0.158053
-0.142577
-0.123613
-0.104296
-0.0855584
-0.0675789
-0.052886
-0.0408361
-0.031822
0.106039
0.106267
0.107125
0.107251
0.105831
0.102946
0.0984606
0.0921311
0.0838365
0.0734263
0.0601651
0.0446595
0.0259137
0.00500381
-0.0190266
-0.0441475
-0.0711942
-0.0966655
-0.121444
-0.142674
-0.160597
-0.175349
-0.18604
-0.194321
-0.199408
-0.203325
-0.204644
-0.205143
-0.204149
-0.200218
-0.194735
-0.184747
-0.171448
-0.154419
-0.13446
-0.114347
-0.0943874
-0.0764635
-0.0619248
-0.051395
0.112563
0.112559
0.11303
0.112551
0.110548
0.106951
0.101378
0.0937279
0.0837657
0.0716761
0.0565742
0.03907
0.0185532
-0.00446042
-0.0299235
-0.0570864
-0.0845967
-0.11141
-0.1359
-0.157415
-0.174973
-0.189711
-0.199808
-0.208048
-0.21344
-0.217166
-0.220344
-0.22148
-0.222736
-0.221768
-0.218919
-0.213397
-0.203298
-0.189797
-0.171805
-0.151186
-0.129465
-0.108623
-0.0903096
-0.0768507
0.120273
0.119751
0.119605
0.118278
0.115208
0.110179
0.103207
0.0941134
0.0822619
0.0679581
0.0511161
0.0309828
0.00844162
-0.0167865
-0.0439114
-0.0729218
-0.100949
-0.128711
-0.153105
-0.174223
-0.191864
-0.205411
-0.215483
-0.222744
-0.228377
-0.232025
-0.235627
-0.238814
-0.241328
-0.243586
-0.243922
-0.242538
-0.237322
-0.228683
-0.215277
-0.197556
-0.17606
-0.153356
-0.131425
-0.113579
0.129024
0.127708
0.12703
0.124901
0.120612
0.114078
0.104992
0.0935154
0.079388
0.0621333
0.0426451
0.0201192
-0.00522484
-0.0325396
-0.0618411
-0.0920906
-0.121227
-0.14916
-0.173693
-0.193981
-0.211098
-0.223702
-0.232661
-0.239378
-0.243847
-0.247748
-0.250922
-0.255613
-0.25964
-0.264922
-0.268649
-0.271344
-0.271969
-0.269172
-0.262437
-0.251006
-0.234543
-0.213932
-0.191499
-0.170353
0.13863
0.135954
0.13387
0.130061
0.123868
0.115106
0.103616
0.0893928
0.0722892
0.0520071
0.0294204
0.00384479
-0.0242347
-0.0537865
-0.0851716
-0.116528
-0.146186
-0.174335
-0.197923
-0.217587
-0.233462
-0.24503
-0.25231
-0.258187
-0.261451
-0.264318
-0.267645
-0.271714
-0.277253
-0.284906
-0.292846
-0.300067
-0.305814
-0.309142
-0.311212
-0.308505
-0.300674
-0.288359
-0.271617
-0.252833
0.152136
0.147982
0.143778
0.137469
0.128214
0.115574
0.100359
0.082234
0.0609265
0.03681
0.010733
-0.0183383
-0.0491156
-0.081317
-0.114367
-0.146755
-0.176638
-0.204116
-0.226686
-0.24452
-0.258917
-0.268427
-0.274515
-0.278565
-0.28127
-0.282876
-0.284883
-0.287597
-0.292535
-0.299852
-0.310416
-0.323796
-0.338432
-0.35244
-0.362471
-0.369639
-0.373938
-0.37391
-0.369746
-0.362162
0.158861
0.151167
0.144076
0.134441
0.122403
0.10678
0.0877897
0.0653167
0.03977
0.0119337
-0.018272
-0.0506046
-0.0842182
-0.118202
-0.152407
-0.184876
-0.214202
-0.239746
-0.260571
-0.275628
-0.286987
-0.293872
-0.298034
-0.300635
-0.30312
-0.30382
-0.303745
-0.30383
-0.304502
-0.307391
-0.314469
-0.327062
-0.345493
-0.368542
-0.394597
-0.420563
-0.445337
-0.466145
-0.480157
-0.489948
0.183493
0.171872
0.157394
0.138346
0.115807
0.0907678
0.063284
0.0337524
0.00176385
-0.0324193
-0.0678547
-0.104441
-0.141433
-0.177768
-0.212742
-0.244734
-0.272357
-0.29427
-0.310515
-0.320047
-0.324711
-0.326433
-0.326983
-0.328449
-0.331878
-0.335602
-0.338222
-0.3366
-0.329854
-0.318975
-0.309471
-0.308848
-0.319942
-0.342672
-0.374896
-0.409624
-0.445387
-0.482205
-0.519843
-0.554036
0.147911
0.127382
0.107396
0.0861692
0.06212
0.0337034
0.00108857
-0.0341183
-0.071285
-0.110059
-0.149772
-0.189722
-0.229234
-0.267172
-0.302605
-0.333942
-0.359184
-0.377073
-0.386949
-0.389091
-0.384769
-0.377174
-0.369065
-0.365115
-0.36782
-0.380026
-0.396845
-0.411601
-0.412634
-0.393058
-0.35711
-0.316411
-0.291758
-0.293277
-0.318241
-0.351144
-0.379548
-0.404914
-0.429647
-0.459211
0.210769
0.175736
0.137206
0.0986887
0.0601622
0.0211842
-0.0199267
-0.0623426
-0.105725
-0.149072
-0.191348
-0.231351
-0.268404
-0.301901
-0.331066
-0.354992
-0.372504
-0.382485
-0.384098
-0.377923
-0.364803
-0.347028
-0.327387
-0.310757
-0.303344
-0.311046
-0.33829
-0.389717
-0.462856
-0.506314
-0.485637
-0.415752
-0.337236
-0.287478
-0.273672
-0.286398
-0.296799
-0.304123
-0.311157
-0.325698
-0.0958529
-0.13099
-0.171966
-0.223328
-0.278724
-0.332883
-0.38637
-0.438324
-0.487969
-0.529948
-0.56335
-0.591298
-0.617961
-0.641115
-0.65658
-0.661892
-0.658772
-0.647337
-0.628322
-0.601852
-0.568141
-0.527382
-0.481043
-0.43385
-0.39324
-0.366707
-0.360387
-0.380928
-0.4249
-0.431067
-0.435126
-0.435263
-0.426847
-0.416967
-0.405612
-0.396863
-0.389865
-0.384091
-0.379437
-0.378156
0.0628767
0.0393944
0.0170919
0.000286587
-0.0470569
-0.108899
-0.199147
-0.200631
-0.091337
-0.0342885
-0.00120247
-0.00019134
0.0013437
0.00235002
0.00111286
0.00102759
0.000388727
5.93064e-05
-4.54543e-05
-0.000152289
-0.000132418
-5.66334e-05
4.52225e-05
0.000264934
0.000432064
0.000679054
0.000928218
0.00116308
0.00141393
0.0016515
0.00180997
0.00200414
0.00213135
0.00235908
0.0025846
0.00286372
0.00292852
0.00287031
0.00199834
0.00168868
0.0591651
0.039183
0.0167443
-0.000763201
-0.0475921
-0.111154
-0.200416
-0.204807
-0.0918546
-0.0320968
0.00198984
0.000838743
0.00256325
0.00336285
0.00162318
0.00122761
0.000629892
0.000302425
0.000137094
-1.90273e-05
-5.81457e-05
8.13004e-05
0.000152505
0.000420155
0.000563058
0.00086356
0.0010379
0.00132049
0.00151913
0.00173721
0.00189396
0.00207669
0.00223584
0.00246107
0.00269451
0.00290368
0.00294843
0.00297937
0.0030994
0.00356445
0.0552356
0.040073
0.0162651
-0.00509314
-0.050484
-0.110573
-0.189326
-0.189272
-0.0833513
-0.0265068
0.00103825
0.00405934
0.00377372
0.00377891
0.00215164
0.00117506
0.000750558
0.000360059
0.000134122
-7.00752e-05
-0.000112189
3.38145e-05
0.000132514
0.000398656
0.000548103
0.000849655
0.00102261
0.001305
0.0014801
0.001662
0.00183766
0.00200709
0.00220868
0.00241598
0.00267266
0.00282084
0.0028988
0.00287487
0.00251664
0.001754
0.0533786
0.0396421
0.0172434
-0.00757251
-0.0556077
-0.108327
-0.163773
-0.164245
-0.0711682
-0.0207493
0.000895223
0.00824536
0.00510305
0.00374929
0.00272331
0.00135796
0.000929686
0.000276324
-6.53612e-05
-0.000266245
-0.000309022
-0.000267921
-0.000126078
6.0187e-05
0.000242563
0.000494316
0.00071725
0.000942715
0.00114486
0.00131416
0.00154163
0.00171653
0.00196952
0.00219767
0.00248073
0.00262669
0.00276455
0.00290582
0.00340515
0.00432663
0.0509598
0.0382943
0.0151421
-0.0112339
-0.0562101
-0.103706
-0.138182
-0.138249
-0.0588634
-0.0136886
0.00395486
0.0107945
0.00738514
0.00448432
0.00370762
0.00190304
0.00107523
0.000345733
-0.000118459
-0.000293208
-0.000393972
-0.000451735
-0.00031921
-0.000200786
-8.72942e-06
0.000195297
0.000444249
0.000628391
0.000874422
0.00105692
0.00129088
0.00148009
0.00173248
0.00196797
0.00223969
0.00241753
0.002583
0.00266756
0.00266212
0.00232964
0.048877
0.0361215
0.0118186
-0.0179286
-0.0596689
-0.0993477
-0.116478
-0.109514
-0.0452347
-0.00703003
0.00825057
0.0118839
0.0103743
0.00628648
0.00487403
0.00276047
0.00138538
0.000775343
0.000149399
-9.58804e-05
-0.000280336
-0.000358549
-0.000253677
-0.000153726
2.95485e-05
0.000224565
0.000491403
0.000687576
0.000957105
0.00113176
0.00133218
0.00149945
0.00168715
0.00191785
0.00215992
0.0023529
0.00254774
0.00278479
0.00320617
0.0038834
0.0465456
0.0328887
0.00699507
-0.0269945
-0.0678818
-0.100646
-0.100712
-0.0838718
-0.0331822
-0.000597505
0.0127471
0.0129804
0.0125647
0.008036
0.0057079
0.00365782
0.00194048
0.00118914
0.000404628
-2.07383e-05
-0.000259079
-0.000368991
-0.000250164
-0.000174907
4.9158e-05
0.000263457
0.000551125
0.000786853
0.00107392
0.00128196
0.00148955
0.00165297
0.00182633
0.00205145
0.00225556
0.00243867
0.00256187
0.00265013
0.0026721
0.00249819
0.0442141
0.0295518
0.000789747
-0.0388485
-0.0805008
-0.105058
-0.0915192
-0.0633492
-0.0226513
0.00555839
0.0164591
0.0147813
0.0140977
0.00944784
0.00631074
0.00423338
0.00234207
0.00124072
0.000403955
-0.000163098
-0.000443542
-0.00060715
-0.000538047
-0.000478236
-0.000265091
-3.31897e-05
0.00021694
0.000510957
0.00080429
0.00110878
0.0013547
0.0016073
0.00183023
0.00208576
0.00227637
0.00244483
0.00255156
0.00272086
0.00300672
0.00339623
0.0404398
0.0252683
-0.00812416
-0.05412
-0.0983427
-0.110271
-0.0871876
-0.0480608
-0.0137503
0.0109904
0.0193241
0.0179257
0.0157512
0.0112777
0.00700296
0.00467982
0.00260567
0.00121336
0.000377102
-0.000240753
-0.000531605
-0.000770271
-0.000811989
-0.00079196
-0.000677098
-0.000483202
-0.000304252
-4.88494e-06
0.000263121
0.000589337
0.000887196
0.00122883
0.00151132
0.00179678
0.00200765
0.00219793
0.00238882
0.00256504
0.00260129
0.00259286
0.035362
0.0198587
-0.0205847
-0.0761269
-0.12385
-0.120669
-0.0857608
-0.0389484
-0.00625159
0.0156644
0.021801
0.0219572
0.0172353
0.0132789
0.00810924
0.00564438
0.00335311
0.00165399
0.000586757
-0.000118827
-0.000460862
-0.000741023
-0.000838517
-0.000855701
-0.000799275
-0.00066091
-0.000526753
-0.000297718
-8.29063e-05
0.000187792
0.000488498
0.000795933
0.00108072
0.00134801
0.00160226
0.00186748
0.00214983
0.0023964
0.00271086
0.00311182
0.0294431
0.0128829
-0.0383845
-0.110904
-0.159377
-0.140379
-0.0880687
-0.0334712
-0.000184779
0.0197321
0.0245616
0.0252368
0.0183785
0.0147681
0.00954877
0.00697223
0.00441172
0.00228175
0.000887615
-1.06211e-05
-0.000533035
-0.000849516
-0.000919968
-0.000890063
-0.00080358
-0.000625525
-0.000476297
-0.000264572
-7.71741e-05
0.000152386
0.000395564
0.000627633
0.000871029
0.00111685
0.00139669
0.00168211
0.0019649
0.0021971
0.00240021
0.00258
0.0229184
0.00453675
-0.061443
-0.157171
-0.213723
-0.166161
-0.094578
-0.0302437
0.00514301
0.0234767
0.027753
0.0269193
0.0200786
0.0156937
0.0107954
0.00753615
0.00492507
0.0025614
0.0010568
2.69282e-06
-0.000654514
-0.00104826
-0.00116917
-0.00113027
-0.000991111
-0.000743762
-0.000526782
-0.000261585
-1.52596e-05
0.000230259
0.000463783
0.000666132
0.000890739
0.00111682
0.00137541
0.001632
0.00188366
0.00212846
0.00246211
0.00283046
0.016088
-0.00724651
-0.097806
-0.21375
-0.284678
-0.199074
-0.105127
-0.0292998
0.00930252
0.0267225
0.0312617
0.0283653
0.0226413
0.01633
0.0118802
0.00737698
0.00493689
0.00257166
0.00112038
6.82094e-07
-0.000723683
-0.0012244
-0.00147656
-0.00154619
-0.00144089
-0.00123524
-0.000969003
-0.000651791
-0.000308861
-4.41607e-06
0.000293075
0.000545697
0.000796916
0.00104603
0.00131811
0.00156681
0.0018059
0.00207373
0.00236294
0.00256882
0.00985799
-0.0240967
-0.145398
-0.299032
-0.367212
-0.237346
-0.119132
-0.0308621
0.0118116
0.0295724
0.0340871
0.0298155
0.0251219
0.0169125
0.0129494
0.00790452
0.00518413
0.00279359
0.00128573
1.25303e-05
-0.000817435
-0.0013683
-0.00172343
-0.00193135
-0.00194752
-0.00187367
-0.00167262
-0.00139898
-0.00103933
-0.000672385
-0.00029304
4.2172e-05
0.000350346
0.000687517
0.000994142
0.00126775
0.00153542
0.00185925
0.00220611
0.00244647
0.00654636
-0.0468022
-0.187904
-0.412218
-0.456219
-0.276235
-0.134697
-0.0353826
0.0126146
0.0317008
0.0352461
0.0311454
0.0261613
0.018101
0.0139929
0.00917463
0.00588327
0.00332514
0.00146428
6.6361e-06
-0.000910801
-0.00152619
-0.00190595
-0.00215859
-0.00226427
-0.0022985
-0.00219503
-0.00199631
-0.00168562
-0.00132675
-0.000947364
-0.000605466
-0.000253278
0.000116672
0.000453517
0.000801398
0.00115644
0.00153806
0.001914
0.00215419
0.00920907
-0.0666326
-0.223493
-0.520242
-0.52928
-0.305261
-0.147541
-0.0411043
0.0113526
0.0328502
0.034817
0.0320863
0.0258099
0.0193767
0.0142207
0.0100422
0.00650147
0.00365066
0.00157275
-2.08819e-05
-0.000955455
-0.00173974
-0.00209944
-0.00230904
-0.00238631
-0.00240832
-0.00231116
-0.00212574
-0.00187758
-0.00161244
-0.00132052
-0.00103226
-0.000695092
-0.000341514
2.53398e-05
0.000425655
0.000843328
0.00127576
0.00165663
0.00183558
0.0160735
-0.0712199
-0.242983
-0.56684
-0.54582
-0.317387
-0.153859
-0.0459272
0.00891995
0.0325991
0.0335718
0.0319452
0.0248902
0.0195616
0.0139148
0.0103513
0.00666567
0.00374502
0.00155703
-0.000219151
-0.00118086
-0.00205875
-0.00234175
-0.00249661
-0.00249577
-0.00243977
-0.00231753
-0.00211539
-0.00193364
-0.00174023
-0.00153594
-0.00128743
-0.000978734
-0.000646766
-0.000283593
0.000148456
0.000580963
0.00102517
0.00137531
0.00151618
0.023173
-0.0561096
-0.232837
-0.497202
-0.484194
-0.301458
-0.149739
-0.0482651
0.00591842
0.0296141
0.0319502
0.0304069
0.0236202
0.0195528
0.0133988
0.010101
0.00620628
0.00340616
0.00115531
-0.000647756
-0.00166445
-0.00251144
-0.00284062
-0.00302091
-0.0029902
-0.00291049
-0.00273676
-0.0025428
-0.00237948
-0.00219178
-0.00197478
-0.00168809
-0.00138603
-0.00106501
-0.000683239
-0.000240732
0.000195856
0.00064969
0.000973627
0.0011202
0.0322561
-0.0351539
-0.194396
-0.379804
-0.370857
-0.254791
-0.134229
-0.0472297
0.00243957
0.0237993
0.0284687
0.0276508
0.0224719
0.0190844
0.0123666
0.00929625
0.00501336
0.00259231
0.000448688
-0.00119515
-0.00245281
-0.00325363
-0.00376851
-0.0040084
-0.00400965
-0.00393706
-0.00372558
-0.00349345
-0.00323148
-0.00295955
-0.00262353
-0.00227126
-0.00194755
-0.00158419
-0.00113379
-0.000663437
-0.000217075
0.000212489
0.000544458
0.000749693
0.0431498
-0.0151905
-0.14807
-0.271981
-0.264881
-0.193075
-0.109815
-0.0453157
-0.00336865
0.0160152
0.0226348
0.0234748
0.0203471
0.0169907
0.0113016
0.00820004
0.00398216
0.00192897
-0.000335145
-0.00181831
-0.00332403
-0.00406148
-0.00468315
-0.00489757
-0.00497464
-0.00485168
-0.00459519
-0.00427437
-0.00392952
-0.00354455
-0.00312274
-0.00272795
-0.00234566
-0.00189545
-0.00141378
-0.00094724
-0.000489317
-6.38701e-05
0.000276616
0.000490225
0.0498813
-0.00102683
-0.104345
-0.180872
-0.17725
-0.144762
-0.0947174
-0.0477756
-0.0124218
0.00583228
0.0153175
0.0177061
0.0164424
0.0136164
0.0100044
0.00684639
0.00337869
0.00132926
-0.000993726
-0.00234261
-0.00376299
-0.00436615
-0.0050803
-0.00522533
-0.00536412
-0.0051797
-0.00497447
-0.00467014
-0.00435749
-0.0039497
-0.00356496
-0.00315665
-0.00271744
-0.0022326
-0.00175675
-0.00130519
-0.000858076
-0.000425046
-6.08025e-05
0.000100114
0.0515559
0.00100822
-0.0745333
-0.119689
-0.125458
-0.117918
-0.0890229
-0.0553193
-0.0253319
-0.00604599
0.00572181
0.00963769
0.0109999
0.00909257
0.0072595
0.00432784
0.00187732
-0.000181721
-0.00190701
-0.00320159
-0.00423438
-0.00490531
-0.00562877
-0.0057284
-0.00595675
-0.00581674
-0.0057694
-0.00555413
-0.00531003
-0.00497453
-0.00465999
-0.00423021
-0.00376792
-0.0032877
-0.00279467
-0.00228828
-0.00173713
-0.00119948
-0.00076646
-0.000628679
0.0472093
-0.00912214
-0.0590866
-0.0849854
-0.0994847
-0.10201
-0.0887783
-0.0665929
-0.0412121
-0.021165
-0.00666282
-0.00075715
0.00353632
0.00241647
0.00247668
0.000178372
-0.00135506
-0.00319636
-0.004132
-0.00565768
-0.00623815
-0.00711991
-0.00752757
-0.00769865
-0.00789689
-0.0078246
-0.00776536
-0.00753743
-0.00726623
-0.00690793
-0.00653976
-0.00605791
-0.00555092
-0.00497878
-0.00435005
-0.00365435
-0.00294038
-0.0022861
-0.00177244
-0.00155517
0.0340084
-0.0175867
-0.0516778
-0.0656482
-0.0830547
-0.0947876
-0.0931253
-0.0803223
-0.0593513
-0.0386757
-0.0213825
-0.0126402
-0.00598821
-0.00505253
-0.00366746
-0.00479121
-0.00556186
-0.00698661
-0.00785049
-0.0093273
-0.00958931
-0.010366
-0.0103828
-0.0105458
-0.0104028
-0.0102466
-0.00987664
-0.00953403
-0.00909453
-0.00863345
-0.00817241
-0.00760987
-0.00702336
-0.00632734
-0.00558235
-0.00477182
-0.00401296
-0.0033267
-0.00282203
-0.00257665
0.0228914
-0.021601
-0.0449919
-0.0516073
-0.0692935
-0.0926488
-0.1011
-0.0950502
-0.0782422
-0.0565483
-0.0384353
-0.0254301
-0.0167031
-0.0124334
-0.0101258
-0.00937439
-0.009885
-0.010196
-0.0112059
-0.0119329
-0.012305
-0.012694
-0.0124937
-0.012429
-0.0119695
-0.011651
-0.0109872
-0.0106033
-0.0100336
-0.00955448
-0.00903588
-0.00845537
-0.00782911
-0.00710126
-0.00635619
-0.0055969
-0.00493176
-0.00431343
-0.00381327
-0.00351593
0.0142229
-0.021033
-0.0388315
-0.0431748
-0.0604697
-0.0928738
-0.107557
-0.108339
-0.096845
-0.077077
-0.0578468
-0.0403018
-0.0294345
-0.0216374
-0.0175073
-0.0149073
-0.014366
-0.0134789
-0.014191
-0.0142123
-0.0146153
-0.0145373
-0.0144807
-0.0141207
-0.0137001
-0.0131406
-0.0124761
-0.0120224
-0.0113942
-0.010893
-0.0102399
-0.00962676
-0.00889987
-0.00820054
-0.00747877
-0.006827
-0.00619198
-0.00558716
-0.0050131
-0.00471956
0.000241839
-0.0182128
-0.0343732
-0.0424078
-0.055229
-0.0926526
-0.109292
-0.118338
-0.114838
-0.0984729
-0.0784459
-0.0593628
-0.0453698
-0.0347747
-0.0278568
-0.0239662
-0.0213821
-0.0199739
-0.0193618
-0.0189099
-0.0187926
-0.0185508
-0.0184674
-0.0179045
-0.0175399
-0.0167789
-0.0161671
-0.0154737
-0.0147474
-0.0139655
-0.0130886
-0.0122611
-0.0113456
-0.0105601
-0.00977786
-0.00904452
-0.008223
-0.00742199
-0.00670988
-0.00639869
-0.0128439
-0.022672
-0.0345286
-0.0441557
-0.0602905
-0.08384
-0.104218
-0.121238
-0.127929
-0.116461
-0.0989859
-0.079184
-0.063427
-0.0506226
-0.0416207
-0.0362295
-0.0317101
-0.0290758
-0.0268601
-0.0259394
-0.0249003
-0.0245012
-0.023998
-0.0234585
-0.0228806
-0.0220817
-0.0213613
-0.0204312
-0.0194745
-0.0183712
-0.0173098
-0.0161435
-0.0150545
-0.0141296
-0.0131369
-0.0121626
-0.0110663
-0.0100506
-0.00913999
-0.00866802
-0.0259641
-0.0308907
-0.0424213
-0.050636
-0.0596256
-0.0777519
-0.0960003
-0.114718
-0.129624
-0.129201
-0.115982
-0.0957926
-0.0789937
-0.0653761
-0.0548399
-0.0470002
-0.0416758
-0.0373636
-0.034565
-0.0324922
-0.0309056
-0.0299669
-0.0290046
-0.0283511
-0.0276237
-0.0268687
-0.026008
-0.0249953
-0.0239432
-0.0228223
-0.0216943
-0.0204772
-0.0193329
-0.0181049
-0.0169064
-0.015654
-0.0143228
-0.0130699
-0.0119845
-0.0114881
-0.0437705
-0.0440876
-0.0544754
-0.0644492
-0.0682497
-0.0735011
-0.0890707
-0.103768
-0.116992
-0.1281
-0.124313
-0.107872
-0.0895997
-0.0750573