/*--------------------------------*- C++ -*----------------------------------*\
  =========                 |
  \\      /  F ield         | OpenFOAM: The Open Source CFD Toolbox
   \\    /   O peration     | Website:  https://openfoam.org
    \\  /    A nd           | Version:  11
     \\/     M anipulation  |
\*---------------------------------------------------------------------------*/
FoamFile
{
    format      ascii;
    class       surfaceScalarField;
    location    "9.5";
    object      phi;
}
// * * * * * * * * * * * * * * * * * * * * * * * * * * * * * * * * * * * * * //

dimensions      [0 3 -1 0 0 0 0];

internalField   nonuniform List<scalar> 
18960
(
0.0476306
0.000473518
-0.0481041
0.0470838
0.000546854
0.0465505
0.000533263
0.0460996
0.000450954
0.0456516
0.000447983
0.0451602
0.000491401
0.0447454
0.000414731
0.0444611
0.000284308
0.0441569
0.000304206
0.0438893
0.000267579
0.0437317
0.000157685
0.0437092
2.24776e-05
0.0437576
-4.84174e-05
0.0438721
-0.000114521
0.0440836
-0.000211503
0.0444717
-0.0003881
0.0449
-0.000428277
0.0453098
-0.00040978
0.0457793
-0.000469526
0.046095
-0.000315656
0.0460702
2.47617e-05
0.0458023
0.000267881
0.0452846
0.000517689
0.044622
0.000662658
0.0439321
0.00068989
0.0432939
0.000638207
0.0428619
0.000431994
0.0427689
9.29502e-05
0.0428606
-9.16453e-05
0.0430053
-0.00014471
0.0430509
-4.55849e-05
0.042621
0.000429894
0.041349
0.00127197
0.0396554
0.00169357
0.038375
0.00128039
0.037027
0.00134802
0.0365885
0.000438554
0.0357482
0.000840306
0.0363635
-0.000615295
-0.000864816
0.0372283
0.0477578
0.000753318
-0.0480376
0.0474841
0.000820609
0.0471314
0.000885973
0.04679
0.000792332
0.046453
0.000784941
0.0461473
0.000797115
0.0458846
0.000677441
0.0456094
0.000559524
0.0454148
0.000498823
0.0452748
0.000407535
0.0451584
0.000274045
0.0451462
3.47644e-05
0.0451692
-7.14406e-05
0.0453798
-0.000325108
0.0457148
-0.000546573
0.0461876
-0.000860857
0.0466363
-0.000876946
0.0471856
-0.000959089
0.0476169
-0.000900859
0.0479533
-0.00065206
0.048134
-0.000155932
0.0480203
0.000381593
0.0477073
0.000830694
0.0471347
0.00123521
0.0465132
0.00131139
0.0461626
0.000988817
0.0460533
0.000541328
0.0461552
-8.94995e-06
0.0465584
-0.000494867
0.0472664
-0.000852703
0.0480468
-0.000825968
0.0486181
-0.000141459
0.049025
0.000865062
0.048523
0.00219557
0.0474332
0.00237023
0.0462011
0.00258014
0.045163
0.00147661
0.0446097
0.00139361
0.0437393
0.000255095
0.000263773
0.0426107
0.0477033
0.00112155
-0.0480716
0.0473608
0.00116316
0.0470003
0.00124648
0.0465778
0.00121481
0.0461985
0.00116427
0.0458975
0.00109809
0.0456296
0.000945355
0.0453989
0.00079025
0.0452266
0.000671077
0.0451127
0.000521449
0.0450452
0.000341594
0.0451073
-2.74017e-05
0.0452275
-0.000191603
0.0455046
-0.000602242
0.0458518
-0.00089372
0.0463265
-0.00133556
0.0467869
-0.00133742
0.0473174
-0.00148959
0.047702
-0.00128541
0.047978
-0.000928038
0.0481866
-0.000364557
0.0480983
0.000469838
0.0478804
0.00104862
0.0473624
0.00175325
0.0465786
0.00209516
0.0458853
0.00168211
0.0454752
0.00095145
0.0455033
-3.70542e-05
0.0458277
-0.000819227
0.0466547
-0.00167977
0.0478977
-0.00206897
0.0491283
-0.00137205
0.0501433
-0.000149874
0.0502594
0.00207943
0.0493464
0.00328327
0.0470729
0.00485357
0.0448007
0.00374887
0.0426757
0.00351855
0.0416585
0.00127236
0.00048894
0.0414333
0.0476318
0.00150286
-0.0480131
0.0472992
0.00149574
0.046927
0.00161874
0.0465583
0.00158349
0.0462362
0.00148634
0.0459852
0.00134912
0.0457411
0.00118942
0.0455317
0.000999696
0.0453543
0.000848436
0.045265
0.000610771
0.0452327
0.000373888
0.0453203
-0.00011499
0.0454296
-0.000300906
0.0456726
-0.000845296
0.0459872
-0.00120829
0.046456
-0.00180439
0.0468807
-0.00176211
0.0473641
-0.00197295
0.0477536
-0.00167491
0.0480832
-0.00125762
0.048198
-0.000479436
0.0481296
0.000538243
0.0479125
0.00126575
0.0475638
0.00210196
0.0469953
0.00266368
0.0463877
0.00228968
0.0459276
0.00141157
0.0456974
0.000193136
0.04589
-0.00101183
0.046463
-0.00225274
0.0477562
-0.00336218
0.0492088
-0.00282464
0.0508191
-0.00176025
0.0517424
0.00115615
0.052068
0.00295774
0.0513978
0.00552376
0.0499559
0.00519074
0.048163
0.00531147
0.0460536
0.00338175
0.00183858
0.0447039
0.0476172
0.00189319
-0.0480075
0.0472552
0.00185775
0.0468951
0.00197881
0.0465419
0.00193668
0.0462158
0.0018124
0.0459449
0.00162009
0.0456884
0.00144585
0.0454858
0.00120236
0.0453243
0.0010099
0.045249
0.000686104
0.0452052
0.000417615
0.0452695
-0.000179291
0.045432
-0.000463357
0.0457544
-0.00116765
0.0460775
-0.00153148
0.0465091
-0.00223593
0.0469673
-0.00222034
0.0474299
-0.00243558
0.0478168
-0.00206174
0.0481353
-0.00157613
0.0482503
-0.000594444
0.048197
0.000591582
0.0479463
0.00151643
0.0476426
0.0024056
0.0471478
0.00315853
0.0464653
0.00297214
0.0457552
0.00212164
0.0453698
0.00057855
0.0453189
-0.000960869
0.0455985
-0.00253242
0.0467033
-0.00446698
0.0482841
-0.00440544
0.0504601
-0.00393625
0.0522016
-0.000585292
0.0530514
0.00210795
0.0526713
0.00590382
0.0510257
0.00683638
0.0487747
0.00756243
0.0461401
0.00601633
0.0029458
0.0450329
0.0475331
0.00227973
-0.0479196
0.0471688
0.00222202
0.0468141
0.00233355
0.0464848
0.00226598
0.0461545
0.00214266
0.0458967
0.00187788
0.0456474
0.00169516
0.0454633
0.00138647
0.0453201
0.00115318
0.0453082
0.000697946
0.0453164
0.000409442
0.0454716
-0.000334454
0.0456347
-0.000626496
0.0459457
-0.00147865
0.0462629
-0.00184869
0.0466777
-0.00265071
0.0470799
-0.00262252
0.0475296
-0.00288531
0.0478861
-0.00241827
0.0481805
-0.00187049
0.0483057
-0.000719628
0.0482995
0.000597753
0.0480414
0.00177455
0.0477448
0.00270224
0.0473023
0.00360096
0.0467853
0.00348921
0.0461693
0.00273757
0.0455951
0.00115281
0.045361
-0.00072684
0.045331
-0.00250234
0.0461269
-0.00526295
0.0474438
-0.00572235
0.0496335
-0.00612587
0.0520299
-0.00298173
0.0540094
0.00012849
0.0551241
0.00478912
0.0548519
0.00710851
0.0534325
0.00898186
0.0502327
0.00921618
0.00521094
0.0479675
0.0474983
0.00267174
-0.0478904
0.0471355
0.00258484
0.0467916
0.0026775
0.0464665
0.00259105
0.0461561
0.00245311
0.0458849
0.00214899
0.0456501
0.00192999
0.0454968
0.00153977
0.0453919
0.00125809
0.0453836
0.000706238
0.0453764
0.000416623
0.0454984
-0.000456392
0.0456733
-0.000801394
0.0460048
-0.00181016
0.0463404
-0.00218434
0.0467367
-0.00304703
0.0471679
-0.00305364
0.0476138
-0.00333123
0.047952
-0.00275652
0.0482179
-0.00213634
0.048373
-0.000874736
0.0484176
0.000553141
0.0482134
0.0019787
0.0478816
0.00303404
0.0474656
0.00401697
0.0468957
0.00405913
0.04625
0.00338326
0.0455857
0.00181711
0.0452846
-0.000425693
0.0450038
-0.0022216
0.0453687
-0.0056278
0.0464139
-0.00676758
0.0483797
-0.00809163
0.0511617
-0.00576375
0.053767
-0.00247683
0.0556714
0.00288477
0.0559443
0.00683555
0.0555735
0.00935266
0.0527935
0.0119962
0.00782029
0.0501842
0.0473951
0.0030533
-0.0477766
0.0470299
0.00295004
0.0466932
0.00301417
0.0463962
0.00288801
0.0460854
0.00276395
0.0458374
0.00239698
0.0456333
0.00213405
0.0455108
0.00166227
0.0454229
0.00134606
0.0454214
0.000707712
0.0454488
0.000389231
0.0456374
-0.00064503
0.0458536
-0.00101755
0.0461501
-0.00210668
0.0465121
-0.00254632
0.0469078
-0.00344276
0.0473019
-0.00344776
0.0477158
-0.00374512
0.0480418
-0.00308251
0.0482908
-0.0023854
0.0484443
-0.0010282
0.0484981
0.000499377
0.0483314
0.00214539
0.0480331
0.00333233
0.0476405
0.0044096
0.0470831
0.00461652
0.0465455
0.00392082
0.0457603
0.00260231
0.0453037
3.09586e-05
0.0449135
-0.00183146
0.0449083
-0.00562261
0.0456032
-0.0074624
0.0469781
-0.00946658
0.0498002
-0.00858579
0.0526971
-0.00537374
0.0559716
-0.000389721
0.0572002
0.00560692
0.0582506
0.00830225
0.0569119
0.0133349
0.0103999
0.0543323
0.0473547
0.00343766
-0.047739
0.0469958
0.0033089
0.0466684
0.00334161
0.0463801
0.00317631
0.0461014
0.00304266
0.0458576
0.00264076
0.045671
0.00232063
0.0455623
0.00177096
0.0454813
0.00142712
0.045507
0.00068196
0.045579
0.000317212
0.0457463
-0.000812306
0.0459538
-0.00122507
0.0462723
-0.0024251
0.0466207
-0.00289473
0.0470171
-0.00383916
0.0474186
-0.00384934
0.0477996
-0.00412604
0.0481392
-0.0034222
0.048393
-0.00263914
0.0485452
-0.00118041
0.0486041
0.000440453
0.0485229
0.00222662
0.0482661
0.00358909
0.0479138
0.00476197
0.0473121
0.00521816
0.0467415
0.00449145
0.0459344
0.00340941
0.0453192
0.000646099
0.0448657
-0.00137796
0.0445036
-0.00526043
0.0449629
-0.00792176
0.0457585
-0.0102621
0.0483259
-0.0111532
0.051257
-0.00830482
0.0554303
-0.00456299
0.0576403
0.00339686
0.0593763
0.00656624
0.0593575
0.0133537
0.0122822
0.0574751
0.0472362
0.00380829
-0.0476069
0.0468946
0.00365055
0.0465683
0.00366791
0.0462907
0.00345388
0.0460508
0.00328256
0.0458255
0.00286609
0.0456689
0.00247718
0.0455671
0.00187283
0.0455274
0.00146678
0.0455775
0.000631887
0.0456796
0.000215041
0.0458432
-0.00097585
0.0460891
-0.00147101
0.0463934
-0.00272933
0.0467624
-0.00326381
0.0471273
-0.00420405
0.0475565
-0.00427846
0.0479039
-0.00447353
0.0482378
-0.00375605
0.048481
-0.0028823
0.0486573
-0.00135679
0.0487111
0.000386647
0.0486795
0.0022583
0.048429
0.00383958
0.0481561
0.00503485
0.0475642
0.00581001
0.0469681
0.00508761
0.0462009
0.00417662
0.0453682
0.00147875
0.0448032
-0.000812946
0.0441165
-0.00457373
0.0442899
-0.00809519
0.0446278
-0.0106
0.0467213
-0.0132467
0.0492631
-0.0108466
0.0536846
-0.00898452
0.057394
-0.000312525
0.0600881
0.00387217
0.0612984
0.0121434
0.0131978
0.0603828
0.047202
0.00417705
-0.0475708
0.0468583
0.00399429
0.0465739
0.00395226
0.0463028
0.00372505
0.0460671
0.00351817
0.0458672
0.00306607
0.0457142
0.00263016
0.0456428
0.00194421
0.0456259
0.0014837
0.0456899
0.000567879
0.0458027
0.000102186
0.0459893
-0.00116241
0.0462546
-0.00173632
0.0465517
-0.00302642
0.0469171
-0.00362919
0.0472587
-0.00454572
0.0476661
-0.00468582
0.0480114
-0.00481886
0.0483336
-0.00407825
0.0485847
-0.00313335
0.0487779
-0.00155002
0.048871
0.000293603
0.0488735
0.0022558
0.04864
0.00407302
0.0484135
0.00526135
0.047929
0.00629447
0.0472559
0.0057608
0.046537
0.00489548
0.0455116
0.00250416
0.0448604
-0.000161753
0.0439406
-0.00365389
0.0437956
-0.00795019
0.0436391
-0.0104436
0.0451546
-0.0147621
0.0475078
-0.0131999
0.0514517
-0.0129284
0.0562411
-0.00510197
0.0601989
-8.55856e-05
0.0627412
0.00960107
0.0131462
0.0627928
0.0470724
0.00452804
-0.0474234
0.0467593
0.00430739
0.046471
0.00424057
0.0462129
0.00398314
0.0460264
0.00370473
0.045847
0.00324548
0.0457203
0.00275679
0.0456838
0.00198077
0.0456839
0.00148356
0.0457747
0.000477065
0.0459022
-2.5264e-05
0.0461039
-0.00136418
0.0463867
-0.00201906
0.0466675
-0.00330726
0.0470585
-0.00402013
0.0473847
-0.004872
0.0478033
-0.00510433
0.0481179
-0.00513355
0.0484666
-0.00442692
0.0487153
-0.00338202
0.0489107
-0.0017454
0.0489963
0.000207973
0.0490719
0.00218024
0.048913
0.00423192
0.0486839
0.00549037
0.0482803
0.00669816
0.0475728
0.0064682
0.0468784
0.00558992
0.0457391
0.00364347
0.044955
0.00062229
0.0437917
-0.00249051
0.0433633
-0.00752183
0.0428303
-0.00991055
0.0435045
-0.0154363
0.0455491
-0.0152445
0.0488684
-0.0162477
0.0539585
-0.0101921
0.0590602
-0.00518727
0.0632551
0.00540616
0.0118763
0.0645251
0.0470631
0.00486512
-0.0474001
0.0467504
0.00462005
0.0464866
0.00450436
0.0462513
0.0042184
0.0460532
0.00390284
0.0459128
0.00338588
0.0458175
0.00285216
0.0457771
0.00202115
0.045797
0.00146369
0.0458995
0.000374501
0.0460629
-0.000188593
0.0462577
-0.00155898
0.0465645
-0.00232589
0.0468414
-0.00358416
0.0472306
-0.00440933
0.0475443
-0.00518568
0.0479444
-0.00550448
0.0482565
-0.00544564
0.0485895
-0.00475987
0.0488392
-0.00363174
0.0490635
-0.00196968
0.0491786
9.28083e-05
0.0492362
0.00212262
0.0491942
0.00427399
0.0489675
0.00571706
0.048679
0.0069866
0.047938
0.00720929
0.0473351
0.00619277
0.0460994
0.00487915
0.0451387
0.001583
0.0437815
-0.00113329
0.0429582
-0.00669851
0.0422833
-0.0092357
0.0421456
-0.0152986
0.043551
-0.0166498
0.0462358
-0.0189325
0.051032
-0.0149883
0.0567111
-0.0108664
0.0628326
-0.000715422
0.00905143
0.0656575
0.0469448
0.00517809
-0.0472578
0.0466482
0.00491665
0.0464076
0.00474501
0.0461926
0.00443332
0.0460272
0.00406824
0.045908
0.00350515
0.0458311
0.00292903
0.0458234
0.00202884
0.0458789
0.00140816
0.0459857
0.000267706
0.0461827
-0.000385559
0.0463786
-0.00175485
0.0467201
-0.00266748
0.0469735
-0.00383747
0.0473866
-0.00482252
0.0476774
-0.00547648
0.048084
-0.00591107
0.0483904
-0.00575197
0.0487199
-0.00508938
0.048957
-0.00386883
0.0492001
-0.00221281
0.0493701
-7.72314e-05
0.0494659
0.00202687
0.0494748
0.00426509
0.0492557
0.00593614
0.0491102
0.00713212
0.0483919
0.00792761
0.0477525
0.00683218
0.0466367
0.00599496
0.0454803
0.00273941
0.0440201
0.000326827
0.0426983
-0.00537672
0.0416747
-0.00821207
0.0408862
-0.0145101
0.0416176
-0.0173813
0.0435338
-0.0208486
0.047773
-0.0192275
0.0532398
-0.0163332
0.0608186
-0.00829422
0.00421047
0.0656596
0.0469665
0.00548268
-0.0472711
0.046685
0.00519816
0.0464523
0.00497774
0.0462413
0.0046443
0.0460928
0.00421673
0.0460026
0.00359541
0.045949
0.00298264
0.0459566
0.00202118
0.0460367
0.00132813
0.0461376
0.000166756
0.0463858
-0.000633807
0.0465393
-0.00190829
0.0469182
-0.00304634
0.0471695
-0.00408882
0.0475577
-0.00521068
0.0478802
-0.00579905
0.0482313
-0.00626209
0.0485568
-0.00607749
0.0488703
-0.00540288
0.0491352
-0.00413373
0.0493474
-0.00242508
0.0495932
-0.000322979
0.0496422
0.00197788
0.0497941
0.00411312
0.0495841
0.00614617
0.0494744
0.00724187
0.0489646
0.00843735
0.0482172
0.00757963
0.0471781
0.00703397
0.0459772
0.00394039
0.0444554
0.00184862
0.0427039
-0.00362527
0.0414286
-0.00693677
0.0400184
-0.0130999
0.039769
-0.0171319
0.0407282
-0.0218078
0.0442038
-0.0227031
0.0489872
-0.0211166
0.0569524
-0.0162594
-0.00266255
0.0638254
0.046833
0.00576096
-0.0471113
0.0465713
0.00545983
0.0463664
0.00518266
0.0462029
0.00480781
0.0460819
0.00433777
0.0460117
0.0036656
0.0459832
0.00301112
0.0460103
0.00199414
0.0461289
0.0012095
0.0462069
8.86922e-05
0.0465382
-0.000965041
0.0467082
-0.00207829
0.0470693
-0.00340744
0.0473629
-0.00438247
0.0476985
-0.00554622
0.0480593
-0.00615985
0.0484033
-0.00660615
0.0487117
-0.00638587
0.0490119
-0.00570303
0.0493149
-0.00443675
0.0494921
-0.00260224
0.0498134
-0.0006443
0.0499014
0.00188989
0.050084
0.00393051
0.0499863
0.0062439
0.049871
0.00735711
0.0495003
0.00880801
0.0489004
0.00817954
0.047837
0.00809743
0.0465639
0.00521344
0.0451159
0.00329668
0.0430941
-0.00160351
0.0413999
-0.00524256
0.0394395
-0.0111395
0.0383457
-0.0160381
0.0380678
-0.0215298
0.0403495
-0.0249848
0.0442599
-0.0250271
0.0521087
-0.0241081
-0.0109697
0.0604158
0.0468769
0.00602837
-0.0471443
0.0466403
0.00569643
0.0464376
0.00538532
0.0462948
0.00495062
0.046182
0.0044506
0.0461495
0.00369811
0.0461679
0.00299273
0.0461442
0.00201784
0.046345
0.00100864
0.0464336
1.17639e-07
0.0467458
-0.00127728
0.0469282
-0.00226068
0.0472725
-0.00375173
0.0475858
-0.00469575
0.0479053
-0.00586571
0.0482549
-0.00650948
0.0485851
-0.0069363
0.0489192
-0.00671996
0.0491743
-0.00595816
0.0495216
-0.00478409
0.0496985
-0.00277912
0.0500014
-0.000947235
0.0501788
0.00171255
0.0503583
0.003751
0.0503778
0.00622434
0.0503272
0.00740776
0.0499856
0.00914958
0.0495034
0.00866175
0.0486569
0.00894396
0.0473086
0.00656174
0.0458444
0.00476091
0.0437326
0.000508255
0.0418067
-0.00331667
0.0393383
-0.00867115
0.0374287
-0.0141285
0.0359001
-0.0200013
0.0366418
-0.0257265
0.0389376
-0.0273229
0.045787
-0.0309575
-0.0200555
0.0548728
0.0467459
0.00626663
-0.0469841
0.0465365
0.00590578
0.0463665
0.00555534
0.0462479
0.00506928
0.0461992
0.00449927
0.0461236
0.00377366
0.0462232
0.00289311
0.0462598
0.00198126
0.0464637
0.000804737
0.0465702
-0.000106379
0.0468602
-0.00156729
0.0471274
-0.00252782
0.0474397
-0.00406409
0.0477786
-0.00503464
0.0481066
-0.00619371
0.0484448
-0.00684766
0.0487563
-0.00724779
0.0491023
-0.00706596
0.0493414
-0.00619732
0.0496947
-0.00513733
0.0499143
-0.00299872
0.0501911
-0.00122406
0.0504703
0.00143333
0.0507033
0.00351804
0.0507741
0.0061535
0.0508588
0.00732313
0.0506417
0.00936669
0.050127
0.00917645
0.0494807
0.00959023
0.0482396
0.00780282
0.046809
0.00619156
0.0446608
0.00265639
0.0425818
-0.00123764
0.0397891
-0.00587842
0.0372488
-0.0115882
0.0344846
-0.017237
0.0335872
-0.024829
0.0337905
-0.0275263
0.0382766
-0.0354436
-0.0282054
0.0464265
0.0468205
0.00650647
-0.0470603
0.0466313
0.00609496
0.0464925
0.00569415
0.0463699
0.00519183
0.0463485
0.0045207
0.0463261
0.00379608
0.0464271
0.0027921
0.0464756
0.00193274
0.0466606
0.000619758
0.0468646
-0.000310418
0.0470853
-0.00178794
0.0474065
-0.00284906
0.047705
-0.00436254
0.0480391
-0.00536875
0.0483639
-0.00651851
0.0487085
-0.00719226
0.048986
-0.00752528
0.0493312
-0.00741114
0.049587
-0.00645315
0.0498951
-0.00544539
0.0501794
-0.00328308
0.0504638
-0.00150848
0.0507232
0.00117398
0.0510667
0.00317454
0.051212
0.00600815
0.0512979
0.00723724
0.0512993
0.0093653
0.0508678
0.00960799
0.0503574
0.0101006
0.0492001
0.00896015
0.0478778
0.00751385
0.0457793
0.00475488
0.0436219
0.000919716
0.0407028
-0.00295926
0.0377948
-0.00868028
0.0341573
-0.0135995
0.0315838
-0.0222555
0.0297794
-0.0257219
0.0307521
-0.0364163
-0.0336349
0.0361816
0.0466833
0.00670569
-0.0468825
0.046538
0.0062403
0.0464217
0.00581038
0.0463502
0.00526338
0.0463573
0.00451358
0.0463856
0.00376782
0.0464778
0.00269984
0.0466173
0.00179324
0.0467601
0.000476943
0.0470435
-0.000593787
0.0472803
-0.00202471
0.0476334
-0.00320217
0.0478955
-0.00462461
0.0482797
-0.00575304
0.0485774
-0.00681612
0.0489494
-0.00756431
0.0492026
-0.00777845
0.0495378
-0.00774633
0.0498085
-0.00672389
0.0500918
-0.00572866
0.0503994
-0.00359066
0.0507514
-0.00186051
0.0510203
0.0009051
0.0514103
0.00278455
0.0517055
0.00571292
0.0518378
0.00710497
0.0519709
0.00923217
0.0516458
0.00993307
0.0512965
0.0104499
0.0503235
0.00993322
0.0491544
0.00868294
0.0471624
0.00674687
0.0450286
0.00305352
0.0421258
-5.64771e-05
0.0390001
-0.00555458
0.0350097
-0.00960909
0.0309638
-0.0182096
0.0276625
-0.0224206
0.02517
-0.0339237
-0.0355905
0.0271256
0.0468277
0.00688549
-0.0470075
0.0466867
0.00638131
0.0466014
0.00589565
0.0465666
0.00529816
0.0465814
0.00449883
0.0466377
0.00371155
0.0467045
0.00263295
0.0469241
0.00157367
0.0470642
0.000336843
0.0473599
-0.000889495
0.0475924
-0.00225717
0.0479545
-0.0035643
0.0482238
-0.00489394
0.0486043
-0.0061335
0.0488844
-0.00709617
0.0492212
-0.00790116
0.0495105
-0.00806772
0.0498016
-0.0080375
0.0500847
-0.0070069
0.0503662
-0.00601017
0.0506571
-0.00388156
0.0510226
-0.00222601
0.0513761
0.000551616
0.0517366
0.00242405
0.0521797
0.00526976
0.0523699
0.00691478
0.0526887
0.00891339
0.0525022
0.0101196
0.0522384
0.0107137
0.0514198
0.0107518
0.0505036
0.00959915
0.0487407
0.00850981
0.0466178
0.0051764
0.0438502
0.00271106
0.0406654
-0.00236978
0.0368429
-0.00578656
0.0318305
-0.0131972
0.0273757
-0.0179658
0.0221441
-0.0286921
-0.0341631
0.0207167
0.0466975
0.00701369
-0.0468257
0.046615
0.00646379
0.0465757
0.00593502
0.0465843
0.00528955
0.0465957
0.00448739
0.0467384
0.00356885
0.0468029
0.00256842
0.0470696
0.00130699
0.0472307
0.000175734
0.0475529
-0.00121166
0.0478185
-0.0025228
0.0481846
-0.0039304
0.048497
-0.00520631
0.0488397
-0.00647622
0.0491806
-0.00743705
0.0494818
-0.00820243
0.0497804
-0.0083663
0.0500576
-0.00831467
0.050338
-0.00728728
0.0506248
-0.00629703
0.0509527
-0.00420941
0.0512899
-0.00256327
0.0517376
0.000103988
0.0521077
0.00205394
0.0526845
0.00469297
0.052944
0.00665521
0.0533944
0.00846304
0.0533981
0.0101159
0.0533451
0.0107667
0.0526572
0.0114396
0.0518946
0.0103618
0.0504976
0.00990683
0.0486006
0.00707343
0.0460492
0.00526238
0.0427894
0.000890106
0.0393472
-0.00234444
0.0343101
-0.00816005
0.0291133
-0.012769
0.0219504
-0.0215292
-0.0294589
0.0172462
0.0469168
0.00713539
-0.0470385
0.0468636
0.00651703
0.0468457
0.00595285
0.0468675
0.00526776
0.0468937
0.00446118
0.0470782
0.00338441
0.0471859
0.00246068
0.0474436
0.00104928
0.047625
-5.67222e-06
0.0479303
-0.00151693
0.0482575
-0.00285
0.0485666
-0.00423952
0.0489116
-0.00555125
0.0492362
-0.00680088
0.0495601
-0.00776091
0.0498514
-0.00849379
0.0501411
-0.008656
0.0503933
-0.00856685
0.0506805
-0.00757442
0.050925
-0.00654158
0.0513056
-0.00458997
0.0516135
-0.00287122
0.052159
-0.00044147
0.0525094
0.00170353
0.0532166
0.00398577
0.0535651
0.00630668
0.0541303
0.00789786
0.0542877
0.00995854
0.054439
0.0106153
0.0540348
0.0118438
0.0533721
0.0110244
0.0521873
0.0110916
0.050546
0.00871474
0.0485406
0.0072678
0.0455227
0.00390805
0.0421172
0.00106105
0.0376239
-0.00366672
0.0325458
-0.00769102
0.0248051
-0.0137885
-0.022311
0.0176571
0.0468081
0.00720526
-0.046878
0.0467999
0.00652526
0.0467923
0.00596043
0.0468794
0.00518066
0.0469463
0.00439427
0.0471615
0.00316915
0.0473674
0.00225479
0.0475816
0.000835125
0.0478832
-0.000307236
0.0481648
-0.00179858
0.0485427
-0.00322785
0.0488363
-0.00453315
0.0492357
-0.00595067
0.0495622
-0.00712734
0.0498758
-0.00807449
0.0501647
-0.00878277
0.0504694
-0.00896065
0.0506796
-0.00877706
0.0509962
-0.00789101
0.051188
-0.00673341
0.0516516
-0.00505357
0.0519236
-0.00314317
0.0525662
-0.00108407
0.0529559
0.00131385
0.0537444
0.00319724
0.0542275
0.00582361
0.0548919
0.00723347
0.055299
0.00955136
0.0555981
0.0103163
0.055471
0.0119709
0.0550595
0.011436
0.0542915
0.0118596
0.0527381
0.0102681
0.0510001
0.00900583
0.0486468
0.00626139
0.0457121
0.00399571
0.041723
0.000322423
0.0372159
-0.00318396
0.0304006
-0.0069732
-0.0144971
0.0225867
0.0471372
0.00726938
-0.0472013
0.0471426
0.00651981
0.0471484
0.00595466
0.0472747
0.00505434
0.0474025
0.00426645
0.0475425
0.00302911
0.047793
0.00200436
0.0480093
0.000618811
0.048385
-0.000682969
0.0486613
-0.00207486
0.0490449
-0.00361141
0.0493846
-0.0048729
0.0497432
-0.0063093
0.0500333
-0.00741743
0.0503888
-0.00843001
0.0505831
-0.00897707
0.0509305
-0.00930802
0.0510637
-0.00891028
0.0514007
-0.00822796
0.0515423
-0.00687502
0.0520243
-0.00553555
0.0522888
-0.00340772
0.0529672
-0.00176246
0.0534265
0.000854583
0.0542328
0.00239092
0.0549249
0.00513152
0.0556731
0.00648521
0.0562544
0.00897004
0.0567849
0.00978588
0.0570526
0.0117031
0.0567329
0.0117557
0.056316
0.0122765
0.0552283
0.0113559
0.0537307
0.0105034
0.0515458
0.00844629
0.0491071
0.00643437
0.0459089
0.00352066
0.0419922
0.000732718
0.0369039
-0.00188484
-0.00802246
0.0304292
0.0470384
0.00728489
-0.0470539
0.0470933
0.00646494
0.0472028
0.00584514
0.0473282
0.0049289
0.0475269
0.00406782
0.0477441
0.00281186
0.0480483
0.00170015
0.0483128
0.00035431
0.0486896
-0.00105974
0.0489919
-0.00237711
0.0494018
-0.00402136
0.0497205
-0.0051916
0.0501511
-0.00673987
0.0503941
-0.00766043
0.0508097
-0.00884564
0.0509426
-0.00910997
0.0512845
-0.00964991
0.0513978
-0.0090236
0.0517789
-0.00860905
0.0518945
-0.0069906
0.0523754
-0.00601644
0.0526763
-0.00370868
0.0533147
-0.00240084
0.0539049
0.000264421
0.0547044
0.00159136
0.055532
0.00430396
0.0564329
0.00558433
0.0573179
0.00808502
0.0579443
0.00915952
0.0586378
0.0110095
0.0586987
0.0116948
0.0585919
0.0123833
0.0577682
0.0121795
0.056763
0.0115087
0.0551277
0.0100816
0.0527724
0.0087896
0.0500871
0.00620597
0.0472014
0.00361849
0.0430363
0.0022802
-0.00266968
0.0376836
0.0475727
0.00726631
-0.0475541
0.0476467
0.0063909
0.0477957
0.00569616
0.047958
0.00476662
0.0482003
0.00382557
0.0484046
0.00260752
0.0487672
0.00133758
0.0489997
0.000121763
0.0494215
-0.00148149
0.0497114
-0.00266708
0.0501555
-0.00446543
0.0504319
-0.00546797
0.0508609
-0.00716892
0.0510659
-0.00786534
0.0514357
-0.0092155
0.0515969
-0.00927119
0.0518567
-0.00990971
0.0519525
-0.00911931
0.0522569
-0.00891354
0.0524185
-0.00715218
0.052777
-0.00637493
0.0531729
-0.00410459
0.0537431
-0.00297103
0.0544375
-0.00042992
0.0552326
0.00079623
0.0562066
0.00332991
0.0571425
0.00464846
0.0583259
0.00690163
0.0591082
0.00837722
0.0601274
0.0099903
0.0604709
0.0113513
0.0608228
0.0120314
0.0605561
0.0124463
0.0596394
0.0124253
0.0585424
0.0111786
0.0570521
0.0102798
0.0543172
0.00894096
0.0518897
0.00604597
0.0489212
0.00524865
0.00166443
0.0445871
0.0475608
0.00716117
-0.0474556
0.047653
0.00629869
0.0478481
0.00550101
0.0480177
0.00459706
0.0483802
0.00346306
0.0486077
0.00238004
0.0490175
0.000927739
0.0493481
-0.00020881
0.049827
-0.00196035
0.050166
-0.00300611
0.0506165
-0.00491596
0.0509875
-0.00583897
0.0513567
-0.00753806
0.0516577
-0.00816635
0.0519272
-0.00948505
0.0521302
-0.00947419
0.0523476
-0.0101271
0.0524832
-0.00925499
0.0526664
-0.00909669
0.0529179
-0.00740367
0.0531842
-0.00664124
0.0536664
-0.00458676
0.0541611
-0.00346575
0.0549719
-0.00124071
0.0557099
5.81652e-05
0.0569305
0.0021093
0.0578607
0.0037183
0.0593624
0.00539996
0.0603311
0.00740851
0.061628
0.0086934
0.062567
0.0104123
0.0630193
0.0115791
0.0634083
0.0120573
0.063224
0.0126096
0.0620643
0.0123383
0.0613178
0.0110263
0.0593468
0.010912
0.0570409
0.00835184
0.0545597
0.00772988
0.00501713
0.051207
0.0483891
0.00703644
-0.0482644
0.0484995
0.00618826
0.0487883
0.00521228
0.0490046
0.00438075
0.0492933
0.0031744
0.049592
0.00208132
0.0499314
0.000588347
0.0503666
-0.000643997
0.0506699
-0.00226373
0.0511704
-0.00350655
0.0515118
-0.00525738
0.0519118
-0.00623904
0.0522053
-0.00783155
0.0525317
-0.00849275
0.052698
-0.00965135
0.0529183
-0.00969442
0.0529597
-0.0101684
0.0531777
-0.00947304
0.0531852
-0.00910421
0.0535411
-0.00775957
0.0536566
-0.00675671
0.0542517
-0.0051819
0.0545857
-0.00379975
0.0555944
-0.00224938
0.0561998
-0.00054718
0.0576296
0.000679503
0.0586435
0.00270435
0.0601506
0.00389285
0.0616661
0.005893
0.0629507
0.00740885
0.0644114
0.0089516
0.0655558
0.0104347
0.0659887
0.0116244
0.066735
0.0118633
0.0661974
0.0128759
0.0655076
0.0117161
0.0645078
0.0119117
0.0627189
0.0101408
0.0605625
0.0098863
0.00764827
0.0579313
0.0483392
0.00677552
-0.0480783
0.0486181
0.0059093
0.048885
0.00494545
0.0492762
0.00398949
0.0496261
0.00282446
0.0501446
0.00156283
0.0504504
0.000282608
0.0509808
-0.00117445
0.0513401
-0.00262305
0.0519165
-0.00408285
0.0521826
-0.00552356
0.0527129
-0.00676933
0.0528767
-0.00799536
0.0533187
-0.0089347
0.0532722
-0.00960487
0.0536158
-0.0100381
0.0534832
-0.0100358
0.0537788
-0.00976862
0.0536288
-0.00895418
0.0540584
-0.00818924
0.0540731
-0.0067714
0.0547235
-0.0058323
0.0550443
-0.00412049
0.0560135
-0.00321858
0.0568406
-0.00137433
0.0580093
-0.000489187
0.0594854
0.00122823
0.0609113
0.00246699
0.0626829
0.00412136
0.0645369
0.00555484
0.0660449
0.00744361
0.067936
0.00854363
0.0690566
0.0105038
0.0700501
0.0108698
0.0706036
0.0123224
0.0704974
0.0118223
0.0699294
0.0124797
0.0689579
0.0111124
0.0675387
0.0113055
0.00982942
0.0653575
0.0495481
0.00654333
-0.0493159
0.0499083
0.00554908
0.0502163
0.00463745
0.050648
0.00355778
0.0509313
0.00254118
0.0514614
0.00103272
0.0518101
-6.61203e-05
0.0524258
-0.00179011
0.0527164
-0.00291366
0.0533664
-0.00473282
0.0535061
-0.00566324
0.0541132
-0.0073765
0.0541082
-0.00799035
0.0545474
-0.00937394
0.0544238
-0.00948122
0.0547116
-0.0103258
0.0544889
-0.00981317
0.0546764
-0.00995609
0.0545004
-0.00877815
0.0547718
-0.00846067
0.0548602
-0.00685983
0.0552523
-0.00622435
0.055786
-0.0046542
0.0564598
-0.00389237
0.057457
-0.00237161
0.05862
-0.00165215
0.0600409
-0.000192702
0.061724
0.00078391
0.0634745
0.00237082
0.0656955
0.00333392
0.0676481
0.00549094
0.0698433
0.00634844
0.0717894
0.0085577
0.0734293
0.00922992
0.0746915
0.0110602
0.0754506
0.0110632
0.075758
0.0121724
0.0752595
0.0116109
0.0748023
0.0117627
0.0114047
0.0732271
0.0496486
0.00621262
-0.0493179
0.050149
0.00504872
0.0505967
0.00418974
0.0511953
0.00295922
0.0517192
0.00201722
0.0523249
0.00042701
0.0527616
-0.000502753
0.0534119
-0.00244042
0.0538006
-0.00330236
0.0543409
-0.00527319
0.054673
-0.00599532
0.0550411
-0.00774459
0.0552242
-0.00817342
0.0554399
-0.00958969
0.0554246
-0.00946584
0.0554334
-0.0103346
0.0553943
-0.00977407
0.0552119
-0.00977375
0.0552637
-0.00882989
0.0552614
-0.00845837
0.0553846
-0.00698309
0.0557671
-0.00660687
0.0562652
-0.00515227
0.0569106
-0.0045378
0.0579282
-0.00338914
0.05919
-0.00291398
0.0605366
-0.00153927
0.0623735
-0.00105305
0.0642982
0.000446208
0.0665389
0.00109314
0.0690113
0.00301852
0.0715487
0.00381113
0.0741634
0.00594295
0.0765842
0.00680913
0.0789036
0.00874082
0.080359
0.00960777
0.0818308
0.0107006
0.0821693
0.0112724
0.0824959
0.011436
0.0120897
0.0818108
0.0516955
0.00588481
-0.0513677
0.0520685
0.00467571
0.0524768
0.00378137
0.0529371
0.002499
0.0534808
0.00147347
0.0540577
-0.000149881
0.0546779
-0.00112297
0.0551458
-0.00290825
0.0557069
-0.00386349
0.0560664
-0.00563274
0.0565605
-0.0064894
0.0566356
-0.00781971
0.0569748
-0.00851257
0.0568597
-0.00947464
0.0568978
-0.00950392
0.0567456
-0.0101824
0.0565678
-0.00959629
0.0563573
-0.00956327
0.0563119
-0.00878451
0.0560955
-0.00824198
0.056264
-0.00715158
0.0564524
-0.00679522
0.0568698
-0.0055697
0.0575531
-0.00522106
0.0584845
-0.00432058
0.0595868
-0.00401625
0.061141
-0.00309344
0.0627396
-0.00265167
0.0648804
-0.0016946
0.0670667
-0.0010932
0.0699673
0.000117917
0.0727042
0.00107423
0.0761539
0.00249333
0.0791184
0.00384456
0.0825224
0.00533684
0.0851724
0.00695778
0.0878225
0.00805047
0.0895074
0.00958749
0.0908766
0.0100668
0.0117818
0.0911845
0.0528054
0.00509725
-0.0520178
0.0535228
0.00395836
0.0542971
0.00300705
0.0549678
0.0018283
0.0556424
0.000798863
0.0561128
-0.000620338
0.0568133
-0.00182347
0.0573183
-0.0034132
0.0578595
-0.0044047
0.0581664
-0.00593961
0.0584716
-0.00679469
0.0585766
-0.00792462
0.058689
-0.00862502
0.058466
-0.00925159
0.058443
-0.00948098
0.0580208
-0.00976015
0.0578013
-0.00937686
0.0574254
-0.00918736
0.0572215
-0.00858055
0.0569456
-0.00796607
0.0570132
-0.00721922
0.057008
-0.00679004
0.0574897
-0.0060514
0.0580025
-0.0057338
0.0588955
-0.00521364
0.0598577
-0.00497838
0.0613734
-0.00460918
0.0628797
-0.00415797
0.0650224
-0.00383729
0.0671469
-0.00321775
0.0701128
-0.00284794
0.0731506
-0.00196356
0.0769553
-0.00131142
0.0808494
-4.95271e-05
0.0851773
0.00100899
0.0892462
0.00288881
0.0934215
0.0038752
0.0969513
0.00605771
0.100085